/*--------------------------------*- C++ -*----------------------------------*\
| =========                 |                                                 |
| \\      /  F ield         | OpenFOAM: The Open Source CFD Toolbox           |
|  \\    /   O peration     | Version:  2.3.0                                 |
|   \\  /    A nd           | Web:      www.OpenFOAM.org                      |
|    \\/     M anipulation  |                                                 |
\*---------------------------------------------------------------------------*/
FoamFile
{
    version     2.0;
    format      ascii;
    class       volScalarField;
    location    "1.7";
    object      p_rgh;
}
// * * * * * * * * * * * * * * * * * * * * * * * * * * * * * * * * * * * * * //

dimensions      [1 -1 -2 0 0 0 0];

internalField   nonuniform List<scalar> 
2268
(
695.553
683.368
663.615
648.123
633.303
610.124
609.149
641.39
651.79
658.638
669.664
680.158
692.766
706.368
718.169
727.687
734.277
735.373
735.372
740.543
749.31
757.988
763.348
698.445
683.943
655.835
629.592
615.142
587.443
592.281
637.09
648.537
656.017
669.053
679.713
692.452
706.374
718.509
728.423
735.022
735.334
733.603
739.765
747.953
756.004
762.713
701.421
680.648
630.229
621.998
608.845
581.148
579.84
629.931
648.483
656.581
668.93
679.096
691.739
706.3
719.071
728.988
735.193
735.937
735.434
741.077
748.883
756.055
762.409
703.457
682.641
623.521
615.944
602.565
574.247
555.359
627.217
650.354
657.4
668.229
677.828
690.507
706.172
719.859
730.159
736.215
735.097
734.502
739.115
749.191
756.238
763.114
703.329
676.706
642.044
650.293
630.045
602.498
568.975
615.081
651.373
657.581
666.833
676.128
689.274
706.267
720.792
731.805
738.667
735.109
726.24
732.956
743.024
756.343
765.163
700.082
653.38
663.225
671.566
664.478
636.375
615.659
609.594
649.283
656.248
664.964
674.597
688.909
706.503
720.847
732.79
741.829
739.839
723.895
729.628
739.042
752.72
768.172
691.955
645.879
656.672
664.687
659.762
637.53
622.237
618.749
647.077
653.883
662.989
673.586
689.736
705.516
717.602
731.414
743.895
742.511
723.436
729.153
745.097
753.366
766.198
684.875
645.905
657.539
655.607
658.25
644.859
631.468
637.381
643.915
651.143
661.28
673.853
691.046
702.457
709.304
726.841
744.628
739.326
674.608
723.522
742.231
758.002
775.089
672.359
653.765
616.997
605.52
644.457
716.238
772.976
802.769
812.978
818.499
823.21
830.766
839.655
842.785
846.555
855.224
849.681
818.005
824.86
675.304
653.877
607.538
589.243
628.918
704.06
762.975
792.228
806.179
814.651
822.714
828.272
835.801
840.149
847.27
857.595
848.586
814.287
819.773
676.461
649.348
592.694
576.122
621.733
702.034
758.61
782.754
796.078
804.612
813.709
825.297
839.888
841.506
849.443
860.692
845.206
806.23
816.676
676.903
648.905
595.294
581.579
616.64
694.429
759.103
795.438
800.334
804.529
821.889
839.945
838.249
836.706
849.141
859.825
827.481
801.793
817.491
679.354
654.821
605.956
580.975
610.188
682.114
743.984
784.414
812.734
831.836
840.868
841.435
834.176
828.341
839.211
848.536
812.796
800.496
821.391
684.652
663.602
613.159
585.071
608.836
670.95
726.948
768.924
804.399
830.106
833.157
828.409
826.658
820.92
831.391
830.6
812.726
806.148
817.74
693.356
678.628
627.842
593.61
607.142
653.377
702.93
749.94
795.03
826.838
824.588
827.799
817.136
814.59
822.994
829.033
812.069
806.404
827.531
692.49
684.083
640.958
605.847
600.049
607.369
645.137
713.17
784.004
824.283
828.496
831.675
814.835
810.53
827.218
826.117
796.449
783.892
801.958
684.164
678.098
664.282
663.002
634.581
577.061
568.358
618.979
619.23
629.008
644.287
667.025
678.964
689.281
668.759
712.284
743.005
744.609
635.024
703.149
730.945
750.796
770.067
516.318
578.867
598.599
591.89
611.618
330.144
129.075
156.376
202.361
217.12
259.926
373.062
381.773
429.144
477.223
635.172
766.176
755.841
648.7
596.471
580.681
632.727
712.051
87.5448
139.695
174.409
155.347
67.0667
4.03177
3.87466
3.65428
3.49869
4.05986
4.90062
61.9231
163.513
187.154
252.306
432.762
506.267
468.191
394.205
178.657
68.474
104.02
213.091
4.31666
2.96323
2.30675
2.45874
2.80526
3.31268
3.45871
3.42369
3.42717
3.54761
3.23489
2.46389
17.0233
8.52139
4.07335
69.2351
211.465
281.05
64.0947
5.07659
4.91441
5.23059
5.45786
3.09061
2.44688
2.15585
2.3735
2.76628
3.0986
3.00813
3.02538
2.95879
2.84484
2.54193
2.25829
2.19012
3.00228
3.41655
3.27514
3.46293
4.11921
4.65296
4.73439
4.7609
4.90243
4.79504
2.8789
2.52481
2.65012
2.77649
2.94668
2.68534
2.40143
2.2849
2.31025
2.21847
2.08205
2.12859
2.38317
2.84303
3.36154
3.32261
3.52728
4.93126
4.91705
5.26002
4.57621
4.54029
4.16282
3.07684
2.91721
3.0919
2.47464
2.17571
2.17008
2.06674
1.91469
1.78195
1.72465
1.77535
1.96856
2.30597
2.71357
3.42292
3.98192
4.09297
5.35722
5.74346
5.20679
4.34022
4.21842
4.03663
3.29105
3.29525
2.55937
2.30915
2.2466
2.10489
1.89816
1.6966
1.55734
1.51619
1.59078
1.81647
2.21168
2.7122
3.68228
4.10254
4.60634
5.55126
4.88917
4.1651
3.94096
3.98835
4.09661
3.48832
3.37478
2.58462
2.40979
2.33264
2.13001
1.86731
1.63144
1.46546
1.40868
1.47586
1.69982
2.11321
2.72748
3.80139
4.13749
4.73205
4.94655
7.73235
13.0158
3.71366
3.79472
5.12244
2.91949
2.4858
2.45638
2.44161
2.51774
2.46872
1.94232
1.67744
1.4941
1.40203
1.43341
1.6313
2.02392
2.64666
3.58522
4.13146
6.02659
9.51213
20.1171
20.5572
12.3511
5.71285
6.11765
2.44993
2.42099
2.39953
2.39367
3.22505
3.98866
2.91278
1.86022
1.65073
1.54353
1.52613
1.67082
1.99387
2.47902
3.14694
4.30903
11.2398
23.1009
22.077
21.0932
20.7095
6.61351
5.28367
2.38878
2.33739
2.31053
2.28298
3.45034
4.00773
3.91822
3.60984
1.98726
1.90675
1.81283
1.8696
2.0331
2.29821
2.85701
9.15209
23.9043
23.3996
22.7679
21.027
15.3877
7.528
5.08438
2.92541
2.28163
2.19635
2.13795
2.38666
3.93312
3.99036
4.04048
4.1283
4.06137
2.25457
2.13487
2.07176
2.04505
3.15701
18.8966
24.0583
23.6409
11.9207
0.753617
0.649182
1.30142
9.22106
3.95713
2.2542
2.07137
2.03726
1.97982
1.93079
2.91557
3.52243
2.51927
2.59792
2.80104
2.42672
2.14736
2.42778
4.25724
21.9505
24.5033
15.1695
0.966187
0.825132
0.737197
1.21256
1.52542
3.9049
2.13638
1.97384
1.95807
1.94298
1.92204
1.92574
1.98639
2.0738
2.11262
2.34163
2.92687
3.01111
2.53255
3.54366
20.2159
24.8376
9.91131
1.02869
0.914049
0.84196
0.828416
0.8243
3.89005
1.8972
1.89461
1.89209
1.89427
1.88757
1.89141
1.91403
1.95177
1.95623
1.88928
2.0601
1.97045
1.59522
1.98204
16.0627
24.4031
14.3891
1.08166
0.890444
4.06364
6.15699
2.56743
3.8536
1.80137
1.83264
1.83658
1.84205
1.83854
1.83358
1.82954
1.82103
1.78549
1.68332
1.51943
1.30458
1.02173
0.824986
6.46226
21.8387
21.4984
9.54708
1.08813
7.26914
15.2803
15.7726
3.34035
1.76617
1.78216
1.78597
1.78938
1.93016
2.08711
1.8796
1.68068
1.61404
1.50753
1.35357
1.15077
0.883492
0.515036
0.132501
5.61827
20.9816
21.6959
14.33
5.00153
7.4975
15.6819
3.43562
1.7284
1.7351
1.73659
2.24378
3.00633
3.01073
2.94538
2.08794
1.42011
1.32985
1.2025
1.02899
0.802253
0.51278
0.124386
-0.144235
3.82783
22.2928
23.8345
23.0974
19.964
5.75663
3.68562
1.80834
1.68554
2.04924
3.06156
2.99152
2.91405
2.8195
2.72171
1.66473
1.15254
1.07111
0.935001
0.747388
0.51713
0.207857
-0.125358
-0.391376
0.742479
17.0685
23.8595
17.0553
2.7488
3.72469
2.67004
1.64141
2.81405
3.01241
2.63997
2.32769
2.73268
2.59724
2.32229
1.11049
0.981863
0.876367
0.71319
0.516911
0.281104
0.00335878
-0.295323
-0.590115
-0.333489
2.0601
1.508
-0.00433201
3.75981
2.76443
1.74303
2.82569
2.40103
1.34363
1.2572
1.43476
1.88822
1.27894
0.982592
0.95229
0.855839
0.700899
0.519584
0.325578
0.116943
-0.110971
-0.360092
-0.616555
-0.842797
-0.883253
-0.782977
3.77407
1.84775
1.73937
2.71497
1.3385
1.27234
1.18572
1.0816
0.990789
1.04985
1.09131
0.945987
0.85369
0.700831
0.524992
0.352021
0.189184
0.0329642
-0.1248
-0.283646
-0.414902
-0.477137
-0.475673
2.35677
1.812
2.00329
2.09146
1.25091
1.1739
1.10041
1.00617
0.946336
1.05587
1.12398
1.09939
0.999001
0.712929
0.515652
0.360708
0.229261
0.119403
0.0214551
-0.0671386
-0.136276
-0.179686
-0.208949
1.82502
1.77009
1.95985
1.73352
1.12277
1.04551
0.971329
0.903879
0.855845
0.862232
1.01881
1.02557
0.807608
0.638238
0.47693
0.341667
0.24227
0.172032
0.112387
0.0567215
0.0108804
-0.0234886
-0.0596155
1.48969
1.7284
1.86401
1.38637
0.962345
0.869888
0.802803
0.736373
0.723222
0.733223
0.750982
0.88418
0.813131
0.667483
0.443736
0.288334
0.227756
0.201425
0.178082
0.146286
0.112782
0.0810847
0.0471307
1.36445
1.46267
1.7449
1.24075
0.78794
0.671091
0.596332
0.554643
0.559026
0.580865
0.593954
0.631828
0.67084
0.559748
0.442763
0.29903
0.192126
0.214128
0.228521
0.220931
0.200497
0.175632
0.142401
1.24221
1.19233
1.38397
1.28121
0.621079
0.48227
0.395408
0.364185
0.380968
0.418341
0.442672
0.439166
0.548863
0.449388
0.351299
0.276438
0.256491
0.263888
0.267159
0.279894
0.272044
0.252301
0.219575
1.1445
1.09883
1.04637
1.25691
0.487782
0.323662
0.220479
0.18415
0.208829
0.264678
0.311471
0.32143
0.340894
0.393922
0.320935
0.298228
0.205787
0.300628
0.343706
0.320572
0.312028
0.297001
0.270643
1.12267
1.68312
1.66935
1.16851
0.417698
0.21819
0.0917839
0.0407535
0.0635936
0.136613
0.210348
0.249815
0.281279
0.399296
0.358172
0.239114
0.210857
0.316129
0.358158
0.330619
0.317265
0.305435
0.287767
1.95713
4.08766
4.28747
1.24919
0.388838
0.185937
0.0336105
-0.0370043
-0.0286197
0.046814
0.144127
0.216434
0.248297
0.340626
0.420234
0.25185
0.26752
0.298535
0.323383
0.319648
0.296266
0.281878
0.264722
1.93504
3.54782
4.29201
3.07435
0.466768
0.230411
0.0578708
-0.0367968
-0.036044
0.0110931
0.119189
0.213681
0.265989
0.306239
0.427635
0.302666
0.300814
0.302763
0.30534
0.290717
0.26277
0.240479
0.213161
0.980497
1.2686
4.29868
4.32112
1.11939
0.332321
0.158098
0.047773
0.0218661
0.112128
0.274335
0.233962
0.292694
0.318868
0.346552
0.383039
0.314868
0.295343
0.275832
0.253165
0.226809
0.195385
0.156091
0.698326
0.622335
1.75626
2.14896
2.11083
0.946154
0.291629
0.184327
0.144858
1.00244
0.96541
0.269242
0.319825
0.33972
0.354217
0.390372
0.335677
0.280418
0.252753
0.224424
0.193595
0.157235
0.113028
0.711811
0.679316
0.584243
0.539732
1.80288
2.78571
1.07001
0.318517
0.296709
1.50257
1.30591
0.320007
0.342878
0.348239
0.338958
0.35692
0.336425
0.278418
0.226849
0.195995
0.163318
0.126705
0.0838831
0.695102
0.725656
0.655648
0.562971
0.968502
3.01903
3.08469
0.830875
0.447457
1.68583
1.21555
0.36155
0.356848
0.344481
0.322613
0.297565
0.307073
0.242332
0.198754
0.167841
0.136043
0.101592
0.0629803
0.653467
0.700285
0.634918
0.506298
0.394862
2.2249
3.17282
2.43992
0.649748
1.7299
1.06577
0.377337
0.355736
0.32771
0.295686
0.263498
0.2307
0.198843
0.168625
0.139688
0.11066
0.0801562
0.0472041
0.561332
0.581804
0.488465
0.333704
0.179606
2.47572
3.1059
3.19659
0.809294
2.82958
1.16726
0.379262
0.336629
0.296989
0.258403
0.224098
0.192524
0.163259
0.136254
0.110908
0.0860296
0.0606271
0.0340622
0.417727
0.394059
0.279401
0.115328
1.40629
2.78612
2.87633
2.02573
1.64602
3.0326
1.32457
0.355221
0.298876
0.252026
0.211661
0.177997
0.14933
0.124142
0.101615
0.0809857
0.0612284
0.0415939
0.0216582
0.238259
0.182443
0.0603099
-0.124593
1.51281
2.44801
2.08341
1.10514
2.95728
3.00156
0.863224
0.300813
0.241576
0.192904
0.154984
0.125421
0.101822
0.082094
0.0650528
0.0499051
0.0358475
0.0222863
0.00894675
0.0461142
-0.0296766
-0.149909
-0.398729
0.958677
2.02517
0.332648
0.818222
2.80863
1.85238
0.313465
0.217133
0.157898
0.116177
0.0867525
0.0653295
0.049405
0.0367534
0.02635
0.0174565
0.00955106
0.00223067
-0.00465433
-0.144812
-0.226684
-0.352763
-0.629293
-0.880857
0.821523
0.970951
0.768715
0.674518
0.0526655
0.0585604
0.0603282
0.0373871
0.0186006
0.00458389
-0.00472182
-0.0102485
-0.0138597
-0.016233
-0.0178446
-0.0189013
-0.0195559
-0.0198502
762.023
757.179
753.984
745.607
750.645
759.063
757.051
747.578
331.004
385.699
364.832
316.856
5.67559
5.87261
6.18177
6.47028
4.84638
6.25923
7.92184
7.17034
4.62181
7.45777
8.31169
8.81691
3.99221
6.61867
8.2335
8.44474
4.21024
6.14417
8.45165
6.44999
6.49069
6.84526
6.86298
6.66933
6.09412
6.32471
7.10688
21.598
5.47655
5.83173
16.8211
24.1113
9.42746
21.8467
24.6703
24.6544
10.6009
6.88884
6.25942
7.65932
1.18689
0.786746
0.744039
0.703402
0.789793
0.75003
0.700242
0.658094
0.897762
0.752704
0.663552
0.604127
13.4752
1.40691
0.584694
0.51081
16.1599
16.5823
16.8897
15.1598
8.44597
16.8158
16.9531
17.0225
1.9592
5.15767
10.8708
15.4996
-0.925438
-0.918413
-0.867007
-0.810078
-0.715201
-0.767831
-0.776422
-0.735595
-0.471856
-0.45907
-0.458341
-0.463454
-0.233359
-0.248863
-0.265394
-0.28104
-0.0903625
-0.112633
-0.136662
-0.160746
0.0122368
-0.0139372
-0.043165
-0.0748368
0.10445
0.0732554
0.0357992
-0.00651231
0.178073
0.140975
0.0928328
0.0358803
0.234955
0.197368
0.144321
0.0976262
0.266254
0.251
0.484109
5.8293
0.25332
0.281524
3.58119
20.463
0.189313
0.191929
4.25602
20.2993
0.118847
0.0912184
0.0570852
1.40953
0.07115
0.0401834
0.00539108
-0.0331315
0.0457835
0.0185191
-0.0122695
-0.0464824
0.0306617
0.00860247
-0.0147241
-0.0392002
0.020931
0.00347382
-0.0145086
-0.0327169
0.0137067
0.000479501
-0.0128801
-0.0262402
0.00685568
-0.00259463
-0.0119608
-0.0211572
-0.000649774
-0.00668022
-0.0125575
-0.0182309
-0.00936327
-0.0122411
-0.0149591
-0.0174825
-0.0197738
-0.0196046
-0.0193099
-0.0188771
720.665
700.823
669.181
631.404
526.319
325.787
341.542
502.55
732.319
815.455
839.233
851.283
831.486
811.828
834.752
813.656
768.767
742.702
752.048
717.775
659.704
541.713
304.068
62.0129
45.0636
55.5177
168.173
504.859
837.573
887.791
907.198
898.54
858.317
755.477
606.154
438.356
365.47
387.803
239.404
120.5
18.6465
23.1992
27.1234
36.7084
67.3249
190.636
500.137
884.056
927.768
953.737
956.739
925.949
842.647
474.981
104.602
68.8247
65.8495
6.3869
6.75605
11.6177
20.6873
68.5918
223.702
259.841
455.006
836.889
910.121
959.848
995.03
1006.87
987.981
873.572
412.749
67.5572
60.1314
62.3488
6.74267
6.63244
23.0998
118.635
273.288
358.85
329.354
85.7633
324.567
763.337
1019.08
1058.37
1074.03
921.668
210.402
76.1656
96.0278
51.495
55.5345
6.64022
6.13244
45.5329
211.719
215.773
110.121
7.47644
6.51359
3.03913
138.193
452.587
696.857
601.045
139.112
72.5042
63.8005
89.9485
80.8549
43.8686
6.30832
6.25818
45.9351
42.4636
6.41756
5.96138
6.08358
5.48995
4.02837
2.23522
7.73049
22.7019
34.5577
57.4478
87.818
89.4875
80.8903
83.2146
35.1665
6.10568
8.7363
14.3408
6.93418
6.61057
6.26192
5.8456
4.90782
4.07461
3.52441
3.58811
5.07177
28.4602
88.8376
98.1519
98.1913
49.0967
35.4865
33.514
9.46228
20.1715
11.7798
6.86684
6.78865
6.24179
5.36693
4.58598
4.06388
4.06683
4.65673
5.76078
7.34262
14.196
36.4284
25.9211
21.8477
21.514
35.4539
23.9075
17.0118
6.74251
6.88341
6.85971
6.33777
5.4489
4.67047
4.33707
4.50369
5.20758
6.22986
7.15941
8.31734
23.5684
51.1414
19.866
20.5682
35.4216
24.0751
23.9511
23.6087
21.9682
16.4451
6.81395
5.86283
5.22689
4.87623
5.01842
5.62014
6.45989
7.50764
8.87479
22.6736
54.5362
19.7498
19.6484
24.6528
24.5643
24.5466
18.8047
13.843
27.025
26.9497
24.3142
14.3096
8.77187
10.3287
21.1619
21.7354
17.1086
20.8973
23.868
56.2048
28.0489
27.9123
17.2114
8.27558
5.7456
3.0472
13.5157
23.5651
26.347
29.3373
30.4724
32.2139
33.249
33.751
34.0711
34.9151
36.0596
23.7795
54.1229
52.1334
42.4495
15.7848
0.650442
1.00508
2.38381
1.64835
1.00584
0.981632
2.44533
4.28159
6.96676
11.1008
27.9041
35.1225
35.657
36.3552
36.4596
34.6204
42.7133
21.1768
15.3786
0.580591
0.562208
0.650313
0.78224
0.853151
0.878787
0.845759
0.770043
0.65316
0.552961
0.473735
16.8596
34.3274
36.8313
36.5005
14.9641
9.6278
1.29268
7.06281
0.48876
0.368554
0.584063
1.36809
1.76667
0.852281
0.80021
0.728696
0.627792
0.508194
0.376754
0.225404
1.10794
4.86613
9.49396
0.491626
0.451645
0.515376
0.653082
0.408326
0.224563
3.85062
13.724
13.6721
3.0732
0.759108
0.687709
0.618201
0.520607
0.404653
0.255644
0.0556883
-0.198159
-0.277168
0.0172723
0.276218
0.401802
0.446721
2.19026
1.10155
12.5742
15.4266
16.0979
16.0868
1.99455
0.662647
0.615872
0.549907
0.47172
0.371305
0.238389
0.130457
0.0836348
0.195286
0.305566
0.371367
0.403279
17.1797
13.3708
15.8799
16.0243
16.6838
17.0727
7.24702
0.693979
0.628348
0.575931
0.512833
0.445999
0.36911
0.303829
0.277657
0.300115
0.330471
0.359914
0.375326
14.9404
16.4801
16.6678
16.8869
13.4128
12.8165
8.38608
2.42818
0.669141
0.615302
0.541473
0.472373
0.412365
0.366516
0.340822
0.330828
0.346096
0.359083
0.355128
-0.745383
4.95487
9.81607
1.83986
-0.167644
0.0702603
3.28864
7.28229
2.99699
0.654907
0.567918
0.485119
0.419556
0.383216
0.353503
0.339119
0.354293
0.363803
0.338823
-0.653567
-0.587935
-0.518526
-0.341191
-0.118985
0.0639157
3.92169
7.59475
6.79171
1.01409
0.586856
0.490797
0.421642
0.373467
0.345109
0.33997
0.351925
0.351812
0.32337
-0.453005
-0.429589
-0.383945
-0.26491
-0.087881
0.0741643
2.6845
8.12024
8.53206
1.59519
0.582649
0.489481
0.421362
0.375751
0.371844
0.372091
0.338533
0.317381
0.306504
-0.301617
-0.304563
-0.2762
-0.199929
-0.0757282
0.0549919
1.14399
8.37623
8.85068
2.29271
0.538309
0.46685
0.423321
0.404555
0.37793
0.359033
0.301594
0.291013
0.28831
-0.198151
-0.2331
-0.232518
-0.181739
-0.0856444
0.0250285
1.02451
8.82893
9.07615
3.51819
0.465861
0.418843
0.404458
0.377024
0.351326
0.319358
0.278014
0.270395
0.268046
-0.129082
-0.196692
-0.223258
-0.194152
-0.117308
-0.015577
2.17408
9.17912
9.25711
4.04935
0.388657
0.382109
0.358519
0.335216
0.310606
0.258954
0.250677
0.247233
0.245664
-0.0875006
-0.202325
-0.250342
-0.234411
-0.164153
-0.0553359
2.84812
9.38498
9.40175
3.07499
0.255414
0.268885
0.297177
0.290976
0.244441
0.224911
0.223946
0.222659
0.221779
-0.0824051
-0.187368
-0.270757
-0.279234
-0.17858
-0.0507235
1.52753
9.16196
6.48757
0.762389
0.150149
0.170449
0.196768
0.201993
0.193024
0.195134
0.196746
0.197402
0.197343
-0.0548081
0.0852736
-0.301851
-0.26907
-0.144599
1.41121
5.17818
2.16498
0.241799
0.038399
0.0722569
0.110663
0.133741
0.148386
0.1587
0.16548
0.169846
0.171974
0.173052
7.20398
0.305665
-0.280357
-0.19503
2.09754
17.7504
8.18473
-0.107152
-0.116031
-0.0462677
0.0127323
0.0612579
0.0919792
0.112775
0.127486
0.137279
0.143763
0.147495
0.149064
21.571
0.394751
-0.180074
0.0998751
25.8738
28.5411
9.74308
-0.246433
-0.155854
-0.0840624
-0.0276325
0.0237393
0.0584263
0.0826151
0.0999121
0.111764
0.119603
0.124357
0.126441
23.0079
23.1632
15.6646
29.3434
29.4534
29.3327
8.38381
-0.267113
-0.175151
-0.110516
-0.0503593
-0.00104568
0.0336827
0.058622
0.0767512
0.0895348
0.0981752
0.103327
0.10592
19.2113
29.8086
29.8353
30.0447
30.1988
25.1055
14.1914
-0.266913
-0.171945
-0.110423
-0.0570275
-0.0148382
0.0167091
0.0403329
0.0579403
0.0706916
0.0795008
0.0848798
0.087541
-0.108519
11.5571
24.8368
24.6009
10.9311
0.126386
8.09786
-0.261708
-0.15309
-0.0986286
-0.0554957
-0.0213586
0.00571502
0.0268431
0.0430429
0.0550597
0.0635269
0.0688199
0.0713794
-0.107303
-0.194359
-0.271251
-0.333165
-0.372087
-0.359989
-0.306653
-0.216078
-0.130709
-0.0814271
-0.0514832
-0.0236043
-0.000972867
0.017179
0.0314843
0.0423114
0.0500854
0.055052
0.0574004
-0.0835587
-0.151889
-0.211202
-0.251348
-0.270798
-0.268784
-0.236603
-0.134994
-0.101338
-0.0681479
-0.0439715
-0.0226537
-0.00445944
0.0104769
0.0227001
0.0320511
0.0389131
0.0433675
0.0454865
-0.0636571
-0.107071
-0.14465
-0.170225
-0.181858
-0.173171
-0.145335
-0.0973799
-0.0747715
-0.0538571
-0.0361648
-0.0200869
-0.00592138
0.00616756
0.0162303
0.0238438
0.029711
0.0335257
0.035413
-0.0485972
-0.078297
-0.102291
-0.117748
-0.122997
-0.116889
-0.095068
-0.0704619
-0.0547829
-0.0407854
-0.0283236
-0.0165976
-0.00593181
0.00341789
0.011291
0.0175003
0.0222014
0.0253014
0.0268684
-0.0362352
-0.0553367
-0.0700988
-0.0789181
-0.0810911
-0.0766668
-0.0636445
-0.0497411
-0.0391859
-0.0296919
-0.0210286
-0.0127638
-0.00507759
0.00179099
0.00766815
0.0123989
0.0159918
0.0183757
0.0195905
-0.0273362
-0.0382616
-0.0461763
-0.0503555
-0.0505862
-0.0471546
-0.0399619
-0.0323091
-0.0258405
-0.0198941
-0.014295
-0.00887794
-0.00375371
0.000896438
0.00493947
0.00823271
0.0107589
0.0124386
0.0132881
-0.0213435
-0.0254146
-0.0277476
-0.0282563
-0.0271404
-0.0248987
-0.0211348
-0.0173854
-0.0141055
-0.0110261
-0.00803171
-0.00506597
-0.00220185
0.000442026
0.00277917
0.00469872
0.00619044
0.00718331
0.0076784
-0.0179041
-0.0158806
-0.0133034
-0.0105664
-0.00822414
-0.00684016
-0.00588561
-0.00496344
-0.00414867
-0.00334566
-0.00250582
-0.00162219
-0.000729676
0.000116058
0.000884115
0.00151612
0.00202041
0.0023559
0.00246145
)
;

boundaryField
{
    leftWall
    {
        type            fixedFluxPressure;
        gradient        uniform 0;
        value           nonuniform List<scalar> 
50
(
695.553
698.445
701.421
703.457
703.329
700.082
691.955
684.875
684.164
516.318
87.5448
4.31666
3.09061
2.8789
3.07684
3.29105
3.48832
2.91949
2.44993
2.38878
2.92541
3.95713
3.9049
3.89005
3.8536
3.34035
3.43562
3.68562
3.72469
3.75981
3.77407
2.35677
1.82502
1.48969
1.36445
1.24221
1.1445
1.12267
1.95713
1.93504
0.980497
0.698326
0.711811
0.695102
0.653467
0.561332
0.417727
0.238259
0.0461142
-0.144812
)
;
    }
    rightWall
    {
        type            fixedFluxPressure;
        gradient        uniform 0;
        value           nonuniform List<scalar> 
50
(
824.86
819.773
816.676
817.491
821.391
817.74
827.531
801.958
752.048
387.803
65.8495
62.3488
55.5345
43.8686
35.1665
33.514
35.4539
35.4216
24.6528
17.2114
15.7848
15.3786
7.06281
0.653082
0.446721
0.403279
0.375326
0.355128
0.338823
0.32337
0.306504
0.28831
0.268046
0.245664
0.221779
0.197343
0.173052
0.149064
0.126441
0.10592
0.087541
0.0713794
0.0574004
0.0454865
0.035413
0.0268684
0.0195905
0.0132881
0.0076784
0.00246145
)
;
    }
    lowerWall
    {
        type            fixedFluxPressure;
        gradient        uniform 0;
        value           nonuniform List<scalar> 
62
(
695.553
683.368
663.615
648.123
633.303
610.124
609.149
641.39
651.79
658.638
669.664
680.158
692.766
706.368
718.169
727.687
734.277
735.373
735.372
740.543
749.31
757.988
763.348
763.348
762.713
762.409
763.114
765.163
768.172
766.198
775.089
762.023
757.179
753.984
745.607
672.359
675.304
676.461
676.903
679.354
684.652
693.356
692.49
672.359
653.765
616.997
605.52
644.457
716.238
772.976
802.769
812.978
818.499
823.21
830.766
839.655
842.785
846.555
855.224
849.681
818.005
824.86
)
;
    }
    atmosphere
    {
        type            totalPressure;
        rho             rho;
        psi             none;
        gamma           1;
        p0              uniform 0;
        value           nonuniform List<scalar> 
46
(
-0.236336
-0.329141
-0.4409
-0.7063
-0.596422
0
0
0
0
-0.00989548
-0.00386375
-0.0132081
-0.0277098
-0.0374617
-0.0429084
-0.044757
-0.044075
-0.0421795
-0.0398302
-0.0373239
-0.0345498
-0.0315694
-0.0283645
-0.0258823
-0.0241593
-0.02236
-0.0204728
-0.0171291
-0.012352
-0.00770436
-0.00374099
-0.00102678
-1.49818e-06
0
0
0
0
0
0
0
0
0
0
0
0
0
)
;
    }
    defaultFaces
    {
        type            empty;
    }
}


// ************************************************************************* //
