/*--------------------------------*- C++ -*----------------------------------*\
| =========                 |                                                 |
| \\      /  F ield         | OpenFOAM: The Open Source CFD Toolbox           |
|  \\    /   O peration     | Version:  2.3.0                                 |
|   \\  /    A nd           | Web:      www.OpenFOAM.org                      |
|    \\/     M anipulation  |                                                 |
\*---------------------------------------------------------------------------*/
FoamFile
{
    version     2.0;
    format      ascii;
    class       volScalarField;
    location    "0.005";
    object      T;
}
// * * * * * * * * * * * * * * * * * * * * * * * * * * * * * * * * * * * * * //

dimensions      [0 0 0 1 0 0 0];

internalField   nonuniform List<scalar> 
12225
(
1.31865e-12
1.31812e-12
1.32363e-12
1.36237e-12
1.44833e-12
1.64847e-12
2.07234e-12
2.91274e-12
4.48627e-12
7.28374e-12
1.20252e-11
1.9716e-11
3.17027e-11
4.97404e-11
7.6116e-11
1.13972e-10
1.68297e-10
2.49687e-10
1.30904e-12
1.31893e-12
1.32879e-12
1.36965e-12
1.45854e-12
1.66275e-12
2.09448e-12
2.95012e-12
4.55221e-12
7.40062e-12
1.22286e-11
2.00591e-11
3.22609e-11
5.06119e-11
7.74129e-11
1.15767e-10
1.70353e-10
2.49417e-10
1.3394e-12
1.34691e-12
1.35534e-12
1.39584e-12
1.48865e-12
1.70226e-12
2.1548e-12
3.05257e-12
4.73448e-12
7.72576e-12
1.27964e-11
2.10193e-11
3.38251e-11
5.30611e-11
8.10836e-11
1.20967e-10
1.76972e-10
2.55164e-10
1.37708e-12
1.3838e-12
1.3937e-12
1.43691e-12
1.53841e-12
1.77094e-12
2.26385e-12
3.24276e-12
5.07852e-12
8.34578e-12
1.38862e-11
2.287e-11
3.68503e-11
5.78139e-11
8.82466e-11
1.31256e-10
1.90771e-10
2.71418e-10
1.43596e-12
1.44302e-12
1.45541e-12
1.50343e-12
1.61865e-12
1.88253e-12
2.44296e-12
3.55817e-12
5.65314e-12
9.3864e-12
1.57215e-11
2.59941e-11
4.19673e-11
6.58711e-11
1.00436e-10
1.48933e-10
2.15173e-10
3.03127e-10
1.52255e-12
1.53012e-12
1.5458e-12
1.60169e-12
1.73816e-12
2.05127e-12
2.7181e-12
4.04879e-12
6.55458e-12
1.1028e-11
1.86276e-11
3.09543e-11
5.01081e-11
7.8716e-11
1.19928e-10
1.77381e-10
2.55073e-10
3.56941e-10
1.64555e-12
1.65393e-12
1.67412e-12
1.7423e-12
1.91108e-12
2.2996e-12
3.13004e-12
4.79317e-12
7.93453e-12
1.35558e-11
2.31198e-11
3.86421e-11
6.27505e-11
9.86977e-11
1.50316e-10
2.21908e-10
3.18028e-10
4.43084e-10
1.78994e-12
1.79941e-12
1.82518e-12
1.90918e-12
2.11943e-12
2.60524e-12
3.64766e-12
5.74317e-12
9.71401e-12
1.68374e-11
2.89776e-11
4.86969e-11
7.93197e-11
1.24926e-10
1.90264e-10
2.80565e-10
4.01254e-10
5.5753e-10
1.9503e-12
1.96094e-12
1.99342e-12
2.0963e-12
2.35631e-12
2.95931e-12
4.25804e-12
6.87811e-12
1.18582e-11
2.08137e-11
3.61014e-11
6.09548e-11
9.95518e-11
1.56987e-10
2.3913e-10
3.52364e-10
5.03211e-10
6.97856e-10
2.17048e-12
2.18298e-12
2.2254e-12
2.35681e-12
2.69206e-12
3.47328e-12
5.16362e-12
8.58858e-12
1.5123e-11
2.69081e-11
4.70683e-11
7.98802e-11
1.30847e-10
2.06632e-10
3.14838e-10
4.63625e-10
6.61194e-10
9.15202e-10
2.47549e-12
2.49106e-12
2.54864e-12
2.72462e-12
3.17743e-12
4.23908e-12
6.54938e-12
1.12554e-11
2.0275e-11
3.66017e-11
6.46028e-11
1.10244e-10
1.81165e-10
2.86549e-10
4.36755e-10
6.42743e-10
9.15323e-10
1.26434e-09
2.90245e-12
2.92326e-12
3.00492e-12
3.25312e-12
3.89716e-12
5.41869e-12
8.75346e-12
1.55909e-11
2.87698e-11
5.27328e-11
9.39639e-11
1.61298e-10
2.65986e-10
4.21434e-10
6.42574e-10
9.44921e-10
1.34341e-09
1.85116e-09
3.50756e-12
3.5375e-12
3.65929e-12
4.02976e-12
4.99999e-12
7.31367e-12
1.24302e-11
2.30071e-11
4.35375e-11
8.10796e-11
1.4594e-10
2.52121e-10
4.1734e-10
6.62469e-10
1.01039e-09
1.48435e-09
2.10598e-09
2.89333e-09
4.37749e-12
4.42382e-12
4.6162e-12
5.20456e-12
6.76252e-12
1.05213e-11
1.8928e-11
3.64873e-11
7.08778e-11
1.3422e-10
2.44232e-10
4.24905e-10
7.0633e-10
1.12347e-09
1.71383e-09
2.51436e-09
3.55793e-09
4.86973e-09
5.64813e-12
5.72514e-12
6.04901e-12
7.04893e-12
9.73371e-12
1.63076e-11
3.12243e-11
6.27987e-11
1.25359e-10
2.41675e-10
4.45093e-10
7.80572e-10
1.30389e-09
2.07859e-09
3.1709e-09
4.6433e-09
6.54754e-09
8.91818e-09
7.53462e-12
7.67204e-12
8.2562e-12
1.00849e-11
1.50836e-11
2.75591e-11
5.64021e-11
1.18525e-10
2.43509e-10
4.7882e-10
8.94189e-10
1.58316e-09
2.66003e-09
4.25152e-09
6.48411e-09
9.46941e-09
1.32898e-08
1.79861e-08
1.03763e-11
1.06393e-11
1.17716e-11
1.53851e-11
2.54971e-11
5.13716e-11
1.12688e-10
2.47848e-10
5.25432e-10
1.0571e-09
2.00782e-09
3.59757e-09
6.08954e-09
9.76373e-09
1.48808e-08
2.16455e-08
3.01762e-08
4.04861e-08
1.43811e-11
1.48993e-11
1.71677e-11
2.45907e-11
4.59971e-11
1.02554e-10
2.4094e-10
5.55433e-10
1.21946e-09
2.52162e-09
4.89283e-09
8.90436e-09
1.52196e-08
2.44999e-08
3.7289e-08
5.39145e-08
7.44337e-08
9.86275e-08
1.91389e-11
2.00927e-11
2.43466e-11
3.86671e-11
8.13848e-11
1.98435e-10
4.95668e-10
1.19606e-09
2.72572e-09
5.81582e-09
1.15779e-08
2.14813e-08
3.717e-08
6.01271e-08
9.13084e-08
1.30909e-07
1.78344e-07
2.32394e-07
2.40726e-11
2.56418e-11
3.27735e-11
5.74687e-11
1.33676e-10
3.504e-10
9.22536e-10
2.32444e-09
5.5041e-09
1.21534e-08
2.49162e-08
4.73039e-08
8.30859e-08
1.35192e-07
2.04644e-07
2.90183e-07
3.88717e-07
4.96162e-07
2.88717e-11
3.1215e-11
4.20592e-11
8.06406e-11
2.03684e-10
5.66747e-10
1.56389e-09
4.11003e-09
1.01297e-08
2.32293e-08
4.92735e-08
9.61892e-08
1.72157e-07
2.82213e-07
4.25272e-07
5.94314e-07
7.79163e-07
9.69534e-07
3.32748e-11
3.64944e-11
5.1641e-11
1.06888e-10
2.88577e-10
8.43853e-10
2.42938e-09
6.65179e-09
1.70865e-08
4.08332e-08
9.00807e-08
1.8192e-07
3.33566e-07
5.52231e-07
8.26816e-07
1.13311e-06
1.44519e-06
1.74327e-06
3.71027e-11
4.12244e-11
6.08939e-11
1.34232e-10
3.82121e-10
1.16444e-09
3.48164e-09
9.91217e-09
2.65435e-08
6.62823e-08
1.52869e-07
3.21709e-07
6.08873e-07
1.02209e-06
1.51562e-06
2.0223e-06
2.49015e-06
2.89368e-06
4.0266e-11
4.52411e-11
6.92661e-11
1.60525e-10
4.76303e-10
1.50119e-09
4.63859e-09
1.36871e-08
3.81581e-08
9.96814e-08
2.41428e-07
5.33788e-07
1.05367e-06
1.80596e-06
2.63712e-06
3.39033e-06
3.99312e-06
4.44215e-06
4.27541e-11
4.84747e-11
7.63698e-11
1.83948e-10
5.6341e-10
1.82402e-09
5.79301e-09
1.76365e-08
5.10214e-08
1.39286e-07
3.55219e-07
8.31864e-07
1.7365e-06
3.07806e-06
4.37718e-06
5.34221e-06
5.95669e-06
6.31157e-06
4.46202e-11
5.09447e-11
8.2035e-11
2.0338e-10
6.37882e-10
2.10816e-09
6.84323e-09
2.13773e-08
6.38427e-08
1.81436e-07
4.86989e-07
1.21559e-06
2.72965e-06
5.1252e-06
6.94387e-06
7.88751e-06
8.24769e-06
8.30774e-06
4.59357e-11
5.27059e-11
8.62275e-11
2.18268e-10
6.96442e-10
2.33706e-09
7.71221e-09
2.45744e-08
7.52695e-08
2.21214e-07
6.21852e-07
1.65705e-06
4.07487e-06
8.46874e-06
1.04805e-05
1.08268e-05
1.05669e-05
1.01549e-05
4.68084e-11
5.39367e-11
8.92487e-11
2.29167e-10
7.39836e-10
2.5088e-09
8.37377e-09
2.70547e-08
8.43697e-08
2.54152e-07
7.40741e-07
2.0913e-06
5.69409e-06
1.41429e-05
1.4806e-05
1.36533e-05
1.25163e-05
1.15975e-05
4.69213e-11
5.42788e-11
9.06392e-11
2.35258e-10
7.66173e-10
2.6179e-09
8.80673e-09
2.87143e-08
9.05792e-08
2.77105e-07
8.25938e-07
2.42027e-06
7.17526e-06
2.42265e-05
1.87594e-05
1.56248e-05
1.37825e-05
1.25033e-05
4.78543e-11
5.49976e-11
9.18606e-11
2.39253e-10
7.81915e-10
2.68064e-09
9.05052e-09
2.96354e-08
9.39839e-08
2.89506e-07
8.70291e-07
2.56494e-06
7.37393e-06
1.9208e-05
1.89477e-05
1.63965e-05
1.43486e-05
1.28986e-05
2.27663e-12
2.28865e-12
2.31386e-12
2.35253e-12
2.4048e-12
2.47089e-12
2.55096e-12
2.64512e-12
2.7533e-12
2.87539e-12
3.01114e-12
3.16015e-12
3.32195e-12
3.49591e-12
3.6813e-12
3.87725e-12
4.08278e-12
4.29676e-12
4.51798e-12
4.74508e-12
4.97659e-12
5.21094e-12
5.44648e-12
5.68146e-12
5.91404e-12
6.14236e-12
6.36448e-12
6.57848e-12
6.78242e-12
6.97438e-12
7.15248e-12
7.31493e-12
7.46003e-12
7.58619e-12
7.69196e-12
7.77608e-12
7.83746e-12
7.87521e-12
7.88867e-12
7.87743e-12
7.8413e-12
7.78036e-12
7.69494e-12
7.5856e-12
7.45317e-12
7.29869e-12
7.12344e-12
6.92887e-12
6.71664e-12
6.48855e-12
6.2465e-12
5.99252e-12
5.7287e-12
5.45714e-12
5.17997e-12
4.89929e-12
4.61713e-12
4.33546e-12
4.05614e-12
3.78091e-12
3.51137e-12
3.24897e-12
2.99497e-12
2.75049e-12
2.51645e-12
2.29361e-12
2.08255e-12
1.88368e-12
1.69726e-12
1.52338e-12
1.36201e-12
1.213e-12
1.07605e-12
9.50822e-13
8.36849e-13
7.33621e-13
6.4057e-13
5.57091e-13
4.82552e-13
4.16309e-13
3.57714e-13
3.06127e-13
2.6092e-13
2.21487e-13
1.87251e-13
1.57663e-13
1.32209e-13
1.10411e-13
9.18301e-14
7.60623e-14
6.27423e-14
5.15408e-14
4.21632e-14
3.43478e-14
2.78634e-14
2.25074e-14
1.81035e-14
1.44986e-14
1.15612e-14
9.17836e-15
7.25428e-15
5.70765e-15
4.47008e-15
3.48444e-15
2.70318e-15
2.08696e-15
1.60333e-15
1.22566e-15
9.3226e-16
7.05496e-16
5.31153e-16
3.9782e-16
2.96395e-16
2.19657e-16
1.61915e-16
1.18704e-16
8.65482e-17
6.27531e-17
4.52451e-17
3.24368e-17
2.31211e-17
1.63853e-17
1.15437e-17
8.08447e-18
5.62783e-18
3.89389e-18
2.6776e-18
1.82978e-18
1.24254e-18
8.38393e-19
5.62063e-19
3.74358e-19
2.47698e-19
1.62801e-19
1.06282e-19
6.89123e-20
4.43751e-20
2.83765e-20
1.80185e-20
1.13604e-20
7.11122e-21
4.41925e-21
2.72632e-21
1.66954e-21
1.0148e-21
6.1221e-22
3.66552e-22
2.178e-22
1.28421e-22
7.51371e-23
4.36205e-23
2.51257e-23
1.4359e-23
8.1412e-24
4.57917e-24
2.55516e-24
1.41436e-24
7.76619e-25
4.23011e-25
2.28541e-25
1.22486e-25
6.51071e-26
3.43333e-26
1.7959e-26
9.31406e-27
4.79296e-27
2.44659e-27
1.23862e-27
6.21867e-28
3.09617e-28
1.52866e-28
7.48431e-29
3.63359e-29
1.74924e-29
8.34964e-30
3.95129e-30
1.85352e-30
8.61493e-31
3.96806e-31
1.81006e-31
2.69013e-12
2.70502e-12
2.73545e-12
2.78214e-12
2.84544e-12
2.92572e-12
3.02323e-12
3.13805e-12
3.27015e-12
3.41936e-12
3.58537e-12
3.76776e-12
3.96595e-12
4.17923e-12
4.40673e-12
4.64745e-12
4.90023e-12
5.16377e-12
5.43662e-12
5.71718e-12
6.00372e-12
6.29437e-12
6.58716e-12
6.87998e-12
7.17064e-12
7.45686e-12
7.73632e-12
8.00666e-12
8.26548e-12
8.51044e-12
8.73921e-12
8.94954e-12
9.13929e-12
9.30645e-12
9.44917e-12
9.56579e-12
9.65487e-12
9.71523e-12
9.74592e-12
9.74631e-12
9.71604e-12
9.65507e-12
9.56365e-12
9.44237e-12
9.2921e-12
9.114e-12
8.90951e-12
8.68034e-12
8.42841e-12
8.15584e-12
7.86495e-12
7.55816e-12
7.238e-12
6.90706e-12
6.56796e-12
6.22329e-12
5.8756e-12
5.52735e-12
5.1809e-12
4.83846e-12
4.50209e-12
4.17365e-12
3.85482e-12
3.54707e-12
3.25165e-12
2.96958e-12
2.7017e-12
2.44862e-12
2.21074e-12
1.98828e-12
1.78129e-12
1.58964e-12
1.41307e-12
1.25117e-12
1.10346e-12
9.69333e-13
8.48124e-13
7.3911e-13
6.41529e-13
5.54593e-13
4.77506e-13
4.09471e-13
3.49707e-13
2.97452e-13
2.51975e-13
2.12579e-13
1.78609e-13
1.49451e-13
1.24539e-13
1.0335e-13
8.54117e-14
7.02927e-14
5.76079e-14
4.70134e-14
3.82047e-14
3.09139e-14
2.49068e-14
1.99798e-14
1.59571e-14
1.26879e-14
1.00432e-14
7.91336e-15
6.2061e-15
4.84404e-15
3.76267e-15
2.9084e-15
2.23695e-15
1.71188e-15
1.30342e-15
9.87324e-16
7.44008e-16
5.57715e-16
4.15852e-16
3.08411e-16
2.2749e-16
1.66881e-16
1.21741e-16
8.8313e-17
6.37009e-17
4.56848e-17
3.25742e-17
2.309e-17
1.62702e-17
1.1396e-17
7.93353e-18
5.48916e-18
3.77432e-18
2.5789e-18
1.75091e-18
1.18112e-18
7.91584e-19
5.27036e-19
3.48571e-19
2.28989e-19
1.49411e-19
9.68186e-20
6.23044e-20
3.98137e-20
2.52619e-20
1.59142e-20
9.95324e-21
6.17981e-21
3.80882e-21
2.33012e-21
1.41484e-21
8.5262e-22
5.09922e-22
3.02637e-22
1.78229e-22
1.04151e-22
6.0388e-23
3.47388e-23
1.98265e-23
1.12261e-23
6.30559e-24
3.51363e-24
1.94215e-24
1.06491e-24
5.79205e-25
3.12464e-25
1.67225e-25
8.87509e-26
4.67342e-26
2.44104e-26
1.26441e-26
6.49574e-27
3.30963e-27
1.6723e-27
8.37943e-28
4.16364e-28
2.05156e-28
1.0024e-28
4.85666e-29
2.33324e-29
1.11143e-29
5.24873e-30
2.45707e-30
1.13974e-30
5.23876e-31
2.38446e-31
3.56817e-12
3.58773e-12
3.6294e-12
3.69387e-12
3.7816e-12
3.89311e-12
4.02876e-12
4.18875e-12
4.37305e-12
4.58146e-12
4.81362e-12
5.06896e-12
5.34677e-12
5.64611e-12
5.96589e-12
6.30479e-12
6.66131e-12
7.03375e-12
7.4202e-12
7.81856e-12
8.22651e-12
8.64156e-12
9.06103e-12
9.48208e-12
9.90172e-12
1.03168e-11
1.07242e-11
1.11204e-11
1.15023e-11
1.18664e-11
1.22095e-11
1.25283e-11
1.28196e-11
1.30806e-11
1.33083e-11
1.35005e-11
1.36547e-11
1.37691e-11
1.38421e-11
1.38725e-11
1.38596e-11
1.3803e-11
1.37028e-11
1.35596e-11
1.33742e-11
1.31481e-11
1.28831e-11
1.25813e-11
1.22452e-11
1.18777e-11
1.1482e-11
1.10612e-11
1.06189e-11
1.01588e-11
9.68446e-12
9.19965e-12
8.70802e-12
8.21314e-12
7.71847e-12
7.22729e-12
6.74267e-12
6.26745e-12
5.80421e-12
5.35523e-12
4.92251e-12
4.50774e-12
4.11231e-12
3.73729e-12
3.38348e-12
3.05139e-12
2.74124e-12
2.45304e-12
2.18656e-12
1.94137e-12
1.71688e-12
1.51232e-12
1.32682e-12
1.15942e-12
1.00907e-12
8.74673e-13
7.55109e-13
6.49241e-13
5.55943e-13
4.74106e-13
4.02659e-13
3.40574e-13
2.86874e-13
2.40643e-13
2.01024e-13
1.67229e-13
1.38534e-13
1.1428e-13
9.38736e-14
7.6783e-14
6.25347e-14
5.07103e-14
4.09424e-14
3.29105e-14
2.63367e-14
2.09813e-14
1.66388e-14
1.31336e-14
1.03175e-14
8.06611e-15
6.27505e-15
4.85744e-15
3.74117e-15
2.86676e-15
2.18543e-15
1.65735e-15
1.25027e-15
9.38164e-16
7.00184e-16
5.19732e-16
3.83666e-16
2.81649e-16
2.05596e-16
1.49227e-16
1.07691e-16
7.72655e-17
5.51105e-17
3.90749e-17
2.7539e-17
1.92909e-17
1.34302e-17
9.29188e-18
6.38829e-18
4.36411e-18
2.96214e-18
1.99751e-18
1.33817e-18
8.90522e-19
5.88645e-19
3.8646e-19
2.51979e-19
1.63158e-19
1.04907e-19
6.69776e-20
4.24565e-20
2.67188e-20
1.66925e-20
1.03522e-20
6.37272e-21
3.89372e-21
2.36112e-21
1.42093e-21
8.48604e-22
5.02906e-22
2.95722e-22
1.72541e-22
9.98828e-23
5.7364e-23
3.2685e-23
1.84755e-23
1.03593e-23
5.7624e-24
3.17944e-24
1.74017e-24
9.44771e-25
5.08708e-25
2.71767e-25
1.43995e-25
7.56701e-26
3.94366e-26
2.03814e-26
1.04455e-26
5.30866e-27
2.67542e-27
1.33705e-27
6.62594e-28
3.25602e-28
1.58659e-28
7.66608e-29
3.67281e-29
1.74469e-29
8.21655e-30
3.83579e-30
1.77451e-30
8.13495e-31
3.69294e-31
5.03478e-12
5.06253e-12
5.1235e-12
5.21881e-12
5.34907e-12
5.515e-12
5.71717e-12
5.95583e-12
6.23101e-12
6.54246e-12
6.8897e-12
7.27202e-12
7.68843e-12
8.1377e-12
8.61834e-12
9.12855e-12
9.66628e-12
1.02292e-11
1.08146e-11
1.14195e-11
1.20407e-11
1.26746e-11
1.33175e-11
1.39651e-11
1.46131e-11
1.5257e-11
1.5892e-11
1.65132e-11
1.71155e-11
1.7694e-11
1.82435e-11
1.87591e-11
1.92359e-11
1.96693e-11
2.00548e-11
2.03883e-11
2.06663e-11
2.08853e-11
2.10427e-11
2.11363e-11
2.11644e-11
2.11262e-11
2.10213e-11
2.085e-11
2.06133e-11
2.03129e-11
1.99511e-11
1.95309e-11
1.90555e-11
1.85292e-11
1.79562e-11
1.73415e-11
1.66901e-11
1.60075e-11
1.52991e-11
1.45707e-11
1.38278e-11
1.30761e-11
1.23208e-11
1.15671e-11
1.08201e-11
1.00843e-11
9.36389e-12
8.66271e-12
7.98413e-12
7.33107e-12
6.70599e-12
6.11089e-12
5.5473e-12
5.01631e-12
4.51858e-12
4.0544e-12
3.62365e-12
3.22592e-12
2.86047e-12
2.52633e-12
2.22231e-12
1.94701e-12
1.69894e-12
1.47647e-12
1.2779e-12
1.10153e-12
9.45605e-13
8.08414e-13
6.88275e-13
5.83565e-13
4.92729e-13
4.14299e-13
3.46895e-13
2.89237e-13
2.40144e-13
1.98537e-13
1.63437e-13
1.33964e-13
1.0933e-13
8.88349e-14
7.18633e-14
5.78749e-14
4.63993e-14
3.70299e-14
2.94155e-14
2.3256e-14
1.82975e-14
1.43255e-14
1.11599e-14
8.64997e-15
6.67038e-15
5.1173e-15
3.90536e-15
2.96474e-15
2.23868e-15
1.68133e-15
1.25587e-15
9.32907e-16
6.89143e-16
5.0621e-16
3.69721e-16
2.68481e-16
1.9383e-16
1.39114e-16
9.9251e-17
7.03857e-17
4.96123e-17
3.47551e-17
2.41959e-17
1.67389e-17
1.15064e-17
7.85875e-18
5.33258e-18
3.59472e-18
2.40716e-18
1.60113e-18
1.05778e-18
6.94025e-19
4.52207e-19
2.92587e-19
1.87976e-19
1.19909e-19
7.59391e-20
4.77431e-20
2.97962e-20
1.84585e-20
1.13499e-20
6.92652e-21
4.19493e-21
2.52125e-21
1.50373e-21
8.89924e-22
5.22548e-22
3.04441e-22
1.75976e-22
1.00908e-22
5.74065e-23
3.23983e-23
1.81356e-23
1.00717e-23
5.54774e-24
3.03125e-24
1.64307e-24
8.83303e-25
4.70966e-25
2.4903e-25
1.30582e-25
6.78998e-26
3.50099e-26
1.78997e-26
9.07471e-27
4.56196e-27
2.27406e-27
1.12404e-27
5.50927e-28
2.67752e-28
1.29031e-28
6.16545e-29
2.92097e-29
1.37196e-29
6.38794e-30
2.94767e-30
1.34805e-30
6.10592e-31
7.27458e-12
7.31601e-12
7.4086e-12
7.55403e-12
7.75317e-12
8.00708e-12
8.31657e-12
8.68209e-12
9.1037e-12
9.58115e-12
1.01138e-11
1.07008e-11
1.13408e-11
1.20321e-11
1.27727e-11
1.35601e-11
1.43914e-11
1.52633e-11
1.61721e-11
1.71135e-11
1.80827e-11
1.90747e-11
2.00838e-11
2.11039e-11
2.21286e-11
2.3151e-11
2.41638e-11
2.51597e-11
2.61309e-11
2.70696e-11
2.79679e-11
2.8818e-11
2.96122e-11
3.03429e-11
3.10029e-11
3.15857e-11
3.20849e-11
3.2495e-11
3.28113e-11
3.30296e-11
3.31469e-11
3.31609e-11
3.30705e-11
3.28755e-11
3.25767e-11
3.21761e-11
3.16766e-11
3.10821e-11
3.03974e-11
2.96282e-11
2.87809e-11
2.78628e-11
2.68814e-11
2.58451e-11
2.47623e-11
2.36418e-11
2.24923e-11
2.13227e-11
2.01415e-11
1.89572e-11
1.77778e-11
1.66109e-11
1.54635e-11
1.4342e-11
1.32523e-11
1.21994e-11
1.11877e-11
1.02209e-11
9.30192e-12
8.43293e-12
7.61549e-12
6.85045e-12
6.13808e-12
5.47807e-12
4.86962e-12
4.31147e-12
3.80196e-12
3.33914e-12
2.92077e-12
2.54441e-12
2.20747e-12
1.90729e-12
1.64113e-12
1.40626e-12
1.2e-12
1.01972e-12
8.629e-13
7.27127e-13
6.10132e-13
5.0979e-13
4.24135e-13
3.51359e-13
2.89813e-13
2.38009e-13
1.94607e-13
1.58415e-13
1.28378e-13
1.03566e-13
8.31686e-14
6.64805e-14
5.28901e-14
4.1875e-14
3.29913e-14
2.58628e-14
2.01723e-14
1.56535e-14
1.20842e-14
9.28015e-15
7.08914e-15
5.38655e-15
4.07081e-15
3.0597e-15
2.28706e-15
1.70002e-15
1.25655e-15
9.23479e-16
6.74791e-16
4.90206e-16
3.54021e-16
2.54153e-16
1.81362e-16
1.28634e-16
9.06764e-17
6.35227e-17
4.42211e-17
3.05889e-17
2.10232e-17
1.43551e-17
9.73773e-18
6.56186e-18
4.39223e-18
2.9201e-18
1.9281e-18
1.2643e-18
8.23235e-19
5.32268e-19
3.41701e-19
2.17791e-19
1.37808e-19
8.65601e-20
5.39687e-20
3.33991e-20
2.05149e-20
1.25057e-20
7.565e-21
4.54129e-21
2.7052e-21
1.59893e-21
9.37614e-22
5.45533e-22
3.14907e-22
1.80312e-22
1.02434e-22
5.77273e-23
3.22636e-23
1.7892e-23
9.84162e-24
5.36914e-24
2.90511e-24
1.55885e-24
8.29503e-25
4.37707e-25
2.29028e-25
1.18829e-25
6.11334e-26
3.11853e-26
1.57738e-26
7.91115e-27
3.93425e-27
1.94001e-27
9.4856e-28
4.59881e-28
2.21075e-28
1.05376e-28
4.98003e-29
2.33335e-29
1.08381e-29
4.98959e-30
2.27695e-30
1.02932e-30
1.05653e-11
1.06281e-11
1.07702e-11
1.09939e-11
1.13006e-11
1.16917e-11
1.21685e-11
1.27317e-11
1.33814e-11
1.41175e-11
1.49393e-11
1.58455e-11
1.68344e-11
1.79039e-11
1.90511e-11
2.02728e-11
2.15649e-11
2.29227e-11
2.43409e-11
2.58134e-11
2.73334e-11
2.88934e-11
3.04851e-11
3.20996e-11
3.37271e-11
3.53573e-11
3.69793e-11
3.85817e-11
4.01527e-11
4.168e-11
4.31514e-11
4.45544e-11
4.58768e-11
4.71066e-11
4.8232e-11
4.9242e-11
5.01263e-11
5.08754e-11
5.1481e-11
5.19359e-11
5.2234e-11
5.23711e-11
5.23442e-11
5.21517e-11
5.17942e-11
5.12733e-11
5.05927e-11
4.97574e-11
4.87741e-11
4.76508e-11
4.63969e-11
4.5023e-11
4.35406e-11
4.19622e-11
4.03008e-11
3.85701e-11
3.67837e-11
3.49558e-11
3.31002e-11
3.12303e-11
2.93593e-11
2.74997e-11
2.56632e-11
2.38608e-11
2.21022e-11
2.03964e-11
1.8751e-11
1.71728e-11
1.56671e-11
1.42383e-11
1.28895e-11
1.16229e-11
1.04394e-11
9.33936e-12
8.3219e-12
7.38556e-12
6.52815e-12
5.74688e-12
5.03849e-12
4.39933e-12
3.82544e-12
3.31266e-12
2.85671e-12
2.45324e-12
2.09794e-12
1.78656e-12
1.51497e-12
1.27923e-12
1.07557e-12
9.00472e-13
7.50632e-13
6.23016e-13
5.14841e-13
4.23579e-13
3.46948e-13
2.82908e-13
2.29646e-13
1.85559e-13
1.49243e-13
1.19473e-13
9.51811e-14
7.54572e-14
5.95227e-14
4.67163e-14
3.64779e-14
2.83363e-14
2.18968e-14
1.68314e-14
1.28688e-14
9.78609e-15
7.40128e-15
5.56682e-15
4.16374e-15
3.09678e-15
2.29013e-15
1.68386e-15
1.23089e-15
8.94485e-16
6.46164e-16
4.63982e-16
3.31148e-16
2.34895e-16
1.65588e-16
1.15999e-16
8.07455e-17
5.58458e-17
3.8374e-17
2.61957e-17
1.77641e-17
1.19661e-17
8.00619e-18
5.32022e-18
3.511e-18
2.30087e-18
1.49721e-18
9.67357e-19
6.20554e-19
3.95214e-19
2.49864e-19
1.56804e-19
9.76725e-20
6.03867e-20
3.70542e-20
2.25641e-20
1.36343e-20
8.17544e-21
4.86441e-21
2.8717e-21
1.68181e-21
9.77316e-22
5.63436e-22
3.22169e-22
1.82781e-22
1.02872e-22
5.74254e-23
3.17956e-23
1.74601e-23
9.50873e-24
5.1354e-24
2.75032e-24
1.46062e-24
7.6917e-25
4.01632e-25
2.07945e-25
1.06752e-25
5.43381e-26
2.74244e-26
1.37238e-26
6.80958e-27
3.35024e-27
1.63434e-27
7.90531e-28
3.79145e-28
1.80299e-28
8.50107e-29
3.97392e-29
1.84166e-29
8.46025e-30
3.85296e-30
1.73855e-30
1.52858e-11
1.53817e-11
1.55995e-11
1.59428e-11
1.64137e-11
1.70143e-11
1.77466e-11
1.86115e-11
1.96096e-11
2.07408e-11
2.20044e-11
2.33989e-11
2.49223e-11
2.65717e-11
2.83434e-11
3.0233e-11
3.2235e-11
3.4343e-11
3.65495e-11
3.88458e-11
4.12223e-11
4.3668e-11
4.6171e-11
4.87179e-11
5.12944e-11
5.3885e-11
5.64733e-11
5.90419e-11
6.15727e-11
6.40468e-11
6.64451e-11
6.87482e-11
7.09365e-11
7.29908e-11
7.48922e-11
7.66228e-11
7.81654e-11
7.95042e-11
8.06247e-11
8.15143e-11
8.21622e-11
8.256e-11
8.27012e-11
8.25819e-11
8.22009e-11
8.15592e-11
8.06608e-11
7.95118e-11
7.81212e-11
7.65001e-11
7.46618e-11
7.26219e-11
7.03973e-11
6.80069e-11
6.54707e-11
6.28095e-11
6.0045e-11
5.71992e-11
5.4294e-11
5.13513e-11
4.83924e-11
4.54377e-11
4.25066e-11
3.96175e-11
3.67871e-11
3.40305e-11
3.13613e-11
2.87914e-11
2.63305e-11
2.39868e-11
2.17666e-11
1.96744e-11
1.77131e-11
1.5884e-11
1.41867e-11
1.26197e-11
1.11804e-11
9.86482e-12
8.66839e-12
7.58569e-12
6.61073e-12
5.7371e-12
4.95811e-12
4.26691e-12
3.65658e-12
3.12028e-12
2.65131e-12
2.2432e-12
1.88976e-12
1.58513e-12
1.32384e-12
1.10078e-12
9.11271e-13
7.51037e-13
6.16202e-13
5.03284e-13
4.09177e-13
3.31127e-13
2.66713e-13
2.13804e-13
1.70553e-13
1.35376e-13
1.06911e-13
8.40009e-14
6.56589e-14
5.1054e-14
3.94882e-14
3.03796e-14
2.32461e-14
1.76907e-14
1.33889e-14
1.00767e-14
7.54133e-15
5.61178e-15
4.15195e-15
3.05403e-15
2.23325e-15
1.62337e-15
1.17297e-15
8.4241e-16
6.01307e-16
4.26556e-16
3.007e-16
2.10638e-16
1.46607e-16
1.01381e-16
6.96478e-17
4.75311e-17
3.22217e-17
2.16966e-17
1.45104e-17
9.63774e-18
6.35689e-18
4.16342e-18
2.70744e-18
1.74809e-18
1.12058e-18
7.1312e-19
4.50485e-19
2.82459e-19
1.75781e-19
1.08576e-19
6.65593e-20
4.04901e-20
2.44392e-20
1.46385e-20
8.70041e-21
5.13036e-21
3.00086e-21
1.74179e-21
1.00296e-21
5.72858e-22
3.2456e-22
1.82389e-22
1.01654e-22
5.61901e-23
3.08022e-23
1.67445e-23
9.02644e-24
4.82502e-24
2.55745e-24
1.3441e-24
7.00424e-25
3.61903e-25
1.85403e-25
9.41747e-26
4.7429e-26
2.36836e-26
1.1726e-26
5.75641e-27
2.80192e-27
1.35228e-27
6.47113e-28
3.0704e-28
1.44445e-28
6.7373e-29
3.11556e-29
1.42825e-29
6.49185e-30
2.92395e-30
2.19381e-11
2.20837e-11
2.24153e-11
2.29385e-11
2.36562e-11
2.45718e-11
2.56879e-11
2.70064e-11
2.85285e-11
3.02544e-11
3.21835e-11
3.43143e-11
3.66445e-11
3.91707e-11
4.18882e-11
4.47912e-11
4.78725e-11
5.11234e-11
5.45337e-11
5.80913e-11
6.17827e-11
6.55923e-11
6.95026e-11
7.34945e-11
7.75469e-11
8.16368e-11
8.57396e-11
8.98292e-11
9.3878e-11
9.78573e-11
1.01737e-10
1.05488e-10
1.09079e-10
1.12479e-10
1.15658e-10
1.18587e-10
1.21239e-10
1.23586e-10
1.25605e-10
1.27273e-10
1.28572e-10
1.29485e-10
1.3e-10
1.30109e-10
1.29806e-10
1.2909e-10
1.27965e-10
1.26437e-10
1.24517e-10
1.22221e-10
1.19567e-10
1.16578e-10
1.13278e-10
1.09694e-10
1.05858e-10
1.01801e-10
9.75566e-11
9.31589e-11
8.86427e-11
8.40428e-11
7.93935e-11
7.47279e-11
7.0078e-11
6.54741e-11
6.09443e-11
5.65145e-11
5.2208e-11
4.80454e-11
4.40445e-11
4.02202e-11
3.65844e-11
3.31462e-11
2.99122e-11
2.68859e-11
2.40686e-11
2.14594e-11
1.90551e-11
1.68508e-11
1.48401e-11
1.30151e-11
1.1367e-11
9.88597e-12
8.56171e-12
7.38347e-12
6.34031e-12
5.42129e-12
4.6156e-12
3.9127e-12
3.30248e-12
2.77527e-12
2.322e-12
1.93418e-12
1.60396e-12
1.32414e-12
1.08818e-12
8.90167e-13
7.24814e-13
5.87412e-13
4.73801e-13
3.80302e-13
3.03738e-13
2.41366e-13
1.90823e-13
1.50084e-13
1.17426e-13
9.13898e-14
7.0747e-14
5.44718e-14
4.17124e-14
3.1766e-14
2.40569e-14
1.81163e-14
1.35652e-14
1.00992e-14
7.47512e-15
5.50044e-15
4.02342e-15
2.92538e-15
2.11416e-15
1.51857e-15
1.08404e-15
7.69029e-16
5.42116e-16
3.79721e-16
2.64257e-16
1.82704e-16
1.25486e-16
8.56127e-17
5.80177e-17
3.90515e-17
2.61058e-17
1.7331e-17
1.14252e-17
7.47853e-18
4.86008e-18
3.13587e-18
2.00877e-18
1.27739e-18
8.063e-19
5.05125e-19
3.14071e-19
1.9382e-19
1.18705e-19
7.21412e-20
4.34959e-20
2.60265e-20
1.54526e-20
9.10216e-21
5.31872e-21
3.08316e-21
1.77288e-21
1.01117e-21
5.72021e-22
3.20939e-22
1.78581e-22
9.85439e-23
5.39251e-23
2.92618e-23
1.57452e-23
8.4007e-24
4.44422e-24
2.33118e-24
1.21241e-24
6.25192e-25
3.19639e-25
1.62027e-25
8.14325e-26
4.05782e-26
2.00482e-26
9.82085e-27
4.77e-27
2.29714e-27
1.09687e-27
5.19305e-28
2.43774e-28
1.13459e-28
5.23569e-29
2.39532e-29
1.08666e-29
4.88543e-30
3.11633e-11
3.13828e-11
3.18835e-11
3.26732e-11
3.37567e-11
3.51388e-11
3.6824e-11
3.88153e-11
4.11148e-11
4.37238e-11
4.66422e-11
4.9869e-11
5.34019e-11
5.7237e-11
6.1369e-11
6.57908e-11
7.0493e-11
7.54646e-11
8.06917e-11
8.61582e-11
9.18452e-11
9.7731e-11
1.03791e-10
1.09998e-10
1.1632e-10
1.22725e-10
1.29176e-10
1.35635e-10
1.42059e-10
1.48406e-10
1.54629e-10
1.60683e-10
1.66519e-10
1.72091e-10
1.77349e-10
1.82248e-10
1.86742e-10
1.90788e-10
1.94345e-10
1.97376e-10
1.99849e-10
2.01734e-10
2.03007e-10
2.03652e-10
2.03655e-10
2.03011e-10
2.01719e-10
1.99786e-10
1.97225e-10
1.94054e-10
1.903e-10
1.85992e-10
1.81167e-10
1.75865e-10
1.7013e-10
1.64011e-10
1.5756e-10
1.50827e-10
1.43869e-10
1.36739e-10
1.29493e-10
1.22183e-10
1.14862e-10
1.07579e-10
1.00381e-10
9.33114e-11
8.64103e-11
7.9713e-11
7.32508e-11
6.70505e-11
6.11343e-11
5.55198e-11
5.02201e-11
4.52441e-11
4.05964e-11
3.62779e-11
3.2286e-11
2.86149e-11
2.5256e-11
2.21983e-11
1.94289e-11
1.69332e-11
1.46954e-11
1.2699e-11
1.09268e-11
9.36141e-12
7.98557e-12
6.78231e-12
5.73515e-12
4.82833e-12
4.04688e-12
3.37676e-12
2.80492e-12
2.31934e-12
1.90902e-12
1.564e-12
1.27533e-12
1.03501e-12
8.35916e-13
6.7177e-13
5.3714e-13
4.27299e-13
3.38164e-13
2.66225e-13
2.08484e-13
1.62396e-13
1.25816e-13
9.69448e-14
7.42882e-14
5.66105e-14
4.28973e-14
3.23217e-14
2.42137e-14
1.80347e-14
1.33538e-14
9.82935e-15
7.19182e-15
5.23021e-15
3.78046e-15
2.71576e-15
1.93879e-15
1.3754e-15
9.69532e-16
6.79037e-16
4.72491e-16
3.2661e-16
2.24268e-16
1.52959e-16
1.03621e-16
6.97201e-17
4.65875e-17
3.09135e-17
2.03685e-17
1.33249e-17
8.65382e-18
5.58007e-18
3.57202e-18
2.26982e-18
1.43162e-18
8.96117e-19
5.56689e-19
3.43251e-19
2.10033e-19
1.27526e-19
7.68241e-20
4.59191e-20
2.72305e-20
1.60196e-20
9.34872e-21
5.41178e-21
3.10737e-21
1.76964e-21
9.99537e-22
5.59903e-22
3.11035e-22
1.71344e-22
9.36008e-23
5.07017e-23
2.72324e-23
1.4503e-23
7.65818e-24
4.00943e-24
2.08124e-24
1.07112e-24
5.46545e-25
2.76494e-25
1.38681e-25
6.89644e-26
3.40025e-26
1.66219e-26
8.05633e-27
3.87157e-27
1.84473e-27
8.71522e-28
4.08247e-28
1.89611e-28
8.73189e-29
3.98691e-29
1.80526e-29
8.10133e-30
4.37517e-11
4.40802e-11
4.48283e-11
4.60077e-11
4.76259e-11
4.96903e-11
5.22075e-11
5.5183e-11
5.8621e-11
6.25242e-11
6.68943e-11
7.17316e-11
7.70344e-11
8.27994e-11
8.9021e-11
9.56911e-11
1.02799e-10
1.1033e-10
1.18267e-10
1.26589e-10
1.35271e-10
1.44282e-10
1.53589e-10
1.63153e-10
1.72929e-10
1.82871e-10
1.92925e-10
2.03034e-10
2.13135e-10
2.23165e-10
2.33055e-10
2.42734e-10
2.52128e-10
2.61163e-10
2.69765e-10
2.77859e-10
2.85374e-10
2.92238e-10
2.98386e-10
3.03756e-10
3.0829e-10
3.1194e-10
3.14661e-10
3.1642e-10
3.1719e-10
3.16954e-10
3.15705e-10
3.13445e-10
3.10187e-10
3.05954e-10
3.00777e-10
2.94697e-10
2.87765e-10
2.80039e-10
2.71583e-10
2.6247e-10
2.52775e-10
2.42579e-10
2.31965e-10
2.2102e-10
2.09828e-10
1.98476e-10
1.87046e-10
1.75619e-10
1.64272e-10
1.53078e-10
1.42102e-10
1.31407e-10
1.21045e-10
1.11064e-10
1.01505e-10
9.24005e-11
8.37757e-11
7.56495e-11
6.80338e-11
6.09344e-11
5.43508e-11
4.82772e-11
4.27032e-11
3.76139e-11
3.2991e-11
2.88131e-11
2.50566e-11
2.16962e-11
1.87052e-11
1.60565e-11
1.37226e-11
1.16765e-11
9.89157e-12
8.34222e-12
7.00405e-12
5.854e-12
4.87051e-12
4.03363e-12
3.32503e-12
2.72805e-12
2.22762e-12
1.81024e-12
1.46378e-12
1.17768e-12
9.42666e-13
7.50655e-13
5.94634e-13
4.68556e-13
3.67243e-13
2.86289e-13
2.21967e-13
1.71151e-13
1.31237e-13
1.00067e-13
7.58686e-14
5.71926e-14
4.28647e-14
3.19386e-14
2.3657e-14
1.74183e-14
1.27474e-14
9.27209e-15
6.70287e-15
4.81554e-15
3.43796e-15
2.43892e-15
1.7191e-15
1.20389e-15
8.37561e-16
5.78845e-16
3.97362e-16
2.70928e-16
1.83476e-16
1.23402e-16
8.24229e-17
5.46663e-17
3.60002e-17
2.35377e-17
1.52764e-17
9.84429e-18
6.29755e-18
3.9989e-18
2.52031e-18
1.57644e-18
9.78557e-19
6.02796e-19
3.68466e-19
2.23478e-19
1.34479e-19
8.02847e-20
4.75497e-20
2.79366e-20
1.62812e-20
9.41158e-21
5.39612e-21
3.06848e-21
1.73048e-21
9.67814e-22
5.36764e-22
2.95205e-22
1.60989e-22
8.70539e-23
4.66752e-23
2.4813e-23
1.30785e-23
6.83456e-24
3.54107e-24
1.81896e-24
9.26352e-25
4.67724e-25
2.34135e-25
1.162e-25
5.71767e-26
2.78937e-26
1.34919e-26
6.47036e-27
3.07663e-27
1.45051e-27
6.78062e-28
3.14284e-28
1.44443e-28
6.58229e-29
2.97482e-29
1.33255e-29
6.0637e-11
6.1124e-11
6.22296e-11
6.39713e-11
6.63604e-11
6.94084e-11
7.31257e-11
7.75216e-11
8.26036e-11
8.8378e-11
9.48498e-11
1.02022e-10
1.09896e-10
1.18469e-10
1.27738e-10
1.37695e-10
1.48327e-10
1.5962e-10
1.71551e-10
1.84094e-10
1.97215e-10
2.10877e-10
2.25031e-10
2.39626e-10
2.54599e-10
2.69883e-10
2.85402e-10
3.01073e-10
3.16806e-10
3.32505e-10
3.48067e-10
3.63387e-10
3.78352e-10
3.92849e-10
4.06763e-10
4.19977e-10
4.32378e-10
4.43853e-10
4.54295e-10
4.63601e-10
4.71676e-10
4.78436e-10
4.83804e-10
4.87717e-10
4.90122e-10
4.90982e-10
4.90274e-10
4.8799e-10
4.84137e-10
4.78738e-10
4.7183e-10
4.63467e-10
4.53716e-10
4.42657e-10
4.30384e-10
4.17e-10
4.02618e-10
3.8736e-10
3.71352e-10
3.54725e-10
3.37613e-10
3.20151e-10
3.0247e-10
2.847e-10
2.66966e-10
2.49388e-10
2.32075e-10
2.1513e-10
1.98646e-10
1.82704e-10
1.67376e-10
1.52721e-10
1.38789e-10
1.25615e-10
1.13227e-10
1.0164e-10
9.08593e-11
8.08827e-11
7.16985e-11
6.32877e-11
5.56253e-11
4.86807e-11
4.24193e-11
3.68028e-11
3.17907e-11
2.73407e-11
2.34099e-11
1.99553e-11
1.69346e-11
1.43065e-11
1.20316e-11
1.00722e-11
8.39312e-12
6.9614e-12
5.74677e-12
4.72152e-12
3.86052e-12
3.14096e-12
2.54268e-12
2.04787e-12
1.64084e-12
1.30786e-12
1.03695e-12
8.17772e-13
6.41459e-13
5.00429e-13
3.88265e-13
2.99573e-13
2.29847e-13
1.75353e-13
1.33015e-13