/*--------------------------------*- C++ -*----------------------------------*\
| =========                 |                                                 |
| \\      /  F ield         | OpenFOAM: The Open Source CFD Toolbox           |
|  \\    /   O peration     | Version:  2.3.0                                 |
|   \\  /    A nd           | Web:      www.OpenFOAM.org                      |
|    \\/     M anipulation  |                                                 |
\*---------------------------------------------------------------------------*/
FoamFile
{
    version     2.0;
    format      ascii;
    class       volScalarField;
    location    "2.1";
    object      alpha.water;
}
// * * * * * * * * * * * * * * * * * * * * * * * * * * * * * * * * * * * * * //

dimensions      [0 0 0 0 0 0 0];

internalField   nonuniform List<scalar> 
2268
(
0.999971
0.999971
0.979957
0.984802
0.923474
0.943059
1
1
1
1
1
1
1
1
0.995868
0.986211
0.9882
0.999482
0.999484
0.999482
0.99968
0.999794
0.999794
0.994258
0.930146
0.916011
0.984783
0.922587
0.922447
1
1
1
1
1
1
1
1
0.996787
0.986217
0.986787
0.99948
0.999407
0.998506
0.998532
0.999553
0.999794
0.968041
0.930183
0.962774
0.963366
0.955221
0.922431
1
1
1
1
0.999984
0.999962
0.999983
1
0.999863
0.989704
0.992254
0.998584
0.999373
0.999289
0.998544
0.999192
0.999794
0.905019
0.975261
0.978137
0.869658
0.902985
0.964349
1
0.999999
1
0.999976
0.999874
0.999874
0.999955
1
0.999999
0.999664
0.999894
0.999795
0.999797
0.999799
0.996482
0.999793
0.999794
0.880489
0.981727
0.980525
0.866297
0.822549
0.999826
1
0.999973
0.999985
0.99904
0.999819
0.999976
0.999998
0.999998
0.999997
0.999997
0.999993
0.999988
0.988242
0.974154
0.990437
0.999793
0.999793
0.869451
0.981729
0.981727
0.975603
0.822549
0.999962
0.999999
0.995869
0.969792
0.996246
0.999991
0.999995
0.999997
0.999998
0.999998
0.999998
0.999226
0.980505
0.970001
0.970125
0.996456
0.999787
0.999785
0.861269
0.981727
0.981728
0.979088
0.894458
0.962171
0.999981
0.880206
0.904982
0.994314
0.999944
0.999991
0.999995
0.99993
0.999977
0.999997
0.996867
0.970001
0.970001
0.978044
0.996695
0.997379
0.99503
0.86123
0.953453
0.96106
0.979452
0.979449
0.81112
0.804322
0.804468
0.897175
0.998754
0.999715
0.999936
0.999964
0.997971
0.999366
0.999997
0.999049
0.989232
0.982773
0.985558
0.984279
0.925836
0.980092
0.994554
0.973345
0.932162
0.931892
0.931686
0.931686
0.931686
0.960039
0.999077
0.999057
0.995265
0.918144
0.880367
0.880353
0.887636
0.90255
0.90247
0.901372
0.880681
0.988173
0.946132
0.944871
0.984745
0.949591
0.931686
0.95877
0.99908
0.999079
0.999077
0.99907
0.979116
0.895164
0.880354
0.880325
0.880323
0.88031
0.880309
0.880299
0.984068
0.9522
0.99037
0.991547
0.987467
0.947947
0.97836
0.99908
0.99908
0.999079
0.999069
0.999007
0.991299
0.906854
0.880342
0.880314
0.880308
0.880313
0.947593
0.993869
0.990547
0.991521
0.991804
0.992002
0.991605
0.996416
0.99908
0.999079
0.99906
0.998242
0.995528
0.993728
0.992933
0.960094
0.921885
0.880314
0.880581
0.978004
0.994496
0.994472
0.983567
0.895866
0.935129
0.995828
0.999077
0.99908
0.999077
0.999011
0.979465
0.941639
0.933765
0.950374
0.973019
0.972907
0.921303
0.880585
0.978382
0.994496
0.994496
0.994474
0.81809
0.716671
0.999011
0.999065
0.999077
0.999074
0.998653
0.968873
0.933765
0.933765
0.933765
0.935358
0.968314
0.974605
0.950331
0.979393
0.962804
0.947514
0.986748
0.84614
0.715062
0.847562
0.998246
0.998806
0.992821
0.998641
0.996387
0.955896
0.933765
0.933766
0.933892
0.936627
0.98195
0.980986
0.979512
0.932503
0.932558
0.986048
0.892805
0.715322
0.715322
0.987557
0.96819
0.97133
0.998679
0.998661
0.996937
0.955061
0.93554
0.962425
0.982583
0.982259
0.981943
0.94959
0.893795
0.925649
0.973032
0.979449
0.979451
0.89469
0.803338
0.851918
0.955594
0.976863
0.979114
0.959486
0.948492
0.990466
0.999978
0.999981
0.999978
0.999968
0.999811
0.94715
0.736744
0.881716
0.980029
0.91622
0.910191
0.8732
0.797331
0.781111
0.820756
0.812566
0.634725
0.44577
0.404849
0.429048
0.591932
0.823306
0.932066
0.984781
0.999978
0.985421
0.966764
0.924173
0.78437
0.723355
0.8283
0.955979
0.407317
0.414809
0.307532
0.161413
0.0641636
0.0376204
0.0318559
0.0185422
0.0072582
0.00227976
0.0124661
0.0243911
0.112924
0.294777
0.546259
0.654866
0.500165
0.420849
0.258648
0.0865411
0.0282393
0.0102177
0.380016
0.0182237
0.0034664
0.000818816
0.000370434
0.000107802
4.10244e-05
9.07534e-05
0.000336014
0.000527199
0.000645125
0.000604129
0.000691851
0.000783771
0.00566752
0.0281001
0.0529613
0.0257653
0.010946
0.00347352
0.00141268
0.0011019
0.00114264
0.00124054
0.000939632
0.000256226
0.00013351
4.1485e-05
1.84291e-05
1.59223e-05
2.40714e-05
0.000501467
0.00165825
0.00163084
0.00127625
0.0007838
0.000906295
0.00303518
0.00624613
0.00566713
0.00453075
0.00463556
0.00146156
0.00111167
0.00111099
0.001109
0.00114629
0.00023939
8.88219e-05
3.78039e-05
1.85674e-05
1.36265e-05
1.32033e-05
1.36654e-05
1.66194e-05
0.00044474
0.00167021
0.00165945
0.00136148
0.00103268
0.000940076
0.00338423
0.00672845
0.00386382
0.00428783
0.00116719
0.00111099
0.00110476
0.00194471
0.00282004
6.88215e-05
4.7246e-05
1.90727e-05
1.39304e-05
1.3194e-05
1.30078e-05
1.30564e-05
1.2871e-05
1.46465e-05
0.000107986
0.00150594
0.0017651
0.00166291
0.000841158
0.000775889
0.000748643
0.00163947
0.00298395
0.00417012
0.00110545
0.00110545
0.00160791
0.00290353
4.40319e-05
2.25902e-05
1.42328e-05
1.3194e-05
1.30549e-05
1.29417e-05
1.29953e-05
1.27844e-05
1.25488e-05
1.25748e-05
0.000101464
0.001755
0.00220477
0.00226596
0.00122334
0.000632431
0.000611772
0.000826142
0.00525859
0.0048596
0.00110545
0.00132672
0.00294866
2.70934e-05
1.62356e-05
1.3496e-05
1.3139e-05
1.30442e-05
1.29816e-05
1.29468e-05
1.28989e-05
1.28028e-05
1.27088e-05
1.30917e-05
1.39238e-05
0.00158566
0.00245784
0.00248169
0.000773546
0.000602808
0.00060618
0.00314937
0.00621669
0.0016783
0.00189202
0.00297362
3.76612e-05
3.36625e-05
6.62955e-05
6.809e-05
1.6377e-05
1.27901e-05
1.30158e-05
1.29468e-05
1.29468e-05
1.30109e-05
1.33466e-05
1.37316e-05
1.43233e-05
0.00129915
0.00248169
0.00246944
0.000603107
0.000602814
0.00110792
0.00629895
0.00612061
0.00198404
0.00227258
4.12543e-05
3.99589e-05
8.57222e-05
8.53155e-05
2.89103e-05
1.27608e-05
1.28454e-05
1.30243e-05
1.29469e-05
1.31156e-05
1.37123e-05
1.43934e-05
3.60287e-05
2.74563e-05
0.00248097
0.00247481
0.00061392
0.00119145
0.00565068
0.00629895
0.00629895
0.00110792
0.00140944
0.000162383
4.379e-05
5.22561e-05
4.62107e-05
3.04799e-05
5.08684e-05
0.00011081
0.000134533
0.00011548
8.23768e-05
2.11516e-05
1.56247e-05
2.07725e-05
2.20307e-05
0.00247248
0.00198882
0.00387524
0.00619458
0.00624667
0.00629895
0.00441587
0.000325792
0.00113582
0.000277686
0.000274749
5.63549e-05
5.11935e-05
0.000116927
0.000489427
0.000703843
0.000699408
0.000696582
0.000694358
0.000340058
2.68957e-05
2.20266e-05
2.72773e-05
0.00240535
0.000617996
0.00278336
0.0061074
0.0061944
0.00327442
0.000392452
0.000248646
0.000442204
0.000235799
0.000118252
0.000178873
0.00046088
0.000688065
0.000711794
0.000718213
0.000696506
0.000693344
0.000695269
0.000695865
0.000116717
2.88083e-05
0.000515941
0.0010962
0.00059797
0.00107228
0.00159687
0.00167159
0.000400789
0.000248981
0.000226853
0.000230021
4.15314e-05
4.14391e-05
0.000100238
0.000165456
0.000592768
0.000710731
0.000703768
0.000695015
0.000695053
0.000694288
0.000605799
0.000125845
0.000958874
0.00271866
0.000550784
0.000152434
0.000342046
0.000353531
0.00043208
0.000515822
0.000226874
0.000226882
0.000209584
4.07731e-05
4.0939e-05
4.14101e-05
4.46457e-05
5.53547e-05
0.000383362
0.000709153
0.000708514
0.000696334
0.000609738
7.98629e-05
0.000408783
0.0027494
0.00273403
0.000611668
1.6968e-06
1.96651e-05
0.000311527
0.00050183
0.000576082
0.000629929
0.000361073
0.000558476
4.07731e-05
4.89311e-05
6.25562e-05
4.94737e-05
4.83299e-05
4.97005e-05
0.000403206
0.000479964
0.000388598
7.9552e-05
7.98946e-05
0.00266967
0.0027494
0.00188474
6.87521e-05
6.13333e-07
2.49992e-06
0.000310568
0.000312937
0.000263635
0.000751386
0.000794985
0.000813336
4.09602e-05
8.38781e-05
0.000168667
5.44192e-05
4.82597e-05
4.83299e-05
4.95407e-05
0.000106811
0.000121405
0.00173618
0.0033416
0.0033416
0.0017539
3.454e-07
3.60136e-07
4.95904e-07
4.73027e-07
5.79168e-05
1.21674e-05
5.54121e-06
0.000276617
0.000821455
0.000819957
4.21345e-05
0.000508671
0.000704146
4.82392e-05
4.81895e-05
4.82816e-05
5.17724e-05
0.00117659
0.00302332
0.00307382
0.00293844
0.000825172
3.26415e-07
3.3654e-07
3.48358e-07
3.95069e-07
2.75176e-07
3.17947e-07
8.25026e-07
1.39031e-06
3.53621e-06
8.62446e-05
0.000445332
4.50286e-05
0.000348052
0.000647331
4.81427e-05
4.82096e-05
0.000102035
0.00247685
0.00297048
0.00296616
0.00168166
3.31446e-07
3.25176e-07
3.11746e-07
3.57593e-07
4.23801e-07
3.91953e-07
2.55391e-07
1.28882e-07
3.67753e-07
8.29683e-07
1.42049e-06
2.55543e-06
4.91156e-06
4.65748e-05
0.000125801
0.000912243
4.95092e-05
0.000102824
0.00215486
0.00272507
0.00240489
6.12564e-07
4.45814e-07
4.11999e-07
3.04776e-07
2.63445e-07
2.04196e-07
2.17211e-07
2.18182e-07
1.07929e-07
1.10856e-07
3.68436e-07
1.42267e-06
2.32664e-06
2.4019e-06
2.48957e-06
5.54181e-05
0.000450882
0.00108748
7.16477e-05
0.000527602
0.00231208
0.00196442
9.49129e-07
7.46562e-07
5.51145e-07
7.18049e-06
1.35493e-05
5.90206e-07
9.91694e-08
2.8043e-08
2.55332e-08
1.01233e-07
2.67174e-07
9.73419e-07
3.02067e-06
3.02291e-06
1.94677e-06
1.99597e-06
0.000467173
0.000754193
0.00107807
0.000240051
0.00224192
0.00231208
0.00046456
9.98412e-07
9.48562e-07
3.91928e-05
0.00021161
0.000268633
0.000126818
2.5049e-05
7.98142e-07
3.83533e-09
4.122e-09
1.27573e-09
1.23545e-09
1.23163e-09
1.29963e-08
1.99566e-08
6.25653e-07
0.00316178
0.00240531
0.000597691
0.000303726
0.00218018
0.00167076
5.24554e-06
1.6103e-06
2.5272e-05
0.0002625
0.000290068
0.000289001
0.000290303
0.000237352
4.77443e-05
1.68665e-09
1.47574e-09
1.2854e-09
1.24759e-09
1.14966e-09
1.12133e-09
1.12284e-09
1.12289e-09
0.00316178
0.00192967
0.000645916
0.00150223
0.0020316
0.00016248
6.2851e-06
5.38073e-06
0.000150359
0.000287905
0.000289008
0.000287888
0.000286249
0.00022265
8.81173e-05
3.75507e-09
1.68717e-09
1.46949e-09
1.77804e-09
1.32609e-09
1.13883e-09
1.12131e-09
3.29058e-08
0.00303048
0.000710955
0.000792606
0.00182174
0.00167914
3.12347e-06
3.44362e-06
2.60338e-05
0.000273045
0.00028642
0.000287746
0.000284282
0.000103516
1.49995e-06
4.81101e-06
4.30449e-06
3.74578e-09
4.14324e-09
7.93305e-09
3.37887e-09
1.59155e-09
1.13817e-09
5.14147e-08
0.00278445
0.000511246
0.00145596
0.00182174
0.00127544
1.49953e-06
1.746e-06
1.80451e-05
0.000231167
0.000286109
0.000284171
0.000245619
1.49995e-06
1.34285e-06
1.26891e-06
5.65915e-06
4.99852e-07
4.56089e-08
3.02269e-07
1.58869e-08
2.92353e-09
1.12606e-09
8.97984e-09
0.00302526
0.000454653
0.00117905
0.00182174
0.000471143
1.29506e-06
1.23744e-06
8.83069e-06
6.20837e-05
0.000120387
0.00021444
0.000220889
2.27035e-06
1.24731e-06
1.12932e-06
1.17423e-06
8.7181e-07
6.103e-06
1.3377e-05
2.2577e-06
4.41104e-09
6.94517e-10
3.61938e-10
0.00343563
0.00039665
0.000232009
0.00168405
5.37408e-05
1.25192e-06
1.18952e-06
2.31123e-06
1.53983e-06
2.2863e-06
2.21807e-06
6.88632e-05
6.9988e-05
1.07228e-05
1.9273e-06
8.98691e-07
8.81227e-07
1.39944e-05
2.06925e-05
1.52212e-05
7.06762e-07
3.532e-10
4.47555e-11
0.00345178
0.00249733
0.000137176
0.000155776
1.40019e-05
1.19138e-06
1.17995e-06
1.18831e-06
1.20508e-06
2.14339e-06
2.16686e-06
2.42138e-06
9.29269e-05
7.91379e-05
8.98132e-06
9.64371e-07
8.98691e-07
4.57338e-06
2.11556e-05
2.11555e-05
6.36664e-06
8.75482e-10
4.20592e-11
0.00345178
0.00345178
0.000183452
5.24042e-06
1.33442e-06
1.17947e-06
1.17666e-06
1.17466e-06
1.17362e-06
2.17938e-06
2.18904e-06
4.93256e-05
9.30496e-05
9.21737e-05
1.46916e-05
1.16806e-06
9.64394e-07
1.08509e-06
1.35851e-05
2.11815e-05
1.21788e-05
2.13118e-08
3.8541e-11
0.00339235
0.00342051
0.00281125
5.72119e-05
1.25079e-06
1.17602e-06
1.17557e-06
1.17607e-06
1.17332e-06
1.54744e-06
1.83223e-06
9.0365e-05
9.21737e-05
5.16297e-05
9.40657e-06
4.34654e-06
1.65119e-06
1.10784e-06
5.01205e-06
2.10208e-05
1.32494e-05
8.66599e-08
8.87448e-13
0.000440184
0.00335569
0.00325956
0.00280099
0.00185935
0.000866569
1.93197e-05
1.13262e-06
1.17083e-06
1.23877e-06
4.46501e-05
8.82217e-05
9.05927e-05
1.07693e-05
1.16025e-05
1.06851e-05
6.26386e-06
1.18451e-06
3.89199e-06
2.06809e-05
1.12586e-05
1.57995e-08
1.4752e-11
0.000243613
0.000656854
0.00308725
0.00305046
0.0029737
0.00292661
0.000840353
2.34857e-06
1.23898e-06
1.2881e-06
7.89535e-05
8.64583e-05
3.3938e-05
4.98287e-06
4.65907e-06
1.04783e-05
6.55808e-06
1.4684e-06
8.27946e-06
2.04977e-05
6.07869e-06
6.51271e-12
1.42361e-11
0.000236686
3.58639e-05
0.000587325
0.0029737
0.00294016
0.00290663
0.00138772
5.54373e-06
2.47984e-06
3.33424e-05
8.46138e-05
8.64583e-05
9.09052e-06
4.33601e-06
1.92694e-06
9.72989e-06
9.07332e-06
5.58921e-06
1.93187e-05
1.40921e-05
4.57355e-08
5.6911e-12
1.64963e-11
0.00026206
2.33554e-05
1.96068e-05
0.00113631
0.00290663
0.00272039
0.000688718
7.94052e-06
5.56353e-06
4.60159e-05
8.26719e-05
1.67181e-05
3.67807e-06
5.85829e-06
3.20812e-07
8.31991e-06
1.84164e-05
1.84698e-05
1.84617e-05
4.20213e-06
6.15925e-12
7.51284e-12
1.77731e-11
0.000240579
1.40788e-05
6.0085e-06
1.97845e-05
0.000975039
0.000447453
8.63082e-05
1.55611e-05
2.2934e-05
7.7024e-05
6.9751e-05
3.78306e-06
3.20463e-06
6.75725e-06
1.22858e-07
6.82692e-06
1.83961e-05
1.79454e-05
4.55469e-06
6.56635e-12
6.56634e-12
9.65286e-12
1.78269e-11
5.07506e-05
6.48957e-06
3.9684e-06
5.65969e-06
2.09327e-05
1.93718e-05
1.43446e-05
1.66681e-05
7.3262e-05
7.70876e-05
1.71125e-05
2.10648e-07
2.71543e-06
6.75816e-06
3.90772e-09
1.74977e-06
1.01716e-05
2.95887e-06
5.88722e-11
5.63681e-11
6.58828e-12
9.85052e-12
9.34307e-12
4.09777e-05
3.84052e-06
3.58788e-06
3.81805e-06
5.8716e-06
1.17762e-05
1.25836e-05
1.55955e-05
7.86228e-05
7.7887e-05
7.90672e-06
9.33458e-09
2.04862e-07
9.93366e-07
1.57838e-10
8.67773e-11
5.88653e-12
1.99563e-12
1.59054e-10
3.78196e-10
4.86652e-12
7.01601e-12
5.16236e-12
5.11664e-06
1.14497e-05
3.54311e-06
3.42183e-06
3.7171e-06
8.42872e-06
1.20126e-05
7.73422e-05
7.85415e-05
1.44005e-05
9.02152e-09
1.72761e-10
2.13875e-12
1.94834e-13
1.47173e-10
3.02865e-09
6.71532e-09
3.56753e-13
1.39702e-10
4.5389e-10
2.73211e-12
3.08347e-12
9.93332e-13
7.0994e-76
2.08923e-05
3.46284e-06
3.34418e-06
3.32543e-06
4.0119e-06
3.11779e-05
8.00035e-05
2.9311e-05
-7.68416e-12
-8.80962e-11
-4.61069e-12
2.14488e-13
1.90779e-13
3.60568e-11
4.50963e-09
1.32726e-08
1.66063e-13
1.08828e-12
1.21898e-12
1.52595e-12
3.93357e-13
8.65878e-14
1.21477e-138
2.09139e-05
1.02579e-05
3.32545e-06
3.32543e-06
4.80654e-06
3.31644e-05
2.90542e-06
-3.20983e-12
-5.2779e-13
-5.78629e-14
-2.22557e-15
4.06305e-19
1.0661e-18
4.09649e-13
4.36063e-13
7.63473e-09
2.00139e-15
1.0551e-12
1.23117e-12
1.27401e-13
9.97795e-15
5.20924e-15
0.977817
0.960472
0.960535
0.980301
0.984521
0.984804
0.984831
0.984831
0.793328
0.920338
0.973031
0.984831
0.00133902
0.0016155
0.178063
0.368148
0.00125764
0.00132149
0.00140108
0.00175509
0.00136232
0.00138343
0.00139263
0.00151857
0.00288459
0.0015168
0.00144551
0.00146961
0.0029578
0.00220591
0.00147917
0.00150677
0.00298289
0.00301374
0.00297737
0.00304026
0.00297842
0.00298288
0.00295932
0.00308146
0.00313942
0.00297819
0.00298831
0.00303545
0.00299506
0.00297021
0.00292798
0.00205661
0.002914
0.00243757
0.00023709
5.26238e-05
0.000414812
0.000935759
0.000256849
5.3018e-05
0.000155845
7.75875e-05
5.68501e-05
5.17413e-05
0.000794805
0.000544413
9.68167e-05
5.66096e-05
0.000819655
0.000819702
0.000819839
0.00081906
0.000820582
0.000821663
0.000819835
0.000819832
0.000418714
0.000151517
0.00012829
0.000782082
4.84537e-06
5.536e-06
8.91293e-06
2.63314e-05
3.69643e-06
5.6848e-06
6.33772e-06
5.6444e-06
6.10986e-06
6.57834e-06
6.71085e-06
6.66035e-06
4.36115e-06
6.1377e-06
5.52444e-06
1.25688e-06
2.80524e-09
8.19118e-09
1.35953e-08
1.89925e-08
1.17091e-07
5.33243e-08
1.89936e-08
2.70698e-08
1.9207e-07
4.45728e-07
1.29557e-06
2.13126e-06
9.12021e-08
7.02823e-07
2.94276e-06
3.09556e-06
2.77497e-08
1.44271e-07
9.50559e-11
1.11132e-09
3.34805e-11
3.17768e-11
3.5035e-11
9.50502e-11
4.00157e-11
3.12105e-11
3.33644e-11
2.46526e-11
5.71917e-11
2.75463e-11
3.43941e-11
5.07487e-11
4.58254e-11
2.1071e-11
3.51948e-11
8.64304e-11
1.45775e-11
1.50151e-11
1.87119e-11
4.24138e-11
1.42031e-11
1.09089e-11
9.20095e-12
1.94781e-11
1.45941e-11
9.8062e-12
5.91217e-12
9.8101e-12
1.33052e-11
7.84276e-12
3.69903e-12
3.25014e-12
1.05598e-11
5.41151e-12
2.13284e-12
1.08469e-12
6.5496e-12
2.89074e-12
9.76902e-13
3.50499e-13
2.37979e-12
9.01561e-13
2.77145e-13
9.87368e-14
3.55165e-13
1.21547e-13
3.6276e-14
1.37983e-14
3.04223e-14
1.16517e-14
3.53407e-15
1.10081e-15
2.70573e-15
1.01941e-15
2.12023e-16
2.69134e-17
0.968183
0.982772
0.984155
0.976212
0.80229
0.722946
0.878193
0.996324
0.998734
0.998734
0.998679
0.998088
0.996203
0.993469
0.990787
0.98707
0.983398
0.978318
0.919369
0.984831
0.984506
0.96586
0.93058
0.957341
0.957775
0.976804
0.998473
0.998734
0.998557
0.942988
0.917047
0.921736
0.928956
0.92869
0.918166
0.916618
0.949922
0.928024
0.984506
0.883271
0.615012
0.595403
0.901404
0.971348
0.986618
0.996996
0.787645
0.450416
0.264752
0.222676
0.246903
0.270053
0.277143
0.239897
0.230351
0.456252
0.802887
0.464628
0.452859
0.183929
0.120939
0.244043
0.340016
0.372578
0.228808
0.0623265
0.00506808
0.00144365
0.00115992
0.000768635
0.000531563
0.000510731
0.000487725
0.000471081
0.000542284
0.0955673
0.0141941
0.0121139
0.00326395
0.00213867
0.0020905
0.00269436
0.00201189
0.00188453
0.00201
0.00475331
0.00682541
0.00685764
0.0048574
0.00524691
0.000487802
0.000471085
0.000462335
0.000470897
0.000544275
0.00187488
0.0017194
0.00176133
0.00166965
0.00210762
0.00330426
0.00213518
0.00191588
0.00209853
0.00183597
0.0011102
0.00100277
0.00847686
0.00848038
0.0039603
0.000470909
0.000456965
0.000572204
0.00285727
0.00151348
0.00159543
0.00161909
0.00163286
0.00173755
0.00257938
0.00101457
0.00101282
0.00101112
0.00100835
0.00100835
0.0010053
0.00188986
0.00848038
0.00824856
0.00129682
0.000393616
0.000958095
0.00372245
0.00153204
0.00155712
0.00161176
0.00163958
0.00163804
0.00221256
0.00114319
0.00101434
0.00101283
0.00100913
0.00100719
0.0010052
0.00159465
0.00265614
0.00109808
0.00125705
0.000344415
0.000319118
0.00209216
0.00188503
0.0016217
0.00168946
0.00186907
0.00225751
0.00153489
0.00182269
0.00180196
0.00168067
0.0014578
0.0010788
0.00145075
0.00146241
0.00051823
0.000377435
0.000434693
0.000338168
0.000312466
0.000312466
0.00293393
0.0029187
0.00286758
0.00282386
0.00275027
0.000953867
0.00133308
0.00131197
0.00136363
0.00143841
0.00143653
0.00142144
0.000633188
0.000377236
0.000364961
0.000357572
0.000351242
0.000520166
0.000312466
0.00287525
0.00196362
0.00160541
0.00195276
0.000782268
0.000207095
0.000266358
0.000218472
0.000242314
0.000623045
0.00130807
0.00150417
0.00150417
0.000614201
0.000374367
0.000364553
0.000918933
0.000989651
0.00055482
0.000326219
4.08417e-05
1.77253e-05
1.76234e-05
1.75496e-05
1.73895e-05
1.72602e-05
1.73096e-05
1.81149e-05
2.21284e-05
6.37098e-05
0.00105005
0.00155188
0.00159283
0.000559889
0.000390453
0.00098965
0.000989646
0.000632995
5.32917e-05
0.0001147
2.40016e-05
1.77254e-05
1.76241e-05
1.75341e-05
1.73895e-05
1.76478e-05
3.08917e-05
0.00011558
9.00551e-05
0.000116108
0.00131003
0.001635
0.00163285
0.00111983
0.000313917
0.000497168
0.000213288
5.17415e-05
9.68454e-05
7.65414e-05
1.76193e-05
1.77324e-05
1.76639e-05
1.76061e-05
1.77945e-05
0.000110417
0.000205784
0.000181391
0.000128411
0.000154242
0.00162488
0.001635
0.000808556
0.000118151
0.000103079
0.000100994
5.17413e-05
5.90572e-05
8.46329e-05
1.84691e-05
1.7671e-05
1.77304e-05
1.76878e-05
9.1308e-05
0.000135648
0.000179898
0.000184908
0.000137089
0.000161035
0.00093496
0.00163113
0.000618305
0.000103079
0.000100994
0.000100994
5.17411e-05
5.17411e-05
6.45677e-05
6.34791e-05
4.81285e-05
1.84079e-05
2.03347e-05
0.000224788
0.000231099
0.000103927
0.000117305
0.000130996
0.00015044
0.000320907
0.00159935
0.00152883
0.000278622
0.000103079
0.000100994
0.000118014
5.17411e-05
8.19472e-05
0.000122053
0.000121149
4.15586e-05
7.79702e-05
0.000231865
0.000231862
9.76951e-05
9.10744e-05
0.000491074
0.000189691
0.000276177
0.00152716
0.00152906
0.00151883
0.000153722
0.000504372
0.00073369
0.000102677
8.07882e-05
0.000115671
0.000120104
1.87982e-05
0.000122158
0.00023069
0.000232001
0.000121705
9.02772e-05
0.000740093
0.00038447
0.000250976
0.00146966
0.00153129
0.00153331
0.000189811
0.000613379
0.000768069
0.000353796
7.49155e-05
8.32541e-05
6.05816e-05
7.54557e-06
1.96843e-05
0.000210436
0.000230704
0.000105273
9.02772e-05
0.000734596
0.000874421
0.000248054
0.00135399
0.00153413
0.001533
0.000206103
0.000648724
9.93162e-05
9.8098e-05
8.38722e-05
5.43237e-05
1.16288e-05
4.16351e-06
7.3197e-06
0.00014805
0.000226059
7.29344e-05
8.00402e-05
0.000761139
0.000963079
0.000253139
0.000738863
0.00153118
0.00153315
0.00092855
0.000647742
2.48694e-06
9.25513e-07
4.48954e-06
4.38696e-05
1.65158e-05
1.59379e-06
3.59296e-05
0.000198332
0.000114996
6.25346e-05
6.80111e-05
0.000962439
0.000973636
0.000258256
6.29419e-05
0.00130748
0.000399689
0.000796789
0.000194135
4.16876e-06
4.91583e-07
9.80413e-07
1.07153e-05
5.65889e-06
7.49516e-07
8.90413e-05
0.000202897
8.22807e-05
5.91476e-05
0.000520341
0.000990654
0.000974091
0.00018863
3.0461e-05
0.000122573
3.22243e-05
9.90137e-05
4.32616e-05
4.91583e-07
4.82699e-07
4.82699e-07
4.82699e-07
5.60622e-07
6.36953e-07
0.000166677
0.000202625
5.78902e-05
5.04001e-05
0.000923221
0.000993581
0.00090237
8.48239e-05
2.9177e-05
3.04558e-05
2.91287e-05
3.2177e-05
3.92529e-05
9.63756e-07
3.89956e-06
4.66118e-06
1.70601e-06
6.35363e-07
2.02008e-05
0.00033105
0.000155602
1.59276e-05
2.89733e-05
0.000985241
0.000993581
0.000758598
3.10517e-05
2.91568e-05
2.91288e-05
2.91291e-05
2.91291e-05
9.97994e-05
1.34029e-05
2.75961e-05
2.73839e-05
5.12781e-06
8.05672e-07
0.000281252
0.00033105
7.77901e-05
1.18103e-05
0.000229001
0.000934383
0.000993581
0.000585069
3.19769e-05
2.91796e-05
0.000104418
3.37082e-05
2.98953e-05
0.000313287
3.2258e-06
2.52414e-05
1.71106e-05
4.86319e-05
0.000373934
0.000420648
0.000206779
2.29188e-07
7.83447e-06
0.000636308
0.000129165
0.000570104
0.00024528
7.24351e-05
0.000717579
0.000776418
7.76828e-05
3.06601e-05
0.000315324
2.6307e-06
0.000163165
0.000427449
0.000437673
0.000436166
0.000198598
9.30169e-09
1.05323e-08
4.01526e-05
0.000646228
9.53469e-05
8.23436e-05
8.00345e-05
0.000116455
0.000783819
0.000783909
6.97934e-05
3.06601e-05
0.000316453
8.8124e-09
0.000116591
0.000316807
0.00029354
0.000110204
1.2761e-08
1.05708e-08
9.99581e-09
3.35272e-05
0.000645833
0.000123414
7.40697e-05
7.46938e-05
0.000428825
0.000783901
0.000784802
0.000263142
3.08779e-05
0.000319664
7.32811e-10
7.88927e-09
2.90845e-07
2.68134e-05
2.76126e-05
2.25227e-08
1.17853e-08
8.77839e-09
2.22528e-05
0.000598536
0.00044151
7.4205e-05
7.40769e-05
0.00078293
0.000785131
0.00078567
0.000785715
3.25894e-05
0.000319664
-4.53757e-12
-2.41797e-10
8.68154e-06
2.20923e-05
1.31739e-06
2.24991e-08
2.27589e-08
6.97273e-09
6.14506e-09
1.83759e-06
0.000584241
0.000596613
0.000225667
0.000784488
0.000786221
0.000786296
0.000788093
0.000400454
0.000184789
7.16839e-11
9.33747e-11
1.0892e-10
1.32365e-10
2.49275e-10
1.71477e-07
1.9435e-08
2.62803e-10
4.92743e-10
1.09997e-08
0.000240303
0.000611074
0.000622423
0.000557055
0.000586175
0.000581287
0.000473658
0.000443946
7.63682e-06
1.77103e-10
1.88085e-10
1.59161e-10
5.94896e-10
7.72214e-08
1.77739e-07
2.07837e-08
7.964e-11
9.98265e-11
7.76409e-12
9.43368e-10
8.21893e-06
0.000126772
2.2724e-05
3.53779e-05
3.21397e-05
2.6439e-05
0.000145409
3.22556e-07
1.3286e-10
2.28089e-10
1.93679e-10
1.35725e-08
1.54241e-07
1.76476e-07
7.66372e-11
7.85227e-11
6.78624e-11
-6.77206e-11
2.67175e-10
8.06052e-09
1.58228e-08
1.1419e-07
5.25605e-07
1.55606e-06
2.37724e-06
2.84428e-07
8.34556e-08
6.01649e-11
1.48863e-10
1.57935e-10
3.77857e-08
1.40573e-07
2.94247e-08
7.6149e-11
7.80191e-11
7.56197e-11
7.858e-11
9.45592e-11
1.65605e-10
2.09653e-09
1.44749e-08
7.98296e-08
3.09613e-07
4.35102e-07
8.52351e-08
7.03681e-08
2.32548e-11
3.12918e-11
1.15121e-09
4.14804e-08
5.36195e-08
8.10064e-11
7.85105e-11
1.19469e-10
7.33212e-11
1.3175e-10
1.70536e-10
1.90044e-10
4.98854e-10
3.00255e-09
1.71729e-08
5.13163e-08
7.85831e-08
6.65063e-08
7.03967e-08
7.8357e-12
8.24262e-12
1.66763e-09
1.14047e-08
7.88302e-09
1.7218e-09
1.7864e-10
2.62173e-10
3.81596e-11
5.2222e-11
7.30365e-11
2.14097e-10
4.83047e-10
7.06265e-10
2.8143e-09
1.11685e-08
2.14802e-08
5.93827e-08
7.11569e-08
1.81121e-12
6.85346e-12
1.94232e-11
2.31434e-12
2.4523e-10
4.57138e-09
5.14026e-10
3.30161e-10
2.7674e-11
4.62995e-11
5.81427e-11
8.03845e-11
9.53534e-10
4.15955e-09
4.15862e-09
5.64731e-09
1.24348e-08
5.16679e-08
4.39379e-08
3.36506e-13
9.46566e-13
1.87664e-12
2.28661e-12
3.40809e-12
1.8567e-10
5.66358e-10
3.03876e-10
1.79789e-11
3.08829e-11
4.12419e-11
4.36526e-11
6.49143e-11
1.35695e-08
5.48678e-08
6.44993e-08
6.41899e-08
7.998e-08
6.06188e-09
1.17682e-13
4.2229e-13
1.15748e-12
2.2019e-12
3.14209e-12
3.3122e-12
4.64504e-12
6.35393e-12
1.1278e-11
1.87456e-11
3.00412e-11
2.95545e-11
4.05241e-11
8.99169e-09
6.56337e-08
8.13161e-08
8.20225e-08
8.20212e-08
4.74481e-09
2.22034e-14
1.11451e-13
4.30538e-13
1.14452e-12
2.20048e-12
3.25404e-12
3.92688e-12
4.05414e-12
5.5477e-12
9.4567e-12
1.70058e-11
2.52289e-11
7.09303e-11
1.40426e-09
1.95854e-08
6.26097e-08
8.11787e-08
7.37556e-08
1.94877e-09
2.03467e-15
1.52501e-14
8.01272e-14
2.78976e-13
6.81604e-13
1.29759e-12
2.08978e-12
2.22473e-12
2.39247e-12
4.14563e-12
8.47238e-12
1.65614e-11
3.56809e-11
9.0442e-11
1.31258e-10
5.8008e-09
1.69086e-08
1.10025e-08
2.13457e-10
1.94799e-17
3.37237e-16
3.74995e-15
2.30665e-14
8.08313e-14
1.98914e-13
3.27997e-13
8.4531e-13
7.52985e-13
1.51393e-12
3.41269e-12
7.63964e-12
1.48056e-11
2.1598e-11
2.67777e-11
5.94566e-11
2.69268e-10
5.60852e-11
5.4941e-11
)
;

boundaryField
{
    leftWall
    {
        type            zeroGradient;
    }
    rightWall
    {
        type            zeroGradient;
    }
    lowerWall
    {
        type            zeroGradient;
    }
    atmosphere
    {
        type            inletOutlet;
        inletValue      uniform 0;
        value           nonuniform List<scalar> 
46
(
0
2.09139e-05
1.02579e-05
3.32545e-06
3.32543e-06
4.80654e-06
3.31644e-05
0
0
0
0
0
0
0
0
0
0
0
0
0
0
0
0
0
0
0
0
0
0
0
0
0
0
0
0
7.52985e-13
1.51393e-12
3.41269e-12
7.63964e-12
1.48056e-11
2.1598e-11
2.67777e-11
5.94566e-11
2.69268e-10
5.60852e-11
5.4941e-11
)
;
    }
    defaultFaces
    {
        type            empty;
    }
}


// ************************************************************************* //
