/*--------------------------------*- C++ -*----------------------------------*\
| =========                 |                                                 |
| \\      /  F ield         | OpenFOAM: The Open Source CFD Toolbox           |
|  \\    /   O peration     | Version:  2.3.0                                 |
|   \\  /    A nd           | Web:      www.OpenFOAM.org                      |
|    \\/     M anipulation  |                                                 |
\*---------------------------------------------------------------------------*/
FoamFile
{
    version     2.0;
    format      ascii;
    class       volScalarField;
    location    "2.1";
    object      p_rgh;
}
// * * * * * * * * * * * * * * * * * * * * * * * * * * * * * * * * * * * * * //

dimensions      [1 -1 -2 0 0 0 0];

internalField   nonuniform List<scalar> 
2268
(
699.42
697.355
702.356
691.456
672.681
680.804
679.405
675.341
680.262
687.588
697.255
708.042
720.598
733.804
745.138
754.005
759.359
763.489
767.116
766.277
764.886
768.128
772.616
699.126
692.086
698.731
686.775
668.014
678.387
678.428
673.654
679.004
687.039
696.961
707.617
720.197
733.899
745.722
754.421
758.992
762.659
767.299
766.511
763.834
766.493
771.968
696.703
690.493
700.729
676.949
664.272
674.46
676.079
670.501
676.71
686.03
696.446
706.861
719.544
734.207
747.236
755.406
759.647
762.542
769.1
767.429
762.219
762.503
770.114
684.377
695.132
697.953
655.156
651.731
677.174
672.474
665.212
672.885
684.421
695.682
705.971
718.913
734.335
747.957
757.562
761.724
764.719
770.415
767.832
759.092
756.928
767.217
674.686
691.592
691.671
651.436
635.151
682.871
667.74
657.792
667.322
681.671
694.173
704.741
717.945
733.766
747.896
757.811
762.987
766.83
768.899
761.8
756.311
754.276
765.395
666.239
686.259
685.667
684.185
640.131
682.011
661.959
647.555
651.869
677.44
691.704
702.566
716.216
732.146
746.979
757.853
764.083
762.758
764.818
761.002
759.233
755.753
764.809
660.208
684.486
682.362
689.911
668.451
671.25
659.176
599.896
622.616
673.225
687.906
699.136
713.527
729.61
745.288
757.982
764.645
760.602
767.078
766.736
764.997
758.527
760.859
660.689
678.133
677.011
694.67
703.363
615.744
584.805
571.411
616.876
671.065
681.755
693.941
709.303
725.865
743.549
758.458
766.911
770.184
776.416
772.334
758.398
733.117
751.025
863.188
857.555
847.318
841.665
839.747
824.355
805.211
811.833
837.662
853.327
842.773
820.661
803.588
792.868
784.281
779.62
779.574
786.074
795.552
861.635
853.134
838.337
836.313
841.466
827.453
800.045
803.631
832.984
850.087
840.851
822.836
803.817
791.903
782.337
775.788
775.782
780.466
793.54
864.069
848.543
831.907
830.797
850.227
831.178
794.808
796.593
828.03
844.699
836.369
822.471
813.1
793.297
781.731
776.487
775.341
776.751
799.336
868.59
851.031
829.526
817.806
837.11
832.843
791.662
791.61
824.698
840.151
831.146
817.589
810.445
807.414
796.295
784.998
775.903
776.183
803.805
868.838
850.107
825.923
772.48
785.787
815.824
791.086
793.945
826.63
839.067
823.451
801.042
792.019
793.96
798.655
797.369
785.779
776.356
803.647
865.716
856.863
824.316
721.02
674.462
794.976
800.23
808.737
835.905
842.033
819.477
795.452
788.12
785.918
785.292
795.611
801.492
796.394
803.742
848.378
851.861
821.022
709.209
640.148
727.218
820.42
833.532
849.163
847.229
828.918
799.755
783.954
782.019
781.808
783.06
803.899
807.312
802.85
829.922
853.303
826.243
721.982
629.455
671.882
842.769
856.332
856.113
850.997
829.18
813.762
788.641
778.396
789.649
799.472
803.768
808.351
789.394
680.499
683.741
698.359
700.975
702.542
662.134
593.898
602.914
645.405
651.604
658.175
663.77
676.382
718.307
743.849
759.566
767.689
777.592
797.824
787.684
658.851
714.874
751.171
708.395
700.908
664.556
597.459
568.165
588.819
591.263
470.928
332.593
299.946
317.137
434.055
604.379
694.693
747.334
769.641
759.108
762.578
748.383
636.865
561.303
619.102
730.172
348.783
354.313
265.476
141.55
56.5878
31.9333
26.9479
18.6049
10.5346
5.66924
12.9815
22.6436
96.7756
251.351
464.883
555.197
422.787
361.143
226.199
79.1177
27.8805
15.4654
322.566
21.9286
5.80247
2.6573
1.95012
1.28402
0.780062
0.890057
1.87358
2.87133
3.05879
2.69721
2.59643
2.62909
7.44855
29.2712
53.7535
27.8527
13.7902
6.84881
4.64253
4.43165
4.88383
4.54163
4.16482
2.46781
1.56012
0.910588
0.551307
0.455873
0.646897
1.52458
3.15416
3.40755
3.09073
2.67883
2.9905
5.46952
9.10102
8.85113
8.11122
8.78479
4.95515
3.81305
3.9467
4.27567
4.27346
2.28554
1.50521
1.0586
0.633763
0.321149
0.239771
0.359948
0.549486
1.23628
2.91324
3.26843
3.2801
3.23176
3.42681
6.52294
10.4932
7.24259
8.30665
4.31453
3.5458
3.61352
4.99598
6.10802
1.31652
0.738576
0.562571
0.336893
0.137378
0.0662394
0.141929
0.273507
0.417592
0.715245
2.7926
3.56969
3.91791
3.21639
3.24187
3.12134
4.3171
6.09834
7.77435
3.81574
4.01445
5.02557
6.65673
1.07081
0.488421
0.359626
0.210882
0.0769701
0.00182027
0.0204274
0.106005
0.243391
0.414639
0.731008
3.3141
4.36211
4.90462
3.64378
2.83896
2.75314
2.98208
9.51475
9.33332
4.4874
5.11686
7.24395
1.11731
0.696499
0.475201
0.315399
0.18212
0.0828129
0.0498263
0.090633
0.203138
0.359259
0.523868
0.676617
3.29058
4.98946
5.36108
2.8224
2.47775
2.50559
6.48426
11.5597
5.37668
6.05964
7.55882
1.21722
0.985778
0.806514
0.624821
0.39604
0.280983
0.219373
0.223632
0.30072
0.425676
0.566565
0.679752
0.794126
3.07703
5.34871
5.39069
2.21984
2.32154
3.16863
11.7941
12.3358
5.78405
6.08315
1.28125
1.1534
1.0376
0.86291
0.631387
0.50827
0.450776
0.445718
0.48758
0.570642
0.670225
0.758357
0.884429
0.919719
5.46209
5.41358
2.05849
3.1393
10.846
11.5357
12.1529
3.07343
3.43533
1.54744
1.25337
1.10687
0.944323
0.802244
0.76366
0.830506
0.865161
0.854841
0.849685
0.80539
0.859423
0.929924
0.970469
5.70013
4.65787
8.07875
12.2104
11.6342
11.195
7.94192
0.304491
1.453
1.79111
1.76611
1.21869
1.0815
1.10883
1.79069
2.18535
2.17146
2.18726
2.23675
1.57523
0.987509
1.01527
1.05889
5.94131
2.19637
6.40286
12.7236
12.1163
5.76574
0.0187484
-0.402831
-0.766143
1.71448
1.47873
1.57222
2.07008
2.45596
2.44553
2.43693
2.40338
2.43622
2.47227
2.5076
1.28988
1.11871
2.17345
3.40735
2.24582
3.05814
3.84754
3.58668
0.578421
0.149934
-0.291103
-1.1565
1.29933
1.33267
1.44461
1.50278
2.39119
2.61985
2.60738
2.62295
2.66601
2.68293
2.49513
1.41237
3.29102
7.21476
2.16453
1.18716
1.47809
1.31877
1.30657
1.35485
0.541434
0.134008
-0.673868
1.28972
1.3173
1.29742
1.22528
1.18013
1.95802
2.78044
2.84417
2.8697
2.67628
1.38852
2.15747
7.6713
7.42719
2.18996
0.731935
0.694788
1.30798
1.67836
1.75265
1.73775
0.785434
0.758379
1.2664
1.30489
1.30845
1.18354
1.14022
1.16699
2.12503
2.40411
2.22836
1.44049
1.40698
7.8853
7.85417
5.47316
0.811893
0.659525
0.62465
1.35016
1.3176
1.08516
2.12035
1.96839
1.68376
1.24172
1.36117
1.52079
1.1268
1.11319
1.17474
1.25646
1.49207
1.58933
5.80871
9.94405
9.75248
5.36818
0.635306
0.641345
0.65446
0.638143
0.747507
0.577611
0.452987
0.956049
2.11732
1.84236
1.22845
2.52207
2.98626
1.08669
1.11465
1.18729
1.29053
4.45054
9.52615
9.49388
8.96376
2.97225
0.629123
0.620933
0.636066
0.660266
0.661537
0.625423
0.574567
0.479283
0.304929
0.283925
1.03221
1.22839
2.09898
2.93392
1.12677
1.12511
1.325
8.24164
9.58805
9.35905
5.55468
0.647479
0.624929
0.606208
0.607071
0.619666
0.639379
0.649784
0.627726
0.584261
0.50752
0.372523
0.179972
-0.0340769
1.22819
1.4654
3.84322
1.14214
1.24961
7.42546
9.03436
7.90138
0.575591
0.565356
0.578305
0.588889
0.586116
0.584466
0.590196
0.599919
0.607249
0.596486
0.564689
0.506409
0.40713
0.260211
0.0837784
1.25258
2.49082
4.47509
1.14968
2.48667
7.99868
6.74448
0.477878
0.499941
0.526799
0.571103
0.596851
0.553382
0.547165
0.544698
0.546222
0.548436
0.540329
0.51587
0.473208
0.393586
0.276568
0.134883
2.53719
3.42409
4.42016
1.58477
8.02172
8.09346
1.91636
0.404754
0.41076
0.562163
1.16008
1.36715
0.909214
0.574493
0.489491
0.48357
0.481337
0.471266
0.446087
0.402515
0.335751
0.24294
0.128304
11.5483
8.80469
2.67022
1.65959
7.92628
6.02557
0.307881
0.286605
0.361007
1.19427
1.3251
1.35491
1.38227
1.21668
0.578456
0.417939
0.414706
0.402103
0.376666
0.336333
0.27804
0.199672
0.102041
11.7282
7.19927
2.74257
5.71995
7.47927
0.763601
0.19697
0.148457
0.63106
1.13635
1.19295
1.24441
1.2754
1.08761
0.64885
0.355087
0.352486
0.338004
0.312293
0.2748
0.223477
0.156447
0.0734313
11.5687
2.93351
3.2389
6.87272
6.27251
0.104384
0.0664546
0.0606824
0.901557
0.960783
1.03514
1.1134
0.522991
0.215417
0.284207
0.313638
0.297189
0.28185
0.256937
0.223104
0.178926
0.122594
0.0528395
10.9943
2.25441
5.721
6.91325
4.81285
0.00319137
-0.0518867
-0.110223
0.592278
0.786731
0.854699
0.845975
0.0444657
0.13783
0.209333
0.264882
0.248937
0.233529
0.211993
0.181847
0.14536
0.100205
0.0447352
12.1807
2.04436
4.70416
7.01187
1.72542
-0.0748374
-0.134806
-0.233994
-0.15895
0.0243734
0.442394
0.624976
-0.0567981
0.0586761
0.143432
0.190735
0.201658
0.212864
0.223039
0.156688
0.119384
0.0846738
0.0429356
14.1097
1.8452
0.972547
6.64401
0.0628932
-0.120415
-0.176225
-0.286256
-0.433425
-0.494047
-0.475477
-0.0824087
0.114402
0.0204226
0.0805246
0.12942
0.148644
0.198954
0.21454
0.177598
0.0989794
0.0702687
0.0393805
14.5995
10.5679
0.601495
0.549444
-0.0748388
-0.126085
-0.181808
-0.277959
-0.405191
-0.477112
-0.482584
-0.402853
0.146526
0.238913
0.0445152
0.0634502
0.0858419
0.10614
0.173705
0.169647
0.0981272
0.0542396
0.0320713
15.0352
14.8921
0.890776
0.00670074
-0.053341
-0.094312
-0.159102
-0.236417
-0.3367
-0.408724
-0.431867
-0.185842
0.125811
0.251733
0.00399113
-0.0116865
0.00797975
0.0216341
0.0877604
0.131475
0.0954977
0.0354449
0.0213885
15.2045
15.2295
12.517
0.269913
0.00338973
-0.0565584
-0.128813
-0.186383
-0.254926
-0.314314
-0.341838
0.0653066
0.1491
0.055318
-0.0797797
-0.0826035
-0.0825386
-0.0634129
-0.0146192
0.0870044
0.0701569
0.0144139
0.00800382
2.14344
15.3282
14.8142
12.6552
8.36059
3.84424
-0.0321002
-0.147834
-0.184316
-0.219992
-0.043503
0.156214
0.201641
-0.125755
-0.116615
-0.134289
-0.155271
-0.148417
-0.0837542
0.044349
0.0326354
-0.00713531
-0.0060013
1.20906
3.05506
14.2814
14.0434
13.6352
13.4522
3.78798
-0.117174
-0.130447
-0.140342
0.215704
0.250125
0.0134259
-0.127369
-0.164488
-0.181835
-0.213857
-0.202726
-0.106128
0.0123262
-0.0128502
-0.0255756
-0.0178437
1.0764
0.0437345
2.58063
13.968
13.8177
13.7133
6.51962
-0.0711974
-0.0769131
0.0786325
0.329225
0.339281
-0.0324372
-0.0820921
-0.152402
-0.173726
-0.201285
-0.183601
-0.0560169
-0.023652
-0.0524855
-0.034512
-0.0251706
1.09013
-0.138707
-0.215866
5.28489
14.0889
13.2484
3.29489
-0.0213263
-0.0163922
0.198577
0.386212
0.0660864
0.00102561
-0.0164157
-0.111201
-0.125392
-0.0962566
-0.0726213
-0.0276684
-0.0569247
-0.051214
-0.0367634
-0.0281258
0.944767
-0.245962
-0.308783
-0.185143
4.72853
2.14902
0.374584
0.0486303
0.107653
0.394281
0.363313
0.0369052
0.0325589
0.0254603
-0.0563042
-0.0600517
-0.0174269
-0.00940699
-0.0550003
-0.0579839
-0.0438532
-0.0343993
-0.0277564
0.0160404
-0.24845
-0.261902
-0.194453
-0.0388479
0.0173877
0.0327942
0.0773113
0.392896
0.419843
0.113364
0.0283939
0.0371827
0.0375902
-0.0239538
-0.0350196
-0.00315305
-0.039721
-0.0490293
-0.0421991
-0.0358703
-0.0302762
-0.0255952
0.0357729
-0.17107
-0.167909
-0.136654
-0.0769733
-0.00143577
0.0381937
0.0930681
0.440822
0.437565
0.0680613
0.0220616
0.0153113
0.00305486
-0.0153811
-0.0246451
-0.0328607
-0.0351205
-0.0348491
-0.032847
-0.0297174
-0.0262099
-0.022848
-0.0858653
-0.0435288
-0.0882519
-0.082377
-0.0562482
0.000509063
0.0395775
0.444957
0.449126
0.100867
0.0201635
0.0109351
0.000632384
-0.0112925
-0.0196311
-0.024
-0.0287564
-0.0300884
-0.0297083
-0.0281522
-0.0257359
-0.0229761
-0.0202334
-0.0775638
0.0537829
-0.0466388
-0.0474076
-0.0342203
-0.00875287
0.133993
0.487191
0.18299
0.0159387
0.00776002
-0.00350118
-0.0144957
-0.0231845
-0.0298984
-0.0317797
-0.0328615
-0.0315581
-0.0291302
-0.0263597
-0.0234415
-0.0205939
-0.0179632
-0.0767323
0.0383519
0.00164901
-0.0186631
-0.0142665
0.00832548
0.126474
0.0308082
-0.00382481
-0.00107459
-0.012526
-0.0241589
-0.0334411
-0.0400682
-0.0476034
-0.0458022
-0.0419237
-0.0366353
-0.0309554
-0.0259856
-0.0219081
-0.0185656
-0.0158196
751.302
742.394
738.977
756.993
759.392
768.3
782.149
805.888
665.487
775.385
829.387
851.942
4.20762
5.47467
171.097
349.705
4.37614
4.44374
4.13091
3.56421
4.27584
4.18884
4.06072
3.98801
6.37202
4.42382
4.13112
3.95054
6.80362
5.46476
4.22014
4.06007
7.07571
6.807
6.51347
6.44895
6.80173
6.52831
6.32007
6.46414
6.11634
5.62415
5.58401
5.63744
4.7244
4.62748
4.59604
3.02161
3.99171
3.12763
-1.13182
-1.36926
-1.2201
-0.105057
-1.40553
-1.67262
-1.27361
-1.57847
-1.6187
-1.52975
0.968675
0.202741
-0.945121
-1.03949
1.48728
1.37314
1.28348
1.22806
1.6833
1.60118
1.52921
1.48155
0.809457
-0.0109823
-0.138952
1.62928
-0.173366
-0.245071
-0.299605
-0.307198
-0.0385417
-0.105552
-0.170961
-0.234488
0.0363089
-0.0313289
-0.0960474
-0.155536
0.04337
-0.0135411
-0.0763524
-0.1474
0.0181044
-0.038071
-0.094224
-0.148054
0.000245154
-0.0508434
-0.103249
-0.154038
-0.0102536
-0.0545915
-0.0992325
-0.143388
-0.00553743
-0.039632
-0.0698594
-0.10931
0.00635502
-0.0185041
-0.0461706
-0.0753477
0.0136772
-0.00331609
-0.020866
-0.0392836
0.0138777
0.00207417
-0.00984678
-0.0219949
0.00933597
0.00150882
-0.00637781
-0.0143281
0.00135512
-0.00316636
-0.00784121
-0.0125918
-0.00790658
-0.00967117
-0.0117715
-0.0140831
-0.0161848
-0.0158569
-0.0160259
-0.0165404
-0.021746
-0.0202185
-0.019208
-0.0185786
-0.024261
-0.0222981
-0.0207637
-0.0195573
-0.0242873
-0.022387
-0.0207776
-0.0193992
-0.0227886
-0.0211554
-0.0196892
-0.0183612
-0.0206091
-0.0192482
-0.0179751
-0.0167781
-0.01833
-0.0171547
-0.0160352
-0.0149663
-0.0162064
-0.0151348
-0.0141199
-0.0131568
-0.0141352
-0.0131395
-0.0122183
-0.0113627
831.311
877.131
844.948
780.134
673.389
680.119
818.137
893.884
877.895
850.813
825.241
807.839
800.394
797.665
795.182
795.98
802.764
807.826
773.501
854.73
870.721
833.961
776.527
788.965
823.093
870.411
887.915
865.035
828.232
758.491
723.499
725.262
730.068
727.567
725.932
739.65
781.926
778.068
870.277
794.275
564.962
542.348
780.285
845.542
874.507
876.197
681.862
386.453
228.238
193.378
214.465
233.428
237.936
206.256
199.682
397.733
700.327
443.039
439.405
188.304
124.738
239.021
332.349
364.39
224.518
63.0622
8.74457
5.21668
5.08017
4.90289
4.4193
3.92224
3.41669
3.11902
5.04665
99.7936
14.4481
12.7674
5.96264
4.57137
4.08179
5.42603
5.17941
4.87757
4.80632
7.59066
9.60753
9.53879
7.83607
8.1492
3.75271
2.99702
2.34958
2.95171
4.79647
3.81051
3.09979
2.93336
2.4272
3.1495
5.59903
4.89574
4.61825
4.66998
4.20312
3.22767
3.0769
11.6876
12.1402
7.62542
2.62287
1.8212
2.10897
5.97294
3.72639
3.47321
2.74863
2.04535
2.31062
4.3864
3.14243
3.25807
3.23589
3.21331
3.14861
3.06621
4.07404
13.0434
13.1777
3.50875
1.78487
2.55685
6.86175
3.82061
3.46918
2.88464
2.28294
2.39477
3.92916
3.04004
3.02683
3.09283
3.12174
3.09647
3.06091
3.84484
5.31616
3.37
3.65754
2.16641
2.10475
4.88357
4.5383
3.77139
3.33726
3.25155
3.83745
2.99949
3.77382
3.95588
3.90655
3.6708
3.12961
3.71829
3.74514
2.33679
2.25338
2.43676
2.28298
2.30131
2.46983
6.1389
5.73533
5.25914
5.00036
4.86905
1.96951
2.74426
2.89273
3.14308
3.43042
3.57574
3.66304
2.40077
2.0416
2.13756
2.24171
2.31404
2.73103
2.63237
5.2413
3.30805
2.52589
3.2773
1.32831
0.454174
0.696104
0.772822
0.971996
1.80339
3.18957
3.71132
3.84584
2.36132
2.03223
2.13822
3.27155
3.61216
3.11936
-0.125937
-0.580439
-0.56708
-0.440691
-0.277215
-0.119276
0.0308601
0.206862
0.38259
0.54129
0.741533
2.75152
3.86765
4.0927
2.2736
2.07363
3.33132
3.56192
3.15526
-1.11453
-0.62355
-0.62052
-0.534711
-0.438435
-0.325904
-0.179397
0.011794
0.239284
0.589305
0.671173
0.813551
3.34627
4.1264
4.29266
3.41555
1.8866
2.42245
2.0416
-1.35516
-0.775151
-0.557447
-0.623685
-0.583634
-0.5122
-0.390524
-0.191906
0.235256
0.6474
0.757532
0.756621
0.878229
4.11148
4.28874
2.69407
1.34131
1.42038
1.54451
-1.2975
-0.868557
-0.566879
-0.672045
-0.679959
-0.642424
-0.555166
-0.199286
0.156138
0.484903
0.679462
0.716082
0.855475
2.69149
4.40949
2.27141
1.21098
1.27734
1.36684
-0.979935
-0.808984
-0.625103
-0.589717
-0.65378
-0.716063
-0.643812
0.00916561
0.288061
0.232515
0.45996
0.662683
0.825306
1.31906
4.49803
4.47467
1.57486
1.17249
1.24479
-0.576773
-0.704438
-0.569102
-0.44434
-0.468457
-0.675829
-0.527052
0.00714263
0.257959
0.170272
0.348268
1.53781
0.908295
1.19805
4.43175
4.55106
4.62563
1.16487
2.11868
1.20896
-0.466828
-0.510241
-0.414012
-0.416432
-0.684076
-0.357976
0.0668424
0.288235
0.217113
0.312127
2.19807
1.38069
1.07565
4.35513
4.60068
4.66006
1.10621
2.26579
1.53078
0.352696
-0.425442
-0.404721
-0.473958
-0.606342
-0.514994
0.136431
0.36497
0.189246
0.294222
2.20566
2.6793
0.963234
4.06062
4.63507
4.65706
1.01354
2.25733
-0.176184
-0.231745
-0.281391
-0.367016
-0.484566
-0.474151
-0.394537
0.116701
0.463183
0.139396
0.266037
2.31727
2.92031
0.847852
2.26132
4.65471
4.6545
2.96951
2.16669
-0.334525
-0.409678
-0.410799
-0.275761
-0.327258
-0.315229
-0.129663
0.441987
0.255067
0.167392
0.248795
2.96881
2.96092
0.755324
0.175311
4.02859
1.26528
2.52631
0.7507
-0.250732
-0.332995
-0.336429
-0.264351
-0.211989
-0.143127
0.220276
0.628043
0.266988
0.219183
1.68693
3.10578
2.98016
0.474565
0.0149985
0.377091
0.110579
0.355667
0.236428
-0.234683
-0.297757
-0.288556
-0.217584
-0.114628
-0.00791708
0.621828
0.76132
0.275283
0.236564
3.03996
3.14245
2.77152
0.0885118
-0.00292757
0.0743666
0.101701
0.139127
0.193533
-0.225832
-0.274719
-0.253092
-0.17459
-0.0519924
0.139029
1.27853
0.686002
0.185802
0.186602
3.30135
3.1521
2.30925
-0.104541
0.00515948
0.0819591
0.1144
0.125707
0.373364
-0.182784
-0.18405
-0.158563
-0.140649
-0.0207265
1.09708
1.34715
0.458542
0.192265
0.884465
3.14648
3.18426
1.73643
-0.098175
0.0293868
0.376361
0.139565
0.119678
1.10638
-0.210104
-0.172379
-0.16959
0.0380875
1.35821
1.64956
0.9349
0.182959
0.16719
2.35583
0.254995
1.74485
0.569407
0.0287646
2.52612
2.83504
0.281132
0.0976957
1.12515
-0.175002
0.38355
1.40223
1.53751
1.65309
0.855398
0.15242
0.146127
0.253693
2.43034
0.157197
0.0380221
0.0163156
0.159652
2.77176
2.88555
0.210552
0.0596411
1.14557
-0.124338
0.287438
1.07763
1.05454
0.425366
0.0651404
0.107377
0.0989207
0.191416
2.49263
0.336048
0.106391
0.0583868
1.36571
2.76783
2.91562
0.928708
0.0241631
1.1757
-0.0700794
-0.098775
-0.0981221
0.0436058
0.100662
0.039695
0.0640317
0.0534069
0.109247
2.35107
1.69169
0.203058
0.112829
2.83903
2.81778
2.92991
2.9971
0.000671468
1.20052
-0.0412316
-0.0573481
-0.0213095
0.0510156
-0.00729183
0.015747
0.0291443
0.0177209
-0.0218879
-0.0882986
2.32658
2.40185
0.772237
2.94215
2.89629
2.92532
2.97866
1.49819
0.669203
-0.026698
-0.0367902
-0.0378564
-0.0302307
-0.0150133
0.000759878
0.00620802
-0.0065318
-0.047567
-0.113604
0.861104
2.43504
2.44768
2.05112
2.09312
2.0387
1.6413
1.70741
-0.0746791
-0.0200004
-0.0260931
-0.0269659
-0.0231729
-0.0152399
-0.00734994
-0.00650625
-0.018737
-0.0542921
-0.117049
-0.193349
-0.223746
0.261977
-0.262341
-0.294776
-0.3184
-0.243187
0.451805
-0.114816
-0.0178354
-0.0209956
-0.0213101
-0.0190269
-0.0144036
-0.0107203
-0.0121563
-0.0221436
-0.0478845
-0.0951259
-0.159789
-0.225349
-0.282069
-0.339614
-0.384375
-0.358283
-0.257805
-0.165129
-0.128029
-0.0176328
-0.0185854
-0.0182231
-0.0163869
-0.0135124
-0.0122108
-0.0136157
-0.0210572
-0.0378511
-0.0672377
-0.108183
-0.152463
-0.193254
-0.234107
-0.252728
-0.22869
-0.180722
-0.148084
-0.134909
-0.0179282
-0.0173148
-0.0163048
-0.0145729
-0.0127479
-0.0118139
-0.0128364
-0.0178697
-0.0281992
-0.0447152
-0.0662315
-0.0887659
-0.108507
-0.123498
-0.127198
-0.12127
-0.12147
-0.129132
-0.129318
-0.0179519
-0.0163522
-0.0148251
-0.013161
-0.0115827
-0.0105012
-0.0108862
-0.0137991
-0.0197014
-0.0283553
-0.038281
-0.0468911
-0.0526613
-0.0543049
-0.0541694
-0.0611338
-0.082849
-0.106033
-0.110744
-0.0174208
-0.0153097
-0.0134468
-0.0116814
-0.0100379
-0.00875037
-0.00844859
-0.00964473
-0.0125373
-0.0167586
-0.021186
-0.0243395
-0.024596
-0.0228598
-0.023325
-0.0336804
-0.0566737
-0.0813994
-0.0864322
-0.0163591
-0.014074
-0.0120378
-0.0101416
-0.00837726
-0.00688351
-0.00597069
-0.00594092
-0.00686479
-0.00853444
-0.0103699
-0.0114249
-0.0109431
-0.00969319
-0.0109403
-0.0198243
-0.0368252
-0.0572624
-0.0629267
-0.0149117
-0.0126624
-0.0106054
-0.00865929
-0.00680063
-0.00511147
-0.00376992
-0.00294691
-0.00270853
-0.00298331
-0.00354141
-0.00388399
-0.00366307
-0.00334384
-0.00474925
-0.0110326
-0.0217788
-0.037466
-0.0421492
-0.0132731
-0.0111648
-0.00920409
-0.00731866
-0.00546532
-0.0036798
-0.0020722
-0.000785982
3.21283e-05
0.000362685
0.000329746
0.000191253
0.000151453
-3.58248e-05
-0.00135575
-0.00527583
-0.0119547
-0.0217596
-0.02539
-0.0116309
-0.00971486
-0.00792808
-0.00620385
-0.00449219
-0.00278258
-0.00111104
0.000391752
0.00136899
0.00180308
0.00180125
0.00167791
0.00154456
0.00130069
0.000469748
-0.00174154
-0.00553149
-0.0105724
-0.012795
-0.0100237
-0.00836624
-0.00683085
-0.00535225
-0.00389327
-0.00244416
-0.00101279
0.000356694
0.00137025
0.00175531
0.00184751
0.00170873
0.00145721
0.00110788
0.000507735
-0.000569627
-0.00201597
-0.0031559
-0.00355246
)
;

boundaryField
{
    leftWall
    {
        type            fixedFluxPressure;
        gradient        uniform 0;
        value           nonuniform List<scalar> 
50
(
699.42
699.126
696.703
684.377
674.686
666.239
660.208
660.689
680.499
708.395
348.783
21.9286
4.16482
2.28554
1.31652
1.07081
1.11731
1.21722
1.28125
1.54744
1.79111
1.71448
1.29933
1.28972
1.2664
1.24172
1.22845
1.22839
1.22819
1.25258
2.53719
11.5483
11.7282
11.5687
10.9943
12.1807
14.1097
14.5995
15.0352
15.2045
2.14344
1.20906
1.0764
1.09013
0.944767
0.0160404
0.0357729
-0.0858653
-0.0775638
-0.0767323
)
;
    }
    rightWall
    {
        type            fixedFluxPressure;
        gradient        uniform 0;
        value           nonuniform List<scalar> 
50
(
795.552
793.54
799.336
803.805
803.647
803.742
802.85
789.394
773.501
778.068
700.327
99.7936
4.79647
5.97294
6.86175
4.88357
2.46983
2.63237
3.11936
3.15526
2.0416
1.54451
1.36684
1.24479
2.11868
2.26579
2.25733
2.16669
0.7507
0.236428
0.193533
0.373364
1.10638
1.12515
1.14557
1.1757
1.20052
0.669203
-0.0746791
-0.114816
-0.128029
-0.134909
-0.129318
-0.110744
-0.0864322
-0.0629267
-0.0421492
-0.02539
-0.012795
-0.00355246
)
;
    }
    lowerWall
    {
        type            fixedFluxPressure;
        gradient        uniform 0;
        value           nonuniform List<scalar> 
62
(
699.42
697.355
702.356
691.456
672.681
680.804
679.405
675.341
680.262
687.588
697.255
708.042
720.598
733.804
745.138
754.005
759.359
763.489
767.116
766.277
764.886
768.128
772.616
772.616
771.968
770.114
767.217
765.395
764.809
760.859
751.025
751.302
742.394
738.977
756.993
863.188
861.635
864.069
868.59
868.838
865.716
848.378
829.922
863.188
857.555
847.318
841.665
839.747
824.355
805.211
811.833
837.662
853.327
842.773
820.661
803.588
792.868
784.281
779.62
779.574
786.074
795.552
)
;
    }
    atmosphere
    {
        type            totalPressure;
        rho             rho;
        psi             none;
        gamma           1;
        p0              uniform 0;
        value           nonuniform List<scalar> 
46
(
-0.066663
0
0
0
0
0
0
-0.00306559
-0.00729098
-0.0136599
-0.0253124
-0.0383783
-0.0459736
-0.0506628
-0.0609705
-0.0557828
-0.048288
-0.0404679
-0.0324716
-0.0260897
-0.0212727
-0.0175724
-0.0147196
-0.0130602
-0.0120977
-0.0112265
-0.0104292
-0.00921008
-0.00772963
-0.00636839
-0.00506349
-0.00378069
-0.00253216
-0.00136806
-0.000412589
0
0
0
0
0
0
0
0
0
0
0
)
;
    }
    defaultFaces
    {
        type            empty;
    }
}


// ************************************************************************* //
