/*--------------------------------*- C++ -*----------------------------------*\
| =========                 |                                                 |
| \\      /  F ield         | OpenFOAM: The Open Source CFD Toolbox           |
|  \\    /   O peration     | Version:  2.3.0                                 |
|   \\  /    A nd           | Web:      www.OpenFOAM.org                      |
|    \\/     M anipulation  |                                                 |
\*---------------------------------------------------------------------------*/
FoamFile
{
    version     2.0;
    format      ascii;
    class       volVectorField;
    location    "2.1";
    object      U;
}
// * * * * * * * * * * * * * * * * * * * * * * * * * * * * * * * * * * * * * //

dimensions      [0 1 -1 0 0 0 0];

internalField   nonuniform List<vector> 
2268
(
(0.0232738 -0.0160994 0)
(0.0285358 -0.00985106 0)
(0.00526065 -0.00447363 0)
(0.0998578 -0.0055608 0)
(0.137604 0.0315056 0)
(-0.0220481 0.0229603 0)
(-0.0833875 0.00548453 0)
(-0.0870004 0.00542244 0)
(-0.0908871 -0.00791054 0)
(-0.0544129 -0.00672088 0)
(-0.0509974 -0.00146898 0)
(-0.048587 -0.000340318 0)
(-0.0347637 -0.00446406 0)
(-0.00622094 -0.00767731 0)
(0.0216746 -0.00540457 0)
(0.014272 0.00680797 0)
(-0.0455078 0.0145276 0)
(-0.0919872 0.00757279 0)
(-0.103308 -0.00146558 0)
(-0.109638 -0.00107929 0)
(-0.115072 -0.0028217 0)
(-0.0896497 -0.0118386 0)
(-0.0351297 -0.0157877 0)
(-0.0206702 -0.0152832 0)
(-0.0739606 0.0272355 0)
(-0.0619522 -0.0315111 0)
(0.0302016 -0.0754502 0)
(0.160622 0.0465884 0)
(0.00615584 0.0718148 0)
(-0.105207 0.0248867 0)
(-0.0877914 0.0101608 0)
(-0.0878868 -0.016327 0)
(-0.0643493 -0.00999714 0)
(-0.0632584 -0.00330956 0)
(-0.0535027 -0.00532223 0)
(-0.0355895 -0.0160432 0)
(-0.012105 -0.019902 0)
(0.00948142 -0.00317169 0)
(-0.00306632 0.0235479 0)
(-0.0544796 0.0330356 0)
(-0.0668725 0.0200309 0)
(-0.0614435 0.00237394 0)
(-0.0925635 0.00620454 0)
(-0.110672 0.000243998 0)
(-0.101359 -0.0247196 0)
(-0.0436926 -0.04618 0)
(-0.0824399 0.0293774 0)
(-0.117659 0.0297717 0)
(-0.0488744 -0.0758711 0)
(-0.0170529 -0.120392 0)
(0.115505 0.0561583 0)
(0.0197621 0.118697 0)
(-0.103933 0.0488656 0)
(-0.0776722 0.0113772 0)
(-0.0863447 -0.024375 0)
(-0.0547779 -0.0154522 0)
(-0.0447092 -0.00793997 0)
(-0.0247046 -0.0115267 0)
(0.00400852 -0.0237868 0)
(0.0185741 -0.0288173 0)
(0.0229038 -0.00715487 0)
(0.0242732 0.0336627 0)
(-0.000876876 0.0449463 0)
(0.00702171 0.0199814 0)
(-0.00215559 0.00643061 0)
(-0.0625179 0.0238735 0)
(-0.10761 0.0109622 0)
(-0.107767 -0.041594 0)
(-0.0374198 -0.0895528 0)
(-0.0983047 0.0745822 0)
(-0.123185 0.027591 0)
(-0.076536 -0.105894 0)
(-0.0736895 -0.146827 0)
(0.047692 0.0578683 0)
(0.0128483 0.156036 0)
(-0.107775 0.0714576 0)
(-0.0773388 0.0125332 0)
(-0.0854839 -0.0360404 0)
(-0.0373349 -0.0280657 0)
(-0.00858158 -0.0184304 0)
(0.0278118 -0.0240974 0)
(0.0628139 -0.0328424 0)
(0.0819376 -0.0283729 0)
(0.06162 -0.00681703 0)
(0.0599922 0.0304955 0)
(0.065707 0.0454874 0)
(0.0764647 0.0293836 0)
(0.0366792 0.0296011 0)
(-0.0427172 0.0506636 0)
(-0.0907683 0.0212059 0)
(-0.0731083 -0.0618443 0)
(0.00179549 -0.127887 0)
(-0.0872011 0.118788 0)
(-0.107609 0.0323942 0)
(-0.097484 -0.120784 0)
(-0.118517 -0.170106 0)
(0.00222201 0.0346977 0)
(0.00187873 0.181718 0)
(-0.104469 0.089914 0)
(-0.0588612 0.0159245 0)
(-0.0664844 -0.0519325 0)
(-0.0158309 -0.0528491 0)
(0.0335982 -0.0402733 0)
(0.0842829 -0.0421136 0)
(0.122294 -0.0466907 0)
(0.140163 -0.0313823 0)
(0.121438 0.00156784 0)
(0.0952171 0.0289748 0)
(0.0979133 0.037199 0)
(0.104285 0.038712 0)
(0.04988 0.0568695 0)
(-0.028425 0.0761344 0)
(-0.0485131 0.0255564 0)
(0.00280777 -0.0716755 0)
(0.0509246 -0.129155 0)
(-0.0608121 0.154123 0)
(-0.0707903 0.0470564 0)
(-0.0776255 -0.116598 0)
(-0.134842 -0.183161 0)
(-0.0404348 0.00675998 0)
(0.0089914 0.198088 0)
(-0.0719122 0.0890382 0)
(0.00108823 0.00349361 0)
(0.00140936 -0.0625027 0)
(0.0429428 -0.0796492 0)
(0.0903319 -0.0680373 0)
(0.140706 -0.0627607 0)
(0.175404 -0.0574509 0)
(0.183539 -0.0324288 0)
(0.163936 0.0123562 0)
(0.125968 0.0396063 0)
(0.103839 0.0406032 0)
(0.0972394 0.0560414 0)
(0.0427843 0.0840237 0)
(-0.0128396 0.0899625 0)
(0.0245288 0.00696718 0)
(0.0790511 -0.0867155 0)
(0.0798886 -0.0978204 0)
(-0.0222764 0.176706 0)
(-0.021928 0.0558355 0)
(-0.0213847 -0.0991054 0)
(-0.103448 -0.1758 0)
(-0.0936907 -0.0497274 0)
(0.0563413 0.200659 0)
(0.0302529 0.0916702 0)
(0.078264 -0.0132323 0)
(0.128249 -0.0780405 0)
(0.157439 -0.0970353 0)
(0.175553 -0.0858374 0)
(0.196877 -0.078622 0)
(0.210289 -0.0633992 0)
(0.20296 -0.0279935 0)
(0.179274 0.0250184 0)
(0.139486 0.0541018 0)
(0.0937102 0.0504724 0)
(0.0689133 0.0748192 0)
(0.0282399 0.105712 0)
(0.00180379 0.0921235 0)
(0.103165 -0.0104784 0)
(0.0899638 -0.0850379 0)
(0.0639913 -0.0640076 0)
(0.0324779 0.175285 0)
(0.0424705 0.0684483 0)
(0.0443002 -0.0723714 0)
(-0.019861 -0.144738 0)
(-0.0904785 -0.100716 0)
(0.111306 0.153858 0)
(0.163481 0.106591 0)
(0.211829 -0.0122195 0)
(0.263279 -0.0961182 0)
(0.267381 -0.106788 0)
(0.24924 -0.0880567 0)
(0.227097 -0.0802175 0)
(0.210516 -0.0622727 0)
(0.185682 -0.0176582 0)
(0.163103 0.0414018 0)
(0.135044 0.0765385 0)
(0.0849923 0.07616 0)
(0.0458182 0.0986663 0)
(0.0207382 0.113225 0)
(0.0668024 0.0242799 0)
(0.104256 -0.0566667 0)
(-0.0194433 -0.0537685 0)
(-0.0245216 -0.0446623 0)
(0.0411301 -0.0194957 0)
(0.0315534 0.0162333 0)
(-0.244946 0.0391124 0)
(-0.348692 0.00127813 0)
(-0.323306 -0.0151562 0)
(-0.346242 0.0119339 0)
(-0.464949 0.0348425 0)
(-0.55875 0.0125807 0)
(-0.486325 -0.0239104 0)
(-0.338121 -0.0346481 0)
(-0.213804 -0.0235849 0)
(-0.131072 -0.00607307 0)
(-0.112397 0.00729762 0)
(-0.158874 0.00789539 0)
(-0.216201 0.00884689 0)
(-0.240068 0.00655783 0)
(-0.218119 -0.00707924 0)
(-0.154943 -0.0183887 0)
(-0.0551739 -0.026152 0)
(0.0110982 -0.0172712 0)
(-0.0929798 0.0951463 0)
(-0.336884 0.109405 0)
(-0.307824 0.0352548 0)
(-0.360813 0.00114836 0)
(-0.501254 0.0438842 0)
(-0.570739 0.0590737 0)
(-0.542083 -0.00237474 0)
(-0.415763 -0.0745408 0)
(-0.295915 -0.0937463 0)
(-0.203044 -0.0705239 0)
(-0.144808 -0.0330826 0)
(-0.105733 0.0116387 0)
(-0.125802 0.0356186 0)
(-0.177686 0.0197515 0)
(-0.179215 -0.00664969 0)
(-0.16287 -0.0308242 0)
(-0.131744 -0.0548805 0)
(-0.0408014 -0.0765769 0)
(-0.0476653 0.0276013 0)
(-0.170102 0.152649 0)
(-0.25221 0.130674 0)
(-0.0295225 0.0500862 0)
(-0.102859 0.0764577 0)
(-0.396479 0.0905667 0)
(-0.477591 0.0631161 0)
(-0.428777 -0.0296994 0)
(-0.325998 -0.125029 0)
(-0.22658 -0.139081 0)
(-0.175813 -0.0952295 0)
(-0.143259 -0.0478153 0)
(-0.108395 -0.00318214 0)
(-0.0692282 0.0351463 0)
(-0.0411238 0.0337561 0)
(-0.0181551 0.00622169 0)
(-0.0233847 -0.0211486 0)
(-0.0670433 -0.0584392 0)
(-0.0118872 -0.107945 0)
(-0.0781444 0.0801626 0)
(-0.183702 0.175653 0)
(-0.126014 0.0859462 0)
(0.158951 -0.0222088 0)
(0.151615 0.133437 0)
(-0.187957 0.177806 0)
(-0.364603 0.0789962 0)
(-0.330931 -0.0563249 0)
(-0.235605 -0.168974 0)
(-0.190066 -0.16803 0)
(-0.183132 -0.108536 0)
(-0.150929 -0.0592066 0)
(-0.109921 -0.0197511 0)
(-0.0695927 0.00694684 0)
(-0.0189013 0.00234173 0)
(0.0245851 -0.0111417 0)
(0.0605993 -0.0129771 0)
(0.0116565 -0.0347207 0)
(0.0204817 -0.109672 0)
(-0.0826534 0.126608 0)
(-0.141 0.161309 0)
(0.109404 -0.0213796 0)
(0.22199 -0.0610206 0)
(0.243798 0.178523 0)
(0.026094 0.276974 0)
(-0.227186 0.125347 0)
(-0.224564 -0.0659223 0)
(-0.159007 -0.188827 0)
(-0.200636 -0.167201 0)
(-0.225326 -0.109898 0)
(-0.189659 -0.0715895 0)
(-0.136081 -0.0339033 0)
(-0.0851113 -0.00676866 0)
(-0.0457584 -0.012989 0)
(-0.0168267 -0.029749 0)
(0.0336327 -0.0232262 0)
(0.033093 -0.0371421 0)
(0.0398929 -0.0951339 0)
(-0.0766132 0.168137 0)
(-0.0922048 0.11729 0)
(0.215387 -0.103875 0)
(0.182771 -0.0687003 0)
(0.18904 0.221082 0)
(0.140726 0.35468 0)
(-0.0869652 0.189822 0)
(-0.117928 -0.0561167 0)
(-0.123131 -0.177301 0)
(-0.248595 -0.142096 0)
(-0.28318 -0.107865 0)
(-0.253714 -0.0899241 0)
(-0.199208 -0.0585764 0)
(-0.129509 -0.0312512 0)
(-0.0736746 -0.0268151 0)
(-0.0484766 -0.0402449 0)
(-0.00714741 -0.037322 0)
(0.0282544 -0.0418058 0)
(0.0437931 -0.0802605 0)
(-0.0706451 0.197587 0)
(-0.0394558 0.0528616 0)
(0.117476 -0.145451 0)
(-0.0422995 -0.0340441 0)
(0.0212613 0.243687 0)
(0.133163 0.397216 0)
(0.00301211 0.239989 0)
(-0.0441821 -0.0260983 0)
(-0.151423 -0.131241 0)
(-0.312186 -0.104046 0)
(-0.346365 -0.106013 0)
(-0.336375 -0.106453 0)
(-0.287948 -0.0851036 0)
(-0.212204 -0.0624595 0)
(-0.140594 -0.0514684 0)
(-0.0888131 -0.0553941 0)
(-0.0404702 -0.0575498 0)
(0.0144079 -0.0599772 0)
(0.0376068 -0.0654032 0)
(-0.0554888 0.236192 0)
(-0.0112101 0.00901857 0)
(-0.0894311 -0.104351 0)
(-0.234135 -0.0190078 0)
(-0.151193 0.190879 0)
(0.0221738 0.378347 0)
(0.0264251 0.266598 0)
(-0.0332602 0.0182233 0)
(-0.234205 -0.0627949 0)
(-0.373605 -0.0672592 0)
(-0.414868 -0.0981893 0)
(-0.423492 -0.112002 0)
(-0.381352 -0.107789 0)
(-0.309217 -0.0928972 0)
(-0.230149 -0.0801181 0)
(-0.156634 -0.0776235 0)
(-0.0859496 -0.0792659 0)
(-0.0146935 -0.0784078 0)
(0.0233011 -0.055318 0)
(0.0662592 0.110551 0)
(0.10572 0.0755918 0)
(0.112258 -0.0359216 0)
(0.096675 -0.0912418 0)
(0.00345695 -0.0949508 0)
(0.046607 0.0241186 0)
(0.179655 0.014274 0)
(0.264564 -0.0680621 0)
(0.252664 -0.106239 0)
(0.221951 -0.0947751 0)
(0.19741 -0.0676938 0)
(0.154922 -0.0590788 0)
(0.130546 -0.0470832 0)
(0.0987221 -0.00199657 0)
(0.086787 0.0514307 0)
(0.104686 0.0774896 0)
(0.11556 0.0877164 0)
(0.092337 0.108034 0)
(0.0444381 0.115859 0)
(-0.0578629 0.148863 0)
(-0.232426 0.153489 0)
(-0.252929 -0.000990452 0)
(-0.23291 -0.0703381 0)
(0.0293071 0.0180544 0)
(0.0842407 0.0192448 0)
(0.114289 -0.0506237 0)
(0.0835177 -0.0656829 0)
(0.0262559 -0.0690538 0)
(0.0388751 -0.0467423 0)
(0.0519876 -0.070056 0)
(-0.0732763 -0.0773794 0)
(-0.22002 -0.0610338 0)
(-0.199886 -0.0559272 0)
(-0.105876 -0.0180429 0)
(-0.0616338 -0.0207476 0)
(-0.0275018 0.0154883 0)
(-0.0434396 0.0389933 0)
(-0.0382381 0.0406283 0)
(-0.0146168 0.0371286 0)
(-0.0341036 0.0745022 0)
(-0.12776 0.186221 0)
(-0.337871 0.236373 0)
(-0.546704 0.12929 0)
(-0.593628 -0.0369534 0)
(-0.556864 -0.109599 0)
(-0.47662 -0.113315 0)
(-0.0528918 -0.0113621 0)
(-0.129709 -0.0343017 0)
(-0.420791 -0.0339368 0)
(-0.712457 -0.0201115 0)
(-0.97881 0.00921116 0)
(-1.08246 0.0498676 0)
(-0.988188 0.12152 0)
(-1.02537 0.134153 0)
(-1.08113 -0.0158736 0)
(-0.891596 -0.269092 0)
(-0.575281 -0.237979 0)
(-0.361922 -0.173192 0)
(-0.140786 -0.0617909 0)
(-0.112943 0.0269783 0)
(-0.10309 0.0486039 0)
(-0.134732 0.0829747 0)
(-0.267066 0.232093 0)
(-0.429725 0.408387 0)
(-0.618363 0.429163 0)
(-0.749292 0.307071 0)
(-0.798229 0.119667 0)
(-0.871906 -0.140534 0)
(-0.613015 -0.24946 0)
(-0.789552 0.285627 0)
(-0.848318 0.378215 0)
(-1.07015 0.409959 0)
(-1.27901 0.332642 0)
(-1.51485 0.201105 0)
(-1.71517 0.0116236 0)
(-1.74225 -0.00856307 0)
(-1.47998 0.0367904 0)
(-1.1111 -0.23889 0)
(-0.885166 -0.470138 0)
(-0.726453 -0.500068 0)
(-0.551358 -0.351478 0)
(-0.531241 -0.211209 0)
(-0.351701 -0.0314689 0)
(-0.211486 0.0250559 0)
(-0.238136 0.143224 0)
(-0.574696 0.483279 0)
(-0.780716 0.623024 0)
(-0.802778 0.541823 0)
(-0.829576 0.432448 0)
(-0.761506 0.277532 0)
(-0.532054 0.113444 0)
(-0.538633 -0.597918 0)
(-0.613811 1.13248 0)
(-0.924696 0.541673 0)
(-1.18168 0.634065 0)
(-1.37379 0.642205 0)
(-1.4899 0.46784 0)
(-1.45227 0.128655 0)
(-1.32862 -0.159821 0)
(-1.19602 -0.351997 0)
(-1.07358 -0.55876 0)
(-1.02143 -0.650221 0)
(-0.962737 -0.575594 0)
(-0.839842 -0.38185 0)
(-0.688936 -0.276657 0)
(-0.523437 -0.208705 0)
(-0.357819 -0.0518609 0)
(-0.233117 0.287667 0)
(-0.163586 0.605793 0)
(-0.0356355 0.770916 0)
(-0.4984 0.654321 0)
(-0.584232 0.345426 0)
(-0.567223 -0.151458 0)
(-0.484144 -0.381104 0)
(-0.424471 -0.358558 0)
(-0.411083 1.7539 0)
(-0.634138 0.941764 0)
(-0.911746 0.712578 0)
(-1.02313 0.580504 0)
(-1.07277 0.34156 0)
(-1.04063 0.0231554 0)
(-1.05638 -0.191994 0)
(-1.08965 -0.341501 0)
(-1.09169 -0.546522 0)
(-1.0795 -0.691168 0)
(-1.05436 -0.686256 0)
(-0.944641 -0.58706 0)
(-0.718422 -0.470764 0)
(-0.454527 -0.360865 0)
(-0.27166 -0.238831 0)
(-0.231574 -0.0177457 0)
(-0.182497 0.293287 0)
(0.185125 0.60102 0)
(0.0998023 0.847828 0)
(0.0371552 0.630243 0)
(-0.0723684 0.15165 0)
(-0.295962 -0.384068 0)
(-0.392334 -0.405881 0)
(-0.179311 2.15739 0)
(-0.207994 1.33458 0)
(-0.518755 0.894465 0)
(-0.556391 0.650745 0)
(-0.627763 0.39109 0)
(-0.680947 0.119236 0)
(-0.765364 -0.124351 0)
(-0.829581 -0.347642 0)
(-0.882916 -0.527378 0)
(-0.920715 -0.652635 0)
(-0.912321 -0.736958 0)
(-0.851924 -0.774769 0)
(-0.686741 -0.779326 0)
(-0.416575 -0.69679 0)
(-0.111902 -0.388485 0)
(0.0641296 0.204583 0)
(-0.0615891 0.373179 0)
(-0.0526075 0.424142 0)
(0.288597 0.747028 0)
(0.375889 0.742202 0)
(0.301565 0.42923 0)
(-0.0637854 -0.104185 0)
(-0.411338 -0.218291 0)
(0.0422131 2.09515 0)
(0.207719 1.64399 0)
(-0.0321089 1.03677 0)
(-0.0524118 0.741993 0)
(-0.133983 0.509014 0)
(-0.232048 0.257453 0)
(-0.333247 -0.0217701 0)
(-0.442647 -0.286404 0)
(-0.537998 -0.51015 0)
(-0.598221 -0.652387 0)
(-0.618763 -0.727135 0)
(-0.620502 -0.821443 0)
(-0.548801 -0.942609 0)
(-0.437626 -0.976098 0)
(-0.230318 -0.729457 0)
(0.0953051 -0.0346565 0)
(0.213686 0.423326 0)
(-0.022449 0.462294 0)
(0.10421 0.426783 0)
(0.332339 0.618682 0)
(0.355075 0.594335 0)
(-0.0453766 0.187765 0)
(-0.463801 0.0461853 0)
(0.171605 1.72812 0)
(0.453533 1.65078 0)
(0.389667 1.10435 0)
(0.374778 0.78546 0)
(0.331485 0.589017 0)
(0.237166 0.383257 0)
(0.135194 0.133426 0)
(0.0169436 -0.145198 0)
(-0.101192 -0.392667 0)
(-0.207611 -0.598683 0)
(-0.281532 -0.721941 0)
(-0.290131 -0.803758 0)
(-0.298747 -0.930392 0)
(-0.340977 -1.05884 0)
(-0.248218 -0.916689 0)
(-0.0794908 -0.314054 0)
(0.234821 0.384245 0)
(0.128634 0.580787 0)
(0.00649078 0.294881 0)
(0.147303 0.501927 0)
(0.253294 0.728978 0)
(-0.116858 0.589277 0)
(-0.611532 0.381644 0)
(0.192445 1.32236 0)
(0.502548 1.48412 0)
(0.556471 1.06986 0)
(0.581073 0.778485 0)
(0.601885 0.616665 0)
(0.574923 0.460989 0)
(0.512568 0.256972 0)
(0.429017 0.0133923 0)
(0.317781 -0.234684 0)
(0.194238 -0.456301 0)
(0.0727615 -0.646285 0)
(-0.0347631 -0.775665 0)
(-0.0291077 -0.834865 0)
(-0.176506 -1.01547 0)
(-0.166466 -0.983669 0)
(-0.19047 -0.536172 0)
(0.0690173 0.259144 0)
(0.209196 0.639925 0)
(0.182502 0.370637 0)
(0.0513442 0.462434 0)
(0.154115 0.858514 0)
(-0.295443 1.02102 0)
(-0.840566 0.734924 0)
(0.176554 0.985233 0)
(0.463157 1.3013 0)
(0.551792 1.00064 0)
(0.583486 0.723027 0)
(0.636218 0.570341 0)
(0.676361 0.446866 0)
(0.679307 0.286459 0)
(0.641825 0.0830271 0)
(0.564432 -0.131746 0)
(0.455736 -0.32935 0)
(0.337108 -0.500684 0)
(0.184699 -0.68256 0)
(0.121671 -0.763395 0)
(-0.00805325 -0.897409 0)
(-0.0385188 -0.948087 0)
(-0.219851 -0.567737 0)
(-0.0916217 0.0862521 0)
(0.161289 0.400807 0)
(0.169958 0.414364 0)
(8.52754e-06 0.567874 0)
(-0.0236406 1.05104 0)
(-0.505575 1.48779 0)
(-0.952052 1.03902 0)
(0.158306 0.657575 0)
(0.432338 1.11367 0)
(0.549875 0.959104 0)
(0.572689 0.68808 0)
(0.593146 0.502231 0)
(0.623478 0.381235 0)
(0.650776 0.258701 0)
(0.649165 0.100252 0)
(0.605659 -0.089743 0)
(0.53464 -0.269582 0)
(0.451131 -0.411148 0)
(0.326773 -0.553331 0)
(0.231974 -0.684754 0)
(0.104614 -0.782997 0)
(0.0586791 -0.833437 0)
(-0.200452 -0.459562 0)
(-0.251672 -0.0113431 0)
(-0.1717 0.307498 0)
(-0.101081 0.503391 0)
(-0.206398 0.769302 0)
(-0.277439 1.332 0)
(-0.6475 1.87959 0)
(-0.870278 1.21346 0)
(0.092782 0.385788 0)
(0.358219 0.869124 0)
(0.540669 0.887179 0)
(0.61279 0.69414 0)
(0.626188 0.51513 0)
(0.634378 0.383619 0)
(0.647611 0.263404 0)
(0.646027 0.129151 0)
(0.615542 -0.0163325 0)
(0.567092 -0.177266 0)
(0.498966 -0.32698 0)
(0.394786 -0.448346 0)
(0.303045 -0.587662 0)
(0.194165 -0.67585 0)
(0.105122 -0.650314 0)
(-0.196563 -0.192244 0)
(-0.420539 0.0617517 0)
(-0.453122 0.297697 0)
(-0.412914 0.571153 0)
(-0.406254 0.945991 0)
(-0.47371 1.57034 0)
(-0.588058 2.01667 0)
(-0.600931 1.37359 0)
(0.022709 0.244616 0)
(0.234568 0.635046 0)
(0.438145 0.716152 0)
(0.579906 0.628992 0)
(0.667207 0.499238 0)
(0.713134 0.377243 0)
(0.724334 0.270499 0)
(0.699951 0.155077 0)
(0.649773 0.0144538 0)
(0.596198 -0.123594 0)
(0.519681 -0.231334 0)
(0.41924 -0.346984 0)
(0.328608 -0.507705 0)
(0.252602 -0.571524 0)
(0.1489 -0.461008 0)
(-0.138088 0.0427916 0)
(-0.385082 0.186732 0)
(-0.5025 0.231484 0)
(-0.555914 0.482052 0)
(-0.534814 0.941321 0)
(-0.491165 1.55666 0)
(-0.331567 1.88437 0)
(-0.122595 1.43746 0)
(0.0127646 0.155917 0)
(0.159992 0.41445 0)
(0.372572 0.506552 0)
(0.549548 0.483773 0)
(0.662677 0.398181 0)
(0.724553 0.327929 0)
(0.739529 0.273002 0)
(0.702809 0.199248 0)
(0.634582 0.0803543 0)
(0.564393 -0.0531776 0)
(0.462696 -0.139018 0)
(0.371334 -0.277969 0)
(0.292036 -0.425123 0)
(0.221694 -0.480637 0)
(0.161771 -0.296663 0)
(-0.0434058 0.264346 0)
(-0.268044 0.3917 0)
(-0.432271 0.36653 0)
(-0.564753 0.515986 0)
(-0.54864 0.862229 0)
(-0.363804 1.31191 0)
(-0.00934858 1.51452 0)
(0.360975 1.23836 0)
(0.00353075 0.0793254 0)
(0.126695 0.203399 0)
(0.330005 0.280564 0)
(0.518327 0.327701 0)
(0.621517 0.317419 0)
(0.637207 0.297559 0)
(0.61846 0.294419 0)
(0.561946 0.258228 0)
(0.488084 0.153714 0)
(0.405794 0.0494048 0)
(0.331991 -0.0152721 0)
(0.269151 -0.224964 0)
(0.21303 -0.33684 0)
(0.160449 -0.423205 0)
(0.0883047 -0.18548 0)
(-0.0477911 0.412136 0)
(-0.139201 0.564571 0)
(-0.235705 0.536555 0)
(-0.331207 0.618085 0)
(-0.37885 0.772831 0)
(-0.227526 0.957039 0)
(0.166276 1.00869 0)
(0.512622 0.804124 0)
(-0.0329811 0.0655129 0)
(0.0524257 0.0730107 0)
(0.213409 0.0751626 0)
(0.381961 0.194648 0)
(0.442287 0.283101 0)
(0.414417 0.32214 0)
(0.346723 0.347646 0)
(0.296562 0.311948 0)
(0.236372 0.213357 0)
(0.184113 0.0731294 0)
(0.305567 -0.0145655 0)
(0.157077 -0.152937 0)
(0.182171 -0.286727 0)
(0.114212 -0.355563 0)
(-0.0494378 0.00949682 0)
(-0.0990707 0.46659 0)
(-0.0424582 0.633224 0)
(-0.02237 0.597237 0)
(-0.00273826 0.677457 0)
(-0.0186376 0.763303 0)
(0.0281322 0.764696 0)
(0.272608 0.688918 0)
(0.484519 0.508845 0)
(-0.0435094 0.0767373 0)
(0.0316175 -0.0510574 0)
(0.0925567 -0.124094 0)
(0.169883 0.151828 0)
(0.117114 0.329285 0)
(0.036644 0.41299 0)
(-0.0403423 0.41312 0)
(-0.0138106 0.331153 0)
(0.0176826 0.203777 0)
(0.0387802 0.0719051 0)
(0.0850489 -0.0142933 0)
(0.155917 -0.169774 0)
(0.169688 -0.277971 0)
(0.0188126 -0.18763 0)
(-0.175217 0.117964 0)
(-0.107649 0.389546 0)
(0.0145003 0.551166 0)
(0.133791 0.538695 0)
(0.241079 0.616748 0)
(0.366721 0.728718 0)
(0.425333 0.711047 0)
(0.551273 0.60412 0)
(0.645688 0.449086 0)
(-0.0414276 0.100541 0)
(0.0002241 -0.0779037 0)
(-0.0864361 -0.078197 0)
(-0.139296 0.264709 0)
(-0.280881 0.454182 0)
(-0.367508 0.498962 0)
(-0.330362 0.393315 0)
(-0.214439 0.270763 0)
(-0.0957956 0.125756 0)
(0.0569435 0.00650649 0)
(0.115555 -0.119787 0)
(0.110995 -0.200773 0)
(-0.0285879 -0.144072 0)
(-0.170691 -0.014723 0)
(-0.147275 0.0917817 0)
(-0.0613997 0.2397 0)
(0.0791435 0.368572 0)
(0.241442 0.400275 0)
(0.388191 0.452008 0)
(0.578678 0.551882 0)
(0.755124 0.584352 0)
(0.894354 0.522058 0)
(0.980232 0.406875 0)
(-0.0462934 0.146139 0)
(-0.0362261 -0.0401643 0)
(-0.183031 0.0160529 0)
(-0.386845 0.443211 0)
(-0.532129 0.560353 0)
(-0.497522 0.451936 0)
(-0.337177 0.245663 0)
(-0.127021 0.0709864 0)
(0.0119104 -0.0596214 0)
(0.0476029 -0.128099 0)
(-0.0751816 -0.0492989 0)
(-0.24237 -0.0406131 0)
(-0.251816 -0.0291855 0)
(-0.228311 -0.0338832 0)
(-0.168993 0.02727 0)
(-0.0643422 0.116283 0)
(0.0904961 0.196233 0)
(0.265867 0.242224 0)
(0.438529 0.281069 0)
(0.632036 0.335853 0)
(0.846957 0.375155 0)
(1.05087 0.363948 0)
(1.20521 0.305141 0)
(-0.0280181 0.17854 0)
(-0.0270587 0.0485633 0)
(-0.22927 0.208673 0)
(-0.466297 0.626563 0)
(-0.514251 0.565408 0)
(-0.370207 0.278817 0)
(-0.178454 0.0164856 0)
(-0.078167 -0.106104 0)
(-0.201337 0.0278481 0)
(-0.415386 0.111458 0)
(-0.435754 0.0720074 0)
(-0.383942 -0.0546825 0)
(-0.309009 -0.0999845 0)
(-0.248477 -0.0934438 0)
(-0.188038 -0.0605361 0)
(-0.104932 -0.0146409 0)
(0.0178223 0.0302657 0)
(0.172007 0.0581437 0)
(0.344582 0.0865591 0)
(0.537888 0.120837 0)
(0.750391 0.149723 0)
(0.968486 0.160483 0)
(1.16191 0.148622 0)
(0.0459596 0.23419 0)
(0.0545251 0.199981 0)
(-0.201824 0.400053 0)
(-0.411646 0.742171 0)
(-0.373212 0.44948 0)
(-0.239719 0.112506 0)
(-0.168486 -0.0604292 0)
(-0.359039 0.130747 0)
(-0.56227 0.22774 0)
(-0.58293 0.0995859 0)
(-0.499213 -0.0512901 0)
(-0.390362 -0.150539 0)
(-0.292124 -0.175441 0)
(-0.213903 -0.152961 0)
(-0.155623 -0.120477 0)
(-0.10345 -0.0965803 0)
(-0.0291956 -0.0911865 0)
(0.0792795 -0.093594 0)
(0.211229 -0.0923431 0)
(0.365157 -0.0844172 0)
(0.540574 -0.0735051 0)
(0.730996 -0.0636069 0)
(0.919093 -0.0557349 0)
(0.13755 0.0072832 0)
(0.117476 0.291164 0)
(-0.188642 0.630944 0)
(-0.34559 0.824751 0)
(-0.297767 0.406216 0)
(-0.212198 0.0663751 0)
(-0.312588 0.1081 0)
(-0.588385 0.347857 0)
(-0.676462 0.271542 0)
(-0.625553 0.0496813 0)
(-0.514685 -0.160931 0)
(-0.396588 -0.274817 0)
(-0.289771 -0.278868 0)
(-0.193949 -0.226935 0)
(-0.121961 -0.165336 0)
(-0.0818383 -0.134377 0)
(-0.0414562 -0.159684 0)
(0.0298789 -0.188633 0)
(0.121435 -0.210374 0)
(0.229154 -0.224468 0)
(0.354099 -0.231663 0)
(0.49345 -0.231849 0)
(0.641948 -0.223256 0)
(-0.024074 -0.0104759 0)
(0.0325926 0.493355 0)
(-0.259673 0.855367 0)
(-0.30556 0.804144 0)
(-0.243796 0.338704 0)
(-0.242736 0.125156 0)
(-0.471564 0.375756 0)
(-0.667475 0.463146 0)
(-0.679466 0.255381 0)
(-0.611096 -0.047354 0)
(-0.515644 -0.279583 0)
(-0.422989 -0.382752 0)
(-0.322722 -0.387582 0)
(-0.228102 -0.328179 0)
(-0.144308 -0.233563 0)
(-0.0800315 -0.163551 0)
(-0.0382409 -0.203801 0)
(0.011346 -0.251795 0)
(0.072759 -0.288194 0)
(0.140283 -0.31642 0)
(0.216856 -0.338236 0)
(0.30399 -0.351421 0)
(0.406021 -0.352418 0)
(-0.0688205 -0.00685951 0)
(-0.0694253 0.672594 0)
(-0.325962 0.985159 0)
(-0.303857 0.773496 0)
(-0.23546 0.32181 0)
(-0.3123 0.293124 0)
(-0.530235 0.554015 0)
(-0.634588 0.519414 0)
(-0.636524 0.230197 0)
(-0.591482 -0.113526 0)
(-0.538177 -0.357445 0)
(-0.460661 -0.477699 0)
(-0.368048 -0.480272 0)
(-0.288194 -0.410871 0)
(-0.205611 -0.321279 0)
(-0.108819 -0.227815 0)
(-0.0286607 -0.253194 0)
(0.0181956 -0.298276 0)
(0.0596311 -0.33627 0)
(0.0975424 -0.367123 0)
(0.134546 -0.39478 0)
(0.175159 -0.419115 0)
(0.229618 -0.438308 0)
(-0.10048 0.0943363 0)
(-0.133346 0.842111 0)
(-0.335514 1.02718 0)
(-0.28704 0.726505 0)
(-0.247511 0.358209 0)
(-0.351001 0.461214 0)
(-0.479077 0.649564 0)
(-0.535668 0.560645 0)
(-0.561922 0.233372 0)
(-0.558908 -0.139172 0)
(-0.54374 -0.414795 0)
(-0.484328 -0.5666 0)
(-0.411376 -0.556582 0)
(-0.336195 -0.476468 0)
(-0.235954 -0.416837 0)
(-0.11949 -0.341309 0)
(-0.00777434 -0.323399 0)
(0.0485801 -0.338756 0)
(0.0759421 -0.364224 0)
(0.0905288 -0.388559 0)
(0.0979737 -0.413142 0)
(0.102103 -0.441547 0)
(0.112205 -0.475323 0)
(-0.119986 0.183801 0)
(-0.0900822 0.966279 0)
(-0.276383 1.05777 0)
(-0.248841 0.705285 0)
(-0.224557 0.401282 0)
(-0.328214 0.548161 0)
(-0.351623 0.686352 0)
(-0.383969 0.604429 0)
(-0.431359 0.273196 0)
(-0.470128 -0.121253 0)
(-0.490953 -0.43985 0)
(-0.458513 -0.630556 0)
(-0.41628 -0.62842 0)
(-0.311626 -0.57496 0)
(-0.189409 -0.536134 0)
(-0.0755073 -0.469742 0)
(0.0341114 -0.409741 0)
(0.0984463 -0.377998 0)
(0.116643 -0.3753 0)
(0.108946 -0.386692 0)
(0.0923621 -0.403537 0)
(0.069279 -0.426539 0)
(0.0408238 -0.45859 0)
(-0.1432 0.269862 0)
(0.0117288 1.00616 0)
(-0.129246 1.13142 0)
(-0.174323 0.735351 0)
(-0.168124 0.443125 0)
(-0.252636 0.555451 0)
(-0.194859 0.672835 0)
(-0.201081 0.638464 0)
(-0.242028 0.352157 0)
(-0.305744 -0.0467244 0)
(-0.362256 -0.417049 0)
(-0.350428 -0.667081 0)
(-0.335564 -0.718873 0)
(-0.209717 -0.699199 0)
(-0.0841541 -0.655417 0)
(0.0182605 -0.580371 0)
(0.104964 -0.492982 0)
(0.162263 -0.415261 0)
(0.172713 -0.371703 0)
(0.144085 -0.362932 0)
(0.104562 -0.372246 0)
(0.0622637 -0.386318 0)
(0.00981684 -0.403353 0)
(-0.153598 0.352894 0)
(0.0207131 0.927533 0)
(0.0772781 1.21962 0)
(-0.0280428 0.800315 0)
(-0.0370506 0.517245 0)
(-0.139526 0.524348 0)
(-0.0466245 0.622844 0)
(-0.0263636 0.644013 0)
(-0.0413994 0.413358 0)
(-0.0955158 0.0352819 0)
(-0.177287 -0.350308 0)
(-0.180709 -0.673507 0)
(-0.175213 -0.807928 0)
(-0.0640899 -0.822249 0)
(0.0506047 -0.764247 0)
(0.143051 -0.669165 0)
(0.204827 -0.554752 0)
(0.237194 -0.439598 0)
(0.232197 -0.353321 0)
(0.185601 -0.318551 0)
(0.124405 -0.322169 0)
(0.0683475 -0.334129 0)
(0.011018 -0.339868 0)
(-0.129259 0.438395 0)
(-0.0826201 0.742121 0)
(0.19123 1.18313 0)
(0.167135 0.874736 0)
(0.128034 0.618939 0)
(-0.0013528 0.521225 0)
(0.068472 0.561908 0)
(0.110291 0.615107 0)
(0.121396 0.443959 0)
(0.101707 0.0984323 0)
(0.0257817 -0.274341 0)
(0.0121562 -0.658206 0)
(0.0292896 -0.870957 0)
(0.10337 -0.923606 0)
(0.193668 -0.860251 0)
(0.271431 -0.739721 0)
(0.312302 -0.590389 0)
(0.314001 -0.438431 0)
(0.283425 -0.315651 0)
(0.219696 -0.256092 0)
(0.141424 -0.256042 0)
(0.0751077 -0.275678 0)
(0.0199873 -0.284122 0)
(-0.0513915 0.557097 0)
(-0.118961 0.637901 0)
(0.0538678 0.940003 0)
(0.246791 0.885937 0)
(0.189581 0.695354 0)
(0.104283 0.557557 0)
(0.140165 0.515471 0)
(0.19238 0.558156 0)
(0.230857 0.438662 0)
(0.236516 0.141888 0)
(0.195634 -0.234508 0)
(0.195925 -0.644983 0)
(0.221644 -0.913702 0)
(0.262113 -0.996046 0)
(0.320294 -0.934389 0)
(0.373203 -0.789792 0)
(0.391453 -0.60154 0)
(0.3663 -0.40974 0)
(0.309342 -0.256462 0)
(0.230707 -0.179677 0)
(0.143599 -0.180273 0)
(0.0737398 -0.213026 0)
(0.0209784 -0.232099 0)
(0.0484771 0.597591 0)
(-0.0238191 0.692944 0)
(-0.0601498 0.765765 0)
(0.102404 0.810429 0)
(0.102511 0.697061 0)
(0.110477 0.545708 0)
(0.165722 0.477457 0)
(0.217064 0.486019 0)
(0.27736 0.397449 0)
(0.305693 0.148958 0)
(0.301943 -0.220173 0)
(0.331322 -0.649495 0)
(0.3579 -0.945018 0)
(0.373673 -1.04011 0)
(0.395245 -0.978071 0)
(0.41311 -0.81322 0)
(0.404985 -0.588583 0)
(0.359605 -0.359389 0)
(0.287052 -0.181867 0)
(0.203362 -0.0982727 0)
(0.120593 -0.105629 0)
(0.0596765 -0.153385 0)
(0.0155906 -0.184681 0)
(0.104811 0.475578 0)
(0.141695 0.770887 0)
(0.0671267 0.795311 0)
(0.0502247 0.781057 0)
(0.0578158 0.675735 0)
(0.0800404 0.486627 0)
(0.137128 0.416468 0)
(0.201002 0.402768 0)
(0.274075 0.330883 0)
(0.316775 0.121191 0)
(0.349763 -0.250938 0)
(0.405391 -0.67858 0)
(0.422805 -0.963218 0)
(0.403712 -1.04975 0)
(0.380455 -0.983251 0)
(0.357849 -0.803762 0)
(0.324 -0.552509 0)
(0.269454 -0.296013 0)
(0.200142 -0.105489 0)
(0.130421 -0.0251455 0)
(0.0691759 -0.0456819 0)
(0.0316875 -0.107234 0)
(0.00292884 -0.147271 0)
(0.112638 0.297175 0)
(0.264782 0.716232 0)
(0.27973 0.865354 0)
(0.210368 0.829212 0)
(0.172285 0.694516 0)
(0.16754 0.486943 0)
(0.159552 0.375488 0)
(0.198587 0.337183 0)
(0.256451 0.266868 0)
(0.296774 0.0765123 0)
(0.363848 -0.308125 0)
(0.422605 -0.710543 0)
(0.408486 -0.949469 0)
(0.338148 -1.01083 0)
(0.26476 -0.939896 0)
(0.203878 -0.756746 0)
(0.151744 -0.495493 0)
(0.102932 -0.231353 0)
(0.0590238 -0.0457233 0)
(0.022288 0.02081 0)
(-0.00129276 -0.0140793 0)
(-0.00422239 -0.0840233 0)
(-0.0163503 -0.124376 0)
(0.0678553 0.0702731 0)
(0.322859 0.572368 0)
(0.410157 0.852594 0)
(0.386293 0.885389 0)
(0.330701 0.7477 0)
(0.292528 0.532805 0)
(0.24456 0.384637 0)
(0.227585 0.317154 0)
(0.240762 0.237071 0)
(0.273788 0.0229054 0)
(0.362354 -0.373787 0)
(0.389905 -0.715389 0)
(0.325568 -0.882461 0)
(0.194912 -0.914167 0)
(0.0842586 -0.850168 0)
(-0.00258397 -0.67611 0)
(-0.0610421 -0.427054 0)
(-0.0909063 -0.182001 0)
(-0.0944669 -0.02029 0)
(-0.087995 0.0254455 0)
(-0.0648109 -0.0214948 0)
(-0.0386302 -0.0860695 0)
(-0.0364073 -0.116339 0)
(0.0596003 -0.111223 0)
(0.232666 0.388301 0)
(0.398841 0.806128 0)
(0.420919 0.891541 0)
(0.390099 0.785198 0)
(0.339814 0.576521 0)
(0.273408 0.416302 0)
(0.227095 0.33892 0)
(0.210676 0.230325 0)
(0.261481 -0.0463997 0)
(0.346464 -0.421069 0)
(0.317273 -0.665896 0)
(0.208728 -0.758071 0)
(0.0329375 -0.77449 0)
(-0.0850019 -0.737945 0)
(-0.183263 -0.582332 0)
(-0.233448 -0.367383 0)
(-0.237982 -0.165166 0)
(-0.20799 -0.0409731 0)
(-0.160811 -0.0183821 0)
(-0.100135 -0.0643303 0)
(-0.0628645 -0.104681 0)
(-0.0509709 -0.119537 0)
(0.0565841 -0.213686 0)
(0.0735129 0.277369 0)
(0.240947 0.738114 0)
(0.289748 0.872356 0)
(0.310104 0.778685 0)
(0.258633 0.608082 0)
(0.207776 0.473552 0)
(0.174261 0.372065 0)
(0.172838 0.205305 0)
(0.262935 -0.127534 0)
(0.312135 -0.425936 0)
(0.232606 -0.572253 0)
(0.111107 -0.605554 0)
(-0.0749062 -0.630831 0)
(-0.176394 -0.630158 0)
(-0.268508 -0.50434 0)
(-0.303997 -0.337142 0)
(-0.291571 -0.188226 0)
(-0.238937 -0.105208 0)
(-0.167693 -0.0963927 0)
(-0.104335 -0.118489 0)
(-0.0731704 -0.127854 0)
(-0.0576439 -0.129692 0)
(0.0401476 -0.260643 0)
(-0.0367033 0.241943 0)
(0.0484809 0.656792 0)
(0.0986604 0.840011 0)
(0.127591 0.778337 0)
(0.122337 0.646818 0)
(0.121086 0.506848 0)
(0.107629 0.375841 0)
(0.1619 0.129196 0)
(0.261176 -0.191572 0)
(0.259912 -0.384603 0)
(0.162316 -0.463701 0)
(0.0648362 -0.466884 0)
(-0.0897739 -0.508983 0)
(-0.166886 -0.542419 0)
(-0.246062 -0.452114 0)
(-0.266286 -0.337275 0)
(-0.245312 -0.238602 0)
(-0.191814 -0.18376 0)
(-0.133231 -0.167006 0)
(-0.093687 -0.158296 0)
(-0.0715401 -0.148392 0)
(-0.0568849 -0.142187 0)
(0.0158635 -0.240901 0)
(-0.0516485 0.265696 0)
(-0.0680927 0.61402 0)
(-0.0300322 0.800302 0)
(0.00494756 0.75709 0)
(0.038572 0.630104 0)
(0.0472681 0.506312 0)
(0.0615121 0.338466 0)
(0.17789 0.0349557 0)
(0.238466 -0.215538 0)
(0.198897 -0.324458 0)
(0.117856 -0.375932 0)
(0.0647881 -0.369355 0)
(-0.0374521 -0.413943 0)
(-0.0914461 -0.475043 0)
(-0.159428 -0.417027 0)
(-0.172441 -0.346057 0)
(-0.158191 -0.280745 0)
(-0.126133 -0.234519 0)
(-0.0967768 -0.20414 0)
(-0.0772675 -0.180782 0)
(-0.0618517 -0.164543 0)
(-0.0501258 -0.15373 0)
(0.00979572 -0.22777 0)
(0.00498629 0.308229 0)
(-0.0686553 0.628909 0)
(-0.0597218 0.767888 0)
(-0.0279413 0.714346 0)
(0.00567085 0.607532 0)