/*--------------------------------*- C++ -*----------------------------------*\
| =========                 |                                                 |
| \\      /  F ield         | OpenFOAM: The Open Source CFD Toolbox           |
|  \\    /   O peration     | Version:  2.3.0                                 |
|   \\  /    A nd           | Web:      www.OpenFOAM.org                      |
|    \\/     M anipulation  |                                                 |
\*---------------------------------------------------------------------------*/
FoamFile
{
    version     2.0;
    format      ascii;
    class       volScalarField;
    location    "1.5";
    object      alpha.water;
}
// * * * * * * * * * * * * * * * * * * * * * * * * * * * * * * * * * * * * * //

dimensions      [0 0 0 0 0 0 0];

internalField   nonuniform List<scalar> 
2268
(
1
0.999999
0.999998
0.999862
0.999008
0.999795
0.999998
1
1
1
1
1
1
0.999993
0.999933
0.99996
0.999975
0.999267
0.981612
0.980558
0.982133
0.999227
0.999922
1
0.999785
0.983973
0.972487
0.907932
0.925839
0.982893
0.999998
1
1
1
1
1
1
0.999507
0.998855
0.999343
0.999383
0.998966
0.995435
0.987728
0.993714
0.999921
0.999998
0.958718
0.869085
0.879911
0.837944
0.836803
0.891627
0.991647
0.999984
0.999999
1
0.999999
0.999993
0.999997
0.999999
0.999994
0.991606
0.992306
0.998695
0.998685
0.998521
0.996352
0.998992
0.975639
0.80475
0.811414
0.84829
0.932225
0.828654
0.827098
0.958242
0.999931
0.999977
0.999969
0.999798
0.999873
0.999996
0.999999
0.999999
0.992019
0.973906
0.976148
0.997694
0.999576
0.999609
0.999594
0.957088
0.80475
0.956054
0.956061
0.956062
0.904316
0.816965
0.904061
0.99915
0.999919
0.999726
0.999722
0.999809
0.999996
0.999999
0.999999
0.999999
0.974768
0.967901
0.976048
0.999212
0.999739
0.999739
0.958733
0.884667
0.956062
0.956066
0.956054
0.955545
0.816965
0.871038
0.994671
0.99992
0.999926
0.999912
0.999949
0.999992
0.999999
0.999999
0.999995
0.988336
0.967561
0.967484
0.983592
0.999734
0.999739
0.930678
0.955626
0.955885
0.956054
0.955771
0.934409
0.888379
0.814763
0.96882
0.999944
0.999962
0.999963
0.999964
0.999991
0.996518
0.976066
0.970613
0.978371
0.970403
0.967484
0.967484
0.994023
0.999734
0.748331
0.955554
0.955735
0.955784
0.871362
0.602345
0.806406
0.788908
0.952977
0.999927
0.99996
0.999962
0.999963
0.999968
0.884806
0.64871
0.67848
0.905703
0.991874
0.971638
0.967572
0.973431
0.999156
0.993946
0.994035
0.994022
0.994002
0.993979
0.935329
0.866438
0.867435
0.898571
0.886743
0.885316
0.910461
0.982703
0.980831
0.906215
0.906215
0.908582
0.894493
0.89447
0.994088
0.994088
0.992802
0.985968
0.993973
0.916551
0.865549
0.937744
0.982571
0.977675
0.958386
0.975581
0.982931
0.982913
0.93712
0.906215
0.931577
0.934531
0.931124
0.994086
0.993762
0.99403
0.96583
0.869537
0.865549
0.86574
0.95508
0.983206
0.983243
0.983228
0.98303
0.982871
0.980814
0.975602
0.944155
0.900656
0.925813
0.930571
0.993562
0.993563
0.994045
0.993894
0.883128
0.865728
0.891307
0.967637
0.983244
0.98325
0.983243
0.973364
0.651008
0.590697
0.839933
0.900744
0.900533
0.900021
0.90002
0.993562
0.995381
0.99329
0.934909
0.967564
0.967744
0.979663
0.943468
0.981078
0.98325
0.98325
0.87526
0.398852
0.397458
0.409897
0.777423
0.96329
0.915251
0.900024
0.995196
0.999347
0.971559
0.722769
0.940503
0.980408
0.980408
0.943468
0.980041
0.977083
0.963833
0.58016
0.397495
0.859346
0.899531
0.904641
0.963489
0.979309
0.912306
0.998037
0.999881
0.853743
0.684048
0.787227
0.980351
0.980408
0.964289
0.979738
0.758404
0.539121
0.181308
0.435907
0.532693
0.854429
0.979151
0.9792
0.979244
0.933348
0.999927
0.999927
0.61042
0.59468
0.712345
0.899834
0.938073
0.968331
0.978834
0.738303
0.152594
0.134393
0.238983
0.0374529
0.329832
0.979178
0.979218
0.979244
0.943267
0.735716
0.901581
0.83057
0.752507
0.580907
0.371901
0.578389
0.837781
0.944765
0.999911
0.999953
0.99996
0.999955
0.932931
0.560827
0.523309
0.524193
0.853725
0.999117
0.998923
0.987789
0.973806
0.988429
0.740002
0.447114
0.127636
0.000360378
0.0294215
0.211469
0.347446
0.928787
0.930437
0.99696
0.999911
0.999953
0.987513
0.61756
0.521801
0.523229
0.75337
0.995342
0.999752
0.999831
0.999894
0.998809
0.996933
0.252607
0.00124149
0.000352269
0.000152479
0.000220244
0.00324624
0.214638
0.635253
0.97309
0.984153
0.985861
0.971278
0.648548
0.52183
0.522766
0.688864
0.988517
0.999167
0.999834
0.999894
0.999894
0.999894
0.99989
0.00236723
0.00202133
0.000534245
3.91258e-05
2.25074e-05
0.000139377
0.00936835
0.105481
0.469833
0.650527
0.6437
0.590476
0.490405
0.66724
0.667309
0.646179
0.622882
0.778623
0.990267
0.999834
0.999894
0.99989
0.999872
0.00366324
0.00337798
0.0009534
3.22171e-06
7.37445e-07
2.66815e-05
0.000359226
0.000510951
0.0512079
0.215465
0.297565
0.266904
0.271759
0.366728
0.515365
0.430978
0.177855
0.196325
0.578359
0.890325
0.961495
0.998549
0.998914
0.00248642
0.000860115
4.0403e-06
4.09263e-06
4.08987e-06
-4.30546e-07
3.128e-05
9.59771e-05
0.000138317
0.000164895
0.000109886
9.83063e-05
9.85266e-05
0.00671664
0.0107979
0.0286804
0.0475524
0.0579854
0.0375904
0.0314314
0.130236
0.57379
0.84708
6.81754e-06
4.60232e-06
4.10509e-06
4.07524e-06
6.5573e-06
5.8667e-06
1.44612e-05
1.89308e-05
2.16358e-05
0.000626186
0.000210263
9.20695e-05
9.24957e-05
9.85266e-05
0.00340073
0.0239935
0.026553
0.0133844
0.00125364
0.000997217
0.00278525
0.000910164
0.00168964
7.80804e-06
5.77093e-06
4.31438e-06
4.66174e-06
2.34783e-05
3.01253e-05
1.86992e-05
6.38555e-06
6.38958e-06
9.43952e-05
0.000179405
9.2282e-05
7.52961e-05
0.00114905
0.00602435
0.0238602
0.00835757
0.00108219
0.000996491
0.000920284
0.000910216
0.000903622
0.000903528
8.88984e-06
8.71409e-06
3.29795e-06
2.98585e-06
6.74215e-06
1.01237e-05
1.78591e-05
4.85518e-06
4.66022e-06
5.13942e-06
1.08773e-05
8.5639e-06
1.12312e-05
0.0144118
0.0158006
0.0109678
0.000909682
0.000904974
0.00399751
0.00182959
0.000908323
0.000902988
0.000904255
1.16516e-05
1.99681e-05
1.69194e-06
8.30435e-07
7.58531e-07
7.58503e-07
6.14448e-06
4.48101e-06
4.24598e-06
4.66797e-06
5.13942e-06
5.96873e-06
0.00452808
0.0144064
0.0139633
0.00143857
1.93252e-05
0.00152235
0.00583158
0.00507538
0.000939905
0.000908323
0.00103927
6.52257e-05
0.00053798
0.000537629
1.25107e-05
7.58531e-07
7.87366e-07
1.74534e-06
2.65529e-06
2.8197e-06
4.15626e-06
0.0027382
0.00674056
0.0072664
0.00299239
2.58736e-05
1.89511e-05
1.744e-05
0.00268819
0.00595944
0.00603352
0.000978646
0.000915981
0.000920672
0.000548212
0.00320725
0.00327735
0.000101
7.87682e-07
8.18455e-07
9.44928e-07
1.07588e-06
1.992e-06
0.000688946
0.00427553
0.00349057
0.000472035
2.57695e-05
1.89314e-05
1.74339e-05
1.78338e-05
0.000407841
0.00599622
0.00631321
0.00104822
0.000921068
0.00126644
0.00132159
0.00339337
0.00339073
0.000303253
8.601e-07
8.22783e-07
1.16254e-06
4.11307e-05
8.77259e-05
0.000809012
0.00081811
4.47426e-05
3.71674e-05
3.5858e-05
5.06797e-05
5.04308e-05
1.61894e-05
4.2775e-06
0.00418046
0.00631321
0.00116928
0.00092667
0.00247188
0.00156637
0.00337173
0.00339113
0.000840527
9.01936e-07
8.16504e-07
4.25204e-06
7.39195e-06
3.60593e-05
8.93748e-05
1.67386e-05
2.10098e-05
3.8363e-05
6.70767e-05
6.73126e-05
6.72558e-05
4.4195e-05
1.03886e-06
0.00218475
0.00631321
0.00125162
0.000929479
0.00174295
0.00086829
0.00109969
0.00337462
0.00245113
3.1451e-05
9.49191e-11
9.45151e-11
9.45362e-11
1.78313e-09
1.08869e-08
1.51572e-05
7.29636e-05
7.20735e-05
6.21131e-05
4.18914e-05
3.91927e-05
1.70269e-05
7.89093e-08
1.03193e-06
0.00623263
0.00445449
0.000929505
0.000945703
0.000822099
0.000821983
0.00226941
0.00288808
0.000227354
1.0031e-10
9.45275e-11
4.63914e-10
1.50229e-08
1.58631e-07
7.32955e-05
7.32955e-05
4.99531e-05
6.73653e-09
6.27921e-09
6.73652e-09
7.29434e-09
8.16389e-09
3.21975e-08
0.00289418
0.00456289
0.00194209
0.0010293
0.000822216
0.000829284
0.000866068
0.00289128
0.000305162
1.02355e-10
6.40268e-11
1.0603e-10
1.75037e-09
2.27307e-06
4.0135e-05
5.32803e-05
7.12826e-09
6.27982e-09
5.82722e-09
9.08887e-09
2.99034e-08
2.92904e-08
3.53838e-08
4.43345e-07
0.00446021
0.00446582
0.00140475
0.00109526
0.00107279
0.0011284
0.00287842
0.000215212
1.92138e-11
1.77238e-11
1.94109e-11
4.72413e-08
6.6604e-07
1.76598e-09
1.81806e-08
5.47579e-08
1.513e-08
5.18839e-09
4.93879e-09
1.31204e-08
9.69826e-07
1.46638e-06
1.42573e-06
0.00101284
0.00450579
0.00471536
0.00111182
0.00126753
0.00127225
0.00230494
-5.34655e-11
1.33601e-11
1.71958e-11
1.81355e-11
1.91004e-11
2.98017e-11
1.57469e-10
4.00002e-08
2.11111e-07
6.02279e-08
3.68954e-09
3.25213e-09
3.78273e-09
1.3606e-08
3.1905e-06
1.35985e-05
9.41951e-06
0.00274254
0.00479178
0.00019267
0.0010642
4.69392e-05
0.000414932
9.71601e-12
1.3321e-11
1.89257e-11
2.43241e-11
3.01416e-11
4.5886e-11
1.83214e-10
2.44223e-08
8.19826e-08
5.54046e-08
3.25181e-09
2.95333e-09
2.37845e-09
1.74588e-09
8.02327e-08
3.07409e-06
5.47192e-06
6.31216e-06
0.0032817
6.84484e-05
5.12138e-05
1.76884e-05
2.3216e-11
1.0568e-11
1.3363e-11
2.13626e-11
3.28329e-11
7.22796e-11
1.9267e-10
9.68166e-10
4.40359e-09
8.20461e-09
4.10943e-09
2.994e-09
2.50076e-09
2.21169e-09
1.49876e-09
1.68127e-09
2.95211e-09
1.55593e-08
1.76721e-07
4.92164e-05
7.89533e-05
7.06655e-05
0.000118959
2.90017e-11
2.03405e-11
1.4242e-11
3.49738e-11
1.33456e-10
3.25067e-10
7.3941e-10
3.25485e-09
9.38286e-09
1.55415e-08
8.18676e-09
3.56884e-09
1.96894e-09
1.67532e-09
1.4256e-09
9.80172e-10
1.29238e-09
5.1217e-09
9.53524e-08
4.02993e-06
7.91463e-05
8.7671e-05
0.00023123
4.25967e-11
3.40703e-11
1.81931e-11
4.52227e-11
5.85787e-10
1.05815e-08
1.47028e-08
4.15553e-08
1.02374e-07
1.21707e-07
5.41011e-08
1.41588e-08
4.64865e-09
1.1073e-09
9.709e-10
7.70169e-10
7.98019e-10
2.12339e-09
1.99386e-08
1.97462e-07
7.96037e-05
8.16678e-05
0.000230346
4.03836e-11
4.02957e-11
4.55352e-11
3.23915e-10
2.78855e-09
2.92494e-07
2.02566e-06
2.49617e-06
8.6818e-06
8.38667e-06
7.70009e-07
1.79929e-07
5.51214e-08
6.95192e-10
6.63652e-10
6.14403e-10
3.55528e-10
1.21954e-09
8.77397e-09
7.97246e-08
8.90132e-05
9.45313e-05
0.000139571
4.49616e-11
8.02358e-11
6.46564e-10
6.60495e-09
5.80491e-08
4.7687e-07
3.33419e-05
0.000310271
0.000541701
0.000506175
0.000166148
8.68869e-06
6.89421e-07
3.21709e-08
4.00016e-10
2.87215e-10
9.84373e-11
3.27586e-10
2.27646e-09
1.77563e-08
0.000133334
0.000948595
0.000366218
1.1174e-10
4.57454e-10
4.38108e-09
6.09809e-08
6.90129e-07
8.95105e-06
0.000384776
0.000781181
0.000783242
0.000780177
0.000773331
0.000449437
0.000160142
5.12525e-07
-4.84215e-09
8.95583e-11
8.07003e-11
6.61268e-11
2.98712e-10
2.5554e-09
0.000140084
0.00156009
0.00152137
4.83252e-10
1.599e-09
1.64164e-08
2.50878e-07
2.80785e-06
0.000225685
0.000775616
0.000783242
0.000780177
0.00070198
0.000750894
0.000711977
0.000690003
0.000237866
6.06412e-08
-2.44937e-09
6.52732e-11
3.3737e-11
7.92935e-11
5.85366e-10
4.89315e-05
0.00157409
0.00157386
4.92795e-06
2.39372e-08
5.22566e-08
6.93908e-07
2.82365e-05
0.00057155
0.000764345
0.000763172
0.000210165
7.98158e-05
0.000237849
0.000625119
0.000670055
0.000637359
0.000261515
-1.87283e-10
2.9473e-11
2.71325e-11
2.45722e-11
2.38361e-10
4.86224e-05
0.00124196
0.00157409
2.88702e-05
7.91457e-08
1.12004e-07
1.19363e-06
0.000176219
0.000723132
0.000748867
0.000151428
7.93867e-05
7.81487e-05
6.98657e-05
4.68097e-05
0.000338021
0.000615499
0.00056525
3.88999e-05
3.25822e-11
1.11804e-11
9.6328e-12
7.26865e-11
4.86224e-05
0.000138396
0.00156574
0.000202298
1.5963e-07
2.21523e-07
1.33482e-06
0.000217678
0.000695357
0.000284178
8.50541e-05
8.02309e-05
0.000141739
7.21997e-05
3.90887e-05
2.65966e-05
2.87601e-05
0.000219293
0.000149971
6.80791e-10
9.45256e-13
3.34597e-13
9.60797e-12
4.86534e-05
4.98862e-05
0.00155338
0.000384893
1.3144e-07
1.85746e-07
6.05496e-06
0.000181693
0.000249072
4.66767e-05
8.85629e-05
0.00026656
0.000268269
0.000266263
0.000131242
2.46448e-05
1.98774e-06
4.85959e-07
2.73725e-05
1.47811e-05
-1.24126e-11
2.3106e-13
2.12397e-12
4.88903e-05
0.000214548
0.00153763
0.000333062
9.29028e-08
1.31441e-07
1.27976e-05
6.97309e-05
4.88548e-06
2.03314e-05
0.000215426
0.000268927
0.000268935
0.000268269
0.000265137
0.000205443
2.14026e-06
4.12901e-07
4.25628e-07
1.91502e-05
1.85676e-06
2.30997e-13
3.75136e-13
5.06375e-05
0.000447886
0.00152243
0.000102146
7.13058e-08
3.08296e-07
9.472e-06
3.65288e-06
1.05602e-06
1.22898e-05
0.000201349
0.000269727
0.000268539
0.000266651
0.000210695
7.91008e-05
3.95837e-05
3.20069e-07
2.37974e-07
4.32557e-06
1.411e-05
3.40437e-13
4.03091e-13
0.00011253
0.000591917
0.0014944
2.4848e-06
6.4611e-08
2.0434e-07
2.96133e-06
7.64113e-07
3.57758e-07
3.79554e-06
0.00013625
0.0002711
0.000267838
0.000214555
8.14812e-06
9.37312e-07
6.20292e-06
1.22985e-06
1.91669e-07
3.70077e-06
1.41013e-05
3.40437e-13
4.41427e-13
0.000207935
0.00064271
0.0011827
8.75705e-06
6.50016e-08
6.64963e-08
1.67901e-06
3.22938e-07
1.93349e-07
1.90184e-07
2.95031e-05
0.000170594
0.000179748
1.60534e-05
9.37317e-07
8.58699e-07
5.48104e-07
1.77973e-07
4.39472e-08
3.80036e-08
2.47937e-06
3.4114e-13
8.7047e-13
0.000222917
0.000468433
0.000170759
0.000178193
6.53411e-08
5.26482e-07
6.20069e-07
1.98678e-07
1.65357e-07
1.58106e-07
1.92571e-07
5.07184e-07
1.04895e-06
3.88925e-06
4.44186e-06
9.43561e-07
8.58067e-07
5.09562e-07
1.06937e-07
1.61458e-08
2.53325e-10
2.46985e-10
1.46098e-12
8.60172e-05
0.000311089
0.000111467
0.000117829
6.677e-08
1.45706e-06
1.45354e-06
2.35281e-07
1.58042e-07
1.54397e-07
1.20352e-06
1.06736e-06
8.07951e-06
3.93167e-05
1.97536e-05
4.91731e-07
6.92616e-06
2.84385e-05
3.56324e-05
1.70176e-05
5.53899e-06
1.92896e-12
1.46176e-12
6.70531e-05
0.000371558
0.000224246
3.43794e-06
6.95991e-08
1.28198e-06
1.48292e-06
3.67306e-07
1.54686e-07
1.54118e-07
1.54397e-07
5.15134e-06
5.13297e-05
5.01178e-05
1.50001e-05
1.90995e-07
2.55004e-05
8.66676e-05
8.66676e-05
7.51185e-05
1.81655e-05
1.12528e-12
1.54011e-12
1.79188e-05
0.000376564
0.00039967
2.10537e-07
6.98908e-08
1.62787e-07
9.69748e-07
2.74965e-07
1.54119e-07
1.53831e-07
1.53813e-07
4.72479e-05
5.13297e-05
3.93986e-05
6.08341e-07
1.35799e-07
3.01901e-05
8.66251e-05
8.66868e-05
8.65838e-05
8.82194e-06
6.03699e-13
4.83565e-12
1.05905e-08
0.00014578
0.00039874
7.05224e-05
9.50481e-08
2.01402e-07
1.66185e-07
1.54873e-07
1.54064e-07
1.54102e-07
2.38017e-05
4.66475e-05
4.20677e-05
2.77746e-08
4.64683e-10
1.3642e-08
8.9438e-06
8.61447e-05
8.66251e-05
7.60506e-05
3.84482e-13
5.57216e-13
7.49922e-12
6.26754e-13
8.59637e-13
0.000116873
0.000177099
0.000110745
2.56643e-07
1.72603e-07
1.56063e-07
1.54866e-07
1.10063e-05
3.6833e-05
3.66193e-05
-6.21579e-11
-8.19851e-12
5.07032e-13
5.16317e-13
5.4457e-13
2.283e-05
8.09133e-05
3.14781e-05
9.63442e-15
5.33041e-13
7.20923e-12
5.12698e-46
-1.31564e-14
1.04769e-13
6.25666e-05
0.000122557
0.000116534
5.67955e-05
1.53561e-05
2.85672e-06
8.64708e-06
2.47771e-09
-7.82917e-14
-4.73235e-13
9.10846e-17
3.30667e-17
-1.67661e-13
-7.17927e-12
-9.87863e-13
-2.5889e-11
1.33032e-19
8.94113e-15
5.30566e-13
8.88448e-12
0.999394
0.999867
0.999915
0.999926
0.997496
0.999204
0.999908
0.999916
0.999839
0.999865
0.999867
0.999887
0.999842
0.999852
0.998297
0.986202
0.997857
0.991369
0.671558
0.0943512
0.880466
0.748738
0.217142
0.00927774
0.0729623
0.326862
0.199838
0.00911499
0.0245233
0.17867
0.0774164
0.00520732
0.0358331
0.0184184
0.00618677
0.00272072
0.00416838
0.00518171
0.00879936
0.00725636
0.00106149
0.00747143
0.00879936
0.00891072
0.00889899
0.00899014
0.00893135
0.00702383
0.00899014
0.00903231
0.00862055
0.00249126
0.00902103
0.00902808
0.00904013
0.00377627
0.00235956
0.00815658
0.00909386
0.00903173
0.00109669
0.00148556
0.00284912
0.00752048
0.00124119
0.00137114
0.00147142
0.00162755
0.00431717
0.00169901
0.00163957
0.00150297
0.00489599
0.00490877
0.00493624
0.00436213
0.00490909
0.00493199
0.00498632
0.00502551
0.00115564
0.00498632
0.00502551
0.00503432
1.03813e-05
0.000857668
0.00399569
0.00504414
7.43641e-06
2.58844e-05
0.000707041
0.00250101
1.85542e-06
2.22908e-05
3.05303e-05
5.19087e-05
3.56146e-07
3.98671e-06
4.49463e-06
4.53038e-06
2.46147e-08
1.79669e-07
7.02826e-07
1.59513e-06
3.35801e-09
2.74566e-08
1.28669e-07
4.25972e-07
7.68566e-10
3.53332e-09
1.87966e-08
6.45402e-08
1.07181e-10
3.93382e-10
2.03507e-09
6.23918e-09
2.97222e-11
8.1587e-11
2.326e-10
4.22306e-10
6.62025e-12
8.51039e-12
2.1903e-11
2.51836e-11
1.11359e-12
2.87505e-12
4.01269e-12
4.20508e-12
3.35362e-13
3.47699e-13
9.577e-13
2.64237e-12
9.31745e-13
3.48473e-13
1.04129e-13
2.77102e-13
2.33838e-12
1.11189e-12
1.0961e-13
2.83885e-14
4.1969e-12
2.23714e-12
2.41764e-13
1.89223e-14
3.95736e-12
2.37858e-12
3.8001e-13
2.6913e-14
5.44816e-12
8.75056e-12
4.23804e-13
2.01511e-14
9.11339e-12
7.47903e-12
6.82805e-13
2.71776e-14
8.96266e-12
1.029e-11
8.93712e-13
4.00816e-14
6.26162e-12
4.63485e-12
4.03409e-13
1.68016e-14
3.49721e-12
9.46713e-13
7.47199e-14
3.01085e-15
0.999927
0.999926
0.570363
0.390542
0.626897
0.582063
0.610291
0.633738
0.804033
0.782711
0.26526
0.132799
0.175572
0.0359298
0.0646931
0.610105
0.979208
0.979218
0.928471
0.999926
0.999878
0.567305
0.100529
0.173841
0.18584
0.341818
0.412462
0.295173
0.561967
0.420208
0.132343
0.133005
0.0311051
0.0280683
0.183919
0.976033
0.979208
0.962425
0.999879
0.754251
0.127385
0.0102713
0.0886182
0.0422884
0.0576223
0.0598714
0.0563195
0.26746
0.368962
0.135232
0.083441
0.0314987
0.0269419
0.020389
0.401259
0.947135
0.973704
0.808773
0.156842
0.0108351
0.0082691
0.00722968
0.00709694
0.00714976
0.00838581
0.050335
0.214233
0.237363
0.128745
0.0296393
0.0818877
0.0761548
0.0182499
0.00974227
0.167545
0.460203
0.0257946
0.0329015
0.0202979
0.0120502
0.0103494
0.0070973
0.00709742
0.00749801
0.0354112
0.0292401
0.0143123
0.0262922
0.0293546
0.0603482
0.0800356
0.0386919
0.00899687
0.00901648
0.00899685
0.00462578
0.00259317
0.0125326
0.0142812
0.014334
0.012509
0.00717881
0.00704947
0.00828361
0.00814361
0.00289161
0.0264837
0.0517915
0.0220448
0.0584064
0.0475623
0.00905299
0.00899685
0.0124555
0.00260544
0.00225021
0.00221633
0.0034048
0.0103087
0.0126454
0.00708727
0.00668385
0.00619754
0.00604721
0.00183832
0.019817
0.0519008
0.0318724
0.0223215
0.035047
0.0110569
0.0100073
0.023542
0.00224871
0.00218409
0.0021745
0.00217249
0.00229394
0.00310498
0.0142521
0.0154841
0.00960566
0.00182199
0.0018194
0.00181881
0.0473263
0.0708591
0.0410333
0.00923764
0.00915711
0.00910373
0.023542
0.0021833
0.0021745
0.00217332
0.0021745
0.0151265
0.0146357
0.0158259
0.0159223
0.0159314
0.00252343
0.00181844
0.00182446
0.00242332
0.0714493
0.0714493
0.0185163
0.0090902
0.0091034
0.0229563
0.00727736
0.00763207
0.00845223
0.0168841
0.0168504
0.0168199
0.0141608
0.0159043
0.0159377
0.0153482
0.00269833
0.00182124
0.00215104
0.0438499
0.0714493
0.0682415
0.00912057
0.0207956
0.0233559
0.00759657
0.00782355
0.0168891
0.0168891
0.0161522
0.00170894
0.000601211
0.012315
0.0159594
0.0159213
0.00354984
0.00778009
0.00926596
0.00490747
0.0427885
0.0506271
0.00914935
0.0228122
0.0233559
0.00249179
0.00309443
0.0118766
0.0168891
0.00347565
0.000550863
0.000543488
0.00228568
0.0124524
0.00956088
0.00188377
0.0160291
0.0160312
0.00475178
0.00490747
0.010519
0.0107697
0.0113934
0.0233174
0.00241428
0.00249091
0.00862732
0.0164532
0.00245075
0.00069941
0.00180218
0.0015748
0.00156838
0.00172491
0.00188331
0.0159892
0.00810994
0.00211708
0.00593175
0.0109737
0.010781
0.00354824
0.00635639
0.00243741
0.00241428
0.00336533
0.0123496
0.0123736
0.00894215
0.0109318
0.0109318
0.0109318
0.0100689
0.0091907
0.00354554
1.06595e-06
9.68867e-07
8.85622e-05
0.00363039
0.00343338
0.00153202
0.00277851
0.00391708
0.00243884
0.00389672
0.0123736
0.00791297
5.35359e-07
0.00391171
0.00539546
0.004655
0.00373557
0.0016104
1.06595e-06
9.68868e-07
9.24074e-07
9.33614e-07
9.21215e-07
9.34754e-07
7.25955e-06
0.00029416
0.0068807
0.00332103
0.00299509
0.0120382
0.00885039
5.01749e-07
4.97153e-07
4.97558e-07
8.6027e-07
4.84172e-07
3.55271e-07
3.09885e-06
5.99219e-06
3.63562e-06
9.21211e-07
9.34755e-07
9.33058e-06
2.73083e-05
2.66941e-05
0.00567514
0.0026066
0.000730949
0.0116676
0.0109597
4.97153e-07
4.97153e-07
4.97153e-07
4.97558e-07
5.0014e-07
5.11907e-07
4.99167e-06
9.30417e-06
9.26636e-06
3.08885e-06
4.23898e-06
1.2724e-05
4.44236e-06
3.07607e-05
0.000961427
0.000732124
0.000707246
0.0100328
0.0104048
0.0002833
4.96493e-07
4.97196e-07
4.97538e-07
4.9867e-07
5.13536e-07
5.46159e-07
4.58353e-06
9.30417e-06
5.98669e-06
5.02475e-06
1.27396e-05
1.56045e-07
1.49036e-07
0.000780195
0.000706632
0.000717828
0.00399625
0.00419058
0.000267944
4.96493e-07
4.96671e-07
4.9955e-07
5.15491e-07
8.07431e-07
7.5238e-07
5.08322e-07
9.14454e-06
7.29573e-06
3.98652e-07
8.75709e-06
5.54849e-06
2.3227e-07
0.00441474
0.000752521
0.000711047
0.000648458
0.000585243
0.000130367
8.61473e-07
5.74356e-07
5.13905e-07
4.20603e-06
8.87572e-06
4.25999e-06
4.17363e-07
5.27265e-06
3.76816e-06
2.9965e-07
8.80149e-07
1.08764e-05
9.17592e-07
0.00502551
0.0021081
0.000720942
0.00309835
0.00159293
5.027e-06
6.66598e-07
6.25677e-07
2.31975e-06
1.15912e-05
1.1479e-05
3.78813e-06
1.79497e-08
3.3201e-08
5.67988e-07
3.00527e-07
7.60764e-06
1.08777e-05
9.32093e-07
0.0049845
0.00210866
0.000753767
0.00751982
0.00241252
1.61246e-06
7.48767e-07
6.66725e-07
1.45607e-05
1.43049e-05
1.62753e-06
1.79491e-08
1.79491e-08
7.85686e-08
9.38527e-08
7.05159e-06
1.98373e-05
9.68475e-06
4.25418e-08
0.00295818
0.000716815
0.000759958
0.00771893
0.00167771
1.68764e-06
1.03124e-06
8.80548e-07
1.62793e-05
8.56694e-06
1.89958e-08
1.84639e-08
1.79319e-08
1.876e-08
4.09523e-06
1.90272e-05
1.82188e-05
3.43727e-07
2.26583e-08
9.21012e-05
7.14556e-05
0.00101464
0.00784794
0.00199659
4.87701e-05
1.6899e-06
2.46063e-06
1.65908e-05
1.0778e-05
2.76876e-08
1.89955e-08
1.87561e-08
3.79061e-08
7.35825e-06
1.90272e-05
1.82606e-06
2.26583e-08
2.2658e-08
1.16117e-05
4.36266e-05
0.00140542
0.00788787
0.00780575
0.000846564
4.7139e-06
3.08037e-06
1.68676e-05
1.72387e-05
3.43145e-06
2.43542e-07
8.34808e-07
8.71302e-06
1.46217e-05
1.41464e-05
1.12265e-06
2.26601e-08
2.2658e-08
4.86372e-06
1.16181e-05
0.00127899
0.00786376
0.00684793
0.000751103
6.14508e-06
2.28254e-06
1.20655e-05
1.73827e-05
1.62315e-05
1.16946e-05
1.357e-05
1.35031e-05
1.18374e-05
4.42626e-07
4.46823e-09
2.52194e-08
2.26602e-08
1.40603e-06
4.35534e-06
0.000773663
0.00526283
0.00134803
0.000219727
1.73918e-06
3.92061e-07
1.21867e-06
8.00729e-06
1.56982e-05
1.5954e-05
1.5954e-05
1.24174e-05
4.92219e-10
3.77092e-11
3.8486e-09
1.27034e-07
5.65983e-08
2.94919e-07
1.52614e-05
0.000134979
0.000189858
1.89006e-05
5.12899e-06
3.43828e-07
1.02292e-08
5.47216e-10
7.23273e-11
9.2202e-07
3.74897e-06
2.33705e-06
-2.95103e-11
3.16689e-11
3.14719e-11
8.73713e-08
1.3637e-07
7.94454e-08
6.89177e-08
1.75941e-06
1.93435e-06
8.49924e-06
1.80913e-06
2.22616e-07
2.14073e-08
9.60219e-10
7.16975e-11
3.28834e-11
3.12557e-11
3.12554e-11
3.12554e-11
3.12613e-11
3.13879e-11
3.14186e-11
1.25721e-07
1.3637e-07
4.69755e-08
2.92656e-09
2.07291e-08
1.43276e-07
7.15754e-07
1.36137e-07
1.54924e-08
1.43821e-09
1.12108e-10
3.01351e-11
2.98049e-11
3.12807e-11
3.42114e-11
4.5875e-11
5.23661e-11
4.2535e-11
3.15235e-11
2.89963e-08
6.35039e-08
1.18538e-08
1.25032e-10
1.28268e-09
9.32543e-09
4.68344e-08
8.23604e-09
8.8327e-10
9.39265e-11
2.04323e-11
2.46327e-11
2.75e-11
2.98626e-11
3.27145e-11
4.46549e-11
5.99375e-11
4.05525e-11
9.93427e-10
2.3521e-12
2.29191e-12
2.29181e-12
7.53213e-12
6.89057e-11
4.86774e-10
2.45078e-09
4.13964e-10
5.29433e-11
1.16046e-11
1.2864e-11
1.41222e-11
1.44237e-11
1.64967e-11
2.0693e-11
2.83694e-11
3.76809e-11
3.3215e-11
2.79206e-10
5.22916e-11
5.16655e-12
3.48137e-12
1.60999e-12
5.45036e-12
2.66625e-11
1.07721e-10
2.26894e-11
5.30636e-12
5.69062e-12
6.44974e-12
5.91516e-12
6.62071e-12
7.76007e-12
1.00242e-11
1.44708e-11
1.73899e-11
1.54798e-11
3.90005e-12
7.45166e-13
4.04303e-12
1.17457e-11
9.9664e-13
1.5056e-12
2.97507e-12
7.03854e-12
2.95862e-12
2.49782e-12
2.43379e-12
2.07515e-12
2.22006e-12
2.72209e-12
3.12777e-12
3.83267e-12
5.53218e-12
7.2667e-12
4.70172e-12
1.00137e-12
4.27135e-13
4.40859e-12
1.55413e-11
7.90697e-14
5.07079e-13
1.28118e-12
1.39275e-12
1.62509e-12
7.7646e-13
5.84505e-13
6.24257e-13
7.48278e-13
9.77014e-13
1.07342e-12
1.19312e-12
1.60211e-12
1.98339e-12
1.14751e-12
2.51194e-13
2.76846e-13
3.47079e-12
9.51685e-12
8.02489e-15
3.84185e-14
1.81943e-13
6.22545e-13
2.28485e-13
1.31957e-13
1.44247e-13
1.73942e-13
2.2371e-13
3.00087e-13
3.09528e-13
3.00814e-13
3.58714e-13
3.84647e-13
2.10377e-13
4.82674e-14
1.59685e-13
2.22251e-12
3.33485e-12
2.27221e-15
4.11004e-15
1.3449e-14
4.19297e-14
2.40968e-14
2.66678e-14
3.45867e-14
4.38292e-14
5.72622e-14
7.57502e-14
7.17452e-14
5.86573e-14
5.93545e-14
5.27653e-14
2.6009e-14
7.60587e-15
7.93941e-14
1.19459e-12
8.05404e-13
1.06835e-15
9.15768e-16
1.64645e-15
3.48574e-15
3.59194e-15
5.667e-15
7.65563e-15
9.55409e-15
1.19778e-14
1.49154e-14
1.26864e-14
8.43756e-15
6.73784e-15
4.73922e-15
1.89999e-15
1.34044e-15
3.19136e-14
5.17997e-13
1.56269e-13
5.03639e-16
2.9414e-16
3.61762e-16
4.72078e-16
6.32259e-16
1.14705e-15
1.49298e-15
1.72272e-15
1.97203e-15
2.22299e-15
1.67607e-15
8.94225e-16
5.25318e-16
2.62394e-16
6.40427e-17
3.00059e-16
9.9583e-15
1.77973e-13
2.96042e-14
4.74323e-16
9.35612e-17
9.23159e-17
8.6439e-17
1.08505e-16
2.09203e-16
2.48973e-16
2.48952e-16
2.50115e-16
2.51546e-16
1.68117e-16
7.13981e-17
2.76054e-17
5.93536e-18
-1.87473e-18
5.78088e-17
2.26189e-15
4.59611e-14
5.68665e-15
1.91501e-16
2.51723e-17
2.10439e-17
1.573e-17
1.65937e-17
3.34325e-17
3.51232e-17
2.85881e-17
2.43031e-17
2.19214e-17
1.31067e-17
4.34008e-18
7.6257e-19
-4.51009e-19
-3.96921e-19
7.6742e-18
3.43419e-16
7.96624e-15
8.86408e-16
3.56536e-17
5.17222e-18
3.858e-18
2.46511e-18
2.18015e-18
4.60599e-18
4.19919e-18
2.65245e-18
1.81788e-18
1.49064e-18
8.07713e-19
1.95411e-19
-2.20588e-20
-6.48748e-20
-2.93384e-20
7.06522e-19
3.37662e-17
8.04218e-16
9.25374e-17
)
;

boundaryField
{
    leftWall
    {
        type            zeroGradient;
    }
    rightWall
    {
        type            zeroGradient;
    }
    lowerWall
    {
        type            zeroGradient;
    }
    atmosphere
    {
        type            inletOutlet;
        inletValue      uniform 0;
        value           nonuniform List<scalar> 
46
(
0
0
0
6.25666e-05
0.000122557
0.000116534
5.67955e-05
1.53561e-05
2.85672e-06
8.64708e-06
0
0
0
0
0
0
0
0
0
0
0
0
0
3.49721e-12
9.46713e-13
7.47199e-14
3.01085e-15
3.56536e-17
5.17222e-18
3.858e-18
2.46511e-18
2.18015e-18
4.60599e-18
4.19919e-18
2.65245e-18
1.81788e-18
1.49064e-18
8.07713e-19
1.95411e-19
-2.20588e-20
-6.48748e-20
-2.93384e-20
7.06522e-19
3.37662e-17
8.04218e-16
9.25374e-17
)
;
    }
    defaultFaces
    {
        type            empty;
    }
}


// ************************************************************************* //
