/*--------------------------------*- C++ -*----------------------------------*\
| =========                 |                                                 |
| \\      /  F ield         | OpenFOAM: The Open Source CFD Toolbox           |
|  \\    /   O peration     | Version:  2.3.0                                 |
|   \\  /    A nd           | Web:      www.OpenFOAM.org                      |
|    \\/     M anipulation  |                                                 |
\*---------------------------------------------------------------------------*/
FoamFile
{
    version     2.0;
    format      ascii;
    class       volScalarField;
    location    "1.5";
    object      p;
}
// * * * * * * * * * * * * * * * * * * * * * * * * * * * * * * * * * * * * * //

dimensions      [1 -1 -2 0 0 0 0];

internalField   nonuniform List<scalar> 
2268
(
627.781
626.776
642.708
666.81
665.156
642.204
642.728
675.904
719.277
756.253
786.728
812.847
835.448
855.518
873.93
893.296
915.142
937.025
956.501
974.681
989.737
1000.42
1006.86
567.769
564.922
580.861
602.279
602.15
576.61
574.503
611.794
660.779
700.093
730.15
755.013
777.129
796.926
814.766
833.18
854.93
877.671
898.652
917.888
933.198
943.32
949.699
506.543
501.463
518.763
536.617
538.813
510.475
505.575
545.555
601.442
643.262
672.757
697.173
719.14
738.604
755.47
773.054
794.552
818.001
840.434
860.579
875.846
886.283
892.785
444.942
441.122
457.567
471.171
469.658
445.05
436.874
477.311
540.976
585.373
614.799
639.342
661.495
680.628
695.901
711.758
733.522
759.301
783.002
802.871
817.721
828.438
835.214
383.224
383.697
389.439
396.509
395.636
376.983
371.576
409.872
480.13
527.363
556.931
581.773
604.456
623.203
636.104
649.422
671.35
701.274
727.669
746.452
759.048
769.138
775.017
321.903
322.794
321.418
317.538
317.338
306.647
320.457
346.315
420.57
470.503
500.342
525.535
548.614
566.521
575.946
585.616
607.244
642.993
673.683
691.831
700.32
707.965
709.855
263.177
255.913
257.441
245.901
245.013
243.115
272.231
288.851
364.875
416.133
446.119
470.989
494.028
510.217
514.699
519.963
541.793
584.341
620.352
637.736
641.597
643.781
632.574
215.025
197.318
199.995
180.329
185.46
196.018
220.424
247.778
316.002
366.122
395.948
419.596
441.017
454.072
454.751
464.018
485.948
527.94
566.015
582.397
581.473
577.225
537.597
577.065
598.575
622.115
607.173
586.787
573.603
563.12
561.451
548.092
514.047
501.67
519.288
522.169
528.534
551.448
564.97
553.045
562.894
602.69
516.964
535.67
562.29
545.996
524.788
517.74
511.646
507.414
487.85
449.314
442.743
465.316
460.505
464.135
492.465
511.183
495.97
497.594
542.886
451.438
468.982
500.235
488.168
468.526
465.415
465.512
455.139
427.893
379.321
376.67
404.167
396.828
396.544
429.634
459.922
442.233
431.71
484.056
381.033
398.493
441.098
434.297
418.036
414.759
415.061
403.207
372.82
313.158
308.137
330.894
324.7
337.659
369.389
412.339
392.11
387.797
439.609
309.211
328.944
387.614
383.946
366.61
359.949
360.368
350.248
322.913
258.906
244.827
250.063
264.436
290.829
331.163
363.123
339.802
350.964
404.14
238.695
261.004
337.805
336.466
310.763
300.211
302.663
295.601
276.409
229.643
189.572
175.702
204.323
211.567
275.747
305.546
278.066
305.484
364.866
177.393
194.72
286.104
284.195
253.783
236.534
243.603
247.485
233.817
198.567
149.352
130.522
140.908
108.895
183.819
231.889
214.795
254.126
318.486
88.6364
126.42
228.839
225.598
199.859
170.827
181.08
191.009
189.945
169.011
134.411
109.17
108.804
84.996
100.782
144.453
163.865
203.763
269.374
148.817
129.343
116.26
75.999
100.072
146.218
170.452
194.039
242.374
293.671
325.696
346.1
362.2
373.356
383.558
399.442
421.799
446.251
474.604
489.359
481.875
454.533
321.115
64.6718
37.7115
14.5864
9.04314
17.2606
50.5723
73.9827
86.8706
150.018
203.897
244.457
261.403
266.204
278.028
296.427
312.739
327.081
330.017
335.223
346.796
348.11
328.656
285.728
26.3673
10.5111
4.65554
4.55847
5.67115
7.52482
6.31721
-2.15041
65.1782
113.993
161.911
183.39
188.474
200.401
212.007
215.953
212.789
210.239
211.207
217.621
234.745
238.24
218.158
7.16945
5.84729
2.32807
1.74147
1.64725
0.860583
-4.12576
-8.24441
7.53918
31.1739
59.7565
83.2414
110.363
132.382
135.243
119.797
98.7251
94.637
111.845
126.501
140.271
152.209
147.132
3.9343
2.1068
0.702588
0.224771
-0.0993102
-0.574054
-2.4149
-4.11456
-0.688694
11.3428
18.9415
17.9791
18.2578
24.4608
35.0078
35.5909
32.6714
32.6612
43.4717
58.3748
59.9907
69.5504
71.5555
1.41201
0.574038
0.207406
-0.130414
-0.440688
-0.699303
-1.00246
-1.18514
-1.05423
-0.23916
0.68123
1.17661
1.3077
1.31836
2.44674
6.36757
11.4974
9.66166
4.80583
4.27289
10.302
35.5473
48.7111
0.478785
0.182995
0.0285578
-0.227589
-0.479688
-0.584141
-0.591415
-0.4804
-0.152589
0.369845
0.730183
0.947444
1.09711
1.07142
1.05922
1.81276
4.47539
3.11621
1.76896
0.97192
0.481875
0.379408
1.24408
0.162784
0.000659841
-0.13349
-0.330993
-0.502558
-0.576145
-0.573888
-0.469195
-0.174938
0.2148
0.558213
0.708677
0.62519
0.66268
0.470691
0.26531
1.05041
1.11742
0.975628
0.493101
0.216719
0.287409
0.661879
-0.0515614
-0.152289
-0.248681
-0.421455
-0.569163
-0.682241
-0.71987
-0.646786
-0.390217
-0.000281392
0.33356
0.423908
0.339462
0.0613324
0.297292
-0.0122662
0.149027
0.504657
0.530209
0.128702
-0.115719
0.0113301
0.696509
-0.211838
-0.263447
-0.320687
-0.489227
-0.621125
-0.766527
-0.866161
-0.849243
-0.62847
-0.239487
0.132472
0.241029
0.137022
-0.356153
-0.380554
-0.460763
-0.278654
-0.0243746
0.00442339
-0.223403
-0.30823
-0.154764
0.487154
-0.358713
-0.389518
-0.429918
-0.566168
-0.667014
-0.799814
-0.914541
-0.932092
-0.782906
-0.544105
-0.291926
-0.163628
-0.603039
-1.1086
-1.06938
-0.795068
-0.617523
-0.531132
-0.274733
-0.24057
-0.256654
-0.115426
0.285856
-0.59415
-0.645694
-0.662482
-0.674922
-0.746858
-0.816418
-0.875452
-0.882152
-0.824703
-0.796251
-0.988535
-1.06293
-1.18265
-1.26415
-1.21643
-1.10643
-0.957773
-0.820854
-0.291519
-0.0484536
0.0337181
0.0953773
0.0768474
-1.02339
-1.02377
-0.915369
-0.834596
-0.896633
-0.91407
-0.912669
-0.872942
-0.852626
-0.912214
-1.15661
-1.2398
-1.26612
-1.35581
-1.42385
-1.42757
-1.32765
-1.13316
-0.758447
-0.2084
0.0576735
0.235453
0.0142071
-1.55498
-1.49536
-1.23789
-1.05977
-1.10688
-1.10746
-1.0876
-1.04038
-1.00002
-1.04628
-1.16773
-1.27432
-1.389
-1.5222
-1.64019
-1.71094
-1.68312
-1.54832
-1.37648
-0.639622
-0.101504
0.104869
-0.130433
-1.95546
-1.92243
-1.58192
-1.38694
-1.37703
-1.35707
-1.32067
-1.28185
-1.23305
-1.244
-1.3147
-1.42596
-1.55531
-1.69749
-1.83994
-1.95536
-1.99454
-1.91831
-1.84661
-1.38475
-0.552862
-0.199377
-0.498984
-2.18919
-2.22253
-1.94157
-1.83844
-1.73953
-1.63306
-1.55578
-1.50564
-1.4699
-1.47388
-1.52207
-1.61405
-1.73249
-1.87058
-2.02687
-2.17456
-2.26743
-2.23903
-2.18118
-2.05109
-1.34636
-0.829305
-1.11919
-2.32174
-2.37044
-2.25859
-2.2777
-2.0944
-1.89422
-1.78103
-1.7197
-1.69145
-1.69751
-1.74072
-1.81582
-1.91691
-2.0451
-2.20022
-2.36192
-2.49265
-2.51663
-2.48298
-2.47964
-2.22012
-1.67258
-1.75729
-2.34081
-2.39835
-2.48703
-2.55017
-2.31686
-2.10113
-1.97868
-1.91523
-1.8931
-1.90392
-1.94497
-2.0122
-2.10366
-2.22241
-2.36493
-2.52085
-2.66479
-2.74538
-2.73855
-2.75377
-2.75833
-2.52956
-2.37581
-2.28619
-2.39798
-2.64432
-2.64962
-2.42205
-2.24993
-2.14398
-2.08919
-2.07463
-2.0909
-2.13304
-2.19907
-2.28838
-2.39939
-2.52774
-2.6667
-2.80227
-2.90542
-2.95479
-2.99768
-3.07806
-3.14047
-3.08687
-2.26667
-2.40627
-2.56933
-2.61146
-2.46171
-2.34982
-2.27831
-2.24116
-2.23702
-2.26003
-2.30638
-2.37491
-2.46474
-2.57236
-2.69215
-2.81812
-2.94214
-3.05097
-3.13606
-3.21866
-3.34296
-3.53015
-3.67435
-2.27964
-2.39399
-2.45644
-2.4951
-2.46108
-2.42055
-2.38793
-2.37438
-2.38325
-2.41412
-2.46598
-2.53869
-2.631
-2.7385
-2.85512
-2.97575
-3.09604
-3.21125
-3.32022
-3.43708
-3.59825
-3.82701
-4.11358
-2.31097
-2.3535
-2.39871
-2.44146
-2.47064
-2.48493
-2.48752
-2.49628
-2.51812
-2.55675
-2.61442
-2.69222
-2.78859
-2.89815
-3.01426
-3.13287
-3.25273
-3.37409
-3.50065
-3.64523
-3.83562
-4.10052
-4.43952
-2.35115
-2.36204
-2.38786
-2.44963
-2.51461
-2.56041
-2.58914
-2.61571
-2.64788
-2.69218
-2.75401
-2.83659
-2.93818
-3.0519
-3.16966
-3.28686
-3.40485
-3.52643
-3.65825
-3.81365
-4.01844
-4.30451
-4.6721
-2.42008
-2.40923
-2.42859
-2.50599
-2.59217
-2.65671
-2.70429
-2.7448
-2.78466
-2.82913
-2.89137
-2.97857
-3.0866
-3.20632
-3.32571
-3.43919
-3.55152
-3.6655
-3.78903
-3.9343
-4.12297
-4.38059
-4.70852
-2.55467
-2.49594
-2.49665
-2.60379
-2.70735
-2.78523
-2.8485
-2.90287
-2.94702
-2.99179
-3.06773
-3.1725
-3.28491
-3.39262
-3.49671
-3.59813
-3.69785
-3.79513
-3.8989
-4.01887
-4.16878
-4.36099
-4.58891
-2.83457
-2.68979
-2.60052
-2.76985
-2.87705
-2.96406
-3.04458
-3.11786
-3.17615
-3.25707
-3.36754
-3.49036
-3.58333
-3.64707
-3.71119
-3.78028
-3.85158
-3.92355
-3.99844
-4.0852
-4.18993
-4.31364
-4.44487
-3.25437
-3.07839
-2.84272
-3.04401
-3.12334
-3.21596
-3.31965
-3.42561
-3.53597
-3.68009
-3.82609
-3.95073
-3.99728
-3.99772
-3.99883
-4.00573
-4.02082
-4.05424
-4.09617
-4.14685
-4.20986
-4.27877
-4.34105
-3.63536
-3.53482
-3.30773
-3.4129
-3.45576
-3.55528
-3.68878
-3.84314
-4.04394
-4.24941
-4.43285
-4.52572
-4.52543
-4.46386
-4.3638
-4.26886
-4.20866
-4.18547
-4.19047
-4.20736
-4.23731
-4.26847
-4.28836
-3.95668
-3.96043
-3.84776
-3.83555
-3.8717
-3.98057
-4.15723
-4.39458
-4.69671
-4.99055
-5.18517
-5.25052
-5.18162
-4.99442
-4.74673
-4.52121
-4.37541
-4.28823
-4.25888
-4.26025
-4.27179
-4.28149
-4.27981
-4.28339
-4.37084
-4.35283
-4.29021
-4.34415
-4.46282
-4.6952
-5.03779
-5.42949
-5.77117
-5.9873
-6.06453
-5.92465
-5.57477
-5.12336
-4.72121
-4.46603
-4.33412
-4.28893
-4.29835
-4.31036
-4.31451
-4.30647
-4.60484
-4.72506
-4.77277
-4.75664
-4.80544
-4.93326
-5.20385
-5.60446
-6.043
-6.41634
-6.69725
-6.79157
-6.59078
-6.11372
-5.48269
-4.89881
-4.52576
-4.35256
-4.30149
-4.326
-4.35776
-4.36861
-4.36318
-4.89866
-5.02275
-5.11536
-5.15139
-5.17623
-5.31792
-5.5983
-6.00333
-6.44156
-6.84468
-7.16846
-7.26273
-7.03195
-6.48776
-5.76737
-5.09653
-4.64684
-4.42374
-4.35841
-4.38318
-4.4311
-4.44989
-4.44897
-5.1182
-5.23379
-5.36103
-5.39235
-5.42196
-5.57728
-5.84465
-6.22197
-6.64045
-7.03646
-7.34947
-7.43984
-7.2104
-6.66143
-5.95358
-5.31884
-4.86443
-4.60648
-4.51256
-4.51334
-4.5506
-4.56629
-4.56359
-5.24561
-5.35297
-5.49344
-5.49717
-5.56042
-5.71885
-5.96052
-6.29296
-6.66433
-7.01154
-7.28615
-7.36305
-7.14417
-6.65017
-6.04958
-5.5313
-5.14299
-4.88829
-4.75656
-4.71432
-4.71641
-4.71536
-4.70286
-5.29229
-5.38118
-5.49881
-5.51036
-5.62329
-5.77569
-5.98591
-6.26491
-6.5718
-6.85646
-7.05359
-7.09388
-6.91329
-6.53268
-6.08721
-5.70489
-5.41861
-5.2169
-5.06354
-4.96459
-4.91394
-4.8854
-4.85878
-5.2979
-5.36204
-5.43398
-5.48406
-5.64282
-5.7851
-5.96175
-6.17946
-6.41066
-6.62118
-6.75992
-6.78187
-6.64963
-6.37733
-6.07136
-5.82291
-5.65309
-5.53129
-5.3845
-5.22722
-5.12583
-5.07884
-5.02264
-5.30374
-5.35526
-5.38028
-5.46682
-5.64395
-5.77702
-5.92063
-6.08049
-6.23933
-6.37999
-6.47571
-6.49132
-6.39522
-6.20586
-6.01815
-5.88853
-5.8313
-5.79731
-5.67223
-5.46763
-5.31719
-5.24845
-5.17631
-5.33299
-5.37485
-5.37242
-5.4717
-5.64665
-5.77594
-5.88626
-5.9937
-6.08919
-6.1705
-6.22636
-6.23148
-6.15969
-6.04407
-5.95337
-5.91172
-5.94069
-5.98684
-5.88271
-5.62776
-5.47643
-5.38108
-5.31003
-5.39256
-5.42025
-5.39738
-5.4932
-5.65391
-5.79343
-5.8731
-5.93068
-5.96854
-5.99847
-6.02031
-6.0215
-5.97718
-5.92675
-5.8981
-5.89554
-5.96724
-6.02356
-5.92735
-5.72849
-5.58348
-5.48988
-5.42461
-5.47319
-5.4861
-5.47451
-5.51839
-5.67298
-5.83767
-5.88663
-5.88928
-5.87074
-5.85407
-5.85099
-5.86106
-5.8659
-5.87432
-5.88059
-5.88461
-5.91075
-5.93564
-5.86848
-5.738
-5.64184
-5.57239
-5.52114
-5.56846
-5.56134
-5.55141
-5.56245
-5.74915
-5.93101
-5.93384
-5.8725
-5.80364
-5.74017
-5.71407
-5.77348
-5.84745
-5.90378
-5.93144
-5.92281
-5.87973
-5.82988
-5.77574
-5.7085
-5.65533
-5.62328
-5.59896
-5.69632
-5.7082
-5.74023
-5.85536
-6.07339
-6.13619
-5.97418
-5.80776
-5.69053
-5.66319
-5.72552
-5.82037
-5.92446
-6.01552
-6.06947
-6.06549
-5.97419
-5.84133
-5.75025
-5.7117
-5.69637
-5.69013
-5.68623
33.6332
17.4386
61.2866
63.8503
224.409
195.238
173.711
143.797
177.417
147.936
122.279
104.429
128.52
113.739
97.9101
78.2501
55.1187
46.673
40.4692
31.8301
23.7081
11.5241
13.5769
14.5863
4.8006
9.53154
6.40044
7.63543
0.978068
3.92919
-0.341756
2.11536
1.89103
-0.875016
-1.26845
0.357776
1.0718
1.10993
0.899148
1.19214
0.472885
0.421088
0.645361
0.703615
-0.340562
-0.803419
-1.12281
-1.22132
-1.08036
-1.9541
-2.48283
-2.76871
-1.66122
-3.13844
-3.83573
-4.33906
-2.28759
-4.14166
-5.41527
-6.09645
-2.29861
-3.54342
-5.35368
-6.81822
-2.61344
-3.3732
-4.3029
-5.15971
-3.02483
-3.5085
-3.89083
-4.18967
-3.34361
-3.57841
-3.84557
-4.03439
-3.85377
-3.99218
-4.1496
-4.26756
-4.28708
-4.39269
-4.59952
-4.78594
-4.67666
-4.81703
-4.9958
-5.23428
-4.95099
-5.12028
-5.29846
-5.44876
-4.97607
-5.14636
-5.28663
-5.35541
-4.76931
-4.8808
-4.96559
-4.99268
-4.53591
-4.58807
-4.62266
-4.63135
-4.37191
-4.38416
-4.38857
-4.38698
-4.2869
-4.27872
-4.26492
-4.25004
-4.26477
-4.24923
-4.22892
-4.20571
-4.28882
-4.27321
-4.25375
-4.23113
-4.34849
-4.33558
-4.31953
-4.30083
-4.43805
-4.42794
-4.41525
-4.4004
-4.55328
-4.54433
-4.53343
-4.52097
-4.68899
-4.67878
-4.6675
-4.65548
-4.83786
-4.82443
-4.811
-4.79777
-4.99153
-4.9736
-4.95714
-4.94198
-5.13863
-5.11761
-5.09905
-5.08256
-5.27195
-5.25067
-5.23205
-5.21574
-5.39025
-5.37114
-5.35456
-5.34015
-5.49468
-5.48005
-5.46742
-5.45644
-5.58697
-5.57965
-5.57287
-5.56665
-5.68194
-5.67954
-5.67734
-5.6753
31.8352
49.3637
141.279
136.306
122.174
94.4525
108.888
124.095
127.657
119.661
115.789
94.3511
79.4637
72.0052
66.1952
67.7599
96.7181
134.668
198.612
86.8606
51.3077
54.3014
43.1045
60.043
49.5673
44.2296
59.1979
70.2951
63.3892
82.4989
85.6173
56.4771
57.9115
53.9074
48.7532
49.7323
76.095
125.571
79.4619
36.7446
18.8972
22.5338
24.9093
23.8987
22.3571
25.3646
36.482
40.407
59.8827
66.47
42.6783
51.1538
46.4816
38.1127
41.6069
70.5323
84.3106
52.7841
20.4249
16.7156
19.2297
17.7686
18.3088
18.3442
17.8822
18.4913
24.2302
35.5848
43.3019
35.4971
41.9343
35.6819
30.6421
25.5169
31.0551
48.8385
21.1886
15.8513
15.5848
19.0724
16.6124
16.0219
15.8639
12.7234
7.21699
6.02337
8.34551
19.1776
25.2393
23.5759
24.0391
23.1678
20.6407
19.5698
19.8442
14.1423
13.0737
12.3111
13.2224
13.3654
13.7166
13.2794
7.83742
2.21075
1.54001
2.95227
6.37334
15.4599
16.9908
15.4843
16.3177
16.8959
16.4431
17.096
9.71396
10.63
10.0846
9.99672
10.6651
11.6145
12.2871
6.92703
1.08478
1.1101
1.89069
2.57325
8.36514
12.5712
10.2499
10.9684
12.8351
11.1668
13.2306
6.31989
8.40315
8.68412
8.53942
9.1729
10.3375
10.6574
6.64731
1.56968
1.32573
1.55009
1.6434
3.31308
6.92974
7.35399
8.32381
9.12096
8.16308
9.42287
4.64271
6.9998
7.7125
7.75745
7.12585
7.11587
5.81485
3.91514
1.36911
1.58714
1.7596
1.98954
2.39132
3.60442
4.31321
6.3614
6.57864
7.43853
6.71718
3.63332
5.44583
6.57735
6.62912
3.54715
-0.152228
-1.87308
-1.21167
-0.361865
1.59009
2.30331
2.68157
2.6077
2.33133
1.27874
2.39984
4.35464
4.76251
4.51408
0.786293
1.76753
3.90769
3.67784
-0.464223
-2.89739
-3.63694
-3.85312
-2.30818
1.51627
2.89718
3.06947
1.95567
0.530994
0.430205
1.3911
2.54817
0.380033
2.41741
-1.27656
-0.915125
0.230818
0.38041
-2.08282
-3.35407
-4.13102
-4.66148
-3.25089
1.24152
2.81944
2.11784
0.601262
-0.26293
-0.55356
0.278693
1.50971
-0.594521
0.73958
-3.11755
-3.16072
-2.82013
-1.64731
-2.33529
-3.28556
-4.02
-3.92106
-2.01428
1.05578
2.14966
0.272353
-0.953434
-1.17125
-1.15934
-0.593325
0.0790168
-0.84018
-0.675108
-5.3182
-5.77014
-5.23618
-3.77881
-2.85063
-2.95626
-3.29102
-2.75972
-1.14413
0.201031
0.407505
-1.45296
-1.63203
-1.62399
-1.70053
-1.59686
-1.55842
-1.78239
-1.55909
-7.21202
-8.07208
-7.36633
-4.61986
-3.18989
-3.10948
-2.92073
-2.55137
-2.0676
-1.70522
-1.69326
-1.87899
-1.85362
-1.86587
-1.8997
-1.93222
-1.94208
-1.96376
-1.91663
-7.89266
-8.53768
-7.20733
-4.28184
-3.04868
-3.09365
-3.01433
-2.78866
-2.46113
-2.21136
-2.09755
-2.10485
-2.07001
-2.06554
-2.07134
-2.07499
-2.074
-2.07737
-2.06044
-6.04488
-6.20684
-5.29798
-3.85252
-2.84767
-3.13182
-3.11141
-2.91144
-2.61204
-2.41334
-2.32203
-2.30325
-2.27489
-2.2553
-2.24039
-2.22679
-2.2226
-2.2179
-2.2093
-4.62437
-4.67076
-4.08488
-3.2341
-2.89421
-3.15987
-3.20159
-3.08598
-2.82085
-2.63889
-2.54682
-2.50648
-2.47511
-2.44595
-2.41813
-2.39307
-2.38102
-2.37272
-2.36712
-4.27049
-4.17874
-3.64174
-3.0057
-3.12673
-3.26471
-3.35843
-3.27809
-3.0281
-2.8562
-2.76149
-2.7092
-2.67122
-2.6356
-2.59932
-2.56548
-2.54475
-2.53648
-2.52989
-4.44845
-4.12283
-3.56194
-3.07069
-3.28126
-3.42856
-3.49678
-3.44113
-3.20066
-3.04897
-2.95923
-2.90258
-2.8597
-2.81876
-2.77565
-2.73296
-2.70549
-2.69751
-2.68958
-4.85526
-4.24845
-3.63764
-3.15561
-3.46565
-3.59268
-3.61832
-3.55635
-3.35209
-3.21274
-3.13152
-3.07569
-3.03046
-2.9856
-2.93874
-2.89076
-2.86067
-2.8554
-2.8456
-5.3444
-4.65148
-3.93885
-3.42481
-3.64938
-3.72405
-3.75209
-3.65526
-3.46364
-3.33898
-3.26826
-3.21786
-3.17389
-3.12903
-3.08232
-3.04003
-3.01213
-3.00728
-2.99741
-5.52858
-5.0094
-4.2961
-3.93062
-3.87719
-3.81563
-3.87359
-3.73616
-3.54264
-3.43042
-3.3703
-3.33149
-3.29184
-3.25214
-3.21238
-3.18046
-3.16139
-3.15023
-3.14344
-5.30642
-5.04263
-4.49518
-4.21487
-4.11203
-3.90583
-3.94269
-3.78387
-3.59913
-3.50126
-3.45534
-3.4225
-3.39265
-3.3633
-3.33719
-3.31427
-3.30203
-3.28974
-3.28426
-4.9434
-4.80831
-4.40744
-4.20279
-4.22298
-3.96773
-3.92969
-3.78948
-3.64482
-3.57051
-3.53582
-3.5115
-3.49205
-3.47505
-3.46086
-3.44729
-3.43443
-3.42538
-3.42109
-4.60097
-4.4987
-4.18015
-3.92325
-3.92832
-3.84854
-3.85919
-3.77912
-3.69417
-3.6503
-3.62733
-3.61152
-3.60093
-3.59281
-3.58442
-3.57461
-3.5645
-3.55813
-3.55496
-4.36412
-4.25686
-3.9691
-3.68712
-3.74085
-3.76009
-3.80468
-3.78692
-3.75754
-3.7404
-3.7298
-3.72197
-3.71708
-3.7126
-3.70671
-3.69944
-3.69303
-3.689
-3.68678
-4.21331
-4.09157
-3.86079
-3.70814
-3.67967
-3.76281
-3.81448
-3.83176
-3.83553
-3.83619
-3.83623
-3.83553
-3.83436
-3.83221
-3.82862
-3.82461
-3.82114
-3.81881
-3.81735
-4.1546
-4.03294
-3.86492
-3.74011
-3.76339
-3.82972
-3.87973
-3.91118
-3.92899
-3.93948
-3.9463
-3.95051
-3.9527
-3.95317
-3.95232
-3.95077
-3.94924
-3.94813
-3.94729
-4.18329
-4.08566
-3.97602
-3.89889
-3.91052
-3.94739
-3.98678
-4.0173
-4.03834
-4.05285
-4.06287
-4.06968
-4.0742
-4.07668
-4.07771
-4.07782
-4.0776
-4.07737
-4.07704
-4.26283
-4.19191
-4.1195
-4.06914
-4.06944
-4.08938
-4.11646
-4.14082
-4.16006
-4.17464
-4.18546
-4.19342
-4.19882
-4.20245
-4.20465
-4.20583
-4.20647
-4.20684
-4.20691
-4.37107
-4.31967
-4.27017
-4.23577
-4.2307
-4.23981
-4.25658
-4.27414
-4.28967
-4.30247
-4.31261
-4.32042
-4.32619
-4.33026
-4.33301
-4.33483
-4.33598
-4.33673
-4.33707
-4.4972
-4.45819
-4.4222
-4.39695
-4.3887
-4.3913
-4.40065
-4.41238
-4.42399
-4.43436
-4.44309
-4.45016
-4.45566
-4.45979
-4.46281
-4.46485
-4.46619
-4.46718
-4.46767
-4.63394
-4.6017
-4.5731
-4.55252
-4.54279
-4.54137
-4.54564
-4.55284
-4.56096
-4.56885
-4.57592
-4.58195
-4.58686
-4.59071
-4.59365
-4.59578
-4.59733
-4.59825
-4.59877
-4.77578
-4.74647
-4.72167
-4.70347
-4.69305
-4.68918
-4.69005
-4.6939
-4.69918
-4.70485
-4.7103
-4.71519
-4.71935
-4.72276
-4.72544
-4.72747
-4.72893
-4.72987
-4.7304
-4.91829
-4.88993
-4.86712
-4.85032
-4.83969
-4.83444
-4.83316
-4.83465
-4.83775
-4.8416
-4.84561
-4.84941
-4.8528
-4.85567
-4.858
-4.85982
-4.86114
-4.86203
-4.86253
-5.05776
-5.03022
-5.00895
-4.99335
-4.98296
-4.97721
-4.97467
-4.97461
-4.97615
-4.97858
-4.9814
-4.98424
-4.98689
-4.98922
-4.99117
-4.99272
-4.99387
-4.99466
-4.9951
-5.19169
-5.16612
-5.14687
-5.13283
-5.12316
-5.1177
-5.11454
-5.11359
-5.1141
-5.11551
-5.11738
-5.11942
-5.12142
-5.12323
-5.12479
-5.12606
-5.12701
-5.12768
-5.12804
-5.31909
-5.29724
-5.28097
-5.26915
-5.26096
-5.25584
-5.25285
-5.25158
-5.2515
-5.25222
-5.2534
-5.2548
-5.25622
-5.25757
-5.25875
-5.25973
-5.26048
-5.261
-5.26129
-5.44045
-5.42395
-5.41166
-5.40271
-5.39644
-5.39237
-5.38991
-5.38869
-5.38838
-5.38869
-5.38937
-5.39026
-5.39121
-5.39213
-5.39296
-5.39365
-5.39419
-5.39457
-5.39477
-5.55728
-5.54727
-5.5397
-5.53415
-5.53022
-5.5276
-5.52598
-5.52513
-5.52483
-5.52492
-5.52526
-5.52575
-5.52629
-5.52683
-5.52732
-5.52774
-5.52806
-5.52829
-5.52841
-5.67221
-5.66884
-5.66626
-5.66436
-5.66299
-5.66207
-5.66148
-5.66115
-5.66102
-5.66102
-5.66112
-5.66126
-5.66143
-5.66161
-5.66177
-5.66192
-5.66203
-5.6621
-5.66214
)
;

boundaryField
{
    leftWall
    {
        type            calculated;
        value           nonuniform List<scalar> 
50
(
627.781
567.769
506.543
444.942
383.224
321.903
263.177
215.025
148.817
64.6718
26.3673
7.16945
3.9343
1.41201
0.478785
0.162784
-0.0515614
-0.211838
-0.358713
-0.59415
-1.02339
-1.55498
-1.95546
-2.18919
-2.32174
-2.34081
-2.28619
-2.26667
-2.27964
-2.31097
-2.35115
-2.42008
-2.55467
-2.83457
-3.25437
-3.63536
-3.95668
-4.28339
-4.60484
-4.89866
-5.1182
-5.24561
-5.29229
-5.2979
-5.30374
-5.33299
-5.39256
-5.47319
-5.56846
-5.69632
)
;
    }
    rightWall
    {
        type            calculated;
        value           nonuniform List<scalar> 
50
(
602.69
542.886
484.056
439.609
404.14
364.866
318.486
269.374
198.612
125.571
84.3106
48.8385
19.8442
17.096
13.2306
9.42287
6.71718
4.51408
2.41741
0.73958
-0.675108
-1.55909
-1.91663
-2.06044
-2.2093
-2.36712
-2.52989
-2.68958
-2.8456
-2.99741
-3.14344
-3.28426
-3.42109
-3.55496
-3.68678
-3.81735
-3.94729
-4.07704
-4.20691
-4.33707
-4.46767
-4.59877
-4.7304
-4.86253
-4.9951
-5.12804
-5.26129
-5.39477
-5.52841
-5.66214
)
;
    }
    lowerWall
    {
        type            calculated;
        value           nonuniform List<scalar> 
62
(
657.21
656.205
672.137
696.235
694.556
671.628
672.158
705.333
748.707
785.683
816.157
842.276
864.877
884.947
903.357
922.724
944.57
966.432
985.39
1003.54
1018.64
1029.83
1036.29
1006.86
949.699
892.785
835.214
775.017
709.855
632.574
537.597
96.1926
80.0275
123.879
126.443
577.065
516.964
451.438
381.033
309.211
238.695
177.393
88.6364
606.316
627.829
651.368
636.426
616.039
601.131
588.623
586.983
574.539
540.147
527.727
546.085
551.09
557.4
578.12
591.642
579.787
589.222
629.017
)
;
    }
    atmosphere
    {
        type            calculated;
        value           nonuniform List<scalar> 
46
(
-5.73328
-5.73459
-5.73657
-6.08713
-6.43047
-6.396
-6.0541
-5.81693
-5.74539
-5.77853
-5.80023
-5.8879
-5.99441
-6.1043
-6.17733
-6.18887
-6.08347
-5.90402
-5.7926
-5.76553
-5.74276
-5.73309
-5.72947
-5.72904
-5.72904
-5.72904
-5.72904
-5.72904
-5.72904
-5.72904
-5.72904
-5.72904
-5.72904
-5.72904
-5.72904
-5.72904
-5.72904
-5.72904
-5.72904
-5.72904
-5.72904
-5.72904
-5.72904
-5.72904
-5.72904
-5.72904
)
;
    }
    defaultFaces
    {
        type            empty;
    }
}


// ************************************************************************* //
