/*--------------------------------*- C++ -*----------------------------------*\
| =========                 |                                                 |
| \\      /  F ield         | OpenFOAM: The Open Source CFD Toolbox           |
|  \\    /   O peration     | Version:  2.3.0                                 |
|   \\  /    A nd           | Web:      www.OpenFOAM.org                      |
|    \\/     M anipulation  |                                                 |
\*---------------------------------------------------------------------------*/
FoamFile
{
    version     2.0;
    format      ascii;
    class       surfaceScalarField;
    location    "1.5";
    object      phi;
}
// * * * * * * * * * * * * * * * * * * * * * * * * * * * * * * * * * * * * * //

dimensions      [0 3 -1 0 0 0 0];

internalField   nonuniform List<scalar> 
4432
(
-3.2173e-06
3.2173e-06
-4.18759e-06
9.70294e-07
2.56067e-06
-6.74826e-06
1.61342e-05
-1.35735e-05
2.87512e-05
-1.2617e-05
3.31091e-05
-4.35789e-06
2.8801e-05
4.30812e-06
2.03036e-05
8.49742e-06
1.3672e-05
6.63152e-06
1.11495e-05
2.52255e-06
1.12071e-05
-5.75967e-08
1.21502e-05
-9.43117e-07
1.32077e-05
-1.05751e-06
1.43056e-05
-1.09784e-06
1.52565e-05
-9.50974e-07
1.4825e-05
4.31559e-07
1.14099e-05
3.41503e-06
6.55088e-06
4.85905e-06
3.22228e-06
3.3286e-06
1.90644e-06
1.31584e-06
8.52091e-07
1.05435e-06
2.43601e-07
6.08486e-07
2.43606e-07
-3.79441e-06
7.01171e-06
-5.02438e-06
2.20026e-06
1.49984e-06
-1.32725e-05
1.46272e-05
-2.67009e-05
2.92461e-05
-2.72359e-05
3.55634e-05
-1.06752e-05
3.40326e-05
5.83893e-06
2.95421e-05
1.29879e-05
2.40298e-05
1.21439e-05
1.82621e-05
8.29023e-06
1.37026e-05
4.50188e-06
1.18243e-05
9.35216e-07
1.23583e-05
-1.59155e-06
1.35494e-05
-2.28894e-06
1.46996e-05
-2.10118e-06
1.70829e-05
-1.95169e-06
2.01312e-05
3.66662e-07
2.03919e-05
4.59842e-06
1.66861e-05
7.03441e-06
1.1423e-05
6.57894e-06
7.12085e-06
5.35645e-06
3.61447e-06
4.11486e-06
3.85808e-06
-4.21152e-06
1.12232e-05
-5.73857e-06
3.72731e-06
-1.00961e-06
-1.80015e-05
6.51522e-06
-3.42257e-05
2.29327e-05
-4.36534e-05
3.45296e-05
-2.22721e-05
3.35421e-05
6.82646e-06
2.75803e-05
1.89497e-05
2.18839e-05
1.78402e-05
1.62786e-05
1.38955e-05
1.18176e-05
8.96288e-06
1.03261e-05
2.42671e-06
1.13351e-05
-2.60054e-06
1.29418e-05
-3.89568e-06
1.38891e-05
-3.04842e-06
1.51648e-05
-3.22737e-06
1.87087e-05
-3.17727e-06
2.24336e-05
8.73466e-07
2.20432e-05
7.42489e-06
1.72403e-05
1.13818e-05
1.14121e-05
1.11846e-05
6.10458e-06
9.42241e-06
9.96266e-06
-5.42639e-06
1.66496e-05
-6.33734e-06
4.63826e-06
-3.92222e-06
-2.04166e-05
-3.62198e-06
-3.4526e-05
8.80357e-06
-5.6079e-05
2.68183e-05
-4.02868e-05
3.13925e-05
2.25229e-06
2.52207e-05
2.51215e-05
1.82505e-05
2.48104e-05
1.30854e-05
1.90607e-05
1.02032e-05
1.18451e-05
9.96291e-06
2.66698e-06
1.14089e-05
-4.04657e-06
1.29402e-05
-5.427e-06
1.35233e-05
-3.63151e-06
1.39317e-05
-3.63568e-06
1.63528e-05
-5.59837e-06
2.04771e-05
-3.25091e-06
2.25081e-05
5.39392e-06
1.98833e-05
1.40066e-05
1.43988e-05
1.66691e-05
8.19674e-06
1.56245e-05
1.81594e-05
-5.22495e-06
2.18746e-05
-3.38509e-06
2.79839e-06
-4.03732e-06
-1.97643e-05
-8.52853e-06
-3.00347e-05
-5.6027e-06
-5.90048e-05
1.29824e-05
-5.88719e-05
2.61555e-05
-1.09209e-05
2.32925e-05
2.79845e-05
1.63879e-05
3.17151e-05
1.16713e-05
2.37772e-05
1.02106e-05
1.33058e-05
1.10409e-05
1.83671e-06
1.29957e-05
-6.00141e-06
1.45379e-05
-6.96923e-06
1.45153e-05
-3.6089e-06
1.38378e-05
-2.95821e-06
1.50457e-05
-6.80621e-06
1.88531e-05
-7.05832e-06
2.20924e-05
2.15457e-06
2.15166e-05
1.45824e-05
1.71088e-05
2.10769e-05
1.06047e-05
2.21286e-05
2.8764e-05
-3.11768e-06
2.49922e-05
2.52132e-06
-2.84061e-06
1.32694e-06
-1.85699e-05
-4.30646e-06
-2.44013e-05
-1.24655e-05
-5.08458e-05
-2.88002e-06
-6.84573e-05
1.91291e-05
-3.293e-05
2.1205e-05
2.59087e-05
1.62235e-05
3.66965e-05
1.21714e-05
2.78293e-05
1.15159e-05
1.39614e-05
1.31533e-05
1.99285e-07
1.59783e-05
-8.82642e-06
1.80845e-05
-9.07546e-06
1.75952e-05
-3.11958e-06
1.56798e-05
-1.04278e-06
1.56693e-05
-6.79575e-06
1.9035e-05
-1.0424e-05
2.27144e-05
-1.52485e-06
2.36705e-05
1.36263e-05
2.03855e-05
2.43618e-05
1.36715e-05
2.88426e-05
4.24356e-05
-3.54716e-07
2.5347e-05
8.13474e-06
-1.13301e-05
1.14501e-05
-2.18853e-05
9.55619e-06
-2.25075e-05
-6.33825e-06
-3.49513e-05
-1.55184e-05
-5.92772e-05
7.0964e-06
-5.55448e-05
1.74033e-05
1.56018e-05
1.67037e-05
3.73961e-05
1.38739e-05
3.06591e-05
1.36809e-05
1.41544e-05
1.59351e-05
-2.05488e-06
2.01323e-05
-1.30236e-05
2.31049e-05
-1.20481e-05
2.18456e-05
-1.86029e-06
1.85034e-05
2.29938e-06
1.8068e-05
-6.3603e-06
2.16242e-05
-1.39802e-05
2.53304e-05
-5.23103e-06
2.69619e-05
1.19948e-05
2.4818e-05
2.65057e-05
1.90563e-05
3.46043e-05
6.14919e-05
3.40569e-06
2.19413e-05
1.30942e-05
-2.10185e-05
2.09721e-05
-2.97632e-05
2.56502e-05
-2.71855e-05
9.39895e-06
-1.87001e-05
-1.90319e-05
-3.08464e-05
-6.04364e-06
-6.85331e-05
1.36612e-05
-4.103e-06
1.78989e-05
3.31584e-05
1.69502e-05
3.16078e-05
1.69898e-05
1.41148e-05
1.95592e-05
-4.62428e-06
2.43184e-05
-1.77828e-05
2.69853e-05
-1.4715e-05
2.36951e-05
1.42988e-06
1.99123e-05
6.08221e-06
2.15644e-05
-8.01246e-06
2.70315e-05
-1.94473e-05
3.03417e-05
-8.54119e-06
3.15856e-05
1.07509e-05
3.04736e-05
2.76178e-05
2.37845e-05
4.12934e-05
8.52764e-05
-1.14807e-07
1.14807e-07
6.22569e-06
-6.3405e-06
1.92641e-05
-1.30384e-05
2.5309e-05
-6.04496e-06
2.06522e-05
4.65682e-06
1.29129e-05
7.73933e-06
1.33744e-05
-4.61512e-07
2.36756e-05
-1.03012e-05
3.38646e-05
-1.0189e-05
3.23841e-05
1.48052e-06
2.53611e-05
7.02296e-06
2.24542e-05
2.90698e-06
1.69308e-05
5.52339e-06
4.12382e-06
1.2807e-05
-1.0719e-05
1.48428e-05
-1.68257e-05
6.10676e-06
-2.09958e-05
4.17006e-06
-1.78821e-05
-3.11374e-06
-1.78821e-05
-2.5868e-06
2.70161e-06
9.48749e-07
-9.87605e-06
1.30681e-05
-2.51577e-05
2.35355e-05
-1.65124e-05
2.61927e-05
1.9996e-06
2.34736e-05
1.04585e-05
2.32174e-05
-2.05336e-07
2.84481e-05
-1.55319e-05
3.47609e-05
-1.65019e-05
3.57021e-05
5.39373e-07
2.8288e-05
1.4437e-05
1.42924e-05
1.69026e-05
7.09914e-06
1.27167e-05
5.90213e-06
1.40039e-05
-3.20568e-06
2.39506e-05
-1.24507e-05
1.53518e-05
-1.63236e-05
8.04295e-06
-1.32576e-05
-6.1797e-06
-3.11397e-05
-6.30814e-06
9.00975e-06
-2.83212e-06
-1.33521e-05
7.21089e-06
-3.52007e-05
1.59658e-05
-2.52673e-05
2.02308e-05
-2.26544e-06
2.22973e-05
8.39202e-06
2.47291e-05
-2.63719e-06
2.50925e-05
-1.58953e-05
2.71028e-05
-1.85121e-05
2.6535e-05
1.10722e-06
1.61478e-05
2.48242e-05
-3.64709e-06
3.66974e-05
-1.50047e-05
2.40743e-05
-5.5751e-06
4.57436e-06
6.21809e-06
1.21574e-05
8.03796e-06
1.35319e-05
-9.45534e-07
1.70264e-05
-4.50368e-06
-2.62155e-06
-3.56434e-05
-5.9712e-06
1.49809e-05
1.17623e-06
-2.04995e-05
6.99144e-06
-4.10159e-05
8.61004e-06
-2.68859e-05
1.31523e-05
-6.8077e-06
1.88644e-05
2.67993e-06
2.15111e-05
-5.28386e-06
1.55425e-05
-9.92666e-06
1.39817e-05
-1.69514e-05
1.36472e-05
1.44173e-06
1.79342e-06
3.66779e-05
-2.05772e-05
5.90681e-05
-3.31834e-05
3.66804e-05
-2.09084e-05
-7.70064e-06
-1.95058e-07
-8.55585e-06
1.89924e-05
-5.65557e-06
2.04329e-05
1.5586e-05
1.01336e-05
7.67783e-06
-2.55098e-05
-2.16816e-06
1.71491e-05
9.7517e-06
-3.24193e-05
1.39315e-05
-4.51957e-05
7.01912e-06
-1.99735e-05
9.28097e-06
-9.06954e-06
1.48386e-05
-2.87776e-06
1.52603e-05
-5.70547e-06
5.6416e-06
-3.08007e-07
5.75919e-07
-1.18857e-05
9.66532e-07
1.05113e-06
-1.33792e-05
5.10237e-05
-3.7571e-05
8.32599e-05
-3.71516e-05
3.6261e-05
-2.22753e-05
-2.25769e-05
-9.64516e-06
-2.1186e-05
1.50645e-05
-3.03653e-05
2.46457e-05
6.00483e-06
1.67813e-05
1.55422e-05
-8.72856e-06
2.81561e-06
1.43335e-05
1.94108e-05
-4.90145e-05
2.54295e-05
-5.12144e-05
1.13904e-05
-5.9345e-06
4.41552e-06
-2.09463e-06
7.0157e-06
-5.47795e-06
1.02924e-05
-8.98219e-06
5.67077e-06
4.31364e-06
-3.93554e-06
-2.27937e-06
-1.02247e-05
7.34024e-06
-2.63614e-05
6.71604e-05
-4.38285e-05
0.000100727
-2.89668e-05
2.13994e-05
-2.1489e-05
-3.00548e-05
-9.12196e-06
-3.35531e-05
1.18464e-05
-5.13336e-05
2.1051e-05
-3.19976e-06
1.65681e-05
2.00251e-05
7.83958e-06
1.24226e-05
1.91086e-06
2.8543e-05
-6.51349e-05
3.48092e-05
-5.74805e-05
1.73666e-05
1.15081e-05
2.144e-06
1.31279e-05
5.23363e-06
-8.56758e-06
1.19231e-05
-1.56717e-05
9.96291e-06
6.27386e-06
-4.46761e-06
1.21511e-05
-1.50514e-05
1.7924e-05
-2.83115e-05
8.04205e-05
-3.40556e-05
0.000106471
-2.04829e-05
7.8267e-06
-3.17385e-05
-1.87992e-05
-2.23293e-05
-4.29622e-05
1.04288e-06
-7.47058e-05
1.45247e-05
-1.66816e-05
1.32169e-05
2.13329e-05
2.10565e-05
2.61549e-05
-2.42441e-05
3.8264e-05
-7.7244e-05
4.17665e-05
-6.09831e-05
2.34174e-05
2.98573e-05
7.93588e-06
2.86094e-05
7.59915e-06
-8.23085e-06
1.47467e-05
-2.28192e-05
1.27055e-05
8.31503e-06
-2.70285e-06
2.75595e-05
-1.31575e-05
2.83787e-05
-1.76773e-05
8.49403e-05
-1.26468e-05
0.000101441
-5.49878e-06
6.78631e-07
-3.87996e-05
1.45016e-05
-3.16697e-05
-5.00922e-05
-8.72182e-06
-9.76536e-05
7.44682e-06
-3.28502e-05
8.57584e-06
2.02039e-05
2.96323e-05
2.51955e-05
-3.25427e-06
4.96537e-05
-4.54767e-05
8.5349e-05
-6.54585e-05
0.000102931
-4.47679e-05
7.3795e-05
1.04363e-05
-1.71892e-05
6.01378e-05
-3.94958e-05
-4.62264e-05
7.18212e-06
-5.0781e-05
3.30308e-05
7.30966e-06
4.23592e-05
2.22794e-05
4.60625e-05
1.04115e-05
5.20435e-05
-1.06053e-05
5.74985e-05
-2.32378e-05
5.50687e-05
-1.22852e-05
4.71628e-05
9.33575e-06
4.77605e-05
5.48458e-06
6.13799e-05
-2.16319e-05
7.53429e-05
-3.34103e-05
8.36144e-05
-1.68127e-05
8.68434e-05
7.52196e-06
9.04661e-05
2.39951e-05
0.00010097
3.07899e-05
4.43937e-05
0.000141852
3.2853e-05
-3.61072e-05
0.000102285
-0.000114909
0.00020003
-0.000163203
0.000212852
-5.75896e-05
0.000123145
0.000100143
1.16651e-05
0.000171617
-5.17185e-05
1.71572e-05
-2.99423e-05
-7.25572e-05
1.11607e-05
-3.37934e-05
3.52552e-05
-1.81512e-06
4.97263e-05
-4.05957e-06
5.95689e-05
-2.04479e-05
5.84504e-05
-2.21194e-05
5.04774e-05
-4.31216e-06
4.82185e-05
1.15946e-05
5.78507e-05
-4.14756e-06
6.87085e-05
-3.24897e-05
7.75611e-05
-4.22629e-05
8.75732e-05
-2.68248e-05
9.69337e-05
-1.83845e-06
0.000107315
1.36134e-05
0.000121795
1.63102e-05
1.82621e-05
0.000147927
5.88165e-05
-9.49238e-05
0.000157373
-0.000213466
0.000225944
-0.000231773
0.000228461
-6.01069e-05
0.00017712
0.000151484
9.03374e-05
0.0002584
-6.58738e-06
0.000114082
-4.65374e-05
-3.26072e-05
-2.36272e-05
-5.67035e-05
5.47031e-06
-3.09127e-05
2.80759e-05
-2.66651e-05
4.29488e-05
-3.53207e-05
4.74946e-05
-2.66652e-05
5.3201e-05
-1.00185e-05
6.20345e-05
2.76103e-06
6.3048e-05
-5.161e-06
5.22217e-05
-2.16634e-05
4.89668e-05
-3.9008e-05
5.94176e-05
-3.72756e-05
7.54872e-05
-1.79081e-05
9.15786e-05
-2.47799e-06
0.000106229
1.65935e-06
4.08159e-07
0.000124083
9.87455e-05
-0.000193669
0.000185791
-0.000300512
0.00020675
-0.000252732
0.000251455
-0.000104812
0.000271142
0.000131797
0.00022888
0.000300662
0.000112353
0.000230609
2.10105e-05
5.87354e-05
-2.61897e-05
-9.50326e-06
-1.39158e-05
-4.31866e-05
1.56842e-05
-5.62651e-05
4.15207e-05
-6.11573e-05
5.72654e-05
-4.24099e-05
7.05798e-05
-2.33329e-05
8.35701e-05
-1.02292e-05
7.94908e-05
-1.08166e-06
5.3701e-05
4.12633e-06
3.33285e-05
-1.86355e-05
3.30635e-05
-3.70106e-05
4.50041e-05
-2.98487e-05
6.15616e-05
-1.90354e-05
7.75866e-05
-1.43657e-05
-1.29055e-05
9.09003e-05
6.09782e-05
-0.000254648
7.5997e-05
-0.00031553
7.60657e-05
-0.000252801
0.00014142
-0.000170166
0.000258652
1.45646e-05
0.00032537
0.000233944
0.000290917
0.000265062
0.000171104
0.000178549
0.000104093
5.7507e-05
8.70858e-05
-2.61789e-05
0.000105594
-7.47737e-05
0.00012506
-8.0623e-05
0.000125646
-4.29962e-05
0.00011446
-1.2147e-05
0.000110174
-5.94335e-06
0.000107491
1.60203e-06
9.71885e-05
1.44286e-05
7.55813e-05
2.97165e-06
5.71685e-05
-1.85978e-05
4.94392e-05
-2.21194e-05
5.37867e-05
-2.33829e-05
6.61965e-05
-2.67755e-05
-2.95967e-05
8.28877e-05
2.6984e-05
-0.000281632
8.26145e-06
-0.000296808
-3.22909e-06
-0.00024131
2.94411e-05
-0.000202836
0.000138212
-9.42063e-05
0.000274408
9.77475e-05
0.000329158
0.000210313
0.000307451
0.000200256
0.000250967
0.000113992
0.000217159
7.62815e-06
0.00019988
-5.74942e-05
0.000166256
-4.69998e-05
0.000116445
6.81496e-06
6.82327e-05
3.60657e-05
3.42727e-05
2.80166e-05
5.74779e-05
-2.16031e-05
0.0001107
-3.87932e-05
0.000157113
-4.34418e-05
0.000188901
-5.03854e-05
0.000187675
-2.08934e-05
0.000165367
-1.0753e-06
0.000150903
-1.23111e-05
-2.4387e-05
0.000145693
3.17269e-06
-0.000284804
-1.74198e-05
-0.000276215
-2.20246e-05
-0.000236706
-9.60878e-06
-0.000215252
3.76297e-05
-0.000141445
0.000145097
-9.71971e-06
0.000241908
0.000113502
0.000274393
0.000167771
0.000245817
0.000142567
0.000198974
5.4471e-05
0.000148522
-7.04224e-06
8.23012e-05
1.9221e-05
2.68818e-06
8.64279e-05
-2.66489e-05
6.54027e-05
1.07027e-05
-9.33503e-06
7.12414e-05
-8.21418e-05
0.000121608
-8.91601e-05
0.000155256
-7.70894e-05
0.000198501
-9.36304e-05
0.000247461
-6.98539e-05
0.000262518
-1.61323e-05
0.000237237
1.29701e-05
1.84747e-06
0.000211002
-4.52684e-06
-0.000280277
-1.32923e-05
-0.00026745
-1.39676e-05
-0.00023603
-1.50686e-05
-0.000214151
1.24279e-06
-0.000157756
5.96198e-05
-6.80966e-05
0.00013899
3.41308e-05
0.000192691
0.00011407
0.00019853
0.000136729
0.000152033
0.000100968
8.69925e-05
5.79982e-05
4.27206e-06
0.000101941
-1.77316e-05
0.000108431
4.41314e-05
3.53956e-06
9.19178e-05
-5.71214e-05
0.000108203
-9.8427e-05
0.000101912
-8.28693e-05
9.82196e-05
-7.33968e-05
0.000131967
-0.000127377
0.000175498
-0.000113385
0.000199413
-4.0048e-05
0.000201676
1.07072e-05
1.75873e-05
0.000185937
-1.39662e-05
-0.000266311
-1.38327e-05
-0.000267583
-1.0646e-05
-0.000239217
-1.85169e-05
-0.00020628
-1.10182e-05
-0.000165255
2.03546e-05
-9.94694e-05
7.09069e-05
-1.64214e-05
0.000114542
7.04352e-05
0.000126547
0.000124724
9.93757e-05
0.000128139
5.46296e-05
0.000102744
2.61585e-05
0.000130412
7.21457e-05
6.24443e-05
0.000104477
-2.87918e-05
0.000119014
-7.16585e-05
0.00011264
-9.20534e-05
8.12927e-05
-5.15216e-05
7.61224e-05
-6.82268e-05
8.90589e-05
-0.000140314
0.000108967
-0.000133293
0.000118125
-4.92056e-05
0.000105914
2.29185e-05
9.54845e-05
2.8016e-05
-2.23115e-05
-0.000243999
-1.42166e-05
-0.000275678
-2.68756e-06
-0.000250746
-1.93291e-05
-0.000189638
-2.57261e-05
-0.000158857
-1.39316e-05
-0.000111264
1.13167e-05
-4.16696e-05
3.83437e-05
4.34083e-05
4.16054e-05
0.000121462
6.57283e-06
0.000163171
-2.89083e-06
0.000112208
4.93385e-05
7.81832e-05
9.57639e-05
1.60189e-05
0.000107285
-4.03132e-05
0.00012275
-8.71229e-05
0.000109618
-7.89214e-05
8.70539e-05
-2.89578e-05
8.61792e-05
-6.73524e-05
7.0279e-05
-0.000124414
6.59754e-05
-0.000128989
5.73228e-05
-4.05529e-05
1.72026e-05
6.30387e-05
0.000180522
-6.78347e-05
-2.55899e-05
-0.00021841
-1.36769e-05
-0.000287591
5.55729e-06
-0.00026998
-1.15945e-05
-0.000172486
-3.54339e-05
-0.000135018
-4.47351e-05
-0.000101963
-4.21511e-05
-4.42535e-05
-3.64282e-05
3.76854e-05
-3.62949e-05
0.000121329
-2.86798e-05
0.000155556
1.19995e-05
7.15284e-05
6.60561e-05
2.41265e-05
0.000103987
-2.19118e-05
0.000132201
-6.85276e-05
0.00013921
-9.41313e-05
0.00013819
-7.79014e-05
0.000122809
-1.35769e-05
9.28457e-05
-3.73891e-05
5.769e-05
-8.92578e-05
3.62293e-05
-0.000107529
9.2942e-06
-1.36176e-05
-4.9285e-05
0.000121618
0.000248411
-0.000117174
-2.4414e-05
-0.000193996
-1.41155e-05
-0.000297889
7.14974e-06
-0.000291245
2.13845e-06
-0.000167475
-3.18736e-05
-0.000101006
-5.71035e-05
-7.67324e-05
-7.07626e-05
-3.05942e-05
-6.7453e-05
3.43757e-05
-4.44313e-05
9.83068e-05
4.38435e-06
0.000106741
4.96593e-05
2.62535e-05
0.000101924
-2.81383e-05
0.000148417
-6.8405e-05
0.000180522
-0.000100633
0.00018664
-0.000100249
0.000177769
-6.90309e-05
0.000162414
1.77843e-06
0.000100721
2.43034e-05
5.32542e-05
-4.17904e-05
1.93598e-05
-7.36346e-05
-1.0423e-05
1.61653e-05
-6.70934e-05
0.000178288
0.000295432
-0.000114113
-2.26054e-05
-0.00017139
-1.28659e-05
-0.000307629
4.77027e-06
-0.000308881
1.57025e-05
-0.000178407
-1.53045e-05
-6.99988e-05
-4.29034e-05
-4.91334e-05
-5.24045e-05
-2.1093e-05
-3.78071e-05
1.97784e-05
1.61865e-06
5.88811e-05
6.49725e-05
4.33868e-05
0.000110732
-1.95062e-05
0.000152409
-6.98147e-05
0.000178158
-9.41546e-05
0.000178051
-0.000100525
0.000167059
-8.9256e-05
0.000156667
-5.86388e-05
0.000146733
1.17119e-05
9.29549e-05
7.80817e-05
4.94667e-05
1.6979e-06
1.19898e-05
-3.61578e-05
-1.00873e-05
3.82423e-05
-5.04628e-05
0.000218664
0.000334213
-8.9244e-05
-1.95413e-05
-0.000151849
-7.43642e-06
-0.000319733
3.73628e-06
-0.000320054
2.36294e-05
-0.0001983
4.10568e-06
-5.04749e-05
-2.1127e-05
-2.39006e-05
-2.48562e-05
-1.73638e-05
-1.41084e-06
-3.66683e-06
4.61004e-05
1.13699e-05
9.55603e-05
-6.0731e-06
0.000120719
-4.46645e-05
0.000125463
-7.45595e-05
0.00011992
-8.86112e-05
0.000112617
-9.32224e-05
0.000108869
-8.55075e-05
0.000109577
-5.93468e-05
0.000115536
5.753e-06
9.86458e-05
9.49715e-05
4.48956e-05
5.54482e-05
5.11865e-06
3.61918e-06
-8.77455e-07
4.42384e-05
-3.78616e-06
0.000221573
0.000366774
-3.63477e-05
-1.04548e-05
-0.000141394
5.55221e-06
-0.000335741
8.90333e-06
-0.000323405
2.27794e-05
-0.000212176
1.19928e-05
-3.96884e-05
-1.08972e-05
-1.01059e-06
-1.64847e-05
-1.17763e-05
-3.02494e-06
-1.71265e-05
2.63793e-05
-1.80343e-05
5.11196e-05
-3.08134e-05
5.93148e-05
-5.28596e-05
5.66017e-05
-7.18462e-05
5.34384e-05
-8.5448e-05
5.501e-05
-9.4794e-05
6.1598e-05
-9.20957e-05
7.06289e-05
-6.83778e-05
8.84683e-05
-1.20864e-05
0.000102223
8.12163e-05
5.15519e-05
0.00010612
1.76262e-05
3.75449e-05
1.01625e-05
5.17022e-05
4.59882e-05
0.000185747
0.000362922
4.98404e-05
3.78168e-06
-0.000145176
2.01559e-05
-0.000352115
1.61944e-05
-0.000319444
1.36837e-05
-0.000209665
2.7085e-06
-2.87133e-05
-1.54177e-05
1.71155e-05
-2.19344e-05
-5.2598e-06
-1.78818e-05
-2.11792e-05
-4.90552e-06
-3.10108e-05
4.23284e-06
-3.99519e-05
5.09635e-06
-5.37232e-05
1.81684e-06
-6.85667e-05
-4.87966e-08
-8.35825e-05
2.48753e-06
-9.73304e-05
1.13129e-05
-0.000100921
2.65347e-05
-8.35998e-05
5.24254e-05
-3.79771e-05
8.67031e-05
4.69387e-05
7.69084e-05
0.000115914
3.60777e-05
7.83756e-05
2.0666e-05
6.71139e-05
7.05634e-05
0.000135849
0.000294878
0.000138608
2.03206e-05
-0.000165496
3.0141e-05
-0.000361935
1.67626e-05
-0.000306065
-4.63733e-06
-0.000188265
-2.1214e-05
-1.21367e-05
-3.20983e-05
2.79998e-05
-3.6525e-05
-8.33147e-07
-3.66356e-05
-2.10687e-05
-3.40486e-05
-3.35977e-05
-3.28477e-05
-4.11528e-05
-3.5902e-05
-5.06689e-05
-4.0266e-05
-6.42027e-05
-4.38973e-05
-7.99513e-05
-4.50423e-05
-9.61854e-05
-4.10364e-05
-0.000104927
-2.67024e-05
-9.79336e-05
2.17143e-06
-6.68508e-05
5.06201e-05
-1.50966e-06
8.60148e-05
8.05195e-05
5.82069e-05
0.000106183
4.17628e-05
8.35578e-05
6.84622e-05
0.00010915
0.000206162
0.000157178
3.14156e-05
-0.000196912
2.91877e-05
-0.000359708
1.17581e-06
-0.000278053
-3.44958e-05
-0.000152594
-5.37181e-05
7.08568e-06
-5.5463e-05
2.97447e-05
-5.65984e-05
3.02219e-07
-5.82247e-05
-1.94423e-05
-5.94429e-05
-3.23795e-05
-6.06634e-05
-3.99323e-05
-6.35554e-05
-4.77769e-05
-6.84592e-05
-5.9299e-05
-7.43325e-05
-7.40781e-05
-8.07877e-05
-8.97302e-05
-8.43689e-05
-0.000101346
-7.89668e-05
-0.000103336
-5.72949e-05
-8.85229e-05
-9.54951e-06
-4.9255e-05
5.19218e-05
1.9048e-05
7.59202e-05
8.21851e-05
6.15799e-05
9.78981e-05
7.04722e-05
0.000100258
0.000151379
0.000125255
3.32674e-05
-0.000230179
1.53501e-05
-0.00034179
-2.78183e-05
-0.000234885
-7.01332e-05
-0.000110279
-8.3612e-05
2.05645e-05
-7.81446e-05
2.42772e-05
-7.72278e-05
-6.1461e-07
-7.91433e-05
-1.75269e-05
-8.12645e-05
-3.02584e-05
-8.23951e-05
-3.88018e-05
-8.34542e-05
-4.67179e-05
-8.60468e-05
-5.67066e-05
-9.11015e-05
-6.90234e-05
-9.90337e-05
-8.17978e-05
-0.000107877
-9.25023e-05
-0.00011271
-9.85029e-05
-0.000105531
-9.57026e-05
-7.68001e-05
-7.79859e-05
-1.79455e-05
-3.98066e-05
4.55024e-05
1.87373e-05
7.03349e-05
7.30655e-05
7.76151e-05
9.29774e-05
0.000124009
0.000104985
2.40587e-05
-0.000254238
-1.44227e-05
-0.000303309
-6.1722e-05
-0.000187585
-0.000101383
-7.06179e-05
-0.000104082
2.32641e-05
-9.58747e-05
1.60693e-05
-9.52749e-05
-1.21439e-06
-9.79189e-05
-1.4883e-05
-0.000100587
-2.75898e-05
-0.000101337
-3.8052e-05
-0.000100371
-4.76841e-05
-9.93994e-05
-5.7678e-05
-0.000100452
-6.79703e-05
-0.000104779
-7.74712e-05
-0.000112171
-8.51109e-05
-0.000120401
-9.02722e-05
-0.000124142
-9.19623e-05
-0.000114497
-8.76303e-05
-8.13976e-05
-7.29062e-05
-2.04447e-05
-4.22156e-05
4.52873e-05
7.33328e-06
7.53702e-05
6.28945e-05
0.000102028
9.73513e-05
5.04251e-06
-0.000259281
-4.03773e-05
-0.000257889
-8.25546e-05
-0.000145408
-0.00011539
-3.77825e-05
-0.000112732
2.06061e-05
-0.000107288
1.06251e-05
-0.000109257
7.55012e-07
-0.000113579
-1.05616e-05
-0.000117294
-2.38747e-05
-0.000118249
-3.70964e-05
-0.000116154
-4.97795e-05
-0.000112458
-6.13745e-05
-0.000109277
-7.11504e-05
-0.000108236
-7.85124e-05
-0.000110003
-8.33442e-05
-0.000114314
-8.59613e-05
-0.000119275
-8.70012e-05
-0.000120006
-8.68994e-05
-0.000108369
-8.45435e-05
-7.50068e-05
-7.55776e-05
-1.61228e-05
-5.15508e-05
4.93269e-05
-2.55527e-06
6.42505e-05
8.71041e-05
-1.62124e-05
-0.000243068
-5.43708e-05
-0.000219731
-8.844e-05
-0.000111339
-0.000112753
-1.34691e-05
-0.000112336
2.01887e-05
-0.000113546
1.18355e-05
-0.000119603
6.81153e-06
-0.000126609
-3.55612e-06
-0.000131824
-1.86589e-05
-0.000133323
-3.55982e-05
-0.000130526
-5.25757e-05
-0.000124687
-6.72139e-05
-0.00011813
-7.77073e-05
-0.000112973
-8.36698e-05
-0.000110189
-8.61279e-05
-0.000109847
-8.63033e-05
-0.00011152
-8.53285e-05
-0.00011367
-8.47486e-05
-0.000112461
-8.57524e-05
-0.000100842
-8.71973e-05
-7.00434e-05
-8.23494e-05
-1.44572e-05
-5.81414e-05
-4.88887e-07
5.02821e-05
-2.90262e-05
-0.000214042
-5.64239e-05
-0.000192333
-8.29983e-05
-8.47648e-05
-0.000103277
6.80983e-06
-0.000108472
2.53838e-05
-0.000117384
2.07476e-05
-0.000128631
1.80579e-05
-0.000139059
6.87143e-06
-0.000147007
-1.07102e-05
-0.000149302
-3.3303e-05
-0.000144864
-5.70138e-05
-0.000135157
-7.69213e-05
-0.000123937
-8.89274e-05
-0.000114845
-9.27618e-05
-0.000109365
-9.16069e-05
-0.000107063
-8.86053e-05
-0.000107252
-8.51403e-05
-0.000109167
-8.28331e-05
-0.000111944
-8.29753e-05
-0.000112672
-8.647e-05
-0.000104444
-9.05771e-05
-7.78848e-05
-8.47007e-05
-5.11939e-05
-2.71798e-05
-3.51272e-05
-0.000178915
-5.14075e-05
-0.000176053
-7.14756e-05
-6.46965e-05
-9.10208e-05
2.6355e-05
-0.000103986
3.83492e-05
-0.000120791
3.75525e-05
-0.000138487
3.57537e-05
-0.0001549
2.32849e-05
-0.000166741
1.13072e-06
-0.000169784
-3.02606e-05
-0.000161701
-6.50961e-05
-0.000145925
-9.26973e-05
-0.000128112
-0.00010674
-0.000113447
-0.000107427
-0.000104494
-0.00010056
-0.000101092
-9.20076e-05
-0.000102145
-8.40864e-05
-0.000105469
-7.95099e-05
-0.0001106
-7.78445e-05
-0.000117968
-7.91012e-05
-0.000125315
-8.32308e-05
-0.000125518
-8.44972e-05
-6.79382e-05
-0.000108774
-3.81691e-05
-0.000140746
-4.1983e-05
-0.000172239
-5.35358e-05
-5.31437e-05
-7.75126e-05
5.03317e-05
-9.94648e-05
6.03013e-05
-0.000124496
6.25837e-05
-0.000150444
6.17016e-05
-0.000174856
4.7697e-05
-0.000191032
1.73069e-05
-0.000192593
-2.86999e-05
-0.000181484
-7.62051e-05
-0.0001634
-0.000110781
-0.00014165
-0.000128491
-0.000119045
-0.000130033
-0.000101496
-0.000118108
-9.30577e-05
-0.000100446
-9.40278e-05
-8.31164e-05
-9.98906e-05
-7.36469e-05
-0.000107332
-7.04029e-05
-0.000117263
-6.91708e-05
-0.000131435
-6.90589e-05
-0.000147378
-6.85538e-05
-5.96155e-05
-0.000155701
-3.45045e-05
-0.000106241
-2.80088e-05
-0.000178735
-2.87233e-05
-5.24294e-05
-6.32895e-05
8.48978e-05
-9.47688e-05
9.17804e-05
-0.000128334
9.61489e-05
-0.000163436
9.68037e-05
-0.000194763
7.90238e-05
-0.000210957
3.35009e-05
-0.000210814
-2.8843e-05
-0.000202928
-8.40903e-05
-0.000190943
-0.000122766
-0.000172222
-0.000147213
-0.000145056
-0.000157199
-0.000115539
-0.000147625
-9.35974e-05
-0.000122388
-8.64559e-05
-9.0258e-05
-9.21506e-05
-6.79523e-05
-0.000101913
-6.06402e-05
-0.000112378
-5.87057e-05
-0.000126436
-5.50008e-05
-0.000145485
-4.9505e-05
-4.02203e-05
-0.00016488
-1.761e-05
-8.86312e-05
-1.01841e-05
-0.000186161
-1.10571e-05
-5.15563e-05
-5.05036e-05
0.000124344
-8.98375e-05
0.000131114
-0.00013064
0.000136952
-0.000172658
0.000138821
-0.000206357
0.000112723
-0.000221813
4.89569e-05
-0.000227967
-2.26894e-05
-0.000233432
-7.86254e-05
-0.000234727
-0.000121471
-0.000221912
-0.000160028
-0.000192499
-0.000186612
-0.00015285
-0.000187274
-0.000115607
-0.000159632
-9.05233e-05
-0.000115341
-8.58559e-05
-7.26196e-05
-9.53578e-05
-5.11381e-05
-0.000105758
-4.83052e-05
-0.000116718
-4.40406e-05
-0.0001314
-3.4823e-05
-2.25279e-05
-0.000149092
9.53074e-06
-9.81619e-05
4.58905e-06
-0.000181219
-2.79596e-06
-4.41712e-05
-3.88661e-05
0.000160414
-8.40689e-05
0.000176317
-0.000129071
0.000181954
-0.000174003
0.000183753
-0.000207547
0.000146268
-0.000229132
7.05413e-05
-0.0002515
-3.21595e-07
-0.000277213
-5.29117e-05
-0.000291286
-0.000107399
-0.000281853
-0.00016946
-0.000250331
-0.000218134
-0.000204512
-0.000233092
-0.000155098
-0.000209046
-0.000113275
-0.000157165
-8.97972e-05
-9.6097e-05
-8.99945e-05
-5.09407e-05
-9.89114e-05
-3.93882e-05
-0.000106367
-3.65846e-05
-0.00011522
-2.59701e-05
-1.18206e-05
-0.000125927
3.14497e-05
-0.000129612
1.28313e-05
-0.000162601
-3.39515e-06
-2.79448e-05
-3.07866e-05
0.000187806
-7.69324e-05
0.000222463
-0.000120847
0.000225869
-0.000164175
0.000227081
-0.000199402
0.000181495
-0.000232239
0.000103378
-0.000271248
3.86874e-05
-0.000305634
-1.85252e-05
-0.000317851
-9.51819e-05
-0.000308402
-0.000178909
-0.000283644
-0.000242892
-0.000244276
-0.000272461
-0.000194212
-0.000259109
-0.000144297
-0.00020708
-0.000105849
-0.000134545
-8.90965e-05
-6.76933e-05
-9.19078e-05
-3.65766e-05
-9.63341e-05
-3.21582e-05
-0.000100141
-2.21636e-05
-6.92786e-06
-0.000105033
3.83459e-05
-0.000167958
1.50455e-05
-0.000139301
-9.75773e-06
-3.14152e-06
-2.98691e-05
0.000207917
-6.90977e-05
0.000261691
-0.000105003
0.000261775
-0.000140364
0.000262441
-0.00017579
0.000216922
-0.000215953
0.000143541
-0.00025603
7.87644e-05
-0.000277862
3.30751e-06
-0.000279773
-9.32714e-05
-0.000272362
-0.00018632
-0.000257242
-0.000258012
-0.000233243
-0.00029646
-0.000201163
-0.000291189
-0.00016239
-0.000245853
-0.000121959
-0.000174976
-9.25323e-05
-9.71198e-05
-8.43385e-05
-4.47704e-05
-8.56274e-05
-3.08693e-05
-8.57404e-05
-2.20504e-05
-5.46775e-06
-8.72004e-05
2.77787e-05
-0.000195736
8.5334e-06
-0.000120055
-1.76457e-05
2.30376e-05
-3.65805e-05
0.000226852
-6.25554e-05
0.000287666
-8.52412e-05
0.00028446
-0.000107592
0.000284792
-0.000135719
0.000245048
-0.000169956
0.000177778
-0.000196273
0.000105082
-0.000205947
1.29814e-05
-0.000205632
-9.3587e-05
-0.000199103
-0.000192848
-0.000185132
-0.000271983
-0.000167267
-0.000314326
-0.000151953
-0.000306503
-0.000137941
-0.000259866
-0.000116644
-0.000196273
-8.9161e-05
-0.000124603
-7.32148e-05
-6.07165e-05
-7.16553e-05
-3.24287e-05
-7.0956e-05
-2.27498e-05
-5.54135e-06
-7.08822e-05
1.03349e-05
-0.000206071
-3.62005e-06
-0.0001061
-2.73884e-05
4.6806e-05
-4.54206e-05
0.000244884
-5.71669e-05
0.000299413
-6.5325e-05
0.000292618
-7.32765e-05
0.000292744
-8.82734e-05
0.000260045
-0.000108844
0.000198348
-0.000123098
0.000119336
-0.000127396
1.72799e-05
-0.000126433
-9.45501e-05
-0.000120274
-0.000199008
-0.000106274
-0.000285983
-8.88356e-05
-0.000331764
-7.56674e-05
-0.000319671
-7.17426e-05
-0.00026379
-7.4942e-05
-0.000193073
-6.80995e-05
-0.000131446
-5.49831e-05
-7.3833e-05
-5.28928e-05
-3.45189e-05
-5.53133e-05
-2.03294e-05
-5.32121e-06
-5.55335e-05
-4.15728e-06
-0.000201914
-1.50659e-05
-9.51916e-05
-3.91644e-05
7.09046e-05
-5.0655e-05
0.000256375
-5.07548e-05
0.000299512
-4.64558e-05
0.000288319
-4.17812e-05
0.000288069
-4.2701e-05
0.000260965
-4.89609e-05
0.000204608
-5.34461e-05
0.000123821
-5.41041e-05
1.79379e-05
-5.30224e-05
-9.56318e-05
-4.70251e-05
-0.000205005
-3.48589e-05
-0.000298149
-2.31117e-05
-0.000343512
-1.31045e-05
-0.000329678
-5.59633e-06
-0.000271299
-1.35765e-05
-0.000185093
-2.93139e-05
-0.000115708
-3.20035e-05
-7.11433e-05
-3.36989e-05
-3.28235e-05
-3.95257e-05
-1.45026e-05
-3.42733e-06
-4.14197e-05
-1.49237e-05
-0.00018699
-2.67728e-05
-8.33424e-05
-4.99253e-05
9.4057e-05
-5.01707e-05
0.00025662
-4.20298e-05
0.000291371
-2.8796e-05
0.000275085
-1.48971e-05
0.00027417
-4.84765e-06
0.000250916
-3.69533e-07
0.00020013
1.1506e-06
0.000122301
3.13395e-06
1.59545e-05
7.96721e-06
-0.000100465
1.64521e-05
-0.00021349
2.43446e-05
-0.000306042
2.57658e-05
-0.000344933
2.71896e-05
-0.000331102
3.34672e-05
-0.000277576
3.29558e-05
-0.000184582
1.06978e-05
-9.34502e-05
-1.02482e-05
-5.01974e-05
-1.85049e-05
-2.45668e-05
-2.58264e-05
-7.18104e-06
3.18743e-07
-2.95725e-05
-2.35997e-05
-0.000163391
-3.55327e-05
-7.14093e-05
-5.25741e-05
0.000111098
-4.42668e-05
0.000248313
-3.11454e-05
0.00027825
-1.28244e-05
0.000256764
6.38659e-06
0.000254959
2.33434e-05
0.000233959
3.57005e-05
0.000187773
4.46891e-05
0.000113313
5.02982e-05
1.03455e-05
5.54389e-05
-0.000105606
6.33246e-05
-0.000221376
6.43343e-05
-0.000307051
5.56543e-05
-0.000336253
4.83177e-05
-0.000323765
4.96907e-05
-0.000278949
5.14388e-05
-0.00018633
3.74932e-05
-7.95047e-05
9.83488e-06
-2.25392e-05
-6.73159e-06
-8.00042e-06
-1.51786e-05
1.26589e-06
5.65372e-06
-2.05138e-05
-2.88394e-05
-0.000134551
-3.99128e-05
-6.03359e-05
-4.52671e-05
0.000116452
-3.36806e-05
0.000236726
-1.85052e-05
0.000263075
1.03333e-06
0.000237226
2.18121e-05
0.000234181
4.11402e-05
0.000214631
5.6992e-05
0.000171921
6.96281e-05
0.000100677
7.8694e-05
1.27967e-06
8.75541e-05
-0.000114466
9.33184e-05
-0.00022714
8.39069e-05
-0.00029764
6.40815e-05
-0.000316427
5.0068e-05
-0.000309752
4.82251e-05
-0.000277107
4.77927e-05
-0.000185898
3.83845e-05
-7.00966e-05
1.84464e-05
-2.60121e-06
3.40723e-07
1.01052e-05
-9.31756e-06
1.0924e-05
1.13492e-05
-1.50132e-05
-3.09159e-05
-0.000103635
-3.91257e-05
-5.21262e-05
-3.04412e-05
0.000107768
-1.9428e-05
0.000225713
-4.30068e-06
0.000247947
1.27326e-05
0.000220193
3.15717e-05
0.000215342
4.98259e-05
0.000196377
6.64095e-05
0.000155337
8.17818e-05
8.53043e-05
9.48665e-05
-1.1805e-05
0.00010745
-0.000127049
0.000106062
-0.000225753
8.4253e-05
-0.00027583
5.62083e-05
-0.000288383