/*--------------------------------*- C++ -*----------------------------------*\
| =========                 |                                                 |
| \\      /  F ield         | OpenFOAM: The Open Source CFD Toolbox           |
|  \\    /   O peration     | Version:  2.3.0                                 |
|   \\  /    A nd           | Web:      www.OpenFOAM.org                      |
|    \\/     M anipulation  |                                                 |
\*---------------------------------------------------------------------------*/
FoamFile
{
    version     2.0;
    format      ascii;
    class       volVectorField;
    location    "1.5";
    object      U;
}
// * * * * * * * * * * * * * * * * * * * * * * * * * * * * * * * * * * * * * //

dimensions      [0 1 -1 0 0 0 0];

internalField   nonuniform List<vector> 
2268
(
(-0.0238214 0.0069687 0)
(-0.0600581 0.000866323 0)
(-0.0269092 -0.0187674 0)
(0.0998502 -0.0341902 0)
(0.254966 -0.0327491 0)
(0.368455 -0.0145257 0)
(0.383247 0.0128955 0)
(0.294143 0.0290565 0)
(0.183355 0.0216996 0)
(0.128772 0.00196297 0)
(0.1232 -0.00904242 0)
(0.132143 -0.00768512 0)
(0.144085 -0.00439636 0)
(0.155601 -0.00376048 0)
(0.168771 -0.00311566 0)
(0.181965 0.00641524 0)
(0.161227 0.0201338 0)
(0.0992866 0.0201629 0)
(0.0467751 0.00368119 0)
(0.0291147 -0.00404105 0)
(0.0160483 -0.000217962 0)
(0.00483027 -0.00232586 0)
(0.00220342 -0.00423786 0)
(-0.0294443 0.0274904 0)
(-0.0695361 0.0092938 0)
(-0.0341737 -0.0519462 0)
(0.0790646 -0.111829 0)
(0.248719 -0.101201 0)
(0.385522 -0.0350304 0)
(0.419068 0.0280033 0)
(0.379784 0.0581474 0)
(0.309284 0.0526157 0)
(0.238809 0.0290763 0)
(0.173858 0.00901299 0)
(0.136407 -0.0012595 0)
(0.133402 -0.00662364 0)
(0.147629 -0.00814579 0)
(0.159169 -0.00769288 0)
(0.176374 -0.00279989 0)
(0.218476 0.0145803 0)
(0.242802 0.0329157 0)
(0.221897 0.0338439 0)
(0.160335 0.0204404 0)
(0.100679 0.0137467 0)
(0.0626595 0.010454 0)
(0.0238886 0.00796809 0)
(-0.029773 0.0486163 0)
(-0.0812387 0.0141799 0)
(-0.0353396 -0.0879153 0)
(0.0156106 -0.177508 0)
(0.134308 -0.195506 0)
(0.353496 -0.0822166 0)
(0.426477 0.0380373 0)
(0.364266 0.0841265 0)
(0.282964 0.0781212 0)
(0.214745 0.0591853 0)
(0.150849 0.037729 0)
(0.116695 0.0109216 0)
(0.119279 -0.0106576 0)
(0.137961 -0.0164713 0)
(0.154188 -0.0141262 0)
(0.16324 -0.0162364 0)
(0.187246 -0.0105621 0)
(0.241533 0.0148338 0)
(0.271549 0.0415432 0)
(0.232604 0.0502894 0)
(0.159947 0.0445808 0)
(0.102084 0.0359914 0)
(0.0411487 0.0364384 0)
(-0.0420526 0.0745704 0)
(-0.0984794 0.0247587 0)
(-0.0298017 -0.112399 0)
(-0.0520575 -0.190052 0)
(-0.0303139 -0.279564 0)
(0.205729 -0.165323 0)
(0.390439 0.0296569 0)
(0.353836 0.12017 0)
(0.243812 0.113308 0)
(0.168576 0.0883601 0)
(0.122984 0.0571041 0)
(0.108346 0.0145654 0)
(0.1197 -0.0181747 0)
(0.138713 -0.0258001 0)
(0.151649 -0.0187372 0)
(0.1562 -0.0190749 0)
(0.167977 -0.0241068 0)
(0.208842 -0.00639408 0)
(0.258622 0.0360664 0)
(0.254976 0.0707831 0)
(0.197414 0.076388 0)
(0.133763 0.0677858 0)
(0.0564057 0.0761748 0)
(-0.0611794 0.104569 0)
(-0.0601289 0.0247717 0)
(-0.0105565 -0.115293 0)
(-0.0741891 -0.182881 0)
(-0.120092 -0.323861 0)
(-0.0165689 -0.271159 0)
(0.289738 -0.0152436 0)
(0.333406 0.147145 0)
(0.225334 0.15257 0)
(0.143336 0.114779 0)
(0.114577 0.0677333 0)
(0.117436 0.0124008 0)
(0.136342 -0.0270189 0)
(0.157636 -0.0332756 0)
(0.166675 -0.0198864 0)
(0.161642 -0.0188782 0)
(0.161999 -0.0348538 0)
(0.189627 -0.02814 0)
(0.240044 0.0220121 0)
(0.261145 0.0797366 0)
(0.227164 0.103701 0)
(0.167639 0.102511 0)
(0.0748636 0.125846 0)
(-0.0830258 0.124652 0)
(0.0185102 0.00738462 0)
(0.0366672 -0.101463 0)
(-0.00668337 -0.154512 0)
(-0.0885323 -0.319119 0)
(-0.210606 -0.366537 0)
(0.144584 -0.0996405 0)
(0.296199 0.15103 0)
(0.22251 0.18693 0)
(0.143251 0.139113 0)
(0.124623 0.073405 0)
(0.137755 0.00700399 0)
(0.1654 -0.038354 0)
(0.196254 -0.041422 0)
(0.206018 -0.0176279 0)
(0.189871 -0.0114571 0)
(0.176638 -0.0373666 0)
(0.194766 -0.0473824 0)
(0.239517 0.00258825 0)
(0.273611 0.078389 0)
(0.260842 0.124517 0)
(0.21136 0.13913 0)
(0.0959866 0.196504 0)
(-0.0983447 0.135688 0)
(0.0864865 -0.0487892 0)
(0.114566 -0.10736 0)
(0.133564 -0.118664 0)
(0.0874039 -0.242082 0)
(-0.246593 -0.375417 0)
(-0.0887844 -0.239617 0)
(0.221467 0.117297 0)
(0.218968 0.204759 0)
(0.159361 0.157649 0)
(0.146551 0.0737297 0)
(0.164315 -0.00552083 0)
(0.20493 -0.0581193 0)
(0.25116 -0.0558194 0)
(0.261909 -0.0151311 0)
(0.228363 -0.00177264 0)
(0.203715 -0.0362952 0)
(0.227233 -0.0638561 0)
(0.267487 -0.0178421 0)
(0.303618 0.070543 0)
(0.304521 0.139296 0)
(0.273134 0.171936 0)
(0.146337 0.269466 0)
(-0.0683156 0.145889 0)
(0.129335 -0.0812234 0)
(0.195358 -0.122045 0)
(0.259379 -0.10908 0)
(0.331556 -0.118449 0)
(-0.126645 -0.256425 0)
(-0.289946 -0.363609 0)
(0.135162 0.0428043 0)
(0.216863 0.20139 0)
(0.192405 0.173967 0)
(0.183684 0.0770382 0)
(0.202427 -0.0180517 0)
(0.250118 -0.0843669 0)
(0.298609 -0.0746955 0)
(0.298467 -0.00564015 0)
(0.235905 0.0254855 0)
(0.22554 -0.0331159 0)
(0.288679 -0.0856962 0)
(0.330902 -0.0359328 0)
(0.355811 0.0607126 0)
(0.357296 0.14728 0)
(0.359299 0.21296 0)
(0.150802 0.418684 0)
(-0.0195328 -0.00103861 0)
(0.0185527 -0.0217937 0)
(0.135001 -0.0350646 0)
(0.279255 -0.0105775 0)
(0.297496 0.021348 0)
(0.173109 0.0212231 0)
(0.123274 -0.0144418 0)
(0.202026 -0.0431868 0)
(0.332081 -0.0357165 0)
(0.406667 0.00692163 0)
(0.342354 0.0243827 0)
(0.265985 -0.00784273 0)
(0.223238 -0.00628299 0)
(0.156033 0.0312414 0)
(-0.047562 0.0345605 0)
(-0.18469 0.009314 0)
(-0.233317 0.0205405 0)
(-0.256508 -0.00641569 0)
(-0.107115 -0.0498737 0)
(-0.0210379 0.00292835 0)
(-0.0310494 -0.0400461 0)
(0.0637604 -0.0936437 0)
(0.209994 -0.0540806 0)
(0.323947 0.0179752 0)
(0.287646 0.0498287 0)
(0.251288 0.00689644 0)
(0.292723 -0.0645509 0)
(0.34863 -0.0721664 0)
(0.41202 0.00284351 0)
(0.419877 0.0471705 0)
(0.255417 0.0420053 0)
(0.0485065 0.059026 0)
(0.109849 0.0850932 0)
(0.0439463 0.102551 0)
(-0.109053 0.044895 0)
(-0.205024 0.0133969 0)
(-0.192339 -0.0320076 0)
(-0.0677643 -0.137336 0)
(-0.0581167 0.0240885 0)
(-0.075524 -0.0557898 0)
(0.0246077 -0.15662 0)
(0.121686 -0.108728 0)
(0.231709 -0.00171551 0)
(0.249642 0.0529058 0)
(0.271213 -0.00528675 0)
(0.295099 -0.08245 0)
(0.27077 -0.0933281 0)
(0.309022 -0.00105621 0)
(0.319647 0.0865938 0)
(0.0742341 0.13081 0)
(-0.174939 0.0815391 0)
(-0.1666 0.052678 0)
(0.0562141 0.124434 0)
(0.108274 0.099559 0)
(0.0475714 0.065486 0)
(-0.0783467 -0.0432673 0)
(0.0062954 -0.184611 0)
(-0.0877505 0.0577773 0)
(-0.0420539 -0.0821376 0)
(0.0807716 -0.191566 0)
(0.0611688 -0.13323 0)
(0.127054 -0.0186906 0)
(0.18979 0.0320302 0)
(0.253437 -0.0215223 0)
(0.237418 -0.0664709 0)
(0.114112 -0.0883276 0)
(0.167383 0.00663234 0)
(0.164754 0.142458 0)
(-0.115073 0.216489 0)
(-0.387755 0.133898 0)
(-0.34156 -0.0020129 0)
(-0.131981 -0.00239168 0)
(0.134261 0.0476155 0)
(0.255102 0.106446 0)
(0.17825 0.0253681 0)
(0.0957052 -0.150528 0)
(-0.102694 0.0802674 0)
(0.0525322 -0.125268 0)
(0.202093 -0.202238 0)
(0.0911662 -0.116343 0)
(0.0654877 -0.0431904 0)
(0.158096 -0.00558533 0)
(0.193199 -0.0292104 0)
(0.153989 -0.0289434 0)
(-0.0189408 -0.0736934 0)
(0.024823 0.00301735 0)
(-5.05719e-05 0.210861 0)
(-0.318699 0.340712 0)
(-0.541992 0.240556 0)
(-0.283348 -0.0504828 0)
(-0.221846 -0.0619886 0)
(0.0287441 -0.10185 0)
(0.268456 0.0549274 0)
(0.278944 0.0626227 0)
(0.153371 -0.0787839 0)
(-0.0998678 0.0778899 0)
(0.162545 -0.189004 0)
(0.324676 -0.223164 0)
(0.225665 -0.0624602 0)
(0.0201102 -0.0374631 0)
(0.0879064 -0.0210545 0)
(0.0868517 -0.0261194 0)
(0.142563 0.0239783 0)
(-0.010636 -0.03847 0)
(-0.0890593 0.0180995 0)
(-0.156866 0.291375 0)
(-0.484775 0.441728 0)
(-0.44644 0.108103 0)
(-0.247922 -0.193268 0)
(-0.203172 -0.139343 0)
(0.00424152 -0.193841 0)
(0.221291 0.00555022 0)
(0.270146 0.0868771 0)
(0.156695 0.000299981 0)
(-0.00635865 0.0897019 0)
(0.288353 -0.276199 0)
(0.413566 -0.260266 0)
(0.349348 0.00443444 0)
(0.0230806 0.0172468 0)
(0.0255136 -0.030697 0)
(0.109158 -0.054916 0)
(0.1601 0.0295846 0)
(0.0602623 0.019181 0)
(-0.155138 0.0551868 0)
(-0.22191 0.367629 0)
(-0.450799 0.508718 0)
(-0.246634 0.056028 0)
(-0.30153 -0.169104 0)
(-0.353641 -0.212112 0)
(-0.142645 -0.310781 0)
(0.14507 -0.0436281 0)
(0.212303 0.0977502 0)
(0.132015 0.0683122 0)
(0.178923 -0.0862273 0)
(0.436185 -0.3742 0)
(0.493658 -0.30404 0)
(0.410557 0.101673 0)
(0.114014 0.104546 0)
(0.0500921 -0.0614657 0)
(0.144431 -0.107957 0)
(0.183022 0.0203305 0)
(0.0991258 0.0938493 0)
(-0.154049 0.120094 0)
(-0.155458 0.423448 0)
(-0.280748 0.51782 0)
(0.0549392 0.0401189 0)
(-0.275603 0.0228627 0)
(-0.432492 -0.267511 0)
(-0.263324 -0.444269 0)
(0.0455046 -0.112271 0)
(0.135639 0.100383 0)
(0.0956759 0.124443 0)
(0.060133 0.0624709 0)
(0.188398 -0.133021 0)
(0.359367 -0.212583 0)
(0.510759 -0.222623 0)
(0.622564 -0.036353 0)
(0.176652 0.0771863 0)
(-0.369411 -0.345442 0)
(-0.066228 -0.14552 0)
(0.158623 0.133768 0)
(0.213641 0.16707 0)
(0.230197 0.0805349 0)
(0.257983 -0.0359223 0)
(0.299029 -0.114762 0)
(0.309672 -0.0789796 0)
(0.272006 0.0365339 0)
(0.235594 0.0525354 0)
(0.284048 -0.069313 0)
(0.381005 -0.14472 0)
(0.435823 -0.0678414 0)
(0.463442 0.0513069 0)
(0.469841 0.141418 0)
(0.549321 0.196724 0)
(0.595677 0.398934 0)
(0.0448967 -0.105062 0)
(0.290866 -0.374018 0)
(0.769106 -0.577556 0)
(1.27635 -0.394886 0)
(1.03878 0.0640712 0)
(0.435877 0.470606 0)
(-0.308022 -0.169561 0)
(-0.283145 -0.414344 0)
(-0.014024 -0.0566324 0)
(0.147401 0.0808838 0)
(0.227454 0.0348493 0)
(0.294825 -0.075442 0)
(0.331297 -0.12564 0)
(0.299448 -0.0519858 0)
(0.252115 0.0592102 0)
(0.275809 0.00323698 0)
(0.339805 -0.167674 0)
(0.38809 -0.22394 0)
(0.448221 -0.1264 0)
(0.503291 0.0164407 0)
(0.544609 0.10728 0)
(0.608272 0.136819 0)
(0.707895 0.159347 0)
(0.0730867 -0.227246 0)
(0.459895 -0.816402 0)
(1.12586 -1.15924 0)
(1.40377 -0.227083 0)
(1.15601 0.781621 0)
(0.814974 1.10637 0)
(0.110245 0.316012 0)
(-0.212586 -0.39204 0)
(-0.234937 -0.303569 0)
(-0.0223607 -0.0979209 0)
(0.0960559 -0.0690382 0)
(0.190997 -0.118207 0)
(0.246946 -0.0935725 0)
(0.276446 -0.00394982 0)
(0.307745 0.0548528 0)
(0.351498 -0.0465891 0)
(0.312619 -0.173378 0)
(0.246852 -0.231862 0)
(0.27931 -0.169891 0)
(0.368619 -0.0390888 0)
(0.453992 0.0442338 0)
(0.529276 0.054239 0)
(0.615865 0.0291865 0)
(0.429966 -0.841628 0)
(0.665118 -1.55231 0)
(1.03308 -1.38111 0)
(1.34791 -0.459542 0)
(1.56464 0.987124 0)
(1.4758 1.69872 0)
(0.794437 0.98677 0)
(0.384838 0.119143 0)
(-0.127283 -0.289016 0)
(-0.140428 -0.245944 0)
(-0.0111611 -0.249116 0)
(0.180911 -0.279579 0)
(0.274445 -0.180862 0)
(0.337257 -0.0788931 0)
(0.415192 -0.0137423 0)
(0.462794 -0.00306166 0)
(0.375087 -0.0606167 0)
(0.214 -0.183748 0)
(0.152538 -0.224027 0)
(0.20353 -0.151281 0)
(0.290861 -0.0697488 0)
(0.374644 -0.0332277 0)
(0.452066 -0.0219717 0)
(0.263493 -1.26977 0)
(0.297964 -1.71052 0)
(0.416944 -1.38753 0)
(0.471069 -0.677106 0)
(1.14414 0.528626 0)
(1.7605 1.6648 0)
(1.63173 1.52838 0)
(1.31607 0.757383 0)
(0.720004 0.239989 0)
(0.435627 -0.184678 0)
(0.488814 -0.3574 0)
(0.64903 -0.412489 0)
(0.694164 -0.337468 0)
(0.6468 -0.219746 0)
(0.589847 -0.118531 0)
(0.577313 -0.0146492 0)
(0.561232 0.0952325 0)
(0.481563 -0.000322831 0)
(0.350671 -0.142301 0)
(0.26156 -0.138791 0)
(0.268016 -0.123066 0)
(0.314141 -0.132012 0)
(0.388465 -0.131749 0)
(0.115528 -1.50711 0)
(0.106501 -1.6782 0)
(-0.00944622 -1.2759 0)
(-0.0192639 -0.939315 0)
(0.325564 -0.248929 0)
(1.23083 0.965197 0)
(1.71095 1.37871 0)
(1.79173 1.05051 0)
(1.45494 0.502161 0)
(1.29587 -0.00995805 0)
(1.10329 -0.380013 0)
(1.05081 -0.401703 0)
(0.684856 -0.0904793 0)
(0.531895 0.0919445 0)
(0.194318 0.0828526 0)
(0.234551 0.0435155 0)
(0.438728 0.0526105 0)
(0.697955 0.0233526 0)
(0.951218 -0.0588809 0)
(1.06586 -0.0832361 0)
(0.965701 -0.10428 0)
(0.83347 -0.118304 0)
(0.770552 -0.14677 0)
(0.00606705 -1.54822 0)
(0.00131401 -1.48695 0)
(-0.145092 -1.24899 0)
(-0.110792 -1.11689 0)
(-0.0172205 -0.647476 0)
(0.463261 0.196065 0)
(1.09512 0.848233 0)
(1.47039 0.988365 0)
(1.45907 0.661584 0)
(1.24809 0.0696049 0)
(0.93907 -0.270041 0)
(0.678082 -0.153094 0)
(0.172732 0.188391 0)
(-0.160957 0.397052 0)
(-0.158629 0.148615 0)
(0.308219 -0.32 0)
(0.526023 -0.46254 0)
(0.719665 -0.493659 0)
(0.894541 -0.50708 0)
(1.25288 -0.209496 0)
(1.41905 0.0549635 0)
(1.3419 0.0289377 0)
(1.22511 -0.0641858 0)
(-0.0383995 -1.49535 0)
(-0.035303 -1.45947 0)
(-0.0852201 -1.28591 0)
(-0.0863561 -1.18539 0)
(-0.0865523 -0.861685 0)
(0.101153 -0.298975 0)
(0.517313 0.336418 0)
(0.942055 0.732164 0)
(1.13386 0.732713 0)
(1.03331 0.433517 0)
(0.684125 0.163204 0)
(0.235559 0.352634 0)
(-0.217283 0.569235 0)
(0.0684706 0.14427 0)
(0.393754 -0.226548 0)
(0.589512 -0.523614 0)
(0.596747 -0.515705 0)
(0.496987 -0.3861 0)
(0.555655 -0.541714 0)
(0.803405 -0.474792 0)
(1.05155 -0.177747 0)
(1.08325 0.0589412 0)
(1.15437 0.0192206 0)
(-0.0965489 -1.4865 0)
(-0.0772672 -1.43317 0)
(-0.0533178 -1.27241 0)
(-0.0812924 -1.14725 0)
(-0.116471 -0.89544 0)
(-0.00946323 -0.509731 0)
(0.206477 -0.0304696 0)
(0.51342 0.434918 0)
(0.731599 0.681999 0)
(0.683789 0.616005 0)
(0.467817 0.425669 0)
(0.0927565 0.689097 0)
(0.174278 0.561663 0)
(0.54133 -0.0863858 0)
(0.609547 -0.35916 0)
(0.644408 -0.501373 0)
(0.545679 -0.357243 0)
(0.393475 -0.360775 0)
(0.393019 -0.763037 0)
(0.492544 -0.731101 0)
(0.61852 -0.287099 0)
(0.664894 0.0272003 0)
(0.630235 0.227334 0)
(-0.146889 -1.37562 0)
(-0.108889 -1.45258 0)
(-0.0202581 -1.30166 0)
(-0.0345841 -1.07497 0)
(-0.160906 -0.893338 0)
(-0.134265 -0.588713 0)
(-0.0435242 -0.179409 0)
(0.136186 0.256891 0)
(0.299829 0.612648 0)
(0.19648 0.775198 0)
(-0.0936842 0.73588 0)
(0.0515838 0.746915 0)
(0.43152 0.205421 0)
(0.555664 -0.170503 0)
(0.60948 -0.385489 0)
(0.670903 -0.463729 0)
(0.512107 -0.203958 0)
(0.491826 -0.37225 0)
(0.393084 -0.741192 0)
(0.32395 -0.723407 0)
(0.328283 -0.270482 0)
(0.24949 0.180498 0)
(-0.00867391 0.751177 0)
(-0.171061 -1.23905 0)
(-0.114374 -1.52352 0)
(-0.00824517 -1.40432 0)
(0.0561601 -0.959942 0)
(-0.15991 -0.798152 0)
(-0.241981 -0.580422 0)
(-0.273874 -0.238771 0)
(-0.217481 0.228025 0)
(-0.13732 0.69374 0)
(-0.225121 0.91916 0)
(-0.064259 0.464028 0)
(0.214258 0.167708 0)
(0.436713 -0.0447499 0)
(0.626452 -0.255047 0)
(0.779975 -0.493962 0)
(0.785061 -0.423956 0)
(0.688276 -0.0864642 0)
(0.601632 -0.333152 0)
(0.401503 -0.590177 0)
(0.201916 -0.644307 0)
(0.152714 -0.148608 0)
(-0.0657756 0.516675 0)
(-0.397404 1.1661 0)
(-0.170001 -1.10237 0)
(-0.105051 -1.57943 0)
(-0.0324594 -1.51469 0)
(0.113278 -0.888281 0)
(-0.0938423 -0.631258 0)
(-0.263534 -0.469894 0)
(-0.361569 -0.171805 0)
(-0.387487 0.243216 0)
(-0.298991 0.654265 0)
(-0.134046 0.757554 0)
(0.149082 0.261621 0)
(0.391943 0.0531179 0)
(0.661984 -0.185821 0)
(0.928385 -0.493894 0)
(1.01822 -0.577273 0)
(0.991663 -0.431347 0)
(0.949999 -0.0545416 0)
(0.727146 -0.0339738 0)
(0.413926 -0.336954 0)
(0.144601 -0.483856 0)
(0.0670171 0.0238655 0)
(-0.169294 0.846975 0)
(-0.511593 1.49468 0)
(-0.167575 -0.992612 0)
(-0.0869147 -1.63134 0)
(-0.0407814 -1.62374 0)
(0.110469 -0.920588 0)
(0.0245689 -0.454011 0)
(-0.191925 -0.341138 0)
(-0.274527 -0.127581 0)
(-0.24364 0.179572 0)
(-0.13156 0.46941 0)
(0.145756 0.453249 0)
(0.467967 0.0700984 0)
(0.749131 -0.305617 0)
(0.918025 -0.529142 0)
(0.96963 -0.598934 0)
(0.930343 -0.525988 0)
(0.85046 -0.338325 0)
(0.849184 0.0583106 0)
(0.663601 0.304069 0)
(0.407267 -0.0995462 0)
(0.133093 -0.30528 0)
(0.0139512 0.1575 0)
(-0.100998 1.1056 0)
(-0.40761 1.72039 0)
(-0.16967 -0.877773 0)
(-0.0497658 -1.68642 0)
(-0.0162303 -1.7076 0)
(0.0748825 -1.02284 0)
(0.129166 -0.316167 0)
(-0.0782819 -0.214759 0)
(-0.149383 -0.137534 0)
(-0.0978203 0.00107553 0)
(0.0894003 0.157243 0)
(0.378665 0.0503129 0)
(0.611241 -0.251191 0)
(0.685739 -0.441247 0)
(0.662091 -0.503858 0)
(0.613036 -0.505586 0)
(0.584583 -0.445047 0)
(0.561085 -0.295117 0)
(0.623412 0.0659346 0)
(0.631044 0.492605 0)
(0.394982 0.110132 0)
(0.15268 -0.0823354 0)
(-0.0657264 0.214574 0)
(0.0583843 1.23135 0)
(-0.062037 1.90517 0)
(-0.156367 -0.780662 0)
(0.0271489 -1.76384 0)
(0.0477531 -1.74376 0)
(0.0596809 -1.1264 0)
(0.148944 -0.230826 0)
(-0.0139358 -0.0675296 0)
(-0.097517 -0.0821819 0)
(-0.0775216 -0.0661323 0)
(0.0552139 -0.0533186 0)
(0.223486 -0.142566 0)
(0.310175 -0.283923 0)
(0.312703 -0.397144 0)
(0.288372 -0.46394 0)
(0.277488 -0.50038 0)
(0.299906 -0.471182 0)
(0.336088 -0.33301 0)
(0.416891 -0.00219334 0)
(0.581772 0.508543 0)
(0.406473 0.48224 0)
(0.239876 0.117239 0)
(0.000473653 0.260614 0)
(0.153567 1.14496 0)
(0.437933 2.04542 0)
(-0.105588 -0.757227 0)
(0.132967 -1.86929 0)
(0.118298 -1.74224 0)
(0.0536077 -1.16582 0)
(0.0779715 -0.212419 0)
(-0.039084 0.0438675 0)
(-0.120415 -0.0521687 0)
(-0.114617 -0.115831 0)
(-0.0608671 -0.15492 0)
(0.0108191 -0.214527 0)
(0.0309324 -0.308278 0)
(0.0163208 -0.387095 0)
(0.000405648 -0.457466 0)
(-0.00150017 -0.51903 0)
(0.0216469 -0.522049 0)
(0.08196 -0.405589 0)
(0.175984 -0.134446 0)
(0.43149 0.371275 0)
(0.474122 0.649648 0)
(0.337186 0.300286 0)
(0.11282 0.302389 0)
(0.159989 0.843149 0)
(0.656773 1.84424 0)
(-0.011589 -0.819528 0)
(0.204519 -1.93931 0)
(0.149679 -1.70717 0)
(0.00844044 -1.10314 0)
(-0.0530457 -0.134614 0)
(-0.151854 0.126318 0)
(-0.197986 -0.0143993 0)
(-0.198519 -0.117049 0)
(-0.187618 -0.181007 0)
(-0.174288 -0.224675 0)
(-0.183892 -0.283496 0)
(-0.207594 -0.361047 0)
(-0.225621 -0.445959 0)
(-0.24501 -0.530105 0)
(-0.248589 -0.562589 0)
(-0.210417 -0.494843 0)
(-0.10677 -0.282726 0)
(0.139953 0.121144 0)
(0.440487 0.576364 0)
(0.400539 0.537387 0)
(0.286728 0.411368 0)
(0.212835 0.620823 0)
(0.570457 1.33244 0)
(0.107286 -0.967425 0)
(0.218972 -1.96066 0)
(0.100102 -1.60537 0)
(-0.105307 -0.935856 0)
(-0.235131 -0.0159191 0)
(-0.304354 0.16217 0)
(-0.308198 0.00170721 0)
(-0.309684 -0.110289 0)
(-0.317666 -0.179079 0)
(-0.322447 -0.218602 0)
(-0.332669 -0.26418 0)
(-0.352745 -0.332491 0)
(-0.380217 -0.418606 0)
(-0.418289 -0.507624 0)
(-0.4537 -0.565291 0)
(-0.462397 -0.553211 0)
(-0.405605 -0.426876 0)
(-0.222755 -0.145598 0)
(0.150551 0.281968 0)
(0.396133 0.577379 0)
(0.379118 0.508637 0)
(0.32622 0.556942 0)
(0.470744 0.90512 0)
(0.195193 -1.1393 0)
(0.161871 -1.91436 0)
(-0.0258038 -1.4053 0)
(-0.272407 -0.704308 0)
(-0.434411 0.0993927 0)
(-0.439868 0.153042 0)
(-0.417992 0.00130249 0)
(-0.421327 -0.100591 0)
(-0.434689 -0.168836 0)
(-0.442506 -0.210565 0)
(-0.445131 -0.251501 0)
(-0.452012 -0.309062 0)
(-0.471434 -0.383116 0)
(-0.507827 -0.46183 0)
(-0.55792 -0.526112 0)
(-0.605069 -0.553455 0)
(-0.614365 -0.511174 0)
(-0.527549 -0.357878 0)
(-0.281105 -0.0709228 0)
(0.109257 0.30642 0)
(0.358858 0.525637 0)
(0.387999 0.538889 0)
(0.472823 0.731997 0)
(0.218549 -1.31973 0)
(0.0290005 -1.76234 0)
(-0.201444 -1.11669 0)
(-0.454361 -0.472001 0)
(-0.579195 0.136659 0)
(-0.532808 0.111681 0)
(-0.509582 -0.00621005 0)
(-0.519749 -0.0888462 0)
(-0.537434 -0.156432 0)
(-0.547065 -0.206294 0)
(-0.543514 -0.251716 0)
(-0.534862 -0.303646 0)
(-0.533088 -0.362932 0)
(-0.547121 -0.422302 0)
(-0.579912 -0.473223 0)
(-0.62689 -0.508618 0)
(-0.669454 -0.515786 0)
(-0.666061 -0.469236 0)
(-0.55695 -0.336701 0)
(-0.296568 -0.0957444 0)
(0.0876452 0.245236 0)
(0.36672 0.466401 0)
(0.45544 0.617202 0)
(0.144632 -1.42559 0)
(-0.114636 -1.50937 0)
(-0.327675 -0.889999 0)
(-0.564992 -0.273556 0)
(-0.627027 0.129401 0)
(-0.58053 0.0696344 0)
(-0.576145 -0.004113 0)
(-0.598651 -0.0701574 0)
(-0.624131 -0.139601 0)
(-0.638226 -0.202451 0)
(-0.633214 -0.261314 0)
(-0.614669 -0.317867 0)
(-0.593915 -0.370054 0)
(-0.58126 -0.41376 0)
(-0.582604 -0.44633 0)
(-0.599735 -0.467976 0)
(-0.628599 -0.480019 0)
(-0.651645 -0.47921 0)
(-0.631422 -0.44999 0)
(-0.518532 -0.360373 0)
(-0.274967 -0.164977 0)
(0.0977978 0.167709 0)
(0.400254 0.472257 0)
(0.0141436 -1.38293 0)
(-0.20037 -1.27148 0)
(-0.38158 -0.679851 0)
(-0.575383 -0.129893 0)
(-0.611973 0.110219 0)
(-0.594033 0.0547879 0)
(-0.621403 0.0172253 0)
(-0.66113 -0.0407002 0)
(-0.698108 -0.11541 0)
(-0.718366 -0.195688 0)
(-0.71393 -0.274286 0)
(-0.688195 -0.343419 0)
(-0.651995 -0.39699 0)
(-0.618374 -0.432803 0)
(-0.596008 -0.452664 0)
(-0.587379 -0.460243 0)
(-0.591556 -0.460953 0)
(-0.603929 -0.462191 0)
(-0.611209 -0.466957 0)
(-0.585698 -0.460975 0)
(-0.485816 -0.398389 0)
(-0.267884 -0.206976 0)
(0.0774316 0.158717 0)
(-0.085472 -1.24089 0)
(-0.231302 -1.09653 0)
(-0.366639 -0.521679 0)
(-0.535654 -0.0159491 0)
(-0.569707 0.116125 0)
(-0.595632 0.0810646 0)
(-0.657489 0.0630837 0)
(-0.718813 0.00497803 0)
(-0.773036 -0.0810017 0)
(-0.804015 -0.184182 0)
(-0.798523 -0.29003 0)
(-0.757127 -0.379645 0)
(-0.695751 -0.439608 0)
(-0.637448 -0.468199 0)
(-0.597166 -0.475328 0)
(-0.576632 -0.470192 0)
(-0.571738 -0.459352 0)
(-0.577382 -0.452012 0)
(-0.589717 -0.457526 0)
(-0.60321 -0.478159 0)
(-0.597135 -0.488309 0)
(-0.525916 -0.41761 0)
(-0.330749 -0.171656 0)
(-0.140996 -1.05923 0)
(-0.228003 -0.978738 0)
(-0.313772 -0.394962 0)
(-0.467936 0.0859241 0)
(-0.521505 0.163057 0)
(-0.595422 0.150465 0)
(-0.694439 0.13957 0)
(-0.788641 0.0763283 0)
(-0.871031 -0.0288889 0)
(-0.917096 -0.166612 0)
(-0.902891 -0.316774 0)
(-0.832852 -0.44263 0)
(-0.736096 -0.512701 0)
(-0.643137 -0.525754 0)
(-0.576756 -0.508176 0)
(-0.543969 -0.482579 0)
(-0.540339 -0.456749 0)
(-0.55394 -0.439227 0)
(-0.574465 -0.434137 0)
(-0.606531 -0.448446 0)
(-0.654369 -0.477562 0)
(-0.694682 -0.474781 0)
(-0.664486 -0.341055 0)
(-0.179101 -0.850399 0)
(-0.201986 -0.91772 0)
(-0.22862 -0.303784 0)
(-0.379913 0.203066 0)
(-0.470887 0.258161 0)
(-0.59491 0.263427 0)
(-0.736403 0.255519 0)
(-0.877324 0.185015 0)
(-0.997171 0.050495 0)
(-1.04786 -0.147294 0)
(-1.01679 -0.373274 0)
(-0.934088 -0.546844 0)
(-0.823869 -0.631962 0)
(-0.697493 -0.631507 0)
(-0.58087 -0.572772 0)
(-0.50847 -0.505427 0)
(-0.490767 -0.446013 0)
(-0.516413 -0.414325 0)
(-0.553245 -0.400696 0)
(-0.595677 -0.397887 0)
(-0.661798 -0.40898 0)
(-0.754705 -0.417234 0)
(-0.834474 -0.358285 0)
(-0.187612 -0.657524 0)
(-0.13279 -0.93708 0)
(-0.118025 -0.263206 0)
(-0.261167 0.359385 0)
(-0.420605 0.403902 0)
(-0.59236 0.421575 0)
(-0.782101 0.420168 0)
(-0.973988 0.340893 0)
(-1.11187 0.150225 0)
(-1.14652 -0.156247 0)
(-1.1185 -0.441035 0)
(-1.06495 -0.642084 0)
(-0.98679 -0.748921 0)
(-0.859328 -0.767181 0)
(-0.694826 -0.700341 0)
(-0.545573 -0.580217 0)
(-0.460835 -0.449627 0)
(-0.467235 -0.376714 0)
(-0.520268 -0.354463 0)
(-0.572834 -0.343074 0)
(-0.63541 -0.329146 0)
(-0.72788 -0.312804 0)
(-0.839709 -0.272224 0)
(-0.116898 -0.526451 0)
(-0.0310706 -1.00293 0)
(-0.038787 -0.284264 0)
(-0.132875 0.559497 0)
(-0.378673 0.594855 0)
(-0.584484 0.622641 0)
(-0.817408 0.630353 0)
(-1.03842 0.518112 0)
(-1.17076 0.214852 0)
(-1.21234 -0.157133 0)
(-1.23909 -0.463975 0)
(-1.27195 -0.678078 0)
(-1.24739 -0.832391 0)
(-1.12953 -0.918932 0)
(-0.932746 -0.888468 0)
(-0.708572 -0.739081 0)
(-0.528953 -0.52933 0)
(-0.445045 -0.360632 0)
(-0.48037 -0.29878 0)
(-0.543421 -0.288755 0)
(-0.595501 -0.262675 0)
(-0.663363 -0.220527 0)
(-0.751997 -0.161996 0)
(0.0514802 -0.457321 0)
(0.0668438 -1.01226 0)
(0.00908183 -0.27659 0)
(-0.0606825 0.769037 0)
(-0.338074 0.821675 0)
(-0.565845 0.855361 0)
(-0.821554 0.867627 0)
(-1.0464 0.698671 0)
(-1.18405 0.306007 0)
(-1.28368 -0.0877784 0)
(-1.42511 -0.384664 0)
(-1.55288 -0.627077 0)
(-1.57138 -0.884784 0)
(-1.44977 -1.09159 0)
(-1.23167 -1.13007 0)
(-0.960497 -0.982633 0)
(-0.702245 -0.718834 0)
(-0.510673 -0.434949 0)
(-0.460049 -0.264035 0)
(-0.511626 -0.236428 0)
(-0.55425 -0.215372 0)
(-0.593777 -0.159162 0)
(-0.646298 -0.0851784 0)
(0.206591 -0.593002 0)
(0.130298 -0.940606 0)
(0.0198083 -0.225585 0)
(-0.0493377 0.94604 0)
(-0.291934 1.06857 0)
(-0.528446 1.09825 0)
(-0.771562 1.1056 0)
(-0.99268 0.865946 0)
(-1.16108 0.437482 0)
(-1.34844 0.0725195 0)
(-1.57365 -0.193466 0)
(-1.71025 -0.535327 0)
(-1.69832 -0.952559 0)
(-1.60379 -1.26708 0)
(-1.43027 -1.38865 0)
(-1.18407 -1.27719 0)
(-0.903003 -0.979479 0)
(-0.644372 -0.605697 0)
(-0.489009 -0.300215 0)
(-0.481719 -0.197959 0)
(-0.511914 -0.185498 0)
(-0.52736 -0.126037 0)
(-0.551006 -0.0458383 0)
(0.204364 -0.813667 0)
(0.164023 -0.821438 0)
(4.9456e-05 -0.107802 0)
(-0.0760408 1.05574 0)
(-0.257414 1.30619 0)
(-0.471217 1.31958 0)
(-0.659531 1.32385 0)
(-0.856446 1.06559 0)
(-1.05371 0.653498 0)
(-1.28269 0.321649 0)
(-1.47856 -0.0320007 0)
(-1.51637 -0.525398 0)
(-1.4841 -1.00483 0)
(-1.4239 -1.37068 0)
(-1.31579 -1.55926 0)
(-1.17133 -1.5199 0)
(-0.990583 -1.25203 0)
(-0.760077 -0.83867 0)
(-0.548552 -0.425831 0)
(-0.458301 -0.206069 0)
(-0.460612 -0.166275 0)
(-0.461003 -0.11621 0)
(-0.464045 -0.0309478 0)
(0.100466 -1.01237 0)
(0.145862 -0.707859 0)
(-0.0418437 0.0665098 0)
(-0.121123 1.1636 0)
(-0.2567 1.49452 0)
(-0.404571 1.4855 0)
(-0.514412 1.48872 0)
(-0.655955 1.25595 0)
(-0.826063 0.874913 0)
(-1.01179 0.501542 0)
(-1.11875 0.0401097 0)
(-1.11561 -0.516396 0)
(-1.08787 -1.03376 0)
(-1.03055 -1.43472 0)
(-0.926029 -1.6512 0)
(-0.839035 -1.62137 0)
(-0.789261 -1.39044 0)
(-0.704627 -1.03417 0)
(-0.557682 -0.602029 0)
(-0.417727 -0.26349 0)
(-0.389057 -0.159841 0)
(-0.3836 -0.119866 0)
(-0.380773 -0.0282688 0)
(0.0108169 -1.11373 0)
(0.0700146 -0.603682 0)
(-0.103176 0.188959 0)
(-0.177273 1.27608 0)
(-0.27776 1.60329 0)
(-0.334954 1.57424 0)
(-0.368043 1.57591 0)
(-0.434159 1.3818 0)
(-0.532106 1.03094 0)
(-0.652082 0.611625 0)
(-0.709802 0.0768709 0)
(-0.691762 -0.513531 0)
(-0.663955 -1.06182 0)
(-0.603344 -1.50918 0)
(-0.500476 -1.74543 0)
(-0.416144 -1.68501 0)
(-0.382158 -1.40391 0)
(-0.401899 -1.06828 0)
(-0.419361 -0.719553 0)
(-0.337067 -0.363497 0)
(-0.283927 -0.174233 0)
(-0.29036 -0.11719 0)
(-0.300115 -0.0292575 0)
(-0.0391993 -1.117 0)
(-0.022837 -0.535479 0)
(-0.162077 0.315547 0)
(-0.232313 1.37009 0)
(-0.285896 1.63252 0)
(-0.262574 1.58471 0)
(-0.234277 1.5849 0)
(-0.226276 1.42567 0)
(-0.249247 1.10708 0)
(-0.29695 0.671877 0)
(-0.32289 0.106737 0)
(-0.301258 -0.506375 0)
(-0.27058 -1.08799 0)
(-0.20324 -1.577 0)
(-0.132239 -1.83139 0)
(-0.0878589 -1.76251 0)
(-0.0398386 -1.44261 0)
(-0.0264402 -1.00868 0)
(-0.139091 -0.691924 0)
(-0.202335 -0.418759 0)
(-0.175415 -0.185683 0)
(-0.196498 -0.0946497 0)
(-0.220465 -0.0258957 0)
(-0.0745508 -1.05412 0)
(-0.106715 -0.474362 0)
(-0.218812 0.462761 0)
(-0.27272 1.40086 0)
(-0.26329 1.60577 0)
(-0.188504 1.53351 0)
(-0.116908 1.53121 0)
(-0.0523709 1.39888 0)
(-0.0148328 1.11271 0)
(-0.00256805 0.685107 0)
(0.00342699 0.113808 0)
(0.0261508 -0.508808 0)
(0.0654194 -1.11207 0)
(0.139706 -1.62435 0)
(0.155066 -1.86631 0)
(0.139508 -1.79804 0)
(0.159544 -1.4957 0)
(0.200804 -0.997965 0)
(0.142955 -0.5592 0)
(-0.0409904 -0.353706 0)
(-0.0909027 -0.166297 0)
(-0.120922 -0.0603415 0)
(-0.150258 -0.011504 0)
(-0.105618 -0.944608 0)
(-0.169446 -0.403891 0)
(-0.241352 0.588775 0)
(-0.27924 1.37926 0)
(-0.211543 1.54545 0)
(-0.115428 1.44375 0)
(-0.018244 1.43702 0)
(0.0807192 1.32071 0)
(0.157572 1.06345 0)
(0.20524 0.657306 0)
(0.244698 0.0961735 0)
(0.269358 -0.520059 0)
(0.327934 -1.14942 0)
(0.380137 -1.65771 0)
(0.339064 -1.8519 0)
(0.269801 -1.77986 0)
(0.250542 -1.51207 0)
(0.279402 -1.01452 0)
(0.275754 -0.469848 0)
(0.112657 -0.202819 0)
(-0.0216272 -0.104952 0)
(-0.0611315 -0.0202183 0)
(-0.0975542 0.0126754 0)
(-0.125944 -0.797945 0)
(-0.208226 -0.345409 0)
(-0.211273 0.625093 0)
(-0.247885 1.31474 0)
(-0.140717 1.46459 0)
(-0.0447375 1.33607 0)
(0.058877 1.32404 0)
(0.169039 1.21648 0)
(0.262709 0.981139 0)
(0.328659 0.59473 0)
(0.389225 0.0470353 0)
(0.434736 -0.582466 0)
(0.511542 -1.21541 0)
(0.514912 -1.64763 0)
(0.406287 -1.77431 0)
(0.288548 -1.71524 0)
(0.24393 -1.50573 0)
(0.258915 -1.01468 0)
(0.265901 -0.415635 0)
(0.162586 -0.0658923 0)
(0.0189718 0.00183907 0)
(-0.02799 0.0295647 0)
(-0.0687726 0.043244 0)
(-0.130663 -0.639877 0)
(-0.233106 -0.298632 0)
(-0.148029 0.614731 0)
(-0.177207 1.24433 0)
(-0.0606251 1.37983 0)
(0.0250172 1.23175 0)
(0.114727 1.2118 0)
(0.218298 1.10879 0)
(0.310549 0.886093 0)
(0.388721 0.510585 0)
(0.463602 -0.0204815 0)
(0.545205 -0.645918 0)
(0.615603 -1.23473 0)
(0.544601 -1.56112 0)
(0.373375 -1.63582 0)
(0.234391 -1.62547 0)
(0.16757 -1.48893 0)
(0.153589 -1.00555 0)
(0.164924 -0.368848 0)
(0.100076 0.0207416 0)
(0.00165106 0.0983979 0)
(-0.0357594 0.0792843 0)
(-0.0645379 0.0715156 0)
(-0.121746 -0.474791 0)
(-0.255563 -0.26103 0)
(-0.0819826 0.546888 0)
(-0.0837018 1.1844 0)
(0.0212368 1.29436 0)
(0.0968337 1.1484 0)
(0.156157 1.11811 0)
(0.242654 1.01636 0)
(0.323911 0.796029 0)
(0.411057 0.417852 0)
(0.49959 -0.102628 0)
(0.616293 -0.720485 0)
(0.631825 -1.19632 0)
(0.478958 -1.40804 0)
(0.287975 -1.47057 0)
(0.14915 -1.52616 0)
(0.0449189 -1.44267 0)
(-0.0233783 -0.979873 0)
(-0.00144132 -0.339176 0)
(-0.0325939 0.0540262 0)
(-0.0726941 0.142883 0)
(-0.0724294 0.106787 0)
(-0.0783842 0.0842749 0)
(-0.0861275 -0.308732 0)
(-0.271113 -0.245329 0)
(-0.097035 0.395288 0)
(0.0389869 1.13234 0)
(0.117786 1.22803 0)
(0.178217 1.10131 0)
(0.192384 1.04886 0)
(0.254092 0.937884 0)
(0.324795 0.701811 0)
(0.412741 0.315548 0)
(0.531623 -0.231217 0)
(0.632654 -0.766463 0)
(0.555473 -1.0884 0)
(0.361686 -1.22362 0)
(0.193283 -1.30613 0)
(0.0512176 -1.39567 0)
(-0.108601 -1.32587 0)
(-0.245213 -0.906779 0)
(-0.201907 -0.312952 0)
(-0.197477 0.0562294 0)
(-0.175057 0.136984 0)
(-0.119113 0.0972972 0)
(-0.0962672 0.0760585 0)
(-0.0379413 -0.151992 0)
(-0.229442 -0.1897 0)
(-0.201856 0.160606 0)
(0.153372 0.956442 0)
(0.284832 1.17016 0)
(0.321505 1.11237 0)
(0.259844 1.02736 0)
(0.260278 0.893599 0)
(0.307912 0.638187 0)
(0.395977 0.195903 0)
(0.538759 -0.329297 0)
(0.554631 -0.714449 0)
(0.411863 -0.925831 0)
(0.244671 -1.04934 0)
(0.114477 -1.15007 0)
(-0.0331672 -1.22431 0)
(-0.222766 -1.14365 0)
(-0.402414 -0.79886 0)
(-0.364216 -0.322434 0)
(-0.304132 -0.0186598 0)
(-0.236967 0.0511865 0)
(-0.146347 0.0383873 0)
(-0.103067 0.0437765 0)
(-0.0142884 -0.0419452 0)