/*--------------------------------*- C++ -*----------------------------------*\
| =========                 |                                                 |
| \\      /  F ield         | OpenFOAM: The Open Source CFD Toolbox           |
|  \\    /   O peration     | Version:  2.3.0                                 |
|   \\  /    A nd           | Web:      www.OpenFOAM.org                      |
|    \\/     M anipulation  |                                                 |
\*---------------------------------------------------------------------------*/
FoamFile
{
    version     2.0;
    format      ascii;
    class       volScalarField;
    location    "0.025";
    object      T;
}
// * * * * * * * * * * * * * * * * * * * * * * * * * * * * * * * * * * * * * //

dimensions      [0 0 0 1 0 0 0];

internalField   nonuniform List<scalar> 
12225
(
1.00702
1.00235
1.00097
1.00057
1.00029
1.0001
1.00001
0.999956
0.999924
0.999898
0.999866
0.9998
0.999639
0.999235
0.998228
0.995736
0.989505
0.973438
0.99388
0.995662
0.997505
0.998595
0.999122
0.9994
0.999575
0.999688
0.99976
0.999802
0.999815
0.99978
0.999644
0.999266
0.998305
0.995937
0.990168
0.976177
1.00047
1.00054
1.00043
1.00038
1.00027
1.00015
1.00007
1.00002
0.999983
0.999953
0.999917
0.999851
0.999699
0.999327
0.998423
0.99626
0.991233
0.98012
1.00033
0.999923
0.999616
0.999668
0.999738
0.999771
0.999797
0.999821
0.999838
0.999847
0.999841
0.999798
0.99967
0.99934
0.998534
0.996654
0.992492
0.98402
1.00018
1
0.999776
0.999808
0.999867
0.999886
0.999893
0.999897
0.999899
0.999896
0.99988
0.999834
0.999714
0.999416
0.998714
0.99714
0.993837
0.987585
1.00003
0.999994
0.999833
0.999822
0.999855
0.999871
0.999877
0.999883
0.999887
0.999886
0.999874
0.999835
0.99973
0.999476
0.998891
0.99763
0.995111
0.990619
1.00001
1.00003
0.999913
0.999873
0.999883
0.999891
0.999895
0.999897
0.9999
0.999898
0.999887
0.999852
0.999763
0.999552
0.999083
0.998111
0.99626
0.993109
1
1.00003
0.999948
0.999903
0.9999
0.999903
0.999904
0.999906
0.999907
0.999905
0.999894
0.999865
0.99979
0.999614
0.999237
0.998481
0.997085
0.994782
1
1.00003
0.99997
0.999929
0.999919
0.999917
0.999916
0.999915
0.999915
0.999913
0.999903
0.999877
0.999814
0.99967
0.999367
0.998776
0.997717
0.996009
0.999998
1.00002
0.999986
0.999952
0.999938
0.999932
0.999929
0.999927
0.999925
0.999922
0.999913
0.999891
0.99984
0.999726
0.999494
0.999054
0.998285
0.99707
0.999998
1.00002
0.999996
0.99997
0.999956
0.999948
0.999943
0.99994
0.999937
0.999934
0.999925
0.999907
0.999868
0.999783
0.999614
0.999302
0.998771
0.997948
0.999998
1.00001
1
0.999983
0.999972
0.999964
0.999958
0.999954
0.999949
0.999945
0.999938
0.999924
0.999895
0.999835
0.999719
0.999511
0.999164
0.998637
0.999998
1.00001
1.00001
0.999993
0.999984
0.999977
0.999971
0.999967
0.999962
0.999958
0.999953
0.999941
0.999921
0.999881
0.999806
0.999676
0.999464
0.999147
0.999998
1.00001
1.00001
1
0.999993
0.999986
0.999982
0.999979
0.999975
0.99997
0.999965
0.999958
0.999944
0.999919
0.999874
0.999799
0.999679
0.999502
0.999998
1.00001
1.00001
1
0.999998
0.999995
0.999991
0.999988
0.999985
0.999982
0.999978
0.999972
0.999964
0.999949
0.999923
0.999883
0.99982
0.99973
0.999999
1.00001
1.00001
1
1
1
0.999997
0.999994
0.999992
0.999989
0.999988
0.999985
0.999979
0.99997
0.999957
0.999936
0.999906
0.999865
0.999998
1.00001
1.00001
1
1
1
1
0.999999
0.999997
0.999996
0.999993
0.999991
0.999988
0.999985
0.999978
0.999968
0.999953
0.999935
0.999999
1
1.00001
1.00001
1.00001
1.00001
1
0.999999
0.999998
0.999998
0.999997
0.999996
0.999993
0.999989
0.999984
0.999979
0.999972
0.999967
0.999999
1.00001
1.00001
1.00001
1.00001
1.00001
1
0.999999
0.999996
0.999995
0.999993
0.999991
0.999989
0.999987
0.999985
0.999981
0.999977
0.999975
0.999998
1.00001
1.00001
1.00001
1
1
1
0.999996
0.999992
0.999989
0.999988
0.999986
0.999984
0.999983
0.99998
0.999977
0.999975
0.999976
0.999997
1.00001
1.00001
1.00001
1
0.999995
0.999992
0.999987
0.999983
0.99998
0.999977
0.999975
0.999973
0.999972
0.999971
0.999969
0.999966
0.999967
0.999997
1.00001
1.00002
1.00001
0.999995
0.999987
0.999982
0.999976
0.999973
0.99997
0.999967
0.999966
0.999966
0.999964
0.999963
0.999962
0.99996
0.99996
0.999996
1.00003
1.00002
0.999994
0.999975
0.999966
0.999959
0.999954
0.999952
0.99995
0.999949
0.999948
0.999948
0.999949
0.999948
0.999948
0.999947
0.999949
0.999994
1.00005
1.00003
0.999984
0.999963
0.999957
0.999953
0.99995
0.999949
0.999948
0.999947
0.999947
0.999948
0.999948
0.999948
0.999947
0.999947
0.999949
0.999986
1.00005
0.999974
0.999913
0.9999
0.9999
0.9999
0.999902
0.999905
0.999908
0.999911
0.999914
0.999918
0.999921
0.999925
0.999927
0.999928
0.999931
1.00011
1.00014
0.999977
0.99993
0.999954
0.99997
0.999971
0.999969
0.999965
0.999962
0.999959
0.999954
0.999952
0.99995
0.999949
0.999948
0.999947
0.999947
1.00029
1.00004
0.999634
0.999556
0.999609
0.999662
0.999706
0.999746
0.999781
0.999809
0.999832
0.99985
0.999865
0.999878
0.999888
0.999897
0.999905
0.999908
1.00089
1.00118
1.00097
1.00079
1.00062
1.00045
1.00031
1.00022
1.00015
1.0001
1.00006
1.00003
1.00001
0.999992
0.999981
0.999974
0.99997
0.999957
0.993498
0.994872
0.996789
0.998012
0.998681
0.999064
0.999313
0.999485
0.999605
0.99969
0.99975
0.999794
0.999827
0.999852
0.999872
0.999888
0.999905
0.999901
1.00657
1.00291
1.00132
1.00082
1.00049
1.00027
1.00014
1.00007
1.00002
0.99999
0.999968
0.999954
0.999944
0.999937
0.999933
0.999931
0.999938
0.999912
0.236344
0.236276
0.236127
0.23591
0.235625
0.235271
0.23485
0.23436
0.233803
0.233181
0.232497
0.23175
0.230944
0.230079
0.229158
0.228184
0.227157
0.226082
0.22496
0.223794
0.222586
0.22134
0.220059
0.218744
0.217399
0.216027
0.214631
0.213213
0.211777
0.210324
0.208859
0.207383
0.205899
0.204411
0.202921
0.20143
0.199942
0.19846
0.196985
0.195519
0.194065
0.192625
0.191201
0.189795
0.188407
0.187041
0.185697
0.184376
0.183081
0.181812
0.18057
0.179356
0.178171
0.177015
0.17589
0.174795
0.17373
0.172697
0.171695
0.170724
0.169783
0.168874
0.167995
0.167146
0.166328
0.165538
0.164777
0.164045
0.163339
0.162661
0.162009
0.161381
0.160778
0.160199
0.159642
0.159106
0.158591
0.158095
0.157616
0.157155
0.156709
0.156276
0.155856
0.155447
0.155047
0.154654
0.154267
0.153883
0.1535
0.153117
0.152731
0.15234
0.151941
0.151533
0.151113
0.150679
0.150228
0.149758
0.149268
0.148755
0.148216
0.147651
0.147057
0.146433
0.145777
0.145087
0.144362
0.1436
0.142801
0.141962
0.141082
0.14016
0.139195
0.138186
0.13713
0.136028
0.134878
0.133678
0.132429
0.131128
0.129774
0.128367
0.126906
0.125391
0.123819
0.122192
0.120507
0.118766
0.116966
0.115109
0.113194
0.111221
0.109191
0.107104
0.10496
0.10276
0.100506
0.0981981
0.0958385
0.0934286
0.0909705
0.0884666
0.0859194
0.0833319
0.0807073
0.0780491
0.0753612
0.0726479
0.0699137
0.0671635
0.0644024
0.061636
0.0588701
0.0561105
0.0533637
0.0506361
0.0479342
0.0452649
0.0426346
0.0400505
0.0375188
0.0350462
0.0326395
0.0303032
0.0280439
0.0258672
0.0237771
0.0217788
0.0198758
0.0180707
0.0163658
0.0147621
0.0132603
0.0118599
0.0105601
0.00935945
0.00825662
0.00724993
0.00634503
0.00553976
0.238394
0.238318
0.238173
0.237957
0.23767
0.237313
0.236887
0.236393
0.235831
0.235201
0.234508
0.233752
0.232936
0.232062
0.231133
0.230149
0.229114
0.228031
0.226902
0.225729
0.224516
0.223264
0.221977
0.220658
0.219309
0.217933
0.216533
0.215112
0.213673
0.212218
0.21075
0.209272
0.207786
0.206296
0.204804
0.203311
0.201822
0.200338
0.198861
0.197394
0.195939
0.194498
0.193072
0.191664
0.190276
0.188908
0.187563
0.186241
0.184945
0.183675
0.182432
0.181217
0.180031
0.178874
0.177748
0.176652
0.175587
0.174554
0.173551
0.17258
0.171639
0.17073
0.169852
0.169004
0.168185
0.167397
0.166637
0.165905
0.165202
0.164525
0.163875
0.16325
0.162649
0.162072
0.161518
0.160986
0.160474
0.159982
0.159508
0.159052
0.15861
0.158184
0.15777
0.157367
0.156974
0.156588
0.156209
0.155833
0.155459
0.155085
0.154709
0.154328
0.15394
0.153543
0.153134
0.152711
0.152272
0.151815
0.151337
0.150836
0.15031
0.149757
0.149176
0.148564
0.14792
0.147242
0.146529
0.145779
0.144991
0.144163
0.143295
0.142383
0.141428
0.140429
0.139382
0.138289
0.137146
0.135954
0.134711
0.133416
0.132068
0.130665
0.129208
0.127694
0.126124
0.124497
0.122812
0.121068
0.119266
0.117404
0.115483
0.113503
0.111464
0.109366
0.10721
0.104996
0.102726
0.100401
0.0980219
0.0955907
0.0931093
0.09058
0.0880054
0.0853882
0.0827318
0.0800396
0.0773155
0.0745638
0.071789
0.0689959
0.0661899
0.0633764
0.0605614
0.0577508
0.054951
0.0521688
0.0494106
0.0466836
0.0439944
0.0413502
0.0387575
0.0362234
0.0337547
0.0313568
0.0290365
0.0267994
0.0246498
0.0225927
0.0206318
0.0187703
0.0170104
0.0153535
0.0138005
0.0123511
0.0110046
0.00975963
0.00861496
0.00756901
0.0066259
0.00578515
0.242499
0.242398
0.242235
0.242002
0.241698
0.241322
0.240874
0.240358
0.239775
0.239125
0.238413
0.237638
0.236805
0.235914
0.234969
0.233971
0.232923
0.231828
0.230687
0.229504
0.228281
0.227021
0.225727
0.224401
0.223046
0.221665
0.22026
0.218834
0.217391
0.215932
0.214461
0.21298
0.211492
0.209999
0.208504
0.20701
0.205518
0.204032
0.202553
0.201084
0.199627
0.198183
0.196756
0.195346
0.193956
0.192586
0.191239
0.189916
0.188617
0.187346
0.186101
0.184885
0.183698
0.18254
0.181413
0.180317
0.179252
0.178218
0.177215
0.176244
0.175305
0.174396
0.173519
0.172673
0.171857
0.171071
0.170314
0.169586
0.168886
0.168213
0.167568
0.166948
0.166353
0.165783
0.165236
0.164712
0.164208
0.163725
0.163261
0.162815
0.162386
0.161971
0.161571
0.161182
0.160804
0.160435
0.160073
0.159715
0.159361
0.159007
0.158652
0.158294
0.157929
0.157555
0.157171
0.156774
0.156361
0.15593
0.155478
0.155004
0.154505
0.15398
0.153426
0.152841
0.152223
0.151572
0.150885
0.150161
0.149398
0.148595
0.14775
0.146862
0.145929
0.144951
0.143925
0.142851
0.141727
0.140551
0.139324
0.138042
0.136706
0.135314
0.133865
0.132358
0.130793
0.129168
0.127483
0.125736
0.123929
0.122059
0.120128
0.118134
0.116078
0.11396
0.11178
0.10954
0.107239
0.104879
0.102462
0.0999881
0.0974602
0.0948801
0.0922503
0.0895736
0.0868532
0.0840925
0.0812954
0.0784662
0.0756092
0.0727297
0.0698326
0.0669239
0.0640094
0.0610953
0.0581883
0.0552952
0.0524229
0.0495787
0.0467698
0.0440037
0.0412875
0.0386285
0.036034
0.0335103
0.0310644
0.0287024
0.0264296
0.0242511
0.0221713
0.0201936
0.018321
0.0165553
0.0148976
0.0133481
0.0119063
0.0105711
0.00934124
0.00821515
0.00719583
0.0062823
0.248667
0.24854
0.248355
0.2481
0.247771
0.247367
0.246892
0.246348
0.245737
0.245061
0.244322
0.243523
0.242665
0.241752
0.240785
0.239767
0.2387
0.237587
0.23643
0.235231
0.233995
0.232722
0.231415
0.230078
0.228713
0.227322
0.225909
0.224475
0.223025
0.221559
0.220082
0.218594
0.217101
0.215602
0.214102
0.212603
0.211107
0.209616
0.208132
0.206659
0.205197
0.20375
0.202318
0.200904
0.19951
0.198136
0.196785
0.195458
0.194157
0.192882
0.191634
0.190415
0.189225
0.188065
0.186936
0.185838
0.184771
0.183737
0.182734
0.181762
0.180823
0.179916
0.17904
0.178195
0.177382
0.176598
0.175845
0.175121
0.174426
0.17376
0.17312
0.172508
0.171921
0.17136
0.170822
0.170308
0.169817
0.169346
0.168896
0.168465
0.168052
0.167655
0.167273
0.166905
0.166549
0.166203
0.165865
0.165534
0.165207
0.164882
0.164558
0.164231
0.1639
0.163561
0.163212
0.162851
0.162476
0.162083
0.16167
0.161235
0.160776
0.16029
0.159775
0.159229
0.158651
0.158038
0.157389
0.156703
0.155976
0.155209
0.154399
0.153545
0.152645
0.151698
0.150703
0.149657
0.148559
0.147408
0.146203
0.144942
0.143624
0.142248
0.140812
0.139316
0.137757
0.136136
0.134451
0.132702
0.130887
0.129007
0.12706
0.125047
0.122966
0.120819
0.118606
0.116326
0.113981
0.111572
0.109098
0.106563
0.103967
0.101313
0.0986028
0.0958391
0.0930251
0.090164
0.0872598
0.0843166
0.081339
0.078332
0.0753008
0.0722515
0.0691901
0.066123
0.0630572
0.0599998
0.0569582
0.0539402
0.0509535
0.0480059
0.0451055
0.0422602
0.039478
0.036766
0.034132
0.0315828
0.0291246
0.0267635
0.0245046
0.0223521
0.0203097
0.0183797
0.016564
0.0148633
0.0132775
0.0118057
0.010447
0.00919976
0.00806621
0.00704423
0.256901
0.256753
0.256545
0.256266
0.25591
0.255477
0.254972
0.254396
0.253753
0.253045
0.252275
0.251445
0.250558
0.249616
0.248622
0.247578
0.246486
0.24535
0.244171
0.242952
0.241696
0.240406
0.239083
0.23773
0.236351
0.234946
0.233521
0.232075
0.230613
0.229138
0.22765
0.226154
0.224651
0.223144
0.221636
0.220129
0.218625
0.217126
0.215636
0.214155
0.212687
0.211233
0.209794
0.208374
0.206973
0.205594
0.204237
0.202904
0.201597
0.200317
0.199064
0.197841
0.196647
0.195483
0.19435
0.193249
0.19218
0.191143
0.190139
0.189166
0.188227
0.18732
0.186445
0.185602
0.18479
0.18401
0.183261
0.182541
0.181852
0.181191
0.180559
0.179955
0.179378
0.178826
0.178301
0.177799
0.177322
0.176866
0.176433
0.17602
0.175626
0.175251
0.174892
0.174548
0.174218
0.173901
0.173593
0.173294
0.173002
0.172713
0.172427
0.172139
0.171849
0.171553
0.171249
0.170934
0.170605
0.17026
0.169896
0.16951
0.1691
0.168663
0.168198
0.167701
0.167172
0.166608
0.166007
0.165368
0.164688
0.163966
0.163201
0.16239
0.161531
0.160624
0.159666
0.158657
0.157593
0.156474
0.155298
0.154063
0.152769
0.151413
0.149993
0.14851
0.146961
0.145345
0.143661
0.141908
0.140085
0.138191
0.136226
0.134188
0.132077
0.129894
0.127638
0.125309
0.122907
0.120434
0.11789
0.115276
0.112593
0.109845
0.107031
0.104156
0.101221
0.0982311
0.0951888
0.0920985
0.0889648
0.0857928
0.0825878
0.0793558
0.0761032
0.0728367
0.0695637
0.0662917
0.0630285
0.0597825
0.056562
0.0533759
0.0502328
0.0471416
0.0441112
0.04115
0.0382664
0.0354686
0.0327639
0.0301595
0.0276614
0.0252752
0.0230053
0.0208551
0.0188272
0.0169231
0.0151433
0.0134875
0.011955
0.0105443
0.00925739
0.00809063
0.267262
0.267093
0.266861
0.266556
0.266171
0.265707
0.265167
0.264557
0.263878
0.263135
0.262329
0.261464
0.260542
0.259567
0.258541
0.257465
0.256344
0.25518
0.253974
0.25273
0.251449
0.250136
0.248791
0.247418
0.246019
0.244597
0.243154
0.241692
0.240215
0.238724
0.237223
0.235713
0.234198
0.232679
0.231158
0.22964
0.228125
0.226615
0.225114
0.223623
0.222145
0.220681
0.219233
0.217803
0.216393
0.215005
0.21364
0.212299
0.210984
0.209696
0.208437
0.207206
0.206006
0.204836
0.203698
0.202592
0.201519
0.200478
0.199471
0.198496
0.197555
0.196647
0.195772
0.194929
0.194119
0.193341
0.192595
0.19188
0.191196
0.190541
0.189916
0.18932
0.188752
0.188212
0.187698
0.18721
0.186747
0.186308
0.185892
0.185499
0.185127
0.184774
0.184441
0.184124
0.183824
0.183538
0.183264
0.183001
0.182747
0.182499
0.182256
0.182014
0.181771
0.181524
0.18127
0.181008
0.180732
0.180442
0.180133
0.179804
0.179451
0.179071
0.178663
0.178224
0.177751
0.177244
0.176698
0.176114
0.175488
0.17482
0.174106
0.173345
0.172535
0.171675
0.170762
0.169795
0.168771
0.167689
0.166548
0.165345
0.164078
0.162746
0.161347
0.15988
0.158343
0.156734
0.155052
0.153296
0.151464
0.149555
0.147568
0.145502
0.143357
0.141132
0.138826
0.136439
0.133972
0.131424
0.128796
0.12609
0.123305
0.120444
0.117508
0.1145
0.111422
0.108278
0.105071
0.101804
0.0984829
0.0951123
0.0916975
0.0882449
0.0847609
0.0812526
0.0777275
0.0741938
0.07066
0.067135
0.063628
0.0601487
0.0567068
0.0533121
0.0499748
0.0467046
0.0435112
0.040404
0.0373919
0.0344833
0.0316858
0.0290062
0.0264501
0.0240224
0.0217266
0.0195652
0.0175397
0.0156504
0.0138972
0.0122787
0.0107971
0.00944737
0.279812
0.279624
0.279368
0.279035
0.278619
0.278121
0.277546
0.276898
0.276181
0.275398
0.274553
0.273649
0.272689
0.271675
0.270611
0.2695
0.268344
0.267145
0.265907
0.264632
0.263322
0.26198
0.260608
0.259209
0.257785
0.25634
0.254874
0.253391
0.251893
0.250383
0.248863
0.247335
0.245802
0.244266
0.24273
0.241195
0.239665
0.238141
0.236625
0.23512
0.233628
0.23215
0.23069
0.229247
0.227825
0.226425
0.225048
0.223696
0.22237
0.221072
0.219803
0.218563
0.217354
0.216176
0.21503
0.213917
0.212837
0.211791
0.210778
0.209799
0.208854
0.207943
0.207066
0.206222
0.205412
0.204634
0.20389
0.203177
0.202496
0.201847
0.201228
0.200639
0.200079
0.199548
0.199045
0.198569
0.198121
0.197697
0.197299
0.196925
0.196574
0.196245
0.195936
0.195648
0.195377
0.195124
0.194885
0.19466
0.194446
0.194241
0.194042
0.193848
0.193655
0.19346
0.193261
0.193055
0.192837
0.192606
0.192357
0.192088
0.191797
0.191479
0.191133
0.190756
0.190345
0.189899
0.189415
0.188891
0.188325
0.187714
0.187058
0.186352
0.185597
0.184788
0.183925
0.183005
0.182027
0.180987
0.179884
0.178717
0.177482
0.176178
0.174803
0.173355
0.171832
0.170232
0.168553
0.166794
0.164954
0.163029
0.16102
0.158925
0.156742
0.154471
0.152111
0.149661
0.147121
0.144491
0.141771
0.138961
0.136062
0.133075
0.130002
0.126845
0.123605
0.120286
0.116891
0.113424
0.109889
0.106291
0.102635
0.0989288
0.0951778
0.0913896
0.0875723
0.0837344
0.0798851
0.0760339
0.0721912
0.0683673
0.0645733
0.0608202
0.0571194
0.0534822
0.0499199
0.0464434
0.0430633
0.0397897
0.036632
0.0335985
0.0306965
0.0279324
0.0253112
0.0228366
0.0205113
0.0183365
0.016313
0.0144398
0.0127196
0.0111461
0.294642
0.294433
0.29415
0.293786
0.293335
0.292801
0.292188
0.2915
0.290741
0.289916
0.289027
0.28808
0.287076
0.28602
0.284914
0.283761
0.282564
0.281326
0.280049
0.278737
0.277391
0.276014
0.274609
0.273178
0.271724
0.270248
0.268754
0.267244
0.26572
0.264184
0.26264
0.261088
0.259533
0.257975
0.256417
0.254862
0.253312
0.251768
0.250234
0.248711
0.2472
0.245706
0.244228
0.242769
0.241331
0.239915
0.238523
0.237157
0.235817
0.234505
0.233222
0.23197
0.230749
0.22956
0.228403
0.22728
0.22619
0.225135
0.224114
0.223128
0.222177
0.22126
0.220378
0.21953
0.218716
0.217937
0.217191
0.216478
0.215798
0.21515
0.214534
0.21395
0.213396
0.212871
0.212377
0.211911
0.211473
0.211063
0.21068
0.210322
0.20999
0.209682
0.209396
0.209133
0.208891
0.208668
0.208463
0.208274
0.208099
0.207935
0.207781
0.207634
0.207491
0.207349
0.207204
0.207054
0.206895
0.206723
0.206535
0.206329
0.2061
0.205846
0.205563
0.20525
0.204903
0.204521
0.2041
0.203639
0.203135
0.202586
0.201989
0.201342
0.200643
0.19989
0.19908
0.198211
0.19728
0.196286
0.195226
0.194097
0.192897
0.191624
0.190275
0.188848
0.187342
0.185753
0.18408
0.18232
0.180472
0.178533
0.176502
0.174377
0.172156
0.169838
0.167422
0.164906
0.16229
0.159573
0.156754
0.153834
0.150813
0.147692
0.14447
0.141151
0.137736
0.134227
0.130628
0.126941
0.123171
0.119322
0.115401
0.111413
0.107365
0.103264
0.09912
0.0949405
0.0907358
0.0865161
0.0822927
0.078077
0.0738812
0.0697179
0.0655999
0.0615401
0.0575516
0.0536472
0.0498394
0.0461404
0.0425614
0.0391129
0.0358041
0.0326433
0.0296373
0.0267914
0.0241098
0.0215949
0.0192488
0.0170711
0.0150652
0.0132237
0.31185
0.311616
0.311303
0.310905
0.310418
0.309844
0.309188
0.308456
0.307652
0.30678
0.305844
0.304848
0.303796
0.302691
0.301537
0.300336
0.299092
0.297808
0.296486
0.29513
0.293741
0.292323
0.290877
0.289407
0.287915
0.286403
0.284874
0.28333
0.281773
0.280206
0.278631
0.27705
0.275466
0.27388
0.272296
0.270714
0.269139
0.267571
0.266013
0.264466
0.262933
0.261417
0.259918
0.258438
0.256979
0.255544
0.254133
0.252748
0.25139
0.250061
0.248761
0.247492
0.246256
0.245051
0.24388
0.242743
0.24164
0.240572
0.23954
0.238542
0.237581
0.236654
0.235763
0.234907
0.234087
0.233301
0.23255
0.231832
0.231149
0.230499
0.229881
0.229296
0.228743
0.228221
0.22773
0.227269
0.226838
0.226436
0.226062
0.225717
0.225398
0.225106
0.224839
0.224596
0.224377
0.22418
0.224003
0.223846
0.223705
0.223579
0.223465
0.223361
0.223264
0.22317
0.223077
0.22298
0.222876
0.222761
0.222632
0.222485
0.222316
0.222123
0.221902
0.221651
0.221367
0.221048
0.22069
0.220291
0.219848
0.21936
0.218823
0.218236
0.217594
0.216897
0.216141
0.215324
0.214442
0.213495
0.212478
0.211389
0.210226
0.208986
0.207666
0.206263
0.204775
0.2032
0.201534
0.199776
0.197922
0.195971
0.193919
0.191765
0.189508
0.187143
0.184671
0.182089
0.179396
0.176591
0.173672
0.170639
0.167493
0.164232
0.160857
0.157369
0.15377
0.150062
0.146246
0.142327
0.138307
0.134191
0.129985
0.125694
0.121325
0.116886
0.112386
0.107834
0.10324
0.0986146
0.0939709
0.0893211
0.0846787
0.0800575
0.075472
0.0709371
0.0664677
0.0620788
0.0577851
0.053601
0.0495401
0.0456153
0.0418381
0.0382191
0.0347671
0.0314897
0.0283928
0.0254807
0.0227565
0.0202212
0.0178793
0.0157223
0.331548
0.331287
0.33094
0.330504
0.329975
0.329357
0.328655
0.327874
0.327019
0.326094
0.325105
0.324054
0.322947
0.321787
0.320577
0.319321
0.318023
0.316685
0.31531
0.313902
0.312462
0.310994
0.309501
0.307984
0.306446
0.30489
0.303318
0.301733
0.300136
0.29853
0.296917
0.2953
0.29368
0.292061
0.290443
0.28883
0.287223
0.285625
0.284037
0.282462
0.280902
0.279358
0.277833
0.276327
0.274844
0.273384
0.271949
0.270541
0.269161
0.26781
0.266489
0.265199
0.263942
0.262718
0.261528
0.260372
0.259252
0.258166
0.257117
0.256104
0.255126
0.254185
0.25328
0.252411
0.251578
0.25078
0.250017
0.24929
0.248597
0.247938
0.247313
0.246721
0.246162
0.245635
0.245141
0.244678
0.244246
0.243845
0.243473
0.243132
0.242819
0.242535
0.242278
0.242048
0.241844
0.241665
0.241509
0.241375
0.241261
0.241164
0.241083
0.241014
0.240955
0.240903
0.240853
0.240802
0.240746
0.240681
0.240603
0.240508
0.240394
0.240256
0.240091
0.239897
0.239671
0.239409
0.239109
0.238769
0.238385
0.237954
0.237474
0.236943
0.236357
0.235713
0.23501
0.234243
0.23341
0.232509
0.231536
0.230488
0.229362
0.228155
0.226864
0.225487
0.224019
0.222459
0.220803
0.219048
0.217191
0.21523
0.213161
0.210982
0.20869
0.206282
0.203756
0.201111
0.198343
0.195452
0.192435
0.189291
0.186019
0.182619
0.17909
0.175432
0.171646
0.167734
0.163697
0.159538
0.15526
0.150867
0.146363
0.141756
0.13705
0.132254
0.127376
0.122426
0.117415
0.112355
0.107258
0.102137
0.0970086
0.091887
0.0867886
0.0817301
0.0767287
0.0718015
0.0669659
0.0622387
0.0576362
0.0531741
0.0488667
0.044727
0.0407668
0.0369959
0.0334225
0.030053
0.0268926
0.0239433
0.0212116
0.0186877
0.353863
0.353571
0.353185
0.352705
0.352129
0.35146
0.350705
0.349868
0.348956
0.347971
0.346921
0.345808
0.344637
0.343412
0.342138
0.340818
0.339456
0.338055
0.336618
0.335148
0.333648
0.332121
0.33057
0.328997
0.327405
0.325796
0.324173
0.322538
0.320892
0.31924
0.317582
0.31592
0.314258
0.312598
0.31094
0.309288
0.307644
0.306009
0.304386
0.302777
0.301183
0.299607
0.298049
0.296513
0.294999
0.29351
0.292046
0.29061
0.289202
0.287823
0.286476
0.28516
0.283877
0.282628
0.281414
0.280234
0.279089
0.277981
0.276909
0.275873
0.274874
0.273911
0.272985
0.272096
0.271243
0.270426
0.269644
0.268898
0.268188
0.267512
0.26687
0.266263
0.26569
0.265149
0.264642
0.264167
0.263725
0.263314
0.262935
0.262587
0.26227
0.261983
0.261725
0.261497
0.261297
0.261124
0.260977
0.260854
0.260755
0.260676
0.260616
0.260571
0.260539
0.260515
0.260497
0.260481
0.260461
0.260435
0.260397
0.260345
0.260274
0.260181
0.260063
0.259916
0.259739
0.259526
0.259277
0.258987
0.258653
0.258274
0.257845
0.257364
0.256828
0.256234
0.255578
0.254859
0.254071
0.253213
0.252281
0.251272
0.250182
0.249008
0.247747
0.246395
0.244949
0.243405
0.24176
0.240011
0.238154
0.236186
0.234102
0.231901
0.229579
0.227133
0.224559
0.221855
0.219018
0.216045
0.212935
0.209685
0.206293
0.202757
0.199078
0.195254
0.191285
0.187171
0.182914
0.178515
0.173977
0.169304
0.164498
0.159566
0.154515
0.14935
0.144081
0.138717
0.133269
0.12775
0.122173
0.116553
0.110905
0.105247
0.0995954
0.09397
0.0883898
0.0828746
0.0774443
0.0721186
0.0669168
0.0618576
0.0569586
0.0522358
0.0477041
0.0433763
0.0392634
0.0353743
0.0317167
0.0282941
0.0251153
0.0221696
0.378933
0.378605
0.378174
0.377643
0.377012
0.376285
0.375468
0.374567
0.373586
0.372532
0.371409
0.370222
0.368977
0.367677
0.366327
0.364931
0.363493
0.362017
0.360506
0.358964
0.357392
0.355796
0.354176
0.352537
0.35088
0.349208
0.347524
0.345829
0.344126
0.342418
0.340706
0.338993
0.33728
0.335571
0.333866
0.332168
0.330479
0.328802
0.327137
0.325486
0.323853
0.322238
0.320642
0.319069
0.317519
0.315994
0.314496
0.313025
0.311583
0.310172
0.308792
0.307444
0.306129
0.304848
0.303602
0.302391
0.301216
0.300077
0.298975
0.297909
0.29688
0.295887
0.294932
0.294013
0.293131
0.292285
0.291475
0.290701
0.289962
0.289259
0.28859
0.287956
0.287356
0.28679
0.286258
0.285759
0.285294
0.284861
0.28446
0.284093
0.283757
0.283453
0.283181
0.282939
0.282728
0.282547
0.282394
0.282268
0.282168
0.282091
0.282036
0.281999
0.281978
0.281968
0.281966
0.281968
0.28197
0.281966
0.281953
0.281928
0.281886
0.281824
0.281739
0.281627
0.281485
0.28131
0.281098
0.280848
0.280554
0.280216
0.279828
0.279389
0.278895
0.278342
0.277727
0.277048
0.2763
0.275481
0.274585
0.273611
0.272554
0.271411
0.270177
0.268849
0.267424
0.265897
0.264265
0.262524
0.260669
0.258697
0.256603
0.254385
0.252038
0.249559
0.246943
0.244187
0.241288
0.238243
0.235047
0.231699
0.228196
0.224534
0.220714
0.216731
0.212587
0.20828
0.20381
0.199178
0.194385
0.189435
0.18433
0.179076
0.173676
0.16814
0.162473
0.156687
0.150791
0.144799
0.138724
0.132582
0.12639
0.120165
0.113928
0.107698
0.101498
0.0953502
0.0892767
0.0833007
0.0774448
0.0717309
0.0661803
0.0608126
0.0556463
0.0506975
0.0459808
0.0415081
0.0372898
0.0333318
0.0296457
0.0262197
0.406909
0.40654
0.406057
0.405466
0.40477
0.403973
0.403081
0.402102
0.40104
0.399902
0.398692
0.397417
0.396082
0.394691
0.393251
0.391764
0.390236
0.388671
0.387072
0.385442
0.383786
0.382107
0.380406
0.378688
0.376955
0.375209
0.373452
0.371688
0.369917
0.368144
0.366369
0.364594
0.362823
0.361056
0.359296
0.357544
0.355803
0.354075
0.352361
0.350663
0.348982
0.347322
0.345682
0.344065
0.342472
0.340905
0.339365
0.337853
0.336371
0.334919
0.333499
0.332111
0.330757
0.329436
0.328151
0.3269
0.325686
0.324507
0.323365
0.322259
0.32119
0.320158
0.319162
0.318202
0.31728
0.316393
0.315542
0.314727
0.313948
0.313204
0.312494
0.31182
0.311179
0.310573
0.310001
0.309463
0.308958
0.308487
0.30805
0.307646
0.307275
0.306937
0.306632
0.30636
0.30612
0.305912
0.305734
0.305586
0.305466
0.305373
0.305303
0.305255
0.305225
0.305209
0.305203
0.305203
0.305206
0.305205
0.305198
0.305181
0.305149
0.3051
0.305029
0.304935
0.304812
0.304658
0.30447
0.304244
0.303976
0.303665
0.303306
0.302896
0.302432
0.30191
0.301327
0.300679
0.299962
0.299173
0.298308
0.297362
0.296333
0.295216
0.294006
0.292701
0.291295
0.289784
0.288165
0.286432
0.284581
0.282609
0.280509
0.278279
0.275913
0.273408
0.270757
0.267959
0.265007
0.261899
0.258629
0.255195
0.251592
0.247817
0.243868
0.239741
0.235434
0.230947
0.226277
0.221424
0.216389
0.211174
0.20578
0.200211
0.194471
0.188567
0.182506
0.176297
0.169951
0.16348
0.156898
0.150221
0.143467
0.136655
0.129806
0.122942
0.116089
0.109269
0.10251
0.0958364
0.0892754
0.0828526
0.076593
0.0705205
0.0646573
0.0590239
0.0536386
0.0485169
0.0436729
0.0391153
0.0348587
0.0308909
0.437956
0.437538
0.436993
0.43633
0.435555
0.434672
0.43369
0.432615
0.431452
0.43021
0.428894
0.427511
0.426066
0.424565
0.423014
0.421418
0.419781
0.418108
0.416404
0.414671
0.412914
0.411136
0.40934
0.407529
0.405706
0.403872
0.402032
0.400186
0.398337
0.396487
0.394639
0.392793
0.390953
0.38912
0.387296
0.385482
0.383681
0.381894
0.380123
0.378369
0.376634
0.374921
0.373229
0.371561
0.369917
0.3683
0.366711
0.36515
0.363618
0.362118
0.360649
0.359212
0.357809
0.356439
0.355104
0.353804
0.352539
0.351309
0.350116
0.348958
0.347836
0.346751
0.345702
0.344688
0.343711
0.342769
0.341862
0.340991
0.340155
0.339354
0.338588
0.337855
0.337158
0.336494
0.335864
0.335268
0.334706
0.334178
0.333684
0.333224
0.332798
0.332406
0.332048
0.331724
0.331434
0.331177
0.330953
0.330761
0.330599
0.330466
0.330359
0.330276
0.330213
0.330166
0.330133
0.330109
0.330088
0.330067
0.330043
0.330011
0.329967
0.329909
0.329833
0.329735
0.329611
0.329459
0.329275
0.329055
0.328797
0.328496
0.32815
0.327755
0.327306
0.326802
0.326237
0.325608
0.324911
0.324143
0.323298
0.322374
0.321365
0.320267
0.319077
0.317789
0.316399
0.314903
0.313295
0.311571
0.309726
0.307755
0.305654
0.303416
0.301037
0.298513
0.295837
0.293004
0.290011
0.286851
0.28352
0.280013
0.276326
0.272454
0.268392
0.264138
0.259687
0.255038
0.250186
0.245131
0.239873
0.23441
0.228743
0.222876
0.216811
0.210554
0.204109
0.197487
0.190697
0.18375
0.176661
0.169445
0.162121
0.15471
0.147232
0.139714
0.13218
0.124658
0.117176
0.109765
0.102453
0.095272
0.0882498
0.0814152
0.0747952
0.0684146
0.0622963
0.0564603
0.0509247
0.0457015
0.0408093
0.0362358
0.472255
0.471778
0.471158
0.470407
0.469534
0.468544
0.467446
0.466249
0.46496
0.463587
0.462137
0.460618
0.459037
0.457399
0.455713
0.453982
0.452214
0.450412
0.448581
0.446725
0.444848
0.442954
0.441046
0.439126
0.437198
0.435263
0.433324
0.431384
0.429444
0.427507
0.425574
0.423647
0.421728
0.419818
0.41792
0.416035
0.414165
0.41231
0.410473
0.408655
0.406858
0.405082
0.403329
0.401601
0.399898
0.398222
0.396573
0.394953
0.393363
0.391803
0.390275
0.388778
0.387314
0.385883
0.384486
0.383123
0.381794
0.3805
0.37924
0.378016
0.376827
0.375672
0.374553
0.373469
0.37242
0.371405
0.370425
0.369479
0.368568
0.367691
0.366847
0.366038
0.365262
0.36452
0.363812
0.363137
0.362496
0.361889
0.361316
0.360778
0.360274
0.359804
0.35937
0.358971
0.358606
0.358277
0.357982
0.35772
0.357491
0.357292
0.357122
0.356976
0.356854
0.356752
0.356664
0.356587
0.356516
0.356449
0.356381
0.356309
0.356229
0.356137
0.356031
0.355906
0.355759
0.355586
0.355385
0.355151
0.354881
0.354572
0.35422
0.353821
0.353372
0.352868
0.352306
0.351683
0.350993
0.350232
0.349397
0.348483
0.347485
0.3464
0.345221
0.343945
0.342567
0.341081
0.339483
0.337767
0.335928
0.33396
0.331859
0.329618
0.327233
0.324696
0.322003
0.319147
0.316123
0.312925
0.309547
0.305983
0.302228
0.298276
0.294122
0.289761
0.285188
0.280398
0.275388
0.270155
0.264696
0.25901
0.253095
0.246953
0.240586
0.233996
0.227188
0.22017
0.212951
0.205541
0.197955
0.190206
0.182315
0.174302
0.166189
0.158003
0.149771
0.141524
0.133292
0.125109
0.117009
0.109025
0.101192
0.0935425
0.0861088
0.0789211
0.0720073
0.0653924
0.0590992
0.053144
0.0475498
0.0423045
0.510007
0.509461
0.508747
0.507886
0.506886
0.505757
0.50451
0.503154
0.501701
0.500158
0.498537
0.496845
0.495092
0.493284
0.49143