/*--------------------------------*- C++ -*----------------------------------*\
| =========                 |                                                 |
| \\      /  F ield         | OpenFOAM: The Open Source CFD Toolbox           |
|  \\    /   O peration     | Version:  2.3.0                                 |
|   \\  /    A nd           | Web:      www.OpenFOAM.org                      |
|    \\/     M anipulation  |                                                 |
\*---------------------------------------------------------------------------*/
FoamFile
{
    version     2.0;
    format      ascii;
    class       volScalarField;
    location    "1.95";
    object      p;
}
// * * * * * * * * * * * * * * * * * * * * * * * * * * * * * * * * * * * * * //

dimensions      [1 -1 -2 0 0 0 0];

internalField   nonuniform List<scalar> 
2268
(
678.238
677.251
684.965
688.667
665.73
667.943
682.119
675.044
674.973
668.306
658.039
647.326
636.499
624.934
613.007
601.642
591.388
584.975
582.592
582.318
585.733
592.952
597.4
617.862
617.617
632.794
628.889
610.544
608.324
624.095
616.073
616.748
610.169
599.446
588.436
577.691
566.296
554.362
542.882
531.725
524.52
522.613
522.603
525.742
532.731
538.06
560.302
561.585
577.495
567.635
550.772
544.982
563.795
556.895
559.272
552.738
541.127
529.5
518.913
507.547
494.972
482.952
471.576
464.921
463.583
463.382
465.767
472.42
478.819
507.68
505.93
514.912
507.077
491.072
488.624
502.976
498.294
502.521
495.942
483.217
470.857
460.131
448.74
434.913
422.088
410.758
404.645
403.749
403.499
405.398
411.446
419.356
454.867
445.558
447.596
447.96
437.224
441.485
443.995
440.62
446.753
439.73
425.649
412.517
400.928
388.623
373.945
360.552
348.883
344.136
343.776
343.64
344.186
347.705
358.997
400.747
383.456
381.512
390.512
387.802
401.062
389.064
384.301
391.748
384.007
369.331
354.204
340.798
326.672
311.576
298.095
286.699
283.408
283.432
283.003
281.34
283.637
299.948
346.409
327.585
320.039
335.828
340.074
363.179
342.753
333.439
337.89
329.102
313.393
295.922
280.01
263.23
247.782
234.368
222.996
221.209
222.559
224.236
223.268
227.138
246.897
290.307
277.428
264.012
284.566
297.135
322.039
304.153
290.88
285.515
274.509
256.448
236.7
219.611
200.504
183.509
169.27
157.345
156.884
162.004
169.249
172.642
175.362
195.615
708.125
703.623
682.537
658.497
671.757
693.991
699.129
697.277
705.967
734.866
779.77
823.261
851.647
866.947
875.527
880.732
887.343
897.665
912.838
650.38
644.63
616.476
584.263
606.244
637.268
642.588
640.916
647.829
675.54
721.163
765.743
796.131
814.692
823.252
827.824
833.14
841.876
858.543
596.187
584.956
543.866
516.292
542.885
575.006
582.46
579.074
585.089
612.242
658.993
706.018
738.796
759.427
771.114
776.482
782.8
789.609
806.101
539.754
525.972
479.764
458.085
476.007
491.769
497.54
507.152
522.55
549.667
598.566
646.655
679.132
700.487
715.399
724.971
732.997
741.143
757.057
482.988
470.341
430.926
412.184
407.619
389.631
386.895
423.024
464.621
501.026
547.153
590.69
619.752
639.297
655.097
670.065
683.148
694.594
709.003
423.885
417.96
392.68
374.072
352.45
319.695
304.579
340.094
411.397
462.529
503.656
538.314
562.304
580.368
596.066
612.877
630.851
646.835
660.351
362.815
367.579
356.97
341.404
318.671
279.238
257.835
289.898
362.405
421.211
458.28
486.156
506.17
523.155
539.221
556.967
576.834
596.711
611.387
303.772
318.943
316.209
305.958
287.071
235.862
212.06
244.029
311.81
369.943
405.242
428.277
447.601
465.815
482.481
502.736
523.156
545.39
561.846
198.816
195.315
186.295
204.883
229.073
242.261
235.186
220.905
204.993
190.268
170.528
148.258
126.905
103.807
86.3831
73.835
66.1497
63.2221
75.5936
106.86
111.22
99.1602
84.6063
75.2538
76.6792
74.5641
87.6184
114.924
131.722
129.929
111.609
99.6331
92.726
76.5809
53.175
33.7992
19.7638
14.8222
11.4208
9.58754
8.57985
10.1342
17.3865
26.0665
29.7691
20.8704
9.84616
9.02487
9.11388
16.4605
34.5979
52.1728
47.086
31.7271
27.3271
31.3757
19.6768
7.15587
6.20513
7.0847
7.02183
6.24134
5.811
5.45099
5.09748
5.18613
7.22327
8.84849
7.77042
2.82755
2.65286
2.46972
2.81911
4.70963
6.18305
6.1806
3.65216
2.03336
0.844239
0.327546
1.74549
3.50359
4.80167
5.36751
5.38543
5.31912
5.0575
4.67333
4.4632
4.83826
4.43316
3.65711
2.44945
2.35797
2.27005
2.31028
2.33193
1.97915
1.5328
1.43207
0.869324
0.180667
0.378874
1.17173
1.91568
2.58626
3.28701
4.29021
4.82289
4.78979
4.51119
4.1947
3.96996
3.34772
2.83691
2.09894
2.01858
1.95169
1.93794
2.00474
1.95289
1.66183
1.34595
0.980967
0.617784
0.53592
0.800954
1.19442
1.66107
2.2791
3.00471
3.72813
3.98307
3.52046
2.76413
1.62885
1.66833
1.91461
1.80286
1.71361
1.67264
1.65053
1.71078
1.73236
1.4733
1.14589
0.776834
0.432877
0.290617
0.407287
0.676684
1.09229
1.72496
2.16755
2.39324
2.13593
0.854713
-0.869084
-2.10139
-0.269861
0.742321
1.52075
1.43901
1.37147
1.29287
1.32371
1.42814
1.2083
0.891523
0.531461
0.193088
0.0497546
0.146068
0.363745
0.638421
1.05882
1.27748
1.19964
0.528669
-0.955198
-1.78855
-2.14536
-1.11433
-0.141628
1.22189
1.14921
1.05304
0.947986
0.921697
1.03101
0.922181
0.628648
0.333517
0.0644399
-0.051991
0.0298692
0.214401
0.422204
0.596352
0.608092
0.461548
-0.243883
-1.03396
-1.30087
-1.38804
-0.966158
-0.445567
0.890318
0.837827
0.733159
0.626836
0.552716
0.579834
0.556081
0.365167
0.189672
0.0312385
-0.0492816
0.0184128
0.188697
0.378417
0.353581
0.279485
0.143866
-0.306991
-0.663687
-0.816774
-0.773782
-0.631027
-0.510043
0.535082
0.515201
0.410681
0.302385
0.204421
0.14808
0.139549
0.101421
0.0892485
0.0260449
-0.00818299
0.0279495
0.21855
0.478209
0.0636788
-0.127642
0.0435202
0.0458268
-0.184794
-0.421193
-0.495494
-0.561532
-0.621205
0.228383
0.174998
0.0576973
-0.0581582
-0.152796
-0.215716
-0.216862
-0.107164
0.00886401
-0.00424263
-0.0180738
0.0121701
0.190896
0.422667
-0.320525
-0.641835
-0.531047
-0.305867
-0.332769
-0.485588
-0.651978
-0.748461
-0.820093
-0.00802014
-0.143764
-0.272966
-0.345992
-0.444459
-0.482158
-0.434759
-0.216248
-0.0748243
-0.0776012
-0.0918241
-0.057321
0.00981643
-0.200741
-0.953471
-1.12669
-0.837694
-0.665662
-0.665476
-0.860944
-0.970891
-1.05336
-1.13592
-0.142395
-0.301832
-0.409155
-0.490343
-0.560917
-0.571894
-0.491536
-0.290203
-0.185032
-0.19094
-0.230116
-0.287525
-0.3715
-0.858624
-1.33188
-1.31586
-1.0937
-1.06905
-1.21139
-1.22875
-1.24464
-1.33098
-1.44537
-0.160329
-0.261628
-0.391386
-0.488221
-0.539043
-0.558757
-0.528297
-0.414569
-0.348643
-0.351105
-0.406869
-0.488599
-0.618982
-0.947717
-1.2339
-1.29715
-1.3545
-1.44424
-1.57672
-1.52185
-1.50797
-1.53871
-1.63001
-0.155091
-0.263761
-0.398554
-0.525227
-0.653106
-0.738674
-0.766031
-0.677592
-0.565489
-0.508303
-0.531151
-0.552985
-0.630762
-0.857686
-1.22292
-1.40961
-1.56592
-1.60787
-1.65369
-1.68731
-1.70282
-1.71378
-1.74761
-0.184211
-0.304627
-0.46842
-0.72272
-1.10618
-1.23012
-1.19501
-1.04884
-0.879931
-0.752256
-0.7151
-0.768351
-0.931447
-1.28648
-1.7487
-1.81072
-1.74225
-1.72833
-1.74631
-1.7743
-1.82917
-1.89309
-1.95222
-0.239316
-0.35183
-0.590469
-1.14527
-1.61876
-1.66113
-1.60694
-1.55411
-1.47504
-1.45889
-1.52715
-1.75509
-2.09929
-2.28927
-2.40588
-2.23496
-1.97259
-1.91359
-1.91838
-1.93557
-2.00472
-2.12924
-2.24394
-0.350784
-0.456429
-0.849755
-1.62926
-1.92512
-1.9957
-2.08471
-2.25442
-2.52636
-2.69378
-2.62729
-2.66394
-2.76733
-2.76183
-2.65283
-2.47521
-2.28433
-2.19716
-2.18168
-2.20956
-2.27544
-2.38461
-2.50019
-0.674171
-0.824132
-1.35782
-2.06966
-2.17159
-2.25709
-2.50814
-2.93586
-3.37587
-3.46333
-3.20582
-3.07172
-2.98761
-2.92616
-2.84238
-2.73391
-2.62536
-2.56603
-2.55705
-2.56647
-2.59831
-2.65692
-2.7238
-1.38589
-1.72737
-2.32461
-2.81996
-2.8001
-2.72804
-2.9955
-3.34804
-3.57327
-3.55611
-3.39707
-3.23347
-3.14829
-3.09018
-3.03368
-2.97805
-2.93079
-2.90673
-2.91191
-2.93028
-2.94673
-2.95478
-2.95717
-2.18406
-2.96303
-3.68701
-3.99947
-3.85018
-3.65172
-3.63029
-3.6467
-3.67023
-3.62263
-3.5025
-3.37853
-3.2977
-3.24842
-3.21678
-3.19824
-3.19257
-3.20079
-3.22026
-3.24167
-3.25427
-3.25373
-3.24303
-2.83136
-3.64366
-4.64642
-5.00539
-4.67746
-4.29095
-4.02832
-3.86845
-3.77521
-3.69032
-3.59262
-3.50098
-3.43742
-3.40261
-3.38983
-3.39582
-3.41973
-3.45728
-3.49691
-3.52576
-3.54082
-3.55501
-3.55842
-3.3773
-3.9268
-4.78632
-5.23298
-4.99822
-4.56605
-4.25479
-4.02317
-3.87486
-3.77085
-3.6874
-3.62262
-3.58065
-3.56016
-3.55955
-3.57922
-3.62036
-3.67789
-3.73689
-3.78395
-3.82246
-3.8453
-3.84672
-3.9524
-4.26429
-4.69418
-4.92879
-4.83782
-4.54819
-4.27824
-4.08582
-3.95429
-3.86701
-3.80845
-3.76842
-3.74181
-3.72865
-3.73104
-3.75181
-3.79515
-3.85748
-3.92348
-3.9785
-4.02132
-4.05005
-4.05079
-4.44467
-4.58525
-4.5665
-4.52705
-4.48099
-4.36718
-4.23125
-4.11814
-4.04168
-3.99681
-3.97066
-3.94694
-3.92315
-3.9056
-3.9002
-3.91107
-3.94252
-3.99403
-4.05325
-4.10457
-4.14035
-4.15663
-4.15063
-4.69635
-4.73056
-4.503
-4.32823
-4.29234
-4.27985
-4.23763
-4.19641
-4.17815
-4.17712
-4.17246
-4.14898
-4.1126
-4.07852
-4.05761
-4.0526
-4.06496
-4.09629
-4.13901
-4.17918
-4.20473
-4.20843
-4.18572
-4.75084
-4.7373
-4.51312
-4.36887
-4.34087
-4.34474
-4.33863
-4.34512
-4.37334
-4.39884
-4.39617
-4.35487
-4.29285
-4.23351
-4.19528
-4.17663
-4.17061
-4.17986
-4.20084
-4.22445
-4.2387
-4.23134
-4.1898
-4.72495
-4.70601
-4.59286
-4.51299
-4.48755
-4.49158
-4.50894
-4.55117
-4.60935
-4.63678
-4.61793
-4.54905
-4.46012
-4.37691
-4.31913
-4.28947
-4.27056
-4.26203
-4.26318
-4.26873
-4.27076
-4.25802
-4.22064
-4.72392
-4.72541
-4.6863
-4.65874
-4.64769
-4.66609
-4.70824
-4.78184
-4.85105
-4.86689
-4.81426
-4.72442
-4.61449
-4.51556
-4.44082
-4.39834
-4.37119
-4.3515
-4.34007
-4.33313
-4.32546
-4.30966
-4.27932
-4.77298
-4.78763
-4.78466
-4.79146
-4.80063
-4.83814
-4.90482
-4.99496
-5.05369
-5.04644
-4.97461
-4.86826
-4.74851
-4.64406
-4.56285
-4.50778
-4.47349
-4.44741
-4.42943
-4.41716
-4.40569
-4.39021
-4.36673
-4.85059
-4.86959
-4.88467
-4.91226
-4.93856
-4.99352
-5.07342
-5.16282
-5.1997
-5.17686
-5.095
-4.98067
-4.86407
-4.76139
-4.67746
-4.6163
-4.57665
-4.54755
-4.52655
-4.51256
-4.50107
-4.48794
-4.47053
-4.93395
-4.95439
-4.98161
-5.01964
-5.05727
-5.12261
-5.20235
-5.27104
-5.28988
-5.25475
-5.17666
-5.07189
-4.96804
-4.87038
-4.78562
-4.72361
-4.6813
-4.65111
-4.63004
-4.61615
-4.6058
-4.59523
-4.58252
-5.01235
-5.03463
-5.07162
-5.1136
-5.15546
-5.21657
-5.28155
-5.3278
-5.33419
-5.29939
-5.23356
-5.15296
-5.06697
-4.97972
-4.90028
-4.83768
-4.79231
-4.76041
-4.73976
-4.72662
-4.71745
-4.70893
-4.69949
-5.08527
-5.11065
-5.15491
-5.19529
-5.23227
-5.27834
-5.32179
-5.34816
-5.35026
-5.3271
-5.28361
-5.2289
-5.16642
-5.10038
-5.03287
-4.9704
-4.91786
-4.87962
-4.85644
-4.84318
-4.83441
-4.82697
-4.81951
-5.16082
-5.18709
-5.23457
-5.26912
-5.29328
-5.31792
-5.33758
-5.35045
-5.35596
-5.34837
-5.33004
-5.30242
-5.27201
-5.23806
-5.19082
-5.12901
-5.06352
-5.01135
-4.98057
-4.96507
-4.95558
-4.9481
-4.94152
-5.25526
-5.27398
-5.31663
-5.34187
-5.3491
-5.34947
-5.34786
-5.35382
-5.36516
-5.37347
-5.37586
-5.37734
-5.38498
-5.39558
-5.37385
-5.309
-5.22465
-5.15307
-5.11059
-5.09083
-5.07954
-5.07119
-5.06473
-5.36925
-5.3797
-5.40829
-5.41995
-5.40868
-5.3861
-5.37211
-5.37532
-5.38892
-5.40763
-5.42925
-5.45875
-5.51022
-5.57147
-5.57191
-5.49342
-5.3861
-5.29522
-5.24297
-5.21826
-5.20432
-5.19485
-5.18828
-5.48763
-5.49757
-5.51499
-5.51519
-5.48284
-5.43729
-5.41234
-5.41197
-5.42735
-5.45432
-5.49285
-5.55198
-5.65109
-5.75565
-5.75622
-5.65147
-5.52314
-5.42419
-5.36952
-5.34256
-5.32727
-5.31756
-5.31132
-5.59166
-5.61181
-5.63925
-5.64645
-5.59079
-5.51132
-5.47316
-5.47094
-5.48708
-5.52136
-5.56802
-5.64713
-5.77533
-5.90404
-5.8724
-5.74599
-5.61893
-5.53269
-5.486
-5.46131
-5.447
-5.4384
-5.43323
-5.669
-5.69314
-5.7905
-5.88564
-5.78258
-5.61084
-5.55459
-5.5584
-5.58182
-5.6199
-5.66741
-5.73667
-5.82165
-5.93529
-5.87502
-5.76147
-5.67603
-5.61937
-5.58987
-5.57264
-5.56267
-5.55704
-5.55396
-5.74527
-5.79474
-6.03656
-6.21529
-6.12026
-5.82566
-5.71965
-5.69096
-5.70987
-5.75395
-5.81115
-5.87017
-5.8657
-5.88314
-5.83902
-5.77705
-5.72256
-5.69736
-5.68574
-5.67917
-5.67551
-5.67413
-5.6739
89.3012
104.354
127.482
153.528
23.3524
26.7658
29.6342
34.1158
10.7957
12.3632
13.6909
16.1338
3.24019
3.11249
3.54846
4.45209
2.62614
2.51141
2.36204
2.14628
1.84109
1.72175
1.54912
1.35286
0.845322
0.786805
0.644586
0.448324
0.0243027
0.0408292
-0.0101896
-0.10818
-0.34419
-0.306937
-0.300567
-0.308297
-0.500051
-0.48879
-0.484482
-0.466593
-0.643025
-0.646193
-0.647345
-0.627448
-0.85954
-0.875148
-0.884835
-0.889489
-1.18777
-1.20451
-1.21143
-1.21106
-1.47646
-1.47719
-1.46872
-1.44957
-1.65229
-1.6465
-1.62834
-1.60385
-1.76141
-1.76593
-1.76838
-1.76535
-1.98492
-1.99914
-2.01213
-2.02073
-2.29375
-2.31545
-2.31816
-2.32054
-2.55493
-2.57747
-2.58895
-2.60217
-2.75249
-2.76483
-2.77533
-2.79652
-2.94593
-2.9405
-2.94363
-2.9591
-3.21241
-3.18761
-3.16991
-3.17463
-3.53114
-3.50986
-3.49665
-3.50787
-3.82988
-3.82258
-3.83292
-3.8643
-4.03376
-4.0269
-4.04271
-4.07655
-4.11654
-4.08993
-4.07516
-4.06833
-4.13015
-4.08593
-4.04326
-3.99873
-4.13147
-4.08996
-4.04466
-3.99306
-4.17383
-4.1393
-4.10148
-4.05793
-4.24636
-4.22263
-4.19642
-4.16765
-4.34359
-4.32716
-4.30912
-4.28987
-4.4544
-4.44323
-4.43129
-4.41895
-4.57145
-4.56397
-4.55622
-4.54842
-4.69184
-4.6868
-4.68168
-4.67665
-4.81399
-4.81046
-4.80694
-4.80357
-4.93718
-4.93452
-4.93194
-4.92954
-5.06096
-5.05876
-5.05672
-5.05488
-5.18484
-5.18293
-5.18123
-5.17976
-5.30829
-5.30667
-5.30529
-5.30415
-5.43092
-5.42972
-5.42876
-5.42799
-5.55275
-5.55218
-5.55176
-5.55145
-5.67415
-5.67437
-5.67462
-5.67488
194.903
241.879
249.412
207.251
171.747
140.92
132.698
164.483
221.203
269.755
304.059
330.022
351.637
373.525
395.884
416.684
440.213
466.453
487.301
54.0901
94.04
93.3243
62.1166
49.5067
35.5648
40.031
53.5507
86.3889
124.29
157.253
186.132
216.155
249.672
281.996
308.527
337.175
368.602
392.552
24.1579
34.5117
25.762
17.4364
13.4385
11.2415
7.33548
4.99838
10.4064
22.1926
34.7983
52.8773
83.7311
126.612
170.595
214.04
254.014
288.723
313.945
5.90705
8.12465
9.49583
6.90759
2.92092
4.35221
4.73434
4.18864
3.95863
3.80627
3.98596
5.56882
12.6375
35.8648
69.8441
124.336
180.373
227.884
248.597
1.93131
2.26352
2.48971
1.94679
1.77415
3.00463
3.31295
3.23132
3.26249
3.30717
3.39558
3.88852
6.05056
11.317
20.0517
48.9744
108.204
160.889
184.891
1.21898
1.57604
2.26805
2.77686
3.05602
3.02871
2.7726
2.71356
2.82503
2.89095
3.0426
3.26066
4.88894
9.89443
13.3503
16.2688
50.177
97.7813
121.414
0.239536
0.652839
1.62805
2.47705
3.10782
2.92304
2.44007
2.38333
2.43264
2.5629
2.6988
2.90239
3.72436
7.55853
9.45787
7.78592
11.1726
29.8011
59.5972
-0.216972
0.123865
0.75862
1.13059
1.52519
2.0099
1.76786
1.64884
1.73294
2.02027
2.305
2.66061
2.80111
4.05587
4.19238
5.35871
5.83705
5.83681
30.0893
-0.321157
-0.0190078
0.314486
0.534844
0.734168
0.956721
0.967017
0.932393
0.950258
0.9825
1.15506
1.74517
2.08633
3.00335
1.88924
3.74716
3.81646
9.34213
20.9445
-0.378126
-0.14864
0.0982742
0.32224
0.499913
0.612363
0.636214
0.630408
0.576485
0.480329
0.405255
0.421234
0.498768
0.548667
0.509762
2.06548
2.43636
1.30665
1.38696
-0.549283
-0.366109
-0.12107
0.127699
0.332892
0.461447
0.494632
0.458261
0.378352
0.233976
0.0265376
-0.272458
-0.781191
-2.43038
-1.85824
-0.569515
-0.907431
-0.346838
0.316384
-0.870147
-0.676717
-0.393996
-0.103186
0.13583
0.29964
0.351358
0.285929
0.140591
-0.097709
-0.373619
-0.717846
-1.39595
-2.35692
-2.1348
-1.90345
-1.74545
-1.26816
-0.350111
-1.17732
-0.995818
-0.696946
-0.392857
-0.133675
0.0780002
0.152162
0.0810093
-0.164202
-0.502338
-0.790771
-1.02145
-1.36689
-1.93739
-2.07648
-1.90836
-1.81175
-1.79673
-0.981449
-1.39743
-1.24612
-0.984811
-0.727511
-0.526828
-0.338457
-0.24502
-0.325336
-0.576658
-0.89702
-1.17144
-1.3273
-1.40805
-1.71139
-1.93568
-1.87522
-1.75315
-1.62172
-1.25803
-1.55563
-1.43053
-1.25978
-1.12115
-1.04069
-0.969431
-0.939596
-0.991582
-1.15084
-1.42318
-1.61755
-1.71107
-1.65062
-1.75018
-1.92157
-1.91312
-1.78617
-1.78039
-1.50059
-1.75033
-1.64681
-1.58605
-1.57958
-1.59773
-1.62924
-1.72789
-1.87395
-1.99436
-2.05462
-2.11325
-2.14408
-2.10228
-2.07039
-2.12228
-2.07779
-1.89366
-1.78339
-1.57739
-1.99492
-1.95528
-1.97437
-2.02896
-2.09819
-2.16406
-2.33786
-2.57761
-2.758
-2.72186
-2.59301
-2.48091
-2.42181
-2.35641
-2.34568
-2.3029
-2.09404
-1.93647
-1.78049
-2.29833
-2.2971
-2.36209
-2.43429
-2.48788
-2.54963
-2.71097
-2.93862
-3.11111
-3.11087
-2.92806
-2.71131
-2.59892
-2.5592
-2.55286
-2.52091
-2.33356
-2.17817
-2.10383
-2.63764
-2.6446
-2.78618
-2.86072
-2.83941
-2.85521
-2.93933
-3.0828
-3.18729
-3.21147
-3.09266
-2.88409
-2.72811
-2.69401
-2.70966
-2.69467
-2.56825
-2.43345
-2.55986
-2.87582
-2.99514
-3.19739
-3.22568
-3.17934
-3.15187
-3.16865
-3.2255
-3.22376
-3.2181
-3.16541
-3.02417
-2.87134
-2.81499
-2.84645
-2.85316
-2.78958
-2.68938
-2.83345
-3.03222
-3.33922
-3.48334
-3.50611
-3.46028
-3.41462
-3.39843
-3.36975
-3.29934
-3.24271
-3.23087
-3.16165
-3.0385
-2.97894
-3.02201
-3.03868
-3.01142
-2.96698
-2.98167
-3.27367
-3.63232
-3.76231
-3.77713
-3.68748
-3.61366
-3.57938
-3.5565
-3.44035
-3.35573
-3.34427
-3.33159
-3.2464
-3.21235
-3.24142
-3.2538
-3.22503
-3.21561
-3.13936
-3.65227
-3.94504
-4.10854
-4.05511
-3.89152
-3.78599
-3.74944
-3.75395
-3.66998
-3.57283
-3.54022
-3.55831
-3.50741
-3.48153
-3.47234
-3.47127
-3.41621
-3.37122
-3.28456
-4.08316
-4.4065
-4.42416
-4.26571
-4.04961
-3.94218
-3.92834
-3.94718
-3.93
-3.88036
-3.86132
-3.84653
-3.78437
-3.71989
-3.68546
-3.67136
-3.59354
-3.50627
-3.43418
-4.26783
-4.49569
-4.43659
-4.25653
-4.08673
-4.04222
-4.0925
-4.13905
-4.19097
-4.24074
-4.25397
-4.14902
-4.01878
-3.92692
-3.88899
-3.86073
-3.77065
-3.67627
-3.61626
-4.0955
-4.15967
-4.14863
-4.06166
-4.02049
-4.08102
-4.21625
-4.31795
-4.39863
-4.53075
-4.56517
-4.39531
-4.20431
-4.11927
-4.08953
-4.0446
-3.9428
-3.85837
-3.80936
-3.91201
-3.85831
-3.86088
-3.88184
-3.95903
-4.10082
-4.30171
-4.45946
-4.57483
-4.73809
-4.76802
-4.55221
-4.36379
-4.31279
-4.28848
-4.21515
-4.10123
-4.0278
-3.98394
-3.8809
-3.76956
-3.77304
-3.8461
-3.96967
-4.1392
-4.36872
-4.57562
-4.7357
-4.85288
-4.82907
-4.6424
-4.53467
-4.51325
-4.47675
-4.35734
-4.24394
-4.17654
-4.13393
-3.96696
-3.87928
-3.87336
-3.93702
-4.04652
-4.20488
-4.4255
-4.66138
-4.87522
-5.02966
-4.9607
-4.74385
-4.7076
-4.68915
-4.61508
-4.47219
-4.36413
-4.30435
-4.26482
-4.10971
-4.05186
-4.04127
-4.08248
-4.16258
-4.29058
-4.47189
-4.69556
-4.939
-5.16243
-5.12663
-4.94689
-4.87795
-4.80824
-4.6919
-4.55054
-4.46157
-4.41348
-4.38094
-4.25432
-4.21914
-4.2126
-4.24043
-4.29682
-4.38769
-4.51346
-4.68631
-4.90018
-5.08819
-5.12611
-5.05177
-4.94694
-4.84361
-4.71635
-4.60538
-4.54373
-4.5091
-4.48616
-4.39784
-4.37649
-4.37379
-4.39328
-4.43299
-4.49186
-4.56764
-4.67283
-4.81094
-4.93012
-4.98034
-4.96188
-4.89585
-4.81184
-4.72285
-4.65689
-4.62098
-4.5989
-4.58585
-4.53563
-4.52272
-4.52226
-4.5356
-4.56351
-4.6006
-4.64425
-4.70158
-4.77371
-4.83676
-4.86662
-4.86313
-4.83583
-4.79428
-4.75116
-4.71981
-4.70165
-4.68956
-4.68482
-4.66862
-4.66081
-4.66118
-4.67026
-4.68888
-4.71181
-4.73637
-4.76845
-4.80807
-4.84214
-4.85975
-4.86045
-4.8496
-4.83196
-4.81306
-4.79863
-4.78958
-4.78433
-4.78551
-4.79831
-4.79349
-4.79395
-4.80003
-4.81162
-4.8254
-4.83879
-4.85667
-4.88013
-4.90185
-4.91575
-4.92035
-4.91636
-4.9078
-4.89798
-4.88987
-4.88472
-4.8837
-4.88842
-4.92589
-4.92276
-4.92303
-4.92685
-4.93366
-4.94168
-4.94908
-4.95906
-4.97303
-4.98699
-4.99724
-5.00262
-5.00279
-4.99919
-4.99383
-4.98877
-4.98577
-4.98715
-4.9934
-5.05218
-5.04995
-5.04993
-5.05211
-5.05597
-5.06047
-5.06456
-5.07002
-5.07803
-5.08661
-5.0935
-5.09792
-5.0995
-5.09856
-5.09603
-5.0932
-5.09184
-5.09428
-5.10063
-5.17767
-5.17595
-5.17564
-5.17667
-5.17866
-5.181
-5.18309
-5.1858
-5.18996
-5.19483
-5.19913
-5.20248
-5.2043
-5.20461
-5.20378
-5.20253
-5.20228
-5.20484
-5.21043
-5.30255
-5.30124
-5.30078
-5.30104
-5.3018
-5.3027
-5.30343
-5.30438
-5.3061
-5.30847
-5.31073
-5.31338
-5.3151
-5.31597
-5.31608
-5.31582
-5.31614
-5.31829
-5.32278
-5.42695
-5.4261
-5.42567
-5.42551
-5.42544
-5.42532
-5.42504
-5.42478
-5.42496
-5.42586
-5.42749
-5.42875
-5.43006
-5.43103
-5.43159
-5.43186
-5.43239
-5.43395
-5.43729
-5.55108
-5.5508
-5.55057
-5.55026
-5.54973
-5.54889
-5.54775
-5.54646
-5.54547
-5.54529
-5.54596
-5.5468
-5.54776
-5.54859
-5.5492
-5.54961
-5.55007
-5.55101
-5.55329
-5.67528
-5.67566
-5.67571
-5.67539
-5.67463
-5.67343
-5.6718
-5.66985
-5.66792
-5.66676
-5.66669
-5.66717
-5.66766
-5.66813
-5.66855
-5.6689
-5.66927
-5.66968
-5.67046
)
;

boundaryField
{
    leftWall
    {
        type            calculated;
        value           nonuniform List<scalar> 
50
(
678.238
617.862
560.302
507.68
454.867
400.747
346.409
290.307
198.816
75.2538
9.84616
2.82755
2.44945
2.09894
1.80286
1.52075
1.22189
0.890318
0.535082
0.228383
-0.00802014
-0.142395
-0.160329
-0.155091
-0.184211
-0.239316
-0.350784
-0.674171
-1.38589
-2.18406
-2.83136
-3.3773
-3.9524
-4.44467
-4.69635
-4.75084
-4.72495
-4.72392
-4.77298
-4.85059
-4.93395
-5.01235
-5.08527
-5.16082
-5.25526
-5.36925
-5.48763
-5.59166
-5.669
-5.74527
)
;
    }
    rightWall
    {
        type            calculated;
        value           nonuniform List<scalar> 
50
(
912.838
858.543
806.101
757.057
709.003
660.351
611.387
561.846
487.301
392.552
313.945
248.597
184.891
121.414
59.5972
30.0893
20.9445
1.38696
0.316384
-0.350111
-0.981449
-1.25803
-1.50059
-1.57739
-1.78049
-2.10383
-2.55986
-2.83345
-2.98167
-3.13936
-3.28456
-3.43418
-3.61626
-3.80936
-3.98394
-4.13393
-4.26482
-4.38094
-4.48616
-4.58585
-4.68482
-4.78551
-4.88842
-4.9934
-5.10063
-5.21043
-5.32278
-5.43729
-5.55329
-5.67046
)
;
    }
    lowerWall
    {
        type            calculated;
        value           nonuniform List<scalar> 
62
(
707.667
706.68
714.389
717.574
689.673
695.734
711.549
704.474
704.403
697.735
687.468
676.755
665.928
654.364
642.317
630.631
620.377
614.204
611.995
611.721
615.136
622.372
626.823
597.4
538.06
478.819
419.356
358.997
299.948
246.897
195.615
145.479
161.13
185.004
211.207
708.125
650.38
596.187
539.754
482.988
423.885
362.815
303.772
737.409
732.715
710.228
686.188
699.801
721.894
726.508
724.656
733.346
762.246
807.154
851.474
879.718
894.372
901.46
906.662
914.13
924.45
939.619
)
;
    }
    atmosphere
    {
        type            calculated;
        value           nonuniform List<scalar> 
46
(
-5.73393
-5.73393
-6.28385
-6.70052
-6.63759
-5.90744
-5.73092
-5.74402
-5.77843
-5.833
-5.90338
-5.98294
-5.9432
-5.73074
-5.7311
-5.74446
-5.73064
-5.72942
-5.72919
-5.72948
-5.73047
-5.73195
-5.73358
-5.73474
-5.73543
-5.73608
-5.73665
-5.73749
-5.73824
-5.73847
-5.73816
-5.73731
-5.73601
-5.73435
-5.73244
-5.73054
-5.72926
-5.72904
-5.72904
-5.72904
-5.72904
-5.72904
-5.72904
-5.72904
-5.72904
-5.72904
)
;
    }
    defaultFaces
    {
        type            empty;
    }
}


// ************************************************************************* //
