/*--------------------------------*- C++ -*----------------------------------*\
| =========                 |                                                 |
| \\      /  F ield         | OpenFOAM: The Open Source CFD Toolbox           |
|  \\    /   O peration     | Version:  2.3.0                                 |
|   \\  /    A nd           | Web:      www.OpenFOAM.org                      |
|    \\/     M anipulation  |                                                 |
\*---------------------------------------------------------------------------*/
FoamFile
{
    version     2.0;
    format      ascii;
    class       surfaceScalarField;
    location    "1.95";
    object      phi;
}
// * * * * * * * * * * * * * * * * * * * * * * * * * * * * * * * * * * * * * //

dimensions      [0 3 -1 0 0 0 0];

internalField   nonuniform List<scalar> 
4432
(
5.60761e-06
-5.60761e-06
4.78296e-06
8.24646e-07
5.03647e-06
-2.53505e-07
1.36529e-05
-8.61645e-06
8.52626e-06
5.12666e-06
-3.12009e-06
1.16464e-05
-5.74264e-06
2.62254e-06
-6.89055e-06
1.14792e-06
-5.4521e-06
-1.43846e-06
-4.25515e-06
-1.19694e-06
-4.52273e-06
2.67575e-07
-4.33623e-06
-1.86497e-07
-3.10453e-06
-1.2317e-06
-2.42334e-06
-6.81179e-07
-3.75597e-06
1.33262e-06
-7.12568e-06
3.36972e-06
-1.13272e-05
4.20151e-06
-1.36323e-05
2.30511e-06
-1.3317e-05
-3.15289e-07
-1.24147e-05
-9.02299e-07
-1.04041e-05
-2.01057e-06
-5.72639e-06
-4.67776e-06
-5.72639e-06
8.43531e-07
-6.45114e-06
-4.46389e-06
6.13207e-06
-3.56703e-06
-1.15037e-06
9.52399e-06
-2.17075e-05
1.26181e-05
2.03255e-06
-2.26932e-06
2.65338e-05
-8.10601e-06
8.45922e-06
-7.21103e-06
2.52948e-07
-5.12866e-06
-3.52083e-06
-5.07399e-06
-1.25161e-06
-5.66238e-06
8.55973e-07
-5.20168e-06
-6.47194e-07
-3.85224e-06
-2.58114e-06
-3.21042e-06
-1.323e-06
-4.77189e-06
2.89408e-06
-7.44595e-06
6.04379e-06
-8.98978e-06
5.74533e-06
-8.70597e-06
2.0213e-06
-8.64753e-06
-3.73721e-07
-9.6394e-06
8.95668e-08
-8.89312e-06
-2.75684e-06
-5.10705e-06
-8.46382e-06
-1.08334e-05
-5.43792e-06
-1.01322e-06
-1.15447e-05
1.22389e-05
-6.55962e-06
-6.13545e-06
2.00709e-06
-3.02742e-05
8.1809e-06
-4.14126e-06
-3.00329e-06
3.7718e-05
-7.71954e-06
1.31755e-05
-5.7762e-06
-1.69038e-06
-4.0423e-06
-5.25474e-06
-4.33494e-06
-9.58964e-07
-4.39044e-06
9.11485e-07
-3.33407e-06
-1.70357e-06
-2.04991e-06
-3.8653e-06
-1.7944e-06
-1.5785e-06
-1.95441e-06
3.05408e-06
-1.52697e-06
5.61636e-06
-1.45782e-06
5.67617e-06
-2.18022e-06
2.74371e-06
-4.60627e-06
2.05233e-06
-7.42958e-06
2.91287e-06
-7.88107e-06
-2.30535e-06
-4.76083e-06
-1.15841e-05
-1.55943e-05
-7.95906e-06
6.94584e-06
-1.26012e-05
1.6881e-05
-8.78546e-06
-9.95121e-06
-5.06836e-06
-3.39913e-05
1.32899e-06
-1.05386e-05
-3.10346e-06
4.21504e-05
-6.68649e-06
1.67585e-05
-4.35308e-06
-4.02378e-06
-2.44367e-06
-7.16415e-06
-2.28763e-06
-1.11501e-06
-1.02964e-06
-3.46506e-07
1.61721e-06
-4.35042e-06
2.96785e-06
-5.21595e-06
1.10298e-06
2.86384e-07
-7.2166e-07
4.87872e-06
5.87331e-07
4.30738e-06
2.27421e-06
3.98929e-06
1.31529e-07
4.88638e-06
-4.82958e-06
7.01344e-06
-7.99221e-06
6.0755e-06
-8.49357e-06
-1.80399e-06
-5.56547e-06
-1.45122e-05
-2.11597e-05
-6.90544e-06
1.38513e-05
-1.09348e-05
2.09104e-05
-1.03818e-05
-1.05043e-05
-8.9781e-06
-3.5395e-05
-2.26935e-06
-1.72474e-05
-5.84276e-07
4.04654e-05
-4.49408e-06
2.06683e-05
-2.36864e-06
-6.14921e-06
-3.39948e-07
-9.19284e-06
3.33785e-07
-1.78874e-06
3.37036e-06
-3.38308e-06
6.96516e-06
-7.94522e-06
8.10423e-06
-6.35502e-06
5.47519e-06
2.91544e-06
1.08596e-06
9.26793e-06
-3.46786e-07
5.74013e-06
1.55313e-07
3.48719e-06
-1.97864e-06
7.02033e-06
-6.27261e-06
1.13074e-05
-8.57833e-06
8.38123e-06
-8.11414e-06
-2.26817e-06
-5.82769e-06
-1.67986e-05
-2.69874e-05
-3.79948e-06
1.76508e-05
-6.81664e-06
2.39276e-05
-8.69433e-06
-8.62659e-06
-1.07591e-05
-3.33302e-05
-4.57827e-06
-2.34282e-05
3.22336e-06
3.26637e-05
-2.70499e-07
2.41621e-05
7.60529e-07
-7.18024e-06
1.98771e-06
-1.042e-05
4.05519e-06
-3.85622e-06
8.37337e-06
-7.70126e-06
1.15373e-05
-1.11092e-05
1.08189e-05
-5.63664e-06
7.25185e-06
6.48253e-06
2.67093e-06
1.38488e-05
-1.15982e-06
9.57088e-06
-3.08938e-06
5.41675e-06
-3.93281e-06
7.86377e-06
-5.65934e-06
1.3034e-05
-5.26548e-06
7.98737e-06
-2.87495e-06
-4.6587e-06
-1.63532e-06
-1.80382e-05
-2.86228e-05
-5.31942e-07
1.81827e-05
-1.56841e-06
2.4964e-05
-4.25035e-06
-5.94465e-06
-1.00392e-05
-2.75414e-05
-7.78634e-06
-2.5681e-05
5.0477e-06
1.98297e-05
4.99001e-06
2.42198e-05
4.50433e-06
-6.69455e-06
4.7306e-06
-1.06463e-05
7.80208e-06
-6.9277e-06
1.27442e-05
-1.26434e-05
1.34766e-05
-1.18416e-05
9.8789e-06
-2.03892e-06
5.72482e-06
1.06366e-05
2.59727e-06
1.69764e-05
-1.3926e-06
1.35608e-05
-4.21136e-06
8.23551e-06
-3.49977e-06
7.15217e-06
-2.09611e-06
1.16303e-05
2.90643e-06
2.98484e-06
7.75741e-06
-9.50968e-06
6.52959e-06
-1.68104e-05
-2.20932e-05
2.29719e-06
1.58855e-05
3.9087e-06
2.33525e-05
1.06202e-06
-3.09797e-06
-7.35444e-06
-1.91249e-05
-1.16216e-05
-2.14138e-05
2.46215e-06
5.74596e-06
9.78615e-06
1.68958e-05
8.98861e-06
-5.89701e-06
7.82684e-06
-9.48452e-06
1.12807e-05
-1.03816e-05
1.50442e-05
-1.64069e-05
1.18113e-05
-8.60864e-06
5.76165e-06
4.0107e-06
2.31417e-06
1.40841e-05
1.13812e-06
1.81524e-05
-1.85085e-07
1.4884e-05
2.55177e-08
8.02491e-06
4.88751e-07
6.68894e-06
4.41809e-06
7.70096e-06
1.19564e-05
-4.55349e-06
1.66366e-05
-1.41899e-05
1.34711e-05
-1.36449e-05
-8.62207e-06
3.40608e-06
-3.40608e-06
-6.14818e-06
9.55425e-06
-2.69062e-05
2.0758e-05
-4.04348e-05
1.35286e-05
-3.72137e-05
-3.22115e-06
-2.99621e-05
-7.2516e-06
-2.74511e-05
-2.51097e-06
-2.85524e-05
1.10136e-06
-3.00635e-05
1.51108e-06
-2.78548e-05
-2.20874e-06
-2.08321e-05
-7.02267e-06
-1.13288e-05
-9.5033e-06
-4.86875e-06
-6.46006e-06
-7.01271e-06
2.14397e-06
-1.206e-05
5.04723e-06
-1.51683e-05
3.10832e-06
-1.4228e-05
-9.40267e-07
-9.83768e-06
-4.39032e-06
-9.83769e-06
-5.10166e-06
1.69558e-06
-1.99857e-05
2.44383e-05
-3.25981e-05
3.33705e-05
-2.95677e-05
1.04982e-05
-1.89824e-05
-1.38064e-05
-1.5415e-05
-1.0819e-05
-1.96875e-05
1.76156e-06
-2.52964e-05
6.71023e-06
-2.80285e-05
4.24319e-06
-2.61189e-05
-4.11831e-06
-1.99522e-05
-1.31895e-05
-1.18453e-05
-1.76102e-05
-3.60648e-06
-1.46989e-05
7.68176e-07
-2.23068e-06
-1.88353e-06
7.69893e-06
-6.67994e-06
7.90474e-06
-9.54421e-06
1.92398e-06
-7.47331e-06
-6.46119e-06
-1.7311e-05
-1.00599e-05
1.17555e-05
-2.08741e-05
3.52525e-05
-2.20421e-05
3.45384e-05
-9.98781e-06
-1.55606e-06
5.22804e-06
-2.90223e-05
1.07719e-05
-1.63629e-05
2.62968e-06
9.90382e-06
-1.08795e-05
2.02195e-05
-1.79981e-05
1.13618e-05
-1.77734e-05
-4.34309e-06
-1.33509e-05
-1.76119e-05
-7.72078e-06
-2.32403e-05
-3.27647e-06
-1.91432e-05
2.77223e-06
-8.27938e-06
7.7833e-06
2.68782e-06
6.5111e-06
9.17695e-06
2.79871e-07
8.1552e-06
-3.32254e-06
-2.85875e-06
-2.06336e-05
-9.55304e-06
2.13085e-05
-1.43724e-05
4.00719e-05
-7.97554e-06
2.81416e-05
8.75792e-06
-1.82895e-05
2.35272e-05
-4.37915e-05
2.97564e-05
-2.25921e-05
2.50181e-05
1.46422e-05
1.0232e-05
3.50055e-05
-2.34915e-06
2.3943e-05
-6.32174e-06
-3.70502e-07
-4.27784e-06
-1.96558e-05
-1.77828e-06
-2.57398e-05
7.65891e-07
-2.16874e-05
4.33984e-06
-1.18533e-05
9.19882e-06
-2.17118e-06
1.22629e-05
6.1129e-06
9.07087e-06
1.13472e-05
2.66148e-06
3.55064e-06
-1.79721e-05
-5.94304e-06
2.72515e-05
-5.73571e-06
3.98646e-05
4.86376e-06
1.75421e-05
2.04933e-05
-3.39191e-05
2.89445e-05
-5.22427e-05
3.24961e-05
-2.61438e-05
3.23767e-05
1.47616e-05
2.53131e-05
4.20691e-05
1.53936e-05
3.38625e-05
7.93642e-06
7.08665e-06
4.40558e-06
-1.6125e-05
2.70628e-06
-2.40405e-05
3.21096e-06
-2.21921e-05
5.70998e-06
-1.43523e-05
8.57489e-06
-5.03608e-06
1.21463e-05
2.5415e-06
1.17676e-05
1.17259e-05
6.24816e-06
9.07004e-06
-1.17239e-05
-1.92074e-06
2.91723e-05
1.81875e-06
3.61251e-05
1.48043e-05
4.55652e-06
2.16809e-05
-4.07957e-05
1.18573e-05
-4.24191e-05
9.35678e-06
-2.36433e-05
1.77845e-05
6.33384e-06
2.35324e-05
3.63212e-05
2.13624e-05
3.60325e-05
1.55434e-05
1.29057e-05
8.0635e-06
-8.6451e-06
2.73063e-06
-1.87077e-05
2.59053e-06
-2.2052e-05
5.87502e-06
-1.76368e-05
8.54035e-06
-7.70142e-06
1.06796e-05
4.02231e-07
1.16229e-05
1.07826e-05
7.88914e-06
1.28038e-05
-3.83479e-06
-1.43175e-06
3.0604e-05
5.33474e-06
2.93586e-05
1.64776e-05
-6.58634e-06
7.3788e-06
-3.16969e-05
-1.67797e-05
-1.82606e-05
-2.08596e-05
-1.95634e-05
-6.34332e-06
-8.18245e-06
8.29739e-06
2.16806e-05
1.34346e-05
3.08953e-05
1.09258e-05
1.54145e-05
2.4385e-06
-1.5781e-07
-2.58649e-06
-1.36827e-05
-5.68526e-07
-2.40699e-05
4.2522e-06
-2.24575e-05
8.04744e-06
-1.14967e-05
9.95042e-06
-1.50075e-06
1.05626e-05
1.01705e-05
7.78828e-06
1.55781e-05
3.95347e-06
1.78971e-06
2.88143e-05
1.21719e-05
1.89764e-05
1.20783e-05
-6.49269e-06
-1.49505e-05
-4.66815e-06
-3.30486e-05
-1.62429e-07
-3.40857e-05
-1.85264e-05
-2.75597e-05
-1.47084e-05
-1.43422e-05
8.46299e-06
-5.25098e-06
2.18041e-05
-6.29197e-06
1.64555e-05
-9.3313e-06
2.88153e-06
-8.53536e-06
-1.44786e-05
-5.20093e-06
-2.74044e-05
-3.47214e-07
-2.73112e-05
4.68305e-06
-1.65269e-05
8.54115e-06
-5.35886e-06
9.45704e-06
9.25461e-06
7.08752e-06
1.79476e-05
1.1041e-05
9.97574e-06
5.90976e-06
2.03971e-05
1.29311e-05
1.54323e-05
1.86691e-06
3.17393e-08
-3.72441e-06
-1.6614e-05
-4.7681e-06
-4.3949e-06
-6.47312e-06
1.67017e-05
-4.20075e-06
2.13659e-05
-1.05613e-05
2.22825e-05
-1.04011e-05
2.72185e-05
-1.53176e-05
2.70606e-05
-1.6249e-05
1.32616e-05
5.19044e-06
-3.7396e-06
2.10119e-05
-1.24769e-05
2.28214e-05
-1.32114e-05
1.88869e-05
-1.01144e-05
1.17869e-05
-4.64546e-06
2.55599e-06
3.68651e-07
1.67482e-06
2.45277e-06
5.61683e-06
3.79024e-06
-5.89096e-06
1.21635e-05
-2.25631e-05
2.15458e-05
-2.30272e-05
-1.58838e-05
2.88075e-05
1.21023e-05
-6.19249e-06
2.81155e-05
-3.08214e-06
3.17842e-05
-1.80172e-06
2.35276e-05
4.53218e-06
1.29429e-05
5.81653e-06
9.96074e-06
-3.49092e-06
2.19833e-05
-1.62233e-05
3.00403e-05
-1.86183e-05
2.97689e-05
-1.01297e-05
2.23687e-05
-7.91737e-06
1.20521e-06
4.91446e-06
-2.25693e-05
2.8965e-05
-4.07545e-05
3.9197e-05
-5.58905e-05
3.79575e-05
-6.61475e-05
2.91439e-05
-8.49662e-05
3.06057e-05
-0.000109771
2.73608e-05
-0.000119109
1.1013e-05
-0.000118867
5.37405e-06
-9.42306e-05
-3.05269e-05
-6.7822e-05
-4.89717e-05
-5.94686e-05
-3.13806e-05
-1.83143e-05
-5.70381e-05
6.9068e-06
-1.30993e-05
1.58373e-05
-1.20126e-05
5.05785e-06
8.97773e-06
2.55411e-06
7.03591e-06
9.49074e-06
-1.1201e-06
2.02033e-05
-1.42035e-05
2.62533e-05
-2.22732e-05
1.54912e-05
-7.85628e-06
-2.23881e-06
7.60032e-06
-1.93742e-05
9.218e-06
-3.60111e-05
2.15513e-05
-7.05593e-05
6.35132e-05
-0.000105597
7.42351e-05
-8.6639e-05
1.8999e-05
-3.71881e-05
-2.03072e-05
-1.11135e-05
4.53114e-06
-3.26858e-05
4.89332e-05
-6.30204e-05
4.13474e-05
-7.60891e-05
1.84426e-05
-8.71076e-05
-1.95085e-05
-0.000115477
-2.06026e-05
-0.00013741
-9.44746e-06
-1.93334e-05
-0.000136391
-5.26843e-05
3.9585e-05
-9.48516e-05
3.01545e-05
-9.52956e-05
9.42164e-06
-6.99555e-05
-1.83042e-05
-2.73598e-05
-4.37158e-05
-2.30759e-05
-1.84873e-05
-5.13829e-05
6.03374e-06
-9.30993e-05
3.38601e-05
-0.000107582
2.20833e-05
-0.000133018
3.46541e-05
-0.000187661
7.61945e-05
-0.000219231
9.50825e-05
-0.000199551
5.45547e-05
-0.000149641
-3.09112e-05
-9.70227e-05
-7.29251e-05
-4.59226e-05
-4.65689e-05
4.91178e-06
-1.9013e-06
3.04353e-05
1.58238e-05
3.06315e-05
1.82465e-05
1.24403e-05
-1.31717e-06
-1.78506e-05
9.68829e-06
-0.000106503
7.92054e-05
4.18687e-05
-0.000167706
-3.68626e-05
7.64476e-05
-6.22175e-05
5.55093e-05
-8.44525e-05
3.16565e-05
-0.000115912
1.3155e-05
-0.000156898
-2.72966e-06
-0.000203363
2.79779e-05
-0.00024278
4.54504e-05
-0.000252992
4.40723e-05
-0.000273849
4.29405e-05
-0.000300736
6.1541e-05
-0.000304379
7.98371e-05
-0.000272671
6.33747e-05
-0.000216623
-1.49378e-06
-0.000170459
-7.70754e-05
-0.000141761
-0.000101622
-0.000108502
-7.98286e-05
-5.88281e-05
-5.15749e-05
-1.26034e-06
-4.17439e-05
4.30406e-05
-2.60545e-05
5.37015e-05
-1.19781e-05
5.77078e-05
5.68215e-06
-4.24672e-06
0.00014116
0.00013733
-9.9708e-05
-2.15936e-05
9.80411e-05
-4.26539e-05
7.65694e-05
-6.1022e-05
5.00247e-05
-8.62593e-05
3.83924e-05
-0.000117537
2.85479e-05
-0.000152001
6.24425e-05
-0.000199038
9.2487e-05
-0.000241642
8.66759e-05
-0.000278615
7.99135e-05
-0.000303056
8.59817e-05
-0.000293968
7.07496e-05
-0.000248591
1.79972e-05
-0.000197399
-5.26861e-05
-0.000162715
-0.000111759
-0.000139221
-0.000125116
-0.000117555
-0.000101494
-7.99492e-05
-8.91811e-05
-3.03371e-05
-9.13561e-05
2.13443e-05
-7.77359e-05
4.02464e-05
-3.08801e-05
3.13147e-05
1.46138e-05
6.52273e-06
0.000165952
0.000225993
-8.21403e-05
6.78028e-07
9.7363e-05
-8.55408e-06
8.58014e-05
-3.02315e-05
7.17023e-05
-5.10627e-05
5.92237e-05
-5.70305e-05
3.45159e-05
-7.40545e-05
7.94663e-05
-0.000121086
0.000139519
-0.000171062
0.000136651
-0.000211249
0.0001201
-0.000224885
9.96179e-05
-0.000207772
5.36356e-05
-0.000171755
-1.80191e-05
-0.000137044
-8.7398e-05
-0.000116272
-0.000132531
-0.000103273
-0.000138114
-9.7408e-05
-0.00010736
-7.53248e-05
-0.000111264
-4.7458e-05
-0.000119223
-2.18134e-05
-0.000103381
-1.42263e-05
-3.84671e-05
-3.87894e-05
3.91771e-05
-5.87442e-05
0.000185907
0.000265932
-9.86835e-05
2.56796e-05
7.16833e-05
3.06341e-05
8.0847e-05
1.35057e-05
8.88307e-05
-8.58421e-06
8.13134e-05
-1.18202e-05
3.7752e-05
-9.19127e-06
7.68373e-05
-3.49984e-05
0.000165326
-8.19605e-05
0.000183613
-0.000117588
0.000155728
-0.000130618
0.000112648
-0.000121756
4.47739e-05
-0.000104721
-3.50539e-05
-8.4127e-05
-0.000107992
-7.72959e-05
-0.000139362
-8.83027e-05
-0.000127108
-9.25889e-05
-0.000103074
-8.84039e-05
-0.000115449
-8.24436e-05
-0.000125183
-8.34338e-05
-0.00010239
-8.76688e-05
-3.42321e-05
-0.00012195
7.34582e-05
-0.000134424
0.000198381
0.000253318
-0.00012181
3.49558e-05
3.67275e-05
5.41862e-05
6.16165e-05
4.89921e-05
9.40249e-05
3.80534e-05
9.22524e-05
2.29428e-05
5.28623e-05
3.00349e-05
6.97452e-05
3.09561e-05
0.000164404
-3.45139e-06
0.00021802
-3.44959e-05
0.000186772
-5.07965e-05
0.000128949
-5.73319e-05
5.13094e-05
-6.1065e-05
-3.13206e-05
-6.1422e-05
-0.000107635
-7.30979e-05
-0.000127686
-9.76253e-05
-0.00010258
-0.000106623
-9.40758e-05
-0.000108589
-0.000113484
-0.000121271
-0.000112501
-0.000143693
-7.99685e-05
-0.000162577
-1.53481e-05
-0.000180133
9.10145e-05
-0.000172079
0.000190327
0.000208747
-0.000127508
3.02381e-05
6.48934e-06
6.09805e-05
3.08739e-05
6.94706e-05
8.55347e-05
7.67934e-05
8.49296e-05
6.50468e-05
6.46085e-05
5.4889e-05
7.9903e-05
5.87124e-05
0.000160581
4.04654e-05
0.000236267
1.82316e-05
0.000209006
2.72964e-06
0.000144451
-1.09055e-05
6.49447e-05
-2.94253e-05
-1.28009e-05
-4.9315e-05
-8.77452e-05
-8.19779e-05
-9.50234e-05
-0.000111461
-7.30974e-05
-0.000115251
-9.02852e-05
-0.000116102
-0.000112633
-0.000135131
-9.34709e-05
-0.000164163
-5.09373e-05
-0.000188241
8.73028e-06
-0.000185669
8.84421e-05
-0.000157617
0.000162275
0.000160336
-0.000109206
2.31418e-05
-1.66525e-05
5.54535e-05
-1.43787e-06
8.0754e-05
6.02345e-05
9.66991e-05
6.89845e-05
8.94244e-05
7.18832e-05
6.3216e-05
0.000106111
5.32502e-05
0.000170546
4.30186e-05
0.000246499
3.46982e-05
0.000217326
2.67216e-05
0.000152428
1.00606e-05
8.1606e-05
-1.42608e-05
1.15206e-05
-4.77815e-05
-5.42245e-05
-9.49053e-05
-4.78996e-05
-0.000116533
-5.14702e-05
-0.000111173
-9.56445e-05
-0.000107119
-0.000116688
-0.000118277
-8.23121e-05
-0.000132147
-3.70681e-05
-0.000141084
1.76679e-05
-0.000137145
8.45034e-05
-0.000114402
0.000139531
0.000127088
-8.11536e-05
2.26912e-05
-3.93439e-05
4.06364e-05
-1.93829e-05
7.24214e-05
2.84497e-05
8.53048e-05
5.61008e-05
7.01237e-05
8.70642e-05
3.93165e-05
0.000136918
2.18107e-05
0.000188052
1.85897e-05
0.00024972
2.40423e-05
0.000211874
2.5631e-05
0.000150839
1.59022e-05
9.13347e-05
2.01842e-06
2.54047e-05
-5.11097e-05
-1.09641e-06
-0.000102414
3.40495e-06
-0.000110167
-4.37176e-05
-9.24138e-05
-0.000113398
-8.34153e-05
-0.000125686
-7.95255e-05
-8.62019e-05
-9.74879e-05
-1.91058e-05
-0.000118202
3.83818e-05
-0.000106055
7.23561e-05
-8.58293e-05
0.000119306
0.000109143
-6.78837e-05
1.60833e-05
-5.54273e-05
2.01486e-05
-2.3448e-05
2.50834e-05
2.3515e-05
1.69956e-05
6.41884e-05
-1.91347e-06
0.000105973
-1.95789e-05
0.000154583
-3.07106e-05
0.000199184
-1.70534e-05
0.000236063
3.64063e-06
0.00019118
2.18765e-05
0.000132603
3.02803e-05
8.29309e-05
1.27093e-05
4.29757e-05
-5.57073e-05
6.73203e-05
-9.57879e-05
4.34856e-05
-8.68854e-05
-5.26201e-05
-7.46627e-05
-0.000125621
-7.65482e-05
-0.000123801
-5.73446e-05
-0.000105405
-3.81675e-05
-3.82828e-05
-7.66286e-05
7.6843e-05
-9.48234e-05
9.0551e-05
-8.33219e-05
0.000107805
9.24409e-05
-6.66202e-05
-9.58521e-06
-4.58418e-05
-3.42519e-05
1.21883e-06
-5.59761e-05
4.52394e-05
-7.37014e-05
8.19136e-05
-8.37187e-05
0.00011599
-8.27771e-05
0.000153642
-7.30367e-05
0.000189443
-3.75934e-05
0.00020062
-1.08152e-06
0.000154668
2.68974e-05
0.000104625
3.23905e-05
7.74378e-05
-2.14073e-06
7.75071e-05
-4.54845e-05
0.000110664
-5.38437e-05
5.1845e-05
-4.08119e-05
-6.56516e-05
-5.32412e-05
-0.000113191
-6.59832e-05
-0.000111059
-6.53835e-05
-0.000106005
-4.70046e-05
-5.66616e-05
-3.14214e-05
6.126e-05
-4.7972e-05
0.000107102
-5.08454e-05
0.000110678
8.1856e-05
-4.02604e-05
-3.6737e-05
-9.1047e-06
-7.60673e-05
4.05493e-05
-0.000102591
7.17637e-05
-0.000110813
9.01355e-05
-0.000105054
0.000110231
-9.29426e-05
0.00014153
-7.01128e-05
0.000166613
-3.22903e-05
0.000162797
-4.36917e-06
0.000126747
1.20717e-06
9.90482e-05
-1.38468e-05
9.24918e-05
-3.69049e-05
0.000100565
-3.1273e-05
0.000105032
-1.03543e-05
3.09265e-05
-1.45376e-05
-6.14681e-05
-3.60843e-05
-9.16444e-05
-5.65016e-05
-9.06415e-05
-7.86821e-05
-8.38245e-05
-8.08556e-05
-5.4488e-05
-3.56132e-05
1.60176e-05
-8.6144e-06
8.01031e-05
1.28869e-06
0.000100775
7.16953e-05
1.14494e-05
-4.70991e-05
3.79945e-05
-8.17284e-05
7.51788e-05
-8.78794e-05
7.79147e-05
-7.72238e-05
7.94799e-05
-7.12873e-05
0.000104294
-6.89692e-05
0.000139212
-6.17e-05
0.000159344
-5.74311e-05
0.000158528
-7.05751e-05
0.000139891
-8.96481e-05
0.000118121
-9.33679e-05
9.6212e-05
-6.79388e-05
7.51365e-05
-1.84428e-05
5.55365e-05
2.77073e-07
1.2207e-05
-1.98343e-05
-4.13565e-05
-3.16439e-05
-7.98348e-05
-5.56491e-05
-6.66363e-05
-9.46532e-05
-4.48202e-05
-0.000108531
-4.061e-05
-8.13741e-05
-1.11392e-05
-3.87497e-05
3.74786e-05
-7.78383e-06
6.98094e-05
6.18185e-05
2.09304e-06
-4.80251e-05
8.60197e-05
-6.79438e-05
9.50978e-05
-5.94076e-05
6.93783e-05
-5.36805e-05
7.3753e-05
-7.05163e-05
0.00012113
-9.23684e-05
0.000161064
-0.000119507
0.000186483
-0.000148033
0.000187053
-0.000165565
0.000157423
-0.000158163
0.00011072
-0.000134191
7.22394e-05
-0.000100722
4.16679e-05
-6.36816e-05
1.84965e-05
-3.65502e-05
-1.49243e-05
-2.43093e-05
-5.35974e-05
-1.83376e-05
-8.58065e-05
-3.20502e-05
-5.29235e-05
-5.47468e-05
-2.21234e-05
-8.29281e-05
-1.24286e-05
-9.27755e-05
-1.29184e-06
-7.46572e-05
1.93603e-05
-4.60725e-05
4.12249e-05
3.89856e-05
-2.32394e-05
-5.21486e-05
0.000138168
-7.02867e-05
0.000113236
-7.43181e-05
7.34096e-05
-8.9122e-05
8.85569e-05
-0.000122873
0.000154881
-0.000162098
0.000200289
-0.000191732
0.000216117
-0.000198948
0.000194269
-0.000177003
0.000135479
-0.000140635
7.43516e-05
-0.000103429
3.50332e-05
-7.03943e-05
8.63323e-06
-4.01051e-05
-1.17927e-05
-3.98871e-06
-5.10407e-05
2.94842e-05
-8.70703e-05
3.73325e-05
-9.36547e-05
4.22212e-05
-5.78121e-05
4.3833e-05
-2.37353e-05
2.96654e-05
1.73888e-06
6.2732e-06
2.21004e-05
-9.20568e-06
3.48393e-05
-6.61706e-06
3.86365e-05
2.80624e-05
4.3062e-06
-6.52061e-05
0.000203374
-9.5662e-05
0.000143692
-0.000124781
0.000102529
-0.000154649
0.000118425
-0.00017896
0.000179193
-0.000197371
0.0002187
-0.000195918
0.000214665
-0.000166019
0.00016437
-0.00012767
9.71305e-05
-9.06723e-05
3.73534e-05
-5.11293e-05
-4.50977e-06
-4.11923e-06
-3.8377e-05
4.5211e-05
-6.11231e-05
8.28915e-05
-8.87212e-05
9.79964e-05
-0.000102175
0.000102798
-9.84563e-05
0.00011686
-7.18746e-05
0.000130341
-3.72159e-05
0.000137175
-5.09494e-06
0.000133207
2.60683e-05
0.000118695
4.93517e-05
9.88554e-05
5.84761e-05
4.85086e-05
7.84092e-05
-8.19838e-05
0.000285358
-0.000128046
0.000189755
-0.000167602
0.000142085
-0.000195116
0.000145938
-0.000191108
0.000175185
-0.000166541
0.000194132
-0.000130292
0.000178416
-9.15306e-05
0.000125608
-5.70965e-05
6.26962e-05
-1.96974e-05
-4.55673e-08
2.86367e-05
-5.28438e-05
6.90146e-05
-7.87551e-05
0.000103732
-9.58402e-05
0.000122616
-0.000107605
0.000131995
-0.000111555
0.00013721
-0.000103671
0.000148075
-8.27395e-05
0.000163357
-5.24978e-05
0.000177934
-1.96709e-05
0.000190648
1.33537e-05
0.000194385
4.56147e-05
0.000183219
6.96427e-05
7.3937e-05
0.00015779
-7.23833e-05
0.000357742
-0.000133088
0.000250459
-0.000169215
0.000178212
-0.000180941
0.000157664
-0.000157201
0.000151445
-0.00010815
0.000145081
-6.07205e-05
0.000130987
-2.41986e-05
8.90867e-05
1.53671e-05
2.31303e-05
5.60154e-05
-4.06938e-05
8.47154e-05
-8.15438e-05
0.000102148
-9.6188e-05
0.000112125
-0.000105817
0.000117041
-0.000112521
0.000119999
-0.000114513
0.000125441
-0.000109114
0.00013665
-9.39478e-05
0.000152764
-6.8612e-05
0.000169521
-3.64274e-05
0.00018499
-2.11571e-06
0.000198262
3.23431e-05
0.0002028
6.51051e-05
8.59949e-05
0.000190742
-1.90342e-05
0.000376776
-9.33949e-05
0.000324819
-0.00013405
0.000218867
-0.000139545
0.000163159
-0.000115161
0.000127061
-7.53879e-05
0.000105308
-3.16914e-05
8.72902e-05
1.45718e-05
4.28233e-05
5.36249e-05
-1.5923e-05
7.6207e-05
-6.3276e-05
8.19368e-05
-8.72736e-05
8.24469e-05
-9.66981e-05
8.13203e-05
-0.00010469
8.1989e-05
-0.00011319
8.66245e-05
-0.000119148
9.64963e-05
-0.000118986
0.000111371
-0.000108822
0.000129234
-8.64753e-05
0.000146529
-5.37221e-05
0.000161696
-1.72831e-05
0.000177543
1.6496e-05
0.000191222
5.14262e-05
8.575e-05
0.000191467
5.93164e-05
0.00031746
-1.17874e-06
0.000385314
-6.32665e-05
0.000280955
-8.36859e-05
0.000183578
-7.69632e-05
0.000120339
-5.25046e-05
8.08489e-05
-6.65185e-06
4.14377e-05
3.97202e-05
-3.54861e-06
6.39568e-05
-4.01594e-05
6.33998e-05
-6.27192e-05
5.27995e-05
-7.66734e-05
4.37675e-05
-8.7666e-05
4.02772e-05
-0.0001012
4.27209e-05
-0.000115634
5.03419e-05
-0.000126769
6.28079e-05
-0.000131452
7.96604e-05
-0.000125674
9.93044e-05
-0.000106119
0.000119223
-7.3641e-05
0.000137365
-3.5425e-05
0.000155288
-1.4261e-06
0.000170276
3.64374e-05
7.88455e-05
0.000177181
9.82142e-05
0.000219246
9.55031e-05
0.000388026
3.4347e-05
0.000342111
-6.76476e-06
0.00022469
-1.58536e-05
0.000129428
4.73347e-06
6.02616e-05
3.40252e-05
1.21461e-05
5.13581e-05
-2.08813e-05
4.86811e-05
-3.74823e-05
3.31105e-05
-4.71487e-05
1.48184e-05
-5.83813e-05
4.80967e-06
-7.76571e-05
4.14502e-06
-0.000100535
9.10831e-06
-0.000120597
1.72369e-05
-0.000134898
2.84073e-05
-0.000142622
4.33926e-05
-0.00014066
6.20061e-05
-0.000124733
8.30824e-05
-9.47173e-05
0.000104948
-5.72901e-05
0.000123666
-2.01446e-05
0.000140741
1.93628e-05
6.40029e-05
0.000155583
8.72198e-05
0.000132026
0.000135138
0.000340108
0.000119045
0.000358204
8.53627e-05
0.000258372
6.55382e-05
0.000149252
6.04288e-05
6.53709e-05
5.78641e-05
1.47108e-05
4.43496e-05
-7.36673e-06
2.09325e-05
-1.40651e-05
-5.12512e-06
-2.10911e-05
-2.13289e-05
-4.21774e-05
-2.48531e-05
-7.41328e-05
-2.10539e-05
-0.000104334
-1.48449e-05
-0.000126806
-8.34993e-06
-0.000141393
-1.2001e-06
-0.000149772
8.53546e-06
-0.000150395
2.24098e-05
-0.000138607
4.01867e-05
-0.000112494
6.06204e-05
-7.77237e-05
8.0959e-05
-4.04833e-05
0.000101879
-1.55681e-06
4.07648e-05
0.000125117
5.35406e-05
7.84855e-05
0.00010627
0.000287379
0.000126479
0.000337995
0.000117417
0.000267434
9.9637e-05
0.000167033
7.96407e-05
8.53675e-05
5.4762e-05
3.95895e-05
2.2587e-05
2.48084e-05
-1.29015e-05
2.14235e-05
-3.59976e-05
2.00498e-06
-4.24941e-05
-3.56808e-05
-3.90708e-05
-7.75561e-05
-3.23014e-05
-0.000111104
-2.6288e-05
-0.00013282
-2.25626e-05
-0.000145118
-2.05395e-05
-0.000151795
-1.79571e-05
-0.000152978
-1.16924e-05
-0.000144872
2.31431e-08
-0.00012421
1.57795e-05
-9.34802e-05
3.42546e-05
-5.89585e-05
5.56179e-05
-2.29201e-05
1.41616e-05
8.22212e-05
1.77945e-05
6.06913e-05
5.23743e-05
0.000252799
8.11918e-05
0.000309178
9.06289e-05
0.000257997
8.49087e-05
0.000172753
6.50069e-05
0.000105269
3.2144e-05
7.24527e-05
-7.91427e-06
6.48668e-05
-3.86473e-05
5.21566e-05
-4.89305e-05
1.22883e-05
-4.59491e-05
-3.86621e-05
-3.69931e-05
-8.65121e-05
-2.80852e-05
-0.000120011
-2.33151e-05
-0.00013759
-2.31003e-05
-0.000145333
-2.59441e-05
-0.000148952
-2.99587e-05
-0.000148964
-3.19436e-05
-0.000142887
-2.84955e-05
-0.000127658
-1.91379e-05
-0.000102838
-5.80524e-06
-7.2291e-05
1.1465e-05
-4.01902e-05
-7.63686e-06
3.32635e-05
-5.61994e-06
6.63113e-05
8.83125e-06
0.000238348
3.20969e-05
0.000285912
5.10823e-05
0.000239011
5.44407e-05
0.000169395
3.63343e-05
0.000123376
2.0119e-06
0.000106775
-3.17247e-05
9.86035e-05
-4.73993e-05
6.78314e-05
-4.49434e-05
9.83262e-06
-3.43718e-05
-4.92336e-05
-2.04372e-05
-0.000100447
-1.02521e-05
-0.000130196
-7.58588e-06
-0.000140256
-1.16811e-05
-0.000141238
-1.9197e-05
-0.000141436
-2.77959e-05
-0.000140365
-3.62657e-05
-0.000134418
-4.1083e-05
-0.000122841
-3.97889e-05
-0.000104132
-3.24931e-05
-7.95867e-05
-2.04301e-05
-5.22531e-05
-2.49701e-05
-3.09708e-06
-1.6273e-05
8.25842e-05
-1.47207e-05
0.000236796
4.02464e-06
0.000267167
2.47025e-05
0.000218333
2.75853e-05
0.000166512
8.09795e-06
0.000142863
-2.0975e-05
0.000135848
-3.96342e-05
0.000117263
-3.96711e-05
6.78685e-05
-2.88267e-05
-1.0116e-06
-1.1453e-05
-6.66073e-05
5.14616e-06
-0.000117046
1.35849e-05
-0.000138635
1.38395e-05
-0.00014051
6.5415e-06
-0.00013394
-5.02284e-06
-0.000129872
-1.6063e-05
-0.000129325
-2.70444e-05
-0.000123436
-3.68401e-05
-0.000113045
-4.25369e-05
-9.84352e-05
-4.24597e-05
-7.96639e-05
-3.63484e-05
-5.83645e-05
-3.67836e-05
-2.4535e-05
-1.61231e-05
9.87072e-05
-1.74018e-05
0.000238075
-2.76992e-06
0.000252535
1.2592e-05
0.000202971
8.71239e-06
0.000170392
-1.05262e-05
0.000162102
-2.81376e-05
0.00015346
-3.09e-05
0.000120025
-1.98766e-05
5.68453e-05
-1.48307e-06
-1.94051e-05
1.74755e-05
-8.5566e-05
2.9868e-05
-0.000129438
3.4436e-05
-0.000143203
3.3168e-05
-0.000139243
2.54556e-05
-0.000126228
1.20325e-05
-0.000116449
-8.07052e-07
-0.000116486
-1.15191e-05
-0.000112724
-2.15803e-05
-0.000102984
-2.95846e-05
-9.04311e-05
-3.36297e-05
-7.56192e-05
-3.24251e-05
-5.95695e-05
-4.42057e-05
-2.50033e-05
-1.22949e-05
0.000111002
-1.0851e-05
0.000236631
1.2427e-06
0.000240441
7.82836e-06
0.000196386
-1.67754e-06
0.000179898
-1.54282e-05
0.000175853
-1.98662e-05
0.000157898
-1.02991e-05
0.000110458
8.51106e-06
3.80352e-05
2.89154e-05
-3.98096e-05
4.51143e-05
-0.000101765
5.03347e-05
-0.000134659
5.03007e-05
-0.000143169
4.78243e-05
-0.000136766
4.13138e-05
-0.000119718
2.95602e-05
-0.000104696
1.54118e-05
-0.000102338
4.05906e-06
-0.000101372
-4.9332e-06
-9.39924e-05
-1.22515e-05
-8.31131e-05
-1.6656e-05
-7.12147e-05
-1.72117e-05
-5.90138e-05
-4.79756e-05
-1.34418e-05
-8.66752e-06
0.000119669
-2.83971e-06
0.000230803
6.79355e-06
0.000230807
6.04288e-06
0.000197136
-3.27894e-06
0.000189219
-8.22623e-06
0.0001808
-1.61374e-06
0.000151285
1.71208e-05
9.1724e-05
3.97321e-05
1.54239e-05
5.86175e-05
-5.8695e-05
6.755e-05
-0.000110698
6.73431e-05
-0.000134452
6.47175e-05
-0.000140544
6.12359e-05
-0.000133285
5.61402e-05
-0.000114622
4.72654e-05
-9.58212e-05
3.3196e-05
-8.82684e-05
1.96272e-05
-8.78032e-05
9.50704e-06
-8.38723e-05
1.76297e-06
-7.53692e-05
-3.30903e-06
-6.61428e-05
-5.32346e-06
-5.69996e-05
-4.88177e-05
-4.48149e-06
-5.86201e-06
0.000125531
2.91973e-06
0.000222021
1.05164e-05
0.00022321
7.20968e-06
0.000200443
3.09574e-06
0.000193333
8.0439e-06
0.000175852
2.43595e-05
0.00013497
4.64446e-05
6.96389e-05
6.92018e-05
-7.33341e-06
8.32032e-05
-7.26964e-05
8.54924e-05
-0.000112987
8.32867e-05
-0.000132246
8.09028e-05
-0.00013816
7.85324e-05
-0.000130914
7.46409e-05
-0.000110731
6.64513e-05
-8.76318e-05
5.21421e-05
-7.39594e-05
3.59674e-05
-7.16287e-05
2.31809e-05
-7.1086e-05
1.39934e-05
-6.61819e-05
7.24706e-06
-5.93965e-05
3.26619e-06
-5.30189e-05
-4.73086e-05
1.75717e-06
-1.97581e-06
0.000127507
7.47569e-06
0.000212569
1.38067e-05
0.000216879
1.26864e-05
0.000201563
1.57388e-05
0.000190281
2.83406e-05
0.00016325
4.93707e-05
0.00011394
7.35123e-05
4.54972e-05
9.29497e-05
-2.67708e-05
0.000100951
-8.06978e-05
0.000100688
-0.000112724
9.93313e-05
-0.000130889
9.98987e-05
-0.000138727
0.000100442
-0.000131458
9.69089e-05
-0.000107198
8.6684e-05
-7.74071e-05
7.01572e-05
-5.7433e-05
5.12476e-05
-5.27193e-05
3.53653e-05
-5.52039e-05
2.42054e-05
-5.5022e-05
1.6054e-05
-5.1245e-05
1.03301e-05
-4.72949e-05
-4.38276e-05
6.84914e-06
5.70773e-06
0.0001218
1.33876e-05
0.000204889
1.86505e-05
0.000211616
2.15618e-05
0.000198652
3.08984e-05
0.000180944
4.83319e-05
0.000145817
7.13183e-05
9.09531e-05
9.4282e-05
2.25335e-05
0.000108165
-4.06538e-05
0.000112253
-8.47861e-05
0.000112747
-0.000113218
0.0001143
-0.000132443
0.000118252
-0.000142679
0.00012035
-0.000133556
0.000116063
-0.000102911
0.000103239
-6.45834e-05
8.38174e-05
-3.8012e-05
6.23938e-05
-3.12958e-05
4.42049e-05
-3.7015e-05
3.13717e-05
-4.2189e-05
2.22174e-05
-4.20912e-05
1.53976e-05
-4.04753e-05
-3.90169e-05
1.05867e-05
1.52002e-05
0.000106599
2.25821e-05
0.000197507
2.63332e-05
0.000207865
3.19551e-05
0.000193029
4.48988e-05
0.000168
6.42323e-05
0.000126483
8.66871e-05
6.84984e-05
0.000105012
4.20885e-06
0.000114003
-4.96447e-05
0.000117911
-8.86946e-05
0.00011997
-0.000115277
0.000124049
-0.000136522
0.00012966
-0.000148289
0.000131481
-0.000135378
0.000125018
-9.64482e-05
0.000109706
-4.92714e-05
8.85802e-05
-1.68861e-05
6.63058e-05
-9.02144e-06
4.77924e-05
-1.85018e-05
3.46149e-05
-2.90115e-05
2.52368e-05
-3.27131e-05
1.81205e-05
-3.3359e-05
-3.3645e-05
1.27485e-05
2.16176e-05
8.49817e-05
3.28505e-05
0.000186275
3.62806e-05
0.000204435
4.20826e-05
0.000187227
5.48023e-05
0.00015528
7.29686e-05
0.000108317
9.25005e-05
4.89666e-05
0.000106002
-9.29247e-06
0.000113554
-5.7197e-05
0.000117171
-9.23118e-05
0.000119486
-0.000117593
0.000124248
-0.000141284
0.000131032
-0.000155074
0.000131078
-0.000135423
0.000120461
-8.58319e-05
0.00010228
-3.10904e-05
8.09912e-05
4.40292e-06
6.09506e-05
1.1019e-05
4.5067e-05