/*--------------------------------*- C++ -*----------------------------------*\
| =========                 |                                                 |
| \\      /  F ield         | OpenFOAM: The Open Source CFD Toolbox           |
|  \\    /   O peration     | Version:  2.3.0                                 |
|   \\  /    A nd           | Web:      www.OpenFOAM.org                      |
|    \\/     M anipulation  |                                                 |
\*---------------------------------------------------------------------------*/
FoamFile
{
    version     2.0;
    format      ascii;
    class       volVectorField;
    location    "1.95";
    object      U;
}
// * * * * * * * * * * * * * * * * * * * * * * * * * * * * * * * * * * * * * //

dimensions      [0 1 -1 0 0 0 0];

internalField   nonuniform List<vector> 
2268
(
(0.0381684 -0.0235843 0)
(0.0763796 -0.0115314 0)
(0.0466445 -0.00743316 0)
(0.0880047 -0.00993652 0)
(0.175813 0.0285483 0)
(0.0344223 0.0329947 0)
(-0.0875103 0.00495914 0)
(-0.0668721 0.00554984 0)
(-0.0756859 -0.00410842 0)
(-0.0523263 -0.00619715 0)
(-0.0513295 -0.000385343 0)
(-0.0542838 5.48853e-05 0)
(-0.0424949 -0.00244026 0)
(-0.0285856 -0.00196386 0)
(-0.0279981 0.00182771 0)
(-0.0555639 0.00951042 0)
(-0.110205 0.0137977 0)
(-0.15152 0.00671615 0)
(-0.15746 -0.00434365 0)
(-0.148837 -0.00743157 0)
(-0.134019 -0.00979009 0)
(-0.0925771 -0.0162848 0)
(-0.0328975 -0.0174286 0)
(0.0131539 -0.0439951 0)
(-0.00116444 0.018929 0)
(-0.0794848 0.00709792 0)
(0.000870666 -0.0920181 0)
(0.185607 0.016615 0)
(0.0930687 0.100352 0)
(-0.127694 0.0285704 0)
(-0.0859105 0.00619582 0)
(-0.0623929 -0.0119499 0)
(-0.0559287 -0.00696788 0)
(-0.0674703 0.00328083 0)
(-0.0648142 -0.00198486 0)
(-0.0513755 -0.0105727 0)
(-0.0368915 -0.00456044 0)
(-0.0376312 0.014169 0)
(-0.0678981 0.0279579 0)
(-0.105727 0.0278881 0)
(-0.105066 0.0137746 0)
(-0.0891741 -0.000646745 0)
(-0.108916 -0.00433512 0)
(-0.111835 -0.0144682 0)
(-0.082283 -0.0379892 0)
(-0.0277666 -0.0471926 0)
(-0.0342119 -0.0228597 0)
(-0.105017 0.0537675 0)
(-0.120836 -0.0225368 0)
(-0.0469757 -0.147832 0)
(0.0829451 -0.000511078 0)
(0.0850671 0.168834 0)
(-0.131891 0.0567081 0)
(-0.0721861 -0.00458561 0)
(-0.0433599 -0.0254948 0)
(-0.0502293 -0.00614791 0)
(-0.0575526 0.00552844 0)
(-0.0466641 -0.0057211 0)
(-0.0253772 -0.0177998 0)
(-0.0205214 -0.0101566 0)
(-0.0235135 0.0165456 0)
(-0.0181324 0.0364024 0)
(-0.0201145 0.0360398 0)
(-0.0156395 0.0110363 0)
(-0.030235 -0.00154306 0)
(-0.0770978 0.00590321 0)
(-0.093706 -0.0131362 0)
(-0.0788753 -0.052413 0)
(-0.0221311 -0.0704957 0)
(-0.0589806 0.0166511 0)
(-0.139013 0.0785253 0)
(-0.119923 -0.0490159 0)
(-0.0918747 -0.175737 0)
(-0.039345 -0.0418277 0)
(0.0634573 0.219917 0)
(-0.116208 0.0789728 0)
(-0.0587213 -0.0146123 0)
(-0.0255325 -0.0328268 0)
(-0.0327156 -0.00441992 0)
(-0.027967 0.00355491 0)
(0.000962966 -0.0134328 0)
(0.0376088 -0.0222108 0)
(0.0319558 -0.00417269 0)
(-0.00858809 0.0171346 0)
(-0.00532812 0.0246469 0)
(0.0175178 0.0272584 0)
(0.0331928 0.0200936 0)
(-0.0288459 0.0243815 0)
(-0.0854104 0.0256084 0)
(-0.0991948 -0.00900793 0)
(-0.0888602 -0.0671685 0)
(-0.0286345 -0.0960908 0)
(-0.0485525 0.0572744 0)
(-0.127367 0.0971634 0)
(-0.108705 -0.0655434 0)
(-0.117796 -0.192702 0)
(-0.108693 -0.0753425 0)
(0.0660734 0.237564 0)
(-0.077144 0.0975815 0)
(-0.0362776 -0.029333 0)
(-0.00491186 -0.0449736 0)
(-0.00619222 -0.00724997 0)
(0.0125339 -0.00798552 0)
(0.0634672 -0.0325945 0)
(0.0992568 -0.0324978 0)
(0.0881189 0.0077215 0)
(0.0312653 0.0364469 0)
(-0.00624207 0.0220674 0)
(-0.0050362 0.0145634 0)
(0.00927757 0.0308312 0)
(-0.0507617 0.0499726 0)
(-0.0969201 0.039584 0)
(-0.101883 -0.0102573 0)
(-0.0833572 -0.091838 0)
(-0.0353913 -0.136534 0)
(-0.0166701 0.0869034 0)
(-0.0889989 0.118313 0)
(-0.0681636 -0.055641 0)
(-0.110968 -0.19262 0)
(-0.156757 -0.114968 0)
(0.0748919 0.209537 0)
(-0.018259 0.125183 0)
(0.00983449 -0.0418545 0)
(0.0156728 -0.0533598 0)
(0.0242667 -0.0126808 0)
(0.0621066 -0.0274805 0)
(0.125961 -0.0525835 0)
(0.14093 -0.0367833 0)
(0.102931 0.0218228 0)
(0.0604652 0.0636573 0)
(0.00112232 0.0412325 0)
(-0.0326128 0.0242632 0)
(-0.031112 0.0457007 0)
(-0.0573345 0.0679379 0)
(-0.0762426 0.0441004 0)
(-0.0506396 -0.0211385 0)
(-0.0201863 -0.104661 0)
(-0.0036016 -0.165587 0)
(0.0162939 0.098815 0)
(-0.0366928 0.137215 0)
(-0.00616535 -0.0380845 0)
(-0.0715726 -0.167829 0)
(-0.179599 -0.136162 0)
(0.0412578 0.150748 0)
(0.0443558 0.138975 0)
(0.0744643 -0.0392405 0)
(0.0458388 -0.0601582 0)
(0.0549357 -0.0287645 0)
(0.118109 -0.0514617 0)
(0.16715 -0.064919 0)
(0.143734 -0.0269635 0)
(0.0756381 0.0430065 0)
(0.0552954 0.0827787 0)
(0.0047985 0.0613892 0)
(-0.0428522 0.0333491 0)
(-0.0435162 0.038367 0)
(-0.0359501 0.0710155 0)
(-0.0136098 0.0361586 0)
(0.0734333 -0.0344798 0)
(0.0972214 -0.0907771 0)
(0.0734511 -0.136585 0)
(0.0261823 0.0957237 0)
(0.0176614 0.136614 0)
(0.0515969 -0.030407 0)
(-0.0144125 -0.121406 0)
(-0.167649 -0.126119 0)
(-0.0567329 0.0609634 0)
(0.0937768 0.12522 0)
(0.130557 -0.0255114 0)
(0.0863868 -0.0519021 0)
(0.0930349 -0.0452425 0)
(0.159528 -0.0844528 0)
(0.177185 -0.0628527 0)
(0.0982532 0.00458155 0)
(0.0281683 0.0750789 0)
(0.0245107 0.104431 0)
(0.0018843 0.0886795 0)
(-0.009852 0.0548872 0)
(0.0115117 0.0448689 0)
(-0.000674629 0.0608397 0)
(0.095912 -0.00309712 0)
(0.178101 -0.0565284 0)
(0.190991 -0.0734221 0)
(0.147663 -0.0671109 0)
(0.0334261 -0.0261537 0)
(0.0552352 0.007516 0)
(-0.207055 0.0559179 0)
(-0.444136 0.0367265 0)
(-0.458565 -0.0135476 0)
(-0.363621 -0.0276318 0)
(-0.323822 -0.0112457 0)
(-0.322219 0.000508015 0)
(-0.343241 0.00422251 0)
(-0.33788 -0.00442196 0)
(-0.2793 -0.0161811 0)
(-0.180582 -0.0196132 0)
(-0.0765646 -0.00514715 0)
(-0.0408401 0.0186301 0)
(-0.122722 0.00561587 0)
(-0.164584 -0.00483403 0)
(-0.17959 -0.00575326 0)
(-0.151495 -0.0141345 0)
(-0.0507227 -0.0279585 0)
(-0.00381558 -0.0117707 0)
(-0.0993215 0.0865549 0)
(-0.36879 0.136962 0)
(-0.416449 0.0681015 0)
(-0.230753 -0.0268081 0)
(-0.168749 -0.0381372 0)
(-0.195164 -0.00896807 0)
(-0.273466 0.012103 0)
(-0.320487 0.00945196 0)
(-0.315097 -0.0200499 0)
(-0.262279 -0.0548985 0)
(-0.179451 -0.0725408 0)
(-0.0916427 -0.0558971 0)
(0.00811731 0.00613535 0)
(0.00405853 0.0422397 0)
(-0.0504141 0.0297534 0)
(-0.101999 -0.00685243 0)
(-0.126131 -0.036673 0)
(-0.0228181 -0.0744353 0)
(-0.0397941 0.0340706 0)
(-0.174262 0.151276 0)
(-0.327736 0.167684 0)
(-0.210448 0.0261219 0)
(0.0133422 -0.0971095 0)
(0.122195 -0.0462392 0)
(0.109621 0.0334994 0)
(-0.0635181 0.0608891 0)
(-0.196598 0.0258878 0)
(-0.211866 -0.0264758 0)
(-0.175308 -0.0822668 0)
(-0.116037 -0.104618 0)
(-0.0625118 -0.0852121 0)
(-0.0128658 -0.0282325 0)
(0.0714178 0.0323833 0)
(0.0937787 0.0524856 0)
(0.0594455 0.0295211 0)
(-0.0576368 -0.0297117 0)
(-0.00268343 -0.102112 0)
(-0.045641 0.0802031 0)
(-0.157574 0.187464 0)
(-0.202302 0.158683 0)
(0.00165385 -0.0422545 0)
(0.223938 -0.181986 0)
(0.32487 -0.105176 0)
(0.346556 0.0688293 0)
(0.213175 0.144597 0)
(0.0180101 0.0839532 0)
(-0.0750081 -0.0270543 0)
(-0.0551721 -0.10159 0)
(-0.0331877 -0.126931 0)
(-0.00981176 -0.104363 0)
(0.0238614 -0.0533367 0)
(0.0711072 -0.00391924 0)
(0.131556 0.0383911 0)
(0.147835 0.0526048 0)
(0.0502681 0.00524763 0)
(0.0246612 -0.0972957 0)
(-0.0321084 0.122616 0)
(-0.0928134 0.198738 0)
(-0.0612621 0.12058 0)
(0.169506 -0.130373 0)
(0.321012 -0.258607 0)
(0.327358 -0.157574 0)
(0.392488 0.0396187 0)
(0.365952 0.17871 0)
(0.224465 0.1495 0)
(0.11745 0.0248397 0)
(0.0733073 -0.0868401 0)
(0.0367469 -0.124975 0)
(0.0207925 -0.109758 0)
(0.0471618 -0.0651822 0)
(0.0769664 -0.0196296 0)
(0.117795 0.0192676 0)
(0.160495 0.0571159 0)
(0.104697 0.0330816 0)
(0.0538399 -0.0712494 0)
(-0.0125707 0.136357 0)
(-0.024265 0.188303 0)
(0.0539532 0.0608054 0)
(0.28882 -0.192411 0)
(0.217035 -0.252191 0)
(0.0349163 -0.119772 0)
(0.140761 0.0763332 0)
(0.296641 0.196582 0)
(0.278326 0.178923 0)
(0.207833 0.0601177 0)
(0.138932 -0.0538129 0)
(0.0457393 -0.100124 0)
(0.0117699 -0.102291 0)
(0.0432943 -0.0736967 0)
(0.0849869 -0.0290436 0)
(0.105839 0.00614374 0)
(0.143999 0.0550893 0)
(0.123961 0.0551291 0)
(0.0696521 -0.0363538 0)
(-0.0228696 0.147116 0)
(-0.00179669 0.160684 0)
(0.112281 -0.00710537 0)
(0.271439 -0.188064 0)
(-0.0906852 -0.137584 0)
(-0.318343 -0.0689154 0)
(-0.204558 0.00340108 0)
(0.063621 0.168647 0)
(0.163495 0.173539 0)
(0.155772 0.076919 0)
(0.0792479 -0.0199457 0)
(-0.0304901 -0.0682021 0)
(-0.0308228 -0.104811 0)
(0.0162326 -0.0944337 0)
(0.0757395 -0.0446432 0)
(0.104243 -0.00246252 0)
(0.126992 0.0502083 0)
(0.12126 0.0694325 0)
(0.0699716 0.000297887 0)
(0.00218788 0.177086 0)
(0.0531923 0.133588 0)
(0.216046 -0.0591435 0)
(0.0668853 -0.0822689 0)
(-0.384912 0.00170124 0)
(-0.42233 -0.101908 0)
(-0.383494 -0.0671316 0)
(-0.234826 0.0571782 0)
(-0.056877 0.128295 0)
(-0.0491855 0.079153 0)
(-0.10426 0.0205203 0)
(-0.118882 -0.0640812 0)
(-0.0795405 -0.129201 0)
(-0.0396755 -0.126593 0)
(0.0278399 -0.0703285 0)
(0.0814586 -0.0131528 0)
(0.112885 0.0480435 0)
(0.111549 0.0814029 0)
(0.0641173 0.0368578 0)
(0.038894 0.0765474 0)
(0.0752952 0.126031 0)
(0.111783 0.0301377 0)
(0.0770439 -0.0455782 0)
(-0.0736101 -0.0732626 0)
(-0.106673 -0.03576 0)
(0.0570078 0.0292173 0)
(0.111724 -0.0344606 0)
(0.110695 -0.04692 0)
(0.135798 -0.0835782 0)
(0.158296 -0.113808 0)
(0.128202 -0.0242717 0)
(0.0135195 0.065558 0)
(-0.0611013 0.0790642 0)
(-0.0695657 0.0680908 0)
(-0.0645522 0.040589 0)
(-0.0433866 0.00318857 0)
(-0.0155865 -0.00404008 0)
(0.0186809 -0.0104253 0)
(0.0274506 -0.0388894 0)
(0.0137561 -0.087873 0)
(0.109767 -0.088969 0)
(0.128338 -0.06137 0)
(0.0313191 -0.0185457 0)
(0.107639 0.0087169 0)
(0.167832 -0.00930373 0)
(0.169675 -0.00140933 0)
(0.112322 0.00999892 0)
(0.0363248 -0.0454208 0)
(0.0682281 -0.0838349 0)
(0.145259 -0.089756 0)
(0.168643 -0.0586441 0)
(0.171004 -0.0758613 0)
(0.0752599 -0.0502464 0)
(-0.0646201 0.0904314 0)
(-0.199674 0.143281 0)
(-0.26266 0.129672 0)
(-0.310285 0.101215 0)
(-0.390028 0.0580076 0)
(-0.534116 0.0138124 0)
(-0.648439 0.0173838 0)
(-0.659714 0.041925 0)
(-0.572152 -0.071635 0)
(-0.430123 -0.206434 0)
(-0.307463 -0.172852 0)
(-0.326704 -0.0785895 0)
(-0.0059037 -0.0623897 0)
(0.0759139 -0.0601997 0)
(0.0519606 -0.0236282 0)
(-0.00462673 0.0402361 0)
(0.0526744 0.0635304 0)
(0.070576 0.0203869 0)
(0.141304 -0.0656327 0)
(0.109627 -0.0960948 0)
(0.0427185 -0.0388944 0)
(-0.0553973 0.0100178 0)
(-0.170496 0.120319 0)
(-0.286794 0.253114 0)
(-0.491669 0.349832 0)
(-0.552727 0.325612 0)
(-0.367759 0.185136 0)
(-0.108721 0.230733 0)
(-0.0237439 0.305653 0)
(-0.320012 0.132946 0)
(-0.441516 0.00288173 0)
(-0.382429 -0.226191 0)
(-0.488871 -0.233158 0)
(-0.742216 -0.0930258 0)
(-0.771077 -0.0795716 0)
(-0.0825387 0.00056677 0)
(-0.51443 0.0201285 0)
(-0.610748 0.110696 0)
(-0.43286 0.00882193 0)
(-0.181012 -0.0691173 0)
(-0.0854663 -0.147417 0)
(-0.155746 -0.130718 0)
(-0.429507 0.0481537 0)
(-0.560199 0.114733 0)
(-0.613666 0.10558 0)
(-0.87968 0.230857 0)
(-1.10129 0.452022 0)
(-1.20691 0.332185 0)
(-0.94208 -0.147119 0)
(-0.668304 -0.345004 0)
(-0.400654 -0.13654 0)
(-0.0693869 0.186058 0)
(0.114867 0.241633 0)
(0.160596 0.220794 0)
(0.0946947 0.0434563 0)
(0.152849 0.0218263 0)
(-0.414493 0.0536069 0)
(-0.811839 -0.0623385 0)
(-0.113356 0.31783 0)
(-0.328924 0.210997 0)
(-0.395147 0.0385835 0)
(-0.458587 -0.152706 0)
(-0.678591 -0.279478 0)
(-1.04967 0.020995 0)
(-1.21311 0.205106 0)
(-1.2847 0.220938 0)
(-1.46819 0.188291 0)
(-1.57929 0.340552 0)
(-1.61842 0.505242 0)
(-1.58304 0.522938 0)
(-1.34053 0.214431 0)
(-1.0144 -0.269635 0)
(-0.812165 -0.502731 0)
(-0.669629 -0.370005 0)
(-0.476124 -0.178438 0)
(-0.16018 -0.0363429 0)
(0.122077 0.0622198 0)
(0.309529 0.00700214 0)
(0.320681 0.0951588 0)
(0.232149 0.667075 0)
(-0.294766 0.451194 0)
(-0.086427 0.485558 0)
(-0.181846 0.359462 0)
(-0.285096 0.245775 0)
(-0.40212 0.242674 0)
(-0.46157 0.196234 0)
(-0.715643 0.212769 0)
(-0.975255 0.307029 0)
(-1.1718 0.331289 0)
(-1.42514 0.27635 0)
(-1.62788 0.348046 0)
(-1.64462 0.388343 0)
(-1.46421 0.190116 0)
(-1.1879 -0.184153 0)
(-0.952906 -0.498939 0)
(-0.776243 -0.603369 0)
(-0.693934 -0.511326 0)
(-0.542807 -0.392435 0)
(-0.293901 -0.406141 0)
(-0.0208319 -0.381146 0)
(0.252655 -0.189604 0)
(0.0963972 -0.0549472 0)
(0.274784 0.76139 0)
(-0.157504 0.972326 0)
(0.00310813 0.577754 0)
(-0.0125774 0.466259 0)
(-0.0707318 0.328885 0)
(-0.285346 0.229218 0)
(-0.221439 0.156246 0)
(-0.304048 0.431314 0)
(-0.540924 0.603223 0)
(-0.784101 0.590878 0)
(-1.0651 0.523392 0)
(-1.24565 0.460886 0)
(-1.19887 0.284705 0)
(-1.00692 -0.0430322 0)
(-0.827928 -0.400719 0)
(-0.652036 -0.675 0)
(-0.510232 -0.733464 0)
(-0.599901 -0.582369 0)
(-0.468317 -0.574665 0)
(-0.315832 -0.600802 0)
(-0.188314 -0.54419 0)
(-0.0672882 -0.289409 0)
(-0.156473 0.152343 0)
(-0.122833 0.92501 0)
(-0.410464 1.35298 0)
(0.082973 0.489441 0)
(0.157582 0.487202 0)
(0.169749 0.442301 0)
(-0.0574327 0.382982 0)
(-0.0349086 0.181138 0)
(-0.0412005 0.435609 0)
(-0.0817248 0.875189 0)
(-0.318604 0.864731 0)
(-0.571632 0.744151 0)
(-0.740229 0.561891 0)
(-0.703039 0.242295 0)
(-0.576113 -0.165193 0)
(-0.505274 -0.535986 0)
(-0.418681 -0.765089 0)
(-0.34889 -0.747371 0)
(-0.544188 -0.585695 0)
(-0.491936 -0.627826 0)
(-0.441587 -0.689827 0)
(-0.469447 -0.573624 0)
(-0.478121 -0.138061 0)
(-0.559234 0.363531 0)
(-0.596467 1.08579 0)
(-0.713905 1.47808 0)
(0.0956797 0.290792 0)
(0.255252 0.392625 0)
(0.311392 0.50383 0)
(0.195262 0.492961 0)
(0.189167 0.237415 0)
(0.132922 0.355026 0)
(0.200873 0.906439 0)
(0.085982 1.10705 0)
(-0.124963 0.929757 0)
(-0.283504 0.661091 0)
(-0.301971 0.263738 0)
(-0.281773 -0.197777 0)
(-0.332909 -0.593046 0)
(-0.313976 -0.754261 0)
(-0.449051 -0.612883 0)
(-0.579017 -0.51672 0)
(-0.571077 -0.613701 0)
(-0.601535 -0.660675 0)
(-0.730559 -0.519849 0)
(-0.839705 -0.160904 0)
(-0.941784 0.479813 0)
(-0.93323 1.12673 0)
(-0.831958 1.30939 0)
(0.0570053 0.104543 0)
(0.264443 0.256479 0)
(0.367393 0.502905 0)
(0.379165 0.504944 0)
(0.413339 0.336089 0)
(0.307454 0.369944 0)
(0.308525 0.849097 0)
(0.294315 1.23429 0)
(0.145636 1.08793 0)
(0.0270696 0.76001 0)
(-0.0242636 0.341896 0)
(-0.0811994 -0.104651 0)
(-0.223503 -0.552951 0)
(-0.266263 -0.598291 0)
(-0.584382 -0.447547 0)
(-0.632258 -0.474596 0)
(-0.599534 -0.599827 0)
(-0.655927 -0.542418 0)
(-0.80641 -0.342584 0)
(-0.980049 -0.0174648 0)
(-1.027 0.507935 0)
(-0.941772 0.97445 0)
(-0.73149 0.991763 0)
(0.0663793 -0.0417451 0)
(0.196457 0.0674339 0)
(0.383768 0.417536 0)
(0.475103 0.414915 0)
(0.535637 0.348996 0)
(0.407162 0.47258 0)
(0.28459 0.86488 0)
(0.290568 1.30409 0)
(0.193339 1.1779 0)
(0.1495 0.822752 0)
(0.111584 0.402875 0)
(-0.0434773 -0.0267562 0)
(-0.0776071 -0.383932 0)
(-0.373399 -0.349918 0)
(-0.651597 -0.310765 0)
(-0.631557 -0.484273 0)
(-0.555098 -0.585033 0)
(-0.587075 -0.412352 0)
(-0.688434 -0.154242 0)
(-0.746831 0.130173 0)
(-0.7577 0.454175 0)
(-0.70627 0.775248 0)
(-0.527072 0.748899 0)
(0.107184 -0.168809 0)
(0.116786 -0.0944088 0)
(0.315165 0.208775 0)
(0.452628 0.290458 0)
(0.44295 0.38534 0)
(0.293051 0.647427 0)
(0.117741 0.963243 0)
(0.137172 1.36031 0)
(0.0859568 1.17901 0)
(0.136578 0.831971 0)
(0.11898 0.475409 0)
(0.00911728 0.134248 0)
(0.0480281 -0.126968 0)
(-0.517425 -0.103794 0)
(-0.657543 -0.240677 0)
(-0.545572 -0.550348 0)
(-0.443042 -0.676525 0)
(-0.417054 -0.472846 0)
(-0.43725 -0.18137 0)
(-0.645717 0.0633471 0)
(-0.634756 0.407116 0)
(-0.5069 0.691679 0)
(-0.403903 0.621423 0)
(0.0675846 -0.292318 0)
(0.0608827 -0.160179 0)
(0.152369 0.0792632 0)
(0.133346 0.284889 0)
(0.0373179 0.528472 0)
(-0.0726517 0.817232 0)
(-0.150504 1.0778 0)
(-0.11285 1.3535 0)
(-0.0588522 1.11939 0)
(0.0825257 0.79053 0)
(0.136175 0.489629 0)
(0.185151 0.165807 0)
(-0.00877477 0.126479 0)
(-0.547207 0.114947 0)
(-0.566373 -0.228286 0)
(-0.381162 -0.665548 0)
(-0.403753 -0.70438 0)
(-0.387085 -0.522134 0)
(-0.220524 -0.104697 0)
(-0.26001 0.323982 0)
(-0.533847 0.389116 0)
(-0.49529 0.580806 0)
(-0.405063 0.521069 0)
(-0.0324031 -0.284758 0)
(-0.124208 -0.0679941 0)
(-0.229486 0.190591 0)
(-0.375099 0.431854 0)
(-0.438726 0.656797 0)
(-0.461145 0.896702 0)
(-0.430107 1.10742 0)
(-0.302031 1.21418 0)
(-0.10633 0.943221 0)
(0.0855974 0.628074 0)
(0.19982 0.39565 0)
(0.146863 0.267901 0)
(-0.124286 0.495815 0)
(-0.41574 0.289897 0)
(-0.25286 -0.330885 0)
(-0.190256 -0.702384 0)
(-0.319271 -0.632205 0)
(-0.37637 -0.607921 0)
(-0.359842 -0.327777 0)
(-0.123156 0.44414 0)
(-0.203822 0.547418 0)
(-0.309134 0.567386 0)
(-0.281721 0.448125 0)
(-0.113141 -0.156955 0)
(-0.328129 0.112139 0)
(-0.509944 0.349893 0)
(-0.59866 0.509577 0)
(-0.58463 0.652928 0)
(-0.545447 0.814124 0)
(-0.457593 0.962153 0)
(-0.275106 0.949417 0)
(-0.0695999 0.712354 0)
(0.0250272 0.491314 0)
(-0.00974892 0.423826 0)
(-0.138376 0.522846 0)
(-0.211749 0.668151 0)
(-0.179994 0.267111 0)
(0.0191987 -0.385276 0)
(-0.142292 -0.539314 0)
(-0.223703 -0.544778 0)
(-0.379532 -0.519483 0)
(-0.503783 -0.280872 0)
(-0.318654 0.18881 0)
(-0.0622583 0.54713 0)
(-0.0174668 0.597578 0)
(0.00592257 0.447981 0)
(-0.155343 0.0741745 0)
(-0.400496 0.323942 0)
(-0.489512 0.43224 0)
(-0.440738 0.467474 0)
(-0.400097 0.544142 0)
(-0.390334 0.695343 0)
(-0.353646 0.806017 0)
(-0.293972 0.792288 0)
(-0.306908 0.673945 0)
(-0.444235 0.611392 0)
(-0.532749 0.606958 0)
(-0.453283 0.592974 0)
(-0.23965 0.525368 0)
(0.0279681 0.156248 0)
(-0.0513619 -0.23467 0)
(-0.167726 -0.419156 0)
(-0.185195 -0.421597 0)
(-0.40811 -0.350129 0)
(-0.60182 -0.269182 0)
(-0.565438 -0.00246829 0)
(-0.312993 0.315333 0)
(-0.0784729 0.501343 0)
(-0.00220742 0.401422 0)
(-0.180393 0.338438 0)
(-0.375087 0.47738 0)
(-0.33237 0.397038 0)
(-0.303975 0.375188 0)
(-0.344748 0.540314 0)
(-0.419724 0.758437 0)
(-0.553049 0.898929 0)
(-0.71543 0.936326 0)
(-0.86845 0.863997 0)
(-0.901527 0.682672 0)
(-0.793689 0.469134 0)
(-0.650626 0.267287 0)
(-0.427978 0.116255 0)
(-0.256163 -0.0623693 0)
(-0.181102 -0.266276 0)
(-0.0742154 -0.437569 0)
(-0.09672 -0.282944 0)
(-0.240609 -0.142614 0)
(-0.366569 -0.157237 0)
(-0.515383 -0.0624672 0)
(-0.488587 0.136395 0)
(-0.314778 0.292646 0)
(-0.171995 0.264498 0)
(-0.201944 0.608434 0)
(-0.362294 0.572442 0)
(-0.369943 0.351559 0)
(-0.486079 0.412531 0)
(-0.536427 0.740848 0)
(-0.743844 0.981795 0)
(-0.973255 1.11704 0)
(-1.08874 1.07755 0)
(-1.03935 0.815745 0)
(-0.863603 0.474563 0)
(-0.64234 0.250328 0)
(-0.464223 0.12295 0)
(-0.311747 0.0304002 0)
(-0.122807 -0.132286 0)
(0.056585 -0.339086 0)
(0.267438 -0.482932 0)
(0.215366 -0.277627 0)
(0.202855 -0.0713598 0)
(0.221341 0.0332102 0)
(0.11924 0.0605506 0)
(-0.051209 0.0831443 0)
(-0.0783326 0.131859 0)
(-0.00954818 0.107467 0)
(-0.232526 0.915923 0)
(-0.442242 0.678377 0)
(-0.611872 0.45268 0)
(-0.788236 0.552715 0)
(-0.878325 0.952914 0)
(-1.01331 1.18767 0)
(-1.09286 1.2046 0)
(-1.0071 0.977316 0)
(-0.800175 0.591316 0)
(-0.584132 0.278436 0)
(-0.377544 0.0954211 0)
(-0.150602 -0.0312103 0)
(0.0896436 -0.149675 0)
(0.373976 -0.383918 0)
(0.509642 -0.538192 0)
(0.565152 -0.529221 0)
(0.59232 -0.375401 0)
(0.65322 -0.188875 0)
(0.720663 -0.00830977 0)
(0.743646 0.160302 0)
(0.684092 0.26685 0)
(0.571007 0.276644 0)
(0.4697 0.18979 0)
(-0.277428 1.28374 0)
(-0.595645 0.867734 0)
(-0.821206 0.658266 0)
(-1.01554 0.737837 0)
(-1.06138 0.997265 0)
(-0.964535 1.19305 0)
(-0.818168 1.11818 0)
(-0.604936 0.803077 0)
(-0.419487 0.458083 0)
(-0.207368 0.145154 0)
(0.0362777 -0.135432 0)
(0.279701 -0.353484 0)
(0.472133 -0.479579 0)
(0.617034 -0.567306 0)
(0.695637 -0.601264 0)
(0.729135 -0.556247 0)
(0.763062 -0.427735 0)
(0.828091 -0.255469 0)
(0.912843 -0.0787214 0)
(0.995627 0.0969737 0)
(1.04928 0.26062 0)
(1.02991 0.365144 0)
(0.927422 0.356036 0)
(-0.202931 1.7318 0)
(-0.624017 1.13087 0)
(-0.844845 0.852577 0)
(-0.986886 0.824635 0)
(-0.942037 0.876947 0)
(-0.71088 0.890282 0)
(-0.455573 0.807469 0)
(-0.213539 0.57619 0)
(-0.0673371 0.285666 0)
(0.206708 -0.115146 0)
(0.431426 -0.410679 0)
(0.507888 -0.506711 0)
(0.576589 -0.566001 0)
(0.618128 -0.605016 0)
(0.635777 -0.610142 0)
(0.654785 -0.56806 0)
(0.697799 -0.469514 0)
(0.770728 -0.321912 0)
(0.861812 -0.148799 0)
(0.950863 0.0299172 0)
(1.0338 0.213196 0)
(1.09574 0.38231 0)
(1.07775 0.454781 0)
(0.0980175 2.09341 0)
(-0.368617 1.521 0)
(-0.665273 1.03175 0)
(-0.77746 0.84249 0)
(-0.698322 0.732523 0)
(-0.508022 0.647693 0)
(-0.287725 0.576128 0)
(-0.0487504 0.359061 0)
(0.175802 -0.0196045 0)
(0.384104 -0.322273 0)
(0.45133 -0.475524 0)
(0.445452 -0.532476 0)
(0.436048 -0.572974 0)
(0.432479 -0.608157 0)
(0.445053 -0.625824 0)
(0.483969 -0.609269 0)
(0.551977 -0.541311 0)
(0.642326 -0.414527 0)
(0.740403 -0.239263 0)
(0.827473 -0.0467118 0)
(0.907462 0.135292 0)
(0.999489 0.312481 0)
(1.04797 0.462499 0)
(0.369443 1.9854 0)
(0.166273 2.00328 0)
(-0.24657 1.33604 0)
(-0.444047 0.91124 0)
(-0.425286 0.641335 0)
(-0.364583 0.473759 0)
(-0.174781 0.334298 0)
(0.103508 0.0710309 0)
(0.307863 -0.188473 0)
(0.362327 -0.371209 0)
(0.320331 -0.464587 0)
(0.254508 -0.503168 0)
(0.21558 -0.550449 0)
(0.213963 -0.609989 0)
(0.242553 -0.658074 0)
(0.296311 -0.672652 0)
(0.375103 -0.6311 0)
(0.475369 -0.519266 0)
(0.586177 -0.344321 0)
(0.692044 -0.143776 0)
(0.785271 0.0407145 0)
(0.878107 0.232094 0)
(0.947344 0.444442 0)
(0.382267 1.44712 0)
(0.625776 2.18763 0)
(0.326385 1.7331 0)
(0.011608 1.10596 0)
(-0.0729623 0.658197 0)
(-0.0498511 0.372231 0)
(0.125708 0.119469 0)
(0.258815 -0.0991719 0)
(0.28218 -0.237302 0)
(0.228718 -0.310862 0)
(0.123055 -0.356398 0)
(0.0376286 -0.428458 0)
(0.0127676 -0.531849 0)
(0.0300261 -0.632035 0)
(0.0671295 -0.706284 0)
(0.116994 -0.743681 0)
(0.184137 -0.724649 0)
(0.274937 -0.629204 0)
(0.385896 -0.461188 0)
(0.505372 -0.258435 0)
(0.617147 -0.0646525 0)
(0.713924 0.141753 0)
(0.804711 0.38624 0)
(0.209926 0.892712 0)
(0.682949 1.98268 0)
(0.741291 1.96461 0)
(0.51499 1.35841 0)
(0.400829 0.790764 0)
(0.340198 0.352229 0)
(0.338733 0.055772 0)
(0.293738 -0.0949251 0)
(0.18657 -0.147678 0)
(0.0350482 -0.176136 0)
(-0.0937952 -0.252816 0)
(-0.139639 -0.397926 0)
(-0.128767 -0.549017 0)
(-0.0968603 -0.668806 0)
(-0.0614416 -0.75021 0)
(-0.0275855 -0.796356 0)
(0.0114048 -0.794401 0)
(0.0718346 -0.718624 0)
(0.161698 -0.563893 0)
(0.268587 -0.36496 0)
(0.380234 -0.158623 0)
(0.493428 0.0574414 0)
(0.614792 0.298572 0)
(0.0358135 0.525127 0)
(0.477392 1.67106 0)
(0.701337 1.90774 0)
(0.661317 1.4597 0)
(0.577359 0.87863 0)
(0.487633 0.411145 0)
(0.381525 0.137607 0)
(0.225891 0.0322651 0)
(0.024626 0.0175886 0)
(-0.167285 -0.031171 0)
(-0.23173 -0.20184 0)
(-0.22649 -0.408295 0)
(-0.191 -0.583757 0)
(-0.15329 -0.705893 0)
(-0.126871 -0.779863 0)
(-0.113686 -0.821173 0)
(-0.108323 -0.826773 0)
(-0.0909645 -0.772355 0)
(-0.0408986 -0.642177 0)
(0.0395064 -0.459431 0)
(0.133224 -0.263361 0)
(0.238122 -0.063414 0)
(0.37027 0.160325 0)
(-0.0663324 0.355037 0)
(0.21285 1.44081 0)
(0.411373 1.73913 0)
(0.474552 1.41795 0)
(0.471197 0.91445 0)
(0.420052 0.50493 0)
(0.288993 0.287363 0)
(0.0701476 0.233449 0)
(-0.158377 0.205493 0)
(-0.268641 0.0492369 0)
(-0.26666 -0.201056 0)
(-0.223152 -0.445089 0)
(-0.167237 -0.628871 0)
(-0.129492 -0.737006 0)
(-0.119006 -0.790967 0)
(-0.128045 -0.816861 0)
(-0.151531 -0.819178 0)
(-0.176042 -0.78133 0)
(-0.175483 -0.68314 0)
(-0.137757 -0.528861 0)
(-0.0721814 -0.348413 0)
(0.0103495 -0.167251 0)
(0.114499 0.0185863 0)
(-0.108102 0.339631 0)
(0.0106714 1.31178 0)
(0.115149 1.59098 0)
(0.234981 1.33305 0)
(0.297459 0.913586 0)
(0.274476 0.602817 0)
(0.124546 0.471926 0)
(-0.10136 0.445934 0)
(-0.254401 0.333051 0)
(-0.269908 0.0689124 0)
(-0.217425 -0.240835 0)
(-0.139786 -0.507928 0)
(-0.0677279 -0.679901 0)
(-0.0351749 -0.754602 0)
(-0.0463621 -0.778801 0)
(-0.0809938 -0.787452 0)
(-0.125296 -0.781218 0)
(-0.176861 -0.74887 0)
(-0.218883 -0.677479 0)
(-0.229241 -0.559105 0)
(-0.203943 -0.408568 0)
(-0.149946 -0.248709 0)
(-0.0703972 -0.0926812 0)
(-0.112824 0.399987 0)
(-0.0797549 1.27162 0)
(-0.0520006 1.48321 0)
(0.0977331 1.22757 0)
(0.166898 0.893146 0)
(0.12541 0.706113 0)
(-0.0353502 0.656382 0)
(-0.199021 0.591194 0)
(-0.249344 0.366939 0)
(-0.193044 0.0235635 0)
(-0.104487 -0.317326 0)
(-0.00208684 -0.592448 0)
(0.0652132 -0.727684 0)
(0.0877786 -0.757345 0)
(0.061585 -0.742863 0)
(0.0033642 -0.734611 0)
(-0.0577477 -0.728135 0)
(-0.116872 -0.69372 0)
(-0.177723 -0.635602 0)
(-0.223063 -0.546804 0)
(-0.23923 -0.430255 0)
(-0.220513 -0.299476 0)
(-0.166433 -0.170966 0)
(-0.0995625 0.488054 0)
(-0.0849338 1.27863 0)
(-0.0891867 1.39752 0)
(0.0589423 1.12449 0)
(0.0832865 0.894462 0)
(0.00931928 0.820738 0)
(-0.123822 0.789719 0)
(-0.197451 0.64651 0)
(-0.16023 0.332343 0)
(-0.0595956 -0.0491149 0)
(0.0523368 -0.414185 0)
(0.148561 -0.671721 0)
(0.183953 -0.764307 0)
(0.191647 -0.754045 0)
(0.165624 -0.698095 0)
(0.100674 -0.663256 0)
(0.0257664 -0.665828 0)
(-0.0354048 -0.637447 0)
(-0.0916301 -0.582771 0)
(-0.143779 -0.511438 0)
(-0.178029 -0.422974 0)
(-0.185236 -0.325293 0)
(-0.157759 -0.229903 0)
(-0.0835924 0.567366 0)
(-0.0570641 1.28353 0)
(-0.0520146 1.32556 0)
(0.0617548 1.06308 0)
(0.0304771 0.938279 0)
(-0.0495084 0.918611 0)
(-0.123829 0.851468 0)
(-0.113012 0.631062 0)
(-0.0156017 0.262761 0)
(0.115413 -0.158175 0)
(0.221826 -0.511023 0)
(0.274459 -0.718236 0)
(0.275381 -0.777138 0)
(0.26786 -0.745543 0)
(0.246398 -0.659235 0)
(0.193527 -0.592496 0)
(0.118372 -0.591754 0)
(0.0468585 -0.581549 0)
(-0.00513841 -0.534009 0)
(-0.0508885 -0.472433 0)
(-0.0837647 -0.403084 0)
(-0.0964344 -0.330276 0)
(-0.0854712 -0.26262 0)
(-0.0696696 0.624442 0)
(-0.029621 1.26481 0)
(0.00225918 1.26663 0)
(0.0658216 1.05362 0)
(0.00677041 0.998793 0)
(-0.0462394 0.973183 0)
(-0.0497877 0.847106 0)
(0.0246222 0.556346 0)
(0.153367 0.149751 0)
(0.286514 -0.26505 0)
(0.363824 -0.578386 0)
(0.37231 -0.728578 0)
(0.355779 -0.764091 0)
(0.340923 -0.725409 0)
(0.318578 -0.62973 0)
(0.282471 -0.538162 0)
(0.219217 -0.513964 0)
(0.136171 -0.514917 0)
(0.0725918 -0.484335 0)
(0.0267182 -0.431609 0)
(-0.00921256 -0.37608 0)
(-0.0275476 -0.319348 0)
(-0.028496 -0.268342 0)
(-0.0559961 0.667342 0)
(-0.0104316 1.22446 0)
(0.0425631 1.22208 0)
(0.0675372 1.07278 0)
(0.0176089 1.04124 0)
(0.0102655 0.975167 0)
(0.0652679 0.78542 0)
(0.177086 0.44698 0)
(0.321806 0.0242147 0)
(0.43423 -0.356082 0)
(0.470241 -0.604407 0)
(0.455929 -0.716412 0)
(0.440002 -0.745193 0)
(0.43168 -0.706987 0)
(0.415088 -0.605673 0)
(0.384271 -0.494765 0)
(0.324616 -0.438404 0)
(0.233615 -0.433762 0)
(0.150584 -0.423193 0)
(0.0948568 -0.385806 0)
(0.052723 -0.342838 0)
(0.0243096 -0.301734 0)
(0.0117348 -0.264277 0)
(-0.031837 0.694065 0)
(0.00908393 1.1718 0)
(0.0678473 1.18685 0)
(0.0797534 1.09078 0)
(0.0614382 1.04661 0)
(0.0996748 0.927154 0)
(0.193793 0.681384 0)
(0.326513 0.317615 0)
(0.46535 -0.09211 0)
(0.541505 -0.416929 0)
(0.548657 -0.606899 0)
(0.5349 -0.704451 0)
(0.533005 -0.742533 0)
(0.543295 -0.70416 0)
(0.538587 -0.585508 0)
(0.500777 -0.44533 0)
(0.427281 -0.356345 0)
(0.32432 -0.338444 0)
(0.223303 -0.344862 0)
(0.153091 -0.330424 0)
(0.104233 -0.301112 0)
(0.0673496 -0.273605 0)
(0.044292 -0.248954 0)
(0.0111814 0.68525 0)
(0.0434869 1.12502 0)
(0.0926967 1.15532 0)
(0.108352 1.08679 0)
(0.126655 1.01137 0)
(0.199208 0.84227 0)
(0.312671 0.559185 0)
(0.451318 0.183089 0)
(0.561896 -0.186672 0)
(0.602117 -0.445297 0)
(0.605462 -0.604971 0)
(0.60544 -0.707305 0)
(0.623296 -0.756368 0)
(0.647739 -0.713101 0)
(0.647078 -0.566741 0)
(0.600567 -0.383907 0)
(0.508798 -0.259084 0)
(0.389932 -0.228379 0)
(0.276037 -0.250947 0)
(0.194599 -0.264311 0)
(0.139804 -0.253209 0)
(0.0979499 -0.238107 0)
(0.0679589 -0.224956 0)
(0.0596946 0.628931 0)
(0.0987481 1.08936 0)
(0.132179 1.13072 0)
(0.151423 1.05971 0)
(0.195268 0.945465 0)
(0.284575 0.737806 0)
(0.403876 0.429674 0)
(0.52612 0.0654864 0)
(0.597512 -0.244141 0)
(0.627176 -0.464598 0)
(0.638768 -0.615335 0)
(0.651049 -0.724489 0)
(0.679828 -0.782828 0)
(0.709383 -0.726687 0)
(0.702955 -0.542904 0)
(0.644915 -0.312838 0)
(0.540294 -0.150571 0)
(0.411301 -0.108446 0)
(0.294348 -0.148774 0)
(0.212522 -0.191788 0)
(0.156553 -0.201876 0)
(0.113659 -0.199293 0)
(0.0812595 -0.196305 0)
(0.080613 0.519114 0)
(0.153885 1.04244 0)
(0.185646 1.11464 0)
(0.203523 1.02609 0)
(0.252108 0.870938 0)
(0.338743 0.630801 0)
(0.447732 0.311749 0)
(0.540004 -0.01636 0)
(0.594853 -0.285034 0)
(0.623851 -0.488618 0)
(0.635784 -0.629714 0)
(0.648816 -0.747377 0)
(0.681867 -0.816048 0)
(0.713472 -0.734971 0)
(0.692664 -0.501892 0)
(0.614152 -0.226848 0)
(0.500111 -0.0382963 0)
(0.373419 0.00776058 0)
(0.270596 -0.0522976 0)
(0.203089 -0.122687 0)
(0.153588 -0.15243 0)
(0.114167 -0.161473 0)
(0.0838302 -0.167035 0)
(0.0632899 0.389685 0)
(0.179327 0.964394 0)
(0.228942 1.09295 0)
(0.24667 0.99898 0)
(0.28331 0.808894 0)
(0.354948 0.537895 0)
(0.446897 0.217973 0)
(0.519692 -0.0776149 0)
(0.564621 -0.326305 0)
(0.57682 -0.506922 0)
(0.579481 -0.63852 0)
(0.590453 -0.775129 0)
(0.6209 -0.856454 0)
(0.644287 -0.730921 0)
(0.602311 -0.43596 0)
(0.497922 -0.12045 0)
(0.379374 0.0755207 0)
(0.273467 0.103774 0)
(0.209104 0.0184601 0)
(0.170313 -0.0694341 0)
(0.133594 -0.110848 0)
(0.101688 -0.128688 0)
(0.0767779 -0.141032 0)
(0.0299857 0.275266 0)
(0.16626 0.862633 0)
(0.236208 1.05476 0)
(0.254422 0.979547 0)
(0.275392 0.766316 0)
(0.33756 0.461935 0)
(0.414372 0.150027 0)
(0.472319 -0.128647 0)
(0.486242 -0.343386 0)
(0.472923 -0.501671 0)
(0.473651 -0.641346 0)
(0.476863 -0.806449 0)
(0.490425 -0.895532 0)
(0.483808 -0.704705 0)
(0.411539 -0.337188 0)
(0.289304 -0.00977301 0)
(0.189187 0.165655 0)
(0.143644 0.161163 0)
(0.138631 0.0552514 0)
(0.127525 -0.0359087 0)
(0.103067 -0.0799765 0)
(0.0804336 -0.103359 0)
(0.0625079 -0.120516 0)
(0.00186163 0.188232 0)
(0.1331 0.753588 0)
(0.210375 1.00525 0)
(0.222722 0.984651 0)
(0.231603 0.737461 0)
(0.283957 0.394004 0)
(0.349192 0.0813747 0)
(0.369817 -0.152212 0)
(0.354287 -0.328665 0)
(0.334162 -0.483894 0)