/*--------------------------------*- C++ -*----------------------------------*\
| =========                 |                                                 |
| \\      /  F ield         | OpenFOAM: The Open Source CFD Toolbox           |
|  \\    /   O peration     | Version:  2.3.0                                 |
|   \\  /    A nd           | Web:      www.OpenFOAM.org                      |
|    \\/     M anipulation  |                                                 |
\*---------------------------------------------------------------------------*/
FoamFile
{
    version     2.0;
    format      ascii;
    class       volScalarField;
    location    "1.4";
    object      p_rgh;
}
// * * * * * * * * * * * * * * * * * * * * * * * * * * * * * * * * * * * * * //

dimensions      [1 -1 -2 0 0 0 0];

internalField   nonuniform List<scalar> 
2268
(
1065.96
1078.67
1086.05
1074.59
1044.26
1015.33
996.1
984.772
977.888
975.272
976.819
981.294
989.1
999.577
1010.89
1018.56
1022.46
1020.86
1018.75
1019.66
1022.56
1024.74
1025.46
1063.66
1075.71
1083.77
1072.38
1041.34
1010.65
993.038
983.962
978.056
975.28
976.117
980.421
988.21
998.695
1007.94
1015.78
1021.35
1022.37
1019.95
1019.87
1022.32
1024.48
1025.29
1059.76
1070.63
1080.27
1069.07
1037.6
1007.16
989.173
980.362
975.042
972.912
974.291
978.546
986.393
997.872
1007.95
1011.52
1016.82
1020.6
1018.57
1018.87
1021.63
1022.97
1022.87
1054.48
1054.89
1051.15
1044.78
1027.44
1000.48
983.423
974.981
970.423
969.49
971.554
975.501
983.414
996.578
1008.38
1009.12
1011.83
1012.61
1014.85
1016.28
1019.3
1019.37
1017.01
1045.58
994.975
1012.27
1000.19
974.903
984.077
973.835
967.923
965.067
965.807
968.458
971.416
978.896
994.732
1010.79
1012.43
1011.81
1008.14
1005.14
1012.14
1015.15
1012.45
1005.84
997.121
978.925
1020.6
982.621
931.868
927.991
957.139
958.819
959.883
962.899
965.85
966.665
972.783
992.296
1012.83
1020.67
1012.1
1006.04
999.686
1006.1
1008.75
1001.2
986.678
911.626
996.268
1050.68
1029.14
899.137
859.105
922.288
947.572
955.835
961.51
963.908
961.365
964.678
988.915
1014.62
1026.19
1018.59
1003.79
998.704
1004.04
999.635
984.545
955.301
901.159
1033.82
1035.42
1009.62
899.768
822.18
864.976
934.718
953.739
962.454
964.066
955.934
937.057
963.915
1006.41
1026.49
1023.76
1013.64
1007.09
999.768
987.382
962.849
908.168
556.405
559.918
544.667
531.931
519.539
515.152
521.338
509.055
484.797
483.33
508.536
520.108
515.658
505.478
539.168
561.772
576.406
615.163
662.665
553.411
556.391
539.897
526.773
515.185
515.3
526.568
507.738
480.488
481.515
511.928
525.141
502.629
492.017
531.894
557.546
573.125
613.446
668.239
547.944
551.535
530.228
510.924
513.41
523.504
531.865
503.253
473.541
473.306
493.439
496.084
475.032
471.618
527.518
549.545
564.079
614.368
688.527
539.426
546.333
539.212
516.44
513.699
539.198
537.97
502.538
480.367
473.68
456.674
406.724
403.548
442.693
517.549
553.684
564.522
623.811
707.388
528.194
540.487
541.66
540.974
544.532
555.181
539.949
480.437
506.534
484.557
391.215
207.917
212.552
300.35
504.321
552.842
580.568
653.566
719.545
515.651
536.584
525.729
529.715
544.761
559.741
534.941
494.517
478.564
489.951
297.079
136.722
154.272
175.773
401.94
548.705
582.464
663.595
736.884
500.334
536.208
468.308
402.044
541.116
565.247
546.725
456.288
468.265
443.986
235.384
136.244
152.064
172.232
295.8
538.147
573.461
657.565
740.381
486.604
507.262
449.94
389.546
430.617
572.095
555.587
227.233
259.409
260.801
158.135
135.157
151.453
168.263
321.458
530.875
565.5
647.057
734.127
950.644
1015.44
1003.91
971.864
901.787
770.779
772.77
891.536
953.781
968.106
968.056
855.188
730.657
827.579
999.676
1020.1
1017.66
1013.43
1005.2
990.467
963.598
917.27
801.378
995.524
969.956
847.184
820.006
848.828
789.526
650.224
825.894
965.063
991.123
920.318
617.212
622.296
724.397
977.815
992.657
1000.97
1009.69
1005.01
984.365
948.09
899.08
841.354
981.158
728.983
339.667
321.778
570.677
642.621
665.494
840.231
990.522
1008.32
642.776
610.838
625.008
938.873
1002.12
970.568
987.829
1006.18
1007.89
990.919
955.907
878.028
647.979
689.069
251.382
159.666
152.356
160.156
396.127
585.585
581.529
631.786
588.214
601.77
601.141
880.643
988.807
1048.47
1033.42
1026.63
1027.75
1026.14
1013.55
854.144
375.974
63.2384
145.626
147.993
143.639
137.72
136.165
211.807
556.821
620.437
614.478
864.927
884.813
886.379
714.163
651.347
659.674
712.431
723.381
717.657
730.681
611.12
251.023
33.7458
33.3229
169.623
185.229
162.264
120.088
85.9961
66.6623
380.983
725.167
723.127
762.355
706.691
649.482
633.849
658.229
660.991
582.321
211.038
109.396
107.739
57.1386
15.8365
24.2323
31.9115
232.082
170.082
50.0674
40.2865
40.6838
29.1939
48.6135
120.669
276.606
177.739
15.9783
17.3032
17.5022
51.7173
108.016
161.506
127.347
31.0775
17.4145
13.7378
11.4039
18.9575
17.64
226.014
11.9839
1.70532
0.384175
3.85977
16.1767
1.15284
-1.84636
7.36686
11.4441
15.034
15.7167
13.8397
10.2614
7.30199
6.28681
18.3464
27.0366
12.776
9.29563
8.30836
7.07783
6.33459
194.118
7.42633
-0.505358
-0.735793
-1.32207
-0.195181
-1.31397
-0.58336
23.0412
43.4773
47.2636
51.3505
32.8485
11.8305
6.12961
4.45753
6.04508
9.89525
6.59224
6.18912
5.96128
5.31506
5.0661
15.8673
3.56737
-0.523322
-0.766822
-1.12837
-1.32678
-1.05289
-0.462219
1.95656
35.2354
49.1854
53.362
48.1114
41.4458
7.42207
2.69334
1.81388
2.16382
3.49372
4.58096
4.82097
4.60259
4.284
3.64214
14.1437
-0.39826
-0.639301
-0.80989
-0.882099
-0.744935
-0.42635
-0.185235
17.0638
32.1519
39.0808
45.0886
43.001
16.0512
2.68878
2.05221
2.33995
3.85799
5.12678
4.81758
10.5605
15.675
3.57505
25.555
-0.328434
-0.508564
-0.592977
-0.664818
-0.627547
-0.414328
-0.403928
-0.19696
2.95235
-0.38802
14.4927
42.9104
36.1382
7.57386
3.86721
4.21142
5.29107
7.14157
16.1138
15.736
14.8717
5.132
27.1623
0.0855723
-0.383069
-0.38349
-0.42033
-0.437784
-0.340426
-0.248212
-0.36393
-0.579185
-0.611207
-0.709498
-0.779398
26.7732
41.2724
42.0845
39.9756
20.5969
10.9941
8.10515
9.65517
5.46572
25.3071
28.7783
1.9613
-0.260179
-0.30546
-0.273264
-0.219701
-0.143745
-0.134636
-0.244273
-0.450564
-0.666361
-0.876218
-1.07949
-1.24212
-1.02716
28.8614
38.8609
38.8534
14.9223
0.340783
-0.123784
0.0794341
30.5675
30.3768
6.01838
-0.148207
-0.179841
-0.184206
-0.140082
-0.082628
-0.0737221
-0.184149
-0.41345
-0.689366
-0.877357
-1.14597
-1.40708
-1.62116
-1.81972
7.00034
10.8951
5.1118
-0.529915
-0.476964
-0.293612
32.1855
31.9601
8.75866
-0.0483509
-0.0792517
-0.0926229
-0.0860726
-0.0698271
-0.100757
-0.227691
-0.417346
-0.549109
-0.825794
-1.07066
-1.28408
-1.58617
-1.88974
-2.04721
-1.84994
-1.36017
-1.00041
-0.805035
-0.48409
20.4659
33.9005
6.41621
0.0542117
0.0184649
-0.00979853
-0.0412907
-0.0707889
-0.133467
-0.253148
-0.424387
-0.497045
-0.772463
-1.00128
-1.18426
-1.45222
-1.71095
-1.80778
-1.71257
-1.47525
-1.23619
-1.07984
-0.975897
1.12154
23.3288
0.873726
0.168318
0.123019
0.0734963
0.0178234
-0.0430336
-0.121542
-0.239105
-0.412815
-0.562866
-0.657096
-0.85878
-1.01239
-1.14188
-1.42597
-1.50663
-1.44014
-1.30036
-1.14915
-1.00733
-0.86771
1.06159
0.479856
0.393672
0.291036
0.228054
0.156376
0.0826237
0.00484989
-0.0844151
-0.199598
-0.353582
-0.544007
-0.614935
-0.684468
-0.811606
-0.897075
-0.990983
-1.18114
-1.12482
-1.01876
-0.892303
-0.760056
-0.626372
1.40344
1.05291
0.663009
0.400736
0.322846
0.233248
0.145007
0.0548303
-0.0415892
-0.153755
-0.290181
-0.450232
-0.616112
-0.72727
-0.653289
-0.686911
-0.874452
-0.927603
-0.868169
-0.776007
-0.665293
-0.547136
-0.429064
1.98941
4.02652
10.6405
0.491836
0.395994
0.293731
0.193559
0.0937401
-0.00847344
-0.11877
-0.241483
-0.375567
-0.509689
-0.626025
-0.710586
-0.75071
-0.756778
-0.73371
-0.674447
-0.59165
-0.494091
-0.389583
-0.284463
2.21362
5.96862
17.2182
1.50691
0.409654
0.317652
0.215038
0.111181
0.00540175
-0.103987
-0.2175
-0.332288
-0.440184
-0.529885
-0.591111
-0.618312
-0.612178
-0.576928
-0.517557
-0.44087
-0.35358
-0.261419
-0.168844
2.24665
4.40054
17.8393
6.04304
0.330314
0.284746
0.198596
0.0998343
-0.00510417
-0.112235
-0.21861
-0.319541
-0.407616
-0.474401
-0.51283
-0.519903
-0.497761
-0.452078
-0.389004
-0.31469
-0.234707
-0.153471
-0.0740281
4.33701
5.08284
12.1688
8.97937
0.230679
0.198326
0.141991
0.056547
-0.042698
-0.145534
-0.244933
-0.334079
-0.405547
-0.452873
-0.470973
-0.458433
-0.418785
-0.359372
-0.288698
-0.213516
-0.13844
-0.0664556
0.000817319
7.17406
7.13632
1.95857
8.45353
0.451669
0.0802637
0.052078
-0.0178258
-0.1095
-0.206537
-0.298413
-0.377042
-0.432637
-0.461347
-0.458983
-0.42532
-0.365705
-0.290427
-0.210269
-0.132689
-0.0615582
0.0020257
0.0582095
7.22451
7.1455
1.86088
6.66775
0.218793
-0.0491402
-0.0626983
-0.121674
-0.206926
-0.298302
-0.38264
-0.448716
-0.490751
-0.501154
-0.477249
-0.419319
-0.334486
-0.237851
-0.145302
-0.0650133
0.00188443
0.0566583
0.101874
3.90256
7.28222
1.88602
7.04322
-0.122299
-0.171022
-0.193493
-0.252946
-0.336827
-0.425205
-0.504256
-0.561171
-0.587812
-0.578435
-0.530339
-0.443055
-0.324634
-0.197553
-0.0878194
-0.00457792
0.0563813
0.101051
0.134843
0.588471
7.39972
1.97716
7.91116
-0.0785123
-0.293663
-0.338142
-0.402173
-0.491346
-0.582372
-0.663558
-0.718724
-0.732371
-0.703107
-0.628847
-0.506047
-0.340275
-0.16627
-0.0322291
0.0524622
0.104566
0.137082
0.158749
0.50883
7.65364
2.01865
8.07449
-0.159109
-0.445901
-0.500987
-0.580867
-0.681316
-0.782927
-0.869053
-0.92106
-0.92718
-0.879601
-0.775887
-0.615262
-0.397998
-0.149243
0.023464
0.108964
0.14642
0.164287
0.173409
0.444105
7.73363
1.91836
8.11965
-0.387737
-0.638404
-0.695581
-0.787315
-0.904203
-1.02511
-1.13024
-1.19363
-1.19154
-1.12573
-0.915886
-0.506819
-0.0744715
0.377559
0.121851
0.166316
0.178473
0.179213
0.176655
-0.138825
5.54828
2.36752
8.00396
-0.719036
-0.866423
-0.927407
-1.03316
-1.17821
-1.33036
-1.4621
-1.53471
-1.51907
-1.4176
-1.2517
-0.648329
3.00203
5.07697
3.02883
0.215174
0.187392
0.173437
0.164901
-0.626486
0.0650603
7.63595
7.70268
-1.13823
-1.10749
-1.17771
-1.31682
-1.50617
-1.71128
-1.88683
-1.97727
-1.93909
-1.78535
-1.54859
-1.05329
3.58017
5.04231
5.48484
3.41345
0.156465
0.136434
0.135501
-0.61952
0.130038
7.3549
2.72759
-1.27164
-1.29724
-1.40594
-1.60556
-1.8681
-2.15266
-2.39762
-2.53228
-2.49653
-2.27515
-1.92049
-1.53569
0.606853
4.95175
5.41278
5.63408
1.00266
0.07131
0.0928856
-0.476624
1.99892
4.67766
-1.36792
-1.1965
-1.35004
-1.54069
-1.82708
-2.17684
-2.55246
-2.75052
-2.53236
-2.57818
-2.35866
-2.35001
-1.79622
-0.302039
4.89469
5.39185
5.59445
1.72901
0.00799779
0.0503347
-0.299423
3.68891
5.16891
-0.957695
-0.946396
-1.23397
-1.52314
-1.89468
-2.31484
-2.54544
-2.0231
-2.25472
-2.28043
-2.02182
-2.06849
-1.9147
-0.667441
5.02709
5.23096
2.44394
0.793577
-0.028378
0.0229556
-0.151479
3.017
5.58587
-0.330494
-0.317532
-0.973416
-1.33988
-1.76665
-2.07921
-1.51202
-1.91292
-2.20879
-2.24802
-2.00234
-1.42084
-1.76715
-0.728603
1.49801
0.420174
-0.176359
-0.0841706
-0.0186878
0.0205094
-0.0109811
0.773445
5.6966
0.215143
0.196295
-0.598049
-1.01068
-1.44893
-1.89175
-1.1516
-1.48411
-1.76604
-1.82301
-1.57252
-0.993455
-1.26716
-0.506306
-0.357527
-0.107531
-0.0408099
-0.00310941
0.0189865
0.0341727
0.082293
0.0704925
2.90378
5.51441
0.174986
-0.143717
-0.564371
-0.981141
-1.37282
-1.63469
-1.71258
-2.02209
-1.5027
-0.900586
-1.20149
-0.931276
-0.368909
-0.0704587
0.0712862
0.0847279
0.0677037
0.0554108
0.0500291
0.112988
0.1155
2.34428
5.67664
5.04468
0.189223
-0.115373
-0.414715
-0.707132
-1.00707
-1.33611
-1.57569
-1.65141
-1.4653
-1.00855
-0.445356
0.0917043
0.235247
0.203116
0.158901
0.109554
0.0766106
0.0586402
0.100765
0.110885
0.125711
3.22767
6.0061
5.83383
4.01453
2.43561
2.59302
2.46419
1.33138
-0.739522
-1.07213
-1.00507
-0.6212
-0.08721
0.73693
0.690386
0.25519
0.177236
0.117831
0.0784332
0.0553598
0.0655718
0.0716566
0.0802627
0.0925229
0.877941
2.79904
3.22856
3.23733
2.95042
1.45355
0.0977593
-0.241384
-0.398719
-0.4876
-0.542024
0.0827667
0.683572
0.808801
0.246364
0.146462
0.0941078
0.0595816
0.0398421
0.0181695
0.022754
0.0291197
0.0320852
0.0263155
0.00762692
0.0762947
0.218016
0.122218
0.11178
-0.0534726
-0.40187
-0.48615
-0.420978
-0.204566
0.137519
0.204664
0.110674
0.068493
0.049856
0.0321419
0.0213875
0.0141162
628.094
618.08
632.326
617.828
790.749
747.328
581.775
309.449
345.104
81.7941
18.5849
16.2314
31.6504
27.5711
18.856
16.28
31.1427
22.9016
16.2626
15.0046
29.1478
15.6443
12.3603
13.3066
8.56037
7.59636
8.66394
18.7764
5.99959
5.66743
5.64939
6.49115
4.81484
4.28837
3.94845
7.96501
6.67138
27.2099
28.8851
29.0811
13.4547
5.60637
4.10875
17.4841
13.4885
3.87131
2.67575
2.75726
1.11186
1.57007
2.12556
2.03499
0.560938
2.15874
3.61558
3.21285
0.842193
1.87531
1.23587
-0.158448
-0.351679
-0.630143
-0.9839
-1.13001
-0.961321
-0.93162
-0.918557
-0.942425
-0.774998
-0.719605
-0.670902
-0.635226
-0.532321
-0.474178
-0.418005
-0.366136
-0.345306
-0.291708
-0.23842
-0.186237
-0.209078
-0.160638
-0.112566
-0.0655298
-0.102468
-0.0604691
-0.0192353
0.0206418
-0.018212
0.0165152
0.0501724
0.0824255
0.0464334
0.0743127
0.100868
0.125987
0.0946668
0.116504
0.13688
0.15579
0.129764
0.146131
0.161095
0.174708
0.154469
0.165763
0.175909
0.184973
0.170448
0.177082
0.182989
0.188205
0.177943
0.180525
0.182909
0.185092
0.175668
0.175372
0.175433
0.175685
0.161806
0.160614
0.160063
0.159909
0.13582
0.136551
0.137569
0.138681
0.101819
0.106787
0.111011
0.114546
0.0686089
0.0779797
0.085459
0.0914061
0.0456991
0.0570996
0.0660462
0.0730619
0.0386639
0.0479568
0.0554053
0.0613639
0.0426134
0.0472963
0.051339
0.0547929
0.0490904
0.0490847
0.0495061
0.0501917
0.0513158
0.0480223
0.0458213
0.0444316
0.0457257
0.0411568
0.0378712
0.035567
0.0317658
0.0278825
0.0250535
0.0230297
0.0108824
0.00934484
0.00820381
0.00739143
461.081
218.323
308.023
388.433
399.288
429.499
297.399
81.9701
85.5222
146.716
102.837
130.547
149.681
263.248
440.044
520.671
537.092
616.6
765.576
17.7539
18.741
20.4599
72.9193
238.212
237.806
51.7173
40.3091
50.9273
118.784
100.932
119.984
151.727
456.602
478.934
408.832
406.371
582.014
805.558
16.823
17.3071
18.7059
43.5936
146.589
39.909
33.9866
34.7224
32.128
61.8956
105.808
111.632
208.924
280.771
107.189
46.0399
158.059
347.208
564.636
16.1466
16.5171
23.289
33.0556
31.815
36.0277
35.919
34.6807
27.8487
28.5793
89.0439
120.841
189.382
146.708
107.728
47.0891
150.512
250.865
317.945
15.4549
16.2076
17.7226
19.0893
33.2292
44.6721
45.8294
41.7803
26.7667
27.9334
28.1371
75.3071
127.143
204.281
72.5265
27.272
19.051
61.24
198.576
16.6928
18.9764
18.0051
19.6543
41.5689
45.0508
45.3549
36.9257
23.6781
34.1921
32.9026
21.2439
18.1537
212.209
60.1062
23.0896
14.9327
17.9401
39.5686
22.7118
26.0336
27.25
29.5251
37.4153
46.5357
46.1223
26.4883
20.8475
29.1891
32.7288
19.8237
17.516
60.699
61.6696
22.2266
18.2727
19.6082
26.8195
9.36741
19.6343
29.646
27.2596
19.6756
33.0737
26.2344
16.6929
17.9712
13.6625
31.7088
55.8942
16.0258
14.2625
109.436
30.715
22.9212
23.7744
27.0346
25.7868
24.8398
20.079
20.123
17.4684
17.2152
16.4592
15.441
14.2664
13.8403
16.432
71.3474
64.3701
68.7444
119.416
49.6527
26.481
27.2323
28.0803
31.7098
37.2986
25.4353
17.8305
18.1588
17.7518
16.7328
15.0336
13.9111
13.7085
13.7186
77.5874
133.294
127.091
125.152
65.0226
28.2522
28.6605
28.9957
29.859
34.0167
34.473
18.1135
18.7237
22.9037
39.1105
28.8673
13.1501
13.2553
13.3607
40.2716
103.465
128.192
127.773
37.5334
28.5821
48.5745
39.0767
3.7585
29.7781
29.8534
14.0849
17.5018
44.4271
52.0815
50.4476
23.843
12.8601
14.0522
29.4569
33.5178
32.8402
32.6292
29.3457
29.0758
52.6894
53.7729
3.63682
16.4848
15.4452
6.72448
20.2365
48.3758
47.9938
47.7908
50.0148
40.0263
26.3557
26.8969
33.9067
46.4849
34.4306
35.7257
34.3866
53.2904
49.5164
0.658395
-0.822532
0.277797
0.277482
7.25895
28.1482
33.999
29.6616
36.641
45.2134
48.2582
51.1909
60.8682
69.5996
69.9465
70.1142
65.9248
19.1777
17.7414
-1.46065
-1.89257
-1.56047
-1.49606
0.717929
3.32818
-2.36633
-1.71546
-0.866369
14.7624
18.6444
14.1548
18.3672
27.326
28.0323
17.0264
0.680568
0.494609
3.50959
-1.34148
-1.40409
-1.17471
-1.38446
-2.53418
-3.37513
-2.23971
-1.66992
-0.975101
-0.412886
0.0421211
0.304098
0.391142
0.411076
0.441721
0.49352
0.541316
0.492804
0.567522
-0.957961
-0.788153
-0.566832
-0.715656
-2.00406
-2.46527
-2.01384
-1.43926
-0.739458
-0.356867
0.0068951
0.243223
0.352219
0.400251
0.428386
0.483433
0.53618
0.570592
0.702259
-0.555236
-0.335502
-0.148982
-0.166897
-0.892852
-1.36898
-1.31946
-1.03128
-0.64404
-0.268042
0.027611
0.246116
0.331058
0.383533
0.416917
0.469448
0.512897
0.485205
0.512855
-0.266529
-0.0769723
0.0718236
0.0950283
-0.24631
-0.549277
-0.636843
-0.535248
-0.375039
-0.184423
0.00276552
0.170898
0.294283
0.35464
0.391233
0.418221
0.489761
0.452661
0.470122
-0.0922743
0.0569318
0.168926
0.209824
0.0659452
-0.101701
-0.200336
-0.204543
-0.149681
-0.058583
0.0506644
0.172776
0.261529
0.320215
0.360384
0.390972
0.443452
0.428647
0.430064
0.0150269
0.130061
0.215759
0.250932
0.195023
0.10469
0.0302753
-0.00279657
0.00122119
0.0468299
0.106304
0.169486
0.233576
0.276531
0.324148
0.357801
0.383121
0.404104
0.393464
0.0863041
0.172906
0.236569
0.265293
0.2448
0.197555
0.151383
0.13817
0.128548
0.0992504
0.111259
0.14752
0.195313
0.245901
0.292378
0.374684
0.408298
0.382323
0.358772
0.13418
0.198165
0.244331
0.266368
0.259904
0.236267
0.208348
0.244149
0.197406
0.130542
0.12805
0.147598
0.183129
0.226723
0.266179
0.364502
0.377586
0.335159
0.327367
0.165445
0.211541
0.243572
0.258656
0.256375
0.243884
0.274619
0.273529
0.220734
0.150253
0.142804
0.155397
0.18253
0.216501
0.264256
0.338535
0.2982
0.292138
0.298881
0.184779
0.216793
0.237663
0.246259
0.243502
0.235595
0.283112
0.275802
0.254016
0.171191
0.15846
0.167541
0.186624
0.230636
0.281274
0.294292
0.259137
0.267556
0.272983
0.195073
0.216406
0.229257
0.233124
0.228895
0.220869
0.222065
0.254297
0.255303
0.246447
0.209332
0.207213
0.23407
0.252578
0.265153
0.242466
0.237234
0.245206
0.249446
0.198264
0.211647
0.219132
0.220381
0.215924
0.207391
0.196283
0.188838
0.192424
0.219543
0.243667
0.247291
0.253211
0.224942
0.200466
0.210484
0.219062
0.225059
0.228123
0.19576
0.203248
0.207098
0.206983
0.203133
0.19629
0.187818
0.179115
0.171871
0.168058
0.180955
0.183011
0.178032
0.181103
0.188713
0.195983
0.202181
0.206531
0.208687
0.188352
0.191783
0.19327
0.192378
0.189116
0.183921
0.17753
0.170996
0.165492
0.161997
0.161034
0.162636
0.166066
0.170847
0.176185
0.181374
0.186211
0.189186
0.190597
0.176382
0.177651
0.178012
0.176926
0.17429
0.170365
0.16556
0.160556
0.156536
0.153922
0.153037
0.153843
0.156208
0.159553
0.163347
0.167093
0.1705
0.172687
0.173651
0.160181
0.161222
0.161617
0.160934
0.159095
0.156315
0.153075
0.148728
0.146048
0.144179
0.143507
0.143921
0.145457
0.147763
0.150445
0.153132
0.155344
0.156904
0.157782
0.14066
0.143182
0.144491
0.144622
0.143678
0.14188
0.139534
0.136759
0.134696
0.133337
0.132948
0.132983
0.13399
0.135588
0.137484
0.139398
0.141001
0.142127
0.142726
0.119558
0.124228
0.127238
0.12832
0.128275
0.127357
0.125873
0.124119
0.122619
0.121581
0.12093
0.121257
0.122005
0.12313
0.124474
0.125833
0.126997
0.127819
0.128241
0.0993673
0.106187
0.110105
0.112366
0.113135
0.112948
0.112174
0.11113
0.110096
0.109399
0.109
0.109155
0.109675
0.110468
0.111422
0.112388
0.113236
0.113838
0.114147
0.0822974
0.0900416
0.0946329
0.097258
0.0984881
0.0987941
0.0985271
0.0979655
0.0973303
0.0968422
0.0966359
0.0967367
0.0971008
0.0976602
0.0983401
0.0990266
0.099645
0.10008
0.100311
0.0693392
0.0762331
0.0804997
0.0830479
0.0844086
0.0849683
0.0850138
0.0847748
0.0844372
0.0841206
0.0840108
0.0840927
0.0843545
0.0847523
0.0852383
0.0857249
0.0861754
0.0864836
0.086655
0.0596996
0.0644113
0.0675923
0.0696445
0.0708544
0.0714597
0.0716551
0.071607
0.0714528
0.0712904
0.0712196
0.0712956
0.0714903
0.0717755
0.0721234
0.072466
0.0727939
0.0730082
0.0731381
0.0515931
0.0536819
0.0554617
0.0567983
0.0576901
0.0582044
0.058435
0.0584826
0.0584412
0.0583965
0.058303
0.0583941
0.0585445
0.0587495
0.0589975
0.0592352
0.0594734
0.0596197
0.0597241
0.0431117
0.0430222
0.0435615
0.0442126
0.044755
0.045122
0.0453234
0.0454036
0.0454153
0.0454057
0.045375
0.0454399
0.045549
0.0456927
0.0458656
0.0460257
0.0461976
0.0462912
0.0463805
0.0329709
0.0317027
0.031483
0.0316624
0.0319293
0.0321547
0.0323008
0.032376
0.0324051
0.032414
0.0324128
0.0324604
0.0325354
0.0326306
0.0327446
0.0328457
0.032966
0.0330156
0.0330936
0.0206852
0.0193833
0.0189963
0.0189999
0.0191272
0.0192615
0.0193602
0.0194182
0.0194463
0.0194581
0.019463
0.0194901
0.0195311
0.0195824
0.0196448
0.0196984
0.0197724
0.0197861
0.0198472
0.00647134
0.00603347
0.00597181
0.00605771
0.00617662
0.00628098
0.00635687
0.00640537
0.00643313
0.00644725
0.00645386
0.00646233
0.00647268
0.0064844
0.00649984
0.00651066
0.00653917
0.00653107
0.00658182
)
;

boundaryField
{
    leftWall
    {
        type            fixedFluxPressure;
        gradient        uniform 0;
        value           nonuniform List<scalar> 
50
(
1065.96
1063.66
1059.76
1054.48
1045.58
997.121
911.626
901.159
950.644
995.524
981.158
689.069
145.626
169.623
232.082
226.014
194.118
15.8673
3.64214
3.57505
5.132
25.3071
30.5675
32.1855
20.4659
1.12154
1.06159
1.40344
1.98941
2.21362
2.24665
4.33701
7.17406
7.22451
3.90256
0.588471
0.50883
0.444105
-0.138825
-0.626486
-0.61952
-0.476624
-0.299423
-0.151479
-0.0109811
0.082293
0.112988
0.100765
0.0655718
0.0181695
)
;
    }
    rightWall
    {
        type            fixedFluxPressure;
        gradient        uniform 0;
        value           nonuniform List<scalar> 
50
(
662.665
668.239
688.527
707.388
719.545
736.884
740.381
734.127
765.576
805.558
564.636
317.945
198.576
39.5686
26.8195
27.0346
28.0803
28.9957
39.0767
53.7729
49.5164
17.7414
3.50959
0.567522
0.702259
0.512855
0.470122
0.430064
0.393464
0.358772
0.327367
0.298881
0.272983
0.249446
0.228123
0.208687
0.190597
0.173651
0.157782
0.142726
0.128241
0.114147
0.100311
0.086655
0.0731381
0.0597241
0.0463805
0.0330936
0.0198472
0.00658182
)
;
    }
    lowerWall
    {
        type            fixedFluxPressure;
        gradient        uniform 0;
        value           nonuniform List<scalar> 
62
(
1065.96
1078.67
1086.05
1074.59
1044.26
1015.33
996.1
984.772
977.888
975.272
976.819
981.294
989.1
999.577
1010.89
1018.56
1022.46
1020.86
1018.75
1019.66
1022.56
1024.74
1025.46
1025.46
1025.29
1022.87
1017.01
1005.84
986.678
955.301
908.168
628.094
618.08
632.326
617.828
556.405
553.411
547.944
539.426
528.194
515.651
500.334
486.604
556.405
559.918
544.667
531.931
519.539
515.152
521.338
509.055
484.797
483.33
508.536
520.108
515.658
505.478
539.168
561.772
576.406
615.163
662.665
)
;
    }
    atmosphere
    {
        type            totalPressure;
        rho             rho;
        psi             none;
        gamma           1;
        p0              uniform 0;
        value           nonuniform List<scalar> 
46
(
-0.0107279
-0.00692521
-0.00169564
0
0
0
0
0
0
-0.0326798
-0.171959
-0.310295
-0.236741
-0.0869593
0
0
0
0
0
0
-2.30955e-05
-0.000845741
-0.00152764
-0.00170517
-0.0017249
-0.00167913
-0.00158783
-0.00138735
-0.00106124
-0.000771283
-0.000543149
-0.000377286
-0.000263446
-0.000188629
-0.00014175
-0.000114089
-9.95269e-05
-9.39681e-05
-9.49006e-05
-9.9653e-05
-0.000107621
-0.000114405
-0.000125073
-0.000121147
-0.000138942
-7.6422e-05
)
;
    }
    defaultFaces
    {
        type            empty;
    }
}


// ************************************************************************* //
