/*--------------------------------*- C++ -*----------------------------------*\
| =========                 |                                                 |
| \\      /  F ield         | OpenFOAM: The Open Source CFD Toolbox           |
|  \\    /   O peration     | Version:  2.3.0                                 |
|   \\  /    A nd           | Web:      www.OpenFOAM.org                      |
|    \\/     M anipulation  |                                                 |
\*---------------------------------------------------------------------------*/
FoamFile
{
    version     2.0;
    format      ascii;
    class       surfaceScalarField;
    location    "1.4";
    object      phi;
}
// * * * * * * * * * * * * * * * * * * * * * * * * * * * * * * * * * * * * * //

dimensions      [0 3 -1 0 0 0 0];

internalField   nonuniform List<scalar> 
4432
(
1.28659e-06
-1.28659e-06
7.92118e-06
-6.63459e-06
1.86414e-05
-1.07202e-05
2.91092e-05
-1.04678e-05
3.4718e-05
-5.60885e-06
3.38583e-05
8.5973e-07
2.96007e-05
4.25761e-06
2.59455e-05
3.65521e-06
2.41964e-05
1.74915e-06
2.39734e-05
2.23001e-07
2.47571e-05
-7.83697e-07
2.61772e-05
-1.42017e-06
2.83933e-05
-2.2161e-06
3.07693e-05
-2.37595e-06
3.04254e-05
3.43869e-07
2.53211e-05
5.10432e-06
1.85164e-05
6.80466e-06
1.35208e-05
4.99557e-06
1.10103e-05
2.51052e-06
8.94081e-06
2.06949e-06
6.40466e-06
2.53615e-06
3.49568e-06
2.90896e-06
3.49569e-06
4.38187e-07
-1.72479e-06
6.36032e-06
-1.25567e-05
1.66955e-05
-2.10554e-05
2.66905e-05
-2.04628e-05
3.33482e-05
-1.22665e-05
3.53264e-05
-1.11847e-06
3.26569e-05
6.92704e-06
2.76277e-05
8.68446e-06
2.38268e-05
5.55009e-06
2.27264e-05
1.32336e-06
2.35435e-05
-1.60078e-06
2.53389e-05
-3.21562e-06
2.76274e-05
-4.50457e-06
3.07872e-05
-5.53578e-06
3.47337e-05
-3.60264e-06
3.59721e-05
3.86595e-06
3.11635e-05
1.16133e-05
2.31684e-05
1.29906e-05
1.73384e-05
8.34058e-06
1.45387e-05
4.86914e-06
1.11751e-05
5.8997e-06
6.06827e-06
8.01582e-06
9.56396e-06
-2.22985e-08
-1.7025e-06
6.31944e-06
-1.88985e-05
1.78981e-05
-3.2634e-05
2.76626e-05
-3.02273e-05
3.23696e-05
-1.69735e-05
3.27379e-05
-1.48679e-06
2.99237e-05
9.74117e-06
2.5543e-05
1.30652e-05
2.22339e-05
8.85918e-06
2.13088e-05
2.24847e-06
2.21898e-05
-2.48181e-06
2.41716e-05
-5.19746e-06
2.69424e-05
-7.27529e-06
2.98877e-05
-8.48107e-06
3.27438e-05
-6.45879e-06
3.46382e-05
1.97153e-06
3.25006e-05
1.3751e-05
2.64493e-05
1.90419e-05
2.08723e-05
1.39176e-05
1.76458e-05
8.09562e-06
1.39439e-05
9.60163e-06
7.82465e-06
1.41351e-05
1.73886e-05
-9.66154e-07
-7.36342e-07
6.06941e-06
-2.5934e-05
2.06256e-05
-4.71902e-05
3.26229e-05
-4.22246e-05
3.61973e-05
-2.05479e-05
3.43277e-05
3.82743e-07
3.0252e-05
1.38169e-05
2.58263e-05
1.74909e-05
2.26646e-05
1.20209e-05
2.15568e-05
3.3563e-06
2.19021e-05
-2.82713e-06
2.32507e-05
-6.54608e-06
2.59589e-05
-9.98345e-06
2.93761e-05
-1.18983e-05
3.17497e-05
-8.83245e-06
3.25226e-05
1.19867e-06
3.1219e-05
1.50545e-05
2.77766e-05
2.24844e-05
2.39826e-05
1.77115e-05
2.07422e-05
1.1336e-05
1.63661e-05
1.39778e-05
9.37763e-06
2.11235e-05
2.67662e-05
-2.54459e-06
1.80826e-06
5.66081e-06
-3.41394e-05
2.16767e-05
-6.32061e-05
3.7746e-05
-5.82939e-05
4.32243e-05
-2.60262e-05
3.95041e-05
4.10294e-06
3.35034e-05
1.98176e-05
2.8372e-05
2.26222e-05
2.50498e-05
1.53432e-05
2.3502e-05
4.90403e-06
2.29486e-05
-2.27375e-06
2.32942e-05
-6.89167e-06
2.5556e-05
-1.22452e-05
2.92704e-05
-1.56127e-05
3.18561e-05
-1.14181e-05
3.20647e-05
9.89984e-07
3.09118e-05
1.62075e-05
2.94101e-05
2.3986e-05
2.7348e-05
1.97736e-05
2.42027e-05
1.44813e-05
1.89726e-05
1.92079e-05
1.1048e-05
2.90481e-05
3.78143e-05
-2.87519e-06
4.68346e-06
6.74582e-06
-4.37604e-05
1.86092e-05
-7.50694e-05
3.62602e-05
-7.59449e-05
4.81872e-05
-3.79533e-05
4.63277e-05
5.96243e-06
3.86564e-05
2.74889e-05
3.22024e-05
2.90762e-05
2.84306e-05
1.9115e-05
2.6279e-05
7.05562e-06
2.47248e-05
-7.19523e-07
2.43304e-05
-6.49721e-06
2.66231e-05
-1.4538e-05
3.08202e-05
-1.98097e-05
3.36691e-05
-1.42671e-05
3.38386e-05
8.20506e-07
3.28209e-05
1.72252e-05
3.22446e-05
2.45623e-05
3.11383e-05
2.08799e-05
2.7822e-05
1.77976e-05
2.17444e-05
2.52854e-05
1.30006e-05
3.7792e-05
5.08148e-05
-2.20721e-07
4.90418e-06
7.33142e-06
-5.13126e-05
1.30572e-05
-8.07952e-05
2.8013e-05
-9.09007e-05
4.60528e-05
-5.59931e-05
5.11549e-05
8.60326e-07
4.45125e-05
3.41313e-05
3.67561e-05
3.68327e-05
3.20246e-05
2.38464e-05
2.91058e-05
9.97448e-06
2.69259e-05
1.46034e-06
2.63303e-05
-5.90158e-06
2.91765e-05
-1.73842e-05
3.43898e-05
-2.5023e-05
3.75138e-05
-1.7391e-05
3.73026e-05
1.03171e-06
3.62131e-05
1.83147e-05
3.5883e-05
2.48924e-05
3.49098e-05
2.1853e-05
3.11197e-05
2.15878e-05
2.43425e-05
3.20626e-05
1.55254e-05
4.66091e-05
6.63402e-05
3.28141e-06
1.62277e-06
4.65545e-06
-5.26866e-05
5.95932e-06
-8.2099e-05
1.72647e-05
-0.000102206
3.80122e-05
-7.67406e-05
5.11129e-05
-1.22404e-05
4.93062e-05
3.59379e-05
4.18352e-05
4.43037e-05
3.56944e-05
2.99872e-05
3.19268e-05
1.37421e-05
3.02459e-05
3.14126e-06
2.9808e-05
-5.46371e-06
3.2798e-05
-2.03741e-05
3.90411e-05
-3.12661e-05
4.29593e-05
-2.13093e-05
4.21023e-05
1.88872e-06
4.0146e-05
2.0271e-05
3.9413e-05
2.56254e-05
3.82917e-05
2.29743e-05
3.43001e-05
2.55795e-05
2.7191e-05
3.91717e-05
1.75128e-05
5.62872e-05
8.38531e-05
7.66827e-06
-7.66827e-06
1.94279e-05
-1.17596e-05
2.45152e-05
-5.0873e-06
1.90705e-05
5.44467e-06
8.9928e-06
1.00777e-05
9.72069e-06
-7.27892e-07
2.16918e-05
-1.19711e-05
3.20819e-05
-1.03901e-05
3.34413e-05
-1.35938e-06
2.66151e-05
6.82619e-06
1.9836e-05
6.77913e-06
2.40322e-05
-4.1962e-06
3.43306e-05
-1.02984e-05
2.3907e-05
1.04236e-05
2.53371e-06
2.13733e-05
-1.08209e-05
1.33546e-05
-1.44597e-05
3.63889e-06
-1.09274e-05
-3.53238e-06
-1.09274e-05
7.23963e-06
-1.49079e-05
1.68615e-05
-2.13815e-05
2.37629e-05
-1.19887e-05
2.37828e-05
5.4248e-06
1.88932e-05
1.49673e-05
1.97399e-05
-1.57455e-06
2.57763e-05
-1.80075e-05
3.05643e-05
-1.51781e-05
3.15651e-05
-2.36015e-06
1.95106e-05
1.88807e-05
-1.16751e-06
2.74572e-05
-3.97948e-06
-1.38425e-06
1.98929e-05
-3.41708e-05
3.57189e-05
-5.40239e-06
2.95356e-05
2.75566e-05
8.0732e-06
3.48169e-05
-5.67185e-06
1.73839e-05
-4.75862e-06
-4.44562e-06
-1.5686e-05
3.5263e-06
-1.84342e-05
1.0889e-05
-2.87441e-05
1.76038e-05
-1.87035e-05
2.01639e-05
2.86464e-06
2.11273e-05
1.40039e-05
2.24191e-05
-2.86638e-06
1.9994e-05
-1.55824e-05
1.72775e-05
-1.24616e-05
1.28711e-05
2.04624e-06
-4.32261e-06
3.60744e-05
-2.00592e-05
4.31938e-05
-1.6824e-05
-4.61939e-06
4.73174e-07
-5.1468e-05
2.43552e-05
-2.92844e-05
4.13561e-05
1.05556e-05
3.37118e-05
4.24613e-05
1.39026e-05
3.71931e-05
3.56647e-06
5.89048e-06
-1.21195e-05
-1.84092e-06
-1.65933e-05
4.16366e-06
-3.47487e-05
1.18665e-05
-2.64063e-05
1.80217e-05
-3.29056e-06
2.17404e-05
1.02852e-05
1.9136e-05
-2.61934e-07
8.41641e-06
-4.8629e-06
-8.44453e-07
-3.2007e-06
-7.23322e-06
8.43501e-06
-1.94747e-05
4.83159e-05
-2.55231e-05
4.92421e-05
-2.10753e-05
-9.06719e-06
-8.73338e-06
-6.38098e-05
8.81976e-06
-4.68375e-05
3.59317e-05
-1.65563e-05
4.58452e-05
3.25478e-05
3.34947e-05
4.95436e-05
1.46604e-05
2.47248e-05
2.54087e-06
-3.97581e-06
-1.26175e-05
5.56697e-07
-3.92812e-05
6.8202e-06
-3.26698e-05
1.49467e-05
-1.14171e-05
1.89129e-05
6.31902e-06
1.2509e-05
6.14203e-06
3.95375e-07
7.25069e-06
-9.19728e-06
6.39196e-06
-1.72705e-05
1.65083e-05
-2.23018e-05
5.33472e-05
-2.10645e-05
4.80048e-05
-1.94583e-05
-1.06734e-05
-1.35383e-05
-6.97298e-05
-3.28858e-06
-5.70873e-05
2.30947e-05
-4.29395e-05
4.37948e-05
1.18477e-05
4.2448e-05
5.08904e-05
2.3255e-05
4.39178e-05
2.57959e-05
1.5101e-07
-1.27685e-05
3.19335e-06
-4.23236e-05
1.61101e-06
-3.10875e-05
5.32896e-06
-1.5135e-05
1.0893e-05
7.54949e-07
4.32049e-06
1.27146e-05
3.95349e-06
7.61769e-06
8.92224e-06
1.42321e-06
2.9563e-06
2.24742e-05
-3.3888e-06
5.96923e-05
-5.20826e-06
4.98242e-05
-1.95193e-05
3.63755e-06
-2.0838e-05
-6.84111e-05
-9.52357e-06
-6.84017e-05
1.54494e-05
-6.79125e-05
3.56353e-05
-8.33829e-06
4.1322e-05
4.52037e-05
2.66871e-05
5.85527e-05
5.2483e-05
9.09215e-06
-2.18606e-05
1.19261e-05
-4.51575e-05
6.35389e-06
-2.55153e-05
-9.03286e-07
-7.87783e-06
3.39359e-06
-3.54193e-06
4.0875e-06
1.20207e-05
3.04922e-06
8.65596e-06
8.82102e-06
-4.34859e-06
2.64375e-05
4.85768e-06
3.83494e-05
4.77805e-05
2.82187e-05
5.99549e-05
4.23773e-06
2.76186e-05
-1.0427e-05
-5.37464e-05
4.29941e-06
-8.31281e-05
1.52459e-05
-7.8859e-05
2.80984e-05
-2.11908e-05
3.50054e-05
3.82967e-05
2.50107e-05
6.85474e-05
7.74938e-05
2.29126e-05
-4.47732e-05
2.41985e-05
-4.64434e-05
1.67131e-05
-1.803e-05
2.25247e-06
6.58282e-06
-1.4848e-06
1.95331e-07
1.14326e-05
-8.96766e-07
-5.3049e-07
2.06191e-05
-1.85416e-05
1.36625e-05
1.11397e-05
-2.48237e-05
4.53073e-05
1.36128e-05
3.86145e-05
6.66477e-05
1.51608e-05
5.10723e-05
1.01854e-06
-3.96042e-05
1.45114e-05
-9.66209e-05
1.54538e-05
-7.98014e-05
2.23598e-05
-2.80968e-05
2.79556e-05
3.27008e-05
2.19002e-05
7.46028e-05
9.9394e-05
9.6595e-06
-8.03673e-06
-3.40271e-07
-4.26869e-05
-9.76745e-06
-7.26719e-05
9.33211e-07
-0.000112907
4.08827e-05
-0.00011669
8.45377e-05
-5.58953e-05
0.000101035
1.94406e-05
9.47187e-05
5.06201e-05
8.18745e-05
4.28314e-05
7.53292e-05
2.02874e-05
7.52683e-05
3.20214e-06
7.70161e-05
-7.21145e-06
8.41895e-05
-2.75476e-05
9.71385e-05
-4.42151e-05
0.000105993
-3.01635e-05
0.000105014
2.8672e-06
9.87413e-05
2.6544e-05
9.24515e-05
3.19152e-05
8.55831e-05
2.98427e-05
7.57638e-05
3.53987e-05
6.46889e-05
5.02466e-05
6.03468e-05
6.06293e-05
6.24452e-05
8.17546e-05
7.13249e-06
-1.51692e-05
-7.14898e-07
-3.48395e-05
-2.13258e-05
-5.20609e-05
-3.67807e-05
-9.74518e-05
-1.98907e-05
-0.00013358
2.99882e-05
-0.000105774
7.20984e-05
-2.26696e-05
8.87453e-05
3.39731e-05
9.0625e-05
4.09517e-05
8.87044e-05
2.2208e-05
8.62739e-05
5.63262e-06
9.2494e-05
-1.34315e-05
0.000101877
-3.69306e-05
0.000107278
-4.96159e-05
0.000108245
-3.11304e-05
0.000106149
4.96249e-06
0.000100223
3.247e-05
9.0657e-05
4.14816e-05
7.7936e-05
4.25638e-05
6.51577e-05
4.8177e-05
5.65739e-05
5.88304e-05
5.52711e-05
6.19321e-05
5.43498e-05
6.33665e-05
9.32755e-06
-2.44968e-05
3.79711e-05
-6.3483e-05
4.9463e-05
-6.35529e-05
6.22872e-06
-5.42175e-05
-4.408e-05
-8.32713e-05
-2.29166e-05
-0.000126938
3.10656e-05
-7.66518e-05
6.82401e-05
-3.20141e-06
8.33394e-05
2.58524e-05
8.55159e-05
2.00315e-05
8.71367e-05
4.01183e-06
8.86024e-05
-1.48973e-05
8.5673e-05
-3.40013e-05
7.81985e-05
-4.21414e-05
7.45011e-05
-2.7433e-05
7.44428e-05
5.02079e-06
7.49488e-05
3.19639e-05
6.95063e-05
4.69241e-05
5.76411e-05
5.4429e-05
4.5141e-05
6.06772e-05
3.84578e-05
6.55136e-05
4.11216e-05
5.92682e-05
3.16519e-05
6.38196e-05
1.7518e-05
-4.20147e-05
9.5133e-05
-0.000141098
0.00017953
-0.00014795
0.000172499
-4.71865e-05
3.77142e-05
5.15133e-05
-3.8056e-05
-5.11674e-05
-2.74433e-05
-8.72646e-05
6.60538e-06
-3.72501e-05
2.13859e-05
1.10719e-05
3.9936e-05
1.4814e-06
6.05293e-05
-1.65815e-05
6.58039e-05
-2.01718e-05
5.01648e-05
-1.83622e-05
3.45955e-05
-2.65721e-05
3.33182e-05
-2.61557e-05
3.63779e-05
1.96115e-06
4.19808e-05
2.6361e-05
4.40077e-05
4.48973e-05
4.00861e-05
5.83505e-05
3.5153e-05
6.56103e-05
3.71215e-05
6.35451e-05
3.753e-05
5.88597e-05
4.62035e-05
2.29784e-05
2.883e-05
-7.08448e-05
0.000124247
-0.000236515
0.000201607
-0.00022531
0.000248799
-9.43781e-05
0.000185207
0.000115105
3.10078e-05
0.000103032
-3.04883e-05
-2.57684e-05
-3.06754e-05
-3.7063e-05
-4.25132e-06
-1.53522e-05
2.82212e-05
-3.09912e-05
5.36379e-05
-4.19982e-05
7.15394e-05
-3.80733e-05
7.67712e-05
-2.3594e-05
6.22795e-05
-1.20804e-05
3.7036e-05
-9.12205e-07
1.95678e-05
1.94294e-05
1.50648e-05
3.0864e-05
2.31926e-05
3.67695e-05
3.21731e-05
4.93699e-05
3.4919e-05
6.28644e-05
-2.22262e-06
0.000100687
-4.52057e-05
0.000101843
2.91658e-05
-2.81679e-05
6.68208e-05
-0.000137666
0.00015168
-0.000321374
0.000221747
-0.000295377
0.000269405
-0.000142036
0.000329438
5.5071e-05
0.000225407
0.000207063
8.79405e-05
0.000111699
2.49122e-05
2.59653e-05
3.60263e-05
-2.64663e-05
6.55468e-05
-6.05116e-05
8.87782e-05
-6.52297e-05
0.000106638
-5.59327e-05
0.000134103
-5.10598e-05
0.000171736
-4.97131e-05
0.000209384
-3.85598e-05
0.00024274
-1.39265e-05
0.000251243
2.23609e-05
0.000209245
7.87668e-05
0.000120636
0.000137979
2.65563e-05
0.000156944
-5.69199e-05
0.000184163
-4.83887e-05
9.33115e-05
3.57162e-05
-5.4939e-05
7.30935e-05
-0.000210759
0.000159593
-0.000407873
0.000223128
-0.000358912
0.000243111
-0.000162019
0.000304663
-6.48069e-06
0.000361551
0.000150175
0.000306858
0.000166391
0.000238526
9.42982e-05
0.00020018
1.18791e-05
0.000206425
-6.67563e-05
0.000215957
-7.47615e-05
0.000212678
-5.2654e-05
0.000196227
-3.4609e-05
0.000194848
-4.83345e-05
0.000219783
-6.34944e-05
0.000256395
-5.05382e-05
0.000289101
-1.03452e-05
0.000296544
7.13231e-05
0.000232199
0.000202324
0.000119024
0.000270119
3.05749e-05
0.000272612
-1.55311e-05
0.000139418
0.000103393
-8.3208e-05
6.63011e-05
-0.00027706
0.0001272
-0.000468772
0.000146605
-0.000378318
0.000184409
-0.000199823
0.000240138
-6.22098e-05
0.000300921
8.9392e-05
0.000329741
0.000137571
0.000307262
0.000116777
0.000278355
4.07869e-05
0.00023151
-1.99116e-05
0.000198108
-4.13599e-05
0.000208292
-6.28372e-05
0.000261634
-8.79512e-05
0.000301101
-8.78016e-05
0.000306194
-6.85872e-05
0.000297138
-4.14825e-05
0.000286633
1.59612e-07
0.00025316
0.000104796
0.00020007
0.000255414
0.000127835
0.000342354
7.55838e-05
0.000324863
-5.68056e-06
0.000220682
0.00018655
-8.8838e-05
4.68508e-05
-0.000323911
4.5777e-05
-0.000467698
1.29281e-05
-0.000345469
5.89647e-05
-0.00024586
0.000139339
-0.000142584
0.000209691
1.90403e-05
0.000240445
0.000106817
0.000227361
0.000129861
0.000221637
4.65107e-05
0.000211532
-9.80622e-06
0.000183232
-1.30603e-05
0.000172348
-5.19525e-05
0.0001851
-0.000100704
0.000215559
-0.00011826
0.000243249
-9.62776e-05
0.000256412
-5.46449e-05
0.000245831
1.07404e-05
0.000211734
0.000138893
0.000167118
0.000300031
0.00012485
0.000384622
0.00010184
0.000347873
6.96385e-05
0.000252883
0.000181699
7.44901e-05
2.26259e-05
-0.000346537
-2.61404e-05
-0.000418932
-6.77534e-05
-0.000303856
-4.02532e-05
-0.00027336
-3.35826e-06
-0.000179479
4.60896e-05
-3.04073e-05
8.67332e-05
6.61735e-05
0.000135043
8.15506e-05
0.000174934
6.6208e-06
0.000141766
2.33618e-05
0.000103999
2.47061e-05
9.26499e-05
-4.06032e-05
0.000104399
-0.000112452
0.000114223
-0.000128084
0.000135568
-0.000117622
0.000165762
-8.48388e-05
0.000170231
6.27143e-06
0.000153936
0.000155187
0.000132697
0.00032127
0.000127674
0.000389645
0.000149086
0.000326461
0.000190626
0.000211343
0.000127769
0.000244556
3.21616e-05
-0.000378698
-1.26067e-05
-0.000374163
-3.66444e-05
-0.000279818
-5.21679e-05
-0.000257836
-5.27914e-05
-0.000178855
-1.26859e-05
-7.05129e-05
4.0535e-05
1.29527e-05
8.60798e-05
3.60063e-05
6.0881e-05
3.18198e-05
1.00323e-05
7.42105e-05
2.06649e-05
1.40735e-05
5.6571e-05
-7.65093e-05
7.09199e-05
-0.000126801
6.35465e-05
-0.000120711
4.94569e-05
-0.000103533
5.36408e-05
-8.90229e-05
6.33533e-05
-3.44121e-06
7.16036e-05
0.000146937
8.77037e-05
0.00030517
0.00014647
0.000330879
0.000225592
0.000247339
0.000286867
0.000150067
9.56739e-05
0.000318963
1.73528e-05
-0.000396052
1.18798e-06
-0.000357998
-2.84643e-05
-0.000250166
-6.08502e-05
-0.00022545
-6.41171e-05
-0.000175589
-3.89695e-05
-9.56604e-05
-9.58463e-06
-1.64317e-05
-6.86689e-06
3.32888e-05
-3.55314e-05
6.04844e-05
-1.98343e-05
5.85135e-05
4.46051e-05
-5.03658e-05
7.30111e-05
-0.000104915
7.52391e-05
-0.000129029
7.2408e-05
-0.00011788
4.45848e-05
-7.57095e-05
-8.51169e-06
-3.59266e-05
-3.03589e-05
1.84062e-05
6.62638e-06
0.000109952
9.09632e-05
0.000220833
0.000185268
0.000236574
0.000254435
0.000178172
0.000285689
0.000118813
8.32069e-05
0.000298156
3.61295e-06
-0.000399665
-1.14961e-05
-0.000342889
-3.70815e-05
-0.000224581
-7.1038e-05
-0.000191494
-8.52633e-05
-0.000161363
-8.41246e-05
-9.67989e-05
-7.2179e-05
-2.83773e-05
-5.0466e-05
1.1576e-05
-1.46188e-05
2.46374e-05
6.59211e-05
-2.20262e-05
0.000119363
-0.000103807
0.000140547
-0.000126099
0.000120818
-0.0001093
0.000102301
-9.93626e-05
0.00010596
-7.93688e-05
0.000106644
-3.66105e-05
0.000106501
1.85496e-05
0.000132943
8.35094e-05
0.000199839
0.000153936
0.000250996
0.000185417
0.000270243
0.000158925
0.00027441
0.000114646
8.4448e-05
0.000273169
-7.31825e-06
-0.000392347
-2.37509e-05
-0.000326456
-4.41864e-05
-0.000204145
-7.53803e-05
-0.0001603
-9.11894e-05
-0.000145554
-8.40434e-05
-0.000103945
-5.6999e-05
-5.54216e-05
-1.51172e-05
-3.03056e-05
4.7727e-05
-3.82065e-05
0.000110625
-8.4924e-05
0.000132258
-0.000125441
0.000140959
-0.0001348
0.000146287
-0.000114629
0.000134715
-8.77903e-05
0.000117112
-6.17658e-05
0.000121556
-4.10543e-05
0.000151293
-1.11879e-05
0.000180895
5.39081e-05
0.000226396
0.000108436
0.000264939
0.000146874
0.000274568
0.000149296
0.000270866
0.000118348
9.57355e-05
0.000259579
-1.46444e-05
-0.000377702
-3.21797e-05
-0.000308921
-5.18444e-05
-0.000184481
-7.61519e-05
-0.000135992
-9.08562e-05
-0.00013085
-8.65774e-05
-0.000108224
-5.81263e-05
-8.38727e-05
-1.53824e-05
-7.30493e-05
2.74704e-05
-8.1059e-05
5.08689e-05
-0.000108322
5.92427e-05
-0.000133815
6.41254e-05
-0.000139682
7.06544e-05
-0.000121157
7.5424e-05
-9.25599e-05
8.16989e-05
-6.80404e-05
9.13859e-05
-5.07411e-05
0.000109613
-2.94145e-05
0.000147186
1.63345e-05
0.000171989
8.36334e-05
0.000190562
0.0001283
0.00020583
0.000134028
0.000203411
0.000120766
0.000118381
0.000180765
-2.09459e-05
-0.000356756
-3.87608e-05
-0.000291106
-6.08162e-05
-0.000162425
-7.46991e-05
-0.000122109
-8.47498e-05
-0.000120799
-8.65959e-05
-0.000106378
-7.55207e-05
-9.49479e-05
-5.60398e-05
-9.25301e-05
-3.43938e-05
-0.000102705
-2.00155e-05
-0.000122701
-1.43858e-05
-0.000139444
-1.40649e-05
-0.000140003
-1.50586e-05
-0.000120163
-1.62209e-05
-9.13975e-05
-1.73139e-05
-6.69472e-05
-1.90055e-05
-4.90494e-05
-1.93593e-05
-2.90607e-05
-8.52172e-06
5.49678e-06
1.81522e-05
5.69594e-05
5.15527e-05
9.49002e-05
7.21933e-05
0.000113388
6.65468e-05
0.000126413
0.000143111
4.18168e-05
-2.80737e-05
-0.000328682
-4.46263e-05
-0.000274553
-6.63441e-05
-0.000140707
-7.08856e-05
-0.000117568
-7.68076e-05
-0.000114877
-8.12764e-05
-0.000101909
-8.08529e-05
-9.53713e-05
-7.63294e-05
-9.70535e-05
-7.08803e-05
-0.000108154
-6.91158e-05
-0.000124465
-7.21538e-05
-0.000136406
-7.80392e-05
-0.000134118
-8.41982e-05
-0.000114004
-9.0672e-05
-8.49236e-05
-9.77396e-05
-5.98796e-05
-0.000106078
-4.07108e-05
-0.000114961
-2.01781e-05
-0.000117221
7.75672e-06
-0.000104353
4.40915e-05
-8.71638e-05
7.77111e-05
-7.97192e-05
0.000105943
-8.66126e-05
0.000133306
0.000160927
-0.000104429
-3.45397e-05
-0.000294143
-5.00648e-05
-0.000259028
-6.08467e-05
-0.000129926
-6.21308e-05
-0.000116284
-6.79009e-05
-0.000109107
-7.49352e-05
-9.48746e-05
-8.11433e-05
-8.91631e-05
-8.73015e-05
-9.08953e-05
-9.50565e-05
-0.000100399
-0.000105463
-0.000114058
-0.000117588
-0.000124281
-0.000129459
-0.000122246
-0.00013948
-0.000103983
-0.000149121
-7.52829e-05
-0.000161065
-4.79355e-05
-0.000175377
-2.63984e-05
-0.000189812
-5.74321e-06
-0.000198617
1.65615e-05
-0.000198599
4.40732e-05
-0.000193651
7.27637e-05
-0.000188968
0.000101259
-0.000185821
0.000130159
0.000157621
-0.000182515
-3.3442e-05
-0.000260701
-5.24024e-05
-0.000240067
-4.35848e-05
-0.000138743
-4.82626e-05
-0.000111606
-5.69047e-05
-0.000100465
-6.74041e-05
-8.4375e-05
-7.88283e-05
-7.7739e-05
-9.18626e-05
-7.78611e-05
-0.000107706
-8.45553e-05
-0.000126553
-9.52115e-05
-0.000146482
-0.000104352
-0.000164079
-0.000104649
-0.000176875
-9.11866e-05
-0.000185949
-6.6209e-05
-0.000195612
-3.82722e-05
-0.00020802
-1.39907e-05
-0.000220381
6.61819e-06
-0.000230155
2.63355e-05
-0.000233479
4.7397e-05
-0.00023035
6.96348e-05
-0.000221962
9.28708e-05
-0.000208545
0.000116742
0.000139207
-0.000190131
-3.37154e-05
-0.000226986
-4.50634e-05
-0.000228719
-2.1098e-05
-0.000162709
-3.04969e-05
-0.000102207
-4.51825e-05
-8.57791e-05
-6.04871e-05
-6.90706e-05
-7.6476e-05
-6.17502e-05
-9.37147e-05
-6.06226e-05
-0.000113444
-6.4826e-05
-0.000136216
-7.24398e-05
-0.000160583
-7.9985e-05
-0.000182758
-8.24736e-05
-0.000198607
-7.5338e-05
-0.000207022
-5.77932e-05
-0.000211032
-3.42626e-05
-0.000214759
-1.02636e-05
-0.000219036
1.08946e-05
-0.000222044
2.93439e-05
-0.000221335
4.66881e-05
-0.000215787
6.4087e-05
-0.000205033
8.2116e-05
-0.000188955
0.000100664
0.000118542
-0.00016829
-3.296e-05
-0.000194026
-3.07946e-05
-0.000230884
-2.91876e-06
-0.000190584
-7.05908e-06
-9.80665e-05
-3.27259e-05
-6.01123e-05
-5.51878e-05
-4.6609e-05
-7.61175e-05
-4.08206e-05
-9.62839e-05
-4.04559e-05
-0.00011713
-4.39796e-05
-0.000139788
-4.97822e-05
-0.000164061
-5.57113e-05
-0.000187636
-5.88986e-05
-0.000206537
-5.64379e-05
-0.000217438
-4.68921e-05
-0.000220448
-3.12523e-05
-0.00021837
-1.23415e-05
-0.000214116
6.64041e-06
-0.000208732
2.39598e-05
-0.000201845
3.98012e-05
-0.000192788
5.50295e-05
-0.000180921
7.02487e-05
-0.0001658
8.55437e-05
0.000100318
-0.000147577
-2.44451e-05
-0.00016958
-1.28851e-05
-0.000242444
1.3006e-05
-0.000216476
1.8368e-05
-0.000103429
-2.08387e-05
-2.09055e-05
-5.22382e-05
-1.52094e-05
-7.81832e-05
-1.48757e-05
-0.000100828
-1.78108e-05
-0.000121948
-2.28601e-05
-0.000142791
-2.8939e-05
-0.000163833
-3.46692e-05
-0.000184355
-3.83764e-05
-0.000202295
-3.84984e-05
-0.000215005
-3.41823e-05
-0.000220691
-2.55656e-05
-0.00021941
-1.36228e-05
-0.00021293
1.60838e-07
-0.000203557
1.45866e-05
-0.00019258
2.88238e-05
-0.000180378
4.28277e-05
-0.000166802
5.66732e-05
-0.000151459
7.02008e-05
8.29268e-05
-0.000134068
-2.75407e-06
-0.000166826
1.64097e-05
-0.000261608
2.9066e-05
-0.000229132
2.84159e-05
-0.000102778
-1.59237e-05
2.3434e-05
-5.35377e-05
2.24046e-05
-8.31399e-05
1.47264e-05
-0.000107628
6.6777e-06
-0.000128946
-1.54285e-06
-0.000148204
-9.68072e-06
-0.000166073
-1.68004e-05
-0.000182361
-2.20886e-05
-0.00019617
-2.4689e-05
-0.000206277
-2.40757e-05
-0.000211565
-2.02785e-05
-0.000211452
-1.37358e-05
-0.000206234
-5.0572e-06
-0.000196989
5.34151e-06
-0.000185114
1.69491e-05
-0.000171557
2.92697e-05
-0.000156741
4.18572e-05
-0.000140718
5.41781e-05
6.56271e-05
-0.000123418
1.94777e-05
-0.000186304
4.30457e-05
-0.000285176
3.81295e-05
-0.000224216
1.9454e-05
-8.41029e-05
-2.14417e-05
6.43298e-05
-6.09886e-05
6.19513e-05
-9.24277e-05
4.61654e-05
-0.000117689
3.19394e-05
-0.000138581
1.9349e-05
-0.000156428
8.16572e-06
-0.000171801
-1.42738e-06
-0.000184746
-9.14388e-06
-0.000194813
-1.46223e-05
-0.000201328
-1.75607e-05
-0.000203704
-1.79023e-05
-0.000201708
-1.57322e-05
-0.000195627
-1.11376e-05
-0.000186077
-4.20902e-06
-0.000173983
4.85501e-06
-0.000160177
1.54634e-05
-0.000145205
2.68849e-05
-0.000129345
3.83182e-05
4.90271e-05
-0.000112745
2.61596e-05
-0.000212464
4.55636e-05
-0.00030458
2.78133e-05
-0.000206465
2.16732e-06
-5.84569e-05
-3.52322e-05
0.000101729
-7.32487e-05
9.99677e-05
-0.0001048
7.77161e-05
-0.000130484
5.76236e-05
-0.000151226
4.00909e-05
-0.000167883
2.48232e-05
-0.000181087
1.1776e-05
-0.000191282
1.05091e-06
-0.000198228
-7.67587e-06
-0.00020172
-1.40689e-05
-0.000201289
-1.83328e-05
-0.000196647
-2.03747e-05
-0.000188044
-1.97408e-05
-0.000176401
-1.58519e-05
-0.000162859
-8.68734e-06
-0.000148278
8.82114e-07
-0.000133163
1.17703e-05
-0.000117684
2.28396e-05
3.32737e-05
-0.000101931
1.95244e-05
-0.000231988
2.56196e-05
-0.000310675
6.03044e-06
-0.000186876
-1.62478e-05
-3.61786e-05
-5.22165e-05
0.000137698
-8.6671e-05
0.000134422
-0.000117105
0.00010815
-0.000142961
8.34798e-05
-0.00016425
6.13795e-05
-0.000181093
4.16664e-05
-0.000193647
2.43297e-05
-0.000201975
9.37867e-06
-0.000206439
-3.21117e-06
-0.000207054
-1.34544e-05
-0.000203737
-2.16503e-05
-0.000196175
-2.7937e-05
-0.000184403
-3.15125e-05
-0.000169528
-3.07277e-05
-0.000153377
-2.48376e-05
-0.000137298
-1.51977e-05
-0.000121654
-3.87345e-06
-0.000106478
7.6637e-06
1.84006e-05
-9.16055e-05
1.03725e-05
-0.00024236
8.09857e-06
-0.000308401
-8.1521e-06
-0.000170626
-2.69415e-05
-1.73893e-05
-6.36734e-05
0.00017443
-9.67094e-05
0.000167458
-0.000126026
0.000137467
-0.000151701
0.000109154
-0.000173742
8.34208e-05
-0.000191927
5.9851e-05
-0.000205754
3.81569e-05
-0.000214742
1.8367e-05
-0.000218712
7.58177e-07
-0.000217706
-1.44606e-05
-0.000211816
-2.75397e-05
-0.000200797
-3.89562e-05
-0.000184582
-4.7728e-05
-0.000164779
-5.05304e-05
-0.000144688
-4.49286e-05
-0.000126483
-3.34038e-05
-0.000110234
-2.01217e-05
-9.54989e-05
-7.07199e-06
4.68217e-06
-8.17808e-05
6.21844e-06
-0.000248579
1.30732e-06
-0.00030349
-1.0468e-05
-0.00015885
-2.95802e-05
1.72275e-06
-6.79447e-05
0.000212794
-0.000101946
0.000201459
-0.000130703
0.000166224
-0.000155921
0.000134373
-0.000178218
0.000105718
-0.00019759
7.92223e-05
-0.000213425
5.39925e-05
-0.000224825
2.97663e-05
-0.000230998
6.93164e-06
-0.000231276
-1.41828e-05
-0.000225235
-3.35806e-05
-0.000211677
-5.25138e-05
-0.000189609
-6.97963e-05
-0.000161637
-7.85034e-05
-0.000135054
-7.15114e-05
-0.000114345
-5.41128e-05
-9.78792e-05
-3.65875e-05
-8.40009e-05
-2.09504e-05
-7.42829e-06
-7.18906e-05
8.31877e-06
-0.000256898
2.53446e-06
-0.000297706
-5.45059e-06
-0.000150866
-2.96978e-05
2.59699e-05
-7.04916e-05
0.000253588
-0.000104919
0.000235886
-0.000133564
0.000194868
-0.000158836
0.000159644
-0.00018134
0.000128222
-0.000201017
9.88996e-05
-0.000217461
7.04358e-05
-0.000230053
4.2359e-05
-0.000238112
1.49899e-05
-0.000240629
-1.16654e-05
-0.000236286
-3.7924e-05
-0.000222014
-6.6785e-05
-0.000194371
-9.74403e-05
-0.0001565
-0.000116374
-0.000121503
-0.000106509
-9.80818e-05
-7.75339e-05
-8.29175e-05
-5.17517e-05
-7.10731e-05
-3.27949e-05
-1.72587e-05
-6.12428e-05
1.03506e-05
-0.000267248
4.06141e-06
-0.000291417
-7.61005e-07
-0.000146043
-3.10347e-05
5.62436e-05
-7.34518e-05
0.000296005
-0.000108092
0.000270526
-0.000137601
0.000224378
-0.000164512
0.000186555
-0.000188563
0.000152274
-0.00020877
0.000119106
-0.000224117
8.57826e-05
-0.000233902
5.21442e-05
-0.000237885
1.89733e-05
-0.000235651
-1.38995e-05
-0.000226467
-4.71085e-05
-0.000207822
-8.543e-05
-0.000175868
-0.000129394
-0.000135211
-0.00015703
-9.78011e-05
-0.000143919
-7.37774e-05
-0.000101557
-6.32303e-05
-6.22988e-05
-5.59312e-05
-4.00941e-05
-2.36306e-05
-4.95595e-05
8.35185e-06
-0.0002756
1.10819e-06
-0.000284173
-4.96913e-07
-0.000144438
-3.84313e-05
9.41781e-05
-7.85956e-05
0.000336169
-0.000112069
0.000303999
-0.000142737
0.000255045
-0.000172544
0.000216362
-0.000199734
0.000179464
-0.000221876
0.000141248
-0.00023644
0.000100347
-0.000241301
5.70057e-05
-0.000235039
1.27108e-05
-0.000218389
-3.05489e-05
-0.000192802
-7.26957e-05
-0.000160914
-0.000117318
-0.000124648
-0.00016566
-9.10834e-05
-0.000190595
-6.22811e-05
-0.000172721
-4.07817e-05
-0.000123057
-3.8427e-05
-6.46537e-05
-3.885e-05
-3.96714e-05
-2.51623e-05
-3.73183e-05
2.66308e-06
-0.000278263
-5.89734e-06
-0.000275612
-1.14036e-05
-0.000138932
-5.65488e-05
0.000139323
-8.673e-05
0.000366351
-0.000114359
0.000331628
-0.000143547
0.000284234
-0.000174467
0.000247281
-0.000204006
0.000209003
-0.000228726
0.000165968
-0.000244457
0.000116077
-0.00024715
5.96983e-05
-0.000233755
-6.84186e-07
-0.000205245
-5.90583e-05
-0.000163598
-0.000114343
-0.000117308
-0.000163607
-7.76741e-05
-0.000205294
-5.02883e-05
-0.000217981
-3.0508e-05
-0.000192501
-1.22891e-05
-0.000141276
-1.37032e-05
-6.32396e-05
-2.27125e-05
-3.06621e-05
-2.16771e-05
-2.61977e-05
-8.81995e-06
-0.000269444
-2.16836e-05
-0.000262749
-3.5751e-05
-0.000124865
-7.73556e-05
0.000180928
-9.05687e-05
0.000379564
-0.000108394
0.000349453
-0.000131406
0.000307246
-0.000157933
0.000273808
-0.000184279
0.000235349
-0.000206892
0.00018858
-0.000221284
0.000130469
-0.000223841
6.22548e-05
-0.000212368
-1.21568e-05
-0.000184978
-8.64481e-05
-0.000142423
-0.000156898
-9.07352e-05
-0.000215296
-4.9437e-05
-0.000246592
-2.52647e-05
-0.000242153
-9.30463e-06
-0.000208461
-7.28857e-07
-0.000149852
-2.22478e-06
-6.17436e-05
-1.2976e-05
-1.99109e-05
-1.60932e-05
-1.85599e-05
-2.47124e-05
-0.000244731
-4.62155e-05
-0.000241246
-6.1777e-05
-0.000109303
-8.30648e-05
0.000202216
-7.99502e-05
0.000376449
-8.74189e-05
0.000356922
-0.000100031
0.000319859
-0.000115476
0.000289253
-0.000129976
0.000249849
-0.000140873
0.000199477
-0.000146532
0.000136127
-0.000147337
6.30596e-05
-0.000142414
-1.70793e-05
-0.000127323
-0.00010154
-0.000100442
-0.000183778
-6.02987e-05
-0.000255439
-2.51721e-05
-0.000281719
-8.1229e-06
-0.000259202
-7.3663e-07
-0.000215848
-1.54489e-06
-0.000149043
-5.37545e-06
-5.79131e-05
-1.18754e-05
-1.34108e-05
-1.25262e-05
-1.54422e-05
-3.82935e-05
-0.000206438
-6.84856e-05
-0.000211053
-7.90046e-05
-9.87842e-05
-6.96992e-05
0.00019291
-5.33902e-05
0.00036014
-4.97883e-05
0.00035332
-5.02953e-05
0.000320366
-5.12348e-05
0.000290193
-5.0492e-05
0.000249106
-4.75078e-05
0.000196493
-4.29286e-05
0.000131548
-3.71665e-05
5.72975e-05
-3.31345e-05
-2.11113e-05
-3.09811e-05
-0.000103693
-2.58839e-05
-0.000188875
-1.34195e-05
-0.000267904
2.22531e-06
-0.000297364
5.08539e-06
-0.000262062
-1.70511e-07
-0.000210592
-1.23995e-05
-0.000136814
-1.8779e-05
-5.15335e-05
-1.70009e-05
-1.51889e-05
-1.39184e-05
-1.56088e-05
-4.66757e-05
-0.000159762
-8.36232e-05
-0.000174106
-8.7495e-05
-9.49124e-05
-4.71867e-05
0.000152602
-1.76174e-05
0.000330571
7.23284e-07
0.00033498
1.22187e-05
0.00030887
2.54065e-05
0.000277004
3.94962e-05
0.000235016
5.39054e-05
0.000182084
6.69884e-05
0.000118465
7.59473e-05
4.83385e-05
7.97265e-05
-2.48906e-05
7.74117e-05
-0.000101378
6.74948e-05
-0.000178958
5.10664e-05
-0.000251475
3.3568e-05
-0.000279865
1.72154e-05
-0.00024571
-4.2502e-06
-0.000189126
-2.46358e-05
-0.000116429
-2.76452e-05
-4.85241e-05
-1.97494e-05
-2.30847e-05
-1.83005e-05
-1.53674e-05
-4.6587e-05
-0.000113175
-9.00966e-05
-0.000130596
-9.2059e-05
-9.295e-05
-2.37857e-05
8.43288e-05
2.39264e-05
0.000282859
5.73972e-05
0.000301509
8.02904e-05
0.000285977
0.000103191
0.000254104
0.00012792
0.000210287
0.000152331
0.000157672
0.00017421
9.65865e-05
0.000190086
3.2462e-05
0.000195416
-3.02209e-05
0.000188076
-9.40375e-05
0.00016512
-0.000156003
0.000124061
-0.000210416
7.43695e-05
-0.000230174
3.67363e-05
-0.000208077
5.30301e-06
-0.000157693
-1.81394e-05