/*--------------------------------*- C++ -*----------------------------------*\
| =========                 |                                                 |
| \\      /  F ield         | OpenFOAM: The Open Source CFD Toolbox           |
|  \\    /   O peration     | Version:  2.3.0                                 |
|   \\  /    A nd           | Web:      www.OpenFOAM.org                      |
|    \\/     M anipulation  |                                                 |
\*---------------------------------------------------------------------------*/
FoamFile
{
    version     2.0;
    format      ascii;
    class       volVectorField;
    location    "1.4";
    object      U;
}
// * * * * * * * * * * * * * * * * * * * * * * * * * * * * * * * * * * * * * //

dimensions      [0 1 -1 0 0 0 0];

internalField   nonuniform List<vector> 
2268
(
(-0.00335739 -0.0064283 0)
(0.0413428 -0.0226662 0)
(0.145955 -0.0332121 0)
(0.271484 -0.031398 0)
(0.377566 -0.0150969 0)
(0.40844 0.00589251 0)
(0.364801 0.0141983 0)
(0.311864 0.00950701 0)
(0.282051 0.00284618 0)
(0.272457 -0.000665357 0)
(0.27647 -0.0022028 0)
(0.289859 -0.00398314 0)
(0.309434 -0.00715383 0)
(0.340151 -0.00642113 0)
(0.364948 0.00753892 0)
(0.331763 0.0228791 0)
(0.244483 0.0224086 0)
(0.170358 0.00892214 0)
(0.138682 0.00267592 0)
(0.116878 0.00580701 0)
(0.0875646 0.00583362 0)
(0.0559552 0.00487758 0)
(0.0220102 0.00729181 0)
(-0.0103938 -0.00929851 0)
(0.0254325 -0.0521539 0)
(0.127909 -0.0857854 0)
(0.247344 -0.0842523 0)
(0.346696 -0.0488033 0)
(0.40651 -0.000370136 0)
(0.402225 0.0307274 0)
(0.345173 0.0329291 0)
(0.286392 0.0187744 0)
(0.259213 0.00375897 0)
(0.261039 -0.00570579 0)
(0.277986 -0.0113821 0)
(0.303078 -0.0172537 0)
(0.329018 -0.0209736 0)
(0.372732 -0.0065103 0)
(0.422427 0.0274734 0)
(0.400329 0.0532289 0)
(0.306542 0.0493365 0)
(0.219674 0.0271941 0)
(0.180003 0.0176164 0)
(0.15243 0.0231716 0)
(0.100221 0.0290495 0)
(0.0365683 0.0340772 0)
(-0.0169378 -0.0094624 0)
(0.01785 -0.0831703 0)
(0.136769 -0.140439 0)
(0.267197 -0.134615 0)
(0.349791 -0.079479 0)
(0.380728 -0.00986349 0)
(0.36763 0.044115 0)
(0.317811 0.0584512 0)
(0.266793 0.0388676 0)
(0.242804 0.00949525 0)
(0.244954 -0.0114027 0)
(0.26265 -0.0227411 0)
(0.291784 -0.0309359 0)
(0.326155 -0.0375253 0)
(0.355659 -0.0300312 0)
(0.391519 0.0124924 0)
(0.40047 0.0681134 0)
(0.3388 0.0881202 0)
(0.262387 0.0610926 0)
(0.217631 0.0345595 0)
(0.186676 0.0415581 0)
(0.12859 0.0595736 0)
(0.0470518 0.0722384 0)
(-0.0256059 -0.00599653 0)
(0.00594837 -0.117628 0)
(0.147153 -0.206565 0)
(0.319278 -0.185739 0)
(0.409301 -0.0983025 0)
(0.410442 -0.00454811 0)
(0.373177 0.062894 0)
(0.319679 0.0816844 0)
(0.272085 0.0552691 0)
(0.247839 0.0139229 0)
(0.245068 -0.0159004 0)
(0.255059 -0.0329494 0)
(0.278603 -0.0468953 0)
(0.317944 -0.0541586 0)
(0.353521 -0.0405964 0)
(0.370444 0.00839275 0)
(0.371377 0.0785426 0)
(0.338154 0.114759 0)
(0.29424 0.0877526 0)
(0.257505 0.053026 0)
(0.217909 0.063254 0)
(0.152349 0.0947652 0)
(0.0567003 0.119 0)
(-0.0514228 0.00173451 0)
(0.000970479 -0.157707 0)
(0.145492 -0.299084 0)
(0.344961 -0.262786 0)
(0.494535 -0.11651 0)
(0.487441 0.0116884 0)
(0.417369 0.0886425 0)
(0.349541 0.106602 0)
(0.300479 0.0726494 0)
(0.274042 0.0210316 0)
(0.262361 -0.0157414 0)
(0.259912 -0.0380263 0)
(0.274908 -0.0606861 0)
(0.313915 -0.0737255 0)
(0.35649 -0.0535547 0)
(0.370071 0.00680883 0)
(0.359495 0.0858202 0)
(0.342272 0.127754 0)
(0.327649 0.103108 0)
(0.301793 0.0699726 0)
(0.252956 0.088867 0)
(0.176989 0.13476 0)
(0.0671882 0.173696 0)
(-0.0800812 0.0139054 0)
(0.0295724 -0.213983 0)
(0.136676 -0.385141 0)
(0.286148 -0.367629 0)
(0.515751 -0.162906 0)
(0.577462 0.0346452 0)
(0.489734 0.12675 0)
(0.39626 0.136841 0)
(0.340742 0.0913406 0)
(0.310587 0.0310804 0)
(0.287422 -0.0094532 0)
(0.272864 -0.0364773 0)
(0.285771 -0.071044 0)
(0.329853 -0.0940776 0)
(0.376166 -0.0684203 0)
(0.391545 0.00524832 0)
(0.377631 0.0902579 0)
(0.367442 0.131415 0)
(0.368022 0.110304 0)
(0.347662 0.0869908 0)
(0.289865 0.119101 0)
(0.204611 0.179736 0)
(0.07956 0.23921 0)
(-0.065931 0.0361227 0)
(0.0652588 -0.266932 0)
(0.107932 -0.430314 0)
(0.190851 -0.459401 0)
(0.426627 -0.251964 0)
(0.611895 0.0265134 0)
(0.569334 0.169262 0)
(0.455581 0.176464 0)
(0.38481 0.113896 0)
(0.34695 0.0437675 0)
(0.313548 0.000420187 0)
(0.293582 -0.0319983 0)
(0.310465 -0.0827105 0)
(0.366951 -0.116246 0)
(0.420759 -0.0828335 0)
(0.432504 0.00595546 0)
(0.415783 0.0963306 0)
(0.407814 0.134178 0)
(0.411412 0.11577 0)
(0.389581 0.106041 0)
(0.323294 0.154108 0)
(0.233589 0.22718 0)
(0.100877 0.312284 0)
(0.0188929 0.0232978 0)
(0.0662779 -0.285587 0)
(0.0481821 -0.440025 0)
(0.0868888 -0.524288 0)
(0.289854 -0.361718 0)
(0.560393 -0.0216553 0)
(0.618723 0.197399 0)
(0.52285 0.220762 0)
(0.433919 0.143627 0)
(0.37946 0.064373 0)
(0.344494 0.0160446 0)
(0.331933 -0.0306565 0)
(0.350889 -0.104409 0)
(0.413605 -0.150963 0)
(0.481055 -0.101797 0)
(0.493199 0.00734174 0)
(0.465208 0.101134 0)
(0.450152 0.133447 0)
(0.450227 0.119105 0)
(0.427243 0.125618 0)
(0.357832 0.190369 0)
(0.270516 0.27639 0)
(0.0982033 0.405733 0)
(0.0387482 -0.020619 0)
(0.147719 -0.0349058 0)
(0.274558 -0.0135533 0)
(0.286143 0.0178645 0)
(0.13747 0.0251135 0)
(0.0712985 -0.0126215 0)
(0.174782 -0.046991 0)
(0.304366 -0.0384037 0)
(0.396707 -0.00223701 0)
(0.363849 0.0209134 0)
(0.270554 0.0001327 0)
(0.203877 -0.0263363 0)
(0.33318 -0.00616893 0)
(0.413749 0.0532406 0)
(0.155635 0.0570753 0)
(-0.105644 0.0026125 0)
(-0.157495 0.00822799 0)
(-0.147815 -0.00688152 0)
(-0.0694313 -0.0357187 0)
(0.0453401 -0.057065 0)
(0.130453 -0.0849502 0)
(0.233202 -0.042917 0)
(0.312219 0.0276729 0)
(0.230326 0.0660334 0)
(0.206998 0.00142921 0)
(0.26355 -0.0800883 0)
(0.31053 -0.0748708 0)
(0.358192 -0.0169414 0)
(0.357615 0.0424907 0)
(0.115773 0.0839061 0)
(-0.132749 0.00619882 0)
(0.0282046 -0.0929468 0)
(0.393312 0.0359772 0)
(0.454814 0.141112 0)
(0.209604 0.123838 0)
(-0.0456681 0.0230084 0)
(-0.0754276 -0.0363573 0)
(-0.00825598 -0.0761593 0)
(0.0178615 -0.0884647 0)
(0.0691892 -0.124682 0)
(0.164573 -0.071462 0)
(0.236084 0.0249503 0)
(0.226182 0.0782689 0)
(0.27045 -0.0119695 0)
(0.253823 -0.0897068 0)
(0.185344 -0.0786951 0)
(0.185837 -0.012297 0)
(0.108935 0.130124 0)
(-0.192344 0.179748 0)
(-0.250633 -0.00982362 0)
(-0.132206 -0.218708 0)
(0.128973 -0.0869875 0)
(0.462172 0.114113 0)
(0.481358 0.210006 0)
(0.264047 0.140714 0)
(0.0715413 -0.0121632 0)
(0.0409562 -0.079712 0)
(-0.0328103 -0.0916627 0)
(-0.00378574 -0.156867 0)
(0.0905834 -0.109254 0)
(0.179217 0.00863054 0)
(0.227889 0.0634952 0)
(0.286914 -0.0120665 0)
(0.160426 -0.052762 0)
(0.0135561 -0.0451034 0)
(-0.0310658 0.0270281 0)
(-0.131837 0.219115 0)
(-0.32444 0.218612 0)
(-0.273434 -0.0689212 0)
(-0.176217 -0.309999 0)
(-0.041459 -0.20591 0)
(0.275507 -0.007359 0)
(0.536318 0.200371 0)
(0.493414 0.229774 0)
(0.282368 0.0797323 0)
(0.105866 -0.0287186 0)
(-0.0590349 -0.0680848 0)
(-0.02116 -0.184053 0)
(0.0301165 -0.15574 0)
(0.119702 -0.0442386 0)
(0.215108 0.0367612 0)
(0.240162 0.0106869 0)
(0.0347453 0.00659766 0)
(-0.0310978 0.0241797 0)
(-0.15037 0.0778999 0)
(-0.253749 0.245864 0)
(-0.300574 0.210269 0)
(-0.215081 -0.0686204 0)
(-0.182472 -0.362356 0)
(-0.146508 -0.280278 0)
(0.0855648 -0.155508 0)
(0.426019 0.112905 0)
(0.559114 0.255004 0)
(0.419572 0.175514 0)
(0.171374 0.0666675 0)
(-0.0273675 -0.0485014 0)
(0.0339729 -0.196728 0)
(0.0394153 -0.154982 0)
(-0.0109862 -0.0688405 0)
(0.124885 0.0094639 0)
(0.150578 0.0440341 0)
(-0.0595266 0.0574822 0)
(0.126093 0.0426542 0)
(0.130361 0.121599 0)
(-0.0874976 0.300461 0)
(-0.0116996 0.263868 0)
(-0.120322 -0.0311673 0)
(-0.267051 -0.320849 0)
(-0.242622 -0.28093 0)
(0.0569048 -0.275069 0)
(0.292479 0.00235875 0)
(0.501427 0.236725 0)
(0.452782 0.253221 0)
(0.215844 0.187737 0)
(0.0801526 -0.0889009 0)
(0.14918 -0.207706 0)
(0.139835 -0.124536 0)
(-0.0166329 -0.0650322 0)
(-0.00387047 0.00690283 0)
(0.0934167 0.0686109 0)
(0.00977711 0.0160655 0)
(0.0296533 -0.03924 0)
(0.229826 0.0635842 0)
(0.305668 0.266776 0)
(0.466756 0.300206 0)
(0.267417 0.0929423 0)
(-0.164795 -0.291948 0)
(-0.0399 -0.354878 0)
(0.11603 -0.363354 0)
(0.227706 -0.082698 0)
(0.399027 0.195074 0)
(0.40723 0.306359 0)
(0.224049 0.314296 0)
(0.238188 -0.171308 0)
(0.31398 -0.228495 0)
(0.261233 -0.105732 0)
(0.123141 0.00718611 0)
(-0.0859067 -0.0526077 0)
(0.064175 0.0479176 0)
(0.193398 0.0763329 0)
(-0.220988 0.0258531 0)
(-0.142508 -0.033492 0)
(0.365702 0.156803 0)
(0.60849 0.278015 0)
(0.37044 0.191182 0)
(-0.0549289 -0.204956 0)
(0.111727 -0.464328 0)
(0.135165 -0.408523 0)
(0.208424 -0.118399 0)
(0.299311 0.18883 0)
(0.335961 0.359649 0)
(0.224969 0.426125 0)
(0.0743075 -0.0253807 0)
(0.0326407 -0.258136 0)
(-0.0344312 -0.426261 0)
(-0.0703514 -0.594966 0)
(0.0614485 -0.535115 0)
(0.358106 -0.173547 0)
(0.558937 0.168635 0)
(0.555051 0.272283 0)
(0.467561 0.198077 0)
(0.404037 0.0886978 0)
(0.390715 0.0159914 0)
(0.402774 -0.0391463 0)
(0.430328 -0.1347 0)
(0.489747 -0.215224 0)
(0.553105 -0.144608 0)
(0.57769 0.0151428 0)
(0.549775 0.127467 0)
(0.512164 0.149926 0)
(0.481149 0.132981 0)
(0.439387 0.157525 0)
(0.376972 0.24233 0)
(0.342127 0.329299 0)
(0.329958 0.449216 0)
(0.0643517 -0.0799436 0)
(0.0125467 -0.2092 0)
(-0.0353765 -0.38818 0)
(-0.177503 -0.647245 0)
(-0.225556 -0.740112 0)
(-0.000508137 -0.449403 0)
(0.32648 0.0205544 0)
(0.479395 0.26416 0)
(0.48793 0.256215 0)
(0.473538 0.123141 0)
(0.464434 0.017402 0)
(0.475986 -0.0475562 0)
(0.528618 -0.177166 0)
(0.558622 -0.279781 0)
(0.578011 -0.195689 0)
(0.586765 0.00570968 0)
(0.563655 0.157 0)
(0.518064 0.198231 0)
(0.454727 0.191766 0)
(0.380015 0.222355 0)
(0.316546 0.298915 0)
(0.287087 0.34097 0)
(0.311586 0.308412 0)
(0.0251172 -0.105527 0)
(0.0700642 -0.201756 0)
(0.308024 -0.228224 0)
(0.240775 -0.439308 0)
(-0.177836 -0.706716 0)
(-0.294912 -0.69712 0)
(0.0311673 -0.273318 0)
(0.321994 0.0904104 0)
(0.440608 0.197554 0)
(0.466204 0.143828 0)
(0.454128 0.0601175 0)
(0.489629 -0.0785324 0)
(0.475518 -0.219875 0)
(0.412784 -0.265794 0)
(0.399975 -0.165253 0)
(0.410092 0.021736 0)
(0.413921 0.169503 0)
(0.397854 0.233392 0)
(0.348126 0.255704 0)
(0.270397 0.288702 0)
(0.206944 0.329268 0)
(0.190146 0.312201 0)
(0.249994 0.229327 0)
(-0.0442897 -0.130378 0)
(0.242757 -0.447925 0)
(0.73298 -0.422153 0)
(1.19223 -0.0189145 0)
(0.646023 -0.0582478 0)
(-0.188224 -0.583741 0)
(-0.268785 -0.498211 0)
(-0.0423968 -0.115585 0)
(0.135885 0.119909 0)
(0.141258 0.0929523 0)
(0.25598 -0.0239048 0)
(0.385026 -0.100666 0)
(0.318441 -0.138424 0)
(0.201489 -0.16935 0)
(0.154497 -0.109535 0)
(0.190344 0.0534402 0)
(0.219504 0.191327 0)
(0.239014 0.27637 0)
(0.23732 0.327099 0)
(0.192542 0.358144 0)
(0.161193 0.358406 0)
(0.182205 0.321107 0)
(0.224859 0.183152 0)
(-0.0321453 -0.260127 0)
(0.433872 -1.03669 0)
(0.883096 -1.03434 0)
(1.24138 -0.363951 0)
(1.4614 0.700311 0)
(0.457123 0.0271927 0)
(-0.107458 -0.400454 0)
(-0.224101 -0.235603 0)
(-0.108688 -0.00836257 0)
(0.0760544 -0.0863636 0)
(0.233429 -0.137605 0)
(0.348643 -0.0877312 0)
(0.434151 -0.016556 0)
(0.411672 -0.042773 0)
(0.240495 -0.0912905 0)
(0.113693 0.0047118 0)
(0.0758188 0.148142 0)
(0.104468 0.257414 0)
(0.153789 0.354377 0)
(0.176403 0.406895 0)
(0.137495 0.417981 0)
(-0.182855 0.480536 0)
(-0.158741 0.223903 0)
(0.134969 -0.569453 0)
(0.574085 -1.5211 0)
(1.03566 -1.49057 0)
(1.31546 -0.840851 0)
(1.67366 0.29817 0)
(1.77385 1.02674 0)
(0.702516 0.0935909 0)
(0.187006 -0.24772 0)
(0.10091 -0.219151 0)
(0.282496 -0.289728 0)
(0.434729 -0.345056 0)
(0.515069 -0.355121 0)
(0.620748 -0.287269 0)
(0.791782 -0.137408 0)
(1.00795 0.0443188 0)
(1.22007 0.186046 0)
(1.39563 0.26682 0)
(1.35024 0.253493 0)
(0.850235 0.28365 0)
(0.401258 0.39868 0)
(-0.173497 0.693832 0)
(-0.292372 0.420996 0)
(-0.209573 0.0714607 0)
(0.0875795 -0.941522 0)
(0.597511 -2.02761 0)
(1.0701 -1.94793 0)
(1.30286 -0.990977 0)
(1.45025 0.0607578 0)
(1.93088 1.07948 0)
(1.79046 1.03398 0)
(1.5069 0.58452 0)
(1.09849 0.00455052 0)
(1.03554 -0.332997 0)
(1.1781 -0.3984 0)
(1.17688 -0.306279 0)
(1.09205 -0.282729 0)
(0.99637 -0.450921 0)
(1.07864 -0.495784 0)
(1.27943 -0.380873 0)
(1.48899 -0.154576 0)
(1.64501 0.33495 0)
(1.55194 1.02994 0)
(0.964748 1.21949 0)
(0.290831 1.2246 0)
(-0.0171104 0.562692 0)
(-0.120156 0.297804 0)
(-0.048662 -1.32169 0)
(0.516578 -2.43678 0)
(0.837734 -2.12243 0)
(0.888525 -0.979708 0)
(1.16764 -0.157467 0)
(1.5081 0.568 0)
(1.67454 0.805678 0)
(1.75903 0.580339 0)
(1.63618 0.197467 0)
(1.39638 -0.218 0)
(1.15804 -0.346239 0)
(1.04046 -0.310344 0)
(1.16484 -0.215262 0)
(1.49962 -0.150345 0)
(1.70344 -0.174226 0)
(1.63373 -0.120316 0)
(1.56704 0.074228 0)
(1.54201 0.534085 0)
(1.29552 1.17964 0)
(0.834681 1.61692 0)
(0.484809 1.61444 0)
(0.201089 1.01125 0)
(-0.21624 0.874264 0)
(-0.176101 -1.67085 0)
(0.421295 -2.6185 0)
(0.195166 -1.86385 0)
(0.0967741 -0.967126 0)
(0.452984 -0.437879 0)
(1.02982 0.312061 0)
(1.24916 0.65154 0)
(1.32466 0.635587 0)
(1.16057 0.131281 0)
(1.18227 -0.130374 0)
(1.14302 -0.161741 0)
(0.962015 -0.234581 0)
(0.815642 -0.521326 0)
(1.01166 -0.651258 0)
(1.29046 -0.531948 0)
(1.37807 -0.333317 0)
(1.3603 -0.0475602 0)
(1.29865 0.63136 0)
(1.08465 1.49728 0)
(0.738373 1.98445 0)
(0.557725 1.8356 0)
(0.461846 1.30113 0)
(0.358264 1.07551 0)
(-0.143969 -1.8729 0)
(0.293597 -2.4131 0)
(-0.463558 -1.5889 0)
(-0.258735 -1.38843 0)
(-0.245519 -0.857092 0)
(0.174 0.0499033 0)
(0.432902 0.548429 0)
(0.588946 0.66321 0)
(0.811645 0.350159 0)
(0.99341 0.0261309 0)
(0.696687 0.0740017 0)
(0.39691 -0.194939 0)
(0.485304 -0.578195 0)
(0.564231 -0.695648 0)
(0.656717 -0.626012 0)
(0.776322 -0.375251 0)
(0.922019 0.0392263 0)
(0.94274 0.764769 0)
(0.826163 1.70292 0)
(0.645385 2.15506 0)
(0.679017 1.92099 0)
(0.875717 1.42132 0)
(1.14766 0.885683 0)
(0.121599 -1.90401 0)
(0.123287 -2.04833 0)
(-0.207844 -1.58563 0)
(-0.212894 -1.4746 0)
(-0.379796 -0.992833 0)
(-0.17388 -0.346797 0)
(0.063589 0.193611 0)
(0.417207 0.177461 0)
(0.399258 -0.229038 0)
(0.163801 0.252702 0)
(-0.0236925 0.102164 0)
(0.230653 -0.384372 0)
(0.360536 -0.651743 0)
(0.372622 -0.624932 0)
(0.317865 -0.579907 0)
(0.172867 -0.485301 0)
(0.281881 0.052739 0)
(0.434833 0.910768 0)
(0.453107 1.82187 0)
(0.546983 2.14678 0)
(0.962608 1.67303 0)
(1.43035 0.926648 0)
(1.6495 0.533719 0)
(0.0685271 -2.1005 0)
(0.0615157 -1.96056 0)
(-0.0480262 -1.43437 0)
(-0.254542 -1.30367 0)
(-0.415617 -0.981433 0)
(-0.28941 -0.528611 0)
(-0.0724884 -0.122358 0)
(0.016765 0.169529 0)
(-0.129847 0.42843 0)
(-0.288953 0.495178 0)
(0.103812 0.0206509 0)
(0.391801 -0.467776 0)
(0.396067 -0.70115 0)
(0.418297 -0.60842 0)
(0.379657 -0.390543 0)
(0.0961999 -0.280259 0)
(-0.242626 0.00791761 0)
(-0.0583844 0.761216 0)
(0.211201 1.50494 0)
(0.742429 1.45124 0)
(1.22223 1.01787 0)
(1.48225 0.674518 0)
(1.58434 0.483766 0)
(-0.0111019 -2.17018 0)
(0.0158864 -1.8871 0)
(-0.122589 -1.27662 0)
(-0.290884 -1.12216 0)
(-0.480326 -0.898906 0)
(-0.453568 -0.467859 0)
(-0.395535 -0.0411742 0)
(-0.329452 0.217664 0)
(-0.235625 0.352093 0)
(0.0584021 0.153209 0)
(0.584956 -0.461997 0)
(0.757318 -0.634978 0)
(0.715071 -0.645701 0)
(0.569599 -0.652422 0)
(0.552415 -0.452967 0)
(0.579795 -0.161075 0)
(0.561893 0.133788 0)
(0.608918 0.513163 0)
(0.832735 0.940438 0)
(1.22573 1.0645 0)
(1.45836 0.827248 0)
(1.48005 0.60054 0)
(1.4802 0.447278 0)
(-0.0546941 -2.14568 0)
(-0.0385826 -1.80547 0)
(-0.194779 -1.16138 0)
(-0.305915 -0.946998 0)
(-0.50711 -0.834317 0)
(-0.490182 -0.544176 0)
(-0.368742 -0.214826 0)
(-0.194539 -0.0301824 0)
(0.0392198 -0.02052 0)
(0.457757 -0.337388 0)
(0.679967 -0.622472 0)
(0.746104 -0.698246 0)
(0.776163 -0.601205 0)
(0.76656 -0.470066 0)
(0.668516 -0.38897 0)
(0.578266 -0.256158 0)
(0.754262 0.0260847 0)
(0.890135 0.31731 0)
(1.07025 0.630759 0)
(1.30532 0.882576 0)
(1.50246 0.906427 0)
(1.4851 0.67546 0)
(1.44403 0.472335 0)
(-0.0740347 -2.07911 0)
(-0.0968809 -1.71531 0)
(-0.230222 -1.05185 0)
(-0.339756 -0.789638 0)
(-0.486271 -0.745383 0)
(-0.502944 -0.590929 0)
(-0.402095 -0.415809 0)
(-0.195681 -0.33327 0)
(0.0582229 -0.404197 0)
(0.223513 -0.578387 0)
(0.291195 -0.72891 0)
(0.322851 -0.751023 0)
(0.35497 -0.646484 0)
(0.395076 -0.50033 0)
(0.42045 -0.357826 0)
(0.434209 -0.2389 0)
(0.477048 -0.151137 0)
(0.762966 0.23539 0)
(0.893446 0.542489 0)
(0.974178 0.761834 0)
(1.04892 0.753867 0)
(1.12895 0.594972 0)
(1.06381 0.529265 0)
(-0.0932536 -1.98194 0)
(-0.14726 -1.61931 0)
(-0.253794 -0.935338 0)
(-0.387071 -0.687339 0)
(-0.439222 -0.67687 0)
(-0.476335 -0.589208 0)
(-0.445785 -0.510492 0)
(-0.343006 -0.486865 0)
(-0.227936 -0.533927 0)
(-0.13806 -0.650702 0)
(-0.0910003 -0.755055 0)
(-0.0838199 -0.765307 0)
(-0.0872462 -0.655083 0)
(-0.0819116 -0.494467 0)
(-0.0873434 -0.359311 0)
(-0.111778 -0.264052 0)
(-0.131536 -0.169934 0)
(-0.100892 0.00180207 0)
(0.0526332 0.354514 0)
(0.203417 0.564205 0)
(0.341105 0.611768 0)
(0.394425 0.632511 0)
(0.309039 0.695607 0)
(-0.121038 -1.85563 0)
(-0.190846 -1.51841 0)
(-0.281409 -0.804213 0)
(-0.402117 -0.640239 0)
(-0.392626 -0.635206 0)
(-0.431294 -0.564994 0)
(-0.440143 -0.520246 0)
(-0.415981 -0.525055 0)
(-0.385202 -0.588963 0)
(-0.367904 -0.686134 0)
(-0.379223 -0.757601 0)
(-0.416028 -0.744933 0)
(-0.446039 -0.632467 0)
(-0.468929 -0.474955 0)
(-0.501665 -0.343215 0)
(-0.546637 -0.24785 0)
(-0.599743 -0.14094 0)
(-0.631038 0.0264733 0)
(-0.589285 0.257316 0)
(-0.50263 0.457638 0)
(-0.440477 0.601543 0)
(-0.433441 0.731699 0)
(-0.496477 0.866901 0)
(-0.152282 -1.6742 0)
(-0.223999 -1.43147 0)
(-0.305725 -0.687834 0)
(-0.34153 -0.63018 0)
(-0.342497 -0.605858 0)
(-0.384973 -0.53639 0)
(-0.419305 -0.507077 0)
(-0.445611 -0.518158 0)
(-0.481395 -0.574188 0)
(-0.53237 -0.654535 0)
(-0.600761 -0.711666 0)
(-0.675076 -0.694515 0)
(-0.7335 -0.584381 0)
(-0.773694 -0.425393 0)
(-0.82507 -0.283804 0)
(-0.900487 -0.173426 0)
(-0.984992 -0.0655805 0)
(-1.04935 0.0740014 0)
(-1.06792 0.249123 0)
(-1.05252 0.425592 0)
(-1.02784 0.592123 0)
(-1.005 0.755141 0)
(-0.986715 0.910692 0)
(-0.140558 -1.50857 0)
(-0.245195 -1.34633 0)
(-0.275246 -0.714091 0)
(-0.23632 -0.620384 0)
(-0.280101 -0.569234 0)
(-0.331699 -0.487003 0)
(-0.391571 -0.453757 0)
(-0.451705 -0.458777 0)
(-0.528143 -0.502808 0)
(-0.623331 -0.56926 0)
(-0.735429 -0.622059 0)
(-0.845432 -0.616026 0)
(-0.929423 -0.524934 0)
(-0.978401 -0.372469 0)
(-1.01864 -0.219439 0)
(-1.07862 -0.0964956 0)
(-1.15015 0.0126669 0)
(-1.21375 0.126435 0)
(-1.25037 0.254263 0)
(-1.25093 0.392905 0)
(-1.22081 0.535231 0)
(-1.16186 0.679134 0)
(-1.07442 0.811832 0)
(-0.159946 -1.31901 0)
(-0.233455 -1.2561 0)
(-0.18531 -0.827128 0)
(-0.102263 -0.580276 0)
(-0.209348 -0.51072 0)
(-0.280675 -0.419406 0)
(-0.367973 -0.379892 0)
(-0.452105 -0.374966 0)
(-0.550054 -0.402503 0)
(-0.664802 -0.451232 0)
(-0.797612 -0.497439 0)
(-0.931877 -0.507326 0)
(-1.03931 -0.452839 0)
(-1.10025 -0.333643 0)
(-1.12432 -0.185659 0)
(-1.13907 -0.0500507 0)
(-1.16217 0.0599765 0)
(-1.18587 0.158478 0)
(-1.19402 0.258462 0)
(-1.17876 0.361242 0)
(-1.1359 0.468678 0)
(-1.06358 0.579717 0)
(-0.963077 0.686394 0)
(-0.185064 -1.13003 0)
(-0.182139 -1.23103 0)
(-0.109232 -0.963753 0)
(0.0619351 -0.513738 0)
(-0.124949 -0.399591 0)
(-0.235831 -0.31602 0)
(-0.356076 -0.279088 0)
(-0.461446 -0.273178 0)
(-0.570064 -0.291772 0)
(-0.686089 -0.326009 0)
(-0.815127 -0.361793 0)
(-0.950022 -0.378852 0)
(-1.07042 -0.356702 0)
(-1.15195 -0.286922 0)
(-1.18497 -0.180196 0)
(-1.18092 -0.0588476 0)
(-1.16015 0.0550702 0)
(-1.13454 0.152637 0)
(-1.10281 0.240195 0)
(-1.06142 0.325178 0)
(-1.00635 0.411404 0)
(-0.934175 0.499695 0)
(-0.84413 0.586443 0)
(-0.17256 -0.963254 0)
(-0.0787085 -1.26442 0)
(-0.0461027 -1.07799 0)
(0.197983 -0.521807 0)
(-0.0213158 -0.217021 0)
(-0.205094 -0.170301 0)
(-0.357642 -0.152016 0)
(-0.483068 -0.157211 0)
(-0.59899 -0.178623 0)
(-0.710452 -0.208795 0)
(-0.823816 -0.238628 0)
(-0.938129 -0.257055 0)
(-1.04505 -0.252861 0)
(-1.13008 -0.219233 0)
(-1.17963 -0.15702 0)
(-1.18871 -0.0740667 0)
(-1.16396 0.0175005 0)
(-1.11869 0.106689 0)
(-1.06341 0.189559 0)
(-1.0015 0.268658 0)
(-0.933071 0.346287 0)
(-0.856084 0.422569 0)
(-0.768472 0.495008 0)
(-0.101997 -0.889323 0)
(0.0978751 -1.34772 0)
(0.080928 -1.21967 0)
(0.22788 -0.593748 0)
(0.0577642 0.00355987 0)
(-0.209024 0.0163046 0)
(-0.378566 -0.00166175 0)
(-0.518479 -0.0299439 0)
(-0.639336 -0.0644841 0)
(-0.74663 -0.10107 0)
(-0.846438 -0.134413 0)
(-0.939242 -0.15769 0)
(-1.02146 -0.164832 0)
(-1.08671 -0.152663 0)
(-1.12829 -0.121745 0)
(-1.14144 -0.0750347 0)
(-1.12556 -0.0162498 0)
(-1.08488 0.0507927 0)
(-1.02682 0.121954 0)
(-0.958018 0.194148 0)
(-0.881885 0.26593 0)
(-0.799425 0.335359 0)
(-0.71021 0.399567 0)
(0.0297742 -0.930122 0)
(0.213282 -1.47867 0)
(0.215659 -1.24221 0)
(0.194815 -0.533242 0)
(0.0379005 0.231825 0)
(-0.253618 0.22515 0)
(-0.427452 0.163483 0)
(-0.57393 0.104446 0)
(-0.694534 0.0496287 0)
(-0.796747 -0.000792601 0)
(-0.885387 -0.0449716 0)
(-0.961547 -0.0796586 0)
(-1.02389 -0.101692 0)
(-1.06875 -0.108362 0)
(-1.09235 -0.0993741 0)
(-1.09245 -0.0763751 0)
(-1.06951 -0.0415638 0)
(-1.02644 0.00355668 0)
(-0.967594 0.0579595 0)
(-0.897655 0.119214 0)
(-0.820255 0.183673 0)
(-0.737543 0.247475 0)
(-0.650481 0.306928 0)
(0.11749 -1.06974 0)
(0.187178 -1.61234 0)
(0.234634 -1.18524 0)
(0.112383 -0.398386 0)
(-0.0543396 0.427653 0)
(-0.327877 0.434302 0)
(-0.492391 0.332864 0)
(-0.643642 0.241019 0)
(-0.764865 0.160744 0)
(-0.863325 0.090821 0)
(-0.942332 0.0313672 0)
(-1.00451 -0.017522 0)
(-1.05031 -0.0549909 0)
(-1.07833 -0.0806668 0)
(-1.08638 -0.0939197 0)
(-1.07189 -0.0940743 0)
(-1.03483 -0.0800926 0)
(-0.979059 -0.0512026 0)
(-0.910662 -0.0085241 0)
(-0.835068 0.0446281 0)
(-0.755536 0.103628 0)
(-0.673627 0.163559 0)
(-0.589876 0.220062 0)
(0.120025 -1.21086 0)
(0.099759 -1.68023 0)
(0.100917 -1.07055 0)
(0.0144534 -0.253065 0)
(-0.161852 0.643971 0)
(-0.404855 0.631427 0)
(-0.556927 0.499949 0)
(-0.710047 0.378767 0)
(-0.833672 0.271784 0)
(-0.935084 0.178114 0)
(-1.01307 0.0976859 0)
(-1.06812 0.0299181 0)
(-1.10155 -0.0253119 0)
(-1.11462 -0.0691236 0)
(-1.10704 -0.102489 0)
(-1.07706 -0.1251 0)
(-1.02339 -0.133286 0)
(-0.949888 -0.121353 0)
(-0.865594 -0.0874454 0)
(-0.779082 -0.0371348 0)
(-0.694442 0.0212089 0)
(-0.612323 0.0809177 0)
(-0.531882 0.137203 0)
(0.0929294 -1.29264 0)
(0.0294156 -1.67198 0)
(0.00303215 -0.947751 0)
(-0.0504566 -0.11885 0)
(-0.225989 0.850434 0)
(-0.455657 0.815568 0)
(-0.603395 0.662557 0)
(-0.755873 0.518466 0)
(-0.881288 0.388398 0)
(-0.989528 0.270925 0)
(-1.07542 0.165586 0)
(-1.13622 0.0726969 0)
(-1.17005 -0.0070116 0)
(-1.17739 -0.0734836 0)
(-1.15853 -0.12841 0)
(-1.11214 -0.173736 0)
(-1.03631 -0.205363 0)
(-0.936238 -0.211207 0)
(-0.827579 -0.183048 0)
(-0.72537 -0.129133 0)
(-0.634 -0.0646095 0)
(-0.551824 0.000308641 0)
(-0.475797 0.0599795 0)
(0.0905257 -1.32362 0)
(-0.00449996 -1.6473 0)
(-0.00618741 -0.865673 0)
(-0.060831 -0.0533144 0)
(-0.249164 1.0466 0)
(-0.480329 0.996762 0)
(-0.627724 0.820561 0)
(-0.778223 0.657629 0)
(-0.903112 0.510311 0)
(-1.01585 0.374455 0)
(-1.11059 0.24676 0)
(-1.18383 0.126771 0)
(-1.23062 0.0167481 0)
(-1.24793 -0.0804804 0)
(-1.23397 -0.165826 0)
(-1.18161 -0.242436 0)
(-1.08151 -0.305469 0)
(-0.939578 -0.332449 0)
(-0.789041 -0.303062 0)
(-0.664411 -0.233473 0)
(-0.567719 -0.153688 0)
(-0.487473 -0.0773501 0)
(-0.418256 -0.00986209 0)
(0.115905 -1.35971 0)
(-0.0136911 -1.62257 0)
(0.0198319 -0.822347 0)
(-0.0517761 0.0741361 0)
(-0.262115 1.2558 0)
(-0.493835 1.18008 0)
(-0.642275 0.974762 0)
(-0.792779 0.793794 0)
(-0.919144 0.6325 0)
(-1.03384 0.483314 0)
(-1.1305 0.339481 0)
(-1.2078 0.19789 0)
(-1.26228 0.0597508 0)
(-1.29145 -0.0712127 0)
(-1.29164 -0.195772 0)
(-1.24585 -0.320718 0)
(-1.12652 -0.440519 0)
(-0.935875 -0.509158 0)
(-0.733738 -0.468433 0)
(-0.580647 -0.352458 0)
(-0.483474 -0.241113 0)
(-0.413147 -0.148267 0)
(-0.354958 -0.0698081 0)
(0.120757 -1.41682 0)
(-0.0196881 -1.5941 0)
(0.0437577 -0.809788 0)
(-0.0391637 0.221662 0)
(-0.280282 1.47914 0)
(-0.508317 1.36443 0)
(-0.660512 1.12892 0)
(-0.818061 0.931553 0)
(-0.954881 0.75555 0)
(-1.07672 0.589903 0)
(-1.17243 0.42778 0)
(-1.23837 0.26617 0)
(-1.27196 0.104748 0)
(-1.2758 -0.0550486 0)
(-1.25292 -0.219936 0)
(-1.18727 -0.408567 0)
(-1.03687 -0.618032 0)
(-0.812864 -0.750132 0)
(-0.613411 -0.681619 0)
(-0.455432 -0.479986 0)
(-0.363332 -0.314158 0)
(-0.322721 -0.202726 0)
(-0.283578 -0.114715 0)
(0.0953675 -1.47549 0)
(-0.0270137 -1.55763 0)
(0.0317231 -0.807281 0)
(-0.0331161 0.356214 0)
(-0.327789 1.69895 0)
(-0.529728 1.54775 0)
(-0.682892 1.28855 0)
(-0.852328 1.08058 0)
(-1.00778 0.889169 0)
(-1.14548 0.699758 0)
(-1.24689 0.505027 0)
(-1.29874 0.305763 0)
(-1.28904 0.107688 0)
(-1.22156 -0.0862523 0)
(-1.11397 -0.286514 0)
(-0.972027 -0.522902 0)
(-0.762446 -0.79569 0)
(-0.533531 -0.951877 0)
(-0.395815 -0.868179 0)
(-0.280344 -0.604925 0)
(-0.205846 -0.348861 0)
(-0.215067 -0.223345 0)
(-0.206913 -0.13725 0)
(0.0561532 -1.5152 0)
(-0.0302885 -1.51331 0)
(-0.0627786 -0.794014 0)
(-0.0826808 0.599233 0)
(-0.424025 1.902 0)
(-0.546268 1.71576 0)
(-0.688477 1.45139 0)
(-0.857723 1.24402 0)
(-1.02438 1.03768 0)
(-1.17802 0.81436 0)
(-1.29247 0.568497 0)
(-1.34247 0.305867 0)
(-1.30679 0.0359004 0)
(-1.18405 -0.229717 0)
(-0.995699 -0.481057 0)
(-0.771958 -0.732082 0)
(-0.512869 -0.987028 0)
(-0.287934 -1.1044 0)
(-0.211522 -0.991846 0)
(-0.103217 -0.727851 0)
(-0.0612577 -0.341567 0)
(-0.105332 -0.197686 0)
(-0.137705 -0.132082 0)
(0.0196004 -1.49512 0)
(-0.0884639 -1.46541 0)
(-0.221458 -0.70853 0)
(-0.202742 0.872876 0)
(-0.498262 2.03557 0)
(-0.524329 1.84536 0)
(-0.638561 1.59873 0)
(-0.779092 1.40545 0)
(-0.926634 1.19494 0)
(-1.06776 0.949889 0)
(-1.17352 0.656039 0)
(-1.2183 0.311111 0)
(-1.18686 -0.0626314 0)
(-1.06832 -0.432654 0)
(-0.879037 -0.766707 0)
(-0.640498 -1.0382 0)
(-0.370731 -1.2306 0)
(-0.137206 -1.25561 0)
(-0.103155 -1.09585 0)
(-0.00375612 -0.805219 0)
(-0.00209046 -0.340681 0)
(-0.0320646 -0.141441 0)
(-0.0940722 -0.10595 0)
(-0.0156715 -1.39871 0)
(-0.227993 -1.37321 0)
(-0.360219 -0.617123 0)
(-0.306479 1.07703 0)
(-0.479787 2.06583 0)
(-0.429908 1.9192 0)
(-0.500089 1.7036 0)
(-0.581388 1.52881 0)
(-0.667582 1.31642 0)
(-0.74491 1.04777 0)
(-0.795441 0.702383 0)
(-0.805709 0.298681 0)
(-0.785544 -0.123876 0)
(-0.70956 -0.567524 0)
(-0.609291 -0.985275 0)
(-0.439149 -1.32815 0)
(-0.236825 -1.4611 0)
(-0.031986 -1.37878 0)
(-0.0365589 -1.16911 0)
(0.0126791 -0.825774 0)
(-0.024837 -0.351005 0)
(-0.0414079 -0.0906424 0)
(-0.0807403 -0.0778284 0)
(-0.0548412 -1.21854 0)
(-0.356352 -1.2207 0)
(-0.468255 -0.546757 0)
(-0.318458 1.12782 0)
(-0.370208 2.00971 0)
(-0.254256 1.93644 0)
(-0.269207 1.74358 0)
(-0.277333 1.58084 0)
(-0.277275 1.36057 0)
(-0.281352 1.07844 0)
(-0.265328 0.725129 0)
(-0.229414 0.325042 0)
(-0.18077 -0.106876 0)
(-0.147009 -0.58219 0)
(-0.136824 -1.04757 0)
(-0.104059 -1.47112 0)
(-0.0501521 -1.60912 0)
(0.0690955 -1.42501 0)
(0.0154919 -1.16314 0)
(-0.0388245 -0.780547 0)
(-0.0972282 -0.302113 0)
(-0.103817 -0.0716662 0)
(-0.0890988 -0.0686083 0)
(-0.0809003 -0.981913 0)
(-0.428296 -1.03183 0)
(-0.549866 -0.503553 0)
(-0.283375 0.982464 0)
(-0.20753 1.89108 0)
(-0.0201735 1.883 0)
(0.0321766 1.7181 0)
(0.0948828 1.55249 0)
(0.175924 1.32996 0)
(0.228513 1.04428 0)
(0.308923 0.695287 0)
(0.377822 0.305663 0)
(0.423033 -0.112352 0)
(0.452108 -0.547808 0)
(0.434912 -0.997918 0)
(0.3363 -1.42583 0)
(0.20381 -1.59292 0)
(0.164641 -1.37834 0)
(0.0461558 -1.08299 0)
(-0.110031 -0.68794 0)
(-0.160895 -0.256054 0)
(-0.129501 -0.0952332 0)
(-0.0921861 -0.0845595 0)
(-0.0827706 -0.729005 0)
(-0.427194 -0.823735 0)
(-0.599847 -0.488409 0)
(-0.260654 0.716281 0)
(-0.0120365 1.69899 0)
(0.234736 1.75226 0)
(0.367699 1.62783 0)
(0.491784 1.45011 0)
(0.619051 1.22307 0)
(0.739132 0.949939 0)
(0.867033 0.622705 0)
(0.977963 0.261355 0)
(1.04651 -0.11772 0)
(1.05977 -0.507561 0)
(1.00364 -0.896743 0)
(0.814425 -1.25197 0)
(0.531097 -1.38936 0)
(0.28621 -1.25 0)
(0.103807 -0.952401 0)
(-0.0754109 -0.561897 0)
(-0.128615 -0.243067 0)
(-0.0970237 -0.137588 0)
(-0.0736503 -0.105861 0)
(-0.067364 -0.504843 0)
(-0.329105 -0.582431 0)
(-0.600149 -0.490952 0)
(-0.438379 0.174412 0)
(0.142884 1.37915 0)
(0.483261 1.55216 0)
(0.713159 1.48804 0)
(0.890742 1.30784 0)
(1.05473 1.05818 0)
(1.2222 0.768592 0)
(1.39592 0.450411 0)
(1.54907 0.128257 0)
(1.64828 -0.166331 0)
(1.65302 -0.452323 0)
(1.5371 -0.735675 0)
(1.25782 -0.974565 0)
(0.854008 -1.06418 0)
(0.488871 -0.988679 0)
(0.217828 -0.740114 0)
(0.0133737 -0.422647 0)
(-0.0425444 -0.227414 0)
(-0.0403564 -0.156917 0)
(-0.0438876 -0.113518 0)
(-0.0536651 -0.346243 0)
(-0.20108 -0.344125 0)
(-0.45448 -0.31538 0)
(-0.492453 -0.0443038 0)
(-0.0567074 0.646552 0)
(0.521327 1.14233 0)
(0.905426 1.25977 0)
(1.17678 1.14654 0)
(1.41057 0.89917 0)
(1.64033 0.591436 0)
(1.87193 0.278391 0)
(2.07168 0.00741231 0)
(2.17952 -0.203859 0)
(2.14472 -0.370249 0)
(1.93971 -0.498572 0)
(1.5622 -0.592945 0)
(1.07765 -0.654977 0)
(0.650811 -0.640651 0)
(0.311398 -0.479024 0)
(0.108277 -0.285689 0)
(0.043303 -0.19062 0)
(0.00649193 -0.139864 0)
(-0.0150467 -0.104889 0)
(-0.0396943 -0.242942 0)
(-0.117286 -0.21329 0)
(-0.236124 -0.158322 0)
(-0.391753 -0.0667911 0)
(-0.288483 0.176574 0)
(0.12528 0.547601 0)
(0.552015 0.781459 0)
(0.886206 0.782407 0)
(1.15849 0.606857 0)
(1.43571 0.353067 0)
(1.72219 0.0675399 0)
(2.00004 -0.155219 0)
(2.1828 -0.231616 0)
(2.18938 -0.211103 0)
(1.99181 -0.141614 0)
(1.60707 -0.104826 0)
(1.12152 -0.175214 0)
(0.694138 -0.24509 0)
(0.352411 -0.201922 0)
(0.169345 -0.148088 0)
(0.0851925 -0.12089 0)
(0.031749 -0.101535 0)
(0.0042979 -0.0867342 0)
(-0.0213042 -0.177897 0)
(-0.0656693 -0.14778 0)
(-0.104453 -0.0776541 0)
(-0.123215 0.0199308 0)
(-0.170863 0.138078 0)
(-0.11383 0.306174 0)
(0.140992 0.49096 0)
(0.37577 0.477159 0)
(0.606325 0.274573 0)
(0.842377 -0.0514542 0)
(1.10207 -0.371408 0)
(1.41643 -0.511802 0)
(1.69557 -0.425899 0)