/*--------------------------------*- C++ -*----------------------------------*\
| =========                 |                                                 |
| \\      /  F ield         | OpenFOAM: The Open Source CFD Toolbox           |
|  \\    /   O peration     | Version:  2.3.0                                 |
|   \\  /    A nd           | Web:      www.OpenFOAM.org                      |
|    \\/     M anipulation  |                                                 |
\*---------------------------------------------------------------------------*/
FoamFile
{
    version     2.0;
    format      ascii;
    class       volScalarField;
    location    "2.35";
    object      alpha.water;
}
// * * * * * * * * * * * * * * * * * * * * * * * * * * * * * * * * * * * * * //

dimensions      [0 0 0 0 0 0 0];

internalField   nonuniform List<scalar> 
2268
(
1
1
1
1
1
1
1
0.999999
1
1
0.999999
0.999999
0.999999
0.999996
0.999998
0.999999
0.999999
0.998687
0.986498
0.985397
0.998493
0.994741
0.993579
1
1
1
1
1
0.999999
0.999999
0.999998
0.999999
0.999999
0.999998
0.999997
0.999998
0.999996
0.999998
1
1
0.996693
0.978958
0.980918
0.998813
0.998848
0.998156
1
1
1
1
1
0.999999
0.999999
0.999999
0.999998
0.999999
0.999998
0.999998
0.999999
0.999999
0.999999
1
1
0.999069
0.978968
0.978931
0.983503
0.999292
0.999951
1
1
1
1
1
0.999999
1
0.999999
0.999998
0.999998
0.999999
0.999999
1
1
0.999999
1
1
1
0.995347
0.978962
0.978931
0.991905
0.999955
1
1
1
1
1
0.999999
0.999999
0.999999
0.999999
0.999999
0.999999
0.999999
1
1
1
1
1
1
0.999922
0.984188
0.978966
0.990628
0.999959
1
1
1
1
1
0.999999
0.999999
0.999999
0.999999
0.999999
0.999999
0.999999
1
1
1
1
1
1
1
0.999259
0.994502
0.999029
0.999971
1
1
1
1
1
1
0.999999
0.999999
0.999999
0.999999
0.999999
0.999999
0.999999
1
1
1
1
1
0.999999
0.999999
0.999999
0.999999
0.999998
1
1
1
1
1
1
1
1
1
1
1
1
1
1
1
1
1
1
1
0.999999
0.999998
0.999999
0.999999
0.946299
0.946299
0.954192
0.963477
0.949782
0.940344
0.932977
0.918225
0.918225
0.98006
0.994709
0.994709
0.982372
0.963579
0.962334
0.962823
0.962823
0.962299
0.962296
0.946299
0.968425
0.996733
0.9967
0.99666
0.996615
0.996569
0.96834
0.918225
0.948114
0.99471
0.99468
0.960459
0.903138
0.91827
0.956691
0.953269
0.98452
0.97813
0.950134
0.992666
0.996785
0.996728
0.996647
0.996597
0.996554
0.996435
0.949635
0.920547
0.971802
0.990164
0.921816
0.902859
0.903313
0.903393
0.946328
0.992785
0.992784
0.952038
0.996839
0.996847
0.99618
0.996142
0.996548
0.996515
0.99644
0.955095
0.920547
0.920547
0.967551
0.903507
0.90333
0.903505
0.911964
0.992793
0.992793
0.992783
0.958988
0.996912
0.997011
0.996349
0.996104
0.99582
0.996479
0.996265
0.969566
0.920547
0.938731
0.986187
0.934783
0.903516
0.903642
0.944201
0.992726
0.992748
0.992667
0.982836
0.996828
0.997068
0.997166
0.997158
0.994854
0.989753
0.990175
0.990417
0.979732
0.99272
0.994558
0.975938
0.909293
0.910773
0.983336
0.992709
0.992803
0.992687
0.989641
0.996591
0.996555
0.997166
0.997166
0.997114
0.972758
0.949985
0.993874
0.994469
0.99461
0.994614
0.99459
0.988833
0.986057
0.992525
0.992642
0.993348
0.993345
0.980808
0.994054
0.997204
0.997219
0.997166
0.997095
0.979238
0.830708
0.808737
0.979626
0.994612
0.99461
0.994613
0.99459
0.985777
0.974821
0.992533
0.992763
0.992896
1
1
1
1
1
1
1
1
1
1
1
1
1
1
1
1
1
1
1
1
1
1
0.999999
0.864092
0.865555
0.861992
0.855068
0.844931
0.832823
0.818603
0.803277
0.786779
0.769401
0.754068
0.742045
0.733617
0.729449
0.731049
0.741184
0.760122
0.788333
0.824774
0.864858
0.909963
0.966293
0.999992
0.134709
0.13543
0.134279
0.131124
0.124841
0.115951
0.104624
0.090168
0.0750765
0.0636591
0.0534931
0.0456977
0.0408093
0.0377059
0.0369425
0.038926
0.0491159
0.0666216
0.0928171
0.136207
0.215821
0.395791
0.740778
0.00280782
0.00286185
0.00322336
0.00253517
0.00232723
0.00198891
0.00173994
0.00153955
0.00151386
0.00152523
0.00151401
0.00152523
0.00156867
0.00166144
0.00176247
0.00189532
0.002434
0.00347685
0.00491499
0.00716577
0.0088867
0.00866788
0.0875828
0.00262867
0.00597134
0.007363
0.00735243
0.007355
0.00447055
0.00196011
0.00645368
0.0103246
0.0103363
0.0103246
0.0102646
0.00536554
0.00237858
0.0163755
0.0184218
0.0183976
0.0154632
0.0156355
0.0152949
0.00702324
0.00438329
0.0041213
0.00194164
0.00143305
0.000562293
0.000994303
0.00334671
0.00470503
0.00469293
0.00327379
0.00209003
0.00237046
0.00410023
0.00521422
0.0036096
0.00643318
0.0184167
0.0184161
0.0184223
0.0183976
0.0183312
0.0180374
0.00527621
0.00405833
0.004202
0.000187075
1.28164e-06
2.49127e-06
3.51035e-06
9.68429e-05
0.000527872
0.000698779
0.000248945
0.000268899
0.000291338
0.000320285
0.000505908
0.000714331
0.00259078
0.00279988
0.00171591
0.00757121
0.0182665
0.0181363
0.0113218
0.00423626
0.00421855
0.00421796
1.26387e-06
2.08795e-07
1.98514e-06
2.88891e-06
1.59288e-06
2.78102e-06
8.04791e-06
2.71505e-05
0.000269696
0.0014616
0.00154185
0.00081299
0.000389081
0.000278261
0.000262073
0.000272552
0.00030567
0.00180772
0.010967
0.0140808
0.0141196
0.00931208
0.00421807
1.4174e-07
6.69067e-08
1.925e-06
3.38922e-06
1.32664e-06
1.71698e-06
3.17836e-06
8.04845e-06
0.000376305
0.00154185
0.00154185
0.00154185
0.00101503
0.000262773
0.000253317
0.000256889
0.000273546
0.000315276
0.00112073
0.0100842
0.0137371
0.013444
0.0123145
2.02579e-08
3.06302e-08
1.97095e-06
2.75183e-06
7.88928e-07
4.34059e-06
1.05829e-05
1.4683e-05
9.09478e-05
0.000278572
0.000775525
0.0015028
0.0014515
0.00092498
0.000254328
0.000253317
0.000290862
0.000525785
5.92226e-05
1.09604e-06
0.000598346
0.00177104
0.00185806
6.73684e-09
1.59188e-08
8.93282e-07
1.20986e-06
2.29271e-07
4.40552e-06
9.77148e-06
6.65427e-06
6.20697e-07
1.17552e-06
6.14235e-06
0.000235391
0.000847005
0.000964322
0.000455613
0.000256951
0.000744077
0.000749513
0.000355707
2.11026e-07
2.11543e-07
1.73018e-07
1.29254e-07
4.95243e-09
5.2161e-09
5.00362e-09
9.51482e-09
4.08728e-08
8.28727e-07
9.27205e-07
5.37294e-08
6.36515e-08
1.0827e-07
2.1255e-07
7.14081e-07
1.51706e-05
0.000150641
0.000201072
0.00040815
0.000749513
0.000749513
0.000745993
1.09604e-06
2.66672e-06
4.59259e-06
1.49399e-05
4.06219e-09
1.11493e-09
1.26236e-09
2.39653e-09
3.07123e-09
7.47797e-09
1.11109e-08
6.4138e-09
6.86692e-09
1.0447e-08
1.9243e-08
5.85377e-08
1.6406e-07
4.68317e-07
1.21097e-06
0.000174774
0.000620104
0.000718831
0.000365122
3.23527e-06
3.52804e-06
5.75417e-05
9.857e-05
3.3328e-08
7.32832e-10
8.25161e-10
1.70335e-09
2.22996e-09
2.70543e-09
2.41941e-09
1.35445e-09
1.12567e-09
1.32677e-09
2.82261e-09
7.17558e-09
1.26814e-08
3.50608e-08
8.58249e-08
7.14033e-06
3.77784e-05
7.0671e-05
5.40642e-06
5.59169e-07
3.55375e-09
5.47864e-05
9.90695e-05
5.33447e-08
7.11722e-10
1.25637e-09
1.6885e-09
2.21956e-09
2.12232e-09
1.48671e-09
8.08318e-10
5.65188e-10
4.86576e-10
1.32199e-09
2.13818e-09
1.15316e-09
2.63392e-09
5.4581e-09
4.22547e-08
1.01283e-07
1.05794e-07
2.57241e-08
1.01373e-08
4.60002e-10
2.12556e-06
9.27604e-05
5.34759e-08
7.0373e-10
1.37101e-09
1.75552e-09
2.16977e-09
2.06258e-09
1.433e-09
7.2434e-10
5.04538e-10
3.91255e-10
1.08615e-09
1.0499e-09
2.89334e-10
3.39449e-10
4.83251e-10
2.59756e-09
4.53504e-09
5.01483e-09
1.25816e-09
2.23804e-10
2.55866e-10
3.33801e-10
1.73861e-05
5.35062e-08
7.11449e-10
1.24415e-09
1.51556e-09
1.83748e-09
1.83124e-09
1.47882e-09
8.63266e-10
5.17445e-10
3.80265e-10
5.16604e-10
3.12188e-10
1.83046e-10
1.69005e-10
1.58969e-10
2.70484e-10
3.86661e-10
3.46999e-10
1.5022e-10
8.77287e-11
2.32734e-10
2.54622e-10
6.41615e-06
5.35236e-08
1.50738e-08
1.77482e-09
1.14368e-09
1.26177e-09
1.29753e-09
1.24927e-09
8.87675e-10
5.66766e-10
3.76075e-10
2.76243e-10
2.01247e-10
1.71934e-10
1.45482e-10
1.29413e-10
1.27629e-10
1.21576e-10
1.25658e-10
9.98609e-11
7.23718e-11
8.13023e-11
3.23876e-07
1.55774e-07
5.35236e-08
2.84775e-08
5.81152e-09
1.11718e-09
1.17166e-09
1.17494e-09
9.48239e-10
8.19469e-10
5.63351e-10
3.82612e-10
2.76038e-10
2.00625e-10
1.59331e-10
1.37647e-10
1.24501e-10
1.09897e-10
9.7367e-11
1.02981e-10
1.0291e-10
6.62637e-11
9.32778e-11
3.29169e-07
2.44498e-07
3.69298e-08
1.29163e-08
5.11757e-09
1.10445e-09
1.22361e-09
1.2614e-09
9.86349e-10
7.31849e-10
5.41128e-10
3.77826e-10
2.69147e-10
1.94101e-10
1.48192e-10
1.20978e-10
1.04176e-10
9.81363e-11
9.41571e-11
9.92486e-11
8.93161e-11
4.95108e-11
1.36474e-09
3.77516e-08
2.32911e-08
2.67643e-09
1.36324e-09
1.26278e-09
1.09675e-09
1.10263e-09
1.22811e-09
1.16104e-09
7.76079e-10
5.24241e-10
3.67419e-10
2.58939e-10
1.86872e-10
1.40252e-10
1.09923e-10
8.94201e-11
7.69258e-11
6.88553e-11
6.81686e-11
6.26963e-11
4.93262e-11
2.01365e-09
1.61545e-10
4.53055e-11
1.47273e-09
1.12722e-09
1.09644e-09
1.09863e-09
1.0979e-09
1.10764e-09
1.14605e-09
9.07557e-10
5.52243e-10
3.60786e-10
2.4982e-10
1.76932e-10
1.29939e-10
9.85032e-11
7.63846e-11
6.06677e-11
4.96697e-11
4.39778e-11
3.90616e-11
4.46299e-11
2.91823e-10
1.2649e-10
3.99632e-11
1.19924e-05
2.40476e-05
1.58085e-05
1.16317e-06
1.10272e-09
1.24116e-09
1.33308e-09
9.27215e-10
5.95539e-10
3.57165e-10
2.43013e-10
1.65794e-10
1.16671e-10
8.43405e-11
6.21837e-11
4.64561e-11
3.53597e-11
2.81593e-11
2.30782e-11
2.64165e-11
2.87722e-11
2.44425e-11
1.83883e-11
3.03358e-05
3.05609e-05
3.03122e-05
6.6843e-06
4.07935e-09
4.09304e-09
1.57926e-09
8.70338e-10
6.21318e-10
3.72313e-10
2.42935e-10
1.56926e-10
1.02901e-10
6.9554e-11
4.83187e-11
3.42194e-11
2.46575e-11
1.82063e-11
1.37398e-11
1.24182e-11
1.11008e-11
8.83785e-12
6.36123e-12
3.05609e-05
3.04473e-05
2.98522e-05
6.15401e-06
4.61838e-09
2.92699e-09
9.74366e-10
7.4491e-10
6.0348e-10
3.88926e-10
2.01755e-10
1.32507e-10
8.55087e-11
5.51459e-11
3.63987e-11
2.45697e-11
1.68919e-11
1.17963e-11
8.33381e-12
6.22612e-12
4.67906e-12
3.35832e-12
2.30905e-12
7.09866e-06
2.0415e-05
6.41362e-06
2.09054e-06
6.02684e-08
4.20682e-10
3.52777e-10
4.78513e-10
4.44643e-10
2.95581e-10
1.47528e-10
9.99956e-11
6.3211e-11
3.98016e-11
2.54248e-11
1.65288e-11
1.0899e-11
7.25344e-12
4.84687e-12
3.26841e-12
2.19659e-12
1.45034e-12
9.40031e-13
3.18112e-08
3.89382e-07
2.61408e-08
7.38572e-09
4.59007e-08
4.27582e-09
2.15808e-10
2.08666e-10
1.83961e-10
1.31995e-10
9.63703e-11
6.3043e-11
3.95453e-11
2.45692e-11
1.53485e-11
9.67042e-12
6.12918e-12
3.8908e-12
2.46273e-12
1.55059e-12
9.66693e-13
5.943e-13
3.60309e-13
2.51977e-09
6.23294e-09
2.03659e-09
5.78653e-10
2.35998e-09
1.39429e-09
2.2627e-10
1.04747e-10
9.39713e-11
7.47258e-11
5.14485e-11
3.30185e-11
2.04342e-11
1.24788e-11
7.59759e-12
4.6207e-12
2.80149e-12
1.68765e-12
1.00673e-12
5.93028e-13
3.44065e-13
1.96082e-13
1.10609e-13
2.41329e-10
4.77031e-10
2.15408e-10
8.31351e-11
4.6303e-11
1.09797e-10
7.78553e-11
6.23218e-11
4.84263e-11
3.45569e-11
2.28004e-11
1.42152e-11
8.57397e-12
5.07995e-12
2.97636e-12
1.72642e-12
9.89809e-13
5.59491e-13
3.10953e-13
1.69505e-13
9.04434e-14
4.72321e-14
2.46227e-14
3.94079e-11
6.45904e-11
3.79231e-11
3.28465e-11
3.26111e-11
3.56515e-11
3.40246e-11
2.69289e-11
1.95217e-11
1.31415e-11
8.27346e-12
4.95462e-12
2.86845e-12
1.62182e-12
8.99414e-13
4.89485e-13
2.61033e-13
1.36076e-13
6.91484e-14
3.4155e-14
1.63366e-14
7.72784e-15
3.75837e-15
2.05063e-11
2.25567e-11
2.35065e-11
2.51975e-11
2.08044e-11
1.65026e-11
1.2743e-11
9.34092e-12
6.37839e-12
4.05307e-12
2.41937e-12
1.37496e-12
7.52449e-13
3.99204e-13
2.05856e-13
1.03145e-13
5.01106e-14
2.35265e-14
1.06282e-14
4.59746e-15
1.91423e-15
8.35559e-16
4.84031e-16
1.23411e-11
2.01052e-11
1.27012e-11
9.0621e-12
6.60623e-12
5.07038e-12
3.75197e-12
2.60245e-12
1.67306e-12
1.00065e-12
5.62085e-13
2.9963e-13
1.52774e-13
7.48142e-14
3.52143e-14
1.5901e-14
6.86e-15
2.80981e-15
1.08316e-15
3.88866e-16
1.47688e-16
9.39575e-17
1.76201e-16
2.81446e-12
4.71186e-12
3.21771e-12
2.29506e-12
1.68644e-12
1.25181e-12
8.8321e-13
5.7811e-13
3.49244e-13
1.95765e-13
1.02669e-13
5.07651e-14
2.37827e-14
1.05727e-14
4.45231e-15
1.7674e-15
6.5577e-16
2.24452e-16
6.9745e-17
2.19901e-17
1.5984e-17
4.21907e-17
1.50712e-16
5.05079e-13
9.06857e-13
6.51043e-13
4.698e-13
3.43748e-13
2.46298e-13
1.65194e-13
1.01884e-13
5.76916e-14
3.01555e-14
1.46458e-14
6.64226e-15
2.81851e-15
1.1172e-15
4.11413e-16
1.3933e-16
4.26673e-17
1.15353e-17
2.93383e-18
2.28265e-18
7.67923e-18
3.18244e-17
1.27055e-16
7.24202e-14
1.41075e-13
1.05583e-13
7.71549e-14
5.57982e-14
3.85064e-14
2.45149e-14
1.42256e-14
7.52657e-15
3.64758e-15
1.62626e-15
6.68373e-16
2.52836e-16
8.75284e-17
2.7423e-17
7.62933e-18
1.82889e-18
3.86536e-19
2.51058e-19
9.80332e-19
4.67675e-18
2.12864e-17
9.18464e-17
8.38325e-15
1.77385e-14
1.37838e-14
1.01674e-14
7.22983e-15
4.79625e-15
2.89519e-15
1.57775e-15
7.76957e-16
3.46806e-16
1.40544e-16
5.16288e-17
1.70902e-17
5.03897e-18
1.29741e-18
2.82337e-19
5.08607e-20
1.97501e-20
7.99801e-20
4.44339e-19
2.33735e-18
1.15654e-17
5.42262e-17
7.91083e-16
1.81504e-15
1.45895e-15
1.08157e-15
7.53141e-16
4.79513e-16
2.74106e-16
1.39947e-16
6.38491e-17
2.60514e-17
9.48818e-18
3.0657e-18
8.683e-19
2.11271e-19
4.27241e-20
6.85468e-21
1.2748e-21
3.67163e-21
2.42284e-20
1.51883e-19
8.83841e-19
4.81383e-18
2.48157e-17
6.15653e-17
1.52785e-16
1.26541e-16
9.38669e-17
6.38087e-17
3.8937e-17
2.10494e-17
1.00412e-17
4.22276e-18
1.56189e-18
5.04855e-19
1.40862e-19
3.32327e-20
6.41296e-21
9.60025e-22
1.11617e-22
8.25488e-23
6.20071e-22
4.87475e-21
3.50271e-20
2.3086e-19
1.41363e-18
8.15827e-18
4.00948e-18
1.07251e-17
9.11699e-18
6.74236e-18
4.46475e-18
2.60891e-18
1.33228e-18
5.92253e-19
2.2845e-19
7.59737e-20
2.15195e-20
5.08562e-21
9.70105e-22
1.41644e-22
1.46631e-23
1.5717e-24
5.39687e-24
5.56149e-23
5.35634e-22
4.61075e-21
3.58616e-20
2.56053e-19
1.70672e-18
2.22136e-19
6.36992e-19
5.54119e-19
4.07684e-19
2.62776e-19
1.47027e-19
7.08863e-20
2.93121e-20
1.03314e-20
3.06936e-21
7.54015e-22
1.48474e-22
2.22939e-23
2.35641e-24
1.62852e-25
2.40456e-26
1.27492e-25
1.7554e-24
2.24337e-23
2.5159e-22
2.5068e-21
2.25547e-20
1.86604e-19
1.06088e-20
3.24329e-20
2.88774e-20
2.1143e-20
1.32737e-20
7.11707e-21
3.24098e-21
1.24617e-21
4.00805e-22
1.06099e-22
2.25099e-23
3.6683e-24
4.28955e-25
3.25035e-26
1.66867e-27
2.67364e-28
4.26715e-28
7.63242e-27
1.53851e-25
2.69006e-24
4.12238e-23
5.61847e-22
6.91121e-21
4.36706e-22
1.43294e-21
1.31302e-21
9.5858e-22
5.86887e-22
3.01949e-22
1.30057e-22
4.6575e-23
1.36985e-23
3.24162e-24
5.97289e-25
8.14073e-26
7.58692e-27
4.44855e-28
2.04697e-29
1.68934e-30
2.45121e-31
7.19708e-32
2.33412e-30
1.11229e-28
4.66552e-27
1.75354e-25
6.00948e-24
0.999992
0.999929
0.999094
0.989448
0.999956
0.999926
0.999512
0.99849
0.966371
0.99439
0.999456
0.99929
0.272459
0.427559
0.491624
0.496504
0.00414611
0.00417941
0.00417941
0.00422307
0.0041811
0.00412252
0.0041811
0.00418319
0.00414426
0.00407551
0.00431429
0.00510187
0.00388897
0.0202419
0.0244721
0.0245141
0.00108162
0.00668303
0.0231354
0.0242544
0.00037407
4.90116e-06
1.22078e-07
1.46166e-07
1.13718e-07
1.10604e-07
1.05451e-07
1.21311e-07
1.25166e-07
1.05449e-07
1.0545e-07
1.05299e-07
2.03545e-05
3.11173e-07
1.05454e-07
1.64488e-07
9.88469e-05
4.30171e-05
5.04265e-07
1.77667e-07
9.90695e-05
8.97387e-05
7.01148e-06
2.14826e-07
9.88054e-05
6.77996e-05
3.3453e-06
1.23365e-07
1.33241e-05
1.1444e-05
3.02186e-06
3.62255e-09
4.26546e-09
2.18046e-09
4.6488e-10
5.50595e-09
2.50363e-08
4.6662e-10
1.21343e-10
8.15802e-11
5.56034e-09
2.87733e-10
6.65915e-11
9.60536e-11
4.4836e-11
5.8398e-11
5.85134e-11
5.54768e-11
3.63392e-11
3.16963e-11
2.85602e-11
2.65065e-11
1.54104e-11
1.29701e-11
1.11503e-11
9.97894e-12
5.27051e-12
4.36553e-12
3.66767e-12
3.17584e-12
1.88255e-12
1.53394e-12
1.25597e-12
1.04135e-12
7.44625e-13
5.88629e-13
4.6483e-13
3.67474e-13
2.74881e-13
2.09186e-13
1.58755e-13
1.20202e-13
8.08798e-14
5.90605e-14
4.30795e-14
3.14326e-14
1.72093e-14
1.20855e-14
8.57616e-15
6.2182e-15
2.57468e-15
1.85347e-15
1.45478e-15
1.29591e-15
4.27972e-16
4.56015e-16
5.60783e-16
7.48692e-16
2.4606e-16
3.55254e-16
5.18036e-16
7.56186e-16
2.2691e-16
3.40216e-16
5.07997e-16
7.56001e-16
1.94198e-16
2.95258e-16
4.47497e-16
6.77884e-16
1.42108e-16
2.18951e-16
3.3737e-16
5.2298e-16
8.49456e-17
1.32865e-16
2.09393e-16
3.37109e-16
3.94114e-17
6.2943e-17
1.03222e-16
1.79229e-16
1.31889e-17
2.18921e-17
3.91787e-17
7.97447e-17
2.84989e-18
5.21637e-18
1.14777e-17
3.11232e-17
3.43613e-19
8.38246e-19
2.74198e-18
1.07481e-17
1.93647e-20
9.02709e-20
4.65731e-19
2.81188e-18
1.01116e-22
1.43322e-21
2.00274e-20
3.83419e-19
0.980879
0.99893
0.998897
0.996949
0.995676
0.996296
0.976005
0.746912
0.683508
0.69372
0.828816
0.92804
0.938528
0.910727
0.903543
0.937338
0.991822
0.991973
0.992192
0.998692
0.998982
0.998982
0.997608
0.975435
0.959821
0.968485
0.818767
0.683695
0.683506
0.683711
0.690672
0.696277
0.756527
0.845314
0.884497
0.825468
0.755557
0.785116
0.999214
0.999099
0.979768
0.913286
0.852758
0.830181
0.837917
0.84092
0.841628
0.84009
0.832552
0.757967
0.65054
0.630999
0.508287
0.301855
0.138336
0.102148
0.183956
0.489296
0.45803
0.402414
0.350368
0.303921
0.266563
0.258955
0.36087
0.407097
0.390201
0.316926
0.239229
0.179141
0.0904287
2.79353e-05
2.77502e-05
2.81904e-05
4.87844e-05
0.000123603
0.00438267
0.00544628
0.00624028
0.00662216
0.00642007
0.00633111
0.00444825
0.00202437
0.00155124
0.000918805
0.000344609
7.71298e-05
3.37627e-05
2.80401e-05
2.7454e-05
2.75034e-05
2.77398e-05
2.8193e-05
8.12726e-05
0.00417624
0.0050871
0.00750113
0.00730509
0.00705157
0.00696361
0.00903962
0.013678
0.0138258
0.0140802
0.0124644
0.00567454
7.35245e-05
2.93896e-05
2.64991e-05
2.72071e-05
2.75046e-05
7.42443e-05
0.00025048
0.00780955
0.0173634
0.025288
0.025288
0.0252813
0.0252522
0.0251504
0.0248822
0.0242648
0.0188435
0.00760856
0.00448565
0.000866265
2.55285e-05
2.58062e-05
2.65201e-05
3.00652e-05
0.000191435
0.000254025
0.0244451
0.0240836
0.0230415
0.0225101
0.0205794
0.0163633
0.0118567
0.00715576
0.00149007
2.62783e-05
2.40287e-05
2.4541e-05
0.000648493
2.54047e-05
2.55811e-05
2.5801e-05
0.000102389
0.000216911
0.000219107
0.0170767
0.00231397
0.000123966
2.53026e-05
3.13752e-05
4.24194e-05
4.93778e-05
4.00452e-05
2.94696e-05
2.40403e-05
2.34729e-05
2.40364e-05
2.45484e-05
2.51145e-05
2.54047e-05
0.000100001
0.000159947
0.000156992
4.92761e-05
2.32606e-07
4.76468e-07
6.79119e-06
4.14551e-05
9.42783e-05
0.000120844
0.000149992
0.000163353
0.000174958
0.000123472
2.23616e-05
2.81503e-05
4.59717e-05
2.3923e-05
5.57212e-05
0.000159512
0.000160099
0.000114102
4.30294e-05
2.24222e-07
7.68912e-07
0.00014495
0.00024094
0.000243352
0.000243352
0.000243352
0.000242385
0.000237366
0.000232778
1.99209e-05
1.71058e-05
4.32885e-05
2.24663e-05
0.000125904
0.000158148
0.000159512
2.23179e-05
1.16982e-05
1.20439e-07
2.24526e-07
1.2029e-05
9.65618e-05
0.000188185
0.000243352
0.00022312
0.000113311
0.000176154
0.000214364
3.93248e-05
1.34273e-05
3.72377e-06
1.41512e-05
0.000143065
0.00015737
7.94983e-05
1.16027e-05
1.1496e-05
1.6859e-06
2.42526e-06
2.8177e-06
2.98908e-06
1.57804e-06
5.41357e-05
5.9946e-06
2.56159e-07
4.16241e-07
4.18155e-05
0.000133018
0.000109917
3.77419e-06
3.92794e-06
8.21408e-05
0.000105801
2.17039e-06
1.21834e-05
5.59953e-05
5.82037e-06
2.48622e-05
2.27115e-05
9.00578e-06
7.4938e-07
2.90435e-07
2.41836e-07
1.6511e-07
2.5616e-07
3.86328e-05
0.000133018
0.0001287
7.10969e-06
8.20301e-07
8.12566e-07
3.25603e-08
5.48079e-08
2.30831e-05
6.00107e-05
5.30387e-06
2.85955e-05
2.85815e-05
2.86353e-05
2.24787e-05
3.41603e-06
1.63785e-07
1.35606e-07
1.69235e-07
1.00692e-05
3.81931e-05
2.86045e-05
7.08491e-06
8.86814e-07
9.94822e-07
2.19778e-08
3.25612e-08
2.2058e-05
6.00107e-05
6.89775e-09
2.31311e-05
2.86348e-05
2.86516e-05
2.86348e-05
2.84484e-05
3.653e-06
9.80902e-08
2.32199e-07
6.5188e-08
6.4253e-08
6.51889e-08
6.61253e-08
1.2851e-06
3.16712e-06
2.00699e-08
1.23156e-08
9.57575e-06
6.00088e-05
8.74483e-10
8.82011e-07
2.34832e-05
2.86348e-05
2.86516e-05
2.86053e-05
1.92198e-05
6.7841e-08
6.80813e-08
6.43592e-08
8.34463e-08
6.61258e-08
7.56705e-08
5.99124e-07
2.63438e-06
1.38327e-09
9.88641e-10
2.95425e-06
5.99951e-05
8.24288e-10
5.23383e-11
1.74155e-07
1.59445e-05
2.86024e-05
2.85332e-05
2.2446e-05
2.93181e-07
6.72492e-08
3.84628e-07
1.04492e-06
4.36814e-07
8.54245e-08
3.97237e-08
3.58843e-10
1.3601e-09
2.28963e-10
6.4668e-07
5.99184e-05
7.36173e-11
5.20257e-11
2.76192e-11
2.76191e-11
5.52092e-06
1.48919e-05
3.74455e-06
1.61025e-07
7.21339e-08
1.14368e-06
1.14327e-06
1.14326e-06
4.32048e-07
3.6166e-10
3.57372e-10
4.60808e-10
2.31386e-10
1.37042e-08
5.95436e-05
7.62055e-11
5.46407e-11
4.06022e-11
2.94795e-11
2.63736e-11
2.63501e-11
2.63501e-11
2.4373e-07
9.12723e-08
1.14294e-06
1.14372e-06
1.14276e-06
6.35235e-07
4.94304e-10
3.63242e-10
1.21323e-09
2.50731e-10
2.49239e-10
2.92446e-05
5.05417e-11
4.44583e-11
3.87813e-11
3.7384e-11
3.08215e-11
2.73877e-11
2.66744e-11
2.67205e-11
2.77597e-11
4.03257e-07
1.14277e-06
1.14138e-06
2.48209e-07
4.55555e-09
1.87473e-09
1.86725e-09
2.24972e-10
2.26135e-10
1.40988e-09
2.69594e-11
2.82126e-11
2.85873e-11
2.70114e-11
2.5734e-11
2.60868e-11
2.73078e-11
2.84037e-11
2.83714e-11
2.83658e-11
4.38779e-07
4.18688e-07
1.46272e-07
1.04769e-07
5.9e-08
2.63932e-09
1.59636e-10
1.89029e-10
1.33211e-05
1.03964e-11
1.21282e-11
1.39776e-11
1.5615e-11
1.74708e-11
2.03261e-11
2.41925e-11
2.94351e-11
3.14235e-11
3.09754e-11
2.91321e-11
6.34107e-10
1.62519e-07
1.7967e-07
1.16089e-07
2.36155e-09
1.11349e-10
8.86972e-08
3.56597e-05
3.07122e-12
3.65579e-12
4.81261e-12
6.62298e-12
9.26284e-12
1.29517e-11
1.76304e-11
2.28402e-11
2.88084e-11
2.98658e-11
2.91321e-11
2.86421e-11
1.4141e-08
8.63434e-08
4.94897e-08
3.5425e-09
7.2988e-11
1.20578e-06
3.56597e-05
8.41366e-13
8.90918e-13
1.25071e-12
2.09075e-12
3.71477e-12
6.5484e-12
1.06856e-11
1.56441e-11
2.0493e-11
2.44248e-11
2.69921e-11
2.86412e-11
2.86422e-11
2.87545e-11
2.89982e-11
4.91813e-10
6.818e-11
3.58108e-06
3.5638e-05
2.45421e-13
2.07643e-13
2.77987e-13
5.4966e-13
1.23354e-12
2.67616e-12
5.117e-12
8.4555e-12
1.23425e-11
1.66502e-11
2.14309e-11
2.61461e-11
2.98384e-11
3.28056e-11
3.97049e-11
6.70665e-11
6.79991e-11
4.69649e-06
3.55993e-05
7.09878e-14
5.03488e-14
6.18984e-14
1.40151e-13
3.83557e-13
9.85601e-13
2.16659e-12
4.05169e-12
6.66317e-12
1.02391e-11
1.51951e-11
2.16438e-11
3.05222e-11
4.2122e-11
6.58928e-11
9.18891e-11
6.81787e-11
3.6749e-06
3.55563e-05
1.7864e-14
1.3491e-14
1.9521e-14
4.888e-14
1.42707e-13
3.94858e-13
9.51867e-13
1.97884e-12
3.65225e-12
6.30286e-12
1.03831e-11
1.66998e-11
2.67101e-11
4.10713e-11
7.26203e-11
1.02017e-10
6.88746e-11
7.49003e-07
3.54759e-05
4.44306e-15
6.07042e-15
1.32925e-14
3.36321e-14
8.7945e-14
2.25742e-13
5.40234e-13
1.17346e-12
2.32882e-12
4.34425e-12
7.71141e-12
1.3213e-11
2.21293e-11
3.64002e-11
6.96956e-11
1.06723e-10
8.77542e-11
8.77549e-11
3.51715e-05
2.25904e-15
5.71298e-15
1.47483e-14
3.64098e-14
8.65094e-14
1.9946e-13
4.42961e-13
9.34361e-13
1.86425e-12
3.54922e-12
6.48022e-12
1.14367e-11
1.96735e-11
3.32003e-11
7.10798e-11
1.23076e-10
8.78993e-11
8.8221e-11
1.9344e-05
2.38803e-15
7.17861e-15
1.93619e-14
4.7286e-14
1.07077e-13
2.2996e-13
4.74603e-13
9.44578e-13
1.8144e-12
3.37597e-12
6.10288e-12
1.07895e-11
1.87435e-11
3.20825e-11
7.61897e-11
1.47648e-10
8.86794e-11
9.10972e-11
1.86521e-06
2.95884e-15
1.00575e-14
2.86272e-14
7.00396e-14
1.53249e-13
3.10784e-13
5.99513e-13
1.11702e-12
2.02656e-12
3.60024e-12
6.29805e-12
1.09711e-11
1.90309e-11
3.29639e-11
8.26669e-11
1.64586e-10
8.97954e-11
2.61344e-07
1.61353e-05
3.78721e-15
1.52162e-14
4.66632e-14
1.16043e-13
2.48622e-13
4.81156e-13
8.71393e-13
1.51381e-12
2.56352e-12
4.27936e-12
7.13258e-12
1.21059e-11
2.06819e-11
3.62322e-11
1.19431e-10
1.50613e-10
9.23426e-11
4.42403e-06
2.31683e-05
4.78482e-15
2.3027e-14
7.70811e-14
1.99461e-13
4.30654e-13
8.17634e-13
1.41926e-12
2.32244e-12
3.67029e-12
5.71258e-12
8.97125e-12
1.46061e-11
2.39696e-11
4.16576e-11
1.51095e-10
1.94865e-10
9.54156e-11
5.54515e-06
2.31683e-05
5.63839e-15
3.18336e-14
1.1737e-13
3.25481e-13
7.35375e-13
1.42198e-12
2.4422e-12
3.85075e-12
5.75378e-12
8.3975e-12
1.24129e-11
1.91181e-11
2.94178e-11
4.94389e-11
1.68717e-10
3.35475e-10
9.89394e-11
1.0833e-07
1.63604e-05
5.88542e-15
3.76024e-14
1.54774e-13
4.77382e-13
1.17913e-12
2.41873e-12
4.25343e-12
6.63462e-12
9.54532e-12
1.32435e-11
1.86394e-11
2.72612e-11
3.92479e-11
6.40346e-11
2.57553e-10
4.94287e-10
1.84927e-10
4.77934e-07
4.79253e-10
5.14249e-15
3.63549e-14
1.72122e-13
6.1935e-13
1.75682e-12
3.987e-12
7.43538e-12
1.18167e-11
1.67344e-11
2.23909e-11
3.04401e-11
4.34255e-11
6.0746e-11
9.95489e-11
3.20123e-10
1.01957e-09
8.45633e-10
4.90058e-10
4.78108e-10
3.52413e-15
2.80034e-14
1.59312e-13
7.0272e-13
2.39656e-12
6.21524e-12
1.26296e-11
2.09867e-11
2.99721e-11
3.92777e-11
5.21165e-11
7.53698e-11
1.10784e-10
1.91991e-10
7.17692e-10
1.21247e-09
1.06544e-09
5.74923e-10
1.10741e-09
1.7741e-15
1.68627e-14
1.20554e-13
6.76387e-13
2.88186e-12
8.63626e-12
1.93858e-11
3.43083e-11
5.0541e-11
6.62539e-11
8.63775e-11
1.2622e-10
2.06739e-10
4.42087e-10
9.8384e-10
1.21262e-09
8.34537e-10
4.36408e-10
2.15022e-09
6.25205e-16
7.99206e-15
7.64478e-14
5.52272e-13
2.98182e-12
1.02141e-11
2.55288e-11
4.89653e-11
7.60169e-11
1.0211e-10
1.34138e-10
1.88031e-10
3.03466e-10
6.05984e-10
9.28301e-10
7.23743e-10
4.2348e-10
4.25376e-10
1.11213e-09
1.44788e-16
2.89609e-15
3.83557e-14
3.58577e-13
2.50215e-12
9.68821e-12
2.78669e-11
5.95514e-11
1.03019e-10
1.4666e-10
1.93292e-10
2.69739e-10
3.31132e-10
5.123e-10
2.54847e-09
7.25695e-10
1.79963e-07
9.5725e-08
1.13123e-09
1.81965e-17
6.43417e-16
1.17677e-14
1.36173e-13
1.4038e-12
6.22924e-12
2.21215e-11
5.28326e-11
1.06195e-10
1.81989e-10
2.49517e-10
3.33693e-10
3.9456e-10
3.76897e-10
2.26459e-14
1.43852e-07
5.73773e-07
5.73773e-07
1.99871e-07
)
;

boundaryField
{
    leftWall
    {
        type            zeroGradient;
    }
    rightWall
    {
        type            zeroGradient;
    }
    lowerWall
    {
        type            zeroGradient;
    }
    atmosphere
    {
        type            inletOutlet;
        inletValue      uniform 0;
        value           nonuniform List<scalar> 
46
(
4.36706e-22
1.43294e-21
1.31302e-21
9.5858e-22
5.86887e-22
3.01949e-22
1.30057e-22
4.6575e-23
1.36985e-23
3.24162e-24
5.97289e-25
8.14073e-26
7.58692e-27
4.44855e-28
2.04697e-29
1.68934e-30
0
0
0
0
0
0
0
0
0
0
0
0
0
0
0
0
0
0
0
0
0
0
0
0
0
0
1.43852e-07
5.73773e-07
5.73773e-07
1.99871e-07
)
;
    }
    defaultFaces
    {
        type            empty;
    }
}


// ************************************************************************* //
