/*--------------------------------*- C++ -*----------------------------------*\
| =========                 |                                                 |
| \\      /  F ield         | OpenFOAM: The Open Source CFD Toolbox           |
|  \\    /   O peration     | Version:  2.3.0                                 |
|   \\  /    A nd           | Web:      www.OpenFOAM.org                      |
|    \\/     M anipulation  |                                                 |
\*---------------------------------------------------------------------------*/
FoamFile
{
    version     2.0;
    format      ascii;
    class       volScalarField;
    location    "2.35";
    object      epsilon;
}
// * * * * * * * * * * * * * * * * * * * * * * * * * * * * * * * * * * * * * //

dimensions      [0 2 -3 0 0 0 0];

internalField   nonuniform List<scalar> 
2268
(
0.00557015
0.0254483
0.0457893
0.0656281
0.0850844
0.104781
0.125029
0.146028
0.167883
0.190641
0.214258
0.238548
0.26304
0.286743
0.307927
0.324067
0.331923
0.326829
0.303295
0.265934
0.210883
0.133319
0.0378601
0.0100598
0.0171478
0.0259167
0.0347639
0.0435705
0.0524861
0.0616357
0.0711336
0.0810787
0.0915348
0.102513
0.11395
0.125647
0.137179
0.147804
0.156436
0.161698
0.162025
0.156049
0.141961
0.118322
0.0885031
0.0644364
0.0160126
0.0177891
0.0239642
0.0305762
0.0372924
0.0441352
0.0511889
0.0585588
0.0663457
0.0746261
0.0834346
0.0927389
0.10239
0.112051
0.121136
0.128823
0.134145
0.136099
0.133793
0.126271
0.113552
0.0995817
0.108325
0.0216626
0.0196261
0.0244724
0.0301073
0.0359834
0.0420468
0.0483594
0.0550193
0.0621279
0.069771
0.0779996
0.0868015
0.096048
0.105419
0.114354
0.122105
0.127878
0.13096
0.130839
0.127397
0.121773
0.119195
0.15674
0.027147
0.0218887
0.0258067
0.0308663
0.0363094
0.0420234
0.0480508
0.0544836
0.0614236
0.0689665
0.077182
0.0860795
0.0955431
0.105239
0.114569
0.122775
0.129157
0.133234
0.134905
0.134837
0.135407
0.144015
0.213028
0.0326869
0.0244027
0.027569
0.0322372
0.037438
0.043008
0.0489746
0.055424
0.0624571
0.0701835
0.0786977
0.0880395
0.0981065
0.108524
0.118594
0.127484
0.134549
0.139545
0.142821
0.145865
0.15265
0.174703
0.284843
0.0383143
0.027114
0.029624
0.0340018
0.0390712
0.044622
0.0506682
0.0572878
0.0645852
0.072689
0.0817283
0.0917896
0.10279
0.114281
0.125379
0.135106
0.142863
0.148669
0.153368
0.159328
0.172565
0.212536
0.397079
0.044097
0.0300198
0.031926
0.0360749
0.0410862
0.0467061
0.0529373
0.059849
0.0675459
0.076182
0.0859446
0.0969923
0.109275
0.122215
0.134622
0.145279
0.153646
0.160064
0.165907
0.174386
0.19347
0.254452
0.629981
0.0421578
0.112525
0.186344
0.238441
0.266215
0.277791
0.270178
0.229793
0.17239
0.120586
0.0976308
0.0829372
0.0653555
0.0551926
0.0582707
0.065501
0.0687102
0.0571209
0.0197323
0.0531782
0.0775696
0.103776
0.121912
0.131382
0.134426
0.130266
0.117219
0.100193
0.0783398
0.0611654
0.0489095
0.0404092
0.0355005
0.0342234
0.0346189
0.035658
0.0334287
0.0245857
0.0777973
0.0777567
0.0951773
0.106284
0.111216
0.111277
0.106291
0.0965707
0.0848074
0.0703599
0.0565821
0.0457407
0.0382384
0.0339267
0.0326519
0.0334152
0.0351786
0.0352837
0.0342579
0.0988173
0.084701
0.0972436
0.104535
0.106656
0.104584
0.0984544
0.0893695
0.0792229
0.0677538
0.0562994
0.0467015
0.0398939
0.0359919
0.0349254
0.036037
0.0378435
0.0387835
0.0431084
0.119314
0.0952252
0.103191
0.10721
0.106895
0.102958
0.0957372
0.0866726
0.0771948
0.067261
0.0575125
0.0491366
0.0431908
0.0398665
0.0390099
0.0400254
0.0412991
0.0424558
0.0517422
0.143115
0.108586
0.111053
0.111726
0.109098
0.103477
0.0953013
0.0861267
0.0770715
0.0681712
0.0597693
0.0525721
0.0475997
0.0449662
0.04427
0.0447758
0.0451761
0.0462368
0.0607997
0.177717
0.124107
0.119629
0.116882
0.112091
0.105
0.0960659
0.0868539
0.078291
0.0703291
0.063067
0.0569581
0.0529122
0.0509465
0.0503366
0.0500144
0.0493541
0.0502487
0.0712407
0.256092
0.139995
0.127857
0.121943
0.115264
0.106974
0.0975202
0.0884854
0.0806667
0.0737442
0.0674906
0.0622969
0.0589876
0.057572
0.0569215
0.0555036
0.0537431
0.0547605
0.0851933
0.0537196
0.0349028
0.0359027
0.0397564
0.044761
0.0506006
0.0572661
0.0648052
0.0733203
0.0830233
0.0942257
0.107265
0.122201
0.138118
0.15302
0.165144
0.174138
0.180979
0.187898
0.199021
0.222041
0.271734
0.368609
0.0685242
0.0427568
0.04252
0.0460564
0.0512236
0.0576424
0.0653228
0.0742238
0.0844097
0.0962555
0.110431
0.127844
0.148998
0.171866
0.191495
0.204718
0.212373
0.216981
0.22207
0.232008
0.250555
0.274858
0.288318
0.0899862
0.0532833
0.051043
0.0541282
0.0595825
0.0668794
0.0762255
0.0872383
0.0998098
0.114668
0.133192
0.157677
0.190092
0.225612
0.250816
0.261061
0.262377
0.259715
0.258214
0.262611
0.27385
0.280438
0.270491
0.141255
0.0688575
0.0620558
0.0645456
0.0705104
0.0790563
0.0912597
0.105325
0.120979
0.139783
0.163926
0.198095
0.247589
0.298185
0.313897
0.315331
0.310011
0.300145
0.289256
0.283937
0.291514
0.294412
0.273984
0.189452
0.0811051
0.0713063
0.0739099
0.0806353
0.090448
0.104725
0.121604
0.13986
0.160925
0.186662
0.222175
0.27153
0.308848
0.316339
0.317446
0.317767
0.316013
0.309726
0.300896
0.296815
0.296878
0.289437
0.171877
0.0888488
0.0810112
0.0814418
0.0874102
0.0976759
0.112261
0.13149
0.152191
0.171635
0.19424
0.224631
0.259505
0.285256
0.300034
0.307891
0.309621
0.309072
0.307734
0.307265
0.310733
0.307639
0.29736
0.17297
0.090176
0.0831509
0.0860339
0.0944463
0.105649
0.120469
0.139171
0.157079
0.173441
0.194829
0.223371
0.251287
0.273058
0.296336
0.312719
0.310481
0.305354
0.301695
0.302393
0.308309
0.303614
0.285283
0.171472
0.0862005
0.0806925
0.0868224
0.0986069
0.112092
0.126184
0.140322
0.15396
0.170297
0.192406
0.220283
0.246364
0.263793
0.289192
0.311256
0.315269
0.308921
0.301005
0.29744
0.297591
0.293979
0.2805
0.161652
0.0814908
0.0776635
0.0849674
0.0972695
0.111373
0.124851
0.136735
0.148892
0.164703
0.185154
0.209258
0.232969
0.249719
0.26764
0.286325
0.299713
0.307981
0.30448
0.295506
0.28804
0.280697
0.270652
0.149965
0.0773692
0.0743059
0.0812728
0.0924066
0.105217
0.117717
0.129134
0.141387
0.157234
0.175777
0.1958
0.215927
0.232526
0.245949
0.258547
0.270276
0.282997
0.294881
0.294479
0.28219
0.268559
0.256653
0.140678
0.0742797
0.0710507
0.0768404
0.0861733
0.0971128
0.108281
0.119173
0.131205
0.146565
0.164272
0.182422
0.199902
0.215083
0.226599
0.235172
0.242966
0.251834
0.261358
0.26803
0.260932
0.246333
0.230236
0.135804
0.0725623
0.0684371
0.0727069
0.0801544
0.0891927
0.0988758
0.108869
0.119976
0.133577
0.149514
0.166445
0.182753
0.196724
0.206478
0.212365
0.217036
0.222263
0.227291
0.229502
0.225528
0.216261
0.203538
0.134962
0.0721153
0.066668
0.0693858
0.0751064
0.082421
0.0906296
0.0994671
0.109286
0.120808
0.134139
0.148582
0.162897
0.175371
0.18409
0.188867
0.192088
0.195535
0.198494
0.198745
0.19483
0.187828
0.178654
0.136406
0.0724149
0.0655805
0.0668923
0.0711382
0.0769762
0.0838248
0.0914378
0.0998826
0.109459
0.120259
0.131911
0.143554
0.15395
0.161738
0.166464
0.169479
0.172206
0.174239
0.174009
0.170663
0.165064
0.158054
0.138545
0.0728683
0.0648192
0.0649618
0.0680094
0.0726303
0.078285
0.0847159
0.0918593
0.099781
0.108482
0.117718
0.126945
0.135355
0.142071
0.146698
0.149811
0.1522
0.153701
0.153429
0.15086
0.146476
0.140953
0.140066
0.0730011
0.0639967
0.0632306
0.0653369
0.0689737
0.0736145
0.0789945
0.0849844
0.0915344
0.0985807
0.10594
0.113258
0.12003
0.125709
0.129987
0.133029
0.135177
0.136367
0.136155
0.134235
0.130844
0.126482
0.139962
0.0724639
0.0628254
0.0613956
0.0627843
0.0656427
0.069449
0.0739359
0.0789461
0.0843787
0.0901377
0.0960731
0.101945
0.107429
0.112179
0.11596
0.11876
0.120682
0.121683
0.121541
0.120097
0.117476
0.114033
0.137582
0.0710491
0.0611373
0.0592665
0.0601255
0.0623791
0.0655129
0.0692624
0.0734622
0.0779932
0.082749
0.0876017
0.0923782
0.0968606
0.100818
0.104072
0.106548
0.108243
0.109111
0.109037
0.107947
0.105924
0.103211
0.132688
0.0686962
0.0588728
0.0567579
0.0572432
0.0590356
0.0616355
0.0647864
0.0683254
0.0721315
0.0760996
0.0801184
0.0840559
0.0877569
0.0910593
0.0938257
0.0959707
0.0974506
0.0982181
0.0982105
0.0973986
0.0958485
0.0937305
0.125612
0.0655129
0.0560613
0.0538642
0.0541045
0.0555539
0.0577355
0.0604053
0.0634088
0.0666312
0.0699746
0.0733421
0.0766285
0.0797176
0.08249
0.0848393
0.0866863
0.0879784
0.0886723
0.088732
0.0881516
0.0869862
0.0853572
0.116942
0.0616604
0.0527832
0.0506313
0.0507329
0.0519372
0.0537956
0.0560809
0.058651
0.0614018
0.0642452
0.0670976
0.0698731
0.0724812
0.0748309
0.0768388
0.0784378
0.0795785
0.080225
0.0803557
0.0799756
0.0791301
0.0779066
0.107097
0.0572585
0.0491257
0.0471309
0.0471859
0.0482268
0.0498398
0.051819
0.0540387
0.0564072
0.0588478
0.0612893
0.0636608
0.0658902
0.0679064
0.0696435
0.0710467
0.0720742
0.0726975
0.0729035
0.0727008
0.0721257
0.0712415
0.0965817
0.0524106
0.0451686
0.0434464
0.0435391
0.0444846
0.0459154
0.0476532
0.0495907
0.0516501
0.0537664
0.0558795
0.057931
0.0598628
0.0616185
0.0631459
0.0644011
0.0653499
0.0659705
0.0662542
0.0662099
0.0658656
0.0652668
0.0859861
0.0472293
0.04102
0.0396723
0.039874
0.0407801
0.0420819
0.0436338
0.0453483
0.0471615
0.0490193
0.050872
0.0526716
0.0543712
0.0559259
0.0572943
0.0584412
0.0593397
0.0599724
0.0603334
0.0604298
0.0602823
0.0599236
0.0755906
0.0419597
0.0368465
0.0359207
0.0362751
0.0371861
0.038407
0.0398247
0.0413708
0.042994
0.0446507
0.0463005
0.0479046
0.0494254
0.050827
0.0520767
0.0531468
0.0540156
0.0546693
0.0551031
0.0553219
0.0553407
0.0551824
0.0656939
0.0369573
0.0328533
0.0323252
0.0328419
0.033791
0.0349749
0.0363067
0.0377341
0.0392176
0.0407231
0.0422188
0.043674
0.0450588
0.0463451
0.0475071
0.0485228
0.0493751
0.0500526
0.050551
0.050873
0.0510288
0.0510352
0.0568495
0.0324769
0.0292403
0.0290425
0.0297075
0.0307135
0.0318939
0.0331791
0.0345292
0.0359149
0.0373103
0.0386914
0.0400344
0.0413164
0.0425155
0.0436118
0.0445878
0.04543
0.0461289
0.0466801
0.0470848
0.0473488
0.0474873
0.0497127
0.0287474
0.0261953
0.0262485
0.0270335
0.0280963
0.0292892
0.0305521
0.0318535
0.0331713
0.0344869
0.0357823
0.0370401
0.038243
0.0393744
0.040419
0.0413632
0.0421962
0.0429099
0.0435002
0.0439666
0.044313
0.0445515
0.0447115
0.0259774
0.0238852
0.0241059
0.0249724
0.0260761
0.0272801
0.0285291
0.0297958
0.0310631
0.0323174
0.0335459
0.0347359
0.0358749
0.0369505
0.037951
0.0388661
0.0396868
0.0404065
0.041021
0.0415291
0.041934
0.0422431
0.0419398
0.0242843
0.0224257
0.0227307
0.0236362
0.0247564
0.025959
0.0271899
0.0284239
0.0296467
0.0308482
0.0320194
0.0331513
0.0342349
0.0352609
0.0362206
0.0371058
0.0379094
0.0386255
0.0392503
0.0397819
0.0402232
0.0405771
0.0412738
0.0236988
0.0218725
0.0221865
0.0230904
0.0242003
0.0253829
0.0265838
0.0277785
0.0289547
0.0301045
0.0312217
0.0322997
0.033332
0.0343116
0.0352316
0.0360853
0.0368669
0.0375712
0.0381946
0.0387352
0.0391932
0.0395696
0.0425474
0.0242009
0.0222418
0.0225006
0.0233654
0.0244371
0.0255775
0.0267312
0.0278747
0.0289968
0.0300917
0.0311547
0.0321809
0.033165
0.0341012
0.0349833
0.0358054
0.0365622
0.0372492
0.0378629
0.0384003
0.0388594
0.0392408
0.0456802
0.0257746
0.0235422
0.0236873
0.0244735
0.0254743
0.026545
0.0276295
0.0287054
0.0297634
0.0307986
0.0318073
0.032785
0.0337265
0.0346255
0.0354755
0.0362701
0.0370039
0.0376725
0.0382718
0.0387971
0.0392462
0.0396197
0.0507357
0.0284531
0.0258025
0.0257632
0.0264178
0.0273031
0.028267
0.0292538
0.0302424
0.0312249
0.0321971
0.0331551
0.0340933
0.0350049
0.0358812
0.0367131
0.0374923
0.0382119
0.0388672
0.039451
0.0399599
0.0403926
0.0407497
0.0579221
0.0323369
0.029078
0.0287476
0.0291884
0.0298921
0.0306982
0.0315507
0.0324296
0.0333268
0.0342376
0.0351561
0.0360746
0.0369821
0.037865
0.0387083
0.039498
0.0402239
0.0408768
0.0414505
0.0419441
0.0423581
0.0426947
0.067529
0.0375737
0.0334309
0.0326404
0.0327418
0.0331697
0.033751
0.0344258
0.0351716
0.035978
0.0368371
0.0377405
0.0386759
0.0396266
0.0405701
0.0414798
0.0423295
0.0430991
0.0437725
0.0443489
0.0448326
0.0452294
0.0455449
0.0797718
0.0442893
0.0388792
0.0373819
0.0369692
0.0370001
0.0372771
0.0377277
0.0383202
0.0390372
0.0398662
0.0407946
0.0418066
0.0428785
0.0439755
0.0450504
0.0460507
0.0469274
0.0476615
0.0482615
0.0487449
0.0491279
0.0494234
0.0945363
0.0524678
0.0453161
0.0427978
0.0416609
0.0411603
0.0410529
0.0412379
0.0416644
0.0423028
0.0431341
0.044144
0.0453169
0.046627
0.0480269
0.0494379
0.0507515
0.0518474
0.0527035
0.0533543
0.0538464
0.0542178
0.0544938
0.111084
0.0617941
0.0524128
0.0485433
0.0464783
0.0453295
0.0447773
0.0446722
0.0449323
0.0455106
0.0463823
0.0475372
0.0489716
0.0506736
0.0526
0.0546411
0.0565759
0.0580797
0.0591376
0.0598611
0.0603622
0.0607168
0.0609693
0.127862
0.0714942
0.0595223
0.0540615
0.050946
0.0490985
0.048089
0.0476997
0.0478085
0.0483483
0.0492912
0.0506407
0.0524244
0.0546804
0.0574282
0.060595
0.0638064
0.0660043
0.0673261
0.0681084
0.0685919
0.0689089
0.0691247
0.142556
0.0801967
0.0656178
0.0585849
0.054482
0.0520083
0.0506052
0.0499804
0.0499705
0.0504897
0.051511
0.053059
0.0552122
0.0581095
0.0619638
0.0670353
0.0731568
0.0763273
0.0778131
0.0785352
0.0789236
0.0791583
0.079312
0.152086
0.085804
0.0693337
0.061225
0.056483
0.0536208
0.0519811
0.0512182
0.0511405
0.0516507
0.0527234
0.0544015
0.0568107
0.0602069
0.0651286
0.0728738
0.0868766
0.0903292
0.0913306
0.0916833
0.0918402
0.0919268
0.091982
0.522481
0.408578
0.418311
0.496378
0.276627
0.257881
0.24309
0.2292
0.251856
0.238335
0.224752
0.211426
0.255331
0.243115
0.230644
0.21837
0.269287
0.254668
0.240509
0.227901
0.28217
0.266554
0.249239
0.233784
0.27091
0.259288
0.245105
0.231605
0.262724
0.250574
0.236905
0.223663
0.254919
0.242008
0.226966
0.213159
0.243524
0.230553
0.214843
0.200518
0.21473
0.203838
0.192881
0.182712
0.191921
0.184071
0.176048
0.16817
0.170651
0.165147
0.15935
0.15342
0.152129
0.148042
0.143719
0.139205
0.136298
0.133079
0.129705
0.12619
0.122765
0.120174
0.117463
0.114653
0.111068
0.108981
0.106795
0.104529
0.100854
0.0991867
0.0974359
0.0956132
0.0918711
0.0905488
0.0891558
0.087697
0.083908
0.0828699
0.0817702
0.080611
0.0767968
0.0759941
0.0751373
0.0742272
0.0704143
0.0698083
0.0691546
0.0684536
0.0646765
0.064236
0.0637535
0.0632292
0.0595323
0.0592313
0.0588933
0.0585182
0.0549571
0.0547727
0.0545558
0.0543058
0.050946
0.0508574
0.05074
0.0505931
0.0475065
0.0474944
0.0474566
0.0473921
0.0446535
0.0446998
0.0447229
0.0447215
0.0424041
0.0424922
0.042559
0.0426033
0.0407762
0.0408914
0.0409868
0.041061
0.0397891
0.0399188
0.0400299
0.0401207
0.0394664
0.0396006
0.0397168
0.0398133
0.0398407
0.0399718
0.0400852
0.0401793
0.040959
0.0410819
0.0411873
0.0412733
0.0428883
0.0430003
0.0430946
0.0431695
0.0457216
0.0458217
0.0459041
0.0459672
0.0495838
0.0496726
0.0497437
0.049796
0.0546387
0.0547173
0.0547788
0.0548222
0.0610981
0.0611668
0.0612199
0.0612567
0.0692328
0.0692899
0.0693342
0.0693652
0.0793886
0.0794293
0.0794615
0.0794849
0.0920098
0.092025
0.0920373
0.0920466
0.201548
0.15391
0.138489
0.1289
0.119844
0.110181
0.100354
0.0921894
0.0861189
0.0810893
0.0762261
0.0720456
0.0694882
0.0686361
0.0671051
0.0635453
0.0599731
0.0610512
0.103548
0.189897
0.162601
0.147098
0.13535
0.124728
0.114525
0.105337
0.0993093
0.0966366
0.0947096
0.0918337
0.0886348
0.0861351
0.0840179
0.0796551
0.0733172
0.0682742
0.0712256
0.133026
0.192735
0.170979
0.15426
0.140717
0.129143
0.119129
0.111265
0.107452
0.107725
0.108746
0.108379
0.106608
0.103524
0.0988081
0.0909058
0.0816831
0.0755166
0.082023
0.149446
0.201622
0.180141
0.161872
0.146773
0.134553
0.125002
0.118554
0.116866
0.119752
0.123751
0.125978
0.125403
0.120673
0.113035
0.101666
0.0891052
0.0812007
0.0876212
0.149112
0.211684
0.19007
0.170882
0.154748
0.142187
0.133066
0.127612
0.127738
0.133966
0.141496
0.145878
0.145932
0.137367
0.125479
0.112785
0.0956776
0.079484
0.0758576
0.111584
0.215481
0.1956
0.179004
0.164478
0.151775
0.141277
0.133618
0.130242
0.131899
0.13482
0.135598
0.134589
0.130995
0.137884
0.131205
0.103972
0.0762272
0.0695018
0.0825216
0.214151
0.193612
0.176688
0.163901
0.153315
0.144046
0.135811
0.128674
0.123819
0.120692
0.119146
0.11849
0.122575
0.133421
0.122658
0.0929543
0.0692556
0.061204
0.0709466
0.205775
0.185827
0.170049
0.158632
0.150019
0.1426
0.135117
0.127119
0.120011
0.114139
0.111509
0.108862
0.104624
0.104618
0.0960801
0.0783731
0.0644073
0.0581209
0.0735804
0.194683
0.1755
0.16135
0.151513
0.144535
0.13824
0.130574
0.121292
0.112705
0.105475
0.100733
0.0964094
0.0896759
0.0852484
0.0794072
0.0702017
0.06144
0.0561694
0.0777276
0.181849
0.163593
0.149935
0.139494
0.131254
0.123795
0.11581
0.107454
0.0997085
0.0930873
0.0882013
0.0838629
0.0789703
0.074589
0.0704929
0.064702
0.0580655
0.0549022
0.0799114
0.168539
0.152498
0.138873
0.127614
0.118196
0.109944
0.102288
0.0951488
0.0886824
0.083182
0.0790135
0.0755331
0.0718576
0.0678835
0.064163
0.0595491
0.054661
0.0543533
0.0800812
0.156315
0.141778
0.128998
0.11801
0.108598
0.100457
0.0932838
0.086912
0.0813248
0.0766306
0.0729753
0.0699501
0.0666331
0.0627358
0.058952
0.0550561
0.0521225
0.054437
0.0798168
0.143805
0.131201
0.119839
0.109867
0.10122
0.093757
0.0872596
0.0814879
0.0764267
0.0721163
0.0686155
0.065633
0.0623454
0.0585565
0.0549028
0.0517995
0.0505513
0.0549143
0.0816795
0.131524
0.121004
0.111291
0.10263
0.0950465
0.0884706
0.0826636
0.0773906
0.0726636
0.0685226
0.064983
0.061873
0.0586248
0.0551157
0.0518763
0.049571
0.0495546
0.0556376
0.0864805
0.120123
0.111556
0.103425
0.096046
0.0894984
0.0837481
0.0785702
0.073759
0.0693211
0.0653316
0.0618126
0.0586236
0.0554507
0.0522876
0.0495751
0.0479861
0.0489385
0.0566746
0.0933136
0.1098
0.102934
0.0962574
0.0900297
0.084396
0.0793477
0.0747258
0.0703543
0.0662283
0.0624378
0.0590106
0.0558407
0.0527962
0.0499799
0.0477769
0.0468249
0.0485822
0.0578382
0.10087
0.100612
0.0950942
0.0896524
0.0844798
0.0796763
0.0752478
0.0711184
0.0671591
0.0633638
0.0598098
0.0565235
0.0534567
0.0505977
0.0481118
0.0463569
0.0459512
0.0483685
0.0587756
0.108184
0.0924472
0.0879892
0.0835613
0.0792898
0.0752403
0.0714164
0.0677477
0.0641786
0.0607194
0.0574287
0.0543332
0.0514371
0.0488022
0.0466258
0.0452572
0.0453128
0.048283
0.05948
0.11487
0.0851469
0.0815408
0.0779352
0.0744236
0.0710385
0.0677696
0.0645674
0.0613917
0.0582713
0.0552655
0.0524042
0.0497283
0.0473425
0.0454601
0.0444311
0.0448847
0.0483728
0.0603993
0.121169
0.0785718
0.0756674
0.0727379
0.0698587
0.0670466
0.06428
0.0615163
0.0587383
0.0559776
0.0532782
0.0506827
0.0482602
0.0461401
0.0445418
0.0438189
0.0446146
0.0484771
0.06097
0.125176
0.0726152
0.0702974
0.0679343
0.065586
0.0632626
0.0609415
0.0585884
0.0561952
0.0537876
0.0514065
0.049104
0.0469623
0.0451201
0.0437997
0.0433518
0.0444148
0.048523
0.0612253
0.126679
0.0672016
0.0653782
0.0634944
0.0615976
0.0596946
0.0577668
0.0557894
0.0537564
0.0516885
0.0496248
0.0476225
0.0457705
0.0442093
0.0431556
0.0429508
0.0442216
0.0484796
0.061231
0.126604
0.0622819
0.0608764
0.0593996
0.057889
0.05635
0.0547688
0.0531283
0.0514246
0.0496752
0.0479172
0.0462095
0.0446424
0.0433529
0.0425485
0.042557
0.0439888
0.0483337
0.0610985
0.126935
0.0578286
0.0567756
0.0556437
0.0544627
0.0532376
0.0519593
0.0506166
0.0492082
0.04775
0.0462774
0.0448482
0.0435503
0.0425147
0.0419371
0.0421306
0.0436893
0.0480925
0.0609121
0.128006
0.0538322
0.0530739
0.0522315
0.0513289
0.0503715
0.0493541
0.0482701
0.0471211
0.0459226
0.0447082
0.0435333
0.0424813
0.0416751
0.0412985
0.0416502
0.0433111
0.04776
0.0606488
0.128965
0.0502973
0.0497812
0.0491775
0.0485058
0.047772
0.0469742
0.0461098
0.0451828
0.0442092
0.0432209
0.04227
0.0414347
0.040829
0.0406252
0.0411091
0.0428503
0.0473274
0.0602497
0.12941
0.0472386
0.0469164
0.046504
0.0460183
0.0454655
0.0448465
0.0441621
0.0434186
0.0426324
0.0418341
0.0410726
0.0404203
0.0399832
0.0399226
0.0405126
0.0423109
0.0467882
0.0596786
0.129355
0.0446774
0.0445041
0.044239
0.0438965
0.0434836
0.0430032
0.0424589
0.041859
0.0412206
0.0405733
0.0399628
0.0394566
0.0391534
0.0392054
0.039875
0.0417063
0.0461494
0.0589221
0.128857
0.0426382
0.0425729
0.0424142
0.042175
0.0418625
0.0414814
0.0410374
0.0405405
0.0400085
0.0394703
0.0389695
0.0385695
0.0383631
0.0384948
0.0392172
0.0410584
0.0454352
0.0579971
0.127803
0.0411481
0.041154
0.0410649
0.0408921
0.040643
0.0403234
0.0399406
0.039506
0.039038
0.0385653
0.0381298
0.0377923
0.0376418
0.0378172
0.0385629
0.0403918
0.0446796
0.0569462
0.125828
0.0402368
0.0402824
0.0402307
0.0400916
0.0398722
0.039579
0.0392202
0.0388079
0.0383612
0.0379085
0.0374912
0.0371685
0.0370274
0.0372036
0.0379361
0.0397237
0.0438987
0.0557853
0.122575
0.0399397
0.039999
0.039958
0.0398248
0.0396061
0.0393081
0.0389392
0.0385117
0.0380445
0.037566
0.0371169
0.0367564
0.0365709
0.0366952
0.0373645
0.0390657
0.043087
0.0545446
0.118937
0.0403019
0.040355
0.0403038
0.040155
0.0399136
0.0395853
0.0391774
0.0387014
0.0381752
0.037626
0.0370941
0.0366384
0.0363462
0.0363537
0.0368954
0.0384488
0.0422669
0.0533315
0.116313
0.0413823
0.0414158
0.0413406
0.0411614
0.0408815
0.0405048
0.0400366
0.0394862
0.0388687
0.0382086
0.037544
0.0369326
0.0364632
0.0362761
0.0366108
0.0379442
0.0415102
0.052223
0.114465
0.0432599
0.0432667
0.0431609
0.0429447
0.0426194
0.0421861
0.0416471
0.0410075
0.0402776
0.0394762
0.0386352
0.0378083
0.0370837
0.0366081
0.0366355
0.0376587
0.0409106
0.0512503
0.112769
0.0460378
0.0460175
0.0458819
0.0456311
0.0452639
0.0447782
0.0441722
0.043445
0.0425993
0.0416436
0.0405981
0.039504
0.0384419
0.037563
0.0371462
0.0377267
0.0405626
0.0504237
0.110491
0.0498492
0.0498072
0.0496501
0.0493762
0.048982
0.0484624
0.0478106
0.047019
0.0460795
0.0449857
0.0437366
0.0423471
0.0408718
0.0394518
0.0383961
0.0383243
0.0405756
0.0498302
0.107911
0.0548625
0.0548089
0.0546449
0.0543678
0.0539728
0.053452
0.0527948
0.0519866
0.0510081
0.0498334
0.0484306
0.0467679
0.0448386
0.04273
0.0407625
0.0397035
0.0411133
0.0497144
0.106841
0.0612892
0.0612362
0.0610839
0.0608294
0.0604676
0.05999
0.059384
0.0586306
0.0577014
0.0565523
0.0551155
0.0532921
0.0509636
0.0480683
0.0448346
0.0421994
0.0423564
0.0502959
0.108245
0.0693934
0.0693524
0.0692304
0.0690257
0.0687342
0.0683488
0.0678581
0.0672437
0.0664753
0.0655001
0.0642249
0.062486
0.0600155
0.0564572
0.0516037
0.0462241
0.0444145
0.0515791
0.111765
0.0795078
0.0794851
0.079408
0.079276
0.0790874
0.078838
0.0785208
0.0781234
0.0776234
0.0769783
0.0761035
0.0748252
0.0727881
0.0692894
0.0630279
0.052159
0.04719
0.0533912
0.117002
0.0920561
0.0920491
0.0920228
0.0919777
0.0919137
0.0918299
0.0917247
0.0915944
0.0914322
0.0912236
0.0909368
0.0904953
0.0896995
0.0879426
0.0828137
0.05914
0.0498504
0.0550948
0.121948
)
;

boundaryField
{
    leftWall
    {
        type            epsilonWallFunction;
        value           nonuniform List<scalar> 
50
(
0.00557015
0.0100598
0.0160126
0.0216626
0.027147
0.0326869
0.0383143
0.044097
0.0537196
0.0685242
0.0899862
0.141255
0.189452
0.171877
0.17297
0.171472
0.161652
0.149965
0.140678
0.135804
0.134962
0.136406
0.138545
0.140066
0.139962
0.137582
0.132688
0.125612
0.116942
0.107097
0.0965817
0.0859861
0.0755906
0.0656939
0.0568495
0.0497127
0.0447115
0.0419398
0.0412738
0.0425474
0.0456802
0.0507357
0.0579221
0.067529
0.0797718
0.0945363
0.111084
0.127862
0.142556
0.152086
)
;
        Cmu             0.09;
        kappa           0.41;
        E               9.8;
        value           nonuniform List<scalar> 
50
(
0.00557015
0.0100598
0.0160126
0.0216626
0.027147
0.0326869
0.0383143
0.044097
0.0537196
0.0685242
0.0899862
0.141255
0.189452
0.171877
0.17297
0.171472
0.161652
0.149965
0.140678
0.135804
0.134962
0.136406
0.138545
0.140066
0.139962
0.137582
0.132688
0.125612
0.116942
0.107097
0.0965817
0.0859861
0.0755906
0.0656939
0.0568495
0.0497127
0.0447115
0.0419398
0.0412738
0.0425474
0.0456802
0.0507357
0.0579221
0.067529
0.0797718
0.0945363
0.111084
0.127862
0.142556
0.152086
)
;
    }
    rightWall
    {
        type            epsilonWallFunction;
        value           nonuniform List<scalar> 
50
(
0.0197323
0.0245857
0.0342579
0.0431084
0.0517422
0.0607997
0.0712407
0.0851933
0.103548
0.133026
0.149446
0.149112
0.111584
0.0825216
0.0709466
0.0735804
0.0777276
0.0799114
0.0800812
0.0798168
0.0816795
0.0864805
0.0933136
0.10087
0.108184
0.11487
0.121169
0.125176
0.126679
0.126604
0.126935
0.128006
0.128965
0.12941
0.129355
0.128857
0.127803
0.125828
0.122575
0.118937
0.116313
0.114465
0.112769
0.110491
0.107911
0.106841
0.108245
0.111765
0.117002
0.121948
)
;
        Cmu             0.09;
        kappa           0.41;
        E               9.8;
        value           nonuniform List<scalar> 
50
(
0.0197323
0.0245857
0.0342579
0.0431084
0.0517422
0.0607997
0.0712407
0.0851933
0.103548
0.133026
0.149446
0.149112
0.111584
0.0825216
0.0709466
0.0735804
0.0777276
0.0799114
0.0800812
0.0798168
0.0816795
0.0864805
0.0933136
0.10087
0.108184
0.11487
0.121169
0.125176
0.126679
0.126604
0.126935
0.128006
0.128965
0.12941
0.129355
0.128857
0.127803
0.125828
0.122575
0.118937
0.116313
0.114465
0.112769
0.110491
0.107911
0.106841
0.108245
0.111765
0.117002
0.121948
)
;
    }
    lowerWall
    {
        type            epsilonWallFunction;
        value           nonuniform List<scalar> 
62
(
0.00557015
0.0254483
0.0457893
0.0656281
0.0850844
0.104781
0.125029
0.146028
0.167883
0.190641
0.214258
0.238548
0.26304
0.286743
0.307927
0.324067
0.331923
0.326829
0.303295
0.265934
0.210883
0.133319
0.0378601
0.0378601
0.0644364
0.108325
0.15674
0.213028
0.284843
0.397079
0.629981
0.522481
0.408578
0.418311
0.496378
0.0421578
0.0531782
0.0777973
0.0988173
0.119314
0.143115
0.177717
0.256092
0.0421578
0.112525
0.186344
0.238441
0.266215
0.277791
0.270178
0.229793
0.17239
0.120586
0.0976308
0.0829372
0.0653555
0.0551926
0.0582707
0.065501
0.0687102
0.0571209
0.0197323
)
;
        Cmu             0.09;
        kappa           0.41;
        E               9.8;
        value           nonuniform List<scalar> 
62
(
0.00557015
0.0254483
0.0457893
0.0656281
0.0850844
0.104781
0.125029
0.146028
0.167883
0.190641
0.214258
0.238548
0.26304
0.286743
0.307927
0.324067
0.331923
0.326829
0.303295
0.265934
0.210883
0.133319
0.0378601
0.0378601
0.0644364
0.108325
0.15674
0.213028
0.284843
0.397079
0.629981
0.522481
0.408578
0.418311
0.496378
0.0421578
0.0531782
0.0777973
0.0988173
0.119314
0.143115
0.177717
0.256092
0.0421578
0.112525
0.186344
0.238441
0.266215
0.277791
0.270178
0.229793
0.17239
0.120586
0.0976308
0.0829372
0.0653555
0.0551926
0.0582707
0.065501
0.0687102
0.0571209
0.0197323
)
;
    }
    atmosphere
    {
        type            inletOutlet;
        inletValue      uniform 0.1;
        value           nonuniform List<scalar> 
46
(
0.152086
0.085804
0.0693337
0.061225
0.056483
0.0536208
0.0519811
0.0512182
0.0511405
0.0516507
0.0527234
0.0544015
0.0568107
0.0602069
0.0651286
0.0728738
0.1
0.1
0.1
0.1
0.1
0.1
0.1
0.1
0.1
0.1
0.1
0.1
0.1
0.1
0.1
0.1
0.1
0.1
0.1
0.1
0.1
0.1
0.1
0.1
0.1
0.1
0.05914
0.0498504
0.0550948
0.121948
)
;
    }
    defaultFaces
    {
        type            empty;
    }
}


// ************************************************************************* //
