/*--------------------------------*- C++ -*----------------------------------*\
| =========                 |                                                 |
| \\      /  F ield         | OpenFOAM: The Open Source CFD Toolbox           |
|  \\    /   O peration     | Version:  2.3.0                                 |
|   \\  /    A nd           | Web:      www.OpenFOAM.org                      |
|    \\/     M anipulation  |                                                 |
\*---------------------------------------------------------------------------*/
FoamFile
{
    version     2.0;
    format      ascii;
    class       volScalarField;
    location    "2.35";
    object      k;
}
// * * * * * * * * * * * * * * * * * * * * * * * * * * * * * * * * * * * * * //

dimensions      [0 2 -2 0 0 0 0];

internalField   nonuniform List<scalar> 
2268
(
0.00145437
0.00328008
0.00485928
0.00617971
0.00734848
0.00844408
0.00950126
0.0105383
0.0115653
0.0125874
0.0136054
0.0146133
0.0155942
0.0165122
0.0173065
0.0178922
0.0181611
0.0179509
0.0170561
0.0156106
0.0133686
0.00987487
0.00427947
0.00290738
0.00765844
0.0110309
0.013882
0.0164405
0.0188301
0.0211268
0.0233763
0.0256046
0.0278275
0.03005
0.0322615
0.0344244
0.036458
0.0382275
0.0395497
0.040202
0.0398786
0.0381869
0.0352894
0.0307527
0.0230716
0.0100293
0.00397011
0.0102074
0.0144068
0.0179781
0.0212066
0.0242313
0.0271421
0.0299945
0.0328236
0.0356523
0.0384899
0.041325
0.0441095
0.0467379
0.0490368
0.0507772
0.0516955
0.0514764
0.0497648
0.0464547
0.0409667
0.0316738
0.0141512
0.00486184
0.01223
0.0170191
0.0210849
0.0247757
0.0282452
0.0315906
0.0348745
0.038139
0.0414133
0.0447123
0.0480259
0.0512981
0.0544016
0.0571279
0.0592123
0.0603708
0.0603009
0.058685
0.0552879
0.049461
0.0393738
0.018066
0.00565981
0.014005
0.0192997
0.0237694
0.0278352
0.0316694
0.035376
0.0390237
0.0426602
0.0463219
0.0500308
0.0537805
0.0575089
0.0610641
0.0641967
0.066605
0.0679931
0.0680829
0.0666018
0.0632775
0.0574213
0.0468896
0.0221123
0.00641121
0.0156425
0.021404
0.0262324
0.0306273
0.0347837
0.0388151
0.0427957
0.0467775
0.0508052
0.0549106
0.059095
0.0632907
0.0673146
0.0708636
0.073591
0.0751955
0.0754357
0.0740987
0.0709329
0.0652322
0.0545284
0.0268132
0.00713084
0.017208
0.0234125
0.0285731
0.0332708
0.0377265
0.0420647
0.0463639
0.0506817
0.0550728
0.059582
0.0642238
0.0689263
0.0734635
0.0774559
0.0804992
0.082294
0.0826534
0.0814434
0.0784747
0.0730666
0.0625615
0.0335172
0.00783414
0.0187467
0.0253792
0.0308549
0.0358391
0.0405816
0.0452201
0.0498363
0.054492
0.0592536
0.0641879
0.0693297
0.0746049
0.0797255
0.0841989
0.0875452
0.0894815
0.089899
0.0887658
0.0859853
0.0809508
0.0711637
0.0453105
0.00451658
0.00876106
0.0122885
0.0144901
0.0156031
0.0160535
0.0157357
0.0140504
0.0115834
0.00912761
0.00796842
0.00716658
0.00611155
0.00550943
0.00575807
0.00622964
0.00640822
0.0056268
0.00343676
0.00939123
0.0191005
0.0264731
0.0306855
0.0329418
0.0337145
0.0327834
0.0298574
0.0251926
0.0207994
0.0182935
0.0163206
0.0138975
0.0121805
0.0122441
0.0128998
0.0127481
0.0108237
0.00562963
0.0121447
0.0255903
0.0340956
0.0389463
0.041441
0.0420571
0.0406632
0.0372466
0.0324033
0.0277395
0.024564
0.0219438
0.0191872
0.0172633
0.0169835
0.0172484
0.0166754
0.0137769
0.00702958
0.0142985
0.030978
0.040062
0.0450864
0.0475138
0.047845
0.0460567
0.0423867
0.0376096
0.0330014
0.0295514
0.0266397
0.0238347
0.021864
0.0212641
0.0211732
0.0200669
0.0163197
0.00820485
0.0162838
0.0361319
0.0454407
0.0503484
0.0525322
0.0525228
0.0504078
0.0466114
0.0419556
0.0375135
0.0340198
0.0310467
0.0283627
0.0264596
0.0256104
0.0250908
0.0233472
0.0188386
0.00928916
0.0184707
0.0414303
0.0505661
0.0551177
0.0569445
0.0565812
0.0542108
0.0503794
0.0459089
0.0417146
0.0383233
0.0354327
0.0329641
0.0311932
0.0301307
0.0290684
0.0266286
0.0214378
0.0103817
0.021433
0.0470343
0.0555082
0.0595235
0.060932
0.0602353
0.05769
0.0539123
0.0497289
0.0458737
0.0426807
0.0399533
0.037708
0.036066
0.0347901
0.0330765
0.0298919
0.0241088
0.0116017
0.027428
0.0529474
0.0602473
0.0636015
0.0645783
0.063596
0.0609622
0.0573481
0.0535863
0.0501731
0.0472367
0.0446844
0.0425993
0.0410312
0.0394995
0.0370255
0.0330809
0.0267394
0.0131453
0.00894239
0.021168
0.0284552
0.0344063
0.0398218
0.0450039
0.0501147
0.0552377
0.0604383
0.0658075
0.0714566
0.0774733
0.0837939
0.0899817
0.0952749
0.0990403
0.101066
0.101416
0.100256
0.0976559
0.093114
0.0842243
0.0646851
0.0105301
0.0247279
0.0328925
0.0394517
0.0454231
0.051206
0.0570165
0.0629104
0.0689388
0.0752545
0.0820909
0.0897053
0.0981135
0.106441
0.113032
0.116933
0.118356
0.117829
0.115922
0.112996
0.108672
0.101041
0.0881261
0.012653
0.0290708
0.0380286
0.0451269
0.0516324
0.0580448
0.0647242
0.0715766
0.0785759
0.0860019
0.0943192
0.104199
0.115999
0.127828
0.135666
0.138387
0.137781
0.135049
0.131286
0.127237
0.122599
0.114933
0.103964
0.0171996
0.0347476
0.0441716
0.0517916
0.0588433
0.0659243
0.0738399
0.0818638
0.0899092
0.0985559
0.10849
0.121075
0.137511
0.152921
0.157621
0.157777
0.15532
0.150675
0.144604
0.138661
0.134612
0.128593
0.118323
0.020979
0.0398022
0.0498692
0.0580082
0.0655005
0.0730764
0.0817227
0.0907101
0.0995236
0.108677
0.118756
0.131365
0.147529
0.159154
0.161812
0.162086
0.161334
0.159107
0.154646
0.148485
0.142677
0.137804
0.132345
0.0196458
0.043153
0.0550498
0.0628335
0.0701563
0.0779096
0.0865797
0.0964112
0.106033
0.114427
0.123314
0.134287
0.146091
0.154668
0.159861
0.162387
0.162301
0.160794
0.158227
0.155063
0.152392
0.147835
0.142408
0.0198011
0.0441391
0.0566218
0.0657446
0.0743759
0.0826221
0.09135
0.100853
0.109301
0.116547
0.125119
0.135701
0.145486
0.153027
0.160909
0.166134
0.16521
0.162788
0.160103
0.158081
0.157084
0.152966
0.145675
0.0198088
0.0430219
0.0559435
0.0665521
0.0768433
0.0862397
0.0947419
0.102395
0.109208
0.116586
0.125638
0.136234
0.145632
0.151862
0.16044
0.167469
0.168664
0.166305
0.162974
0.160503
0.158729
0.155612
0.149878
0.0191077
0.0414346
0.054648
0.0657989
0.0764797
0.0863402
0.0947639
0.101652
0.108059
0.11547
0.124179
0.133719
0.142597
0.148742
0.155048
0.161235
0.165506
0.167848
0.166348
0.162949
0.159633
0.156058
0.151639
0.0181726
0.0397728
0.0528809
0.0638921
0.074195
0.0836893
0.0919239
0.0988643
0.105578
0.113289
0.12157
0.129928
0.137855
0.144158
0.149099
0.15351
0.157468
0.161518
0.165066
0.164636
0.160353
0.155358
0.150738
0.0173364
0.0382224
0.0509204
0.0614129
0.0710242
0.0798713
0.0877556
0.0947342
0.101632
0.109443
0.117707
0.125665
0.132932
0.138982
0.143434
0.146658
0.149481
0.152497
0.155568
0.157632
0.15512
0.150006
0.144153
0.0168079
0.0370046
0.049127
0.0589482
0.0677925
0.0759322
0.0833568
0.0901741
0.0969193
0.104261
0.112111
0.119907
0.127036
0.132909
0.136935
0.139382
0.141277
0.143207
0.144922
0.145619
0.144222
0.140889
0.136177
0.0166177
0.0361963
0.0477102
0.0568453
0.0649559
0.0724137
0.0793225
0.085804
0.0921759
0.0988367
0.105848
0.112917
0.119554
0.125128
0.128994
0.131205
0.132716
0.134149
0.135254
0.135318
0.133926
0.131374
0.127897
0.016647
0.035744
0.0466774
0.0551866
0.0626423
0.0694783
0.0758603
0.0819096
0.0878016
0.0937606
0.0998684
0.105985
0.11177
0.116755
0.120467
0.122818
0.124375
0.125665
0.126543
0.126495
0.125288
0.123208
0.120487
0.0167578
0.0354909
0.0459161
0.0538793
0.0607733
0.0670609
0.0729359
0.0785112
0.0838989
0.0892203
0.0945317
0.099761
0.104703
0.109052
0.112499
0.11494
0.116637
0.1179
0.118677
0.118679
0.117761
0.1161
0.113901
0.0168418
0.0352414
0.0452415
0.0527458
0.0591622
0.0649709
0.07038
0.0754986
0.0804058
0.0851702
0.0898246
0.0943308
0.0985682
0.102352
0.105489
0.107887
0.109637
0.110885
0.111622
0.111704
0.111046
0.109744
0.107964
0.0168174
0.0348554
0.0444874
0.0516048
0.0576186
0.063017
0.0680147
0.0727197
0.0771957
0.0814862
0.0856109
0.0895489
0.0932299
0.0965434
0.0993691
0.101633
0.103347
0.104566
0.105287
0.105442
0.104987
0.103978
0.102542
0.0166303
0.034245
0.0435384
0.0503222
0.0559953
0.0610454
0.065689
0.0700338
0.0741373
0.0780324
0.0817328
0.0852269
0.0884736
0.0914055
0.0939463
0.0960385
0.0976659
0.0988391
0.0995511
0.0997688
0.0994734
0.0987041
0.0975563
0.0162539
0.0333634
0.0423274
0.0488168
0.0541999
0.0589559
0.0632998
0.0673385
0.0711278
0.0746968
0.0780576
0.0812042
0.0841119
0.0867388
0.089035
0.0909573
0.0924823
0.0936025
0.0943077
0.0945812
0.0944187
0.0938525
0.0929543
0.0156971
0.0321887
0.040829
0.0470559
0.0521914
0.0567004
0.0607931
0.0645755
0.0681034
0.0714057
0.0744946
0.0773685
0.0800121
0.0823986
0.0844947
0.0862687
0.0876981
0.08877
0.0894742
0.0898024
0.089758
0.089369
0.0886905
0.0149898
0.0307389
0.0390584
0.0450489
0.0499728
0.0542746
0.0581577
0.0617269
0.065039
0.0681241
0.0709958
0.0736557
0.0760947
0.0782952
0.0802346
0.0818898
0.0832422
0.0842791
0.0849921
0.085378
0.0854439
0.0852141
0.084731
0.0141578
0.0290679
0.0370679
0.0428418
0.0475824
0.0517085
0.0554154
0.058807
0.0619415
0.0648507
0.0675499
0.0700431
0.0723255
0.0743855
0.0762076
0.077775
0.0790735
0.0800927
0.0808267
0.0812754
0.0814472
0.081363
0.0810553
0.013235
0.027251
0.0349352
0.0405075
0.0450833
0.0490554
0.0526115
0.0558547
0.0588439
0.0616123
0.0641763
0.0665419
0.0687071
0.0706646
0.0724035
0.0739119
0.0751795
0.0761985
0.0769655
0.0774819
0.0777565
0.0778066
0.077657
0.0122672
0.0253856
0.0327342
0.0381178
0.042543
0.0463783
0.0498055
0.0529264
0.0557997
0.0584583
0.0609196
0.0631906
0.0652715
0.0671578
0.0688421
0.0703162
0.0715728
0.0726066
0.0734159
0.0740033
0.0743766
0.0745499
0.0745427
0.0112789
0.0235142
0.0305241
0.0357318
0.0400239
0.0437435
0.0470671
0.0500935
0.0528796
0.0554578
0.0578452
0.0600498
0.0620734
0.0639137
0.0655661
0.067025
0.0682857
0.0693448
0.0702019
0.0708598
0.0713256
0.0716105
0.0717297
0.0102928
0.0216573
0.0283711
0.0334163
0.0375975
0.0412305
0.0444812
0.0474434
0.050171
0.0526954
0.0550339
0.0571953
0.0591827
0.0609959
0.0626325
0.0640891
0.065363
0.0664525
0.0673579
0.0680821
0.068631
0.0690139
0.069243
0.0093624
0.0199399
0.0263804
0.0312774
0.0353713
0.0389474
0.0421552
0.0450807
0.0477746
0.0502671
0.0525758
0.0547107
0.0566764
0.0584743
0.0601042
0.0615648
0.0628549
0.063974
0.0649232
0.0657051
0.0663248
0.0667896
0.067111
0.00856715
0.0185112
0.024695
0.0294616
0.0334869
0.0370266
0.0402119
0.0431194
0.0457957
0.04827
0.0505603
0.0526776
0.0546283
0.0564157
0.0580413
0.0595055
0.0608087
0.0619516
0.0629354
0.063763
0.0644386
0.0649683
0.0653622
0.00797788
0.0174754
0.0234512
0.0281111
0.0320828
0.0355969
0.0387686
0.0416654
0.0443299
0.0467902
0.0490646
0.0511654
0.0531006
0.0548753
0.0564926
0.0579548
0.0592633
0.0604197
0.0614259
0.0622846
0.0629993
0.0635761
0.0640223
0.00763244
0.016894
0.0227369
0.0273256
0.0312603
0.0347551
0.0379144
0.040799
0.0434487
0.0458907
0.0481442
0.0502227
0.0521359
0.0538906
0.0554915
0.056942
0.058245
0.0594025
0.060417
0.0612911
0.0620282
0.0626336
0.0631126
0.00753557
0.0167873
0.0225909
0.0271546
0.0310735
0.0345554
0.0377
0.0405656
0.0431914
0.0456053
0.0478277
0.0498738
0.0517551
0.0534797
0.0550538
0.0564819
0.0577674
0.0589133
0.0599222
0.0607968
0.0615405
0.0621568
0.0626505
0.00767375
0.017152
0.0230188
0.0276097
0.0315366
0.0350121
0.0381381
0.0409753
0.0435651
0.045938
0.0481169
0.0501192
0.0519579
0.0536426
0.0551804
0.0565763
0.0578343
0.0589575
0.0599488
0.0608112
0.0615468
0.0621588
0.0626514
0.00803138
0.0179778
0.0240101
0.0286786
0.0326353
0.0361084
0.0392095
0.0420065
0.0445468
0.0468655
0.048989
0.0509375
0.0527258
0.0543642
0.0558601
0.0572185
0.0584429
0.0595364
0.060502
0.0613418
0.0620578
0.062653
0.0631318
0.00860022
0.0192549
0.0255457
0.0303326
0.0343325
0.0378007
0.0408663
0.0436093
0.0460862
0.0483387
0.0503982
0.0522876
0.0540234
0.0556163
0.0570727
0.058396
0.0595883
0.0606516
0.0615884
0.0623993
0.0630874
0.0636568
0.0641123
0.00938022
0.0209715
0.027594
0.0325225
0.0365648
0.0400163
0.0430301
0.0457032
0.0481038
0.0502818
0.0522741
0.0541071
0.0557983
0.0573578
0.0587895
0.060093
0.0612664
0.0623087
0.0632195
0.0640005
0.064657
0.0651949
0.0656208
0.0103721
0.0231001
0.0300972
0.0351668
0.0392341
0.0426464
0.0455874
0.048174
0.0504881
0.0525887
0.0545189
0.0563086
0.0579766
0.0595314
0.0609721
0.0622907
0.0634762
0.0645203
0.0654177
0.066174
0.0667988
0.0673025
0.0676948
0.0115629
0.0255757
0.032954
0.0381388
0.0421979
0.0455406
0.0483855
0.0508713
0.0530935
0.0551209
0.0570033
0.0587753
0.060458
0.0620581
0.0635682
0.0649668
0.0662244
0.0673118
0.0682209
0.0689635
0.0695593
0.0700276
0.0703841
0.0129084
0.028276
0.0360049
0.0412585
0.0452664
0.048507
0.0512352
0.0536106
0.0557419
0.0577075
0.0595648
0.0613558
0.0631068
0.064827
0.0665028
0.0680927
0.0695288
0.0707326
0.0716913
0.0724345
0.0730034
0.0734338
0.0737518
0.0143204
0.0310096
0.0390283
0.0442938
0.0482081
0.0513204
0.0539197
0.0561833
0.0582315
0.0601515
0.0620104
0.0638614
0.0657439
0.06768
0.0696616
0.071629
0.0734394
0.0748766
0.0759301
0.0766814
0.0772174
0.077602
0.0778757
0.0156662
0.0335186
0.0417472
0.0469729
0.0507657
0.0537397
0.0562118
0.058373
0.0603516
0.0622432
0.064126
0.0660696
0.0681382
0.0703887
0.0728566
0.0755076
0.0780944
0.0799286
0.0810986
0.081835
0.0823118
0.0826315
0.0828495
0.0167823
0.0354971
0.0438506
0.0490075
0.0526792
0.0555304
0.0578968
0.059977
0.0619044
0.0637812
0.0656965
0.0677393
0.0700087
0.072627
0.0757535
0.0795603
0.0839019
0.0862566
0.0874409
0.0880628
0.0884183
0.0886391
0.0887834
0.0174746
0.0366307
0.0450299
0.0501273
0.0537179
0.0564931
0.0587968
0.0608305
0.0627297
0.0646001
0.0665382
0.0686471
0.0710567
0.0739624
0.077726
0.0831475
0.0921957
0.0945262
0.0952561
0.0955402
0.0956776
0.0957563
0.095806
0.0393686
0.0341183
0.0351634
0.0396809
0.0760054
0.0704771
0.0675368
0.0669444
0.0956336
0.0913627
0.0882345
0.0861446
0.111526
0.107733
0.104375
0.101475
0.125658
0.121238
0.117213
0.113807
0.137188
0.132515
0.127537
0.123161
0.140738
0.137083
0.13281
0.128753
0.143863
0.139929
0.13558
0.131334
0.146052
0.141688
0.136633
0.131919
0.145895
0.141296
0.13575
0.130607
0.13846
0.134424
0.130314
0.126435
0.131774
0.128758
0.125629
0.122504
0.124753
0.122559
0.120212
0.117771
0.118086
0.116402
0.114591
0.112666
0.111958
0.110592
0.109131
0.107582
0.106366
0.105234
0.104025
0.102746
0.101231
0.100294
0.0992902
0.0982279
0.0964896
0.0957216
0.094896
0.0940167
0.0920981
0.0914767
0.0908044
0.090082
0.0880187
0.0875246
0.0869842
0.0863972
0.0842215
0.083839
0.0834138
0.0829451
0.0806897
0.0804062
0.0800828
0.079719
0.07742
0.0772247
0.0769922
0.0767217
0.0744203
0.0743038
0.0741522
0.0739647
0.0717084
0.0716613
0.071581
0.0714666
0.0693088
0.0693215
0.0693025
0.0692507
0.0672493
0.0673116
0.0673434
0.0673436
0.0655576
0.065659
0.0657309
0.0657722
0.0642593
0.0643893
0.0644906
0.0645619
0.0633764
0.0635247
0.0636451
0.0637363
0.0629274
0.063085
0.0632153
0.0633169
0.0629298
0.0630888
0.063221
0.0633253
0.0634023
0.0635562
0.0636842
0.0637848
0.0643678
0.0645121
0.0646312
0.0647237
0.0658565
0.0659882
0.0660955
0.0661772
0.0679081
0.0680255
0.0681197
0.0681893
0.0705735
0.0706761
0.0707568
0.0708146
0.0739163
0.0740038
0.0740714
0.0741184
0.0780134
0.0780855
0.0781403
0.0781776
0.0829564
0.0830118
0.0830535
0.0830817
0.0888531
0.0888889
0.0889162
0.0889347
0.0958299
0.0958423
0.0958519
0.0958585
0.0471784
0.0619978
0.0671924
0.0694097
0.0696884
0.0683373
0.0657296
0.0627013
0.059859
0.0572893
0.0547845
0.0524214
0.0504322
0.0488343
0.0465176
0.0427013
0.0374922
0.0302123
0.0150017
0.0682216
0.07299
0.0753935
0.076181
0.0756907
0.0741293
0.071897
0.0699878
0.0687555
0.067562
0.0658104
0.0636576
0.0613996
0.0588429
0.0548711
0.0493594
0.042854
0.0348603
0.0176733
0.0842971
0.083848
0.0834082
0.0825828
0.0813113
0.0796595
0.0779708
0.0771367
0.0773503
0.077426
0.0765585
0.0747237
0.0719017
0.0678968
0.0619894
0.0547047
0.0469908
0.0388877
0.0189301
0.0978975
0.0943848
0.0915917
0.0892166
0.0871622
0.0854144
0.0842077
0.0842921
0.085638
0.0868823
0.0868891
0.0852689
0.0815183
0.0759728
0.068131
0.0587928
0.0493886
0.0398886
0.019119
0.109538
0.104435
0.100099
0.096476
0.0937078
0.0917769
0.0908045
0.0915715
0.0942079
0.0967026
0.0973086
0.0956044
0.0901512
0.0825568
0.073498
0.0615682
0.0478714
0.0346091
0.0156486
0.117886
0.112423
0.10801
0.104155
0.100768
0.097941
0.095891
0.0951658
0.0959455
0.0966097
0.0957565
0.0935364
0.0895851
0.088373
0.0806649
0.0641867
0.0452991
0.0308406
0.0127987
0.123332
0.116921
0.111716
0.107867
0.104712
0.10188
0.0992057
0.0966293
0.0944881
0.092476
0.0904652
0.08809
0.0866317
0.0863048
0.0768261
0.0593948
0.0423062
0.0284672
0.0115168
0.125374
0.118528
0.113129
0.109285
0.106413
0.103847
0.101027
0.0976751
0.0942048
0.0906479
0.087805
0.0841625
0.0789195
0.0745363
0.0661364
0.0534006
0.040703
0.0284336
0.0117784
0.125353
0.118253
0.112968
0.109297
0.10666
0.104125
0.100783
0.0964267
0.0918733
0.0872664
0.0830692
0.0783748
0.0719457
0.0659921
0.0590402
0.0500607
0.0399529
0.028333
0.0121813
0.123631
0.116475
0.110967
0.106642
0.103075
0.0996257
0.0956676
0.0911866
0.0865082
0.0817729
0.0772409
0.0724196
0.0668612
0.0611528
0.0552225
0.0478906
0.0387747
0.0276173
0.012362
0.120832
0.114214
0.108383
0.103359
0.0989153
0.0947297
0.0905072
0.0861626
0.0817084
0.077237
0.0729263
0.0685122
0.0636118
0.0582285
0.0525814
0.0457501
0.0371802
0.0266476
0.0123465
0.117653
0.111424
0.105694
0.100511
0.0957823
0.0913562
0.0870651
0.0828034
0.0785411
0.0743179
0.0702226
0.0660722
0.0614133
0.0561202
0.050415
0.0437607
0.0356964
0.0257914
0.0123269
0.113713
0.108123
0.102815
0.0978818
0.0932984
0.088992
0.084836
0.0806963
0.0765616
0.0724567
0.0684306
0.0643366
0.0597347
0.054504
0.0487966
0.0423608
0.0348222
0.0255111
0.0125604
0.109323
0.104495
0.0997806
0.095303
0.0910809
0.0870726
0.0831411
0.0791538
0.0751194
0.0710687
0.0670229
0.0628895
0.0583448
0.0532695
0.0477479
0.0416605
0.0346799
0.0259498
0.0130941
0.104852
0.100785
0.0966913
0.0927164
0.0888992
0.0852149
0.0815318
0.0777312
0.0738188
0.0698447
0.0658291
0.0616902
0.057231
0.052376
0.0471681
0.0415143
0.0351024
0.0269481
0.0138055
0.100492
0.097114
0.0936253
0.0901363
0.0867087
0.083327
0.079894
0.0763055
0.0725599
0.0687145
0.0647885
0.0607135
0.0563853
0.0517818
0.0469215
0.0417061
0.035823
0.0282318
0.0145552
0.0963517
0.0935391
0.0905864
0.0875694
0.084523
0.0814339
0.0782468
0.0748829
0.0713391
0.0676636
0.063871
0.0599203
0.0557692
0.0514259
0.0468935
0.0420657
0.03662
0.029515
0.0152533
0.0924537
0.0901008
0.0876053
0.0850108
0.0823324
0.0795538
0.0766185
0.073488
0.0701673
0.0666919
0.0630722
0.0592927
0.0553474
0.0512565
0.0470114
0.0424955
0.0373673
0.0305766
0.015872
0.0887866
0.0868166
0.0847057
0.082483
0.0801457
0.0776692
0.0750085
0.0721301
0.0690472
0.0657945
0.0623794
0.0588031
0.0550782
0.0512254
0.0472254
0.0429472
0.0380079
0.0312827
0.0164386
0.0853338
0.0836932
0.081911
0.0800101
0.0779805
0.0757911
0.0734006
0.0707883
0.067967
0.0649566
0.0617676
0.0584131
0.0549144
0.0512854
0.0474926
0.0433946
0.0385888
0.0318365
0.0167795
0.0820855
0.0807332
0.0792385
0.0776189
0.0758626
0.0739388
0.0718114
0.0694641
0.0669038
0.0641444
0.0611985
0.0580814
0.0548115
0.0513963
0.0477924
0.0438388
0.0391012
0.0322562
0.0168885
0.0790401
0.0779425
0.076702
0.0753317
0.07382
0.0721396
0.0702607
0.0681675
0.0658613
0.0633517
0.0606507
0.0577723
0.0547295
0.0515186
0.0480816
0.0442393
0.0395298
0.0325747
0.0168824
0.0762038
0.0753319
0.0743167
0.0731681
0.0718758
0.0704168
0.0687667
0.0669101
0.0648442
0.0625747
0.060111
0.0574631
0.0546366
0.0516152
0.0483256
0.044572
0.0398734
0.0328298
0.0169343
0.0735897
0.0729167
0.0721001
0.0711476
0.0700505
0.0687901
0.0673463
0.0657045
0.0638595
0.0618132
0.0595712
0.0571384
0.0545113
0.0516614
0.0485017
0.0448232
0.0401363
0.0330422
0.0170469
0.0712168
0.0707168
0.0700728
0.069291
0.0683646
0.0672787
0.0660165
0.064565
0.0629172
0.0610718
0.05903
0.0567908
0.054342
0.0516437
0.0485976
0.0449864
0.0403193
0.0332057
0.0171403
0.0691083
0.0687555
0.068258
0.0676214
0.0668404
0.0659035
0.0647968
0.0635086
0.0620311
0.0603602
0.0584928
0.0564217
0.0541269
0.0515588
0.0486104
0.0450595
0.0404177
0.0333033
0.0171862
0.06729
0.0670583
0.0666812
0.0661637
0.0655023
0.0646879
0.0637093
0.0625559
0.0612195
0.0596937
0.0579716
0.0560404
0.053873
0.0514125
0.0485451
0.0450455
0.0404279
0.0333205
0.0171876
0.0657885
0.0656521
0.0653692
0.0649449
0.0643769
0.0636581
0.0627794
0.0617313
0.0605053
0.0590932
0.0574849
0.0556631
0.0535951
0.0512181
0.0484136
0.0449537
0.0403531
0.0332483
0.0171486
0.0646297
0.0645633
0.0643496
0.0639933
0.063493
0.0628432
0.0620363
0.0610637
0.0599166
0.0585855
0.0570578
0.055313
0.0533143
0.0509951
0.0482336
0.0447999
0.0402062
0.0330919
0.0170571
0.0638381
0.0638184
0.0636504
0.0633384
0.0628816
0.0622756
0.0615134
0.0605869
0.0594873
0.0582041
0.0567228
0.0550207
0.0530588
0.0507687
0.0480273
0.0446037
0.0400069
0.0328699
0.0168776
0.0634372
0.0634432
0.0633002
0.0630117
0.062577
0.0619917
0.0612493
0.0603417
0.0592595
0.0579912
0.0565213
0.0548258
0.0528649
0.0505703
0.0478202
0.0443849
0.0397716
0.0325981
0.016581
0.0634508
0.0634652
0.0633301
0.0630479
0.0626173
0.0620337
0.0612899
0.0603773
0.0592852
0.058001
0.0565077
0.0547808
0.052781
0.0504417
0.0476447
0.0441645
0.0395107
0.0322936
0.0162586
0.0639052
0.0639148
0.0637748
0.0634864
0.0630472
0.0624513
0.0616905
0.0607541
0.0596298
0.0583025
0.0567534
0.0549568
0.0528742
0.0504425
0.0475496
0.0439785
0.0392496
0.0319903
0.016031
0.0648318
0.0648277
0.064675
0.0643733
0.0639187
0.0633035
0.0625171
0.0615464
0.0603753
0.058985
0.0573528
0.0554503
0.0532389
0.0506598
0.0476108
0.0438903
0.0390404
0.0317252
0.0158709
0.0662688
0.0662468
0.0660789
0.0657631
0.0652933
0.0646598
0.0638491
0.0628439
0.0616231
0.0601614
0.0584289
0.0563908
0.054005
0.0512162
0.0479364
0.0439895
0.0389502
0.0315225
0.0157227
0.0682632
0.0682237
0.0680435
0.0677189
0.0672421
0.066601
0.0657785
0.0647525
0.063495
0.061971
0.0601387
0.0579494
0.0553493
0.0522811
0.0486734
0.04439
0.0390567
0.0314134
0.0155204
0.0708717
0.0708192
0.0706345
0.0703128
0.069845
0.0692167
0.0684078
0.0673912
0.0661306
0.0645786
0.0626747
0.0603452
0.0575087
0.0540883
0.0500234
0.0452391
0.0394529
0.0314553
0.0152941
0.0741614
0.0741032
0.0739257
0.0736238
0.0731876
0.0726019
0.0718447
0.0708848
0.0696786
0.0681647
0.0662586
0.0638476
0.0607952
0.0569658
0.0522774
0.0467381
0.0402605
0.0317347
0.0152159
0.0782098
0.0781546
0.0779982
0.0777359
0.0773584
0.0768513
0.0761929
0.0753513
0.0742789
0.0729043
0.071119
0.0687617
0.0656071
0.0613863
0.0558877
0.0491508
0.0416029
0.0323248
0.015376
0.0831056
0.0830617
0.08294
0.0827369
0.0824453
0.0820535
0.0815432
0.0808867
0.08004
0.0789324
0.0774454
0.0753806
0.0724109
0.0680357
0.0616209
0.0528085
0.0435622
0.0332355
0.0157364
0.0889508
0.0889238
0.0888472
0.0887194
0.0885361
0.0882901
0.0879696
0.0875562
0.0870192
0.086306
0.0853204
0.0838805
0.0816277
0.0778296
0.0709385
0.0579837
0.0460488
0.0343668
0.0162521
0.0958643
0.0958551
0.0958289
0.0957856
0.095724
0.0956419
0.0955357
0.0953993
0.0952228
0.0949876
0.0946584
0.0941593
0.0933051
0.0915321
0.0865279
0.063835
0.0483436
0.035348
0.0167295
)
;

boundaryField
{
    leftWall
    {
        type            kqRWallFunction;
        value           nonuniform List<scalar> 
50
(
0.00145437
0.00290738
0.00397011
0.00486184
0.00565981
0.00641121
0.00713084
0.00783414
0.00894239
0.0105301
0.012653
0.0171996
0.020979
0.0196458
0.0198011
0.0198088
0.0191077
0.0181726
0.0173364
0.0168079
0.0166177
0.016647
0.0167578
0.0168418
0.0168174
0.0166303
0.0162539
0.0156971
0.0149898
0.0141578
0.013235
0.0122672
0.0112789
0.0102928
0.0093624
0.00856715
0.00797788
0.00763244
0.00753557
0.00767375
0.00803138
0.00860022
0.00938022
0.0103721
0.0115629
0.0129084
0.0143204
0.0156662
0.0167823
0.0174746
)
;
    }
    rightWall
    {
        type            kqRWallFunction;
        value           nonuniform List<scalar> 
50
(
0.00343676
0.00562963
0.00702958
0.00820485
0.00928916
0.0103817
0.0116017
0.0131453
0.0150017
0.0176733
0.0189301
0.019119
0.0156486
0.0127987
0.0115168
0.0117784
0.0121813
0.012362
0.0123465
0.0123269
0.0125604
0.0130941
0.0138055
0.0145552
0.0152533
0.015872
0.0164386
0.0167795
0.0168885
0.0168824
0.0169343
0.0170469
0.0171403
0.0171862
0.0171876
0.0171486
0.0170571
0.0168776
0.016581
0.0162586
0.016031
0.0158709
0.0157227
0.0155204
0.0152941
0.0152159
0.015376
0.0157364
0.0162521
0.0167295
)
;
    }
    lowerWall
    {
        type            kqRWallFunction;
        value           nonuniform List<scalar> 
62
(
0.00145437
0.00328008
0.00485928
0.00617971
0.00734848
0.00844408
0.00950126
0.0105383
0.0115653
0.0125874
0.0136054
0.0146133
0.0155942
0.0165122
0.0173065
0.0178922
0.0181611
0.0179509
0.0170561
0.0156106
0.0133686
0.00987487
0.00427947
0.00427947
0.0100293
0.0141512
0.018066
0.0221123
0.0268132
0.0335172
0.0453105
0.0393686
0.0341183
0.0351634
0.0396809
0.00451658
0.00939123
0.0121447
0.0142985
0.0162838
0.0184707
0.021433
0.027428
0.00451658
0.00876106
0.0122885
0.0144901
0.0156031
0.0160535
0.0157357
0.0140504
0.0115834
0.00912761
0.00796842
0.00716658
0.00611155
0.00550943
0.00575807
0.00622964
0.00640822
0.0056268
0.00343676
)
;
    }
    atmosphere
    {
        type            inletOutlet;
        inletValue      uniform 0.1;
        value           nonuniform List<scalar> 
46
(
0.0174746
0.0366307
0.0450299
0.0501273
0.0537179
0.0564931
0.0587968
0.0608305
0.0627297
0.0646001
0.0665382
0.0686471
0.0710567
0.0739624
0.077726
0.0831475
0.1
0.1
0.1
0.1
0.1
0.1
0.1
0.1
0.1
0.1
0.1
0.1
0.1
0.1
0.1
0.1
0.1
0.1
0.1
0.1
0.1
0.1
0.1
0.1
0.1
0.1
0.063835
0.0483436
0.035348
0.0167295
)
;
    }
    defaultFaces
    {
        type            empty;
    }
}


// ************************************************************************* //
