/*--------------------------------*- C++ -*----------------------------------*\
| =========                 |                                                 |
| \\      /  F ield         | OpenFOAM: The Open Source CFD Toolbox           |
|  \\    /   O peration     | Version:  2.3.0                                 |
|   \\  /    A nd           | Web:      www.OpenFOAM.org                      |
|    \\/     M anipulation  |                                                 |
\*---------------------------------------------------------------------------*/
FoamFile
{
    version     2.0;
    format      ascii;
    class       volScalarField;
    location    "2.35";
    object      nut;
}
// * * * * * * * * * * * * * * * * * * * * * * * * * * * * * * * * * * * * * //

dimensions      [0 2 -1 0 0 0 0];

internalField   nonuniform List<scalar> 
2268
(
3.41765e-05
3.80499e-05
4.64111e-05
5.23708e-05
5.71199e-05
6.12439e-05
6.49822e-05
6.84464e-05
7.17047e-05
7.47998e-05
7.77546e-05
8.05685e-05
8.32048e-05
8.55772e-05
8.75416e-05
8.89065e-05
8.94318e-05
8.87353e-05
8.63249e-05
8.24721e-05
7.6273e-05
6.58285e-05
4.35351e-05
7.56237e-05
0.000307832
0.000422555
0.000498902
0.000558314
0.000608001
0.000651744
0.000691385
0.000727733
0.000761384
0.000792776
0.000822053
0.000848839
0.000872048
0.000889833
0.000899893
0.00089957
0.000883366
0.000841028
0.000789517
0.000719354
0.0005413
0.000140492
8.85902e-05
0.000527127
0.000779499
0.000951368
0.00108534
0.00119732
0.00129525
0.00138272
0.00146151
0.00153294
0.00159805
0.00165732
0.0017102
0.00175454
0.00178654
0.0018013
0.00179298
0.00175228
0.00166592
0.00153815
0.00133018
0.000906701
0.00016638
9.82051e-05
0.000685906
0.00106521
0.00132897
0.0015353
0.00170765
0.00185728
0.0019895
0.00210715
0.00221232
0.00230677
0.00239147
0.00246579
0.00252667
0.00256855
0.00258424
0.00256507
0.00249892
0.00236896
0.00215945
0.00180807
0.00117058
0.000187406
0.0001062
0.000806469
0.001299
0.00164739
0.0019205
0.00214799
0.00234401
0.00251555
0.00266657
0.00280012
0.00291877
0.00302408
0.0031154
0.00318888
0.00323744
0.00325195
0.00322147
0.00313116
0.00295927
0.00267259
0.00219153
0.001374
0.000206573
0.000113174
0.000902434
0.00149558
0.00192115
0.002255
0.00253189
0.00276868
0.00297403
0.00315308
0.00330997
0.0034482
0.00356998
0.00367473
0.00375781
0.00381089
0.00382329
0.00378221
0.00367015
0.00345997
0.00310448
0.00250882
0.00153175
0.00022716
0.000119444
0.000982902
0.00166531
0.002161
0.00254984
0.00287069
0.003143
0.00337707
0.00357942
0.00375533
0.00390932
0.00404428
0.00415968
0.00425023
0.00430651
0.00431668
0.00426637
0.00413564
0.00389242
0.00347865
0.00278438
0.00165739
0.000254624
0.000125261
0.00105362
0.00181574
0.00237512
0.00281359
0.00317342
0.00347651
0.00373488
0.00395648
0.00414782
0.0043145
0.00446009
0.00458412
0.00468071
0.00473957
0.00474794
0.00469015
0.0045442
0.00427434
0.00381575
0.0030484
0.00179124
0.0002933
4.35495e-05
6.13913e-05
7.29325e-05
7.9251e-05
8.23061e-05
8.34955e-05
8.24826e-05
7.73188e-05
7.00497e-05
6.21813e-05
5.8533e-05
5.57336e-05
5.14355e-05
4.94966e-05
5.12089e-05
5.33237e-05
5.37893e-05
4.9885e-05
5.3872e-05
0.000149264
0.000423294
0.000607792
0.000695124
0.000743362
0.000761013
0.00074254
0.000684461
0.000570099
0.000497004
0.000492413
0.00049014
0.000430168
0.000376131
0.00039425
0.00043261
0.00041018
0.000315407
0.000116016
0.000170628
0.000757976
0.00109927
0.00128443
0.00138975
0.00143059
0.00140006
0.00129292
0.00111426
0.000984271
0.00095976
0.000947466
0.000866498
0.000790584
0.000795035
0.000801303
0.000711401
0.000484139
0.000129819
0.000186205
0.00101967
0.00148541
0.00175014
0.001905
0.00196993
0.00193906
0.00180931
0.0016069
0.00144668
0.00139603
0.00136763
0.00128161
0.00119535
0.00116519
0.00111961
0.000957666
0.000618047
0.000140547
0.000200016
0.00123388
0.0018009
0.00212803
0.00232346
0.00241145
0.00238868
0.00225603
0.00205227
0.00188302
0.0018111
0.0017655
0.00167628
0.00158052
0.00151322
0.00141559
0.00118788
0.000752319
0.000150089
0.000214548
0.00142268
0.0020722
0.00244721
0.00267505
0.00278446
0.00277534
0.00265222
0.00246117
0.0022973
0.00221151
0.00214929
0.00205457
0.0019475
0.00184565
0.0016984
0.00141263
0.000894571
0.000159544
0.000232636
0.00160427
0.00231803
0.00272818
0.00298102
0.00310996
0.00311799
0.00301182
0.00284281
0.00269299
0.00259958
0.00252227
0.00241853
0.00229786
0.00216406
0.00196873
0.0016294
0.00104105
0.000170042
0.000264383
0.00180227
0.00255501
0.00298552
0.00325627
0.00340269
0.0034298
0.0033451
0.00320373
0.00307225
0.00297549
0.00288461
0.00276876
0.00263184
0.00246689
0.00222292
0.00183263
0.00117511
0.000182549
0.000133973
0.00115543
0.00202974
0.00267985
0.00318848
0.00360236
0.00394707
0.00423745
0.00448377
0.00469455
0.00487706
0.00503604
0.0051712
0.00527595
0.00533888
0.0053457
0.00527904
0.00511475
0.00481436
0.00431262
0.0035143
0.00234949
0.00102161
0.000145635
0.0012871
0.00229004
0.00304148
0.00362516
0.00409395
0.00447898
0.00479893
0.00506732
0.0052952
0.00549215
0.00566498
0.0058146
0.00593299
0.00600462
0.00601119
0.00593642
0.00575872
0.00544613
0.00495296
0.00424203
0.00334297
0.00242426
0.000160123
0.00142747
0.00254993
0.00338601
0.00402689
0.00453395
0.00494624
0.0052854
0.00556734
0.00580517
0.00601126
0.00619722
0.00637071
0.00651821
0.00660437
0.00660226
0.00651169
0.00632016
0.00600761
0.00554823
0.0049397
0.00423933
0.0035963
0.000188483
0.00157812
0.00282974
0.0037402
0.00441961
0.00494763
0.00537707
0.00572656
0.00601371
0.00625392
0.00646216
0.0066601
0.00687368
0.00705817
0.00712335
0.00710499
0.00700359
0.00680758
0.00650611
0.00609436
0.00559439
0.00505501
0.00459894
0.000209079
0.00175796
0.00313891
0.00409749
0.00478857
0.00531371
0.00573955
0.00608986
0.00637383
0.00660528
0.00679982
0.00699049
0.00721408
0.00738128
0.00744923
0.00744844
0.00737198
0.00720973
0.00694935
0.00659463
0.00617259
0.00575691
0.00544635
0.0002021
0.00188631
0.00336673
0.00436292
0.00506773
0.00559289
0.00600962
0.00636218
0.0066487
0.00686591
0.00704582
0.0072251
0.00740186
0.00754761
0.00766583
0.00770813
0.00765695
0.00752878
0.00732195
0.00704283
0.00672634
0.00639373
0.00613805
0.00020401
0.00194446
0.00347011
0.0045216
0.00527135
0.00581528
0.00623427
0.00657769
0.00684501
0.00704848
0.00723166
0.00741963
0.00758081
0.00771833
0.00786354
0.00794335
0.0079119
0.00781062
0.00764672
0.00743756
0.0072031
0.00693604
0.00669476
0.000205951
0.00193246
0.00349067
0.00459129
0.00538949
0.00597146
0.00640211
0.00672473
0.00697173
0.00718335
0.00738357
0.00758288
0.00774784
0.00786822
0.00801088
0.00810947
0.00812095
0.00805755
0.0079416
0.00779483
0.00761965
0.00741335
0.00720755
0.000203273
0.0018961
0.00346077
0.00458593
0.005412
0.00602402
0.00647348
0.00680131
0.00705816
0.00728585
0.00749555
0.00769035
0.00785533
0.00797368
0.00808396
0.00817152
0.0082255
0.0082329
0.00817931
0.00808688
0.00796223
0.00780863
0.00764631
0.000198191
0.00184013
0.00338701
0.00452056
0.00536153
0.00599099
0.00646039
0.00681213
0.00709545
0.00734635
0.0075672
0.00775949
0.00792101
0.00804353
0.00813477
0.00820311
0.00825697
0.00829664
0.00831598
0.00828399
0.0082008
0.00808853
0.00796781
0.00019228
0.00177014
0.00328441
0.00441745
0.00526844
0.00591218
0.00640091
0.00677763
0.00708526
0.00735504
0.00759069
0.00779101
0.00795575
0.00808266
0.0081713
0.00823125
0.00827697
0.00831099
0.00833388
0.00834349
0.00829946
0.00822125
0.00812297
0.000187223
0.00169841
0.00317389
0.00430138
0.00516034
0.00581788
0.00632462
0.00672205
0.00704643
0.00732415
0.00756586
0.00777429
0.00794745
0.00808146
0.00817336
0.00823332
0.00827661
0.00830428
0.0083163
0.00831556
0.00830052
0.00826071
0.00819987
0.000184152
0.00163509
0.00307289
0.00419142
0.00505595
0.00572594
0.00624834
0.0066616
0.006997
0.00727754
0.00751712
0.00772317
0.0078969
0.00803513
0.00813484
0.00820326
0.00825258
0.00828314
0.0082946
0.00829198
0.00828547
0.00826992
0.00824038
0.000182845
0.0015879
0.00299006
0.00409764
0.00496449
0.00564397
0.00617873
0.00660369
0.00694636
0.0072282
0.00746416
0.0076639
0.00783201
0.00796917
0.00807547
0.00815536
0.0082147
0.00825325
0.00827132
0.00827595
0.00827795
0.00827694
0.00826643
0.000182427
0.00155575
0.00292731
0.00402188
0.00488764
0.00557267
0.00611571
0.00654848
0.00689655
0.00717996
0.00741378
0.00760886
0.00777216
0.00790748
0.00801741
0.00810513
0.00817273
0.00821965
0.0082471
0.00826199
0.00827311
0.00828206
0.00828373
0.000182257
0.00153115
0.00287845
0.00395997
0.00482139
0.00550803
0.00605589
0.00649417
0.00684665
0.00713236
0.00736616
0.00755945
0.00772051
0.00785503
0.00796694
0.008059
0.00813219
0.00818628
0.00822302
0.00824798
0.00826768
0.00828416
0.0082941
0.000181865
0.0015089
0.00283519
0.00390378
0.00475902
0.00544467
0.00599491
0.00643711
0.00679356
0.00708236
0.00731804
0.00751209
0.00767338
0.00780846
0.00792196
0.00801675
0.00809399
0.00815413
0.00819903
0.00823282
0.00826007
0.00828271
0.00829876
0.000180917
0.00148552
0.0027905
0.00384549
0.0046934
0.00537662
0.00592791
0.00637324
0.00673368
0.00702645
0.00726561
0.00746249
0.00762606
0.00776319
0.00787887
0.00797629
0.0080572
0.0081227
0.00817461
0.00821594
0.00824985
0.00827788
0.00829902
0.000179194
0.00145831
0.00273887
0.00377882
0.00461866
0.00529888
0.00585081
0.0062992
0.00666406
0.00696181
0.00720593
0.00740743
0.00757512
0.00771593
0.007835
0.00793589
0.00802087
0.00809156
0.00814977
0.00819775
0.00823771
0.00827082
0.0082966
0.000176543
0.00142339
0.00267619
0.00369974
0.00453114
0.00520836
0.00576114
0.00621303
0.00658311
0.00688701
0.0071376
0.00734543
0.00751906
0.00766528
0.00778933
0.007895
0.00798495
0.00806118
0.00812549
0.00817971
0.00822543
0.00826355
0.00829386
0.000172927
0.00137915
0.0026012
0.00360738
0.00443016
0.00510455
0.00565861
0.00611472
0.00649104
0.0068024
0.00706102
0.00727693
0.00745832
0.00761181
0.00774257
0.00785455
0.00795068
0.00803316
0.00810383
0.00816427
0.00821574
0.00825894
0.00829378
0.000168445
0.0013281
0.00251727
0.00350488
0.00431841
0.00498975
0.00554532
0.00600636
0.00639
0.00671023
0.00697849
0.00720424
0.00739525
0.00755785
0.00769712
0.00781703
0.00792064
0.00801029
0.00808784
0.00815477
0.00821213
0.0082605
0.00829988
0.000163227
0.00127523
0.00243182
0.00339907
0.0042014
0.00486863
0.00542556
0.00589209
0.00628414
0.00661463
0.00689415
0.00713148
0.00733389
0.00750738
0.00765685
0.00778621
0.00789857
0.00799632
0.00808137
0.00815511
0.00821851
0.00827211
0.00831594
0.000157508
0.00122802
0.00235099
0.00329618
0.00408517
0.00474706
0.0053052
0.00577783
0.00617937
0.0065215
0.00681381
0.0070643
0.0072797
0.00746563
0.00762673
0.00776681
0.00788895
0.00799557
0.00808857
0.00816933
0.0082388
0.00829749
0.00834555
0.000151463
0.00118597
0.00227578
0.00319894
0.00397441
0.00463116
0.00519118
0.0056709
0.00608311
0.00643813
0.00674448
0.00700939
0.00723897
0.00743843
0.00761214
0.00776377
0.00789632
0.0080122
0.00811329
0.008201
0.00827629
0.00833971
0.00839151
0.000145139
0.00114223
0.00220504
0.00310898
0.00387376
0.00452772
0.00509142
0.00557964
0.00600364
0.00637246
0.00669363
0.00697359
0.00721789
0.0074313
0.00761795
0.00778131
0.0079243
0.00804929
0.00815818
0.00825238
0.0083329
0.00840041
0.00845522
0.000138768
0.00110183
0.00214202
0.00303159
0.00379034
0.00444498
0.00501461
0.00551263
0.00594907
0.00633191
0.00666784
0.00696262
0.00722127
0.0074482
0.00764725
0.00782175
0.00797451
0.00810788
0.00822374
0.00832356
0.00840842
0.00847913
0.00853596
0.000132876
0.00107279
0.00209526
0.00297611
0.00373328
0.00439158
0.00496873
0.00547705
0.00592564
0.0063217
0.00667126
0.00697954
0.00725115
0.00749016
0.00770021
0.00788445
0.00804563
0.00818604
0.00830759
0.0084118
0.00849985
0.00857263
0.00863044
0.000128115
0.00105804
0.00207226
0.00295035
0.0037096
0.00437345
0.00495857
0.00547653
0.00593584
0.00634318
0.00670414
0.00702355
0.00730572
0.00755449
0.00777331
0.00796521
0.00813286
0.00827854
0.00840417
0.00851132
0.00860126
0.00867489
0.00873272
0.00012501
0.00105775
0.00207473
0.00295644
0.00372092
0.00439129
0.00498382
0.00550978
0.0059774
0.00639315
0.00676238
0.00708972
0.00737931
0.00763484
0.00785962
0.00805662
0.00822843
0.00837733
0.00850524
0.00861379
0.00870433
0.00877769
0.00883475
0.000123823
0.00107023
0.00209996
0.00299118
0.0037635
0.00444072
0.00503945
0.00557112
0.00604407
0.00646478
0.00683862
0.00717021
0.00746363
0.00772253
0.00795017
0.00814945
0.00832296
0.00847291
0.00860127
0.00870969
0.00879951
0.00887177
0.0089275
0.000124562
0.00109406
0.00214408
0.00304909
0.00383088
0.0045147
0.00511802
0.00565284
0.00612788
0.00654991
0.00692453
0.00725649
0.00755
0.00780876
0.00803606
0.00823477
0.00840746
0.00855633
0.00868333
0.00879013
0.00887809
0.00894854
0.00900257
0.000127085
0.00112856
0.00220386
0.00312495
0.00391672
0.00460634
0.00521245
0.00574781
0.00622174
0.0066415
0.00701309
0.00734162
0.00763155
0.00788673
0.00811054
0.00830591
0.00847535
0.00862106
0.00874493
0.00884865
0.00893381
0.00900178
0.00905374
0.000131204
0.00117272
0.00227624
0.00321412
0.00401564
0.00471011
0.00531731
0.00585085
0.00632074
0.0067349
0.00709994
0.00742149
0.00770438
0.00795278
0.0081702
0.00835964
0.0085236
0.0086642
0.00878328
0.00888268
0.00896403
0.00902881
0.00907822
0.000136717
0.00122406
0.00235672
0.00331138
0.00412248
0.00482125
0.00542843
0.00595835
0.00642183
0.00682763
0.00718311
0.00749461
0.00776752
0.00800637
0.00821493
0.00839627
0.00855287
0.00868672
0.00879969
0.00889365
0.00897023
0.00903096
0.00907717
0.000143378
0.00127816
0.00243864
0.00340998
0.00423124
0.00493475
0.00554172
0.00606714
0.00652271
0.00691817
0.0072619
0.0075611
0.00782183
0.00804913
0.00824706
0.00841884
0.00856687
0.00869295
0.00879897
0.00888658
0.00895747
0.00901329
0.00905553
0.000150842
0.00132922
0.00251386
0.00350199
0.00433496
0.00504472
0.00565238
0.00617344
0.0066206
0.00700481
0.00733564
0.00762132
0.00786873
0.00808351
0.00827012
0.00843193
0.00857121
0.00868958
0.0087884
0.00886912
0.00893356
0.00898364
0.0090211
0.000158631
0.00137147
0.00257462
0.0035797
0.00442655
0.00514484
0.00575487
0.00627259
0.00671183
0.00708495
0.0074029
0.00767506
0.00790924
0.0081118
0.00828776
0.00844079
0.00857281
0.0086847
0.0087768
0.00885044
0.00890783
0.00895142
0.0089834
0.000166151
0.00140052
0.00261556
0.00363746
0.00450021
0.00522928
0.00584358
0.00635946
0.00679203
0.00715521
0.00746139
0.0077212
0.00794346
0.00813544
0.00830316
0.00845086
0.00857965
0.00868781
0.00877419
0.00884051
0.00889012
0.00892646
0.00895231
0.000172754
0.00141431
0.00263523
0.00367324
0.00455273
0.00529375
0.00591361
0.00642911
0.00685671
0.00721183
0.00750831
0.00775793
0.00797059
0.00815487
0.0083187
0.0084681
0.00860236
0.00871113
0.00879198
0.00884954
0.00888984
0.00891783
0.00893694
0.000177811
0.00141407
0.00263738
0.00368962
0.00458425
0.0053362
0.00596152
0.00647756
0.00690195
0.00725144
0.00754097
0.00778332
0.00798936
0.00816942
0.00833509
0.0084983
0.00866026
0.00877298
0.0088434
0.00888717
0.00891497
0.008933
0.00894473
0.000180705
0.00140743
0.00263209
0.0036937
0.00459794
0.00535673
0.00598556
0.00650221
0.00692507
0.00727165
0.00755755
0.00779607
0.00799875
0.00817746
0.0083484
0.00853826
0.00880564
0.00890265
0.00894153
0.00896034
0.00897078
0.00897707
0.008981
0.000266976
0.000256415
0.000266027
0.000285492
0.00187947
0.00173348
0.00168872
0.00175977
0.00326822
0.00315205
0.00311757
0.00315893
0.00438418
0.00429663
0.00425102
0.00424389
0.00527722
0.00519456
0.00514119
0.00511482
0.00600292
0.00592905
0.00587351
0.00583945
0.00658019
0.0065227
0.00647665
0.0064418
0.00708996
0.00703266
0.00698333
0.00694073
0.0075311
0.00746585
0.00740278
0.00734771
0.00786652
0.00779346
0.00771968
0.00765634
0.00803521
0.00797824
0.00792379
0.00787422
0.00814296
0.00810593
0.0080684
0.00803141
0.00820803
0.00818583
0.00816183
0.00813652
0.00824948
0.00823727
0.00822295
0.00820678
0.00827675
0.00827137
0.00826392
0.00825452
0.00829411
0.00829358
0.00829113
0.00828681
0.00830392
0.00830694
0.00830818
0.0083076
0.00830823
0.00831397
0.00831801
0.00832023
0.0083093
0.00831726
0.00832351
0.00832788
0.00830977
0.00831966
0.00832776
0.00833389
0.00831276
0.00832442
0.00833417
0.00834183
0.00832182
0.00833516
0.00834642
0.00835545
0.00834069
0.00835557
0.00836819
0.00837841
0.00837284
0.00838905
0.00840281
0.00841397
0.00842091
0.00843816
0.00845273
0.00846451
0.00848613
0.00850402
0.00851901
0.00853101
0.0085677
0.00858577
0.00860074
0.00861251
0.0086623
0.00868013
0.00869466
0.00870583
0.0087641
0.00878135
0.00879515
0.00880545
0.00886523
0.00888171
0.00889465
0.00890401
0.0089569
0.00897258
0.00898468
0.00899319
0.00903083
0.00904575
0.00905715
0.00906501
0.00908081
0.00909505
0.00910587
0.00911328
0.00910394
0.00911747
0.00912776
0.00913482
0.00910123
0.00911389
0.00912355
0.00913023
0.00907745
0.00908898
0.00909779
0.00910391
0.00904038
0.00905047
0.00905816
0.00906347
0.00899958
0.00900796
0.00901428
0.00901857
0.00896506
0.00897155
0.00897636
0.00897954
0.00894604
0.00895059
0.00895388
0.00895595
0.00895012
0.00895276
0.00895462
0.00895573
0.00898277
0.00898362
0.00898421
0.00898455
0.000993921
0.00224765
0.00293404
0.0033638
0.00364708
0.00381463
0.00387463
0.00383809
0.00374458
0.00364273
0.00354368
0.00343283
0.00329418
0.00312709
0.00290216
0.0025825
0.00210944
0.0013456
0.000195607
0.00220582
0.0029488
0.00347779
0.00385902
0.00413394
0.00431838
0.00441655
0.00443913
0.00440266
0.00433764
0.00424453
0.0041147
0.00393907
0.00370901
0.00340185
0.00299073
0.00242085
0.00153557
0.000211322
0.00331824
0.00370071
0.00405889
0.00436189
0.00460759
0.00479402
0.00491755
0.0049837
0.00499863
0.0049614
0.00486726
0.00471379
0.0044945
0.00419902
0.0038044
0.0032973
0.00263163
0.00165933
0.000215807
0.00427807
0.00445075
0.00466427
0.00488075
0.00508168
0.00525278
0.00538309
0.00547176
0.0055118
0.00548978
0.0053936
0.00521815
0.00495614
0.00459564
0.00410921
0.0034913
0.00270355
0.0016343
0.000220629
0.00510138
0.00516442
0.00527726
0.00541323
0.00555819
0.00569696
0.0058152
0.00590804
0.0059624
0.00594806
0.00584192
0.00563701
0.0053248
0.00488851
0.00431064
0.00356571
0.00259487
0.0014211
0.000197511
0.00580438
0.00581549
0.0058655
0.00593602
0.00602122
0.00611084
0.00619346
0.00625826
0.00628131
0.00623062
0.00608594
0.00585053
0.00551391
0.00509761
0.00446336
0.00356629
0.00242277
0.00123167
0.000178652
0.00639251
0.00635468
0.00635716
0.0063891
0.0064365
0.00648516
0.00652201
0.00653085
0.00648945
0.00637707
0.00618195
0.00589406
0.00551054
0.00502443
0.00433078
0.00341562
0.00232592
0.00119166
0.000168257
0.00687488
0.00680422
0.00677359
0.00677602
0.00679342
0.00680625
0.00679839
0.00675459
0.00665527
0.00647922
0.00622257
0.00585604
0.0053577
0.00477939
0.00409722
0.00327467
0.00231505
0.00125191
0.000169689
0.00726417
0.00717111
0.0071184
0.007096
0.00708389
0.00705859
0.00700094
0.00689932
0.00674027
0.0064981
0.00616528
0.00573424
0.00519489
0.00459769
0.00395074
0.00321284
0.00233823
0.00128626
0.000171812
0.00756461
0.00746356
0.00739144
0.0073374
0.00728517
0.00721578
0.00711254
0.0069644
0.00675499
0.00646503
0.00608783
0.00562839
0.0050948
0.00451233
0.0038934
0.00319026
0.00233034
0.0012503
0.000172113
0.00779661
0.00769863
0.00761278
0.00753422
0.00745015
0.00734589
0.0072075
0.00702225
0.00677545
0.00645453
0.00605772
0.00559295
0.0050681
0.0044952
0.00387813
0.00316338
0.00227609
0.0011758
0.000171317
0.00796978
0.00788115
0.00779396
0.00770461
0.00760313
0.00747721
0.00731348
0.0071
0.00682675
0.00648676
0.00608163
0.00561683
0.00509423
0.0045182
0.00388029
0.00313045
0.00220023
0.00109976
0.00017134
0.00809265
0.00801936
0.00793886
0.00784834
0.00773975
0.00760223
0.00742317
0.00719211
0.00690271
0.00655189
0.00614216
0.00567591
0.005151
0.00456588
0.00390327
0.00311779
0.00215885
0.00106664
0.000173834
0.0081782
0.00812151
0.00805143
0.00796494
0.00785526
0.00771271
0.00752592
0.00728614
0.00698923
0.00663385
0.00622141
0.00575304
0.00522595
0.00463366
0.00395533
0.00315112
0.00218431
0.00108929
0.000178433
0.00823707
0.00819483
0.00813567
0.0080552
0.00794736
0.00780366
0.00761445
0.00737256
0.00707474
0.00672027
0.0063096
0.00584254
0.00531616
0.00472181
0.00403901
0.00323237
0.00226603
0.00115321
0.000183823
0.00827763
0.0082461
0.00819587
0.00812188
0.00801763
0.00787554
0.00768777
0.00744841
0.00715471
0.00680599
0.00640189
0.00594103
0.00541965
0.00482838
0.00414733
0.00334322
0.00237733
0.00124024
0.000189023
0.00830443
0.00828085
0.00823771
0.00816947
0.0080698
0.00793156
0.00774808
0.00751454
0.00722863
0.00688938
0.00649562
0.00604489
0.00553224
0.00494715
0.00426927
0.00346579
0.00249527
0.00133392
0.000193555
0.00832142
0.00830367
0.00826606
0.00820302
0.00810837
0.00797564
0.00779858
0.00757329
0.00729768
0.00697043
0.00658951
0.00615133
0.00564935
0.00507123
0.00439503
0.0035868
0.00260274
0.00141466
0.000197377
0.00833236
0.00831904
0.0082858
0.00822735
0.00813785
0.00801134
0.00784241
0.00762722
0.00736343
0.00704965
0.00668281
0.00625805
0.005767
0.00519496
0.00451758
0.0036984
0.00268775
0.0014582
0.000200715
0.008341
0.00833132
0.00830169
0.00824729
0.00816277
0.00804271
0.00788227
0.00767792
0.00742719
0.00712754
0.00677492
0.00636317
0.00588215
0.00531449
0.00463269
0.00379873
0.00276458
0.00149616
0.000202432
0.00835119
0.00834464
0.00831814
0.00826735
0.00818749
0.00807373
0.00792169
0.00772795
0.00748965
0.00720347
0.00686449
0.00646497
0.0059926
0.00542794
0.00474191
0.00389432
0.00283581
0.00152946
0.000202638
0.00836677
0.00836293
0.00833914
0.00829153
0.00821589
0.00810795
0.00796372
0.00777978
0.00755281
0.00727881
0.00695187
0.00656289
0.00609777
0.00553519
0.00484427
0.00398313
0.0029009
0.00155966
0.000202611
0.00839139
0.00838979
0.00836819
0.0083232
0.00825113
0.00814821
0.00801076
0.00783529
0.00761809
0.00735444
0.0070375
0.00665693
0.00619716
0.00563526
0.00493885
0.00406467
0.00296046
0.00158763
0.000203328
0.00842819
0.00842821
0.00840811
0.00836497
0.00829557
0.00819655
0.00806448
0.00789578
0.00768635
0.00743083
0.00712149
0.00674694
0.00629038
0.00572766
0.00502525
0.00413879
0.00301467
0.00161315
0.000204316
0.00847941
0.00848022
0.00846075
0.00841849
0.00835065
0.0082542
0.00812586
0.00796198
0.00775808
0.00750821
0.00720389
0.00683283
0.00637729
0.00581223
0.00510334
0.00420538
0.0030634
0.00163623
0.000205026
0.00854591
0.00854656
0.00852674
0.0084843
0.00841681
0.00832148
0.00819515
0.00803405
0.00783337
0.00758664
0.00728474
0.00691467
0.00645802
0.00588914
0.00517323
0.00426443
0.00310651
0.00165677
0.000205417
0.00862672
0.00862627
0.00860515
0.00856153
0.00849324
0.0083977
0.00827177
0.00811155
0.00791193
0.007666
0.00736411
0.00699271
0.00653294
0.00595883
0.00523531
0.00431611
0.0031439
0.00167435
0.000205537
0.00871875
0.00871643
0.00869328
0.00864774
0.00857782
0.00848104
0.00835426
0.00819341
0.0079931
0.00774601
0.00744208
0.00706737
0.00660272
0.00602204
0.00529025
0.00436085
0.00317564
0.00168851
0.000205397
0.00881673
0.00881213
0.00878665
0.00873889
0.008667
0.00856853
0.00844025
0.00827789
0.00807577
0.00782621
0.00751879
0.00713927
0.00666833
0.00607991
0.00533907
0.0043994
0.0032021
0.00169934
0.000204886
0.0089136
0.00890679
0.00887918
0.00882951
0.00875598
0.00865607
0.00852641
0.00836252
0.00815837
0.00790593
0.00759439
0.00720926
0.00673112
0.00613401
0.0053833
0.00443294
0.00322406
0.00170756
0.000203745
0.00900134
0.00899285
0.00896386
0.00891317
0.00883897
0.00873865
0.00860865
0.00844417
0.00823884
0.00798419
0.00766899
0.00727842
0.00679288
0.00618654
0.00542517
0.00446338
0.00324292
0.00171438
0.000201866
0.00907217
0.00906284
0.00903356
0.00898318
0.00890984
0.0088108
0.00868229
0.00851916
0.00831463
0.00805969
0.00774259
0.00734795
0.00685585
0.0062404
0.00546779
0.00449358
0.00326081
0.00172077
0.000200028
0.00911991
0.00911062
0.00908225
0.00903368
0.00896298
0.00886731
0.00874265
0.00858357
0.00838278
0.00813072
0.00781487
0.00741907
0.00692264
0.00629923
0.00551524
0.00452731
0.0032803
0.00172702
0.000198856
0.00914121
0.00913266
0.00910621
0.00906076
0.00899437
0.00890411
0.00878583
0.00863381
0.00844037
0.00819528
0.00788518
0.00749273
0.00699592
0.00636719
0.00557242
0.00456913
0.00330458
0.00173456
0.000198049
0.0091364
0.0091289
0.00910496
0.00906353
0.00900269
0.00891953
0.00880982
0.00866772
0.00848526
0.00825169
0.00795271
0.00756959
0.00707827
0.00644881
0.0056451
0.00462461
0.00333754
0.00174497
0.000197292
0.00910963
0.00910312
0.00908186
0.00904486
0.00899029
0.00891531
0.00881579
0.00868591
0.00851762
0.00829988
0.00801763
0.00765066
0.00717237
0.00654896
0.00573999
0.00470071
0.0033846
0.00176131
0.000196211
0.0090684
0.0090626
0.00904391
0.00901144
0.00896346
0.00889731
0.00880906
0.00869312
0.0085416
0.00834345
0.00808319
0.00773935
0.00728257
0.00667393
0.00586545
0.00480613
0.00345252
0.00178705
0.000195086
0.00902242
0.00901707
0.00900086
0.00897297
0.00893188
0.00887514
0.00879917
0.00869876
0.00856647
0.00839152
0.00815843
0.00784483
0.00741871
0.00683498
0.00603405
0.00495173
0.00354829
0.00182317
0.000195029
0.00898215
0.00897725
0.00896366
0.00894071
0.00890707
0.00886066
0.00879838
0.00871564
0.00860571
0.00845859
0.00825924
0.00798496
0.00760123
0.00705548
0.00626992
0.00515226
0.00367765
0.00186974
0.000196572
0.00895745
0.00895329
0.0089428
0.00892546
0.00890025
0.00886556
0.00881895
0.00875678
0.00867355
0.00856073
0.00840487
0.00818426
0.00786297
0.007379
0.00662243
0.00542978
0.00384537
0.00192741
0.000199409
0.00895638
0.00895349
0.00894677
0.0089359
0.00892024
0.00889878
0.00886999
0.00883151
0.00877972
0.00870874
0.00860882
0.00846285
0.00823867
0.00786802
0.00718578
0.00580129
0.00404417
0.0019909
0.000203173
0.00898471
0.00898365
0.00898131
0.0089776
0.0089723
0.00896508
0.00895545
0.00894261
0.00892535
0.00890163
0.00886791
0.00881746
0.00873501
0.00857412
0.00813678
0.00620126
0.00421942
0.00204109
0.000206553
)
;

boundaryField
{
    leftWall
    {
        type            nutkWallFunction;
        Cmu             0.09;
        kappa           0.41;
        E               9.8;
        value           nonuniform List<scalar> 
50
(
6.58243e-06
9.22664e-06
1.07078e-05
1.17872e-05
1.26632e-05
1.34273e-05
1.41139e-05
1.47487e-05
1.5688e-05
1.69302e-05
1.85459e-05
2.25756e-05
2.49707e-05
2.39882e-05
2.11472e-05
1.99167e-05
1.93944e-05
1.8692e-05
1.80471e-05
1.76304e-05
1.74786e-05
1.75023e-05
1.75909e-05
1.76577e-05
1.76383e-05
1.74891e-05
1.71859e-05
1.67299e-05
1.6137e-05
1.54191e-05
1.46992e-05
1.39568e-05
1.29992e-05
1.17846e-05
1.07143e-05
9.8084e-06
9.10586e-06
8.68015e-06
8.5588e-06
8.73162e-06
9.17084e-06
9.84698e-06
1.07338e-05
1.18025e-05
1.30112e-05
1.42943e-05
1.55612e-05
1.6704e-05
1.761e-05
1.81548e-05
)
;
    }
    rightWall
    {
        type            nutkWallFunction;
        Cmu             0.09;
        kappa           0.41;
        E               9.8;
        value           nonuniform List<scalar> 
50
(
1.10507e-05
1.39446e-05
1.54695e-05
1.66242e-05
1.76107e-05
1.85423e-05
1.95206e-05
2.06802e-05
2.19794e-05
2.37089e-05
2.45786e-05
2.33597e-05
2.01572e-05
1.84654e-05
1.7178e-05
1.7267e-05
1.65808e-05
1.67193e-05
1.64487e-05
1.64267e-05
1.70229e-05
1.75913e-05
1.82895e-05
1.90036e-05
1.96498e-05
2.02082e-05
2.07067e-05
2.07821e-05
2.06477e-05
2.07486e-05
2.09643e-05
2.10614e-05
2.11415e-05
2.11805e-05
2.11814e-05
2.11473e-05
2.10665e-05
2.07915e-05
2.03943e-05
2.02239e-05
2.00766e-05
1.99333e-05
1.97465e-05
1.94306e-05
1.92235e-05
1.91515e-05
1.92986e-05
1.96267e-05
2.00888e-05
2.05108e-05
)
;
    }
    lowerWall
    {
        type            nutkWallFunction;
        Cmu             0.09;
        kappa           0.41;
        E               9.8;
        value           nonuniform List<scalar> 
62
(
3.00174e-06
4.65173e-06
5.68652e-06
6.41361e-06
6.98749e-06
7.48074e-06
7.92387e-06
8.33259e-06
8.71579e-06
9.07881e-06
9.42437e-06
9.75265e-06
1.00602e-05
1.03385e-05
1.05724e-05
1.0741e-05
1.08175e-05
1.07578e-05
1.04994e-05
1.00654e-05
9.34531e-06
8.07387e-06
5.33221e-06
5.33221e-06
1.65485e-05
1.9413e-05
2.17302e-05
2.38493e-05
2.60578e-05
2.88655e-05
3.31357e-05
3.12208e-05
2.92407e-05
2.96476e-05
3.13343e-05
5.48011e-06
1.77011e-05
1.99386e-05
2.14992e-05
2.28263e-05
2.41881e-05
2.58985e-05
2.89999e-05
5.48011e-06
7.61684e-06
8.9746e-06
9.71342e-06
1.00633e-05
1.02009e-05
1.01041e-05
9.57142e-06
8.72276e-06
7.7706e-06
7.27127e-06
6.90171e-06
6.37834e-06
6.05672e-06
6.1918e-06
6.43932e-06
6.53032e-06
6.1209e-06
4.76535e-06
)
;
    }
    atmosphere
    {
        type            calculated;
        value           nonuniform List<scalar> 
46
(
0.000180705
0.00140743
0.00263209
0.0036937
0.00459794
0.00535673
0.00598556
0.00650221
0.00692507
0.00727165
0.00755755
0.00779607
0.00799875
0.00817746
0.0083484
0.00853826
0.009
0.009
0.009
0.009
0.009
0.009
0.009
0.009
0.009
0.009
0.009
0.009
0.009
0.009
0.009
0.009
0.009
0.009
0.009
0.009
0.009
0.009
0.009
0.009
0.009
0.009
0.00620126
0.00421942
0.00204109
0.000206553
)
;
    }
    defaultFaces
    {
        type            empty;
    }
}


// ************************************************************************* //
