/*--------------------------------*- C++ -*----------------------------------*\
| =========                 |                                                 |
| \\      /  F ield         | OpenFOAM: The Open Source CFD Toolbox           |
|  \\    /   O peration     | Version:  2.3.0                                 |
|   \\  /    A nd           | Web:      www.OpenFOAM.org                      |
|    \\/     M anipulation  |                                                 |
\*---------------------------------------------------------------------------*/
FoamFile
{
    version     2.0;
    format      ascii;
    class       volScalarField;
    location    "2.35";
    object      p;
}
// * * * * * * * * * * * * * * * * * * * * * * * * * * * * * * * * * * * * * //

dimensions      [1 -1 -2 0 0 0 0];

internalField   nonuniform List<scalar> 
2268
(
687.736
687.265
686.766
686.039
685.117
684.049
682.926
681.855
680.964
680.386
680.257
680.701
681.826
683.715
686.416
689.924
694.149
698.859
703.608
708.836
714.165
717.89
719.337
629.009
628.49
627.959
627.224
626.308
625.25
624.128
623.05
622.145
621.547
621.394
621.814
622.921
624.807
627.537
631.119
635.492
640.627
646.402
651.529
655.703
658.665
660.125
570.301
569.81
569.247
568.49
567.561
566.489
565.345
564.235
563.286
562.637
562.429
562.798
563.865
565.74
568.504
572.191
576.771
582.342
589.005
594.106
597.524
599.553
601.199
511.642
511.223
510.631
509.838
508.868
507.75
506.548
505.365
504.331
503.59
503.29
503.577
504.583
506.428
509.215
513.006
517.799
523.651
530.724
536.288
539.87
541.154
542.896
453.038
452.717
452.097
451.252
450.221
449.026
447.731
446.436
445.274
444.399
443.97
444.144
445.064
446.859
449.647
453.523
458.518
464.604
471.814
478.271
482.454
483.59
485.337
394.498
394.268
393.636
392.727
391.615
390.32
388.901
387.456
386.123
385.072
384.476
384.504
385.309
387.028
389.793
393.735
398.934
405.316
412.792
420.02
425.168
426.655
428.409
336.019
335.871
335.235
334.255
333.05
331.635
330.065
328.435
326.889
325.619
324.818
324.675
325.342
326.963
329.677
333.67
339.094
345.895
353.921
362.05
368.673
371.742
371.866
277.597
277.517
276.875
275.818
274.515
272.97
271.231
269.385
267.588
266.064
265.037
264.716
265.248
266.76
269.399
273.422
279.103
286.468
295.411
305.132
314.307
321.201
319.419
845.887
840.487
834.601
827.464
818.172
805.891
790.649
774.233
761.097
754.641
748.914
740.526
730.089
720.392
713.16
710.84
714.267
717.844
715.532
791.227
784.52
776.673
768.694
759.105
746.749
731.971
717.428
707.03
699.109
691.92
683.311
673.968
665.615
656.957
652.419
654.954
657.942
657.099
735.945
727.821
718.513
709.695
699.385
686.713
672.342
659.516
651.848
644.658
635.359
626.635
619.064
612.064
602.451
596.242
596.327
597.293
597.516
680.035
670.769
660.973
651.628
640.797
627.917
613.737
601.182
595.21
589.795
580.623
570.955
565.048
557.48
547.568
540.474
537.07
536.339
537.138
623.682
614.04
603.767
594.168
583.081
570.115
555.839
542.796
537.666
534.164
525.499
515.114
509.729
502.076
491.904
483.204
476.791
475.192
476.524
566.227
557.499
546.62
536.985
525.895
513.054
498.516
484.011
478.746
476.254
468.155
458.064
452.493
445.83
435.312
424.069
416.276
413.863
415.744
507.26
500.419
489.292
479.899
469.081
456.64
442.474
425.669
418.034
416.254
409.277
400.247
393.635
386.706
375.79
363.394
355.436
352.383
354.902
445.379
440.843
431.435
422.755
412.561
400.929
387.763
371.464
361.63
355.996
350.432
342.379
334.006
325.395
314.19
302.369
294.489
291.063
293.892
186.306
186.269
185.643
184.504
183.048
181.278
179.233
176.987
174.717
172.713
171.262
170.606
170.875
172.162
174.579
178.529
184.516
192.755
203.401
216.448
232.028
247.692
259.859
71.1177
71.1427
70.7278
69.8187
68.6348
67.1475
65.3649
63.2865
61.0914
59.1707
57.659
56.7319
56.6077
57.4277
58.9961
61.619
66.0378
72.4486
81.4787
94.1989
112.461
136.419
161.264
8.87
8.95109
9.01036
8.85668
8.50615
7.96482
7.40308
6.84027
6.24849
5.76223
5.3306
5.0085
5.10878
5.95431
7.13687
8.50812
10.2898
12.5251
15.5727
19.9133
26.5717
39.2005
60.8513
0.147989
0.237757
0.407564
0.505943
0.555154
0.514282
0.5893
0.92749
1.25935
1.47709
1.65297
1.81363
2.14936
3.03913
4.2113
5.06845
5.84849
6.54065
7.0997
7.19943
6.56269
6.05659
8.93908
-0.357483
-0.350097
-0.28375
-0.178777
-0.0525817
0.0287067
0.108317
0.172829
0.365809
0.60593
0.831407
1.04502
1.37772
1.98338
2.64297
3.44743
4.15463
4.64627
4.75669
4.35971
3.72417
3.36808
2.89
-0.8316
-0.894674
-0.914855
-0.890866
-0.798733
-0.659585
-0.582407
-0.627994
-0.579562
-0.43294
-0.245625
-0.0521437
0.175981
0.436453
0.703147
1.16561
1.86656
2.55635
2.88601
2.86658
2.70693
2.49845
2.28194
-1.10368
-1.11328
-1.11121
-1.1165
-1.12448
-1.10778
-1.07028
-1.01279
-0.922912
-0.812298
-0.721117
-0.646759
-0.592066
-0.642762
-0.687511
-0.554986
-0.234015
0.355584
1.00382
1.46476
1.79975
1.7392
1.5435
-1.24546
-1.2492
-1.25135
-1.25555
-1.25989
-1.25663
-1.23675
-1.1977
-1.14325
-1.06684
-0.991009
-0.922815
-0.912545
-1.00285
-1.04824
-1.02506
-1.04133
-1.02259
-0.705961
-0.0640454
0.435718
0.523998
0.375214
-1.37875
-1.38237
-1.3848
-1.38737
-1.3892
-1.3859
-1.37425
-1.35809
-1.34586
-1.32857
-1.28484
-1.21545
-1.17923
-1.20886
-1.25749
-1.27407
-1.2959
-1.31735
-1.36038
-1.21832
-1.11411
-1.01932
-1.20229
-1.51397
-1.51645
-1.5189
-1.52112
-1.52253
-1.52153
-1.51747
-1.51494
-1.5261
-1.54504
-1.54033
-1.51269
-1.47018
-1.45209
-1.46756
-1.48012
-1.49557
-1.5232
-1.57344
-1.70323
-1.82449
-1.86198
-1.92458
-1.6499
-1.65161
-1.65396
-1.65636
-1.65838
-1.65989
-1.66131
-1.66568
-1.6783
-1.69481
-1.70907
-1.72127
-1.7191
-1.7051
-1.69401
-1.68683
-1.69633
-1.73399
-1.78151
-1.84898
-1.90411
-1.95462
-1.9949
-1.78606
-1.78727
-1.78936
-1.79191
-1.79464
-1.79776
-1.80185
-1.80837
-1.81936
-1.83304
-1.84535
-1.85954
-1.8782
-1.89178
-1.89036
-1.88509
-1.89512
-1.92411
-1.96257
-2.0025
-2.034
-2.05887
-2.07802
-1.92212
-1.92301
-1.92479
-1.92733
-1.93047
-1.93435
-1.93939
-1.94637
-1.95621
-1.96821
-1.98046
-1.99339
-2.00725
-2.02248
-2.03568
-2.05144
-2.07236
-2.0976
-2.12589
-2.13946
-2.15711
-2.17367
-2.18607
-2.05778
-2.0585
-2.06004
-2.06245
-2.06569
-2.06987
-2.07522
-2.08214
-2.09102
-2.10162
-2.11317
-2.1256
-2.13868
-2.15239
-2.16725
-2.18864
-2.2167
-2.2401
-2.25394
-2.26127
-2.27321
-2.28654
-2.29567
-2.19282
-2.19352
-2.19486
-2.19708
-2.20024
-2.20442
-2.20975
-2.2164
-2.22454
-2.23404
-2.24461
-2.25618
-2.2686
-2.28184
-2.29635
-2.31405
-2.33445
-2.35291
-2.3659
-2.37591
-2.38668
-2.398
-2.40626
-2.32711
-2.3279
-2.32909
-2.3311
-2.33409
-2.3381
-2.34321
-2.34947
-2.35693
-2.36555
-2.37517
-2.38573
-2.39715
-2.40943
-2.42274
-2.43766
-2.45364
-2.46838
-2.48043
-2.49038
-2.50002
-2.50927
-2.51737
-2.46069
-2.46148
-2.46256
-2.46441
-2.46719
-2.47095
-2.47573
-2.48153
-2.48835
-2.49616
-2.50486
-2.51443
-2.52477
-2.53583
-2.54765
-2.56033
-2.57342
-2.58571
-2.59637
-2.6056
-2.61407
-2.62172
-2.62812
-2.59349
-2.59428
-2.59524
-2.59693
-2.5995
-2.60299
-2.60741
-2.61273
-2.61893
-2.62596
-2.63379
-2.64237
-2.65164
-2.66151
-2.67189
-2.68272
-2.69366
-2.70406
-2.71341
-2.72168
-2.72903
-2.73538
-2.74043
-2.7255
-2.72626
-2.72708
-2.72864
-2.73104
-2.73426
-2.7383
-2.74314
-2.74874
-2.75506
-2.76206
-2.76971
-2.77795
-2.78668
-2.79578
-2.8051
-2.8144
-2.82328
-2.83142
-2.83869
-2.84504
-2.85036
-2.85441
-2.8568
-2.85733
-2.85807
-2.85957
-2.86185
-2.86483
-2.86851
-2.87288
-2.87791
-2.88355
-2.88978
-2.89656
-2.90383
-2.91152
-2.91949
-2.92757
-2.93557
-2.94322
-2.95029
-2.95664
-2.96215
-2.96669
-2.97011
-2.98728
-2.98758
-2.98823
-2.98979
-2.99203
-2.99481
-2.99815
-3.00206
-3.00654
-3.01156
-3.01708
-3.02306
-3.02946
-3.03619
-3.04316
-3.0502
-3.05713
-3.06377
-3.06994
-3.07549
-3.0803
-3.08425
-3.08725
-3.11703
-3.11696
-3.11762
-3.11946
-3.12173
-3.12433
-3.12733
-3.1308
-3.13476
-3.1392
-3.14407
-3.14934
-3.15495
-3.16084
-3.16692
-3.17306
-3.17911
-3.1849
-3.1903
-3.19518
-3.19942
-3.20291
-3.20561
-3.24703
-3.24684
-3.24729
-3.2491
-3.25122
-3.25352
-3.25614
-3.25919
-3.26266
-3.26657
-3.27086
-3.27549
-3.28041
-3.28557
-3.29088
-3.29624
-3.30152
-3.3066
-3.31135
-3.31566
-3.31943
-3.32257
-3.32504
-3.37834
-3.37808
-3.37808
-3.37916
-3.38066
-3.38246
-3.38465
-3.38726
-3.39029
-3.39371
-3.39748
-3.40156
-3.40589
-3.41042
-3.41507
-3.41976
-3.4244
-3.42886
-3.43306
-3.4369
-3.44028
-3.44312
-3.44541
-3.51026
-3.50957
-3.50928
-3.50926
-3.50985
-3.51107
-3.51282
-3.51503
-3.51766
-3.52065
-3.52398
-3.52758
-3.5314
-3.53539
-3.53949
-3.54362
-3.54771
-3.55165
-3.55538
-3.55881
-3.56185
-3.56445
-3.56658
-3.6404
-3.63976
-3.63903
-3.63833
-3.63838
-3.6392
-3.64061
-3.64249
-3.64477
-3.64741
-3.65036
-3.65355
-3.65694
-3.66048
-3.66411
-3.66777
-3.67139
-3.67489
-3.67822
-3.68129
-3.68403
-3.68641
-3.68841
-3.76837
-3.76777
-3.76677
-3.76616
-3.76617
-3.76682
-3.76801
-3.76965
-3.77167
-3.77401
-3.77663
-3.77948
-3.7825
-3.78566
-3.78889
-3.79214
-3.79536
-3.79848
-3.80145
-3.80421
-3.8067
-3.80888
-3.81073
-3.89563
-3.89471
-3.89382
-3.89337
-3.89345
-3.89405
-3.89511
-3.89657
-3.89838
-3.90048
-3.90282
-3.90537
-3.90807
-3.91089
-3.91377
-3.91667
-3.91955
-3.92234
-3.925
-3.92748
-3.92973
-3.93172
-3.93343
-4.02275
-4.02169
-4.02077
-4.02038
-4.02049
-4.02105
-4.02202
-4.02334
-4.02496
-4.02684
-4.02895
-4.03123
-4.03365
-4.03616
-4.03874
-4.04132
-4.04389
-4.04638
-4.04876
-4.05098
-4.05301
-4.05482
-4.05639
-4.14979
-4.14864
-4.1477
-4.1473
-4.14741
-4.14793
-4.14881
-4.15
-4.15146
-4.15315
-4.15503
-4.15707
-4.15922
-4.16146
-4.16375
-4.16606
-4.16834
-4.17056
-4.17268
-4.17467
-4.17649
-4.17812
-4.17955
-4.27674
-4.27557
-4.27461
-4.2742
-4.27428
-4.27474
-4.27553
-4.2766
-4.2779
-4.27941
-4.28108
-4.28289
-4.2848
-4.28678
-4.28881
-4.29085
-4.29287
-4.29484
-4.29672
-4.29848
-4.30011
-4.30157
-4.30285
-4.4036
-4.40244
-4.40149
-4.40106
-4.40111
-4.40151
-4.40221
-4.40315
-4.4043
-4.40563
-4.40711
-4.4087
-4.41037
-4.41212
-4.41389
-4.41568
-4.41746
-4.41919
-4.42084
-4.4224
-4.42384
-4.42514
-4.42629
-4.53038
-4.52926
-4.52834
-4.5279
-4.52791
-4.52825
-4.52885
-4.52967
-4.53067
-4.53183
-4.53311
-4.53449
-4.53594
-4.53745
-4.53899
-4.54054
-4.54209
-4.5436
-4.54505
-4.54642
-4.54768
-4.54883
-4.54984
-4.65707
-4.65601
-4.65513
-4.65471
-4.65469
-4.65496
-4.65546
-4.65616
-4.65701
-4.658
-4.65909
-4.66027
-4.6615
-4.66278
-4.6641
-4.66543
-4.66675
-4.66806
-4.66933
-4.67052
-4.67163
-4.67263
-4.67352
-4.78366
-4.78269
-4.78187
-4.78147
-4.78142
-4.78162
-4.78204
-4.78261
-4.78333
-4.78415
-4.78506
-4.78603
-4.78705
-4.78811
-4.7892
-4.79032
-4.79145
-4.79258
-4.79367
-4.79471
-4.79567
-4.79655
-4.79733
-4.91015
-4.90928
-4.90854
-4.90816
-4.9081
-4.90825
-4.90857
-4.90904
-4.90961
-4.91027
-4.911
-4.91177
-4.91258
-4.91343
-4.91431
-4.91522
-4.91617
-4.91714
-4.91808
-4.91898
-4.91982
-4.92058
-4.92125
-5.03654
-5.03578
-5.03514
-5.03479
-5.03471
-5.03482
-5.03506
-5.03542
-5.03586
-5.03637
-5.03692
-5.0375
-5.0381
-5.03873
-5.0394
-5.04011
-5.0409
-5.04173
-5.04255
-5.04333
-5.04406
-5.04471
-5.04529
-5.16283
-5.16219
-5.16164
-5.16134
-5.16126
-5.16133
-5.16151
-5.16177
-5.16208
-5.16244
-5.16282
-5.16321
-5.16361
-5.16402
-5.16446
-5.16497
-5.16562
-5.16636
-5.16708
-5.16777
-5.16839
-5.16895
-5.16944
-5.289
-5.28848
-5.28804
-5.2878
-5.28774
-5.28778
-5.2879
-5.28807
-5.28827
-5.28849
-5.2887
-5.28891
-5.2891
-5.28928
-5.28948
-5.28975
-5.2903
-5.29101
-5.29169
-5.29229
-5.29282
-5.29329
-5.2937
-5.41504
-5.41466
-5.41434
-5.41419
-5.41416
-5.4142
-5.41428
-5.41437
-5.41447
-5.41455
-5.4146
-5.41461
-5.41457
-5.41448
-5.41432
-5.4142
-5.41477
-5.41568
-5.41637
-5.41691
-5.41735
-5.41773
-5.41805
-5.54093
-5.54071
-5.54056
-5.54054
-5.54058
-5.54064
-5.54069
-5.54071
-5.5407
-5.54064
-5.54052
-5.54033
-5.54003
-5.53958
-5.53885
-5.5379
-5.53864
-5.54029
-5.54116
-5.54164
-5.54197
-5.54225
-5.54249
-5.66662
-5.66657
-5.66658
-5.66664
-5.66671
-5.66675
-5.66676
-5.66673
-5.66666
-5.66654
-5.66636
-5.6661
-5.66574
-5.66518
-5.6642
-5.6625
-5.66265
-5.66515
-5.66611
-5.66649
-5.66669
-5.66685
-5.66697
280.825
286.893
287.521
293.793
178.74
186.764
193.992
202.404
76.8095
84.6952
90.5039
95.8084
16.8156
23.7284
27.5774
28.3289
2.48404
2.32663
2.33248
2.46135
2.34508
2.43776
2.53546
2.63328
1.60541
1.66629
1.6235
1.62631
0.204219
0.299416
0.304432
0.168795
-1.41629
-1.48307
-0.972265
-0.812111
-1.97045
-2.00818
-1.99301
-1.94047
-2.00598
-2.00064
-1.99012
-1.98158
-2.09317
-2.09814
-2.09794
-2.09392
-2.19245
-2.19421
-2.19424
-2.19296
-2.29821
-2.29824
-2.29777
-2.29703
-2.4076
-2.4074
-2.40663
-2.40583
-2.51879
-2.51918
-2.51831
-2.51756
-2.63084
-2.63129
-2.63084
-2.63044
-2.74258
-2.74342
-2.74375
-2.74388
-2.85628
-2.85724
-2.85792
-2.85843
-2.97184
-2.97282
-2.97366
-2.97435
-3.08888
-3.08987
-3.09078
-3.09157
-3.20716
-3.20816
-3.2091
-3.20994
-3.32654
-3.32752
-3.32846
-3.32931
-3.44686
-3.44782
-3.44873
-3.44957
-3.56797
-3.56889
-3.56976
-3.57055
-3.68974
-3.6906
-3.6914
-3.69213
-3.81199
-3.81279
-3.81351
-3.81416
-3.9346
-3.93532
-3.93596
-3.93653
-4.05746
-4.0581
-4.05866
-4.05915
-4.18051
-4.18107
-4.18154
-4.18197
-4.3037
-4.30418
-4.30458
-4.30495
-4.42702
-4.42743
-4.42777
-4.42809
-4.55048
-4.55082
-4.55111
-4.55138
-4.67407
-4.67435
-4.67459
-4.67482
-4.79779
-4.79803
-4.79822
-4.79841
-4.92164
-4.92184
-4.92199
-4.92216
-5.04562
-5.04578
-5.04591
-5.04605
-5.16972
-5.16985
-5.16996
-5.17007
-5.29393
-5.29404
-5.29412
-5.29422
-5.41823
-5.41832
-5.41839
-5.41847
-5.54262
-5.54269
-5.54275
-5.54281
-5.66704
-5.66708
-5.66711
-5.66715
334.107
343.361
340.272
333.417
324.598
314.805
305.109
296.929
289.079
279.875
268.915
256.374
244.413
233.648
222.447
210.298
198.966
194.06
198.047
216.575
220.008
218.969
213.591
206.806
200.075
195.818
196.217
194.061
185.948
171.321
154.132
138.353
125.553
109.945
92.1759
75.7188
70.2434
77.6386
103.355
105.127
104.245
101.188
96.8246
92.391
90.0308
93.6908
94.0915
87.9243
77.3117
64.6242
52.6953
40.8853
27.5743
17.0958
9.01452
7.22659
11.1764
28.7222
29.1074
28.6315
27.3494
25.5164
23.5347
22.3662
24.477
23.9968
21.0586
16.2711
11.4418
7.52972
3.03442
-0.680354
-0.686329
-0.533764
-0.514944
-0.579905
2.94951
3.92567
4.98081
5.45773
5.53086
5.37141
4.99321
4.03031
2.92034
1.9219
0.965524
-0.0508889
-0.759305
-0.869236
-0.771174
-0.761717
-0.74751
-0.740754
-0.737967
2.84936
3.36461
3.87822
4.08441
4.0271
3.80424
3.47975
3.03918
2.51735
1.75463
0.677609
-0.261804
-0.721175
-0.866871
-0.89384
-0.89215
-0.880369
-0.873126
-0.877484
1.76135
1.8164
1.85611
1.86116
1.7236
1.43953
1.02072
0.498295
0.0570299
-0.356025
-0.802293
-0.979689
-1.03153
-1.05689
-1.05291
-1.04445
-1.03374
-1.03223
-1.04526
0.0847892
-0.317005
-0.562585
-0.629672
-0.736943
-0.903697
-1.07356
-1.25109
-1.41885
-1.437
-1.36497
-1.3276
-1.26384
-1.23209
-1.21163
-1.19855
-1.19349
-1.20049
-1.21456
-1.16972
-1.62738
-1.73777
-1.74695
-1.73039
-1.69475
-1.6426
-1.57745
-1.52262
-1.50516
-1.48836
-1.46701
-1.43801
-1.39585
-1.36937
-1.35539
-1.35523
-1.36484
-1.37402
-1.90263
-1.83423
-1.80198
-1.77616
-1.74924
-1.72178
-1.69558
-1.67082
-1.65119
-1.63554
-1.62002
-1.6001
-1.57475
-1.54603
-1.52365
-1.51384
-1.51448
-1.521
-1.52361
-1.9716
-1.95036
-1.93172
-1.9107
-1.88805
-1.8642
-1.84202
-1.82141
-1.79907
-1.77541
-1.75386
-1.73421
-1.71513
-1.69442
-1.67766
-1.67054
-1.66941
-1.66937
-1.66913
-2.08303
-2.06711
-2.05573
-2.04338
-2.02699
-2.00688
-1.98687
-1.96622
-1.94428
-1.91878
-1.88954
-1.86874
-1.85487
-1.8413
-1.8307
-1.82334
-1.81887
-1.81217
-1.81024
-2.18875
-2.1778
-2.16763
-2.15844
-2.14765
-2.13327
-2.11517
-2.09468
-2.07598
-2.05466
-2.02694
-2.00635
-1.99396
-1.98442
-1.97878
-1.97136
-1.96239
-1.95472
-1.95206
-2.29532
-2.28809
-2.27957
-2.27012
-2.25949
-2.24762
-2.23204
-2.21534
-2.19908
-2.18276
-2.16477
-2.1476
-2.13309
-2.12345
-2.11817
-2.11159
-2.10286
-2.09773
-2.09511
-2.40498
-2.40031
-2.3932
-2.38431
-2.37404
-2.36247
-2.34979
-2.33624
-2.32275
-2.31015
-2.29797
-2.28413
-2.26935
-2.25931
-2.25285
-2.24719
-2.2421
-2.23968
-2.23655
-2.51691
-2.51408
-2.50815
-2.50032
-2.49097
-2.48025
-2.46901
-2.45781
-2.44651
-2.43568
-2.42513
-2.4135
-2.40192
-2.39313
-2.38706
-2.3825
-2.37941
-2.37881
-2.37549
-2.62999
-2.62829
-2.62404
-2.61744
-2.60925
-2.59999
-2.58986
-2.58011
-2.57033
-2.56073
-2.55124
-2.54161
-2.53255
-2.52539
-2.5202
-2.5165
-2.51451
-2.51466
-2.51179
-2.74393
-2.74276
-2.73995
-2.73511
-2.72854
-2.72064
-2.712
-2.70299
-2.69429
-2.68586
-2.67763
-2.6696
-2.66227
-2.65635
-2.65197
-2.64894
-2.64753
-2.64779
-2.64574
-2.85894
-2.85825
-2.85604
-2.85256
-2.84769
-2.84138
-2.83398
-2.8259
-2.81827
-2.81096
-2.80393
-2.79721
-2.79116
-2.78619
-2.78242
-2.77989
-2.77871
-2.77857
-2.77791
-2.97514
-2.97483
-2.97316
-2.97029
-2.96638
-2.96141
-2.95521
-2.94859
-2.94216
-2.93596
-2.92999
-2.92436
-2.91929
-2.91504
-2.91173
-2.90941
-2.90812
-2.90749
-2.90746
-3.09251
-3.0925
-3.09126
-3.08895
-3.0857
-3.08156
-3.07663
-3.0713
-3.06597
-3.06078
-3.05576
-3.05102
-3.04672
-3.04301
-3.04001
-3.03768
-3.03594
-3.03442
-3.03314
-3.21097
-3.21119
-3.21032
-3.20849
-3.20584
-3.20247
-3.19849
-3.19417
-3.18977
-3.18543
-3.18123
-3.17723
-3.17353
-3.17026
-3.16746
-3.16504
-3.16282
-3.16048
-3.15767
-3.33039
-3.33079
-3.33022
-3.32881
-3.3267
-3.32397
-3.32075
-3.31723
-3.31359
-3.30996
-3.30641
-3.30301
-3.29982
-3.29692
-3.29429
-3.29184
-3.28936
-3.28667
-3.28349
-3.45064
-3.45117
-3.45085
-3.4498
-3.44813
-3.44594
-3.44333
-3.44045
-3.43743
-3.43438
-3.43137
-3.42845
-3.42568
-3.42308
-3.42062
-3.41822
-3.41567
-3.41287
-3.40997
-3.57159
-3.57221
-3.57209
-3.57133
-3.57003
-3.56828
-3.56616
-3.56378
-3.56127
-3.55869
-3.55612
-3.5536
-3.55116
-3.54881
-3.54653
-3.54421
-3.54168
-3.53879
-3.53582
-3.6931
-3.69377
-3.69381
-3.69329
-3.69229
-3.69089
-3.68916
-3.68719
-3.68508
-3.68289
-3.68067
-3.67848
-3.67632
-3.67419
-3.67207
-3.66987
-3.66738
-3.66444
-3.66125
-3.81505
-3.81575
-3.81591
-3.81557
-3.81481
-3.81369
-3.81228
-3.81064
-3.80886
-3.80698
-3.80506
-3.80313
-3.8012
-3.79927
-3.79731
-3.79523
-3.79282
-3.78985
-3.78644
-3.93734
-3.93805
-3.93829
-3.93809
-3.93752
-3.93663
-3.93547
-3.93411
-3.9326
-3.93098
-3.92931
-3.92761
-3.92588
-3.92412
-3.92229
-3.92033
-3.918
-3.91501
-3.91153
-4.05988
-4.06059
-4.06088
-4.06079
-4.06038
-4.05967
-4.05873
-4.05759
-4.0563
-4.05492
-4.05346
-4.05195
-4.0504
-4.04878
-4.04707
-4.0452
-4.04293
-4.03994
-4.03673
-4.18263
-4.18332
-4.18365
-4.18365
-4.18336
-4.18281
-4.18204
-4.18109
-4.18
-4.17882
-4.17755
-4.17622
-4.17482
-4.17333
-4.17171
-4.16986
-4.16755
-4.16448
-4.1616
-4.30555
-4.30622
-4.30657
-4.30664
-4.30645
-4.30603
-4.30541
-4.30463
-4.30372
-4.30271
-4.30163
-4.30046
-4.29921
-4.29784
-4.29628
-4.29441
-4.29193
-4.28853
-4.28511
-4.42863
-4.42927
-4.42964
-4.42976
-4.42965
-4.42934
-4.42886
-4.42823
-4.42748
-4.42664
-4.42572
-4.42472
-4.42361
-4.42236
-4.42089
-4.41903
-4.41644
-4.41276
-4.40886
-4.55187
-4.55248
-4.55285
-4.55301
-4.55297
-4.55276
-4.55239
-4.55189
-4.55129
-4.55061
-4.54985
-4.54901
-4.54807
-4.54697
-4.54563
-4.54389
-4.54142
-4.53785
-4.53409
-4.67526
-4.67583
-4.67621
-4.6764
-4.67641
-4.67628
-4.67601
-4.67564
-4.67517
-4.67464
-4.67403
-4.67336
-4.67259
-4.67167
-4.67051
-4.66898
-4.6668
-4.66363
-4.66009
-4.79881
-4.79935
-4.79971
-4.79992
-4.79998
-4.79991
-4.79974
-4.79946
-4.79912
-4.79872
-4.79826
-4.79776
-4.79716
-4.79643
-4.79548
-4.79416
-4.79222
-4.78932
-4.7862
-4.92251
-4.923
-4.92336
-4.92357
-4.92367
-4.92365
-4.92355
-4.92336
-4.92312
-4.92284
-4.92252
-4.92217
-4.92176
-4.92123
-4.92047
-4.91932
-4.91746
-4.91454
-4.91153
-5.04636
-5.0468
-5.04713
-5.04735
-5.04746
-5.04749
-5.04743
-5.04732
-5.04716
-5.04698
-5.04679
-5.04659
-5.04636
-5.04604
-5.04549
-5.04449
-5.04264
-5.03964
-5.03643
-5.17034
-5.17073
-5.17103
-5.17123
-5.17135
-5.1714
-5.17138
-5.17132
-5.17123
-5.17112
-5.17103
-5.17096
-5.17091
-5.17081
-5.17054
-5.16973
-5.16795
-5.16496
-5.16179
-5.29444
-5.29477
-5.29503
-5.29522
-5.29533
-5.29539
-5.29539
-5.29536
-5.2953
-5.29525
-5.29523
-5.29526
-5.29536
-5.29551
-5.29561
-5.29513
-5.29347
-5.29057
-5.28749
-5.41865
-5.41892
-5.41913
-5.41929
-5.41939
-5.41944
-5.41946
-5.41944
-5.4194
-5.41936
-5.41936
-5.41943
-5.41964
-5.4201
-5.42087
-5.42096
-5.41925
-5.41644
-5.41347
-5.54294
-5.54314
-5.54331
-5.54343
-5.54351
-5.54356
-5.54357
-5.54355
-5.54351
-5.54347
-5.54344
-5.54347
-5.5437
-5.54457
-5.54672
-5.54757
-5.54531
-5.54249
-5.53975
-5.66722
-5.66731
-5.66739
-5.66745
-5.66748
-5.66749
-5.66748
-5.66746
-5.66742
-5.66738
-5.66734
-5.66736
-5.66758
-5.66865
-5.67237
-5.67252
-5.67074
-5.66862
-5.66608
)
;

boundaryField
{
    leftWall
    {
        type            calculated;
        value           nonuniform List<scalar> 
50
(
687.736
629.009
570.301
511.642
453.038
394.498
336.019
277.597
186.306
71.1177
8.87
0.147989
-0.357483
-0.8316
-1.10368
-1.24546
-1.37875
-1.51397
-1.6499
-1.78606
-1.92212
-2.05778
-2.19282
-2.32711
-2.46069
-2.59349
-2.7255
-2.8568
-2.98728
-3.11703
-3.24703
-3.37834
-3.51026
-3.6404
-3.76837
-3.89563
-4.02275
-4.14979
-4.27674
-4.4036
-4.53038
-4.65707
-4.78366
-4.91015
-5.03654
-5.16283
-5.289
-5.41504
-5.54093
-5.66662
)
;
    }
    rightWall
    {
        type            calculated;
        value           nonuniform List<scalar> 
50
(
715.532
657.099
597.516
537.138
476.524
415.744
354.902
293.892
198.047
77.6386
11.1764
-0.579905
-0.737967
-0.877484
-1.04526
-1.21456
-1.37402
-1.52361
-1.66913
-1.81024
-1.95206
-2.09511
-2.23655
-2.37549
-2.51179
-2.64574
-2.77791
-2.90746
-3.03314
-3.15767
-3.28349
-3.40997
-3.53582
-3.66125
-3.78644
-3.91153
-4.03673
-4.1616
-4.28511
-4.40886
-4.53409
-4.66009
-4.7862
-4.91153
-5.03643
-5.16179
-5.28749
-5.41347
-5.53975
-5.66608
)
;
    }
    lowerWall
    {
        type            calculated;
        value           nonuniform List<scalar> 
62
(
717.166
716.695
716.195
715.469
714.546
713.478
712.355
711.285
710.393
709.815
709.686
710.131
711.256
713.144
715.845
719.353
723.578
728.25
732.641
737.836
743.55
747.165
748.578
719.337
660.125
601.199
542.896
485.337
428.409
371.866
319.419
343.421
349.486
350.062
355.73
845.887
791.227
735.945
680.035
623.682
566.227
507.26
445.379
873.738
868.337
862.683
855.82
846.125
833.566
818.107
801.259
788.122
783.484
778.188
769.8
759.001
748.751
741.482
739.177
742.603
746.165
743.853
)
;
    }
    atmosphere
    {
        type            calculated;
        value           nonuniform List<scalar> 
46
(
-5.72904
-5.72904
-5.72904
-5.72904
-5.72904
-5.72904
-5.72904
-5.72904
-5.72904
-5.72904
-5.72904
-5.72904
-5.72904
-5.72904
-5.72904
-5.72904
-5.72904
-5.72905
-5.72907
-5.72911
-5.72915
-5.72919
-5.72923
-5.72925
-5.72927
-5.72928
-5.7293
-5.72932
-5.72934
-5.72936
-5.72935
-5.72934
-5.72932
-5.72929
-5.72925
-5.72922
-5.72918
-5.72915
-5.72912
-5.72909
-5.72906
-5.72904
-5.72986
-5.73232
-5.73232
-5.73018
)
;
    }
    defaultFaces
    {
        type            empty;
    }
}


// ************************************************************************* //
