/*--------------------------------*- C++ -*----------------------------------*\
| =========                 |                                                 |
| \\      /  F ield         | OpenFOAM: The Open Source CFD Toolbox           |
|  \\    /   O peration     | Version:  2.3.0                                 |
|   \\  /    A nd           | Web:      www.OpenFOAM.org                      |
|    \\/     M anipulation  |                                                 |
\*---------------------------------------------------------------------------*/
FoamFile
{
    version     2.0;
    format      ascii;
    class       volVectorField;
    location    "2.35";
    object      U;
}
// * * * * * * * * * * * * * * * * * * * * * * * * * * * * * * * * * * * * * //

dimensions      [0 1 -1 0 0 0 0];

internalField   nonuniform List<vector> 
2268
(
(-0.00552488 0.00197007 0)
(-0.00528319 0.000561719 0)
(-0.00559743 -0.000192704 0)
(-0.00481624 -0.00029678 0)
(-0.00438125 -0.000118799 0)
(-0.00452075 9.22388e-05 0)
(-0.00516043 0.000249657 0)
(-0.00618793 0.000356374 0)
(-0.00751497 0.000431885 0)
(-0.00906671 0.000479688 0)
(-0.0107524 0.000496682 0)
(-0.0124803 0.000489503 0)
(-0.0141876 0.000471025 0)
(-0.015876 0.000476327 0)
(-0.0176422 0.000544479 0)
(-0.0196884 0.000699813 0)
(-0.0221125 0.000912747 0)
(-0.0248077 0.00162698 0)
(-0.0322824 0.00507703 0)
(-0.0453784 0.00561495 0)
(-0.0538173 0.000673381 0)
(-0.0483817 -0.0069987 0)
(-0.0218261 -0.0121888 0)
(-0.00474254 0.00317173 0)
(-0.00338551 0.000506166 0)
(-0.00318381 -0.000344524 0)
(-0.00288835 -0.000383358 0)
(-0.00295469 -4.59644e-05 0)
(-0.00341809 0.000332842 0)
(-0.00421372 0.000639829 0)
(-0.00526248 0.000872072 0)
(-0.00650193 0.00104634 0)
(-0.00786841 0.00115916 0)
(-0.00928369 0.00120737 0)
(-0.0106785 0.00120311 0)
(-0.0120204 0.00118342 0)
(-0.0133474 0.00121436 0)
(-0.0147892 0.00136532 0)
(-0.0165683 0.0016617 0)
(-0.018959 0.00208484 0)
(-0.0219662 0.00323169 0)
(-0.0263351 0.00696522 0)
(-0.0317828 0.0073516 0)
(-0.0351315 0.00103989 0)
(-0.0343739 -0.0105122 0)
(-0.0189439 -0.0250941 0)
(-0.00261076 0.00445027 0)
(-0.00173856 0.000390186 0)
(-0.00150329 -0.000482052 0)
(-0.00151145 -0.000355819 0)
(-0.00184918 0.000136313 0)
(-0.00247099 0.000643758 0)
(-0.00331619 0.00105243 0)
(-0.00433032 0.00136302 0)
(-0.00547119 0.001593 0)
(-0.0066856 0.00173254 0)
(-0.00790381 0.0017777 0)
(-0.00906754 0.00175085 0)
(-0.0101586 0.00171519 0)
(-0.0112317 0.00177332 0)
(-0.0124324 0.00203173 0)
(-0.0139894 0.00253135 0)
(-0.0161796 0.00325707 0)
(-0.0190075 0.00465702 0)
(-0.0213974 0.00793285 0)
(-0.0228209 0.00797797 0)
(-0.023255 0.00123051 0)
(-0.0230752 -0.0125704 0)
(-0.0118685 -0.0351107 0)
(-0.000675586 0.00501797 0)
(-0.000208174 0.000305467 0)
(-5.19923e-05 -0.00050966 0)
(-0.000253933 -0.000229408 0)
(-0.000744483 0.00038885 0)
(-0.00144063 0.000995268 0)
(-0.00228593 0.00147982 0)
(-0.00324571 0.00184853 0)
(-0.00429726 0.00211803 0)
(-0.00539791 0.00226992 0)
(-0.0064828 0.0022991 0)
(-0.00749778 0.00223935 0)
(-0.00843006 0.00218121 0)
(-0.00934161 0.00226611 0)
(-0.0103867 0.00263874 0)
(-0.0117915 0.00335031 0)
(-0.0137708 0.00434898 0)
(-0.0162759 0.00585175 0)
(-0.01774 0.00830664 0)
(-0.0173722 0.00783156 0)
(-0.0156356 0.000669725 0)
(-0.0142356 -0.0144994 0)
(-0.00423234 -0.0416538 0)
(0.00074886 0.00483129 0)
(0.00117208 0.000214711 0)
(0.00128804 -0.000470562 0)
(0.0010065 -4.09418e-05 0)
(0.000465239 0.00068024 0)
(-0.000231156 0.0013583 0)
(-0.00103271 0.00189583 0)
(-0.0019232 0.00230817 0)
(-0.00290041 0.00260959 0)
(-0.00393214 0.00276871 0)
(-0.00495513 0.00277733 0)
(-0.00591415 0.00268042 0)
(-0.00679529 0.00259717 0)
(-0.00766121 0.00270943 0)
(-0.00867128 0.00320023 0)
(-0.0100483 0.00412022 0)
(-0.0119411 0.00534404 0)
(-0.0142272 0.00682381 0)
(-0.0155149 0.00839064 0)
(-0.0147134 0.00705408 0)
(-0.011887 -0.00073683 0)
(-0.00910207 -0.0168587 0)
(0.00151542 -0.044281 0)
(0.00172536 0.0040533 0)
(0.0023688 6.64661e-05 0)
(0.00254652 -0.000414737 0)
(0.00230757 0.000160268 0)
(0.00181643 0.000968131 0)
(0.0011944 0.00170022 0)
(0.000481507 0.00227891 0)
(-0.000325342 0.00273275 0)
(-0.00124634 0.0030717 0)
(-0.00226001 0.00324572 0)
(-0.00330263 0.00324044 0)
(-0.00431451 0.00311095 0)
(-0.00527663 0.0030062 0)
(-0.00624778 0.00315023 0)
(-0.00739234 0.00376639 0)
(-0.00893711 0.00489386 0)
(-0.0109901 0.00631043 0)
(-0.013393 0.00772382 0)
(-0.015073 0.00853343 0)
(-0.0149183 0.00616306 0)
(-0.0125412 -0.00260378 0)
(-0.00940776 -0.0202845 0)
(0.00345174 -0.0461927 0)
(0.0023942 0.00286801 0)
(0.00337641 -0.000212047 0)
(0.00372684 -0.000406351 0)
(0.00364535 0.000316945 0)
(0.00330453 0.00120583 0)
(0.00283172 0.00198882 0)
(0.00225215 0.0026133 0)
(0.00154184 0.00312386 0)
(0.000655693 0.00352408 0)
(-0.000396817 0.00373916 0)
(-0.0015518 0.0037449 0)
(-0.00274522 0.00360482 0)
(-0.0039524 0.00349762 0)
(-0.00522486 0.00369202 0)
(-0.00673338 0.00445743 0)
(-0.00871916 0.00581572 0)
(-0.0112817 0.00744109 0)
(-0.0142904 0.00885129 0)
(-0.017018 0.00914895 0)
(-0.0186304 0.00590412 0)
(-0.018584 -0.00402452 0)
(-0.0170409 -0.0243474 0)
(-0.00420841 -0.0542995 0)
(0.00287125 0.00139704 0)
(0.00419298 -0.000666762 0)
(0.00479382 -0.000514051 0)
(0.00496477 0.000364186 0)
(0.00486449 0.00134279 0)
(0.00460867 0.00219403 0)
(0.00420051 0.00289142 0)
(0.00359407 0.00349738 0)
(0.00271917 0.00400842 0)
(0.0015712 0.00431843 0)
(0.000208988 0.0043932 0)
(-0.00130568 0.00430235 0)
(-0.0029474 0.00424869 0)
(-0.00475443 0.00454238 0)
(-0.00690139 0.0055117 0)
(-0.0096476 0.0071646 0)
(-0.0131177 0.00908446 0)
(-0.017282 0.0106862 0)
(-0.021829 0.0109011 0)
(-0.0264353 0.00738735 0)
(-0.0309467 -0.00309823 0)
(-0.0349105 -0.0251327 0)
(-0.0390214 -0.0641422 0)
(-0.0329958 0.0130922 0)
(-0.065424 0.00797985 0)
(-0.0674413 -0.00423581 0)
(-0.048613 -0.00829585 0)
(-0.0247766 -0.00976383 0)
(0.00445501 -0.0113623 0)
(0.0351266 -0.0114661 0)
(0.0570982 -0.00458306 0)
(0.049358 0.00930475 0)
(0.00309578 0.0145308 0)
(-0.0387347 0.00794673 0)
(-0.0498768 0.00253912 0)
(-0.0621061 0.00949489 0)
(-0.111292 0.0163593 0)
(-0.164126 0.00788919 0)
(-0.1706 -0.00609524 0)
(-0.132829 -0.0177522 0)
(-0.0738312 -0.0237832 0)
(-0.0184257 -0.0112122 0)
(-0.04674 0.0298575 0)
(-0.0599826 0.0133455 0)
(-0.0584624 -0.00503507 0)
(-0.0497316 -0.0130197 0)
(-0.0338228 -0.0168939 0)
(-0.0129679 -0.0193014 0)
(0.00759292 -0.0171809 0)
(0.0194339 -0.0040493 0)
(0.0157725 0.0190725 0)
(-0.0148391 0.0277843 0)
(-0.0499141 0.0164443 0)
(-0.0649404 0.00763768 0)
(-0.0802579 0.0197007 0)
(-0.113322 0.0303866 0)
(-0.139432 0.0174436 0)
(-0.138298 -0.00599743 0)
(-0.116108 -0.0282853 0)
(-0.073435 -0.0426324 0)
(-0.0279879 -0.0270064 0)
(-0.0450916 0.0483184 0)
(-0.0510366 0.016227 0)
(-0.0540559 -0.00557097 0)
(-0.0512961 -0.0164151 0)
(-0.040975 -0.0226753 0)
(-0.0261034 -0.0258446 0)
(-0.0119392 -0.0217021 0)
(-0.006697 -0.00396619 0)
(-0.0127308 0.0244836 0)
(-0.0314 0.0376653 0)
(-0.0557724 0.0252751 0)
(-0.0715994 0.013773 0)
(-0.0830356 0.027027 0)
(-0.0974277 0.0366054 0)
(-0.107892 0.0205206 0)
(-0.107616 -0.00863874 0)
(-0.09092 -0.0393802 0)
(-0.061348 -0.0591098 0)
(-0.0273692 -0.0476596 0)
(-0.0391363 0.0665559 0)
(-0.0462732 0.0200437 0)
(-0.0532492 -0.00436151 0)
(-0.0547656 -0.0183134 0)
(-0.0489527 -0.0270368 0)
(-0.0387705 -0.0310611 0)
(-0.0288374 -0.0249082 0)
(-0.0275271 -0.00239685 0)
(-0.0355941 0.0290408 0)
(-0.0477435 0.044466 0)
(-0.0627228 0.0326158 0)
(-0.0756926 0.0190829 0)
(-0.0824848 0.0306678 0)
(-0.0846782 0.0383485 0)
(-0.0842897 0.021249 0)
(-0.0791125 -0.0116471 0)
(-0.0649402 -0.0479667 0)
(-0.0463275 -0.0702329 0)
(-0.0230447 -0.0646507 0)
(-0.0333669 0.0830141 0)
(-0.0457903 0.0253236 0)
(-0.0555171 -0.00166669 0)
(-0.0602124 -0.0185883 0)
(-0.0580608 -0.0297154 0)
(-0.0516382 -0.0347533 0)
(-0.0444988 -0.0269252 0)
(-0.0452235 0.000136878 0)
(-0.0546399 0.0331347 0)
(-0.0628227 0.0484189 0)
(-0.069672 0.0372074 0)
(-0.077972 0.0230576 0)
(-0.0806749 0.030916 0)
(-0.0741224 0.0362602 0)
(-0.0643992 0.0187575 0)
(-0.0533485 -0.0161057 0)
(-0.0404901 -0.0535846 0)
(-0.0304978 -0.0765183 0)
(-0.0173818 -0.0776096 0)
(-0.0304691 0.0990846 0)
(-0.0503183 0.0323256 0)
(-0.0607753 0.00213391 0)
(-0.0674663 -0.0175478 0)
(-0.0682015 -0.030892 0)
(-0.064919 -0.0371829 0)
(-0.0595385 -0.0283101 0)
(-0.0604942 0.00302433 0)
(-0.0696867 0.0367364 0)
(-0.0746417 0.0499261 0)
(-0.0751194 0.0389511 0)
(-0.0777179 0.0250549 0)
(-0.0762818 0.0286807 0)
(-0.0638043 0.0306756 0)
(-0.046202 0.0128668 0)
(-0.0304864 -0.0216819 0)
(-0.0180054 -0.0575165 0)
(-0.0135234 -0.0790921 0)
(-0.00993607 -0.0862307 0)
(-0.0317415 0.118002 0)
(-0.0603534 0.040635 0)
(-0.0689888 0.00628417 0)
(-0.076176 -0.0156896 0)
(-0.0790299 -0.0308607 0)
(-0.0786081 -0.0385869 0)
(-0.0746852 -0.0297121 0)
(-0.0739947 0.00547075 0)
(-0.0806301 0.0394241 0)
(-0.0819922 0.0495889 0)
(-0.0773582 0.0382467 0)
(-0.0739905 0.0245628 0)
(-0.0679015 0.0247533 0)
(-0.0516983 0.02278 0)
(-0.0290715 0.00442462 0)
(-0.00928239 -0.0280266 0)
(0.00374177 -0.060709 0)
(0.00468468 -0.0786561 0)
(-3.39223e-05 -0.0889266 0)
(-0.0497992 0.1437 0)
(-0.0752604 0.0471523 0)
(-0.0799168 0.00956104 0)
(-0.085777 -0.0136499 0)
(-0.0900304 -0.0298808 0)
(-0.0924145 -0.0389253 0)
(-0.0907719 -0.0311916 0)
(-0.0874482 0.00640203 0)
(-0.0879562 0.0405889 0)
(-0.0841856 0.0477778 0)
(-0.0749975 0.0355032 0)
(-0.0660687 0.0217045 0)
(-0.0555124 0.0193615 0)
(-0.0366093 0.0136497 0)
(-0.0109299 -0.00551271 0)
(0.0121029 -0.0353852 0)
(0.0256345 -0.0633314 0)
(0.0234588 -0.0754643 0)
(0.0120442 -0.0840325 0)
(0.00332654 -0.00202481 0)
(0.00499536 -0.0019555 0)
(0.00607456 -0.00106134 0)
(0.00675569 0.00014328 0)
(0.00713652 0.00131721 0)
(0.0072888 0.00233102 0)
(0.0071762 0.00320638 0)
(0.0067296 0.0040363 0)
(0.00584977 0.00481255 0)
(0.00450857 0.00537225 0)
(0.00274155 0.00567706 0)
(0.000576602 0.00580312 0)
(-0.00198082 0.00596825 0)
(-0.00492664 0.00652382 0)
(-0.00841797 0.00791267 0)
(-0.0127239 0.0101555 0)
(-0.0180677 0.0127418 0)
(-0.0246809 0.0151211 0)
(-0.033048 0.0162345 0)
(-0.0440567 0.0141528 0)
(-0.0589473 0.00598247 0)
(-0.0812212 -0.0115176 0)
(-0.129974 -0.0303861 0)
(0.00255016 -0.00304664 0)
(0.004423 -0.00252395 0)
(0.00603229 -0.00132253 0)
(0.0074291 2.08574e-07 0)
(0.00850347 0.0012517 0)
(0.00921007 0.00235241 0)
(0.00941015 0.00333205 0)
(0.00910237 0.00433821 0)
(0.00825642 0.00536107 0)
(0.00682514 0.00614421 0)
(0.00472354 0.00667275 0)
(0.00169775 0.00698516 0)
(-0.0024667 0.00734724 0)
(-0.00749423 0.00819957 0)
(-0.013213 0.0101518 0)
(-0.0196713 0.013297 0)
(-0.0274571 0.0170559 0)
(-0.0372968 0.0212832 0)
(-0.050972 0.025458 0)
(-0.0710678 0.0288368 0)
(-0.100295 0.0301349 0)
(-0.13906 0.0264766 0)
(-0.182034 0.0174189 0)
(-0.00312049 -0.00885954 0)
(-0.000184022 -0.00602408 0)
(0.00289922 -0.00371257 0)
(0.00601629 -0.00181074 0)
(0.00842057 -0.000116928 0)
(0.0096998 0.0015734 0)
(0.0094126 0.00308149 0)
(0.00835427 0.00471453 0)
(0.00733533 0.0065748 0)
(0.00598991 0.00798884 0)
(0.00368862 0.00919772 0)
(-0.000908232 0.0103284 0)
(-0.00927691 0.0116353 0)
(-0.0194936 0.0129844 0)
(-0.0298544 0.0156671 0)
(-0.0381643 0.0204441 0)
(-0.04799 0.0255942 0)
(-0.0594993 0.0326722 0)
(-0.0763959 0.0417926 0)
(-0.103257 0.052259 0)
(-0.145198 0.0589897 0)
(-0.19291 0.0527842 0)
(-0.218232 0.0350802 0)
(-0.039153 0.00357422 0)
(-0.0259715 -0.0127543 0)
(-0.0160687 -0.00966951 0)
(-0.00778894 -0.00518482 0)
(-0.0020114 -0.00424041 0)
(0.00051556 0.000859098 0)
(-0.00754597 0.00685291 0)
(-0.0218553 0.00891905 0)
(-0.0283334 0.00950731 0)
(-0.0310955 0.0121105 0)
(-0.0381775 0.0152752 0)
(-0.0540694 0.0227839 0)
(-0.0910398 0.0385269 0)
(-0.145725 0.0502114 0)
(-0.207188 0.0374454 0)
(-0.193875 0.0321668 0)
(-0.171383 0.0345137 0)
(-0.142285 0.0495847 0)
(-0.122078 0.0691534 0)
(-0.114427 0.0927762 0)
(-0.13868 0.109984 0)
(-0.205579 0.0868484 0)
(-0.230213 0.0341349 0)
(-0.0655134 0.0566527 0)
(-0.0690448 -0.023622 0)
(-0.0769184 -0.0251016 0)
(-0.0843775 -0.0147692 0)
(-0.0873027 -0.00976898 0)
(-0.0899888 0.00991585 0)
(-0.105058 0.0309322 0)
(-0.117538 0.0170861 0)
(-0.12739 0.0131612 0)
(-0.141246 0.0208479 0)
(-0.158492 0.0335352 0)
(-0.182921 0.0657986 0)
(-0.232145 0.124606 0)
(-0.324121 0.119685 0)
(-0.329474 0.0344499 0)
(-0.320676 0.00603464 0)
(-0.306299 -0.0025669 0)
(-0.278261 0.00468501 0)
(-0.235008 0.0281561 0)
(-0.192244 0.0792951 0)
(-0.156864 0.174489 0)
(-0.146224 0.191657 0)
(-0.166606 0.0498715 0)
(0.000688128 0.110221 0)
(-0.0226684 0.00551031 0)
(-0.0791785 0.00236237 0)
(-0.117133 0.00344074 0)
(-0.131161 -0.00588227 0)
(-0.136241 0.0101877 0)
(-0.137023 0.0345385 0)
(-0.143966 0.0353634 0)
(-0.169676 0.0320185 0)
(-0.200572 0.0371546 0)
(-0.222422 0.0494739 0)
(-0.245935 0.0881306 0)
(-0.280455 0.161546 0)
(-0.312308 0.141334 0)
(-0.316289 0.0426727 0)
(-0.336167 0.00356793 0)
(-0.349304 -0.013468 0)
(-0.344333 -0.0245964 0)
(-0.320795 -0.0172818 0)
(-0.291221 0.0249929 0)
(-0.25085 0.111827 0)
(-0.196732 0.145293 0)
(-0.201193 0.0897689 0)
(-0.00156179 0.114134 0)
(-0.0270201 0.0544808 0)
(-0.0724422 0.0574867 0)
(-0.101836 0.0417554 0)
(-0.132658 0.0119433 0)
(-0.159096 0.0169233 0)
(-0.175404 0.0396632 0)
(-0.203248 0.0607503 0)
(-0.243365 0.0721385 0)
(-0.263906 0.0658695 0)
(-0.265374 0.0708178 0)
(-0.270767 0.115804 0)
(-0.263367 0.193374 0)
(-0.255437 0.1603 0)
(-0.263877 0.0596118 0)
(-0.332882 0.0286224 0)
(-0.371625 -0.00546196 0)
(-0.381489 -0.0320181 0)
(-0.38185 -0.0335819 0)
(-0.371228 -0.00981509 0)
(-0.331555 0.0430126 0)
(-0.264999 0.089477 0)
(-0.242867 0.109997 0)
(-0.0111881 0.122876 0)
(-0.0330602 0.0957035 0)
(-0.0619995 0.0854792 0)
(-0.0870956 0.0706431 0)
(-0.1196 0.0537435 0)
(-0.158827 0.0521028 0)
(-0.196544 0.0729575 0)
(-0.233387 0.101527 0)
(-0.260288 0.0975289 0)
(-0.262981 0.0657833 0)
(-0.257768 0.0653722 0)
(-0.243467 0.0992611 0)
(-0.212835 0.158441 0)
(-0.189032 0.164214 0)
(-0.208682 0.119318 0)
(-0.27107 0.109021 0)
(-0.33248 0.0374199 0)
(-0.380329 -0.0187789 0)
(-0.394556 -0.0347033 0)
(-0.384748 -0.0314243 0)
(-0.353369 -0.0068263 0)
(-0.308781 0.0310815 0)
(-0.255431 0.0727182 0)
(-0.00971423 0.141557 0)
(-0.0280992 0.119677 0)
(-0.0500441 0.106868 0)
(-0.0727915 0.0957091 0)
(-0.101949 0.0884957 0)
(-0.136465 0.0930969 0)
(-0.169469 0.110795 0)
(-0.19632 0.127572 0)
(-0.21458 0.108719 0)
(-0.223976 0.0654612 0)
(-0.230347 0.0567993 0)
(-0.222048 0.0744868 0)
(-0.196349 0.112557 0)
(-0.165332 0.149694 0)
(-0.166525 0.163432 0)
(-0.198131 0.156999 0)
(-0.234026 0.110603 0)
(-0.284369 0.040775 0)
(-0.345939 -0.0165879 0)
(-0.346501 -0.0373541 0)
(-0.333159 -0.0284839 0)
(-0.301901 -0.00342311 0)
(-0.262667 0.02224 0)
(-0.00511057 0.156806 0)
(-0.019361 0.138566 0)
(-0.0365912 0.126814 0)
(-0.0556505 0.119061 0)
(-0.0784443 0.116595 0)
(-0.103137 0.122263 0)
(-0.124318 0.134841 0)
(-0.13784 0.142569 0)
(-0.149169 0.122305 0)
(-0.168693 0.0800001 0)
(-0.18823 0.0639005 0)
(-0.193538 0.066095 0)
(-0.183262 0.0895179 0)
(-0.162432 0.126255 0)
(-0.148358 0.164384 0)
(-0.147319 0.167167 0)
(-0.151223 0.129238 0)
(-0.160571 0.0823137 0)
(-0.190594 0.0303117 0)
(-0.267194 -0.0392438 0)
(-0.294763 -0.0400825 0)
(-0.281419 -0.0279354 0)
(-0.251285 -0.0186641 0)
(-0.000987162 0.164999 0)
(-0.0106579 0.152591 0)
(-0.0233059 0.14294 0)
(-0.0375536 0.137283 0)
(-0.0533379 0.136329 0)
(-0.0687619 0.140499 0)
(-0.0802838 0.147686 0)
(-0.0858942 0.149887 0)
(-0.0907337 0.134461 0)
(-0.104519 0.103934 0)
(-0.127226 0.0812016 0)
(-0.147861 0.0727524 0)
(-0.153427 0.0843579 0)
(-0.146714 0.11215 0)
(-0.131131 0.148146 0)
(-0.110741 0.153425 0)
(-0.0928916 0.119626 0)
(-0.0826047 0.0873137 0)
(-0.0793493 0.0664299 0)
(-0.104947 0.0316391 0)
(-0.14641 -0.0214888 0)
(-0.174208 -0.0552849 0)
(-0.172513 -0.0745231 0)
(0.0011807 0.167863 0)
(-0.00415659 0.161521 0)
(-0.0122479 0.154113 0)
(-0.0215146 0.14954 0)
(-0.031128 0.148415 0)
(-0.0395321 0.150316 0)
(-0.0447685 0.153232 0)
(-0.0460897 0.152123 0)
(-0.047184 0.140704 0)
(-0.0543896 0.120669 0)
(-0.0680565 0.10228 0)
(-0.084562 0.0887662 0)
(-0.100448 0.08824 0)
(-0.106195 0.106681 0)
(-0.0937282 0.132249 0)
(-0.0712789 0.13038 0)
(-0.0509852 0.0998389 0)
(-0.0365545 0.0757573 0)
(-0.0281298 0.0633482 0)
(-0.0293625 0.0537081 0)
(-0.0450631 0.0159574 0)
(-0.0622507 -0.0281164 0)
(-0.0710569 -0.0646059 0)
(0.00154985 0.167854 0)
(-0.000357235 0.166128 0)
(-0.0044494 0.160567 0)
(-0.00933372 0.156518 0)
(-0.0140877 0.15468 0)
(-0.0175552 0.154546 0)
(-0.018696 0.154485 0)
(-0.0174509 0.151439 0)
(-0.0161719 0.142327 0)
(-0.0185857 0.128083 0)
(-0.0254649 0.11398 0)
(-0.0349344 0.103246 0)
(-0.0443849 0.099401 0)
(-0.049319 0.104953 0)
(-0.0420927 0.116546 0)
(-0.0260384 0.111289 0)
(-0.0127907 0.0851364 0)
(-0.00430984 0.0647649 0)
(0.00113155 0.0564602 0)
(0.00688984 0.0533767 0)
(0.00668534 0.025246 0)
(-0.000657224 -0.0140719 0)
(-0.0103854 -0.0493041 0)
(0.000969949 0.166777 0)
(0.00128341 0.167542 0)
(0.000200603 0.163217 0)
(-0.0012822 0.159368 0)
(-0.00243975 0.156771 0)
(-0.00250842 0.155068 0)
(-0.00095656 0.153092 0)
(0.00203226 0.149015 0)
(0.00497759 0.141265 0)
(0.00573735 0.130367 0)
(0.00362005 0.119111 0)
(-0.000438842 0.109816 0)
(-0.00455805 0.104683 0)
(-0.00536955 0.104288 0)
(0.00114361 0.105475 0)
(0.0129916 0.0972948 0)
(0.021515 0.0765612 0)
(0.0241391 0.0590181 0)
(0.0264473 0.0518992 0)
(0.0325923 0.0462654 0)
(0.0373192 0.0246548 0)
(0.03497 -0.00750257 0)
(0.0264344 -0.0381109 0)
(0.000108153 0.165647 0)
(0.00158087 0.166989 0)
(0.00245164 0.163165 0)
(0.00335111 0.159239 0)
(0.00469287 0.155952 0)
(0.00690979 0.153096 0)
(0.0102414 0.149899 0)
(0.0144523 0.145271 0)
(0.0186166 0.138367 0)
(0.0214981 0.129457 0)
(0.0225816 0.120022 0)
(0.0223574 0.111573 0)
(0.022097 0.105335 0)
(0.0238438 0.101377 0)
(0.0296563 0.0974048 0)
(0.0382759 0.0881735 0)
(0.0447293 0.0725295 0)
(0.0468965 0.0579815 0)
(0.0486584 0.048937 0)
(0.0531382 0.039726 0)
(0.0576349 0.0220144 0)
(0.0569772 -0.00325001 0)
(0.0498365 -0.028761 0)
(-0.000706974 0.164989 0)
(0.00126649 0.165423 0)
(0.0032644 0.161398 0)
(0.00568114 0.157135 0)
(0.00862927 0.153211 0)
(0.0122991 0.149496 0)
(0.016766 0.145487 0)
(0.0218124 0.140524 0)
(0.0268464 0.13413 0)
(0.0311352 0.126424 0)
(0.034326 0.11817 0)
(0.0366615 0.110251 0)
(0.0389064 0.103327 0)
(0.0422078 0.0973138 0)
(0.0475001 0.0908588 0)
(0.0540149 0.0815814 0)
(0.0591631 0.069108 0)
(0.0618417 0.0567095 0)
(0.0640229 0.0463645 0)
(0.0675439 0.0354371 0)
(0.0709556 0.0199046 0)
(0.0709551 -5.88413e-05 0)
(0.0655335 -0.020673 0)
(-0.00129636 0.164846 0)
(0.000924592 0.163405 0)
(0.00355192 0.158646 0)
(0.00684442 0.153841 0)
(0.0107222 0.149308 0)
(0.0152218 0.144917 0)
(0.0203352 0.14032 0)
(0.0258857 0.135101 0)
(0.0314876 0.128971 0)
(0.036684 0.12197 0)
(0.0412214 0.114478 0)
(0.0451943 0.106966 0)
(0.0490156 0.099762 0)
(0.0532741 0.0927664 0)
(0.0583588 0.0852585 0)
(0.0638144 0.0761615 0)
(0.068373 0.0653601 0)
(0.0714985 0.0542511 0)
(0.0741307 0.0436298 0)
(0.0771333 0.0322787 0)
(0.0796636 0.0183514 0)
(0.0797523 0.00208631 0)
(0.0759435 -0.0140411 0)
(-0.00144701 0.164939 0)
(0.00102083 0.161138 0)
(0.00401764 0.155348 0)
(0.00778616 0.149904 0)
(0.0121167 0.144799 0)
(0.0169888 0.139841 0)
(0.0223761 0.134766 0)
(0.0281488 0.129301 0)
(0.0340501 0.123261 0)
(0.0397783 0.11664 0)
(0.0451363 0.109619 0)
(0.0501234 0.102428 0)
(0.0549243 0.0952132 0)
(0.0598087 0.0878894 0)
(0.0649149 0.0800785 0)
(0.0699717 0.0712894 0)
(0.0743676 0.0614754 0)
(0.0778375 0.0512196 0)
(0.0807761 0.0408243 0)
(0.0835049 0.0297303 0)
(0.0854908 0.0171907 0)
(0.0855882 0.00358877 0)
(0.0829109 -0.0092489 0)
(-0.00104567 0.16485 0)
(0.00185282 0.158527 0)
(0.00515307 0.1517 0)
(0.00917238 0.145671 0)
(0.013635 0.140069 0)
(0.0185549 0.134617 0)
(0.0239412 0.129108 0)
(0.0297137 0.123369 0)
(0.0356963 0.117283 0)
(0.0416743 0.110827 0)
(0.047481 0.104075 0)
(0.0530575 0.0971257 0)
(0.0584514 0.0900282 0)
(0.0637546 0.0827117 0)
(0.0689869 0.074969 0)
(0.0739768 0.066562 0)
(0.078413 0.0574589 0)
(0.0821423 0.0478905 0)
(0.085288 0.0379721 0)
(0.0879105 0.02748 0)
(0.089654 0.016205 0)
(0.0898606 0.00460188 0)
(0.0880905 -0.00597324 0)
(-0.000136091 0.163878 0)
(0.00349083 0.155456 0)
(0.00720928 0.147758 0)
(0.0113607 0.141366 0)
(0.0157341 0.135389 0)
(0.0204828 0.129494 0)
(0.025688 0.123552 0)
(0.0313111 0.117488 0)
(0.0372219 0.111244 0)
(0.0432514 0.104801 0)
(0.0492486 0.0981749 0)
(0.0551213 0.091394 0)
(0.0608387 0.0844549 0)
(0.0663974 0.0772925 0)
(0.0717591 0.0697805 0)
(0.0767989 0.0617883 0)
(0.081335 0.0532838 0)
(0.085254 0.0443524 0)
(0.0885522 0.0350465 0)
(0.0911797 0.0253155 0)
(0.0928944 0.0151976 0)
(0.0933288 0.00514715 0)
(0.0923091 -0.00384373 0)
(0.00111062 0.161367 0)
(0.00582417 0.151674 0)
(0.0101016 0.143501 0)
(0.0143444 0.137151 0)
(0.0184834 0.13095 0)
(0.0229485 0.124626 0)
(0.0279007 0.11822 0)
(0.033317 0.11177 0)
(0.0390808 0.10528 0)
(0.0450427 0.0987409 0)
(0.0510608 0.092141 0)
(0.0570274 0.0854659 0)
(0.0628717 0.0786823 0)
(0.0685414 0.0717251 0)
(0.0739704 0.0645032 0)
(0.0790547 0.0569309 0)
(0.0836661 0.0489746 0)
(0.0877043 0.0406622 0)
(0.0911102 0.0320292 0)
(0.0937964 0.0231088 0)
(0.0955957 0.0140398 0)
(0.0963065 0.00523565 0)
(0.0958932 -0.00256633 0)
(0.00261693 0.157028 0)
(0.00837079 0.146751 0)
(0.0133311 0.138794 0)
(0.0176691 0.133136 0)
(0.02155 0.126834 0)
(0.025782 0.120043 0)
(0.0305553 0.113119 0)
(0.0358175 0.106236 0)
(0.0414427 0.0994498 0)
(0.0472908 0.0927548 0)
(0.0532311 0.0861218 0)
(0.0591559 0.0795096 0)
(0.064981 0.0728653 0)
(0.0706341 0.0661212 0)
(0.076039 0.0592006 0)
(0.0811027 0.0520366 0)
(0.0857214 0.0445949 0)
(0.089801 0.036882 0)
(0.0932623 0.0289303 0)
(0.0960119 0.0208079 0)
(0.0979318 0.0126829 0)
(0.0989107 0.00491378 0)
(0.0989766 -0.00193378 0)
(0.00420576 0.150596 0)
(0.0101928 0.140884 0)
(0.0154449 0.133532 0)
(0.0201284 0.129121 0)
(0.0242106 0.122827 0)
(0.0285777 0.115546 0)
(0.0334368 0.108104 0)
(0.0387094 0.100806 0)
(0.0442762 0.0937358 0)
(0.0500199 0.0868845 0)
(0.055835 0.0802068 0)
(0.0616308 0.0736438 0)
(0.0673292 0.0671294 0)
(0.0728578 0.0605933 0)
(0.0781425 0.0539656 0)
(0.0831008 0.0471884 0)
(0.0876435 0.0402283 0)
(0.0916838 0.0330842 0)
(0.0951394 0.0257873 0)
(0.0979237 0.0184161 0)
(0.0999512 0.0111357 0)
(0.101157 0.00424955 0)
(0.101596 -0.00179414 0)
(0.00472872 0.143199 0)
(0.0106871 0.135013 0)
(0.0158345 0.128055 0)
(0.0210177 0.124563 0)
(0.0259894 0.118329 0)
(0.0310592 0.110697 0)
(0.0363528 0.102898 0)
(0.041834 0.0953233 0)
(0.0474408 0.0880715 0)
(0.0531094 0.08113 0)
(0.0587782 0.0744449 0)
(0.0643884 0.0679486 0)
(0.0698822 0.0615701 0)
(0.0752005 0.0552393 0)
(0.0802802 0.0488918 0)
(0.0850514 0.0424761 0)
(0.0894384 0.0359614 0)
(0.0933639 0.0293445 0)
(0.0967517 0.0226551 0)
(0.099526 0.0159701 0)
(0.101623 0.00943896 0)
(0.103003 0.00331675 0)
(0.103727 -0.00203269 0)
(0.00427268 0.136092 0)
(0.010325 0.12911 0)
(0.0154436 0.122688 0)
(0.0211587 0.119021 0)
(0.0273282 0.112763 0)
(0.0333853 0.1051 0)
(0.0392826 0.0972616 0)
(0.0450634 0.0896577 0)
(0.0507517 0.0824001 0)
(0.0563518 0.0754858 0)
(0.0618537 0.0688669 0)
(0.0672367 0.0624797 0)
(0.0724702 0.0562572 0)
(0.0775152 0.050135 0)
(0.0823246 0.0440562 0)
(0.0868436 0.0379763 0)
(0.0910104 0.0318687 0)
(0.0947594 0.0257308 0)
(0.0980246 0.0195904 0)
(0.100743 0.0135183 0)
(0.102865 0.00764527 0)
(0.104363 0.00218562 0)
(0.1053 -0.00255982 0)
(0.00498736 0.129131 0)
(0.0106755 0.123417 0)
(0.0157949 0.117266 0)
(0.0221546 0.11249 0)
(0.0291683 0.106132 0)
(0.0359286 0.0987498 0)
(0.0422717 0.0911899 0)
(0.0482655 0.0838089 0)
(0.0539841 0.0767302 0)
(0.0594798 0.0699716 0)
(0.0647828 0.0635037 0)
(0.0699047 0.0572776 0)
(0.0748407 0.0512381 0)
(0.0795723 0.045332 0)
(0.08407 0.0395124 0)
(0.0882945 0.0337433 0)
(0.0921983 0.028004 0)
(0.0957285 0.0222941 0)
(0.0988311 0.0166402 0)
(0.101454 0.0111059 0)
(0.103562 0.0058046 0)
(0.105131 0.000916933 0)
(0.106222 -0.00330491 0)
(0.00627517 0.120891 0)
(0.0120552 0.117822 0)
(0.0176614 0.111211 0)
(0.0245223 0.105405 0)
(0.0317579 0.09899 0)
(0.0387085 0.0920158 0)
(0.0451823 0.0849014 0)
(0.0512066 0.0779024 0)
(0.0568514 0.0711348 0)
(0.0621831 0.0646333 0)
(0.0672515 0.0583889 0)
(0.0720886 0.0523709 0)
(0.0767083 0.0465404 0)
(0.0811098 0.0408579 0)
(0.0852793 0.0352888 0)
(0.0891919 0.0298067 0)
(0.0928136 0.0243981 0)
(0.0961045 0.019066 0)
(0.0990221 0.0138367 0)
(0.101526 0.00876749 0)
(0.103589 0.00395702 0)
(0.105192 -0.00044105 0)
(0.106389 -0.00421327 0)
(0.00676052 0.11146 0)
(0.0135195 0.111339 0)
(0.0200811 0.104444 0)
(0.0272184 0.0981839 0)
(0.0344055 0.0918414 0)
(0.0412605 0.0852775 0)
(0.0476406 0.0786434 0)
(0.0535453 0.072088 0)
(0.0590257 0.0657003 0)
(0.0641437 0.0595185 0)
(0.0689542 0.0535476 0)
(0.0734985 0.0477728 0)
(0.0778029 0.0421711 0)
(0.0818795 0.0367175 0)
(0.085727 0.0313899 0)
(0.089333 0.0261726 0)
(0.0926756 0.0210595 0)
(0.0957263 0.0160581 0)
(0.0984537 0.0111952 0)
(0.100827 0.00652337 0)
(0.102827 0.00212968 0)
(0.104438 -0.00185358 0)
(0.105707 -0.00524381 0)
(0.00665671 0.101652 0)
(0.0143689 0.10351 0)
(0.0218206 0.0970658 0)
(0.0292113 0.0909086 0)
(0.0363385 0.0848331 0)
(0.0430317 0.0787016 0)
(0.0492304 0.0725517 0)
(0.0549424 0.0664586 0)
(0.0602111 0.0604814 0)
(0.0650925 0.0546534 0)
(0.0696411 0.0489862 0)
(0.0739023 0.0434774 0)
(0.0779096 0.0381173 0)
(0.0816838 0.0328946 0)
(0.0852334 0.0277995 0)
(0.0885556 0.0228263 0)
(0.0916386 0.017977 0)
(0.0944637 0.013264 0)
(0.0970092 0.00871534 0)
(0.0992533 0.00438054 0)
(0.101182 0.000337832 0)
(0.102784 -0.00329715 0)
(0.1041 -0.00636611 0)
(0.00627928 0.0919226 0)
(0.0144892 0.0947596 0)
(0.0225094 0.0891966 0)
(0.0300765 0.0835524 0)
(0.0371481 0.0779447 0)
(0.0436771 0.0723116 0)
(0.0496744 0.0666655 0)
(0.0551712 0.0610472 0)
(0.0602141 0.0554961 0)
(0.0648577 0.0500396 0)
(0.0691556 0.0446929 0)
(0.0731551 0.0394627 0)
(0.0768939 0.034351 0)
(0.0803986 0.0293583 0)
(0.0836842 0.0244861 0)
(0.0867554 0.0197388 0)
(0.0896079 0.015126 0)
(0.0922311 0.0106652 0)
(0.0946113 0.0063862 0)
(0.0967342 0.00233664 0)
(0.0985918 -0.00141165 0)
(0.100176 -0.00475595 0)
(0.10152 -0.00755755 0)
(0.00585686 0.0825417 0)
(0.0140562 0.0856745 0)
(0.0222394 0.0810974 0)
(0.0298105 0.0761799 0)
(0.0367655 0.0711805 0)
(0.043107 0.0661107 0)
(0.0488878 0.0609935 0)
(0.0541587 0.0558609 0)
(0.0589723 0.0507435 0)
(0.0633836 0.045666 0)
(0.0674458 0.0406469 0)
(0.0712073 0.0357002 0)
(0.0747079 0.0308378 0)
(0.0779776 0.0260712 0)
(0.0810354 0.0214124 0)
(0.0838907 0.0168751 0)
(0.0865445 0.0124763 0)
(0.0889922 0.00823808 0)
(0.0912262 0.0041922 0)
(0.093239 0.000385071 0)
(0.0950273 -0.00311645 0)
(0.0965873 -0.00621938 0)
(0.0979483 -0.00880077 0)
(0.00544523 0.0736951 0)
(0.0132596 0.0767282 0)
(0.0212419 0.0730772 0)
(0.0286039 0.0689422 0)
(0.0353259 0.0646077 0)
(0.0414176 0.0601321 0)
(0.0469453 0.0555548 0)
(0.0519682 0.0509091 0)
(0.0565412 0.0462237 0)
(0.0607191 0.0415232 0)
(0.0645543 0.0368297 0)
(0.0680948 0.0321639 0)
(0.0713811 0.0275465 0)
(0.0744443 0.0229989 0)
(0.0773056 0.0185432 0)
(0.0799762 0.014202 0)
(0.0824599 0.00999895 0)
(0.0847554 0.00596019 0)
(0.0868601 0.00211855 0)
(0.0887717 -0.00148076 0)
(0.0904922 -0.00477495 0)
(0.0920225 -0.00767847 0)
(0.0933879 -0.0100809 0)
(0.00502496 0.0654969 0)
(0.0122324 0.0682517 0)
(0.0197391 0.0654083 0)
(0.0266931 0.062015 0)
(0.0330479 0.0583321 0)
(0.0388026 0.0544403 0)
(0.0440192 0.0503897 0)
(0.0487544 0.0462163 0)
(0.0530611 0.0419488 0)
(0.0569913 0.0376129 0)
(0.0605952 0.0332338 0)
(0.0639193 0.0288384 0)
(0.0670031 0.0244554 0)
(0.0698777 0.0201157 0)
(0.0725637 0.0158511 0)
(0.0750724 0.0116931 0)
(0.0774068 0.00767132 0)
(0.0795665 0.00381452 0)
(0.0815518 0.000155039 0)
(0.0833657 -0.003264 0)
(0.0850151 -0.00638323 0)
(0.0865062 -0.0091229 0)
(0.0878619 -0.0113825 0)
(0.00458294 0.0580247 0)
(0.0110623 0.06046 0)
(0.017908 0.0582961 0)
(0.0242979 0.0555563 0)
(0.0301636 0.0524666 0)
(0.0354901 0.0491149 0)
(0.0403271 0.0455549 0)
(0.0447229 0.0418228 0)
(0.0487243 0.0379463 0)
(0.0523785 0.0339516 0)
(0.0557323 0.0298665 0)
(0.0588293 0.0257227 0)
(0.0617076 0.0215567 0)
(0.0643969 0.0174085 0)
(0.0669163 0.0133199 0)
(0.0692743 0.00933167 0)
(0.07147 0.0054796 0)
(0.0735001 0.00179248 0)
(0.0753664 -0.00170086 0)
(0.077077 -0.00496098 0)
(0.0786446 -0.00793185 0)
(0.0800808 -0.010538 0)
(0.081408 -0.0126866 0)
(0.00412052 0.0513285 0)
(0.00981092 0.0534826 0)
(0.0158869 0.0518787 0)
(0.0216082 0.049688 0)
(0.0268918 0.0471107 0)
(0.0317114 0.0442351 0)
(0.0361026 0.0411134 0)
(0.0401034 0.0377785 0)
(0.0437528 0.0342557 0)
(0.0470919 0.0305699 0)
(0.0501632 0.02675 0)
(0.0530074 0.0228318 0)
(0.0556607 0.0188582 0)
(0.0581518 0.0148787 0)
(0.0604981 0.0109463 0)
(0.0627037 0.00711275 0)
(0.0647593 0.00342111 0)
(0.0666537 -0.000103405 0)
(0.0683889 -0.00344108 0)
(0.0699795 -0.00655865 0)
(0.0714446 -0.00940333 0)
(0.0728025 -0.0119025 0)
(0.0740758 -0.0139688 0)
(0.00363959 0.045434 0)
(0.00852498 0.0473835 0)
(0.0137893 0.0462331 0)
(0.0187897 0.0444883 0)
(0.0234347 0.0423372 0)
(0.0276912 0.0398667 0)
(0.0315828 0.0371237 0)
(0.035138 0.0341357 0)
(0.0383878 0.0309234 0)
(0.0413672 0.027509 0)
(0.0441136 0.0239208 0)
(0.0466649 0.0201967 0)
(0.0490567 0.0163851 0)
(0.0513183 0.0125448 0)
(0.0534674 0.00874229 0)
(0.0555042 0.00504432 0)
(0.0574052 0.00150607 0)
(0.0591436 -0.00185693 0)
(0.0607207 -0.00504426 0)
(0.0621609 -0.00803226 0)
(0.0634925 -0.0107706 0)
(0.06474 -0.0131872 0)
(0.0659268 -0.0151976 0)
(0.00313812 0.0403494 0)
(0.00724985 0.0421697 0)
(0.01172 0.041379 0)
(0.0159963 0.0399893 0)
(0.0199841 0.0381865 0)
(0.0236489 0.0360539 0)
(0.0270068 0.0336318 0)
(0.0300786 0.0309408 0)
(0.0328883 0.0279961 0)
(0.035464 0.0248158 0)
(0.0378379 0.0214258 0)
(0.0400452 0.0178637 0)
(0.0421217 0.014181 0)
(0.044101 0.0104449 0)
(0.0460066 0.00673728 0)
(0.0478405 0.00314811 0)
(0.0495573 -0.000240996 0)
(0.0511014 -0.00343538 0)