/*--------------------------------*- C++ -*----------------------------------*\
| =========                 |                                                 |
| \\      /  F ield         | OpenFOAM: The Open Source CFD Toolbox           |
|  \\    /   O peration     | Version:  2.3.0                                 |
|   \\  /    A nd           | Web:      www.OpenFOAM.org                      |
|    \\/     M anipulation  |                                                 |
\*---------------------------------------------------------------------------*/
FoamFile
{
    version     2.0;
    format      ascii;
    class       volVectorField;
    location    "3";
    object      U;
}
// * * * * * * * * * * * * * * * * * * * * * * * * * * * * * * * * * * * * * //

dimensions      [0 1 -1 0 0 0 0];

internalField   nonuniform List<vector> 
1720
(
(0.196405 -0.00363943 0)
(0.196259 -0.0122084 0)
(0.197542 -0.0172091 0)
(0.198281 -0.0197746 0)
(0.198102 -0.0220928 0)
(0.19748 -0.0251741 0)
(0.196887 -0.028979 0)
(0.19648 -0.032991 0)
(0.196202 -0.0368696 0)
(0.195959 -0.0404462 0)
(0.195722 -0.0437287 0)
(0.195488 -0.0467138 0)
(0.195343 -0.0493379 8.09887e-26)
(0.19526 -0.05154 -2.16361e-26)
(0.195382 -0.0531626 9.81492e-27)
(0.195549 -0.0542126 -6.08122e-26)
(0.196037 -0.0544996 -8.03347e-27)
(0.196534 -0.0541559 0)
(0.197189 -0.0531723 3.37413e-26)
(0.197983 -0.0515398 -3.39258e-26)
(0.198805 -0.0493947 0)
(0.199661 -0.0468853 0)
(0.200456 -0.0441186 0)
(0.201279 -0.0412169 -1.83534e-24)
(0.201999 -0.0381905 1.31285e-25)
(0.202817 -0.0350976 -1.24472e-25)
(0.203451 -0.0318662 3.66855e-27)
(0.204292 -0.0285711 -1.35584e-25)
(0.204779 -0.0251143 0)
(0.205674 -0.0215878 0)
(0.205945 -0.0178762 0)
(0.207037 -0.0139997 0)
(0.207326 -0.00979077 0)
(0.209694 -0.00501683 0)
(0.211603 0.0012892 0)
(0.214829 0.00819778 0)
(0.217842 0.0163534 0)
(0.219991 0.0252144 0)
(0.221289 0.0340935 0)
(0.221906 0.0425749 0)
(0.222039 0.0504223 0)
(0.221773 0.0575947 0)
(0.221214 0.0640274 0)
(0.220365 0.0697638 0)
(0.219325 0.0747482 0)
(0.218059 0.0790619 0)
(0.216695 0.0826394 0)
(0.215133 0.0856037 0)
(0.213556 0.0878451 0)
(0.211744 0.0895341 0)
(0.210003 0.0904685 0)
(0.207879 0.090894 0)
(0.205952 0.0904465 0)
(0.203271 0.0895066 0)
(0.201023 0.0874115 0)
(0.197109 0.0848371 0)
(0.194101 0.0804304 0)
(0.18718 0.0756867 0)
(0.182103 0.0674273 0)
(0.160359 0.0550122 0)
(0.189411 -0.0047172 0)
(0.191375 -0.0122762 0)
(0.195528 -0.0162441 0)
(0.197189 -0.0186798 0)
(0.196555 -0.0213987 0)
(0.195196 -0.0247702 0)
(0.194142 -0.0286538 0)
(0.193615 -0.0325876 0)
(0.193399 -0.0364396 0)
(0.193301 -0.0400333 0)
(0.193201 -0.0434333 0)
(0.193197 -0.0465498 3.01102e-25)
(0.193326 -0.0493632 -3.01099e-25)
(0.193726 -0.0517492 0)
(0.19437 -0.0536162 0)
(0.195325 -0.0548575 9.70563e-26)
(0.196497 -0.0554086 -9.70574e-26)
(0.197891 -0.0552216 -5.51892e-25)
(0.199412 -0.0543072 5.51924e-25)
(0.200963 -0.0527472 0)
(0.202437 -0.050635 -6.27168e-25)
(0.203767 -0.048136 2.00319e-24)
(0.204935 -0.0453806 -1.37594e-24)
(0.205968 -0.042474 3.48792e-24)
(0.206929 -0.0394432 -1.50865e-24)
(0.207834 -0.0363111 0)
(0.208713 -0.0330489 0)
(0.209542 -0.0296887 4.25328e-25)
(0.210315 -0.0261778 -4.25332e-25)
(0.211038 -0.0225739 0)
(0.211726 -0.0187787 0)
(0.212482 -0.0149103 0)
(0.213227 -0.0108038 0)
(0.213903 -0.00693831 0)
(0.214316 -0.00329046 0)
(0.214881 -0.000947407 0)
(0.215788 -0.000157998 0)
(0.216516 -0.000418289 0)
(0.216965 -0.00123267 0)
(0.2172 -0.00217629 0)
(0.217388 -0.0031604 0)
(0.217498 -0.00400855 0)
(0.21759 -0.00481515 0)
(0.217525 -0.0054161 0)
(0.217405 -0.00600573 0)
(0.217051 -0.00638343 0)
(0.216664 -0.0068366 0)
(0.215974 -0.00707688 0)
(0.215319 -0.00749763 0)
(0.214264 -0.00766869 0)
(0.213358 -0.00813316 0)
(0.211895 -0.00827069 0)
(0.210758 -0.0087994 0)
(0.208825 -0.00889862 0)
(0.207473 -0.00938758 0)
(0.205034 -0.00928862 0)
(0.203505 -0.00927473 0)
(0.200774 -0.00820016 0)
(0.199532 -0.00602758 0)
(0.197669 0.000788443 0)
(0.183689 -0.0073875 0)
(0.186517 -0.0112642 0)
(0.193333 -0.0149525 0)
(0.195339 -0.0175491 0)
(0.194184 -0.0206732 0)
(0.192305 -0.0242983 0)
(0.191054 -0.0283212 0)
(0.190552 -0.0322484 0)
(0.190505 -0.0361905 0)
(0.1906 -0.0398777 6.41797e-25)
(0.190743 -0.0435125 5.22378e-25)
(0.191029 -0.0468562 -1.1641e-24)
(0.191548 -0.0499737 -3.35169e-24)
(0.192439 -0.0526552 -2.53334e-25)
(0.193691 -0.0548257 0)
(0.195332 -0.0563497 6.15647e-25)
(0.197263 -0.0571062 -6.15665e-25)
(0.19942 -0.0570204 -1.81036e-24)
(0.201629 -0.0560862 2.93939e-24)
(0.203776 -0.054386 -3.40658e-24)
(0.20567 -0.0520581 4.67159e-25)
(0.207282 -0.0493668 0)
(0.208591 -0.0464669 -1.58404e-23)
(0.209763 -0.0434751 2.63203e-23)
(0.210829 -0.0403788 -1.02608e-23)
(0.211912 -0.0372032 0)
(0.212976 -0.0339229 -1.22561e-23)
(0.213976 -0.0305271 5.56658e-24)
(0.214862 -0.0269969 -5.57473e-24)
(0.21564 -0.0233334 -7.13889e-25)
(0.216273 -0.0195267 -7.67452e-25)
(0.216841 -0.0156391 0)
(0.217364 -0.0116991 0)
(0.217923 -0.0077699 0)
(0.218699 -0.00370166 0)
(0.219752 0.000591534 0)
(0.220736 0.00474103 0)
(0.221654 0.00867831 0)
(0.222473 0.0124518 0)
(0.223001 0.0160898 0)
(0.223296 0.0195135 0)
(0.223301 0.0226678 0)
(0.2232 0.0254903 0)
(0.222869 0.0279963 0)
(0.222512 0.0301715 0)
(0.221907 0.0320594 0)
(0.221343 0.0336499 0)
(0.220478 0.0349939 0)
(0.219729 0.0360735 0)
(0.218575 0.036948 0)
(0.217631 0.0375844 0)
(0.216108 0.0380455 0)
(0.214921 0.0382807 0)
(0.212902 0.0383467 0)
(0.211385 0.0381791 0)
(0.208695 0.0378052 0)
(0.206738 0.0371392 0)
(0.203119 0.0361156 0)
(0.200624 0.034545 0)
(0.193203 0.0311154 0)
(0.177875 -0.00695371 0)
(0.181809 -0.0107349 0)
(0.191147 -0.0141992 0)
(0.193279 -0.0171394 0)
(0.191681 -0.0202808 0)
(0.189354 -0.0239857 0)
(0.188006 -0.028113 0)
(0.187514 -0.0320107 0)
(0.187594 -0.0361057 0)
(0.18777 -0.0398804 9.09908e-25)
(0.188076 -0.0438545 7.20652e-24)
(0.18856 -0.0474462 -5.85658e-24)
(0.189396 -0.0510103 8.83621e-24)
(0.190733 -0.0540438 3.75335e-23)
(0.192543 -0.0566386 -7.51356e-24)
(0.194904 -0.0585123 0)
(0.19765 -0.059539 0)
(0.200705 -0.0595715 -1.01799e-23)
(0.203782 -0.058548 2.09122e-23)
(0.206659 -0.0565283 -1.17211e-23)
(0.209069 -0.0538266 2.79957e-24)
(0.211 -0.0508638 2.73711e-23)
(0.21254 -0.0478215 -2.1364e-23)
(0.213958 -0.0448266 -6.06923e-24)
(0.215276 -0.0417452 0)
(0.21625 -0.038458 3.04889e-23)
(0.216922 -0.0349895 -2.16909e-23)
(0.217401 -0.031392 2.59261e-23)
(0.217698 -0.0276789 1.5022e-23)
(0.217957 -0.0238814 1.08757e-24)
(0.2182 -0.0200081 -1.08964e-24)
(0.218447 -0.0161109 0)
(0.218718 -0.0121694 0)
(0.219083 -0.00825846 0)
(0.219539 -0.00435522 0)
(0.220063 -0.000777423 0)
(0.220691 0.00252643 0)
(0.221271 0.00556359 0)
(0.221795 0.00827904 0)
(0.222136 0.0107134 0)
(0.222383 0.0129079 0)
(0.222428 0.0149406 0)
(0.222425 0.0168054 0)
(0.222228 0.0185368 0)
(0.222055 0.0201003 0)
(0.221641 0.0215286 0)
(0.221285 0.022777 0)
(0.220613 0.0238842 0)
(0.22006 0.024796 0)
(0.219083 0.025568 0)
(0.21831 0.0261337 0)
(0.216943 0.0265666 0)
(0.215901 0.0267955 0)
(0.21401 0.0268922 0)
(0.212629 0.0268182 0)
(0.210035 0.0266028 0)
(0.208256 0.0263042 0)
(0.204756 0.0259103 0)
(0.202704 0.0255644 0)
(0.197814 0.0255212 0)
(0.172032 -0.00697724 0)
(0.177336 -0.0106216 0)
(0.18911 -0.0135848 0)
(0.19112 -0.0167892 0)
(0.189117 -0.0197946 0)
(0.186307 -0.0234955 0)
(0.184901 -0.0277287 0)
(0.184326 -0.0316134 -1.49716e-24)
(0.184506 -0.0359651 -1.45309e-24)
(0.184595 -0.0398578 0)
(0.185038 -0.0443505 -8.11554e-24)
(0.185575 -0.04822 0)
(0.186748 -0.0524868 -1.26459e-23)
(0.188474 -0.0559282 -6.25879e-23)
(0.190903 -0.0591838 3.79066e-23)
(0.194065 -0.0614925 -5.20035e-23)
(0.197767 -0.0628756 -8.116e-24)
(0.201996 -0.0630824 3.45112e-23)
(0.206191 -0.0618839 -7.24947e-23)
(0.210043 -0.0593607 2.97397e-23)
(0.213137 -0.0562715 3.91653e-24)
(0.2155 -0.0531131 7.24425e-23)
(0.216937 -0.0497794 -7.20832e-23)
(0.217601 -0.0463027 0)
(0.217847 -0.0426804 6.92187e-23)
(0.21801 -0.0390448 -1.56407e-22)
(0.218059 -0.0353613 -1.09224e-22)
(0.217957 -0.0316362 -1.85062e-23)
(0.217757 -0.0278514 4.80682e-23)
(0.217433 -0.0240369 0)
(0.217049 -0.0201867 0)
(0.216637 -0.0163048 -1.6391e-24)
(0.216283 -0.0124332 -1.68086e-24)
(0.216002 -0.0085898 0)
(0.215853 -0.00488028 0)
(0.21582 -0.00131205 0)
(0.215974 0.00204072 0)
(0.216187 0.00513582 0)
(0.216463 0.0079646 0)
(0.216692 0.0105601 0)
(0.216978 0.0129477 0)
(0.217186 0.015162 0)
(0.217471 0.017192 0)
(0.217615 0.0190434 0)
(0.217803 0.0207054 0)
(0.217762 0.022188 0)
(0.217782 0.0234871 0)
(0.217484 0.0246181 0)
(0.217294 0.0255856 0)
(0.216673 0.0264065 0)
(0.216237 0.0270891 0)
(0.215206 0.0276442 0)
(0.214472 0.0280952 0)
(0.212916 0.0284198 0)
(0.211825 0.0286857 0)
(0.209621 0.0287979 0)
(0.20816 0.0289258 0)
(0.205245 0.0288742 0)
(0.203521 0.0289629 0)
(0.199064 0.0288887 0)
(0.166373 -0.00679735 0)
(0.173095 -0.0102356 0)
(0.187232 -0.0127588 0)
(0.188933 -0.016166 0)
(0.18649 -0.0191133 0)
(0.183145 -0.0228277 0)
(0.181693 -0.0271491 0)
(0.180908 -0.0310574 -2.11303e-24)
(0.181167 -0.035723 -5.62205e-24)
(0.180954 -0.0397917 0)
(0.18155 -0.0449722 0)
(0.1819 -0.0491446 0)
(0.183503 -0.0544666 0)
(0.185442 -0.0582955 -8.23889e-23)
(0.188685 -0.0626906 1.15017e-22)
(0.192672 -0.0654206 -8.13188e-23)
(0.19762 -0.0673316 7.37092e-23)
(0.203311 -0.0676729 -9.71509e-23)
(0.209042 -0.066059 -2.25667e-22)
(0.214623 -0.0633661 2.44811e-22)
(0.217915 -0.0595484 1.00821e-22)
(0.218782 -0.0550368 0)
(0.21875 -0.0507945 0)
(0.218255 -0.0467727 -3.83238e-22)
(0.217507 -0.042906 8.2318e-23)
(0.216414 -0.0390435 3.97761e-22)
(0.214992 -0.0351672 -1.30738e-22)
(0.213289 -0.0312698 1.05991e-22)
(0.211404 -0.027356 -1.54761e-22)
(0.209436 -0.0234359 0)
(0.207514 -0.019535 0)
(0.205708 -0.0156722 1.639e-24)
(0.204141 -0.01188 -2.24341e-24)
(0.202819 -0.00817899 0)
(0.201857 -0.00461262 0)
(0.201179 -0.00118901 0)
(0.200882 0.00202055 0)
(0.20088 0.00499124 0)
(0.201175 0.00775131 0)
(0.201627 0.0103314 0)
(0.202279 0.012749 0)
(0.20297 0.0150115 0)
(0.203804 0.0171243 0)
(0.204581 0.0190807 0)
(0.20547 0.0208857 0)
(0.20619 0.0225214 0)
(0.206998 0.0240109 0)
(0.207522 0.0253267 0)
(0.208142 0.0265183 0)
(0.208352 0.027543 0)
(0.208694 0.028484 0)
(0.208478 0.0292684 0)
(0.20844 0.0300329 0)
(0.207676 0.0306264 0)
(0.20712 0.0312928 0)
(0.205673 0.0317197 0)
(0.204625 0.0322986 0)
(0.202415 0.0325277 0)
(0.20092 0.0329463 0)
(0.196799 0.0326706 0)
(0.160974 -0.00647272 0)
(0.169278 -0.00970177 0)
(0.185399 -0.0117423 0)
(0.186688 -0.0153111 0)
(0.183748 -0.0183269 0)
(0.179877 -0.0220904 0)
(0.178382 -0.0263806 -2.09693e-24)
(0.17725 -0.0303518 1.91764e-23)
(0.177525 -0.0352498 -8.4906e-24)
(0.176756 -0.039629 -5.88649e-23)
(0.177499 -0.0455197 -6.86457e-23)
(0.177333 -0.0501742 0)
(0.179479 -0.0568475 0)
(0.181293 -0.0611148 1.34425e-22)
(0.185729 -0.0674905 0)
(0.190545 -0.0705184 -2.98568e-23)
(0.197444 -0.0736403 -2.2343e-22)
(0.204898 -0.0733062 2.58755e-22)
(0.213566 -0.0716539 6.91284e-23)
(0.218233 -0.0661684 -5.46849e-22)
(0.219726 -0.0606209 -3.79687e-22)
(0.218964 -0.0552355 -2.31749e-22)
(0.216547 -0.0505129 -9.46453e-22)
(0.213081 -0.0459954 9.45242e-22)
(0.209076 -0.0415086 9.44996e-22)
(0.204655 -0.0371166 -9.44859e-22)
(0.199908 -0.0328253 2.22599e-22)
(0.195004 -0.0286208 0)
(0.190142 -0.0245163 0)
(0.185513 -0.0205472 -1.97164e-22)
(0.181297 -0.016746 6.41385e-23)
(0.177618 -0.0131235 3.36976e-23)
(0.174591 -0.0096794 -1.26587e-23)
(0.172232 -0.00640262 -2.19839e-24)
(0.170588 -0.00329627 0)
(0.169555 -0.000343708 0)
(0.169155 0.00242091 0)
(0.169309 0.00500887 0)
(0.169986 0.00745341 0)
(0.171014 0.00977208 0)
(0.172391 0.0119822 0)
(0.173942 0.0140795 0)
(0.17573 0.0160775 0)
(0.177555 0.0179561 0)
(0.179557 0.019732 0)
(0.18148 0.0213719 0)
(0.183543 0.0229168 0)
(0.185414 0.0243117 0)
(0.187402 0.0256344 0)
(0.189074 0.0268052 0)
(0.190852 0.0279486 0)
(0.192173 0.0289497 0)
(0.19358 0.0299985 0)
(0.19437 0.0308883 0)
(0.195193 0.0319282 0)
(0.195163 0.0327153 0)
(0.195087 0.0337182 0)
(0.194081 0.0342677 0)
(0.193125 0.0349095 0)
(0.190129 0.0348224 0)
(0.155955 -0.00605808 0)
(0.165922 -0.00925237 0)
(0.183663 -0.0104048 0)
(0.184353 -0.0140689 0)
(0.180794 -0.017326 0)
(0.176573 -0.0211589 -2.26632e-24)
(0.174999 -0.0252636 2.0969e-24)
(0.17342 -0.0293567 1.95142e-23)
(0.173536 -0.0343048 3.09186e-24)
(0.171958 -0.039217 3.61439e-23)
(0.172739 -0.0456184 1.27346e-22)
(0.171651 -0.0512827 4.97655e-22)
(0.174377 -0.0592093 3.54773e-22)
(0.175647 -0.0646932 -8.44635e-22)
(0.181695 -0.0737893 -7.05846e-22)
(0.187412 -0.0773958 7.0924e-22)
(0.197773 -0.0831961 0)
(0.208913 -0.0820125 3.40014e-22)
(0.215814 -0.0742171 -7.26383e-22)
(0.218648 -0.0657409 -7.81721e-22)
(0.215841 -0.057807 -7.57461e-22)
(0.209278 -0.0508966 -1.21139e-21)
(0.200368 -0.04553 5.73609e-22)
(0.190241 -0.0398841 -2.1427e-21)
(0.180118 -0.0344952 2.67563e-21)
(0.17011 -0.0296846 -2.12223e-21)
(0.160542 -0.0252885 2.1292e-21)
(0.151687 -0.0212021 5.43713e-22)
(0.143741 -0.0174281 -5.45644e-22)
(0.136887 -0.0140073 1.32946e-22)
(0.131243 -0.0109457 -3.53497e-23)
(0.126866 -0.00820946 5.43785e-23)
(0.123719 -0.00573812 1.82514e-23)
(0.121724 -0.00348224 2.19837e-24)
(0.120733 -0.00137039 -2.32607e-24)
(0.120659 0.000626991 0)
(0.121289 0.00261013 0)
(0.122584 0.00458373 0)
(0.124455 0.0065202 0)
(0.126725 0.00841634 0)
(0.129349 0.010284 0)
(0.132167 0.0121105 0)
(0.135208 0.013903 0)
(0.138304 0.01563 0)
(0.141553 0.0173043 0)
(0.144748 0.0188811 0)
(0.148059 0.0203999 0)
(0.151228 0.0217979 0)
(0.154496 0.0231585 0)
(0.15754 0.0243945 0)
(0.160669 0.0256458 0)
(0.163484 0.0267882 0)
(0.166344 0.0280351 0)
(0.16879 0.0291872 0)
(0.171144 0.0305329 0)
(0.173104 0.0317595 0)
(0.174686 0.0332352 0)
(0.17572 0.0342083 0)
(0.176169 0.0356899 0)
(0.175324 0.0360238 0)
(0.151237 -0.00553192 0)
(0.16332 -0.00768788 0)
(0.182258 -0.010808 0)
(0.181521 -0.0128226 0)
(0.177604 -0.0157577 0)
(0.1734 -0.0195982 -2.7657e-25)
(0.17156 -0.0234885 0)
(0.169575 -0.0277633 1.42481e-24)
(0.169127 -0.0326359 -1.92672e-22)
(0.16664 -0.0382083 2.1098e-22)
(0.167061 -0.0449045 1.60531e-22)
(0.164584 -0.0521206 -3.27779e-22)
(0.167881 -0.0610738 -2.62958e-21)
(0.167732 -0.0693004 0)
(0.176375 -0.0817975 0)
(0.182714 -0.0876596 0)
(0.200679 -0.098999 1.36073e-21)
(0.208747 -0.0909276 -2.20013e-21)
(0.212084 -0.0765296 1.24364e-21)
(0.20564 -0.0599633 -6.38391e-21)
(0.189662 -0.0467283 -5.3032e-21)
(0.170241 -0.0376274 1.21711e-21)
(0.148315 -0.0309391 1.7886e-21)
(0.128982 -0.0235815 -2.36221e-21)
(0.11214 -0.0177725 -4.96793e-21)
(0.098233 -0.0138784 -3.44304e-23)
(0.0877445 -0.0111553 0)
(0.0800698 -0.00923457 -2.25169e-21)
(0.0746071 -0.00788608 1.42518e-21)
(0.0709233 -0.00684051 -1.41989e-22)
(0.0685817 -0.00590162 -1.81244e-22)
(0.0673999 -0.00498125 -5.46261e-23)
(0.0671622 -0.00403189 -3.66796e-23)
(0.0677075 -0.00302137 0)
(0.0688733 -0.0019234 -3.3181e-26)
(0.0706581 -0.000721711 0)
(0.0728648 0.000632547 0)
(0.0754121 0.00210257 0)
(0.0782778 0.00366464 0)
(0.0814223 0.00527936 0)
(0.0848166 0.00692839 0)
(0.0883647 0.00859086 0)
(0.0920878 0.0102625 0)
(0.0958809 0.0119091 0)
(0.0998123 0.0135313 0)
(0.103741 0.0150856 0)
(0.107792 0.0165976 0)
(0.111779 0.0180151 0)
(0.115885 0.0194037 0)
(0.119874 0.0206967 0)
(0.123975 0.0220158 0)
(0.127903 0.0232663 0)
(0.131916 0.0246428 0)
(0.13566 0.026008 0)
(0.13938 0.0275775 0)
(0.142679 0.0291767 0)
(0.145809 0.0311024 0)
(0.148103 0.0326158 0)
(0.150253 0.0346702 0)
(0.151228 0.0360802 0)
(0.146958 -0.00494374 0)
(0.161008 -0.00657413 0)
(0.180588 -0.00985828 0)
(0.179239 -0.0115796 0)
(0.174518 -0.0140379 0)
(0.170351 -0.0176519 -3.05641e-24)
(0.167849 -0.0212578 0)
(0.165794 -0.0255849 0)
(0.164065 -0.0302597 9.02231e-23)
(0.161119 -0.0363074 -4.22723e-22)
(0.15997 -0.0431464 0)
(0.156316 -0.0519245 0)
(0.159104 -0.0619664 2.62089e-21)
(0.156499 -0.0743763 0)
(0.170168 -0.0927609 0)
(0.171827 -0.102443 0)
(0.193535 -0.116886 5.39643e-22)
(0.184168 -0.10055 -4.45486e-22)
(0.180491 -0.0919967 -1.53823e-20)
(0.152958 -0.0671236 -1.01559e-20)
(0.111811 -0.0403387 6.33151e-21)
(0.0559146 -0.0174028 0)
(0.0378115 -0.00726866 5.26121e-22)
(0.0333876 -0.0052413 -6.44006e-22)
(0.0272825 -0.00547113 0)
(0.0256811 -0.00669502 8.77091e-21)
(0.026058 -0.00718743 -2.82927e-23)
(0.0268131 -0.00749717 2.24287e-21)
(0.0273314 -0.00759678 -1.13757e-21)
(0.0276943 -0.00746098 0)
(0.0282372 -0.00710279 -2.91174e-22)
(0.0289832 -0.00657932 7.34461e-23)
(0.029987 -0.00592509 0)
(0.0312778 -0.00515067 0)
(0.0328552 -0.00426095 -2.3662e-24)
(0.0347239 -0.00325382 0)
(0.0368764 -0.00216104 0)
(0.039283 -0.000955284 0)
(0.0419181 0.000374756 0)
(0.0447527 0.00179151 0)
(0.0477906 0.00327782 0)
(0.0510039 0.00480311 0)
(0.0543993 0.00635431 0)
(0.0579261 0.00790181 0)
(0.0616177 0.00943628 0)
(0.0654016 0.0109224 0)
(0.0693494 0.0123702 0)
(0.0733556 0.0137436 0)
(0.077533 0.0150838 0)
(0.0817441 0.0163558 0)
(0.0861239 0.0176427 0)
(0.0905268 0.0189182 0)
(0.0950464 0.0202923 0)
(0.0995707 0.0217936 0)
(0.104059 0.023427 0)
(0.108427 0.0254799 0)
(0.11247 0.027512 0)
(0.116109 0.0301557 0)
(0.118994 0.032057 0)
(0.121333 0.0352718 0)
(0.143194 -0.00425641 0)
(0.15888 -0.00548654 0)
(0.179095 -0.00857183 0)
(0.177329 -0.0100232 0)
(0.171835 -0.0120268 0)
(0.167628 -0.015228 -4.54791e-25)
(0.164179 -0.0184715 -1.28874e-23)
(0.162295 -0.02257 -5.40592e-23)
(0.158611 -0.0269449 0)
(0.155877 -0.0330206 6.52608e-22)
(0.15125 -0.039886 -2.29447e-22)
(0.147893 -0.0495171 0)
(0.146061 -0.0611388 8.75812e-22)
(0.141712 -0.0768433 6.70204e-21)
(0.158054 -0.105618 -1.182e-20)
(0.134586 -0.123775 0)
(0.170182 -0.144149 -4.71041e-20)
(0.111706 -0.0904525 0)
(0.00812149 -0.0014979 -9.33089e-20)
(0.000278635 -0.00439085 1.13656e-19)
(-0.00198386 -0.00758588 0)
(0.000773313 -0.0100621 -8.82133e-21)
(0.00258368 -0.0101341 -3.91188e-21)
(0.00433904 -0.00962535 -5.65103e-22)
(0.00538264 -0.00899125 0)
(0.00607357 -0.00841815 1.44657e-22)
(0.00663229 -0.00792391 1.46133e-22)
(0.00715908 -0.00744233 0)
(0.00775705 -0.00693029 -3.69955e-23)
(0.00848401 -0.00635565 -9.33325e-24)
(0.00937424 -0.00569381 1.57404e-26)
(0.010449 -0.00492722 0)
(0.0117228 -0.00404766 0)
(0.0131937 -0.00305712 0)
(0.0148685 -0.00196835 0)
(0.0167432 -0.000780406 0)
(0.0188132 0.000495569 0)
(0.0210652 0.00183558 0)
(0.0235193 0.00321088 0)
(0.026161 0.0045928 0)
(0.0290041 0.00596351 0)
(0.0320258 0.0072948 0)
(0.0352625 0.00858466 0)
(0.0386735 0.00980906 0)
(0.0423188 0.0109896 0)
(0.046143 0.0121154 0)
(0.0502146 0.0132422 0)
(0.0544939 0.0143882 0)
(0.0589686 0.0156236 0)
(0.0637145 0.0170768 0)
(0.0684637 0.0186422 0)
(0.0734297 0.020979 0)
(0.0780853 0.0230911 0)
(0.0824444 0.0266158 0)
(0.0858855 0.0294991 0)
(0.089275 0.0326064 0)
(0.14004 -0.00345325 0)
(0.157104 -0.00438518 0)
(0.17784 -0.00694151 0)
(0.175746 -0.00811048 0)
(0.169653 -0.00975367 0)
(0.165125 -0.0123851 2.55216e-23)
(0.161001 -0.0151618 -1.30103e-23)
(0.158884 -0.0187014 8.33133e-23)
(0.153574 -0.0225947 2.8964e-23)
(0.150604 -0.0281642 0)
(0.142064 -0.0346204 0)
(0.139449 -0.0442493 0)
(0.128031 -0.0566199 1.13715e-21)
(0.127798 -0.0732202 -8.93381e-21)
(0.120547 -0.112181 1.41445e-20)
(0.088149 -0.111039 6.79155e-21)
(-0.00443304 -0.00609127 3.63148e-20)
(-0.00508978 -0.0108272 9.95975e-21)
(-0.00498538 -0.0109645 5.67773e-22)
(-0.00486654 -0.0101389 -5.6707e-22)
(-0.00509669 -0.00925162 0)
(-0.00542733 -0.00856313 0)
(-0.0058546 -0.00804221 0)
(-0.00628906 -0.00760093 -1.83651e-23)
(-0.00667174 -0.0071771 9.21584e-23)
(-0.00696237 -0.006724 2.80359e-23)
(-0.00713349 -0.0062064 -1.39947e-23)
(-0.00716311 -0.0056 0)
(-0.00703488 -0.00489187 0)
(-0.00673663 -0.00407981 0)
(-0.00625745 -0.00316883 0)
(-0.00558851 -0.00217047 0)
(-0.00471447 -0.00109875 0)
(-0.00364389 3.4315e-05 0)
(-0.00236725 0.00120366 0)
(-0.000866987 0.0023785 0)
(0.000868835 0.00353235 0)
(0.00284233 0.00464229 0)
(0.00507744 0.00569936 0)
(0.00757111 0.00668434 0)
(0.0103608 0.00760695 0)
(0.0134419 0.0084685 0)
(0.0168604 0.00930929 0)
(0.0206233 0.0101702 0)
(0.024723 0.0111231 0)
(0.0292668 0.012307 0)
(0.0339902 0.0136728 0)
(0.0392112 0.0160744 0)
(0.044326 0.0177291 0)
(0.0496265 0.0238749 0)
(0.0520383 0.0265732 0)
(0.0557761 0.0317274 0)
(0.13759 -0.0025457 0)
(0.155749 -0.00320281 0)
(0.17685 -0.00510344 0)
(0.174498 -0.00596055 0)
(0.168054 -0.00721785 0)
(0.162887 -0.0091782 -2.85266e-25)
(0.15868 -0.01131 -1.44389e-23)
(0.155541 -0.0140538 -2.71094e-23)
(0.149896 -0.0171194 -1.63261e-22)
(0.144816 -0.0217397 -2.87225e-22)
(0.13516 -0.0268905 0)
(0.128779 -0.0359701 0)
(0.112866 -0.0454107 0)
(0.108876 -0.0657249 3.11988e-21)
(0.0728573 -0.10072 -8.97578e-22)
(0.0579221 -0.0867237 1.04536e-19)
(-0.00243926 -0.00468875 8.43017e-20)
(-0.00452921 -0.00946578 -4.7521e-22)
(-0.00714175 -0.00988534 1.12369e-21)
(-0.0089279 -0.00906908 0)
(-0.0106993 -0.00816455 0)
(-0.0123806 -0.00748124 0)
(-0.0140038 -0.0069873 -1.43601e-22)
(-0.0155581 -0.00660549 -5.41726e-23)
(-0.0170359 -0.00626657 -5.50327e-23)
(-0.0184238 -0.00591851 -9.20561e-24)
(-0.0197089 -0.00552231 0)
(-0.0208756 -0.00505228 0)
(-0.0219086 -0.00449404 0)
(-0.0227926 -0.00384383 0)
(-0.0235137 -0.00310676 0)
(-0.0240585 -0.00229651 0)
(-0.0244118 -0.00142877 0)
(-0.0245523 -0.000519111 0)
(-0.0244754 0.000426376 0)
(-0.024156 0.00136637 0)
(-0.0235758 0.0022654 0)
(-0.0227283 0.00310729 0)
(-0.0215864 0.00387746 0)
(-0.0201302 0.00455367 0)
(-0.0183285 0.00514063 0)
(-0.0161606 0.00564257 0)
(-0.0135827 0.00609007 0)
(-0.0105634 0.00653426 0)
(-0.00707008 0.00706578 0)
(-0.00303667 0.00782882 0)
(0.0014591 0.00886251 0)
(0.00640445 0.0103848 0)
(0.0134639 0.0121276 0)
(0.0170562 0.0194628 0)
(0.0223611 0.0256308 0)
(0.0269916 0.0286312 0)
(0.135913 -0.00156028 0)
(0.154837 -0.00195239 0)
(0.17616 -0.0031232 0)
(0.173631 -0.00364907 0)
(0.16695 -0.00444308 0)
(0.161293 -0.00564627 6.71744e-24)
(0.157052 -0.00700535 7.00803e-24)
(0.153057 -0.00871018 0)
(0.147258 -0.0107505 1.32171e-22)
(0.140197 -0.0136816 2.87275e-22)
(0.13017 -0.0173074 0)
(0.119041 -0.023376 0)
(0.102456 -0.0302682 1.65402e-21)
(0.0869096 -0.0470841 -6.42567e-21)
(0.0389093 -0.0557198 0)
(-0.00302985 -0.00545767 0)
(-0.00739459 -0.00697019 -3.60659e-24)
(-0.0107929 -0.00642347 -1.11885e-21)
(-0.0138918 -0.00572193 0)
(-0.0167227 -0.0051948 0)
(-0.0193625 -0.00482023 1.43623e-22)
(-0.0218677 -0.00453014 7.24195e-23)
(-0.0242765 -0.00427121 0)
(-0.0265927 -0.00401228 4.63499e-24)
(-0.0288189 -0.00371875 0)
(-0.0309451 -0.00336964 0)
(-0.0329558 -0.00295303 0)
(-0.0348342 -0.00246439 0)
(-0.036566 -0.00190472 0)
(-0.0381389 -0.00127978 0)
(-0.0395447 -0.000600457 0)
(-0.0407309 0.00010829 0)
(-0.0416897 0.000819795 0)
(-0.0424003 0.00149881 0)
(-0.0428382 0.00211864 0)
(-0.0430048 0.00266912 0)
(-0.0428553 0.00311218 0)
(-0.0423694 0.00342451 0)
(-0.0415163 0.00362591 0)
(-0.040272 0.00370099 0)
(-0.0385952 0.00367841 0)
(-0.0364387 0.00361674 0)
(-0.0337608 0.00361429 0)
(-0.0305715 0.003781 0)
(-0.0268873 0.00407866 0)
(-0.0221779 0.00465296 0)
(-0.0151878 0.00763586 0)
(-0.0100238 0.0169219 0)
(-0.00361826 0.019979 0)
(0.0156494 0.0194557 0)
(0.135061 -0.000526504 0)
(0.154379 -0.000657146 -4.75596e-28)
(0.175805 -0.00105334 1.1141e-27)
(0.173184 -0.00123187 0)
(0.166356 -0.00150307 0)
(0.160515 -0.00190848 0)
(0.156136 -0.00237951 7.4317e-24)
(0.151851 -0.00295134 -4.01788e-24)
(0.145688 -0.00368701 8.71248e-24)
(0.137942 -0.00465234 1.80954e-22)
(0.127012 -0.00605949 6.1082e-23)
(0.114079 -0.0079654 -9.85524e-22)
(0.095191 -0.0112166 2.45267e-21)
(0.073162 -0.0161006 7.86401e-21)
(0.0268219 -0.0240713 -7.5539e-21)
(-0.00190256 -0.00242409 2.13534e-20)
(-0.00688103 -0.00283428 -5.57033e-21)
(-0.0113861 -0.00256274 1.39209e-21)
(-0.0153517 -0.00227148 -4.19989e-22)
(-0.018855 -0.00205782 1.58316e-22)
(-0.0220582 -0.00189727 0)
(-0.0250635 -0.00176036 8.95333e-24)
(-0.027936 -0.00162376 -1.12716e-24)
(-0.0307286 -0.0014567 4.56672e-24)
(-0.0334553 -0.00124436 0)
(-0.0361175 -0.000978029 0)
(-0.0387033 -0.000652729 0)
(-0.0411915 -0.000267103 -1.13674e-27)
(-0.0435519 0.000175839 2.85384e-28)
(-0.0457519 0.000663745 3.57545e-29)
(-0.047756 0.00116416 0)
(-0.049553 0.00165596 5.5738e-31)
(-0.0511214 0.00211558 0)
(-0.0524391 0.00251931 4.29534e-33)
(-0.0534906 0.00284486 0)
(-0.0542305 0.00306909 6.43729e-35)
(-0.0545954 0.00316149 0)
(-0.0547123 0.00313791 0)
(-0.0544458 0.00293905 0)
(-0.0538038 0.00260534 1.14561e-34)
(-0.0527513 0.00213884 0)
(-0.0512528 0.00159232 0)
(-0.049288 0.00100677 0)
(-0.0469184 0.000468684 -1.07032e-35)
(-0.0439641 7.12072e-05 0)
(-0.0392459 1.40467e-06 0)
(-0.0331406 0.000897385 0)
(-0.0260316 0.0039428 0)
(-0.011912 0.00720053 0)
(0.0121337 0.00761495 0)
(0.13506 0.000523743 0)
(0.154378 0.000653736 4.75596e-28)
(0.175805 0.0010476 -1.1141e-27)
(0.173184 0.00122503 0)
(0.166355 0.00149477 0)
(0.160514 0.00189754 0)
(0.156134 0.00236606 0)
(0.151849 0.00293406 -2.77678e-23)
(0.145686 0.00366612 -8.71244e-24)
(0.137939 0.00462485 3.63298e-22)
(0.127007 0.00602556 5.43693e-22)
(0.114072 0.00791658 8.05391e-22)
(0.0951732 0.011152 -4.39932e-21)
(0.0731343 0.0159872 3.60714e-21)
(0.0267732 0.0239373 0)
(-0.00187603 0.00179796 2.13111e-21)
(-0.00688177 0.00208919 -2.22002e-21)
(-0.011407 0.00184374 5.58529e-22)
(-0.0153859 0.00157065 -6.279e-22)
(-0.0188958 0.00138714 1.72386e-23)
(-0.0221009 0.00129402 1.77367e-22)
(-0.0251041 0.00128016 -4.4706e-23)
(-0.0279669 0.00133954 -1.68644e-23)
(-0.0307399 0.0014527 0)
(-0.0334351 0.00161246 -1.1388e-24)
(-0.0360524 0.00181293 0)
(-0.0385787 0.00204706 0)
(-0.0409933 0.00230649 1.13611e-27)
(-0.0432693 0.00258121 -2.85137e-28)
(-0.0453801 0.00286203 -3.57102e-29)
(-0.0473017 0.00314589 0)
(-0.0490135 0.00341229 -5.56483e-31)
(-0.0504899 0.00363001 0)
(-0.0517069 0.00376986 -4.28808e-33)
(-0.0526437 0.00380553 0)
(-0.0532721 0.003724 -6.50629e-35)
(-0.0535666 0.00351382 0)
(-0.0535231 0.00314209 0)
(-0.0530962 0.00259989 0)
(-0.0522879 0.00190055 -1.14509e-34)
(-0.0510449 0.00104042 0)
(-0.0493596 7.31018e-06 0)
(-0.0472788 -0.00115365 0)
(-0.0448006 -0.00240528 1.07032e-35)
(-0.0417797 -0.00360116 0)
(-0.0372585 -0.00473535 0)
(-0.0305996 -0.00682688 0)
(-0.0232679 -0.0114279 0)
(-0.0140607 -0.0127589 0)
(0.0171834 -0.0112035 0)
(0.13591 0.00155765 0)
(0.154835 0.00194912 0)
(0.176159 0.00311769 0)
(0.173629 0.00364253 0)
(0.166948 0.00443512 0)
(0.161289 0.00563586 6.71812e-24)
(0.157047 0.00699244 1.44413e-23)
(0.153052 0.0086938 3.17854e-23)
(0.147251 0.0107304 0)
(0.140188 0.0136561 -6.66739e-22)
(0.130157 0.0172756 -2.45361e-22)
(0.119026 0.0233345 -3.43178e-22)
(0.102434 0.0302169 -2.97198e-21)
(0.0868835 0.0470152 3.14394e-21)
(0.0388892 0.0556448 0)
(-0.00297021 0.00493658 0)
(-0.00741418 0.00628602 1.12019e-21)
(-0.010871 0.00573763 1.11948e-21)
(-0.014007 0.00504015 0)
(-0.0168597 0.00453476 -3.53627e-23)
(-0.0195133 0.00422128 -2.48771e-22)
(-0.0220274 0.00404869 1.07306e-22)
(-0.024443 0.00397635 1.79914e-23)
(-0.0267651 0.00398468 9.04894e-24)
(-0.028997 0.00404642 1.1388e-24)
(-0.0311281 0.00414359 0)
(-0.0331406 0.00426182 0)
(-0.0350107 0.00438897 0)
(-0.0367109 0.00451325 0)
(-0.038212 0.00462167 0)
(-0.0394833 0.00469786 0)
(-0.0404919 0.00472164 0)
(-0.0412151 0.00466825 0)
(-0.0416019 0.00452138 0)
(-0.0416652 0.00423822 0)
(-0.0413586 0.00381667 0)
(-0.0406715 0.00324135 0)
(-0.039589 0.00249757 0)
(-0.038108 0.00156947 0)
(-0.0362466 0.000455793 0)
(-0.0340305 -0.000828323 0)
(-0.03142 -0.00230313 0)
(-0.0283319 -0.00395513 0)
(-0.0247825 -0.00579494 0)
(-0.0208106 -0.0077417 0)
(-0.0158688 -0.00977959 0)
(-0.00838306 -0.0123398 0)
(-0.00420561 -0.0209975 0)
(0.00609485 -0.0267524 0)
(0.0187441 -0.0272051 0)
(0.137584 0.00254332 0)
(0.155746 0.00319983 0)
(0.176847 0.00509839 0)
(0.174495 0.00595457 0)
(0.168049 0.00721058 0)
(0.162881 0.00916873 -2.84959e-25)
(0.158673 0.0112983 -1.44405e-23)
(0.155532 0.0140389 3.11249e-23)
(0.149885 0.0171013 -3.11098e-23)
(0.144802 0.0217169 -2.44411e-22)
(0.135143 0.026863 -1.06218e-21)
(0.128756 0.0359349 2.35523e-21)
(0.11284 0.0453689 4.38119e-21)
(0.108836 0.0656683 -9.6039e-21)
(0.0728198 0.100641 -8.98387e-22)
(0.0578836 0.0866507 0)
(-0.00238997 0.0044822 8.14331e-20)
(-0.00449411 0.00895155 -6.01665e-20)
(-0.00724186 0.00928098 8.5583e-22)
(-0.00910023 0.00843624 -3.36632e-21)
(-0.0109185 0.00751601 1.16302e-21)
(-0.012627 0.00684218 -6.02181e-22)
(-0.0142638 0.00640184 1.42181e-22)
(-0.015821 0.00613246 -5.35993e-23)
(-0.0172922 0.00597725 -1.79584e-23)
(-0.0186626 0.00589511 -9.05247e-24)
(-0.0199176 0.00585348 0)
(-0.0210383 0.00582818 0)
(-0.0220048 0.00579962 0)
(-0.0227948 0.00575199 0)
(-0.0233868 0.00567008 0)
(-0.0237514 0.00554366 0)
(-0.0238738 0.00535256 0)
(-0.0237216 0.00508107 0)
(-0.0232785 0.00470803 0)
(-0.0225257 0.00421581 0)
(-0.0214449 0.00357918 0)
(-0.0200269 0.0027924 0)
(-0.0182531 0.00183712 0)
(-0.0161321 0.000700531 0)
(-0.0136617 -0.000620205 0)
(-0.0108391 -0.00213004 0)
(-0.00764141 -0.00382303 0)
(-0.00406395 -0.00568515 0)
(-0.000110543 -0.0077507 0)
(0.00426573 -0.010073 0)
(0.00892063 -0.0126495 0)
(0.0141347 -0.0157708 0)
(0.020165 -0.0180045 0)
(0.0261403 -0.0266728 0)
(0.0289799 -0.0302576 0)
(0.0362067 -0.0340264 0)
(0.140033 0.00345123 0)
(0.1571 0.00438261 0)
(0.177837 0.00693714 0)
(0.175741 0.00810528 0)
(0.169647 0.00974742 0)
(0.165117 0.0123769 -3.78337e-25)
(0.160992 0.0151517 1.28906e-23)
(0.158872 0.0186887 5.40748e-23)
(0.153561 0.0225794 0)
(0.150586 0.028145 1.01094e-21)
(0.142044 0.0345976 2.00791e-21)
(0.139418 0.0442201 -4.37274e-21)
(0.128 0.0565844 0)
(0.127749 0.0731754 5.10082e-21)
(0.120494 0.112114 1.14084e-21)
(0.0881018 0.110971 5.49472e-20)
(-0.00440363 0.00596181 -3.60822e-20)
(-0.00517917 0.0104198 -9.32242e-21)
(-0.00519469 0.0104553 -2.24579e-21)
(-0.00516806 0.00956815 -8.67214e-24)
(-0.00546007 0.00864259 -2.32654e-21)
(-0.0058277 0.00794522 1.20511e-21)
(-0.00627191 0.00746321 2.85404e-22)
(-0.00670583 0.00712096 0)
(-0.00707034 0.00686632 3.60502e-23)
(-0.00732359 0.00666194 9.05634e-24)