/*--------------------------------*- C++ -*----------------------------------*\
| =========                 |                                                 |
| \\      /  F ield         | OpenFOAM: The Open Source CFD Toolbox           |
|  \\    /   O peration     | Version:  2.3.0                                 |
|   \\  /    A nd           | Web:      www.OpenFOAM.org                      |
|    \\/     M anipulation  |                                                 |
\*---------------------------------------------------------------------------*/
FoamFile
{
    version     2.0;
    format      ascii;
    class       volScalarField;
    location    "0.005";
    object      T;
}
// * * * * * * * * * * * * * * * * * * * * * * * * * * * * * * * * * * * * * //

dimensions      [0 0 0 1 0 0 0];

internalField   nonuniform List<scalar> 
12225
(
1.00702
1.00235
1.00097
1.00057
1.00028
1.00009
0.99999
0.999921
0.999858
0.999777
0.999647
0.999403
0.9989
0.997801
0.995309
0.989507
0.975567
0.940226
0.99388
0.995662
0.997505
0.998593
0.999119
0.999392
0.999557
0.999653
0.999695
0.999682
0.999598
0.999388
0.998915
0.99786
0.995463
0.989928
0.97697
0.946322
1.00047
1.00054
1.00043
1.00038
1.00027
1.00014
1.00005
0.999985
0.999918
0.999834
0.999704
0.999467
0.998989
0.997969
0.995709
0.990629
0.979255
0.954703
1.00033
0.999923
0.999616
0.999666
0.999735
0.999763
0.99978
0.999787
0.999774
0.999731
0.999632
0.999423
0.998984
0.998044
0.995993
0.991517
0.981995
0.9631
1.00018
1
0.999775
0.999807
0.999863
0.999878
0.999876
0.999864
0.999836
0.999781
0.999676
0.999471
0.999057
0.998196
0.996378
0.992569
0.984902
0.970762
1.00003
0.999994
0.999832
0.99982
0.999852
0.999863
0.99986
0.99985
0.999825
0.999774
0.999675
0.999484
0.999106
0.998341
0.99678
0.993651
0.987683
0.977318
1.00001
1.00003
0.999913
0.999872
0.999879
0.999883
0.999878
0.999865
0.999839
0.999788
0.999693
0.999515
0.999174
0.998507
0.997203
0.99471
0.990192
0.982724
1
1.00003
0.999947
0.999902
0.999896
0.999895
0.999888
0.999873
0.999846
0.999797
0.999706
0.99954
0.999231
0.998647
0.997547
0.995527
0.992006
0.986377
1
1.00003
0.99997
0.999928
0.999915
0.999909
0.9999
0.999883
0.999856
0.999807
0.999719
0.999564
0.999283
0.998769
0.997836
0.996183
0.9934
0.98907
0.999998
1.00002
0.999985
0.99995
0.999935
0.999924
0.999913
0.999895
0.999867
0.999819
0.999734
0.99959
0.999338
0.998894
0.998119
0.996801
0.994659
0.991413
0.999998
1.00002
0.999995
0.999969
0.999953
0.99994
0.999927
0.999909
0.99988
0.999832
0.999751
0.999617
0.999393
0.999016
0.998384
0.997354
0.995742
0.993364
0.999998
1.00001
1
0.999982
0.999968
0.999956
0.999942
0.999923
0.999893
0.999846
0.99977
0.999646
0.999448
0.999128
0.998618
0.997822
0.996624
0.994907
0.999998
1.00001
1.00001
0.999992
0.99998
0.99997
0.999956
0.999936
0.999906
0.999861
0.999789
0.999674
0.999497
0.999225
0.998811
0.998194
0.9973
0.996059
0.999998
1.00001
1.00001
0.999999
0.999989
0.999979
0.999966
0.999948
0.99992
0.999875
0.999805
0.9997
0.99954
0.999304
0.99896
0.998469
0.997786
0.996865
0.999998
1.00001
1.00001
1
0.999994
0.999987
0.999975
0.999958
0.999931
0.999887
0.999821
0.999721
0.999575
0.999363
0.999065
0.998658
0.998107
0.997388
0.999999
1.00001
1.00001
1
0.999999
0.999994
0.999981
0.999964
0.999938
0.999896
0.999833
0.999739
0.9996
0.999404
0.999135
0.998775
0.998302
0.997698
0.999998
1.00001
1.00001
1
1
0.999996
0.999986
0.999969
0.999943
0.999903
0.99984
0.999747
0.999614
0.999429
0.999177
0.998841
0.998407
0.997861
0.999999
1
1.00001
1
1
0.999998
0.999987
0.99997
0.999945
0.999905
0.999844
0.999753
0.999621
0.999438
0.999191
0.998867
0.998451
0.997931
0.999999
1.00001
1.00001
1
1
0.999998
0.999988
0.99997
0.999943
0.999903
0.999841
0.999749
0.999617
0.999437
0.999193
0.998871
0.99846
0.997948
0.999998
1.00001
1.00001
1.00001
1
0.999995
0.999985
0.999967
0.999938
0.999896
0.999835
0.999743
0.999611
0.99943
0.999186
0.998865
0.998455
0.997945
0.999997
1.00001
1.00001
1.00001
0.999997
0.999988
0.999977
0.999957
0.999929
0.999887
0.999823
0.99973
0.999598
0.999416
0.999172
0.99885
0.998438
0.997925
0.999997
1.00001
1.00002
1.00001
0.999992
0.99998
0.999966
0.999946
0.999919
0.999876
0.999812
0.99972
0.999588
0.999404
0.999158
0.998835
0.99842
0.997903
0.999996
1.00003
1.00002
0.999992
0.999971
0.999958
0.999944
0.999924
0.999897
0.999855
0.999793
0.9997
0.999567
0.999384
0.999136
0.998811
0.998393
0.997872
0.999994
1.00005
1.00003
0.999983
0.99996
0.99995
0.999937
0.99992
0.999894
0.999852
0.999789
0.999696
0.999563
0.999377
0.999127
0.998798
0.998376
0.997849
0.999986
1.00005
0.999974
0.999911
0.999896
0.999893
0.999884
0.999872
0.999849
0.999811
0.999752
0.999661
0.999529
0.999344
0.999095
0.998764
0.998338
0.997806
1.00011
1.00014
0.999977
0.999929
0.999951
0.999962
0.999955
0.999938
0.999909
0.999864
0.999797
0.999698
0.999558
0.999366
0.999109
0.998771
0.998337
0.997796
1.00029
1.00004
0.999633
0.999554
0.999605
0.999654
0.99969
0.999715
0.999724
0.99971
0.999669
0.99959
0.999467
0.999287
0.999038
0.998706
0.998275
0.99773
1.00089
1.00118
1.00097
1.00079
1.00061
1.00044
1.00029
1.00018
1.00009
0.999995
0.999892
0.999766
0.999605
0.999395
0.99912
0.998767
0.998321
0.997752
0.993498
0.994872
0.996788
0.998011
0.998677
0.999056
0.999296
0.999453
0.999547
0.999589
0.999583
0.999529
0.99942
0.999248
0.999001
0.998668
0.998237
0.997672
1.00657
1.00291
1.00132
1.00082
1.00049
1.00026
1.00013
1.00004
0.999963
0.999888
0.9998
0.999686
0.999534
0.999328
0.999056
0.998701
0.998256
0.997664
0.000835921
0.000833139
0.000827463
0.000818968
0.000807778
0.000794004
0.000777786
0.000759285
0.000738681
0.000716178
0.000691993
0.000666346
0.000639465
0.000611583
0.000582935
0.000553752
0.000524258
0.000494672
0.0004652
0.000436034
0.000407353
0.000379317
0.00035207
0.000325735
0.000300416
0.000276201
0.000253155
0.000231327
0.00021075
0.000191437
0.000173391
0.000156599
0.000141038
0.000126674
0.000113467
0.000101367
9.03222e-05
8.02747e-05
7.11654e-05
6.29335e-05
5.55179e-05
4.88582e-05
4.28949e-05
3.75707e-05
3.28305e-05
2.86218e-05
2.4895e-05
2.16037e-05
1.87045e-05
1.61571e-05
1.39246e-05
1.19728e-05
1.02708e-05
8.79024e-06
7.50544e-06
6.3933e-06
5.43297e-06
4.60579e-06
3.89506e-06
3.28593e-06
2.76517e-06
2.32111e-06
1.94341e-06
1.623e-06
1.35189e-06
1.12311e-06
9.3056e-07
7.68948e-07
6.33672e-07
5.20757e-07
4.26769e-07
3.48759e-07
2.84197e-07
2.3092e-07
1.87085e-07
1.51126e-07
1.21717e-07
9.7737e-08
7.82448e-08
6.24494e-08
4.96897e-08
3.94151e-08
3.11677e-08
2.45689e-08
1.93063e-08
1.51229e-08
1.18083e-08
9.1907e-09
7.13036e-09
5.51402e-09
4.25022e-09
3.26536e-09
2.50045e-09
1.90836e-09
1.4516e-09
1.10043e-09
8.31359e-10
6.25912e-10
4.69585e-10
3.51051e-10
2.6149e-10
1.94059e-10
1.43469e-10
1.05654e-10
7.74953e-11
5.66096e-11
4.11807e-11
2.98301e-11
2.15151e-11
1.54499e-11
1.10453e-11
7.86082e-12
5.56886e-12
3.92686e-12
2.75596e-12
1.92496e-12
1.33802e-12
9.25469e-13
6.36931e-13
4.36136e-13
2.97113e-13
2.01354e-13
1.35739e-13
9.10171e-14
6.06987e-14
4.02569e-14
2.65504e-14
1.74115e-14
1.13528e-14
7.35935e-15
4.74255e-15
3.03799e-15
1.93431e-15
1.22404e-15
7.69767e-16
4.81042e-16
2.987e-16
1.84282e-16
1.12952e-16
6.87752e-17
4.1597e-17
2.49893e-17
1.49101e-17
8.83497e-18
5.19874e-18
3.03761e-18
1.7623e-18
1.01511e-18
5.805e-19
3.29555e-19
1.85723e-19
1.03892e-19
5.7686e-20
3.17913e-20
1.73886e-20
9.43931e-21
5.08525e-21
2.71876e-21
1.44248e-21
7.5944e-22
3.96796e-22
2.057e-22
1.05834e-22
5.40341e-23
2.7363e-23
1.37546e-23
6.86111e-24
3.39563e-24
1.66719e-24
8.12025e-25
3.92341e-25
1.88044e-25
8.94017e-26
4.21607e-26
1.97205e-26
9.14795e-27
4.20783e-27
1.91834e-27
8.66946e-28
3.88066e-28
0.000991054
0.000987426
0.000980385
0.000969965
0.000956328
0.00093965
0.000920117
0.000897932
0.000873317
0.000846515
0.000817777
0.000787369
0.000755557
0.000722615
0.000688814
0.000654422
0.0006197
0.000584897
0.000550251
0.000515984
0.0004823
0.000449381
0.000417392
0.000386473
0.000356744
0.000328303
0.000301226
0.000275567
0.000251362
0.000228628
0.000207367
0.000187565
0.000169193
0.000152215
0.000136583
0.000122241
0.000109128
9.71804e-05
8.63289e-05
7.65042e-05
6.76363e-05
5.96557e-05
5.24942e-05
4.60859e-05
4.03672e-05
3.52775e-05
3.07596e-05
2.67594e-05
2.32266e-05
2.01145e-05
1.73796e-05
1.49823e-05
1.28859e-05
1.10572e-05
9.46592e-06
8.08454e-06
6.88835e-06
5.85505e-06
4.96468e-06
4.19937e-06
3.54322e-06
2.98208e-06
2.50343e-06
2.0962e-06
1.75064e-06
1.45818e-06
1.21134e-06
1.00357e-06
8.29154e-07
6.83157e-07
5.6129e-07
4.59856e-07
3.75673e-07
3.06012e-07
2.48538e-07
2.01262e-07
1.62491e-07
1.30794e-07
1.04959e-07
8.39693e-08
6.69691e-08
5.32442e-08
4.21994e-08
3.334e-08
2.62568e-08
2.06124e-08
1.61293e-08
1.25805e-08
9.78059e-09
7.57897e-09
5.85362e-09
4.50606e-09
3.45715e-09
2.64348e-09
2.01445e-09
1.52983e-09
1.15777e-09
8.73115e-10
6.56108e-10
4.91258e-10
3.66479e-10
2.72365e-10
2.01635e-10
1.48679e-10
1.09185e-10
7.98493e-11
5.81483e-11
4.2163e-11
3.04385e-11
2.18767e-11
1.56524e-11
1.11478e-11
7.90281e-12
5.57602e-12
3.91552e-12
2.7362e-12
1.90269e-12
1.31651e-12
9.06315e-13
6.20738e-13
4.22941e-13
2.86658e-13
1.93253e-13
1.29579e-13
8.64084e-14
5.72999e-14
3.77827e-14
2.47709e-14
1.6146e-14
1.04625e-14
6.73928e-15
4.31489e-15
2.74579e-15
1.73648e-15
1.09129e-15
6.81475e-16
4.22829e-16
2.60648e-16
1.59619e-16
9.71001e-17
5.86714e-17
3.52109e-17
2.09866e-17
1.24219e-17
7.301e-18
4.2609e-18
2.469e-18
1.4204e-18
8.11219e-19
4.59929e-19
2.58848e-19
1.44598e-19
8.01757e-20
4.41231e-20
2.40984e-20
1.30627e-20
7.02682e-21
3.75118e-21
1.98726e-21
1.04464e-21
5.44999e-22
2.82075e-22
1.44914e-22
7.38766e-23
3.7363e-23
1.87487e-23
9.3341e-24
4.61015e-24
2.25881e-24
1.09788e-24
5.29339e-25
2.53168e-25
1.20107e-25
5.652e-26
2.63804e-26
1.22111e-26
5.6048e-27
2.54993e-27
1.14991e-27
5.136e-28
0.0013248
0.00131935
0.0013093
0.00129473
0.0012759
0.00125305
0.00122647
0.00119644
0.00116327
0.0011273
0.00108886
0.00104829
0.00100596
0.000962214
0.000917403
0.000871876
0.000825968
0.000779999
0.000734274
0.000689075
0.000644661
0.000601266
0.000559097
0.000518332
0.000479123
0.000441593
0.000405837
0.000371924
0.000339899
0.000309785
0.000281582
0.000255271
0.00023082
0.00020818
0.00018729
0.000168082
0.000150479
0.000134397
0.000119751
0.000106453
9.44144e-05
8.35461e-05
7.37617e-05
6.49768e-05
5.71101e-05
5.00837e-05
4.38238e-05
3.82606e-05
3.33289e-05
2.89677e-05
2.51203e-05
2.17344e-05
1.87618e-05
1.61584e-05
1.38837e-05
1.19012e-05
1.01775e-05
8.68254e-06
7.38909e-06
6.27283e-06
5.3119e-06
4.4868e-06
3.78016e-06
3.17654e-06
2.6623e-06
2.22537e-06
1.85513e-06
1.54227e-06
1.27863e-06
1.05709e-06
8.71455e-07
7.16363e-07
5.87166e-07
4.79858e-07
3.91e-07
3.17641e-07
2.57265e-07
2.07729e-07
1.67214e-07
1.34182e-07
1.07337e-07
8.55922e-08
6.8035e-08
5.39059e-08
4.25733e-08
3.3514e-08
2.62963e-08
2.05653e-08
1.60302e-08
1.24536e-08
9.64269e-09
7.44104e-09
5.72258e-09
4.3859e-09
3.3498e-09
2.54951e-09
1.93355e-09
1.46116e-09
1.10017e-09
8.25314e-10
6.1681e-10
4.59199e-10
3.40502e-10
2.51458e-10
1.84927e-10
1.35421e-10
9.87408e-11
7.168e-11
5.18037e-11
3.72698e-11
2.66906e-11
1.90255e-11
1.34977e-11
9.53023e-12
6.6963e-12
4.68194e-12
3.25721e-12
2.25457e-12
1.55257e-12
1.06361e-12
7.24801e-13
4.91288e-13
3.31208e-13
2.22064e-13
1.48059e-13
9.81601e-14
6.47061e-14
4.24064e-14
2.76288e-14
1.7894e-14
1.15195e-14
7.37065e-15
4.68695e-15
2.96176e-15
1.85972e-15
1.16026e-15
7.19187e-16
4.42871e-16
2.70911e-16
1.64609e-16
9.93408e-17
5.95418e-17
3.54412e-17
2.09485e-17
1.22948e-17
7.16466e-18
4.14527e-18
2.381e-18
1.35763e-18
7.68453e-19
4.31757e-19
2.4077e-19
1.33266e-19
7.32101e-20
3.99111e-20
2.15947e-20
1.15947e-20
6.17805e-21
3.26679e-21
1.71387e-21
8.92501e-22
4.61144e-22
2.3641e-22
1.20243e-22
6.06702e-23
3.0368e-23
1.50791e-23
7.42755e-24
3.62927e-24
1.7591e-24
8.45773e-25
4.03372e-25
1.90826e-25
8.95433e-26
4.16745e-26
1.92355e-26
8.80385e-27
3.9943e-27
1.79639e-27
8.00226e-28
0.00188591
0.00187753
0.00186256
0.0018412
0.00181382
0.00178082
0.0017426
0.00169959
0.00165226
0.00160106
0.00154648
0.00148901
0.00142914
0.00136737
0.00130418
0.00124006
0.00117545
0.00111081
0.00104654
0.000983038
0.000920647
0.000859687
0.000800438
0.000743143
0.000688005
0.00063519
0.000584826
0.000537008
0.000491795
0.000449219
0.000409279
0.000371953
0.000337196
0.000304943
0.000275115
0.00024762
0.000222354
0.000199208
0.000178065
0.000158809
0.000141319
0.000125477
0.000111165
9.82689e-05
8.66781e-05
7.62865e-05
6.6993e-05
5.87017e-05
5.13224e-05
4.47705e-05
3.89672e-05
3.38392e-05
2.93187e-05
2.53434e-05
2.18558e-05
1.88036e-05
1.61389e-05
1.38183e-05
1.18023e-05
1.00553e-05
8.54539e-06
7.24364e-06
6.1243e-06
5.16435e-06
4.3433e-06
3.64295e-06
3.04719e-06
2.54182e-06
2.11433e-06
1.75376e-06
1.4505e-06
1.1962e-06
9.83582e-07
8.06354e-07
6.59074e-07
5.37059e-07
4.3629e-07
3.5333e-07
2.8525e-07
2.29561e-07
1.84156e-07
1.47258e-07
1.17372e-07
9.32474e-08
7.38386e-08
5.82769e-08
4.58423e-08
3.59406e-08
2.8083e-08
2.18692e-08
1.69723e-08
1.31268e-08
1.01174e-08
7.77079e-09
5.94738e-09
4.5356e-09
3.44647e-09
2.60931e-09
1.96819e-09
1.47902e-09
1.10717e-09
8.25523e-10
6.13014e-10
4.53313e-10
3.33793e-10
2.44723e-10
1.78631e-10
1.29808e-10
9.39012e-11
6.76152e-11
4.84607e-11
3.45685e-11
2.45407e-11
1.73373e-11
1.2188e-11
8.52535e-12
5.93321e-12
4.10805e-12
2.82957e-12
1.93872e-12
1.32127e-12
8.95605e-13
6.03752e-13
4.04747e-13
2.69811e-13
1.78833e-13
1.17847e-13
7.72027e-14
5.02764e-14
3.25448e-14
2.0939e-14
1.3389e-14
8.50797e-15
5.37218e-15
3.37043e-15
2.1009e-15
1.30101e-15
8.00357e-16
4.89074e-16
2.96837e-16
1.78931e-16
1.07115e-16
6.36785e-17
3.75898e-17
2.20316e-17
1.28207e-17
7.40709e-18
4.24828e-18
2.41864e-18
1.36689e-18
7.66782e-19
4.26895e-19
2.359e-19
1.29378e-19
7.04084e-20
3.80318e-20
2.03842e-20
1.08423e-20
5.72361e-21
2.9979e-21
1.55799e-21
8.03284e-22
4.10875e-22
2.08483e-22
1.04938e-22
5.23952e-23
2.59502e-23
1.27491e-23
6.21308e-24
3.00345e-24
1.44018e-24
6.85001e-25
3.23175e-25
1.51232e-25
7.01922e-26
3.23096e-26
1.47477e-26
6.67356e-27
2.99393e-27
1.33066e-27
0.00275562
0.00274269
0.00272026
0.00268862
0.0026483
0.00259989
0.00254398
0.00248122
0.00241227
0.00233781
0.00225855
0.00217519
0.00208845
0.00199904
0.00190765
0.00181496
0.00172162
0.00162827
0.00153548
0.00144379
0.00135371
0.00126568
0.00118008
0.00109726
0.00101751
0.000941043
0.000868056
0.000798673
0.000732982
0.000671024
0.000612804
0.000558291
0.000507425
0.000460119
0.000416265
0.000375738
0.000338396
0.000304089
0.00027266
0.000243945
0.00021778
0.000194001
0.000172445
0.000152953
0.000135371
0.00011955
0.000105348
9.26292e-05
8.12664e-05
7.11386e-05
6.21331e-05
5.41444e-05
4.70745e-05
4.08328e-05
3.53354e-05
3.05054e-05
2.62721e-05
2.2571e-05
1.93433e-05
1.65355e-05
1.40994e-05
1.19911e-05
1.01714e-05
8.60502e-06
7.26027e-06
6.10899e-06
5.12609e-06
4.2893e-06
3.57894e-06
2.97766e-06
2.4702e-06
2.04319e-06
1.68497e-06
1.38537e-06
1.13557e-06
9.27955e-07
7.55936e-07
6.13871e-07
4.96924e-07
4.00969e-07
3.22499e-07
2.58542e-07
2.06589e-07
1.64531e-07
1.30599e-07
1.03319e-07
8.14621e-08
6.40114e-08
5.01275e-08
3.91203e-08
3.04246e-08
2.35793e-08
1.82099e-08
1.40133e-08
1.07452e-08
8.20933e-09
6.24889e-09
4.73893e-09
3.58029e-09
2.6946e-09
2.02002e-09
1.50817e-09
1.12133e-09
8.30174e-10
6.11955e-10
4.49113e-10
3.28132e-10
2.38654e-10
1.72778e-10
1.24504e-10
8.92934e-11
6.37343e-11
4.52704e-11
3.19974e-11
2.25032e-11
1.57461e-11
1.09616e-11
7.59124e-12
5.22954e-12
3.58342e-12
2.44222e-12
1.65537e-12
1.11583e-12
7.47918e-13
4.98464e-13
3.30294e-13
2.1758e-13
1.42482e-13
9.27448e-14
6.00043e-14
3.85839e-14
2.46562e-14
1.56569e-14
9.87887e-15
6.1929e-15
3.85695e-15
2.38633e-15
1.46663e-15
8.95325e-16
5.42835e-16
3.26856e-16
1.95448e-16
1.16055e-16
6.84245e-17
4.00528e-17
2.32774e-17
1.34306e-17
7.69251e-18
4.37326e-18
2.46803e-18
1.38249e-18
7.68504e-19
4.24038e-19
2.3221e-19
1.26164e-19
6.80465e-20
3.6419e-20
1.93403e-20
1.01905e-20
5.32712e-21
2.76269e-21
1.42133e-21
7.25384e-22
3.67229e-22
1.84413e-22
9.18592e-23
4.5387e-23
2.22442e-23
1.08138e-23
5.21452e-24
2.49416e-24
1.18333e-24
5.56873e-25
2.59932e-25
1.20338e-25
5.52521e-26
2.51574e-26
1.13571e-26
5.08377e-27
2.25497e-27
0.00405574
0.00403604
0.00400259
0.00395585
0.00389656
0.00382554
0.00374369
0.00365191
0.00355119
0.00344252
0.00332691
0.00320541
0.00307905
0.00294885
0.00281582
0.00268094
0.00254514
0.00240933
0.00227433
0.00214092
0.00200981
0.00188162
0.00175691
0.00163617
0.0015198
0.00140812
0.00130139
0.0011998
0.00110347
0.00101247
0.000926809
0.000846441
0.000771289
0.000701238
0.000636141
0.000575825
0.0005201
0.000468757
0.000421581
0.000378346
0.000338824
0.000302787
0.000270009
0.000240266
0.000213343
0.00018903
0.000167125
0.000147436
0.000129781
0.000113985
9.9887e-05
8.73335e-05
7.61818e-05
6.62991e-05
5.7562e-05
4.98567e-05
4.30779e-05
3.71291e-05
3.19219e-05
2.73755e-05
2.34163e-05
1.99775e-05
1.69986e-05
1.44252e-05
1.22081e-05
1.03033e-05
8.67145e-06
7.2774e-06
6.08995e-06
5.08145e-06
4.2275e-06
3.50658e-06
2.89984e-06
2.39077e-06
1.96499e-06
1.61001e-06
1.31499e-06
1.07062e-06
8.68862e-07
7.02837e-07
5.66677e-07
4.55389e-07
3.6474e-07
2.91158e-07
2.31637e-07
1.83658e-07
1.4512e-07
1.14275e-07
8.96747e-08
7.0125e-08
5.46449e-08
4.24313e-08
3.28299e-08
2.53095e-08
1.94406e-08
1.48775e-08
1.1343e-08
8.6154e-09
6.51862e-09
4.91292e-09
3.68777e-09
2.75665e-09
2.05188e-09
1.52068e-09
1.12204e-09
8.2421e-10
6.02689e-10
4.38682e-10
3.17818e-10
2.29167e-10
1.64454e-10
1.17442e-10
8.34578e-11
5.90122e-11
4.15164e-11
2.90584e-11
2.02333e-11
1.40144e-11
9.65536e-12
6.61638e-12
4.50922e-12
3.05619e-12
2.0598e-12
1.38039e-12
9.19759e-13
6.09268e-13
4.01208e-13
2.62619e-13
1.70864e-13
1.10489e-13
7.10056e-14
4.53463e-14
2.87758e-14
1.81431e-14
1.13646e-14
7.07202e-15
4.37172e-15
2.68441e-15
1.63716e-15
9.91599e-16
5.96437e-16
3.5626e-16
2.11307e-16
1.2444e-16
7.27523e-17
4.22292e-17
2.4335e-17
1.39201e-17
7.90288e-18
4.45404e-18
2.4916e-18
1.383e-18
7.62052e-19
4.16735e-19
2.26135e-19
1.21764e-19
6.50537e-20
3.44827e-20
1.81336e-20
9.46027e-21
4.89598e-21
2.5135e-21
1.28e-21
6.46579e-22
3.23971e-22
1.61011e-22
7.93731e-23
3.8811e-23
1.88236e-23
9.05562e-24
4.32115e-24
2.04525e-24
9.60183e-25
4.47111e-25
2.06498e-25
9.45873e-26
4.29675e-26
1.93542e-26
8.64557e-27
3.8276e-27
0.00596072
0.00593109
0.00588164
0.0058131
0.00572648
0.00562296
0.00550378
0.00537027
0.00522381
0.00506587
0.0048979
0.00472141
0.0045379
0.00434885
0.00415571
0.00395988
0.00376272
0.00356551
0.00336944
0.00317561
0.00298504
0.00279862
0.00261714
0.00244128
0.00227161
0.00210861
0.00195264
0.00180397
0.00166277
0.00152915
0.00140312
0.00128464
0.0011736
0.00106985
0.000973199
0.000883407
0.000800217
0.000723348
0.000652502
0.000587371
0.000527643
0.000473
0.000423129
0.000377721
0.000336472
0.000299089
0.000265286
0.000234793
0.000207348
0.000182703
0.000160625
0.000140893
0.000123299
0.000107649
9.37624e-05
8.14699e-05
7.06158e-05
6.10557e-05
5.2657e-05
4.52974e-05
3.88654e-05
3.32589e-05
2.83852e-05
2.416e-05
2.05073e-05
1.73584e-05
1.46515e-05
1.23313e-05
1.03484e-05
8.6589e-06
7.22365e-06
6.00813e-06
4.9819e-06
4.11821e-06
3.39362e-06
2.7877e-06
2.28265e-06
1.86308e-06
1.51568e-06
1.22901e-06
9.93251e-07
8.00037e-07
6.42237e-07
5.13813e-07
4.09664e-07
3.25503e-07
2.57737e-07
2.03367e-07
1.59904e-07
1.25285e-07
9.78114e-08
7.60881e-08
5.89747e-08
4.55429e-08
3.50399e-08
2.68579e-08
2.05082e-08
1.55994e-08
1.18194e-08
8.9194e-09
6.7031e-09
5.01616e-09
3.73754e-09
2.77259e-09
2.04758e-09
1.5053e-09
1.10156e-09
8.02357e-10
5.81665e-10
4.19661e-10
3.01312e-10
2.15277e-10
1.53044e-10
1.08253e-10
7.61803e-11
5.33328e-11
3.71418e-11
2.57288e-11
1.77272e-11
1.21477e-11
8.27852e-12
5.6103e-12
3.7806e-12
2.53305e-12
1.68733e-12
1.11736e-12
7.35511e-13
4.81233e-13
3.12947e-13
2.02259e-13
1.29907e-13
8.29108e-14
5.25779e-14
3.31261e-14
2.07335e-14
1.28916e-14
7.96246e-15
4.8849e-15
2.9764e-15
1.80097e-15
1.08214e-15
6.45702e-16
3.8257e-16
2.25046e-16
1.31412e-16
7.6189e-17
4.38524e-17
2.50534e-17
1.42046e-17
7.99573e-18
4.46714e-18
2.4767e-18
1.36269e-18
7.43989e-19
4.03041e-19
2.16634e-19
1.15525e-19
6.11185e-20
3.20777e-20
1.67013e-20
8.62574e-21
4.41908e-21
2.24566e-21
1.13194e-21
5.65937e-22
2.80652e-22
1.38046e-22
6.73498e-23
3.25916e-23
1.56435e-23
7.44769e-24
3.51697e-24
1.6473e-24
7.653e-25
3.52641e-25
1.61161e-25
7.30466e-26
3.28327e-26
1.4637e-26
6.46807e-27
0.00871411
0.00867
0.00859756
0.00849788
0.00837237
0.00822267
0.00805052
0.00785779
0.00764647
0.00741861
0.00717634
0.0069218
0.00665715
0.0063845
0.00610593
0.00582347
0.00553905
0.00525447
0.00497145
0.00469155
0.00441619
0.00414664
0.00388403
0.00362931
0.0033833
0.00314665
0.0029199
0.00270341
0.00249746
0.00230219
0.00211764
0.00194376
0.00178043
0.00162744
0.00148453
0.00135141
0.00122771
0.00111307
0.00100708
0.000909333
0.000819394
0.000736836
0.000661227
0.000592143
0.000529163
0.000471878
0.000419892
0.000372823
0.000330303
0.00029198
0.000257521
0.000226608
0.000198943
0.000174244
0.000152245
0.000132701
0.00011538
0.000100069
8.65693e-05
7.46972e-05
6.42844e-05
5.5176e-05
4.72304e-05
4.03183e-05
3.43222e-05
2.91355e-05
2.4662e-05
2.08149e-05
1.75163e-05
1.46967e-05
1.22938e-05
1.02524e-05
8.52353e-06
7.06407e-06
5.836e-06
4.80601e-06
3.94502e-06
3.22769e-06
2.63209e-06
2.13925e-06
1.73285e-06
1.3989e-06
1.12545e-06
9.02343e-07
7.20957e-07
5.74023e-07
4.55431e-07
3.60063e-07
2.83651e-07
2.22654e-07
1.74142e-07
1.35703e-07
1.05359e-07
8.1496e-08
6.28001e-08
4.82086e-08
3.68645e-08
2.80794e-08
2.13029e-08
1.60951e-08
1.2109e-08
9.07081e-09
6.765e-09
5.0228e-09
3.71238e-09
2.73125e-09
2.00007e-09
1.45774e-09
1.05739e-09
7.63286e-10
5.48285e-10
3.91891e-10
2.78699e-10
1.97192e-10
1.38802e-10
9.71914e-11
6.76944e-11
4.68966e-11
3.23124e-11
2.21417e-11
1.50881e-11
1.02238e-11
6.8882e-12
4.61408e-12
3.07266e-12
2.03404e-12
1.33839e-12
8.75292e-13
5.68924e-13
3.67503e-13
2.35904e-13
1.50467e-13
9.53549e-14
6.00338e-14
3.75455e-14
2.33261e-14
1.43953e-14
8.82374e-15
5.37144e-15
3.24699e-15
1.94904e-15
1.1618e-15
6.87636e-16
4.04065e-16
2.35667e-16
1.36481e-16
7.84659e-17
4.4777e-17
2.53601e-17
1.42553e-17
7.95237e-18
4.40224e-18
2.41818e-18
1.31801e-18
7.12749e-19
3.82407e-19
2.03547e-19
1.07482e-19
5.63021e-20
2.92558e-20
1.50795e-20
7.7097e-21
3.90979e-21
1.96665e-21
9.8119e-22
4.85542e-22
2.38313e-22
1.16015e-22
5.60186e-23
2.68287e-23
1.27445e-23
6.00478e-24
2.80625e-24
1.3008e-24
5.98054e-25
2.72715e-25
1.23342e-25
5.53241e-26
2.46152e-26
1.08571e-26
0.0126485
0.0125835
0.0124783
0.0123346
0.0121544
0.0119398
0.0116933
0.0114176
0.0111153
0.0107895
0.0104432
0.0100793
0.00970091
0.00931111
0.00891282
0.0085089
0.00810207
0.0076949
0.00728978
0.00688893
0.00649433
0.00610776
0.00573079
0.00536477
0.00501083
0.0046699
0.00434271
0.00402982
0.00373159
0.00344826
0.0031799
0.00292646
0.0026878
0.00246367
0.00225373
0.00205759
0.00187479
0.00170485
0.00154722
0.00140136
0.0012667
0.00114267
0.00102867
0.000924131
0.000828485
0.000741169
0.000661636
0.000589356
0.000523817
0.000464527
0.000411015
0.000362829
0.000319545
0.000280755
0.00024608
0.000215159
0.000187655
0.000163253
0.00014166
0.000122602
0.000105827
9.1102e-05
7.82117e-05
6.69594e-05
5.71649e-05
4.8664e-05
4.13075e-05
3.49603e-05
2.95005e-05
2.48184e-05
2.08157e-05
1.74047e-05
1.45071e-05
1.20536e-05
9.98297e-06
8.24127e-06
6.78116e-06
5.56129e-06
4.54561e-06
3.7029e-06
3.00615e-06
2.43213e-06
1.9609e-06
1.57547e-06
1.26135e-06
1.00628e-06
7.99942e-07
6.33631e-07
5.00085e-07
3.93248e-07
3.08101e-07
2.40496e-07
1.87023e-07
1.44889e-07
1.11818e-07
8.59608e-08
6.58232e-08
5.02026e-08
3.81324e-08
2.88419e-08
2.17209e-08
1.62861e-08
1.21566e-08
9.03314e-09
6.68139e-09
4.91895e-09
3.60438e-09
2.62854e-09
1.90764e-09
1.37768e-09
9.90026e-10
7.07882e-10
5.03574e-10
3.5639e-10
2.50911e-10
1.75717e-10
1.22399e-10
8.47975e-11
5.84259e-11
4.00333e-11
2.72772e-11
1.84803e-11
1.24484e-11
8.33641e-12
5.54977e-12
3.67252e-12
2.41551e-12
1.57898e-12
1.0258e-12
6.62276e-13
4.24878e-13
2.70833e-13
1.7152e-13
1.07909e-13
6.74338e-14
4.18624e-14
2.58139e-14
1.58095e-14
9.61546e-15
5.80689e-15
3.48221e-15
2.07372e-15
1.22615e-15
7.19761e-16
4.19409e-16
2.42602e-16
1.39293e-16
7.93787e-17
4.4894e-17
2.51977e-17
1.40346e-17
7.75663e-18
4.25366e-18
2.31444e-18
1.2494e-18
6.69127e-19
3.55509e-19
1.87374e-19
9.79647e-20
5.08062e-20
2.6136e-20
1.3336e-20
6.74943e-21
3.3881e-21
1.68689e-21
8.33024e-22
4.08005e-22
1.98204e-22
9.54996e-23
4.56387e-23
2.16328e-23
1.01705e-23
4.74266e-24
2.19359e-24
1.00633e-24
4.57904e-25
2.06663e-25
9.25084e-26
4.10793e-26
1.80851e-26
0.0182098
0.0181151
0.0179638
0.0177585
0.0175019
0.0171972
0.0168475
0.0164567
0.0160285
0.0155671
0.0150767
0.0145615
0.0140259
0.013474
0.0129101
0.0123382
0.0117619
0.0111851
0.0106108
0.0100423
0.00948224
0.00893312
0.00839709
0.00787603
0.00737149
0.00688477
0.00641688
0.00596861
0.00554049
0.00513285
0.00474586
0.00437947
0.00403353
0.00370774
0.00340168
0.00311487
0.00284672
0.00259661
0.00236385
0.00214773
0.00194749
0.00176239
0.00159164
0.00143449
0.00129017
0.00115792
0.001037
0.000926696
0.000826296
0.000735122
0.000652518
0.000577855
0.000510531
0.000449971
0.000395631
0.000346993
0.00030357
0.000264902
0.000230561
0.000200142
0.000173271
0.0001496
0.000128806
0.000110592
9.46833e-05
8.08292e-05
6.88003e-05
5.83877e-05
4.94019e-05
4.16715e-05
3.50421e-05
2.93752e-05
2.45467e-05
2.04461e-05
1.69752e-05
1.40473e-05
1.15858e-05
9.52362e-06
7.80197e-06
6.3697e-06
5.18242e-06
4.20177e-06
3.39473e-06
2.733e-06
2.19243e-06
1.75248e-06
1.39575e-06
1.10759e-06
8.75707e-07
6.89811e-07
5.41353e-07
4.23248e-07
3.29652e-07
2.55767e-07
1.97669e-07
1.52166e-07
1.1667e-07
8.9091e-08
6.77442e-08
5.12902e-08
3.86622e-08
2.90133e-08
2.16738e-08
1.61167e-08
1.19289e-08
8.78771e-09
6.4429e-09
4.701e-09
3.4133e-09
2.46608e-09
1.77281e-09
1.26798e-09
9.02249e-10
6.38675e-10
4.49721e-10
3.14981e-10
2.19419e-10
1.52012e-10
1.04733e-10
7.17567e-11
4.88861e-11
3.31144e-11
2.23009e-11
1.49304e-11
9.93637e-12
6.57291e-12
4.32137e-12
2.82346e-12
1.83339e-12
1.18305e-12
7.58548e-13
4.83232e-13
3.05833e-13
1.92277e-13
1.20061e-13
7.44783e-14
4.58904e-14
2.80821e-14
1.70652e-14
1.02974e-14
6.16958e-15
3.67014e-15
2.16757e-15
1.27084e-15
7.39613e-16
4.27258e-16
2.44976e-16
1.39404e-16
7.87257e-17
4.4119e-17
2.45346e-17
1.35379e-17
7.41175e-18
4.02594e-18
2.16955e-18
1.15987e-18
6.15136e-19
3.2362e-19
1.68884e-19
8.74212e-20
4.48857e-20
2.28588e-20
1.15463e-20
5.78454e-21
2.87428e-21
1.41651e-21
6.92372e-22
3.35653e-22
1.61389e-22
7.69652e-23
3.64046e-23
1.7079e-23
7.94729e-24
3.66799e-24
1.67917e-24
7.62459e-25
3.43408e-25
1.53413e-25
6.79933e-26
2.9878e-26
0.0259855
0.0258489
0.0256334
0.0253428
0.024981
0.0245521
0.0240609
0.0235124
0.0229118
0.0222649
0.0215776
0.0208557
0.0201053
0.0193323
0.0185424
0.0177411
0.0169337
0.0161251
0.0153198
0.0145221
0.0137357
0.0129639
0.0122096
0.0114755
0.0107637
0.0100758
0.00941335
0.00877739
0.0081687
0.00758777
0.00703486
0.00651
0.00601301
0.00554358
0.00510122
0.00468534
0.00429524
0.00393012
0.00358913
0.00327137
0.0029759
0.00270173
0.00244789
0.00221336
0.00199715
0.00179826
0.00161571
0.00144852
0.00129576
0.0011565
0.00102984
0.000914912
0.000810881
0.000716944
0.000632333
0.000556315
0.000488193
0.000427307
0.000373033
0.000324783
0.000282008
0.000244193
0.000210857
0.000181556
0.000155876
0.000133437
0.000113889
9.69129e-05
8.22157e-05
6.95318e-05
5.86205e-05
4.92648e-05
4.12692e-05
3.44589e-05
2.86778e-05
2.37872e-05
1.96643e-05
1.62007e-05
1.33014e-05
1.08831e-05
8.87327e-06
7.2091e-06
5.8362e-06
4.70782e-06
3.78389e-06
3.03023e-06
2.4178e-06
1.92202e-06
1.52222e-06
1.20107e-06
9.44085e-07
7.39252e-07
5.76626e-07
4.4802e-07
3.4672e-07
2.67249e-07
2.05157e-07
1.56829e-07
1.19369e-07
9.04582e-08
6.8244e-08
5.12521e-08
3.83144e-08
2.85096e-08
2.11144e-08
1.55633e-08
1.14164e-08
8.33377e-09
6.05349e-09
4.3752e-09
3.14623e-09
2.2509e-09
1.60201e-09
1.13421e-09
7.9875e-10
5.59482e-10
3.89751e-10
2.70007e-10
1.86017e-10
1.27435e-10
8.68059e-11
5.87892e-11
3.95823e-11
2.64927e-11
1.76255e-11
1.1655e-11
7.65937e-12
5.00196e-12
3.24647e-12
2.09381e-12
1.34176e-12
8.54256e-13
5.40307e-13
3.39466e-13
2.11845e-13
1.3131e-13
8.08353e-14
4.94189e-14
3.00013e-14
1.80846e-14
1.08235e-14
6.43125e-15
3.79367e-15
2.22143e-15
1.29117e-15
7.44878e-16
4.26494e-16
2.42349e-16
1.3666e-16
7.64705e-17
4.24592e-17
2.33913e-17
1.27855e-17
6.93338e-18
3.73005e-18
1.99071e-18
1.05392e-18
5.53475e-19
2.88314e-19
1.4897e-19
7.63453e-20
3.88069e-20
1.95646e-20
9.78273e-21
4.85148e-21
2.38621e-21
1.16403e-21
5.63177e-22
2.7024e-22
1.28613e-22
6.07092e-23
2.84227e-23
1.31984e-23
6.079e-24
2.77717e-24
1.25846e-24
5.65665e-25
2.52209e-25
1.11567e-25
4.89344e-26
0.0367347
0.0365399
0.0362359
0.0358284
0.0353229
0.0347254
0.034042
0.0332797
0.032446
0.0315485
0.0305955
0.0295951
0.0285556
0.0274849
0.0263909
0.0252813
0.024163
0.0230427
0.0219265
0.0208201
0.0197285
0.0186561
0.0176069
0.0165843
0.015591
0.0146296
0.0137018
0.0128092
0.0119528
0.0111334
0.0103514
0.00960691
0.00889985
0.00822988
0.00759647
0.00699894
0.00643648
0.00590814
0.00541291
0.00494969
0.0045173
0.00411454
0.00374017
0.00339294
0.00307155
0.00277473
0.00250121
0.00224972
0.00201901
0.00180784
0.00161502
0.00143937
0.00127976
0.00113506
0.00100423
0.000886241
0.000780102
0.00068488
0.000599684
0.000523667
0.000456031
0.000396023
0.000342937
0.000296112
0.000254935
0.000218833
0.000187279
0.000159786
0.000135908
0.000115235
9.7397e-05
8.20554e-05
6.89052e-05
5.76717e-05
4.81086e-05
3.99958e-05
3.31378e-05
2.73611e-05
2.25128e-05
1.84585e-05
1.50806e-05
1.22768e-05
9.95819e-06
8.04813e-06
6.48063e-06
5.19918e-06
4.15563e-06
3.3091e-06
2.62506e-06
2.0745e-06
1.63312e-06
1.28066e-06
1.00033e-06
7.78259e-07
6.03055e-07
4.65389e-07
3.57645e-07
2.73661e-07
2.08479e-07
1.58116e-07
1.19378e-07
8.97175e-08
6.71134e-08
4.99688e-08
3.70278e-08
2.73069e-08
2.00403e-08
1.46351e-08
1.06346e-08
7.68867e-09
5.53049e-09
3.95757e-09
2.81721e-09
1.99483e-09
1.40496e-09
9.8415e-10
6.85591e-10
4.74922e-10
3.27166e-10
2.24108e-10
1.52633e-10