/*--------------------------------*- C++ -*----------------------------------*\
| =========                 |                                                 |
| \\      /  F ield         | OpenFOAM: The Open Source CFD Toolbox           |
|  \\    /   O peration     | Version:  2.3.0                                 |
|   \\  /    A nd           | Web:      www.OpenFOAM.org                      |
|    \\/     M anipulation  |                                                 |
\*---------------------------------------------------------------------------*/
FoamFile
{
    version     2.0;
    format      ascii;
    class       volScalarField;
    location    "0.058";
    object      alpha.water;
}
// * * * * * * * * * * * * * * * * * * * * * * * * * * * * * * * * * * * * * //

dimensions      [0 0 0 0 0 0 0];

internalField   nonuniform List<scalar> 
725
(
1
1
1
0.999991
0.999672
1
1
1
0.999995
0.999666
1
1
1
1.00004
0.999685
1
1
1
1.00005
0.997534
1
1
1
1.00004
0.954918
0.999671
0.999729
0.999741
0.652451
0.0253343
0.00322966
0.00322723
0.030319
0.72574
0.999884
0.999769
0.999889
0.999908
0.999912
0.999913
0.999915
0.999924
0.999942
0.999961
0.999991
1.00002
1.00002
1.00002
0.999998
0.999984
0.999973
0.99997
0.999975
0.999992
1
1.00001
0.999992
0.99999
1.00001
1.00001
0.609361
0.00201131
0.00115307
0.00115303
0.338895
0.992962
1
1.00001
0.993689
0.336708
0.999751
0.999748
0.999747
0.607476
0.0182265
0.00323232
0.00322979
0.0279476
0.7108
0.999885
0.999708
0.999849
0.999977
0.999935
0.99991
0.999911
0.999945
0.999942
0.999929
0.999909
0.999888
0.99987
0.999853
0.999843
0.999841
0.999844
0.999853
0.999866
0.999881
0.99989
0.999895
0.999913
0.999932
0.999974
1
0.61963
0.00116943
0.00115484
0.00115303
0.340507
0.999374
0.999996
1
0.979659
0.280884
0.999741
0.999747
0.999739
0.557138
0.015116
0.0032291
0.00323032
0.0161428
0.701296
0.999887
0.999887
0.999847
0.999855
0.999865
0.999837
0.999804
0.999777
0.999779
0.999797
0.999834
0.999906
0.999896
0.999886
0.999878
0.999871
0.999864
0.999861
0.99986
0.999863
0.99987
0.999875
0.999901
0.999932
0.999976
1
0.644217
0.0130464
0.00117166
0.00115356
0.320149
0.999805
1.00003
1.00001
0.866969
0.0649475
0.919524
0.939698
0.916809
0.438891
0.0038863
0.00322308
0.00323057
0.0299497
0.680112
0.999882
0.999894
0.999456
0.999516
0.999806
0.999777
0.999734
0.999674
0.999646
0.999664
0.999689
0.999725
0.999791
0.999828
0.999843
0.999859
0.999951
0.999934
0.99992
0.999909
0.999899
0.999888
0.999898
0.999936
0.999996
0.999989
0.586611
0.00275183
0.00223847
0.00116917
0.298966
0.998107
1
1.00001
0.836084
0.0358146
0.358618
0.679486
0.857047
0.356747
0.00322289
0.00321773
0.00322422
0.0522155
0.626967
0.998671
0.997425
0.992931
0.997248
0.999788
0.999502
0.999481
0.999428
0.999397
0.99943
0.99949
0.999573
0.999672
0.999803
0.999932
0.999916
0.999906
0.999901
0.999898
0.999895
0.999889
0.999883
0.999877
0.999927
1.00011
1
0.629472
0.0491658
0.00244178
0.00144118
0.275488
0.981774
1.00002
1.00001
0.873024
0.0581112
0.182462
0.839123
0.853882
0.319367
0.00323321
0.00321652
0.00320893
0.0439696
0.638551
0.991115
0.988705
0.99293
0.998756
0.998855
0.999089
0.999254
0.999297
0.999276
0.999308
0.999353
0.99947
0.999631
0.999732
0.999771
0.999819
0.999844
0.999856
0.99986
0.999859
0.999856
0.99986
0.999873
0.999944
1.00012
0.995144
0.569688
0.0246861
0.00336046
0.00274074
0.260609
0.96588
1.00001
1.00005
0.920673
0.126082
0.184783
0.896972
0.851275
0.300753
0.00325285
0.0032166
0.00310997
0.0368339
0.627153
0.986264
0.986028
0.996927
0.999095
0.999054
0.999086
0.999162
0.999161
0.999126
0.99918
0.999288
0.99943
0.999526
0.999648
0.99974
0.999787
0.999815
0.999831
0.999837
0.999839
0.99984
0.999851
0.999875
0.999955
1.00004
0.99433
0.648123
0.0572407
0.00689639
0.00372478
0.248653
0.961655
1.00001
1.00004
0.931851
0.138177
0.184245
0.922987
0.847649
0.268245
0.00324499
0.0040719
0.00304086
0.0344042
0.590953
0.98553
0.98736
0.996552
0.999232
0.999231
0.999031
0.999063
0.999038
0.99902
0.999123
0.999301
0.99939
0.999792
0.999864
0.999822
0.999814
0.999811
0.999811
0.999814
0.999818
0.999825
0.999844
0.99988
0.999966
0.999978
0.993335
0.549415
0.050628
0.0119889
0.00510078
0.242734
0.971316
1.00001
1.00004
0.947013
0.156497
0.219852
0.948808
0.844472
0.245289
0.00319005
0.00318827
0.00303431
0.0317972
0.610219
0.988686
0.989636
0.992969
0.998688
0.998983
0.998968
0.998967
0.998951
0.998984
0.999049
0.999297
0.999491
0.999627
0.999678
0.999707
0.999731
0.99975
0.999765
0.999779
0.999793
0.999811
0.999839
0.999886
0.999972
0.999964
0.997502
0.604345
0.033745
0.0132945
0.00882689
0.21687
0.976155
0.999993
1.00001
0.954589
0.185898
0.195541
0.956238
0.842236
0.232128
0.00318862
0.00304566
0.00303868
0.0182432
0.636469
0.985778
0.992424
0.991731
0.99686
0.998703
0.998933
0.998932
0.998928
0.998938
0.999288
0.999444
0.999589
0.999733
0.999687
0.999669
0.99968
0.999697
0.999719
0.999743
0.999771
0.999801
0.999837
0.999892
0.999977
1.00008
0.994714
0.593589
0.0238488
0.0106292
0.0100591
0.199343
0.967553
1.00002
1
0.957213
0.211451
1
1
0.999999
1.00004
1
1
1
1
1.00004
1
1
1
1
1.00006
0.99786
1
1
1
0.999976
0.999982
1
1
1
0.999973
0.999947
0.687276
0.958238
0.807953
0.191884
0.00305898
0.00304375
0.00303968
0.0139297
0.627094
0.99661
0.996395
0.991727
0.995583
0.999337
0.999337
0.999006
0.999042
0.999134
0.999294
0.999397
0.999453
0.999498
0.999509
0.999521
0.999549
0.999593
0.999647
0.999703
0.999751
0.999798
0.999841
0.999898
0.999987
1.00001
1
0.538105
0.0106363
0.0106575
0.0106236
0.18523
0.941041
0.999997
0.999999
0.979669
0.272696
0.909709
0.985324
0.644851
0.13839
0.00304699
0.00304639
0.00304274
0.019477
0.618878
0.998197
0.999457
0.99775
0.998085
0.998715
0.998678
0.998793
0.998962
0.999116
0.999241
0.999326
0.999388
0.999428
0.999469
0.999519
0.999574
0.999633
0.999691
0.999732
0.999887
0.999912
0.999908
0.999936
1.00004
1.00003
0.997778
0.496695
0.0107448
0.0106415
0.0106604
0.238024
0.836113
0.999973
0.999995
0.977338
0.264649
0.982021
0.99603
0.654845
0.0988891
0.00305111
0.00304687
0.00304605
0.00304619
0.581845
0.999532
0.999599
0.999183
0.999193
0.998707
0.998688
0.99883
0.999027
0.999186
0.999306
0.999417
0.999515
0.99959
0.999671
0.999738
0.999792
0.999841
0.999876
0.999893
0.9999
0.999904
0.999909
0.999978
1.00003
1.00001
0.985725
0.51045
0.0139565
0.0107458
0.010851
0.298958
0.749992
0.999938
0.999969
0.956895
0.24059
0.999979
0.999866
0.668069
0.0270009
0.00305858
0.00304675
0.00304617
0.00472689
0.531988
0.999194
0.999598
0.999502
0.999151
0.998989
0.999173
0.999351
0.99948
0.999581
0.999672
0.999758
0.999822
0.999861
0.999887
0.999898
0.999901
0.999902
0.999904
0.999907
0.999914
0.999924
0.99994
1.00001
1.00004
1.00001
0.976353
0.536885
0.0237442
0.0109169
0.0561989
0.238745
0.738047
0.999753
0.999936
0.866008
0.0737612
0.999947
0.999954
0.669539
0.00343143
0.00304796
0.00304594
0.00304579
0.00304578
0.49518
0.999597
0.999593
0.999443
0.999419
0.999633
0.999831
0.999899
0.999922
0.999941
0.999962
0.999975
0.999981
0.999985
0.999989
0.999991
0.999992
0.999993
0.999994
0.999994
0.999998
1.00001
1.00002
1.00003
1.00005
1.00001
0.970006
0.478641
0.0366392
0.0205652
0.0436472
0.207066
0.779441
0.997829
0.999751
0.766303
0.000988353
)
;

boundaryField
{
    AirInlet
    {
        type            fixedValue;
        value           uniform 0;
    }
    WaterInlet
    {
        type            fixedValue;
        value           uniform 1;
    }
    ChannelWall
    {
        type            zeroGradient;
    }
    Outlet
    {
        type            inletOutlet;
        inletValue      uniform 0;
        value           nonuniform List<scalar> 
15
(
0.336708
0.280884
0.0649475
0
0.0581112
0.126082
0
0
0
0
0.272696
0.264649
0.24059
0.0737612
0
)
;
    }
    FrontAndBack
    {
        type            empty;
    }
}


// ************************************************************************* //
