/*--------------------------------*- C++ -*----------------------------------*\
| =========                 |                                                 |
| \\      /  F ield         | OpenFOAM: The Open Source CFD Toolbox           |
|  \\    /   O peration     | Version:  2.3.0                                 |
|   \\  /    A nd           | Web:      www.OpenFOAM.org                      |
|    \\/     M anipulation  |                                                 |
\*---------------------------------------------------------------------------*/
FoamFile
{
    version     2.0;
    format      ascii;
    class       volScalarField;
    location    "0.058";
    object      p;
}
// * * * * * * * * * * * * * * * * * * * * * * * * * * * * * * * * * * * * * //

dimensions      [1 -1 -2 0 0 0 0];

internalField   nonuniform List<scalar> 
725
(
-1175.86
-1213.86
-1232.9
-1250.33
-1246.69
-1181.47
-1213.39
-1231.78
-1249.62
-1232.52
-1184.08
-1213.5
-1230.91
-1253.63
-1198.52
-1183.67
-1214.36
-1229.98
-1261.3
-1113.54
-1180.49
-1215.54
-1225.14
-1260.1
-787.9
-1329.99
-1554.99
-1114.29
-1306.28
-1736.16
-1683.82
-1686.75
-1686.33
-1556.53
-1548.15
-1600.32
-1622.36
-1639.63
-1650.92
-1652.51
-1655.7
-1657.92
-1659.96
-1662.51
-1664.31
-1665.95
-1668.67
-1670.38
-1671.19
-1672.27
-1673.46
-1674.89
-1676.44
-1677.92
-1679.2
-1680.41
-1681.26
-1684.77
-1697.72
-1757.94
-1865.9
-1728.93
-1706.65
-1711.1
-1690.13
-1596.21
-1600.14
-1404.46
-978.324
-644.82
-1334.13
-1615.7
-1113.98
-1403.87
-1728.47
-1684.88
-1687.06
-1686.52
-1639.63
-1567.45
-1608
-1625.64
-1640.52
-1651.84
-1653.12
-1656.02
-1658.01
-1660.03
-1662.75
-1664.77
-1666.58
-1669.32
-1671.1
-1671.84
-1672.88
-1673.94
-1675.37
-1676.91
-1678.42
-1679.72
-1680.82
-1681.23
-1682.73
-1688.21
-1704.25
-1643.44
-1734.36
-1707.23
-1710.19
-1657.85
-1565.1
-1619.8
-1479.83
-1534.93
-714.155
-1345.06
-1755.95
-1117.69
-1439.24
-1714.52
-1685.42
-1688.28
-1682.41
-1698.54
-1574.61
-1612.04
-1630.24
-1643.84
-1654.18
-1653.89
-1656.43
-1658.18
-1660.05
-1662.9
-1664.87
-1666.62
-1669.5
-1671.33
-1672.11
-1673.2
-1674.13
-1675.48
-1676.93
-1678.39
-1679.66
-1680.72
-1680.62
-1679.72
-1681.28
-1705.36
-1729.72
-1747.98
-1706.46
-1707.65
-1683.02
-1562.82
-1649.38
-1556.73
-2275.57
13.2525
-1346.32
-2166.57
-1274.5
-1646.42
-1702.18
-1688.46
-1689.13
-1683.24
-1619.98
-1576.55
-1615.73
-1636.65
-1646.45
-1657.46
-1654.93
-1656.96
-1658.28
-1659.96
-1663.13
-1664.93
-1666.65
-1669.86
-1671.64
-1672.09
-1673.32
-1673.9
-1675.5
-1677.06
-1678.57
-1679.93
-1680.96
-1680.15
-1676.07
-1664.7
-1694.93
-1796.3
-1760.66
-1713.07
-1704.44
-1710.05
-1544.29
-1671.3
-1568.81
-2175
92.7961
-8.23047
-721.359
-1367.35
-1716
-1696.03
-1689.98
-1690.86
-1668.62
-1479.59
-1576.34
-1630.28
-1588.23
-1636.64
-1662.02
-1656.32
-1657.63
-1658.3
-1659.78
-1663.5
-1664.91
-1666.52
-1670.36
-1672.09
-1671.27
-1672.91
-1674.4
-1675.85
-1677.36
-1678.88
-1680.34
-1681.38
-1680.27
-1674.21
-1663.04
-1717.65
-2144.11
-1824.91
-1702.01
-1702.11
-1602.87
-1518.24
-1696.67
-1510.55
-2154.43
-20.9458
2440.66
-951.455
-1277.24
-1594.61
-1695.78
-1689.68
-1689.87
-1690.74
-1391.45
-1620.26
-1668.57
-1598.32
-1643.79
-1617.34
-1655.66
-1658.14
-1658.13
-1659.39
-1664.08
-1664.76
-1666.16
-1669.17
-1669.66
-1670.28
-1672.93
-1674.41
-1675.89
-1677.43
-1679.02
-1680.62
-1681.9
-1681
-1673.27
-1632.95
-1521.04
-1396.45
-1829.34
-1713.01
-1711.48
-1700.93
-1552.81
-1696.97
-1442.73
-1511.33
-191.158
2363.55
-759.031
-1287.86
-1672.9
-1693.81
-1689.34
-1689
-1683.59
-1594.96
-1636.36
-1598.98
-1520.4
-1639.7
-1625.38
-1655.65
-1658.35
-1658.08
-1659.25
-1664.21
-1664.32
-1665.59
-1665.91
-1666.96
-1669.1
-1672.94
-1674.43
-1675.9
-1677.46
-1679.07
-1680.72
-1682.07
-1681.35
-1673.36
-1631.33
-1479.42
-97.3871
-1687.51
-1740.89
-1718.58
-1760.72
-1531.88
-1697.02
-1419.43
-1313.58
-221.552
2348.21
-651.789
-1348.06
-1796.54
-1689.67
-1664.71
-1688.2
-1669.94
-1530.81
-1651.97
-1650.19
-1534.78
-1635.8
-1620.51
-1655.83
-1658.6
-1658.03
-1659.09
-1662.88
-1664.8
-1664.24
-1665.36
-1660.97
-1668.84
-1672.94
-1674.45
-1675.93
-1677.5
-1679.12
-1680.82
-1682.23
-1681.75
-1674.04
-1639.54
-1494.25
-432.751
-1772.71
-1748.57
-1730.81
-1807.01
-1512.35
-1698.76
-1399.26
-1147.79
-276.076
2116.93
-547.777
-1402.53
-1789.18
-1686.76
-1688.84
-1687.63
-1679.31
-1691.77
-1636.93
-1663.85
-1597.12
-1647.34
-1630.99
-1654.36
-1658.91
-1657.98
-1658.82
-1660.59
-1664.7
-1666.38
-1670.66
-1667.94
-1672.4
-1672.97
-1674.47
-1675.97
-1677.56
-1679.18
-1680.9
-1682.36
-1682.2
-1675.21
-1651.6
-1496.43
-849.384
-1862.99
-1718.52
-1738.29
-1861.64
-1500.77
-1704.04
-1383.86
-1018.61
-342.202
2456.24
-661.494
-1433.8
-1746.18
-1686.56
-1687.45
-1687.26
-1690.64
-1573.77
-1611.43
-1661.73
-1598.09
-1647.51
-1628.55
-1653.33
-1659.31
-1657.12
-1657.32
-1662.76
-1664.89
-1665.97
-1669.48
-1668.06
-1672.22
-1672.99
-1674.49
-1676
-1677.61
-1679.22
-1680.92
-1682.53
-1682.67
-1676.81
-1661.12
-1514.96
-920.119
-1823.61
-1765.05
-1736.5
-1828.12
-1610.15
-1708.87
-1374.36
-952.035
-345.317
-2035.85
-2071.45
-2101.49
-2052.97
-2371.02
-2039.08
-2069.24
-2101.47
-2021.18
-2337.52
-2039.55
-2067.71
-2101.21
-1993.47
-2311.69
-2037.03
-2067.26
-2101.26
-1983.13
-2271.86
-2031.6
-2067.72
-2102.92
-1982.58
-2241.54
-2031.87
-1245.42
-1647.21
-1656.8
-1687.34
-1687.33
-1686.62
-1686.59
-1538.35
-1581.63
-1651.04
-1599.57
-1646.22
-1650.68
-1656.65
-1661.2
-1663.66
-1665.06
-1663.6
-1665.03
-1666.75
-1666.41
-1668.38
-1671.58
-1672.77
-1674.28
-1675.91
-1677.65
-1679.34
-1681.22
-1683.18
-1684.03
-1681.96
-1678.71
-1677.35
-2161.4
-1752.22
-1762.22
-1737.38
-1810.76
-1819.64
-1723.66
-1363.29
-857.893
-360.121
-1938.62
-1325.6
-1832.32
-1673.61
-1686.26
-1687.46
-1686.57
-1688.89
-1533.87
-1623.72
-1664.95
-1661.69
-1670.13
-1656.91
-1663.52
-1661.34
-1663.75
-1664.81
-1664.04
-1665.24
-1666.75
-1666.74
-1668.44
-1671.37
-1673.13
-1674.75
-1676.42
-1678.14
-1680.37
-1682.35
-1684.53
-1686.77
-1688.26
-1695.8
-1793.14
-2157.39
-1744.53
-1754.37
-1746.59
-1811.84
-1814.64
-1735.48
-1399.52
-776.181
-462.483
-1775.85
-1484.17
-1933.14
-1704.83
-1684.64
-1686.3
-1686.12
-1688.41
-1640.06
-1675.68
-1694.59
-1673.92
-1674.3
-1661.09
-1664.11
-1662.98
-1664.14
-1664.85
-1664.66
-1665.94
-1667.66
-1668.29
-1670.12
-1672.37
-1673.64
-1675.06
-1676.69
-1678.49
-1680.59
-1682.78
-1685.57
-1689.53
-1696.82
-1721.06
-1786.34
-1917.79
-1754.9
-1745.22
-1754.81
-1621.69
-1703.22
-1764.16
-1526.19
-1261.16
-588.137
-1718.31
-1671.96
-2002.88
-1681.2
-1681.8
-1684.94
-1684.98
-1686.86
-1846.46
-1751.35
-1729.68
-1685.13
-1677.83
-1666.74
-1668.73
-1664.41
-1664.61
-1664.99
-1664.97
-1666.12
-1667.74
-1668.51
-1670.27
-1672.34
-1673.73
-1675.17
-1676.8
-1678.62
-1680.76
-1683.08
-1686.26
-1691.39
-1702.03
-1728.09
-1744.31
-1687.19
-1759.4
-1735.89
-1755.12
-1704.49
-1775.99
-1782.97
-1717.73
-2247.19
-225.208
-1705.39
-1753.14
-2104.2
-1653.87
-1679.76
-1684.28
-1684.76
-1685.12
-1938.45
-1797.19
-1755.51
-1692.57
-1680.45
-1666.61
-1667.16
-1662.65
-1663.04
-1663.61
-1663.92
-1665.38
-1667.25
-1668.13
-1669.99
-1672.05
-1673.45
-1674.9
-1676.54
-1678.39
-1680.55
-1682.9
-1686.27
-1692.05
-1704.57
-1735.71
-1782.26
-1768.91
-1750.27
-1774.68
-1748.58
-1729.79
-1900.29
-1737.01
-1950.26
-3129.18
125.071
)
;

boundaryField
{
    AirInlet
    {
        type            calculated;
        value           nonuniform List<scalar> 5(5497.96 5144.34 2561.48 5037.88 4656.35);
    }
    WaterInlet
    {
        type            calculated;
        value           nonuniform List<scalar> 10(-1175.86 -1181.46 -1184.07 -1183.66 -1180.47 -2035.87 -2039.09 -2039.56 -2037.04 -2031.6);
    }
    ChannelWall
    {
        type            calculated;
        value           nonuniform List<scalar> 
110
(
-1180.52
-1215.57
-1225.17
-1260.14
-787.94
-2035.82
-2071.42
-2101.45
-2052.93
-2370.97
-2031.63
-2067.75
-2102.95
-1982.62
-2241.58
-1705.44
-1753.19
-2104.23
-1653.87
-1679.76
-1684.28
-1684.76
-1685.12
-1938.47
-1797.23
-1755.56
-1692.62
-1680.5
-1666.65
-1667.2
-1662.69
-1663.08
-1663.66
-1663.96
-1665.43
-1667.29
-1668.17
-1670.03
-1672.09
-1673.49
-1674.95
-1676.59
-1678.43
-1680.59
-1682.94
-1686.31
-1692.09
-1704.61
-1735.76
-1782.3
-1768.93
-1750.27
-1774.68
-1748.59
-1729.79
-1900.33
-1737.05
-1950.3
-3129.22
125.071
-1175.84
-1213.83
-1232.86
-1250.29
-1246.65
-1329.94
-1554.95
-1114.25
-1306.25
-1736.16
-1683.82
-1686.75
-1686.33
-1556.5
-1548.1
-1600.28
-1622.31
-1639.59
-1650.87
-1652.46
-1655.66
-1657.88
-1659.92
-1662.47
-1664.27
-1665.91
-1668.63
-1670.33
-1671.15
-1672.22
-1673.42
-1674.84
-1676.4
-1677.87
-1679.16
-1680.36
-1681.22
-1684.73
-1697.68
-1757.9
-1865.88
-1728.93
-1706.65
-1711.1
-1690.12
-1596.17
-1600.09
-1404.42
-978.28
-644.805
)
;
    }
    Outlet
    {
        type            calculated;
        value           nonuniform List<scalar> 
15
(
-0.0148933
-1.57935
-0.0145419
-0.000393082
-0.0234621
-0.182678
-0.0142542
-0.000559122
-0.021092
-0.0379839
-0.159596
-0.178334
-0.839936
-0.0633772
-0.000936855
)
;
    }
    FrontAndBack
    {
        type            empty;
    }
}


// ************************************************************************* //
