/*--------------------------------*- C++ -*----------------------------------*\
| =========                 |                                                 |
| \\      /  F ield         | OpenFOAM: The Open Source CFD Toolbox           |
|  \\    /   O peration     | Version:  2.3.0                                 |
|   \\  /    A nd           | Web:      www.OpenFOAM.org                      |
|    \\/     M anipulation  |                                                 |
\*---------------------------------------------------------------------------*/
FoamFile
{
    version     2.0;
    format      ascii;
    class       volScalarField;
    location    "0.058";
    object      p_rgh;
}
// * * * * * * * * * * * * * * * * * * * * * * * * * * * * * * * * * * * * * //

dimensions      [1 -1 -2 0 0 0 0];

internalField   nonuniform List<scalar> 
725
(
-1175.84
-1213.83
-1232.86
-1250.29
-1246.65
-1181.39
-1213.3
-1231.68
-1249.5
-1232.4
-1183.95
-1213.35
-1230.73
-1253.44
-1198.31
-1183.49
-1214.14
-1229.74
-1261.03
-1113.24
-1180.25
-1215.27
-1224.83
-1259.75
-787.538
-1329.94
-1554.95
-1114.25
-1306.25
-1736.16
-1683.82
-1686.75
-1686.33
-1556.5
-1548.1
-1600.28
-1622.31
-1639.59
-1650.87
-1652.46
-1655.66
-1657.88
-1659.92
-1662.47
-1664.27
-1665.91
-1668.63
-1670.33
-1671.15
-1672.22
-1673.42
-1674.84
-1676.4
-1677.87
-1679.16
-1680.36
-1681.22
-1684.73
-1697.68
-1757.9
-1865.88
-1728.93
-1706.65
-1711.1
-1690.12
-1596.17
-1600.09
-1404.42
-978.28
-644.805
-1334
-1615.56
-1113.85
-1403.79
-1728.46
-1684.88
-1687.06
-1686.51
-1639.53
-1567.32
-1607.87
-1625.51
-1640.39
-1651.71
-1652.99
-1655.89
-1657.87
-1659.9
-1662.61
-1664.64
-1666.45
-1669.19
-1670.97
-1671.71
-1672.75
-1673.81
-1675.23
-1676.77
-1678.29
-1679.59
-1680.69
-1681.1
-1682.6
-1688.07
-1704.11
-1643.36
-1734.36
-1707.23
-1710.19
-1657.81
-1564.96
-1619.67
-1479.7
-1534.8
-714.118
-1344.84
-1755.73
-1117.47
-1439.12
-1714.52
-1685.42
-1688.28
-1682.4
-1698.39
-1574.39
-1611.82
-1630.02
-1643.62
-1653.96
-1653.66
-1656.21
-1657.96
-1659.83
-1662.68
-1664.65
-1666.4
-1669.28
-1671.11
-1671.89
-1672.98
-1673.91
-1675.26
-1676.71
-1678.16
-1679.44
-1680.5
-1680.4
-1679.49
-1681.06
-1705.14
-1729.58
-1747.98
-1706.46
-1707.65
-1682.95
-1562.59
-1649.16
-1556.51
-2275.38
13.267
-1346.04
-2166.28
-1274.21
-1646.28
-1702.18
-1688.46
-1689.13
-1683.23
-1619.77
-1576.24
-1615.42
-1636.34
-1646.14
-1657.15
-1654.62
-1656.65
-1657.97
-1659.65
-1662.82
-1664.62
-1666.34
-1669.55
-1671.33
-1671.79
-1673.01
-1673.59
-1675.19
-1676.75
-1678.26
-1679.62
-1680.65
-1679.84
-1675.77
-1664.39
-1694.62
-1796.12
-1760.66
-1713.07
-1704.44
-1709.95
-1543.98
-1671
-1568.5
-2174.74
92.8075
-8.08773
-721.088
-1367.01
-1715.86
-1696.03
-1689.97
-1690.86
-1668.6
-1479.34
-1575.94
-1629.88
-1587.84
-1636.25
-1661.63
-1655.92
-1657.23
-1657.9
-1659.38
-1663.11
-1664.52
-1666.12
-1669.97
-1671.69
-1670.87
-1672.51
-1674
-1675.45
-1676.96
-1678.49
-1679.94
-1680.98
-1679.87
-1673.82
-1662.64
-1717.25
-2143.86
-1824.89
-1702
-1702.11
-1602.76
-1517.85
-1696.28
-1510.15
-2154.08
-20.9224
2440.74
-951.076
-1276.85
-1594.46
-1695.78
-1689.68
-1689.87
-1690.72
-1391.16
-1619.81
-1668.13
-1597.87
-1643.34
-1616.89
-1655.2
-1657.69
-1657.68
-1658.94
-1663.63
-1664.31
-1665.71
-1668.72
-1669.21
-1669.83
-1672.48
-1673.96
-1675.44
-1676.98
-1678.57
-1680.17
-1681.45
-1680.55
-1672.82
-1632.5
-1520.59
-1396.19
-1829.33
-1713.01
-1711.47
-1700.81
-1552.37
-1696.51
-1442.28
-1510.91
-191.101
2363.64
-758.609
-1287.46
-1672.75
-1693.81
-1689.33
-1689
-1683.57
-1594.67
-1635.89
-1598.52
-1519.93
-1639.23
-1624.91
-1655.18
-1657.88
-1657.61
-1658.78
-1663.74
-1663.85
-1665.12
-1665.44
-1666.49
-1668.63
-1672.47
-1673.96
-1675.43
-1676.99
-1678.6
-1680.25
-1681.6
-1680.88
-1672.89
-1630.86
-1478.95
-97.0817
-1687.48
-1740.89
-1718.57
-1760.6
-1531.43
-1696.55
-1418.96
-1313.14
-221.487
2348.3
-651.337
-1347.64
-1796.41
-1689.67
-1664.71
-1688.19
-1669.92
-1530.52
-1651.48
-1649.71
-1534.29
-1635.3
-1620.02
-1655.34
-1658.11
-1657.54
-1658.6
-1662.39
-1664.31
-1663.75
-1664.87
-1660.48
-1668.35
-1672.45
-1673.96
-1675.44
-1677.01
-1678.63
-1680.33
-1681.74
-1681.26
-1673.55
-1639.04
-1493.76
-432.481
-1772.69
-1748.57
-1730.81
-1806.89
-1511.88
-1698.27
-1398.77
-1147.33
-275.999
2117.04
-547.293
-1402.1
-1789.06
-1686.76
-1688.84
-1687.63
-1679.29
-1691.45
-1636.42
-1663.35
-1596.61
-1646.83
-1630.48
-1653.85
-1658.4
-1657.47
-1658.31
-1660.08
-1664.19
-1665.87
-1670.15
-1667.43
-1671.89
-1672.46
-1673.96
-1675.46
-1677.05
-1678.67
-1680.39
-1681.85
-1681.69
-1674.7
-1651.09
-1495.92
-849.076
-1862.97
-1718.52
-1738.28
-1861.53
-1500.27
-1703.53
-1383.35
-1018.13
-342.106
2456.34
-660.988
-1433.35
-1746.05
-1686.56
-1687.45
-1687.26
-1690.63
-1573.43
-1610.91
-1661.2
-1597.57
-1646.98
-1628.02
-1652.8
-1658.78
-1656.59
-1656.79
-1662.23
-1664.36
-1665.44
-1668.95
-1667.53
-1671.7
-1672.46
-1673.96
-1675.47
-1677.08
-1678.69
-1680.39
-1682
-1682.14
-1676.28
-1660.59
-1514.44
-919.805
-1823.6
-1765.04
-1736.5
-1828.01
-1609.64
-1708.34
-1373.83
-951.528
-345.205
-2035.11
-2070.74
-2100.81
-2052.33
-2370.42
-2038.28
-2068.47
-2100.73
-2020.47
-2336.83
-2038.7
-2066.88
-2100.4
-1992.68
-2310.92
-2036.13
-2066.37
-2100.38
-1982.27
-2271.01
-2030.65
-2066.77
-2101.97
-1981.64
-2240.6
-2031.46
-1244.86
-1646.74
-1656.69
-1687.34
-1687.33
-1686.62
-1686.58
-1537.98
-1581.05
-1650.45
-1598.99
-1645.64
-1650.09
-1656.07
-1660.61
-1663.08
-1664.47
-1663.01
-1664.44
-1666.17
-1665.83
-1667.8
-1670.99
-1672.19
-1673.69
-1675.32
-1677.06
-1678.75
-1680.63
-1682.59
-1683.45
-1681.37
-1678.13
-1676.77
-2161.08
-1752.21
-1762.21
-1737.38
-1810.65
-1819.1
-1723.07
-1362.71
-857.321
-359.961
-1938.01
-1324.94
-1831.89
-1673.52
-1686.26
-1687.45
-1686.57
-1688.88
-1533.46
-1623.05
-1664.28
-1661.02
-1669.46
-1656.24
-1662.85
-1660.67
-1663.08
-1664.13
-1663.37
-1664.57
-1666.08
-1666.07
-1667.76
-1670.69
-1672.46
-1674.08
-1675.75
-1677.46
-1679.69
-1681.68
-1683.86
-1686.1
-1687.59
-1695.13
-1792.47
-2157.06
-1744.52
-1754.36
-1746.58
-1811.68
-1814.08
-1734.81
-1398.85
-775.524
-462.305
-1775.1
-1483.41
-1932.64
-1704.75
-1684.64
-1686.3
-1686.12
-1688.41
-1639.62
-1674.92
-1693.83
-1673.16
-1673.54
-1660.34
-1663.35
-1662.22
-1663.38
-1664.09
-1663.9
-1665.18
-1666.9
-1667.53
-1669.36
-1671.61
-1672.88
-1674.3
-1675.93
-1677.73
-1679.83
-1682.02
-1684.81
-1688.77
-1696.06
-1720.3
-1785.59
-1917.4
-1754.89
-1745.21
-1754.8
-1621.46
-1702.65
-1763.4
-1525.43
-1260.44
-587.953
-1717.46
-1671.11
-2002.31
-1681.17
-1681.8
-1684.93
-1684.98
-1686.86
-1846
-1750.5
-1728.83
-1684.28
-1676.98
-1665.9
-1667.88
-1663.56
-1663.76
-1664.14
-1664.12
-1665.27
-1666.89
-1667.66
-1669.42
-1671.5
-1672.88
-1674.32
-1675.96
-1677.77
-1679.91
-1682.23
-1685.41
-1690.55
-1701.19
-1727.24
-1743.48
-1686.73
-1759.38
-1735.88
-1755.07
-1704.29
-1775.36
-1782.13
-1716.88
-2246.46
-225.145
-1704.46
-1752.21
-2103.57
-1653.87
-1679.76
-1684.27
-1684.76
-1685.12
-1937.99
-1796.25
-1754.58
-1691.64
-1679.52
-1665.67
-1666.22
-1661.71
-1662.1
-1662.68
-1662.98
-1664.45
-1666.31
-1667.19
-1669.05
-1671.11
-1672.51
-1673.96
-1675.61
-1677.45
-1679.61
-1681.96
-1685.33
-1691.11
-1703.63
-1734.77
-1781.35
-1768.46
-1750.23
-1774.66
-1748.54
-1729.59
-1899.56
-1736.08
-1949.32
-3128.47
125.073
)
;

boundaryField
{
    AirInlet
    {
        type            fixedFluxPressure;
        gradient        nonuniform List<scalar> 5(3.05722e+08 2.7807e+08 2.13185e+07 2.92084e+08 2.2e+08);
        value           nonuniform List<scalar> 5(5497.96 5144.34 2561.48 5037.88 4656.35);
    }
    WaterInlet
    {
        type            fixedFluxPressure;
        gradient        nonuniform List<scalar> 10(0.0294772 -5.15448 -7.01738 -8.40993 2.79922 0.0410514 -38.9416 -6.18131 0.178517 -9.68099);
        value           nonuniform List<scalar> 10(-1175.84 -1181.39 -1183.95 -1183.49 -1180.25 -2035.11 -2038.28 -2038.7 -2036.13 -2030.65);
    }
    ChannelWall
    {
        type            fixedFluxPressure;
        gradient        uniform 0;
        value           nonuniform List<scalar> 
110
(
-1180.25
-1215.27
-1224.83
-1259.75
-787.538
-2035.11
-2070.74
-2100.81
-2052.33
-2370.42
-2030.65
-2066.77
-2101.97
-1981.64
-2240.6
-1704.46
-1752.21
-2103.57
-1653.87
-1679.76
-1684.27
-1684.76
-1685.12
-1937.99
-1796.25
-1754.58
-1691.64
-1679.52
-1665.67
-1666.22
-1661.71
-1662.1
-1662.68
-1662.98
-1664.45
-1666.31
-1667.19
-1669.05
-1671.11
-1672.51
-1673.96
-1675.61
-1677.45
-1679.61
-1681.96
-1685.33
-1691.11
-1703.63
-1734.77
-1781.35
-1768.46
-1750.23
-1774.66
-1748.54
-1729.59
-1899.56
-1736.08
-1949.32
-3128.47
125.073
-1175.84
-1213.83
-1232.86
-1250.29
-1246.65
-1329.94
-1554.95
-1114.25
-1306.25
-1736.16
-1683.82
-1686.75
-1686.33
-1556.5
-1548.1
-1600.28
-1622.31
-1639.59
-1650.87
-1652.46
-1655.66
-1657.88
-1659.92
-1662.47
-1664.27
-1665.91
-1668.63
-1670.33
-1671.15
-1672.22
-1673.42
-1674.84
-1676.4
-1677.87
-1679.16
-1680.36
-1681.22
-1684.73
-1697.68
-1757.9
-1865.88
-1728.93
-1706.65
-1711.1
-1690.12
-1596.17
-1600.09
-1404.42
-978.28
-644.805
)
;
    }
    Outlet
    {
        type            totalPressure;
        rho             rho;
        psi             none;
        gamma           1;
        p0              uniform 0;
        value           nonuniform List<scalar> 
15
(
0
-1.54206
0
-8.40666e-05
0
-0.125388
-0.0137833
-6.86221e-05
-0.0205819
-0.0374542
0
0
-0.656444
0
0
)
;
    }
    FrontAndBack
    {
        type            empty;
    }
}


// ************************************************************************* //
