/*--------------------------------*- C++ -*----------------------------------*\
| =========                 |                                                 |
| \\      /  F ield         | OpenFOAM: The Open Source CFD Toolbox           |
|  \\    /   O peration     | Version:  2.3.0                                 |
|   \\  /    A nd           | Web:      www.OpenFOAM.org                      |
|    \\/     M anipulation  |                                                 |
\*---------------------------------------------------------------------------*/
FoamFile
{
    version     2.0;
    format      ascii;
    class       surfaceScalarField;
    location    "0.058";
    object      phi;
}
// * * * * * * * * * * * * * * * * * * * * * * * * * * * * * * * * * * * * * //

dimensions      [0 3 -1 0 0 0 0];

internalField   nonuniform List<scalar> 
1380
(
3.14446e-13
1.85554e-13
2.89984e-13
2.4462e-14
2.71277e-13
1.8707e-14
1.05756e-13
1.65521e-13
1.28992e-13
-2.3236e-14
6.02446e-13
8.31091e-14
6.12981e-13
1.3927e-14
5.75172e-13
5.6516e-14
2.0493e-13
5.35763e-13
1.60648e-13
1.73274e-13
6.84958e-13
-1.01848e-13
7.19759e-13
-2.08743e-14
7.38172e-13
3.81025e-14
5.42405e-13
7.3153e-13
-1.01306e-12
1.71611e-12
5.96842e-13
-1.9869e-13
6.1163e-13
-3.56631e-14
6.91154e-13
-4.14212e-14
1.04979e-12
3.72894e-13
-2.61971e-12
2.65645e-12
3.0131e-13
2.65647e-13
2.24226e-13
5.9712e-13
-2.02259e-12
5.49796e-13
-5.73032e-13
7.03836e-13
-1.5404e-13
2.29626e-12
-1.59243e-12
1.65985e-12
6.36411e-13
5.19215e-12
-3.53229e-12
2.49553e-12
2.69661e-12
1.3465e-12
1.14903e-12
1.09183e-12
2.54676e-13
-4.67267e-13
1.55909e-12
-8.87764e-14
-3.78491e-13
1.39401e-13
-2.28177e-13
1.51234e-13
-1.18337e-14
1.59603e-13
-8.36883e-15
1.22535e-13
3.70682e-14
1.49802e-13
-2.72673e-14
1.62155e-13
-1.23527e-14
1.6601e-13
-3.85518e-15
1.69635e-13
-3.62515e-15
1.61293e-13
8.34182e-15
1.60993e-13
3.00353e-16
1.69268e-13
-8.27459e-15
1.51217e-13
1.80503e-14
1.35365e-13
1.58526e-14
1.3534e-13
2.46815e-17
1.38368e-13
-3.02754e-15
1.42069e-13
-3.70113e-15
1.42757e-13
-6.88552e-16
1.38751e-13
4.00633e-15
1.29723e-13
9.0285e-15
1.16216e-13
1.3507e-14
1.00124e-13
1.60918e-14
1.11665e-13
-1.15417e-14
1.85526e-13
-7.38604e-14
3.07086e-13
-1.21561e-13
4.34678e-13
-1.27592e-13
1.06217e-12
-6.27491e-13
-6.32683e-12
7.389e-12
-4.30369e-13
-5.89646e-12
1.76691e-12
-2.19728e-12
2.85562e-13
1.48135e-12
5.41998e-14
2.31362e-13
2.63705e-13
-2.09505e-13
1.2153e-12
-9.51595e-13
2.39495e-12
-1.17965e-12
5.55538e-13
1.09248e-12
-1.49223e-12
6.65382e-13
2.73053e-13
1.41378e-12
-2.34083e-12
1.51401e-12
5.36184e-13
3.63255e-12
-5.65084e-12
2.20116e-12
4.128e-12
-3.07719e-14
3.38096e-12
-1.37959e-12
1.6035e-12
-1.11565e-12
1.29515e-12
-1.38129e-13
-1.35601e-12
3.34593e-13
-7.009e-13
3.55901e-13
-3.31412e-14
3.77267e-13
-2.97353e-14
3.40262e-13
7.40733e-14
3.98603e-13
-8.56086e-14
4.23505e-13
-3.7254e-14
4.28004e-13
-8.35491e-15
4.28223e-13
-3.84387e-15
4.10381e-13
2.61832e-14
4.10876e-13
-1.94226e-16
4.26249e-13
-2.36479e-14
3.97234e-13
4.70658e-14
3.69808e-13
4.32789e-14
3.68958e-13
8.74403e-16
3.73035e-13
-7.1045e-15
3.80758e-13
-1.14242e-14
3.82086e-13
-2.01646e-15
3.78276e-13
7.81675e-15
3.71826e-13
1.54781e-14
3.65251e-13
2.00817e-14
3.69186e-13
1.21566e-14
4.30198e-13
-7.25532e-14
5.97253e-13
-2.40915e-13
7.00374e-13
-2.24682e-13
9.8105e-14
4.74677e-13
-2.4187e-12
1.88932e-12
-9.97575e-12
1.49461e-11
-1.13813e-12
-1.47341e-11
2.53757e-12
-5.87298e-12
2.52809e-13
3.76611e-12
-4.96193e-13
9.80364e-13
1.27312e-13
-8.3301e-13
1.48908e-12
-2.31336e-12
1.74907e-12
-1.43964e-12
3.274e-12
3.28514e-12
-3.06126e-12
8.58389e-13
2.6998e-12
3.20534e-13
-1.80297e-12
-5.27614e-13
1.38433e-12
2.54606e-13
-6.43306e-12
-1.56867e-12
5.95128e-12
-4.06533e-12
5.87762e-12
-2.59727e-12
1.35437e-13
-3.61343e-13
-9.40774e-13
2.37619e-13
-1.95498e-12
5.35541e-13
-9.98821e-13
4.62817e-13
3.95828e-14
5.06271e-13
-7.31902e-14
4.94261e-13
8.60843e-14
5.92259e-13
-1.83607e-13
6.26878e-13
-7.18726e-14
6.28566e-13
-1.00434e-14
6.23705e-13
1.0171e-15
5.94464e-13
5.54249e-14
5.93584e-13
6.85514e-16
6.15455e-13
-4.55185e-14
5.83515e-13
7.90057e-14
5.56838e-13
6.99561e-14
5.58405e-13
-6.93197e-16
5.61829e-13
-1.05287e-14
5.68134e-13
-1.77287e-14
5.67809e-13
-1.69189e-15
5.65575e-13
1.0051e-14
5.64746e-13
1.63068e-14
5.68002e-13
1.68258e-14
5.79273e-13
8.85979e-16
6.35704e-13
-1.28985e-13
7.80479e-13
-3.85691e-13
8.53846e-13
-2.98048e-13
5.59738e-13
7.68785e-13
1.05561e-13
2.3435e-12
4.17439e-13
1.46342e-11
1.01782e-12
-1.53345e-11
3.54839e-12
-8.40355e-12
8.93415e-14
7.22516e-12
-9.51123e-13
2.02083e-12
-5.50891e-13
-1.23324e-12
1.43699e-13
-3.00795e-12
1.32565e-12
-2.62159e-12
4.25086e-12
4.62384e-12
-5.02866e-12
1.67789e-12
5.64575e-12
7.34299e-13
-8.59381e-13
-4.40818e-13
2.55945e-12
-3.25505e-12
-3.61883e-12
-2.8664e-12
5.56263e-12
-3.3647e-12
6.37592e-12
-1.38397e-12
-1.84529e-12
7.14474e-13
-3.03922e-12
8.12531e-13
-2.05303e-12
6.52496e-13
-8.38786e-13
4.42585e-13
2.49493e-13
5.62073e-13
-1.92678e-13
5.83759e-13
6.43985e-14
7.25546e-13
-3.25395e-13
7.62592e-13
-1.08919e-13
7.62731e-13
-1.01824e-14
7.57129e-13
6.61948e-15
7.1349e-13
9.90635e-14
7.09698e-13
4.47782e-15
7.39111e-13
-7.4931e-14
7.05279e-13
1.12837e-13
6.84515e-13
9.07203e-14
6.97879e-13
-1.4057e-14
7.07613e-13
-2.02632e-14
7.00218e-13
-1.03338e-14
6.97696e-13
8.30696e-16
6.96225e-13
1.15216e-14
6.98438e-13
1.40934e-14
6.99653e-13
1.56115e-14
6.95575e-13
4.96364e-15
6.94548e-13
-1.27957e-13
7.19766e-13
-4.10909e-13
4.80403e-13
-5.86843e-14
-8.59319e-13
2.10851e-12
-4.15569e-12
5.63986e-12
-2.55509e-12
1.30336e-11
4.62057e-12
-2.25101e-11
4.17287e-12
-7.95586e-12
3.76799e-13
1.10212e-11
-1.04286e-12
3.44049e-12
-8.75063e-13
-1.40104e-12
-4.2032e-13
-3.46269e-12
-3.57785e-12
5.35932e-13
9.0077e-13
-9.43929e-12
2.38805e-12
8.94669e-13
-4.68821e-12
7.30771e-13
-6.95483e-13
-1.16965e-12
4.45987e-12
-5.43711e-12
6.48632e-13
-3.90961e-12
4.03513e-12
-1.05262e-12
3.51893e-12
1.84741e-12
-4.74532e-12
3.09926e-12
-4.29107e-12
1.5998e-12
-5.53571e-13
5.66635e-13
1.94381e-13
3.40738e-13
4.7539e-13
6.67449e-13
-5.19388e-13
6.65784e-13
6.60634e-14
8.27676e-13
-4.87287e-13
8.30961e-13
-1.12204e-13
8.22347e-13
-1.56876e-15
8.19935e-13
9.03211e-15
7.64143e-13
1.54855e-13
7.56266e-13
1.2355e-14
7.89639e-13
-1.08304e-13
7.63014e-13
1.39462e-13
7.52134e-13
1.016e-13
7.82437e-13
-4.43598e-14
7.84747e-13
-2.25734e-14
7.79922e-13
-5.5091e-15
7.75476e-13
5.27704e-15
7.73324e-13
1.36739e-14
7.74317e-13
1.31001e-14
7.66123e-13
2.38056e-14
7.35538e-13
3.55484e-14
6.63508e-13
-5.59276e-14
5.68968e-13
-3.16369e-13
4.28862e-13
8.14221e-14
6.78072e-13
1.8593e-12
1.03469e-11
-4.02892e-12
2.54239e-11
-2.04349e-12
1.66979e-11
-1.37841e-11
1.26283e-12
7.47922e-12
4.59425e-13
1.18246e-11
-5.5584e-13
4.45575e-12
-3.01861e-13
-1.65502e-12
2.6425e-13
-4.0288e-12
2.84569e-12
-2.04551e-12
2.49702e-12
-1.78413e-12
4.37217e-12
9.5247e-13
-7.42481e-12
1.63324e-13
9.36619e-14
-2.65117e-12
7.27437e-12
-1.00521e-12
-9.97334e-13
-6.90726e-13
3.72065e-12
-5.24628e-13
3.35283e-12
1.36893e-12
-6.63888e-12
5.26384e-13
-3.44853e-12
2.46399e-13
-2.73586e-13
1.19708e-13
3.21073e-13
1.5127e-13
4.43828e-13
1.72699e-13
-5.40817e-13
1.82204e-13
5.65581e-14
1.94343e-13
-4.99427e-13
1.86188e-13
-1.04048e-13
1.80033e-13
4.58617e-15
1.77157e-13
1.19078e-14
1.685e-13
1.63512e-13
1.66093e-13
1.47624e-14
1.67569e-13
-1.0978e-13
1.68397e-13
1.38634e-13
1.73782e-13
9.62146e-14
1.78516e-13
-4.90937e-14
1.78168e-13
-2.22251e-14
1.76559e-13
-3.89963e-15
1.7544e-13
6.39518e-15
1.74735e-13
1.43794e-14
1.7457e-13
1.32653e-14
1.7123e-13
2.71452e-14
1.63109e-13
4.36694e-14
1.41462e-13
-3.42806e-14
9.89609e-14
-2.73868e-13
-1.0001e-13
2.80393e-13
-1.02727e-12
2.78656e-12
-2.94258e-12
-2.11361e-12
1.06619e-12
-6.05225e-12
2.99061e-12
-1.57085e-11
1.42964e-12
9.04019e-12
-2.98356e-14
1.32841e-11
-8.82872e-14
4.5142e-12
6.51304e-14
-1.80844e-12
1.23799e-13
-4.08747e-12
-2.75532e-13
-1.64618e-12
2.34502e-12
-9.42593e-13
5.51477e-12
1.17967e-12
-9.54707e-12
3.6202e-14
1.23713e-12
-3.08343e-12
1.0394e-11
-1.04059e-12
-3.04017e-12
-4.26361e-13
3.10642e-12
-5.10674e-13
3.43715e-12
-1.91948e-13
-6.9576e-12
1.21315e-13
-3.76179e-12
1.70819e-13
-3.23089e-13
1.10368e-13
3.81524e-13
1.92119e-13
3.62077e-13
1.87834e-13
-5.36532e-13
1.84889e-13
5.9503e-14
1.97927e-13
-5.12465e-13
1.85431e-13
-9.15521e-14
1.78096e-13
1.19207e-14
1.74935e-13
1.50694e-14
1.67092e-13
1.71355e-13
1.64509e-13
1.73449e-14
1.66284e-13
-1.11554e-13
1.69638e-13
1.3528e-13
1.75384e-13
9.0469e-14
1.79857e-13
-5.35669e-14
1.78863e-13
-2.12311e-14
1.7708e-13
-2.11674e-15
1.75952e-13
7.52318e-15
1.75195e-13
1.51368e-14
1.74923e-13
1.35371e-14
1.71328e-13
3.07403e-14
1.62775e-13
5.22223e-14
1.3994e-13
-1.14457e-14
9.45568e-14
-2.28485e-13
-6.8678e-14
4.43628e-13
-1.03141e-12
3.74929e-12
-4.91814e-12
1.77313e-12
1.05326e-12
-1.20237e-11
2.85999e-12
-1.75153e-11
2.43872e-12
9.46146e-12
1.73233e-13
1.55496e-11
-6.51144e-14
4.75255e-12
1.0889e-13
-1.98244e-12
1.28601e-13
-4.10718e-12
-5.45441e-13
-9.72137e-13
2.1794e-12
1.1528e-12
4.56197e-12
1.25405e-12
-9.64832e-12
2.21559e-13
2.26962e-12
-1.01574e-12
1.16313e-11
-8.05173e-13
-3.25073e-12
2.45848e-14
2.27666e-12
7.74166e-13
2.68757e-12
-2.64872e-12
-3.53471e-12
-2.16971e-13
-6.19354e-12
1.2063e-13
-6.60691e-13
1.36603e-13
3.6555e-13
1.99532e-13
2.99149e-13
1.89554e-13
-5.26554e-13
1.85746e-13
6.33109e-14
1.98354e-13
-5.25073e-13
1.83636e-13
-7.68341e-14
1.7556e-13
1.99966e-14
1.71908e-13
1.87218e-14
1.65185e-13
1.78078e-13
1.64031e-13
1.84985e-14
1.65541e-13
-1.13064e-13
1.70323e-13
1.30497e-13
1.77919e-13
8.28726e-14
1.80592e-13
-5.62398e-14
1.78715e-13
-1.9354e-14
1.76935e-13
-3.36731e-16
1.75843e-13
8.61582e-15
1.75083e-13
1.58965e-14
1.74756e-13
1.38636e-14
1.71037e-13
3.44593e-14
1.62353e-13
6.09063e-14
1.39224e-13
1.16835e-14
9.55917e-14
-1.84852e-13
3.77061e-14
5.01514e-13
8.83655e-14
3.69863e-12
1.63212e-12
2.29371e-13
1.17292e-12
-1.15645e-11
1.60256e-12
-1.79449e-11
2.25117e-12
8.81285e-12
5.68009e-13
1.72328e-11
-3.46612e-14
5.35522e-12
1.58872e-13
-2.17597e-12
1.43621e-13
-4.09193e-12
-3.53634e-13
-4.74882e-13
1.89612e-12
1.02358e-12
3.73839e-12
1.19202e-12
-9.81677e-12
7.62335e-14
3.38541e-12
7.25871e-13
1.09817e-11
-1.53771e-13
-2.37109e-12
4.96882e-13
1.62601e-12
1.39218e-12
1.79227e-12
1.2588e-13
-2.26841e-12
3.09772e-14
-6.09864e-12
1.0258e-13
-7.32294e-13
1.32541e-13
3.35589e-13
1.70491e-13
2.61199e-13
1.80738e-13
-5.36802e-13
1.82829e-13
6.12203e-14
1.96742e-13
-5.38986e-13
1.80948e-13
-6.10398e-14
1.72518e-13
2.8426e-14
1.69126e-13
2.21138e-14
1.66362e-13
1.80843e-13
1.65331e-13
1.95294e-14
1.67304e-13
-1.15037e-13
1.70633e-13
1.27168e-13
1.78717e-13
7.47881e-14
1.79822e-13
-5.73449e-14
1.77912e-13
-1.74432e-14
1.76127e-13
1.44746e-15
1.75083e-13
9.66053e-15
1.74349e-13
1.66298e-14
1.74037e-13
1.4176e-14
1.70342e-13
3.8154e-14
1.6183e-13
6.94188e-14
1.39191e-13
3.43226e-14
9.83323e-14
-1.43994e-13
1.4013e-13
4.59716e-13
3.03051e-13
3.53571e-12
5.06744e-12
-4.53502e-12
1.44723e-12
-7.94426e-12
5.22222e-13
-1.70199e-11
9.52122e-13
8.38295e-12
3.51151e-13
1.78337e-11
1.09863e-14
5.69539e-12
2.14972e-13
-2.37996e-12
1.91549e-13
-4.06851e-12
-4.38827e-13
1.55495e-13
1.92275e-12
1.33505e-12
2.60334e-12
9.3538e-13
-9.4171e-12
-3.91969e-13
4.71276e-12
1.98809e-13
1.03909e-11
4.4549e-13
-2.61777e-12
6.34325e-13
1.43717e-12
1.13497e-12
1.29163e-12
2.21911e-12
-3.35255e-12
3.10335e-13
-4.18987e-12
1.33395e-13
-5.55354e-13
1.25533e-13
3.43452e-13
1.51486e-13
2.35246e-13
1.5876e-13
-5.44076e-13
1.80102e-13
3.98784e-14
1.92891e-13
-5.51775e-13
1.7713e-13
-4.5279e-14
1.69566e-13
3.59905e-14
1.65854e-13
2.58256e-14
1.66737e-13
1.7996e-13
1.66264e-13
2.00024e-14
1.66469e-13
-1.15241e-13
1.70637e-13
1.23e-13
1.78669e-13
6.67558e-14
1.78621e-13
-5.72967e-14
1.76386e-13
-1.52082e-14
1.74668e-13
3.1656e-15
1.73711e-13
1.06177e-14
1.73067e-13
1.72729e-14
1.72822e-13
1.44215e-14
1.69328e-13
4.16479e-14
1.61205e-13
7.75417e-14
1.39341e-13
5.61866e-14
1.01225e-13
-1.05878e-13
1.53941e-13
4.07e-13
1.05619e-13
3.58403e-12
1.74845e-12
-6.17785e-12
2.3859e-12
-8.58171e-12
4.21169e-13
-1.50552e-11
3.91049e-14
8.76502e-12
3.38826e-15
1.78695e-11
1.03077e-13
5.5957e-12
2.61127e-13
-2.53801e-12
2.46246e-13
-4.05363e-12
-2.36231e-13
6.37972e-13
2.2602e-12
3.07453e-13
1.92547e-13
3.03123e-13
4.32996e-15
4.4657e-13
-1.43447e-13
1.39107e-12
-9.44502e-13
-1.15499e-12
2.54606e-12
6.00168e-13
9.23789e-14
6.25798e-13
-2.12995e-14
7.70527e-13
-2.88176e-13
1.25663e-12
-1.4306e-12
-2.76056e-12
2.8622e-12
6.83417e-13
-9.10382e-14
7.07888e-13
-4.57703e-14
6.72115e-13
-2.52403e-13
1.82596e-13
-9.41084e-13
-2.77319e-12
1.95228e-13
5.97895e-13
-1.88934e-13
5.87142e-13
-3.50169e-14
4.29023e-13
-9.42838e-14
-2.17459e-13
-2.94602e-13
-1.13875e-12
-1.8519e-12
3.11066e-13
2.76049e-13
1.81765e-13
-1.12837e-13
-1.25159e-12
1.67702e-12
3.47238e-12
1.96226e-12
-9.70234e-12
-3.11233e-12
9.78735e-12
-8.37026e-13
8.11557e-12
1.55599e-12
-5.01079e-12
1.54703e-12
1.44613e-12
2.00908e-12
8.2958e-13
2.7471e-12
-4.09057e-12
2.16533e-12
-3.6081e-12
8.8203e-13
7.27947e-13
5.37619e-13
6.87863e-13
4.64765e-13
3.081e-13
5.74127e-13
-6.53438e-13
7.81191e-13
-1.67185e-13
7.74607e-13
-5.45192e-13
7.5904e-13
-2.97113e-14
7.30356e-13
6.46745e-14
7.10261e-13
4.592e-14
7.54608e-13
1.35613e-13
7.54842e-13
1.9769e-14
7.25184e-13
-8.55835e-14
7.66756e-13
8.14283e-14
7.95087e-13
3.84253e-14
7.78121e-13
-4.0331e-14
7.67504e-13
-4.59166e-15
7.59651e-13
1.10185e-14
7.57008e-13
1.32613e-14
7.55314e-13
1.89672e-14
7.56488e-13
1.32468e-14
7.48086e-13
5.00503e-14
7.1394e-13
1.11688e-13
6.23639e-13
1.46488e-13
4.79937e-13
3.78232e-14
6.54015e-13
2.32923e-13
1.93057e-12
2.30747e-12
2.90175e-12
-7.14903e-12
1.31431e-12
-6.99427e-12
5.65827e-13
-1.43067e-11
-1.92992e-12
1.12608e-11
6.78335e-13
1.52612e-11
1.2498e-12
5.02424e-12
1.53986e-12
-2.82808e-12
1.55579e-12
-4.06955e-12
2.55569e-12
-3.6193e-13
3.12404e-12
3.37674e-12
2.95784e-12
-2.47626e-12
-3.84934e-12
4.8312e-13
6.82797e-12
-1.46299e-12
1.00617e-11
-1.22027e-12
-5.25351e-12
7.78731e-13
-5.52872e-13
1.36084e-12
2.47468e-13
1.64021e-12
-4.36994e-12
1.20432e-12
-3.17221e-12
9.46286e-13
9.85982e-13
8.79007e-13
7.55141e-13
8.62047e-13
3.25061e-13
7.19122e-13
-5.10513e-13
7.55183e-13
-2.03246e-13
6.22686e-13
-4.12695e-13
6.16375e-13
-2.33998e-14
6.26599e-13
5.44501e-14
6.23226e-13
4.92932e-14
6.6714e-13
9.16988e-14
6.74483e-13
1.24261e-14
6.47318e-13
-5.84193e-14
6.82518e-13
4.62288e-14
7.06315e-13
1.46287e-14
6.96086e-13
-3.01027e-14
6.90658e-13
8.37089e-16
6.88875e-13
1.28007e-14
6.88365e-13
1.37709e-14
6.92087e-13
1.52461e-14
6.88829e-13
1.65046e-14
6.85921e-13
5.2958e-14
6.75571e-13
1.22037e-13
6.27147e-13
1.94912e-13
4.77964e-13
1.87006e-13
3.63747e-13
3.4714e-13
4.6881e-13
2.20241e-12
-2.47405e-12
-4.20617e-12
-2.9301e-12
-6.53822e-12
-4.01093e-12
-1.32259e-11
-6.50031e-12
1.37501e-11
1.048e-12
7.7129e-12
2.38693e-12
3.6853e-12
1.95129e-12
-2.39243e-12
1.00347e-12
-3.12173e-12
1.18584e-12
-5.44302e-13
3.33261e-12
7.98542e-14
3.07321e-12
-2.41116e-12
-1.35832e-12
2.2621e-12
2.15471e-12
8.99934e-13
1.14238e-11
4.81994e-13
-4.83557e-12
2.058e-12
-2.12888e-12
3.02895e-12
-7.23486e-13
3.34503e-12
-4.68602e-12
8.46746e-13
-6.7392e-13
6.73414e-13
1.15931e-12
8.68618e-13
5.59938e-13
9.62984e-13
2.30695e-13
7.43639e-13
-2.91169e-13
6.55983e-13
-1.1559e-13
4.89868e-13
-2.4658e-13
4.75262e-13
-8.79365e-15
4.96284e-13
3.34277e-14
5.16642e-13
2.89349e-14
5.59115e-13
4.92264e-14
5.65845e-13
5.69582e-15
5.40873e-13
-3.34472e-14
5.63467e-13
2.3635e-14
5.73672e-13
4.42369e-15
5.61235e-13
-1.76661e-14
5.60803e-13
1.26963e-15
5.64388e-13
9.21539e-15
5.68188e-13
9.97022e-15
5.71574e-13
1.18604e-14
5.72939e-13
1.51396e-14
5.82471e-13
4.34261e-14
6.0724e-13
9.72687e-14
6.31218e-13
1.70935e-13
6.00496e-13
2.17728e-13
6.53337e-13
2.94299e-13
1.81022e-12
1.04552e-12
1.50007e-12
-3.89602e-12
-2.411e-12
-2.62715e-12
-5.27791e-12
-1.0359e-11
-2.73092e-12
1.12032e-11
5.81981e-13
4.4e-12
1.77083e-12
2.49645e-12
1.58792e-12
-2.20952e-12
7.54968e-13
-2.28878e-12
7.27629e-13
-5.16963e-13
4.7545e-12
-4.46112e-13
1.66743e-12
-1.41263e-12
-3.91805e-13
1.43098e-13
5.98985e-13
5.40194e-12
6.16501e-12
3.72698e-12
-3.16062e-12
3.01813e-12
-1.42003e-12
2.55906e-12
-2.64414e-13
-1.82248e-14
-2.10873e-12
-2.69042e-13
-4.23102e-13
3.35921e-13
5.5435e-13
6.59569e-13
2.3629e-13
7.7961e-13
1.10654e-13
5.77616e-13
-8.91756e-14
4.80546e-13
-1.852e-14
3.18367e-13
-8.44008e-14
3.09944e-13
-3.70956e-16
3.33425e-13
9.94692e-15
3.54798e-13
7.56194e-15
3.87805e-13
1.6219e-14
3.92041e-13
1.46027e-15
3.71326e-13
-1.27324e-14
3.86096e-13
8.86527e-15
3.89859e-13
6.60898e-16
3.79254e-13
-7.06154e-15
3.79906e-13
6.17156e-16
3.85425e-13
3.69734e-15
3.91105e-13
4.29017e-15
3.97123e-13
5.84176e-15
4.04222e-13
8.04109e-15
4.26604e-13
2.10434e-14
4.79575e-13
4.42982e-14
5.69892e-13
8.06178e-14
6.67902e-13
1.19718e-13
7.79649e-13
1.82552e-13
1.05581e-12
7.69359e-13
-1.87092e-12
-9.69283e-13
-4.23402e-12
-2.64044e-13
-1.16925e-11
-2.90046e-12
-1.0301e-12
5.40739e-13
1.51769e-14
3.35473e-12
1.59821e-12
9.13416e-13
1.03191e-12
-1.64322e-12
-3.60707e-13
-8.96164e-13
5.10392e-13
-1.38806e-12
5.19982e-12
4.15838e-13
2.4033e-14
6.23018e-13
6.78803e-12
3.62741e-12
2.20738e-12
1.94296e-12
-1.65769e-13
-5.88871e-13
-3.45215e-14
2.01769e-13
3.12423e-13
2.23248e-13
2.04728e-13
1.20327e-13
1.19956e-13
1.29903e-13
1.37465e-13
1.53684e-13
1.55144e-13
1.42412e-13
1.51277e-13
1.51938e-13
1.44876e-13
1.45493e-13
1.49191e-13
1.53481e-13
1.59323e-13
1.67364e-13
1.88407e-13
2.32705e-13
3.13323e-13
4.33041e-13
6.15593e-13
1.38495e-12
4.15669e-13
1.51624e-13
-2.74884e-12
-2.2081e-12
1.14663e-12
2.06005e-12
4.16826e-13
-4.79339e-13
-1.8674e-12
)
;

boundaryField
{
    AirInlet
    {
        type            calculated;
        value           nonuniform List<scalar> 5(-2e-13 -2e-13 -2e-13 -2e-13 -2e-13);
    }
    WaterInlet
    {
        type            calculated;
        value           nonuniform List<scalar> 10(-5e-13 -5e-13 -5e-13 -5e-13 -5e-13 -5e-13 -5e-13 -5e-13 -5e-13 -5e-13);
    }
    ChannelWall
    {
        type            calculated;
        value           uniform 0;
    }
    Outlet
    {
        type            calculated;
        value           nonuniform List<scalar> 
15
(
1.83942e-12
-9.69394e-13
3.48786e-13
-2.27755e-13
1.24944e-12
-1.23526e-13
-3.79822e-13
-7.03528e-14
-4.65456e-13
-5.7368e-13
1.69185e-12
9.77264e-13
-6.94254e-13
6.50693e-14
3.33242e-12
)
;
    }
    FrontAndBack
    {
        type            empty;
        value           nonuniform 0();
    }
}


// ************************************************************************* //
