/*--------------------------------*- C++ -*----------------------------------*\
| =========                 |                                                 |
| \\      /  F ield         | OpenFOAM: The Open Source CFD Toolbox           |
|  \\    /   O peration     | Version:  2.3.0                                 |
|   \\  /    A nd           | Web:      www.OpenFOAM.org                      |
|    \\/     M anipulation  |                                                 |
\*---------------------------------------------------------------------------*/
FoamFile
{
    version     2.0;
    format      ascii;
    class       volScalarField;
    location    "1.85";
    object      alpha.water;
}
// * * * * * * * * * * * * * * * * * * * * * * * * * * * * * * * * * * * * * //

dimensions      [0 0 0 0 0 0 0];

internalField   nonuniform List<scalar> 
2268
(
0.999988
0.999988
0.999988
0.913353
0.807984
0.91758
0.994415
1
1
1
1
1
0.999994
0.999993
0.999957
0.991381
0.983621
0.983621
0.994288
0.999134
0.999143
0.999253
0.999804
0.999984
0.996866
0.796801
0.723995
0.723995
0.730951
0.983393
1
1
1
1
1
1
0.999999
0.999785
0.996743
0.991015
0.991166
0.996353
0.99758
0.997085
0.997364
0.999804
0.989881
0.84762
0.771704
0.946866
0.822505
0.714404
0.995314
1
1
1
0.999996
0.999979
0.999985
0.999996
0.999829
0.999014
0.998759
0.99867
0.99841
0.997907
0.999394
0.999548
0.999598
0.925905
0.81303
0.85088
0.99087
0.990668
0.713922
0.982714
1
1
0.99996
0.999876
0.999884
0.999978
0.999995
0.999995
0.999909
0.997821
0.997736
0.988814
0.973638
0.985944
0.994666
0.998929
0.902435
0.812226
0.969537
0.991267
0.96453
0.714252
0.789573
1
0.999989
0.999873
0.999873
0.999897
0.999995
0.999995
0.999995
0.999994
0.996805
0.969244
0.964164
0.964164
0.964451
0.984933
0.998056
0.883659
0.814158
0.991485
0.991482
0.985196
0.821073
0.762138
0.999895
0.999993
0.999897
0.999873
0.999987
0.999993
0.999995
0.999994
0.999994
0.996945
0.96894
0.964304
0.974183
0.996568
0.993239
0.997119
0.935937
0.82726
0.991482
0.991486
0.991409
0.924547
0.763049
0.988246
0.999994
0.999989
0.999986
0.999975
0.999989
0.999994
0.999994
0.99999
0.999803
0.99624
0.991449
0.99557
0.996747
0.996944
0.997051
0.98287
0.958958
0.986985
0.991409
0.991016
0.983465
0.90534
0.9901
0.999994
0.999994
0.999984
0.999827
0.999939
0.999968
0.999994
0.999989
0.999866
0.993006
0.980895
0.995999
0.996568
0.996747
0.996944
0.995069
0.995069
0.973655
0.928641
0.928641
0.938376
0.935507
0.933767
0.933131
0.932834
0.948684
0.957131
0.961259
0.910977
0.880839
0.880706
0.895757
0.916029
0.916029
0.995069
0.994018
0.943442
0.932091
0.99633
0.998986
0.996727
0.971972
0.937665
0.918132
0.910824
0.910849
0.953658
0.883122
0.880701
0.880697
0.880695
0.880853
0.896332
0.987868
0.932695
0.911877
0.962941
0.998986
0.999004
0.999013
0.999015
0.999015
0.999015
0.964191
0.94605
0.911335
0.908784
0.880722
0.880695
0.880693
0.880693
0.880693
0.972984
0.911877
0.911647
0.958915
0.998522
0.998987
0.999005
0.999013
0.999015
0.999015
0.999015
0.999014
0.995809
0.982621
0.971507
0.891371
0.880695
0.880693
0.898192
0.981147
0.911739
0.911753
0.929538
0.993589
0.998772
0.998852
0.99784
0.998932
0.999015
0.999014
0.999014
0.999014
0.992488
0.991369
0.984269
0.916485
0.942735
0.924446
0.995162
0.984329
0.973558
0.990731
0.992453
0.995738
0.95248
0.984656
0.998902
0.999001
0.999012
0.999014
0.98808
0.946854
0.948155
0.981511
0.98014
0.979402
0.931008
0.995943
0.995943
0.995678
0.995132
0.99305
0.756205
0.507811
0.656219
0.950529
0.998849
0.998997
0.999011
0.954185
0.946434
0.946479
0.962933
0.980202
0.979101
0.914266
0.995947
0.995682
0.995134
0.987321
0.762158
0.402389
0.393713
0.647417
0.870474
0.998714
0.998915
0.993887
0.946631
0.946479
0.946479
0.953246
0.981116
0.978045
0.906779
0.983463
0.984046
0.984352
0.982829
0.920891
0.999352
0.999784
0.999954
0.999994
0.994969
0.908086
0.84009
0.821252
0.79339
0.849953
0.920833
0.967328
0.983716
0.963443
0.937912
0.87866
0.889025
0.94138
0.983019
0.981432
0.958622
0.88478
0.855153
0.948644
0.965069
0.903092
0.830227
0.658898
0.565227
0.563263
0.226486
0.0864376
0.0830072
0.194152
0.306754
0.404165
0.447285
0.317434
0.229348
0.294051
0.559483
0.590178
0.509242
0.285488
0.106448
0.189187
0.405513
0.511924
0.427545
0.204185
0.142134
0.158434
0.077114
0.00159119
0.000370641
0.000467218
0.000672774
0.000861923
0.00135869
0.00136876
0.00112228
0.0357999
0.136054
0.183763
0.000275815
0.000274155
0.000270701
0.000255958
0.000460794
0.00360835
0.0174409
0.00746713
0.000599303
0.00122257
0.000973279
0.00103303
0.000346035
0.00011087
0.000148779
0.00171492
0.00453374
0.0031576
0.00115314
0.0011305
0.00115436
0.00122208
0.00157783
0.000274156
0.000271173
0.00026289
0.00024232
0.000255035
0.000427741
0.000606671
0.000461455
0.000311409
0.000801299
0.000271588
0.000262005
8.55995e-05
3.66865e-05
6.84928e-05
0.000500436
0.00740004
0.00899983
0.00501381
0.00114764
0.00114134
0.00115773
0.00121546
0.000277689
0.000315446
0.000503801
0.000241484
0.000425039
0.000412874
0.0002725
0.00016293
0.00014354
0.000475956
7.17163e-05
6.37378e-05
1.99332e-05
2.40017e-05
7.47103e-05
7.60474e-05
0.00449048
0.00899983
0.00880078
0.00114244
0.00115346
0.00190287
0.00203122
0.000496941
0.000575644
0.000463067
0.000241415
0.000821578
0.000822122
0.000243664
4.98459e-05
3.00837e-05
8.14129e-05
2.14062e-05
1.576e-05
6.55361e-06
1.42731e-05
1.62877e-05
4.68015e-05
0.00877564
0.00899983
0.00842439
0.00115289
0.00173424
0.00985734
0.00916406
0.000575644
0.00057503
0.000260194
0.000334535
0.000831796
0.000821769
0.000385285
1.78415e-05
7.74767e-06
1.05189e-05
6.72953e-06
6.25182e-06
4.38669e-06
6.62129e-06
0.00020257
0.00310963
0.00830838
0.00896252
0.00861951
0.00203814
0.00356203
0.0131121
0.0101608
0.000574642
0.000246601
0.000247691
0.000839639
0.000839472
0.00059793
0.000205279
6.31144e-06
5.34807e-06
5.45925e-06
4.61727e-06
4.36255e-06
4.11632e-06
4.36112e-06
0.00432498
0.0047758
0.00133317
0.00533953
0.00888085
0.00478816
0.00623056
0.0134486
0.00851122
0.00047904
0.000192232
0.000201961
0.000841336
0.000690188
3.90999e-06
5.5997e-06
4.69154e-06
4.48435e-06
4.33055e-06
4.18618e-06
4.1137e-06
4.14043e-06
0.0029792
0.00437215
0.00381975
0.000697331
0.00341662
0.00906375
0.0136204
0.0137026
0.0137702
0.010537
0.000777452
0.000469935
0.000205783
0.000838592
9.51701e-05
3.51521e-06
3.87235e-06
4.31972e-06
4.33074e-06
4.18821e-06
4.14061e-06
4.16114e-06
0.00329265
0.00449659
0.0035062
0.000251937
0.000402705
0.00315263
0.00558475
0.0102531
0.0136563
0.0136613
0.0137019
0.000738722
0.000776761
0.000763528
0.000613077
3.36719e-06
3.32792e-06
3.4725e-06
4.1368e-06
4.04264e-06
1.92392e-05
0.00176888
0.00420345
0.00429096
0.00194488
0.000190469
0.000198668
0.000420051
0.0015664
0.00126242
0.00361176
0.013175
0.0136557
0.00427936
3.33194e-05
0.000726061
0.000623313
0.000428512
3.36412e-06
3.51552e-06
3.87306e-06
3.78113e-06
0.000933215
0.00373106
0.00373106
0.0025977
0.000173996
0.000175835
0.000177341
0.000186296
0.000221242
0.000299728
0.000873588
0.00525821
0.00585444
0.00196536
0.00047637
2.17517e-05
0.00026223
0.000119099
6.56237e-05
4.3303e-06
8.53188e-06
2.63264e-05
0.000947337
0.00411408
0.00308333
0.000485391
0.000173616
0.000174382
0.000174107
0.000175901
0.000179435
0.0001949
0.00115468
0.00459947
0.00501868
0.00219879
0.000238056
7.6369e-05
1.82962e-05
2.88377e-06
6.11179e-06
1.47109e-05
1.14051e-05
3.00217e-05
0.000319091
0.00362769
0.00459393
0.000417346
0.00017362
0.000171024
0.000168888
0.000172831
0.000173205
0.000180617
0.000214161
0.00136766
0.00436141
0.0033645
0.000251915
7.65937e-05
7.25133e-05
0.000124191
7.9694e-07
2.24745e-06
6.25082e-06
1.45397e-05
5.10906e-05
0.00206437
0.00509231
0.0051139
0.00122696
0.000187233
0.000169397
0.000168871
0.00106822
0.00174537
0.00130641
0.0010696
0.00158958
0.0015909
0.00164312
0.00341043
0.00140659
7.68974e-05
0.000277374
2.95809e-07
7.59387e-07
2.26689e-06
8.09705e-06
0.000140745
0.00381015
0.00507743
0.00510648
0.00508053
0.00332947
0.000247956
0.000412108
0.00377865
0.00668349
0.00664296
0.00661831
0.00663212
0.00530969
0.00486653
0.00444392
0.00323819
8.72756e-05
0.000305215
1.65456e-07
2.9544e-07
7.372e-07
1.06788e-05
0.000115492
0.00212436
0.00509694
0.00509694
0.0051033
0.00283754
0.00462398
0.00658329
0.0066697
0.00667862
0.0066697
0.00663404
0.00628457
0.00384045
0.00274994
0.00199176
0.000621864
0.000343848
0.000312463
1.39705e-07
1.65343e-07
3.13604e-07
3.17266e-06
5.52715e-05
7.98042e-05
0.000979891
0.00264189
0.00287135
0.00110881
0.000778983
0.00206627
0.00336358
0.0049533
0.00564981
0.00359279
0.000379709
1.00025e-06
3.54799e-07
2.65307e-07
2.5242e-07
0.000156035
0.000310492
1.30574e-07
1.35211e-07
1.72402e-07
3.55714e-07
1.61875e-06
3.37613e-05
0.000114533
0.000207244
0.000295759
0.000325143
0.000291263
0.000221645
0.00016481
0.000215357
2.54588e-05
9.93872e-06
4.54251e-06
2.00247e-06
8.23027e-07
3.32154e-07
1.80992e-07
1.27143e-07
0.000342339
1.30574e-07
1.30575e-07
2.8092e-07
0.000169178
0.000282037
0.000319596
0.000251204
0.000163556
0.000158423
0.000370644
0.000376897
0.000309306
0.000114735
7.43105e-05
6.35844e-05
5.46545e-05
4.72032e-05
2.74963e-05
5.62034e-06
8.48743e-07
3.31522e-07
1.78804e-07
0.000412364
1.30574e-07
3.68354e-07
0.000256187
0.000318867
0.00032156
0.000318828
0.000313677
0.000156487
6.69789e-05
0.000107435
0.000214051
0.000276823
0.000277352
0.000283003
0.000283156
0.000282095
0.000281227
0.000120017
9.74355e-06
2.67786e-06
7.18584e-07
2.87568e-07
0.000412736
1.39487e-07
5.2264e-06
0.00029913
0.000309171
0.000220454
0.0001226
6.86644e-05
2.94807e-05
7.3578e-06
1.20351e-05
8.72993e-06
2.19486e-05
0.000183546
0.000277352
0.000281808
0.000283268
0.000281808
0.000272371
5.77782e-05
3.88013e-06
8.58154e-07
1.43167e-07
0.000412736
7.59055e-06
2.72211e-05
0.000127694
5.99095e-05
8.16523e-06
1.88442e-06
1.31757e-06
1.09629e-06
4.01566e-06
1.29197e-05
1.06568e-05
4.56267e-06
6.23648e-06
0.000200542
0.000276106
0.000281808
0.000248979
7.69704e-05
3.22377e-06
7.28749e-07
1.9521e-07
3.37117e-08
0.000412317
0.000151004
1.57833e-05
2.80539e-06
1.91839e-06
1.35416e-06
1.14455e-06
1.0906e-06
1.08071e-06
1.08841e-06
1.0814e-06
2.40321e-06
3.9891e-06
1.11127e-05
9.31312e-05
0.000176261
8.16297e-05
1.30365e-05
2.87878e-06
1.16274e-06
2.20551e-07
3.35751e-08
6.94311e-09
0.000411899
0.000171884
1.49478e-06
1.4846e-06
1.26384e-06
1.14863e-06
1.10087e-06
1.10069e-06
1.09049e-06
1.0811e-06
1.43784e-06
7.25657e-06
7.13349e-06
5.09845e-06
8.60046e-06
8.62084e-05
8.80571e-05
1.6892e-05
6.19389e-07
1.65351e-07
4.93158e-08
9.46208e-09
2.73749e-09
0.000411127
6.17131e-05
1.09448e-06
1.2015e-06
1.2391e-06
1.23946e-06
1.14861e-06
3.53597e-06
3.82763e-06
1.11849e-06
1.38313e-06
1.54566e-06
1.53458e-06
1.52828e-06
2.59963e-06
3.38356e-05
7.49162e-05
5.8241e-05
5.57587e-06
7.08478e-08
1.29989e-08
3.15335e-09
1.23566e-09
0.000407257
1.98907e-06
1.0071e-06
1.09728e-06
1.21132e-06
1.23499e-06
4.34935e-05
6.57819e-05
4.21547e-05
6.44005e-06
1.63514e-06
1.55051e-06
1.52451e-06
1.53458e-06
1.55823e-06
5.33142e-06
2.97819e-05
1.51476e-05
1.34583e-06
1.49403e-07
7.5875e-09
1.25816e-09
7.92091e-10
0.000121237
1.01368e-06
9.90382e-07
9.98939e-07
1.34107e-06
3.64743e-05
6.58319e-05
6.58193e-05
6.57819e-05
6.44518e-05
1.23948e-05
2.10004e-06
1.54997e-06
1.55931e-06
1.59067e-06
1.59434e-06
1.63273e-06
2.15792e-06
5.65667e-07
4.64114e-07
1.03606e-07
7.92202e-10
6.0086e-10
1.42352e-06
9.90382e-07
9.81476e-07
9.89677e-07
1.28514e-06
3.7952e-05
6.58051e-05
6.58512e-05
6.5533e-05
6.39743e-05
6.05221e-05
2.96136e-05
1.64669e-06
1.6127e-06
1.59578e-06
1.6307e-06
4.73537e-06
5.47991e-06
5.01963e-06
1.25955e-08
5.89415e-08
6.38668e-09
5.5639e-10
2.30705e-05
9.80236e-07
9.83972e-07
9.84883e-07
1.35676e-06
9.96796e-06
2.27525e-05
9.54754e-06
4.2279e-06
1.81273e-05
3.66027e-05
4.42581e-05
4.57348e-06
1.70444e-06
2.92165e-06
1.7663e-06
1.54086e-06
3.61932e-06
1.73932e-06
6.76866e-09
6.10184e-09
1.95309e-09
9.45184e-10
0.000114015
1.97065e-05
9.83972e-07
1.01289e-06
1.08645e-06
1.10641e-06
1.31266e-06
1.60834e-06
1.78031e-06
2.91915e-06
5.7848e-06
2.8322e-05
5.41216e-05
1.76933e-05
5.01418e-06
5.07535e-06
1.47729e-06
7.1669e-09
3.88465e-09
3.39285e-07
8.82989e-08
8.39527e-10
7.10435e-10
0.000115886
0.00011118
2.72527e-05
9.4263e-07
1.11457e-06
1.21486e-06
1.31639e-06
1.44515e-06
3.62024e-05
4.11253e-05
1.41193e-05
1.59881e-05
8.40233e-05
5.54272e-05
3.71713e-06
2.62147e-06
3.87443e-06
5.63724e-07
1.51804e-09
1.54271e-09
1.73784e-08
1.74984e-08
4.29198e-09
0.000115886
0.000115886
7.82942e-05
1.30779e-06
1.21907e-06
1.28979e-06
1.33514e-06
0.000194384
0.00043673
0.000418283
0.000134555
1.81909e-05
8.96398e-05
6.87538e-05
4.40956e-06
8.48408e-07
3.11373e-06
1.29879e-06
3.70013e-09
1.19174e-09
2.30413e-09
2.29886e-09
5.32106e-10
0.000115886
9.90052e-05
1.79344e-05
3.66252e-06
1.42045e-06
0.000231416
0.000462661
0.000454732
0.000444702
0.000430964
0.000231685
3.37211e-05
9.02337e-05
7.45398e-05
1.0967e-05
2.41931e-07
1.38177e-07
3.70451e-07
8.31174e-08
1.2264e-10
4.36779e-11
7.98855e-12
6.81208e-12
3.75237e-05
2.62057e-05
1.96831e-05
8.77899e-05
0.000416551
0.000466961
0.000463348
0.0001911
7.59583e-06
3.66374e-07
8.38442e-08
6.31717e-05
9.44563e-05
9.33751e-05
3.20558e-05
1.81934e-07
1.48505e-08
2.5115e-09
1.69553e-09
1.90731e-09
1.26634e-09
2.21399e-10
1.06554e-11
5.01328e-07
7.82715e-05
0.000273562
0.000468683
0.000468683
0.000468674
9.37617e-05
1.2454e-06
1.85219e-07
4.59741e-08
1.06433e-08
7.76913e-08
5.15358e-05
9.20119e-05
1.6906e-05
1.6016e-07
1.46116e-08
2.06606e-09
1.13616e-09
1.86089e-09
1.39671e-09
2.60955e-10
8.9584e-12
1.45451e-07
0.000128212
0.000464184
0.000466433
0.000459535
9.84357e-05
7.90915e-07
9.89533e-08
-1.83492e-08
-2.14517e-09
1.36627e-09
1.06432e-08
2.72558e-05
2.73024e-05
6.50426e-06
6.33905e-08
5.69341e-09
1.1004e-09
7.48061e-10
1.62207e-09
1.06208e-09
1.40743e-10
6.56685e-12
8.70656e-08
6.21939e-05
0.000249361
0.000248575
8.39772e-05
1.62695e-06
1.1543e-09
-1.49001e-09
-4.21177e-10
-8.19489e-10
6.22143e-10
2.2314e-08
1.83611e-06
6.61972e-07
2.57633e-07
2.02361e-07
9.12441e-09
7.00023e-10
5.94045e-10
6.05351e-10
3.44706e-10
3.66772e-11
7.37941e-12
4.68705e-08
2.09269e-06
3.69117e-06
1.76546e-06
3.41318e-07
3.37073e-09
-4.22673e-10
-6.15096e-10
-5.20182e-11
-7.52357e-12
4.31307e-11
6.2189e-10
3.35259e-09
7.59258e-05
3.07167e-05
2.54098e-07
1.1669e-08
6.72597e-10
1.08172e-10
7.01476e-11
2.33955e-11
8.30253e-12
1.6858e-12
1.60519e-08
2.0535e-08
2.00942e-07
6.05823e-08
2.9018e-09
-1.03844e-11
-8.84763e-11
-2.77282e-12
-5.21389e-11
-3.68519e-11
2.09354e-10
2.33556e-09
5.54627e-05
0.000102522
8.81741e-05
2.90008e-06
1.04173e-08
3.56715e-10
1.27269e-11
1.65895e-12
1.45646e-12
2.06757e-13
2.37349e-13
8.7072e-09
8.70849e-09
6.28865e-08
2.845e-09
6.30417e-11
8.04022e-13
3.38938e-13
6.87322e-14
-2.72078e-11
-3.42665e-11
-2.05553e-10
5.94816e-05
0.000102284
0.000103628
2.37679e-05
8.48585e-07
1.53232e-08
1.57888e-10
1.91749e-12
4.26683e-13
9.47582e-15
1.70323e-14
5.06864e-14
0.939118
0.936344
0.929403
0.908333
0.786002
0.855691
0.429673
0.0747555
0.172885
0.083159
0.0270629
0.0114099
0.00123888
0.000771358
0.00101711
0.000937865
0.00100743
0.000988868
0.000960453
0.000956863
0.000980246
0.000990218
0.001005
0.000988205
0.000980205
0.00099239
0.00100406
0.00100994
0.00114548
0.000996689
0.00099803
0.000978375
0.00099669
0.000996694
0.000981104
0.000973233
0.00101446
0.000996689
0.00100184
0.00106933
0.0137018
0.0135054
0.0140416
0.0127788
0.00174347
0.00474861
0.0054741
0.00304031
7.59392e-05
7.32767e-05
7.3117e-05
7.35373e-05
7.29933e-05
7.31201e-05
7.31201e-05
7.31201e-05
7.2979e-05
7.33665e-05
7.31201e-05
7.3406e-05
7.3815e-05
7.3557e-05
7.3406e-05
8.75482e-05
0.000106103
0.000214592
0.000291586
0.000951023
0.000346834
0.000667894
0.000814692
0.000868371
0.000126442
1.00656e-07
1.03022e-07
1.00347e-06
1.1003e-07
1.08768e-07
1.08773e-07
6.22608e-08
1.27369e-07
1.05882e-07
1.05407e-07
-6.66081e-07
1.10079e-07
6.10369e-08
1.1011e-07
-3.55635e-07
3.41587e-08
2.05814e-08
4.31982e-08
0.000265726
6.60282e-09
1.73151e-08
2.26456e-05
0.00272726
2.87413e-09
7.41637e-09
0.00125583
0.00308159
1.41542e-09
2.99251e-09
0.00205628
0.00308421
8.0332e-10
3.65085e-10
0.000457115
0.0012902
5.99609e-10
-8.2302e-10
3.30361e-05
1.00987e-06
5.54342e-10
1.58389e-10
5.00506e-09
9.44667e-07
5.09714e-10
2.44398e-10
3.41305e-11
4.77515e-08
5.86984e-10
2.95934e-10
3.67279e-12
-2.28472e-12
1.50908e-10
1.23936e-11
-9.74182e-11
-2.3354e-10
3.55015e-11
2.46762e-11
4.20252e-12
-1.49535e-12
8.96847e-12
6.61297e-12
7.28957e-12
3.16811e-12
5.80795e-12
4.13568e-12
3.78464e-12
2.93059e-12
7.53787e-12
3.84713e-12
3.11126e-12
3.18214e-12
5.82242e-12
2.4076e-12
1.68987e-12
2.48503e-12
3.56325e-12
1.20994e-12
6.65905e-13
8.11602e-13
1.89864e-12
5.39894e-13
2.43182e-13
3.29688e-13
5.57526e-13
1.86579e-13
5.74254e-14
5.50343e-14
1.38879e-13
5.45443e-14
1.16383e-14
4.08764e-15
2.46777e-14
8.82967e-15
1.32176e-15
1.11403e-16
0.832623
0.733691
0.665634
0.493421
0.260843
0.737148
0.964799
0.97913
0.983181
0.998177
0.998227
0.996389
0.980337
0.946631
0.950846
0.981116
0.981189
0.930545
0.906779
0.0672822
0.0664351
0.0843093
0.0888847
0.102869
0.284279
0.538004
0.665051
0.857948
0.996943
0.996303
0.996179
0.994977
0.972257
0.927916
0.974257
0.981189
0.966918
0.906779
0.0740723
0.15895
0.165414
0.166065
0.169138
0.175788
0.0386461
0.00193561
0.128315
0.579714
0.913461
0.994338
0.994288
0.980758
0.927916
0.929924
0.981179
0.981327
0.951174
0.00348496
0.00111147
0.0560477
0.155052
0.163711
0.0613292
0.00152741
0.00139966
0.001428
0.00150074
0.182049
0.594682
0.869864
0.967475
0.967401
0.966258
0.964088
0.981356
0.981334
0.000989281
0.00103523
0.00109515
0.00139832
0.0116239
0.00171385
0.00140382
0.00139574
0.00140382
0.00139784
0.00139619
0.00183614
0.139801
0.42993
0.727703
0.954133
0.98138
0.981357
0.98138
0.000960366
0.000982167
0.00105109
0.00212608
0.00179029
0.0014114
0.00139574
0.00139574
0.00139574
0.00140504
0.00141591
0.00149567
0.00189432
0.00239086
0.00614126
0.156342
0.515728
0.95828
0.981255
0.00101355
0.000989418
0.00100276
0.00117464
0.00151334
0.00140031
0.00139803
0.00139574
0.00140245
0.00141614
0.00151191
0.00439335
0.00264331
0.00332592
0.00551296
0.00604398
0.028645
0.512398
0.977826
0.000992597
0.00101143
0.00101651
0.001024
0.00153861
0.00141626
0.00140031
0.00140273
0.00273024
0.00154434
0.00363947
0.0149423
0.0169889
0.0229194
0.0326717
0.00977772
0.010197
0.0302159
0.974887
0.000958903
0.00136968
0.0010285
0.00193401
0.00530833
0.00492158
0.00239985
0.00316637
0.00556141
0.00557176
0.00689732
0.00950455
0.0164698
0.0341145
0.0349336
0.0348586
0.0113615
0.0434471
0.772804
0.00144735
0.00135929
0.00194076
0.00532142
0.00534223
0.00534901
0.00538179
0.00541766
0.00549796
0.00556195
0.00452711
0.000119487
3.29361e-06
0.00272826
0.0348125
0.034906
0.0266384
0.0424441
0.108209
0.00784077
0.0015247
0.00470511
0.00522286
0.00501484
0.00415213
0.00386909
0.00364987
0.00332252
0.00237534
9.24563e-05
1.3506e-06
2.16367e-06
1.11573e-05
0.0201581
0.0348125
0.034797
0.0323532
0.00783215
0.00261337
0.00402075
0.00427585
0.0038332
0.000347635
3.00196e-06
2.27857e-05
8.93437e-06
2.66838e-06
1.91587e-06
1.32179e-06
7.12027e-07
8.38323e-07
4.41281e-05
0.0180104
0.0347632
0.0346395
0.0222826
0.00778638
7.56752e-05
8.54189e-05
0.000619782
3.00757e-06
2.98375e-06
3.00252e-06
1.49451e-05
0.000637708
1.60312e-05
2.07437e-06
7.27044e-07
7.27044e-07
7.25995e-07
7.76633e-07
0.00782423
0.031636
0.0275272
0.00778294
0.00778393
7.35422e-05
6.29111e-05
2.38917e-05
4.59919e-06
3.25282e-06
2.99714e-06
0.00012715
0.000787069
0.000186646
0.000208538
1.08224e-05
7.25962e-07
8.34255e-07
8.84296e-07
0.00147265
0.00935819
0.0117727
0.00788624
0.00778638
7.44145e-05
0.00076422
0.000621574
0.000184276
1.14544e-05
2.10946e-06
1.28986e-05
0.000373355
0.00110276
0.00150017
0.000870644
1.82485e-05
9.3422e-07
4.55883e-06
8.14988e-06
0.00211176
0.018138
0.0181824
0.0101528
0.000633184
0.00106888
0.00106888
0.000681636
1.6559e-05
8.22841e-07
4.389e-07
4.389e-07
0.00134092
0.00151854
0.00151382
0.000421728
4.53014e-06
8.22175e-06
8.02104e-06
1.03837e-05
0.0104591
0.0182424
0.0182414
0.00104073
0.00105871
0.00106888
0.000495813
9.68298e-06
1.62612e-06
5.6458e-07
4.373e-07
0.000117704
0.00145845
0.00151854
0.00109391
3.86157e-05
7.97342e-06
6.96247e-06
6.36004e-06
5.98287e-06
0.0152531
0.0182646
0.000979929
0.000809665
0.000278213
2.18116e-05
7.40745e-06
2.22314e-06
8.33368e-07
4.98245e-07
5.74163e-07
0.000301905
0.00150527
0.00143845
0.000217257
6.92254e-06
5.76253e-06
5.55288e-06
5.6784e-06
0.0110873
0.0182878
7.67158e-06
3.27278e-05
6.10136e-05
5.24759e-05
2.38581e-05
9.67861e-06
6.78629e-06
8.80687e-07
5.59197e-07
5.75237e-07
0.0011563
0.00141926
0.000403402
5.21429e-06
4.01117e-06
5.02845e-06
5.34072e-06
0.00563767
0.0182878
8.96757e-07
1.87976e-05
7.50404e-05
0.000121541
0.000129403
0.0001382
4.13344e-05
1.58201e-06
6.95636e-07
5.59716e-07
0.000431423
0.00107391
0.000258206
3.6077e-06
2.7515e-06
4.16199e-06
4.59463e-06
0.000675368
0.0111963
5.02133e-06
0.000295228
0.00132291
0.00189853
0.00136756
0.000276189
8.72784e-06
1.868e-06
7.47256e-07
5.84888e-07
0.000206352
0.000195915
7.19619e-05
2.74398e-06
2.23053e-06
2.04594e-06
9.21259e-06
7.39091e-06
0.000160304
0.000564345
0.00258786
0.00279094
0.00266111
0.00173404
7.89588e-05
4.3117e-06
1.08989e-06
5.84889e-07
5.3771e-07
0.00012282
0.00106139
0.000245618
2.70659e-06
2.0066e-06
2.04621e-06
4.59357e-06
4.82993e-06
2.9354e-06
0.00306257
0.0030123
0.00294104
0.0018576
0.000292992
9.16065e-06
1.76735e-06
6.78782e-07
5.43817e-07
5.52764e-07
0.000524699
0.00117916
0.000642002
6.15649e-06
2.01032e-06
2.02207e-06
2.069e-06
5.72193e-06
8.6234e-07
0.00308356
0.00305963
0.00113119
0.000242463
0.00015382
4.03026e-05
8.89564e-06
1.66315e-06
6.78298e-07
5.37876e-07
0.000586703
0.00120331
0.000832088
1.83359e-05
2.04421e-06
1.99826e-06
5.70518e-06
6.20665e-06
4.41676e-07
0.00308356
0.00105994
0.000506741
0.000268919
0.000335933
0.00131298
0.00084137
6.28747e-05
2.29518e-06
7.19163e-07
0.000595032
0.00123059
0.000832185
1.76528e-05
2.01745e-06
2.01856e-06
8.00596e-06
5.55683e-06
2.4889e-07
0.00297905
0.00125287
0.00148709
0.00272005
0.00306581
0.00375763
0.00387558
0.00196224
2.64085e-05
2.73895e-06
0.000751594
0.00125282
0.000789721
1.19993e-05
2.97859e-06
3.81352e-06
8.01054e-06
1.78561e-06
1.22825e-07
0.000437044
0.0031031
0.00339893
0.00357415
0.00374144
0.00387523
0.00393555
0.00391153
0.000943655
1.50932e-05
0.000915739
0.00126278
0.000712799
6.87489e-06
3.97659e-06
1.53091e-05
6.66445e-06
6.422e-08
3.05904e-08
1.50374e-07
0.000806153
0.00176215
0.00175011
0.00190044
0.00251219
0.00371663
0.00393555
0.00321407
0.000455039
0.00111269
0.00126263
0.000500972
1.13895e-05
1.50802e-05
1.52439e-05
1.62696e-06
2.15233e-08
1.92205e-08
1.06047e-07
1.39434e-09
2.35177e-09
3.76116e-07
2.91775e-06
3.54602e-06
0.00027364
0.00284288
0.00361451
0.00361247
0.00167008
0.00109425
0.00013472
1.41123e-05
1.6024e-05
7.48254e-06
2.37437e-08
1.92207e-08
1.89132e-08
1.29447e-08
3.14189e-13
1.17886e-09
6.49935e-10
3.76078e-07
1.66624e-06
1.71531e-06
1.51568e-06
0.00155587
0.00157309
0.000533375
0.000138328
7.53975e-06
1.40958e-05
1.17589e-05
9.32717e-08
3.04174e-08
2.63676e-08
1.8913e-08
-1.30587e-10
-1.23693e-10
6.24067e-14
1.4477e-06
4.13048e-05
2.54603e-05
1.0823e-06
2.29318e-07
1.24856e-06
2.35904e-06
3.87775e-06
1.33651e-06
6.92581e-07
2.9697e-06
5.00137e-07
2.78139e-08
6.06938e-08
1.09681e-07
5.80921e-08
-2.12908e-10
-9.98739e-11
1.30219e-13
1.44816e-05
0.000115594
0.000110514
2.29328e-07
4.64316e-09
9.6003e-07
1.28163e-07
9.39322e-08
2.98515e-07
9.00559e-08
4.31432e-08
1.84215e-08
1.18027e-08
1.08893e-07
1.12469e-07
1.11952e-07
1.25325e-10
-2.08617e-13
5.02714e-13
1.95599e-05
0.000116015
0.000113657
2.41741e-05
3.47635e-11
5.16362e-10
6.40005e-09
1.11402e-08
2.17257e-08
8.82317e-09
4.67829e-09
2.24763e-09
6.4836e-09
1.04621e-07
1.12378e-07
7.80937e-08
3.59943e-10
2.97329e-11
-1.30669e-10
1.38218e-06
7.04802e-05
0.000106285
1.26783e-05
2.74716e-11
4.48969e-11
1.9532e-09
6.15319e-10
1.42566e-09
7.33225e-10
4.81968e-10
4.10331e-10
1.75525e-09
3.71179e-08
9.4767e-08
5.97707e-09
4.01676e-10
1.26091e-09
9.57114e-11
5.23123e-10
5.79279e-09
3.05173e-06
6.93419e-06
2.3546e-11
2.24919e-11
9.33782e-11
5.96047e-11
1.04472e-10
1.0054e-10
1.00929e-10
1.56466e-10
5.73076e-10
6.05743e-10
9.07423e-09
1.11342e-10
2.29763e-10
5.10086e-10
1.51039e-10
1.43737e-10
6.96429e-10
4.88955e-09
5.89259e-11
1.34579e-11
1.5845e-11
2.84712e-11
3.54882e-11
2.64364e-11
3.12124e-11
5.0541e-11
1.02741e-10
1.83148e-10
5.59985e-11
9.85852e-11
5.14951e-11
2.83238e-11
7.21408e-11
6.27925e-12
5.25977e-11
1.65834e-07
3.75954e-07
3.5578e-07
6.90141e-12
6.10524e-12
2.59087e-11
2.66648e-11
2.03915e-11
2.33636e-11
2.6046e-11
4.05567e-11
5.1349e-11
3.36896e-11
2.81947e-11
2.70155e-11
1.25679e-12
2.43469e-12
3.92766e-12
2.94829e-12
5.51396e-12
9.37217e-08
1.70715e-07
7.0831e-08
5.46861e-12
1.88958e-11
1.84906e-11
1.55778e-11
1.69641e-11
1.90286e-11
2.07245e-11
2.41423e-11
1.72053e-11
1.45467e-11
2.3649e-11
7.97676e-13
2.34816e-12
4.25773e-12
4.61926e-12
4.73054e-12
4.87515e-12
5.20335e-12
2.39064e-09
5.3559e-12
1.1948e-11
1.08938e-11
8.5989e-12
9.11528e-12
1.01903e-11
1.17843e-11
1.41476e-11
1.08427e-11
1.2747e-11
1.46896e-11
1.66576e-13
7.36881e-13
2.11729e-12
4.47287e-12
7.21921e-12
9.03793e-12
5.27023e-12
5.16241e-12
5.16171e-12
6.45021e-12
5.61552e-12
4.33347e-12
4.51164e-12
4.98661e-12
5.59586e-12
6.66072e-12
5.02027e-12
6.11505e-12
8.95114e-12
1.66307e-14
1.35364e-13
6.16826e-13
1.74228e-12
3.42155e-12
5.46781e-12
9.27855e-12
6.70974e-12
2.76569e-12
2.9874e-12
2.53909e-12
1.97805e-12
2.05888e-12
2.27134e-12
2.44402e-12
2.85183e-12
2.15366e-12
3.01741e-12
5.23763e-12
1.53393e-16
3.13656e-15
3.4692e-14
2.00645e-13
6.01661e-13
1.23848e-12
2.1592e-12
3.21689e-12
1.20529e-12
1.21167e-12
1.02721e-12
8.16358e-13
8.64964e-13
9.7255e-13
1.00256e-12
1.13133e-12
8.62282e-13
1.52549e-12
2.89824e-12
)
;

boundaryField
{
    leftWall
    {
        type            zeroGradient;
    }
    rightWall
    {
        type            zeroGradient;
    }
    lowerWall
    {
        type            zeroGradient;
    }
    atmosphere
    {
        type            inletOutlet;
        inletValue      uniform 0;
        value           nonuniform List<scalar> 
46
(
8.7072e-09
8.70849e-09
6.28865e-08
2.845e-09
6.30417e-11
0
0
0
0
0
0
0
0.000102284
0.000103628
2.37679e-05
8.48585e-07
1.53232e-08
1.57888e-10
1.91749e-12
0
0
0
0
0
0
0
0
0
0
0
0
0
0
0
0
0
1.21167e-12
1.02721e-12
8.16358e-13
8.64964e-13
9.7255e-13
1.00256e-12
1.13133e-12
8.62282e-13
1.52549e-12
2.89824e-12
)
;
    }
    defaultFaces
    {
        type            empty;
    }
}


// ************************************************************************* //
