/*--------------------------------*- C++ -*----------------------------------*\
| =========                 |                                                 |
| \\      /  F ield         | OpenFOAM: The Open Source CFD Toolbox           |
|  \\    /   O peration     | Version:  2.3.0                                 |
|   \\  /    A nd           | Web:      www.OpenFOAM.org                      |
|    \\/     M anipulation  |                                                 |
\*---------------------------------------------------------------------------*/
FoamFile
{
    version     2.0;
    format      ascii;
    class       volScalarField;
    location    "1.85";
    object      p_rgh;
}
// * * * * * * * * * * * * * * * * * * * * * * * * * * * * * * * * * * * * * //

dimensions      [1 -1 -2 0 0 0 0];

internalField   nonuniform List<scalar> 
2268
(
726.047
719.496
716.523
708.648
685.211
682.82
710.121
702.059
693.457
683.045
671.148
660.909
653.026
646.904
642.753
640.678
638.567
636.372
636.645
638.678
642.53
648.409
652.585
726.068
718.257
704.265
697.579
676.067
665.377
709.597
701.781
692.774
682.901
670.929
660.377
652.387
646.379
642.618
641.038
638.624
635.585
635.885
637.839
641.366
647.029
652.199
727.058
700.334
699.713
720.117
679.732
652.585
707.904
701.464
693.196
683.546
670.491
659.065
650.993
645.188
641.441
640.499
639.408
637.34
636.553
637.475
640.833
646.283
652.026
719.209
691.486
706.342
726.581
704.927
642.358
700.855
702.317
694.031
684.08
669.859
657.589
649.211
643.365
639.382
639.178
638.755
637.9
635.188
632.242
637.388
644.811
652.5
717.475
685.749
725.815
724.634
699.433
637.499
650.822
705.638
696.625
684.907
669.418
656.438
646.935
640.142
636.011
637.174
637.769
631.633
629.347
628.403
630.376
641.647
653.475
714.557
679.162
724.703
724.027
714.427
668.722
640.608
711.629
700.348
686.136
669.633
655.719
643.868
634.803
632.143
635.078
637.5
632.805
628.73
627.92
635.265
642.112
655.345
734.751
679.385
721.208
726.589
728.707
709.626
642.964
714.887
704.627
687.829
670.938
655.128
640.049
628.183
626.084
632.386
638.26
643.984
638.861
630.783
631.04
642.757
660.404
757.07
733.352
719.111
731.899
739.594
740.527
705.165
722.119
708.967
690.264
672.461
654.523
635.828
621.803
622.196
630.006
638.239
645.259
637.154
630.401
629.123
644.667
667.857
624.484
623.64
609.477
586.648
600.959
647.662
698.108
738.021
774.268
815.307
860.128
898.793
929.528
949.033
961.639
970.552
983.251
993.606
1004.99
625.283
623.264
601.657
572.165
591.754
646.881
700.541
739.203
772.378
812.081
857.116
895.953
929.285
946.636
960.786
969.734
982.918
990.432
1003.42
627.072
614.969
587.876
564.815
586.328
645.187
699.779
740.131
776.611
818.544
861.414
899.374
924.859
947.921
959.454
969.907
983.896
992.454
1002.99
624.49
609.044
582.055
561.416
586.758
643.823
695.8
733.014
772.599
818.459
867.601
909.075
939.043
959.338
973.957
970.863
984.496
996.493
1009.77
624.698
606.368
582.703
560.539
590.937
637.527
676.626
716.269
765.052
822.8
872.609
911.685
940.001
959.58
976.049
990.437
992.244
1015.84
1022.68
625.256
625.153
604.032
588.045
600.681
625.3
622.237
662.436
747.563
830.468
882.666
917.292
937.974
943.482
959.149
986.642
1009.51
1031.35
1032.63
625.462
629.086
616.353
599.097
618.539
546.615
450.573
519.7
714.381
838.19
893.631
924.29
928.393
941.155
954.21
976.169
1007.7
1034.33
1032.32
610.249
620.326
615.559
597.761
532.787
416.42
401.371
516.6
683.918
844.372
898.736
927.722
926.751
937.926
948.461
967.569
1005.63
1035.13
1032.39
763.331
753.165
730.144
735.858
721.577
762.675
755.469
735.63
714.709
691.551
630.53
580.209
546.058
511.289
537.814
586.081
622.798
643.281
638.063
609.401
565.977
590.36
647.62
772.146
763.491
728.322
671.349
665.855
739.054
747.102
688.789
619.639
494.832
430.112
418.151
172.953
69.1339
64.5195
143.376
226.032
298.278
332.18
237.868
160.854
212.556
422.303
501.457
432.859
242.808
92.0333
162.624
346.084
437.998
365.725
175.631
121.271
131.638
65.6893
5.937
4.54571
3.77956
3.43042
4.94432
7.79931
9.13164
8.85969
36.7415
120.105
159.851
2.34894
2.31365
2.22485
2.27741
2.78319
5.8986
19.2203
9.97542
3.41007
3.32644
1.74135
1.78733
2.08102
1.96649
1.78019
3.29253
7.38152
9.3887
8.84779
8.56873
8.3234
8.23076
8.31145
2.36089
2.28862
2.29526
2.38977
2.53577
2.75819
2.97972
2.92548
2.82303
3.21464
2.29177
1.88976
1.4527
1.22493
1.19535
1.82278
9.84266
14.8276
12.5715
8.35335
8.21638
8.24641
8.17614
2.35282
2.32756
2.52685
2.32916
2.69848
2.77243
2.59134
2.49607
2.46226
2.79993
2.18229
1.83714
1.38333
1.16333
1.21983
1.37498
7.11748
15.2994
17.0784
8.29741
8.30552
9.17628
8.98869
2.60942
2.66885
2.50728
2.28903
3.10108
3.15962
2.38405
2.18512
2.18024
2.20812
2.01218
1.74526
1.42912
1.25848
1.27612
1.50575
13.2693
15.921
16.9698
8.0617
8.9287
19.1112
17.3087
2.71526
2.68919
2.23072
2.37193
3.00636
2.8916
2.27222
1.90356
2.00477
2.02154
1.93922
1.7674
1.57405
1.45367
1.72562
5.94341
13.7786
16.0353
16.9923
8.96341
11.2464
24.0368
18.6776
2.71982
2.19652
2.1739
3.0936
2.92868
2.36439
1.79884
1.72282
1.916
2.00839
1.9881
1.881
1.76021
1.65804
8.17877
8.84826
3.64249
10.3071
16.9215
12.7568
15.0011
25.2587
17.0384
2.5805
2.09428
2.08771
3.12823
2.66139
1.39402
1.45543
1.68906
1.93786
2.09761
2.1268
2.02101
1.91506
6.66202
8.62083
7.46499
2.35433
7.02622
17.1325
26.539
26.661
26.2928
21.1787
3.09006
2.54641
2.09359
3.19602
1.68164
1.44795
1.52336
1.76304
2.05031
2.23171
2.25258
2.14249
7.79897
9.45725
7.2391
1.28698
1.58528
6.49933
11.1805
20.2318
26.5413
26.5457
26.433
2.97233
3.06435
3.13693
2.85754
1.56629
1.51363
1.60002
1.85128
2.15088
2.3327
5.58506
9.91894
9.53238
4.71267
1.15471
1.10008
1.52691
3.74445
3.23587
7.75247
26.4489
27.6546
9.27374
1.53448
2.90843
2.88206
2.53067
1.59197
1.54425
1.60164
1.81604
3.96904
9.60874
9.07984
6.39576
1.32155
1.20259
1.10482
1.09171
1.19676
1.4169
2.52657
11.2567
13.1752
5.32054
1.95149
1.49805
1.97908
1.80903
1.73808
1.5611
1.49082
1.52989
3.64841
10.545
7.79696
1.87623
1.16844
1.21214
1.18384
1.17689
1.21117
1.2797
3.35556
10.6106
11.4626
5.7894
1.68671
1.13098
1.51203
1.45504
1.5161
1.55135
1.47474
1.35447
1.92472
9.47602
11.6081
1.75872
1.09183
1.08258
1.08921
1.14266
1.24286
1.35536
1.46393
4.01881
10.7453
8.49351
1.47605
1.14372
1.03063
1.76512
1.43745
1.42107
1.41424
1.32667
1.10532
5.60741
12.7388
12.8296
3.54029
1.067
0.957923
0.918601
3.14335
4.94924
4.08575
3.59049
4.76564
4.65075
4.68833
8.92061
4.17864
0.982407
2.09026
1.34448
1.27805
1.2303
1.10366
0.944324
9.48291
12.147
12.3377
12.7484
8.74983
0.976178
1.26833
9.60775
17.0002
17.1382
17.2216
17.2221
13.7363
12.5728
11.6667
8.86784
0.989412
2.05934
1.19652
1.11107
1.02679
0.890374
0.666659
5.05924
12.1574
12.0856
12.5897
7.02584
11.9472
16.9139
16.6716
16.5013
16.6974
16.834
16.104
9.73201
7.02012
5.35575
2.06791
1.5852
1.96191
1.03523
0.956784
0.864624
0.730483
0.506702
-0.159333
1.59922
5.80367
6.59933
2.22221
1.3123
4.46728
7.78174
12.0503
14.0928
8.62511
0.0638979
-0.688485
-0.439599
-0.111198
0.239137
0.954381
1.84785
0.889909
0.833853
0.763766
0.683058
0.458132
0.0678522
-0.251811
-0.355415
-0.158659
0.0689129
-0.0721456
-0.562852
-0.98329
-0.978293
-1.48936
-1.27626
-0.951608
-0.670297
-0.409874
-0.106387
0.210696
0.469049
1.85329
0.766895
0.731728
0.705776
1.16658
1.3673
1.19558
0.655709
0.1425
-0.0039585
0.574737
0.47726
0.0590868
-0.744964
-1.00515
-1.04654
-0.929007
-0.693748
-0.469799
-0.261373
0.00707754
0.283767
0.518852
1.99607
0.657131
0.624698
1.42207
1.57148
1.47685
1.31801
1.13043
0.476986
0.0670923
0.0846808
0.279803
0.283799
0.0764145
-0.0569819
-0.0928942
0.00602635
0.218653
-0.0247208
-0.107609
0.132443
0.377993
0.59706
1.93445
0.56232
0.552092
1.48396
1.47938
1.12863
0.736434
0.471454
0.238089
0.0471099
-0.0717255
-0.228025
-0.358546
-0.0137474
0.133825
0.0748923
0.133495
0.298075
0.510979
0.0698085
0.15158
0.383677
0.59374
1.89047
0.514996
0.57524
0.879785
0.618492
0.413922
0.359752
0.307197
0.229453
0.136353
0.0369684
-0.125087
-0.319562
-0.490103
0.0117327
0.166416
0.190763
0.20362
-0.177034
-0.183056
0.0535564
0.27487
0.463363
1.85837
0.94567
0.488419
0.418501
0.388136
0.364804
0.341823
0.307525
0.245535
0.15554
0.0359461
-0.104939
-0.264305
-0.408091
-0.273747
-0.091539
-0.448501
-0.613217
-0.490945
-0.292669
-0.0883528
0.0920196
0.222102
1.8279
0.950868
0.353508
0.340836
0.316394
0.294861
0.275046
0.245862
0.195817
0.12049
0.0194887
-0.087308
-0.234411
-0.394056
-0.522931
-0.348747
-0.380432
-0.590637
-0.531066
-0.375379
-0.219131
-0.099486
-0.0582643
1.79761
0.464035
0.247361
0.228877
0.201627
0.173582
0.147169
0.125384
0.0853767
0.0194753
-0.0543104
-0.150002
-0.262486
-0.381668
-0.492818
-0.47133
-0.360062
-0.396311
-0.506116
-0.408458
-0.295523
-0.226213
-0.24904
1.75682
0.152738
0.13424
0.0950512
0.0476804
-0.00445375
0.110562
0.155457
0.0327103
-0.131654
-0.180285
-0.224602
-0.284653
-0.355912
-0.431484
-0.484339
-0.425633
-0.471836
-0.457554
-0.375672
-0.292158
-0.24424
-0.266907
0.577114
0.0642514
0.0176857
-0.0513649
-0.133556
-0.0879415
-0.061595
-0.123201
-0.14167
-0.128276
-0.301519
-0.314589
-0.309933
-0.324498
-0.35254
-0.382912
-0.399959
-0.386792
-0.347625
-0.289825
-0.225515
-0.18151
-0.173128
0.0316362
-0.0139339
-0.0887328
-0.187486
-0.306638
-0.293658
-0.30589
-0.381978
-0.388885
-0.332366
-0.245309
-0.275781
-0.322783
-0.286514
-0.274546
-0.273191
-0.256915
-0.237954
-0.207273
-0.184723
-0.140598
-0.101755
-0.0781023
0.083161
-0.0715701
-0.16132
-0.278053
-0.414052
-0.529137
-0.605549
-0.733122
-0.741064
-0.593215
-0.381927
-0.218752
-0.289836
-0.238446
-0.198522
-0.186235
-0.17447
-0.148916
-0.132731
-0.110138
-0.0781105
-0.0494127
-0.0278653
0.47581
-0.01344
-0.18242
-0.298511
-0.429486
-0.565735
-0.676355
-0.726496
-0.702097
-0.601143
-0.454505
-0.227237
-0.014533
-0.109597
-0.125986
-0.103459
-0.105906
-0.100136
-0.0846849
-0.0640264
-0.0433486
-0.0232748
-0.00548158
0.511667
0.418749
-0.032323
-0.247056
-0.35033
-0.45166
-0.532629
-0.569314
-0.39399
-0.29304
-0.309841
-0.198892
0.193297
0.121063
-0.0783275
-0.0612151
-0.043608
-0.0513506
-0.0460305
-0.0352242
-0.0218318
-0.00757689
0.00662129
0.547931
0.498194
0.273608
-0.145747
-0.211881
-0.277587
-0.334667
0.529753
1.65918
1.61103
0.34838
-0.123348
0.278465
0.23388
-0.033879
-0.0303913
-0.00928536
-0.0140058
-0.0176464
-0.0130906
-0.00588341
0.00322716
0.0134947
0.579528
0.479734
0.0670223
-0.0307989
-0.0756991
0.977373
2.02826
1.94326
1.87416
1.81859
0.900566
0.00548827
0.332166
0.304067
0.0303333
-0.00361283
0.00472514
0.00699841
0.00422949
0.00394552
0.00661988
0.0114914
0.0179332
0.227546
0.174611
0.136282
0.45109
2.02963
2.22457
2.14731
0.766971
-0.153355
-0.185095
-0.159463
0.194604
0.397675
0.436119
0.163648
0.0219009
0.0263089
0.0245797
0.0202779
0.0172414
0.0165284
0.0179526
0.0210301
0.0634878
0.465776
1.44449
2.39793
2.35639
2.31238
0.389684
-0.0988149
-0.122672
-0.14036
-0.144517
-0.11771
0.191945
0.450881
0.110158
0.0422915
0.0435024
0.0387611
0.0322068
0.0268965
0.0236409
0.0223185
0.0225739
0.0619893
0.737077
2.47368
2.46313
2.39861
0.507091
-0.01558
-0.0423213
-0.0752895
-0.123773
-0.174693
-0.17393
0.0296839
0.110716
0.060863
0.050936
0.053011
0.0472472
0.0394404
0.0325802
0.027465
0.0240838
0.0221767
0.0537066
0.400397
1.41025
1.40536
0.518485
0.0671883
0.0353714
0.00189307
-0.0508448
-0.141869
-0.247158
-0.287171
-0.201556
-0.0742935
0.0166351
0.0517602
0.0554765
0.0496366
0.041461
0.0338079
0.027592
0.0229315
0.0196214
0.051974
0.0822311
0.117539
0.114931
0.10211
0.087881
0.0636323
0.0200203
-0.0536628
-0.195022
-0.356999
-0.408876
-0.325814
0.26741
0.152009
0.0375562
0.0466663
0.0435719
0.0368824
0.0300628
0.0239009
0.0188846
0.0149893
0.0447689
0.0567894
0.0758275
0.0844789
0.0864343
0.0783187
0.0515712
-0.00172605
-0.0953135
-0.269604
-0.528655
-0.657746
-0.214814
0.324637
0.448998
0.0350765
0.0310762
0.0314473
0.0273182
0.0217419
0.0165616
0.0120899
0.00839551
0.0170937
0.02203
0.0295474
0.0353109
0.0386527
0.0319107
-0.000707904
-0.0703241
-0.191308
-0.374209
-0.618402
-0.325728
0.00982454
0.22284
0.0171599
-0.0147168
0.00540851
0.0105409
0.0103717
0.00841108
0.00564898
0.00262769
-0.000210416
652.511
635.282
602.2
571.716
587.199
629.35
328.847
85.2455
148.958
75.8251
31.1387
19.7821
7.50384
7.02802
7.46515
7.52578
7.6962
7.51123
7.31154
7.15132
7.35246
7.19872
7.07363
6.93365
6.6172
6.61783
6.61158
6.57444
6.10703
6.04998
6.18333
6.20841
5.68498
5.82754
5.96211
6.05614
5.84066
5.9388
6.06046
6.25389
27.3302
27.3184
28.5369
26.3799
4.36892
10.1245
11.5287
6.93291
0.931745
0.837026
0.820118
0.885992
0.901398
0.810209
0.793394
0.836536
0.934581
0.899187
0.899218
0.929061
1.00919
1.02905
1.03386
1.07145
1.07755
1.37262
1.57325
3.23809
1.64638
2.5254
2.93207
3.07489
0.977065
0.66822
0.704775
0.738946
0.594469
0.658575
0.714055
0.761567
0.649541
0.7226
0.786524
0.836815
0.730177
0.80602
0.871304
0.927261
0.726193
0.800997
0.862073
1.78825
0.579403
0.64339
0.782972
10.0147
0.268857
0.265263
4.74194
11.151
-0.122235
-0.245242
7.10848
10.8358
-0.379085
-0.545129
0.949257
4.02785
-0.365288
-0.469532
-0.49535
-0.702036
-0.205338
-0.239348
-0.303873
-0.371174
-0.077138
-0.0814539
-0.0968681
-0.125895
-0.0197812
-0.0174443
-0.0164771
-0.0207339
0.00514641
0.0113667
0.0166973
0.0205683
0.0170193
0.0236594
0.029721
0.0348494
0.0216825
0.026952
0.0317877
0.0359737
0.0234455
0.0270216
0.03031
0.0331583
0.0240483
0.0260282
0.0278395
0.0293535
0.0234667
0.024107
0.0246817
0.0250779
0.0214547
0.0210913
0.0207442
0.0203206
0.0178553
0.0168559
0.0159352
0.0150207
0.0127431
0.0114554
0.0102848
0.00918137
0.00617686
0.00489739
0.00374344
0.00269088
-0.00202548
-0.00308321
-0.00402554
-0.00484724
524.91
471.238
438.996
357.939
241.352
526.838
659.015
695.854
763.132
845.161
898.208
930.295
941.332
931.264
939.976
972.501
1001.54
1012.08
1033.62
77.4601
77.3281
94.5183
109.313
116.339
219.248
393.218
497.616
670.068
829.824
887.153
924.739
949.516
949.743
932.1
975.866
1008.35
1037.21
1034.5
70.0864
141.009
155.969
164.354
159.136
153.345
41.8237
12.0688
115.915
498.697
811.306
919.288
956.813
976.329
958.455
976.765
1042.3
1072.25
1080.93
9.55341
7.34133
59.3992
152.395
159.944
62.5022
8.13735
7.97527
7.39164
8.10165
182.058
581.679
865.224
991.985
1030.07
1062.18
1085.64
1122.92
1141.09
6.98973
6.87179
6.36824
5.69283
16.2453
6.27023
6.7046
6.93907
6.92786
7.08987
6.97481
8.70746
160.481
481.371
816.99
1075.65
1142.02
1177.23
1193.6
6.71382
6.43888
6.18208
7.27296
6.91553
6.57235
6.46912
6.44263
6.68892
6.8628
7.04436
8.31885
10.0451
12.6087
20.953
198.369
635.607
1189.7
1250.16
6.47058
6.16494
5.96946
6.25583
6.92328
6.76922
6.51726
6.33803
6.58496
6.83085
7.08895
11.5675
10.6848
13.0475
17.3035
17.3545
45.2414
679.194
1305.73
6.23111
6.07128
5.93724
6.03194
6.95378
6.78073
6.52386
6.35339
8.28316
6.80278
9.82913
25.8539
29.7591
39.0795
52.4796
19.8419
18.5733
42.2813
1387.44
6.11058
6.6106
6.01886
7.41004
12.5401
11.8651
7.81774
8.77686
12.2563
12.2761
14.1138
17.6165
28.5501
56.4899
56.0716
52.9714
18.7139
67.2524
1217.29
6.89859
6.62402
7.48931
12.8417
12.4521
12.2184
12.1514
11.9653
11.7481
11.7198
9.77224
2.37583
2.2056
6.75468
58.1821
53.8305
42.7626
72.5115
189.07
17.5527
6.36899
11.9357
12.3178
11.3795
9.57064
9.00957
8.46347
7.62587
5.99517
2.03045
1.99167
2.09721
2.05142
37.258
59.8735
61.1326
60.0602
18.1597
6.44987
9.66715
10.2282
9.20033
2.39703
1.70793
1.75142
1.62991
1.47736
1.58854
1.73286
1.8533
1.93707
1.99196
36.2262
68.3213
68.3722
45.1883
17.9531
1.08121
1.42055
2.68542
1.49301
1.55882
1.60049
1.65047
2.86469
1.55869
1.62045
1.73896
1.76559
1.76362
1.63633
17.4952
67.4135
59.1222
18.1509
18.4996
0.980075
1.24208
1.34376
1.4124
1.47748
1.52361
1.82847
3.21583
1.93601
2.0744
1.75608
1.68652
1.60593
1.44121
4.40103
21.8265
27.5342
18.7794
19.0872
1.01538
2.7721
2.62485
1.74471
1.41231
1.44639
1.52185
2.26375
3.92343
4.8989
3.62309
1.6109
1.44361
1.3118
1.16973
5.91532
42.8087
43.0747
25.21
2.39903
3.51671
3.64453
2.84103
1.32388
1.35214
1.38962
1.32337
4.43374
4.89025
5.03979
2.40691
1.27339
1.17958
1.09171
0.966136
26.2801
45.28
45.6316
3.45657
3.53236
3.63879
2.31185
1.18838
1.23085
1.252
1.20305
1.36497
4.73787
5.00482
3.95956
1.20134
1.02945
0.9695
0.872512
0.764654
39.5379
47.5125
3.3757
2.951
1.58695
0.995319
1.03848
1.06771
1.07857
1.0531
0.987953
1.7251
4.99296
4.8346
1.5345
0.901526
0.866618
0.838558
0.817775
30.2685
49.4097
0.796807
0.894863
0.982072
0.970847
0.908901
0.887976
0.898841
0.88726
0.875437
0.848451
4.0598
4.79958
1.94143
0.804412
0.785967
0.783685
0.798404
16.4834
51.6628
0.826124
0.882941
0.98598
1.04151
1.0137
1.03415
0.793557
0.721461
0.745238
0.754528
1.98142
3.85147
1.4707
0.725898
0.706283
0.691379
0.685706
2.52895
33.3954
0.914432
1.72387
4.62971
6.17008
4.48828
1.21431
0.500662
0.567343
0.616951
0.649448
1.27858
1.26377
0.887386
0.657524
0.625154
0.592698
0.586904
0.482196
0.847415
2.7263
8.84713
9.09813
8.4457
5.50686
0.422815
0.338412
0.440236
0.503411
0.544263
0.968956
3.95811
1.37604
0.575637
0.541442
0.515799
0.497255
0.434312
0.374225
10.8961
10.2997
9.69207
6.03471
0.924421
0.147484
0.286435
0.374573
0.413917
0.437046
2.19298
4.34715
2.58225
0.475214
0.450881
0.445666
0.430826
0.408417
0.361806
11.0788
10.6197
3.86773
0.785671
0.551053
0.332082
0.363825
0.367924
0.342556
0.328873
2.33259
4.44211
3.16834
0.392741
0.356601
0.375597
0.385933
0.374186
0.343184
11.0719
3.72394
1.75216
0.956827
1.26485
4.85842
3.32816
0.558034
0.265215
0.217275
2.31952
4.57019
3.15764
0.278956
0.268772
0.305821
0.335572
0.325262
0.305049
10.5054
4.32294
5.28679
9.87658
11.1682
13.7591
14.3114
7.36024
0.235555
0.0914052
2.83299
4.67717
2.98453
0.160534
0.19512
0.244348
0.276836
0.259741
0.256316
0.908955
11.2234
12.5045
13.2561
13.8973
14.4036
14.7098
14.6784
3.47975
-0.0507217
3.36557
4.71929
2.66552
0.0575902
0.130066
0.224011
0.215626
0.202356
0.208058
-0.6801
2.57102
6.44351
6.45067
7.00265
9.30422
13.9468
14.7631
12.0002
1.41385
4.03435
4.68705
1.77726
0.00299932
0.110199
0.168393
0.145868
0.155164
0.165123
-0.45712
-0.456971
-0.404955
-0.410734
-0.488402
-0.614534
0.310253
10.3942
13.3621
13.7154
6.14162
3.96172
0.240586
-0.0510684
0.0623919
0.0924135
0.0969245
0.114886
0.128626
-0.194063
-0.249231
-0.264571
-0.324653
-0.450765
-0.585914
-0.770114
-1.10497
5.11515
5.39141
1.40591
0.0113522
-0.296866
-0.0761689
0.0154776
0.0298316
0.0644268
0.083786
0.0985381
-0.0413922
-0.0829223
-0.123483
-0.202846
-0.166323
-0.360726
-0.638571
-0.882421
-1.01602
-0.93083
-0.70197
-0.482084
-0.269293
-0.112703
-0.0408362
0.0105169
0.0428187
0.062211
0.0751313
0.0202956
-0.000469977
-0.034478
-0.0493086
0.289931
0.162467
-0.463874
-0.610977
-0.653907
-0.589611
-0.464978
-0.320559
-0.18948
-0.0992897
-0.0393771
0.00222524
0.0303558
0.0476948
0.0579122
0.0394445
0.0306457
0.00736562
0.038054
0.399813
0.299196
-0.214357
-0.404139
-0.408647
-0.353003
-0.278521
-0.198692
-0.127569
-0.0734755
-0.0312048
0.000512163
0.0236767
0.0382287
0.045259
0.0407179
0.0374674
0.0233247
-0.00816615
0.258332
0.347037
-0.174324
-0.2777
-0.267704
-0.230773
-0.180278
-0.13202
-0.0889601
-0.0528649
-0.0224129
0.00168337
0.0198816
0.0317018
0.0359311
0.0365994
0.0354448
0.0254136
0.000725602
-0.0412713
-0.0896896
-0.134008
-0.19219
-0.178243
-0.151851
-0.121639
-0.0909927
-0.0622195
-0.0366326
-0.0144847
0.00360755
0.0175394
0.026464
0.0291607
0.0310747
0.0295463
0.0215787
0.00384601
-0.0268061
-0.0726871
-0.117265
-0.132158
-0.119906
-0.101061
-0.0815887
-0.0615202
-0.0419601
-0.0239322
-0.00805582
0.00522764
0.0157126
0.0223914
0.0237974
0.0252277
0.0226944
0.0155814
0.0019106
-0.0194746
-0.0492049
-0.0780411
-0.0894501
-0.0813082
-0.0683002
-0.0547452
-0.0408188
-0.0272629
-0.0146278
-0.00339579
0.0061486
0.0138367
0.018763
0.0192644
0.0193214
0.0161609
0.00988956
-0.000616136
-0.0161773
-0.0353046
-0.0523925
-0.059191
-0.05473
-0.0459713
-0.0363552
-0.026479
-0.0169807
-0.0081676
-0.000338228
0.0063449
0.0117994
0.0153416
0.01525
0.0133908
0.0101676
0.00513769
-0.00238076
-0.0126475
-0.0246257
-0.0348204
-0.0385598
-0.0356233
-0.0297399
-0.0230945
-0.0162641
-0.00976999
-0.00381042
0.00144556
0.00591527
0.00959059
0.0120312
0.0115838
0.00737941
0.00460438
0.00107791
-0.00363489
-0.00967221
-0.0163785
-0.0218534
-0.0237048
-0.0216805
-0.0176832
-0.0133778
-0.00894106
-0.00479414
-0.00105806
0.00219373
0.00493184
0.00719541
0.00875733
0.00814064
0.00106946
-0.000932866
-0.00287993
-0.00502575
-0.00751405
-0.0101869
-0.0122593
-0.0126343
-0.0111453
-0.00892746
-0.00625955
-0.00375833
-0.00151733
0.000440342
0.00210675
0.00348521
0.00463711
0.00551645
0.00486382
-0.00601266
-0.00697419
-0.00726744
-0.0070343
-0.00648075
-0.0058575
-0.00514145
-0.00416007
-0.00292778
-0.00198131
-0.00124996
-0.000521428
0.000102863
0.000612862
0.00102371
0.00134609
0.00161434
0.00186346
0.00148507
)
;

boundaryField
{
    leftWall
    {
        type            fixedFluxPressure;
        gradient        uniform 0;
        value           nonuniform List<scalar> 
50
(
726.047
726.068
727.058
719.209
717.475
714.557
734.751
757.07
763.331
772.146
501.457
2.34894
2.36089
2.35282
2.60942
2.71526
2.71982
2.5805
3.09006
2.97233
1.53448
1.49805
1.51203
1.76512
2.09026
2.05934
1.96191
1.84785
1.85329
1.99607
1.93445
1.89047
1.85837
1.8279
1.79761
1.75682
0.577114
0.0316362
0.083161
0.47581
0.511667
0.547931
0.579528
0.227546
0.0634878
0.0619893
0.0537066
0.051974
0.0447689
0.0170937
)
;
    }
    rightWall
    {
        type            fixedFluxPressure;
        gradient        uniform 0;
        value           nonuniform List<scalar> 
50
(
1004.99
1003.42
1002.99
1009.77
1022.68
1032.63
1032.32
1032.39
1033.62
1034.5
1080.93
1141.09
1193.6
1250.16
1305.73
1387.44
1217.29
189.07
18.1597
17.9531
18.4996
19.0872
25.21
45.6316
47.5125
49.4097
51.6628
33.3954
0.847415
0.374225
0.361806
0.343184
0.305049
0.256316
0.208058
0.165123
0.128626
0.0985381
0.0751313
0.0579122
0.045259
0.0359311
0.0291607
0.0237974
0.0192644
0.01525
0.0115838
0.00814064
0.00486382
0.00148507
)
;
    }
    lowerWall
    {
        type            fixedFluxPressure;
        gradient        uniform 0;
        value           nonuniform List<scalar> 
62
(
726.047
719.496
716.523
708.648
685.211
682.82
710.121
702.059
693.457
683.045
671.148
660.909
653.026
646.904
642.753
640.678
638.567
636.372
636.645
638.678
642.53
648.409
652.585
652.585
652.199
652.026
652.5
653.475
655.345
660.404
667.857
652.511
635.282
602.2
571.716
624.484
625.283
627.072
624.49
624.698
625.256
625.462
610.249
624.484
623.64
609.477
586.648
600.959
647.662
698.108
738.021
774.268
815.307
860.128
898.793
929.528
949.033
961.639
970.552
983.251
993.606
1004.99
)
;
    }
    atmosphere
    {
        type            totalPressure;
        rho             rho;
        psi             none;
        gamma           1;
        p0              uniform 0;
        value           nonuniform List<scalar> 
46
(
0
0
0
0
0
-0.00590084
-0.0426632
-0.122739
-0.260031
-0.45657
-0.601088
-0.0602262
0
0
0
0
0
0
0
-5.93676e-05
-0.00129959
-0.00333247
-0.00553103
-0.00700813
-0.00787936
-0.00864965
-0.0092944
-0.0101287
-0.0104548
-0.00982764
-0.00835629
-0.00636
-0.00433819
-0.00263546
-0.00132609
-0.000359757
0
0
0
0
0
0
0
0
0
0
)
;
    }
    defaultFaces
    {
        type            empty;
    }
}


// ************************************************************************* //
