/*--------------------------------*- C++ -*----------------------------------*\
| =========                 |                                                 |
| \\      /  F ield         | OpenFOAM: The Open Source CFD Toolbox           |
|  \\    /   O peration     | Version:  2.3.0                                 |
|   \\  /    A nd           | Web:      www.OpenFOAM.org                      |
|    \\/     M anipulation  |                                                 |
\*---------------------------------------------------------------------------*/
FoamFile
{
    version     2.0;
    format      ascii;
    class       surfaceScalarField;
    location    "1.85";
    object      phi;
}
// * * * * * * * * * * * * * * * * * * * * * * * * * * * * * * * * * * * * * //

dimensions      [0 3 -1 0 0 0 0];

internalField   nonuniform List<scalar> 
4432
(
6.3247e-06
-6.3247e-06
5.50389e-06
8.20801e-07
4.43978e-06
1.06412e-06
1.08156e-05
-6.37578e-06
1.06207e-05
1.94902e-07
-5.75872e-08
1.06782e-05
-7.05207e-06
6.99448e-06
-1.12292e-05
4.17709e-06
-1.24979e-05
1.26878e-06
-1.2029e-05
-4.68965e-07
-1.23723e-05
3.4333e-07
-1.238e-05
7.65136e-09
-1.08981e-05
-1.48182e-06
-9.01708e-06
-1.88106e-06
-8.49704e-06
-5.20035e-07
-9.87619e-06
1.37916e-06
-1.2577e-05
2.7008e-06
-1.48955e-05
2.3185e-06
-1.44948e-05
-4.00686e-07
-1.22724e-05
-2.22242e-06
-9.49432e-06
-2.77806e-06
-5.20221e-06
-4.2921e-06
-5.20221e-06
2.09389e-06
-8.41859e-06
-1.79321e-06
4.7079e-06
-1.34206e-06
6.12968e-07
8.35271e-06
-1.60705e-05
1.19804e-05
-3.43276e-06
6.19198e-07
2.20394e-05
-9.66986e-06
1.72835e-05
-1.25068e-05
7.01406e-06
-1.15012e-05
2.63192e-07
-1.20206e-05
5.03676e-08
-1.34821e-05
1.80489e-06
-1.34897e-05
1.51931e-08
-1.1876e-05
-3.09544e-06
-9.67194e-06
-4.08518e-06
-8.61391e-06
-1.57805e-06
-9.187e-06
1.95226e-06
-1.02048e-05
3.7186e-06
-9.64469e-06
1.75839e-06
-8.45977e-06
-1.5856e-06
-7.92986e-06
-2.75232e-06
-6.91289e-06
-3.79502e-06
-4.08496e-06
-7.12004e-06
-9.28717e-06
-2.79046e-06
-5.62812e-06
-9.00904e-06
1.09265e-05
-7.24768e-06
-1.1484e-06
7.70866e-09
-2.33259e-05
7.03286e-06
-1.04579e-05
1.11018e-06
2.79621e-05
-8.48599e-06
2.68797e-05
-1.01517e-05
8.67974e-06
-9.86552e-06
-2.29664e-08
-1.16871e-05
1.87198e-06
-1.32089e-05
3.32664e-06
-1.25852e-05
-6.08485e-07
-1.06438e-05
-5.03686e-06
-8.85782e-06
-5.87114e-06
-7.32815e-06
-3.10771e-06
-4.80668e-06
-5.69213e-07
-2.78617e-06
1.69809e-06
-2.22506e-06
1.19728e-06
-3.43658e-06
-3.74087e-07
-4.79928e-06
-1.38962e-06
-4.45979e-06
-4.13451e-06
-2.667e-06
-8.91284e-06
-1.19542e-05
-5.92753e-06
2.99414e-07
-1.21609e-05
1.71598e-05
-1.01239e-05
-3.18542e-06
-6.72166e-06
-2.67281e-05
9.03926e-07
-1.80835e-05
1.99681e-06
2.68692e-05
-6.47558e-06
3.53521e-05
-7.47996e-06
9.68412e-06
-8.42731e-06
9.24384e-07
-1.06493e-05
4.09396e-06
-1.11334e-05
3.81072e-06
-9.01157e-06
-2.73029e-06
-6.19397e-06
-7.85445e-06
-5.46913e-06
-6.59598e-06
-6.3391e-06
-2.23775e-06
-4.3737e-06
-2.5346e-06
-4.52618e-07
-2.223e-06
-2.39829e-07
9.845e-07
-4.03311e-06
3.41919e-06
-5.39751e-06
-2.5208e-08
-3.92589e-06
-5.60614e-06
-1.64614e-06
-1.11926e-05
-1.36003e-05
-6.77765e-06
7.07706e-06
-1.22837e-05
2.26659e-05
-1.17093e-05
-3.75984e-06
-1.06203e-05
-2.78171e-05
-5.70184e-06
-2.3002e-05
7.20928e-07
2.04464e-05
-3.76645e-06
3.98395e-05
-4.69064e-06
1.06083e-05
-6.90468e-06
3.13842e-06
-8.93379e-06
6.12307e-06
-7.93673e-06
2.81366e-06
-4.20566e-06
-6.46137e-06
-1.09132e-06
-1.09688e-05
-1.11007e-06
-6.57723e-06
-3.75997e-06
4.12152e-07
-4.71009e-06
-1.58449e-06
-2.64386e-06
-4.28923e-06
-2.50261e-06
8.43267e-07
-6.04249e-06
6.95907e-06
-6.62433e-06
5.56634e-07
-4.70184e-06
-7.52862e-06
-1.42741e-06
-1.4467e-05
-1.50277e-05
-5.76954e-06
1.28466e-05
-8.36864e-06
2.5265e-05
-1.02166e-05
-1.91186e-06
-1.19067e-05
-2.61271e-05
-1.13895e-05
-2.35191e-05
-2.56808e-06
1.16249e-05
-7.70302e-07
3.80417e-05
-2.35714e-06
1.21951e-05
-5.66705e-06
6.44833e-06
-6.73933e-06
7.19535e-06
-3.96683e-06
4.11666e-08
2.48747e-07
-1.06769e-05
9.93769e-07
-1.17138e-05
2.1395e-08
-5.60486e-06
-1.4676e-06
1.90115e-06
-4.09454e-06
1.04245e-06
-5.02114e-06
-3.36263e-06
-4.32792e-06
1.50051e-07
-5.89967e-06
8.53082e-06
-5.70875e-06
3.6571e-07
-4.57248e-06
-8.66489e-06
-1.76507e-06
-1.72744e-05
-1.67928e-05
-3.78626e-06
1.66329e-05
-3.55636e-06
2.50351e-05
-4.93635e-06
-5.31879e-07
-9.36048e-06
-2.17029e-05
-1.35128e-05
-1.93669e-05
-6.15758e-06
4.26976e-06
9.32302e-07
3.09519e-05
-1.6855e-06
1.48129e-05
-4.91641e-06
9.67924e-06
-4.31447e-06
6.59342e-06
-3.21716e-07
-3.95158e-06
1.70512e-06
-1.27038e-05
-1.44386e-06
-8.56482e-06
-3.18253e-06
-3.8662e-06
-2.36113e-06
1.07975e-06
-3.26045e-06
1.94178e-06
-4.76721e-06
-1.85588e-06
-3.37307e-06
-1.24409e-06
-1.72393e-06
6.88166e-06
7.9234e-07
-2.15055e-06
1.69072e-06
-9.56325e-06
5.3243e-07
-1.61161e-05
-1.62604e-05
-9.4025e-07
1.75731e-05
1.33035e-06
2.27645e-05
1.93979e-06
-1.14132e-06
-3.8468e-06
-1.59163e-05
-1.19046e-05
-1.13091e-05
-9.29241e-06
1.6576e-06
-6.61107e-07
2.23206e-05
-2.14417e-06
1.6296e-05
-3.78007e-06
1.13151e-05
-1.67892e-06
4.49227e-06
1.2149e-06
-6.8454e-06
-1.36015e-06
-1.01287e-05
-6.94295e-06
-2.98201e-06
-8.37498e-06
-2.43417e-06
-5.7971e-06
-1.49812e-06
-2.75928e-06
-1.09603e-06
-7.06405e-07
-3.90875e-06
9.64971e-07
-2.91547e-06
6.79268e-06
1.05396e-06
1.38895e-05
-9.24738e-06
1.42549e-05
-9.92867e-06
7.19736e-06
-9.05856e-06
-9.06299e-06
2.98418e-06
-2.98418e-06
-4.84134e-06
7.82552e-06
-2.2203e-05
1.73616e-05
-3.77801e-05
1.55771e-05
-3.96314e-05
1.85126e-06
-3.31088e-05
-6.52254e-06
-2.55942e-05
-7.5146e-06
-1.93574e-05
-6.23675e-06
-1.44603e-05
-4.89714e-06
-8.61871e-06
-5.84159e-06
-1.44818e-06
-7.17052e-06
5.16653e-06
-6.6147e-06
7.96624e-06
-2.79972e-06
2.75819e-06
5.20806e-06
-5.15946e-06
7.91765e-06
-9.33337e-06
4.1739e-06
-9.26014e-06
-7.32321e-08
-8.05716e-06
-1.20298e-06
-8.05715e-06
-4.80228e-06
1.8181e-06
-1.59471e-05
1.89703e-05
-2.75923e-05
2.90069e-05
-2.95808e-05
1.75656e-05
-2.444e-05
-3.28953e-06
-1.82672e-05
-1.26953e-05
-1.36929e-05
-1.2089e-05
-1.19647e-05
-7.96488e-06
-1.11235e-05
-5.73834e-06
-8.17931e-06
-8.7858e-06
-2.57483e-06
-1.2775e-05
4.14522e-06
-1.33347e-05
1.09029e-05
-9.55739e-06
1.48997e-05
1.21122e-06
1.2052e-05
1.07653e-05
4.18472e-06
1.20412e-05
-3.09483e-06
7.20632e-06
-4.85455e-06
5.5673e-07
-1.29117e-05
-7.64888e-06
9.46698e-06
-1.47216e-05
2.6043e-05
-1.63759e-05
3.06612e-05
-1.08002e-05
1.19899e-05
-2.96693e-06
-1.11228e-05
3.62392e-06
-1.92862e-05
7.2338e-06
-1.56988e-05
5.05058e-06
-5.78166e-06
1.12869e-06
-1.81643e-06
-1.15397e-07
-7.54171e-06
1.73661e-06
-1.4627e-05
5.25243e-06
-1.68506e-05
9.31512e-06
-1.36201e-05
1.57931e-05
-5.26678e-06
2.01071e-05
6.45131e-06
1.62505e-05
1.58979e-05
6.72966e-06
1.67271e-05
2.44086e-07
7.04229e-06
-1.26676e-05
-5.25031e-06
1.47173e-05
-6.19849e-06
2.69912e-05
-1.19027e-06
2.5653e-05
7.82612e-06
2.97348e-06
1.63603e-05
-1.96569e-05
2.61588e-05
-2.90847e-05
3.01555e-05
-1.96955e-05
2.51299e-05
-7.56098e-07
1.61048e-05
7.20869e-06
1.01115e-05
-1.5484e-06
8.81379e-06
-1.33293e-05
1.00161e-05
-1.80528e-05
1.2267e-05
-1.5871e-05
1.62708e-05
-9.27054e-06
2.10277e-05
1.69445e-06
2.14705e-05
1.5455e-05
1.42289e-05
2.39688e-05
5.11129e-06
1.61599e-05
-7.55631e-06
-8.1214e-07
1.55294e-05
4.06104e-06
2.2118e-05
1.36204e-05
1.60936e-05
2.35298e-05
-6.93594e-06
3.55287e-05
-3.16558e-05
4.59176e-05
-3.94736e-05
4.86941e-05
-2.2472e-05
4.32233e-05
4.71475e-06
3.19083e-05
1.85236e-05
2.21006e-05
8.25934e-06
1.61345e-05
-7.36324e-06
1.41296e-05
-1.6048e-05
1.50588e-05
-1.68002e-05
1.77538e-05
-1.19655e-05
2.08801e-05
-1.43188e-06
2.26083e-05
1.37268e-05
1.84216e-05
2.81556e-05
9.10493e-06
2.54765e-05
1.54863e-06
2.94441e-06
1.2585e-05
1.16432e-05
1.34193e-05
2.38552e-05
3.88154e-06
3.72037e-05
-2.02843e-05
4.80651e-05
-4.25172e-05
5.11263e-05
-4.25348e-05
5.03227e-05
-2.16683e-05
4.62945e-05
8.74292e-06
3.84989e-05
2.63192e-05
2.98579e-05
1.69003e-05
2.16194e-05
8.75303e-07
1.69046e-05
-1.13332e-05
1.64674e-05
-1.6363e-05
1.90317e-05
-1.45298e-05
2.13812e-05
-3.78141e-06
2.25197e-05
1.25883e-05
2.01064e-05
3.05689e-05
1.13486e-05
3.42343e-05
1.28973e-05
5.97135e-06
6.61368e-06
1.97059e-05
-3.15271e-07
3.50106e-05
-1.14232e-05
4.52511e-05
-3.05248e-05
3.89506e-05
-3.62168e-05
1.91575e-05
-2.27417e-05
1.38784e-05
-1.63892e-05
2.1462e-05
1.15932e-06
2.57301e-05
2.20512e-05
2.47431e-05
1.78873e-05
1.93861e-05
6.23234e-06
1.54479e-05
-7.39503e-06
1.60537e-05
-1.69688e-05
1.94798e-05
-1.7956e-05
2.18879e-05
-6.18955e-06
2.22607e-05
1.22155e-05
2.00611e-05
3.27685e-05
1.19987e-05
4.22967e-05
2.4896e-05
2.42872e-05
-1.76735e-05
3.7208e-05
-1.3236e-05
4.16535e-05
-1.58687e-05
3.33816e-05
-2.22529e-05
-9.47995e-06
6.64478e-06
-4.30635e-05
1.08418e-05
-3.65806e-05
-2.28721e-05
-1.62618e-05
-1.91595e-05
1.03076e-06
4.75859e-06
8.01712e-06
1.09009e-05
9.30326e-06
4.9462e-06
1.02579e-05
-8.34967e-06
1.40342e-05
-2.0745e-05
1.82492e-05
-2.2171e-05
2.10623e-05
-9.00264e-06
2.16631e-05
1.16148e-05
1.9353e-05
3.50785e-05
1.18045e-05
4.98452e-05
3.67005e-05
1.18475e-05
5.7256e-06
2.27866e-05
1.18254e-05
2.29329e-05
-1.28765e-06
1.17995e-05
-4.78286e-06
-9.29265e-06
9.78303e-06
-2.19583e-05
1.43232e-05
-1.30515e-05
1.34137e-05
-9.12889e-06
1.23734e-05
-6.86535e-06
9.0516e-06
-2.96607e-06
5.92991e-07
-6.95263e-06
-2.85883e-06
-2.3242e-05
6.16066e-06
-3.78938e-05
1.16698e-05
-3.97229e-05
-6.05061e-07
-2.88915e-05
-1.23295e-05
-8.71385e-06
-2.12737e-05
8.09818e-06
-2.07208e-05
2.29033e-05
-1.77206e-05
4.20133e-05
-1.8056e-05
5.62275e-05
-2.34616e-05
5.52952e-05
-8.99639e-06
3.71779e-05
9.05879e-06
9.05223e-06
1.90626e-05
1.78641e-05
-1.21385e-05
3.71343e-05
-7.44478e-06
4.83004e-05
-1.24538e-05
4.18993e-05
1.61833e-06
2.47816e-05
2.69007e-05
6.70313e-06
3.24017e-05
4.20824e-06
1.59086e-05
1.07179e-05
5.86379e-06
1.19649e-05
7.80453e-06
-1.53805e-06
1.4096e-05
-2.8483e-05
2.40862e-05
-5.80822e-05
3.57599e-05
-9.99511e-05
5.35387e-05
-0.000131973
3.14166e-05
-0.000127796
-1.65067e-05
-8.83614e-05
-6.0708e-05
-4.94734e-05
-5.96088e-05
-2.00236e-05
-4.71704e-05
-1.22816e-05
-2.5798e-05
-5.91564e-06
-2.98277e-05
8.1876e-06
-2.30996e-05
7.68005e-06
9.56635e-06
2.22292e-05
-5.49693e-06
1.18628e-05
-2.40013e-05
3.80294e-05
-3.36114e-05
6.79227e-05
-4.2347e-05
5.23685e-05
1.71725e-05
3.5054e-05
4.42152e-05
1.98302e-05
4.76256e-05
-7.23051e-07
3.64619e-05
-2.09919e-05
2.61326e-05
-3.01779e-05
1.69905e-05
-3.25856e-05
1.65036e-05
-4.86807e-05
4.01813e-05
-0.000104703
9.17823e-05
-0.00019501
0.000143846
-0.000292689
0.000129095
-0.000350354
4.11588e-05
-0.000352671
-5.83913e-05
-0.000314476
-9.78039e-05
-0.000261933
-9.97134e-05
-0.000215579
-7.21521e-05
-0.000181842
-6.35645e-05
-0.000143939
-6.10018e-05
-0.000104397
-2.99766e-05
1.21728e-05
-9.43402e-05
-5.83117e-07
-2.34182e-05
-2.77123e-05
-6.48228e-06
-4.03808e-05
-2.96785e-05
-6.01085e-06
-1.71975e-05
1.96321e-05
1.85721e-05
8.42603e-06
5.88316e-05
-1.94626e-05
6.43504e-05
-7.35047e-05
8.01747e-05
-0.000111635
5.51208e-05
-0.000128051
3.29195e-05
-0.000168246
8.03763e-05
-0.000216501
0.000140037
-0.000250281
0.000177626
-0.000247392
0.000126206
-0.00021709
1.08576e-05
-0.000192034
-8.34473e-05
-0.000166658
-0.00012318
-0.000147992
-0.00011838
-0.000137213
-8.29316e-05
-0.000150399
-5.03783e-05
-0.000145598
-6.58024e-05
-0.000137733
-3.78422e-05
1.20718e-05
-0.000137632
-3.42204e-05
1.08021e-05
-6.30442e-05
2.23415e-05
-7.04375e-05
-2.22853e-05
-5.31575e-05
-3.44777e-05
-1.20491e-05
-2.25362e-05
8.39622e-06
3.83863e-05
-1.00505e-05
8.27972e-05
-5.25118e-05
0.000122636
-0.000101424
0.000104033
-0.000137791
6.92866e-05
-0.000180589
0.000123174
-0.000211871
0.000171319
-0.000201419
0.000167174
-0.00015238
7.71666e-05
-0.000112177
-2.93451e-05
-9.44678e-05
-0.000101156
-7.73299e-05
-0.000140318
-6.78266e-05
-0.000127883
-7.65512e-05
-7.42069e-05
-0.000117242
-9.68792e-06
-0.000129942
-5.31025e-05
-0.000114202
-5.35819e-05
-5.78469e-06
-9.63453e-05
-1.71601e-05
2.79622e-05
-1.72178e-05
2.23992e-05
-2.23347e-05
-1.71684e-05
-2.89841e-05
-2.78281e-05
-3.03796e-06
-4.84823e-05
2.83187e-05
7.02956e-06
1.96199e-05
9.14958e-05
-1.07579e-05
0.000153014
-6.28194e-05
0.000156094
-0.000111306
0.000117773
-0.000131851
0.00014372
-0.000126957
0.000166425
-9.13203e-05
0.000131537
-4.46103e-05
3.04566e-05
-1.74929e-05
-5.64625e-05
-1.91604e-05
-9.94887e-05
-1.95668e-05
-0.000139911
-2.57332e-05
-0.000121717
-5.16994e-05
-4.82407e-05
-8.48077e-05
2.34206e-05
-9.3996e-05
-4.3914e-05
-6.80075e-05
-7.95706e-05
-3.34696e-05
-4.03228e-05
8.4094e-06
1.95528e-05
1.73455e-05
1.34632e-05
5.33538e-06
-5.15815e-06
1.71598e-06
-2.42085e-05
1.87508e-05
-6.55171e-05
4.34313e-05
-1.76509e-05
3.86954e-05
9.62316e-05
1.68764e-05
0.000174833
-2.05668e-05
0.000193537
-6.03272e-05
0.000157534
-6.61535e-05
0.000149546
-4.27366e-05
0.000143008
-3.16621e-06
9.19663e-05
2.59895e-05
1.301e-06
3.62321e-05
-6.67051e-05
3.84028e-05
-0.000101659
1.92024e-05
-0.000120711
-1.42927e-05
-8.82213e-05
-6.07856e-05
-1.74781e-06
-9.15963e-05
5.42311e-05
-9.42636e-05
-4.12469e-05
-7.64771e-05
-9.73571e-05
-6.29085e-05
-4.7038e-05
1.43746e-05
5.17827e-06
2.01771e-05
7.66084e-06
5.75053e-06
9.26859e-06
1.76319e-05
-3.60896e-05
2.7879e-05
-7.57642e-05
3.17601e-05
-2.1532e-05
2.70349e-05
0.000100957
1.81486e-05
0.000183719
3.06975e-06
0.000208616
-1.75784e-05
0.000178182
-1.54932e-05
0.000147461
1.21926e-05
0.000115322
4.40888e-05
6.007e-05
5.93228e-05
-1.39329e-05
7.02984e-05
-7.76809e-05
6.26397e-05
-9.40008e-05
2.98328e-05
-8.79041e-05
-2.03319e-05
-3.80566e-05
-6.66944e-05
4.46148e-05
-9.07358e-05
7.82725e-05
-9.19146e-05
-4.00681e-05
-9.47972e-05
-9.44746e-05
-6.18888e-05
-9.5817e-05
1.50466e-05
-9.86828e-06
1.12395e-05
1.1468e-05
-9.64269e-07
2.14726e-05
1.34393e-05
-5.04931e-05
1.34972e-05
-7.58218e-05
-1.67893e-06
-6.35594e-06
-1.03071e-05
0.000109585
-8.31996e-06
0.000181732
-1.3635e-06
0.00020166
8.60997e-07
0.000175957
1.23781e-05
0.000135944
3.45846e-05
9.3116e-05
5.90181e-05
3.56363e-05
8.08611e-05
-3.57761e-05
7.30467e-05
-6.98666e-05
5.83128e-05
-7.92668e-05
1.13357e-05
-4.0927e-05
-4.84746e-05
2.17536e-05
-9.1466e-05
8.76062e-05
-0.000109836
9.66429e-05
-0.000110941
-3.8963e-05
-0.000122626
-8.27895e-05
-4.03036e-05
-0.000144212
1.87559e-05
-2.86241e-05
2.07151e-05
9.50905e-06
4.55037e-06
3.76376e-05
1.25676e-06
-4.71993e-05
-1.51793e-05
-5.93858e-05
-4.82019e-05
2.66667e-05
-6.0813e-05
0.000122196
-5.19642e-05
0.000172883
-3.24809e-05
0.000182177
-1.37845e-05
0.000157261
7.41744e-06
0.000114742
3.56449e-05
6.48884e-05
7.01401e-05
1.14066e-06
7.34177e-05
-3.90539e-05
6.09379e-05
-5.73867e-05
2.96371e-05
-4.7966e-05
-3.46466e-05
2.33571e-05
-0.000102269
8.9376e-05
-0.00014642
0.000131757
-0.000135711
8.59342e-05
-0.000125352
-4.93229e-05
-0.000139526
-6.86154e-05
-8.91336e-06
-0.000170916
1.71908e-05
-4.58149e-05
2.45901e-05
2.10992e-06
5.18722e-06
5.70405e-05
-1.30423e-05
-2.89696e-05
-5.21406e-05
-2.02873e-05
-9.35728e-05
6.80992e-05
-0.000114184
0.000142807
-0.00011321
0.000171909
-9.16454e-05
0.000160613
-5.4287e-05
0.000119903
-1.15908e-06
6.16145e-05
4.09332e-05
2.2796e-05
5.2494e-05
-1.04199e-05
4.44815e-05
-3.10415e-05
1.97437e-05
-3.26488e-05
-4.79802e-05
1.97578e-05
-0.000112497
8.78738e-05
-0.00015901
0.000135889
-0.000175562
0.000148309
-0.000135937
4.63089e-05
-0.000120315
-6.49453e-05
-0.00013895
-4.99798e-05
1.56628e-05
-0.000163527
1.35465e-05
-5.93613e-05
1.28819e-05
2.77479e-06
-6.18067e-06
7.61031e-05
-3.83671e-05
3.21679e-06
-9.72093e-05
3.85547e-05
-0.00015316
0.00012405
-0.000184635
0.000174282
-0.000177515
0.000164789
-0.00012546
0.000108558
-5.45426e-05
4.8986e-05
-8.61565e-06
1.56877e-05
1.63216e-05
-2.14125e-06
5.51786e-06
3.83894e-07
-2.48774e-05
-6.46198e-07
-8.65161e-05
2.89899e-05
-0.000143167
7.64087e-05
-0.000181776
0.000126483
-0.000195987
0.000150099
-0.000169073
0.000121396
-0.000130082
7.31838e-06
-0.000126526
-6.85019e-05
-0.000153115
-2.33907e-05
3.92197e-05
-0.000176672
2.52901e-06
-6.18903e-05
-1.54488e-05
2.07525e-05
-3.59607e-05
9.6615e-05
-8.1088e-05
4.83443e-05
-0.000150103
0.00010757
-0.00020677
0.000180717
-0.000218505
0.000186018
-0.000170905
0.000117189
-9.83215e-05
3.59745e-05
-5.04192e-05
1.08376e-06
-4.58768e-05
1.11454e-05
-7.22858e-05
2.42678e-05
-0.000113079
4.11771e-05
-0.000155423
4.16974e-05
-0.000190151
6.37181e-05
-0.000214694
0.000100951
-0.000218087
0.000129877
-0.000189782
0.000121794
-0.000133561
6.51743e-05
-0.000101708
-2.45349e-05
-0.000106585
-6.36243e-05
-0.000130944
9.67705e-07
3.73468e-05
-0.000129071
-1.44647e-05
-4.74255e-05
-5.03401e-05
5.66279e-05
-7.12563e-05
0.000117531
-0.000121083
9.81704e-05
-0.00018234
0.000168827
-0.000219788
0.000218166
-0.000201631
0.000167861
-0.000151325
6.68826e-05
-0.000117768
2.41783e-06
-0.000120478
3.79365e-06
-0.000153313
4.39809e-05
-0.000191032
6.19865e-05
-0.000210382
6.05281e-05
-0.000227781
5.90957e-05
-0.000236031
7.19684e-05
-0.000226972
9.18912e-05
-0.000195383
9.82872e-05
-0.000142935
6.93461e-05
-8.77929e-05
1.00326e-05
-4.99323e-05
-6.23955e-05
-2.56884e-05
-8.78681e-05
-1.19358e-05
-1.2785e-05
3.54592e-05
-1.0048e-05
-2.73961e-05
-2.00296e-05
-6.4964e-05
9.41955e-05
-9.11222e-05
0.000143689
-0.000136992
0.00014404
-0.000183726
0.000215561
-0.000206183
0.000240623
-0.000188724
0.000150403
-0.000176039
5.4197e-05
-0.000181715
8.0939e-06
-0.000199564
2.16435e-05
-0.000222547
6.69637e-05
-0.000240711
8.01496e-05
-0.00025013
6.99472e-05
-0.000246548
5.55136e-05
-0.000226338
5.17588e-05
-0.000190644
5.61967e-05
-0.000142405
5.00481e-05
-9.00177e-05
1.69593e-05
-4.89197e-05
-3.10654e-05
-2.25093e-05
-8.88059e-05
-4.02555e-06
-0.000106352
3.89387e-05
-5.57488e-05
1.04403e-05
6.39583e-05
-2.90678e-05
9.03811e-06
-6.28916e-05
0.000128019
-8.91208e-05
0.000169919
-0.00012528
0.000180199
-0.000158816
0.000249097
-0.000182571
0.000264379
-0.00018717
0.000155001
-0.000204979
7.20058e-05
-0.000228151
3.12665e-05
-0.00023686
3.03525e-05
-0.00022888
5.89834e-05
-0.000229679
8.09493e-05
-0.000231073
7.13404e-05
-0.000214338
3.87785e-05
-0.000179952
1.73731e-05
-0.000134066
1.03108e-05
-8.55146e-05
1.496e-06
-4.86419e-05
-1.99134e-05
-3.2544e-05
-4.71633e-05
-3.61309e-05
-8.52189e-05
-3.40881e-05
-0.000108394
4.58849e-06
-9.44252e-05
-2.27576e-05
3.77864e-05
-2.34771e-05
3.25153e-05
-5.05421e-05
0.000155085
-6.92788e-05
0.000188656
-8.86273e-05
0.000199548
-0.000102575
0.000263045
-0.000125598
0.000287401
-0.000153994
0.000183397
-0.000182689
0.000100701
-0.000207412
5.59894e-05
-0.000215777
3.87184e-05
-0.00020566
4.88661e-05
-0.000193642
6.8931e-05
-0.000182061
5.97597e-05
-0.000174744
3.14612e-05
-0.000160614
3.24317e-06
-0.000135744
-1.45593e-05
-0.000105911
-2.83371e-05
-8.11281e-05
-4.46959e-05
-6.33444e-05
-6.4947e-05
-5.37065e-05
-9.48567e-05
-4.47545e-05
-0.000117346
-3.16343e-05
-0.000107545
-5.13172e-05
-3.07482e-06
-1.61559e-05
4.86712e-05
-3.45082e-05
0.000173437
-4.2001e-05
0.000196149
-4.36268e-05
0.000201173
-2.8849e-05
0.000248268
-2.95116e-05
0.000288064
-6.70516e-05
0.000220937
-0.000101471
0.00013512
-0.000127314
8.18331e-05
-0.000145348
5.67518e-05
-0.00015
5.35188e-05
-0.000137285
5.62151e-05
-0.00011792
4.03948e-05
-0.000108021
2.15626e-05
-0.000103299
-1.47852e-06
-9.18967e-05
-2.5962e-05
-7.37471e-05
-4.64867e-05
-5.62368e-05
-6.22062e-05
-4.02629e-05
-8.09209e-05
-2.84875e-05
-0.000106632
-2.46872e-05
-0.000121146
-2.28596e-05
-0.000109373
-8.21252e-05
7.94858e-06
-8.92304e-06
5.75946e-05
-2.11047e-05
0.000185619
-2.05215e-05
0.000195566
-1.19152e-05
0.000192567
2.42033e-05
0.000212149
6.72187e-05
0.000245048
6.11118e-05
0.000227044
2.84929e-05
0.000167738
2.28266e-06
0.000108043
-9.3606e-06
6.83951e-05
-1.48461e-05
5.90044e-05
-1.6349e-05
5.77181e-05
-1.56809e-05
3.97267e-05
-1.40497e-05
1.99314e-05
-1.13868e-05
-4.14134e-06
-1.6828e-06
-3.56659e-05
1.45704e-05
-6.274e-05
2.30376e-05
-7.06736e-05
2.34954e-05
-8.13789e-05
1.69984e-05
-0.000100135
9.56538e-06
-0.000113713
1.67229e-05
-0.000116531
-0.000113599
4.81965e-05
-4.75264e-06
6.23475e-05
-1.42454e-05
0.000195112
-1.27948e-05
0.000194115
1.45339e-06
0.000178319
4.27822e-05
0.000170821
0.000106413
0.000181418
0.000152741
0.000180717
0.000170297
0.000150182
0.00017264
0.000105701
0.000173903
6.71326e-05
0.000185988
4.69188e-05
0.000204656
3.90509e-05
0.00021588
2.85026e-05
0.000219539
1.62721e-05
0.00021506
3.3823e-07
0.000197496
-1.81026e-05
0.000169835
-3.50791e-05
0.000148236
-4.90746e-05
0.000130577
-6.37209e-05
0.00011281
-8.2368e-05
9.91624e-05
-0.000100066
9.46895e-05
-0.000112058
-0.000120216
0.000101306
-3.28972e-06
6.56372e-05
-1.2018e-05
0.000203841
-1.25485e-05
0.000194646
9.9899e-06
0.00015578
4.74294e-05
0.000133381
9.65647e-05
0.000132282
0.000146911
0.000130371
0.000185462
0.000111631
0.000210783
8.03796e-05
0.000231455
4.64609e-05
0.000257509
2.08641e-05
0.000289965
6.59538e-06
0.000320453
-1.98528e-06
0.000342049
-5.32405e-06
0.000348369
-5.98154e-06
0.000337118
-6.85251e-06
0.000311773
-9.73381e-06
0.000280996
-1.82981e-05
0.000248643
-3.13673e-05
0.000215083
-4.88084e-05
0.000182794
-6.77768e-05
0.000155249
-8.45127e-05
-9.79068e-05
0.000132939
-2.84717e-06
6.84841e-05
-7.02778e-06
0.000208021
-3.56208e-06
0.00019118
2.47074e-05
0.000127511
5.21803e-05
0.000105908
7.91677e-05
0.000105295
0.000110152
9.9386e-05
0.000141975
7.98082e-05
0.00016951
5.28444e-05
0.000192146
2.38248e-05
0.000215829
-2.81819e-06
0.000243959
-2.15352e-05
0.000275576
-3.36018e-05
0.000306258
-3.60061e-05
0.000329696
-2.94197e-05
0.000340102
-1.72588e-05
0.000335788
-5.41941e-06
0.000317323
1.66506e-07
0.00028791
-1.95427e-06
0.000250169
-1.10671e-05
0.000208031
-2.56396e-05
0.000164837
-4.13183e-05
-5.56326e-05
0.000122562
-3.88811e-06
7.23721e-05
3.17146e-06
0.000200962
1.40687e-05
0.000180283
3.19265e-05
0.000109653
4.46554e-05
9.31792e-05
5.95125e-05
9.04377e-05
8.05125e-05
7.83861e-05
0.00010488
5.54402e-05
0.000129529
2.81958e-05
0.000152318
1.0353e-06
0.000172396
-2.28965e-05
0.000192471
-4.16095e-05
0.000213037
-5.41678e-05
0.000235051
-5.80202e-05
0.000256465
-5.08341e-05
0.000273525
-3.43184e-05
0.000282113
-1.40075e-05
0.000278108
4.17147e-06
0.000259914
1.62393e-05
0.000229053
1.97941e-05
0.000189027
1.43862e-05
0.000142763
4.94569e-06
-5.335e-06
9.24654e-05
-6.75538e-06
7.91275e-05
1.0163e-05
0.000184044
2.33846e-05
0.000167061
2.30985e-05
0.00010994
2.0875e-05
9.54027e-05
2.84006e-05
8.29121e-05
4.40682e-05
6.27183e-05
6.2841e-05
3.66671e-05
8.18759e-05
9.16083e-06
9.99453e-05
-1.70343e-05
0.000117188
-4.01387e-05
0.000134397
-5.88195e-05
0.000150977
-7.07473e-05
0.000167084
-7.41267e-05
0.00018355
-6.72999e-05
0.000199084
-4.98531e-05
0.000209958
-2.48813e-05
0.000211705
2.42481e-06
0.000202203
2.57409e-05
0.000182153
3.98437e-05
0.000151907
4.46317e-05
0.000112318
4.45349e-05
4.46286e-05
6.23549e-05
-9.90508e-06
8.90329e-05
4.88187e-06
0.000169257
1.0505e-05
0.000161438
-1.61459e-06
0.000122059
-9.42451e-06
0.000103212
-6.7383e-06
8.02257e-05
2.7599e-06
5.32198e-05
1.54451e-05
2.39817e-05
3.00357e-05
-5.42978e-06
4.55605e-05
-3.25591e-05
6.13179e-05
-5.5896e-05
7.68203e-05
-7.43218e-05
9.18468e-05
-8.57737e-05
0.000106367
-8.86473e-05
0.000120621
-8.1554e-05
0.000133511
-6.27425e-05
0.000143061
-3.44312e-05
0.000148066
-2.58129e-06
0.000146813
2.69944e-05
0.000137364
4.9292e-05
0.000118316
6.36794e-05
8.89135e-05
7.39379e-05
8.68052e-05
4.67375e-05
-1.38636e-05
0.000102897
-1.2842e-05
0.000168235
-1.54109e-05
0.000164007
-2.98634e-05
0.000136512
-3.86439e-05
0.000111993
-4.2091e-05
8.36728e-05
-4.07783e-05
5.19069e-05
-3.47408e-05
1.7944e-05
-2.47729e-05
-1.53976e-05
-1.17694e-05
-4.55625e-05
3.06461e-06
-7.07299e-05
1.84819e-05
-8.9739e-05
3.33593e-05
-0.000100651
4.77753e-05
-0.000103063
6.17843e-05
-9.5563e-05
7.54629e-05
-7.64211e-05
8.73349e-05
-4.63033e-05
9.61932e-05
-1.14398e-05
0.000100566
2.26214e-05
9.94072e-05
5.04509e-05
9.14627e-05
7.1624e-05
7.66293e-05
8.87712e-05
0.000108187
5.52474e-05
-1.9647e-05
0.000122544
-2.98246e-05
0.000178413
-3.93021e-05
0.000173485
-5.32787e-05
0.000150488
-6.54266e-05
0.000124141
-7.5765e-05
9.4011e-05
-8.14913e-05
5.7633e-05
-8.08947e-05
1.73473e-05
-7.46492e-05
-2.1643e-05
-6.32035e-05
-5.70081e-05
-4.84994e-05
-8.5434e-05
-3.38251e-05
-0.000104413
-2.08592e-05
-0.000113617
-9.23599e-06
-0.000114687
3.10261e-06
-0.000107902
1.69731e-05
-9.02915e-05
3.16629e-05
-6.09931e-05
4.46671e-05
-2.4444e-05
5.52159e-05
1.20725e-05
6.25565e-05
4.31103e-05
6.70724e-05
6.71082e-05
7.03914e-05
8.54521e-05
0.000101326
7.72528e-05
-2.46552e-05
0.000147199
-3.9196e-05
0.000192954
-5.21493e-05
0.000186438
-6.72002e-05
0.000165539
-8.34208e-05
0.000140361
-9.83147e-05
0.000108905
-0.000108283
6.76016e-05
-0.000111
2.00634e-05
-0.000107142
-2.55004e-05
-9.66996e-05
-6.74507e-05
-8.24669e-05
-9.96669e-05
-6.78819e-05
-0.000118999
-5.61819e-05
-0.000125318
-4.80727e-05
-0.000122796
-4.12721e-05
-0.000114702
-3.23626e-05
-9.92011e-05
-1.9652e-05
-7.37039e-05
-4.33671e-06
-3.97595e-05
1.05644e-05
-2.82877e-06
2.5866e-05
2.78087e-05
4.21545e-05
5.08193e-05
6.11023e-05
6.65039e-05
7.40176e-05
8.84104e-05
-2.40977e-05
0.000171297
-3.81958e-05
0.000207052
-5.16671e-05
0.000199909
-6.64908e-05
0.000180363
-8.24083e-05
0.000156279
-9.6043e-05
0.000122539
-0.000105118
7.66761e-05
-0.000108586
2.35313e-05
-0.000106494
-2.75925e-05
-9.96508e-05
-7.42935e-05
-8.94517e-05
-0.000109866
-7.78102e-05
-0.00013064
-6.72056e-05
-0.000135922
-6.1166e-05
-0.000128836
-5.96061e-05
-0.000116262
-5.83112e-05
-0.000100496
-5.28368e-05
-7.91786e-05
-4.12366e-05
-5.13599e-05
-2.42559e-05
-1.98095e-05
-3.79947e-06
7.35252e-06
1.8899e-05
2.81206e-05
4.5729e-05
3.96741e-05
4.0903e-05
7.88435e-05
-1.69065e-05
0.000188203
-2.71315e-05
0.000217277
-3.78581e-05
0.000210635
-4.80621e-05
0.000190567
-5.66336e-05
0.00016485
-6.20922e-05
0.000127998
-6.40938e-05
7.86775e-05
-6.49328e-05
2.43701e-05
-6.28206e-05
-2.97049e-05
-6.10086e-05
-7.61055e-05
-6.06077e-05
-0.000110267
-5.99717e-05
-0.000131276
-5.62668e-05
-0.000139628
-5.19799e-05
-0.000133123
-5.15661e-05
-0.000116677
-5.40737e-05
-9.79889e-05
-5.46714e-05
-7.8581e-05
-4.92468e-05
-5.67845e-05
-3.61295e-05
-3.29268e-05
-1.80295e-05
-1.0747e-05
5.1026e-06
4.98842e-06
3.19872e-05
1.27897e-05
1.09141e-05
6.19765e-05
-5.84746e-06
0.000194051
-9.32568e-06
0.000220755
-1.41402e-05
0.00021545
-1.69958e-05
0.000193422
-1.54779e-05
0.000163332
-1.02011e-05
0.000122721
-2.21274e-06
7.0689e-05
5.51008e-06
1.66472e-05
1.14785e-05
-3.56734e-05
1.13428e-05
-7.59699e-05
1.90854e-06
-0.000100833
-1.33704e-05
-0.000115998
-2.56214e-05
-0.000127377
-3.00703e-05
-0.000128674
-3.07853e-05
-0.000115962
-3.26064e-05
-9.61678e-05
-3.4662e-05
-7.65254e-05
-3.31578e-05
-5.82888e-05
-2.53161e-05
-4.07686e-05
-1.12296e-05
-2.48335e-05
6.92283e-06
-1.31641e-05
2.80424e-05
-8.3298e-06
-1.12152e-05
5.01718e-05
6.55895e-06
0.000187492
9.45409e-06
0.00021786
1.35129e-05
0.000211391
1.9124e-05
0.000187811
3.00703e-05
0.000152386
4.55944e-05
0.000107197
6.13079e-05
5.49755e-05
7.43297e-05
3.62528e-06
8.24048e-05
-4.37486e-05
8.17996e-05
-7.5365e-05
7.06165e-05
-8.96499e-05
4.76794e-05
-9.30608e-05
2.03001e-05
-9.99977e-05
3.74511e-07
-0.000108749
-8.08971e-06
-0.000107498
-1.10789e-05
-9.31789e-05
-1.28954e-05
-7.47092e-05
-1.29025e-05
-5.82821e-05
-8.5776e-06
-4.50933e-05
5.26888e-07
-3.3938e-05
1.30323e-05
-2.56693e-05
2.71315e-05
-2.24283e-05
-2.52881e-05
4.12045e-05
1.76593e-05
0.000169832
2.53044e-05
0.000210215
3.67306e-05
0.000199965
5.11137e-05
0.000173428
7.02107e-05
0.000133289
9.32462e-05
8.41612e-05
0.000114971
3.3251e-05
0.000130035
-1.14393e-05
0.000133733
-4.74473e-05
0.000128141
-6.97725e-05
0.000115565
-7.70745e-05
9.4973e-05
-7.24689e-05
6.5784e-05
-7.08087e-05
3.59206e-05
-7.88854e-05
1.65404e-05
-8.81178e-05
8.25867e-06
-8.48976e-05
4.59441e-06
-7.10451e-05
2.89854e-06
-5.65863e-05
3.91112e-06
-4.61054e-05
8.42774e-06
-3.84543e-05
1.58429e-05
-3.30847e-05
2.43484e-05
-3.0934e-05
-3.32573e-05
3.23179e-05
2.4659e-05
0.000145174
3.61261e-05
0.000198747
5.05103e-05
0.00018558
7.06263e-05
0.000153312
9.4784e-05
0.000109131
0.000119175
5.97704e-05
0.000136629
1.57961e-05
0.000143876
-1.86858e-05
0.000141648
-4.52199e-05
0.000134674
-6.27988e-05
0.000125212
-6.7612e-05
0.000112756
-6.0013e-05
9.30684e-05
-5.11219e-05
6.62207e-05
-5.2038e-05
4.15675e-05
-6.34648e-05
2.74997e-05
-7.08297e-05
2.06072e-05
-6.41526e-05
1.6432e-05
-5.24111e-05
1.43153e-05
-4.39895e-05
1.49026e-05
-3.90419e-05
1.77987e-05
-3.59804e-05
2.17206e-05
-3.48556e-05
-3.66246e-05
2.50879e-05
2.5127e-05
0.000120047
3.94382e-05
0.000184436
5.34638e-05
0.000171555
7.27821e-05
0.000133994
9.31816e-05
8.87317e-05
0.000107957
4.4995e-05
0.000115813
7.93963e-06
0.000119142
-2.2015e-05
0.000123017
-4.90954e-05
0.000125974
-6.57554e-05
0.000124265
-6.59037e-05
0.000117973
-5.37204e-05
0.000106089
-3.92387e-05
8.66255e-05
-3.25745e-05
6.30009e-05
-3.98401e-05
4.48444e-05
-5.26734e-05
3.45569e-05
-5.38656e-05
2.79855e-05
-4.58393e-05
2.32461e-05
-3.92494e-05
2.05887e-05
-3.63845e-05
1.98835e-05
-3.52753e-05
2.02604e-05
-3.52326e-05
-3.68276e-05
2.04633e-05
2.03075e-05
9.97391e-05
3.62346e-05
0.000168509
5.01627e-05
0.000157627
6.61418e-05
0.000118015
8.18496e-05
7.30238e-05
9.40887e-05
3.27556e-05
0.000105141
-3.1125e-06
0.00011965
-3.65242e-05
0.000135189
-6.46344e-05
0.00014648
-7.70471e-05
0.000148274
-6.7698e-05
0.000139539
-4.49852e-05
0.000123705
-2.34051e-05
0.0001034
-1.22694e-05
8.00028e-05
-1.64427e-05
5.92849e-05
-3.19554e-05
4.55741e-05
-4.01547e-05
3.6688e-05
-3.69536e-05
2.99991e-05
-3.25609e-05
2.50263e-05
-3.14117e-05
2.16752e-05
-3.19241e-05
1.94467e-05
-3.30041e-05
-3.48537e-05
1.74729e-05
1.75327e-05
8.22065e-05
3.53882e-05
0.000150654
5.15265e-05
0.000141489
6.64619e-05
0.00010308
8.08734e-05
5.86122e-05
9.56346e-05
1.79943e-05
0.000112388
-1.98663e-05
0.00013093
-5.50662e-05
0.000150631
-8.43351e-05
0.000168577
-9.49939e-05
0.000176362
-7.54832e-05
0.000167916
-3.65386e-05
0.000146188
-1.67681e-06
0.000118925
1.49928e-05
9.20452e-05
1.04378e-05
6.91477e-05
-9.05818e-06
5.2631e-05
-2.36382e-05
4.15329e-05
-2.58554e-05
3.35009e-05
-2.4529e-05