/*--------------------------------*- C++ -*----------------------------------*\
| =========                 |                                                 |
| \\      /  F ield         | OpenFOAM: The Open Source CFD Toolbox           |
|  \\    /   O peration     | Version:  2.3.0                                 |
|   \\  /    A nd           | Web:      www.OpenFOAM.org                      |
|    \\/     M anipulation  |                                                 |
\*---------------------------------------------------------------------------*/
FoamFile
{
    version     2.0;
    format      ascii;
    class       volScalarField;
    location    "2.8";
    object      alpha.water;
}
// * * * * * * * * * * * * * * * * * * * * * * * * * * * * * * * * * * * * * //

dimensions      [0 0 0 0 0 0 0];

internalField   nonuniform List<scalar> 
2268
(
1
0.999999
1
1
1
0.999999
0.999998
1
1
1
0.999999
0.999998
0.999998
0.999998
0.999998
0.999722
0.992881
0.980473
0.985489
0.997984
0.998188
0.996664
0.995556
0.999999
1
1
1
0.999999
0.999998
0.999998
0.999999
1
0.999998
0.999997
0.999996
0.999997
0.999999
0.999999
0.995954
0.980473
0.980472
0.980472
0.986224
0.995314
0.998699
0.996657
1
1
1
1
0.999999
0.999997
0.999999
0.999998
0.999996
0.999996
0.999997
0.999999
0.999999
1
1
0.997597
0.985334
0.98047
0.980472
0.980542
0.982788
0.998698
0.999863
1
1
1
1
0.999999
0.999999
0.999999
0.999998
0.999997
0.999999
0.999999
1
0.999999
1
1
1
0.999403
0.9917
0.988851
0.994566
1
0.999375
0.999983
1
1
1
0.999999
0.999999
1
1
0.999999
0.999999
1
1
1
1
1
0.999998
0.999998
1
1
1
1
1
0.999999
0.99999
1
1
1
1
1
1
1
0.999999
0.999998
0.999999
1
1
1
0.999999
0.999999
1
1
1
1
1
1
0.999998
0.999994
1
1
1
1
1
1
1
0.999998
0.999998
0.999998
1
1
1
0.999999
0.999999
1
1
1
1
1
0.999999
0.999997
0.999996
1
0.999999
0.999999
0.999999
1
1
0.999999
0.999999
0.999999
0.999999
1
1
1
0.999999
0.999997
0.999998
0.999998
0.999999
0.999999
1
0.999999
0.999998
0.999998
0.947412
0.951443
0.970562
0.982506
0.982
0.9824
0.989336
0.97768
0.93135
0.93135
0.967132
0.993719
0.993716
0.98247
0.971146
0.973725
0.985816
0.98155
0.97839
0.948398
0.998188
0.998209
0.998214
0.998042
0.998086
0.998054
0.99803
0.960967
0.934662
0.988378
0.993716
0.993719
0.993708
0.991614
0.994354
0.994353
0.994363
0.990736
0.947197
0.992353
0.998214
0.998215
0.998214
0.998156
0.998012
0.998006
0.997867
0.978304
0.993719
0.993718
0.99372
0.975276
0.990384
0.993043
0.994346
0.994332
0.994326
0.947196
0.981407
0.998215
0.998215
0.997033
0.995215
0.997086
0.997868
0.997861
0.960574
0.978908
0.984353
0.929295
0.899646
0.921199
0.983182
0.994327
0.994324
0.99424
0.947196
0.983841
0.998215
0.998215
0.998212
0.99289
0.996466
0.99778
0.980652
0.908651
0.902744
0.900354
0.899472
0.899326
0.899338
0.960722
0.994339
0.994316
0.99366
0.963266
0.995288
0.998215
0.998215
0.998215
0.993678
0.991745
0.997488
0.938841
0.909451
0.915088
0.961297
0.899326
0.899228
0.899153
0.934699
0.994324
0.994303
0.993671
0.998106
0.998216
0.998215
0.998215
0.998214
0.997411
0.972739
0.996395
0.976936
0.914661
0.970175
0.993751
0.900461
0.899159
0.899123
0.934466
0.99429
0.994289
0.994223
0.998134
0.998214
0.998215
0.998215
0.998215
0.991415
0.926839
0.996119
0.995944
0.987031
0.993881
0.993881
0.985455
0.901702
0.899086
0.959721
0.99397
0.994276
0.994181
1
1
1
1
1
1
1
1
1
1
0.999999
0.999998
0.999993
0.999983
0.999969
0.999957
0.999953
0.999963
0.999981
0.999999
0.999999
0.999999
0.999998
1
1
1
1
1
1
1
1
0.999982
0.999993
0.999967
0.99901
0.993487
0.981187
0.961199
0.935095
0.906504
0.878729
0.851947
0.830827
0.826449
0.828419
0.809836
0.988674
0.969927
0.94679
0.922727
0.894126
0.859419
0.822591
0.784839
0.738911
0.682349
0.620895
0.55282
0.469373
0.385856
0.310017
0.248247
0.20319
0.17575
0.165784
0.166216
0.159206
0.139295
0.105258
0.431297
0.39166
0.330748
0.267736
0.20378
0.156034
0.117405
0.0825691
0.0541452
0.0335083
0.0158089
0.00260465
0.00256998
0.00256918
0.00256586
0.0025635
0.0025635
0.0025633
0.0025635
0.00278621
0.00631174
0.00741631
0.00521365
0.0100558
0.00619683
0.00241166
0.00562046
0.0142948
0.0174854
0.0178671
0.0178414
0.0178671
0.0185225
0.0185265
0.0126241
0.00519513
0.00256998
0.00256918
0.00272224
0.00256329
0.0025635
0.00256671
0.00524445
0.0118174
0.0118401
0.0113363
0.00966555
0.00327287
0.00119327
0.00653514
0.0202266
0.0202567
0.0202266
0.0201724
0.0200375
0.0197906
0.0166722
0.00675525
0.00283098
0.00275622
0.00588952
0.00716508
0.004374
0.00256671
0.00371724
0.0116945
0.0118401
0.0114986
0.0112063
0.0100129
0.00364971
0.000828509
0.00159635
0.0135928
0.0202266
0.018378
0.00937646
0.00556998
0.00485621
0.0035946
0.00253202
0.00507189
0.00716247
0.00717252
0.00717543
0.00714143
0.00349341
0.00263797
0.00634855
0.00675011
0.00106638
1.94939e-06
0.00888094
0.00303245
0.00068749
0.000556131
0.00105774
0.000266804
7.87163e-05
7.66301e-05
7.4511e-05
7.24559e-05
7.09258e-05
0.00114475
0.00518828
0.00582903
0.00534531
0.00522493
0.00411964
0.00228137
0.000357391
0.000309996
5.97198e-07
5.76456e-07
9.87072e-07
0.00156438
0.00167024
0.000663713
0.000556131
0.000596004
0.00176357
0.000600206
7.45196e-05
7.44247e-05
7.12327e-05
6.76326e-05
6.44949e-05
1.39885e-05
7.19753e-06
3.16576e-06
2.14559e-06
1.8602e-06
6.83886e-06
4.82382e-05
7.87008e-07
5.76458e-07
5.76456e-07
5.76458e-07
0.000101198
8.87541e-05
0.000138538
0.00107594
0.00189084
0.00189331
0.00188213
0.000622914
7.43838e-05
7.23354e-05
7.04426e-05
7.00101e-05
0.000124847
0.000167984
9.83609e-05
1.83369e-05
1.88068e-06
1.69367e-06
7.7528e-06
3.85821e-05
2.43149e-05
5.76456e-07
5.85804e-07
5.14077e-05
2.36822e-05
3.62429e-05
0.000796174
0.00189092
0.0018835
0.00162589
0.00114268
0.000248306
7.69439e-05
9.01941e-05
0.000138579
0.00033812
0.00033812
0.00033812
0.000256034
9.3432e-07
8.47074e-07
2.36992e-05
5.49605e-05
5.49988e-05
2.09818e-05
5.25923e-07
2.3368e-05
1.0321e-05
1.48086e-05
0.000353355
0.000871865
0.000328132
3.52009e-09
3.35493e-09
0.00014364
0.000461071
0.000462882
0.000359755
7.18417e-06
0.00021153
0.000336599
0.000252513
1.48694e-06
8.08496e-08
1.48396e-05
5.49988e-05
5.49988e-05
5.44969e-05
4.01323e-06
9.30528e-06
4.70291e-06
8.16065e-06
6.51761e-05
9.47014e-05
3.52003e-09
2.82656e-09
3.12201e-10
-1.7766e-11
4.03407e-07
3.4634e-06
1.62834e-10
6.47148e-06
1.6464e-10
1.49556e-06
1.74665e-10
2.70952e-10
1.2051e-09
9.84961e-09
1.60634e-05
5.49988e-05
5.36237e-05
2.07662e-05
3.33945e-06
2.05453e-06
2.20697e-06
8.84915e-07
1.65776e-07
8.64399e-07
1.38034e-09
2.17769e-10
1.89404e-10
1.72042e-10
1.66593e-10
1.64398e-10
1.64365e-10
1.64394e-10
1.64385e-10
1.658e-10
1.77249e-10
2.26021e-10
7.85546e-11
3.02765e-10
2.29651e-06
2.14015e-05
1.92834e-05
1.05298e-06
9.19702e-07
2.35869e-07
1.58165e-07
3.3482e-08
5.2301e-07
1.19151e-07
6.89068e-09
1.6055e-09
1.03882e-09
4.24223e-10
2.86914e-10
1.68042e-10
1.6565e-10
1.66115e-10
1.94864e-10
3.49268e-10
3.03804e-10
2.72986e-10
2.7874e-10
3.33134e-10
1.03337e-09
2.42429e-08
2.92256e-07
2.49479e-07
9.00329e-08
3.99834e-08
1.58402e-08
7.32967e-08
8.08099e-08
2.19517e-08
2.44866e-09
1.13977e-09
6.62353e-10
4.43206e-10
2.9559e-10
2.16111e-10
1.88744e-10
2.26886e-10
3.47818e-10
4.24835e-10
2.67136e-10
2.42171e-10
1.72587e-09
2.07371e-08
7.72969e-08
7.48182e-08
6.41668e-08
3.2124e-08
1.05915e-08
4.16667e-09
1.92527e-09
7.94529e-09
7.99931e-09
3.86703e-09
1.34569e-09
7.22782e-10
4.77116e-10
3.27243e-10
2.4991e-10
1.94773e-10
1.60884e-10
1.41674e-10
1.29348e-10
1.14574e-10
9.93824e-11
5.02398e-09
1.14641e-07
1.33846e-07
2.29454e-08
2.08198e-08
1.23659e-08
4.05491e-09
2.19509e-09
1.6638e-09
1.60053e-09
1.83761e-09
1.84826e-09
1.37023e-09
8.3143e-10
5.32466e-10
3.42416e-10
2.68692e-10
2.13216e-10
1.728e-10
1.43162e-10
1.22501e-10
1.09241e-10
9.31187e-11
1.00025e-10
1.61121e-08
1.10278e-07
9.73084e-09
7.90671e-09
6.11229e-09
2.50802e-09
1.70926e-09
1.63047e-09
1.58172e-09
1.60904e-09
1.60207e-09
1.36268e-09
9.38435e-10
6.06948e-10
3.40547e-10
2.7325e-10
2.20256e-10
1.79708e-10
1.47153e-10
1.22692e-10
1.06202e-10
9.03669e-11
1.02263e-10
7.44109e-11
7.44649e-11
6.96899e-09
4.30174e-09
3.09138e-09
1.91442e-09
1.5265e-09
1.53344e-09
1.57701e-09
1.6097e-09
1.57724e-09
1.36823e-09
9.89335e-10
6.46127e-10
3.49776e-10
2.79141e-10
2.23185e-10
1.79326e-10
1.4403e-10
1.17155e-10
9.77426e-11
8.05717e-11
1.359e-10
1.04178e-10
8.40292e-11
2.76057e-08
5.83619e-09
1.5729e-09
1.48425e-09
1.47648e-09
1.49271e-09
1.54333e-09
1.55551e-09
1.50442e-09
1.30885e-09
9.70507e-10
6.5099e-10
3.52559e-10
2.79797e-10
2.21504e-10
1.75015e-10
1.36927e-10
1.07024e-10
8.4583e-11
6.66845e-11
1.0116e-10
1.72017e-10
1.26294e-10
5.19612e-08
8.56373e-09
1.51339e-09
1.39184e-09
1.40457e-09
1.43788e-09
1.46402e-09
1.44593e-09
1.37187e-09
1.18031e-09
8.98902e-10
6.26458e-10
3.45221e-10
2.73193e-10
2.15036e-10
1.67756e-10
1.28259e-10
9.65469e-11
7.22781e-11
5.46348e-11
4.70371e-11
4.03297e-11
4.98059e-11
5.21142e-08
4.51351e-08
9.56594e-09
1.13766e-09
1.15748e-09
1.25536e-09
1.30549e-09
1.29008e-09
1.233e-09
1.09417e-09
8.69287e-10
6.1085e-10
3.39545e-10
2.53675e-10
2.04409e-10
1.57676e-10
1.17867e-10
8.56981e-11
6.11475e-11
4.34358e-11
3.16262e-11
2.41535e-11
1.90506e-11
5.21142e-08
5.15763e-08
1.16622e-08
1.05166e-09
1.02282e-09
1.09681e-09
1.15074e-09
1.1348e-09
1.11291e-09
1.07197e-09
8.92265e-10
6.18807e-10
3.3376e-10
2.38856e-10
1.92971e-10
1.46041e-10
1.06062e-10
7.43242e-11
5.07266e-11
3.41037e-11
2.2906e-11
1.5578e-11
1.07674e-11
2.01568e-08
1.20118e-08
4.07696e-09
1.02082e-09
1.01311e-09
1.01321e-09
1.04274e-09
1.09329e-09
1.08858e-09
1.05027e-09
8.96302e-10
6.29825e-10
3.54028e-10
2.1053e-10
1.71654e-10
1.27816e-10
9.04502e-11
6.14019e-11
4.03706e-11
2.59692e-11
1.65057e-11
1.04507e-11
6.62119e-12
1.89506e-09
1.2023e-09
1.02579e-09
1.01283e-09
1.01284e-09
1.01311e-09
1.01447e-09
1.03141e-09
1.02403e-09
9.95411e-10
8.50322e-10
6.18113e-10
3.58897e-10
1.85929e-10
1.46348e-10
1.05754e-10
7.24141e-11
4.74039e-11
2.9967e-11
1.84728e-11
1.11988e-11
6.71988e-12
4.00696e-12
8.44115e-06
4.91323e-06
1.17646e-05
9.83721e-06
1.75219e-06
1.01547e-09
9.14909e-10
8.78121e-10
8.51427e-10
8.09014e-10
7.17047e-10
5.52821e-10
3.19952e-10
1.55553e-10
1.17117e-10
8.05042e-11
5.24851e-11
3.27677e-11
1.97657e-11
1.16168e-11
6.70109e-12
3.81522e-12
2.1518e-12
2.40468e-05
2.47263e-05
2.47471e-05
2.43214e-05
1.10446e-05
1.01119e-08
1.04746e-09
5.83891e-10
5.28409e-10
5.48315e-10
4.91587e-10
3.7005e-10
1.80646e-10
1.23338e-10
8.22407e-11
5.29541e-11
3.26031e-11
1.92669e-11
1.10055e-11
6.12121e-12
3.33637e-12
1.79101e-12
9.50323e-13
2.00531e-05
2.47471e-05
2.47471e-05
2.40519e-05
7.24495e-06
6.34725e-09
5.79246e-10
2.98706e-10
2.71714e-10
2.39044e-10
1.93315e-10
1.47446e-10
1.07393e-10
7.34797e-11
4.74773e-11
2.89414e-11
1.67777e-11
9.31726e-12
4.99457e-12
2.60259e-12
1.32615e-12
6.63961e-13
3.27858e-13
1.92385e-06
1.57964e-05
1.48515e-05
4.54958e-06
7.01852e-07
2.75739e-08
2.26674e-10
1.45647e-10
1.31169e-10
1.35188e-10
1.15493e-10
8.63236e-11
5.9989e-11
3.88886e-11
2.34423e-11
1.32212e-11
7.096e-12
3.64956e-12
1.81062e-12
8.71776e-13
4.09503e-13
1.88505e-13
8.53669e-14
3.40195e-09
2.27205e-07
1.20192e-07
6.92925e-09
1.46976e-09
8.24783e-09
2.14035e-09
4.74595e-10
1.13216e-10
9.44343e-11
6.76762e-11
4.60459e-11
2.94321e-11
1.75084e-11
9.64075e-12
4.95003e-12
2.42442e-12
1.13877e-12
5.15579e-13
2.26094e-13
9.64568e-14
4.01949e-14
1.6432e-14
1.8837e-10
1.12907e-09
9.30408e-10
3.38765e-10
1.10285e-10
6.27695e-11
6.03032e-10
3.23448e-10
9.01061e-11
5.5626e-11
3.42905e-11
2.08749e-11
1.20773e-11
6.50592e-12
3.22912e-12
1.49212e-12
6.58685e-13
2.78926e-13
1.13709e-13
4.47878e-14
1.7105e-14
6.3586e-15
2.32247e-15
5.11838e-11
9.52176e-11
8.40181e-11
5.26476e-11
4.56834e-11
3.86678e-11
5.45465e-11
5.94231e-11
4.01336e-11
2.37042e-11
1.37357e-11
7.68025e-12
4.03684e-12
1.95806e-12
8.66081e-13
3.56836e-13
1.40349e-13
5.29095e-14
1.91699e-14
6.69249e-15
2.25806e-15
7.41966e-16
2.52721e-16
3.87873e-11
4.80198e-11
4.03641e-11
3.00185e-11
4.07212e-11
3.32768e-11
2.78507e-11
2.20752e-11
1.40709e-11
8.13263e-12
4.45494e-12
2.29532e-12
1.09214e-12
4.72495e-13
1.83319e-13
6.67973e-14
2.3148e-14
7.67061e-15
2.43754e-15
7.44444e-16
2.19668e-16
6.59596e-17
3.33251e-17
2.75455e-11
5.05334e-11
4.11609e-11
2.59923e-11
1.92764e-11
1.36327e-11
9.98562e-12
6.9594e-12
4.21381e-12
2.32431e-12
1.18922e-12
5.59531e-13
2.38444e-13
9.0681e-14
3.0395e-14
9.66426e-15
2.91547e-15
8.38058e-16
2.30312e-16
6.07436e-17
1.59152e-17
6.49307e-18
1.31229e-17
1.04485e-11
1.74634e-11
1.43581e-11
9.80609e-12
6.68367e-12
4.49994e-12
3.01109e-12
1.90024e-12
1.07899e-12
5.57766e-13
2.62684e-13
1.11416e-13
4.19088e-14
1.37486e-14
3.94178e-15
1.07299e-15
2.77193e-16
6.80505e-17
1.59209e-17
3.6133e-18
1.08676e-18
1.7794e-18
7.72243e-18
2.95616e-12
5.16104e-12
4.26378e-12
2.93052e-12
1.90612e-12
1.22094e-12
7.6119e-13
4.44059e-13
2.35217e-13
1.12524e-13
4.81688e-14
1.81751e-14
5.93568e-15
1.64273e-15
3.98726e-16
9.1232e-17
1.97743e-17
4.06297e-18
7.95482e-19
1.71009e-19
1.64998e-19
7.51623e-19
3.84221e-18
6.45678e-13
1.24506e-12
1.03556e-12
7.07401e-13
4.48346e-13
2.75804e-13
1.62366e-13
8.85571e-14
4.36471e-14
1.91713e-14
7.38889e-15
2.45099e-15
6.83674e-16
1.55854e-16
3.16226e-17
5.97064e-18
1.06059e-18
1.77681e-19
2.89708e-20
1.07544e-20
4.24518e-20
2.49981e-19
1.42048e-18
1.08983e-13
2.39583e-13
2.03995e-13
1.40072e-13
8.78587e-14
5.24961e-14
2.94909e-14
1.51454e-14
6.94443e-15
2.79047e-15
9.63067e-16
2.7862e-16
6.55562e-17
1.21099e-17
2.01223e-18
3.06588e-19
4.33682e-20
5.7193e-21
8.26805e-22
1.12679e-21
7.78744e-21
5.35004e-20
3.46902e-19
1.37882e-14
3.63236e-14
3.27238e-14
2.30615e-14
1.45339e-14
8.53251e-15
4.61709e-15
2.24688e-15
9.61014e-16
3.53688e-16
1.09384e-16
2.76032e-17
5.47061e-18
8.17687e-19
1.08192e-19
1.28874e-20
1.39182e-21
1.36428e-22
1.88991e-23
7.35378e-23
6.82131e-22
5.82268e-21
4.61664e-20
1.17151e-15
4.28592e-15
4.31188e-15
3.20256e-15
2.06057e-15
1.20225e-15
6.32346e-16
2.93719e-16
1.17919e-16
4.0032e-17
1.12019e-17
2.5003e-18
4.25824e-19
5.22774e-20
5.3808e-21
4.76661e-22
3.62544e-23
2.3396e-24
1.93819e-25
1.04799e-24
1.48368e-23
1.88723e-22
2.18545e-21
5.05579e-17
3.93398e-16
4.73414e-16
3.81075e-16
2.54237e-16
1.49002e-16
7.68688e-17
3.4384e-17
1.30914e-17
4.15734e-18
1.07463e-18
2.19105e-19
3.3763e-20
3.70485e-21
2.94311e-22
1.73904e-23
7.08626e-25
2.04141e-26
4.46379e-28
6.82234e-29
2.31305e-27
8.01496e-26
2.56292e-24
0.994481
0.99333
0.995527
0.997499
0.775001
0.750646
0.737245
0.734264
0.0713191
0.0573349
0.04706
0.041743
0.00423896
0.00345957
0.0034093
0.00337133
0.00575282
0.00340931
0.00339815
0.00339813
0.0111769
0.00659673
0.00340027
0.00461698
0.00075137
0.00156551
0.00180397
0.00335783
9.43072e-07
1.84202e-06
2.45255e-05
9.51175e-05
6.08246e-07
9.35213e-07
1.84501e-06
1.30229e-05
5.48755e-07
2.29116e-06
4.43941e-05
5.98301e-05
3.1523e-07
4.51922e-07
1.1532e-05
4.4146e-05
1.91483e-07
1.94613e-07
1.0801e-05
1.84103e-05
1.74537e-07
1.4021e-07
7.74806e-08
4.17033e-06
1.40923e-07
1.24193e-07
1.638e-08
8.38759e-09
4.1708e-06
5.66854e-07
9.26352e-09
2.92817e-09
3.41316e-07
4.61082e-07
1.37026e-07
2.45701e-09
1.3306e-08
9.16248e-09
3.48392e-08
3.69364e-08
5.43024e-08
8.26224e-09
3.7872e-10
3.68868e-10
4.43e-09
3.24707e-08
1.31961e-08
7.341e-11
5.49067e-11
5.47894e-11
4.70286e-11
1.43247e-10
9.56479e-11
6.96538e-11
5.19542e-11
3.92515e-11
5.07878e-11
4.75838e-11
4.11372e-11
3.33361e-11
1.68787e-11
1.48898e-11
1.29857e-11
1.11413e-11
8.88781e-12
7.35911e-12
6.09119e-12
5.02014e-12
5.18147e-12
4.06268e-12
3.18984e-12
2.50468e-12
3.01955e-12
2.27615e-12
1.71687e-12
1.29555e-12
1.56657e-12
1.13978e-12
8.29202e-13
6.03298e-13
6.65817e-13
4.65851e-13
3.25746e-13
2.27731e-13
2.19304e-13
1.46388e-13
9.76137e-14
6.50747e-14
5.39124e-14
3.395e-14
2.13544e-14
1.34461e-14
9.6767e-15
5.68572e-15
3.35313e-15
2.00986e-15
1.27206e-15
7.10484e-16
4.2326e-16
2.92928e-16
1.43271e-16
9.9921e-17
9.50213e-17
1.1721e-16
3.28186e-17
4.25716e-17
6.21182e-17
9.39346e-17
1.95856e-17
3.02162e-17
4.68523e-17
7.26765e-17
1.22107e-17
1.92393e-17
3.02343e-17
4.77367e-17
6.15549e-18
9.80773e-18
1.56879e-17
2.57169e-17
2.30235e-18
3.73326e-18
6.23228e-18
1.1292e-17
5.71927e-19
9.72861e-19
1.85382e-18
4.35727e-18
7.99522e-20
1.63914e-19
4.55437e-19
1.70401e-18
4.97002e-21
1.9281e-20
9.63446e-20
6.04926e-19
3.50954e-23
4.86984e-22
6.67255e-21
1.24725e-19
0.998157
0.998213
0.998199
0.998192
0.998063
0.965705
0.82703
0.900836
0.968211
0.981825
0.988209
0.993881
0.993572
0.993105
0.98596
0.982016
0.970288
0.989617
0.993833
0.734274
0.713686
0.701586
0.7007
0.740352
0.776724
0.708874
0.573362
0.667638
0.716432
0.752418
0.799477
0.861732
0.899967
0.924494
0.929263
0.930506
0.9053
0.87092
0.0406853
0.0401295
0.0478195
0.0607812
0.0906034
0.204011
0.398885
0.523782
0.543824
0.556479
0.568097
0.573696
0.57503
0.581329
0.580654
0.557219
0.516889
0.502584
0.533336
0.00335615
0.00333087
0.00311809
0.00263439
0.00185763
0.00163807
0.00159267
0.00156942
0.00152921
0.00231619
0.00140372
0.00335761
0.0146263
0.0242309
0.0248479
0.0211386
0.0232519
0.0377225
0.0481321
0.00339004
0.00528596
0.00481416
0.00434353
0.00447345
0.00446524
0.003913
0.00272542
0.00147085
0.00140372
0.00139992
0.00136045
0.000674519
2.35854e-05
2.23806e-05
2.07482e-05
1.82454e-05
2.15416e-05
3.1484e-05
0.00746596
0.00746673
0.00746673
0.00746673
0.00746527
0.00743126
0.00680683
0.00596174
0.00382139
0.00186854
0.00109068
0.00105798
0.000503125
2.87158e-05
2.40503e-05
2.41172e-05
1.72649e-05
1.88632e-05
6.91651e-05
0.00376322
0.00256436
0.00182991
0.00155197
0.00115186
0.00046829
1.22976e-05
1.2552e-05
1.24217e-05
1.24262e-05
1.24141e-05
1.24939e-05
0.000251778
0.000350661
0.000245113
1.95806e-05
1.67062e-05
1.83501e-05
0.00018425
1.13253e-05
6.66816e-06
6.66816e-06
6.64279e-06
6.66816e-06
7.14562e-06
1.11723e-05
4.76252e-05
1.67068e-05
1.24135e-05
1.24214e-05
2.42207e-05
0.000205978
0.000192611
5.55334e-05
1.54897e-05
1.61702e-05
1.67222e-05
0.000219758
3.96199e-05
4.88958e-05
2.55413e-05
1.90119e-05
4.41203e-05
6.51684e-05
9.67997e-05
9.67997e-05
5.61954e-05
1.24337e-05
1.24149e-05
1.25102e-05
1.28917e-05
1.37288e-05
1.44332e-05
1.45868e-05
7.40817e-05
0.000211879
0.000220167
5.98301e-05
5.98301e-05
4.413e-05
4.09519e-05
7.09205e-05
9.24877e-05
9.66474e-05
9.68012e-05
3.01232e-05
1.24479e-05
2.62327e-05
6.26912e-05
0.000106968
0.000134413
0.000116375
0.000131115
0.00015401
0.000153162
8.44199e-05
5.98301e-05
5.57316e-06
7.26709e-07
6.89095e-07
6.41378e-07
6.15361e-07
2.839e-05
3.25932e-05
2.16144e-05
3.95641e-05
0.000152812
0.000152812
0.000152812
0.000152792
0.000152582
0.000124384
4.06178e-05
2.16869e-05
2.25369e-05
1.37539e-05
6.64769e-06
6.10109e-06
1.21126e-06
6.15511e-07
5.63576e-07
6.1551e-07
2.99282e-06
2.6281e-05
5.71927e-05
0.000131069
0.000152812
0.000152792
0.000103733
2.13945e-05
2.12692e-05
2.12692e-05
2.14029e-05
4.90148e-05
1.81765e-05
2.27305e-05
2.27305e-05
1.76013e-05
1.04131e-06
3.04323e-07
9.22408e-06
3.05316e-05
3.06377e-05
1.92896e-05
1.43655e-06
1.96301e-05
3.09515e-05
1.16623e-05
1.9221e-06
4.09891e-05
5.94449e-05
5.94525e-05
5.94525e-05
6.64483e-06
2.27305e-05
2.26184e-05
2.25063e-05
1.67265e-05
2.27041e-07
1.58641e-07
5.27486e-06
8.8087e-06
7.48658e-08
1.7284e-07
1.77224e-07
1.66447e-07
1.45688e-07
1.65025e-07
2.71178e-05
5.82131e-05
5.93915e-05
5.94276e-05
2.43532e-09
1.46631e-06
1.96274e-05
2.23586e-05
2.20729e-05
1.75986e-06
4.30851e-08
4.30566e-08
4.56438e-08
5.49431e-08
7.10668e-07
1.0355e-06
7.38036e-07
1.38888e-07
1.35657e-07
5.73113e-08
2.65667e-09
5.2225e-06
2.55026e-05
1.99941e-09
3.02782e-11
4.76265e-09
9.58564e-06
9.84879e-06
4.80134e-07
3.77088e-08
1.98974e-07
3.90239e-07
2.30289e-07
5.39932e-07
1.03556e-06
1.03556e-06
1.0351e-06
8.56734e-08
1.16742e-09
1.19955e-09
2.65715e-09
6.39514e-08
2.53486e-09
2.95124e-11
2.95109e-11
2.95109e-11
3.08115e-11
7.02024e-11
3.31666e-08
7.94614e-07
1.07976e-06
1.08023e-06
2.52906e-07
1.81117e-07
1.81741e-07
1.63105e-07
1.4946e-08
9.55156e-10
1.2527e-09
1.63471e-06
2.01509e-05
4.09798e-11
4.00507e-11
3.11521e-11
3.19754e-11
3.38304e-11
4.01673e-11
1.17677e-10
4.29635e-07
1.08023e-06
1.08023e-06
1.07966e-06
1.68635e-07
7.45906e-10
7.45902e-10
7.46183e-10
7.59934e-10
5.81968e-10
3.5817e-06
3.40071e-05
7.32588e-11
4.85777e-11
3.30165e-11
2.91322e-11
3.2966e-11
3.91521e-11
4.37982e-11
3.88821e-11
3.02905e-07
1.08023e-06
1.07617e-06
9.96567e-07
7.50678e-10
7.48102e-10
8.0501e-10
1.13707e-09
1.14934e-10
2.81207e-06
3.40071e-05
7.26694e-11
3.91421e-11
2.93763e-11
2.52605e-11
2.83699e-11
7.85861e-11
2.29158e-10
2.09136e-11
2.11867e-11
2.064e-07
8.99983e-07
4.12618e-07
6.96087e-08
3.91426e-08
5.26263e-08
5.08675e-09
1.14152e-10
7.74747e-07
3.4005e-05
2.90756e-11
2.28383e-11
1.94785e-11
1.78923e-11
1.72678e-11
1.78064e-11
1.76929e-11
2.02314e-11
2.02517e-11
2.03066e-11
2.03886e-11
2.07067e-11
6.01884e-08
1.08855e-07
1.08855e-07
9.53021e-09
8.44785e-11
6.77936e-08
3.39849e-05
2.04589e-11
1.35512e-11
1.07488e-11
1.00759e-11
1.05364e-11
1.20905e-11
1.49809e-11
1.91436e-11
2.36103e-11
2.36713e-11
2.40026e-11
2.4027e-11
2.39636e-11
1.02565e-07
9.51131e-08
1.01467e-08
5.20894e-11
4.999e-11
3.26645e-05
7.75613e-12
5.52578e-12
4.4754e-12
4.37866e-12
5.06575e-12
6.62472e-12
9.30348e-12
1.32285e-11
1.76346e-11
2.18185e-11
2.39042e-11
2.51229e-11
2.39727e-11
1.24624e-08
7.23872e-10
8.38172e-10
6.46522e-11
4.99034e-11
3.09077e-05
3.3015e-12
2.19493e-12
1.62801e-12
1.53599e-12
1.92183e-12
2.9231e-12
4.78426e-12
7.67167e-12
1.14977e-11
1.53876e-11
1.90314e-11
2.20885e-11
2.45466e-11
2.45487e-11
2.47039e-11
2.57704e-11
5.01548e-11
4.99034e-11
2.93214e-05
1.52451e-12
9.2711e-13
6.00352e-13
4.91162e-13
6.1169e-13
1.06949e-12
2.06741e-12
3.81009e-12
6.34809e-12
9.54092e-12
1.32017e-11
1.72589e-11
2.17514e-11
2.68471e-11
3.67302e-11
5.62399e-11
5.89288e-11
4.99034e-11
1.33087e-05
7.35577e-13
4.14057e-13
2.38328e-13
1.63146e-13
1.84854e-13
3.55438e-13
7.95418e-13
1.67022e-12
3.12735e-12
5.27903e-12
8.26333e-12
1.22763e-11
1.7716e-11
2.54079e-11
3.98244e-11
6.51346e-11
6.83768e-11
5.07085e-11
5.07122e-11
3.21295e-13
1.69564e-13
9.06231e-14
5.64667e-14
6.1369e-14
1.27375e-13
3.1664e-13
7.37065e-13
1.5329e-12
2.89105e-12
5.07866e-12
8.49438e-12
1.38338e-11
2.22022e-11
3.85952e-11
6.7514e-11
7.56919e-11
5.22848e-11
5.43429e-11
1.13431e-13
5.64608e-14
2.95504e-14
2.06687e-14
2.86279e-14
6.56339e-14
1.66045e-13
3.98251e-13
8.76266e-13
1.78073e-12
3.39559e-12
6.18025e-12
1.09191e-11
1.89001e-11
3.57961e-11
6.8127e-11
7.72269e-11
5.42072e-11
8.38148e-11
3.01474e-14
1.45657e-14
9.10841e-15
1.12106e-14
2.36753e-14
5.68313e-14
1.348e-13
3.06515e-13
6.62001e-13
1.35892e-12
2.66508e-12
5.03354e-12
9.24563e-12
1.66862e-11
3.39385e-11
7.06306e-11
7.09464e-11
6.38499e-11
6.08659e-06
5.91962e-15
3.54011e-15
4.90135e-15
1.17416e-14
2.94933e-14
6.94536e-14
1.53548e-13
3.23416e-13
6.56117e-13
1.29098e-12
2.47494e-12
4.64646e-12
8.59011e-12
1.57522e-11
3.39592e-11
7.50854e-11
7.13927e-11
3.18805e-08
1.56739e-05
1.12971e-15
1.92214e-15
5.84909e-15
1.71578e-14
4.42525e-14
1.01613e-13
2.13186e-13
4.19485e-13
7.91664e-13
1.4574e-12
2.64798e-12
4.79408e-12
8.69543e-12
1.58979e-11
3.60426e-11
8.11197e-11
7.20932e-11
5.72089e-07
1.56739e-05
5.7986e-16
2.39109e-15
8.99556e-15
2.79438e-14
7.30739e-14
1.65799e-13
3.3617e-13
6.26839e-13
1.10518e-12
1.88947e-12
3.20102e-12
5.47765e-12
9.55003e-12
1.71201e-11
4.11129e-11
8.93394e-11
7.27855e-11
1.43061e-06
1.56685e-05
6.46036e-16
3.4702e-15
1.43649e-14
4.68067e-14
1.25479e-13
2.86593e-13
5.73651e-13
1.03386e-12
1.72669e-12
2.75487e-12
4.33189e-12
6.9217e-12
1.13939e-11
1.9664e-11
5.03142e-11
1.03111e-10
7.36341e-11
1.1275e-06
1.56564e-05
7.80834e-16
4.94524e-15
2.21849e-14
7.63223e-14
2.13452e-13
5.01744e-13
1.01472e-12
1.80721e-12
2.91431e-12
4.39913e-12
6.46239e-12
9.6166e-12
1.47558e-11
2.40495e-11
5.97151e-11
1.27943e-10
1.01193e-10
1.01012e-10
1.16824e-05
9.0298e-16
6.52734e-15
3.1612e-14
1.16648e-13
3.48773e-13
8.64965e-13
1.80773e-12
3.2471e-12
5.15036e-12
7.47574e-12
1.03935e-11
1.45107e-11
2.07172e-11
3.15305e-11
6.05487e-11
1.82208e-10
1.10379e-10
8.95825e-10
8.95888e-10
9.54971e-16
7.63809e-15
4.02789e-14
1.63766e-13
5.40209e-13
1.4495e-12
3.19223e-12
5.88071e-12
9.32313e-12
1.32192e-11
1.76699e-11
2.35335e-11
3.17452e-11
4.5542e-11
1.00258e-10
1.01666e-10
4.44873e-10
1.772e-07
2.25002e-08
8.77576e-16
7.64626e-15
4.50353e-14
2.09256e-13
7.88138e-13
2.33345e-12
5.48743e-12
1.04933e-11
1.6856e-11
2.37063e-11
3.09974e-11
4.0337e-11
5.32795e-11
7.5218e-11
1.40204e-10
4.14658e-10
6.49469e-10
2.52486e-08
3.70214e-09
6.60774e-16
6.36896e-15
4.36812e-14
2.40992e-13
1.06835e-12
3.51899e-12
8.89102e-12
1.7784e-11
2.92808e-11
4.14358e-11
5.38782e-11
7.00748e-11
9.48262e-11
1.41165e-10
2.79283e-10
7.36685e-10
9.90958e-10
5.46523e-10
8.95137e-10
3.83793e-16
4.33219e-15
3.64479e-14
2.45517e-13
1.30874e-12
4.77468e-12
1.30067e-11
2.73929e-11
4.68146e-11
6.77076e-11
8.88849e-11
1.16698e-10
1.64649e-10
2.71611e-10
5.82246e-10
9.27367e-10
8.64861e-10
5.40334e-10
1.28413e-09
1.62268e-16
2.37531e-15
2.573e-14
2.1264e-13
1.37856e-12
5.50021e-12
1.62933e-11
3.6449e-11
6.58915e-11
9.97174e-11
1.34534e-10
1.7932e-10
2.48021e-10
4.16258e-10
6.87197e-10
7.0488e-10
5.38205e-10
5.39355e-10
7.42558e-10
4.59041e-17
9.86056e-16
1.39447e-14
1.39259e-13
1.1188e-12
4.82794e-12
1.58548e-11
3.8002e-11
7.45315e-11
1.22458e-10
1.73277e-10
2.40814e-10
3.06254e-10
3.76425e-10
1.36679e-09
7.07768e-10
5.92008e-08
2.33483e-08
7.52239e-10
6.92511e-18
2.38935e-16
4.32725e-15
5.0301e-14
5.26618e-13
2.44604e-12
9.11904e-12
2.3396e-11
5.07037e-11
9.47934e-11
1.44532e-10
2.1263e-10
2.88992e-10
3.25048e-10
2.31512e-10
6.80592e-08
2.53868e-07
2.53869e-07
7.07491e-08
)
;

boundaryField
{
    leftWall
    {
        type            zeroGradient;
    }
    rightWall
    {
        type            zeroGradient;
    }
    lowerWall
    {
        type            zeroGradient;
    }
    atmosphere
    {
        type            inletOutlet;
        inletValue      uniform 0;
        value           nonuniform List<scalar> 
46
(
0
3.93398e-16
4.73414e-16
3.81075e-16
2.54237e-16
1.49002e-16
7.68688e-17
3.4384e-17
1.30914e-17
4.15734e-18
1.07463e-18
2.19105e-19
3.3763e-20
3.70485e-21
2.94311e-22
0
0
0
0
0
0
0
0
0
0
0
0
0
0
0
0
0
0
0
0
0
0
0
0
0
3.25048e-10
2.31512e-10
6.80592e-08
2.53868e-07
2.53869e-07
7.07491e-08
)
;
    }
    defaultFaces
    {
        type            empty;
    }
}


// ************************************************************************* //
