/*--------------------------------*- C++ -*----------------------------------*\
| =========                 |                                                 |
| \\      /  F ield         | OpenFOAM: The Open Source CFD Toolbox           |
|  \\    /   O peration     | Version:  2.3.0                                 |
|   \\  /    A nd           | Web:      www.OpenFOAM.org                      |
|    \\/     M anipulation  |                                                 |
\*---------------------------------------------------------------------------*/
FoamFile
{
    version     2.0;
    format      ascii;
    class       volScalarField;
    location    "2.8";
    object      k;
}
// * * * * * * * * * * * * * * * * * * * * * * * * * * * * * * * * * * * * * //

dimensions      [0 2 -2 0 0 0 0];

internalField   nonuniform List<scalar> 
2268
(
0.00103295
0.00282694
0.00441592
0.00580441
0.00702048
0.00807993
0.00899053
0.00976297
0.01041
0.0109486
0.0114254
0.0118243
0.0121483
0.0123917
0.012528
0.0124969
0.0121708
0.0116662
0.0109633
0.00992502
0.0082129
0.00577815
0.00256172
0.0024009
0.00696434
0.0103661
0.0133049
0.0158713
0.0180966
0.0200066
0.0216308
0.0230005
0.0241492
0.025111
0.0259024
0.0265282
0.0269713
0.0271791
0.0270507
0.0264512
0.0253943
0.0237898
0.0213971
0.0177872
0.0125889
0.00530215
0.00363211
0.0097319
0.0140492
0.0177413
0.0209452
0.0237042
0.0260567
0.028046
0.0297179
0.0311178
0.0322859
0.033239
0.0339766
0.0344715
0.0346624
0.0344536
0.0337306
0.0324248
0.0304024
0.0273772
0.0228704
0.0164174
0.00682826
0.00480878
0.0121717
0.0171676
0.021381
0.0250138
0.0281214
0.0307536
0.0329677
0.0348232
0.0363766
0.0376711
0.0387211
0.0395203
0.0400346
0.0401997
0.0399283
0.0391193
0.0376611
0.0353849
0.0319713
0.0268685
0.0194097
0.00788526
0.00595021
0.014533
0.0201298
0.0247746
0.0287461
0.0321161
0.0349484
0.0373163
0.039295
0.0409527
0.042333
0.0434475
0.0442846
0.0448047
0.0449441
0.0446229
0.0437463
0.0421898
0.0397582
0.0361062
0.0305876
0.0222131
0.00872477
0.00709809
0.0169088
0.0230866
0.0281241
0.0323849
0.0359629
0.0389408
0.0414124
0.0434713
0.0451982
0.0466358
0.0477921
0.0486503
0.0491674
0.0492815
0.0489206
0.0479962
0.0463828
0.0438799
0.0401234
0.0343864
0.0252926
0.00993997
0.00828151
0.0193542
0.0261207
0.0315369
0.0360552
0.0397986
0.0428761
0.0454079
0.0475091
0.0492751
0.0507453
0.0519229
0.0527871
0.0532924
0.0533802
0.0529878
0.0520367
0.050408
0.0479094
0.0441925
0.0385282
0.0292414
0.0124121
0.00952626
0.0219133
0.0292944
0.0350893
0.0398406
0.0437094
0.0468408
0.0493888
0.0514939
0.0532692
0.054747
0.0559246
0.0567785
0.0572624
0.0573219
0.0569056
0.0559488
0.0543449
0.05192
0.0483802
0.0431389
0.0346888
0.0187645
0.00253085
0.0067597
0.00928095
0.0104937
0.0110066
0.0109298
0.0103129
0.00950156
0.00827091
0.00696665
0.00672014
0.00651547
0.00564065
0.00525115
0.00544768
0.00562616
0.00529715
0.00406313
0.00221601
0.00486783
0.0143347
0.0193683
0.0218885
0.0229709
0.0228749
0.021899
0.0204824
0.0181108
0.0158221
0.0154206
0.0147962
0.0131002
0.0119105
0.0117808
0.0117593
0.0106491
0.00817776
0.0040758
0.00642788
0.0185465
0.0246076
0.0276715
0.0289539
0.0288441
0.027776
0.0261657
0.0237804
0.0214613
0.0205967
0.0196094
0.0178331
0.0163914
0.0158585
0.0153541
0.0138932
0.0108212
0.00548715
0.00836421
0.0222383
0.0288265
0.0320448
0.0333382
0.0331749
0.0320638
0.0303931
0.0280953
0.0258874
0.0247076
0.0234576
0.0216494
0.0200034
0.01909
0.0182913
0.0166344
0.0132285
0.00676761
0.0106152
0.0261502
0.0328067
0.0359059
0.0370893
0.0368438
0.0356961
0.034028
0.0318518
0.0297674
0.0283732
0.0269321
0.025096
0.0232938
0.0220301
0.0209742
0.0191647
0.0155472
0.00797708
0.0134267
0.0304496
0.0367195
0.0395015
0.0405071
0.0401745
0.0390036
0.0373828
0.0353457
0.0333726
0.0318232
0.0302316
0.0283607
0.0264474
0.0248783
0.0235364
0.0215539
0.0177753
0.00916534
0.0175744
0.0351192
0.0405275
0.0428978
0.0437108
0.0433108
0.0421475
0.0406043
0.0387171
0.0368377
0.035159
0.0334292
0.0315166
0.0295173
0.0276913
0.0260342
0.0238314
0.0198786
0.0103946
0.0259276
0.0399439
0.0441758
0.046106
0.0467507
0.0463247
0.0452176
0.0437845
0.0420437
0.0402225
0.0384172
0.03655
0.0345786
0.0324964
0.0304577
0.0284803
0.0260158
0.0218415
0.011617
0.0116439
0.0261582
0.0345647
0.040966
0.0460445
0.0500401
0.0531758
0.0556723
0.0577155
0.0594386
0.060857
0.0619717
0.0627619
0.0631828
0.0631877
0.0627455
0.0618169
0.0603175
0.0581094
0.0550301
0.0508488
0.0449714
0.0366574
0.0145221
0.0325135
0.0427075
0.050057
0.0554724
0.0594125
0.0622985
0.0644945
0.0662679
0.0677548
0.0689608
0.0698956
0.0705569
0.0708897
0.070842
0.0704159
0.069618
0.0683813
0.0665752
0.0642222
0.0613838
0.0580329
0.0544706
0.0178668
0.0401821
0.0528625
0.0612223
0.0666186
0.0700066
0.0721597
0.0736578
0.0748786
0.0759325
0.0768006
0.0774918
0.0780541
0.0783544
0.0782847
0.0779125
0.0773442
0.076503
0.0750586
0.0732069
0.0712993
0.0690468
0.0664363
0.0213395
0.0498492
0.0665186
0.0755912
0.0800615
0.0819908
0.0826453
0.0828817
0.0832236
0.0837064
0.0841558
0.0846191
0.0853022
0.0857013
0.0855785
0.0852201
0.0850031
0.0848983
0.0835765
0.0817705
0.0806152
0.0785165
0.0754337
0.0258976
0.062523
0.0865419
0.0940769
0.0953954
0.0946486
0.0928862
0.0912649
0.09053
0.0904277
0.0904991
0.0911091
0.0924134
0.0929908
0.0926832
0.0920369
0.0917463
0.0923159
0.0904607
0.0885865
0.0869795
0.0841638
0.0808152
0.0339672
0.0795662
0.10685
0.108346
0.105135
0.101831
0.0985146
0.095736
0.0943789
0.0941489
0.0945569
0.095922
0.0977222
0.0986187
0.0976478
0.0964627
0.0960138
0.0953928
0.0939895
0.0923715
0.0898312
0.0868233
0.083689
0.0422998
0.0839205
0.105543
0.111418
0.106849
0.102073
0.0985076
0.0959731
0.0947489
0.0948859
0.0957785
0.0968522
0.0986946
0.0993555
0.0985482
0.0978447
0.0981663
0.0982398
0.097622
0.0960969
0.0924837
0.0891055
0.0860547
0.0485755
0.0851821
0.103684
0.115055
0.110453
0.102124
0.0974014
0.0947597
0.093601
0.0939024
0.0945981
0.0955398
0.0969428
0.0972625
0.0969509
0.0970172
0.098135
0.0998742
0.101219
0.0994902
0.0945585
0.0897421
0.0859349
0.0526224
0.086591
0.10278
0.114165
0.109694
0.100316
0.0953436
0.0929309
0.0918454
0.0919238
0.0925823
0.0938305
0.0948033
0.0948405
0.0947162
0.0950991
0.0962571
0.0980297
0.0993199
0.0971447
0.0924902
0.0878905
0.0847135
0.052918
0.0858306
0.0979991
0.105139
0.101092
0.0951743
0.0919732
0.0905506
0.0898381
0.0898485
0.0904758
0.0914367
0.092085
0.0921033
0.0920642
0.0924793
0.0932187
0.0937869
0.0936195
0.0916391
0.0883184
0.0851151
0.0826283
0.0508235
0.081874
0.0922226
0.0969344
0.0942538
0.0911589
0.0895684
0.0886577
0.0879956
0.0878222
0.0880312
0.0883746
0.0887639
0.0889998
0.0892212
0.0896708
0.0900143
0.0897734
0.0888526
0.087035
0.0846417
0.0822901
0.0801966
0.0472599
0.0764822
0.0871139
0.0914744
0.0903696
0.0891093
0.0883317
0.0872997
0.0862928
0.0856717
0.0853979
0.0853636
0.0856072
0.0860245
0.0865255
0.0870355
0.0871444
0.0865455
0.0853244
0.0836096
0.0816552
0.0796988
0.0777964
0.0428625
0.0707156
0.0822808
0.0870497
0.0873706
0.0868282
0.086072
0.0850996
0.0840616
0.0832123
0.0827012
0.0825214
0.0827032
0.083245
0.0839832
0.0845666
0.0845764
0.0838605
0.0825744
0.0809413
0.0791744
0.0773886
0.0756012
0.038656
0.0636598
0.0765197
0.0815651
0.0827444
0.0825915
0.082154
0.0816179
0.0809353
0.0802994
0.0798792
0.0797386
0.079945
0.0805457
0.081364
0.0819768
0.0819912
0.0813164
0.0801113
0.0786015
0.076969
0.0753041
0.073634
0.0344483
0.0562741
0.0696921
0.0750268
0.076675
0.0770564
0.0772243
0.0772195
0.077035
0.0768061
0.0766716
0.076725
0.077053
0.0776961
0.0784914
0.0790822
0.0791503
0.0786151
0.0775977
0.0762846
0.0748318
0.0733285
0.0718198
0.030193
0.0493855
0.0625574
0.0682438
0.0703474
0.0712222
0.0718149
0.0723115
0.0726263
0.0728422
0.0730648
0.0733838
0.0738777
0.0745683
0.0753261
0.075892
0.0760348
0.0756822
0.0749092
0.0738521
0.0726375
0.0713527
0.0700553
0.0260218
0.0434348
0.0558584
0.0618074
0.0643466
0.0656251
0.0665464
0.0673495
0.0680665
0.068668
0.0692228
0.0698
0.0704564
0.0712008
0.0719414
0.0725058
0.0727374
0.0725769
0.0720637
0.0712891
0.0703495
0.0693226
0.0682692
0.0221457
0.0384704
0.0499695
0.0560069
0.0589155
0.0605385
0.0617235
0.0627513
0.0636923
0.0645733
0.0653796
0.0661574
0.0669431
0.0677388
0.0684846
0.0690704
0.0693962
0.0694171
0.0691505
0.0686532
0.0679941
0.0672367
0.0664367
0.0187686
0.0343447
0.0449274
0.050906
0.0541035
0.056032
0.0574491
0.0586535
0.0597467
0.0607684
0.0617394
0.0626503
0.0635229
0.0643563
0.0651139
0.0657317
0.0661474
0.0663276
0.0662771
0.0660296
0.0656312
0.0651298
0.064571
0.0160097
0.0308754
0.0406147
0.0464481
0.0498603
0.0520595
0.0536936
0.0550549
0.0562646
0.0573762
0.0584203
0.0594088
0.0603317
0.061189
0.0619604
0.06261
0.0631009
0.0634107
0.0635383
0.0635013
0.0633286
0.0630532
0.0627093
0.013873
0.02793
0.0369053
0.0425496
0.0461094
0.0485385
0.0503747
0.051886
0.0532009
0.0543841
0.0554726
0.0564913
0.0574415
0.0583131
0.0590975
0.059776
0.0603279
0.0607388
0.0610057
0.0611366
0.0611479
0.0610607
0.0608981
0.0122722
0.0254328
0.0337148
0.0391432
0.0427858
0.0453962
0.047412
0.049067
0.0504855
0.0517381
0.0528685
0.0539062
0.0548702
0.0557538
0.0565524
0.0572579
0.0578599
0.0583495
0.0587233
0.0589841
0.0591399
0.0592027
0.0591865
0.0110795
0.0233323
0.0309872
0.0361795
0.0398441
0.0425842
0.0447504
0.0465373
0.0480577
0.0493827
0.0505608
0.0516263
0.0526029
0.0535038
0.0543218
0.055056
0.0557021
0.0562553
0.0567124
0.0570733
0.057341
0.0575209
0.0576202
0.0101689
0.0215759
0.0286723
0.0336179
0.0372546
0.0400771
0.0423615
0.044263
0.0458789
0.0472778
0.0485107
0.0496156
0.0506203
0.0515434
0.0523895
0.0531575
0.053847
0.0544557
0.0549809
0.055421
0.0557761
0.0560474
0.0562374
0.00944212
0.0201072
0.0267183
0.0314219
0.0349985
0.037866
0.0402376
0.0422319
0.0439318
0.0454022
0.0466948
0.0478496
0.0488962
0.0498551
0.0507392
0.0515483
0.052284
0.0529454
0.0535304
0.0540366
0.0544624
0.0548067
0.0550689
0.00883629
0.0188727
0.0250722
0.0295576
0.0330636
0.0359503
0.0383801
0.0404432
0.0422121
0.0437488
0.0451038
0.0463169
0.0474177
0.0484271
0.0493591
0.0502178
0.0510051
0.0517203
0.0523617
0.0529268
0.053413
0.0538179
0.0541393
0.00832191
0.0178389
0.0236859
0.0279912
0.0314363
0.0343258
0.0367875
0.0388965
0.0407204
0.0423182
0.0437379
0.0450165
0.0461818
0.0472533
0.0482441
0.0491617
0.0500067
0.0507791
0.051477
0.0520979
0.0526388
0.0530967
0.0534686
0.00789145
0.0169879
0.0225326
0.0266907
0.0300887
0.0329717
0.0354463
0.0375859
0.0394569
0.0411146
0.0426023
0.0439534
0.0451921
0.0463359
0.0473963
0.0483807
0.0492902
0.0501242
0.0508808
0.0515572
0.0521503
0.052657
0.053074
0.00752747
0.0162671
0.021582
0.0256267
0.0289845
0.0318548
0.0343352
0.0365028
0.0384221
0.0401434
0.041705
0.0431355
0.0444557
0.0456804
0.0468194
0.0478789
0.0488599
0.0497612
0.0505802
0.051314
0.0519593
0.0525129
0.0529718
0.00721369
0.0156463
0.0208149
0.02478
0.0280973
0.0309521
0.0334429
0.035646
0.0376209
0.0394126
0.0410544
0.0425708
0.0439796
0.0452932
0.0465194
0.0476627
0.0487232
0.0496986
0.0505856
0.0513804
0.0520796
0.0526803
0.0531796
0.00696372
0.0151876
0.0202464
0.0241457
0.0274236
0.0302679
0.0327781
0.0350252
0.0370626
0.0389302
0.0406574
0.0422654
0.0437697
0.0451804
0.0465032
0.0477405
0.0488906
0.0499492
0.0509114
0.0517728
0.0525294
0.0531784
0.0537178
0.00679481
0.0149179
0.0198903
0.0237332
0.0269803
0.029822
0.0323574
0.0346522
0.0367547
0.0387005
0.0405162
0.0422211
0.0438285
0.0453464
0.0467782
0.0481234
0.0493765
0.0505306
0.0515785
0.0525139
0.0533327
0.0540323
0.0546119
0.00671612
0.0148268
0.0197507
0.0235555
0.0267826
0.0296274
0.0321888
0.0345298
0.0366952
0.0387188
0.0406255
0.0424335
0.0441546
0.0457947
0.0473538
0.0488265
0.0502022
0.051469
0.0526163
0.0536356
0.0545224
0.055275
0.0558946
0.0067307
0.0149126
0.019825
0.0236108
0.0268275
0.0296774
0.032262
0.0346443
0.0368689
0.0389691
0.0409706
0.0428916
0.0447431
0.0465285
0.0482429
0.0498728
0.0513993
0.052803
0.0540675
0.0551823
0.0561428
0.0569498
0.0576077
0.00683295
0.0151645
0.0200957
0.0238776
0.0270897
0.0299441
0.0325474
0.0349656
0.0372455
0.0394233
0.041527
0.0435772
0.0455855
0.0475524
0.0494655
0.0512979
0.0530166
0.0545896
0.0559932
0.0572151
0.058253
0.0591126
0.0598038
0.00700667
0.0155529
0.0205258
0.0243143
0.0275248
0.0303818
0.0329993
0.0354488
0.0377823
0.0400414
0.0422603
0.0444653
0.0466711
0.0488757
0.0510549
0.0531593
0.0551296
0.056914
0.0584802
0.0598172
0.06093
0.0618338
0.0625475
0.0072263
0.0160304
0.0210619
0.0248644
0.028075
0.0309326
0.0335606
0.0360383
0.0384257
0.0407735
0.0431267
0.0455231
0.0479864
0.0505145
0.0530656
0.05555
0.0578566
0.0599024
0.0616496
0.0630981
0.0642704
0.0651984
0.065915
0.00746016
0.0165394
0.0216424
0.0254645
0.028676
0.0315324
0.0341682
0.0366723
0.0391151
0.0415608
0.0440718
0.0467071
0.0495113
0.0524921
0.0555842
0.0586228
0.0613835
0.0637392
0.0656652
0.0671963
0.0683899
0.0693052
0.0699933
0.00768382
0.0170379
0.0222186
0.026059
0.0292672
0.0321183
0.0347585
0.0372866
0.0397853
0.0423363
0.0450276
0.0479541
0.051205
0.0548256
0.0587377
0.0626355
0.0660052
0.0686876
0.0707372
0.0722743
0.0734172
0.0742612
0.0748771
0.00821833
0.0176333
0.0228127
0.026624
0.0298017
0.0326343
0.0352722
0.0378196
0.0403703
0.0430257
0.0459074
0.0491654
0.0529733
0.0574834
0.0626818
0.0680495
0.0721893
0.0751005
0.0771082
0.0785016
0.0794806
0.0801743
0.0806651
0.0165453
0.0193234
0.023627
0.0271809
0.030247
0.0330324
0.0356567
0.0382152
0.0408067
0.0435501
0.0466031
0.0501851
0.0546031
0.0602515
0.0674696
0.075795
0.0806549
0.0833857
0.0850011
0.086017
0.0866876
0.0871443
0.0874586
0.08379
0.0257494
0.0248079
0.027668
0.0305401
0.0332604
0.035866
0.0384275
0.0410413
0.0438364
0.0469956
0.050796
0.0556833
0.0624147
0.0723518
0.0881284
0.0923435
0.0938267
0.0945026
0.0948762
0.0951083
0.0952615
0.0953649
0.0269642
0.0254736
0.026875
0.0314788
0.0525651
0.0519536
0.0519899
0.0525154
0.064926
0.0641839
0.0635876
0.0629946
0.0733923
0.0723098
0.0713559
0.0703148
0.0786381
0.0772492
0.0759202
0.0747015
0.0814778
0.0801227
0.0788787
0.0778692
0.0837456
0.082525
0.0815046
0.0804749
0.0840283
0.0831601
0.0823977
0.0813863
0.0831057
0.0822243
0.0813616
0.0803532
0.0810959
0.0801492
0.0791839
0.0781658
0.0786998
0.0777405
0.0767642
0.0757683
0.0763379
0.075398
0.0744514
0.0735032
0.0742169
0.0733296
0.0724442
0.0715637
0.0723643
0.0715575
0.0707569
0.0699603
0.0706964
0.0699884
0.0692878
0.068588
0.0691021
0.0685034
0.0679109
0.0673152
0.0674975
0.067012
0.0665289
0.0660383
0.0658444
0.0654686
0.0650903
0.0647004
0.0641447
0.0638694
0.0635868
0.0632888
0.0624283
0.0622409
0.0620418
0.0618244
0.0607392
0.0606256
0.0604968
0.0603476
0.059127
0.059074
0.0590035
0.0589111
0.0576399
0.0576361
0.057613
0.0575675
0.0563199
0.0563557
0.0563713
0.056364
0.0552018
0.0552697
0.0553166
0.0553408
0.0543134
0.0544076
0.0544805
0.0545305
0.0536773
0.0537938
0.0538883
0.05396
0.0533129
0.0534485
0.0535616
0.0536517
0.0532381
0.0533906
0.05352
0.0536258
0.0534712
0.0536392
0.053783
0.0539025
0.0540333
0.0542156
0.0543724
0.054504
0.0549503
0.0551457
0.0553142
0.0554563
0.0562545
0.0564617
0.0566403
0.0567912
0.0579866
0.0582036
0.0583903
0.0585478
0.0601971
0.0604208
0.0606123
0.0607734
0.0629471
0.0631724
0.0633641
0.0635244
0.0663085
0.0665279
0.0667131
0.0668669
0.0703628
0.0705662
0.0707362
0.0708762
0.0751997
0.0753748
0.0755197
0.0756378
0.0809159
0.08105
0.0811596
0.0812481
0.0876155
0.0876981
0.0877648
0.0878179
0.0954153
0.0954414
0.095462
0.0954783
0.0423285
0.047126
0.049476
0.0507679
0.051215
0.0508557
0.0499931
0.0487924
0.0472399
0.0454231
0.0434042
0.0413126
0.0391992
0.0369626
0.0346245
0.0321626
0.0291565
0.0244241
0.012848
0.0536505
0.0548361
0.0557826
0.0565198
0.0568562
0.0567534
0.0565047
0.0557457
0.0542404
0.052144
0.0497339
0.0472468
0.0447641
0.042214
0.0395219
0.0365597
0.0329702
0.0274941
0.0142034
0.0619999
0.0613346
0.0614345
0.0618679
0.0621519
0.0623864
0.0630016
0.0628766
0.0612656
0.0586139
0.055616
0.052597
0.0496698
0.0467801
0.0437125
0.040298
0.0362312
0.0299629
0.0147582
0.0683896
0.0665658
0.0661451
0.066423
0.0668565
0.0676548
0.0692857
0.0702143
0.0684777
0.0648896
0.0610283
0.0573044
0.0538245
0.0505264
0.0470915
0.0433402
0.0389876
0.0319182
0.0146118
0.0725966
0.0703691
0.0696006
0.0696005
0.069732
0.0700445
0.0709598
0.0718022
0.0705682
0.0674877
0.0637055
0.0599472
0.0563383
0.0528361
0.0493382
0.0456151
0.0409944
0.0334724
0.0159984
0.0759222
0.0733301
0.0719604
0.0715003
0.0712327
0.0706875
0.0700156
0.0691628
0.0676545
0.0655185
0.0629116
0.0598997
0.056625
0.0533377
0.0501845
0.0467102
0.0414862
0.0330979
0.0146882
0.0783242
0.0753819
0.0735425
0.0726529
0.0720176
0.0709862
0.0694914
0.0676322
0.0656628
0.0637681
0.0617724
0.0592602
0.0560956
0.0526722
0.0493234
0.0454757
0.0399875
0.0315591
0.013798
0.0792587
0.076308
0.0742768
0.0730091
0.0719131
0.070419
0.0684299
0.0660463
0.0637469
0.0618307
0.0599912
0.0576082
0.0543819
0.0507307
0.0470592
0.0429854
0.0376453
0.0298489
0.0138163
0.0784671
0.0757563
0.0736351
0.0719759
0.070387
0.0685329
0.0663193
0.0638369
0.0614575
0.0594131
0.0574304
0.054922
0.0515738
0.0477916
0.0440307
0.0400564
0.0351066
0.0278655
0.0133621
0.0764532
0.0740451
0.0719285
0.0700395
0.0681672
0.0661327
0.0638548
0.0613842
0.0589466
0.0566717
0.0543474
0.0515484
0.0481062
0.044352
0.0406562
0.036841
0.03217
0.0251449
0.0112395
0.0741626
0.0719602
0.0699011
0.0679319
0.0659481
0.0638546
0.0615783
0.0591236
0.0565983
0.0540515
0.0513392
0.0482435
0.0447013
0.0409138
0.0371061
0.0331439
0.0283395
0.0211792
0.00908286
0.0720003
0.0699565
0.067987
0.0660461
0.0640731
0.0620053
0.0597732
0.0573463
0.0547523
0.0519891
0.0489826
0.0456484
0.0419654
0.0380176
0.0338886
0.0294966
0.0243933
0.0174407
0.00713403
0.0701689
0.0682639
0.0664076
0.0645601
0.0626688
0.060675
0.0585112
0.0561296
0.0535131
0.050643
0.0474993
0.0440592
0.0403107
0.0362623
0.0319112
0.027201
0.021924
0.0154896
0.00679596
0.0686863
0.0669264
0.0652015
0.0634768
0.0616969
0.0597971
0.0577134
0.0553972
0.0528155
0.0499509
0.0468119
0.0434132
0.0397572
0.0358269
0.0315731
0.0269271
0.0217937
0.01576
0.00751009
0.0674528
0.065857
0.0642778
0.0626869
0.0610269
0.0592287
0.0572341
0.055004
0.0525064
0.0497276
0.0466862
0.0434149
0.0399312
0.0362225
0.0322381
0.0278998
0.0230837
0.0172664
0.00842836
0.0663317
0.0649174
0.0634951
0.0620431
0.0605057
0.0588143
0.0569184
0.0547884
0.0523995
0.0497429
0.0468374
0.0437163
0.0404012
0.0368866
0.0331333
0.0290663
0.0245133
0.0187829
0.00919189
0.0652111
0.0639862
0.0627257
0.0614137
0.0599994
0.0584199
0.0566314
0.0546098
0.052338
0.0498113
0.0470456
0.0440678
0.040897
0.0375318
0.0339413
0.0300479
0.0256341
0.0198888
0.0097507
0.064026
0.0629895
0.0618893
0.0607144
0.0594214
0.0579567
0.0562814
0.0543741
0.0522223
0.0498246
0.0471936
0.0443498
0.0413091
0.0380723
0.0346124
0.0308464
0.02653
0.0208152
0.0102187
0.0627571
0.0619003
0.0609547
0.0599121
0.058738
0.0573883
0.055829
0.0540399
0.0520108
0.0497416
0.0472429
0.0445308
0.0416186
0.0385075
0.035171
0.0315219
0.0273061
0.021685
0.0106657
0.0614207
0.0607294
0.0599292
0.0590137
0.0579557
0.0567198
0.0552769
0.0536081
0.0517042
0.0495652
0.0472001
0.0446222
0.0418424
0.0388597
0.035646
0.0321096
0.0279909
0.0224739
0.011114
0.0600557
0.0595129
0.0588466
0.0580513
0.0571057
0.0559808
0.0546532
0.0531052
0.0513278
0.0493208
0.0470916
0.0446509
0.0420066
0.0391527
0.0360587
0.0326275
0.0285934
0.023122
0.0115933
0.0587135
0.0582994
0.0577528
0.0570685
0.0562295
0.055213
0.0539981
0.0525691
0.0509174
0.0490423
0.046949
0.0446458
0.0421375
0.039416
0.0364427
0.0331102
0.0291398
0.0236666
0.012002
0.0574484
0.0571436
0.056702
0.0561181
0.0553779
0.0544629
0.0533553
0.052041
0.0505118
0.048766
0.0468067
0.0446391
0.0422642
0.0396688
0.036807
0.0335609
0.0296349
0.0241274
0.0123371
0.0563098
0.0560967
0.0557456
0.0552506
0.0545999
0.0537782
0.0527702
0.0515634
0.0501499
0.0485265
0.0466943
0.0446548
0.0424045
0.0399243
0.0371608
0.0339858
0.0300861
0.0245201
0.0126099
0.05534
0.0552031
0.0549289
0.0545111
0.0539396
0.0532014
0.0522835
0.0511744
0.0498664
0.048355
0.0466386
0.044715
0.0425758
0.040196
0.0375148
0.034394
0.0305026
0.024857
0.0128005
0.0545739
0.0545001
0.0542903
0.0539383
0.0534351
0.0527698
0.0519307
0.0509076
0.0496924
0.0482793
0.0466641
0.0448407
0.0427958
0.0404986
0.0378813
0.0347959
0.0308933
0.0251437
0.0128589
0.0540401
0.0540183
0.0538619
0.0535648
0.0531192
0.0525154
0.0517432
0.0507929
0.0496561
0.0483256
0.0467943
0.0450526
0.0430825
0.0408477
0.0382736
0.0352025
0.0312675
0.0253924
0.0128029
0.0537626
0.0537837
0.0536709
0.0534189
0.0530205
0.0524671
0.0517494
0.0508582
0.0497844
0.0485192
0.047053
0.0453725
0.0434553
0.04126
0.0387058
0.0356261
0.0316384
0.0256292
0.0127218
0.0537628
0.0538192
0.0537418
0.0535259
0.0531649
0.0526514
0.0519764
0.0511307
0.0501044
0.048887
0.047466
0.0458247
0.0439366
0.0417556
0.0391956
0.0360826
0.032024
0.025883
0.0126912
0.0540618
0.0541472
0.0540981
0.0539104
0.0535785
0.0530952
0.052452
0.0516391
0.0506455
0.0494585
0.0480629
0.0464383
0.0445543
0.0423607
0.039767
0.0365951
0.0324476
0.0261812
0.0127741
0.0546824
0.0547915
0.0547646
0.0545986
0.0542884
0.0538273
0.0532065
0.0524154
0.0514412
0.0502688
0.0488796
0.0472494
0.045344
0.0431098
0.0404536
0.0371959
0.0329403
0.0265468
0.0129557
0.0556508
0.0557789
0.0557692
0.0556195
0.0553254
0.0548801
0.0542745
0.0534965
0.0525309
0.0513594
0.0499595
0.0483026
0.0463508
0.0440474
0.0412985
0.037926
0.0335378
0.0269965
0.0131773
0.0569988
0.0571414
0.0571445
0.057007
0.056725
0.0562917
0.0556968
0.0549262
0.0539618
0.0527808
0.0513556
0.0496526
0.0476295
0.0452276
0.0423534
0.0388326
0.0342775
0.0275479
0.0134352
0.0587647
0.0589173
0.0589294
0.0588011
0.0585292
0.0581064
0.057521
0.0567563
0.0557898
0.0545932
0.0531318
0.0513653
0.0492459
0.0467135
0.0436773
0.0399684
0.0352025
0.0282256
0.0137318
0.0609948
0.0611522
0.0611698
0.0610492
0.0607874
0.0603767
0.0598036
0.0590478
0.0580816
0.0568687
0.0553646
0.0535187
0.0512759
0.0485753
0.045333
0.0413892
0.0363598
0.0290635
0.01403
0.0637439
0.0639001
0.06392
0.0638066
0.0635572
0.0631635
0.0626098
0.061872
0.0609152
0.0596925
0.058145
0.0562053
0.0538061
0.050887
0.0473786
0.0431317
0.03777
0.0300763
0.0143884
0.0670761
0.0672241
0.0672433
0.0671378
0.0669054
0.0665369
0.0660148
0.0653106
0.0643811
0.0631651
0.0615817
0.0595353
0.0569343
0.0537192
0.0498493
0.0452144
0.0394465
0.0312843
0.0148687
0.0710652
0.0711973
0.0712131
0.0711176
0.0709088
0.070577
0.0701035
0.0694557
0.0685822
0.0674037
0.065807
0.0636464
0.0607764
0.0571269
0.0527546
0.0476206
0.0413684
0.0326784
0.0154534
0.0757958
0.0759042
0.0759149
0.0758327
0.0756556
0.0753746
0.0749706
0.0744097
0.0736336
0.0725449
0.0709863
0.0687261
0.0654919
0.0611474
0.0560396
0.0502607
0.043451
0.0342004
0.0161151
0.0813653
0.0814439
0.0814489
0.0813841
0.0812479
0.0810326
0.0807214
0.0802831
0.0796596
0.0787425
0.0773297
0.0750572
0.0713581
0.0657628
0.0595307
0.0529297
0.0455149
0.0357219
0.0168078
0.0878877
0.0879333
0.0879337
0.0878913
0.0878048
0.0876691
0.0874727
0.0871932
0.0867854
0.0861542
0.0850876
0.0830902
0.0790105
0.070786
0.0628366
0.0552646
0.0472685
0.0370295
0.0174526
0.0954997
0.0955132
0.0955122
0.0954972
0.0954677
0.0954222
0.0953567
0.0952634
0.0951254
0.0949019
0.0944783
0.0934594
0.0901575
0.0753297
0.065163
0.0567284
0.0483303
0.0378355
0.0178923
)
;

boundaryField
{
    leftWall
    {
        type            kqRWallFunction;
        value           nonuniform List<scalar> 
50
(
0.00103295
0.0024009
0.00363211
0.00480878
0.00595021
0.00709809
0.00828151
0.00952626
0.0116439
0.0145221
0.0178668
0.0213395
0.0258976
0.0339672
0.0422998
0.0485755
0.0526224
0.052918
0.0508235
0.0472599
0.0428625
0.038656
0.0344483
0.030193
0.0260218
0.0221457
0.0187686
0.0160097
0.013873
0.0122722
0.0110795
0.0101689
0.00944212
0.00883629
0.00832191
0.00789145
0.00752747
0.00721369
0.00696372
0.00679481
0.00671612
0.0067307
0.00683295
0.00700667
0.0072263
0.00746016
0.00768382
0.00821833
0.0165453
0.08379
)
;
    }
    rightWall
    {
        type            kqRWallFunction;
        value           nonuniform List<scalar> 
50
(
0.00221601
0.0040758
0.00548715
0.00676761
0.00797708
0.00916534
0.0103946
0.011617
0.012848
0.0142034
0.0147582
0.0146118
0.0159984
0.0146882
0.013798
0.0138163
0.0133621
0.0112395
0.00908286
0.00713403
0.00679596
0.00751009
0.00842836
0.00919189
0.0097507
0.0102187
0.0106657
0.011114
0.0115933
0.012002
0.0123371
0.0126099
0.0128005
0.0128589
0.0128029
0.0127218
0.0126912
0.0127741
0.0129557
0.0131773
0.0134352
0.0137318
0.01403
0.0143884
0.0148687
0.0154534
0.0161151
0.0168078
0.0174526
0.0178923
)
;
    }
    lowerWall
    {
        type            kqRWallFunction;
        value           nonuniform List<scalar> 
62
(
0.00103295
0.00282694
0.00441592
0.00580441
0.00702048
0.00807993
0.00899053
0.00976297
0.01041
0.0109486
0.0114254
0.0118243
0.0121483
0.0123917
0.012528
0.0124969
0.0121708
0.0116662
0.0109633
0.00992502
0.0082129
0.00577815
0.00256172
0.00256172
0.00530215
0.00682826
0.00788526
0.00872477
0.00993997
0.0124121
0.0187645
0.0269642
0.0254736
0.026875
0.0314788
0.00253085
0.00486783
0.00642788
0.00836421
0.0106152
0.0134267
0.0175744
0.0259276
0.00253085
0.0067597
0.00928095
0.0104937
0.0110066
0.0109298
0.0103129
0.00950156
0.00827091
0.00696665
0.00672014
0.00651547
0.00564065
0.00525115
0.00544768
0.00562616
0.00529715
0.00406313
0.00221601
)
;
    }
    atmosphere
    {
        type            inletOutlet;
        inletValue      uniform 0.1;
        value           nonuniform List<scalar> 
46
(
0.1
0.0257494
0.0248079
0.027668
0.0305401
0.0332604
0.035866
0.0384275
0.0410413
0.0438364
0.0469956
0.050796
0.0556833
0.0624147
0.0723518
0.1
0.1
0.1
0.1
0.1
0.1
0.1
0.1
0.1
0.1
0.1
0.1
0.1
0.1
0.1
0.1
0.1
0.1
0.1
0.1
0.1
0.1
0.1
0.1
0.1
0.0753297
0.065163
0.0567284
0.0483303
0.0378355
0.0178923
)
;
    }
    defaultFaces
    {
        type            empty;
    }
}


// ************************************************************************* //
