/*--------------------------------*- C++ -*----------------------------------*\
| =========                 |                                                 |
| \\      /  F ield         | OpenFOAM: The Open Source CFD Toolbox           |
|  \\    /   O peration     | Version:  2.3.0                                 |
|   \\  /    A nd           | Web:      www.OpenFOAM.org                      |
|    \\/     M anipulation  |                                                 |
\*---------------------------------------------------------------------------*/
FoamFile
{
    version     2.0;
    format      ascii;
    class       volScalarField;
    location    "2.8";
    object      nut;
}
// * * * * * * * * * * * * * * * * * * * * * * * * * * * * * * * * * * * * * //

dimensions      [0 2 -1 0 0 0 0];

internalField   nonuniform List<scalar> 
2268
(
2.93251e-05
3.57957e-05
4.48066e-05
5.14309e-05
5.6509e-05
6.05279e-05
6.37333e-05
6.63013e-05
6.83667e-05
7.00553e-05
7.15464e-05
7.27575e-05
7.37238e-05
7.44245e-05
7.47938e-05
7.47475e-05
7.37391e-05
7.20396e-05
6.95921e-05
6.59465e-05
5.97587e-05
5.02364e-05
3.37815e-05
6.97862e-05
0.000322692
0.000439637
0.000515839
0.00057183
0.000614519
0.00064771
0.000674114
0.000695711
0.000713773
0.000727611
0.000738614
0.000747072
0.000752229
0.000752634
0.000746063
0.000729685
0.000701313
0.000657447
0.000592952
0.000498752
0.00035182
0.000102577
8.59994e-05
0.000581466
0.000859055
0.00103399
0.00115745
0.00124803
0.00131571
0.00136736
0.00140796
0.00144079
0.00146654
0.00148654
0.00150058
0.00150661
0.00150114
0.00147934
0.00143543
0.00136388
0.00125702
0.00110379
0.000888605
0.000587099
0.000116307
9.93377e-05
0.000782715
0.00121546
0.00148605
0.00167329
0.00180802
0.00190666
0.00198022
0.00203658
0.00208105
0.00211568
0.00214159
0.00215787
0.00216133
0.00214685
0.00210756
0.00203534
0.00192089
0.00175214
0.00151236
0.00118169
0.000740285
0.000124963
0.000110767
0.000946134
0.00151837
0.00187573
0.00212001
0.00229375
0.0024195
0.00251204
0.00258183
0.00263595
0.00267737
0.0027071
0.00272369
0.00272307
0.00269895
0.00264312
0.00254549
0.00239368
0.00217047
0.00185333
0.00141681
0.000845479
0.000131297
0.000121226
0.00108357
0.00177916
0.00221401
0.00250874
0.0027167
0.00286612
0.00297517
0.00305659
0.00311896
0.00316585
0.0031983
0.00321446
0.00320967
0.00317694
0.00310718
0.00298883
0.00280689
0.00253985
0.0021582
0.00162764
0.000929469
0.000139161
0.00013104
0.00120209
0.00200674
0.00251077
0.00285021
0.00308827
0.00325839
0.00338182
0.00347332
0.00354283
0.00359438
0.00362908
0.00364485
0.0036367
0.00359726
0.00351698
0.00338341
0.00317966
0.00288104
0.00245233
0.00184772
0.00102865
0.000154596
0.000140456
0.00130626
0.00220816
0.00277424
0.00315357
0.00341825
0.00360648
0.00374237
0.00384249
0.00391819
0.00397387
0.00401069
0.00402656
0.0040163
0.00397243
0.00388528
0.00374213
0.00352535
0.00320898
0.00275541
0.00211204
0.00120306
0.000190308
3.40291e-05
5.48839e-05
6.41979e-05
6.82166e-05
6.9778e-05
6.94395e-05
6.74222e-05
6.48467e-05
6.05467e-05
5.55455e-05
5.48779e-05
5.39115e-05
5.02849e-05
4.86973e-05
4.95605e-05
5.03439e-05
4.87726e-05
4.2779e-05
4.45027e-05
0.000110233
0.000448491
0.000591987
0.000654645
0.00067599
0.000668622
0.000642246
0.000608088
0.000532907
0.000474716
0.000513989
0.000520596
0.000454007
0.000396074
0.000406935
0.000447186
0.000415322
0.000304177
0.000101008
0.000125535
0.000764808
0.00111626
0.00128409
0.00134681
0.00133988
0.00128754
0.00121415
0.00109868
0.00100655
0.00104363
0.00104177
0.000934021
0.000829071
0.000828443
0.00085427
0.000756321
0.000491142
0.000117022
0.000142877
0.000980696
0.00153245
0.00181033
0.00192229
0.00192658
0.00186192
0.00176418
0.00163353
0.00152868
0.00153879
0.00151616
0.0013889
0.0012554
0.00121847
0.00119794
0.00102817
0.00064077
0.00012973
0.000160546
0.00116008
0.00188065
0.00225452
0.00241288
0.00243344
0.00236603
0.00225855
0.00212598
0.00201663
0.00199458
0.00194679
0.00180918
0.00165855
0.00157796
0.00150011
0.00126443
0.000782039
0.000140583
0.00017983
0.00134068
0.00219715
0.00264363
0.00283925
0.00287632
0.00281227
0.00270463
0.00257588
0.00246406
0.00241192
0.00233887
0.00219327
0.0020303
0.00190804
0.00177186
0.00147587
0.000915554
0.000150393
0.000205257
0.00154526
0.00250264
0.00299793
0.00321888
0.00326945
0.00321188
0.00310879
0.00298555
0.00287084
0.0027925
0.00269565
0.00254194
0.00236734
0.00220756
0.00201595
0.00166309
0.00103176
0.000159808
0.000248892
0.00178604
0.0028172
0.00333166
0.00356438
0.00362384
0.00357352
0.00347676
0.00335834
0.00323947
0.00313854
0.00302001
0.00285698
0.00266965
0.00247686
0.00223456
0.00182706
0.00112694
0.000168719
0.000154787
0.00145429
0.00249298
0.00314586
0.00358068
0.003882
0.00409482
0.00424737
0.00435882
0.00444188
0.00450157
0.00454005
0.00455557
0.00454306
0.00449522
0.00440279
0.00425357
0.00403077
0.00371025
0.00325913
0.00264095
0.00182539
0.000899385
0.000172474
0.00163147
0.0028193
0.00356777
0.00406339
0.00440317
0.00464024
0.00480836
0.00493019
0.0050195
0.00508349
0.00512556
0.00514465
0.00513574
0.00509213
0.00500604
0.00486833
0.00466856
0.00439414
0.00403232
0.00356976
0.00300548
0.00238747
0.000190835
0.00180223
0.0031277
0.0039584
0.00450179
0.0048667
0.00511562
0.00528905
0.00541372
0.00550478
0.0055713
0.00561758
0.00564324
0.00564247
0.00560906
0.00553712
0.00542128
0.00525896
0.00504858
0.00479225
0.00449037
0.00414226
0.00378039
0.000207903
0.00197176
0.00345826
0.00436313
0.00493646
0.00530684
0.00555004
0.00571551
0.0058346
0.00592343
0.00599027
0.00604042
0.00607496
0.00608454
0.0060632
0.00600739
0.00591529
0.0057929
0.00563969
0.00547111
0.00529598
0.00508466
0.00485563
0.000229309
0.00207706
0.00387361
0.00482834
0.0053946
0.00574374
0.00595919
0.00610111
0.00620624
0.00628879
0.0063536
0.00640828
0.00645364
0.0064736
0.00646359
0.00641965
0.00634186
0.00624853
0.00613514
0.00603502
0.00592737
0.00578478
0.0056301
0.000265118
0.00238268
0.0043255
0.00525547
0.00578855
0.00611539
0.00630772
0.00642454
0.00651282
0.00658836
0.00665245
0.00671113
0.00676518
0.00679762
0.00678947
0.00674984
0.00668436
0.00659714
0.00652178
0.00646786
0.00639397
0.00629479
0.00618749
0.000288745
0.00251335
0.00442309
0.00548017
0.00601759
0.00633844
0.0065351
0.00665256
0.00673549
0.0068089
0.00687253
0.00692735
0.00698991
0.00702576
0.00702403
0.0069953
0.00695002
0.00688838
0.00684286
0.00680888
0.00675005
0.00667823
0.00660487
0.000312459
0.00253617
0.00446981
0.00562825
0.00616147
0.00645493
0.00666137
0.00679128
0.00687944
0.00695518
0.00701895
0.00707993
0.00714569
0.007181
0.00718643
0.00716946
0.00714124
0.00711161
0.00709633
0.00706962
0.00701316
0.00695082
0.0068986
0.000330482
0.00256333
0.00449449
0.00565366
0.00618837
0.00648075
0.00670446
0.00685615
0.00695868
0.00704142
0.00711545
0.00719313
0.00725872
0.0072937
0.00730371
0.0072947
0.0072756
0.00725966
0.0072506
0.0072303
0.00718932
0.00714969
0.00712455
0.000332783
0.00249491
0.00434255
0.00545207
0.00602946
0.00639405
0.00666529
0.00685599
0.00698563
0.00708544
0.00717382
0.00725713
0.00732497
0.00736666
0.00738591
0.00738884
0.00738013
0.00736699
0.00735532
0.0073424
0.00732545
0.00731295
0.00730526
0.000326433
0.00232446
0.00406768
0.00515337
0.00579007
0.0062342
0.00656651
0.00680256
0.0069652
0.00708664
0.00718648
0.00727263
0.00734645
0.00740252
0.00743918
0.00745976
0.00746553
0.00746142
0.00745556
0.00745152
0.00744973
0.00745084
0.00745173
0.000315083
0.00211279
0.00373943
0.00480716
0.0055012
0.00602272
0.0064167
0.00669655
0.00689349
0.00703944
0.00715534
0.0072533
0.00733943
0.00741262
0.00746964
0.00750993
0.00753251
0.00754163
0.00754536
0.00754943
0.00755562
0.00756234
0.00756582
0.000300179
0.00187701
0.00337284
0.00441435
0.00515432
0.00573979
0.00618982
0.00652242
0.00676368
0.0069432
0.00708494
0.00720398
0.00730834
0.00740035
0.00747775
0.00753701
0.0075762
0.00759921
0.00761359
0.00762538
0.00763689
0.00764667
0.0076515
0.000284482
0.00155951
0.00293454
0.00394543
0.00472946
0.00537242
0.00588812
0.00628393
0.0065797
0.00680331
0.00697992
0.00712677
0.007254
0.00736584
0.00746143
0.0075374
0.00759208
0.00762904
0.00765483
0.00767506
0.00769222
0.00770566
0.00771308
0.000268533
0.00129039
0.00250339
0.00346815
0.00425739
0.00494681
0.00553268
0.00599565
0.00635185
0.00662608
0.00684329
0.00702242
0.00717537
0.00730769
0.00742004
0.00751097
0.00758027
0.00763127
0.00766941
0.00769947
0.00772399
0.00774307
0.00775531
0.000251441
0.00109399
0.00214391
0.00304495
0.00382363
0.00452705
0.00515142
0.0056768
0.00609426
0.00642064
0.00668063
0.0068939
0.00707358
0.00722666
0.00735562
0.00746123
0.00754497
0.00761023
0.00766154
0.00770291
0.00773674
0.00776369
0.00778307
0.000233289
0.00096325
0.00187723
0.0027098
0.00346314
0.00416411
0.00480482
0.00536284
0.00582633
0.00619952
0.00650075
0.00674762
0.00695352
0.0071272
0.00727311
0.00739388
0.00749236
0.00757219
0.00763732
0.00769113
0.0077359
0.00777256
0.00780092
0.000214801
0.000883894
0.00169836
0.00247016
0.00319247
0.00387893
0.00451896
0.00509067
0.00557976
0.00598578
0.00631869
0.0065935
0.00682307
0.00701662
0.00717976
0.00731611
0.00742965
0.00752426
0.00760352
0.00767043
0.00772709
0.00777459
0.00781305
0.000197112
0.000842222
0.0015914
0.00231654
0.00300989
0.00367653
0.00430464
0.00487473
0.00537287
0.00579609
0.00615025
0.00644603
0.00669474
0.00690529
0.00708402
0.00723558
0.00736411
0.00747351
0.00756686
0.00764696
0.00771579
0.0077745
0.00782336
0.000181325
0.000826892
0.00153885
0.00223239
0.00290222
0.00354819
0.00415856
0.00471711
0.00521216
0.00564036
0.00600542
0.0063149
0.00657795
0.00680267
0.00699537
0.00716096
0.00730356
0.00742675
0.00753355
0.00762639
0.00770706
0.00777666
0.00783553
0.000168091
0.000828831
0.00152507
0.0021997
0.00285145
0.0034779
0.00406854
0.00461072
0.00509571
0.00552098
0.00588931
0.00620654
0.00647963
0.00671565
0.00692043
0.00709863
0.00725413
0.00739017
0.00750946
0.00761414
0.00770579
0.00778543
0.00785334
0.000157488
0.00084034
0.00153618
0.00220118
0.00283913
0.00344801
0.00401952
0.00454446
0.00501688
0.0054355
0.0058029
0.00612392
0.00640403
0.00664905
0.00686414
0.00705352
0.00722062
0.0073683
0.00749892
0.0076143
0.00771584
0.00780439
0.00788021
0.000149162
0.00085462
0.00155969
0.00222131
0.002849
0.00344311
0.00399805
0.00450757
0.00496812
0.00537962
0.00574475
0.00606775
0.00635326
0.00660573
0.00682978
0.00702902
0.00720643
0.00736445
0.00750507
0.00762985
0.00773995
0.00783611
0.00791854
0.000142566
0.000866647
0.00158557
0.00224816
0.00286923
0.00345239
0.00399464
0.0044922
0.00494343
0.00534932
0.00571274
0.00603754
0.00632776
0.00658708
0.00681908
0.00702706
0.00721352
0.00738052
0.00752971
0.00766241
0.00777962
0.00788195
0.0079696
0.000137175
0.000874579
0.0016085
0.00227544
0.00289393
0.00347057
0.00400456
0.00449412
0.00493926
0.00534188
0.00570505
0.00603235
0.0063273
0.00659306
0.00683234
0.00704807
0.00724233
0.00741687
0.0075731
0.00771215
0.00783487
0.00794183
0.00803322
0.000132606
0.000879835
0.00162894
0.00230326
0.00292313
0.00349736
0.00402698
0.00451207
0.00495414
0.00535582
0.00572034
0.00605099
0.00635086
0.00662265
0.00686857
0.00709098
0.0072917
0.00747224
0.00763386
0.00777756
0.00790412
0.0080141
0.00810772
0.000128671
0.000886294
0.00165122
0.00233615
0.00296069
0.00353529
0.00406315
0.00454631
0.00498757
0.00539014
0.0057572
0.00609176
0.0063965
0.00667374
0.0069254
0.00715315
0.0073588
0.00754366
0.00770889
0.00785545
0.00798413
0.00809548
0.00818983
0.000125335
0.000897864
0.00168046
0.00237831
0.00300969
0.00358624
0.00411386
0.00459673
0.00503871
0.00544326
0.00581344
0.00615192
0.00646103
0.00674274
0.00699873
0.00723037
0.00743923
0.00762658
0.00779356
0.00794116
0.0080702
0.00818134
0.00827499
0.000122506
0.000911416
0.00171641
0.00242947
0.00306918
0.00364894
0.00417764
0.00466153
0.0051052
0.00551222
0.00588545
0.0062273
0.0065398
0.00682467
0.00708336
0.00731713
0.00752733
0.00771526
0.0078821
0.00802893
0.00815668
0.00826611
0.00835777
0.000120031
0.000921216
0.00175424
0.00248528
0.00313461
0.00371918
0.00425067
0.0047368
0.00518277
0.00559225
0.00596804
0.00631234
0.00662697
0.00691346
0.00717313
0.00740715
0.00761679
0.0078034
0.0079683
0.00811268
0.00823764
0.00834407
0.00843268
0.000118011
0.000932302
0.00179143
0.00254056
0.00320066
0.00379185
0.0043277
0.00481702
0.00526556
0.00567726
0.00605491
0.00640065
0.00671613
0.00700276
0.00726174
0.00749421
0.00770148
0.00788505
0.00804637
0.00818687
0.0083078
0.00841022
0.00849498
0.000116613
0.000946394
0.00182636
0.00259168
0.00326298
0.00386182
0.00440292
0.00489594
0.00534716
0.00576081
0.00613978
0.00648614
0.00680144
0.00708693
0.00734378
0.00757313
0.00777646
0.00795548
0.00811191
0.00824738
0.00836337
0.0084611
0.00854154
0.000115918
0.000960107
0.00185717
0.00263625
0.00331792
0.00392434
0.00447094
0.00496791
0.00542198
0.00583758
0.00621766
0.00656421
0.00687864
0.00716208
0.00741564
0.0076406
0.00783872
0.00801204
0.0081626
0.00829231
0.00840285
0.00849556
0.00857152
0.000115958
0.000972793
0.00188267
0.00267237
0.00336267
0.00397599
0.00452802
0.00502922
0.00548651
0.00590439
0.00628577
0.00663249
0.00694576
0.00722657
0.00747604
0.00769568
0.0078877
0.00805457
0.00819875
0.00832241
0.00842739
0.00851512
0.00858672
0.000116695
0.000984499
0.00190244
0.00269924
0.00339614
0.0040155
0.00457289
0.0050787
0.00553979
0.00596057
0.00634376
0.00669096
0.00700315
0.00728114
0.00752607
0.00773991
0.00792543
0.00808568
0.0082235
0.00834131
0.00844099
0.00852401
0.00859151
0.000117994
0.000995159
0.00191669
0.00271736
0.00341907
0.00404375
0.00460651
0.00511738
0.00558294
0.00600736
0.00639308
0.00674139
0.00705293
0.00732833
0.00756886
0.00777706
0.00795644
0.00811065
0.00824281
0.00835538
0.00845025
0.00852888
0.00859249
0.00011964
0.00100422
0.00192564
0.00272773
0.00343308
0.00406275
0.00463103
0.0051474
0.00561807
0.00604689
0.00643598
0.00678625
0.007098
0.00737173
0.0076089
0.00781281
0.00798771
0.00813754
0.00826534
0.0083735
0.0084639
0.00853815
0.00859766
0.00012137
0.00100992
0.00192771
0.00273011
0.00343923
0.0040743
0.00464852
0.00517083
0.00564713
0.00608101
0.00647432
0.00682763
0.007141
0.00741497
0.0076516
0.00785485
0.00802915
0.00817752
0.0083025
0.00840654
0.008492
0.00856102
0.0086155
0.000123022
0.00100446
0.00191283
0.00271864
0.00343576
0.00407884
0.00466019
0.00518894
0.00567118
0.00611055
0.00650876
0.00686624
0.00718313
0.00746089
0.00770316
0.00791423
0.00809532
0.00824582
0.00836821
0.00846653
0.00854476
0.00860628
0.00865378
0.000127799
0.000941767
0.00183712
0.00267147
0.00341509
0.00407471
0.00466616
0.00520205
0.00569022
0.00613501
0.00653831
0.00690067
0.00722316
0.00751035
0.00777104
0.00800983
0.00820946
0.00836281
0.00847806
0.00856497
0.0086309
0.0086809
0.00871846
0.000186876
0.000672826
0.00158566
0.00254254
0.00336483
0.00405981
0.00466642
0.00521003
0.00570349
0.00615283
0.00656048
0.00692737
0.00725653
0.00755967
0.0078624
0.00818315
0.00841025
0.00855306
0.00864598
0.00870982
0.00875542
0.00878864
0.00881289
0.000413198
0.000351716
0.00115088
0.00233309
0.00329515
0.00404032
0.00466342
0.00521332
0.00571021
0.00616224
0.00657238
0.00694193
0.00727577
0.00759525
0.00796596
0.00855219
0.00875588
0.00883592
0.0088764
0.00890102
0.00891757
0.00892923
0.00893754
0.000230002
0.000221789
0.000227574
0.000247239
0.00197072
0.00190374
0.00192163
0.00203635
0.00359007
0.00353941
0.00356018
0.00365476
0.0047345
0.00469193
0.00469236
0.00473775
0.00553538
0.00549273
0.00547753
0.00549432
0.00611748
0.00608241
0.0060657
0.00607255
0.00655752
0.00653537
0.00652499
0.00652668
0.00687519
0.00686739
0.00686513
0.00686581
0.00711701
0.00711501
0.00711464
0.00711435
0.00730435
0.00730408
0.00730303
0.00730051
0.00745257
0.00745182
0.00744867
0.00744279
0.00756593
0.00756405
0.00755918
0.00755099
0.0076513
0.00764895
0.00764337
0.00763418
0.00771412
0.00771246
0.00770751
0.00769883
0.00775939
0.00775968
0.00775671
0.00774999
0.00779186
0.00779515
0.00779525
0.00779166
0.00781566
0.00782272
0.00782664
0.00782693
0.00783443
0.00784568
0.00785379
0.0078583
0.00785158
0.00786709
0.00787943
0.00788818
0.00787035
0.00789001
0.00790641
0.00791918
0.00789413
0.00791763
0.00793775
0.00795418
0.00792616
0.00795297
0.00797627
0.00799581
0.00796872
0.00799821
0.00802408
0.00804611
0.008023
0.00805451
0.00808228
0.00810614
0.00808882
0.00812167
0.00815066
0.00817568
0.00816448
0.00819798
0.00822755
0.00825309
0.00824677
0.00828028
0.0083098
0.00833526
0.00833116
0.0083641
0.00839302
0.00841789
0.00841239
0.00844425
0.00847212
0.00849599
0.00848512
0.00851553
0.00854203
0.0085646
0.00854481
0.00857354
0.00859846
0.00861958
0.00858855
0.0086155
0.00863879
0.00865845
0.0086157
0.0086409
0.00866261
0.00868087
0.00862819
0.00865175
0.00867201
0.008689
0.00863045
0.00865251
0.00867144
0.00868729
0.00862898
0.00864958
0.00866724
0.00868201
0.00863153
0.00865056
0.00866684
0.00868044
0.00864612
0.00866323
0.0086778
0.00868995
0.00868001
0.00869456
0.00870689
0.00871713
0.00873879
0.00874996
0.00875936
0.00876714
0.00882573
0.00883273
0.00883857
0.00884339
0.00894186
0.0089442
0.00894614
0.00894773
0.00126856
0.00250161
0.00335234
0.00383026
0.00405933
0.00412724
0.00409153
0.00400476
0.00389071
0.00376255
0.00363069
0.0034814
0.00330101
0.00309183
0.00285293
0.00253911
0.00204737
0.00124766
0.000177097
0.00269535
0.00351013
0.0041025
0.00446458
0.0046479
0.0047067
0.00468311
0.00460354
0.00448652
0.00433926
0.00417297
0.00398781
0.00377731
0.00353577
0.00324672
0.00285845
0.00227785
0.00137053
0.000185556
0.00394826
0.00441329
0.00479168
0.00503936
0.00516659
0.00520631
0.00519137
0.00511988
0.00499344
0.00482148
0.00462088
0.00440005
0.00415674
0.00388193
0.00354738
0.00309963
0.00245029
0.00146056
0.000188338
0.00488181
0.00514275
0.00537412
0.00553127
0.00561177
0.00563511
0.00562301
0.0055594
0.00541983
0.00521802
0.00498182
0.00472594
0.00444927
0.0041404
0.00376651
0.00327279
0.00257005
0.00151288
0.000187527
0.00556739
0.00571887
0.00585461
0.00594396
0.00598287
0.00598172
0.00594336
0.00585888
0.00570138
0.00548307
0.00522962
0.00495403
0.00465377
0.00431615
0.00391127
0.00338423
0.00264051
0.0015443
0.00019504
0.00611025
0.00619167
0.00626084
0.00629742
0.00629556
0.0062512
0.00616208
0.00602533
0.00583737
0.00561141
0.00535759
0.00507396
0.00475656
0.00439949
0.00397833
0.00343583
0.00266724
0.00153559
0.000188285
0.00654095
0.00657484
0.00659855
0.00659529
0.00655473
0.00646853
0.00633376
0.00615043
0.00592588
0.0056766
0.00540799
0.00510876
0.00476785
0.00438314
0.00393794
0.00337757
0.00260809
0.00149742
0.000183686
0.0068692
0.00687442
0.00686631
0.00682858
0.00675086
0.0066259
0.00645054
0.00622663
0.00596619
0.00568677
0.00539172
0.0050662
0.00469575
0.00427799
0.00380422
0.00323404
0.00248717
0.00144459
0.000184653
0.00711146
0.00709722
0.00706172
0.00699298
0.00688231
0.0067242
0.00651611
0.00626038
0.00596899
0.00565755
0.00532834
0.00496629
0.00455694
0.00410115
0.0036009
0.00303288
0.00232651
0.00136005
0.000181708
0.00729073
0.00725913
0.00720175
0.00710844
0.00697203
0.00678824
0.00655502
0.00627436
0.00595567
0.00561069
0.00524081
0.00483357
0.00437929
0.0038822
0.00335316
0.00278277
0.00211649
0.00124411
0.000166238
0.00742572
0.00738074
0.00730724
0.00719629
0.00704176
0.00684003
0.0065892
0.00629039
0.00594971
0.00557391
0.00516272
0.0047081
0.00420495
0.00365945
0.00308634
0.00248663
0.00182229
0.00101537
0.000148666
0.00752923
0.00747543
0.00739162
0.00727009
0.00710524
0.0068936
0.00663315
0.00632395
0.00596862
0.00556937
0.00512411
0.00462824
0.00407959
0.00348472
0.00285895
0.00221353
0.00154125
0.000818247
0.000131943
0.00761041
0.00755248
0.00746423
0.00733884
0.00717094
0.00695686
0.00669429
0.00638215
0.00602034
0.00560822
0.00514317
0.00462201
0.00404428
0.00341712
0.00275599
0.00207596
0.00139068
0.000717149
0.000129211
0.00767588
0.00761855
0.00753123
0.00740778
0.00724293
0.00703268
0.00677437
0.00646603
0.00610613
0.00569292
0.00522414
0.00469784
0.00411537
0.00348465
0.00281887
0.00213182
0.00143495
0.000741562
0.000135697
0.00773053
0.007678
0.00759603
0.00747903
0.00732183
0.00712022
0.00687126
0.00657259
0.00622213
0.00581796
0.00535838
0.00484267
0.00427317
0.00365712
0.00300458
0.00232212
0.00160717
0.000850863
0.0001436
0.00777776
0.00773319
0.00765976
0.00755233
0.00740591
0.00721627
0.00698031
0.00669557
0.00635984
0.0059713
0.00552857
0.00503126
0.004481
0.003882
0.00323849
0.00254853
0.0017977
0.000961497
0.000149883
0.0078199
0.00778522
0.00772222
0.00762615
0.00749229
0.00731652
0.00709568
0.00682725
0.00650904
0.00613915
0.0057161
0.00523883
0.00470701
0.00412061
0.00347715
0.00276615
0.00196381
0.00104193
0.000154524
0.00785874
0.00783478
0.00778296
0.00769891
0.00757821
0.00741694
0.00721195
0.00696063
0.00666065
0.00630988
0.00590624
0.00544747
0.00493079
0.00435196
0.00370261
0.00296586
0.00211319
0.00111839
0.000158503
0.00789608
0.00788278
0.00784201
0.00776978
0.00766199
0.00751491
0.00732541
0.00709073
0.00680832
0.00647557
0.00608957
0.00564661
0.0051415
0.00456638
0.00390839
0.00314668
0.00225119
0.00119757
0.000162219
0.00793409
0.00793068
0.0079002
0.00783898
0.00774322
0.00760934
0.00743422
0.00721494
0.00694858
0.00663195
0.00626119
0.00583112
0.00533437
0.00476001
0.00409188
0.00330658
0.00237286
0.00126991
0.000165864
0.00797521
0.00798039
0.00795897
0.00790755
0.00782255
0.00770045
0.00753816
0.00733253
0.00708024
0.00677747
0.00641937
0.00599938
0.00550816
0.00493189
0.00425205
0.0034432
0.00247321
0.00132071
0.000169524
0.008022
0.00803424
0.00802031
0.00797707
0.00790115
0.0077892
0.00763793
0.00744397
0.00720358
0.00691228
0.00656426
0.00615169
0.00566365
0.00508488
0.00439445
0.00356456
0.00256107
0.00136151
0.000172479
0.00807637
0.00809415
0.00808611
0.00804937
0.00798078
0.00787707
0.00773485
0.00755051
0.00731989
0.00703788
0.00669785
0.00629087
0.00580473
0.00522271
0.0045222
0.00367338
0.00263981
0.00139728
0.000174844
0.00813936
0.00816116
0.00815744
0.00812558
0.00806261
0.00796533
0.0078303
0.00765365
0.00743083
0.00715617
0.00682228
0.00641931
0.00593395
0.00534822
0.0046381
0.00377206
0.00271145
0.00142968
0.000176708
0.00821078
0.00823513
0.00823425
0.00820576
0.00814685
0.00805441
0.0079249
0.00775425
0.00753754
0.00726859
0.00693934
0.00653911
0.00605363
0.00546382
0.00474438
0.00386231
0.00277693
0.00145915
0.000177863
0.008289
0.00831457
0.00831521
0.00828876
0.00823259
0.00814363
0.00801828
0.00785227
0.00764036
0.00737586
0.00705014
0.00665176
0.00616555
0.00557142
0.00484289
0.00394556
0.00283706
0.00148646
0.000178015
0.00837102
0.00839662
0.00839768
0.00837222
0.00831775
0.00823126
0.00810908
0.00794677
0.00773876
0.00747795
0.00715511
0.00675812
0.00627097
0.00567257
0.00493526
0.00402335
0.00289319
0.0015129
0.000177518
0.00845269
0.00847737
0.008478
0.00845277
0.00839932
0.00831466
0.00819509
0.00803597
0.00783147
0.00757406
0.007254
0.00685847
0.00637067
0.00576847
0.00502306
0.00409744
0.00294685
0.001539
0.000177026
0.00852921
0.00855228
0.00855194
0.00852652
0.00847374
0.00839067
0.00827355
0.00811759
0.00791668
0.00766292
0.00734606
0.00695263
0.00646499
0.00586002
0.00510766
0.00416949
0.00299942
0.00156478
0.000176987
0.00859581
0.00861691
0.00861536
0.00858962
0.00853753
0.00845616
0.00834171
0.00818927
0.00799248
0.00774308
0.00743033
0.00704013
0.00655403
0.00594784
0.00519015
0.00424087
0.00305201
0.00159008
0.000177767
0.0086486
0.00866761
0.0086649
0.00863902
0.00858789
0.00850862
0.00839739
0.00824915
0.00805734
0.00781336
0.00750601
0.00712058
0.00663779
0.00603233
0.0052713
0.00431259
0.00310565
0.00161553
0.000179162
0.00868528
0.00870234
0.00869871
0.00867306
0.00862338
0.00854682
0.00843955
0.00829641
0.00811065
0.00787337
0.00757293
0.00719401
0.00671647
0.00611387
0.00535163
0.00438532
0.00316129
0.00164263
0.000180765
0.00870568
0.00872109
0.00871695
0.00869202
0.00864438
0.00857126
0.0084688
0.00833178
0.00815325
0.00792405
0.00763206
0.00726138
0.00679099
0.00619322
0.00543174
0.00445955
0.00321952
0.00167204
0.000182596
0.00871203
0.00872616
0.00872194
0.00869828
0.00865334
0.00858442
0.00848769
0.00835786
0.00818781
0.00796804
0.00768601
0.0073251
0.00686342
0.00627201
0.00551269
0.00453581
0.00328057
0.0017039
0.000184651
0.00870876
0.00872194
0.00871806
0.00869617
0.00865457
0.00859067
0.00850065
0.00837917
0.00821891
0.00801
0.00773932
0.00738948
0.00693753
0.00635319
0.00559645
0.00461507
0.00334479
0.00173911
0.000186713
0.00870202
0.00871443
0.00871119
0.00869153
0.00865391
0.00859586
0.00851363
0.00840183
0.00825289
0.00805648
0.00779865
0.00746094
0.00701909
0.00644134
0.00568612
0.00469889
0.00341201
0.00177602
0.000189122
0.00869886
0.00871047
0.00870803
0.00869097
0.00865796
0.00860667
0.00853349
0.00843298
0.00829733
0.00811555
0.00787255
0.00754813
0.00711601
0.00654269
0.00578602
0.00478967
0.00348288
0.00181368
0.000192199
0.00870639
0.00871692
0.00871528
0.00870111
0.0086733
0.00862977
0.00856708
0.00847989
0.00836019
0.00819623
0.0079712
0.007662
0.00723858
0.00666483
0.00590041
0.00488925
0.00355797
0.00185258
0.000195813
0.00873096
0.00873993
0.00873896
0.00872789
0.00870585
0.00867106
0.00862046
0.00854904
0.00844886
0.00830754
0.00810608
0.00781646
0.00740053
0.00681562
0.00603163
0.00499691
0.00363576
0.00189192
0.000199775
0.0087776
0.00878445
0.00878397
0.00877611
0.00876028
0.00873512
0.00869816
0.00864515
0.00856893
0.00845731
0.00828945
0.00803001
0.00762294
0.00700159
0.00617689
0.00510679
0.00371092
0.00192865
0.000203804
0.00884985
0.0088541
0.00885389
0.00884927
0.00883988
0.0088249
0.00880271
0.00877042
0.00872281
0.00865003
0.00853249
0.00832856
0.00794722
0.00722086
0.00632189
0.00520502
0.00377356
0.00195768
0.000207466
0.00894986
0.00895126
0.00895121
0.00894971
0.00894667
0.00894182
0.00893462
0.00892407
0.00890823
0.00888305
0.00883855
0.00874425
0.00848001
0.00743319
0.00642886
0.00526788
0.00381056
0.00197343
0.000209928
)
;

boundaryField
{
    leftWall
    {
        type            nutkWallFunction;
        Cmu             0.09;
        kappa           0.41;
        E               9.8;
        value           nonuniform List<scalar> 
50
(
5.54634e-06
8.41314e-06
1.02636e-05
1.17262e-05
1.29648e-05
1.40835e-05
1.51362e-05
1.6157e-05
1.77364e-05
1.96466e-05
2.16197e-05
2.34959e-05
2.71572e-05
3.08905e-05
3.41896e-05
3.6621e-05
3.96072e-05
3.80145e-05
3.68968e-05
3.52009e-05
3.3118e-05
3.10551e-05
2.88852e-05
2.65433e-05
2.40621e-05
2.15461e-05
1.91412e-05
1.69867e-05
1.51681e-05
1.36981e-05
1.25301e-05
1.1589e-05
1.08025e-05
1.01201e-05
9.59941e-06
9.22578e-06
8.73864e-06
8.16773e-06
7.82355e-06
7.59976e-06
7.49442e-06
7.514e-06
7.65055e-06
7.87992e-06
8.16527e-06
8.4637e-06
8.74416e-06
9.39599e-06
1.74205e-05
4.86635e-05
)
;
    }
    rightWall
    {
        type            nutkWallFunction;
        Cmu             0.09;
        kappa           0.41;
        E               9.8;
        value           nonuniform List<scalar> 
50
(
8.96011e-06
1.19795e-05
1.37779e-05
1.51979e-05
1.64079e-05
1.75014e-05
1.85529e-05
1.95325e-05
2.04629e-05
2.14355e-05
2.18344e-05
2.21039e-05
2.01114e-05
1.91939e-05
1.90834e-05
1.92937e-05
1.88605e-05
1.58453e-05
1.28634e-05
1.05258e-05
1.01307e-05
1.11354e-05
1.20651e-05
1.27976e-05
1.36498e-05
1.43134e-05
1.48218e-05
1.53195e-05
1.58391e-05
1.62621e-05
1.65973e-05
1.6865e-05
1.69278e-05
1.68746e-05
1.68177e-05
1.6735e-05
1.67558e-05
1.69207e-05
1.71046e-05
1.73268e-05
1.75828e-05
1.78412e-05
1.80331e-05
1.83768e-05
1.88294e-05
1.93694e-05
1.99668e-05
2.05775e-05
2.11331e-05
2.1506e-05
)
;
    }
    lowerWall
    {
        type            nutkWallFunction;
        Cmu             0.09;
        kappa           0.41;
        E               9.8;
        value           nonuniform List<scalar> 
62
(
2.46482e-06
4.3046e-06
5.4179e-06
6.21661e-06
6.83192e-06
7.32098e-06
7.71342e-06
8.02926e-06
8.28326e-06
8.48807e-06
8.66475e-06
8.80942e-06
8.92493e-06
9.01061e-06
9.05816e-06
9.04734e-06
8.93293e-06
8.75249e-06
8.49363e-06
8.09375e-06
7.37978e-06
6.20256e-06
4.08673e-06
4.08673e-06
1.22797e-05
1.38301e-05
1.47936e-05
1.55088e-05
1.64798e-05
1.82696e-05
2.21135e-05
2.62504e-05
2.5574e-05
2.62105e-05
2.81817e-05
4.06039e-06
1.30253e-05
1.48374e-05
1.67743e-05
1.87352e-05
2.0884e-05
2.36407e-05
2.82614e-05
4.06039e-06
6.70537e-06
7.83397e-06
8.31554e-06
8.50985e-06
8.48109e-06
8.24577e-06
7.92406e-06
7.40541e-06
6.80609e-06
6.68591e-06
6.58426e-06
6.12842e-06
5.91274e-06
6.02264e-06
6.12055e-06
5.93867e-06
5.19314e-06
3.78271e-06
)
;
    }
    atmosphere
    {
        type            calculated;
        value           nonuniform List<scalar> 
46
(
0.009
0.000351716
0.00115088
0.00233309
0.00329515
0.00404032
0.00466342
0.00521332
0.00571021
0.00616224
0.00657238
0.00694193
0.00727577
0.00759525
0.00796596
0.009
0.009
0.009
0.009
0.009
0.009
0.009
0.009
0.009
0.009
0.009
0.009
0.009
0.009
0.009
0.009
0.009
0.009
0.009
0.009
0.009
0.009
0.009
0.009
0.009
0.00743319
0.00642886
0.00526788
0.00381056
0.00197343
0.000209928
)
;
    }
    defaultFaces
    {
        type            empty;
    }
}


// ************************************************************************* //
