/*--------------------------------*- C++ -*----------------------------------*\
| =========                 |                                                 |
| \\      /  F ield         | OpenFOAM: The Open Source CFD Toolbox           |
|  \\    /   O peration     | Version:  2.3.0                                 |
|   \\  /    A nd           | Web:      www.OpenFOAM.org                      |
|    \\/     M anipulation  |                                                 |
\*---------------------------------------------------------------------------*/
FoamFile
{
    version     2.0;
    format      ascii;
    class       volScalarField;
    location    "2.8";
    object      p;
}
// * * * * * * * * * * * * * * * * * * * * * * * * * * * * * * * * * * * * * //

dimensions      [1 -1 -2 0 0 0 0];

internalField   nonuniform List<scalar> 
2268
(
832.012
830.045
826.686
822.028
816.419
810.064
803.141
795.791
788.13
780.246
772.223
764.118
755.98
747.844
739.717
731.564
723.396
716.038
709.74
704.732
700.891
699.073
699.486
773.53
771.628
768.416
763.805
758.171
751.747
744.721
737.245
729.44
721.406
713.211
704.921
696.583
688.241
679.951
671.849
664.32
657.304
650.935
645.43
641.473
640.07
640.835
715.445
713.462
710.367
705.808
700.145
693.629
686.466
678.819
670.818
662.571
654.15
645.619
637.032
628.458
620.02
612.055
605.085
598.32
592.097
586.762
582.807
580.924
581.609
657.711
655.631
652.482
647.914
642.192
635.564
628.25
620.422
612.218
603.753
595.104
586.337
577.52
568.753
560.21
552.26
545.408
538.996
533.012
527.706
523.746
521.553
521.895
600.345
598.096
594.77
590.12
584.294
577.526
570.046
562.033
553.628
544.95
536.083
527.097
518.071
509.129
500.478
492.451
485.45
479.178
473.422
468.298
464.456
462.053
462.057
543.311
540.848
537.276
532.483
526.503
519.559
511.888
503.674
495.06
486.168
477.083
467.88
458.64
449.505
440.711
432.577
425.438
419.12
413.512
408.72
405.232
402.698
402.163
486.603
483.881
480.025
475.041
468.858
461.692
453.797
445.359
436.518
427.399
418.089
408.661
399.191
389.835
380.859
372.593
365.339
359.011
353.542
349.052
345.983
343.569
342.035
430.22
427.189
423.01
417.769
411.329
403.892
395.732
387.041
377.953
368.59
359.045
349.395
339.701
330.119
320.953
312.564
305.238
298.928
293.552
289.249
286.407
284.183
281.316
672.117
675.653
679.141
681.552
683.015
684.239
686.017
688.97
692.311
696.08
703.344
708.369
713.067
716.105
718.618
724.272
731.73
736.793
737.421
615.839
617.233
619.83
621.837
623.384
624.944
627.238
631.174
636.963
642.158
646.785
650.925
656.152
659.348
660.974
665.162
671.928
677.177
678.757
559.282
558.877
560.334
561.898
563.45
565.401
568.397
573.277
580.263
586.742
589.691
593.629
598.731
601.972
602.804
606.336
612.383
617.272
619.7
502.518
501.555
501.53
502.481
503.99
506.212
509.643
515.346
522.248
529.125
532.236
536.531
542.335
546.424
546.341
548.325
553.56
557.605
560.592
445.473
444.164
442.796
443.283
444.828
447.375
450.75
457.321
464.521
473.176
477.587
482.919
488.186
492.42
492.043
491.656
495.377
498.341
501.71
387.586
385.502
383.551
383.979
385.743
388.563
391.558
399.213
408.634
418.318
423.794
428.694
434.578
438.329
438.161
436.443
437.804
439.684
443.232
328.05
325.238
323.639
324.498
326.746
329.76
332.235
340.747
351.967
362.897
368.007
372.823
380.776
384.216
384.283
381.909
380.722
381.726
385.235
267.197
263.924
263.254
264.948
268.087
271.455
273.67
281.553
293.948
305.246
310.481
315.635
324.728
329.865
330.365
326.806
323.873
324.478
327.762
342.59
339.019
334.246
328.445
321.472
313.512
304.882
295.772
286.282
276.548
266.673
256.74
246.751
236.83
227.342
218.739
211.315
205.03
199.719
195.486
192.454
189.905
185.458
225.096
220.635
214.914
208.024
199.855
190.833
181.481
171.912
161.999
152.021
141.94
131.9
121.796
111.819
102.524
94.5208
88.1296
83.3284
79.8406
77.2148
74.8486
71.9359
67.5287
110.622
105.899
100.133
93.1324
85.2049
77.3222
69.8987
62.7434
55.8988
49.2765
42.7552
36.4785
30.9114
25.9433
21.6476
18.1007
15.3755
13.6368
12.9554
12.9329
12.6112
11.1467
8.91449
29.0697
25.8433
22.5557
19.9415
17.6095
15.1339
12.584
10.0632
7.95491
6.19857
4.36679
2.65522
1.84977
1.77288
1.91999
1.89089
1.64725
1.44674
1.57592
2.09378
2.53073
2.43619
2.07898
1.62806
0.837363
0.59052
1.88746
3.58775
4.32701
4.34903
3.9814
3.58973
3.15538
2.47325
1.69276
1.35846
1.33367
1.35171
1.26861
1.07684
0.912858
0.964637
1.25823
1.44031
1.37853
1.10383
0.399892
0.0818373
-0.043092
0.226614
1.04375
1.75589
1.74025
1.29939
0.962417
0.762459
0.510322
0.408488
0.617037
0.703321
0.63707
0.530901
0.410316
0.252527
0.152206
0.196075
0.132819
-0.0943748
-0.247162
-0.402801
-0.593308
-0.67138
-0.740872
-0.480566
-0.147738
-0.29064
-0.656343
-0.815717
-0.827115
-0.780949
-0.548993
-0.259548
-0.174189
-0.269463
-0.360514
-0.448339
-0.591935
-0.777976
-0.844997
-0.868867
-1.03241
-1.10123
-0.944536
-1.12725
-1.13888
-1.19727
-1.22426
-1.20382
-1.26136
-1.28435
-1.28565
-1.26916
-1.23225
-1.16549
-1.08351
-1.05347
-1.064
-1.09514
-1.17033
-1.22739
-1.27981
-1.3277
-1.3152
-1.28623
-1.28329
-1.49997
-1.52597
-1.47173
-1.43114
-1.39515
-1.35759
-1.36312
-1.40201
-1.43006
-1.43478
-1.43162
-1.44532
-1.48034
-1.47784
-1.47087
-1.47775
-1.48694
-1.47413
-1.45425
-1.45639
-1.44863
-1.43681
-1.42883
-1.72382
-1.77118
-1.74753
-1.69845
-1.65755
-1.62673
-1.59424
-1.58905
-1.59735
-1.59486
-1.58839
-1.58946
-1.59378
-1.5955
-1.59585
-1.59845
-1.60134
-1.59416
-1.58745
-1.58544
-1.58046
-1.5728
-1.56731
-1.89608
-1.93916
-1.95358
-1.94961
-1.91028
-1.87518
-1.85214
-1.82016
-1.78817
-1.76155
-1.74848
-1.74785
-1.75431
-1.75059
-1.74405
-1.74076
-1.73936
-1.73265
-1.72615
-1.72175
-1.7156
-1.70873
-1.70493
-2.0569
-2.09227
-2.11322
-2.1267
-2.10696
-2.07686
-2.04978
-2.01764
-1.97521
-1.94155
-1.92296
-1.91806
-1.91733
-1.91225
-1.90356
-1.89378
-1.88152
-1.8717
-1.86493
-1.85965
-1.85298
-1.84634
-1.84227
-2.1959
-2.22608
-2.23805
-2.24681
-2.23313
-2.20163
-2.17138
-2.14274
-2.11775
-2.1012
-2.08644
-2.07208
-2.05856
-2.05292
-2.04609
-2.03444
-2.01874
-2.00763
-2.00051
-1.99562
-1.99014
-1.98429
-1.97932
-2.31748
-2.33932
-2.34394
-2.34447
-2.33227
-2.30999
-2.28697
-2.26409
-2.24339
-2.22673
-2.21261
-2.19991
-2.18906
-2.18033
-2.17144
-2.16085
-2.14941
-2.14
-2.13311
-2.12825
-2.12422
-2.11972
-2.11506
-2.42858
-2.44149
-2.4437
-2.44166
-2.43236
-2.41692
-2.39967
-2.38213
-2.3655
-2.35091
-2.33796
-2.32629
-2.31588
-2.30664
-2.29751
-2.28797
-2.27857
-2.27059
-2.26427
-2.25933
-2.25523
-2.25166
-2.24811
-2.53655
-2.54131
-2.54306
-2.54148
-2.53498
-2.52419
-2.51151
-2.49824
-2.48505
-2.4728
-2.46141
-2.45088
-2.44118
-2.43226
-2.42364
-2.41515
-2.40712
-2.40017
-2.39441
-2.38968
-2.3857
-2.38223
-2.37916
-2.64513
-2.64383
-2.64465
-2.64388
-2.63975
-2.63252
-2.62346
-2.61348
-2.60318
-2.5931
-2.5834
-2.57418
-2.56549
-2.55732
-2.54951
-2.54203
-2.53508
-2.52895
-2.52371
-2.51928
-2.51549
-2.51224
-2.50943
-2.75557
-2.75071
-2.74997
-2.74949
-2.74706
-2.7424
-2.7361
-2.72873
-2.72078
-2.71267
-2.7046
-2.69673
-2.68916
-2.68194
-2.67505
-2.66851
-2.66245
-2.65702
-2.65227
-2.64814
-2.64457
-2.64151
-2.63888
-2.86796
-2.8617
-2.85945
-2.85873
-2.85724
-2.85428
-2.84996
-2.84461
-2.83855
-2.83212
-2.82553
-2.81895
-2.8125
-2.80625
-2.80026
-2.79457
-2.78928
-2.78446
-2.78015
-2.77634
-2.77299
-2.7701
-2.76761
-2.98211
-2.97581
-2.97261
-2.97143
-2.97032
-2.96836
-2.96538
-2.96149
-2.95691
-2.95186
-2.94655
-2.94112
-2.9357
-2.93038
-2.92522
-2.92029
-2.91566
-2.91138
-2.90748
-2.90397
-2.90084
-2.89811
-2.89574
-3.09782
-3.09216
-3.0886
-3.08702
-3.08596
-3.08454
-3.08241
-3.07955
-3.07607
-3.07212
-3.06786
-3.06342
-3.05891
-3.05441
-3.05
-3.04573
-3.04167
-3.03787
-3.03435
-3.03113
-3.02822
-3.02566
-3.02341
-3.21491
-3.21009
-3.20661
-3.20479
-3.20368
-3.20251
-3.20089
-3.19873
-3.19606
-3.19297
-3.18955
-3.18593
-3.18219
-3.1784
-3.17464
-3.17095
-3.16739
-3.16401
-3.16083
-3.15789
-3.1552
-3.15281
-3.15068
-3.33318
-3.32917
-3.32598
-3.32409
-3.32295
-3.32191
-3.32061
-3.31893
-3.31685
-3.3144
-3.31165
-3.30869
-3.30558
-3.30239
-3.29918
-3.29599
-3.29287
-3.28986
-3.287
-3.28432
-3.28184
-3.27962
-3.27763
-3.45245
-3.44912
-3.44627
-3.44444
-3.44333
-3.4424
-3.44133
-3.43998
-3.43832
-3.43636
-3.43413
-3.43169
-3.4291
-3.4264
-3.42365
-3.42088
-3.41814
-3.41547
-3.41291
-3.41047
-3.4082
-3.40615
-3.4043
-3.57254
-3.56973
-3.56718
-3.5655
-3.56452
-3.56373
-3.56284
-3.56173
-3.56038
-3.55877
-3.55694
-3.55491
-3.55273
-3.55043
-3.54806
-3.54566
-3.54325
-3.54088
-3.53858
-3.53638
-3.53431
-3.53242
-3.53071
-3.6933
-3.69088
-3.68855
-3.68708
-3.68637
-3.68578
-3.68502
-3.68407
-3.68292
-3.68157
-3.68003
-3.67832
-3.67646
-3.67449
-3.67244
-3.67034
-3.66822
-3.66612
-3.66407
-3.66208
-3.66021
-3.65849
-3.65693
-3.81512
-3.8129
-3.8109
-3.80957
-3.809
-3.80854
-3.80782
-3.80693
-3.8059
-3.80471
-3.80338
-3.8019
-3.80029
-3.79859
-3.7968
-3.79496
-3.7931
-3.79124
-3.7894
-3.78763
-3.78594
-3.78439
-3.78297
-3.93883
-3.93678
-3.93504
-3.93368
-3.93285
-3.93206
-3.93117
-3.93023
-3.92923
-3.92814
-3.92693
-3.92563
-3.92422
-3.92272
-3.92116
-3.91954
-3.9179
-3.91625
-3.91463
-3.91305
-3.91154
-3.91015
-3.90887
-4.06376
-4.06194
-4.06029
-4.05891
-4.05747
-4.05605
-4.05489
-4.05385
-4.05283
-4.05178
-4.05067
-4.04949
-4.04823
-4.04691
-4.04553
-4.0441
-4.04266
-4.04121
-4.03977
-4.03837
-4.03703
-4.0358
-4.03466
-4.18772
-4.18653
-4.18505
-4.18347
-4.18163
-4.18001
-4.17873
-4.17763
-4.1766
-4.17558
-4.17454
-4.17345
-4.17232
-4.17114
-4.16992
-4.16867
-4.1674
-4.16612
-4.16486
-4.16363
-4.16245
-4.16136
-4.16035
-4.31073
-4.30984
-4.30849
-4.30686
-4.30523
-4.30379
-4.30255
-4.30147
-4.30046
-4.29949
-4.29851
-4.29751
-4.29648
-4.29543
-4.29434
-4.29324
-4.29213
-4.29102
-4.28992
-4.28884
-4.28781
-4.28686
-4.28597
-4.43365
-4.43264
-4.43138
-4.43005
-4.42872
-4.42748
-4.42636
-4.42535
-4.4244
-4.42348
-4.42256
-4.42165
-4.42071
-4.41976
-4.4188
-4.41784
-4.41687
-4.4159
-4.41495
-4.41402
-4.41313
-4.41231
-4.41154
-4.55671
-4.55568
-4.5545
-4.55335
-4.55223
-4.55118
-4.55019
-4.54927
-4.54839
-4.54754
-4.54669
-4.54584
-4.545
-4.54415
-4.5433
-4.54245
-4.54162
-4.54079
-4.53998
-4.53919
-4.53843
-4.53772
-4.53707
-4.67992
-4.67891
-4.67781
-4.67679
-4.67585
-4.67494
-4.67408
-4.67325
-4.67245
-4.67166
-4.67088
-4.6701
-4.66933
-4.66857
-4.66782
-4.66709
-4.66638
-4.66569
-4.66501
-4.66434
-4.66371
-4.66312
-4.66257
-4.80327
-4.80231
-4.80129
-4.80039
-4.79958
-4.7988
-4.79804
-4.7973
-4.79657
-4.79584
-4.79512
-4.79441
-4.7937
-4.79302
-4.79236
-4.79175
-4.79116
-4.79059
-4.79004
-4.7895
-4.78898
-4.7885
-4.78805
-4.92674
-4.92584
-4.92492
-4.92412
-4.92341
-4.92274
-4.92207
-4.92141
-4.92075
-4.92008
-4.91942
-4.91875
-4.9181
-4.91749
-4.91691
-4.91641
-4.91595
-4.91551
-4.91509
-4.91467
-4.91426
-4.91388
-4.91352
-5.05028
-5.04947
-5.04864
-5.04794
-5.04734
-5.04675
-5.04618
-5.04559
-5.04499
-5.04438
-5.04376
-5.04313
-5.04252
-5.04195
-5.04145
-5.04106
-5.04074
-5.04045
-5.04015
-5.03985
-5.03954
-5.03925
-5.03897
-5.17385
-5.17315
-5.17243
-5.17184
-5.17132
-5.17083
-5.17034
-5.16982
-5.16929
-5.16872
-5.16814
-5.16754
-5.16695
-5.1664
-5.16595
-5.16568
-5.16554
-5.1654
-5.16524
-5.16505
-5.16484
-5.16463
-5.16442
-5.29739
-5.29681
-5.29624
-5.29576
-5.29535
-5.29495
-5.29454
-5.2941
-5.29363
-5.29311
-5.29255
-5.29196
-5.29136
-5.29079
-5.29034
-5.29025
-5.29036
-5.29041
-5.29038
-5.29029
-5.29016
-5.29002
-5.28987
-5.42083
-5.42041
-5.42005
-5.41972
-5.41942
-5.41913
-5.41881
-5.41844
-5.41802
-5.41754
-5.41698
-5.41635
-5.41567
-5.41496
-5.41429
-5.41457
-5.4152
-5.41551
-5.4156
-5.41559
-5.41552
-5.41543
-5.41533
-5.54421
-5.54404
-5.54392
-5.54374
-5.54358
-5.5434
-5.54317
-5.54287
-5.54249
-5.542
-5.5414
-5.54068
-5.53978
-5.53861
-5.53725
-5.53817
-5.54001
-5.54075
-5.54094
-5.54095
-5.54091
-5.54085
-5.54078
-5.66762
-5.66813
-5.66792
-5.66773
-5.66765
-5.66756
-5.66743
-5.66723
-5.66696
-5.66659
-5.66613
-5.66552
-5.66469
-5.66336
-5.66143
-5.66175
-5.6649
-5.66599
-5.66628
-5.66635
-5.66637
-5.66636
-5.66634
177.466
173.751
171.048
169.478
62.4622
59.6607
57.4992
56.1699
6.97621
6.08249
5.43809
5.00438
1.79634
1.65232
1.56021
1.50013
0.924956
0.840555
0.774975
0.748056
-0.233828
-0.23682
-0.191484
-0.171288
-1.10616
-1.08334
-1.0388
-1.00434
-1.29103
-1.29994
-1.3062
-1.31017
-1.42628
-1.4258
-1.42603
-1.42608
-1.56625
-1.56654
-1.56701
-1.56728
-1.70448
-1.70504
-1.70592
-1.70642
-1.84159
-1.8418
-1.84225
-1.84263
-1.97786
-1.97746
-1.97732
-1.97708
-2.11282
-2.11184
-2.11112
-2.11053
-2.2458
-2.24459
-2.24352
-2.2426
-2.37722
-2.37591
-2.37462
-2.37347
-2.50751
-2.50613
-2.50469
-2.5034
-2.63696
-2.6355
-2.63396
-2.63258
-2.76569
-2.76419
-2.7626
-2.76118
-2.89385
-2.89235
-2.89074
-2.88932
-3.02157
-3.02008
-3.01849
-3.01709
-3.14892
-3.14747
-3.14592
-3.14456
-3.27595
-3.27456
-3.27306
-3.27175
-3.4027
-3.40138
-3.39995
-3.3987
-3.52922
-3.52797
-3.52661
-3.52543
-3.65554
-3.65437
-3.65309
-3.65199
-3.78169
-3.7806
-3.77941
-3.77838
-3.90769
-3.90669
-3.90558
-3.90463
-4.03359
-4.03266
-4.03164
-4.03077
-4.15939
-4.15854
-4.15761
-4.15681
-4.28511
-4.28435
-4.2835
-4.28278
-4.41078
-4.41009
-4.40933
-4.40868
-4.53641
-4.5358
-4.53512
-4.53454
-4.662
-4.66146
-4.66086
-4.66035
-4.78757
-4.7871
-4.78657
-4.78613
-4.91311
-4.91271
-4.91226
-4.91188
-5.03864
-5.03831
-5.03793
-5.03761
-5.16416
-5.16389
-5.16358
-5.16332
-5.28967
-5.28947
-5.28922
-5.28902
-5.41519
-5.41504
-5.41486
-5.41471
-5.54069
-5.54059
-5.54047
-5.54037
-5.66631
-5.66627
-5.66623
-5.6662
169.327
167.758
168.352
171.331
176.684
183.349
189.369
193.764
203.407
213.254
219.404
225.611
233.516
239.697
241.193
238.878
236.506
236.227
238.527
55.2055
54.3633
55.8411
58.8775
65.1022
76.3499
89.5207
96.784
101.808
106.865
111.408
115.272
119.166
122.451
123.91
123.445
122.17
122.132
124.574
4.63105
4.6425
5.2634
6.29677
8.34557
14.0735
22.7367
28.9686
30.497
31.5111
32.5237
33.3155
34.2563
35.3986
36.0249
35.5761
34.9894
36.2559
38.5411
1.43121
1.44518
1.44721
1.4437
1.39262
1.05456
0.452127
0.0781281
-0.178764
-0.353289
-0.492528
-0.414563
0.0374193
0.414889
0.49461
0.463679
0.807764
1.71858
2.17899
0.728145
0.663413
0.618404
0.562888
0.470572
0.325131
0.130659
-0.0867963
-0.323975
-0.522525
-0.642216
-0.710116
-0.82299
-0.942745
-0.97856
-0.961582
-0.938269
-0.937511
-0.948849
-0.154799
-0.252985
-0.322318
-0.378923
-0.456261
-0.564848
-0.656007
-0.735967
-0.836435
-0.926769
-0.97662
-1.00107
-1.02291
-1.04855
-1.07123
-1.08344
-1.0833
-1.07892
-1.07183
-0.990134
-1.02408
-1.06108
-1.09419
-1.13308
-1.17553
-1.20035
-1.21127
-1.20672
-1.19615
-1.19343
-1.19611
-1.19264
-1.19555
-1.20772
-1.21182
-1.20903
-1.20506
-1.20097
-1.3069
-1.29585
-1.29575
-1.30144
-1.30563
-1.30964
-1.31758
-1.32818
-1.33159
-1.32982
-1.32845
-1.33134
-1.33811
-1.34421
-1.34619
-1.34194
-1.33806
-1.33581
-1.33836
-1.42639
-1.42722
-1.42931
-1.43267
-1.43678
-1.44279
-1.4506
-1.45807
-1.46105
-1.45991
-1.45875
-1.46146
-1.46831
-1.47183
-1.47223
-1.47071
-1.4709
-1.47333
-1.47927
-1.56741
-1.56863
-1.56992
-1.57284
-1.57755
-1.58311
-1.58852
-1.59248
-1.59286
-1.5902
-1.58798
-1.5905
-1.59563
-1.60009
-1.60247
-1.60399
-1.608
-1.61333
-1.61627
-1.70669
-1.70669
-1.70722
-1.70982
-1.71434
-1.71914
-1.72317
-1.72545
-1.72442
-1.72329
-1.72291
-1.72607
-1.73126
-1.73638
-1.73933
-1.74018
-1.74101
-1.74201
-1.74309
-1.84245
-1.84047
-1.84032
-1.84211
-1.84551
-1.84928
-1.85282
-1.85491
-1.85621
-1.85883
-1.86337
-1.86648
-1.86942
-1.87198
-1.87229
-1.8696
-1.86649
-1.86639
-1.86896
-1.97618
-1.97428
-1.97369
-1.97441
-1.97649
-1.97951
-1.98246
-1.98493
-1.98766
-1.99161
-1.99649
-1.99979
-2.00154
-2.00111
-1.99896
-1.99708
-1.99552
-1.99621
-1.99886
-2.10958
-2.10818
-2.10716
-2.10699
-2.10776
-2.10987
-2.11236
-2.11506
-2.11747
-2.11998
-2.12278
-2.12547
-2.12703
-2.12691
-2.12657
-2.12758
-2.12874
-2.13014
-2.13123
-2.24136
-2.24036
-2.23964
-2.23916
-2.23925
-2.24009
-2.24157
-2.24349
-2.24541
-2.24726
-2.2494
-2.25138
-2.25275
-2.25347
-2.25446
-2.25676
-2.25941
-2.26132
-2.2619
-2.37192
-2.37073
-2.37031
-2.37002
-2.36985
-2.36977
-2.37047
-2.3717
-2.37312
-2.37467
-2.37641
-2.37808
-2.37946
-2.38059
-2.38201
-2.38409
-2.38634
-2.38812
-2.38841
-2.50169
-2.50032
-2.49954
-2.49921
-2.49892
-2.49867
-2.49904
-2.49988
-2.50097
-2.50224
-2.50368
-2.50517
-2.50656
-2.50789
-2.50939
-2.51123
-2.51304
-2.51434
-2.51395
-2.63081
-2.62933
-2.62834
-2.62771
-2.6273
-2.62711
-2.62734
-2.62797
-2.62885
-2.62991
-2.63112
-2.63244
-2.6338
-2.63518
-2.63668
-2.63834
-2.63989
-2.64113
-2.64059
-2.75941
-2.75788
-2.75677
-2.756
-2.75551
-2.75529
-2.75543
-2.75591
-2.75665
-2.75757
-2.75864
-2.75982
-2.7611
-2.76245
-2.76389
-2.7654
-2.7668
-2.7681
-2.76757
-2.88757
-2.88605
-2.8849
-2.88407
-2.88353
-2.88328
-2.88334
-2.88371
-2.88433
-2.88516
-2.88613
-2.88721
-2.88837
-2.88963
-2.89097
-2.89232
-2.89353
-2.89469
-2.89407
-3.01539
-3.0139
-3.01275
-3.0119
-3.01134
-3.01107
-3.01108
-3.01136
-3.01189
-3.01261
-3.01349
-3.01447
-3.01554
-3.01668
-3.01788
-3.01906
-3.02008
-3.02075
-3.0202
-3.14291
-3.14148
-3.14036
-3.13952
-3.13896
-3.13867
-3.13864
-3.13887
-3.13931
-3.13994
-3.14071
-3.14159
-3.14256
-3.14358
-3.14462
-3.14561
-3.1464
-3.14667
-3.146
-3.27018
-3.26882
-3.26775
-3.26693
-3.26638
-3.26608
-3.26603
-3.26621
-3.26658
-3.26712
-3.2678
-3.26857
-3.26942
-3.2703
-3.27117
-3.27197
-3.27255
-3.27252
-3.27164
-3.39721
-3.39594
-3.39492
-3.39414
-3.3936
-3.39331
-3.39324
-3.39337
-3.39368
-3.39414
-3.39473
-3.39539
-3.3961
-3.39683
-3.39753
-3.39814
-3.39853
-3.39825
-3.39735
-3.52405
-3.52286
-3.5219
-3.52116
-3.52065
-3.52036
-3.52027
-3.52037
-3.52062
-3.52101
-3.52149
-3.52205
-3.52263
-3.52319
-3.52369
-3.52408
-3.52421
-3.52364
-3.52271
-3.65069
-3.6496
-3.64871
-3.64802
-3.64753
-3.64724
-3.64714
-3.6472
-3.6474
-3.64772
-3.64812
-3.64856
-3.649
-3.64939
-3.64968
-3.64979
-3.64953
-3.64849
-3.64706
-3.77719
-3.77619
-3.77537
-3.77472
-3.77426
-3.77398
-3.77387
-3.7739
-3.77405
-3.7743
-3.77462
-3.77495
-3.77526
-3.77548
-3.77554
-3.77534
-3.77463
-3.77309
-3.77116
-3.90354
-3.90264
-3.9019
-3.9013
-3.90087
-3.9006
-3.90047
-3.90048
-3.90059
-3.90078
-3.90102
-3.90126
-3.90145
-3.90152
-3.90138
-3.90089
-3.89978
-3.89784
-3.89562
-4.02978
-4.02898
-4.02831
-4.02776
-4.02736
-4.0271
-4.02698
-4.02696
-4.02704
-4.02718
-4.02735
-4.02751
-4.02761
-4.02756
-4.02727
-4.02657
-4.02519
-4.02302
-4.02054
-4.15592
-4.15521
-4.15462
-4.15412
-4.15376
-4.15352
-4.15339
-4.15336
-4.15341
-4.15352
-4.15364
-4.15374
-4.15377
-4.15364
-4.15327
-4.15248
-4.15101
-4.14879
-4.14634
-4.28199
-4.28137
-4.28084
-4.2804
-4.28007
-4.27985
-4.27973
-4.27969
-4.27973
-4.2798
-4.2799
-4.27996
-4.27995
-4.27979
-4.27939
-4.2786
-4.27718
-4.27503
-4.27276
-4.40798
-4.40745
-4.40699
-4.4066
-4.4063
-4.40611
-4.406
-4.40596
-4.40599
-4.40605
-4.40612
-4.40617
-4.40614
-4.40598
-4.4056
-4.40487
-4.40358
-4.40152
-4.39928
-4.53392
-4.53347
-4.53307
-4.53273
-4.53247
-4.5323
-4.5322
-4.53217
-4.53219
-4.53225
-4.53232
-4.53236
-4.53234
-4.53219
-4.53185
-4.53122
-4.53008
-4.52818
-4.52599
-4.65982
-4.65943
-4.65909
-4.6588
-4.65857
-4.65843
-4.65834
-4.65832
-4.65835
-4.65841
-4.65848
-4.65853
-4.65852
-4.6584
-4.65811
-4.65756
-4.65655
-4.65478
-4.65283
-4.78567
-4.78535
-4.78506
-4.78481
-4.78462
-4.7845
-4.78443
-4.78442
-4.78446
-4.78453
-4.78461
-4.78467
-4.78468
-4.78458
-4.78432
-4.78381
-4.78284
-4.78107
-4.77917
-4.91149
-4.91122
-4.91098
-4.91077
-4.91061
-4.91051
-4.91046
-4.91047
-4.91051
-4.91059
-4.91069
-4.91078
-4.91081
-4.91073
-4.91048
-4.90997
-4.90899
-4.9072
-4.90517
-5.03728
-5.03706
-5.03687
-5.03669
-5.03656
-5.03648
-5.03644
-5.03646
-5.03652
-5.03661
-5.03673
-5.03684
-5.03691
-5.03685
-5.0366
-5.0361
-5.03513
-5.03341
-5.03147
-5.16306
-5.16288
-5.16272
-5.16257
-5.16247
-5.1624
-5.16238
-5.1624
-5.16247
-5.16257
-5.16271
-5.16287
-5.16299
-5.16296
-5.16271
-5.16222
-5.16132
-5.15973
-5.15797
-5.28881
-5.28867
-5.28854
-5.28843
-5.28834
-5.28829
-5.28827
-5.28829
-5.28836
-5.28847
-5.28863
-5.28884
-5.28905
-5.2891
-5.28881
-5.28835
-5.28755
-5.28616
-5.28461
-5.41455
-5.41444
-5.41433
-5.41424
-5.41417
-5.41413
-5.41411
-5.41413
-5.41419
-5.41429
-5.41446
-5.41475
-5.41521
-5.41545
-5.415
-5.41451
-5.41384
-5.41269
-5.41138
-5.54027
-5.54019
-5.54011
-5.54003
-5.53998
-5.53994
-5.53992
-5.53993
-5.53996
-5.54003
-5.54019
-5.54064
-5.54172
-5.54228
-5.54136
-5.5407
-5.54017
-5.53931
-5.5383
-5.66616
-5.66612
-5.66608
-5.66605
-5.66601
-5.66599
-5.66597
-5.66596
-5.66596
-5.666
-5.66613
-5.66667
-5.66847
-5.66843
-5.66721
-5.66673
-5.6667
-5.66623
-5.6654
)
;

boundaryField
{
    leftWall
    {
        type            calculated;
        value           nonuniform List<scalar> 
50
(
832.012
773.53
715.445
657.711
600.345
543.311
486.603
430.22
342.59
225.096
110.622
29.0697
1.62806
0.399892
-0.402801
-0.944536
-1.49997
-1.72382
-1.89608
-2.0569
-2.1959
-2.31748
-2.42858
-2.53655
-2.64513
-2.75557
-2.86796
-2.98211
-3.09782
-3.21491
-3.33318
-3.45245
-3.57254
-3.6933
-3.81512
-3.93883
-4.06376
-4.18772
-4.31073
-4.43365
-4.55671
-4.67992
-4.80327
-4.92674
-5.05028
-5.17385
-5.29739
-5.42083
-5.54421
-5.66762
)
;
    }
    rightWall
    {
        type            calculated;
        value           nonuniform List<scalar> 
50
(
737.421
678.757
619.7
560.592
501.71
443.232
385.235
327.762
238.527
124.574
38.5411
2.17899
-0.948849
-1.07183
-1.20097
-1.33836
-1.47927
-1.61627
-1.74309
-1.86896
-1.99886
-2.13123
-2.2619
-2.38841
-2.51395
-2.64059
-2.76757
-2.89407
-3.0202
-3.146
-3.27164
-3.39735
-3.52271
-3.64706
-3.77116
-3.89562
-4.02054
-4.14634
-4.27276
-4.39928
-4.52599
-4.65283
-4.77917
-4.90517
-5.03147
-5.15797
-5.28461
-5.41138
-5.5383
-5.6654
)
;
    }
    lowerWall
    {
        type            calculated;
        value           nonuniform List<scalar> 
62
(
861.442
859.474
856.116
851.457
845.848
839.493
832.57
825.221
817.559
809.675
801.652
793.547
785.409
777.273
769.147
760.985
752.616
744.894
738.743
734.102
730.267
728.405
728.784
699.486
640.835
581.609
521.895
462.057
402.163
342.035
281.316
239.718
235.931
233.365
231.919
672.117
615.839
559.282
502.518
445.473
387.586
328.05
267.197
700
703.655
707.705
710.467
711.915
713.151
715.133
717.743
719.722
723.491
731.807
737.614
742.311
745.019
747.199
752.929
760.743
765.68
766.215
)
;
    }
    atmosphere
    {
        type            calculated;
        value           nonuniform List<scalar> 
46
(
-5.72909
-5.72904
-5.72904
-5.72904
-5.72904
-5.72904
-5.72904
-5.72904
-5.72904
-5.72904
-5.72904
-5.72904
-5.72904
-5.72904
-5.72904
-5.72904
-5.72905
-5.72906
-5.72908
-5.72911
-5.72914
-5.72917
-5.72919
-5.72921
-5.72922
-5.72922
-5.72923
-5.72923
-5.72922
-5.72922
-5.72921
-5.7292
-5.72918
-5.72916
-5.72914
-5.72912
-5.72909
-5.72907
-5.72905
-5.72904
-5.72904
-5.72904
-5.72943
-5.73049
-5.73049
-5.72944
)
;
    }
    defaultFaces
    {
        type            empty;
    }
}


// ************************************************************************* //
