/*--------------------------------*- C++ -*----------------------------------*\
| =========                 |                                                 |
| \\      /  F ield         | OpenFOAM: The Open Source CFD Toolbox           |
|  \\    /   O peration     | Version:  2.3.0                                 |
|   \\  /    A nd           | Web:      www.OpenFOAM.org                      |
|    \\/     M anipulation  |                                                 |
\*---------------------------------------------------------------------------*/
FoamFile
{
    version     2.0;
    format      ascii;
    class       volVectorField;
    location    "2.8";
    object      U;
}
// * * * * * * * * * * * * * * * * * * * * * * * * * * * * * * * * * * * * * //

dimensions      [0 1 -1 0 0 0 0];

internalField   nonuniform List<vector> 
2268
(
(0.00440911 -0.00174228 0)
(0.00787567 0.000779505 0)
(0.002735 0.00211107 0)
(-0.00312604 0.00233587 0)
(-0.00925156 0.00219297 0)
(-0.0147979 0.00187642 0)
(-0.0193713 0.00147122 0)
(-0.0227426 0.00101251 0)
(-0.0247753 0.000521841 0)
(-0.0253956 -7.51374e-06 0)
(-0.0244744 -0.000555189 0)
(-0.0219216 -0.00117449 0)
(-0.0175775 -0.00191582 0)
(-0.0111259 -0.00282819 0)
(-0.00226158 -0.00388945 0)
(0.00870423 -0.00453103 0)
(0.0190954 -0.00341395 0)
(0.0268765 -0.00277604 0)
(0.0336287 -0.00303517 0)
(0.0410286 -0.00382671 0)
(0.0469427 -0.00222779 0)
(0.0472721 0.00335848 0)
(0.0266765 0.0101207 0)
(0.00168418 -0.00433425 0)
(0.00262712 0.00117456 0)
(-0.00251036 0.00394321 0)
(-0.00847768 0.00462314 0)
(-0.0146154 0.00443503 0)
(-0.0201782 0.00382894 0)
(-0.0247792 0.00300155 0)
(-0.0281658 0.00203898 0)
(-0.0301786 0.000995014 0)
(-0.0307112 -0.0001167 0)
(-0.0297196 -0.00128919 0)
(-0.027106 -0.00256298 0)
(-0.0227878 -0.00398046 0)
(-0.0167479 -0.00555047 0)
(-0.00915121 -0.00713175 0)
(-0.000423035 -0.00792835 0)
(0.00861082 -0.00661201 0)
(0.0168373 -0.00561678 0)
(0.0242636 -0.00539706 0)
(0.0305774 -0.00526205 0)
(0.0345555 -0.00177783 0)
(0.035822 0.00816645 0)
(0.026544 0.0243547 0)
(-0.000507886 -0.00446866 0)
(-0.00127341 0.0025728 0)
(-0.00653013 0.00628169 0)
(-0.0124867 0.00727877 0)
(-0.0185491 0.00699327 0)
(-0.0240831 0.0060631 0)
(-0.0286981 0.00476548 0)
(-0.0321074 0.00323272 0)
(-0.0341187 0.00155366 0)
(-0.0346029 -0.000229439 0)
(-0.0335009 -0.00210991 0)
(-0.0307642 -0.0041042 0)
(-0.0264099 -0.00621903 0)
(-0.0206011 -0.00838607 0)
(-0.0137465 -0.0103635 0)
(-0.00636562 -0.0113696 0)
(0.00159175 -0.010266 0)
(0.00950585 -0.00903171 0)
(0.0163481 -0.00827244 0)
(0.0214892 -0.00733309 0)
(0.0245376 -0.00284462 0)
(0.0253666 0.0101122 0)
(0.0201841 0.0354272 0)
(-0.00211662 -0.00370063 0)
(-0.00445753 0.00450036 0)
(-0.0100616 0.00887189 0)
(-0.0161587 0.0100877 0)
(-0.022225 0.00968578 0)
(-0.0277509 0.00842005 0)
(-0.0323536 0.00662747 0)
(-0.0357212 0.00448273 0)
(-0.0376378 0.00211313 0)
(-0.0379672 -0.000406991 0)
(-0.036659 -0.00304533 0)
(-0.033706 -0.00578858 0)
(-0.0292112 -0.00858447 0)
(-0.0234621 -0.011275 0)
(-0.0169829 -0.0135294 0)
(-0.0103336 -0.0146405 0)
(-0.00336143 -0.0137821 0)
(0.00364917 -0.0122783 0)
(0.00949925 -0.0108458 0)
(0.0132352 -0.0089989 0)
(0.014966 -0.00365271 0)
(0.0151378 0.0114098 0)
(0.0139479 0.043999 0)
(-0.00334328 -0.0020142 0)
(-0.00717662 0.00697826 0)
(-0.0132423 0.0116914 0)
(-0.0195427 0.0129939 0)
(-0.0256371 0.0124336 0)
(-0.0311401 0.0108131 0)
(-0.0356805 0.00849932 0)
(-0.0389245 0.00570489 0)
(-0.040641 0.00260199 0)
(-0.0406992 -0.000694787 0)
(-0.0390716 -0.00411637 0)
(-0.0357942 -0.00760749 0)
(-0.0310462 -0.0110398 0)
(-0.0252146 -0.0141595 0)
(-0.0188943 -0.0165723 0)
(-0.0126652 -0.0176687 0)
(-0.00652704 -0.0168809 0)
(-0.000715131 -0.0150557 0)
(0.00372264 -0.0128193 0)
(0.00572576 -0.00990656 0)
(0.0055878 -0.00388841 0)
(0.00416176 0.0118243 0)
(0.00705234 0.0491947 0)
(-0.00443615 0.000474365 0)
(-0.00955766 0.00993368 0)
(-0.0160485 0.0147091 0)
(-0.0225165 0.0159617 0)
(-0.0286048 0.0151893 0)
(-0.0340337 0.0131869 0)
(-0.0384378 0.0103208 0)
(-0.0414592 0.00683735 0)
(-0.0428594 0.00296146 0)
(-0.0425257 -0.00114236 0)
(-0.0404647 -0.00536078 0)
(-0.0367606 -0.00958621 0)
(-0.0316669 -0.0136015 0)
(-0.025666 -0.0170542 0)
(-0.0194249 -0.0195086 0)
(-0.0135563 -0.020457 0)
(-0.00821123 -0.0195029 0)
(-0.00366932 -0.0171851 0)
(-0.000861179 -0.0139812 0)
(-0.000803108 -0.00984866 0)
(-0.00314519 -0.00315678 0)
(-0.00703812 0.0120183 0)
(-0.00231879 0.0498308 0)
(-0.00552757 0.00369298 0)
(-0.0115972 0.0132651 0)
(-0.0183476 0.0178578 0)
(-0.0248577 0.0189453 0)
(-0.0308465 0.0179116 0)
(-0.0361097 0.0154961 0)
(-0.0402748 0.0120383 0)
(-0.042957 0.00781875 0)
(-0.0439192 0.00312896 0)
(-0.0430809 -0.00180851 0)
(-0.0404929 -0.00682883 0)
(-0.0362971 -0.0117647 0)
(-0.0308242 -0.0162968 0)
(-0.0246556 -0.0199713 0)
(-0.0185384 -0.0223288 0)
(-0.0131223 -0.022965 0)
(-0.00866018 -0.0216122 0)
(-0.00544578 -0.0186076 0)
(-0.00426799 -0.0142786 0)
(-0.0060231 -0.00875828 0)
(-0.0104522 -0.00115699 0)
(-0.0172272 0.0127555 0)
(-0.0154388 0.044881 0)
(-0.00662696 0.00753017 0)
(-0.0131903 0.0168266 0)
(-0.0199622 0.0210084 0)
(-0.0263319 0.0218391 0)
(-0.0320841 0.0205159 0)
(-0.0370535 0.0176638 0)
(-0.0408525 0.0135718 0)
(-0.0430701 0.00856418 0)
(-0.0434833 0.00301935 0)
(-0.042058 -0.00277313 0)
(-0.0388999 -0.0085893 0)
(-0.034221 -0.0141932 0)
(-0.0284315 -0.0191491 0)
(-0.0222099 -0.0229001 0)
(-0.0163791 -0.0249796 0)
(-0.0116119 -0.0250979 0)
(-0.00819544 -0.0231152 0)
(-0.00636557 -0.0192548 0)
(-0.00669942 -0.0137276 0)
(-0.0098426 -0.0067869 0)
(-0.0155127 0.00188491 0)
(-0.0235157 0.0140112 0)
(-0.0291887 0.03117 0)
(-0.0375539 0.00897676 0)
(-0.02764 -0.00964004 0)
(0.000798135 -0.0108598 0)
(0.0246034 -0.00888354 0)
(0.044914 -0.00701972 0)
(0.0611255 -0.0051414 0)
(0.0699637 -0.00231594 0)
(0.0707106 -0.000500789 0)
(0.0612246 0.00709674 0)
(0.0211786 0.0151443 0)
(-0.0213388 0.00659896 0)
(-0.0254331 0.00314817 0)
(-0.0403027 0.0106665 0)
(-0.091985 0.0146354 0)
(-0.135911 0.00781037 0)
(-0.140476 -0.00555537 0)
(-0.110032 -0.014881 0)
(-0.0663872 -0.0168224 0)
(-0.0198373 -0.00952624 0)
(-0.0221686 0.0206118 0)
(-0.00640659 -0.0134413 0)
(0.00811544 -0.0162018 0)
(0.0216828 -0.013777 0)
(0.0343241 -0.0112149 0)
(0.0448026 -0.00746493 0)
(0.0479341 -0.00150507 0)
(0.0424788 0.00296371 0)
(0.0353914 0.0141785 0)
(0.0149146 0.0261211 0)
(-0.0124766 0.0142093 0)
(-0.0231161 0.00874951 0)
(-0.0388099 0.0204401 0)
(-0.0771491 0.0285259 0)
(-0.106547 0.0172539 0)
(-0.107864 -0.00557427 0)
(-0.0947895 -0.0225401 0)
(-0.0692985 -0.030844 0)
(-0.0313934 -0.0271216 0)
(-0.000203244 0.0224818 0)
(0.00514156 -0.0166571 0)
(0.0100233 -0.019602 0)
(0.0167745 -0.0172979 0)
(0.0244941 -0.0145439 0)
(0.0312594 -0.00915576 0)
(0.0312553 -0.000103152 0)
(0.0233607 0.00624747 0)
(0.0151588 0.0181641 0)
(0.00447977 0.0318627 0)
(-0.0109522 0.0204202 0)
(-0.0214835 0.014364 0)
(-0.0329608 0.0282165 0)
(-0.0541845 0.0377246 0)
(-0.0735264 0.0232933 0)
(-0.0799461 -0.00575104 0)
(-0.0746702 -0.027776 0)
(-0.0601285 -0.0420624 0)
(-0.0300306 -0.0485827 0)
(0.0122805 0.0184143 0)
(0.0101083 -0.0170319 0)
(0.00839747 -0.0207511 0)
(0.0101501 -0.0193563 0)
(0.0142694 -0.0168627 0)
(0.0185712 -0.0100602 0)
(0.0167069 0.0019939 0)
(0.00806224 0.0097985 0)
(0.000367143 0.0215671 0)
(-0.00542342 0.0352439 0)
(-0.0132346 0.0249156 0)
(-0.0210847 0.0184692 0)
(-0.0282384 0.0330319 0)
(-0.0368047 0.0429271 0)
(-0.0466975 0.0283946 0)
(-0.0535133 -0.00428748 0)
(-0.052369 -0.0309664 0)
(-0.0449232 -0.0497524 0)
(-0.0219633 -0.0661836 0)
(0.0161444 0.012302 0)
(0.00934815 -0.0151669 0)
(0.003413 -0.0197753 0)
(0.00162627 -0.0199613 0)
(0.003086 -0.0181989 0)
(0.00583693 -0.0103622 0)
(0.00304633 0.00459726 0)
(-0.00578396 0.013159 0)
(-0.0124399 0.0241929 0)
(-0.0146869 0.0367138 0)
(-0.0168162 0.0275478 0)
(-0.0208083 0.0208536 0)
(-0.0233756 0.0351059 0)
(-0.0233669 0.0442926 0)
(-0.0246637 0.0310767 0)
(-0.0288545 -0.00241615 0)
(-0.0298191 -0.0323555 0)
(-0.027649 -0.0540222 0)
(-0.0117992 -0.0780399 0)
(0.0130187 0.00686709 0)
(0.00332397 -0.011715 0)
(-0.00464791 -0.0174342 0)
(-0.00864618 -0.0194719 0)
(-0.00914572 -0.0187815 0)
(-0.00734586 -0.0103894 0)
(-0.0102555 0.00742581 0)
(-0.0188126 0.0162491 0)
(-0.0238796 0.0257694 0)
(-0.0223371 0.0363163 0)
(-0.0197307 0.0281448 0)
(-0.0202992 0.0216217 0)
(-0.0192831 0.0346101 0)
(-0.0132732 0.0427075 0)
(-0.00787377 0.031016 0)
(-0.0076375 -0.00110107 0)
(-0.00903147 -0.0324033 0)
(-0.0108147 -0.0556592 0)
(-0.00158722 -0.084058 0)
(0.00245361 0.0050121 0)
(-0.00679441 -0.00773149 0)
(-0.0148998 -0.0145479 0)
(-0.0201902 -0.0182187 0)
(-0.0222802 -0.0188073 0)
(-0.021216 -0.0104047 0)
(-0.0233933 0.0100655 0)
(-0.0305508 0.0188309 0)
(-0.0334451 0.025993 0)
(-0.0282198 0.034125 0)
(-0.021674 0.0270681 0)
(-0.0203394 0.0213323 0)
(-0.0165731 0.0319631 0)
(-0.00611066 0.0390296 0)
(0.00438453 0.0285766 0)
(0.00933389 -0.00111583 0)
(0.00852549 -0.0315523 0)
(0.00415563 -0.0555176 0)
(0.00768846 -0.0843108 0)
(-0.0150213 0.0104145 0)
(-0.0184198 -0.00409478 0)
(-0.0259334 -0.0115144 0)
(-0.0322356 -0.0162295 0)
(-0.03604 -0.0181471 0)
(-0.0359628 -0.0104669 0)
(-0.0364962 0.0117601 0)
(-0.0404387 0.0204636 0)
(-0.0405587 0.0248151 0)
(-0.0324053 0.0304129 0)
(-0.0234114 0.0249003 0)
(-0.0202148 0.0202782 0)
(-0.0144492 0.0279332 0)
(-0.00144339 0.0334732 0)
(0.0129641 0.0239502 0)
(0.0216169 -0.00252629 0)
(0.0218033 -0.0303078 0)
(0.0164323 -0.0539146 0)
(0.0154068 -0.0796345 0)
(-0.00831921 0.014593 0)
(-0.0147815 0.0225098 0)
(-0.0213868 0.0257212 0)
(-0.0273678 0.0260045 0)
(-0.0326221 0.0242107 0)
(-0.0369998 0.0206555 0)
(-0.0400857 0.0155066 0)
(-0.041444 0.00918344 0)
(-0.040906 0.00224758 0)
(-0.0385294 -0.00489849 0)
(-0.0345231 -0.0119114 0)
(-0.0292325 -0.018437 0)
(-0.0231892 -0.0238285 0)
(-0.0171896 -0.0273795 0)
(-0.0121376 -0.0286554 0)
(-0.00870561 -0.0275849 0)
(-0.00715483 -0.0242675 0)
(-0.00753292 -0.018903 0)
(-0.00994447 -0.0116128 0)
(-0.0143493 -0.00282553 0)
(-0.0199192 0.0068577 0)
(-0.0247571 0.0163532 0)
(-0.0241751 0.0208258 0)
(-0.00904974 0.0237871 0)
(-0.0151612 0.0312598 0)
(-0.0215656 0.0328235 0)
(-0.0272194 0.031911 0)
(-0.0320058 0.0290898 0)
(-0.03569 0.024202 0)
(-0.037831 0.0172761 0)
(-0.038055 0.00894569 0)
(-0.0363843 6.41043e-05 0)
(-0.0330026 -0.00867709 0)
(-0.0282774 -0.016869 0)
(-0.0228541 -0.0240532 0)
(-0.0173944 -0.0294527 0)
(-0.0126051 -0.0323019 0)
(-0.00927038 -0.0322642 0)
(-0.00800669 -0.0295538 0)
(-0.00913773 -0.0245587 0)
(-0.0124952 -0.017598 0)
(-0.0170873 -0.00884241 0)
(-0.0211224 0.000871604 0)
(-0.0228732 0.0100551 0)
(-0.0215547 0.0174723 0)
(-0.0181748 0.0199949 0)
(-0.0100934 0.0404278 0)
(-0.0131497 0.0419741 0)
(-0.0197749 0.0406084 0)
(-0.0257792 0.037881 0)
(-0.0303214 0.0336429 0)
(-0.0329319 0.0272763 0)
(-0.033583 0.0186685 0)
(-0.0324688 0.00864146 0)
(-0.0298153 -0.00179022 0)
(-0.0255902 -0.0117008 0)
(-0.0203184 -0.0206482 0)
(-0.0154738 -0.0282443 0)
(-0.011948 -0.0336063 0)
(-0.00931606 -0.0354171 0)
(-0.00760955 -0.0334966 0)
(-0.00765225 -0.0286119 0)
(-0.0110221 -0.0216727 0)
(-0.0184887 -0.0135631 0)
(-0.0272605 -0.00493744 0)
(-0.031168 0.00298439 0)
(-0.0265429 0.0090181 0)
(-0.0151597 0.0145432 0)
(-0.00113947 0.0200089 0)
(-0.00288255 0.0500151 0)
(-0.00307051 0.0462103 0)
(-0.0157529 0.0434284 0)
(-0.0261097 0.0405251 0)
(-0.0306709 0.0357154 0)
(-0.0291385 0.0280991 0)
(-0.0249874 0.0177779 0)
(-0.0203786 0.00668436 0)
(-0.0161516 -0.00455044 0)
(-0.0106671 -0.0155389 0)
(-0.00344966 -0.0243855 0)
(-5.346e-05 -0.0294007 0)
(-0.00487091 -0.0337523 0)
(-0.0106872 -0.0349054 0)
(-0.0128766 -0.0321527 0)
(-0.0115262 -0.0257183 0)
(-0.0136367 -0.0160255 0)
(-0.0269505 -0.00506952 0)
(-0.0476786 0.00346137 0)
(-0.055368 0.00386589 0)
(-0.0387943 -0.00430159 0)
(-0.0115363 -0.0035147 0)
(0.0154728 0.00731714 0)
(0.0257586 0.019966 0)
(0.0163176 0.0474862 0)
(-0.0280874 0.0518336 0)
(-0.0661655 0.0493774 0)
(-0.079369 0.0337014 0)
(-0.0636755 0.0209157 0)
(-0.0465489 0.00958883 0)
(-0.0349839 4.77802e-05 0)
(-0.0291453 -0.0129504 0)
(-0.021964 -0.031426 0)
(-0.0132162 -0.0417343 0)
(-0.00952456 -0.0303936 0)
(-0.0202428 -0.0184997 0)
(-0.0387957 -0.0221361 0)
(-0.0329596 -0.0399006 0)
(-0.00478125 -0.0358772 0)
(0.0112403 0.00340273 0)
(-0.0191329 0.0457908 0)
(-0.0726567 0.0487742 0)
(-0.0746565 -0.0167972 0)
(-0.0398776 -0.0519943 0)
(-0.00959195 -0.0469775 0)
(0.0115379 -0.0216455 0)
(0.0244049 -0.0405862 0)
(0.0192116 0.136919 0)
(-0.138471 0.175257 0)
(-0.198743 0.0833708 0)
(-0.185216 0.0119244 0)
(-0.151575 -0.0148072 0)
(-0.111776 -0.0207818 0)
(-0.084027 -0.0151451 0)
(-0.070667 -0.0206039 0)
(-0.0654474 -0.0357359 0)
(-0.067497 -0.0371678 0)
(-0.0794233 -0.0100735 0)
(-0.100401 0.000232662 0)
(-0.0889417 -0.0381763 0)
(-0.0594347 -0.0695124 0)
(-0.0361725 -0.063705 0)
(-0.0127185 -0.0118511 0)
(-0.00799134 0.0686458 0)
(-0.0299351 0.0636149 0)
(-0.0339807 -0.0278388 0)
(-0.0214984 -0.0668794 0)
(-0.0151075 -0.0529401 0)
(-0.0216323 -0.0207917 0)
(-0.0582697 -0.019805 0)
(-0.0458783 0.201359 0)
(-0.119597 0.282991 0)
(-0.177912 0.108223 0)
(-0.17523 -0.00577572 0)
(-0.161071 -0.0415569 0)
(-0.136451 -0.0452023 0)
(-0.112434 -0.0298971 0)
(-0.0969656 -0.0244578 0)
(-0.0995417 -0.0345067 0)
(-0.122336 -0.027131 0)
(-0.15131 0.00693938 0)
(-0.143204 -0.0229102 0)
(-0.11462 -0.0660602 0)
(-0.0878096 -0.090682 0)
(-0.0680545 -0.0835793 0)
(-0.0488328 -0.0319104 0)
(-0.0230471 0.0528583 0)
(-0.00373426 0.0693031 0)
(-0.00132205 -0.030922 0)
(-0.00955797 -0.0716722 0)
(-0.0166754 -0.0458626 0)
(-0.0503493 -0.00771413 0)
(-0.119095 0.0698783 0)
(-0.12287 0.245928 0)
(-0.144238 0.31226 0)
(-0.152312 0.155464 0)
(-0.13888 -0.0140966 0)
(-0.150655 -0.0627958 0)
(-0.138992 -0.0648186 0)
(-0.126269 -0.0416958 0)
(-0.119007 -0.0256551 0)
(-0.130574 -0.0197153 0)
(-0.1587 0.0061089 0)
(-0.156929 0.0125064 0)
(-0.137813 -0.0420949 0)
(-0.119652 -0.0841814 0)
(-0.107588 -0.106138 0)
(-0.0999027 -0.0978169 0)
(-0.0915435 -0.0490774 0)
(-0.067104 0.0269998 0)
(-0.023049 0.0612221 0)
(0.0095109 -0.0279704 0)
(-0.0265831 -0.0635116 0)
(-0.060781 -0.0115253 0)
(-0.0703433 0.0252417 0)
(-0.169966 0.157587 0)
(-0.20093 0.275965 0)
(-0.212148 0.297242 0)
(-0.210739 0.144623 0)
(-0.202292 -0.0197627 0)
(-0.189563 -0.0877991 0)
(-0.165889 -0.0976849 0)
(-0.141578 -0.061851 0)
(-0.1386 -0.0218385 0)
(-0.147081 0.000306222 0)
(-0.149679 0.0137173 0)
(-0.135305 0.00105141 0)
(-0.114984 -0.0548739 0)
(-0.112594 -0.0938015 0)
(-0.11708 -0.110424 0)
(-0.127403 -0.102534 0)
(-0.136431 -0.0613716 0)
(-0.12004 -0.00534432 0)
(-0.0859637 0.0116372 0)
(-0.0683212 -0.0206473 0)
(-0.0870385 -0.022904 0)
(-0.0999752 0.000564453 0)
(-0.097951 0.0182703 0)
(-0.141554 0.34853 0)
(-0.205859 0.33182 0)
(-0.224138 0.289791 0)
(-0.212304 0.120583 0)
(-0.200485 -0.0234066 0)
(-0.189051 -0.0943792 0)
(-0.18099 -0.105829 0)
(-0.17044 -0.0705327 0)
(-0.164046 -0.0200392 0)
(-0.162292 -0.000943298 0)
(-0.155611 -0.0014202 0)
(-0.143646 -0.0233929 0)
(-0.137101 -0.0651349 0)
(-0.138393 -0.0950308 0)
(-0.141212 -0.104898 0)
(-0.145214 -0.0937584 0)
(-0.149755 -0.0627902 0)
(-0.143182 -0.0295091 0)
(-0.126283 -0.0133697 0)
(-0.117695 -0.019566 0)
(-0.12157 -0.0163396 0)
(-0.122082 -0.00255816 0)
(-0.114318 0.00790124 0)
(-0.0957343 0.495362 0)
(-0.145101 0.403204 0)
(-0.16625 0.296102 0)
(-0.159306 0.113258 0)
(-0.157126 -0.0288354 0)
(-0.164437 -0.0943953 0)
(-0.17723 -0.104773 0)
(-0.185784 -0.0725938 0)
(-0.185705 -0.0265587 0)
(-0.175277 -0.0114115 0)
(-0.159549 -0.0150696 0)
(-0.145961 -0.032402 0)
(-0.142413 -0.0606422 0)
(-0.147322 -0.0882935 0)
(-0.152213 -0.100011 0)
(-0.155802 -0.0893748 0)
(-0.158584 -0.0588336 0)
(-0.155467 -0.0340406 0)
(-0.146508 -0.0221623 0)
(-0.140231 -0.0219388 0)
(-0.137897 -0.0181558 0)
(-0.132617 -0.00980312 0)
(-0.122349 -0.00365386 0)
(-0.0533401 0.575915 0)
(-0.073637 0.446207 0)
(-0.0882324 0.302741 0)
(-0.0897433 0.119113 0)
(-0.101607 -0.0210206 0)
(-0.130578 -0.0807106 0)
(-0.165267 -0.0887389 0)
(-0.187518 -0.0631083 0)
(-0.184938 -0.0314466 0)
(-0.170616 -0.0269387 0)
(-0.155894 -0.0307579 0)
(-0.144247 -0.0411239 0)
(-0.140231 -0.057605 0)
(-0.144634 -0.0829009 0)
(-0.152157 -0.0948552 0)
(-0.159327 -0.0857931 0)
(-0.161848 -0.0589334 0)
(-0.157943 -0.0391371 0)
(-0.150836 -0.0288455 0)
(-0.145036 -0.0264272 0)
(-0.140449 -0.0235545 0)
(-0.133495 -0.0188508 0)
(-0.123227 -0.0151829 0)
(-0.0142967 0.610143 0)
(-0.0107585 0.464877 0)
(-0.0221964 0.306735 0)
(-0.0296021 0.136405 0)
(-0.0569853 0.00644047 0)
(-0.0994234 -0.043712 0)
(-0.130797 -0.0549449 0)
(-0.14919 -0.0505272 0)
(-0.152523 -0.0395458 0)
(-0.147081 -0.0375394 0)
(-0.139746 -0.0401796 0)
(-0.133362 -0.0474084 0)
(-0.129593 -0.0583417 0)
(-0.131689 -0.0765499 0)
(-0.140782 -0.0862287 0)
(-0.150376 -0.0792801 0)
(-0.1529 -0.060057 0)
(-0.149045 -0.0446746 0)
(-0.142763 -0.0352752 0)
(-0.137136 -0.0315139 0)
(-0.132253 -0.029433 0)
(-0.126061 -0.0271702 0)
(-0.117474 -0.0255193 0)
(0.0178627 0.591646 0)
(0.0377728 0.476992 0)
(0.0280473 0.311463 0)
(0.0157615 0.159248 0)
(-0.0158582 0.0477585 0)
(-0.0538745 -0.00733513 0)
(-0.0822118 -0.0313172 0)
(-0.10028 -0.0385214 0)
(-0.108177 -0.0387459 0)
(-0.109518 -0.0409678 0)
(-0.108565 -0.0448979 0)
(-0.107209 -0.0507873 0)
(-0.10701 -0.0592763 0)
(-0.110679 -0.0704646 0)
(-0.118901 -0.076493 0)
(-0.127395 -0.0725182 0)
(-0.131141 -0.0607259 0)
(-0.129574 -0.0490837 0)
(-0.125314 -0.0408372 0)
(-0.120669 -0.0365104 0)
(-0.116407 -0.0344728 0)
(-0.111635 -0.0335426 0)
(-0.105439 -0.0335793 0)
(0.0398178 0.537729 0)
(0.0716243 0.477047 0)
(0.0675822 0.318297 0)
(0.0550824 0.181997 0)
(0.0278849 0.0822928 0)
(-0.00404671 0.0230414 0)
(-0.0303824 -0.00856014 0)
(-0.0493459 -0.0241061 0)
(-0.0610998 -0.0316977 0)
(-0.0677092 -0.0374851 0)
(-0.0717924 -0.0430478 0)
(-0.074816 -0.0492215 0)
(-0.0781526 -0.0564804 0)
(-0.0835814 -0.0641789 0)
(-0.0914298 -0.0683373 0)
(-0.0991543 -0.0662736 0)
(-0.103691 -0.0591064 0)
(-0.104304 -0.050957 0)
(-0.102346 -0.0444104 0)
(-0.0993493 -0.0403805 0)
(-0.0961353 -0.0384428 0)
(-0.0927246 -0.0380834 0)
(-0.0886599 -0.0390949 0)
(0.0496964 0.46625 0)
(0.0906445 0.46166 0)
(0.0964186 0.322863 0)
(0.0878055 0.200537 0)
(0.0668804 0.109655 0)
(0.0408639 0.0500187 0)
(0.0169381 0.0136885 0)
(-0.00235405 -0.00771101 0)
(-0.0165933 -0.0206428 0)
(-0.0268277 -0.0298223 0)
(-0.0345985 -0.0373114 0)
(-0.0410079 -0.0441992 0)
(-0.0471214 -0.0509477 0)
(-0.0540494 -0.0570646 0)
(-0.061951 -0.0605409 0)
(-0.0693937 -0.0599674 0)
(-0.0745763 -0.0559327 0)
(-0.0768761 -0.0506487 0)
(-0.0769313 -0.0459211 0)
(-0.075711 -0.0426776 0)
(-0.0739254 -0.041055 0)
(-0.0718637 -0.0409743 0)
(-0.0694984 -0.0424515 0)
(0.0484032 0.391814 0)
(0.0953516 0.431441 0)
(0.112318 0.320277 0)
(0.110397 0.212763 0)
(0.0962217 0.13041 0)
(0.0760875 0.0728434 0)
(0.0554486 0.0345445 0)
(0.0370614 0.00947149 0)
(0.0218582 -0.0072727 0)
(0.00960704 -0.0193304 0)
(-0.000476048 -0.0287292 0)
(-0.00913599 -0.0366191 0)
(-0.0171207 -0.0435103 0)
(-0.0251094 -0.0492111 0)
(-0.0331922 -0.0527588 0)
(-0.0405867 -0.0534682 0)
(-0.0462649 -0.0516891 0)
(-0.0497791 -0.0486712 0)
(-0.0514137 -0.045632 0)
(-0.051766 -0.0433752 0)
(-0.0513918 -0.0422533 0)
(-0.0506668 -0.0424247 0)
(-0.0497865 -0.0440391 0)
(0.039927 0.32455 0)
(0.088814 0.390887 0)
(0.1153 0.308444 0)
(0.12122 0.2175 0)
(0.114023 0.144542 0)
(0.0998227 0.0908718 0)
(0.0832132 0.0527729 0)
(0.066935 0.0259555 0)
(0.0522706 0.00679952 0)
(0.039524 -0.00743846 0)
(0.0284641 -0.0185131 0)
(0.0186815 -0.027501 0)
(0.00971857 -0.0349415 0)
(0.00118363 -0.040874 0)
(-0.00697151 -0.0449116 0)
(-0.0143265 -0.0467783 0)
(-0.020306 -0.0467254 0)
(-0.0246171 -0.0455042 0)
(-0.0273842 -0.0439408 0)
(-0.0289769 -0.0426848 0)
(-0.0298117 -0.0421438 0)
(-0.0302617 -0.0425837 0)
(-0.0306178 -0.0442161 0)
(0.0293214 0.269399 0)
(0.0760953 0.34584 0)
(0.108498 0.288405 0)
(0.12145 0.214756 0)
(0.120883 0.152143 0)
(0.112478 0.103748 0)
(0.100326 0.0674883 0)
(0.0870459 0.0404814 0)
(0.0740928 0.0201623 0)
(0.0621015 0.00452145 0)
(0.0512099 -0.00783429 0)
(0.0413108 -0.0178202 0)
(0.0321853 -0.0259581 0)
(0.0236392 -0.032423 0)
(0.0156606 -0.0371352 0)
(0.00848334 -0.0400431 0)
(0.00243179 -0.0413585 0)
(-0.0023106 -0.0415701 0)
(-0.00580005 -0.0412538 0)
(-0.00827033 -0.0409217 0)
(-0.010029 -0.0409623 0)
(-0.0114062 -0.0416737 0)
(-0.0127128 -0.043291 0)
(0.020204 0.226841 0)
(0.0619974 0.301326 0)
(0.0963528 0.26307 0)
(0.114187 0.205741 0)
(0.119164 0.153788 0)
(0.116014 0.111528 0)
(0.108311 0.0782563 0)
(0.0984638 0.0522414 0)
(0.0879504 0.0317876 0)
(0.0775797 0.0154981 0)
(0.0677198 0.00233779 0)
(0.0584841 -0.00841075 0)
(0.0498493 -0.0172017 0)
(0.0417625 -0.0242635 0)
(0.0342506 -0.0296666 0)
(0.0274594 -0.0334766 0)
(0.0215794 -0.0358865 0)
(0.0167255 -0.0372406 0)
(0.0128713 -0.037953 0)
(0.00986707 -0.038425 0)
(0.00748835 -0.039001 0)
(0.00545986 -0.0399718 0)
(0.00349135 -0.041575 0)
(0.0139026 0.19469 0)
(0.0495319 0.260585 0)
(0.0827052 0.235708 0)
(0.102955 0.192417 0)
(0.111927 0.150575 0)
(0.113107 0.114716 0)
(0.109427 0.0851017 0)
(0.102993 0.0608967 0)
(0.0951995 0.0410975 0)
(0.0869102 0.0248086 0)
(0.0786164 0.0113218 0)
(0.0705708 0.000115484 0)
(0.0628863 -0.00916736 0)
(0.055615 -0.0167483 0)
(0.0488215 -0.022756 0)
(0.0426164 -0.0273066 0)
(0.0371245 -0.0305769 0)
(0.032423 -0.0328264 0)
(0.0285014 -0.0343645 0)
(0.0252637 -0.0355071 0)
(0.0225489 -0.0365486 0)
(0.0201364 -0.0377561 0)
(0.0177733 -0.0393576 0)
(0.0101636 0.170019 0)
(0.0398013 0.225049 0)
(0.0699681 0.208879 0)
(0.0906245 0.1768 0)
(0.102015 0.143864 0)
(0.106399 0.114149 0)
(0.106021 0.0884408 0)
(0.102631 0.0665253 0)
(0.0974724 0.0479224 0)
(0.0913793 0.0321352 0)
(0.0848831 0.0187342 0)
(0.0783077 0.00737923 0)
(0.0718449 -0.00218278 0)
(0.0656159 -0.0101324 0)
(0.0597179 -0.0166031 0)
(0.0542518 -0.0217216 0)
(0.0493135 -0.0256453 0)
(0.0449628 -0.0285782 0)
(0.0412016 -0.0307586 0)
(0.0379708 -0.0324381 0)
(0.0351579 -0.0338645 0)
(0.0325914 -0.0352758 0)
(0.03006 -0.0368846 0)
(0.00817513 0.150308 0)
(0.0326991 0.194815 0)
(0.0592313 0.184052 0)
(0.0790382 0.160474 0)
(0.091542 0.134978 0)
(0.0980118 0.110818 0)
(0.100084 0.0889355 0)
(0.0991693 0.0694969 0)
(0.0963238 0.0523976 0)
(0.092297 0.0374477 0)
(0.0875998 0.0244454 0)
(0.0825726 0.0132077 0)
(0.0774409 0.00358041 0)
(0.0723606 -0.00456364 0)
(0.0674517 -0.0113359 0)
(0.0628154 -0.0168508 0)
(0.0585365 -0.0212432 0)
(0.0546701 -0.0246762 0)
(0.0512288 -0.0273373 0)
(0.0481812 -0.0294288 0)
(0.0454519 -0.0311585 0)
(0.0429116 -0.0327353 0)
(0.040388 -0.0343544 0)
(0.00715136 0.133802 0)
(0.0276352 0.169233 0)
(0.0506999 0.161739 0)
(0.0690777 0.144458 0)
(0.0817607 0.125017 0)
(0.0893452 0.105693 0)
(0.0930407 0.0873343 0)
(0.0939773 0.0703271 0)
(0.0930201 0.0548354 0)
(0.0907978 0.0409019 0)
(0.0877586 0.0285038 0)
(0.0842194 0.0175856 0)
(0.0804056 0.00807786 0)
(0.0764832 -9.37293e-05 0)
(0.0725816 -0.00700942 0)
(0.0688047 -0.0127614 0)
(0.0652341 -0.0174598 0)
(0.0619258 -0.0212353 0)
(0.0589029 -0.0242368 0)
(0.0561548 -0.0266284 0)
(0.0536354 -0.0285844 0)
(0.0512499 -0.0302865 0)
(0.0488611 -0.0319129 0)
(0.00651544 0.11946 0)
(0.0239382 0.147402 0)
(0.0440591 0.141856 0)
(0.0608777 0.129285 0)
(0.0731442 0.114812 0)
(0.0810849 0.0996133 0)
(0.0857088 0.0843389 0)
(0.0879461 0.0695444 0)
(0.0884663 0.0556059 0)
(0.0877541 0.0427413 0)
(0.086169 0.0310595 0)
(0.0839803 0.0205993 0)
(0.0813932 0.0113566 0)
(0.0785677 0.00330108 0)
(0.075633 -0.00361687 0)
(0.072694 -0.00946511 0)
(0.0698323 -0.0143298 0)
(0.0671064 -0.018314 0)
(0.064549 -0.0215367 0)
(0.0621657 -0.0241312 0)
(0.0599333 -0.0262438 0)
(0.0577851 -0.0280326 0)
(0.055613 -0.029659 0)
(0.00602042 0.106656 0)
(0.0209842 0.12849 0)
(0.0386619 0.123988 0)
(0.053969 0.115101 0)
(0.0654859 0.104916 0)
(0.0732948 0.0932075 0)
(0.0783933 0.0804883 0)
(0.0815549 0.0675778 0)
(0.0832398 0.0550413 0)
(0.0837791 0.0432185 0)
(0.0834374 0.0323016 0)
(0.0824307 0.0223891 0)
(0.0809367 0.0135205 0)
(0.0791033 0.00569751 0)
(0.0770547 -0.00110409 0)
(0.0748947 -0.00692984 0)
(0.0727052 -0.0118438 0)
(0.0705481 -0.0159258 0)
(0.0684635 -0.0192703 0)
(0.0664699 -0.0219857 0)
(0.0645615 -0.0241947 0)
(0.062694 -0.0260347 0)
(0.0607836 -0.0276512 0)
(0.00541065 0.0953386 0)
(0.0183446 0.111923 0)
(0.0337789 0.108141 0)
(0.0472987 0.102114 0)
(0.0579235 0.0955575 0)
(0.0655778 0.0867443 0)
(0.0710748 0.0760348 0)
(0.0750261 0.0646729 0)
(0.077695 0.0533762 0)
(0.0792877 0.0425484 0)
(0.0799963 0.0324193 0)
(0.0799957 0.0231163 0)
(0.079442 0.0147036 0)
(0.0784717 0.00720465 0)
(0.0772034 0.000614763 0)
(0.0757388 -0.00509218 0)
(0.0741598 -0.00996077 0)
(0.0725308 -0.014051 0)
(0.0708976 -0.0174365 0)
(0.0692884 -0.0202053 0)
(0.0677105 -0.0224603 0)
(0.0661373 -0.0243204 0)
(0.0645043 -0.0259162 0)
(0.00417425 0.085874 0)
(0.0154601 0.097348 0)
(0.0287252 0.094518 0)
(0.0402764 0.0906197 0)
(0.0499229 0.0867038 0)
(0.057666 0.0800497 0)
(0.0637999 0.0709211 0)
(0.068561 0.0608992 0)
(0.0721026 0.0507566 0)
(0.0745789 0.0409087 0)
(0.0761519 0.0315934 0)
(0.0769782 0.0229494 0)
(0.0772022 0.0150549 0)
(0.0769537 0.00794916 0)
(0.0763467 0.0016441 0)
(0.07548 -0.00386956 0)
(0.0744348 -0.00861909 0)
(0.0732763 -0.0126471 0)
(0.0720541 -0.0160099 0)
(0.0708031 -0.0187782 0)
(0.0695405 -0.021038 0)
(0.068253 -0.022892 0)
(0.0668918 -0.0244566 0)
(0.00326421 0.078245 0)
(0.012785 0.0849112 0)
(0.023795 0.0830493 0)
(0.0334878 0.0807756 0)
(0.0422515 0.0781702 0)
(0.0502317 0.0728096 0)
(0.0570382 0.0650532 0)
(0.0625015 0.0563217 0)
(0.0667339 0.0473325 0)
(0.0698879 0.0384837 0)
(0.0721212 0.030012 0)
(0.0735848 0.0220641 0)
(0.074418 0.0147308 0)
(0.0747452 0.00806599 0)
(0.0746759 0.00209704 0)
(0.0743042 -0.00316959 0)
(0.073709 -0.00774558 0)
(0.0729543 -0.0116583 0)
(0.0720914 -0.0149495 0)
(0.0711592 -0.0176753 0)
(0.0701821 -0.0199072 0)
(0.0691568 -0.0217337 0)
(0.0680471 -0.0232572 0)
(0.00410816 0.0713232 0)
(0.0115058 0.0751165 0)
(0.0199243 0.0736613 0)
(0.0281638 0.0721983 0)
(0.0363946 0.0698085 0)
(0.0443705 0.0651794 0)
(0.0513982 0.0586616 0)
(0.0571911 0.0511904 0)
(0.0618056 0.0433503 0)
(0.0653731 0.0355038 0)
(0.0680384 0.0278837 0)
(0.0699424 0.0206448 0)
(0.0712157 0.0138911 0)
(0.0719749 0.0076913 0)
(0.0723217 0.00208807 0)
(0.0723436 -0.00289729 0)
(0.0721137 -0.00726248 0)
(0.071693 -0.0110219 0)
(0.071132 -0.0142052 0)
(0.0704716 -0.0168564 0)
(0.0697409 -0.0190352 0)
(0.0689444 -0.0208172 0)
(0.0680562 -0.0222917 0)
(0.00477028 0.0641888 0)
(0.0109261 0.067585 0)
(0.0177646 0.0659747 0)
(0.0251371 0.064373 0)
(0.0328236 0.0618216 0)
(0.0403042 0.0577185 0)
(0.0470207 0.0522394 0)
(0.0527136 0.0459004 0)
(0.0573724 0.0391276 0)
(0.0610807 0.0322294 0)
(0.0639529 0.0254257 0)
(0.0661091 0.0188744 0)
(0.067664 0.0126902 0)
(0.0687213 0.00695527 0)
(0.0693715 0.0017267 0)
(0.0696916 -0.00296062 0)
(0.0697461 -0.00709242 0)
(0.0695902 -0.0106728 0)
(0.0692717 -0.013722 0)
(0.0688319 -0.0162751 0)
(0.0683033 -0.0183818 0)
(0.0676962 -0.0201066 0)
(0.0669935 -0.0215266 0)
(0.00457402 0.0570065 0)
(0.0105095 0.0609112 0)
(0.0169829 0.0591244 0)
(0.0237821 0.0571456 0)
(0.0307341 0.0545249 0)
(0.037458 0.0508673 0)
(0.0435769 0.0462037 0)
(0.0488822 0.0408022 0)
(0.0533283 0.0349515 0)
(0.0569563 0.0288969 0)
(0.0598466 0.0228345 0)
(0.0620938 0.0169177 0)
(0.063793 0.0112669 0)
(0.0650316 0.00597524 0)
(0.0658854 0.00111249 0)
(0.0664179 -0.00327438 0)
(0.0666818 -0.00716164 0)
(0.066724 -0.0105465 0)
(0.0665884 -0.0134433 0)
(0.066316 -0.0158812 0)
(0.0659416 -0.0179024 0)
(0.065481 -0.0195618 0)
(0.0649244 -0.0209244 0)
(0.00447438 0.0501263 0)
(0.010366 0.0541999 0)
(0.0166734 0.0525587 0)
(0.0229925 0.0505318 0)
(0.0292387 0.0480208 0)
(0.0351913 0.0447689 0)
(0.040632 0.0407497 0)
(0.0454182 0.0361024 0)
(0.0495023 0.0310171 0)
(0.0529017 0.0256821 0)
(0.0556715 0.0202649 0)
(0.0578844 0.0149095 0)
(0.0596166 0.00973768 0)
(0.0609392 0.00485149 0)
(0.0619116 0.000332275 0)
(0.0625812 -0.00376203 0)
(0.0629857 -0.00740122 0)
(0.063162 -0.0105801 0)
(0.0631495 -0.0133119 0)
(0.0629894 -0.0156229 0)
(0.0627192 -0.01755 0)
(0.0623598 -0.0191399 0)
(0.0619087 -0.0204461 0)
(0.00444304 0.0433909 0)
(0.0102333 0.0474947 0)
(0.0163281 0.0462677 0)
(0.0222006 0.0444888 0)
(0.0278175 0.0422444 0)
(0.0330709 0.039396 0)
(0.0378561 0.0359171 0)
(0.0420922 0.031886 0)
(0.045747 0.0274317 0)
(0.0488319 0.0226984 0)
(0.0513884 0.0178278 0)
(0.0534744 0.012953 0)
(0.0551523 0.00819593 0)
(0.0564792 0.00366699 0)
(0.057499 -0.000539866 0)
(0.0582396 -0.00435532 0)
(0.0587205 -0.00774631 0)
(0.0589673 -0.0107118 0)
(0.0590165 -0.0132694 0)
(0.0589113 -0.0154464 0)
(0.0586936 -0.0172762 0)
(0.0583897 -0.0187977 0)
(0.0580036 -0.0200526 0)
(0.00434552 0.0367831 0)
(0.00993953 0.0409751 0)
(0.0157465 0.0403213 0)
(0.0211883 0.0389664 0)
(0.02625 0.0370997 0)
(0.0308905 0.0346723 0)
(0.035078 0.0316775 0)
(0.0387802 0.0281697 0)
(0.041986 0.0242435 0)
(0.0447111 0.0200129 0)
(0.0469931 0.0155994 0)
(0.048883 0.0111263 0)
(0.0504361 0.00671645 0)
(0.0517001 0.00249079 0)
(0.0527054 -0.0014401 0)
(0.0534574 -0.00499175 0)
(0.0539515 -0.00813319 0)
(0.0542022 -0.0108777 0)
(0.0542472 -0.0132547 0)
(0.0541365 -0.0152959 0)
(0.0539185 -0.0170317 0)
(0.0536255 -0.0184923 0)
(0.053267 -0.0197068 0)
(0.00416037 0.0304293 0)
(0.0094855 0.0347618 0)
(0.0149468 0.0347562 0)
(0.0199656 0.0339233 0)
(0.0245261 0.0325078 0)
(0.0286237 0.0305228 0)
(0.0322704 0.0279844 0)
(0.0354682 0.0249415 0)
(0.0382256 0.0214705 0)
(0.0405664 0.0176664 0)
(0.0425297 0.0136353 0)
(0.0441662 0.00949265 0)
(0.0455304 0.00536387 0)
(0.0466684 0.00138429 0)
(0.0476014 -0.00231038 0)
(0.0483065 -0.0056101 0)
(0.048746 -0.00849436 0)
(0.0489252 -0.0110083 0)
(0.0488935 -0.0132022 0)
(0.048714 -0.0151138 0)
(0.0484447 -0.0167683 0)
(0.0481227 -0.0181843 0)
(0.0477608 -0.019376 0)
(0.00395663 0.0243947 0)
(0.00900775 0.0289182 0)
(0.014086 0.0295937 0)