/*--------------------------------*- C++ -*----------------------------------*\
| =========                 |                                                 |
| \\      /  F ield         | OpenFOAM: The Open Source CFD Toolbox           |
|  \\    /   O peration     | Version:  2.3.0                                 |
|   \\  /    A nd           | Web:      www.OpenFOAM.org                      |
|    \\/     M anipulation  |                                                 |
\*---------------------------------------------------------------------------*/
FoamFile
{
    version     2.0;
    format      ascii;
    class       volScalarField;
    location    "0.065";
    object      T;
}
// * * * * * * * * * * * * * * * * * * * * * * * * * * * * * * * * * * * * * //

dimensions      [0 0 0 1 0 0 0];

internalField   nonuniform List<scalar> 
12225
(
1.00702
1.00235
1.00097
1.00057
1.00029
1.0001
1.00001
0.999957
0.999926
0.999904
0.999883
0.999848
0.999768
0.99957
0.999077
0.997861
0.994812
0.987074
0.99388
0.995662
0.997505
0.998595
0.999122
0.9994
0.999575
0.999689
0.999762
0.999808
0.999832
0.999827
0.999769
0.99959
0.999124
0.997969
0.99515
0.988298
1.00047
1.00054
1.00043
1.00038
1.00027
1.00015
1.00007
1.00002
0.999985
0.999958
0.999933
0.999896
0.999818
0.999634
0.99919
0.998131
0.995678
0.990246
1.00033
0.999923
0.999616
0.999668
0.999738
0.999771
0.999797
0.999821
0.99984
0.999853
0.999856
0.99984
0.999781
0.999623
0.999231
0.998314
0.996286
0.992135
1.00018
1
0.999776
0.999808
0.999867
0.999886
0.999893
0.999898
0.999901
0.999901
0.999895
0.999873
0.999815
0.99967
0.999328
0.998559
0.996948
0.993882
1.00003
0.999994
0.999833
0.999822
0.999855
0.999871
0.999877
0.999884
0.999889
0.999891
0.999887
0.99987
0.99982
0.999697
0.999413
0.998797
0.997568
0.995365
1.00001
1.00003
0.999913
0.999874
0.999883
0.999891
0.999895
0.999898
0.999901
0.999902
0.999898
0.999883
0.99984
0.999738
0.999509
0.999035
0.998131
0.996587
1
1.00003
0.999948
0.999903
0.9999
0.999903
0.999904
0.999906
0.999908
0.999908
0.999904
0.999891
0.999856
0.99977
0.999587
0.999218
0.998535
0.997407
1
1.00003
0.99997
0.999929
0.999919
0.999917
0.999916
0.999916
0.999917
0.999916
0.999912
0.9999
0.99987
0.9998
0.999653
0.999364
0.998846
0.99801
0.999998
1.00002
0.999986
0.999952
0.999938
0.999932
0.999929
0.999927
0.999927
0.999925
0.999921
0.999911
0.999886
0.999831
0.999718
0.999503
0.999126
0.998532
0.999998
1.00002
0.999996
0.99997
0.999956
0.999948
0.999943
0.99994
0.999938
0.999936
0.999931
0.999922
0.999904
0.999863
0.99978
0.999627
0.999367
0.998965
0.999998
1.00001
1
0.999983
0.999972
0.999964
0.999958
0.999954
0.99995
0.999947
0.999943
0.999936
0.999922
0.999892
0.999835
0.999733
0.999563
0.999306
0.999998
1.00001
1.00001
0.999993
0.999984
0.999977
0.999972
0.999967
0.999962
0.999959
0.999956
0.999949
0.999939
0.999919
0.999882
0.999818
0.999713
0.99956
0.999998
1.00001
1.00001
1
0.999993
0.999986
0.999982
0.999979
0.999975
0.999971
0.999968
0.999963
0.999956
0.999943
0.99992
0.999883
0.999823
0.999738
0.999998
1.00001
1.00001
1
0.999998
0.999995
0.999991
0.999988
0.999985
0.999982
0.99998
0.999975
0.999971
0.999962
0.999948
0.999929
0.999897
0.999854
0.999999
1.00001
1.00001
1
1
1
0.999997
0.999994
0.999992
0.999989
0.999988
0.999987
0.999983
0.999977
0.999969
0.999958
0.999943
0.999924
0.999998
1.00001
1.00001
1
1
1
1
0.999999
0.999997
0.999996
0.999994
0.999992
0.99999
0.999988
0.999984
0.999977
0.999969
0.99996
0.999999
1
1.00001
1.00001
1.00001
1.00001
1
0.999999
0.999998
0.999998
0.999997
0.999996
0.999994
0.99999
0.999986
0.999983
0.999979
0.999977
0.999999
1.00001
1.00001
1.00001
1.00001
1.00001
1
0.999999
0.999996
0.999995
0.999993
0.999991
0.999989
0.999988
0.999986
0.999982
0.999979
0.999979
0.999998
1.00001
1.00001
1.00001
1
1
1
0.999996
0.999992
0.999989
0.999988
0.999986
0.999984
0.999983
0.999981
0.999978
0.999976
0.999978
0.999997
1.00001
1.00001
1.00001
1
0.999995
0.999992
0.999987
0.999983
0.99998
0.999977
0.999975
0.999973
0.999972
0.999971
0.999969
0.999967
0.999968
0.999997
1.00001
1.00002
1.00001
0.999995
0.999987
0.999982
0.999976
0.999973
0.99997
0.999967
0.999966
0.999966
0.999964
0.999963
0.999962
0.99996
0.999961
0.999996
1.00003
1.00002
0.999994
0.999975
0.999966
0.999959
0.999954
0.999952
0.99995
0.999949
0.999948
0.999948
0.999949
0.999948
0.999948
0.999948
0.999949
0.999994
1.00005
1.00003
0.999984
0.999963
0.999957
0.999953
0.99995
0.999949
0.999948
0.999947
0.999947
0.999948
0.999948
0.999948
0.999948
0.999948
0.999949
0.999986
1.00005
0.999974
0.999913
0.9999
0.9999
0.9999
0.999902
0.999905
0.999908
0.999911
0.999914
0.999918
0.999921
0.999925
0.999927
0.999928
0.999931
1.00011
1.00014
0.999977
0.99993
0.999954
0.99997
0.999971
0.999969
0.999965
0.999962
0.999959
0.999954
0.999952
0.99995
0.999949
0.999948
0.999947
0.999947
1.00029
1.00004
0.999634
0.999556
0.999609
0.999662
0.999706
0.999746
0.999781
0.999809
0.999832
0.99985
0.999865
0.999878
0.999888
0.999897
0.999905
0.999908
1.00089
1.00118
1.00097
1.00079
1.00062
1.00045
1.00031
1.00022
1.00015
1.0001
1.00006
1.00003
1.00001
0.999992
0.999981
0.999974
0.99997
0.999957
0.993498
0.994872
0.996789
0.998012
0.998681
0.999064
0.999313
0.999485
0.999605
0.99969
0.99975
0.999794
0.999827
0.999852
0.999872
0.999888
0.999905
0.999901
1.00657
1.00291
1.00132
1.00082
1.00049
1.00027
1.00014
1.00007
1.00002
0.99999
0.999968
0.999954
0.999944
0.999937
0.999933
0.999931
0.999938
0.999912
0.624528
0.624506
0.624425
0.624316
0.624186
0.624029
0.623847
0.623639
0.623404
0.623145
0.622866
0.622566
0.622247
0.621908
0.621552
0.621179
0.620793
0.620394
0.619985
0.619567
0.619143
0.618714
0.618284
0.617854
0.617427
0.617004
0.616589
0.616183
0.615789
0.615409
0.615046
0.614701
0.614377
0.614076
0.6138
0.613551
0.613331
0.613142
0.612985
0.612863
0.612776
0.612726
0.612715
0.612743
0.612811
0.61292
0.613071
0.613264
0.6135
0.613779
0.614101
0.614465
0.614873
0.615323
0.615814
0.616347
0.616919
0.617531
0.618181
0.618868
0.619591
0.620348
0.621138
0.62196
0.622812
0.623692
0.624599
0.625532
0.626487
0.627465
0.628463
0.62948
0.630514
0.631563
0.632625
0.633701
0.634786
0.635881
0.636984
0.638093
0.639207
0.640325
0.641444
0.642565
0.643685
0.644803
0.645919
0.647031
0.648137
0.649237
0.650329
0.651414
0.652489
0.653553
0.654606
0.655647
0.656674
0.657688
0.658688
0.659672
0.660641
0.661593
0.662529
0.663448
0.664349
0.665232
0.666096
0.666942
0.667769
0.668577
0.669366
0.670135
0.670884
0.671613
0.672321
0.673008
0.673674
0.674319
0.674941
0.675542
0.67612
0.676675
0.677206
0.677715
0.678199
0.678659
0.679094
0.679504
0.679889
0.680248
0.68058
0.680886
0.681164
0.681414
0.681637
0.681831
0.681996
0.682132
0.682238
0.682313
0.682358
0.682372
0.682354
0.682303
0.682221
0.682105
0.681955
0.681772
0.681555
0.681304
0.681017
0.680695
0.680338
0.679944
0.679514
0.679048
0.678545
0.678005
0.677427
0.676814
0.676158
0.675466
0.674744
0.673957
0.673131
0.672267
0.671342
0.670381
0.669386
0.668354
0.667285
0.666181
0.665041
0.663867
0.662662
0.661424
0.660185
0.658877
0.657841
0.655615
0.625564
0.625527
0.62547
0.625385
0.625272
0.625132
0.624964
0.624769
0.624543
0.62429
0.624011
0.623709
0.623384
0.62304
0.622678
0.6223
0.621907
0.621502
0.621086
0.620663
0.620233
0.619799
0.619363
0.618928
0.618495
0.618068
0.617647
0.617237
0.616838
0.616454
0.616086
0.615737
0.615408
0.615103
0.614822
0.614569
0.614344
0.61415
0.613989
0.613861
0.613769
0.613714
0.613697
0.613719
0.613781
0.613885
0.61403
0.614217
0.614447
0.61472
0.615035
0.615394
0.615794
0.616237
0.616722
0.617247
0.617812
0.618417
0.61906
0.619739
0.620455
0.621205
0.621988
0.622802
0.623647
0.62452
0.625419
0.626345
0.627293
0.628264
0.629255
0.630265
0.631292
0.632334
0.63339
0.634459
0.635538
0.636627
0.637724
0.638827
0.639935
0.641047
0.642161
0.643276
0.644391
0.645504
0.646614
0.647721
0.648822
0.649917
0.651005
0.652085
0.653155
0.654215
0.655264
0.6563
0.657323
0.658333
0.659328
0.660308
0.661272
0.66222
0.663152
0.664066
0.664963
0.665842
0.666702
0.667544
0.668367
0.669171
0.669956
0.67072
0.671465
0.672189
0.672893
0.673575
0.674236
0.674876
0.675494
0.676089
0.676662
0.677212
0.677739
0.678242
0.678721
0.679175
0.679604
0.680009
0.680388
0.68074
0.681067
0.681366
0.681638
0.681882
0.682098
0.682285
0.682444
0.682572
0.682671
0.68274
0.682777
0.682784
0.682758
0.6827
0.68261
0.682486
0.682329
0.682138
0.681912
0.681652
0.681357
0.681026
0.680659
0.680256
0.679817
0.679341
0.678827
0.678277
0.677687
0.677061
0.676393
0.675689
0.674953
0.674163
0.673342
0.672492
0.671594
0.670657
0.669682
0.668669
0.667619
0.666532
0.665409
0.66425
0.663061
0.661842
0.660618
0.659345
0.658257
0.656453
0.62767
0.627588
0.627509
0.627413
0.627291
0.627139
0.626957
0.626746
0.626507
0.626241
0.625951
0.625638
0.625303
0.62495
0.624578
0.624191
0.623791
0.623378
0.622955
0.622525
0.622089
0.621649
0.621208
0.620767
0.620329
0.619897
0.619472
0.619056
0.618652
0.618262
0.617889
0.617534
0.6172
0.616888
0.616601
0.616341
0.616109
0.615907
0.615738
0.615602
0.615502
0.615438
0.615412
0.615424
0.615477
0.61557
0.615704
0.61588
0.616099
0.61636
0.616664
0.61701
0.617399
0.61783
0.618302
0.618814
0.619367
0.619959
0.620589
0.621256
0.621959
0.622696
0.623467
0.624269
0.625102
0.625963
0.626851
0.627765
0.628702
0.629662
0.630643
0.631643
0.63266
0.633693
0.63474
0.635801
0.636872
0.637953
0.639043
0.64014
0.641242
0.642349
0.643458
0.644569
0.645681
0.646791
0.6479
0.649005
0.650105
0.6512
0.652289
0.653369
0.654441
0.655503
0.656554
0.657593
0.65862
0.659633
0.660632
0.661616
0.662585
0.663539
0.664475
0.665395
0.666298
0.667182
0.668049
0.668897
0.669726
0.670536
0.671327
0.672098
0.672849
0.67358
0.67429
0.674979
0.675647
0.676293
0.676917
0.677519
0.678098
0.678653
0.679186
0.679694
0.680179
0.680639
0.681073
0.681483
0.681866
0.682223
0.682554
0.682857
0.683133
0.68338
0.6836
0.68379
0.683951
0.684082
0.684182
0.684252
0.684291
0.684298
0.684273
0.684216
0.684125
0.684001
0.683843
0.68365
0.683423
0.683161
0.682863
0.68253
0.682161
0.681754
0.681311
0.680831
0.680312
0.679757
0.679162
0.678531
0.67786
0.677151
0.676407
0.675616
0.674794
0.673942
0.673046
0.672112
0.671139
0.670128
0.669079
0.667993
0.66687
0.665711
0.664521
0.6633
0.662068
0.660789
0.659646
0.658057
0.630787
0.630668
0.630569
0.630459
0.630321
0.630151
0.629951
0.629722
0.629467
0.629187
0.628882
0.628556
0.628208
0.627842
0.627459
0.627061
0.626649
0.626226
0.625793
0.625353
0.624907
0.624458
0.624008
0.623558
0.623111
0.622669
0.622235
0.62181
0.621397
0.620998
0.620615
0.62025
0.619905
0.619583
0.619285
0.619013
0.618769
0.618555
0.618373
0.618224
0.61811
0.618031
0.61799
0.617987
0.618024
0.6181
0.618218
0.618377
0.618578
0.618821
0.619107
0.619435
0.619804
0.620216
0.620669
0.621162
0.621695
0.622268
0.622878
0.623526
0.62421
0.624928
0.625679
0.626463
0.627277
0.62812
0.62899
0.629886
0.630807
0.63175
0.632715
0.633699
0.634701
0.63572
0.636754
0.637801
0.638861
0.639931
0.64101
0.642097
0.643191
0.64429
0.645392
0.646497
0.647604
0.64871
0.649816
0.650919
0.652018
0.653113
0.654202
0.655285
0.656359
0.657425
0.65848
0.659525
0.660557
0.661577
0.662584
0.663576
0.664554
0.665516
0.666462
0.667392
0.668304
0.669199
0.670076
0.670935
0.671776
0.672597
0.6734
0.674183
0.674946
0.675688
0.67641
0.677111
0.677791
0.678449
0.679085
0.679699
0.68029
0.680857
0.681401
0.681921
0.682417
0.682887
0.683333
0.683752
0.684146
0.684513
0.684853
0.685166
0.68545
0.685706
0.685933
0.686131
0.686299
0.686436
0.686543
0.686619
0.686663
0.686675
0.686654
0.6866
0.686513
0.686391
0.686236
0.686045
0.685819
0.685558
0.685261
0.684927
0.684557
0.684149
0.683704
0.683222
0.682701
0.682143
0.681546
0.680912
0.680237
0.679525
0.678775
0.677983
0.677157
0.676296
0.675395
0.674455
0.673477
0.67246
0.671405
0.670313
0.669183
0.668018
0.666819
0.665586
0.664339
0.663041
0.661854
0.660357
0.634911
0.634769
0.634652
0.634529
0.634376
0.634189
0.633972
0.633726
0.633453
0.633155
0.632834
0.63249
0.632127
0.631745
0.631346
0.630933
0.630507
0.63007
0.629623
0.62917
0.628711
0.628249
0.627786
0.627323
0.626864
0.62641
0.625964
0.625526
0.6251
0.624688
0.624292
0.623913
0.623554
0.623217
0.622904
0.622616
0.622357
0.622126
0.621926
0.621759
0.621626
0.621528
0.621467
0.621444
0.621459
0.621515
0.62161
0.621746
0.621924
0.622144
0.622405
0.622708
0.623053
0.62344
0.623867
0.624335
0.624843
0.62539
0.625975
0.626597
0.627255
0.627948
0.628674
0.629433
0.630222
0.631041
0.631887
0.63276
0.633658
0.63458
0.635523
0.636486
0.637469
0.638468
0.639483
0.640513
0.641556
0.642611
0.643675
0.644749
0.64583
0.646918
0.64801
0.649106
0.650205
0.651305
0.652405
0.653505
0.654602
0.655696
0.656785
0.657868
0.658945
0.660014
0.661074
0.662124
0.663164
0.664191
0.665205
0.666207
0.667194
0.668167
0.669124
0.670065
0.670989
0.671896
0.672786
0.673658
0.674512
0.675348
0.676164
0.676961
0.677738
0.678495
0.679231
0.679947
0.680641
0.681314
0.681965
0.682593
0.683198
0.68378
0.684338
0.684872
0.685381
0.685865
0.686324
0.686756
0.687163
0.687542
0.687893
0.688217
0.688512
0.688778
0.689015
0.689222
0.689399
0.689545
0.68966
0.689742
0.689793
0.689811
0.689795
0.689746
0.689663
0.689545
0.689392
0.689203
0.688979
0.688719
0.688422
0.688088
0.687717
0.687307
0.686861
0.686377
0.685854
0.685293
0.684692
0.684053
0.683374
0.682656
0.681901
0.681104
0.680271
0.679402
0.678493
0.677546
0.676559
0.675535
0.674473
0.673372
0.672234
0.671059
0.669849
0.668604
0.667339
0.666022
0.664803
0.663328
0.640071
0.639916
0.639785
0.639647
0.639479
0.639276
0.639041
0.638776
0.638484
0.638167
0.637826
0.637464
0.637081
0.636681
0.636264
0.635833
0.635389
0.634935
0.634471
0.634001
0.633526
0.633048
0.632569
0.632091
0.631615
0.631146
0.630683
0.630229
0.629787
0.629358
0.628944
0.628548
0.628171
0.627815
0.627483
0.627176
0.626895
0.626643
0.626422
0.626232
0.626076
0.625954
0.625869
0.62582
0.625809
0.625838
0.625906
0.626014
0.626163
0.626354
0.626585
0.626859
0.627173
0.627528
0.627925
0.628362
0.628838
0.629353
0.629906
0.630497
0.631123
0.631784
0.63248
0.633207
0.633966
0.634755
0.635572
0.636416
0.637285
0.638178
0.639094
0.640032
0.640988
0.641963
0.642955
0.643962
0.644984
0.646018
0.647063
0.648119
0.649183
0.650255
0.651334
0.652417
0.653505
0.654596
0.655688
0.65678
0.657872
0.658963
0.66005
0.661132
0.66221
0.663281
0.664345
0.665399
0.666444
0.667479
0.668501
0.669511
0.670508
0.671491
0.672459
0.673411
0.674348
0.675268
0.676172
0.677057
0.677925
0.678775
0.679606
0.680418
0.681211
0.681984
0.682736
0.683467
0.684177
0.684866
0.685533
0.686177
0.686798
0.687395
0.687969
0.688518
0.689042
0.689541
0.690015
0.690461
0.690881
0.691273
0.691638
0.691974
0.692281
0.692559
0.692806
0.693024
0.69321
0.693365
0.693488
0.693579
0.693636
0.69366
0.693651
0.693606
0.693527
0.693413
0.693263
0.693076
0.692854
0.692594
0.692297
0.691962
0.691591
0.69118
0.690731
0.690243
0.689716
0.68915
0.688545
0.6879
0.687215
0.686492
0.685729
0.684926
0.684085
0.683207
0.68229
0.681333
0.680339
0.679305
0.678234
0.677124
0.675976
0.674791
0.673569
0.67231
0.671028
0.669691
0.668445
0.666955
0.646299
0.646137
0.645996
0.645845
0.645661
0.64544
0.645187
0.644903
0.644591
0.644253
0.643891
0.643508
0.643104
0.642682
0.642244
0.641792
0.641328
0.640853
0.640369
0.639879
0.639384
0.638886
0.638388
0.63789
0.637395
0.636906
0.636423
0.635949
0.635487
0.635037
0.634602
0.634184
0.633785
0.633407
0.633051
0.63272
0.632415
0.632138
0.63189
0.631674
0.631489
0.631339
0.631224
0.631145
0.631104
0.6311
0.631136
0.631211
0.631326
0.631482
0.631679
0.631916
0.632195
0.632514
0.632873
0.633273
0.633712
0.63419
0.634705
0.635258
0.635847
0.636471
0.637128
0.637819
0.638541
0.639294
0.640075
0.640884
0.641719
0.642578
0.643461
0.644366
0.645291
0.646236
0.647198
0.648177
0.649171
0.65018
0.6512
0.652233
0.653275
0.654327
0.655387
0.656453
0.657525
0.658602
0.659682
0.660764
0.661847
0.66293
0.664012
0.665091
0.666166
0.667237
0.668302
0.669359
0.670407
0.671446
0.672475
0.673493
0.674498
0.675489
0.676467
0.67743
0.678378
0.679311
0.680227
0.681126
0.682007
0.682871
0.683717
0.684544
0.685352
0.68614
0.686908
0.687656
0.688382
0.689087
0.68977
0.69043
0.691067
0.691681
0.692271
0.692835
0.693375
0.69389
0.694378
0.694839
0.695273
0.695679
0.696057
0.696406
0.696726
0.697015
0.697275
0.697503
0.697699
0.697863
0.697995
0.698093
0.698158
0.698189
0.698185
0.698146
0.698071
0.69796
0.697813
0.697628
0.697406
0.697148
0.69685
0.696515
0.696141
0.695727
0.695275
0.694784
0.694252
0.693681
0.693069
0.692418
0.691727
0.690996
0.690225
0.689415
0.688565
0.687677
0.68675
0.685785
0.68478
0.683737
0.682655
0.681535
0.680377
0.67918
0.677946
0.676672
0.675373
0.674017
0.672745
0.671224
0.653649
0.653483
0.65333
0.653163
0.652962
0.652723
0.65245
0.652145
0.651811
0.651451
0.651066
0.650659
0.650232
0.649786
0.649324
0.648848
0.64836
0.647862
0.647354
0.646841
0.646322
0.645801
0.645279
0.644758
0.64424
0.643726
0.64322
0.642722
0.642235
0.641761
0.641301
0.640857
0.640432
0.640027
0.639644
0.639284
0.63895
0.638643
0.638365
0.638117
0.637901
0.637717
0.637568
0.637455
0.637377
0.637337
0.637335
0.637372
0.637449
0.637565
0.637722
0.637918
0.638155
0.638432
0.638749
0.639106
0.639502
0.639936
0.640408
0.640917
0.641462
0.642043
0.642657
0.643304
0.643983
0.644693
0.645432
0.6462
0.646993
0.647813
0.648656
0.649522
0.65041
0.651318
0.652244
0.653189
0.654149
0.655125
0.656116
0.657118
0.658133
0.659159
0.660194
0.661238
0.662289
0.663346
0.664408
0.665475
0.666544
0.667616
0.668687
0.669758
0.670827
0.671893
0.672955
0.674011
0.675059
0.6761
0.677131
0.678153
0.679163
0.680161
0.681146
0.682117
0.683074
0.684016
0.684943
0.685853
0.686747
0.687624
0.688482
0.689323
0.690145
0.690947
0.69173
0.692492
0.693233
0.693954
0.694652
0.695328
0.69598
0.696609
0.697214
0.697795
0.69835
0.698879
0.699381
0.699857
0.700305
0.700725
0.701116
0.701478
0.70181
0.702111
0.702381
0.70262
0.702826
0.703
0.70314
0.703246
0.703318
0.703355
0.703357
0.703322
0.703251
0.703144
0.702999
0.702816
0.702595
0.702337
0.702038
0.701701
0.701325
0.700908
0.700452
0.699956
0.699419
0.698842
0.698224
0.697566
0.696867
0.696128
0.695349
0.694529
0.69367
0.692772
0.691835
0.690859
0.689843
0.688789
0.687697
0.686566
0.685396
0.684187
0.68294
0.681652
0.680337
0.678962
0.677666
0.67611
0.66217
0.661998
0.661832
0.661648
0.661428
0.661169
0.660874
0.660547
0.660189
0.659804
0.659394
0.658961
0.658507
0.658035
0.657546
0.657043
0.656527
0.656001
0.655466
0.654925
0.65438
0.653831
0.653281
0.652733
0.652187
0.651646
0.651112
0.650586
0.65007
0.649567
0.649078
0.648604
0.648149
0.647712
0.647297
0.646906
0.646538
0.646197
0.645884
0.6456
0.645347
0.645126
0.644939
0.644786
0.644668
0.644587
0.644543
0.644537
0.644569
0.644641
0.644752
0.644902
0.645092
0.645322
0.645591
0.645899
0.646246
0.646631
0.647054
0.647513
0.648008
0.648539
0.649103
0.649701
0.650331
0.650991
0.651682
0.6524
0.653146
0.653919
0.654715
0.655536
0.656379
0.657243
0.658127
0.659029
0.659949
0.660886
0.661839
0.662805
0.663785
0.664778
0.665782
0.666796
0.667819
0.66885
0.669888
0.670933
0.671982
0.673036
0.674091
0.675148
0.676205
0.677261
0.678314
0.679363
0.680407
0.681444
0.682473
0.683494
0.684505
0.685505
0.686492
0.687468
0.68843
0.689378
0.690311
0.691229
0.692131
0.693017
0.693886
0.694737
0.695569
0.696383
0.697178
0.697953
0.698707
0.69944
0.700152
0.700841
0.701507
0.70215
0.702768
0.703362
0.703931
0.704473
0.704989
0.705478
0.705938
0.706371
0.706774
0.707147
0.70749
0.707802
0.708083
0.708331
0.708547
0.708729
0.708877
0.70899
0.709068
0.709111
0.709118
0.709088
0.70902
0.708916
0.708773
0.708591
0.708371
0.708111
0.707812
0.707473
0.707093
0.706673
0.706213
0.705711
0.705169
0.704585
0.70396
0.703294
0.702588
0.70184
0.701051
0.700222
0.699353
0.698445
0.697496
0.696509
0.695483
0.694418
0.693314
0.692171
0.69099
0.689769
0.688509
0.687208
0.685876
0.684483
0.683165
0.681575
0.671915
0.671737
0.671556
0.671352
0.671111
0.670829
0.67051
0.670158
0.669774
0.669361
0.668923
0.66846
0.667977
0.667474
0.666954
0.66642
0.665873
0.665315
0.664749
0.664176
0.663599
0.663018
0.662437
0.661856
0.661279
0.660705
0.660138
0.65958
0.659031
0.658495
0.657972
0.657464
0.656974
0.656502
0.656051
0.655622
0.655218
0.654838
0.654486
0.654162
0.653868
0.653605
0.653375
0.653178
0.653015
0.652888
0.652797
0.652743
0.652727
0.652749
0.65281
0.652909
0.653047
0.653224
0.653439
0.653693
0.653985
0.654315
0.654682
0.655086
0.655525
0.655999
0.656507
0.657048
0.657622
0.658226
0.658861
0.659524
0.660215
0.660932
0.661675
0.662442
0.663233
0.664045
0.664878
0.665732
0.666604
0.667493
0.6684
0.669322
0.67026
0.671211
0.672175
0.673151
0.674139
0.675136
0.676143
0.677157
0.678179
0.679207
0.680239
0.681274
0.682312
0.68335
0.684388
0.685423
0.686454
0.687481
0.688503
0.689516
0.690521
0.691516
0.692501
0.693474
0.694436
0.695384
0.696319
0.69724
0.698145
0.699035
0.699909
0.700766
0.701605
0.702427
0.703229
0.704012
0.704776
0.705518
0.706239
0.706938
0.707615
0.708268
0.708897
0.709502
0.710081
0.710634
0.711161
0.71166
0.712132
0.712574
0.712987
0.713371
0.713723
0.714044
0.714333
0.71459
0.714813
0.715002
0.715157
0.715276
0.71536
0.715407
0.715418
0.715391
0.715327
0.715224
0.715082
0.714901
0.71468
0.714419
0.714118
0.713776
0.713393
0.712969
0.712504
0.711997
0.711448
0.710858
0.710226
0.709552
0.708836
0.708079
0.707281
0.706442
0.705563
0.704644
0.703685
0.702686
0.701649
0.700572
0.699457
0.698303
0.69711
0.695877
0.694605
0.693291
0.691945
0.690536
0.689198
0.687577
0.682945
0.682758
0.68256
0.682334
0.682068
0.68176
0.681414
0.681033
0.680619
0.680175
0.679704
0.679208
0.678691
0.678153
0.677598
0.677028
0.676445
0.675851
0.675248
0.674638
0.674024
0.673407
0.672788
0.672171
0.671556
0.670946
0.670341
0.669745
0.669159
0.668584
0.668023
0.667477
0.666947
0.666436
0.665944
0.665474
0.665028
0.664606
0.66421
0.663842
0.663502
0.663193
0.662915
0.66267
0.662458
0.662281
0.662139
0.662033
0.661963
0.66193
0.661935
0.661978
0.662059
0.662177
0.662334
0.662528
0.662759
0.663028
0.663333
0.663674
0.664051
0.664462
0.664907
0.665384
0.665894
0.666435
0.667006
0.667606
0.668234
0.668889
0.66957
0.670276
0.671005
0.671758
0.672532
0.673327
0.674142
0.674975
0.675827
0.676696
0.677582
0.678483
0.679398
0.680328
0.68127
0.682225
0.68319
0.684166
0.685151
0.686143
0.687143
0.688148
0.689157
0.690169
0.691182
0.692195
0.693206
0.694215
0.695219
0.696217
0.697208
0.698191
0.699165
0.700129
0.701082
0.702024
0.702953
0.70387
0.704772
0.70566
0.706533
0.707389
0.70823
0.709052
0.709857
0.710643
0.71141
0.712157
0.712883
0.713587
0.71427
0.714929
0.715564
0.716176
0.716762
0.717322
0.717856
0.718362
0.718841
0.719291
0.719711
0.720101
0.72046
0.720788
0.721083
0.721346
0.721574
0.721769
0.721928
0.722052
0.722139
0.72219
0.722203
0.722178
0.722115
0.722013
0.721871
0.72169
0.721468
0.721205
0.720901
0.720556
0.72017
0.719741
0.71927
0.718757
0.718202
0.717605
0.716965
0.716283
0.715559
0.714792
0.713985
0.713136
0.712246
0.711316
0.710346
0.709337
0.708288
0.7072
0.706074
0.704909
0.703705
0.702461
0.701178
0.699851
0.698494
0.69707
0.695715
0.694068
0.695324
0.695126
0.694907
0.694656
0.694362
0.694025
0.693647
0.693232
0.692783
0.692303
0.691794
0.691259
0.690702
0.690123
0.689527
0.688915
0.68829
0.687653
0.687008
0.686356
0.685699
0.685039
0.684378
0.683718
0.68306
0.682408
0.681761
0.681122
0.680493
0.679876
0.679271
0.678681
0.678108
0.677552
0.677016
0.6765
0.676007
0.675539
0.675095
0.674678
0.674289
0.673929
0.6736
0.673302
0.673036
0.672804
0.672606
0.672443
0.672315
0.672223
0.672167
0.672148
0.672166
0.672221
0.672312
0.672441
0.672605
0.672807
0.673043
0.673316
0.673622
0.673963
0.674338
0.674744
0.675183
0.675652
0.676152
0.676681
0.677237
0.677821
0.678431
0.679066
0.679726
0.680409
0.681115
0.681842
0.68259
0.683358
0.684146
0.684952
0.685775
0.686616
0.687472
0.688345
0.689232
0.690132
0.691046
0.691973
0.69291
0.693858
0.694814
0.695778
0.696749
0.697724
0.698702
0.699682
0.700663
0.701642
0.702619
0.703592
0.704559
0.70552
0.706474
0.70742
0.708356
0.709282
0.710198
0.711101
0.711993
0.71287
0.713734
0.714583
0.715417
0.716234
0.717034
0.717816
0.71858
0.719325
0.720049
0.720753
0.721435
0.722095
0.722732
0.723344
0.723932
0.724495
0.725031
0.72554
0.726022
0.726475
0.726898
0.727291
0.727654
0.727985
0.728283
0.728548
0.72878
0.728977
0.729138
0.729264
0.729353
0.729405
0.729419
0.729394
0.729331
0.729228
0.729085
0.728902
0.728678
0.728412
0.728105
0.727756
0.727365
0.726931
0.726455
0.725936
0.725374
0.724769
0.724122
0.723431
0.722698
0.721923
0.721106
0.720247
0.719347
0.718407
0.717426
0.716406
0.715347
0.714248
0.713111
0.711935
0.710721
0.709467
0.708174
0.706837
0.705469
0.704035
0.702665
0.700998
0.709125
0.708912
0.708669
0.708388
0.708061
0.707688
0.707273
0.706818
0.706327
0.705803
0.705249
0.704668
0.704063
0.703437
0.702791
0.70213
0.701455
0.700769
0.700074
0.699372
0.698666
0.697956
0.697246
0.696538
0.695832
0.69513
0.694436
0.693749
0.693072
0.692406
0.691753
0.691115
0.690492
0.689887
0.689302
0.688736
0.688193
0.687672
0.687177
0.686707
0.686264
0.685849
0.685464
0.685109
0.684785
0.684493
0.684234
0.684009
0.683818
0.683661
0.68354
0.683454
0.683403
0.683388
0.683409
0.683466
0.683557
0.683684
0.683846
0.684042
0.684272
0.684535
0.684831
0.685159
0.685518
0.685908
0.686327
0.686775
0.687251
0.687755
0.688284
0.68884
0.68942
0.690024
0.69065
0.6913
0.691971
0.692662
0.693375
0.694106
0.694857
0.695626
0.696412
0.697216
0.698036
0.698872
0.699723
0.700588
0.701466
0.702356
0.703258
0.704169
0.705089
0.706015
0.706946
0.707882
0.708821
0.70976
0.710698
0.711633
0.712566
0.713494
0.714417
0.715333
0.716242
0.717143
0.718034
0.718915
0.719785
0.720644
0.72149
0.722322
0.72314
0.723943
0.72473
0.725501
0.726254
0.726988
0.727704
0.7284
0.729075
0.729728
0.73036
0.730967
0.731551
0.73211
0.732643
0.73315
0.733629
0.73408
0.734502
0.734894
0.735255
0.735585
0.735882
0.736147
0.736378
0.736574
0.736734
0.736859
0.736947
0.736997
0.73701
0.736984
0.736918
0.736813
0.736668
0.736481
0.736253
0.735984
0.735673
0.735319
0.734922
0.734483
0.734001
0.733475
0.732906
0.732294
0.731638
0.73094
0.730198
0.729414
0.728588
0.72772
0.72681
0.72586
0.724869
0.723839
0.722769
0.721661
0.720514
0.719328
0.718104
0.716841
0.71554
0.714195
0.712818
0.711375
0.709995
0.708313
0.724425
0.724194
0.723922
0.723605
0.723238
0.722822
0.722361
0.721857
0.721315
0.720738
0.720129
0.719491
0.718829
0.718144
0.71744
0.71672
0.715986
0.715241
0.714488
0.713728
0.712964
0.712198
0.711431
0.710666
0.709905
0.709149
0.708399
0.707658
0.706927
0.706208
0.705501
0.704809
0.704133
0.703474
0.702834
0.702214
0.701615
0.701039
0.700486
0.699959
0.699458
0.698984
0.698538
0.698121
0.697734
0.697378
0.697054
0.696761
0.696502
0.696275
0.696083
0.695924
0.695799
0.695708
0.695651
0.695629
0.695641
0.695686
0.695766
0.695878
0.696023
0.6962
0.696409
0.69665
0.69692
0.697221
0.697551
0.697909
0.698295
0.698708
0.699147
0.699612
0.700102
0.700616
0.701153
0.701713
0.702296
0.7029
0.703525
0.70417
0.704836
0.705521
0.706226
0.706949
0.70769
0.708448
0.709223
0.710014
0.71082
0.71164
0.712474
0.713319
0.714174
0.715038
0.715911
0.716789
0.717672
0.718557
0.719443
0.720329
0.721215
0.722098
0.722977
0.723853
0.724722
0.725585
0.726441
0.727289
0.728127
0.728955
0.729773
0.730578
0.731371
0.73215
0.732914
0.733664
0.734397
0.735113
0.735812
0.736491
0.737151
0.737791
0.738409
0.739004
0.739577
0.740125
0.740648
0.741146
0.741617
0.74206
0.742475
0.74286
0.743215
0.743539
0.743831
0.744091
0.744316
0.744508
0.744664
0.744784
0.744868
0.744914
0.744922
0.744892
0.744822
0.744713
0.744562
0.744371
0.744138
0.743864
0.743547
0.743187
0.742785
0.742339
0.74185
0.741317
0.740741
0.740121
0.739458
0.738752
0.738002
0.737209
0.736374
0.735497
0.734578
0.733618
0.732618
0.731578
0.7305
0.729382
0.728226
0.727032
0.7258
0.72453
0.723221
0.72187
0.720487
0.719038
0.71765
0.715959
0.741312
0.741057
0.74075
0.740389
0.739973
0.739503
0.738983
0.738418
0.737812
0.737168
0.73649
0.735783
0.735049
0.734293
0.733518
0.732727
0.731923
0.731108
0.730286
0.729458
0.728627
0.727795
0.726963
0.726135
0.72531
0.724492
0.723681
0.722879
0.722088
0.721308
0.720542
0.719791
0.719056
0.718338
0.717638
0.716958
0.716299
0.715663
0.715049
0.714459
0.713895
0.713356
0.712845
0.712361
0.711907
0.711481
0.711086
0.710721
0.710387
0.710085
0.709814
0.709576
0.70937
0.709197
0.709056
0.708948
0.708872
0.708828
0.708817
0.708837
0.708888
0.708971
0.709084
0.709227
0.7094
0.709602
0.709832
0.71009
0.710375
0.710687
0.711025
0.711388
0.711777
0.712189
0.712625
0.713084
0.713566
0.71407
0.714596
0.715144
0.715712
0.716301
0.71691
0.717539
0.718187
0.718855
0.719541
0.720244
0.720965
0.721701
0.722452
0.723216
0.723993
0.724783
0.725581
0.726388
0.7272
0.728017
0.728838
0.729662
0.730486
0.731311
0.732134
0.732955
0.733773
0.734586
0.735394
0.736196
0.736991
0.737777
0.738554
0.739322
0.740078
0.740823
0.741554
0.742272
0.742976
0.743664
0.744335
0.744989
0.745625
0.746242
0.746839
0.747414
0.747967
0.748497
0.749004
0.749485
0.749941
0.75037
0.750771
0.751144
0.751487
0.7518
0.752081
0.75233
0.752547
0.752729
0.752876
0.752988
0.753064
0.753103
0.753103
0.753066
0.752989
0.752872
0.752715
0.752517
0.752278
0.751996
0.751673
0.751306
0.750897
0.750444
0.749947
0.749407
0.748824
0.748196
0.747525
0.74681
0.746052
0.745251
0.744408
0.743522
0.742595
0.741627
0.740618
0.73957
0.738483
0.737357
0.736194
0.734992
0.733754
0.732477
0.731163
0.729808
0.728421
0.726969
0.725576
0.723881
0.759883
0.759597
0.759245
0.75883
0.758351
0.757812
0.757217
0.756572
0.755882
0.755152
0.754387
0.753592
0.75277
0.751926
0.751063
0.750186
0.749297
0.7484
0.747496
0.746588
0.74568
0.744771
0.743865
0.742963
0.742068
0.741179
0.740299
0.739429
0.738571
0.737726
0.736894
0.736078
0.735277
0.734495
0.73373
0.732985
0.732261
0.731558
0.730877
0.73022
0.729587
0.728979
0.728397
0.727841
0.727312
0.726811
0.726339
0.725895
0.72548
0.725095
0.72474
0.724416
0.724121
0.723857
0.723624
0.723422
0.72325
0.723108
0.722997
0.722916
0.722865