/*--------------------------------*- C++ -*----------------------------------*\
| =========                 |                                                 |
| \\      /  F ield         | OpenFOAM: The Open Source CFD Toolbox           |
|  \\    /   O peration     | Version:  2.3.0                                 |
|   \\  /    A nd           | Web:      www.OpenFOAM.org                      |
|    \\/     M anipulation  |                                                 |
\*---------------------------------------------------------------------------*/
FoamFile
{
    version     2.0;
    format      ascii;
    class       volScalarField;
    location    "0.088";
    object      alpha.water;
}
// * * * * * * * * * * * * * * * * * * * * * * * * * * * * * * * * * * * * * //

dimensions      [0 0 0 0 0 0 0];

internalField   nonuniform List<scalar> 
725
(
1
1
1
1
0.999801
1
1
1
0.999972
0.999049
1
1
1
1.00014
0.99942
1
1
1
1.00003
1.00016
1
1
1
1.00005
0.999997
0.999999
0.803095
0.033129
0.00376637
0.00376636
0.393839
0.986933
0.998987
0.998344
0.993367
0.999366
0.999739
0.999852
0.999878
0.999921
0.999953
0.999974
0.999985
0.999993
1
1.00001
1.00001
1.00002
1.00002
1.00002
1.00002
1.00001
1.00005
1.00002
0.817774
0.0637655
0.000691144
0.000691137
0.000684973
0.140162
0.978257
1
1
1.00001
1.00001
1.00005
0.99974
0.999998
0.986727
0.289694
0.999999
0.838996
0.0806247
0.00376886
0.0037679
0.337096
0.955381
0.999038
0.994824
0.973295
0.998713
0.99981
0.999776
0.999773
0.999807
0.999846
0.999869
0.99987
0.999861
0.999851
0.999846
0.99985
0.999863
0.999891
0.99992
0.999955
0.999969
1.00001
1.00001
0.819162
0.064483
0.000691022
0.000690353
0.000684973
0.141571
0.966726
0.999991
0.999796
0.999773
0.999764
0.999756
0.999736
0.999998
0.971856
0.229337
0.999999
0.887177
0.126199
0.0037967
0.00379949
0.250612
0.88293
0.999093
0.999098
0.973294
0.977648
0.999294
0.999869
0.99974
0.99973
0.999756
0.999803
0.999836
0.999849
0.999847
0.999838
0.99983
0.999827
0.999836
0.999854
0.999886
0.999925
0.999974
1
0.807049
0.0774438
0.000688583
0.000707059
0.000684973
0.149707
0.943231
0.999968
0.999868
0.999827
0.999795
0.999763
0.99974
0.999999
0.865601
0.0552402
1
0.927864
0.130885
0.00384961
0.00381997
0.178047
0.838989
0.988287
0.999917
0.980052
0.971807
0.995447
0.999869
0.999742
0.99972
0.999695
0.999716
0.999763
0.999834
0.99988
0.999867
0.999855
0.999843
0.999836
0.999836
0.999854
0.999897
0.999962
1
0.793005
0.0903973
0.000687172
0.000686361
0.000684978
0.151718
0.919293
0.999989
0.999987
0.999875
0.999839
0.999811
0.999778
1
0.816704
0.0167946
0.999248
0.886896
0.0687874
0.00388621
0.00384936
0.0281543
0.669204
0.994048
0.999989
0.999895
0.971791
0.994017
0.999826
0.999955
0.999839
0.999701
0.9996
0.999566
0.999588
0.999641
0.999706
0.99986
0.999859
0.999849
0.999838
0.999859
0.999868
1
1
0.785254
0.0949739
0.000688646
0.00127217
0.000684991
0.150243
0.88983
0.99991
0.999731
0.999743
0.999756
0.999765
0.999761
1
0.858091
0.0427278
0.937307
0.93598
0.161946
0.00413959
0.00389107
0.00413812
0.390627
0.990081
1.00001
0.998125
0.971842
0.992455
0.999199
0.999466
0.999904
0.999726
0.999593
0.999514
0.999508
0.999543
0.999609
0.999675
0.99975
0.999795
0.999818
0.999842
0.999874
1.0001
1.00003
0.779411
0.0989162
0.000788586
0.0031656
0.000685854
0.148616
0.871921
0.999831
0.999375
0.999472
0.999581
0.999642
0.999703
1
0.902164
0.0901291
0.924375
0.782238
0.419791
0.0313693
0.00489254
0.0606977
0.406504
0.994683
1.00004
0.996754
0.982977
0.985863
0.998488
0.999885
0.999724
0.9997
0.999598
0.999497
0.999464
0.999491
0.999563
0.999647
0.99972
0.999771
0.999785
0.999889
0.999895
1.00008
1.00002
0.77824
0.099103
0.000925989
0.00318279
0.00068661
0.147313
0.865238
0.999776
0.999348
0.999418
0.999527
0.999599
0.999664
1.00007
0.916569
0.109492
0.79295
0.544641
0.583439
0.0779933
0.00545888
0.232761
0.633746
0.996277
1.00015
0.996208
0.987703
0.9924
0.998476
0.999626
0.999741
0.99973
0.999618
0.999501
0.999447
0.99946
0.999524
0.999607
0.999685
0.999745
0.999787
0.999798
0.999855
1.00009
1.00002
0.777664
0.0993444
0.000908928
0.00316482
0.000686613
0.145883
0.859371
0.999765
0.999389
0.999456
0.999554
0.999599
0.999647
1.00006
0.934204
0.128912
0.448908
0.645429
0.43391
0.0751953
0.00531872
0.0767429
0.616346
0.996352
1.00001
0.997271
0.970436
0.995889
0.998796
0.999607
0.999784
0.99976
0.999642
0.999521
0.999455
0.999458
0.999511
0.999588
0.999664
0.999726
0.999774
0.999819
0.999872
1.00005
1.00001
0.777507
0.0989581
0.000890531
0.00316273
0.00068678
0.143449
0.853781
0.999815
0.999465
0.999559
0.999642
0.99964
0.999653
1.00003
0.952448
0.147765
0.788988
0.817588
0.491669
0.0162463
0.00267022
0.00463916
0.470145
0.993915
1.00001
0.998908
0.970388
0.996488
0.999096
0.999534
0.999797
0.999776
0.999663
0.999548
0.999482
0.999482
0.999528
0.999596
0.999664
0.999722
0.999771
0.999814
0.999879
1.00017
1.00005
0.778121
0.0984295
0.000840944
0.00221211
0.000688968
0.141314
0.848891
0.999882
0.999546
0.999686
0.99974
0.999697
0.999674
1
0.963327
0.181828
1
1
1
1.00015
0.999295
1
1
1
1.00003
1.00009
1
1
1
1.00003
1.00004
1
1
1
0.999996
1.00001
1
1
1
0.999997
1
0.999544
0.830287
0.310889
0.0112314
0.0025451
0.00470078
0.485746
0.99835
1
0.999345
0.970364
0.992912
0.999782
0.999955
0.999883
0.999794
0.999678
0.99958
0.99953
0.999535
0.999576
0.999635
0.999693
0.999742
0.999783
0.999817
0.999889
1.00002
1
0.781574
0.0950778
0.000698246
0.000695923
0.000690949
0.133834
0.834538
1
1.00003
0.999907
0.999839
0.999769
0.999708
1
0.98674
0.303429
0.999792
0.653694
0.174662
0.00190138
0.00211077
0.00211159
0.187193
0.946711
1
0.9997
0.970376
0.987579
0.999889
0.999903
0.999868
0.999805
0.999726
0.999666
0.999646
0.999665
0.999704
0.999746
0.999782
0.99981
0.999831
0.999859
0.999897
1.00016
1.00001
0.790271
0.0913746
0.000695636
0.000694491
0.000691132
0.127726
0.812307
0.999918
0.999853
0.999846
0.999794
0.999743
0.999696
1
0.989187
0.297211
1
0.62098
0.0518535
0.00135827
0.00133992
0.00135818
0.101538
0.87586
0.999938
0.999722
0.983526
0.989363
0.999833
0.9999
0.99987
0.999827
0.999791
0.999775
0.999782
0.999806
0.999832
0.999854
0.99987
0.999881
0.99989
0.999906
0.999923
1.00001
1
0.802886
0.0875331
0.000697762
0.000696762
0.000691318
0.12687
0.79237
0.999893
0.999887
0.999807
0.999748
0.999701
0.999673
0.999999
0.989468
0.27624
0.993755
0.402489
0.00386909
0.003393
0.00133968
0.00133986
0.0555539
0.80922
0.99956
0.986294
0.976491
0.989674
0.999923
0.99992
0.999893
0.999871
0.999865
0.999875
0.999899
0.999928
0.999953
0.999966
0.999969
0.999965
0.999961
0.999961
0.999969
0.999994
1
0.821025
0.0835878
0.00070465
0.000708186
0.000692939
0.132537
0.774747
0.999949
0.999894
0.999784
0.99976
0.99975
0.999703
0.999999
0.909228
0.106791
0.991409
0.296337
0.00284081
0.00911359
0.00156697
0.00134215
0.0495182
0.816998
0.998195
0.977941
0.976491
0.996233
0.999859
0.999937
0.999972
1
1.00001
1.00001
1.00001
1.00001
1.00001
1.00001
1.00001
1.00001
1.00001
1.00001
1.00001
1.00004
1.00001
0.824756
0.0850067
0.000710326
0.000708853
0.000702979
0.129782
0.77732
1
1.00006
1.00002
1.00003
0.999962
0.999687
1
0.816891
0.022362
)
;

boundaryField
{
    AirInlet
    {
        type            fixedValue;
        value           uniform 0;
    }
    WaterInlet
    {
        type            fixedValue;
        value           uniform 1;
    }
    ChannelWall
    {
        type            zeroGradient;
    }
    Outlet
    {
        type            inletOutlet;
        inletValue      uniform 0;
        value           nonuniform List<scalar> 
15
(
0.289694
0
0.0552402
0.0167946
0
0
0
0
0
0
0.303429
0.297211
0.27624
0.106791
0
)
;
    }
    FrontAndBack
    {
        type            empty;
    }
}


// ************************************************************************* //
