/*--------------------------------*- C++ -*----------------------------------*\
| =========                 |                                                 |
| \\      /  F ield         | OpenFOAM: The Open Source CFD Toolbox           |
|  \\    /   O peration     | Version:  2.3.0                                 |
|   \\  /    A nd           | Web:      www.OpenFOAM.org                      |
|    \\/     M anipulation  |                                                 |
\*---------------------------------------------------------------------------*/
FoamFile
{
    version     2.0;
    format      ascii;
    class       volScalarField;
    location    "0.088";
    object      p;
}
// * * * * * * * * * * * * * * * * * * * * * * * * * * * * * * * * * * * * * //

dimensions      [1 -1 -2 0 0 0 0];

internalField   nonuniform List<scalar> 
725
(
-465.092
-542.381
-521.532
-541.371
-840.211
-471.873
-541.67
-518.58
-528.362
-808.813
-474.555
-540.63
-516.179
-506.868
-764.696
-474.465
-539.919
-515.559
-485.262
-705.147
-470.952
-539.793
-517.111
-463.998
-646.475
-696.981
-1821
-1189.4
-1007.75
-973.052
-692.735
-848.514
-1108.34
-1328.44
-1343.18
-1359.82
-1484.67
-1511.68
-1536.37
-1547.07
-1554.02
-1558.49
-1561.47
-1563.62
-1565.29
-1566.91
-1568.63
-1570.34
-1571.98
-1573.7
-1575.41
-1576.9
-1577.26
-1585.56
-1606.46
-1585.2
-1581.86
-1581.59
-1582.46
-1590.09
-1473.02
-1530.52
-1556.62
-1557.6
-1585.04
-1525.61
-1545.62
-1286.07
-541.889
-439.377
-551.922
-1382.08
-1254.95
-1012.06
-967.09
-844.667
-1124.5
-1226.62
-1390.07
-1383.87
-1376.64
-1493.72
-1513.36
-1537.1
-1548.3
-1555
-1559.24
-1562.11
-1564.24
-1565.97
-1567.62
-1569.32
-1571.01
-1572.55
-1574.17
-1575.81
-1577.39
-1577.7
-1581.81
-1594.02
-1585.89
-1581.73
-1581.48
-1581.91
-1584.29
-1484.5
-1534.14
-1559.82
-1560.22
-1589.67
-1537.62
-1594.08
-1402.63
-803.626
-476.654
-354.704
-1035.06
-1293.52
-1027.68
-951.061
-917.928
-1477.62
-1421.03
-1456.76
-1404.9
-1370.61
-1499.19
-1519.38
-1539.47
-1549.51
-1555.99
-1559.82
-1562.43
-1564.42
-1566.08
-1567.7
-1569.26
-1570.84
-1572.58
-1574.24
-1575.98
-1577.78
-1578.96
-1579.56
-1578.1
-1583.86
-1582.05
-1581.76
-1582.14
-1575.7
-1498.45
-1540.37
-1564.94
-1563.9
-1595.3
-1551.12
-1654.56
-1601.38
-2227.23
-150.561
-152.015
-1090.84
-1306.22
-1043.8
-937.655
-1140.78
-2444.79
-1685.7
-1540.81
-1498.54
-1362.12
-1502.84
-1529.85
-1543.98
-1552.2
-1557.28
-1560.63
-1562.88
-1564.65
-1566.17
-1567.76
-1569.35
-1570.96
-1572.64
-1574.34
-1576.16
-1578.23
-1580.57
-1579.9
-1567.96
-1580.38
-1582.31
-1581.65
-1582.39
-1573.73
-1516.14
-1550.13
-1571.24
-1568.33
-1600.73
-1560.66
-1686.98
-1708.73
-3082.36
71.1487
164.307
-1319.65
-1146
-1041.34
-913.568
-1161.1
-5530.39
-2105.97
-1632.06
-1462.8
-1334.9
-1518.76
-1544.72
-1548.65
-1554.55
-1559.28
-1561.51
-1563.35
-1564.93
-1566.29
-1567.9
-1569.43
-1570.92
-1572.67
-1574.35
-1576.32
-1578.52
-1582.27
-1582.15
-1571.53
-1582.83
-1582.35
-1585.42
-1582.58
-1577.82
-1542.23
-1564.23
-1583.02
-1575.57
-1605.19
-1563.67
-1675.1
-1627.24
-2065.53
-77.8765
67.0302
-1162.27
-1209.48
-1060.48
-914.262
-714.145
1465.43
-2009.93
-1627.53
-1485.02
-1321
-1521.37
-1556.08
-1552.38
-1556.5
-1560.47
-1562.03
-1563.55
-1565.09
-1566.28
-1567.96
-1569.49
-1570.92
-1572.72
-1574.32
-1576.87
-1578.47
-1582.46
-1585.68
-1579.33
-1581.89
-1582.5
-1597.93
-1582.67
-1582.93
-1561.66
-1575.38
-1590.39
-1577.84
-1608.15
-1560.35
-1655.59
-1557.29
-1662.36
-161.511
13.5241
-2494.15
-1663.59
-1020.51
-908.447
-1083.5
769.481
-1790.58
-1595.87
-1487.28
-1318.43
-1296.3
-1553.37
-1543.55
-1557.95
-1560.38
-1562.33
-1563.24
-1565.12
-1566.27
-1567.97
-1569.5
-1570.92
-1572.72
-1574.22
-1575.2
-1578.01
-1583.48
-1586.89
-1582.92
-1581.67
-1582.6
-1597.21
-1582.76
-1584.7
-1568.49
-1579.65
-1592.08
-1576.9
-1607.33
-1558.96
-1648.06
-1532.69
-1554.3
-178.457
-1153.45
4737.76
3103.8
-247.968
-918.268
4446.15
2258.91
-1593.47
-1554.29
-1475.9
-1152.25
-1516.05
-1556.17
-1552.76
-1559.26
-1561.38
-1562.67
-1563.53
-1564.6
-1566.09
-1567.9
-1569.47
-1570.91
-1572.71
-1574.21
-1576.31
-1577.97
-1583.85
-1587.9
-1586.65
-1581.42
-1582.48
-1597.89
-1582.64
-1585.83
-1575.13
-1583.83
-1595.63
-1579.57
-1608.98
-1558.49
-1640.12
-1508.71
-1465.38
-197.442
8756.46
1288.1
-1135.84
-352.317
-939.232
-846.963
1802.58
-1548.57
-1544.71
-1502.23
-1691.64
-1494.93
-1565.62
-1553.51
-1561.32
-1561.73
-1562.87
-1563.85
-1564.97
-1566
-1567.51
-1569.06
-1570.69
-1572.6
-1574.13
-1576.79
-1578.29
-1582.88
-1588.73
-1590.43
-1581.48
-1582.3
-1598.14
-1582.44
-1587.6
-1582.18
-1587.84
-1597.82
-1581.02
-1609.74
-1559
-1632.72
-1486.89
-1355.22
-253.594
-1448.64
1617.96
-1491.14
-894.408
-965.481
-768.16
-925.002
-1613.55
-1555.06
-1503.71
-1674.11
-1485.62
-1570.18
-1552.11
-1561.95
-1562.04
-1563.02
-1564
-1565.12
-1566.76
-1568.1
-1569.33
-1570.69
-1572.48
-1574.04
-1576.66
-1578.32
-1582.42
-1589.24
-1594.33
-1581.86
-1582.19
-1591.6
-1582.31
-1589.27
-1590.38
-1591.76
-1599.76
-1582.57
-1610.25
-1559.06
-1626.01
-1468.64
-1244.31
-371.496
-1020.34
-1057.83
-1071.95
-1022.63
-808.4
-1024.46
-1057.43
-1077.14
-1030.26
-906.165
-1025.34
-1057.93
-1085.15
-1054.58
-1073.54
-1023.22
-1058.99
-1091.48
-1071.35
-1161.57
-1017.19
-1060.08
-1095.97
-1087.59
-1236.46
-1330.76
1342.41
-526.045
-839.006
-947.391
-837.394
-2050.74
-1706.31
-1598.61
-1510.54
-1633.67
-1578
-1579.49
-1565.55
-1563.59
-1563.04
-1563.56
-1564.35
-1565.42
-1566.9
-1568.37
-1569.97
-1571.61
-1573.14
-1574.38
-1576.35
-1578.25
-1582.81
-1589.92
-1603.83
-1583.84
-1581.91
-1581.14
-1581.97
-1593.04
-1614.2
-1602.52
-1603.97
-1587.14
-1611.4
-1559.91
-1610.1
-1433.44
-1003.17
-632.764
-1100.08
-499.147
-1004.86
-851.685
-918.537
-859.729
-1140.09
-1630.86
-1601.28
-1490.02
-1628.24
-1581.09
-1584.95
-1571.42
-1566.68
-1564.85
-1564.54
-1564.99
-1565.84
-1567.12
-1568.55
-1570.12
-1571.71
-1573.21
-1574.37
-1576.08
-1577.14
-1579.25
-1588.72
-1605
-1583.36
-1581.7
-1581.04
-1581.63
-1594.35
-1640.25
-1618.55
-1615.65
-1593.8
-1617.54
-1563.74
-1606.01
-1396.78
-753.475
-619.424
-1226.4
-982.353
-933.491
-858.786
-890.8
-852.575
-1021.65
-1711.28
-1603.7
-1506.56
-1623.44
-1594.49
-1589.35
-1576.54
-1569.05
-1566.19
-1565.38
-1565.49
-1566.14
-1567.3
-1568.68
-1570.21
-1571.75
-1573.19
-1574.25
-1575.68
-1576.04
-1576.87
-1578.37
-1587.66
-1582.89
-1581.5
-1581.04
-1581.43
-1588.77
-1651.98
-1631.11
-1623.53
-1599.54
-1624.1
-1574.39
-1636.51
-1457.21
-1037.79
-685.008
-1458.42
-1352.8
-839.168
-869.008
-881.309
-849.835
-929.266
-1627.1
-1596.05
-1590.25
-1622.02
-1602.72
-1590.24
-1577.73
-1570.51
-1567.15
-1565.92
-1565.79
-1566.32
-1567.41
-1568.78
-1570.29
-1571.79
-1573.18
-1574.16
-1575.33
-1574.88
-1572.47
-1566.4
-1549.74
-1583.47
-1581.37
-1581.11
-1581.13
-1576.95
-1648.53
-1638.96
-1629.02
-1603.69
-1631.01
-1590.28
-1717.08
-1598.44
-2071.36
-308.538
-1691
-1491.37
-835.769
-870.951
-879.105
-850.367
-913.979
-1478.96
-1586.11
-1589.79
-1616.17
-1594.05
-1593.76
-1579.3
-1570.92
-1567.12
-1565.61
-1565.39
-1565.96
-1567.18
-1568.65
-1570.21
-1571.7
-1573.04
-1573.92
-1575.01
-1574.12
-1570.86
-1560.55
-1531.11
-1581.51
-1581.3
-1581.08
-1580.71
-1572.93
-1639.04
-1641.15
-1630.4
-1605.2
-1635.53
-1600.84
-1763.05
-1665.9
-2796.08
42.7102
)
;

boundaryField
{
    AirInlet
    {
        type            calculated;
        value           nonuniform List<scalar> 5(-9131.82 -16810 -2030.83 34929.4 340.322);
    }
    WaterInlet
    {
        type            calculated;
        value           nonuniform List<scalar> 10(-465.09 -471.868 -474.545 -474.451 -470.933 -1020.36 -1024.47 -1025.35 -1023.23 -1017.19);
    }
    ChannelWall
    {
        type            calculated;
        value           nonuniform List<scalar> 
110
(
-470.978
-539.824
-517.145
-464.036
-646.517
-1020.32
-1057.8
-1071.92
-1022.59
-808.358
-1017.22
-1060.11
-1096
-1087.63
-1236.51
-1691.04
-1491.38
-835.769
-870.952
-879.105
-850.367
-913.981
-1479
-1586.16
-1589.83
-1616.21
-1594.1
-1593.81
-1579.35
-1570.96
-1567.16
-1565.65
-1565.43
-1566.01
-1567.22
-1568.69
-1570.25
-1571.74
-1573.08
-1573.97
-1575.06
-1574.17
-1570.91
-1560.6
-1531.15
-1581.51
-1581.3
-1581.08
-1580.71
-1572.94
-1639.08
-1641.2
-1630.45
-1605.25
-1635.57
-1600.89
-1763.1
-1665.95
-2796.12
42.7091
-465.065
-542.351
-521.497
-541.333
-840.168
-696.936
-1820.96
-1189.39
-1007.75
-973.052
-692.718
-848.471
-1108.3
-1328.39
-1343.14
-1359.78
-1484.63
-1511.64
-1536.33
-1547.03
-1553.97
-1558.44
-1561.42
-1563.58
-1565.25
-1566.86
-1568.58
-1570.29
-1571.94
-1573.66
-1575.37
-1576.86
-1577.22
-1585.52
-1606.43
-1585.19
-1581.86
-1581.59
-1582.46
-1590.09
-1472.97
-1530.47
-1556.58
-1557.55
-1584.99
-1525.57
-1545.58
-1286.03
-541.846
-439.364
)
;
    }
    Outlet
    {
        type            calculated;
        value           nonuniform List<scalar> 
15
(
-0.0128199
-0.0115051
-0.0124014
-0.00549362
-0.00160462
-0.0136784
-0.0265106
-0.037223
-0.0441677
-0.0680056
-0.177516
-0.200194
-0.210569
-0.0913774
-0.000936855
)
;
    }
    FrontAndBack
    {
        type            empty;
    }
}


// ************************************************************************* //
