/*--------------------------------*- C++ -*----------------------------------*\
| =========                 |                                                 |
| \\      /  F ield         | OpenFOAM: The Open Source CFD Toolbox           |
|  \\    /   O peration     | Version:  2.3.0                                 |
|   \\  /    A nd           | Web:      www.OpenFOAM.org                      |
|    \\/     M anipulation  |                                                 |
\*---------------------------------------------------------------------------*/
FoamFile
{
    version     2.0;
    format      ascii;
    class       volScalarField;
    location    "0.088";
    object      p_rgh;
}
// * * * * * * * * * * * * * * * * * * * * * * * * * * * * * * * * * * * * * //

dimensions      [1 -1 -2 0 0 0 0];

internalField   nonuniform List<scalar> 
725
(
-465.065
-542.351
-521.497
-541.333
-840.168
-471.794
-541.579
-518.476
-528.248
-808.686
-474.422
-540.477
-516.007
-506.676
-764.486
-474.28
-539.706
-515.319
-484.994
-704.852
-470.713
-539.519
-516.802
-463.653
-646.095
-696.936
-1820.96
-1189.39
-1007.75
-973.052
-692.718
-848.471
-1108.3
-1328.39
-1343.14
-1359.78
-1484.63
-1511.64
-1536.33
-1547.03
-1553.97
-1558.44
-1561.42
-1563.58
-1565.25
-1566.86
-1568.58
-1570.29
-1571.94
-1573.66
-1575.37
-1576.86
-1577.22
-1585.52
-1606.43
-1585.19
-1581.86
-1581.59
-1582.46
-1590.09
-1472.97
-1530.47
-1556.58
-1557.55
-1584.99
-1525.57
-1545.58
-1286.03
-541.846
-439.364
-551.79
-1381.97
-1254.94
-1012.06
-967.09
-844.622
-1124.37
-1226.49
-1389.94
-1383.75
-1376.51
-1493.58
-1513.23
-1536.97
-1548.17
-1554.87
-1559.11
-1561.98
-1564.11
-1565.84
-1567.49
-1569.19
-1570.87
-1572.42
-1574.04
-1575.68
-1577.26
-1577.56
-1581.67
-1593.91
-1585.88
-1581.73
-1581.48
-1581.91
-1584.27
-1484.37
-1534.01
-1559.69
-1560.09
-1589.53
-1537.49
-1593.94
-1402.5
-803.497
-476.624
-354.483
-1034.86
-1293.5
-1027.68
-951.059
-917.873
-1477.43
-1420.81
-1456.54
-1404.69
-1370.39
-1498.97
-1519.16
-1539.25
-1549.29
-1555.77
-1559.6
-1562.21
-1564.2
-1565.86
-1567.48
-1569.04
-1570.62
-1572.36
-1574.02
-1575.76
-1577.56
-1578.74
-1579.34
-1577.92
-1583.84
-1582.05
-1581.76
-1582.14
-1575.66
-1498.25
-1540.15
-1564.72
-1563.68
-1595.08
-1550.89
-1654.34
-1601.16
-2227.04
-150.548
-151.706
-1090.55
-1306.18
-1043.79
-937.654
-1140.73
-2444.53
-1685.39
-1540.5
-1498.24
-1361.82
-1502.54
-1529.54
-1543.67
-1551.89
-1556.97
-1560.32
-1562.58
-1564.35
-1565.86
-1567.45
-1569.04
-1570.65
-1572.33
-1574.03
-1575.85
-1577.92
-1580.26
-1579.59
-1567.72
-1580.35
-1582.31
-1581.65
-1582.39
-1573.68
-1515.86
-1549.82
-1570.93
-1568.02
-1600.43
-1560.35
-1686.67
-1708.43
-3082.11
71.1542
164.704
-1319.3
-1145.98
-1041.34
-913.566
-1161.09
-5530.13
-2105.58
-1631.66
-1462.4
-1334.52
-1518.37
-1544.33
-1548.25
-1554.15
-1558.88
-1561.11
-1562.95
-1564.54
-1565.89
-1567.5
-1569.03
-1570.52
-1572.28
-1573.95
-1575.92
-1578.12
-1581.88
-1581.76
-1571.22
-1582.79
-1582.35
-1585.42
-1582.58
-1577.76
-1541.87
-1563.83
-1582.62
-1575.17
-1604.79
-1563.27
-1674.7
-1626.84
-2065.19
-77.8591
67.4532
-1161.85
-1209.4
-1060.48
-914.26
-714.142
1465.61
-2009.48
-1627.07
-1484.57
-1320.56
-1520.93
-1555.63
-1551.93
-1556.05
-1560.02
-1561.57
-1563.1
-1564.64
-1565.83
-1567.51
-1569.03
-1570.47
-1572.27
-1573.87
-1576.42
-1578.02
-1582.01
-1585.23
-1578.98
-1581.85
-1582.5
-1597.93
-1582.67
-1582.86
-1561.27
-1574.92
-1589.94
-1577.39
-1607.7
-1559.9
-1655.14
-1556.84
-1661.95
-161.47
13.9595
-2493.78
-1663.39
-1020.5
-908.445
-1083.47
769.673
-1790.11
-1595.39
-1486.81
-1317.97
-1295.84
-1552.9
-1543.08
-1557.48
-1559.91
-1561.86
-1562.77
-1564.64
-1565.8
-1567.5
-1569.03
-1570.45
-1572.25
-1573.75
-1574.72
-1577.54
-1583.01
-1586.42
-1582.55
-1581.62
-1582.6
-1597.21
-1582.76
-1584.63
-1568.08
-1579.18
-1591.61
-1576.43
-1606.86
-1558.49
-1647.59
-1532.22
-1553.87
-178.405
-1153.07
4738.03
3104.08
-247.93
-918.265
4446.26
2259.22
-1592.98
-1553.8
-1475.41
-1151.76
-1515.56
-1555.68
-1552.26
-1558.77
-1560.89
-1562.18
-1563.04
-1564.11
-1565.6
-1567.4
-1568.98
-1570.42
-1572.22
-1573.72
-1575.82
-1577.48
-1583.35
-1587.41
-1586.27
-1581.37
-1582.48
-1597.89
-1582.64
-1585.75
-1574.71
-1583.34
-1595.14
-1579.08
-1608.49
-1558
-1639.63
-1508.22
-1464.92
-197.378
8756.69
1288.43
-1135.62
-352.278
-939.229
-846.923
1802.9
-1548.06
-1544.2
-1501.72
-1691.14
-1494.42
-1565.11
-1553
-1560.81
-1561.22
-1562.36
-1563.34
-1564.46
-1565.49
-1567
-1568.55
-1570.18
-1572.09
-1573.62
-1576.28
-1577.78
-1582.37
-1588.22
-1590.03
-1581.43
-1582.3
-1598.14
-1582.44
-1587.52
-1581.74
-1587.33
-1597.31
-1580.51
-1609.23
-1558.49
-1632.21
-1486.38
-1354.73
-253.518
-1448.22
1618.39
-1490.88
-894.398
-965.479
-768.157
-924.752
-1613.02
-1554.53
-1503.18
-1673.6
-1485.09
-1569.65
-1551.58
-1561.42
-1561.51
-1562.49
-1563.47
-1564.59
-1566.23
-1567.57
-1568.8
-1570.16
-1571.95
-1573.51
-1576.13
-1577.79
-1581.89
-1588.71
-1593.92
-1581.81
-1582.19
-1591.59
-1582.31
-1589.19
-1589.93
-1591.23
-1599.23
-1582.04
-1609.72
-1558.53
-1625.48
-1468.11
-1243.8
-371.399
-1019.6
-1057.12
-1071.28
-1021.99
-807.799
-1023.66
-1056.66
-1076.4
-1029.55
-905.479
-1024.49
-1057.11
-1084.34
-1053.79
-1072.77
-1022.32
-1058.1
-1090.6
-1070.49
-1160.71
-1016.24
-1059.13
-1095.02
-1086.65
-1235.52
-1330.18
1342.9
-525.863
-838.999
-947.389
-837.39
-2050.46
-1705.72
-1598.03
-1509.96
-1633.1
-1577.42
-1578.91
-1564.97
-1563.01
-1562.46
-1562.98
-1563.77
-1564.83
-1566.32
-1567.79
-1569.39
-1571.03
-1572.55
-1573.8
-1575.77
-1577.67
-1582.23
-1589.34
-1603.38
-1583.78
-1581.91
-1581.14
-1581.96
-1592.97
-1613.72
-1601.93
-1603.39
-1586.55
-1610.82
-1559.33
-1609.51
-1432.85
-1002.6
-632.587
-1099.41
-498.707
-1004.74
-851.683
-918.535
-859.727
-1139.96
-1630.22
-1600.61
-1489.34
-1627.59
-1580.43
-1584.27
-1570.75
-1566.01
-1564.18
-1563.86
-1564.32
-1565.16
-1566.45
-1567.88
-1569.45
-1571.04
-1572.54
-1573.69
-1575.41
-1576.47
-1578.58
-1588.05
-1604.47
-1583.3
-1581.7
-1581.03
-1581.63
-1594.26
-1639.71
-1617.88
-1614.98
-1593.13
-1616.86
-1563.07
-1605.34
-1396.11
-752.811
-619.224
-1225.64
-981.881
-933.451
-858.784
-890.798
-852.573
-1021.58
-1710.61
-1602.94
-1505.8
-1622.69
-1593.74
-1588.59
-1575.78
-1568.29
-1565.43
-1564.62
-1564.73
-1565.38
-1566.54
-1567.92
-1569.45
-1570.99
-1572.43
-1573.49
-1574.92
-1575.28
-1576.11
-1577.61
-1587.05
-1582.82
-1581.49
-1581.04
-1581.43
-1588.67
-1651.38
-1630.35
-1622.77
-1598.78
-1623.34
-1573.63
-1635.75
-1456.45
-1037.03
-684.797
-1457.58
-1352.46
-839.164
-869.004
-881.307
-849.833
-929.218
-1626.41
-1595.2
-1589.41
-1621.19
-1601.88
-1589.39
-1576.88
-1569.66
-1566.3
-1565.07
-1564.94
-1565.47
-1566.56
-1567.93
-1569.44
-1570.95
-1572.34
-1573.31
-1574.48
-1574.03
-1571.62
-1565.56
-1549.04
-1583.4
-1581.36
-1581.11
-1581.13
-1576.84
-1647.87
-1638.11
-1628.17
-1602.84
-1630.16
-1589.43
-1716.24
-1597.59
-2070.59
-308.446
-1690.07
-1491.09
-835.766
-870.942
-879.103
-850.365
-913.932
-1478.19
-1585.18
-1588.87
-1615.26
-1593.12
-1592.83
-1578.37
-1569.98
-1566.18
-1564.67
-1564.45
-1565.03
-1566.24
-1567.71
-1569.27
-1570.76
-1572.1
-1572.99
-1574.08
-1573.19
-1569.93
-1559.61
-1530.34
-1581.43
-1581.3
-1581.08
-1580.71
-1572.81
-1638.31
-1640.22
-1629.47
-1604.27
-1634.59
-1599.91
-1762.12
-1664.97
-2795.32
42.732
)
;

boundaryField
{
    AirInlet
    {
        type            fixedFluxPressure;
        gradient        nonuniform List<scalar> 5(-9.19927e+08 -1.6824e+09 -8.77767e+07 2.61727e+09 1.78855e+08);
        value           nonuniform List<scalar> 5(-9131.82 -16810 -2030.83 34929.4 340.323);
    }
    WaterInlet
    {
        type            fixedFluxPressure;
        gradient        nonuniform List<scalar> 10(0.00155083 -20.603 -6.20246 -0.354336 -0.0480572 -0.0253297 -0.691372 -1.65576 -0.082735 0.0578059);
        value           nonuniform List<scalar> 10(-465.065 -471.794 -474.422 -474.28 -470.713 -1019.6 -1023.66 -1024.49 -1022.32 -1016.24);
    }
    ChannelWall
    {
        type            fixedFluxPressure;
        gradient        uniform 0;
        value           nonuniform List<scalar> 
110
(
-470.713
-539.519
-516.802
-463.653
-646.095
-1019.6
-1057.12
-1071.28
-1021.99
-807.799
-1016.24
-1059.13
-1095.02
-1086.65
-1235.52
-1690.07
-1491.09
-835.766
-870.942
-879.103
-850.365
-913.932
-1478.19
-1585.18
-1588.87
-1615.26
-1593.12
-1592.83
-1578.37
-1569.98
-1566.18
-1564.67
-1564.45
-1565.03
-1566.24
-1567.71
-1569.27
-1570.76
-1572.1
-1572.99
-1574.08
-1573.19
-1569.93
-1559.61
-1530.34
-1581.43
-1581.3
-1581.08
-1580.71
-1572.81
-1638.31
-1640.22
-1629.47
-1604.27
-1634.59
-1599.91
-1762.12
-1664.97
-2795.32
42.732
-465.065
-542.351
-521.497
-541.333
-840.168
-696.936
-1820.96
-1189.39
-1007.75
-973.052
-692.718
-848.471
-1108.3
-1328.39
-1343.14
-1359.78
-1484.63
-1511.64
-1536.33
-1547.03
-1553.97
-1558.44
-1561.42
-1563.58
-1565.25
-1566.86
-1568.58
-1570.29
-1571.94
-1573.66
-1575.37
-1576.86
-1577.22
-1585.52
-1606.43
-1585.19
-1581.86
-1581.59
-1582.46
-1590.09
-1472.97
-1530.47
-1556.58
-1557.55
-1584.99
-1525.57
-1545.58
-1286.03
-541.846
-439.364
)
;
    }
    Outlet
    {
        type            totalPressure;
        rho             rho;
        psi             none;
        gamma           1;
        p0              uniform 0;
        value           nonuniform List<scalar> 
15
(
0
-0.0113726
0
0
-0.00120732
-0.0132271
-0.0260397
-0.0367325
-0.0436575
-0.0674758
0
0
0
0
0
)
;
    }
    FrontAndBack
    {
        type            empty;
    }
}


// ************************************************************************* //
