/*--------------------------------*- C++ -*----------------------------------*\
| =========                 |                                                 |
| \\      /  F ield         | OpenFOAM: The Open Source CFD Toolbox           |
|  \\    /   O peration     | Version:  2.3.0                                 |
|   \\  /    A nd           | Web:      www.OpenFOAM.org                      |
|    \\/     M anipulation  |                                                 |
\*---------------------------------------------------------------------------*/
FoamFile
{
    version     2.0;
    format      ascii;
    class       volVectorField;
    location    "0.088";
    object      U;
}
// * * * * * * * * * * * * * * * * * * * * * * * * * * * * * * * * * * * * * //

dimensions      [0 1 -1 0 0 0 0];

internalField   nonuniform List<vector> 
725
(
(0.060813 0.0068917 -2.12007e-31)
(0.0335159 0.00167355 4.233e-32)
(0.0669224 -0.000614431 8.19824e-32)
(0.0306942 -0.00158768 0)
(0.0334504 -0.00521608 -7.40264e-31)
(0.111839 0.015753 -8.85741e-31)
(0.0762649 0.00567663 2.51941e-31)
(0.132922 0.00512452 4.17231e-31)
(0.0477778 0.00050927 0)
(0.0785629 -0.00792459 -5.32634e-30)
(0.12516 0.0118663 -9.52043e-32)
(0.091011 0.00822454 1.68524e-31)
(0.15029 0.0114684 1.71665e-31)
(0.0532783 0.000647216 0)
(0.102425 -0.00286885 -4.53367e-30)
(0.110886 0.00551584 1.41039e-30)
(0.0747082 0.00785141 3.2454e-31)
(0.126377 0.0148271 -7.41299e-31)
(0.040808 -0.00692663 0)
(0.0797028 -0.0109939 -8.36675e-30)
(0.0586239 0.00407498 1.45992e-30)
(0.0309898 0.0040011 2.49344e-31)
(0.0525514 0.00935162 -3.61719e-31)
(0.017281 -0.00841912 2.79929e-30)
(-0.0538114 -0.0226704 -4.49022e-30)
(0.143957 -0.0242362 0)
(0.0406879 -0.000134692 0)
(0.0596632 0.287012 0)
(-0.849348 -0.100539 0)
(0.471037 -0.370353 0)
(-0.329543 0.0443846 0)
(-0.414585 0.0359843 0)
(-0.357248 -0.022836 0)
(-0.208238 -0.0141216 0)
(-0.0854524 -0.0301233 0)
(0.072253 -0.014334 0)
(0.132936 0.010579 0)
(0.0533486 0.00616673 0)
(0.0340427 0.0027357 0)
(0.0214958 0.000989985 0)
(0.0202266 0.000369614 0)
(0.0193092 0.000272496 0)
(0.0180561 0.000182404 0)
(0.0170525 0.000105435 0)
(0.0165721 2.03269e-05 0)
(0.0165846 -1.69985e-05 0)
(0.0166395 9.41067e-06 0)
(0.0164248 5.54801e-05 0)
(0.0160833 5.79074e-05 0)
(0.0156538 0.000117118 0)
(0.0149013 0.000237688 0)
(0.0147808 0.000243709 0)
(0.018014 -0.000824247 0)
(0.0254651 -0.000296901 0)
(0.0205142 0.00962826 0)
(-0.073576 -0.00160947 0)
(0.0521975 0.00215305 0)
(0.0610589 -0.0123983 0)
(0.0942935 0.0160652 0)
(0.113568 0.0147918 0)
(0.0341285 0.00829767 0)
(0.0420517 0.0025286 0)
(0.023953 0.00207485 0)
(0.0338615 0.000479881 0)
(0.00585929 0.00114945 0)
(0.0467669 -0.00143188 0)
(-0.0104137 0.000615696 0)
(0.0775323 -0.00399692 0)
(0.0828295 -0.0338029 0)
(0.0909742 0.0201706 0)
(0.145263 -0.027245 0)
(-0.00192124 0.0398896 0)
(-0.051275 0.344095 0)
(0.434155 -0.111109 0)
(0.374011 -0.151754 0)
(-0.665749 0.339802 0)
(-0.684063 0.071153 0)
(-0.48515 -0.140819 0)
(-0.178459 -0.0902987 0)
(-0.142896 -0.102303 0)
(-0.027898 -0.100219 0)
(0.18926 0.0103734 0)
(0.0976692 0.0324123 0)
(0.0633482 0.0146837 0)
(0.046269 0.00436003 0)
(0.0464721 0.000592112 0)
(0.0470811 0.000709539 0)
(0.0458331 0.000810176 0)
(0.0442498 0.000586617 0)
(0.043343 0.000151682 0)
(0.0432995 -7.3671e-05 0)
(0.0433995 5.46385e-05 0)
(0.0431775 0.000264072 0)
(0.0428462 0.000219912 0)
(0.0425449 0.000291335 0)
(0.0424992 1.46327e-06 0)
(0.0446624 -0.00133192 0)
(0.0520274 -0.00519634 0)
(0.0402772 0.00180549 0)
(0.0299356 0.0356629 0)
(-0.0492694 -0.0280064 0)
(0.206214 -0.0253221 0)
(0.0937513 -0.0166701 0)
(-0.00891856 -0.0143799 0)
(0.140436 0.00453644 0)
(0.0461651 0.029017 0)
(0.0563943 0.00626592 0)
(0.0404958 0.00317651 0)
(0.0626429 0.00187958 0)
(0.019806 0.000581495 0)
(0.0900538 -0.00309906 0)
(-0.00737773 -0.0106209 0)
(0.170267 -0.0325017 0)
(0.0748995 -0.0261928 0)
(-0.133635 0.022566 0)
(0.175294 -0.0532524 0)
(0.0850002 0.142707 0)
(-0.192831 -0.0748964 0)
(0.0409118 -0.16787 0)
(0.869606 -0.0974402 0)
(-0.764276 0.810553 0)
(-0.56179 0.114377 0)
(-0.320615 -0.313416 0)
(0.0674716 -0.15455 0)
(-0.0390598 -0.0847094 0)
(-0.0758097 -0.184577 0)
(0.171582 -0.0239669 0)
(0.110271 0.052205 0)
(0.0787548 0.028481 0)
(0.0639836 0.00721143 0)
(0.0655097 -0.000105433 0)
(0.0674083 0.000579103 0)
(0.0667149 0.00135647 0)
(0.0650309 0.00122102 0)
(0.0638599 0.000383748 0)
(0.0636361 -9.67443e-05 0)
(0.0637336 3.49351e-05 0)
(0.0639005 0.00033377 0)
(0.0639149 0.000276311 0)
(0.0637943 0.000158803 0)
(0.0642362 -0.000954252 0)
(0.0670919 -0.00342926 0)
(0.0726483 -0.00225399 0)
(0.0390367 0.013718 0)
(0.0325146 0.0505589 0)
(0.0303169 -0.0965603 0)
(0.0590791 -0.0228921 0)
(0.0894339 0.00376668 0)
(0.0684498 0.0108827 0)
(0.148445 -0.0296018 0)
(0.0591089 0.0533234 0)
(0.0623092 0.00963842 0)
(0.0525775 0.00200436 0)
(0.0800861 0.00168716 0)
(0.0341397 0.000255596 0)
(0.109587 -0.00444286 0)
(-0.00488962 -0.0178086 0)
(0.169851 -0.052077 0)
(-0.0916947 0.0224244 0)
(0.152552 0.166719 0)
(0.141105 -0.0980248 0)
(0.151047 0.216768 0)
(-0.131284 0.261034 0)
(0.315371 -0.0744938 0)
(3.48965 -0.448906 0)
(-0.860383 0.819065 0)
(-0.205616 -0.103121 0)
(-0.0216152 -0.469938 0)
(0.211385 -0.193984 0)
(0.0637093 -0.0248256 0)
(0.00707818 -0.222183 0)
(0.128504 -0.056801 0)
(0.10639 0.0635844 0)
(0.0864632 0.0386624 0)
(0.0774651 0.00898572 0)
(0.0792049 -0.00116145 0)
(0.0814018 0.000214737 0)
(0.0811421 0.00173657 0)
(0.0794551 0.00191369 0)
(0.0780865 0.000698897 0)
(0.0776332 -2.34614e-05 0)
(0.0776199 -2.68894e-05 0)
(0.0781726 0.000142364 0)
(0.0785842 0.000256164 0)
(0.0786039 8.46376e-06 0)
(0.0788403 -0.00174435 0)
(0.08196 -0.00437799 0)
(0.083029 0.0057412 0)
(0.0582463 0.0216958 0)
(0.0636219 0.0429443 0)
(0.0945876 -0.0596699 0)
(-0.118797 -0.021187 0)
(0.0879154 -0.0520325 0)
(0.184424 -0.00285655 0)
(0.116848 -0.0237392 0)
(0.0588784 0.0740197 0)
(0.0611476 0.0109851 0)
(0.060136 -0.00065787 0)
(0.08984 0.00104084 0)
(0.044021 0.000634477 0)
(0.117394 -0.00247366 0)
(-0.00497302 -0.0091185 0)
(0.131737 -0.0264011 0)
(-0.204164 -0.0587444 0)
(0.479637 0.139268 0)
(0.00599391 -0.14648 0)
(-0.0743386 0.417154 0)
(-1.23119 -0.726776 0)
(1.17792 -0.0781075 0)
(0.608439 -0.583791 0)
(-0.609558 1.94943 0)
(0.768656 -0.349197 0)
(0.235654 -0.578505 0)
(0.30127 -0.16904 0)
(0.18344 0.0126752 0)
(0.112979 -0.197658 0)
(0.0876236 -0.063883 0)
(0.0969941 0.0689695 0)
(0.0899337 0.0426354 0)
(0.0880676 0.00962696 0)
(0.0885546 -0.002095 0)
(0.0898723 -0.000235127 0)
(0.0897774 0.00216275 0)
(0.0878253 0.00269994 0)
(0.0861881 0.00103389 0)
(0.0855381 0.000145229 0)
(0.0854804 -0.000146682 0)
(0.0863531 -0.000242402 0)
(0.0869134 0.000235615 0)
(0.0871278 7.94331e-05 0)
(0.0868776 -0.00232901 0)
(0.0911744 -0.00491803 0)
(0.0886254 0.0102971 0)
(0.093518 0.0206714 0)
(0.0938558 0.0332186 0)
(0.101333 -0.0224663 0)
(0.0432856 -0.0192812 0)
(0.104817 -0.122199 0)
(0.185025 -0.00905214 0)
(0.0785069 0.0250563 0)
(0.0407636 0.086928 0)
(0.0496749 0.00743168 0)
(0.0624626 -0.00507241 0)
(0.0938207 -0.00166257 0)
(0.0503962 0.00284257 0)
(0.123497 -0.00161104 0)
(0.000380201 0.00431648 0)
(0.135681 0.00746697 0)
(-0.181937 -0.0732018 0)
(-0.127103 0.0713747 0)
(-0.271751 -0.12877 0)
(-0.0310267 0.644753 0)
(-1.47529 -0.765136 0)
(-2.03798 -0.0541509 0)
(0.390275 -0.512687 0)
(-5.1112 2.18802 0)
(0.245249 -0.379475 0)
(-0.245601 -0.510529 0)
(0.224498 -0.14298 0)
(0.135847 0.0297417 0)
(0.11312 -0.189922 0)
(0.0778447 -0.0570449 0)
(0.0681011 0.0692603 0)
(0.0896035 0.0407835 0)
(0.0927619 0.00961132 0)
(0.0912903 -0.00196277 0)
(0.0913098 -0.000273504 0)
(0.0912587 0.00248554 0)
(0.089373 0.0032392 0)
(0.0874994 0.00136487 0)
(0.0865792 0.000298139 0)
(0.08643 -0.000256606 0)
(0.0874101 -0.000487396 0)
(0.0880138 0.000101856 0)
(0.0888718 7.27263e-05 0)
(0.0883122 -0.00279534 0)
(0.0929756 -0.00532772 0)
(0.0897773 0.00789457 0)
(0.123972 0.016009 0)
(0.126453 0.0365828 0)
(0.0817527 -0.0103337 0)
(0.100544 -0.052932 0)
(0.0929041 -0.0799715 0)
(0.0601139 -0.0415471 0)
(0.0859234 0.0514051 0)
(0.0230427 0.0946341 0)
(0.0376915 0.00200232 0)
(0.0615354 -0.0108922 0)
(0.0934745 -0.00256241 0)
(0.0514835 0.00180941 0)
(0.125276 0.000310434 0)
(0.00239482 0.00676014 0)
(0.142167 0.0182123 0)
(-0.128101 -0.0285611 0)
(-0.219855 0.0709011 0)
(-0.298912 -0.104432 0)
(0.11214 0.709723 0)
(-1.06167 -0.507357 0)
(-2.96027 -0.305334 0)
(2.42298 -0.732955 0)
(0.0915722 2.36463 0)
(0.534653 -0.654509 0)
(-0.289034 -0.49951 0)
(0.197693 -0.158932 0)
(0.134065 0.0347812 0)
(0.119924 -0.1879 0)
(0.0572326 -0.0527504 0)
(0.0531646 0.0674258 0)
(0.0895188 0.0393276 0)
(0.0939907 0.00954696 0)
(0.0916967 -0.00186746 0)
(0.0913167 -0.00026319 0)
(0.0913903 0.00258107 0)
(0.089644 0.00343441 0)
(0.087672 0.00150316 0)
(0.0866305 0.000357995 0)
(0.0864568 -0.000297222 0)
(0.0874638 -0.000572028 0)
(0.088076 3.09882e-05 0)
(0.0891081 5.20234e-05 0)
(0.0883744 -0.00297124 0)
(0.0929369 -0.00545308 0)
(0.0895346 0.0062953 0)
(0.133135 0.0135073 0)
(0.136297 0.0385031 0)
(0.0760588 -0.0021679 0)
(0.175468 -0.0771142 0)
(0.0807884 -0.0419035 0)
(-0.0636444 -0.0647645 0)
(0.083824 0.0589848 0)
(0.0148848 0.0973475 0)
(0.0334273 -0.000448529 0)
(0.0613873 -0.0134017 0)
(0.0931529 -0.00257885 0)
(0.0516883 0.000975913 0)
(0.125763 0.00163549 0)
(0.00306293 0.00750317 0)
(0.141439 0.0225321 0)
(-0.119324 -0.00609431 0)
(-0.270109 0.070957 0)
(-0.0628688 -0.101235 0)
(0.425908 0.748476 0)
(-0.952998 -0.214997 0)
(-2.73303 -0.732802 0)
(4.66282 -1.29864 0)
(2.11746 2.48407 0)
(1.63371 -0.565272 0)
(0.0968402 -0.45768 0)
(0.167101 -0.173796 0)
(0.132254 0.03823 0)
(0.145692 -0.187434 0)
(0.0704305 -0.0472661 0)
(0.0586276 0.0652099 0)
(0.0873575 0.0375864 0)
(0.0942077 0.00942199 0)
(0.0914329 -0.0017161 0)
(0.090577 -0.000241756 0)
(0.0909047 0.00264404 0)
(0.0895258 0.00362516 0)
(0.0875458 0.00165357 0)
(0.0863542 0.00042453 0)
(0.0861665 -0.000339178 0)
(0.0871862 -0.00065715 0)
(0.0878031 -5.31031e-05 0)
(0.0890112 3.46022e-05 0)
(0.0879927 -0.00312659 0)
(0.091759 -0.00550456 0)
(0.0883506 0.00421654 0)
(0.138003 0.0106264 0)
(0.138982 0.0406081 0)
(0.0785441 0.00830756 0)
(0.0928908 -0.104258 0)
(0.0883944 0.000498639 0)
(0.0278325 -0.0906315 0)
(0.0712467 0.0680996 0)
(0.0081479 0.0995228 0)
(0.0305376 -0.00330662 0)
(0.0609719 -0.0161623 0)
(0.0938682 -0.00253242 0)
(0.0526125 -1.17978e-05 0)
(0.126338 0.00306406 0)
(0.0038461 0.00825626 0)
(0.135451 0.0279037 0)
(-0.136821 0.0207938 0)
(-0.323847 0.0714224 0)
(0.163439 -0.145588 0)
(0.534767 0.733347 0)
(0.851585 -0.137083 0)
(2.7976 -0.876845 0)
(4.83652 -1.41616 0)
(4.17279 2.73757 0)
(1.87054 -0.290825 0)
(0.356411 -0.372978 0)
(0.130062 -0.175286 0)
(0.181183 0.0377717 0)
(0.165428 -0.182992 0)
(0.0320922 -0.0415472 0)
(0.0676318 0.0635045 0)
(0.0851247 0.0358789 0)
(0.0939987 0.00924083 0)
(0.0907559 -0.00151395 0)
(0.089539 -0.000205858 0)
(0.0898904 0.00267832 0)
(0.0889591 0.00378712 0)
(0.087174 0.00181665 0)
(0.0857982 0.000501271 0)
(0.0855839 -0.000383253 0)
(0.0865927 -0.000743882 0)
(0.0872003 -0.000147066 0)
(0.0885958 2.02881e-05 0)
(0.0873948 -0.0032517 0)
(0.0911727 -0.00550117 0)
(0.0874429 0.00191991 0)
(0.138422 0.00772151 0)
(0.134951 0.042588 0)
(0.088072 0.0191912 0)
(0.0076937 -0.120628 0)
(0.0971909 0.0176696 0)
(0.120361 -0.105209 0)
(0.0562544 0.0788114 0)
(0.00697929 0.100862 0)
(0.0319112 -0.00627734 0)
(0.061036 -0.0190379 0)
(0.0945172 -0.00253302 0)
(0.0534487 -0.000983227 0)
(0.126976 0.00447569 0)
(0.00534882 0.00917029 0)
(0.131016 0.0348826 0)
(-0.151612 0.0546593 0)
(-0.365749 0.0685998 0)
(0.0465048 -0.144051 0)
(0.364466 0.673339 0)
(1.79018 -0.350194 0)
(2.94897 -0.90784 0)
(3.97134 -1.38979 0)
(1.99453 2.88808 0)
(0.729441 -0.178395 0)
(0.0663859 -0.283815 0)
(0.0924319 -0.178317 0)
(0.221103 0.0317435 0)
(0.168511 -0.169608 0)
(-0.0133555 -0.0378452 0)
(0.071015 0.0606807 0)
(0.0836501 0.034212 0)
(0.0933626 0.0090451 0)
(0.0898835 -0.00129545 0)
(0.0883327 -0.00015735 0)
(0.0886625 0.00269377 0)
(0.0881692 0.00389691 0)
(0.0868656 0.00196762 0)
(0.0856433 0.000581085 0)
(0.0852979 -0.000413953 0)
(0.0859669 -0.000815821 0)
(0.0863802 -0.000241076 0)
(0.0879717 -6.01095e-06 0)
(0.0867742 -0.00335977 0)
(0.090707 -0.00551303 0)
(0.086295 -0.000232243 0)
(0.133938 0.00517667 0)
(0.123882 0.0438687 0)
(0.100396 0.0293891 0)
(-0.00102601 -0.128072 0)
(0.0990611 0.0189897 0)
(0.133486 -0.110681 0)
(0.0409951 0.0888719 0)
(0.0102647 0.101138 0)
(0.03619 -0.0091108 0)
(0.061539 -0.0217904 0)
(0.0949989 -0.00266614 0)
(0.0539476 -0.00182574 0)
(0.127423 0.00564734 0)
(0.00748522 0.0100509 0)
(0.135906 0.0415145 0)
(-0.127536 0.0892045 0)
(-0.414486 0.0619428 0)
(0.0485526 -0.00177852 0)
(0.046333 -0.00701788 -1.27534e-31)
(0.0178275 -0.00173986 -4.40485e-31)
(0.0315377 -0.00574778 1.80932e-31)
(0.0230876 0.0102381 0)
(0.0950947 -0.00323827 0)
(0.101069 -0.010309 0)
(0.0679451 -0.00636482 0)
(0.0975301 -0.0103677 -1.22398e-30)
(0.0157937 0.0354014 0)
(0.108086 -0.00994625 0)
(0.120721 -0.00980175 0)
(0.0915166 -0.00555447 0)
(0.12934 -0.00678578 -2.03787e-30)
(0.0369339 0.0139428 0)
(0.0952669 -0.0144064 0)
(0.10569 -0.00632786 0)
(0.0781306 -0.000739618 0)
(0.118188 0.00167813 8.67896e-31)
(0.0119429 -0.00720143 0)
(0.0495885 -0.0070473 0)
(0.0536803 -0.00112127 0)
(0.0340656 0.00141689 0)
(0.0816584 0.00722546 4.67258e-31)
(0.0486037 0.00683825 0)
(-0.172887 -0.0461094 0)
(-0.394535 0.517824 0)
(-0.378379 -0.316298 0)
(-2.1926 -0.995201 0)
(1.03351 -1.21559 0)
(-1.19125 3.76748 0)
(-0.034972 -0.314472 0)
(-0.0726047 -0.238994 0)
(0.0336229 -0.217917 0)
(0.205321 0.00224766 0)
(0.105848 -0.117865 0)
(-0.10566 -0.0290343 0)
(0.0524267 0.0450896 0)
(0.0794131 0.0291101 0)
(0.0898936 0.0085595 0)
(0.0868699 -0.000683144 0)
(0.084587 6.54087e-06 0)
(0.0847237 0.0026959 0)
(0.085212 0.00404004 0)
(0.085198 0.00228039 0)
(0.0847216 0.000761563 0)
(0.0845081 -0.000440673 0)
(0.0845668 -0.000921872 0)
(0.0843426 -0.000439892 0)
(0.0857766 -0.000133569 0)
(0.0839064 -0.00355088 0)
(0.0879599 -0.00568589 0)
(0.0815464 -0.00480481 0)
(0.114869 0.000214107 0)
(0.084359 0.0439372 0)
(0.122627 0.0472785 0)
(0.0176416 -0.132973 0)
(0.0925103 0.00571904 0)
(0.132736 -0.107709 0)
(-0.00623082 0.109451 0)
(0.0208184 0.0967638 0)
(0.049288 -0.0164074 0)
(0.0640826 -0.0283353 0)
(0.0959402 -0.0039377 0)
(0.0544899 -0.0031435 0)
(0.128231 0.00723822 0)
(0.014476 0.0108895 0)
(0.167026 0.0428205 0)
(0.0897193 0.11655 0)
(0.211172 0.102703 0)
(0.00572035 0.0572971 0)
(-0.262457 0.725159 0)
(-0.128409 0.0317602 0)
(-1.0032 -2.10581 0)
(-0.824996 -1.43666 0)
(0.0739896 3.42473 0)
(-0.0164468 -0.523867 0)
(0.103633 -0.303383 0)
(0.0582902 -0.240392 0)
(0.0616317 -0.0173909 0)
(0.0130334 -0.04788 0)
(-0.0714422 -0.0351021 0)
(0.0188823 0.000391605 0)
(0.0633515 0.0157871 0)
(0.0764306 0.00702727 0)
(0.0752027 0.000424147 0)
(0.0730327 0.00062473 0)
(0.0732611 0.00254724 0)
(0.0749365 0.00345877 0)
(0.0764479 0.00210729 0)
(0.076964 0.000722762 0)
(0.076914 -0.000337388 0)
(0.0765455 -0.000714942 0)
(0.075878 -0.00037648 0)
(0.0770007 -0.000279654 0)
(0.0739762 -0.00296724 0)
(0.0753534 -0.00517001 0)
(0.0653172 -0.00740976 0)
(0.0757202 0.000906317 0)
(0.052312 0.0332748 0)
(0.125465 0.0635697 0)
(0.0182631 -0.103452 0)
(0.0673282 -0.0479821 0)
(0.0614289 -0.0650261 0)
(-0.0312779 0.127781 0)
(0.0405299 0.0777318 0)
(0.0710876 -0.0276307 0)
(0.0708839 -0.0327412 0)
(0.0943047 -0.00720632 0)
(0.0497879 -0.00215624 0)
(0.124033 0.00446333 0)
(0.0136637 0.0117548 0)
(0.154973 0.0299139 0)
(0.0742584 0.0311935 0)
(0.19354 0.104308 0)
(0.271308 0.127414 0)
(0.164122 0.469581 0)
(1.21767 0.451573 0)
(1.19371 -1.25212 0)
(-1.22543 -0.668407 0)
(-0.586961 2.26264 0)
(-0.181655 -0.352878 0)
(0.266013 -0.376592 0)
(0.112659 -0.194014 0)
(0.0651677 -0.00647049 0)
(0.0726652 -0.0237179 0)
(0.0157785 -0.0335383 0)
(0.0104922 -0.0179549 0)
(0.0454471 0.00287821 0)
(0.0567395 0.00383378 0)
(0.0572683 0.000901653 0)
(0.0561435 0.000998622 0)
(0.0571372 0.00199553 0)
(0.0596713 0.00240553 0)
(0.0619767 0.0014721 0)
(0.0629958 0.00050281 0)
(0.0630191 -0.000217287 0)
(0.0625055 -0.000449434 0)
(0.0617418 -0.000235518 0)
(0.0626983 -0.000111678 0)
(0.0594062 -0.00176643 0)
(0.0598781 -0.00260208 0)
(0.0481818 -0.0027602 0)
(0.0379324 0.00412708 0)
(0.0396893 0.0123406 0)
(0.0974405 0.0667018 0)
(0.09252 -0.0763327 0)
(0.0377934 -0.0694331 0)
(0.0751495 -0.0341584 0)
(-0.069897 0.133806 0)
(0.0750487 0.0478714 0)
(0.0977447 -0.0354553 0)
(0.0737999 -0.0295953 0)
(0.0875157 -0.0062408 0)
(0.0404187 -0.00153855 0)
(0.114358 0.00232894 0)
(0.00878256 0.00794021 0)
(0.185298 0.00941598 0)
(0.108678 0.0144312 0)
(0.0957729 0.044656 0)
(0.130686 0.0353774 0)
(0.102007 0.0898494 0)
(1.37265 -0.0653418 0)
(0.417631 -0.922948 0)
(-1.06888 -0.0137673 0)
(0.0718642 1.62015 0)
(0.75214 -0.319985 0)
(0.491804 -0.407018 0)
(0.140892 -0.11986 0)
(0.0901441 -0.00406507 0)
(0.11147 -0.0185653 0)
(0.0803439 -0.0113906 0)
(0.0291739 -0.0126886 0)
(0.0288256 -0.00147247 0)
(0.0339278 0.00181132 0)
(0.0350748 0.000927304 0)
(0.0353431 0.000834817 0)
(0.0369869 0.00109275 0)
(0.0396048 0.00117166 0)
(0.0418471 0.00068842 0)
(0.0428693 0.000230481 0)
(0.0429231 -9.90119e-05 0)
(0.0424819 -0.000193093 0)
(0.0418496 -0.000101993 0)
(0.0427067 6.97036e-06 0)
(0.0399318 -0.000752526 0)
(0.0404738 -0.000759604 0)
(0.0325016 0.00223907 0)
(0.0292789 0.00663907 0)
(0.0456254 0.00247675 0)
(0.0518775 0.0176044 0)
(0.130821 -0.0530883 0)
(-0.0135893 -0.062333 0)
(0.00239897 -0.00207351 0)
(-0.038968 0.154937 0)
(0.127801 0.00362734 0)
(0.106055 -0.0352663 0)
(0.0564429 -0.0179996 0)
(0.0649147 -0.00263855 0)
(0.0210995 -0.000240156 0)
(0.0882369 -8.94645e-05 0)
(-0.0115015 -0.00325505 0)
(0.174969 -0.0216461 0)
(-0.0230774 -0.0337466 0)
(0.246475 0.186025 0)
(0.105222 0.0458611 0)
(0.137952 -0.0814008 0)
(0.368737 0.0200269 0)
(-0.00660622 -0.241279 0)
(-1.8939 0.096109 0)
(0.938275 0.434218 0)
(1.31668 -0.210789 0)
(0.396318 -0.168239 0)
(0.0628849 -0.0123006 0)
(0.0676175 0.00269262 0)
(0.0465065 -0.0105151 0)
(0.022026 0.00265895 0)
(0.0117343 -0.000173719 0)
(0.00531539 0.000852947 0)
(0.0085449 0.000707469 0)
(0.010668 0.000367777 0)
(0.0118177 0.000250278 0)
(0.0131751 0.000207558 0)
(0.0147278 0.000192873 0)
(0.015946 9.65313e-05 0)
(0.01648 3.29053e-05 0)
(0.0165085 -1.58977e-05 0)
(0.0162858 -2.6103e-05 0)
(0.0159342 -4.47948e-05 0)
(0.0164035 3.54441e-05 0)
(0.0149117 -0.000234779 0)
(0.0150933 -0.000179069 0)
(0.0112119 0.000465028 0)
(0.0210083 0.00150874 0)
(0.0384964 0.0034748 0)
(0.0444968 0.0102251 0)
(0.042588 -0.000290813 0)
(-0.0479208 -0.0117632 0)
(-0.219166 -0.0197028 0)
(0.0577584 0.0559663 0)
(0.131509 -0.0136293 0)
(0.0656197 -0.0109395 0)
(0.0162382 -0.00286505 0)
(0.0247103 0.000685073 0)
(-0.000437977 -5.31626e-05 0)
(0.0407 0.000735308 0)
(-0.0205805 -0.00313929 0)
(0.0601823 -0.0118199 0)
(-0.176731 -0.0553421 0)
(0.147216 0.0855317 0)
)
;

boundaryField
{
    AirInlet
    {
        type            fixedValue;
        value           uniform (0.1 0 0);
    }
    WaterInlet
    {
        type            fixedValue;
        value           uniform (0.1 0 0);
    }
    ChannelWall
    {
        type            fixedValue;
        value           uniform (0 0 0);
    }
    Outlet
    {
        type            pressureInletOutletVelocity;
        value           nonuniform List<vector> 
15
(
(0.0909742 0.0201706 0)
(-0.150895 0 0)
(0.152552 0.166719 0)
(0.479637 0.139268 0)
(-0.049954 0 0)
(-0.164562 0 0)
(-0.230736 0 0)
(-0.273387 0 0)
(-0.296427 0 0)
(-0.368368 0 0)
(0.211172 0.102703 0)
(0.19354 0.104308 0)
(0.0957729 0.044656 0)
(0.246475 0.186025 0)
(0.147216 0.0855317 0)
)
;
    }
    FrontAndBack
    {
        type            empty;
    }
}


// ************************************************************************* //
