/*--------------------------------*- C++ -*----------------------------------*\
| =========                 |                                                 |
| \\      /  F ield         | OpenFOAM: The Open Source CFD Toolbox           |
|  \\    /   O peration     | Version:  2.3.0                                 |
|   \\  /    A nd           | Web:      www.OpenFOAM.org                      |
|    \\/     M anipulation  |                                                 |
\*---------------------------------------------------------------------------*/
FoamFile
{
    version     2.0;
    format      ascii;
    class       volScalarField;
    location    "2.85";
    object      alpha.water;
}
// * * * * * * * * * * * * * * * * * * * * * * * * * * * * * * * * * * * * * //

dimensions      [0 0 0 0 0 0 0];

internalField   nonuniform List<scalar> 
2268
(
0.983533
0.995123
0.995668
0.995832
0.994127
0.992572
0.992225
0.993627
0.999554
0.99991
0.999429
0.992852
0.98424
0.982425
0.982576
0.984554
0.991497
0.999587
0.999825
0.999826
0.999826
0.999826
0.999805
0.896053
0.979225
0.998633
0.999985
0.999985
0.999985
0.9997
0.999528
0.999849
0.99991
0.99991
0.99524
0.966794
0.951893
0.951702
0.951743
0.97617
0.999476
0.999822
0.999825
0.999826
0.999826
0.999826
0.892425
0.953889
0.999984
0.999985
0.999985
0.999983
0.999955
0.999951
0.999951
0.999802
0.9995
0.999537
0.9995
0.999407
0.972932
0.951702
0.953411
0.986859
0.999786
0.999822
0.999789
0.999777
0.999826
0.892425
0.892425
0.967196
0.989556
0.992353
0.99582
0.999155
0.999946
0.999899
0.999695
0.999677
0.999549
0.997799
0.998474
0.998284
0.980871
0.95382
0.958391
0.994155
0.999785
0.99972
0.999687
0.999701
0.943067
0.893031
0.893322
0.895438
0.923521
0.938579
0.953657
0.979403
0.998791
0.999685
0.998336
0.989143
0.979987
0.983799
0.997782
0.995018
0.958561
0.957775
0.968686
0.997923
0.999747
0.999723
0.999685
0.995681
0.956111
0.939066
0.935039
0.925918
0.926466
0.927656
0.946216
0.994353
0.996449
0.982148
0.979987
0.979987
0.979987
0.987633
0.999816
0.978867
0.957775
0.95857
0.984974
0.999789
0.999829
0.999722
0.997574
0.997568
0.997557
0.997553
0.98892
0.987685
0.994614
0.996642
0.991268
0.980027
0.980027
0.980007
0.979987
0.985876
0.997312
0.99996
0.999949
0.977267
0.96426
0.984256
0.999829
0.999871
0.999877
0.997575
0.997574
0.997568
0.997557
0.997523
0.997439
0.997264
0.996974
0.993179
0.980631
0.980027
0.984521
0.99744
0.999948
0.999959
0.999959
0.99996
0.999842
0.998005
0.996158
0.99877
0.999871
0.999877
0.936109
0.938385
0.997324
0.999197
0.999191
0.998181
0.998162
0.998162
0.998162
0.998472
0.998619
0.998387
0.998051
0.994665
0.945306
0.930465
0.948851
0.930646
0.897899
0.936109
0.937586
0.999197
0.999201
0.999194
0.999196
0.999193
0.999189
0.999178
0.999155
0.999128
0.999025
0.999017
0.998817
0.95314
0.877775
0.877795
0.877815
0.877819
0.936114
0.937155
0.999194
0.999197
0.999194
0.999196
0.999193
0.998857
0.99741
0.998115
0.998197
0.998518
0.998993
0.998967
0.990042
0.920811
0.877809
0.877819
0.877837
0.942218
0.972268
0.960311
0.999194
0.999195
0.999196
0.999146
0.996051
0.996041
0.99632
0.962833
0.957942
0.993863
0.998945
0.998853
0.998006
0.910642
0.877837
0.920266
0.982381
0.987403
0.946268
0.999159
0.999193
0.999197
0.998511
0.996041
0.998466
0.996483
0.942862
0.942866
0.982457
0.991232
0.998518
0.998366
0.995299
0.883981
0.981411
0.987695
0.991559
0.946438
0.994432
0.999161
0.998933
0.996779
0.997582
0.99864
0.998641
0.984542
0.942858
0.959274
0.993607
0.998366
0.998363
0.998359
0.923777
0.981579
0.988499
0.996723
0.988717
0.995039
0.999
0.998014
0.996184
0.998615
0.99864
0.998579
0.990543
0.942933
0.963539
0.998355
0.998361
0.998359
0.965021
0.981202
0.981579
0.996769
0.998837
0.999013
0.9991
0.999102
0.998808
0.996471
0.998701
0.998422
0.998015
0.975925
0.946769
0.990828
0.998326
0.998356
0.979278
0.944326
0.981325
0.981579
0.997575
0.997575
0.997551
0.997523
0.997439
0.997264
0.996974
0.996642
0.992709
0.992038
0.997306
0.999287
0.999646
0.999841
0.999948
0.99996
0.99996
0.99996
0.999958
0.999955
0.999424
0.999418
0.999464
0.687052
0.653108
0.678116
0.692992
0.687961
0.704335
0.750744
0.823525
0.901785
0.94076
0.978247
0.997776
0.999287
0.999652
0.999868
0.999942
0.99996
0.999958
0.999956
0.999956
0.999955
0.999913
0.999907
0.0914804
0.0789251
0.0570351
0.0231723
0.0111516
0.0150872
0.0320301
0.0753098
0.160613
0.284697
0.418576
0.548734
0.684852
0.801804
0.887527
0.936051
0.964254
0.974031
0.981474
0.992035
0.999944
0.999919
0.999898
0.000100007
0.000112839
0.000124393
0.000135873
0.000155487
0.000161607
0.000161074
0.000160961
0.000161135
0.000161135
0.000161228
0.000162276
0.000163347
0.0385209
0.235575
0.429228
0.527203
0.595653
0.599753
0.546554
0.453901
0.360711
0.2749
0.0001494
0.000180924
0.000456449
0.000411786
0.000244287
0.000162681
0.000161746
0.000161136
0.000161136
0.000161259
0.000180259
0.000222064
0.000244491
0.000173966
0.000182506
0.00193262
0.0127213
0.0424416
0.057543
0.0449848
0.0191243
0.00365388
0.000306196
0.000184566
0.000660377
0.000661075
0.000627943
0.000303124
0.000175575
0.000187747
0.000175876
0.000183443
0.000465815
0.00129235
0.00120854
0.000703115
6.31935e-05
3.34779e-05
3.64796e-05
4.05734e-05
3.18478e-05
3.16634e-05
3.59477e-05
5.0862e-05
6.25987e-05
1.3919e-05
0.000175649
0.000660386
0.000337344
0.000173097
0.000233964
0.000654671
0.00122205
0.00122056
0.00150001
0.00149935
0.00147957
0.00102898
0.000229743
2.49722e-05
2.24935e-05
2.05735e-05
1.81769e-05
1.08123e-05
8.79978e-06
1.12169e-05
1.88207e-05
1.34433e-05
5.79261e-06
0.000175649
0.000353634
0.00012596
0.000160836
0.000957074
0.00156392
0.00154518
0.00152882
0.00153194
0.00153396
0.000735827
3.65338e-05
2.53421e-05
2.31444e-05
2.06121e-05
1.6331e-05
1.10266e-05
5.6923e-06
4.17012e-06
6.16655e-06
9.10343e-06
5.93429e-06
4.45308e-06
0.000361879
9.65896e-05
0.000109728
0.000497342
0.00128323
0.0015346
0.00152591
0.00152891
0.00152891
0.00074101
0.00025827
0.000188123
4.76564e-05
2.17238e-05
2.17949e-05
4.23747e-05
2.1863e-05
4.32589e-06
3.89793e-06
3.98769e-06
4.71881e-06
4.43624e-06
4.21996e-06
0.000388333
8.53592e-05
0.000360982
0.000534518
5.28673e-05
0.00102168
0.00151587
0.00152964
0.000709559
0.000357546
0.000609783
0.000610451
6.65035e-05
2.22653e-05
8.01883e-05
8.09405e-05
2.48885e-05
4.04616e-06
4.01408e-06
4.05697e-06
4.25741e-06
5.01475e-06
5.4284e-06
0.000295422
2.77195e-05
0.00042459
0.000222773
4.90235e-05
0.000153231
0.00149568
0.00123841
0.000178515
0.000349327
0.000610901
0.000426724
3.78844e-05
4.81948e-05
9.6629e-05
6.54742e-05
8.58332e-06
4.03112e-06
4.0658e-06
4.07731e-06
4.11458e-06
1.31936e-05
1.60464e-05
9.49016e-06
9.49016e-06
0.00041851
4.69696e-05
4.79965e-05
0.000330003
0.0014718
0.00039052
0.000115538
0.000601043
0.000607896
0.000452703
3.57399e-05
3.45651e-05
8.41239e-05
4.83963e-06
3.62534e-06
3.90012e-06
4.0376e-06
4.03894e-06
4.31743e-06
1.60464e-05
1.61786e-05
9.49016e-06
1.75894e-05
6.66194e-05
4.69696e-05
4.69696e-05
0.000647074
0.00145655
0.000375977
4.07032e-05
0.000389774
0.000601043
0.000593412
9.05227e-05
3.6815e-06
4.21113e-06
3.56154e-06
3.55696e-06
4.24846e-06
4.21535e-06
4.09058e-06
4.13857e-06
1.23272e-05
1.61621e-05
9.50026e-06
0.000646391
5.40127e-05
4.69696e-05
4.7339e-05
0.000628424
0.00143461
0.000544304
3.89692e-05
4.68777e-05
0.000400323
0.000332208
3.68461e-06
3.61735e-06
3.52317e-06
3.49909e-06
3.55725e-06
4.45495e-06
4.55488e-06
4.88537e-06
5.35848e-06
4.7375e-06
6.62812e-06
1.13974e-05
0.000881946
0.000228169
4.73384e-05
5.35881e-05
0.000193419
0.00144221
0.000753731
3.50306e-05
2.68635e-05
1.7124e-05
1.15191e-05
9.67863e-06
3.79579e-06
3.49203e-06
3.45716e-06
3.45716e-06
3.97822e-06
4.39975e-06
4.00369e-06
4.48843e-06
3.25064e-06
2.99461e-06
4.69126e-05
0.000882305
0.000722086
8.85581e-05
5.94734e-05
6.40735e-05
0.00034847
0.000830287
0.000643016
0.000255702
0.000331984
0.000181375
6.49367e-05
2.75254e-05
3.45716e-06
3.43836e-06
3.37406e-06
3.45163e-06
3.48976e-06
3.60397e-06
3.68643e-06
3.80122e-06
3.65666e-06
0.000228275
0.000881916
0.000881055
0.000617753
0.000129142
6.93817e-05
2.80852e-05
0.000535997
0.000756617
0.0007661
0.000767891
0.000770784
0.000773371
0.000773206
0.000578472
0.000110542
3.35492e-06
3.39468e-06
3.58919e-06
3.66609e-06
3.67281e-06
3.69206e-06
3.50962e-06
0.000876043
0.000881055
0.000874652
0.000825236
0.00061291
0.000229633
2.34028e-05
2.16252e-05
2.35179e-05
0.00030416
0.000485476
0.000488975
0.000458257
0.00055471
0.000601063
0.00060016
0.000305591
3.66767e-06
3.64666e-06
6.56374e-06
1.99058e-05
6.04708e-05
0.000130615
0.000905575
0.0008233
0.000171905
0.000293762
0.000603154
0.000574388
6.42596e-05
1.98972e-05
1.9856e-05
1.98822e-05
1.98639e-05
1.98813e-05
1.99939e-05
2.06392e-05
0.000104629
0.000219223
0.00010481
7.24988e-05
0.00027435
0.000346274
0.000346274
0.000346475
0.000346136
0.000905575
0.000273312
1.10169e-06
8.03545e-07
0.000344685
0.000572355
0.000375826
2.96543e-05
1.98972e-05
1.9856e-05
1.98822e-05
1.99954e-05
2.06391e-05
0.000107297
0.00049823
0.000360378
0.000120522
0.000143419
0.000336073
0.000342101
0.000341615
0.000151185
0.000109749
0.000905455
0.000564079
1.7345e-06
6.8894e-07
8.03545e-07
0.000511169
0.000538221
0.000325575
4.2165e-05
2.00435e-05
2.04876e-05
2.13827e-05
8.30328e-05
0.000805319
0.000877537
0.000878977
0.000707058
0.000222664
0.000198146
0.000231719
0.00016127
9.5486e-05
0.000100326
0.000904303
0.000820202
1.57292e-05
6.44653e-07
6.8894e-07
4.9513e-05
0.000469624
0.000461559
0.000242998
5.51033e-05
0.00019334
0.000319476
0.000873984
0.000876468
0.000876715
0.000877537
0.000876715
0.00049256
0.000182684
0.000208093
0.000197789
8.6052e-05
0.000243983
0.00080338
0.000131121
6.85632e-08
5.67408e-07
6.89772e-07
1.7565e-06
4.54115e-05
0.000161526
0.000216501
0.000314141
0.000715265
0.000787437
0.000820517
0.000880571
0.000876468
0.000878399
0.000813192
0.000185547
0.000182167
0.000218571
6.05616e-05
7.79331e-05
0.000757532
4.37025e-05
4.67493e-08
4.729e-08
6.24928e-07
1.66123e-05
2.80284e-05
2.31349e-05
2.40392e-05
0.00011875
0.000264366
9.27409e-05
7.14847e-05
7.03083e-05
0.000286737
0.000622198
0.00053883
0.000146874
0.000146048
0.00018267
8.76668e-05
4.15928e-05
0.000425011
0.0012837
2.73336e-05
4.66599e-08
4.67502e-08
5.53002e-08
2.73545e-05
7.85516e-05
6.80159e-05
4.92035e-05
1.51812e-08
1.51812e-08
1.9408e-08
6.63881e-08
1.7628e-07
2.66897e-07
4.00106e-07
1.56502e-05
8.20903e-05
0.000172795
0.000152204
5.02085e-06
1.31195e-05
0.000498759
0.000896158
0.000415348
4.67315e-08
4.66483e-08
4.83922e-08
1.32023e-05
7.93698e-05
7.93698e-05
7.90998e-05
1.51812e-08
1.02213e-08
1.57879e-07
4.80793e-07
4.71228e-07
4.00137e-07
4.00805e-06
8.35081e-05
0.000170978
0.00016941
4.78428e-06
1.99523e-06
3.69744e-05
6.47281e-05
2.51917e-05
0.000443247
4.78562e-08
4.68344e-08
4.67673e-08
2.25507e-07
3.45477e-05
7.93698e-05
4.9396e-05
7.70321e-09
2.09995e-10
3.91839e-07
7.53637e-07
7.82728e-07
5.72966e-07
5.17454e-05
0.000167689
0.000169661
0.000102275
1.63204e-06
1.60602e-06
2.69418e-06
1.59922e-06
1.18595e-06
0.000442951
4.74312e-08
4.67924e-08
4.50204e-08
3.19201e-08
1.57261e-08
4.73464e-05
3.02704e-05
2.42479e-10
2.06039e-10
2.00578e-10
5.75897e-10
4.40902e-09
7.2911e-08
3.9104e-05
0.000167362
0.000165953
3.36226e-05
1.60612e-06
1.60612e-06
1.54597e-06
1.18765e-06
8.95688e-07
0.000284681
5.06269e-08
6.39746e-08
3.74001e-08
1.63038e-08
1.19466e-08
3.80073e-10
4.87349e-10
6.91685e-07
2.09833e-10
1.73383e-10
2.40871e-10
1.40275e-09
2.31792e-08
1.05485e-05
0.000140995
0.00016119
1.63757e-06
1.63206e-06
1.60619e-06
6.53116e-06
1.47304e-05
1.86762e-06
1.46906e-09
4.2282e-07
9.19023e-08
6.42164e-08
8.78784e-08
3.81119e-10
3.80073e-10
3.80073e-10
6.45742e-10
1.96562e-10
1.54283e-10
1.7189e-10
3.75322e-10
6.70508e-09
5.9339e-07
9.29115e-05
0.000175079
3.24729e-06
1.63962e-06
4.29382e-06
1.51318e-05
1.51504e-05
8.40301e-06
1.46391e-09
7.26401e-08
4.9631e-08
2.60068e-07
1.01214e-06
2.59286e-07
3.20331e-10
2.3425e-09
4.35146e-09
4.20658e-10
1.35485e-10
1.5366e-10
2.03444e-10
3.54801e-09
7.76554e-08
7.09078e-05
0.000178765
3.09143e-05
1.67354e-06
1.82374e-06
1.30174e-05
1.41757e-05
3.36176e-07
1.48268e-09
1.46409e-09
2.95972e-09
3.95949e-07
1.19663e-06
1.11555e-06
1.79927e-10
8.49793e-09
1.03328e-08
9.48626e-10
6.36413e-11
2.77035e-10
3.22072e-10
1.4904e-09
3.72405e-08
4.56385e-05
0.000178765
0.000131787
1.72897e-06
1.62793e-06
1.05975e-06
4.95008e-07
1.55172e-07
1.23408e-09
5.55693e-09
6.30839e-10
3.35578e-07
1.19707e-06
1.19134e-06
5.75752e-11
9.94951e-09
1.0336e-08
1.27942e-09
1.76395e-11
1.67057e-10
2.01928e-10
6.60371e-10
1.16833e-08
1.27524e-05
0.000181625
0.000190782
1.72897e-06
5.30489e-06
8.87596e-06
1.16325e-05
1.93874e-07
1.34857e-10
3.06688e-09
2.11274e-11
9.13074e-08
1.1557e-06
1.15404e-06
9.19851e-12
4.45552e-09
1.01804e-08
4.55029e-10
1.36744e-11
4.60011e-11
7.02838e-11
4.84704e-09
1.94938e-07
6.28198e-07
8.97595e-05
0.000195612
3.72453e-06
8.74838e-05
0.000500853
0.000173284
2.55578e-07
2.26066e-14
2.95491e-14
8.60827e-13
1.50678e-09
1.03253e-07
3.37014e-07
2.55554e-12
6.65741e-10
3.01264e-09
6.02099e-11
1.19314e-11
1.455e-11
4.51651e-11
1.59453e-08
7.21514e-07
7.26685e-07
7.7293e-06
0.000193291
1.3277e-05
0.000295633
0.000535099
0.000521428
0.000164413
1.78881e-15
5.4582e-13
9.68771e-13
2.91619e-17
-1.19342e-15
9.69716e-19
2.48178e-12
1.84989e-11
4.7627e-13
1.39383e-11
9.48427e-12
1.25765e-11
4.18945e-11
9.55745e-10
1.23703e-06
9.92417e-06
7.87786e-06
0.000125959
1.62015e-05
0.000306542
0.000536128
0.000531395
0.000517156
2.0979e-15
1.84919e-13
6.96503e-13
5.05732e-14
-9.69306e-15
-4.12212e-14
1.76967e-13
1.94497e-13
4.71972e-13
3.82079e-12
7.64202e-12
8.47541e-12
1.31335e-11
1.99532e-10
6.35257e-09
1.47418e-05
3.06771e-05
1.76133e-05
1.77243e-05
0.000143062
0.000541259
0.000536128
0.000531395
1.29401e-15
7.89785e-14
4.21577e-13
8.83464e-14
-9.64999e-15
-5.61835e-14
3.21067e-15
3.17913e-14
2.531e-13
1.43302e-12
4.68692e-12
6.51008e-12
6.48676e-12
7.96019e-12
-1.03159e-10
4.45002e-06
0.000245843
0.000222336
1.77247e-05
2.21149e-05
0.000320573
0.000532784
0.000526205
4.49751e-16
2.66644e-14
1.80223e-13
8.23205e-14
-1.4426e-15
5.34782e-17
9.79367e-16
1.23372e-14
1.10859e-13
6.89446e-13
2.71916e-12
4.81452e-12
6.10601e-12
6.26255e-12
8.0478e-12
5.43018e-11
0.000246869
0.00040248
4.60822e-05
3.48672e-05
4.87694e-05
0.000385005
0.000356991
7.89299e-17
5.85007e-15
5.91474e-14
4.55278e-14
-5.44459e-16
6.33401e-18
1.22208e-16
1.69453e-15
1.79865e-14
1.48088e-13
8.81394e-13
2.68924e-12
3.95069e-12
5.30982e-12
8.3402e-11
3.63086e-10
0.000129549
0.000403389
0.000397527
5.10727e-05
3.07825e-05
4.06164e-05
2.48739e-05
5.65072e-18
6.99947e-16
1.11312e-14
1.37604e-14
3.43897e-21
1.10164e-19
2.60931e-18
4.74847e-17
7.52258e-16
1.14932e-14
1.60731e-13
1.49526e-12
2.70826e-12
1.51025e-12
-1.11469e-11
-5.07051e-11
2.91957e-05
0.00040305
0.000403389
0.000157099
2.60198e-05
1.09702e-05
7.74564e-06
1.23028e-20
9.04286e-18
2.97506e-16
1.14106e-16
8.68127e-25
5.00899e-23
2.02545e-21
5.11057e-20
9.14831e-19
1.80544e-17
7.52904e-16
3.36229e-14
7.52863e-13
3.16015e-13
-2.87693e-12
-1.23605e-12
-5.90877e-11
5.0959e-05
0.000361504
0.000212291
1.12563e-05
7.97498e-06
6.33898e-06
0.99985
0.999896
0.999895
0.999893
0.999899
0.999897
0.999896
0.999895
0.995767
0.988838
0.973387
0.880357
0.197048
0.137305
0.0300586
0.000128397
2.07255e-05
4.89014e-05
8.36099e-05
1.23913e-05
1.24938e-05
3.41642e-05
1.01584e-05
4.46819e-06
4.45533e-06
4.91434e-06
4.21829e-06
4.02265e-06
4.21284e-06
3.94372e-06
3.70574e-06
3.888e-06
4.14733e-06
4.09887e-06
3.96426e-06
4.07962e-06
1.5393e-05
1.3829e-05
5.10837e-06
4.04273e-06
1.61786e-05
1.61771e-05
1.59613e-05
1.56105e-05
1.62801e-05
1.62005e-05
1.58806e-05
4.37961e-06
1.63315e-05
1.09613e-05
3.09524e-06
2.98514e-06
6.28237e-06
3.05258e-06
2.9324e-06
2.9449e-06
2.99507e-06
2.98478e-06
2.9533e-06
2.99092e-06
2.46705e-06
3.01149e-06
2.98478e-06
2.95461e-06
2.81648e-06
2.66339e-06
2.9616e-06
2.99861e-06
0.00018079
0.000130811
1.74193e-05
3.70662e-06
0.000345534
0.000346084
0.000361541
0.000180087
0.000114703
0.000120913
0.000374943
0.000251827
0.000107656
0.000113801
0.000458609
0.00115419
0.000392909
0.000827236
0.00129842
0.00130576
0.00129647
0.00129676
0.00130522
0.00132907
0.00129385
0.00131007
0.00132061
0.00134585
0.000348688
0.000479935
0.000679538
0.000348881
2.80021e-06
3.63013e-06
4.33398e-06
3.72627e-06
6.1274e-07
8.17711e-07
1.41749e-06
2.04057e-06
3.25296e-07
6.1118e-07
1.30628e-06
1.94891e-06
2.17481e-07
5.02383e-07
2.08157e-06
2.16161e-06
1.65276e-07
2.58301e-07
1.9929e-06
2.0936e-06
1.54658e-07
1.65276e-07
3.8651e-07
9.84198e-07
1.55172e-07
1.81935e-07
1.88838e-07
1.80124e-07
7.72649e-07
1.47299e-06
1.47299e-06
1.29615e-07
2.95205e-07
1.0365e-06
3.85034e-07
1.91451e-07
4.21457e-07
3.47343e-07
2.87058e-07
2.39471e-07
0.000183565
3.54212e-07
3.47209e-07
2.94085e-07
0.000519232
0.000164512
3.53658e-07
3.65547e-07
0.000526423
0.000124583
7.97866e-06
2.41651e-06
0.000156813
3.07526e-05
3.36206e-05
2.12121e-05
8.62266e-06
6.4883e-06
6.09038e-06
2.04608e-05
6.21045e-06
5.83039e-06
5.66311e-06
1.41566e-05
5.83039e-06
5.68571e-06
5.69752e-06
6.25861e-06
0.999892
0.955368
0.998979
0.999099
0.999105
0.999105
0.999105
0.998962
0.945338
0.880371
0.888024
0.945209
0.962644
0.967698
0.967885
0.951803
0.942613
0.924219
0.91646
0.991544
0.847874
0.70653
0.837291
0.98873
0.999105
0.999093
0.999077
0.888
0.687864
0.525578
0.443645
0.407614
0.382425
0.363582
0.327454
0.288207
0.228108
0.216198
0.387244
0.0145832
0.0458297
0.289521
0.685986
0.79731
0.734454
0.508294
0.294828
0.190811
0.124765
0.0561311
0.00638114
7.55164e-05
5.5364e-05
4.75746e-05
4.9618e-05
4.70966e-05
4.70966e-05
6.39169e-05
0.000411895
0.000943848
0.00385972
0.0804517
0.109069
0.0554116
0.0105061
0.000112108
0.000105007
9.83109e-05
9.25126e-05
8.51875e-05
8.0305e-05
5.01897e-05
4.57795e-05
0.000193581
0.000773019
0.000121824
1.10022e-05
3.86974e-05
9.00799e-05
0.000208164
0.000231724
0.000175367
0.000133181
0.000112348
0.000107053
0.000104841
0.00010279
9.83115e-05
0.000206631
9.22346e-05
4.57514e-05
4.57754e-05
0.000653069
0.00111717
0.000463656
4.79183e-06
5.7562e-06
8.50352e-06
1.86407e-05
0.000127656
0.000186675
0.000164601
0.000149656
0.000167368
0.000197276
0.000121714
0.000104603
0.000236587
0.000191306
4.57817e-05
4.57675e-05
0.000591679
0.00113252
0.000476915
3.91503e-06
4.15883e-06
4.24207e-06
1.35803e-05
6.34956e-05
0.000439583
0.000466841
0.000468215
0.000335884
0.000333613
0.000351925
0.000351925
0.000348395
0.000314514
4.61532e-05
4.57813e-05
0.000469674
0.00116474
0.000765848
4.09471e-06
3.97579e-06
4.17162e-06
4.65113e-06
0.000976496
0.00144427
0.00120258
0.000120645
3.47898e-05
3.30738e-05
4.46691e-05
0.000194744
0.000347494
0.000102813
4.59336e-05
4.61321e-05
0.000756159
0.00118307
0.00118028
4.05112e-06
4.08625e-06
4.0985e-06
4.21117e-06
0.00143998
0.00146042
0.000576144
3.55698e-05
3.30524e-05
3.28796e-05
3.29343e-05
3.33093e-05
0.000145354
0.000113726
0.000492788
0.000649224
0.00118306
0.00118612
0.00118306
4.05114e-06
3.90036e-06
3.92877e-06
2.19593e-05
0.00147581
0.00146539
0.000530798
7.28563e-05
3.2875e-05
3.28197e-05
3.28796e-05
3.28749e-05
3.55671e-05
0.000501673
0.000927204
0.000829331
0.000328999
0.000887108
0.00118132
5.57801e-06
3.46544e-06
3.63498e-06
0.000386054
0.00155837
0.00149418
0.000466753
0.000160324
3.27817e-05
3.28235e-05
3.28112e-05
3.40501e-05
0.000199773
0.000779452
0.000371947
0.00025193
0.000230037
0.000276264
0.000436924
3.08836e-06
3.27829e-06
3.42166e-06
0.000701538
0.00162644
0.00140337
0.000245194
9.69583e-05
3.3184e-05
3.28006e-05
3.36212e-05
6.38597e-05
0.000896479
0.000816931
0.000238157
0.000225283
0.000210988
0.000236912
0.000252102
3.04382e-06
3.05717e-06
3.80071e-06
0.00118624
0.00167747
0.00117925
0.000167637
7.7998e-05
3.30937e-05
3.35814e-05
0.000157924
0.000883388
0.000902618
0.000896479
0.000885235
0.00040464
0.000193122
0.000248362
0.000343433
3.01378e-06
2.76941e-06
0.000183677
0.0016682
0.00169689
0.00105704
0.000159712
8.94915e-05
3.40396e-05
3.57297e-05
0.000354275
0.000904727
0.000900327
0.000828707
0.000252003
0.000185756
0.000168864
0.000238311
0.000343433
2.83132e-06
2.31832e-06
0.00140029
0.00169498
0.00169809
0.000958481
0.000191403
5.10981e-05
3.58145e-05
3.6507e-05
0.000147396
0.000708869
0.00065589
0.000259076
0.000286243
0.000252901
0.000172468
0.000173137
0.00018912
2.95437e-06
0.000894571
0.00168812
0.0017004
0.00169682
0.000731249
0.000329818
3.96257e-05
3.65202e-05
0.000132388
0.000225862
0.000164831
0.000130956
0.000128633
0.000274358
0.000325333
0.00032497
0.000187718
0.000165655
3.63333e-06
0.00126683
0.00167384
0.00168812
0.00134304
0.000568697
0.000294728
4.15849e-05
5.34461e-05
0.000269344
0.000273154
0.000273054
0.00013704
0.000128633
0.000149954
0.000323553
0.000263609
0.000168552
0.000165655
0.000221586
0.000254543
0.000618255
0.000725707
0.000617746
0.000581926
8.78077e-05
4.43163e-05
0.000257675
0.000269143
0.000269046
0.000274032
0.000276337
0.000215473
2.57866e-05
8.51449e-05
0.000185709
0.000171412
0.000695392
0.000100038
0.000100038
0.000100038
0.000101953
0.000350144
0.000324268
5.6956e-05
5.17055e-05
0.000257723
0.000162093
3.6967e-05
2.81731e-05
0.000110646
0.000121347
1.71884e-05
1.48875e-05
0.000442037
0.000176321
0.000839885
0.000103211
0.000393151
0.000530701
0.000264996
0.000135751
8.7811e-05
0.000117595
0.000181021
0.000195753
0.000138982
3.202e-05
1.3975e-05
1.22521e-05
1.25835e-05
1.37906e-05
1.47875e-05
0.000696073
0.000710197
0.000722034
0.00121721
0.00123853
0.00120616
0.00107505
1.10019e-05
1.72669e-05
0.000124932
6.6284e-05
8.18835e-05
0.000136092
0.000129401
1.8001e-05
1.21197e-05
1.22521e-05
1.25836e-05
0.00034869
0.000689917
0.000485099
2.7385e-05
0.00129204
0.00127158
0.00125183
0.000817086
4.03363e-06
7.81326e-06
7.48007e-05
4.82255e-05
0.000133447
0.000132389
2.57454e-05
1.18984e-05
1.1983e-05
1.21197e-05
0.000147459
0.00041457
0.000426844
7.6328e-05
2.69791e-05
0.00130522
0.00129276
0.00102005
1.42888e-05
2.28251e-06
5.95181e-06
9.39458e-06
0.000107071
0.000134453
3.58992e-05
1.18782e-05
1.19096e-05
1.18937e-05
4.89794e-05
0.000146271
0.000140757
2.94638e-05
2.9526e-05
2.69791e-05
0.00131534
0.000403986
0.000103615
1.50488e-06
8.9398e-07
4.1002e-06
8.69488e-05
0.000130583
9.51636e-05
1.42793e-05
1.19139e-05
6.09685e-05
4.31856e-05
4.71379e-05
3.91807e-05
3.01329e-05
2.7718e-05
2.70565e-05
2.69791e-05
0.000139659
8.10072e-06
2.79778e-06
5.61087e-07
4.96647e-07
1.018e-06
5.06307e-05
0.000117583
0.000180926
0.000229235
0.000410633
0.000422721
0.000181016
4.91161e-05
4.43937e-05
0.00012793
0.000176451
4.26169e-05
2.70566e-05
3.4861e-06
1.3331e-06
5.27034e-07
1.9915e-07
3.28034e-07
4.99294e-07
9.05796e-06
8.2632e-05
0.000338502
0.000441365
0.000439666
0.00043706
0.000436563
0.000272507
0.00023975
0.000344494
0.000275659
6.5624e-05
3.76112e-05
1.19755e-06
3.4396e-07
2.14406e-07
1.74711e-07
2.41122e-07
3.25486e-07
1.04017e-06
7.34905e-05
0.000337924
0.000439666
0.000438246
0.000438246
0.000438297
0.000435101
0.000426955
0.000214044
0.000126505
7.11359e-05
0.000261256
7.16612e-07
2.14459e-07
1.75191e-07
1.62624e-07
1.29442e-07
2.15032e-07
9.96935e-07
0.000101871
0.000284215
0.000356427
0.00027195
0.000407912
0.00043564
0.000253298
9.91415e-05
0.00011432
0.000600573
0.000201531
0.000317279
1.57903e-06
2.45289e-07
2.14832e-07
2.19408e-07
4.62366e-08
1.04934e-07
9.48587e-07
0.000113124
0.000224279
0.000152269
0.000140782
0.000132997
0.000126126
0.000102495
9.91415e-05
0.000515084
0.000603735
0.000386873
0.000315738
2.04766e-06
2.02945e-06
1.46492e-06
4.50557e-07
2.78856e-08
4.31892e-08
2.21953e-06
1.7811e-05
2.7764e-05
3.46697e-05
0.000241939
0.000329268
0.000320772
0.000334186
0.000538389
0.000603602
0.000603674
0.000365076
0.00034664
1.25334e-06
1.24511e-06
9.75671e-07
2.76347e-07
2.33409e-08
2.63315e-08
1.97276e-07
1.16532e-07
9.94497e-07
9.73549e-05
0.000332327
0.000332327
9.16539e-05
0.000100906
2.9538e-05
0.000177241
0.000603602
0.000425908
0.000617733
7.76523e-08
1.31595e-08
1.8943e-08
1.39099e-08
2.31589e-08
2.11398e-08
7.15658e-09
1.28442e-08
1.01537e-07
7.2003e-05
0.000254734
4.10683e-05
6.17717e-08
5.30841e-06
3.44568e-05
0.000480045
0.000596344
0.00056741
0.000749316
8.78435e-09
6.98224e-09
5.92651e-09
5.49928e-09
5.35599e-09
8.84124e-09
5.70937e-09
4.52762e-09
7.56375e-09
1.46132e-05
5.44584e-05
6.17722e-08
6.17717e-08
6.17719e-08
0.000559773
0.00066535
0.000426395
0.000407336
0.000749316
2.22928e-07
8.61242e-07
7.68118e-07
9.79192e-09
1.08169e-10
3.57863e-09
5.40473e-09
4.03652e-09
1.004e-09
5.9451e-09
5.15491e-09
5.22574e-08
3.20236e-08
2.9432e-05
0.00066535
0.00066535
0.000321497
0.000223999
0.000659537
1.09006e-06
2.93921e-06
2.94144e-06
7.49116e-07
6.3607e-11
1.56109e-09
2.51241e-09
2.30752e-09
8.27633e-10
4.77765e-10
1.25948e-09
1.86435e-09
2.27586e-09
0.000324028
0.000649925
0.000657712
0.000102787
7.07622e-05
4.07572e-06
6.28182e-07
2.94179e-06
2.85274e-06
7.84535e-07
5.63175e-11
3.34707e-10
6.8373e-10
6.74338e-10
3.29317e-10
3.36048e-10
4.8123e-10
1.03206e-09
1.66112e-05
0.000403106
0.000166026
9.25954e-05
7.47618e-05
3.43724e-05
4.03558e-06
5.29706e-07
1.98097e-06
4.61098e-07
5.63391e-11
5.41483e-11
1.71412e-10
3.54887e-10
2.40854e-10
1.27455e-10
1.2804e-10
5.85274e-10
5.00652e-09
0.000211411
0.000391499
4.38985e-08
1.02544e-05
0.00015049
0.000126554
4.0197e-06
1.89332e-06
5.61009e-07
1.83798e-07
1.03397e-08
5.29577e-11
9.53017e-11
1.56574e-10
9.26266e-11
1.58277e-10
6.68405e-09
7.11041e-06
1.95728e-05
0.000310993
5.99344e-06
1.88505e-08
7.8405e-07
1.01598e-05
1.20211e-05
9.2789e-07
3.2211e-06
1.57003e-06
1.17195e-07
5.98524e-08
5.29535e-11
5.76067e-11
6.21628e-11
6.6542e-11
2.06923e-10
1.88602e-06
7.19168e-05
0.000285686
0.000239399
9.3991e-09
9.64475e-09
1.387e-15
1.44441e-15
1.70033e-15
2.31179e-15
2.04647e-05
9.12905e-06
2.34389e-09
5.37571e-11
5.31835e-11
5.34416e-11
5.41652e-11
7.09749e-11
8.31114e-10
6.56776e-06
0.000244797
0.000286141
0.000127008
8.82612e-09
3.14245e-07
6.66051e-16
1.09531e-14
2.50561e-14
7.28884e-14
2.04889e-05
1.06533e-05
1.19231e-08
4.68057e-11
5.41327e-11
5.47199e-11
7.59974e-11
7.75608e-11
1.20125e-12
1.18177e-06
0.000272794
0.000267089
1.69306e-08
4.38604e-07
4.12142e-07
1.01533e-18
6.14151e-15
1.71287e-14
4.38858e-14
1.46029e-05
9.79012e-07
-2.22653e-12
8.68784e-13
6.13911e-11
6.15403e-11
2.09486e-10
2.42991e-10
3.5595e-13
-5.66218e-12
6.78751e-05
9.59149e-05
1.16598e-14
1.31945e-06
1.95042e-07
1.97265e-21
3.02502e-16
1.72988e-15
7.13732e-15
)
;

boundaryField
{
    leftWall
    {
        type            zeroGradient;
    }
    rightWall
    {
        type            zeroGradient;
    }
    lowerWall
    {
        type            zeroGradient;
    }
    atmosphere
    {
        type            inletOutlet;
        inletValue      uniform 0;
        value           nonuniform List<scalar> 
46
(
0
0
0
0
0
0
0
0
0
0
0
0
0
0
0
0
0
5.0959e-05
0.000361504
0.000212291
1.12563e-05
7.97498e-06
6.33898e-06
5.83039e-06
5.68571e-06
5.69752e-06
6.25861e-06
1.46029e-05
0
0
0
6.13911e-11
6.15403e-11
2.09486e-10
0
0
0
6.78751e-05
9.59149e-05
0
0
0
0
0
0
0
)
;
    }
    defaultFaces
    {
        type            empty;
    }
}


// ************************************************************************* //
