/*--------------------------------*- C++ -*----------------------------------*\
| =========                 |                                                 |
| \\      /  F ield         | OpenFOAM: The Open Source CFD Toolbox           |
|  \\    /   O peration     | Version:  2.3.0                                 |
|   \\  /    A nd           | Web:      www.OpenFOAM.org                      |
|    \\/     M anipulation  |                                                 |
\*---------------------------------------------------------------------------*/
FoamFile
{
    version     2.0;
    format      ascii;
    class       volScalarField;
    location    "2.85";
    object      p;
}
// * * * * * * * * * * * * * * * * * * * * * * * * * * * * * * * * * * * * * //

dimensions      [1 -1 -2 0 0 0 0];

internalField   nonuniform List<scalar> 
2268
(
666.11
670.379
675.865
681.614
689.519
698.77
709.95
723.596
736.901
748.5
760.836
774.947
789.488
803.464
815.485
826.991
839.351
852.354
864.301
874.552
882.86
887.607
888.753
609.528
611.691
616.888
622.38
630.023
639.391
650.758
664.7
678.222
689.803
701.695
715.649
730.962
745.552
757.676
768.064
779.601
792.769
805.599
816.289
824.753
829.374
830.691
555.286
553.658
557.744
562.482
569.62
579.228
591.554
606.037
619.679
631.063
642.348
655.612
670.629
685.261
698.314
709.797
720.177
732.605
745.85
756.851
765.563
770.67
772.52
500.779
497.641
499.114
502.187
509.129
518.626
531.305
546.197
560.384
571.955
582.848
595.198
609.058
622.975
636.39
648.448
659.927
672.323
685.078
696.244
705.275
711.228
714.009
444.787
443.271
444.687
446.987
451.82
460.253
472.066
486.067
500.248
512.171
523.082
534.924
547.585
560.246
572.862
585.342
598.351
611.706
624.086
634.819
643.98
650.655
653.938
386.119
386.861
389.231
391.541
396.04
403.963
415.079
427.552
439.926
451.957
463.472
475.017
486.538
497.883
509.219
521.437
535.759
550.457
563.409
573.137
581.564
588.293
590.347
325.272
326.482
329.969
332.526
337.161
344.859
355.316
367.164
379.122
391.474
403.745
415.065
425.524
435.643
446.162
458.046
472.881
488.825
502.443
511.264
517.718
522.883
518.698
263.735
263.719
268.524
271.179
276.043
283.546
293.036
304.268
316.636
329.891
342.86
354.331
364.267
373.825
384.345
396.487
411.521
427.488
441.201
449.02
452.598
454.456
434.385
721.033
723.331
729.629
723.439
724.844
733.411
725.06
708.326
693.344
672.154
646.088
626.923
621.201
621.798
612.157
595.941
587.625
582.304
582.288
665.292
667.663
671.215
662.545
662.93
672.489
664.721
649.409
634.577
612.122
584.131
563.738
559.348
562.928
555.733
541.822
532.484
527.207
529.163
609.214
610.915
611.595
601
601.142
611.172
604.054
590.311
576.277
551.481
521.124
500.054
495.653
500.918
496.668
486.529
480.05
473.554
476.382
552.461
552.214
553.084
541.449
541.161
551.725
544.946
531.879
518.273
490.437
458.359
437.288
432.441
437.747
436.553
429.722
426.307
419.895
422.281
493.654
491.724
497.915
484.47
483.396
494.578
487.981
474.975
459.675
429.844
398.181
377.532
371.313
376.581
377.95
372.827
370.311
365.962
365.202
431.498
430.251
443.986
429.495
427.926
439.669
432.865
418.984
401.568
370.333
338.969
320.217
313.238
318.219
320.478
316.19
311.593
310.093
305.86
368.818
367.626
388.911
375.824
374.68
386.71
379.381
364.078
343.977
311.988
281.24
264.629
257.789
260.368
262.494
258.32
252.518
251.336
246.236
307.628
308.247
331.164
323.286
322.744
334.858
327.236
309.85
286.777
254.821
225.544
209.859
202.4
202.402
203.686
199.595
194.744
190.096
185.874
169.404
170.007
172.935
174.742
178.083
183.471
191.357
202.601
216.684
231.619
246.051
258.627
268.867
278.511
290.137
303.23
319.322
333.245
345.304
350.869
348.346
336.418
268.123
56.4801
55.2202
52.2977
48.6595
47.3333
49.7299
56.1134
67.7649
83.8379
100.998
116.929
131.539
144.116
156.373
173.08
187.64
199.749
213.669
222.302
223.241
216.136
202.37
181.118
6.5378
5.54978
4.213
2.32535
1.77705
2.09975
3.18669
5.72609
10.8175
18.4066
26.6995
34.6504
42.9636
51.3295
75.5572
95.8993
107.631
115.349
115.766
113.777
106.906
98.2094
91.385
0.489033
0.469264
0.559514
0.688864
0.808079
0.8586
0.818356
0.679689
0.503182
0.352981
0.264017
0.218472
0.298897
1.36279
14.1425
26.1586
33.7344
41.7662
44.7064
40.2589
30.3697
22.087
16.5761
0.246078
0.221815
0.320675
0.466698
0.580718
0.638616
0.593528
0.448585
0.264866
0.105216
-0.0284121
-0.191145
-0.375766
-0.894173
-1.08121
-0.918372
-0.297275
1.25394
2.72745
2.08376
0.410243
-0.349174
-0.136175
0.0583321
0.0145017
0.075421
0.198976
0.310779
0.363962
0.29353
0.115479
-0.0875127
-0.280383
-0.496947
-0.764831
-1.02977
-1.30691
-1.41412
-1.36613
-1.28665
-1.13805
-0.889533
-0.719597
-0.659087
-0.612899
-0.434197
-0.121693
-0.193681
-0.143012
-0.0498929
0.0380122
0.0350803
-0.134295
-0.40563
-0.665839
-0.896714
-1.13788
-1.35874
-1.51526
-1.63169
-1.67345
-1.57957
-1.37302
-1.17534
-1.02487
-0.913271
-0.869809
-0.841274
-0.80473
-0.279777
-0.328629
-0.315226
-0.276238
-0.27522
-0.406785
-0.735948
-1.09889
-1.35876
-1.50259
-1.60546
-1.72104
-1.81688
-1.87497
-1.87606
-1.76793
-1.57721
-1.3981
-1.25421
-1.15948
-1.13285
-1.1489
-1.18356
-0.440809
-0.487733
-0.483151
-0.511054
-0.62599
-0.843859
-1.24758
-1.60656
-1.77843
-1.79702
-1.83089
-1.93715
-2.03553
-2.07778
-2.05403
-1.95913
-1.80872
-1.64865
-1.51211
-1.43388
-1.4376
-1.50757
-1.58707
-0.626995
-0.658486
-0.680757
-0.766993
-0.906132
-1.13382
-1.53246
-1.84002
-1.93298
-1.90341
-1.95559
-2.08415
-2.16707
-2.20067
-2.18025
-2.10841
-1.99063
-1.85786
-1.74876
-1.70518
-1.75931
-1.87309
-1.97483
-0.821398
-0.829748
-0.890399
-0.979247
-1.08009
-1.29165
-1.64044
-1.89679
-1.94057
-1.9554
-2.0326
-2.14579
-2.21014
-2.24244
-2.23215
-2.18086
-2.08915
-1.98704
-1.91247
-1.91879
-2.02375
-2.16669
-2.28013
-0.983656
-0.973308
-1.05555
-1.11712
-1.20243
-1.38744
-1.7288
-1.91252
-1.93836
-1.98073
-2.05637
-2.13764
-2.18126
-2.20339
-2.19823
-2.15569
-2.08225
-2.0057
-1.97301
-2.03496
-2.18344
-2.34881
-2.47272
-1.12924
-1.10937
-1.19493
-1.24021
-1.31312
-1.48755
-1.79897
-1.92493
-1.95697
-2.00075
-2.05008
-2.09228
-2.11215
-2.11012
-2.09198
-2.04576
-1.98355
-1.93742
-1.95392
-2.06327
-2.24574
-2.42792
-2.55979
-1.29805
-1.28528
-1.35772
-1.39374
-1.4473
-1.59549
-1.84586
-1.95689
-1.99438
-2.02865
-2.05318
-2.06296
-2.05791
-2.02766
-1.97903
-1.91868
-1.86748
-1.85537
-1.91276
-2.0508
-2.24252
-2.43111
-2.56773
-1.48478
-1.49865
-1.54047
-1.56562
-1.60662
-1.70849
-1.87945
-1.99185
-2.03952
-2.07103
-2.08292
-2.07117
-2.03928
-1.98254
-1.90973
-1.84233
-1.80579
-1.82012
-1.89781
-2.04006
-2.2239
-2.40334
-2.53632
-1.67722
-1.70474
-1.72226
-1.73578
-1.76658
-1.82752
-1.93634
-2.03288
-2.10721
-2.14048
-2.14376
-2.11621
-2.06553
-1.99175
-1.90559
-1.84289
-1.82237
-1.85349
-1.93456
-2.06348
-2.22537
-2.3851
-2.50742
-1.87868
-1.91825
-1.92922
-1.92417
-1.93042
-1.96631
-2.03407
-2.11983
-2.19828
-2.23681
-2.24394
-2.21933
-2.16705
-2.09173
-1.98362
-1.91822
-1.91294
-1.95367
-2.02408
-2.13064
-2.26916
-2.4096
-2.51865
-2.11098
-2.15238
-2.1752
-2.15943
-2.1374
-2.14662
-2.19069
-2.26301
-2.32916
-2.36884
-2.37794
-2.3574
-2.31131
-2.23865
-2.1484
-2.09598
-2.08599
-2.10592
-2.14563
-2.22643
-2.34684
-2.47579
-2.58352
-2.33293
-2.37142
-2.4048
-2.40232
-2.38812
-2.3794
-2.3894
-2.43028
-2.48273
-2.51725
-2.52181
-2.50214
-2.46085
-2.38958
-2.29622
-2.24493
-2.24387
-2.27369
-2.31488
-2.39303
-2.51418
-2.64575
-2.75313
-2.51149
-2.54697
-2.58739
-2.60492
-2.62838
-2.63305
-2.61845
-2.61135
-2.62541
-2.64299
-2.64406
-2.62784
-2.59526
-2.53904
-2.47393
-2.42644
-2.42684
-2.48137
-2.5504
-2.63464
-2.74924
-2.86786
-2.96653
-2.67888
-2.71426
-2.75536
-2.777
-2.81162
-2.84434
-2.81529
-2.76348
-2.74144
-2.74352
-2.74714
-2.74815
-2.74085
-2.73665
-2.72749
-2.70655
-2.6959
-2.71829
-2.76471
-2.83832
-2.94875
-3.06527
-3.17789
-2.85933
-2.90045
-2.91247
-2.92809
-2.94914
-2.97608
-2.95895
-2.90592
-2.86529
-2.85715
-2.87268
-2.90364
-2.94776
-3.01326
-3.05912
-3.06085
-3.01548
-2.96341
-2.95142
-3.00749
-3.11539
-3.24092
-3.39987
-3.04831
-3.06897
-3.05795
-3.06507
-3.07245
-3.07686
-3.06922
-3.0488
-3.02577
-3.02385
-3.06145
-3.12013
-3.20477
-3.30263
-3.37353
-3.37204
-3.29018
-3.18439
-3.13244
-3.16256
-3.25032
-3.38224
-3.61212
-3.20688
-3.20484
-3.19556
-3.19982
-3.20114
-3.1988
-3.19534
-3.19324
-3.19685
-3.20892
-3.2509
-3.31046
-3.38993
-3.486
-3.55201
-3.53129
-3.45051
-3.3514
-3.29202
-3.29163
-3.34714
-3.48728
-3.74791
-3.32817
-3.33603
-3.33316
-3.33703
-3.33835
-3.33801
-3.33986
-3.34402
-3.35218
-3.36602
-3.39187
-3.43472
-3.49115
-3.55619
-3.5998
-3.59061
-3.53641
-3.47145
-3.42641
-3.41779
-3.46134
-3.56801
-3.72567
-3.46304
-3.4733
-3.47265
-3.47504
-3.47725
-3.48023
-3.48443
-3.49044
-3.49356
-3.50101
-3.51891
-3.54695
-3.58018
-3.61209
-3.62842
-3.62079
-3.59543
-3.56595
-3.54659
-3.55234
-3.59242
-3.66954
-3.75471
-3.61151
-3.61292
-3.61277
-3.61253
-3.61376
-3.61763
-3.62237
-3.62722
-3.62773
-3.63169
-3.64264
-3.65811
-3.67228
-3.68231
-3.68532
-3.67703
-3.66388
-3.65744
-3.66204
-3.68428
-3.72054
-3.76724
-3.80783
-3.76166
-3.75565
-3.75336
-3.75028
-3.74925
-3.75107
-3.75508
-3.75686
-3.75662
-3.75852
-3.7631
-3.76822
-3.76992
-3.76727
-3.76235
-3.75134
-3.74389
-3.7544
-3.77878
-3.81005
-3.84135
-3.87267
-3.89836
-3.91481
-3.9001
-3.89347
-3.88813
-3.88502
-3.88413
-3.88544
-3.88508
-3.88397
-3.8837
-3.88312
-3.88086
-3.87446
-3.86328
-3.85276
-3.84017
-3.83443
-3.85632
-3.89283
-3.92769
-3.9574
-3.98505
-4.00823
-4.05486
-4.03938
-4.03075
-4.02512
-4.0211
-4.0186
-4.01671
-4.01458
-4.01222
-4.00938
-4.00486
-3.99777
-3.98669
-3.9704
-3.95471
-3.9414
-3.93553
-3.96133
-4.00261
-4.03844
-4.07011
-4.10022
-4.12448
-4.18083
-4.17241
-4.16583
-4.16142
-4.15734
-4.15406
-4.15038
-4.1466
-4.14225
-4.13678
-4.12932
-4.11904
-4.10487
-4.08555
-4.06551
-4.05214
-4.0446
-4.06699
-4.10929
-4.14606
-4.183
-4.21894
-4.2462
-4.30908
-4.30533
-4.30097
-4.29786
-4.2939
-4.29015
-4.2854
-4.28029
-4.27424
-4.26674
-4.25721
-4.24481
-4.22863
-4.20773
-4.18438
-4.17037
-4.15975
-4.17468
-4.21578
-4.2548
-4.29944
-4.34548
-4.37996
-4.44179
-4.44066
-4.43735
-4.43494
-4.43113
-4.42707
-4.42166
-4.4156
-4.40841
-4.39955
-4.38865
-4.37493
-4.35762
-4.33636
-4.31135
-4.2935
-4.2829
-4.28588
-4.32622
-4.37001
-4.42428
-4.48496
-4.53127
-4.57814
-4.5781
-4.57525
-4.573
-4.56938
-4.5651
-4.55935
-4.55271
-4.54486
-4.5352
-4.52351
-4.50905
-4.49112
-4.4698
-4.44448
-4.4205
-4.416
-4.40225
-4.44976
-4.50611
-4.58107
-4.65368
-4.70384
-4.71692
-4.71706
-4.71456
-4.71221
-4.70873
-4.70437
-4.69858
-4.69169
-4.68362
-4.67369
-4.66175
-4.64714
-4.629
-4.60711
-4.58144
-4.55386
-4.55258
-4.535
-4.60095
-4.68726
-4.79616
-4.88076
-4.91845
-4.85753
-4.85711
-4.85506
-4.85263
-4.84925
-4.84492
-4.83933
-4.83254
-4.82462
-4.81496
-4.80341
-4.78937
-4.77183
-4.74969
-4.72392
-4.69696
-4.68872
-4.6915
-4.77087
-4.91539
-5.06462
-5.17934
-5.2064
-4.99909
-4.99843
-4.99665
-4.99424
-4.99097
-4.98678
-4.98153
-4.97512
-4.96771
-4.95883
-4.94835
-4.93583
-4.92035
-4.90011
-4.87544
-4.85135
-4.83072
-4.85818
-4.95211
-5.15569
-5.34802
-5.49615
-5.53182
-5.14149
-5.14082
-5.13921
-5.13692
-5.13381
-5.12986
-5.12503
-5.11919
-5.11252
-5.10478
-5.09597
-5.08593
-5.07427
-5.0595
-5.04056
-5.01989
-5.00684
-5.0545
-5.1637
-5.37639
-5.59127
-5.75316
-5.79364
-5.28461
-5.284
-5.28254
-5.28042
-5.27755
-5.27392
-5.26954
-5.26435
-5.25851
-5.25204
-5.24509
-5.23798
-5.23109
-5.22427
-5.2186
-5.22127
-5.23101
-5.29671
-5.41984
-5.59577
-5.75509
-5.87878
-5.92362
-5.42824
-5.42771
-5.42641
-5.42451
-5.42192
-5.41866
-5.41475
-5.4102
-5.40516
-5.3998
-5.39446
-5.38981
-5.38685
-5.38628
-5.3915
-5.41089
-5.44208
-5.54693
-5.72428
-5.8347
-5.85186
-5.89663
-5.93558
-5.57261
-5.57222
-5.57112
-5.56946
-5.56717
-5.56429
-5.56085
-5.55689
-5.55253
-5.54801
-5.54372
-5.54049
-5.53972
-5.543
-5.55547
-5.58394
-5.61717
-5.76277
-6.15799
-6.12817
-5.88361
-5.83461
-5.8587
-5.71863
-5.7187
-5.71784
-5.71641
-5.71442
-5.71192
-5.70894
-5.7055
-5.70168
-5.69763
-5.69364
-5.69031
-5.68895
-5.69205
-5.70296
-5.73076
-5.82786
-6.02879
-6.70293
-6.45951
-5.94058
-5.83243
-5.80201
139.619
151.265
184.276
198.42
156.114
147.124
137.115
120.85
83.7123
74.5914
60.8139
47.2145
11.9505
6.62514
1.44226
0.413114
-0.112186
-0.315436
-0.24395
-0.176775
-0.492458
-0.556551
-0.540017
-0.555834
-0.845893
-0.871117
-0.882138
-0.905299
-1.2238
-1.24562
-1.26191
-1.27241
-1.63036
-1.64901
-1.65759
-1.65307
-2.0167
-2.03058
-2.02972
-2.011
-2.31979
-2.32921
-2.32146
-2.29614
-2.5148
-2.52344
-2.51346
-2.48546
-2.6035
-2.61143
-2.60108
-2.57282
-2.61277
-2.6205
-2.61076
-2.58393
-2.58055
-2.58734
-2.57943
-2.55731
-2.54807
-2.55469
-2.54995
-2.5364
-2.55408
-2.56027
-2.55966
-2.55233
-2.62424
-2.63546
-2.63654
-2.62721
-2.79878
-2.81087
-2.80977
-2.79688
-3.01527
-3.03256
-3.03529
-3.029
-3.25289
-3.2895
-3.33073
-3.37562
-3.55594
-3.65316
-3.74693
-3.81622
-3.85195
-3.9991
-4.1061
-4.15001
-3.95123
-4.05387
-4.12778
-4.15134
-3.82496
-3.87069
-3.90408
-3.92389
-3.79746
-3.81898
-3.83425
-3.84358
-3.83113
-3.84432
-3.85465
-3.86355
-3.9139
-3.92344
-3.93148
-3.9382
-4.02249
-4.03067
-4.03707
-4.04145
-4.1383
-4.14586
-4.15166
-4.15544
-4.26088
-4.26881
-4.2748
-4.27881
-4.39745
-4.40632
-4.41258
-4.41631
-4.55205
-4.56114
-4.56679
-4.56923
-4.72739
-4.73665
-4.74139
-4.74155
-4.93422
-4.94122
-4.94276
-4.93811
-5.1878
-5.18006
-5.17376
-5.16115
-5.48119
-5.44673
-5.42359
-5.39901
-5.73901
-5.69639
-5.65787
-5.61738
-5.88796
-5.85285
-5.81238
-5.76532
-5.92202
-5.89948
-5.86773
-5.82889
-5.85846
-5.84935
-5.83449
-5.81564
-5.7894
-5.78051
-5.77092
-5.75798
209.623
216.506
236.872
243.68
249.362
256.235
246.995
225.476
201.196
173.288
146.595
127.345
116.415
112.965
112.09
108.194
103.9
95.4416
92.1438
96.4538
67.524
82.8496
121.148
152.836
156.847
140.068
112.531
89.7506
68.3869
48.8363
35.8145
27.6026
24.8079
23.6313
21.5173
19.0784
15.545
14.7563
21.7612
0.318201
2.50704
21.9811
58.9625
62.3743
49.4358
32.6536
18.8591
12.3515
8.13986
3.94892
1.12317
0.779559
0.913997
1.05032
1.06693
1.09981
1.0964
-0.342184
-0.546598
-0.619117
0.237826
4.7092
6.92414
3.2521
0.710818
0.34479
0.372662
0.403591
0.477179
0.59982
0.596494
0.665008
0.736246
0.786931
0.879353
0.946846
-0.425146
-0.433852
-0.390644
-0.221475
-0.0219627
0.0972816
-0.0396916
-0.0107727
0.0781946
0.106849
0.125149
0.2346
0.423467
0.507357
0.553969
0.50274
0.498945
0.642359
0.779622
-0.641548
-0.603631
-0.487686
-0.295353
-0.0805692
0.0319137
-0.0934916
-0.200952
-0.202238
-0.16082
-0.0823412
0.0565321
0.233268
0.345036
0.384539
0.325458
0.278281
0.435414
0.594651
-0.931991
-0.870035
-0.737712
-0.563124
-0.313985
-0.211399
-0.337619
-0.484939
-0.54092
-0.540408
-0.463082
-0.283872
-0.0618022
0.0978673
0.164944
0.146394
0.115028
0.237147
0.38397
-1.26424
-1.17945
-1.08464
-0.942162
-0.702279
-0.572726
-0.657434
-0.772727
-0.840245
-0.863983
-0.801344
-0.619779
-0.35937
-0.140647
-0.0171396
-0.017676
-0.0750273
-0.0547016
0.0868305
-1.61915
-1.52968
-1.4156
-1.28757
-1.11689
-0.902851
-0.923974
-0.996724
-1.07169
-1.10279
-1.03443
-0.840728
-0.56475
-0.319338
-0.195591
-0.242327
-0.364928
-0.410444
-0.233336
-1.95143
-1.82497
-1.6955
-1.55834
-1.38393
-1.10888
-1.07327
-1.1403
-1.24397
-1.28586
-1.20185
-0.989345
-0.719565
-0.509561
-0.482153
-0.571326
-0.636835
-0.622312
-0.497173
-2.22307
-2.06654
-1.90793
-1.74101
-1.49403
-1.18815
-1.13514
-1.20484
-1.33492
-1.38992
-1.31396
-1.12689
-0.894671
-0.755314
-0.801571
-0.817771
-0.793835
-0.735278
-0.684824
-2.40687
-2.23365
-2.05028
-1.8422
-1.50544
-1.19106
-1.14398
-1.21308
-1.35695
-1.41994
-1.39578
-1.30614
-1.17727
-1.09515
-1.06792
-1.03137
-0.969528
-0.895159
-0.861463
-2.49455
-2.32583
-2.12705
-1.87509
-1.47477
-1.179
-1.15364
-1.23534
-1.35551
-1.43748
-1.50307
-1.59354
-1.6135
-1.52765
-1.40879
-1.30623
-1.22454
-1.16272
-1.11872
-2.51475
-2.36655
-2.15602
-1.87483
-1.48239
-1.23292
-1.21667
-1.31298
-1.42236
-1.50529
-1.6364
-1.85566
-1.95504
-1.85729
-1.70453
-1.56292
-1.45406
-1.38467
-1.33962
-2.50586
-2.37793
-2.19613
-1.93035
-1.62456
-1.41643
-1.36817
-1.46932
-1.56014
-1.61503
-1.73588
-1.96426
-2.10188
-2.03595
-1.87578
-1.72023
-1.61039
-1.54711
-1.51728
-2.50468
-2.40388
-2.27284
-2.10786
-1.92627
-1.74811
-1.6213
-1.68957
-1.74585
-1.75555
-1.81766
-1.98726
-2.11219
-2.09363
-1.98129
-1.84925
-1.74842
-1.68905
-1.66302
-2.52445
-2.45779
-2.37956
-2.31476
-2.2501
-2.08439
-1.93751
-1.95253
-1.97276
-1.9537
-1.96288
-2.05417
-2.14379
-2.15145
-2.07269
-1.9554
-1.86574
-1.80571
-1.7956
-2.59951
-2.54624
-2.47778
-2.45275
-2.44937
-2.30509
-2.20088
-2.20364
-2.21774
-2.19746
-2.18386
-2.23198
-2.27926
-2.26953
-2.18912
-2.08411
-1.99818
-1.97361
-1.95196
-2.76126
-2.66806
-2.58402
-2.54501
-2.54312
-2.44815
-2.37884
-2.39155
-2.42029
-2.41538
-2.41225
-2.44093
-2.46046
-2.42877
-2.3341
-2.22843
-2.15348
-2.17747
-2.13976
-2.99766
-2.88575
-2.75806
-2.69053
-2.63583
-2.55911
-2.50225
-2.51819
-2.57006
-2.59792
-2.6251
-2.65373
-2.65021
-2.59673
-2.48643
-2.37281
-2.31863
-2.3467
-2.3434
-3.37827
-3.24088
-3.05964
-2.92006
-2.77895
-2.67579
-2.61465
-2.62773
-2.70354
-2.78899
-2.85294
-2.8711
-2.83691
-2.75771
-2.63214
-2.51919
-2.46978
-2.46661
-2.49645
-3.84016
-3.64641
-3.39617
-3.14882
-2.92823
-2.80512
-2.74896
-2.76197
-2.8669
-2.99633
-3.05731
-3.05145
-2.99807
-2.9014
-2.77461
-2.66769
-2.60725
-2.59123
-2.61603
-4.11777
-3.89298
-3.58781
-3.2921
-3.06838
-2.95435
-2.90944
-2.94274
-3.0602
-3.18309
-3.21599
-3.19097
-3.12861
-3.03439
-2.91993
-2.81348
-2.74461
-2.73247
-2.75287
-4.09714
-3.87419
-3.61691
-3.38547
-3.22301
-3.13098
-3.09642
-3.14593
-3.252
-3.32394
-3.33844
-3.30775
-3.24957
-3.17765
-3.09047
-2.99704
-2.93399
-2.91372
-2.90911
-3.91384
-3.78812
-3.63707
-3.49867
-3.39225
-3.31919
-3.29455
-3.33714
-3.40826
-3.44764
-3.45377
-3.42854
-3.38489
-3.34932
-3.30584
-3.2331
-3.16347
-3.12331
-3.09007
-3.83692
-3.77711
-3.70402
-3.6282
-3.55819
-3.49795
-3.47475
-3.49679
-3.52818
-3.55107
-3.55315
-3.54514
-3.54585
-3.55742
-3.54139
-3.47058
-3.36556
-3.3056
-3.26043
-3.86465
-3.83727
-3.80112
-3.75715
-3.70937
-3.6626
-3.63939
-3.64157
-3.64817
-3.64819
-3.64908
-3.66288
-3.71015
-3.76396
-3.75403
-3.66657
-3.53402
-3.47029
-3.42941
-3.94207
-3.92976
-3.90902
-3.88058
-3.84862
-3.81682
-3.79581
-3.78894
-3.7852
-3.77228
-3.76305
-3.78314
-3.84101
-3.90399
-3.8953
-3.79986
-3.70715
-3.64792
-3.614
-4.04381
-4.03645
-4.02263
-4.00336
-3.98315
-3.96391
-3.94672
-3.94016
-3.94304
-3.92485
-3.88585
-3.88468
-3.93217
-3.97854
-3.97829
-3.92516
-3.87445
-3.82047
-3.79477
-4.15755
-4.15215
-4.14192
-4.12794
-4.11423
-4.10297
-4.09181
-4.08798
-4.09715
-4.08751
-4.0437
-4.02002
-4.05339
-4.08833
-4.09458
-4.08215
-4.02716
-3.96144
-3.95711
-4.28108
-4.27557
-4.26628
-4.2547
-4.24389
-4.23637
-4.23115
-4.23179
-4.25035
-4.27025
-4.25275
-4.23236
-4.23418
-4.23495
-4.2181
-4.21266
-4.16996
-4.11058
-4.11911
-4.41666
-4.4074
-4.39617
-4.38477
-4.37488
-4.36827
-4.36589
-4.37063
-4.39396
-4.43499
-4.44655
-4.41669
-4.39083
-4.37653
-4.34401
-4.36041
-4.36282
-4.33358
-4.30915
-4.56576
-4.54905
-4.53289
-4.51926
-4.50837
-4.50064
-4.49725
-4.50105
-4.51853
-4.55562
-4.57574
-4.55675
-4.53638
-4.52319
-4.51988
-4.57035
-4.60398
-4.60005
-4.52674
-4.73115
-4.70191
-4.67708
-4.65861
-4.64479
-4.63468
-4.62841
-4.62758
-4.63552
-4.65502
-4.67003
-4.6677
-4.66022
-4.6525
-4.68684
-4.77735
-4.82652
-4.80556
-4.74834
-4.91633
-4.86803
-4.82916
-4.8024
-4.78414
-4.77094
-4.76188
-4.75693
-4.7576
-4.76414
-4.77102
-4.77335
-4.76869
-4.77476
-4.83144
-4.92101
-4.94331
-4.92865
-4.91502
-5.12209
-5.04744
-4.98785
-4.95025
-4.92524
-4.90856
-4.89718
-4.88964
-4.88596
-4.88542
-4.88701
-4.88633
-4.87672
-4.89889
-4.96082
-5.01251
-5.00181
-5.00161
-5.0205
-5.33926
-5.2303
-5.14553
-5.09518
-5.06484
-5.04537
-5.03235
-5.0231
-5.01688
-5.01261
-5.01002
-5.00315
-4.99424
-5.03378
-5.07221
-5.09576
-5.09043
-5.09135
-5.11157
-5.53334
-5.39661
-5.29197
-5.23308
-5.19974
-5.17921
-5.16583
-5.15599
-5.14891
-5.14362
-5.13941
-5.12328
-5.12933
-5.16639
-5.18695
-5.20059
-5.20373
-5.2048
-5.21487
-5.67432
-5.52874
-5.41778
-5.35951
-5.32763
-5.3087
-5.29682
-5.28823
-5.28293
-5.27916
-5.27529
-5.26534
-5.27612
-5.29853
-5.31138
-5.31778
-5.32075
-5.3218
-5.32923
-5.75279
-5.621
-5.52133
-5.47484
-5.44807
-5.43309
-5.42482
-5.42006
-5.4179
-5.4073
-5.42192
-5.42358
-5.42399
-5.44464
-5.44715
-5.44291
-5.44242
-5.44354
-5.44703
-5.7775
-5.67945
-5.61412
-5.58052
-5.5636
-5.55427
-5.55077
-5.55136
-5.55572
-5.51431
-5.58996
-5.64791
-5.56791
-5.59801
-5.58555
-5.57383
-5.56908
-5.56834
-5.5675
-5.74051
-5.70894
-5.69482
-5.68318
-5.67503
-5.67242
-5.67472
-5.67956
-5.6894
-5.72211
-5.84752
-5.94302
-5.76412
-5.7363
-5.7226
-5.70881
-5.69756
-5.69296
-5.68865
)
;

boundaryField
{
    leftWall
    {
        type            calculated;
        value           nonuniform List<scalar> 
50
(
666.11
609.528
555.286
500.779
444.787
386.119
325.272
263.735
169.404
56.4801
6.5378
0.489033
0.246078
0.0583321
-0.121693
-0.279777
-0.440809
-0.626995
-0.821398
-0.983656
-1.12924
-1.29805
-1.48478
-1.67722
-1.87868
-2.11098
-2.33293
-2.51149
-2.67888
-2.85933
-3.04831
-3.20688
-3.32817
-3.46304
-3.61151
-3.76166
-3.91481
-4.05486
-4.18083
-4.30908
-4.44179
-4.57814
-4.71692
-4.85753
-4.99909
-5.14149
-5.28461
-5.42824
-5.57261
-5.71863
)
;
    }
    rightWall
    {
        type            calculated;
        value           nonuniform List<scalar> 
50
(
582.288
529.163
476.382
422.281
365.202
305.86
246.236
185.874
92.1438
14.7563
1.0964
0.946846
0.779622
0.594651
0.38397
0.0868305
-0.233336
-0.497173
-0.684824
-0.861463
-1.11872
-1.33962
-1.51728
-1.66302
-1.7956
-1.95196
-2.13976
-2.3434
-2.49645
-2.61603
-2.75287
-2.90911
-3.09007
-3.26043
-3.42941
-3.614
-3.79477
-3.95711
-4.11911
-4.30915
-4.52674
-4.74834
-4.91502
-5.0205
-5.11157
-5.21487
-5.32923
-5.44703
-5.5675
-5.68865
)
;
    }
    lowerWall
    {
        type            calculated;
        value           nonuniform List<scalar> 
62
(
695.056
699.665
705.167
710.921
718.775
727.981
739.151
752.838
766.318
777.927
790.248
804.166
818.454
832.377
844.402
855.966
868.531
881.771
893.725
903.976
912.284
917.031
918.177
888.753
830.691
772.52
714.009
653.938
590.347
518.698
434.385
202.207
213.855
246.866
261.01
721.033
665.292
609.214
552.461
493.654
431.498
368.818
307.628
748.584
750.949
758.98
752.845
754.249
762.787
754.435
737.701
722.719
701.538
675.477
656.305
650.573
651.07
639.979
623.326
615.551
609.695
608.715
)
;
    }
    atmosphere
    {
        type            calculated;
        value           nonuniform List<scalar> 
46
(
-5.7926
-5.79322
-5.79242
-5.7911
-5.78926
-5.78693
-5.78419
-5.78098
-5.77732
-5.77329
-5.76893
-5.76436
-5.75965
-5.75429
-5.75049
-5.76201
-5.80389
-6.02127
-7.79804
-6.94405
-5.79346
-5.77468
-5.76532
-5.76241
-5.76158
-5.76165
-5.76486
-5.81262
-5.73395
-5.7328
-5.72936
-5.72904
-5.72904
-5.72904
-5.73493
-5.74701
-5.76422
-6.11751
-6.27799
-5.82965
-5.78187
-5.79199
-5.77872
-5.76133
-5.75498
-5.7487
)
;
    }
    defaultFaces
    {
        type            empty;
    }
}


// ************************************************************************* //
