/*--------------------------------*- C++ -*----------------------------------*\
| =========                 |                                                 |
| \\      /  F ield         | OpenFOAM: The Open Source CFD Toolbox           |
|  \\    /   O peration     | Version:  2.3.0                                 |
|   \\  /    A nd           | Web:      www.OpenFOAM.org                      |
|    \\/     M anipulation  |                                                 |
\*---------------------------------------------------------------------------*/
FoamFile
{
    version     2.0;
    format      ascii;
    class       surfaceScalarField;
    location    "2.85";
    object      phi;
}
// * * * * * * * * * * * * * * * * * * * * * * * * * * * * * * * * * * * * * //

dimensions      [0 3 -1 0 0 0 0];

internalField   nonuniform List<scalar> 
4432
(
-1.87974e-06
1.87974e-06
-1.84726e-06
-3.24768e-08
-1.00418e-06
-8.43085e-07
-3.51609e-07
-6.52568e-07
1.07407e-06
-1.42568e-06
3.36356e-06
-2.28949e-06
4.72438e-06
-1.36082e-06
4.07068e-06
6.53695e-07
2.80189e-06
1.26879e-06
2.75437e-06
4.75189e-08
4.74212e-06
-1.98776e-06
8.52059e-06
-3.77847e-06
1.34527e-05
-4.93215e-06
1.84555e-05
-5.00277e-06
2.13855e-05
-2.93e-06
2.05207e-05
8.6475e-07
1.65723e-05
3.9485e-06
1.18867e-05
4.6856e-06
7.98667e-06
3.89998e-06
4.98658e-06
3.00008e-06
2.43743e-06
2.54915e-06
4.10807e-08
2.39635e-06
4.10889e-08
-2.0987e-06
3.97845e-06
-4.49868e-06
2.3675e-06
-5.28695e-06
-5.48133e-08
-5.43056e-06
-5.08958e-07
-4.69581e-06
-2.16043e-06
-2.5629e-06
-4.4224e-06
5.34162e-07
-4.45789e-06
3.06224e-06
-1.87438e-06
4.67461e-06
-3.43579e-07
6.43494e-06
-1.71281e-06
9.18476e-06
-4.73758e-06
1.31006e-05
-7.69434e-06
1.79253e-05
-9.75684e-06
2.28822e-05
-9.95962e-06
2.66304e-05
-6.67828e-06
2.79763e-05
-4.81145e-07
2.65257e-05
5.39914e-06
2.2784e-05
8.42728e-06
1.77083e-05
8.97564e-06
1.22456e-05
8.46283e-06
7.00357e-06
7.79119e-06
2.39273e-06
7.00718e-06
2.43383e-06
-2.99652e-07
4.2781e-06
-3.86207e-06
5.92993e-06
-5.46724e-06
1.55036e-06
-5.48259e-06
-4.93613e-07
-5.04289e-06
-2.60014e-06
-4.09704e-06
-5.36825e-06
-1.93175e-06
-6.62319e-06
1.88363e-06
-5.68976e-06
6.52027e-06
-4.98022e-06
1.07867e-05
-5.97929e-06
1.46605e-05
-8.61137e-06
1.86064e-05
-1.16402e-05
2.26191e-05
-1.37695e-05
2.64792e-05
-1.38198e-05
2.99124e-05
-1.01115e-05
3.15621e-05
-2.13087e-06
3.01268e-05
6.83443e-06
2.63135e-05
1.22406e-05
2.13111e-05
1.39781e-05
1.58367e-05
1.39372e-05
1.01912e-05
1.34367e-05
4.64772e-06
1.25507e-05
7.08155e-06
1.51877e-06
2.75933e-06
2.15702e-07
7.23299e-06
-1.24818e-06
3.01424e-06
-1.24335e-06
-4.98446e-07
-4.3488e-07
-3.4086e-06
7.73155e-07
-6.57628e-06
2.89967e-06
-8.7497e-06
6.74345e-06
-9.53353e-06
1.16387e-05
-9.87548e-06
1.64637e-05
-1.08043e-05
2.08233e-05
-1.29709e-05
2.46973e-05
-1.55143e-05
2.78818e-05
-1.69539e-05
3.02436e-05
-1.61816e-05
3.22392e-05
-1.21071e-05
3.34613e-05
-3.35292e-06
3.22943e-05
8.00135e-06
2.84213e-05
1.61137e-05
2.3331e-05
1.90683e-05
1.82499e-05
1.90183e-05
1.29258e-05
1.87608e-05
6.88427e-06
1.85922e-05
1.39658e-05
6.65748e-09
2.75268e-06
1.92007e-06
5.31958e-06
2.93931e-06
1.995e-06
3.5808e-06
-1.13994e-06
4.62978e-06
-4.45758e-06
6.19925e-06
-8.14575e-06
8.72593e-06
-1.12764e-05
1.24829e-05
-1.32905e-05
1.71155e-05
-1.45081e-05
2.17293e-05
-1.54181e-05
2.58375e-05
-1.70791e-05
2.921e-05
-1.88868e-05
3.15733e-05
-1.93172e-05
3.28569e-05
-1.74651e-05
3.34823e-05
-1.27325e-05
3.39632e-05
-3.8338e-06
3.32757e-05
8.68879e-06
3.0274e-05
1.91154e-05
2.56816e-05
2.36607e-05
2.09777e-05
2.37223e-05
1.58993e-05
2.38392e-05
9.41575e-06
2.50757e-05
2.33816e-05
-2.86394e-06
5.61661e-06
-3.22391e-07
2.77803e-06
2.98786e-06
-1.31525e-06
5.58609e-06
-3.73817e-06
7.53072e-06
-6.40221e-06
9.68887e-06
-1.03039e-05
1.25816e-05
-1.41691e-05
1.63149e-05
-1.70237e-05
2.04337e-05
-1.86269e-05
2.43957e-05
-1.93801e-05
2.7831e-05
-2.05144e-05
3.04494e-05
-2.15052e-05
3.20678e-05
-2.09357e-05
3.2751e-05
-1.81483e-05
3.28161e-05
-1.27977e-05
3.28544e-05
-3.87214e-06
3.28148e-05
8.7284e-06
3.13866e-05
2.05437e-05
2.82992e-05
2.6748e-05
2.43421e-05
2.76794e-05
1.9414e-05
2.87673e-05
1.23691e-05
3.21206e-05
3.57506e-05
-3.06123e-06
8.67784e-06
-6.07354e-08
-2.22469e-07
3.70907e-06
-5.08505e-06
6.2603e-06
-6.2894e-06
8.07245e-06
-8.21436e-06
9.98199e-06
-1.22134e-05
1.24685e-05
-1.66557e-05
1.55683e-05
-2.01235e-05
1.89304e-05
-2.1989e-05
2.22294e-05
-2.26791e-05
2.51389e-05
-2.34238e-05
2.73274e-05
-2.36937e-05
2.87618e-05
-2.23701e-05
2.95746e-05
-1.8961e-05
2.99404e-05
-1.31634e-05
3.02374e-05
-4.16919e-06
3.09608e-05
8.00501e-06
3.12958e-05
2.02087e-05
3.03161e-05
2.77278e-05
2.77073e-05
3.02882e-05
2.32766e-05
3.31979e-05
1.64964e-05
3.89008e-05
5.22471e-05
-7.25432e-07
9.40328e-06
1.96223e-06
-2.91014e-06
4.17547e-06
-7.29829e-06
5.00281e-06
-7.11674e-06
5.75273e-06
-8.96427e-06
6.68698e-06
-1.31477e-05
8.13443e-06
-1.81031e-05
1.02954e-05
-2.22845e-05
1.2881e-05
-2.45746e-05
1.55709e-05
-2.53691e-05
1.81819e-05
-2.60349e-05
2.04796e-05
-2.59915e-05
2.23391e-05
-2.42296e-05
2.38606e-05
-2.04825e-05
2.51478e-05
-1.44507e-05
2.63618e-05
-5.3831e-06
2.79852e-05
6.38157e-06
2.9881e-05
1.83129e-05
3.1067e-05
2.65418e-05
3.04886e-05
3.08665e-05
2.74278e-05
3.62587e-05
2.0171e-05
4.61577e-05
7.2418e-05
-1.09696e-07
1.09696e-07
-3.46946e-06
3.35977e-06
-9.51989e-06
6.05044e-06
-1.67882e-05
7.26828e-06
-1.5495e-05
-1.29322e-06
-5.46815e-06
-1.00268e-05
3.68434e-07
-5.83658e-06
3.45038e-06
-3.08195e-06
8.19521e-06
-4.74482e-06
1.48787e-05
-6.68353e-06
1.92063e-05
-4.32757e-06
1.74075e-05
1.79881e-06
9.11847e-06
8.28902e-06
1.27887e-06
7.8396e-06
-3.45074e-06
4.72961e-06
-7.57607e-06
4.12534e-06
-7.56622e-06
-9.86763e-09
-4.70091e-06
-2.86529e-06
-4.70092e-06
-1.64249e-06
1.75219e-06
-5.92898e-06
7.64626e-06
-1.36418e-05
1.37632e-05
-1.70983e-05
1.07248e-05
-1.23515e-05
-6.04002e-06
-3.36343e-06
-1.90149e-05
2.69003e-06
-1.189e-05
5.7306e-06
-6.12253e-06
9.45012e-06
-8.46435e-06
1.4762e-05
-1.19954e-05
1.82808e-05
-7.84637e-06
1.87716e-05
1.30798e-06
1.40367e-05
1.3024e-05
3.87022e-06
1.8006e-05
-3.59683e-06
1.21966e-05
-5.09883e-06
5.62736e-06
-4.53141e-06
-5.77315e-07
-3.73176e-06
-3.66492e-06
-8.43269e-06
-3.10683e-06
4.85902e-06
-5.57797e-06
1.01174e-05
-1.08189e-05
1.90042e-05
-1.27929e-05
1.26988e-05
-9.9185e-06
-8.91442e-06
-4.56676e-06
-2.43666e-05
6.97065e-07
-1.71539e-05
3.82912e-06
-9.25458e-06
7.47683e-06
-1.21121e-05
1.2281e-05
-1.67995e-05
1.46716e-05
-1.0237e-05
1.51314e-05
8.48097e-07
1.36321e-05
1.45233e-05
6.8467e-06
2.47914e-05
6.19653e-08
1.89814e-05
-5.45364e-07
6.23471e-06
-6.67818e-07
-4.54878e-07
-1.82969e-06
-2.50303e-06
-1.02624e-05
-4.61855e-06
9.47757e-06
-4.57386e-06
1.00727e-05
-6.07392e-06
2.05042e-05
-7.76578e-06
1.43907e-05
-7.2127e-06
-9.4675e-06
-5.99268e-06
-2.55866e-05
-2.81379e-06
-2.03327e-05
3.41228e-07
-1.24096e-05
4.33522e-06
-1.61061e-05
8.44884e-06
-2.09131e-05
1.02141e-05
-1.20022e-05
1.02758e-05
7.86433e-07
1.06752e-05
1.41239e-05
8.49495e-06
2.69717e-05
4.85274e-06
2.26236e-05
3.49987e-06
7.5876e-06
2.42109e-06
6.23886e-07
1.67067e-07
-2.49e-07
-1.00953e-05
-5.93648e-06
1.54141e-05
-3.54281e-06
7.67905e-06
-1.83363e-06
1.8795e-05
-4.11462e-06
1.66717e-05
-5.20247e-06
-8.37964e-06
-6.65594e-06
-2.41332e-05
-5.45663e-06
-2.15321e-05
-2.49406e-06
-1.53722e-05
7.40752e-07
-1.93409e-05
2.50919e-06
-2.26816e-05
3.73068e-06
-1.32237e-05
3.74994e-06
7.67172e-07
5.3863e-06
1.24876e-05
7.76262e-06
2.45954e-05
7.42087e-06
2.29653e-05
5.71624e-06
9.29224e-06
3.19045e-06
3.14967e-06
1.32993e-06
1.61152e-06
-8.76538e-06
-5.20925e-06
2.06233e-05
-2.91677e-06
5.38657e-06
8.57268e-07
1.5021e-05
-1.63662e-07
1.76926e-05
-2.37614e-06
-6.16716e-06
-6.22653e-06
-2.02828e-05
-6.34955e-06
-2.1409e-05
-4.16263e-06
-1.75591e-05
-3.24538e-06
-2.02581e-05
-4.22857e-06
-2.16984e-05
-4.15821e-06
-1.32941e-05
-3.63955e-06
2.48511e-07
-5.64075e-07
9.41209e-06
4.48338e-06
1.95479e-05
6.87453e-06
2.05741e-05
5.87977e-06
1.0287e-05
1.95744e-06
7.07199e-06
2.18351e-06
1.38545e-06
-6.58187e-06
-7.27962e-07
2.13513e-05
-2.17884e-07
4.87649e-06
1.00312e-06
1.38e-05
3.50308e-06
1.51926e-05
5.96187e-07
-3.26027e-06
-4.91511e-06
-1.47715e-05
-6.59278e-06
-1.97314e-05
-6.25403e-06
-1.78978e-05
-8.01661e-06
-1.84955e-05
-1.10473e-05
-1.86677e-05
-1.19638e-05
-1.23777e-05
-1.01463e-05
-1.56892e-06
-6.77643e-06
6.04219e-06
-5.69949e-07
1.33415e-05
3.65383e-06
1.63503e-05
2.8572e-06
1.10836e-05
1.2464e-06
8.68279e-06
2.94581e-06
-3.13958e-07
-3.63606e-06
8.06788e-06
1.32834e-05
8.35831e-06
4.58606e-06
6.73102e-06
1.54273e-05
5.71693e-06
1.62067e-05
2.52654e-06
-6.98811e-08
-2.78104e-06
-9.46389e-06
-6.63725e-06
-1.58752e-05
-8.76403e-06
-1.57711e-05
-1.21925e-05
-1.5067e-05
-1.67187e-05
-1.41415e-05
-1.88377e-05
-1.02587e-05
-1.65617e-05
-3.84488e-06
-1.27223e-05
2.20276e-06
-7.47155e-06
8.09071e-06
-3.04604e-06
1.19248e-05
-2.07154e-06
1.01091e-05
-2.28488e-07
6.83974e-06
1.41982e-06
-1.96227e-06
-2.21624e-06
4.53834e-06
4.86493e-06
3.55022e-06
-1.92202e-06
-8.12828e-07
-2.93523e-06
-2.90839e-06
-5.02118e-06
-2.92976e-06
-8.9429e-06
-1.84311e-06
-1.42343e-05
-8.88058e-08
-1.98574e-05
2.44691e-06
-2.48202e-05
5.40792e-06
-2.75356e-05
8.68713e-06
-2.86483e-05
1.26798e-05
-3.00275e-05
1.74543e-05
-3.0766e-05
2.27329e-05
-2.95082e-05
2.84096e-05
-2.61592e-05
3.44549e-05
-2.0496e-05
4.06667e-05
-1.15949e-05
4.77549e-05
-7.06671e-07
5.54023e-05
1.06656e-05
6.26629e-05
1.92811e-05
6.7436e-05
2.60934e-05
6.99319e-05
3.37628e-05
7.40954e-05
4.19942e-05
5.32656e-05
9.32479e-05
-1.90767e-06
6.77261e-06
-1.40743e-05
1.02446e-05
-2.08646e-05
3.85506e-06
-2.13003e-05
-4.58551e-06
-1.80644e-05
-1.21787e-05
-1.34917e-05
-1.88071e-05
-1.01042e-05
-2.3245e-05
-7.92566e-06
-2.69987e-05
-7.15996e-06
-2.83013e-05
-7.4976e-06
-2.83106e-05
-8.13354e-06
-2.93915e-05
-7.32951e-06
-3.15701e-05
-3.94674e-06
-3.28909e-05
1.74976e-06
-3.18557e-05
8.91265e-06
-2.76589e-05
1.62003e-05
-1.88825e-05
2.36709e-05
-8.17727e-06
3.30601e-05
1.27648e-06
4.31252e-05
9.216e-06
5.27326e-05
1.6486e-05
6.29656e-05
2.35298e-05
7.56178e-05
2.9342e-05
3.42705e-05
9.46129e-05
-4.74534e-05
5.4226e-05
-3.60304e-05
-1.17847e-06
-1.95112e-05
-1.26641e-05
-5.32489e-06
-1.87719e-05
1.22322e-05
-2.97358e-05
2.857e-05
-3.51448e-05
3.83817e-05
-3.30567e-05
4.3797e-05
-3.2414e-05
4.63546e-05
-3.08589e-05
4.588e-05
-2.7836e-05
4.07938e-05
-2.43054e-05
3.17742e-05
-2.25504e-05
1.9892e-05
-2.10086e-05
9.68755e-06
-2.16513e-05
5.27463e-06
-2.3246e-05
4.68833e-06
-1.82963e-05
7.17591e-06
-1.06648e-05
1.14419e-05
-2.9895e-06
1.73766e-05
3.28126e-06
2.44299e-05
9.43265e-06
3.28024e-05
1.51574e-05
4.33205e-05
1.88239e-05
1.89857e-05
5.86054e-05
-3.01116e-05
8.43376e-05
-3.87276e-05
7.43725e-06
-2.43457e-05
-2.70461e-05
1.22495e-05
-5.53671e-05
5.55164e-05
-7.30028e-05
9.74666e-05
-7.70952e-05
0.000137655
-7.32452e-05
0.000168636
-6.33947e-05
0.000190651
-5.28746e-05
0.000207647
-4.48315e-05
0.000216869
-3.35276e-05
0.000205051
-1.07316e-05
0.000157231
2.68115e-05
0.000120192
1.53877e-05
8.13081e-05
1.56373e-05
5.5298e-05
7.71387e-06
4.39242e-05
7.08936e-07
4.06407e-05
2.93986e-07
3.65329e-05
7.3891e-06
3.06441e-05
1.53214e-05
2.72409e-05
1.85606e-05
3.27108e-05
1.3354e-05
4.78413e-07
5.12181e-05
-1.43442e-05
9.86816e-05
-1.84065e-05
1.14995e-05
7.10007e-07
-4.61627e-05
3.00483e-05
-8.47055e-05
6.64883e-05
-0.000109443
0.000110036
-0.000120643
0.000153138
-0.000116348
0.000185881
-9.61377e-05
0.000205644
-7.26369e-05
0.000219259
-5.84467e-05
0.000234925
-4.91948e-05
0.000253094
-2.89006e-05
0.000270069
9.83671e-06
0.00025484
3.06161e-05
0.000219482
5.09961e-05
0.000167131
6.00649e-05
0.000126753
4.10867e-05
0.000113182
1.38653e-05
0.00011049
1.00802e-05
0.000117631
8.1808e-06
0.000126516
9.67563e-06
0.000103312
3.65579e-05
5.72519e-05
4.65386e-05
1.96833e-06
9.67132e-05
8.8584e-06
4.60958e-06
2.20964e-05
-5.94007e-05
4.51619e-05
-0.000107771
7.84153e-05
-0.000142696
0.000120959
-0.000163186
0.000161416
-0.000156806
0.000191951
-0.000126672
0.00021045
-9.11359e-05
0.000219187
-6.71839e-05
0.000222847
-5.28546e-05
0.00023109
-3.7143e-05
0.000252338
-1.14116e-05
0.000266593
1.63615e-05
0.000269462
4.81265e-05
0.000254099
7.54282e-05
0.000220442
7.47444e-05
0.000183242
5.10647e-05
0.000155954
3.73688e-05
0.000123116
4.10181e-05
7.18492e-05
6.09427e-05
1.07104e-05
9.76969e-05
0.000114902
-4.69399e-05
1.86653e-05
7.80481e-05
2.36921e-05
-4.17207e-07
3.29296e-05
-6.86384e-05
5.26068e-05
-0.000127449
8.54254e-05
-0.000175515
0.000121875
-0.000199635
0.000150886
-0.000185817
0.000173328
-0.000149114
0.000190843
-0.000108651
0.000200597
-7.6938e-05
0.000201972
-5.42288e-05
0.000201525
-3.66968e-05
0.000205421
-1.53073e-05
0.000211536
1.02469e-05
0.000216188
4.34739e-05
0.000210939
8.06775e-05
0.000190694
9.49894e-05
0.000157582
8.41768e-05
0.000117171
7.77797e-05
6.1537e-05
9.66518e-05
-1.01992e-05
0.000132679
-7.10035e-05
0.000158501
0.000151264
-0.000107366
2.3806e-05
5.42421e-05
3.22364e-05
-8.84762e-06
3.93606e-05
-7.57627e-05
5.99231e-05
-0.000148011
8.74433e-05
-0.000203035
0.000111718
-0.00022391
0.000126899
-0.000200998
0.000134228
-0.000156443
0.000138023
-0.000112446
0.000137622
-7.65374e-05
0.000140834
-5.74404e-05
0.000146325
-4.21874e-05
0.000150368
-1.93505e-05
0.000149633
1.0982e-05
0.000146929
4.61785e-05
0.000144311
8.32951e-05
0.000133124
0.000106177
0.000105666
0.000111634
5.84661e-05
0.000124979
-7.6619e-06
0.00016278
-7.19901e-05
0.000197007
-0.000110616
0.000197128
0.000164129
-0.000123481
2.61015e-05
2.81406e-05
3.12671e-05
-1.40132e-05
4.28169e-05
-8.73123e-05
6.14532e-05
-0.000166647
7.53241e-05
-0.000216906
8.591e-05
-0.000234496
8.77728e-05
-0.000202861
8.06356e-05
-0.000149305
6.82741e-05
-0.000100085
5.88795e-05
-6.71427e-05
6.88547e-05
-6.74155e-05
8.21418e-05
-5.5474e-05
8.86133e-05
-2.58219e-05
8.84976e-05
1.10978e-05
8.66885e-05
4.79875e-05
8.48455e-05
8.51378e-05
7.5709e-05
0.000115313
4.80569e-05
0.000139286
-2.60205e-06
0.000175639
-5.9565e-05
0.000219743
-9.89854e-05
0.000236428
-0.00011374
0.000211882
0.00016319
-0.000112801
2.22946e-05
5.846e-06
2.93851e-05
-2.11037e-05
4.60387e-05
-0.000103966
5.47886e-05
-0.000175397
5.73694e-05
-0.000219487
5.31349e-05
-0.000230262
4.25267e-05
-0.000192253
2.29322e-05
-0.000129711
3.63033e-06
-8.0783e-05
1.96284e-06
-6.5475e-05
1.08296e-05
-7.62824e-05
1.97892e-05
-6.44335e-05
2.55337e-05
-3.15663e-05
3.00563e-05
6.57545e-06
3.38159e-05
4.42278e-05
3.34322e-05
8.55213e-05
2.25737e-05
0.000126172
-7.06412e-06
0.000168924
-4.8686e-05
0.00021726
-8.12143e-05
0.000252271
-9.35631e-05
0.000248777
-8.99399e-05
0.000208259
0.000152985
-7.97348e-05
1.88583e-05
-1.30122e-05
3.46839e-05
-3.69291e-05
4.60326e-05
-0.000115314
4.16824e-05
-0.000171047
3.69893e-05
-0.000214793
2.32509e-05
-0.000216523
3.86231e-06
-0.000172864
-2.13468e-05
-0.000104502
-3.79332e-05
-6.41965e-05
-3.37315e-05
-6.96762e-05
-3.12227e-05
-7.87911e-05
-3.21528e-05
-6.35033e-05
-2.80807e-05
-3.56384e-05
-2.05997e-05
-9.05633e-07
-1.49075e-05
3.85355e-05
-1.59124e-05
8.65263e-05
-2.74421e-05
0.000137702
-4.89117e-05
0.000190394
-6.85266e-05
0.000236875
-7.37311e-05
0.000257476
-6.41521e-05
0.000239198
-4.73521e-05
0.000191459
0.000134613
-2.89801e-05
1.67244e-05
-2.97366e-05
4.52154e-05
-6.54201e-05
4.34792e-05
-0.000113578
2.69179e-05
-0.000154486
1.10676e-05
-0.000198943
-5.20897e-06
-0.000200247
-2.30192e-05
-0.000155054
-4.36706e-05
-8.38503e-05
-5.2514e-05
-5.53531e-05
-5.47855e-05
-6.74046e-05
-6.02614e-05
-7.33149e-05
-6.69943e-05
-5.67703e-05
-6.82807e-05
-3.43523e-05
-6.27349e-05
-6.45155e-06
-5.87577e-05
3.45585e-05
-5.87606e-05
8.65293e-05
-6.27963e-05
0.000141737
-6.64447e-05
0.000194042
-6.12368e-05
0.000231667
-4.3957e-05
0.000240196
-1.93788e-05
0.000214619
6.52374e-06
0.000165556
0.000110461
3.0676e-05
1.04231e-05
-4.01598e-05
4.53501e-05
-0.000100347
3.91207e-05
-0.000107349
1.39623e-05
-0.000129327
-1.24261e-05
-0.000172555
-2.92158e-05
-0.000183457
-4.1016e-05
-0.000143254
-5.09629e-05
-7.3903e-05
-5.90372e-05
-4.72786e-05
-6.71992e-05
-5.92428e-05
-7.50011e-05
-6.5513e-05
-8.20457e-05
-4.97257e-05
-8.88373e-05
-2.75607e-05
-8.96642e-05
-5.62468e-06
-8.65361e-05
3.14303e-05
-8.10831e-05
8.10762e-05
-7.24392e-05
0.000133093
-5.72651e-05
0.000178868
-3.24005e-05
0.000206803
2.92875e-07
0.000207503
3.47174e-05
0.000180195
6.51592e-05
0.000135114
8.35976e-05
9.20224e-05
3.24171e-06
-4.34015e-05
3.00168e-05
-0.000127123
2.95578e-05
-0.00010689
6.06299e-06
-0.000105832
-2.64135e-05
-0.000140079
-4.80888e-05
-0.000161781
-5.43914e-05
-0.000136951
-5.3955e-05
-7.43392e-05
-5.96731e-05
-4.15605e-05
-7.10217e-05
-4.78943e-05
-8.13367e-05
-5.5198e-05
-8.62621e-05
-4.48003e-05
-9.04182e-05
-2.34046e-05
-9.34593e-05
-2.58367e-06
-8.85708e-05
2.65418e-05
-7.57431e-05
6.82484e-05
-5.5691e-05
0.000113041
-2.72536e-05
0.000150431
9.46584e-06
0.000170083
5.04229e-05
0.000166545
8.91955e-05
0.000141422
0.000122126
0.000102184
5.66496e-05
0.000149074
1.76616e-06
-4.51679e-05
9.99013e-06
-0.000135347
1.72055e-05
-0.000114106
6.79639e-06
-9.54233e-05
-2.53577e-05
-0.000107924
-5.52783e-05
-0.000131861
-6.4202e-05
-0.000128028
-5.47888e-05
-8.37524e-05
-5.20916e-05
-4.42577e-05
-6.17472e-05
-3.82389e-05
-7.58595e-05
-4.10858e-05
-8.37721e-05
-3.68876e-05
-8.19237e-05
-2.52531e-05
-7.60459e-05
-8.46162e-06
-6.58755e-05
1.63714e-05
-4.73725e-05
4.97456e-05
-2.0879e-05
8.65479e-05
1.36757e-05
0.000115876
5.48016e-05
0.000128957
9.80481e-05
0.000123299
0.000137738
0.000101732
0.0001704
6.95221e-05
3.18748e-05
0.000195175
2.16963e-06
-4.73376e-05
-4.49977e-06
-0.000128677
5.89583e-06
-0.000124501
1.42582e-05
-0.000103786
-6.99204e-06
-8.6674e-05
-4.36751e-05
-9.51781e-05
-6.78517e-05
-0.000103851
-6.19349e-05
-8.96693e-05
-4.816e-05
-5.80327e-05
-4.30488e-05
-4.33501e-05
-4.72106e-05
-3.6924e-05
-5.34775e-05
-3.06207e-05
-5.40811e-05
-2.46495e-05
-4.59323e-05
-1.66105e-05
-2.87852e-05
-7.75535e-07
-6.37002e-06
2.73305e-05
2.15002e-05
5.86776e-05
5.58411e-05
8.15352e-05
9.58763e-05
8.89221e-05
0.000137327
8.1848e-05
0.000175043
6.40163e-05
0.000205686
3.88791e-05
1.04619e-05
0.000227099
3.7888e-06
-5.11265e-05
-6.59745e-06
-0.000118291
1.5167e-07
-0.000131251
1.8338e-05
-0.000121972
1.90136e-05
-8.73499e-05
-1.24132e-05
-6.37512e-05
-5.27634e-05
-6.3501e-05
-6.99585e-05
-7.24744e-05
-6.53322e-05
-6.2659e-05
-5.45058e-05
-5.41763e-05
-4.34325e-05
-4.79973e-05
-3.18468e-05
-4.22063e-05
-1.84011e-05
-3.80952e-05
-8.26399e-07
-3.41851e-05
1.81141e-05
-1.9716e-05
4.20927e-05
3.35187e-06
6.6371e-05
3.43991e-05
9.54319e-05
5.24743e-05
0.000130598
5.37564e-05
0.000167608
4.48374e-05
0.000201056
3.0569e-05
0.000226347
1.35884e-05
-3.21418e-06
0.000240023
7.99286e-06
-5.91193e-05
5.54812e-06
-0.000115846
6.29384e-06
-0.000131996
1.78092e-05
-0.000133488
3.52308e-05
-0.000104772
2.812e-05
-5.66404e-05
-8.60448e-06
-2.67766e-05
-4.58305e-05
-3.52486e-05
-6.40908e-05
-4.43985e-05
-6.76479e-05
-5.06189e-05
-6.26939e-05
-5.29513e-05
-5.29135e-05
-5.19867e-05
-3.89757e-05
-5.20329e-05
-1.97803e-05
-5.33804e-05
8.82778e-06
-4.83242e-05
4.19761e-05
-2.97966e-05
7.2609e-05
3.7662e-06
0.000102423
2.26605e-05
0.000135749
2.04301e-05
0.000168154
1.24329e-05
0.000194564
4.15859e-06
0.000211847
-3.69458e-06
-1.11539e-05
0.000219787
1.34005e-05
-7.25198e-05
2.19719e-05
-0.000124418
2.20396e-05
-0.000132064
2.09292e-05
-0.000132377
3.39604e-05
-0.000117803
4.91794e-05
-7.18594e-05
3.94718e-05
-1.7069e-05
9.95546e-06
-5.73217e-06
-1.08044e-05
-2.36383e-05
-2.05729e-05
-4.08502e-05
-2.23247e-05
-5.11995e-05
-1.78817e-05
-5.64298e-05
-8.79335e-06
-6.11212e-05
3.15276e-06
-6.53266e-05
1.72095e-05
-6.23809e-05
3.3041e-05
-4.56281e-05
5.30327e-05
-1.62254e-05
7.95648e-05
-3.8714e-06
0.000110875
-1.08798e-05
0.000141099
-1.77918e-05
0.000164878
-1.96203e-05
0.000180374
-1.91899e-05
-1.87153e-05
0.000187935
1.4676e-05
-8.71959e-05
2.75162e-05
-0.000137258
2.91403e-05
-0.000133688
2.33819e-05
-0.000126619
2.11015e-05
-0.000115522
3.56868e-05
-8.64448e-05
5.37999e-05
-3.51819e-05
5.50787e-05
-7.0108e-06
4.48144e-05
-1.33739e-05
3.89261e-05
-3.49619e-05
4.1723e-05
-5.39964e-05
4.98217e-05
-6.45285e-05
6.03111e-05
-7.16107e-05
7.2046e-05
-7.70616e-05
7.99089e-05
-7.02438e-05
8.4541e-05
-5.02601e-05
9.28772e-05
-2.45614e-05
0.000104484
-1.54776e-05
0.000118269
-2.46654e-05
0.00013313
-3.26523e-05
0.000144754
-3.12443e-05
0.000150618
-2.50545e-05
-1.87722e-05
0.000150675
8.13823e-06
-9.53342e-05
1.55128e-05
-0.000144632
1.28096e-05
-0.000130985
7.60175e-06
-0.000121411
4.04524e-07
-0.000108325
4.53404e-06
-9.05744e-05
2.4121e-05
-5.47688e-05
4.64472e-05
-2.93369e-05
5.71034e-05
-2.40302e-05
6.3233e-05
-4.10917e-05
7.39982e-05
-6.47616e-05
8.7774e-05
-7.83043e-05
0.000103118
-8.69549e-05
0.00011194
-8.58828e-05
0.000113552
-7.18563e-05
0.00011269
-4.93983e-05
0.00011325
-2.51208e-05
0.000108884
-1.11116e-05
0.000102648
-1.84296e-05
9.86134e-05
-2.86177e-05
9.71213e-05
-2.97521e-05
9.83529e-05
-2.6286e-05
-2.20819e-05
0.000101663
-7.23794e-07
-9.46102e-05
-4.94671e-06
-0.000140409
-1.29612e-05
-0.00012297
-1.91989e-05
-0.000115173
-2.33977e-05
-0.000104126
-2.38664e-05
-9.01058e-05
-9.9199e-06
-6.87153e-05
9.08472e-06
-4.83416e-05
3.12337e-05
-4.61793e-05
5.31751e-05
-6.30332e-05
7.36511e-05
-8.52377e-05
9.08397e-05
-9.54928e-05
0.000103536
-9.96512e-05
0.00010834
-9.06864e-05
0.000106151
-6.9668e-05
9.90558e-05
-4.23027e-05
8.98311e-05
-1.58961e-05
7.59301e-05
2.78927e-06
6.32546e-05
-5.75414e-06
5.25655e-05
-1.79285e-05
4.79351e-05
-2.51216e-05
5.09522e-05
-2.93031e-05
-2.70474e-05
5.59177e-05
-7.29827e-06
-8.73118e-05
-2.07872e-05
-0.00012692
-2.84842e-05
-0.000115273
-3.28029e-05
-0.000110854
-3.42631e-05
-0.000102667
-3.21445e-05
-9.22243e-05
-2.16714e-05
-7.91885e-05
-2.08844e-06
-6.79246e-05
2.34302e-05
-7.16981e-05
4.65773e-05
-8.61803e-05
5.99414e-05
-9.86018e-05
6.77246e-05
-0.000103276
6.95883e-05
-0.000101515
6.84812e-05
-8.95793e-05
6.35778e-05
-6.47647e-05
5.24401e-05
-3.1165e-05
3.41347e-05
2.40925e-06
2.17089e-05
1.52151e-05
1.08966e-05
5.05818e-06
-1.03863e-06
-5.99313e-06
-6.60033e-06
-1.95598e-05
-1.02921e-05
-2.56113e-05
-1.42269e-05
-2.31128e-05
-8.93701e-06
-7.83748e-05
-2.29834e-05
-0.000112874
-2.73881e-05
-0.000110868
-2.90949e-05
-0.000109148
-2.70908e-05
-0.000104671
-1.8227e-05
-0.000101088
-3.83575e-06
-9.35798e-05
1.30487e-05
-8.48092e-05
2.62654e-05
-8.49149e-05
3.14516e-05
-9.13665e-05
2.95344e-05
-9.66846e-05
2.56621e-05
-9.94037e-05
2.02978e-05
-9.61507e-05
1.28022e-05
-8.20837e-05
1.58037e-06
-5.35429e-05
-1.49147e-05
-1.46698e-05
-2.85392e-05
1.60337e-05
-3.29343e-05
1.96102e-05
-4.67219e-05
1.88459e-05
-6.50512e-05
1.23362e-05
-8.37163e-05
-8.94643e-07
-0.000103702
-5.62528e-06
7.95002e-06
-0.000125879
-4.36825e-06
-7.40066e-05
-1.56795e-05
-0.000101562
-1.86578e-05
-0.00010789
-2.03267e-05
-0.000107479
-1.85897e-05
-0.000106408
-1.11208e-05
-0.000108557
-7.46476e-07
-0.000103954
7.15791e-06
-9.27138e-05
6.73363e-06
-8.44907e-05
1.4704e-06
-8.61032e-05
-4.5107e-06
-9.07035e-05
-1.21535e-05
-9.17609e-05
-2.38041e-05
-8.45002e-05
-4.03517e-05
-6.55361e-05
-5.6742e-05
-3.71526e-05
-6.38804e-05
-7.5314e-06
-6.20332e-05
1.41866e-05
-7.2877e-05
3.04541e-05
-9.42067e-05
4.01757e-05
-0.000116932
3.50612e-05
-0.000141187
2.33607e-05
-0.000165355
1.85424e-05
2.94257e-05
-0.000186831
-1.79981e-06
-7.22066e-05
-8.51852e-06
-9.48438e-05
-1.09193e-05
-0.00010549
-1.46147e-05
-0.000103783
-1.66759e-05
-0.000104347
-1.66453e-05
-0.000108588
-1.50391e-05
-0.00010556
-1.46763e-05
-9.30766e-05
-1.68097e-05
-8.23573e-05
-2.01853e-05
-8.27275e-05
-2.4858e-05
-8.60308e-05
-3.23037e-05
-8.43152e-05
-4.37572e-05
-7.30467e-05
-5.67804e-05
-5.25128e-05
-6.592e-05
-2.80129e-05
-6.94332e-05
-4.0181e-06
-7.78236e-05
2.25771e-05
-9.68988e-05
4.95293e-05
-0.00011862
6.18968e-05
-0.000138803
5.52442e-05
-0.000160137
4.46943e-05
-0.000182662
4.10673e-05
5.03317e-05
-0.000203568
-2.66826e-06
-6.95384e-05
-4.17644e-06
-9.33359e-05
-6.52477e-06
-0.000103141
-1.21936e-05
-9.81144e-05
-1.76263e-05
-9.89139e-05
-2.33007e-05
-0.000102913
-2.73724e-05
-0.000101489
-2.99061e-05
-9.05428e-05
-3.10068e-05
-8.12564e-05
-3.26484e-05
-8.10858e-05
-3.49447e-05
-8.37345e-05
-3.81269e-05
-8.11329e-05
-4.35046e-05
-6.76689e-05
-5.1808e-05
-4.42093e-05
-6.07994e-05
-1.90213e-05
-6.90857e-05
4.26821e-06
-8.35581e-05
3.70495e-05
-0.000103855
6.98261e-05
-0.000121397
7.94384e-05
-0.000136154
7.00019e-05
-0.000151496
6.00355e-05
-0.000167732
5.73035e-05
6.32949e-05
-0.000180695
-4.718e-06
-6.48205e-05
-2.57113e-06
-9.54829e-05
-5.22282e-06
-0.000100489
-1.14677e-05
-9.18694e-05
-1.8559e-05
-9.18226e-05
-2.61701e-05
-9.53021e-05
-3.28364e-05
-9.48224e-05
-3.6543e-05
-8.6836e-05
-3.77185e-05
-8.00808e-05
-3.8397e-05
-8.04073e-05
-3.90762e-05
-8.30552e-05
-3.95759e-05
-8.06331e-05
-4.09598e-05
-6.62849e-05
-4.61875e-05
-3.89814e-05
-5.58269e-05
-9.38188e-06
-6.72533e-05
1.56946e-05
-8.16709e-05
5.14669e-05
-9.87712e-05
8.69264e-05
-0.000110855
9.15223e-05
-0.000118696
7.78424e-05
-0.000126184
6.7524e-05
-0.000134074
6.51931e-05
6.8554e-05
-0.000139333
-5.38049e-06
-5.94401e-05
-2.45543e-06
-9.84078e-05
-5.72282e-06
-9.72219e-05
-1.10549e-05
-8.65372e-05
-1.81244e-05
-8.4753e-05
-2.54181e-05
-8.80083e-05
-3.2096e-05
-8.81443e-05
-3.57684e-05
-8.31635e-05
-3.65628e-05
-7.92865e-05
-3.72097e-05
-7.97603e-05
-3.84521e-05
-8.18127e-05
-3.89595e-05
-8.01256e-05
-3.82678e-05
-6.69765e-05
-4.01211e-05
-3.7128e-05
-4.92425e-05
-2.60532e-07
-6.25481e-05
2.90001e-05
-7.48111e-05
6.37299e-05
-8.77744e-05
9.98897e-05
-9.60225e-05
9.97704e-05
-9.90578e-05
8.08777e-05
-0.000101522
6.99884e-05
-0.000104821
6.84915e-05
7.00025e-05
-0.000106269
-2.15393e-06
-5.72861e-05
-2.12102e-06
-9.84404e-05
-6.46926e-06
-9.28736e-05
-1.02824e-05
-8.2724e-05
-1.59648e-05
-7.90705e-05
-2.19981e-05
-8.19749e-05
-2.67903e-05
-8.33522e-05
-2.96227e-05
-8.03311e-05
-3.07546e-05
-7.81546e-05
-3.25624e-05
-7.79524e-05
-3.54761e-05
-7.8899e-05
-3.7371e-05
-7.82306e-05
-3.63831e-05
-6.79643e-05
-3.52989e-05
-3.82123e-05
-4.16609e-05
6.10149e-06
-5.54075e-05
4.27467e-05
-6.60245e-05
7.43469e-05
-7.57745e-05
0.00010964
-8.35069e-05
0.000107503
-8.64003e-05
8.3771e-05
-8.94273e-05
7.30152e-05
-9.3383e-05
7.24471e-05
7.14479e-05
-9.48285e-05
2.43224e-06
-5.97182e-05
-1.73622e-06
-9.42719e-05
-6.89847e-06
-8.77114e-05
-9.39983e-06
-8.02226e-05
-1.31562e-05
-7.53141e-05
-1.76225e-05
-7.75086e-05
-2.09473e-05
-8.00275e-05
-2.35004e-05
-7.7778e-05
-2.5602e-05
-7.60531e-05
-2.86342e-05
-7.49201e-05
-3.26674e-05
-7.48657e-05
-3.57533e-05
-7.51448e-05
-3.53967e-05
-6.83209e-05
-3.23104e-05
-4.12986e-05
-3.43412e-05
8.13239e-06
-4.66683e-05
5.5074e-05
-5.72001e-05
8.48788e-05
-6.53905e-05
0.00011783
-7.56649e-05
0.000117777
-8.22877e-05
9.03937e-05
-8.95334e-05
8.02607e-05
-9.65603e-05
7.9474e-05
7.39445e-05
-9.90568e-05
3.80088e-06
-6.3519e-05
-2.27045e-06
-8.82007e-05
-7.10769e-06
-8.28742e-05
-8.9128e-06
-7.84175e-05
-1.10682e-05
-7.31587e-05
-1.43543e-05
-7.42226e-05
-1.72239e-05
-7.71581e-05
-1.99905e-05
-7.50114e-05
-2.28353e-05
-7.32083e-05
-2.61732e-05
-7.15822e-05
-3.01298e-05
-7.09091e-05
-3.36587e-05
-7.1616e-05
-3.42392e-05
-6.77404e-05
-3.04616e-05
-4.50763e-05
-2.77729e-05
5.44387e-06
-3.67014e-05
6.40025e-05
-4.86503e-05
9.68277e-05
-5.70656e-05
0.000126245
-7.19786e-05
0.00013269
-8.38938e-05
0.000102309
-9.4538e-05
9.0905e-05
-0.000102974
8.79095e-05
7.68008e-05
-0.00010583
2.9202e-06
-6.64393e-05
-2.99206e-06
-8.22885e-05
-6.98458e-06
-7.88817e-05
-8.8189e-06
-7.65832e-05
-1.01071e-05
-7.18706e-05
-1.26003e-05
-7.17295e-05
-1.54484e-05
-7.431e-05
-1.83128e-05
-7.21469e-05
-2.12199e-05
-7.03011e-05
-2.42325e-05
-6.85695e-05
-2.77198e-05
-6.74218e-05
-3.14541e-05
-6.78817e-05
-3.3098e-05
-6.60965e-05
-2.96304e-05
-4.85439e-05
-2.34528e-05
-7.33727e-07
-2.62603e-05
6.681e-05
-3.96843e-05
0.000110252
-4.90308e-05
0.000135592
-7.04174e-05
0.000154077
-8.85416e-05
0.000120433
-0.00010058
0.000102944
-0.000106743
9.40723e-05
7.85437e-05
-0.000108486
1.64258e-06
-6.80819e-05
-3.20402e-06
-7.74419e-05
-6.4849e-06
-7.56008e-05
-8.62334e-06
-7.44448e-05
-9.65792e-06
-7.0836e-05
-1.15488e-05
-6.98386e-05
-1.42653e-05
-7.15934e-05
-1.69198e-05
-6.94923e-05
-1.95267e-05
-6.76941e-05
-2.22092e-05
-6.5887e-05
-2.53722e-05
-6.42589e-05
-2.9242e-05
-6.40119e-05
-3.19433e-05
-6.33952e-05
-2.96904e-05
-5.07967e-05
-2.16096e-05
-8.81458e-06
-1.69293e-05
6.21297e-05
-2.82605e-05
0.000121583
-3.78038e-05
0.000145135
-6.6164e-05
0.000182437
-9.17186e-05
0.000145987
-0.000107896
0.000119121
-0.000113029
9.92047e-05
7.73278e-05
-0.000111813
4.90138e-07
-6.8572e-05
-3.0391e-06
-7.39127e-05
-5.68941e-06
-7.29506e-05
-7.90347e-06
-7.22308e-05
-8.97256e-06
-6.97669e-05
-1.042e-05
-6.8391e-05
-1.28227e-05
-6.91906e-05
-1.51458e-05
-6.71692e-05
-1.74482e-05
-6.53917e-05
-1.99247e-05
-6.34106e-05
-2.28418e-05
-6.13419e-05
-2.66678e-05
-6.0186e-05
-3.02542e-05
-5.98089e-05
-2.96375e-05
-5.14134e-05
-2.14903e-05
-1.69617e-05
-9.82714e-06
5.04668e-05
-1.19979e-05
0.000123754
-2.06817e-05
0.000153819
-5.1066e-05
0.000212821
-8.43119e-05
0.000179233
-0.000107352
0.000142162
-0.000118014
0.000109866
7.58562e-05
-0.000116542
-3.36446e-07
-6.82356e-05
-2.69547e-06
-7.15538e-05
-4.73425e-06
-7.09119e-05
-6.71485e-06
-7.02502e-05
-7.86459e-06
-6.86171e-05
-9.06054e-06
-6.7195e-05
-1.11138e-05
-6.71373e-05
-1.31222e-05
-6.51609e-05
-1.5175e-05
-6.33389e-05
-1.74261e-05
-6.11596e-05
-2.00193e-05
-5.87487e-05
-2.35114e-05
-5.66939e-05
-2.75305e-05
-5.57898e-05
-2.84216e-05
-5.05222e-05
-2.13604e-05
-2.40227e-05
-5.96583e-06
3.50724e-05
5.66457e-06
0.000112124
2.12564e-06
0.000157358
-2.17197e-05
0.000236666
-6.06569e-05
0.000218171
-9.0472e-05
0.000171977
-0.000108543
0.000127937
8.12714e-05
-0.000113958
-6.35664e-07
-6.76e-05
-2.27986e-06
-6.99098e-05
-3.82892e-06
-6.93629e-05
-5.4255e-06
-6.86536e-05
-6.58907e-06
-6.74535e-05
-7.68346e-06
-6.61007e-05
-9.41744e-06
-6.54034e-05
-1.1117e-05
-6.34614e-05
-1.29007e-05
-6.15552e-05
-1.48236e-05
-5.92368e-05
-1.69685e-05
-5.66038e-05
-1.98156e-05
-5.38469e-05
-2.36076e-05
-5.19976e-05