/*--------------------------------*- C++ -*----------------------------------*\
| =========                 |                                                 |
| \\      /  F ield         | OpenFOAM: The Open Source CFD Toolbox           |
|  \\    /   O peration     | Version:  2.3.0                                 |
|   \\  /    A nd           | Web:      www.OpenFOAM.org                      |
|    \\/     M anipulation  |                                                 |
\*---------------------------------------------------------------------------*/
FoamFile
{
    version     2.0;
    format      ascii;
    class       volVectorField;
    location    "2.85";
    object      U;
}
// * * * * * * * * * * * * * * * * * * * * * * * * * * * * * * * * * * * * * //

dimensions      [0 1 -1 0 0 0 0];

internalField   nonuniform List<vector> 
2268
(
(-0.0173751 0.00205461 0)
(-0.0223049 -0.00560717 0)
(-0.0176553 -0.00773934 0)
(-0.00719019 -0.00430636 0)
(-0.000281729 -0.00543679 0)
(0.0226583 -0.00757961 0)
(0.0555927 -0.00300183 0)
(0.0581326 0.00411903 0)
(0.033779 0.00552653 0)
(0.0247514 0.000894758 0)
(0.0393071 -0.00500666 0)
(0.0734974 -0.00972897 0)
(0.123642 -0.0123572 0)
(0.182228 -0.0125453 0)
(0.235036 -0.00736365 0)
(0.252018 0.00384202 0)
(0.218548 0.0133519 0)
(0.161019 0.0148201 0)
(0.110219 0.00971499 0)
(0.0734794 0.00552854 0)
(0.0453322 0.00459453 0)
(0.00805107 0.00448515 0)
(-0.0079611 -0.00254051 0)
(-0.0160838 0.0172178 0)
(-0.032454 0.00514361 0)
(-0.06501 -0.00235039 0)
(-0.0596301 -0.00287796 0)
(-0.0614185 -0.0108637 0)
(-0.046691 -0.018371 0)
(-0.0115688 -0.0133152 0)
(0.0274108 0.00165367 0)
(0.0423486 0.00850936 0)
(0.0582455 -0.000245106 0)
(0.0876323 -0.0168225 0)
(0.126541 -0.0315961 0)
(0.175877 -0.0408362 0)
(0.233379 -0.0405587 0)
(0.285858 -0.0239828 0)
(0.319165 0.00350759 0)
(0.320633 0.0272061 0)
(0.287368 0.0365995 0)
(0.233568 0.0351853 0)
(0.170716 0.0302652 0)
(0.113581 0.0264325 0)
(0.0432186 0.0240606 0)
(0.00798576 0.00347946 0)
(0.00634385 0.0249672 0)
(-0.015282 0.0211955 0)
(-0.0667356 0.00208652 0)
(-0.0611522 -0.00282479 0)
(-0.0617342 -0.013625 0)
(-0.0536727 -0.0280143 0)
(-0.0382451 -0.0309201 0)
(-0.00348324 -0.0189062 0)
(0.0451449 -0.0114103 0)
(0.0976213 -0.0184058 0)
(0.146304 -0.0351537 0)
(0.191461 -0.0528305 0)
(0.236494 -0.0655701 0)
(0.28031 -0.0671978 0)
(0.322912 -0.0476242 0)
(0.35765 -0.00795535 0)
(0.361649 0.032887 0)
(0.32831 0.0550446 0)
(0.274133 0.0612773 0)
(0.21201 0.0604576 0)
(0.153116 0.0573549 0)
(0.0774471 0.0525637 0)
(0.025667 0.0241282 0)
(0.00654501 0.0193511 0)
(0.021881 0.0399448 0)
(-0.0149676 0.0136279 0)
(-0.0158974 -0.00434698 0)
(-0.0109435 -0.0168882 0)
(0.00102116 -0.032467 0)
(0.0190072 -0.0424174 0)
(0.051768 -0.0428925 0)
(0.101542 -0.041467 0)
(0.159111 -0.0456409 0)
(0.214216 -0.0580737 0)
(0.262671 -0.0734555 0)
(0.303291 -0.0838403 0)
(0.333743 -0.0829458 0)
(0.356296 -0.0627737 0)
(0.378102 -0.0162261 0)
(0.384853 0.0401326 0)
(0.353796 0.0767833 0)
(0.296258 0.0890874 0)
(0.236191 0.0892234 0)
(0.182899 0.0875702 0)
(0.111394 0.0844679 0)
(0.0444541 0.0564762 0)
(-0.0215201 0.0107155 0)
(0.0209565 0.0382298 0)
(0.0259895 0.0202854 0)
(0.0369504 0.000706568 0)
(0.0468039 -0.0184325 0)
(0.0609476 -0.0384878 0)
(0.0840261 -0.0538913 0)
(0.119345 -0.0622489 0)
(0.166679 -0.0666066 0)
(0.220708 -0.0714195 0)
(0.273166 -0.0818357 0)
(0.317606 -0.0939747 0)
(0.350527 -0.0993901 0)
(0.370461 -0.0925292 0)
(0.378711 -0.0690716 0)
(0.385123 -0.0209085 0)
(0.390486 0.0447533 0)
(0.370591 0.0961151 0)
(0.320807 0.116231 0)
(0.265082 0.115872 0)
(0.215503 0.115566 0)
(0.148041 0.118299 0)
(0.0659662 0.100328 0)
(-0.0446603 0.0207136 0)
(-0.0196035 0.0226497 0)
(0.0133514 0.00327057 0)
(0.0501261 -0.0109356 0)
(0.0763003 -0.0269431 0)
(0.0984028 -0.0480206 0)
(0.126145 -0.0674315 0)
(0.163726 -0.081158 0)
(0.208985 -0.0893714 0)
(0.256043 -0.0942002 0)
(0.299974 -0.101897 0)
(0.335855 -0.109726 0)
(0.359929 -0.109691 0)
(0.371964 -0.097235 0)
(0.374387 -0.0700591 0)
(0.373989 -0.021614 0)
(0.378103 0.0468227 0)
(0.372931 0.108666 0)
(0.343668 0.138187 0)
(0.301241 0.13994 0)
(0.255428 0.142383 0)
(0.19019 0.154882 0)
(0.0888506 0.161743 0)
(-0.0480343 0.0382878 0)
(-0.0216361 0.00579897 0)
(0.0206963 -0.0193211 0)
(0.0585642 -0.0296449 0)
(0.0835308 -0.0413728 0)
(0.103491 -0.0616453 0)
(0.127136 -0.0833599 0)
(0.158688 -0.100105 0)
(0.196382 -0.109432 0)
(0.235517 -0.11325 0)
(0.27218 -0.118182 0)
(0.301797 -0.121638 0)
(0.322157 -0.11665 0)
(0.333887 -0.0999288 0)
(0.339696 -0.0698839 0)
(0.342684 -0.0217951 0)
(0.350396 0.0451508 0)
(0.359415 0.11108 0)
(0.35552 0.148989 0)
(0.334808 0.157984 0)
(0.298008 0.167766 0)
(0.239107 0.191325 0)
(0.127347 0.23139 0)
(-0.0330203 0.0508361 0)
(0.0139175 -0.0108593 0)
(0.0371604 -0.0372332 0)
(0.0526419 -0.0384172 0)
(0.0628116 -0.0457371 0)
(0.0711266 -0.0670495 0)
(0.0827755 -0.0938586 0)
(0.103466 -0.116366 0)
(0.131806 -0.12879 0)
(0.162439 -0.132779 0)
(0.193534 -0.135816 0)
(0.221649 -0.135202 0)
(0.245292 -0.125677 0)
(0.26377 -0.105424 0)
(0.279485 -0.0726787 0)
(0.293822 -0.023377 0)
(0.31045 0.041073 0)
(0.332201 0.106829 0)
(0.351025 0.150192 0)
(0.356742 0.168813 0)
(0.338565 0.190426 0)
(0.300071 0.233548 0)
(0.138081 0.343289 0)
(0.0067826 -0.00193795 0)
(-0.00976688 0.00714193 0)
(-0.0576629 0.0142188 0)
(-0.178123 0.023964 0)
(-0.214758 0.00397167 0)
(-0.1123 -0.025057 0)
(-0.019006 -0.0144786 0)
(0.0261529 -0.00831842 0)
(0.059091 -0.0159391 0)
(0.129525 -0.0215608 0)
(0.194676 -0.0151241 0)
(0.230883 0.00446859 0)
(0.177082 0.0229424 0)
(0.0487574 0.0184138 0)
(-0.0218483 0.0102012 0)
(-0.0692322 0.0135705 0)
(-0.101541 0.000850492 0)
(-0.071317 -0.0110381 0)
(-0.0274602 -0.0140621 0)
(-0.0173252 0.00281907 0)
(-0.0208255 0.0275183 0)
(-0.102578 0.0486193 0)
(-0.227 0.0435132 0)
(-0.174879 -0.01919 0)
(-0.0817241 -0.0777248 0)
(-0.00152461 -0.0452402 0)
(0.0570105 -0.0227397 0)
(0.0824921 -0.0323902 0)
(0.133921 -0.0460051 0)
(0.187983 -0.031071 0)
(0.215591 0.00902783 0)
(0.223907 0.0538276 0)
(0.115527 0.0639043 0)
(-0.0315652 0.0376019 0)
(-0.0618273 0.0236905 0)
(-0.0580491 -0.00135693 0)
(-0.0491587 -0.0198881 0)
(-0.026181 -0.035095 0)
(-0.0346931 0.0150501 0)
(-0.0362986 0.0452368 0)
(-0.0813488 0.0802774 0)
(-0.182926 0.0542166 0)
(-0.118423 -0.0421057 0)
(-0.085537 -0.112799 0)
(-0.0262009 -0.0762352 0)
(0.0398464 -0.0399775 0)
(0.0559159 -0.0484744 0)
(0.111709 -0.069971 0)
(0.153537 -0.046246 0)
(0.168988 0.00369006 0)
(0.186639 0.0670295 0)
(0.142011 0.104841 0)
(0.00947642 0.075024 0)
(-0.00924438 0.0256585 0)
(-0.00242232 -0.00422518 0)
(-0.0177166 -0.0177661 0)
(-0.0157144 -0.0476886 0)
(-0.0509038 0.0341459 0)
(-0.0600397 0.0520767 0)
(-0.0329062 0.0999889 0)
(-0.12178 0.0669203 0)
(-0.0622746 -0.0443277 0)
(-0.0825328 -0.124606 0)
(-0.0631028 -0.0941042 0)
(-0.00667537 -0.0519158 0)
(0.0161283 -0.067457 0)
(0.0762596 -0.0951499 0)
(0.102943 -0.0580709 0)
(0.12019 0.0029561 0)
(0.124504 0.0698772 0)
(0.133715 0.129016 0)
(0.0594157 0.10577 0)
(0.0431275 0.0350725 0)
(0.0439005 -0.00132726 0)
(0.00233158 -0.00596294 0)
(0.00378243 -0.0506875 0)
(-0.0650717 0.0613716 0)
(-0.0821581 0.0468395 0)
(0.0164124 0.10139 0)
(-0.0695532 0.0763347 0)
(-0.029412 -0.0479162 0)
(-0.0712705 -0.122583 0)
(-0.090233 -0.101921 0)
(-0.0401873 -0.0674314 0)
(-0.00710944 -0.0894565 0)
(0.0212498 -0.110315 0)
(0.0291545 -0.0630665 0)
(0.0516123 0.00386755 0)
(0.0386431 0.0658369 0)
(0.095691 0.131451 0)
(0.0844005 0.117014 0)
(0.0761882 0.0443506 0)
(0.060647 0.00847676 0)
(0.00537451 0.00477989 0)
(0.0283122 -0.0477222 0)
(-0.0595091 0.0805663 0)
(-0.0730292 0.0272215 0)
(0.0246507 0.0861736 0)
(-0.0147534 0.0888221 0)
(0.0107169 -0.0349228 0)
(-0.0516048 -0.10947 0)
(-0.100416 -0.104692 0)
(-0.0506617 -0.081729 0)
(-0.0344033 -0.0998879 0)
(-0.0489316 -0.110004 0)
(-0.0584902 -0.0650111 0)
(-0.0413702 0.00418295 0)
(-0.040001 0.0567417 0)
(0.0333748 0.113049 0)
(0.072237 0.11016 0)
(0.0786353 0.0500977 0)
(0.0492967 0.0244604 0)
(0.000889155 0.0104989 0)
(0.0426843 -0.0380481 0)
(-0.0421102 0.121657 0)
(0.0197835 0.0179107 0)
(-0.017704 0.066131 0)
(0.0292291 0.0818035 0)
(0.0459574 -0.022427 0)
(-0.0249478 -0.0857725 0)
(-0.0968353 -0.101468 0)
(-0.0601702 -0.0874971 0)
(-0.0733986 -0.0955774 0)
(-0.120147 -0.0999773 0)
(-0.146143 -0.0630961 0)
(-0.126858 -0.00151337 0)
(-0.102555 0.0390077 0)
(-0.0405463 0.0787604 0)
(0.031475 0.0893959 0)
(0.048091 0.0494772 0)
(0.0118526 0.0427757 0)
(0.0213969 0.00397735 0)
(0.037739 -0.0229706 0)
(0.017341 0.0866707 0)
(0.152188 0.0370058 0)
(0.0714095 0.0740476 0)
(0.0583593 0.0713131 0)
(0.0643328 -0.0122078 0)
(0.00814904 -0.0571722 0)
(-0.0793464 -0.0889064 0)
(-0.0798293 -0.0839872 0)
(-0.112799 -0.0827714 0)
(-0.175823 -0.0795653 0)
(-0.219595 -0.0552207 0)
(-0.207466 -0.0155272 0)
(-0.167171 0.0193682 0)
(-0.114553 0.0527305 0)
(-0.0475183 0.071304 0)
(-0.0259812 0.0587669 0)
(-0.0201948 0.0439209 0)
(0.0135973 -0.0064835 0)
(0.0155389 -0.00899627 0)
(0.00761623 0.0641166 0)
(0.0388096 -0.0130003 0)
(0.00388192 -0.0326949 0)
(-0.0136082 -0.0285046 0)
(-0.0172182 -0.0439865 0)
(-0.0134139 -0.0744709 0)
(-0.006277 -0.107307 0)
(0.00551196 -0.133545 0)
(0.0220563 -0.147305 0)
(0.0368744 -0.152514 0)
(0.0564722 -0.157057 0)
(0.0796191 -0.156233 0)
(0.106212 -0.145489 0)
(0.136178 -0.125478 0)
(0.167447 -0.0935233 0)
(0.201599 -0.0436386 0)
(0.238591 0.0188073 0)
(0.278197 0.0786507 0)
(0.318268 0.124201 0)
(0.354327 0.155525 0)
(0.371768 0.193933 0)
(0.411204 0.247039 0)
(0.412392 0.383731 0)
(0.0167253 -0.0212516 0)
(-0.0345445 -0.0166774 0)
(-0.115792 -0.0116362 0)
(-0.118557 -0.0437944 0)
(-0.108459 -0.0780376 0)
(-0.0841086 -0.108468 0)
(-0.0603291 -0.132554 0)
(-0.0450098 -0.148836 0)
(-0.0372049 -0.153959 0)
(-0.0382913 -0.157204 0)
(-0.0429718 -0.166396 0)
(-0.0451715 -0.17572 0)
(-0.0349705 -0.173392 0)
(-0.00728866 -0.158782 0)
(0.0258035 -0.132956 0)
(0.0669938 -0.0884994 0)
(0.109155 -0.0298569 0)
(0.152535 0.0294479 0)
(0.202624 0.0769831 0)
(0.257826 0.117196 0)
(0.307367 0.161874 0)
(0.371238 0.207865 0)
(0.445068 0.255408 0)
(-0.25521 0.097637 0)
(-0.214913 0.109145 0)
(-0.17362 0.0459073 0)
(-0.0710528 -0.0194192 0)
(0.0192301 -0.0815967 0)
(0.11756 -0.125404 0)
(0.187682 -0.146087 0)
(0.228762 -0.162069 0)
(0.247401 -0.160379 0)
(0.253756 -0.148696 0)
(0.238935 -0.143762 0)
(0.197446 -0.152839 0)
(0.140326 -0.165598 0)
(0.0773092 -0.163091 0)
(0.0341497 -0.139548 0)
(0.0213469 -0.0910478 0)
(0.0281141 -0.0438505 0)
(0.0487672 -0.00759371 0)
(0.0732348 0.0306731 0)
(0.108707 0.0743354 0)
(0.150997 0.113367 0)
(0.201575 0.137503 0)
(0.272913 0.133219 0)
(-0.219222 0.408523 0)
(-0.161073 -0.103201 0)
(-0.203967 -0.137466 0)
(-0.0328446 -0.162506 0)
(0.184669 -0.222598 0)
(0.406893 -0.236263 0)
(0.629657 -0.213878 0)
(0.826461 -0.195902 0)
(0.966936 -0.180037 0)
(1.06458 -0.154573 0)
(1.14055 -0.101192 0)
(1.10542 -0.0316405 0)
(1.01463 0.027368 0)
(0.795117 -0.0580752 0)
(0.527738 -0.0976782 0)
(0.343536 -0.0922139 0)
(0.248512 -0.0571702 0)
(0.222744 -0.0157835 0)
(0.206034 0.0239712 0)
(0.172046 0.0530135 0)
(0.147206 0.0682861 0)
(0.152344 0.0716337 0)
(0.214712 0.0568232 0)
(-0.0947139 0.559464 0)
(-0.101348 0.147698 0)
(-0.0571075 -0.208165 0)
(0.0793996 -0.402754 0)
(0.255711 -0.516469 0)
(0.466773 -0.548145 0)
(0.707599 -0.519189 0)
(0.920327 -0.436934 0)
(1.06445 -0.350363 0)
(1.14706 -0.297677 0)
(1.20925 -0.248855 0)
(1.30315 -0.0989964 0)
(1.44868 0.17374 0)
(1.38515 0.223912 0)
(1.32914 0.268661 0)
(1.0547 0.188551 0)
(0.756731 0.060551 0)
(0.628445 0.0101449 0)
(0.57903 0.0301972 0)
(0.570425 0.073163 0)
(0.629089 0.102764 0)
(0.708868 0.10375 0)
(0.532069 0.0106178 0)
(-0.0186825 0.543373 0)
(0.021443 0.00323336 0)
(0.0894381 -0.298029 0)
(0.175194 -0.52156 0)
(0.325548 -0.67388 0)
(0.532672 -0.761966 0)
(0.758216 -0.736189 0)
(0.956748 -0.592772 0)
(1.09849 -0.428711 0)
(1.16401 -0.337108 0)
(1.18442 -0.293419 0)
(1.19951 -0.225313 0)
(1.27678 -0.0781497 0)
(1.39813 0.0903337 0)
(1.47963 0.255756 0)
(1.4285 0.405307 0)
(1.27998 0.381907 0)
(1.09314 0.190166 0)
(0.914494 0.107339 0)
(0.756696 0.0557723 0)
(0.523217 0.0693099 0)
(0.253241 0.284015 0)
(-0.0926699 0.452087 0)
(0.0183684 0.474194 0)
(0.128871 0.0408616 0)
(0.159203 -0.340604 0)
(0.217408 -0.635044 0)
(0.365597 -0.861896 0)
(0.559409 -0.998905 0)
(0.732962 -0.956709 0)
(0.870444 -0.787709 0)
(0.988207 -0.577824 0)
(1.06153 -0.414362 0)
(1.08527 -0.303012 0)
(1.07436 -0.200782 0)
(1.08163 -0.0586826 0)
(1.10835 0.077786 0)
(1.15628 0.254993 0)
(1.18123 0.444044 0)
(1.10708 0.462446 0)
(0.944276 0.347857 0)
(0.756252 0.287913 0)
(0.499838 0.332557 0)
(0.14047 0.500583 0)
(-0.238749 0.708021 0)
(-0.512094 0.765794 0)
(0.0358052 0.382562 0)
(0.173586 -0.0244948 0)
(0.194494 -0.385395 0)
(0.25628 -0.74214 0)
(0.398256 -1.03901 0)
(0.535998 -1.16544 0)
(0.64302 -1.07183 0)
(0.704309 -0.855111 0)
(0.736239 -0.627952 0)
(0.751774 -0.438205 0)
(0.736407 -0.301479 0)
(0.759759 -0.19807 0)
(0.798068 -0.0891683 0)
(0.806253 0.0494306 0)
(0.797405 0.231856 0)
(0.801481 0.428346 0)
(0.768342 0.526908 0)
(0.665564 0.514025 0)
(0.481847 0.525708 0)
(0.146886 0.692274 0)
(-0.239101 0.916001 0)
(-0.5388 0.992591 0)
(-0.655 0.871406 0)
(0.0640875 0.228932 0)
(0.170211 -0.0675946 0)
(0.204519 -0.426528 0)
(0.271823 -0.854663 0)
(0.381475 -1.15124 0)
(0.427884 -1.26001 0)
(0.466923 -1.11295 0)
(0.460018 -0.847659 0)
(0.411167 -0.587162 0)
(0.355079 -0.382823 0)
(0.306326 -0.31954 0)
(0.384683 -0.268624 0)
(0.46588 -0.135063 0)
(0.49166 0.0493185 0)
(0.473621 0.248118 0)
(0.469941 0.445123 0)
(0.454092 0.585457 0)
(0.371733 0.659746 0)
(0.158213 0.799683 0)
(-0.182546 1.0502 0)
(-0.466085 1.1974 0)
(-0.612013 1.119 0)
(-0.62027 0.881956 0)
(0.077392 0.0806954 0)
(0.132187 -0.101065 0)
(0.221349 -0.523315 0)
(0.262201 -0.946887 0)
(0.332023 -1.19158 0)
(0.282537 -1.26857 0)
(0.251715 -1.07775 0)
(0.193156 -0.75647 0)
(0.0643548 -0.479851 0)
(0.0092357 -0.332452 0)
(0.00435021 -0.38504 0)
(0.0773446 -0.324104 0)
(0.118793 -0.150058 0)
(0.163953 0.0581463 0)
(0.173353 0.252711 0)
(0.19432 0.453608 0)
(0.176932 0.638597 0)
(0.0775975 0.824129 0)
(-0.140147 1.07664 0)
(-0.377928 1.3034 0)
(-0.507304 1.33283 0)
(-0.51705 1.1441 0)
(-0.460988 0.853576 0)
(0.0828244 -0.0259058 0)
(0.13358 -0.150542 0)
(0.241982 -0.618656 0)
(0.239282 -0.954026 0)
(0.236391 -1.18392 0)
(0.154316 -1.21037 0)
(0.056445 -0.981736 0)
(-0.0247247 -0.615443 0)
(-0.180609 -0.367917 0)
(-0.189838 -0.365584 0)
(-0.193621 -0.427267 0)
(-0.176459 -0.348654 0)
(-0.1675 -0.17609 0)
(-0.126121 0.0246865 0)
(-0.0919218 0.22725 0)
(-0.0630856 0.465247 0)
(-0.0931286 0.717466 0)
(-0.186017 0.991433 0)
(-0.324192 1.26113 0)
(-0.411419 1.40867 0)
(-0.398019 1.33891 0)
(-0.311697 1.09205 0)
(-0.20921 0.786864 0)
(0.0441297 -0.118756 0)
(0.175993 -0.256823 0)
(0.267014 -0.62272 0)
(0.209618 -0.886964 0)
(0.10339 -1.12822 0)
(0.0154379 -1.12519 0)
(-0.102151 -0.873767 0)
(-0.154044 -0.494642 0)
(-0.267119 -0.315809 0)
(-0.283147 -0.369763 0)
(-0.323916 -0.408771 0)
(-0.345254 -0.320183 0)
(-0.37152 -0.195115 0)
(-0.35757 -0.0212086 0)
(-0.321473 0.213036 0)
(-0.302281 0.486066 0)
(-0.31454 0.783455 0)
(-0.343316 1.07609 0)
(-0.357925 1.30325 0)
(-0.305349 1.3735 0)
(-0.185376 1.24578 0)
(-0.0377822 0.978054 0)
(0.0975415 0.675406 0)
(-0.0073911 -0.197187 0)
(0.157971 -0.443477 0)
(0.274343 -0.581769 0)
(0.17157 -0.765863 0)
(-0.00273118 -1.00744 0)
(-0.138204 -1.03464 0)
(-0.225281 -0.794766 0)
(-0.20591 -0.416234 0)
(-0.302708 -0.276581 0)
(-0.336907 -0.337313 0)
(-0.394188 -0.364312 0)
(-0.419012 -0.270011 0)
(-0.458574 -0.151238 0)
(-0.494033 -0.0405981 0)
(-0.472815 0.19328 0)
(-0.445707 0.479876 0)
(-0.410256 0.775322 0)
(-0.352774 1.04116 0)
(-0.255154 1.21361 0)
(-0.101079 1.23242 0)
(0.0856352 1.08355 0)
(0.266639 0.825726 0)
(0.422755 0.534728 0)
(-0.0197863 -0.231807 0)
(0.0721664 -0.643986 0)
(0.207456 -0.576771 0)
(0.135283 -0.62529 0)
(-0.0557917 -0.847039 0)
(-0.241277 -0.935041 0)
(-0.321219 -0.749854 0)
(-0.250863 -0.391181 0)
(-0.300022 -0.244178 0)
(-0.349525 -0.297273 0)
(-0.418665 -0.322106 0)
(-0.451364 -0.242278 0)
(-0.472266 -0.131618 0)
(-0.501521 -0.0170683 0)
(-0.493486 0.164658 0)
(-0.442367 0.421087 0)
(-0.357378 0.685262 0)
(-0.230975 0.908481 0)
(-0.0608992 1.03426 0)
(0.150649 1.02316 0)
(0.37043 0.8792 0)
(0.569208 0.650154 0)
(0.731588 0.385344 0)
(0.0157496 -0.240669 0)
(0.00293961 -0.729955 0)
(0.0888847 -0.5973 0)
(0.111798 -0.524021 0)
(-0.0286054 -0.668296 0)
(-0.249559 -0.803182 0)
(-0.378764 -0.712396 0)
(-0.310857 -0.407309 0)
(-0.258909 -0.215873 0)
(-0.303159 -0.229262 0)
(-0.36979 -0.282476 0)
(-0.441139 -0.244898 0)
(-0.450535 -0.124796 0)
(-0.42116 -0.0042633 0)
(-0.382242 0.130608 0)
(-0.306785 0.325321 0)
(-0.192045 0.544073 0)
(-0.0296497 0.723899 0)
(0.173037 0.810808 0)
(0.403919 0.78482 0)
(0.631766 0.659044 0)
(0.83209 0.466587 0)
(0.986728 0.240769 0)
(0.0462064 -0.248376 0)
(-0.0305807 -0.719408 0)
(-0.0161872 -0.636646 0)
(0.0892246 -0.513399 0)
(0.0710076 -0.500306 0)
(-0.141354 -0.619947 0)
(-0.351617 -0.648142 0)
(-0.383036 -0.479523 0)
(-0.275728 -0.259581 0)
(-0.236979 -0.198368 0)
(-0.233298 -0.180259 0)
(-0.267472 -0.172948 0)
(-0.298751 -0.154022 0)
(-0.269951 -0.0907302 0)
(-0.199536 0.0314665 0)
(-0.0968119 0.207143 0)
(0.0301188 0.387923 0)
(0.197169 0.524691 0)
(0.399261 0.580632 0)
(0.621989 0.549325 0)
(0.838555 0.446403 0)
(1.02817 0.294023 0)
(1.16898 0.113739 0)
(0.0467022 -0.264803 0)
(-0.0165461 -0.660423 0)
(-0.0469344 -0.692416 0)
(0.0507411 -0.604037 0)
(0.157328 -0.42897 0)
(0.048992 -0.405676 0)
(-0.195184 -0.469702 0)
(-0.382584 -0.463262 0)
(-0.37312 -0.334364 0)
(-0.321657 -0.252648 0)
(-0.262487 -0.209155 0)
(-0.20104 -0.163316 0)
(-0.13828 -0.12775 0)
(-0.0568211 -0.103996 0)
(0.0581401 -0.046952 0)
(0.157505 0.0789896 0)
(0.28015 0.238841 0)
(0.426919 0.346086 0)
(0.600628 0.369982 0)
(0.796367 0.328056 0)
(0.990098 0.240941 0)
(1.15703 0.125016 0)
(1.26314 0.00213376 0)
(0.0351941 -0.297243 0)
(0.0381335 -0.620291 0)
(0.0223874 -0.716497 0)
(0.050148 -0.70437 0)
(0.156403 -0.510145 0)
(0.22102 -0.281551 0)
(0.075812 -0.229793 0)
(-0.183739 -0.312889 0)
(-0.319005 -0.319919 0)
(-0.367091 -0.306568 0)
(-0.355973 -0.287249 0)
(-0.312865 -0.268317 0)
(-0.2493 -0.258321 0)
(-0.159984 -0.244841 0)
(-0.0368106 -0.18162 0)
(0.13548 -0.0673112 0)
(0.311992 0.0952036 0)
(0.474021 0.209053 0)
(0.636461 0.21607 0)
(0.812918 0.168324 0)
(0.977914 0.102843 0)
(1.10015 0.0317598 0)
(1.165 -0.0313864 0)
(0.0383212 -0.350375 0)
(0.0934251 -0.632713 0)
(0.134564 -0.711214 0)
(0.11007 -0.734918 0)
(0.12366 -0.628138 0)
(0.241113 -0.342178 0)
(0.290681 -0.0756388 0)
(0.122332 -0.100302 0)
(-0.0250768 -0.200871 0)
(-0.0962839 -0.265173 0)
(-0.122161 -0.298543 0)
(-0.115293 -0.30908 0)
(-0.0763512 -0.322423 0)
(-0.00784374 -0.342044 0)
(0.0517581 -0.316843 0)
(0.129828 -0.218104 0)
(0.219842 -0.0381065 0)
(0.352272 0.0429156 0)
(0.507747 0.00460983 0)
(0.674594 -0.0392653 0)
(0.827316 -0.0640435 0)
(0.936138 -0.0845025 0)
(0.993536 -0.102314 0)
(0.0419133 -0.429601 0)
(0.106781 -0.708416 0)
(0.176489 -0.718787 0)
(0.14873 -0.701543 0)
(0.0970023 -0.651971 0)
(0.129267 -0.455268 0)
(0.265264 -0.137822 0)
(0.316075 0.0131735 0)
(0.257616 -0.0765396 0)
(0.209936 -0.203215 0)
(0.208502 -0.281804 0)
(0.238782 -0.319009 0)
(0.293583 -0.349639 0)
(0.367109 -0.382572 0)
(0.423617 -0.366182 0)
(0.442899 -0.271755 0)
(0.461485 -0.136413 0)
(0.523069 -0.0956703 0)
(0.596183 -0.144787 0)
(0.673263 -0.17854 0)
(0.750431 -0.168227 0)
(0.798042 -0.137221 0)
(0.810657 -0.106584 0)
(0.0242818 -0.499296 0)
(0.0586192 -0.777578 0)
(0.0947395 -0.72663 0)
(0.0569107 -0.673221 0)
(0.0140111 -0.604468 0)
(-0.0207096 -0.492439 0)
(0.083715 -0.2545 0)
(0.203983 -0.0901043 0)
(0.283715 -0.0679044 0)
(0.315032 -0.160443 0)
(0.360003 -0.287968 0)
(0.429615 -0.366436 0)
(0.518671 -0.421719 0)
(0.587657 -0.437291 0)
(0.616592 -0.389703 0)
(0.609192 -0.284326 0)
(0.606298 -0.147762 0)
(0.60178 -0.0799029 0)
(0.56936 -0.124265 0)
(0.536314 -0.173632 0)
(0.517954 -0.171974 0)
(0.52266 -0.140388 0)
(0.531555 -0.107476 0)
(-0.0032133 -0.521646 0)
(-0.00912514 -0.780554 0)
(-0.0435655 -0.688204 0)
(-0.0913049 -0.63529 0)
(-0.118215 -0.565926 0)
(-0.152523 -0.480038 0)
(-0.0975836 -0.32662 0)
(0.00384613 -0.200387 0)
(0.104053 -0.16635 0)
(0.220693 -0.261033 0)
(0.343249 -0.401539 0)
(0.445122 -0.477389 0)
(0.528341 -0.516619 0)
(0.574646 -0.492446 0)
(0.583965 -0.397393 0)
(0.558317 -0.264575 0)
(0.520481 -0.13058 0)
(0.45559 -0.0347973 0)
(0.370662 -0.0624117 0)
(0.302418 -0.125257 0)
(0.251677 -0.144522 0)
(0.283602 -0.144534 0)
(0.272213 -0.151205 0)
(-0.0219251 -0.493685 0)
(-0.0669881 -0.726845 0)
(-0.143258 -0.636465 0)
(-0.167801 -0.601195 0)
(-0.189305 -0.545087 0)
(-0.189025 -0.471736 0)
(-0.149876 -0.379652 0)
(-0.0720719 -0.299058 0)
(0.0570278 -0.333122 0)
(0.19555 -0.432911 0)
(0.291306 -0.52529 0)
(0.351277 -0.563401 0)
(0.36955 -0.566113 0)
(0.367111 -0.507446 0)
(0.356416 -0.383611 0)
(0.329012 -0.219036 0)
(0.265552 -0.0513803 0)
(0.140311 0.0607605 0)
(0.0878035 -0.00261435 0)
(0.0145122 -0.0631785 0)
(-0.0244884 -0.121661 0)
(-0.0186279 -0.181722 0)
(-0.0868901 -0.151572 0)
(-0.0198829 -0.445768 0)
(-0.0824251 -0.64378 0)
(-0.15063 -0.605094 0)
(-0.153177 -0.589923 0)
(-0.162326 -0.554726 0)
(-0.127932 -0.518843 0)
(-0.0638944 -0.47266 0)
(0.0283504 -0.436145 0)
(0.117343 -0.457153 0)
(0.166478 -0.508861 0)
(0.165278 -0.545122 0)
(0.151581 -0.55668 0)
(0.11931 -0.540975 0)
(0.0818638 -0.469684 0)
(0.0387354 -0.320236 0)
(-0.0116698 -0.111448 0)
(-0.134174 0.0792331 0)
(-0.150665 0.0890689 0)
(-0.20413 0.0538351 0)
(-0.297299 0.0085756 0)
(-0.384623 -0.0667312 0)
(-0.505756 -0.0794447 0)
(-0.641445 0.0149079 0)
(-0.00189345 -0.411088 0)
(-0.0533916 -0.574377 0)
(-0.103375 -0.588686 0)
(-0.104706 -0.587159 0)
(-0.113907 -0.57603 0)
(-0.082654 -0.579807 0)
(-0.0334717 -0.552182 0)
(0.026552 -0.497498 0)
(0.0493999 -0.464329 0)
(0.0253314 -0.476832 0)
(-0.00855342 -0.500404 0)
(-0.0408109 -0.512352 0)
(-0.0945834 -0.484863 0)
(-0.178471 -0.388075 0)
(-0.272814 -0.218261 0)
(-0.321085 -0.0324166 0)
(-0.324568 0.0790467 0)
(-0.336785 0.126059 0)
(-0.439505 0.159051 0)
(-0.563463 0.123178 0)
(-0.688429 0.0556438 0)
(-0.835149 0.0329613 0)
(-0.962498 0.104269 0)
(0.00290205 -0.394531 0)
(-0.0281713 -0.523481 0)
(-0.0542779 -0.575591 0)
(-0.0675186 -0.573727 0)
(-0.0884881 -0.575368 0)
(-0.0891379 -0.596896 0)
(-0.0871569 -0.577281 0)
(-0.0764261 -0.507323 0)
(-0.078862 -0.447505 0)
(-0.0977115 -0.451228 0)
(-0.119662 -0.473091 0)
(-0.151076 -0.469082 0)
(-0.20388 -0.412594 0)
(-0.277807 -0.301715 0)
(-0.334519 -0.167446 0)
(-0.354486 -0.0416849 0)
(-0.376219 0.0939081 0)
(-0.452149 0.217742 0)
(-0.579809 0.279096 0)
(-0.690357 0.246654 0)
(-0.80151 0.186082 0)
(-0.926619 0.161237 0)
(-1.04618 0.213395 0)
(-0.0113553 -0.382768 0)
(-0.0191441 -0.500641 0)
(-0.0226309 -0.563157 0)
(-0.0487812 -0.546557 0)
(-0.0807775 -0.55194 0)
(-0.109098 -0.574674 0)
(-0.140048 -0.562249 0)
(-0.156767 -0.495706 0)
(-0.16023 -0.440841 0)
(-0.169744 -0.440077 0)
(-0.182935 -0.45414 0)
(-0.197908 -0.439584 0)
(-0.216153 -0.373215 0)
(-0.251411 -0.262497 0)
(-0.303222 -0.135225 0)
(-0.339808 -0.00351761 0)
(-0.392945 0.160469 0)
(-0.497268 0.326378 0)
(-0.613808 0.387387 0)
(-0.69274 0.346262 0)
(-0.771513 0.292626 0)
(-0.860326 0.276505 0)
(-0.942028 0.314897 0)
(-0.0304251 -0.361082 0)
(-0.0161625 -0.5075 0)
(-0.0127173 -0.550539 0)
(-0.0427482 -0.512261 0)
(-0.07928 -0.515472 0)
(-0.120652 -0.535123 0)
(-0.162185 -0.529739 0)
(-0.190672 -0.477726 0)
(-0.19936 -0.433253 0)
(-0.204624 -0.433569 0)
(-0.210169 -0.448158 0)
(-0.213377 -0.433743 0)
(-0.212715 -0.35637 0)
(-0.22356 -0.218493 0)
(-0.270815 -0.0763673 0)
(-0.325242 0.0528192 0)
(-0.385794 0.242574 0)
(-0.486822 0.427677 0)
(-0.57656 0.467717 0)
(-0.618788 0.408169 0)
(-0.656316 0.354911 0)
(-0.699898 0.340012 0)
(-0.739243 0.361137 0)
(-0.0372191 -0.331386 0)
(-0.0113301 -0.528465 0)
(-0.0181464 -0.535405 0)
(-0.0428906 -0.479504 0)
(-0.0756019 -0.475024 0)
(-0.118703 -0.493192 0)
(-0.157262 -0.490888 0)
(-0.187047 -0.456311 0)
(-0.195568 -0.428405 0)
(-0.197534 -0.4323 0)
(-0.204042 -0.446223 0)
(-0.211048 -0.434792 0)
(-0.207611 -0.358543 0)
(-0.198025 -0.201817 0)
(-0.229182 -0.0234122 0)
(-0.300148 0.120978 0)
(-0.358929 0.314676 0)
(-0.441938 0.507926 0)
(-0.509027 0.51958 0)
(-0.525751 0.432991 0)
(-0.536539 0.37542 0)
(-0.554124 0.363455 0)
(-0.571186 0.374998 0)
(-0.0174369 -0.310671 0)
(0.00167427 -0.536691 0)
(-0.0263215 -0.514033 0)
(-0.0437366 -0.454248 0)
(-0.0669722 -0.439307 0)
(-0.104631 -0.456371 0)
(-0.133157 -0.46022 0)
(-0.154727 -0.440167 0)
(-0.162905 -0.425483 0)
(-0.1684 -0.427141 0)
(-0.182762 -0.435792 0)
(-0.19923 -0.429883 0)
(-0.202409 -0.365964 0)
(-0.184462 -0.202439 0)
(-0.186963 0.0189845 0)
(-0.261776 0.193024 0)
(-0.321928 0.374288 0)
(-0.383933 0.568036 0)
(-0.441908 0.558213 0)
(-0.455934 0.442341 0)
(-0.469862 0.382821 0)
(-0.492666 0.377782 0)
(-0.510263 0.382068 0)
(0.0185259 -0.310934 0)
(0.0126864 -0.521342 0)
(-0.031477 -0.486422 0)
(-0.043535 -0.437741 0)
(-0.0573879 -0.413781 0)
(-0.0846652 -0.428445 0)
(-0.104932 -0.439971 0)
(-0.120521 -0.427122 0)
(-0.131923 -0.417545 0)
(-0.144077 -0.413367 0)
(-0.164524 -0.41532 0)
(-0.187 -0.414948 0)
(-0.197312 -0.369124 0)
(-0.180704 -0.213256 0)
(-0.156664 0.0459049 0)
(-0.21218 0.264921 0)
(-0.281229 0.428708 0)
(-0.326786 0.614519 0)
(-0.389427 0.603648 0)
(-0.421962 0.464646 0)
(-0.460676 0.408216 0)
(-0.505077 0.406513 0)
(-0.531938 0.392765 0)
(0.0330206 -0.331766 0)
(0.0109245 -0.492065 0)
(-0.034312 -0.458481 0)
(-0.0431131 -0.42741 0)
(-0.0517934 -0.398714 0)
(-0.0682088 -0.408062 0)
(-0.0855689 -0.424134 0)
(-0.0999578 -0.412787 0)
(-0.115046 -0.403296 0)
(-0.130949 -0.395029 0)
(-0.150999 -0.3928 0)
(-0.173278 -0.396681 0)
(-0.188324 -0.369302 0)
(-0.178581 -0.234582 0)
(-0.139299 0.0418896 0)
(-0.155886 0.325924 0)
(-0.237013 0.487804 0)
(-0.274082 0.658456 0)
(-0.353236 0.669802 0)
(-0.417791 0.51469 0)
(-0.483124 0.459782 0)
(-0.538437 0.452937 0)
(-0.567833 0.407668 0)
(0.0267792 -0.353528 0)
(0.00380107 -0.459206 0)
(-0.0339764 -0.435095 0)
(-0.0425956 -0.418479 0)
(-0.0508003 -0.390487 0)
(-0.0589434 -0.392734 0)
(-0.0756264 -0.408635 0)
(-0.0907578 -0.396972 0)
(-0.106294 -0.38694 0)
(-0.122019 -0.377716 0)
(-0.138887 -0.372917 0)
(-0.159425 -0.376983 0)
(-0.178141 -0.363106 0)
(-0.177085 -0.254929 0)
(-0.136595 0.014708 0)
(-0.104698 0.360492 0)
(-0.186392 0.556485 0)
(-0.219498 0.70746 0)
(-0.323336 0.765857 0)
(-0.431182 0.594134 0)
(-0.521177 0.520859 0)
(-0.566829 0.497646 0)
(-0.579949 0.422837 0)
(0.0169504 -0.365544 0)
(-0.00144483 -0.429544 0)
(-0.0304982 -0.415967 0)
(-0.0409119 -0.407688 0)
(-0.0504999 -0.384884 0)
(-0.0541992 -0.381131 0)
(-0.0690156 -0.393284 0)
(-0.0844371 -0.38174 0)
(-0.097697 -0.37195 0)
(-0.112124 -0.362629 0)
(-0.12688 -0.355205 0)
(-0.146113 -0.356214 0)
(-0.1675 -0.350982 0)
(-0.175191 -0.270337 0)
(-0.142691 -0.0259868 0)
(-0.07411 0.356145 0)
(-0.125076 0.62878 0)
(-0.149753 0.760143 0)
(-0.275521 0.898815 0)
(-0.434162 0.706992 0)
(-0.558312 0.593885 0)
(-0.608294 0.520245 0)
(-0.602393 0.427465 0)
(0.00846497 -0.370616 0)
(-0.0046968 -0.406774 0)
(-0.0256132 -0.400016 0)
(-0.0369265 -0.39549 0)
(-0.0471959 -0.379403 0)
(-0.0498158 -0.372405 0)
(-0.0614167 -0.379343 0)
(-0.0762016 -0.368315 0)
(-0.0869191 -0.358849 0)
(-0.100309 -0.348819 0)
(-0.113986 -0.338809 0)
(-0.13174 -0.335162 0)
(-0.154303 -0.333574 0)
(-0.169414 -0.277901 0)
(-0.149034 -0.0704209 0)
(-0.0712163 0.311425 0)
(-0.0500204 0.678294 0)
(-0.0568631 0.8073 0)
(-0.179431 1.06574 0)
(-0.376733 0.864463 0)
(-0.539169 0.691252 0)
(-0.623461 0.547977 0)
(-0.637783 0.402256 0)
(0.00252253 -0.370316 0)
(-0.00661814 -0.391063 0)
(-0.0206824 -0.3874 0)
(-0.0310363 -0.38387 0)
(-0.0407098 -0.373373 0)
(-0.0440976 -0.36554 0)
(-0.0527828 -0.367358 0)
(-0.0661374 -0.356675 0)
(-0.0752162 -0.347125 0)
(-0.087377 -0.33596 0)
(-0.099837 -0.323839 0)
(-0.115381 -0.315146 0)
(-0.136958 -0.312584 0)
(-0.157005 -0.277069 0)
(-0.147914 -0.112112 0)
(-0.0834163 0.237203 0)
(0.022184 0.661104 0)
(0.0523101 0.848207 0)
(-0.0238919 1.23022 0)
(-0.225998 1.06138 0)
(-0.432011 0.831489 0)
(-0.554051 0.622546 0)
(-0.610221 0.399629 0)
(-0.000277308 -0.366686 0)
(-0.00702141 -0.380991 0)
(-0.0165887 -0.377909 0)
(-0.0249217 -0.374198 0)
(-0.0331743 -0.367026 0)
(-0.0376738 -0.359521 0)
(-0.0446714 -0.357178 0)
(-0.0558104 -0.34665 0)
(-0.0638466 -0.336696 0)
(-0.0741479 -0.32458 0)
(-0.0847417 -0.310992 0)
(-0.0972518 -0.29792 0)
(-0.115254 -0.291228 0)
(-0.136626 -0.270339 0)
(-0.134242 -0.149263 0)
(-0.0822296 0.147447 0)
(0.0598035 0.553549 0)
(0.161246 0.85018 0)
(0.165237 1.32789 0)
(0.0223476 1.29057 0)
(-0.221091 1.0147 0)
(-0.379158 0.74009 0)
(-0.467404 0.456396 0)
(-0.000798534 -0.362947 0)
(-0.00614203 -0.373564 0)
(-0.0134133 -0.370703 0)
(-0.0197089 -0.366758 0)
(-0.0262817 -0.360917 0)
(-0.0312432 -0.353811 0)
(-0.0373397 -0.348666 0)
(-0.0458274 -0.338338 0)
(-0.0528068 -0.327836 0)
(-0.060899 -0.315179 0)
(-0.0692367 -0.300741 0)
(-0.0784278 -0.284731 0)
(-0.0910687 -0.272631 0)
(-0.109837 -0.260668 0)
(-0.112529 -0.182855 0)
(-0.0530967 0.0555473 0)
(0.0790599 0.387959 0)
(0.223766 0.755508 0)
(0.324701 1.31913 0)
(0.290743 1.47884 0)
(0.0695213 1.23118 0)
(-0.118921 0.893136 0)
(-0.230649 0.556232 0)
(-0.000633184 -0.359907 0)
(-0.00473555 -0.367494 0)
(-0.0104541 -0.364904 0)
(-0.0152297 -0.360969 0)
(-0.0202338 -0.355458 0)
(-0.024739 -0.348489 0)
(-0.0298485 -0.341747 0)
(-0.0358855 -0.331671 0)
(-0.0415411 -0.320602 0)
(-0.0475577 -0.307609 0)
(-0.0537455 -0.29271 0)
(-0.0601657 -0.275341 0)
(-0.0675453 -0.25813 0)
(-0.0800878 -0.24823 0)
(-0.0899223 -0.210882 0)
(-0.0359946 -0.0439447 0)
(0.0968821 0.240695 0)
(0.237742 0.619916 0)
(0.395852 1.21628 0)
(0.466756 1.55603 0)
(0.349326 1.43386 0)
(0.165184 1.06643 0)