/*--------------------------------*- C++ -*----------------------------------*\
| =========                 |                                                 |
| \\      /  F ield         | OpenFOAM: The Open Source CFD Toolbox           |
|  \\    /   O peration     | Version:  2.3.0                                 |
|   \\  /    A nd           | Web:      www.OpenFOAM.org                      |
|    \\/     M anipulation  |                                                 |
\*---------------------------------------------------------------------------*/
FoamFile
{
    version     2.0;
    format      ascii;
    class       volScalarField;
    location    "1.35";
    object      p_rgh;
}
// * * * * * * * * * * * * * * * * * * * * * * * * * * * * * * * * * * * * * //

dimensions      [1 -1 -2 0 0 0 0];

internalField   nonuniform List<scalar> 
2268
(
1225.5
1233.74
1222.82
1194.47
1160.41
1126.73
1094.98
1068.27
1049.03
1034.76
1024.37
1016.4
1008.46
999.876
989.724
980.115
964.668
948.553
939.251
932.579
925.171
917.898
913.533
1223.58
1232.03
1222
1194.04
1158.8
1125.69
1094.56
1068.1
1047.88
1033.59
1023.44
1015.85
1007.79
995.894
985.399
977.718
965.028
949.302
939.69
932.785
924.443
917.007
912.326
1220.58
1229.94
1222.02
1195.72
1160.45
1124.39
1091.65
1064.72
1044.93
1030.94
1021.41
1014.98
1007.65
995.907
979.705
970.064
960.203
947.298
938.7
932.628
923.47
914.466
908.862
1216.5
1227.57
1222.35
1197.75
1161.36
1122.39
1087.42
1060.01
1040.51
1026.69
1017.96
1013.69
1007.89
995.298
978.315
966.107
951.003
941.24
937.267
930.993
920.646
909.766
902.471
1210.54
1223.7
1222.47
1198.08
1159.95
1118.55
1081.98
1054.62
1035.4
1021.18
1012.87
1011.72
1008.44
999.571
979.212
964.078
947.562
934.94
935.533
928.209
915.727
902.383
892.394
1192.35
1160.98
1161.53
1174.8
1152.23
1111.13
1075.46
1049.34
1030.36
1015.01
1006.28
1009.19
1009.1
1000.52
986.239
961.098
944.397
935.829
933.973
923.775
908.502
892.058
877.882
1084.97
1098.44
1102.88
1079.83
1114.12
1098.1
1067.73
1044.65
1025.69
1008.21
998.26
1006.64
1009.85
1000.31
986.286
967.815
950.784
941.226
931.265
917.153
898.67
878.628
858.033
1063.73
1084.28
1093.76
1047.21
1020.09
1071.49
1057.67
1040.26
1021.4
1000.66
986.665
1001.74
1008.15
997.07
980.88
966.749
953.668
941.082
925.224
905.762
884.001
862.288
832.214
584.268
572.367
548.465
527.701
506.306
510.133
514.59
490.183
468.789
489.433
555.373
635.18
641.646
614.635
587.268
584.405
658.083
738.621
789.453
581.689
568.416
543.532
520.659
504.483
513.864
517.068
487.088
460.505
480.643
555.701
634.498
630.836
602.113
575.675
581.938
653.547
745.096
801.7
577.785
564.316
527.338
513.956
504.807
523.316
518.633
483.691
453.505
461.325
536.726
614.767
621.067
584.765
559.891
573.931
646.801
750.716
814.659
573.263
559.491
533.162
517.026
520.964
533.926
525.161
490.455
447.388
414.432
425.918
547.983
599.87
560.482
551.614
567.953
649.007
752.78
787.854
568.777
560.933
553.317
542.526
531.377
536.883
529.119
468.141
377.159
247.286
206.203
449.906
568.634
536.592
536.373
575.839
647.892
735.21
713.982
562.632
563.769
556.86
537.48
518.137
535.86
516.418
436.487
212.406
134.773
113.6
277.409
538.606
523.061
523.597
558.978
629.415
688.282
649.171
550.837
566.136
495.788
460.552
506.997
532.34
528.877
504.04
262.264
118.215
103.986
141.671
516.841
509.798
518.741
545.268
604.488
610.685
594.689
543.899
577.02
421.958
313.135
374.497
518.022
514.519
382.089
306.404
108.161
102.983
122.474
419.687
315.724
495.862
539.811
581.999
517.244
497.042
1078.82
1196.59
1183.82
1029.11
935.701
931.142
1034.7
1033.91
1013.26
970.164
901
940.51
993.426
984.606
967.01
958.214
950.637
938.646
918.177
892.571
864.599
826.677
774.542
1183.51
1177.58
1137.8
1062.06
907.137
857.963
930.506
1027.36
1012.7
716.213
546.271
778.047
961.224
939.884
932.088
939.365
942.54
931.824
905.48
869.938
812.048
767.611
727.377
1121.91
1106.75
1077.97
1026.32
952.704
835.482
901.513
954.613
627.593
519.939
532.363
747.435
932.251
893.236
894.571
910.632
921.174
906.483
766.796
563.595
346.411
224.061
106.326
955.516
809.364
823.733
960.73
999.79
628.081
468.788
482.618
523.434
544.453
742.422
863.402
905.668
936.404
931.01
857.518
712.335
408.958
182.523
53.2082
18.2499
15.949
15.9531
301.767
135.83
154.01
346.899
821.87
917.723
637.353
540.813
761.985
1013.42
966.226
551.554
284.995
299.041
326.426
175.273
71.5748
23.2538
20.3814
17.5237
16.379
15.4782
17.293
78.3064
73.8858
75.703
79.6121
208.781
992.959
1048.62
1066.65
1094.53
1120.36
957.407
277.938
33.4912
17.0962
15.9591
12.2215
9.37081
20.3263
28.9164
29.5921
25.7629
19.0871
27.4251
78.7248
74.8235
72.4007
74.9363
73.3892
261.586
806.06
753.956
852.711
1006.05
921.811
306.238
25.8063
11.2626
10.7721
9.78985
7.31029
6.00005
10.0037
10.7719
8.89589
9.60311
11.7009
82.6199
78.4447
91.5108
91.6121
59.5991
45.6625
37.3346
55.2595
150.095
320.213
428.559
346.402
41.1786
5.15691
7.16416
7.31982
6.14179
4.7809
3.79423
3.72258
3.40915
2.525
2.0706
154.961
148.762
105.711
67.9443
37.1781
76.8537
70.9611
64.807
19.1278
15.8972
5.56076
22.3166
30.4632
6.72879
5.18231
6.12245
6.15016
5.7565
5.75706
9.91667
12.2953
8.10841
2.20675
287.108
138.658
9.59831
6.1796
20.1486
32.5953
31.684
14.5397
2.65346
3.70646
3.55866
2.79756
5.59059
3.35748
4.91374
6.22336
6.73677
10.1575
30.3691
29.9236
28.2877
26.0926
17.2936
289.112
15.5161
0.18628
-0.00550129
-0.0129046
-0.205639
-0.185538
0.522352
1.51656
6.03472
29.6653
16.8054
6.05195
4.82065
5.82381
12.289
32.6085
32.4407
29.2366
22.146
28.1672
27.0488
13.7498
293.566
11.3422
-0.370352
-0.28543
-0.0774996
-0.183747
-0.132549
0.394144
0.842404
20.5517
71.7562
74.9719
33.5845
18.0668
29.1603
35.568
33.5306
26.4499
0.572182
-1.64794
-1.64286
12.6018
9.46763
295.474
3.687
0.0673197
-0.0622775
0.156673
0.0927785
0.0450931
0.356123
0.543226
7.06661
57.7405
79.3065
80.2356
81.4335
37.6072
5.48788
0.114445
-1.20671
-1.27144
-1.50503
-1.72618
6.47315
4.65409
302.201
-0.0183839
0.276891
0.127798
0.329098
0.293478
0.383626
0.392666
0.404296
0.225425
0.0169093
30.1921
43.8802
22.8736
3.06284
-0.932595
-0.923246
-1.05924
-1.25682
-1.53972
-1.46416
-0.055588
-0.306743
315.648
0.161349
0.457808
0.322355
0.2898
0.413309
0.407212
0.446206
0.481097
0.267194
-0.0701705
-0.48275
-0.854601
-1.10787
-1.13735
-1.02685
-1.01556
-1.08527
-1.25856
-1.46337
-1.62301
-1.70705
-1.5505
231.824
0.594014
0.599963
0.489324
0.435919
0.365984
0.380704
0.430822
0.440507
0.282409
-0.0421147
-0.466553
-0.803496
-0.933245
-0.991079
-0.966386
-1.03135
-1.08923
-1.19873
-1.33313
-1.40769
-1.32629
-1.08716
18.4191
5.64666
0.886338
0.561121
0.52267
0.44633
0.413148
0.394022
0.371645
0.218782
-0.0529312
-0.396974
-0.627237
-0.783079
-0.922803
-0.944466
-0.945972
-1.05846
-1.08082
-1.09808
-1.06218
-0.931228
-0.719083
13.3594
40.0985
11.8166
0.562052
0.554362
0.490456
0.439302
0.376002
0.283865
0.140337
-0.0761024
-0.334536
-0.562206
-0.629454
-0.78729
-0.842721
-0.835423
-0.815857
-0.831877
-0.76397
-0.699406
-0.65861
-0.513174
16.4744
47.2896
26.554
0.561718
0.568983
0.521229
0.462532
0.380674
0.275025
0.134382
-0.0440085
-0.253055
-0.47456
-0.59084
-0.594993
-0.669788
-0.684895
-0.657535
-0.604363
-0.544344
-0.573455
-0.50417
-0.388384
18.4417
49.3504
27.5334
0.590272
0.600004
0.558975
0.493533
0.399493
0.284175
0.145567
-0.0136758
-0.187219
-0.362847
-0.522381
-0.644737
-0.690572
-0.667554
-0.62555
-0.596016
-0.564451
-0.492357
-0.384257
-0.26533
25.1589
51.4251
12.2255
0.654868
0.660346
0.613817
0.534776
0.425795
0.298709
0.156399
0.00508053
-0.147852
-0.292209
-0.415503
-0.505478
-0.555325
-0.564939
-0.546111
-0.498832
-0.430358
-0.347174
-0.255014
-0.159358
23.3229
53.8778
8.29825
0.785326
0.758538
0.690148
0.585582
0.453238
0.309205
0.157557
0.00697355
-0.134879
-0.259445
-0.358026
-0.423584
-0.45332
-0.449439
-0.419329
-0.369457
-0.305396
-0.23259
-0.156206
-0.0807456
8.63401
56.4163
7.63462
0.980686
0.905441
0.785356
0.638963
0.475557
0.305678
0.139922
-0.0139229
-0.149127
-0.259191
-0.338813
-0.384969
-0.398158
-0.382428
-0.344017
-0.289817
-0.226586
-0.159679
-0.0932529
-0.0304742
3.18768
17.3584
21.965
1.21818
1.05211
0.860839
0.665842
0.465041
0.270466
0.0907782
-0.0662751
-0.195147
-0.29158
-0.353385
-0.380857
-0.377198
-0.348241
-0.301161
-0.242646
-0.179032
-0.115308
-0.0549623
-5.99982e-05
2.31845
2.58832
36.1896
4.53496
1.00722
0.846873
0.628288
0.402021
0.184935
-0.0062378
-0.162817
-0.281626
-0.361049
-0.402307
-0.408872
-0.386366
-0.341937
-0.283319
-0.217902
-0.151609
-0.0888515
-0.0322157
0.0171911
2.22235
2.46395
34.9088
8.73996
0.815193
0.711438
0.495991
0.262973
0.0371016
-0.158243
-0.312227
-0.416488
-0.473861
-0.489437
-0.470022
-0.423797
-0.359758
-0.286441
-0.211154
-0.139662
-0.075694
-0.0207682
0.0249296
2.17835
2.19712
1.8159
11.5198
0.951282
0.446272
0.261454
0.041149
-0.18139
-0.37126
-0.510939
-0.596867
-0.630198
-0.616161
-0.566222
-0.490576
-0.400753
-0.307333
-0.218421
-0.139089
-0.0719082
-0.0173054
0.026169
7.43214
6.25236
1.3801
11.3668
0.616397
0.0828772
-0.058337
-0.252771
-0.465445
-0.647808
-0.767103
-0.824517
-0.822226
-0.771632
-0.693011
-0.585448
-0.464679
-0.344303
-0.23625
-0.145992
-0.0739067
-0.0183205
0.0236448
8.07195
7.76642
0.892716
11.1221
0.554993
-0.317088
-0.435561
-0.618142
-0.828336
-1.00298
-1.10758
-1.12654
-1.07085
-0.968746
-0.839864
-0.696651
-0.548972
-0.395822
-0.261493
-0.156287
-0.0781156
-0.0212819
0.0194684
7.93314
7.63156
0.550288
10.6839
1.06758
-0.735504
-0.854068
-1.05263
-1.27848
-1.46106
-1.54859
-1.52352
-1.39876
-1.20991
-1.01444
-0.826332
-0.642537
-0.457919
-0.289644
-0.165214
-0.0808593
-0.0236209
0.0152766
7.83623
7.63213
0.286121
9.12863
0.939358
-1.146
-1.28746
-1.52418
-1.78647
-1.99555
-2.08537
-2.01995
-1.80921
-1.51209
-1.21754
-0.961962
-0.732075
-0.520768
-0.313655
-0.167701
-0.078878
-0.0233546
0.012178
1.30969
7.79369
0.115334
0.298966
0.21108
-1.46194
-1.6625
-1.962
-2.14112
-1.81481
-2.44501
-2.56545
-2.28502
-1.8593
-1.43232
-1.09262
-0.809607
-0.572989
-0.32492
-0.156579
-0.0689382
-0.0192568
0.010419
0.64404
8.04936
2.07221
-0.648196
0.546566
-1.56595
-1.88047
-2.27108
-1.76785
-2.05125
-2.19224
-2.46304
-2.74407
-2.20379
-1.64125
-1.20147
-0.885788
-0.580754
-0.0309444
-0.110379
-0.0370509
-0.0132802
0.00832736
0.876879
8.47702
6.65146
-0.369036
0.9991
-1.3357
-1.84536
-1.88506
-1.85583
-2.33349
-2.55822
-2.44992
-2.41752
-2.42093
-1.79115
-1.2806
-0.962009
2.21573
4.761
1.47275
-0.00788647
-0.0135208
0.00196947
0.559893
8.65792
7.36038
0.270258
1.64801
-0.771008
-1.49899
-1.45876
-1.6995
-2.27802
-2.5634
-2.50695
-2.07024
-2.33107
-1.81276
-1.29993
-0.877645
5.52078
5.88343
4.26163
0.0142536
-0.0275173
-0.0112189
-0.168107
2.28299
7.84783
1.60024
1.31296
0.447886
-0.882
-1.50066
-1.23179
-1.82996
-2.21274
-2.18805
-1.8037
-2.14158
-1.64402
-1.20274
2.47613
5.7423
6.048
4.63087
0.0152352
-0.0515851
-0.0279374
-0.0597237
0.727567
8.19555
7.93252
1.00734
0.864607
-0.0971437
-0.749575
-1.36997
-1.30001
-1.48024
-1.47826
-1.56465
-1.72987
-1.25251
-0.925443
5.22326
5.96689
6.25765
1.3763
-0.118587
-0.0694575
-0.0406013
0.00635492
0.271908
6.16817
8.91212
7.12004
0.928253
0.672283
0.0663447
-0.631527
-1.26632
-1.39813
-1.27321
-1.26157
-1.06082
-0.722083
1.01063
5.90406
6.26921
1.28945
-0.157477
-0.10374
-0.0683735
-0.0430573
0.0304934
0.0501564
0.0891455
8.75793
10.4774
8.23252
0.825894
0.624568
0.0537847
-0.660147
-1.08706
-1.04909
-0.7374
-0.420359
-0.222378
3.06374
5.99582
1.55516
-0.100994
-0.0953488
-0.0739254
-0.0541325
-0.0372183
0.0236684
0.0404902
0.0764036
0.134155
5.44812
9.80191
10.006
9.25316
4.07208
-0.426859
-0.822966
-0.645977
-0.267978
0.000742318
0.73948
3.76672
1.9377
-0.0129442
-0.0377669
-0.0501406
-0.0458245
-0.0374816
-0.0279027
-0.0024911
0.00980053
0.0338165
0.0719984
0.122171
0.182735
0.465886
0.221241
0.854914
0.541053
0.225329
-0.470115
-0.138108
0.879983
2.65241
1.38088
0.0862887
0.0255603
-0.00841813
-0.0234095
-0.0250051
-0.0223953
-0.0178324
-0.0439387
-0.0366868
-0.021876
-0.000698429
0.020737
0.0411036
0.0833932
-0.0325756
-0.554495
0.0349532
0.178887
-0.0156011
-0.0541909
0.75372
0.448074
0.0102174
-0.0020608
-0.00310141
-0.00729794
-0.00975482
-0.010221
-0.00952054
-0.00812917
702.017
685.075
669.511
644.151
625.58
544.844
439.111
350.67
32.1802
17.7668
14.9887
11.8873
16.3122
24.5519
22.7804
11.7011
29.3556
28.867
27.9146
26.2263
27.3385
25.4827
23.5459
25.0152
6.92851
2.91645
3.0911
3.05988
2.69641
3.04097
3.05555
2.87179
2.01821
2.28523
2.40299
2.38025
2.74702
0.753031
1.24779
1.55353
0.407314
-0.231331
0.193228
0.660024
1.128
-0.764772
-0.352858
0.102239
-0.127709
-0.896667
-0.607001
-0.183151
-1.26746
-0.985133
-0.608205
-0.232252
-1.1926
-0.89386
-0.508116
-0.201231
-0.794625
-0.606261
-0.412494
-0.220736
-0.542322
-0.424148
-0.301265
-0.183275
-0.38395
-0.304785
-0.215637
-0.129265
-0.276758
-0.208281
-0.139058
-0.0728001
-0.176817
-0.121239
-0.0675096
-0.0167786
-0.0906683
-0.0484686
-0.00805952
0.0300569
-0.0283282
0.00375947
0.0343258
0.0631494
0.011626
0.0371808
0.0612562
0.0836772
0.0355168
0.056719
0.0763412
0.0942533
0.0480355
0.0660664
0.0824333
0.0970736
0.0523112
0.068025
0.0820156
0.0942806
0.0510938
0.0651079
0.0773551
0.0878849
0.0466271
0.0593603
0.0702724
0.0794935
0.0408344
0.0524073
0.0621308
0.0701846
0.034852
0.0452617
0.0538615
0.0608847
0.0293836
0.0384193
0.0458034
0.0517717
0.0244052
0.0317668
0.0378274
0.0427544
0.0187519
0.0244288
0.0292955
0.0333922
0.0103117
0.015094
0.0194124
0.0232182
-0.0019412
0.0033559
0.00813444
0.0123653
-0.0156179
-0.00893026
-0.00305597
0.00200126
-0.0260436
-0.0183959
-0.0117567
-0.00614637
-0.0299924
-0.0225584
-0.016237
-0.0108571
-0.0272886
-0.021591
-0.0165528
-0.0121265
-0.0214473
-0.0175893
-0.0140592
-0.0108664
-0.0143014
-0.012104
-0.0100289
-0.00810291
-0.00694844
-0.00618711
-0.00544434
-0.00473428
576.731
475.545
490.22
349.555
213.369
246.94
175.631
107.201
167.33
96.6363
100.585
111.57
222.1
139.355
456.847
523.987
569.138
358.397
238.013
174.522
32.1392
52.1116
189.379
156.432
35.1263
35.5101
36.4194
87.16
132.469
102.141
103.834
122.305
147.504
489.133
571.346
304.685
129.945
177.903
8.44601
7.66117
7.18716
43.7286
48.6129
29.9281
30.8043
25.7839
82.2205
139.809
111.326
104.924
147.493
231.537
449.565
319.915
85.6301
125.905
188.525
8.13604
7.16162
10.368
6.76235
11.6819
35.4301
37.1414
24.3798
44.0201
131.196
129.206
99.1677
204.582
195.367
108.184
48.9825
41.7907
144.311
186.977
12.154
7.79302
7.80223
7.25501
8.38178
31.2104
33.0444
27.4197
10.5451
11.1924
19.8024
66.4706
207.766
218.158
49.1326
32.7405
25.8427
47.2693
114.116
18.8498
9.55237
9.77015
8.63644
8.74045
29.9659
31.1684
21.2171
7.97428
8.78352
8.31499
7.34846
17.4688
223.137
54.3217
24.9267
17.4085
27.7758
143.758
8.37594
23.3768
24.2641
18.5206
25.2438
32.2665
24.573
16.6131
6.79178
16.7676
21.757
6.55257
6.07302
133.856
110.762
20.0203
16.0391
13.3299
145.872
2.59057
4.1487
16.9502
16.9077
21.6626
17.2116
5.7718
2.56299
4.91928
30.2378
32.9308
12.7647
10.6591
28.8407
115.326
21.3491
19.4749
18.1871
156.6
2.30267
2.15312
2.06725
2.98329
2.92623
2.13855
2.21682
2.3909
2.36912
3.64495
34.8266
39.6243
10.9247
63.6253
123.563
49.7164
23.4513
22.4286
170.344
1.83215
1.93335
1.93151
1.96565
2.02639
2.06854
2.15391
2.35296
2.32005
2.25005
9.97737
45.4847
30.9685
103.441
134.516
64.2523
26.7085
34.0505
153.562
1.30816
1.63542
1.74078
1.82531
1.91957
2.00272
2.16865
2.42565
2.33991
2.23746
3.02257
49.2153
57.2865
56.9386
45.6945
31.1417
28.4324
31.6079
39.8425
0.858372
1.28436
1.45848
1.58953
1.71839
1.90614
2.21593
2.70617
2.51075
2.17146
3.19296
15.4671
61.5816
55.8061
27.3958
28.7403
29.2403
58.4484
36.7719
0.515063
0.944121
1.13325
1.28717
1.42588
1.6177
1.91859
13.0081
33.3437
24.9315
3.29786
5.26135
32.2534
47.9155
28.9976
29.7481
34.5013
77.0179
36.8978
0.315942
0.635125
0.821556
0.953957
1.03964
1.07311
0.968781
30.7324
64.9775
65.6263
51.7464
27.9265
29.1037
30.4454
52.2044
95.9772
95.3099
63.895
26.2558
0.138261
0.39725
0.562536
0.642834
0.62768
0.478782
0.0467795
9.52228
52.9399
70.4011
75.4867
76.6653
77.0066
77.228
77.3387
59.9774
21.0116
-0.0412507
3.26603
0.0221834
0.244038
0.374403
0.408929
0.340534
0.0942001
-0.242713
1.72653
-1.04918
-0.903718
12.0829
26.8522
30.52
19.9168
7.07885
0.119158
0.103988
-0.0211699
0.118379
-0.0035567
0.166231
0.262088
0.279048
0.202918
-0.0139441
-0.347629
-0.893632
0.604325
-0.846852
-0.586815
-0.371179
-0.225075
-0.116773
-0.0391711
0.0247199
0.102791
0.19676
0.328122
0.00429474
0.134995
0.209249
0.224372
0.172971
0.0352824
-0.208774
-0.558372
-0.55085
-0.432557
-0.207841
-0.201034
-0.139828
-0.0551145
-0.00458666
0.0693952
0.128678
0.0987953
0.243546
0.028877
0.1314
0.192156
0.211201
0.185897
0.109792
-0.0239995
-0.240041
-0.400677
-0.40055
-0.306911
-0.176535
-0.0781734
-0.0200044
0.0161453
0.0427341
0.136262
0.0810356
0.119336
0.0601504
0.139668
0.189999
0.21146
0.202547
0.160346
0.0822697
-0.0429091
-0.161509
-0.192458
-0.167103
-0.0994836
-0.0488828
0.003581
0.0356962
0.0501954
0.142944
0.0868663
0.101726
0.0878455
0.148846
0.189829
0.210212
0.208958
0.189601
0.147408
0.0580914
-0.0169361
-0.0777625
-0.0878161
-0.0647782
-0.0302047
0.0163456
0.0457635
0.0588402
0.0723052
0.0853351
0.0896464
0.106983
0.153641
0.185596
0.202094
0.202962
0.193934
0.175233
0.107837
0.0095309
-0.0503556
-0.0708488
-0.0550405
-0.0185684
0.0194034
0.045746
0.1321
0.119752
0.0844689
0.0820949
0.117476
0.152834
0.176166
0.187402
0.187305
0.175415
0.174058
0.153844
0.0387022
-0.0234127
-0.0463264
-0.0369889
-0.00786821
0.0220272
0.0483921
0.134912
0.138509
0.0894346
0.0762438
0.120743
0.147321
0.163361
0.169255
0.166205
0.159646
0.196257
0.163157
0.066789
-0.00732148
-0.0214154
-0.014651
0.00556263
0.0268269
0.0657011
0.130983
0.0754832
0.0685275
0.071147
0.118298
0.138558
0.14949
0.151506
0.145856
0.13629
0.163791
0.157487
0.12196
0.0376251
0.00658058
0.00890342
0.0203175
0.0579347
0.101127
0.0842526
0.0542024
0.0617464
0.0661561
0.11173
0.127671
0.135554
0.135813
0.129288
0.117084
0.102768
0.123458
0.130644
0.113569
0.0833222
0.0742737
0.0917412
0.0966202
0.10166
0.0700315
0.0530078
0.0580499
0.0611499
0.102589
0.115536
0.121622
0.121452
0.115713
0.105132
0.0905498
0.0736924
0.0670111
0.0856623
0.113752
0.110781
0.104383
0.0610036
0.0419053
0.0467953
0.0511871
0.054281
0.0563222
0.0921203
0.102945
0.107903
0.107756
0.103203
0.0948981
0.0836067
0.0704215
0.0581295
0.0487505
0.0523728
0.0487925
0.0411521
0.0410742
0.0435133
0.0462528
0.0487637
0.0507968
0.0518492
0.0811896
0.0904759
0.094743
0.0948184
0.0913717
0.0850508
0.0765815
0.0669712
0.0575101
0.0501801
0.0450772
0.0423676
0.0413387
0.04169
0.0428115
0.0442833
0.0461705
0.0471081
0.0475689
0.0703726
0.078438
0.0822824
0.0827379
0.0803283
0.0756683
0.0693753
0.0622453
0.055209
0.0493428
0.0450585
0.0422666
0.0409467
0.0406777
0.0410745
0.041818
0.042944
0.0433983
0.0434682
0.0598432
0.0669333
0.0706253
0.0714568
0.0699799
0.066761
0.0622183
0.0569983
0.0518366
0.0469217
0.0434323
0.0409973
0.0395617
0.0389301
0.0388551
0.0391108
0.0393669
0.0395373
0.0397157
0.0495388
0.0558882
0.0595276
0.0608914
0.0603824
0.058284
0.0551295
0.0513686
0.0474769
0.0437939
0.0409271
0.038802
0.0374018
0.036605
0.0362603
0.0362029
0.0362088
0.0362211
0.0362329
0.0392674
0.0452472
0.0490555
0.0509673
0.0512511
0.0502002
0.0481894
0.0455901
0.0427664
0.0400353
0.0377464
0.0359587
0.0346811
0.0338452
0.0333699
0.033134
0.0330123
0.0329306
0.0328786
0.0289059
0.0350297
0.0392407
0.0417436
0.0427633
0.0425773
0.0414937
0.0398252
0.0378676
0.0358895
0.0340969
0.0326486
0.0315434
0.0307513
0.0302409
0.0299226
0.0297394
0.0296143
0.029541
0.018691
0.0254415
0.0302175
0.0333042
0.0349601
0.035471
0.0351195
0.0341804
0.0329048
0.031513
0.0301793
0.0290276
0.0281104
0.0274095
0.0269237
0.0265821
0.0263835
0.0262326
0.026166
0.0093584
0.0168855
0.0221985
0.0257576
0.0278971
0.028927
0.0291224
0.0287335
0.0279813
0.0270547
0.0261074
0.0251982
0.0244751
0.0238886
0.0234615
0.0231334
0.0229476
0.0227849
0.0227314
0.00186085
0.00981086
0.0153906
0.0191916
0.0216092
0.0229661
0.02353
0.0235302
0.023162
0.0225883
0.0219364
0.021275
0.0207113
0.0202417
0.0198892
0.0195947
0.0194415
0.019275
0.0192439
-0.00315296
0.00449946
0.0099001
0.0136301
0.016086
0.0175731
0.0183375
0.0185832
0.0184792
0.0181637
0.0177439
0.0172936
0.0168555
0.0165037
0.0162319
0.0159807
0.0158739
0.0157033
0.0157085
-0.00564203
0.000967257
0.0057131
0.00904335
0.0112939
0.0127215
0.0135328
0.0138977
0.013955
0.0138162
0.0135679
0.01327
0.0129751
0.0127158
0.0125182
0.0123171
0.0122531
0.0120895
0.012131
-0.00607454
-0.00102161
0.00268852
0.00534064
0.00717192
0.0083734
0.00909853
0.00947486
0.00960654
0.00957686
0.00945056
0.0092733
0.0090892
0.0089158
0.00878556
0.00863806
0.0086074
0.00846992
0.00853532
-0.00514922
-0.0019179
0.00051973
0.00230368
0.00356634
0.00442208
0.00496479
0.00527431
0.00541675
0.00544532
0.00540174
0.00531611
0.00521868
0.00511956
0.00504668
0.0049534
0.00494827
0.00484997
0.00492569
-0.00361331
-0.00230301
-0.00125232
-0.000436054
0.000178068
0.000623554
0.000932625
0.0011345
0.00125503
0.00131605
0.00133535
0.00132649
0.00130363
0.00127233
0.00124955
0.00121068
0.00122456
0.00117232
0.00127933
)
;

boundaryField
{
    leftWall
    {
        type            fixedFluxPressure;
        gradient        uniform 0;
        value           nonuniform List<scalar> 
50
(
1225.5
1223.58
1220.58
1216.5
1210.54
1192.35
1084.97
1063.73
1078.82
1183.51
1121.91
955.516
301.767
78.3064
78.7248
82.6199
154.961
287.108
289.112
293.566
295.474
302.201
315.648
231.824
18.4191
13.3594
16.4744
18.4417
25.1589
23.3229
8.63401
3.18768
2.31845
2.22235
2.17835
7.43214
8.07195
7.93314
7.83623
1.30969
0.64404
0.876879
0.559893
-0.168107
-0.0597237
0.00635492
0.0304934
0.0236684
-0.0024911
-0.0439387
)
;
    }
    rightWall
    {
        type            fixedFluxPressure;
        gradient        uniform 0;
        value           nonuniform List<scalar> 
50
(
789.453
801.7
814.659
787.854
713.982
649.171
594.689
497.042
238.013
177.903
188.525
186.977
114.116
143.758
145.872
156.6
170.344
153.562
39.8425
36.7719
36.8978
26.2558
3.26603
0.118379
0.328122
0.243546
0.119336
0.101726
0.0896464
0.0820949
0.0762438
0.071147
0.0661561
0.0611499
0.0563222
0.0518492
0.0475689
0.0434682
0.0397157
0.0362329
0.0328786
0.029541
0.026166
0.0227314
0.0192439
0.0157085
0.012131
0.00853532
0.00492569
0.00127933
)
;
    }
    lowerWall
    {
        type            fixedFluxPressure;
        gradient        uniform 0;
        value           nonuniform List<scalar> 
62
(
1225.5
1233.74
1222.82
1194.47
1160.41
1126.73
1094.98
1068.27
1049.03
1034.76
1024.37
1016.4
1008.46
999.876
989.724
980.115
964.668
948.553
939.251
932.579
925.171
917.898
913.533
913.533
912.326
908.862
902.471
892.394
877.882
858.033
832.214
702.017
685.075
669.511
644.151
584.268
581.689
577.785
573.263
568.777
562.632
550.837
543.899
584.268
572.367
548.465
527.701
506.306
510.133
514.59
490.183
468.789
489.433
555.373
635.18
641.646
614.635
587.268
584.405
658.083
738.621
789.453
)
;
    }
    atmosphere
    {
        type            totalPressure;
        rho             rho;
        psi             none;
        gamma           1;
        p0              uniform 0;
        value           nonuniform List<scalar> 
46
(
-0.0711223
-0.0666793
-0.0571094
-0.0466095
-0.0362372
-0.0198938
-0.0231774
-0.226312
-0.434948
0
0
0
0
0
0
0
-0.00148335
-0.00284852
-0.00357391
-0.00378662
-0.00376363
-0.00362556
-0.00342478
-0.00326252
-0.00314053
-0.00301747
-0.00289095
-0.00267234
-0.00234762
-0.00202453
-0.00172367
-0.00146012
-0.00124084
-0.00106532
-0.000930858
-0.000832372
-0.000764131
-0.000720437
-0.000696015
-0.000685562
-0.000686463
-0.00068742
-0.000700043
-0.000682206
-0.000715942
-0.00055867
)
;
    }
    defaultFaces
    {
        type            empty;
    }
}


// ************************************************************************* //
