/*--------------------------------*- C++ -*----------------------------------*\
| =========                 |                                                 |
| \\      /  F ield         | OpenFOAM: The Open Source CFD Toolbox           |
|  \\    /   O peration     | Version:  2.3.0                                 |
|   \\  /    A nd           | Web:      www.OpenFOAM.org                      |
|    \\/     M anipulation  |                                                 |
\*---------------------------------------------------------------------------*/
FoamFile
{
    version     2.0;
    format      ascii;
    class       volVectorField;
    location    "1.35";
    object      U;
}
// * * * * * * * * * * * * * * * * * * * * * * * * * * * * * * * * * * * * * //

dimensions      [0 1 -1 0 0 0 0];

internalField   nonuniform List<vector> 
2268
(
(0.0228035 -0.0161641 0)
(0.0934619 -0.0298724 0)
(0.199667 -0.0278039 0)
(0.292089 -0.0136196 0)
(0.313289 0.00282446 0)
(0.278383 0.00930367 0)
(0.247018 0.00563403 0)
(0.236542 0.000215668 0)
(0.243822 -0.00306276 0)
(0.265353 -0.00583287 0)
(0.294289 -0.00753016 0)
(0.324767 -0.0089309 0)
(0.356772 -0.00788811 0)
(0.381853 0.00440785 0)
(0.360025 0.0188974 0)
(0.26944 0.0244489 0)
(0.168382 0.0160338 0)
(0.125942 0.0038801 0)
(0.117651 0.00235002 0)
(0.101141 0.0058741 0)
(0.0708494 0.00442495 0)
(0.0425565 0.00331278 0)
(0.017089 0.00537854 0)
(0.0143759 -0.0342622 0)
(0.0688245 -0.0687125 0)
(0.162534 -0.0713434 0)
(0.256185 -0.0409254 0)
(0.301289 0.00110118 0)
(0.285224 0.0236042 0)
(0.245114 0.0188058 0)
(0.22219 0.00295389 0)
(0.226695 -0.0102358 0)
(0.250325 -0.0177785 0)
(0.282996 -0.0210425 0)
(0.319403 -0.0225028 0)
(0.347465 -0.0210322 0)
(0.373058 -0.00519978 0)
(0.412407 0.0273446 0)
(0.379015 0.0592727 0)
(0.267471 0.0594322 0)
(0.192576 0.0263853 0)
(0.170477 0.00608296 0)
(0.159083 0.0155283 0)
(0.125337 0.0252062 0)
(0.0708551 0.0241037 0)
(0.0262435 0.0247743 0)
(0.00654797 -0.0475483 0)
(0.0648046 -0.104621 0)
(0.152214 -0.113082 0)
(0.229866 -0.0707276 0)
(0.268308 -0.00662384 0)
(0.262707 0.0344369 0)
(0.234174 0.0336443 0)
(0.212463 0.00834795 0)
(0.21201 -0.0176883 0)
(0.233038 -0.0327266 0)
(0.269292 -0.0395191 0)
(0.313269 -0.0393663 0)
(0.348888 -0.032371 0)
(0.358283 -0.0178285 0)
(0.367306 0.0234627 0)
(0.35131 0.082741 0)
(0.282608 0.0974908 0)
(0.236887 0.0504597 0)
(0.213889 0.0142329 0)
(0.190481 0.0260744 0)
(0.153053 0.0474612 0)
(0.0891053 0.0505623 0)
(0.0317193 0.0510063 0)
(0.00163582 -0.0597543 0)
(0.0685864 -0.143225 0)
(0.175438 -0.152223 0)
(0.249174 -0.0944004 0)
(0.28096 -0.0128556 0)
(0.27805 0.0423921 0)
(0.253448 0.0464479 0)
(0.228386 0.014901 0)
(0.219568 -0.0215961 0)
(0.23031 -0.0455918 0)
(0.259742 -0.0591508 0)
(0.304301 -0.0606268 0)
(0.34806 -0.0444817 0)
(0.362991 -0.0151361 0)
(0.344029 0.0337827 0)
(0.314686 0.0997055 0)
(0.287062 0.11703 0)
(0.279138 0.0641501 0)
(0.260244 0.0260155 0)
(0.220332 0.0434519 0)
(0.169903 0.0737584 0)
(0.0998319 0.080865 0)
(0.0343618 0.081777 0)
(-0.0127787 -0.0756014 0)
(0.0712625 -0.191708 0)
(0.220461 -0.200842 0)
(0.30979 -0.121454 0)
(0.333851 -0.0190222 0)
(0.324527 0.05035 0)
(0.29717 0.0604314 0)
(0.267994 0.0249648 0)
(0.249514 -0.0198273 0)
(0.24482 -0.0521397 0)
(0.260978 -0.0754706 0)
(0.301452 -0.0829125 0)
(0.348644 -0.0598884 0)
(0.372796 -0.0136833 0)
(0.352254 0.0468452 0)
(0.316329 0.10966 0)
(0.311316 0.11934 0)
(0.324229 0.0676735 0)
(0.3045 0.039071 0)
(0.248364 0.0675524 0)
(0.181602 0.105294 0)
(0.106373 0.113731 0)
(0.0357932 0.114413 0)
(-0.029098 -0.0873193 0)
(0.0842214 -0.25537 0)
(0.276837 -0.260805 0)
(0.406089 -0.146567 0)
(0.418951 -0.0196624 0)
(0.390626 0.0637362 0)
(0.35466 0.077006 0)
(0.321075 0.0381 0)
(0.290043 -0.0116252 0)
(0.265236 -0.0503006 0)
(0.269461 -0.0867423 0)
(0.312959 -0.105572 0)
(0.363778 -0.078316 0)
(0.391091 -0.016628 0)
(0.38003 0.0564526 0)
(0.353785 0.114924 0)
(0.357575 0.115615 0)
(0.369769 0.0705306 0)
(0.339181 0.0594321 0)
(0.266536 0.100588 0)
(0.185099 0.141666 0)
(0.107848 0.14843 0)
(0.0359038 0.151436 0)
(-0.017346 -0.0900729 0)
(0.110935 -0.3422 0)
(0.29558 -0.362442 0)
(0.502457 -0.18179 0)
(0.534226 -0.0109247 0)
(0.47562 0.0845793 0)
(0.419629 0.0978276 0)
(0.375676 0.0558454 0)
(0.326408 0.00497978 0)
(0.280064 -0.0377465 0)
(0.279723 -0.0933316 0)
(0.340863 -0.128404 0)
(0.406165 -0.0961826 0)
(0.426902 -0.0185668 0)
(0.413774 0.0651579 0)
(0.39648 0.120022 0)
(0.402264 0.114403 0)
(0.403047 0.0775494 0)
(0.35672 0.084766 0)
(0.27152 0.13865 0)
(0.180936 0.18018 0)
(0.102821 0.179013 0)
(0.0342967 0.182521 0)
(0.0333646 -0.116891 0)
(0.132181 -0.416219 0)
(0.251893 -0.478575 0)
(0.487492 -0.26724 0)
(0.631082 -0.00306269 0)
(0.575193 0.115313 0)
(0.487321 0.123093 0)
(0.419068 0.0829069 0)
(0.34984 0.0336908 0)
(0.293474 -0.0207713 0)
(0.299542 -0.109941 0)
(0.379865 -0.166574 0)
(0.467362 -0.116521 0)
(0.49241 -0.019898 0)
(0.463111 0.0691854 0)
(0.436509 0.117966 0)
(0.436311 0.110788 0)
(0.419333 0.0900636 0)
(0.355208 0.119069 0)
(0.264644 0.1827 0)
(0.176488 0.221934 0)
(0.107885 0.21432 0)
(0.030421 0.223321 0)
(0.048593 -0.0304919 0)
(0.183383 -0.0317908 0)
(0.284111 -0.000620917 0)
(0.199798 0.0258806 0)
(0.050325 0.0119229 0)
(0.0936 -0.0322962 0)
(0.228946 -0.0511634 0)
(0.351115 -0.0309829 0)
(0.40911 -0.00796089 0)
(0.397457 -0.00592644 0)
(0.382962 -0.0243474 0)
(0.504626 -0.0197066 0)
(0.592288 0.0420493 0)
(0.372468 0.0667221 0)
(0.0933594 0.00765724 0)
(-0.00472436 -0.0211001 0)
(0.0411883 -0.0112114 0)
(0.0791084 0.00473232 0)
(0.0257063 0.00790118 0)
(0.0556393 -0.0768886 0)
(0.158075 -0.0766316 0)
(0.259654 -0.00642747 0)
(0.239164 0.0590161 0)
(0.168517 0.0434667 0)
(0.231302 -0.0525176 0)
(0.279849 -0.0936661 0)
(0.319178 -0.0554263 0)
(0.324208 -0.00283502 0)
(0.230056 0.0246317 0)
(0.0746068 -5.58139e-05 0)
(0.163918 -0.0887414 0)
(0.564935 0.00134957 0)
(0.731445 0.132132 0)
(0.549759 0.14968 0)
(0.275283 0.0525967 0)
(0.153981 -0.0340726 0)
(0.176192 -0.00546005 0)
(0.116186 0.0518207 0)
(0.0553901 -0.122111 0)
(0.127854 -0.109599 0)
(0.184917 -0.0187679 0)
(0.206596 0.064092 0)
(0.237316 0.0394986 0)
(0.289945 -0.0642748 0)
(0.203004 -0.0925334 0)
(0.137133 -0.0421868 0)
(0.0583533 0.0540862 0)
(-0.119407 0.124923 0)
(-0.242363 0.00885043 0)
(-0.0973727 -0.237832 0)
(0.277629 -0.169922 0)
(0.693059 0.0728008 0)
(0.79029 0.214282 0)
(0.620948 0.170227 0)
(0.414708 0.0334655 0)
(0.28731 0.00900638 0)
(0.200361 0.139699 0)
(0.0198553 -0.158805 0)
(0.0750489 -0.135122 0)
(0.148309 -0.0384869 0)
(0.214883 0.0345051 0)
(0.280597 0.024991 0)
(0.271928 -0.0377136 0)
(0.0464315 -0.037132 0)
(-0.0698203 0.0192179 0)
(-0.166407 0.102371 0)
(-0.303344 0.118714 0)
(-0.35877 -0.0376581 0)
(-0.171977 -0.375201 0)
(0.0824379 -0.341591 0)
(0.484685 -0.0678705 0)
(0.771625 0.177924 0)
(0.78139 0.229307 0)
(0.625808 0.120691 0)
(0.426974 0.0752863 0)
(0.264597 0.26666 0)
(-0.0311834 -0.164126 0)
(0.0046679 -0.165915 0)
(0.110573 -0.0934869 0)
(0.192306 -0.00975192 0)
(0.250168 0.0286089 0)
(0.180529 0.0217286 0)
(-0.0743626 0.033605 0)
(-0.0802307 0.0610982 0)
(-0.129345 0.137997 0)
(-0.256846 0.18264 0)
(-0.332552 -0.0566867 0)
(-0.157659 -0.491448 0)
(-0.039648 -0.474542 0)
(0.292493 -0.208245 0)
(0.616029 0.0860594 0)
(0.755787 0.226065 0)
(0.695767 0.182076 0)
(0.521519 0.161649 0)
(0.317213 0.414671 0)
(-0.050089 -0.144691 0)
(-0.0356829 -0.182695 0)
(0.0117077 -0.114283 0)
(0.0233741 -0.0319659 0)
(0.153858 0.0420396 0)
(0.101316 0.0798581 0)
(-0.111341 0.0605261 0)
(0.208387 -0.00698281 0)
(0.471702 0.216795 0)
(0.493404 0.342493 0)
(0.0259514 0.0568437 0)
(-0.0911349 -0.492457 0)
(-0.107581 -0.567214 0)
(0.173318 -0.32578 0)
(0.444513 -0.01493 0)
(0.630593 0.188494 0)
(0.648089 0.204239 0)
(0.553009 0.236224 0)
(0.368639 0.573544 0)
(0.00650793 -0.14786 0)
(0.0175159 -0.178398 0)
(-0.0110594 -0.113352 0)
(-0.0951053 -0.0493331 0)
(-0.0224143 0.0329936 0)
(0.082615 0.112971 0)
(-0.0258171 -0.0126038 0)
(0.211284 -0.183957 0)
(0.487595 -0.0230309 0)
(0.792077 0.313815 0)
(0.550335 0.273752 0)
(0.0224607 -0.370164 0)
(-0.118374 -0.618883 0)
(0.116735 -0.415401 0)
(0.312199 -0.0940494 0)
(0.483766 0.140488 0)
(0.541626 0.191815 0)
(0.509626 0.308085 0)
(0.352793 0.767046 0)
(0.140101 -0.175912 0)
(0.145731 -0.18008 0)
(0.162813 -0.0710452 0)
(-0.0493954 -0.0443488 0)
(-0.168496 -0.0368121 0)
(0.0651238 0.119848 0)
(0.181591 0.0267506 0)
(0.042571 -0.207222 0)
(0.23984 -0.0943497 0)
(0.631471 0.270792 0)
(0.656755 0.364818 0)
(0.170966 -0.213964 0)
(-0.0707631 -0.62608 0)
(0.111613 -0.507328 0)
(0.233957 -0.154061 0)
(0.358471 0.10911 0)
(0.4374 0.160541 0)
(0.383868 0.348103 0)
(0.21384 0.943781 0)
(0.0772847 -0.194071 0)
(0.10527 -0.476141 0)
(0.158784 -0.58425 0)
(0.313944 -0.450444 0)
(0.5904 -0.0768625 0)
(0.672119 0.185887 0)
(0.556221 0.205904 0)
(0.431065 0.13186 0)
(0.365899 0.0658482 0)
(0.343099 -0.0167992 0)
(0.373687 -0.164106 0)
(0.452726 -0.259509 0)
(0.532541 -0.174801 0)
(0.572127 -0.00692732 0)
(0.550767 0.111342 0)
(0.503865 0.150009 0)
(0.455697 0.136147 0)
(0.380893 0.135418 0)
(0.277036 0.189999 0)
(0.178672 0.258618 0)
(0.107854 0.28712 0)
(0.0936437 0.253307 0)
(0.150979 0.233921 0)
(0.0550985 -0.264072 0)
(0.00126395 -0.483052 0)
(0.00273998 -0.658157 0)
(0.0740294 -0.636263 0)
(0.30782 -0.332693 0)
(0.596838 0.112199 0)
(0.660852 0.303707 0)
(0.579979 0.241024 0)
(0.489815 0.0965779 0)
(0.470391 -0.0116936 0)
(0.528591 -0.211117 0)
(0.542795 -0.346974 0)
(0.542436 -0.249371 0)
(0.548814 -0.0432378 0)
(0.528752 0.119561 0)
(0.483567 0.193741 0)
(0.400066 0.214571 0)
(0.280846 0.243298 0)
(0.153619 0.288374 0)
(0.0338249 0.308953 0)
(-0.0303506 0.264463 0)
(-0.0307452 0.145362 0)
(0.001341 0.0242299 0)
(-0.00705935 -0.235711 0)
(-0.103051 -0.439455 0)
(-0.136255 -0.67319 0)
(-0.138233 -0.738152 0)
(-0.0220076 -0.572145 0)
(0.30704 -0.155305 0)
(0.560433 0.192935 0)
(0.627177 0.283488 0)
(0.589586 0.206787 0)
(0.586623 0.00818819 0)
(0.626044 -0.22545 0)
(0.447995 -0.272123 0)
(0.32403 -0.155503 0)
(0.269838 0.00984256 0)
(0.261658 0.145436 0)
(0.268867 0.243959 0)
(0.224581 0.294921 0)
(0.160213 0.344456 0)
(0.0928358 0.39585 0)
(-0.0242866 0.394385 0)
(-0.118644 0.306304 0)
(-0.14651 0.173037 0)
(-0.114401 0.0659572 0)
(-0.0647494 -0.179268 0)
(-0.138082 -0.405349 0)
(-0.139011 -0.645775 0)
(-0.209512 -0.740882 0)
(-0.264857 -0.688191 0)
(-0.128778 -0.411182 0)
(0.159296 -0.00871218 0)
(0.338793 0.219339 0)
(0.397438 0.199278 0)
(0.508054 -0.0283738 0)
(0.490484 -0.106107 0)
(0.113432 0.0108285 0)
(-0.0762802 0.0428586 0)
(-0.073417 0.0918548 0)
(-0.0568514 0.185635 0)
(-0.00780375 0.302015 0)
(0.0257395 0.3725 0)
(0.0535529 0.441313 0)
(0.0769145 0.52761 0)
(0.044351 0.561869 0)
(-0.00583534 0.49313 0)
(-0.224899 0.224054 0)
(-0.377523 -0.0490284 0)
(-0.138999 -0.0413821 0)
(-0.0976721 -0.342017 0)
(0.0606219 -0.624111 0)
(-0.00937436 -0.620528 0)
(-0.220148 -0.644755 0)
(-0.277587 -0.507299 0)
(-0.158297 -0.240603 0)
(0.0261702 -0.0480927 0)
(0.278953 -0.0618481 0)
(0.439757 -0.0997848 0)
(0.423056 0.0654235 0)
(0.21539 0.240923 0)
(-0.162646 -0.0181435 0)
(-0.342972 -0.0110592 0)
(-0.319931 0.0990594 0)
(-0.279211 0.210216 0)
(-0.353513 0.300992 0)
(-0.60426 0.343914 0)
(-0.421774 0.488293 0)
(-0.286523 0.68293 0)
(-0.184668 0.743037 0)
(-0.209757 0.623817 0)
(-0.20886 0.137105 0)
(-0.127028 0.0529423 0)
(0.0928165 -0.478184 0)
(0.343469 -0.738021 0)
(0.389632 -0.408734 0)
(0.204607 -0.405155 0)
(-0.133006 -0.486605 0)
(-0.125799 -0.330912 0)
(0.000276685 -0.192134 0)
(0.0936752 -0.120418 0)
(0.324979 -0.128629 0)
(0.567105 0.0598366 0)
(0.899846 0.459003 0)
(1.50716 0.744263 0)
(1.41214 0.258805 0)
(0.681203 0.0265293 0)
(0.0556323 0.426064 0)
(-0.463462 0.593094 0)
(-0.727818 0.297048 0)
(-0.776515 0.100429 0)
(-0.659938 0.0989543 0)
(-0.488217 0.144789 0)
(-0.300075 0.137924 0)
(-0.239884 -0.149659 0)
(-0.00807971 -0.0999985 0)
(0.550532 -0.695851 0)
(0.805834 -0.899146 0)
(0.85343 -0.625235 0)
(0.99045 0.036191 0)
(0.525813 -0.218815 0)
(0.210249 -0.329935 0)
(0.217561 -0.330696 0)
(0.373722 -0.451697 0)
(0.627293 -0.663485 0)
(0.893666 -0.778287 0)
(1.27796 -0.565118 0)
(2.03937 0.325969 0)
(2.13665 0.655783 0)
(1.41447 0.787063 0)
(0.718779 0.94834 0)
(0.393057 1.11467 0)
(0.186008 0.757011 0)
(-0.0545172 0.350029 0)
(0.0108869 0.276821 0)
(-0.0618419 0.325041 0)
(0.160538 0.303711 0)
(0.153476 -0.111834 0)
(0.18484 -0.51797 0)
(0.764079 -0.989514 0)
(1.08277 -0.994252 0)
(1.13932 -0.835029 0)
(1.2753 -0.253488 0)
(1.59365 0.23714 0)
(1.57106 0.0972672 0)
(1.04379 -0.195492 0)
(0.698965 -0.499529 0)
(0.590205 -0.753664 0)
(0.612044 -0.864242 0)
(0.790012 -0.740055 0)
(1.30607 -0.12071 0)
(1.8291 0.92492 0)
(1.39188 1.25721 0)
(1.08469 1.36309 0)
(1.07466 1.29159 0)
(1.18138 0.906695 0)
(1.43581 0.381483 0)
(1.80683 0.165273 0)
(1.94363 0.234416 0)
(1.9543 0.290444 0)
(1.92995 0.0957405 0)
(0.0282639 -1.18116 0)
(0.703141 -1.70192 0)
(1.29144 -1.25055 0)
(1.28286 -0.837482 0)
(1.14626 -0.528158 0)
(1.26735 -0.284681 0)
(1.40792 0.0477757 0)
(1.36735 0.267073 0)
(1.06525 0.0953659 0)
(0.489274 -0.574413 0)
(0.40709 -0.932583 0)
(0.314493 -1.05393 0)
(0.822998 -0.311695 0)
(1.02732 0.729402 0)
(0.968002 1.41376 0)
(1.00417 1.43717 0)
(1.22201 1.12197 0)
(1.55587 0.513371 0)
(1.78212 -0.0232993 0)
(1.86928 -0.224117 0)
(2.0542 -0.182312 0)
(2.33638 0.0705793 0)
(2.4937 0.425304 0)
(-0.112648 -1.47022 0)
(0.553766 -2.38659 0)
(1.15711 -1.49442 0)
(1.17756 -0.705736 0)
(0.989247 -0.510131 0)
(1.02009 -0.221064 0)
(1.24584 0.0993411 0)
(1.34944 0.302934 0)
(1.05385 0.433124 0)
(0.548383 -0.110439 0)
(0.571593 -0.745739 0)
(0.111901 -1.28617 0)
(0.25603 -0.399149 0)
(0.28648 0.604322 0)
(0.419703 1.27826 0)
(0.701085 1.24366 0)
(1.08652 0.79491 0)
(1.35391 0.259044 0)
(1.41569 -0.0488287 0)
(1.40846 -0.201103 0)
(1.47643 -0.272958 0)
(1.6812 -0.150771 0)
(1.89246 0.158084 0)
(-0.246463 -1.69306 0)
(0.398307 -2.84007 0)
(0.450485 -1.81921 0)
(0.583959 -0.587292 0)
(0.560957 -0.278336 0)
(0.581736 -0.33614 0)
(0.560906 -0.118256 0)
(0.511997 0.446762 0)
(0.161448 0.696631 0)
(0.305602 -0.232976 0)
(0.417731 -0.635664 0)
(0.219549 -0.69535 0)
(-0.266558 -0.435702 0)
(-0.0890125 0.415759 0)
(0.192257 0.916493 0)
(0.628926 0.709039 0)
(0.969897 0.364217 0)
(1.18075 0.128874 0)
(1.24402 -0.0624183 0)
(1.25518 -0.263248 0)
(1.33037 -0.379337 0)
(1.44447 -0.232173 0)
(1.50919 0.118339 0)
(-0.34482 -1.85104 0)
(0.365022 -2.76076 0)
(-0.406039 -1.17466 0)
(-0.0865396 -0.687183 0)
(-0.0333907 -0.612626 0)
(0.178686 -0.283646 0)
(0.126033 0.237525 0)
(0.0287943 0.632707 0)
(0.0603439 0.62929 0)
(0.362968 -0.40515 0)
(0.438468 -0.599833 0)
(0.398913 -0.486793 0)
(0.271832 -0.216495 0)
(0.291729 0.249733 0)
(0.59365 0.469996 0)
(0.822194 0.374254 0)
(0.943603 0.156159 0)
(1.04264 0.0141463 0)
(1.20711 -0.0550104 0)
(1.45484 -0.294607 0)
(1.4483 -0.501095 0)
(1.2818 -0.249125 0)
(1.19166 0.191871 0)
(-0.386615 -1.9428 0)
(0.273463 -2.42458 0)
(-0.911286 -1.21923 0)
(-0.321605 -1.06364 0)
(-0.415968 -0.79952 0)
(-0.202122 -0.364987 0)
(-0.103225 0.234544 0)
(-0.0292762 0.508425 0)
(0.108658 0.364393 0)
(0.262114 -0.42475 0)
(0.393469 -0.651497 0)
(0.509737 -0.509808 0)
(0.594932 -0.314738 0)
(0.719202 -0.0357649 0)
(0.939371 0.265412 0)
(1.13539 0.360558 0)
(1.24895 0.164881 0)
(1.37615 -0.11885 0)
(1.43944 -0.345385 0)
(1.47785 -0.464337 0)
(1.29269 -0.342808 0)
(0.918947 0.0626375 0)
(0.71232 0.477128 0)
(-0.377699 -1.95844 0)
(0.223095 -1.65072 0)
(-0.781324 -1.36797 0)
(-0.32823 -1.16915 0)
(-0.524255 -0.872764 0)
(-0.380023 -0.482793 0)
(-0.18451 0.0499955 0)
(0.0297753 0.332408 0)
(0.344979 0.178292 0)
(0.468309 -0.558324 0)
(0.274779 -0.846405 0)
(0.401278 -0.602083 0)
(0.567703 -0.419452 0)
(0.767631 -0.182045 0)
(1.01523 0.202528 0)
(1.16855 0.277409 0)
(1.24692 0.00596205 0)
(1.219 -0.20951 0)
(1.09996 -0.265746 0)
(0.959638 -0.222099 0)
(0.707264 -0.0444372 0)
(0.292466 0.369443 0)
(0.0159648 0.885292 0)
(-0.340954 -1.91342 0)
(0.180244 -1.37538 0)
(-0.423185 -1.28691 0)
(-0.309376 -1.0793 0)
(-0.544789 -0.873553 0)
(-0.500836 -0.574421 0)
(-0.341089 -0.219614 0)
(-0.0246629 0.00629076 0)
(0.287181 -0.138922 0)
(0.389598 -0.440036 0)
(0.352638 -0.671111 0)
(0.271867 -0.863153 0)
(0.230328 -0.693314 0)
(0.273926 -0.315233 0)
(0.427006 -0.0328118 0)
(0.594803 0.0431446 0)
(0.676292 0.0191552 0)
(0.586755 -0.0591611 0)
(0.421428 -0.100405 0)
(0.204754 0.0233891 0)
(-0.0736505 0.309939 0)
(-0.390083 0.714779 0)
(-0.588869 1.17689 0)
(-0.301415 -1.8594 0)
(0.210154 -1.40524 0)
(-0.175289 -1.14335 0)
(-0.2046 -0.893555 0)
(-0.486889 -0.774983 0)
(-0.531105 -0.586894 0)
(-0.498794 -0.405997 0)
(-0.330064 -0.324342 0)
(-0.183536 -0.387919 0)
(-0.117524 -0.531143 0)
(-0.110889 -0.632104 0)
(-0.125849 -0.64694 0)
(-0.129418 -0.568143 0)
(-0.0994488 -0.399267 0)
(-0.00860056 -0.180136 0)
(0.0662717 -0.0145033 0)
(0.0752844 0.0421836 0)
(-0.0438112 0.0355861 0)
(-0.221538 0.117126 0)
(-0.450674 0.320738 0)
(-0.678312 0.613009 0)
(-0.842959 0.935373 0)
(-0.86915 1.21904 0)
(-0.243094 -1.83805 0)
(0.194769 -1.48033 0)
(-0.0630091 -1.03014 0)
(-0.102356 -0.678558 0)
(-0.418613 -0.630989 0)
(-0.479937 -0.513225 0)
(-0.530699 -0.408315 0)
(-0.492501 -0.368113 0)
(-0.455893 -0.425258 0)
(-0.450055 -0.538678 0)
(-0.475179 -0.641269 0)
(-0.507713 -0.67217 0)
(-0.524324 -0.59486 0)
(-0.510016 -0.424808 0)
(-0.453559 -0.207843 0)
(-0.402031 -0.0182992 0)
(-0.411581 0.104741 0)
(-0.508309 0.187633 0)
(-0.655914 0.309134 0)
(-0.812741 0.500481 0)
(-0.921555 0.727284 0)
(-0.934697 0.933319 0)
(-0.825546 1.06501 0)
(-0.174959 -1.83492 0)
(0.13724 -1.5263 0)
(-0.0822815 -0.904458 0)
(-0.0814144 -0.478118 0)
(-0.394911 -0.478416 0)
(-0.450296 -0.42288 0)
(-0.539449 -0.378677 0)
(-0.56974 -0.370647 0)
(-0.606397 -0.416609 0)
(-0.659797 -0.498219 0)
(-0.733349 -0.578968 0)
(-0.809584 -0.617529 0)
(-0.865548 -0.578986 0)
(-0.880541 -0.448095 0)
(-0.841966 -0.246907 0)
(-0.785239 -0.0358899 0)
(-0.761557 0.137762 0)
(-0.789893 0.276463 0)
(-0.847358 0.413104 0)
(-0.894177 0.564463 0)
(-0.889906 0.711671 0)
(-0.817574 0.824455 0)
(-0.686552 0.889326 0)
(-0.122888 -1.80357 0)
(0.0547637 -1.56918 0)
(-0.118982 -0.754396 0)
(-0.155189 -0.319477 0)
(-0.396601 -0.344666 0)
(-0.441344 -0.316675 0)
(-0.544651 -0.300328 0)
(-0.605279 -0.309103 0)
(-0.67531 -0.35048 0)
(-0.758366 -0.415526 0)
(-0.860907 -0.484055 0)
(-0.972935 -0.529232 0)
(-1.07402 -0.52236 0)
(-1.13815 -0.440077 0)
(-1.14303 -0.281287 0)
(-1.09453 -0.081808 0)
(-1.03275 0.110516 0)
(-0.986692 0.274951 0)
(-0.950883 0.417801 0)
(-0.908161 0.543422 0)
(-0.8413 0.647562 0)
(-0.749701 0.725512 0)
(-0.647408 0.782236 0)
(-0.101008 -1.75527 0)
(-0.0300565 -1.55664 0)
(-0.143891 -0.644034 0)
(-0.215817 -0.198612 0)
(-0.400991 -0.240175 0)
(-0.43809 -0.225689 0)
(-0.544896 -0.221546 0)
(-0.618771 -0.233964 0)
(-0.701727 -0.266995 0)
(-0.79135 -0.315084 0)
(-0.895408 -0.367377 0)
(-1.01216 -0.408565 0)
(-1.1317 -0.420461 0)
(-1.2332 -0.384758 0)
(-1.29146 -0.289456 0)
(-1.29132 -0.141371 0)
(-1.24162 0.0313706 0)
(-1.1669 0.199723 0)
(-1.08426 0.346376 0)
(-0.995281 0.468871 0)
(-0.898951 0.567086 0)
(-0.797516 0.641932 0)
(-0.695018 0.696107 0)
(-0.118026 -1.66531 0)
(-0.0908732 -1.51521 0)
(-0.194323 -0.563405 0)
(-0.25753 -0.103828 0)
(-0.406248 -0.146327 0)
(-0.447029 -0.129907 0)
(-0.562515 -0.13083 0)
(-0.646724 -0.14771 0)
(-0.735309 -0.180447 0)
(-0.821014 -0.221819 0)
(-0.910641 -0.263338 0)
(-1.0052 -0.295219 0)
(-1.10291 -0.307101 0)
(-1.19548 -0.289144 0)
(-1.26808 -0.234647 0)
(-1.30444 -0.143387 0)
(-1.29525 -0.0232421 0)
(-1.2438 0.112481 0)
(-1.16302 0.245266 0)
(-1.06416 0.361633 0)
(-0.954487 0.456279 0)
(-0.838756 0.527586 0)
(-0.719339 0.576177 0)
(-0.146565 -1.54129 0)
(-0.136886 -1.45101 0)
(-0.243689 -0.485852 0)
(-0.281895 -0.04601 0)
(-0.401153 -0.0607387 0)
(-0.464801 -0.0281845 0)
(-0.595095 -0.029008 0)
(-0.694687 -0.0524271 0)
(-0.791059 -0.0919777 0)
(-0.873611 -0.137823 0)
(-0.94904 -0.18141 0)
(-1.01928 -0.214163 0)
(-1.08479 -0.228685 0)
(-1.14246 -0.218968 0)
(-1.18663 -0.182401 0)
(-1.21047 -0.120924 0)
(-1.20775 -0.0397245 0)
(-1.17499 0.0545915 0)
(-1.11215 0.155036 0)
(-1.02494 0.250679 0)
(-0.921177 0.333148 0)
(-0.807976 0.398758 0)
(-0.691272 0.447487 0)
(-0.169356 -1.40088 0)
(-0.178638 -1.36709 0)
(-0.242027 -0.407069 0)
(-0.176607 -0.0111961 0)
(-0.342888 0.0512946 0)
(-0.462489 0.103826 0)
(-0.628255 0.0968947 0)
(-0.751999 0.0573571 0)
(-0.85861 0.000243782 0)
(-0.940695 -0.06053 0)
(-1.00474 -0.115291 0)
(-1.05423 -0.157096 0)
(-1.09313 -0.181117 0)
(-1.12141 -0.183741 0)
(-1.13649 -0.162993 0)
(-1.13494 -0.119907 0)
(-1.11458 -0.0591358 0)
(-1.07457 0.0123044 0)
(-1.01502 0.0879828 0)
(-0.937549 0.162852 0)
(-0.84667 0.231536 0)
(-0.74779 0.290507 0)
(-0.646153 0.338928 0)
(-0.161248 -1.23175 0)
(-0.204785 -1.31187 0)
(-0.190946 -0.506247 0)
(0.164327 0.113767 0)
(-0.212186 0.256224 0)
(-0.427576 0.289952 0)
(-0.645928 0.259571 0)
(-0.80522 0.188763 0)
(-0.930815 0.0994054 0)
(-1.01743 0.0106424 0)
(-1.07453 -0.0657866 0)
(-1.10742 -0.123405 0)
(-1.12188 -0.15918 0)
(-1.12276 -0.173009 0)
(-1.1124 -0.166144 0)
(-1.09001 -0.140127 0)
(-1.0537 -0.0972644 0)
(-1.00299 -0.0417279 0)
(-0.939039 0.0205431 0)
(-0.864069 0.0837209 0)
(-0.781021 0.143809 0)
(-0.693012 0.197961 0)
(-0.602785 0.244617 0)
(-0.0892598 -1.03005 0)
(-0.173056 -1.27104 0)
(-0.131937 -0.849627 0)
(0.259685 0.0545994 0)
(-0.0213073 0.571523 0)
(-0.384835 0.538243 0)
(-0.642084 0.464652 0)
(-0.83517 0.346096 0)
(-0.981867 0.212308 0)
(-1.08022 0.0838713 0)
(-1.14003 -0.0260484 0)
(-1.16694 -0.110042 0)
(-1.16671 -0.165194 0)
(-1.14477 -0.191803 0)
(-1.10818 -0.19402 0)
(-1.06271 -0.177412 0)
(-1.01016 -0.14611 0)
(-0.949329 -0.102705 0)
(-0.880096 -0.0505611 0)
(-0.8044 0.00537619 0)
(-0.724553 0.0605775 0)
(-0.642625 0.112001 0)
(-0.559956 0.157732 0)
(0.0142233 -0.992467 0)
(0.100533 -1.21842 0)
(-0.00725788 -1.06272 0)
(0.225617 -0.0250431 0)
(0.0830075 0.884659 0)
(-0.347052 0.840849 0)
(-0.619612 0.706711 0)
(-0.83598 0.528555 0)
(-0.996333 0.342792 0)
(-1.10419 0.169068 0)
(-1.17019 0.0198547 0)
(-1.20044 -0.0985157 0)
(-1.20033 -0.183406 0)
(-1.17211 -0.232875 0)
(-1.11993 -0.248672 0)
(-1.05243 -0.237936 0)
(-0.979441 -0.210228 0)
(-0.905423 -0.172071 0)
(-0.829345 -0.125714 0)
(-0.750782 -0.0734222 0)
(-0.671741 -0.0195732 0)
(-0.593586 0.0318231 0)
(-0.516672 0.0783904 0)
(0.0960926 -1.11682 0)
(0.262575 -1.27884 0)
(0.216586 -0.975878 0)
(0.171337 0.0148048 0)
(0.112869 1.15593 0)
(-0.329336 1.1679 0)
(-0.594644 0.967761 0)
(-0.824249 0.725227 0)
(-0.991503 0.484816 0)
(-1.10285 0.264493 0)
(-1.16725 0.0756657 0)
(-1.19484 -0.0772581 0)
(-1.19454 -0.193893 0)
(-1.17106 -0.274128 0)
(-1.12256 -0.315937 0)
(-1.04888 -0.319957 0)
(-0.959406 -0.294534 0)
(-0.868169 -0.253563 0)
(-0.782126 -0.206188 0)
(-0.700031 -0.154058 0)
(-0.620705 -0.0988232 0)
(-0.545145 -0.0445453 0)
(-0.473311 0.00528302 0)
(0.112708 -1.30455 0)
(0.165541 -1.44399 0)
(0.266316 -0.892915 0)
(0.140657 0.0907982 0)
(0.0908142 1.41454 0)
(-0.312762 1.4918 0)
(-0.573542 1.23225 0)
(-0.815927 0.929072 0)
(-0.997086 0.631279 0)
(-1.11795 0.356904 0)
(-1.17758 0.122318 0)
(-1.18728 -0.0641377 0)
(-1.16498 -0.2039 0)
(-1.12946 -0.304568 0)
(-1.08621 -0.372244 0)
(-1.02462 -0.403847 0)
(-0.937256 -0.394162 0)
(-0.834257 -0.351783 0)
(-0.734482 -0.295384 0)
(-0.646414 -0.236526 0)
(-0.567439 -0.176568 0)
(-0.494893 -0.117216 0)
(-0.428192 -0.0621918 0)
(0.0739346 -1.42005 0)
(0.0563737 -1.50195 0)
(0.158175 -0.864384 0)
(0.124096 0.14695 0)
(0.0670281 1.59621 0)
(-0.280485 1.80404 0)
(-0.546661 1.49791 0)
(-0.802444 1.14576 0)
(-1.00814 0.789968 0)
(-1.15288 0.449127 0)
(-1.2211 0.150064 0)
(-1.21692 -0.086086 0)
(-1.15887 -0.250652 0)
(-1.0807 -0.352966 0)
(-1.01325 -0.420061 0)
(-0.957183 -0.469127 0)
(-0.888316 -0.488037 0)
(-0.791561 -0.461086 0)
(-0.682695 -0.397479 0)
(-0.585388 -0.322886 0)
(-0.506445 -0.25203 0)
(-0.438811 -0.184909 0)
(-0.378679 -0.123068 0)
(0.0328301 -1.46629 0)
(-0.00840278 -1.50656 0)
(0.0756461 -0.880001 0)
(0.119591 0.199403 0)
(0.0528476 1.74577 0)
(-0.248114 2.09973 0)
(-0.503057 1.76142 0)
(-0.758339 1.3795 0)
(-0.978724 0.977932 0)
(-1.14833 0.567052 0)
(-1.24222 0.183548 0)
(-1.24943 -0.131097 0)
(-1.17625 -0.347646 0)
(-1.05527 -0.45843 0)
(-0.937399 -0.498307 0)
(-0.855518 -0.526071 0)
(-0.797409 -0.559613 0)
(-0.720273 -0.563327 0)
(-0.615814 -0.508574 0)
(-0.51222 -0.415246 0)
(-0.4328 -0.324066 0)
(-0.373079 -0.245358 0)
(-0.322166 -0.175524 0)
(0.0129813 -1.45963 0)
(-0.0442783 -1.51656 0)
(0.0158145 -0.986922 0)
(0.100933 0.237951 0)
(0.0269881 1.89174 0)
(-0.220302 2.35659 0)
(-0.430078 2.00633 0)
(-0.661888 1.61093 0)
(-0.870957 1.17883 0)
(-1.04285 0.719873 0)
(-1.15928 0.260664 0)
(-1.19884 -0.155516 0)
(-1.14833 -0.458702 0)
(-1.01905 -0.612997 0)
(-0.867096 -0.633969 0)
(-0.743451 -0.608323 0)
(-0.672167 -0.615736 0)
(-0.607432 -0.643841 0)
(-0.515445 -0.616357 0)
(-0.417388 -0.511074 0)
(-0.342275 -0.390727 0)
(-0.294738 -0.294882 0)
(-0.257372 -0.216436 0)
(0.00700719 -1.44016 0)
(-0.0881729 -1.49622 0)
(-0.080907 -1.07994 0)
(0.042453 0.275274 0)
(0.00503569 2.02083 0)
(-0.174793 2.54264 0)
(-0.309468 2.20801 0)
(-0.489193 1.81266 0)
(-0.666016 1.3521 0)
(-0.814369 0.850065 0)
(-0.934717 0.343864 0)
(-1.00739 -0.134894 0)
(-1.00305 -0.537477 0)
(-0.900177 -0.770381 0)
(-0.754529 -0.803673 0)
(-0.611743 -0.725909 0)
(-0.519778 -0.674338 0)
(-0.448623 -0.707868 0)
(-0.36353 -0.716066 0)
(-0.286316 -0.600504 0)
(-0.229282 -0.444176 0)
(-0.202356 -0.327305 0)
(-0.184853 -0.241295 0)
(-0.0169171 -1.39958 0)
(-0.156063 -1.42797 0)
(-0.228216 -1.11529 0)
(-0.0861102 0.148327 0)
(0.0018938 2.07207 0)
(-0.092669 2.64054 0)
(-0.123503 2.34025 0)
(-0.237357 1.95647 0)
(-0.35987 1.49728 0)
(-0.477926 0.992898 0)
(-0.580667 0.459162 0)
(-0.649152 -0.0819695 0)
(-0.705796 -0.561797 0)
(-0.652943 -0.887686 0)
(-0.543212 -0.964401 0)
(-0.417259 -0.859184 0)
(-0.322721 -0.752234 0)
(-0.226314 -0.779359 0)
(-0.13585 -0.805266 0)
(-0.107787 -0.661512 0)
(-0.088545 -0.463879 0)
(-0.0986285 -0.332099 0)
(-0.108721 -0.244879 0)
(-0.0627661 -1.27618 0)
(-0.233356 -1.31786 0)
(-0.387285 -1.10423 0)
(-0.268849 0.200752 0)
(0.00746296 2.0012 0)
(0.0359568 2.62012 0)
(0.129208 2.40212 0)
(0.0781946 2.03487 0)
(0.0173083 1.59667 0)
(-0.0501136 1.10988 0)
(-0.135529 0.58167 0)
(-0.193024 0.0198738 0)
(-0.247919 -0.528728 0)
(-0.27708 -0.936809 0)
(-0.222927 -1.07942 0)
(-0.146241 -0.98454 0)
(-0.0679598 -0.865281 0)
(0.075241 -0.868554 0)
(0.14976 -0.842005 0)
(0.104265 -0.670448 0)
(0.0581547 -0.428258 0)
(0.00144932 -0.298436 0)
(-0.0392229 -0.224349 0)
(-0.0845405 -1.09749 0)
(-0.293557 -1.1602 0)
(-0.501621 -1.05242 0)
(-0.431485 -0.0066729 0)
(0.045959 1.75925 0)
(0.216943 2.45145 0)
(0.43785 2.3817 0)
(0.459251 2.0552 0)
(0.451275 1.63885 0)
(0.428181 1.17182 0)
(0.375103 0.657534 0)
(0.321529 0.0982078 0)
(0.284587 -0.458373 0)
(0.194389 -0.91079 0)
(0.167725 -1.11842 0)
(0.161134 -1.069 0)
(0.210118 -0.97482 0)
(0.318113 -0.923228 0)
(0.341197 -0.837795 0)
(0.267948 -0.629893 0)
(0.153787 -0.343901 0)
(0.0667453 -0.22751 0)
(0.00919617 -0.183389 0)
(-0.0729949 -0.897783 0)
(-0.313604 -0.980264 0)
(-0.5387 -0.938582 0)
(-0.552737 -0.267605 0)
(0.0589913 1.33151 0)
(0.414609 2.13229 0)
(0.763544 2.24336 0)
(0.903503 2.01159 0)
(0.962703 1.6428 0)
(0.972764 1.20638 0)
(0.941893 0.721542 0)
(0.885217 0.193545 0)
(0.814895 -0.357097 0)
(0.682337 -0.824013 0)
(0.560597 -1.06802 0)
(0.454571 -1.07133 0)
(0.44187 -0.977098 0)
(0.443674 -0.932939 0)
(0.406376 -0.80834 0)
(0.304005 -0.544087 0)
(0.154423 -0.234842 0)
(0.073024 -0.144612 0)
(0.0257407 -0.136393 0)
(-0.0596285 -0.704821 0)
(-0.294989 -0.790928 0)
(-0.496984 -0.780068 0)
(-0.580812 -0.457329 0)
(-0.177982 0.583665 0)
(0.502784 1.63533 0)
(0.999068 1.95551 0)
(1.30398 1.86595 0)
(1.47517 1.58469 0)
(1.55097 1.21983 0)
(1.53574 0.797824 0)
(1.45657 0.313899 0)
(1.31478 -0.210607 0)
(1.10617 -0.66107 0)
(0.874868 -0.917841 0)
(0.670712 -0.954905 0)
(0.567756 -0.900803 0)
(0.48639 -0.867638 0)
(0.371545 -0.706604 0)
(0.210122 -0.403884 0)
(0.0724005 -0.125224 0)
(0.0373702 -0.0881944 0)
(0.0171527 -0.102303 0)
(-0.0480736 -0.556597 0)
(-0.188147 -0.588877 0)
(-0.386801 -0.619703 0)
(-0.497059 -0.464547 0)
(-0.377583 -0.0216248 0)
(0.330005 0.965925 0)
(0.953652 1.44419 0)
(1.44453 1.53266 0)
(1.79668 1.4057 0)
(1.99549 1.17006 0)
(2.02081 0.855494 0)
(1.90841 0.454138 0)
(1.68682 0.00255795 0)
(1.38302 -0.398285 0)
(1.04545 -0.661333 0)
(0.763717 -0.730523 0)
(0.613839 -0.761256 0)
(0.463069 -0.726772 0)
(0.249461 -0.537072 0)
(0.0556582 -0.22405 0)
(-0.00488129 -0.0672027 0)
(0.00687961 -0.0773005 0)
(0.00184996 -0.0868536 0)
(-0.0323775 -0.47117 0)
(-0.0931133 -0.454949 0)
(-0.240803 -0.461969 0)
(-0.344189 -0.414713 0)
(-0.340299 -0.191339 0)
(-0.0985914 0.188274 0)
(0.560496 0.790023 0)
(1.16661 0.974009 0)
(1.71763 1.0124 0)
(2.10014 0.997301 0)
(2.22528 0.885896 0)
(2.10629 0.637865 0)
(1.8199 0.29194 0)
(1.4406 -0.0601353 0)
(1.03959 -0.334444 0)
(0.752397 -0.493028 0)
(0.596284 -0.584636 0)
(0.366475 -0.528278 0)
(0.103546 -0.308964 0)
(-0.019211 -0.111746 0)
(-0.0135761 -0.0826981 0)
(-0.00485866 -0.0840631 0)
(-0.00729681 -0.0816285 0)
(-0.0197007 -0.422219 0)
(-0.0576196 -0.409226 0)
(-0.0807489 -0.356644 0)
(-0.171668 -0.334198 0)
(-0.238872 -0.217255 0)
(-0.224635 0.0185552 0)
(0.0724449 0.17027 0)
(0.551398 0.215007 0)
(1.15701 0.405832 0)
(1.71514 0.680431 0)
(1.97869 0.881859 0)
(1.9057 0.847032 0)
(1.6194 0.629887 0)
(1.24114 0.335309 0)
(0.870155 -0.0191884 0)
(0.654009 -0.288895 0)
(0.480412 -0.38173 0)
(0.203905 -0.277703 0)
(0.0223848 -0.138392 0)
(-0.00318585 -0.110477 0)
(-0.00677963 -0.0916355 0)
(-0.0083238 -0.0837673 0)
(-0.00909445 -0.0804674 0)
(-0.00980088 -0.392212 0)
(-0.0297941 -0.383398 0)
(-0.0514785 -0.349821 0)
(-0.0244332 -0.280761 0)
(-0.0199706 -0.225575 0)
(0.0382749 -0.049235 0)
(0.208544 0.0525017 0)
(0.509944 -0.253044 0)
(1.02736 -0.192882 0)