/*--------------------------------*- C++ -*----------------------------------*\
| =========                 |                                                 |
| \\      /  F ield         | OpenFOAM: The Open Source CFD Toolbox           |
|  \\    /   O peration     | Version:  2.3.0                                 |
|   \\  /    A nd           | Web:      www.OpenFOAM.org                      |
|    \\/     M anipulation  |                                                 |
\*---------------------------------------------------------------------------*/
FoamFile
{
    version     2.0;
    format      ascii;
    class       volScalarField;
    location    "1.15";
    object      alpha.water;
}
// * * * * * * * * * * * * * * * * * * * * * * * * * * * * * * * * * * * * * //

dimensions      [0 0 0 0 0 0 0];

internalField   nonuniform List<scalar> 
2268
(
1
1
1
1
1
1
1
1
1
1
1
0.99961
0.995848
0.995837
0.993564
0.979335
0.979335
0.979419
0.979435
0.988928
0.999969
0.999997
0.99999
1
1
1
1
1
1
1
1
1
1
0.999911
0.983949
0.957616
0.958181
0.974045
0.9839
0.996742
0.996839
0.992535
0.995049
0.998241
0.999997
0.99999
1
1
1
1
1
1
1
1
1
1
0.998141
0.961869
0.954235
0.954234
0.954279
0.982981
0.999997
0.999999
0.999999
0.999999
0.999957
0.999995
0.999993
1
1
1
1
1
1
1
1
1
1
0.999248
0.971393
0.954234
0.954233
0.977266
0.999991
0.999998
0.999999
0.999999
0.999999
0.999999
0.999999
0.999999
1
1
1
1
0.999995
0.999939
0.999829
1
1
1
0.999891
0.995488
0.984999
0.991241
0.999976
0.999961
0.999989
0.999998
0.999999
0.999999
0.999999
0.999999
0.999999
0.999985
1
1
1
0.999999
0.999714
0.99947
0.999989
1
0.999999
0.999992
1
0.999999
0.999998
0.999988
0.999976
0.999983
0.999148
0.993691
0.984762
0.993025
0.999999
0.999999
0.997066
0.9978
0.999997
1
1
0.999835
0.999468
0.999641
1
1
1
1
1
0.999995
0.999977
0.977637
0.94991
0.926159
0.904704
0.879152
0.868294
0.894681
0.981293
0.996911
0.980591
0.998067
1
1
1
0.999731
0.999526
0.999941
1
1
1
0.999999
0.983038
0.826354
0.759472
0.814216
0.863437
0.860584
0.882672
0.867096
0.867096
0.97833
0.986091
0.986012
0.899041
0.783122
0.802328
0.846807
0.822379
0.813981
0.813981
0.96183
0.982395
0.976661
0.817623
0.839547
0.889038
0.889038
0.880407
0.843408
0.83622
0.986136
0.968167
0.784408
0.783122
0.96327
0.98197
0.978456
0.924911
0.88651
0.942432
0.983948
0.98396
0.898854
0.784792
0.889038
0.820009
0.579375
0.509885
0.742042
0.987179
0.924658
0.785151
0.900248
0.981624
0.983016
0.981484
0.97876
0.980349
0.98256
0.984264
0.983974
0.838943
0.783885
0.887766
0.472561
0.140725
0.140666
0.312779
0.991364
0.928042
0.785376
0.952473
0.984592
0.98374
0.968506
0.951223
0.977895
0.984272
0.984358
0.920326
0.753764
0.770462
0.74681
0.140354
0.140579
0.140876
0.141968
0.993933
0.878433
0.919317
0.988802
0.98705
0.984793
0.954049
0.951226
0.9654
0.984367
0.984379
0.759594
0.749664
0.776442
0.576493
0.145533
0.140892
0.212137
0.148607
0.993933
0.917058
0.993611
0.990763
0.988204
0.984742
0.983365
0.980642
0.984367
0.984384
0.984377
0.770695
0.748673
0.773752
0.360086
0.203897
0.212571
0.218763
0.218763
0.993932
0.993889
0.993813
0.968717
0.77424
0.970299
0.984195
0.984225
0.984257
0.984367
0.968929
0.955965
0.914
0.693251
0.0733837
0.135426
0.207778
0.218628
0.218763
0.993889
0.993813
0.993779
0.966238
0.593146
0.598675
0.795874
0.849392
0.806144
0.802827
0.948655
0.949145
0.916328
0.354452
0.017211
0.0378464
0.0788878
0.218542
0.218083
0.790225
0.857227
0.901566
0.967919
0.999999
1
0.999988
0.999871
0.999941
1
1
1
0.990311
0.718541
0.40722
0.340122
0.508916
0.731555
0.876781
0.937551
0.963305
0.980865
0.993775
0.168179
0.334323
0.691962
0.927401
0.999957
0.999988
0.999987
0.999985
0.999985
1
1
0.999922
0.69265
0.118819
0.117804
0.117909
0.112257
0.163986
0.219934
0.321381
0.586646
0.821897
0.937515
0.0807237
0.0808141
0.47409
0.652024
0.916878
0.99995
0.999985
0.999985
0.999987
1
0.999812
0.746253
0.171599
0.120294
0.119175
0.127239
0.103164
0.102482
0.10242
0.1049
0.0654536
0.0398002
0.0398814
0.0808178
0.0807382
0.0817744
0.0871165
0.50169
0.992259
0.999975
0.999983
0.999988
0.999699
0.874628
0.179008
0.0416184
0.175598
0.176895
0.177152
0.177152
0.177152
0.177069
0.14911
0.083939
0.0824456
0.0398814
0.105748
0.178351
0.584004
0.998608
0.998402
0.9983
0.999824
0.999974
0.999717
0.981507
0.357923
0.00319592
0.000937527
0.045794
0.0983989
0.136773
0.155676
0.168108
0.175654
0.175334
0.175334
0.175334
0.131349
0.482265
0.723932
0.944576
0.947853
0.980457
0.999491
0.99977
0.999705
0.935991
0.317667
0.00322726
0.000434861
5.88928e-05
-5.87881e-06
3.29102e-07
4.42337e-08
1.49924e-07
3.94755e-06
0.0870437
0.153918
0.175334
0.17423
0.170677
0.599055
0.602206
0.497398
0.58681
0.939767
0.992274
0.985815
0.656777
0.216389
0.00392869
0.0004747
6.82642e-05
-2.09889e-06
2.98078e-07
7.21063e-08
4.07669e-08
4.1174e-08
2.03305e-08
-1.09266e-06
1.79064e-06
0.0292484
0.129751
0.165256
0.499603
0.428673
0.0876626
0.0708867
0.221505
0.322238
0.327802
0.0952763
0.00294791
0.000770549
7.53295e-05
1.73481e-05
1.85396e-05
2.37242e-05
7.75444e-06
4.07835e-08
4.07267e-08
4.09707e-08
4.30652e-08
4.47802e-08
-2.93591e-08
4.00371e-06
0.0447161
0.681045
0.62651
0.119458
0.0326237
0.0253857
0.020953
0.012279
0.00408072
0.00123148
0.000556325
0.000358192
2.39406e-05
2.60166e-05
2.73135e-05
1.01471e-05
4.07312e-08
4.11769e-08
4.25608e-08
5.4908e-08
3.89137e-08
3.42382e-08
3.8886e-09
-1.61858e-07
0.681045
0.678389
0.374714
0.027168
0.0226515
0.0220867
0.0216879
0.0309318
0.0259698
0.00414872
0.000138338
6.85114e-05
6.21867e-06
1.83163e-05
4.8647e-08
4.1951e-08
4.97509e-08
7.17147e-08
1.02571e-07
2.80194e-08
5.70652e-09
1.90293e-10
-1.09207e-12
0.667125
0.566298
0.309105
0.0273883
0.0252881
0.0248826
0.0346026
0.0346759
0.0346759
0.0147782
0.000218248
0.000277297
9.95176e-07
6.22201e-08
5.3038e-08
5.79767e-08
8.29985e-07
4.67297e-06
5.66326e-06
5.55207e-07
3.69006e-08
6.55773e-10
3.07491e-10
0.25695
0.148673
0.14633
0.0819014
0.0631825
0.0428916
0.0260525
0.0208924
0.0232851
0.00991736
9.5391e-05
0.000114571
1.24435e-07
7.06063e-08
8.2279e-08
6.42343e-07
1.66876e-05
3.45395e-05
3.91254e-05
2.43781e-05
4.29935e-06
3.48887e-08
4.44022e-09
0.192048
0.0814951
0.021424
0.0386573
0.0364229
0.0226112
0.00454996
0.000986788
0.00129751
0.00112343
1.13435e-05
6.17485e-07
3.32867e-07
3.36524e-06
1.88138e-05
2.10215e-05
3.25438e-05
4.16832e-05
4.4585e-05
4.4585e-05
3.82766e-05
5.74878e-06
3.32441e-08
0.406333
0.0615507
0.000121299
4.318e-05
0.00098442
0.000481997
6.42314e-05
5.52085e-05
5.08687e-05
9.49295e-06
6.72528e-06
3.82213e-06
9.48589e-06
5.39723e-05
5.30506e-05
3.51629e-05
4.92429e-06
1.01807e-05
1.72571e-05
4.33806e-05
4.85225e-05
3.8693e-05
3.20169e-06
0.406333
0.0664691
4.32167e-05
3.00042e-05
1.7159e-05
2.34834e-05
2.79357e-05
3.26096e-05
2.90681e-05
1.27306e-05
1.00814e-05
2.05046e-05
6.40086e-05
6.41529e-05
2.89809e-05
1.01057e-06
2.93514e-06
6.65468e-06
1.46092e-05
1.95796e-05
4.96861e-05
4.96536e-05
2.47643e-05
0.293653
0.0735427
3.02484e-05
2.87731e-05
6.8237e-06
1.08451e-05
1.29133e-05
1.76046e-05
2.47412e-05
1.70533e-05
1.51576e-05
6.0688e-05
6.41517e-05
2.47282e-05
3.70864e-07
4.55886e-07
2.71903e-05
4.81358e-05
7.36008e-05
7.30276e-05
4.46045e-05
4.81857e-05
4.21731e-05
0.000788011
0.0738263
0.00461243
4.08893e-06
1.60899e-06
4.49612e-06
6.69312e-06
1.08605e-05
1.41067e-05
2.2407e-05
4.50695e-05
8.96963e-05
5.09786e-06
3.71313e-07
2.31798e-07
3.63568e-07
4.0469e-05
7.41629e-05
7.41618e-05
7.41492e-05
4.4429e-05
5.03241e-05
7.19612e-05
0.000788011
0.073699
0.00778677
1.72807e-06
1.03591e-06
1.96707e-06
4.35999e-06
7.26097e-06
9.18674e-06
3.52085e-05
0.000146009
7.27015e-05
4.10732e-07
2.30197e-07
1.29269e-07
1.1894e-07
1.14203e-05
7.40705e-05
7.41485e-05
7.41565e-05
6.48442e-05
4.6911e-05
7.19612e-05
0.00101464
0.0656829
0.00764421
1.0775e-06
9.4479e-07
1.12037e-06
2.5007e-06
4.01396e-06
7.08258e-06
6.48153e-05
0.000163544
0.00011188
8.39579e-07
1.23889e-07
8.00066e-08
1.2337e-07
6.39297e-07
3.87906e-05
7.41686e-05
7.39616e-05
7.43114e-05
6.55875e-05
7.19612e-05
0.000758971
0.0646151
0.012763
9.42044e-07
8.15636e-07
6.71514e-07
1.53188e-06
2.43185e-06
9.13799e-06
0.000119981
0.000165028
0.000163823
8.16818e-05
-2.12011e-08
6.58955e-08
6.52987e-08
1.58673e-07
4.48389e-06
7.3884e-05
7.40716e-05
7.35529e-05
7.38593e-05
6.77761e-05
0.000594781
0.0484705
0.0249942
9.24783e-06
5.20826e-07
3.38561e-07
1.07492e-06
1.4073e-06
8.45754e-06
0.000121304
0.000165386
0.000164635
0.00016208
1.4156e-05
5.36664e-08
3.59022e-08
4.00238e-08
2.67736e-07
2.02805e-05
7.40252e-05
7.40128e-05
7.00715e-05
1.54945e-05
0.000594781
0.0155886
0.0247129
0.000944946
3.81131e-07
1.75564e-07
5.92042e-07
8.02971e-07
1.17683e-05
0.000143612
0.000165524
0.00016537
0.000164671
1.96585e-05
3.82377e-08
1.92046e-08
-7.67338e-10
-8.68358e-09
2.47174e-08
3.02445e-05
4.41077e-05
2.4568e-06
2.89056e-12
0.000606336
0.0105209
0.0242459
0.00100433
1.38459e-07
8.47124e-08
2.71393e-07
8.88944e-07
1.35922e-05
0.000165287
0.000165388
0.000165445
0.000159627
6.02222e-06
3.01202e-08
7.49253e-11
-9.89624e-12
-2.01564e-10
-1.42518e-10
-2.40189e-10
-2.93482e-10
2.09115e-18
3.58675e-12
0.000685723
0.00872206
0.023926
9.73194e-06
6.68807e-08
5.32048e-08
2.20033e-07
1.1717e-06
4.45479e-06
0.000162018
0.000165445
0.000165445
0.000165445
3.85356e-05
7.90656e-08
-1.44868e-09
-5.00489e-11
-2.95901e-10
-5.11091e-10
-4.52572e-10
-6.17631e-10
2.29994e-12
8.13986e-12
0.00105117
0.0114757
0.0226749
7.05132e-08
4.8912e-08
4.20372e-08
1.52383e-07
8.23642e-07
5.51243e-07
5.00977e-05
0.00016535
0.000165445
0.00016535
5.19437e-05
1.14703e-06
7.77592e-07
-7.32891e-11
-2.42335e-15
-1.9581e-11
-1.30464e-11
1.70322e-12
8.12853e-12
1.04589e-11
0.00290993
0.0104072
0.0146636
-2.4259e-07
4.2054e-08
4.00209e-08
5.63176e-08
8.03675e-08
1.79154e-07
5.06326e-07
0.000108325
0.00016535
0.000155432
2.33111e-05
4.94439e-06
2.62106e-06
1.70498e-11
1.98025e-12
1.05525e-12
6.7783e-12
6.62183e-12
7.32639e-12
8.68893e-12
0.0644034
0.000113712
0.000875713
-1.73728e-07
3.98335e-08
3.93264e-08
3.98857e-08
4.45174e-08
7.44107e-08
1.76115e-07
5.53212e-06
8.17083e-05
3.5911e-05
8.39359e-06
9.58351e-06
3.30589e-06
9.05284e-09
-3.23861e-12
1.34913e-11
7.46561e-12
5.95886e-12
5.75078e-12
6.34014e-12
0.163558
2.93163e-05
-1.49147e-06
-4.45009e-08
3.92172e-08
3.90944e-08
3.93329e-08
4.04203e-08
4.68587e-08
6.33524e-08
4.06211e-07
7.84231e-07
2.62997e-06
3.77753e-06
9.62951e-06
3.28565e-06
4.48164e-10
-4.16951e-11
2.79746e-11
8.51876e-12
5.42134e-12
4.13357e-12
4.22821e-12
0.257414
5.12163e-05
-4.11702e-07
2.43391e-08
3.90944e-08
3.90943e-08
3.90944e-08
3.94456e-08
4.05857e-08
3.83518e-08
1.11412e-07
1.32425e-07
2.11745e-06
8.83186e-06
9.13149e-06
7.93108e-07
-1.93677e-10
2.07254e-11
1.03846e-11
9.82617e-12
5.16101e-12
2.91951e-12
2.49602e-12
0.257469
0.00275517
-7.30647e-07
5.55532e-08
3.91275e-08
3.90929e-08
3.91808e-08
3.92667e-08
3.97215e-08
4.07855e-08
5.3036e-08
6.79641e-08
2.61989e-06
9.24017e-06
5.7348e-06
9.79905e-08
9.46609e-10
1.03913e-11
9.61469e-12
7.68481e-12
4.99397e-12
2.10935e-12
1.39522e-12
0.257469
0.00900321
3.0948e-06
2.02182e-07
4.34369e-08
3.91215e-08
3.92668e-08
3.95078e-08
3.97305e-08
4.00694e-08
4.26682e-08
5.52777e-08
5.56079e-06
9.42426e-06
4.46089e-06
1.67256e-08
5.44499e-10
5.90657e-11
1.07921e-11
6.97067e-12
4.78506e-12
1.5643e-12
7.34105e-13
0.152403
0.0372521
9.63146e-06
3.97664e-07
5.36368e-08
3.98506e-08
3.95264e-08
3.97547e-08
3.98196e-08
3.99819e-08
4.08051e-08
5.25613e-07
1.00687e-05
9.86576e-06
1.3398e-06
6.87715e-09
1.7394e-10
6.29536e-11
1.99195e-11
7.69438e-12
4.31333e-12
1.22652e-12
3.43003e-13
0.00143539
0.0370505
4.74137e-06
2.65287e-06
5.53902e-08
4.05438e-08
3.99341e-08
3.98248e-08
3.99827e-08
4.01083e-08
3.61019e-07
9.48602e-06
1.0322e-05
6.46035e-06
1.34959e-07
3.85866e-09
3.1269e-10
7.97771e-11
4.35595e-11
8.28248e-12
4.02154e-12
9.54395e-13
1.73308e-13
0.00149169
0.0300002
1.17421e-06
1.0546e-07
1.97429e-08
4.0775e-08
4.03331e-08
4.01548e-08
4.01087e-08
4.02833e-08
7.05293e-07
9.27557e-06
9.43203e-06
2.65358e-06
3.8924e-07
5.30935e-09
4.90055e-10
1.15947e-10
4.76199e-11
7.60202e-12
3.84675e-12
8.10404e-13
1.08928e-13
0.00219727
0.0264612
0.00138839
-1.91593e-06
8.72057e-08
2.67753e-09
4.04894e-08
4.03552e-08
4.02853e-08
4.06018e-08
2.09779e-07
1.05781e-06
1.04827e-05
1.34513e-05
2.64802e-06
1.22391e-08
9.56661e-10
1.09798e-10
1.44401e-11
5.18688e-12
3.69423e-12
7.37402e-13
8.37413e-14
0.00169506
0.0142709
0.0155444
2.17285e-05
6.01874e-07
1.41266e-07
1.51306e-08
4.04957e-08
4.06964e-08
4.11304e-08
4.19617e-08
5.8822e-08
3.58297e-05
2.4032e-05
4.45712e-07
1.07008e-08
8.87367e-10
9.91675e-11
1.36962e-11
4.90899e-12
3.53429e-12
6.70148e-13
6.88927e-14
1.12329e-08
1.05248e-06
0.0161141
0.010379
2.03052e-05
5.755e-07
7.97785e-08
4.1983e-08
4.17771e-08
4.19237e-08
4.31072e-08
7.42003e-05
0.000130833
1.653e-05
1.16051e-07
9.19544e-09
8.62053e-10
8.88869e-11
1.57341e-11
4.58506e-12
3.07229e-12
5.46883e-13
5.1968e-14
1.02162e-08
0.000106433
0.0117611
0.0130382
0.00580599
1.41671e-05
8.71334e-07
8.61295e-08
4.60317e-08
0.000226811
0.00278274
0.00166397
4.03812e-05
1.25927e-06
1.10517e-07
1.02433e-08
8.41314e-10
7.63124e-11
1.26395e-11
3.8873e-12
2.39346e-12
3.73724e-13
3.12324e-14
9.61885e-09
6.82732e-09
0.0002772
0.012931
0.0130382
0.00484979
1.46482e-05
9.58462e-07
8.71363e-08
0.00522458
0.00623557
0.003071
2.90904e-05
1.74544e-06
1.33669e-07
9.02418e-09
5.7393e-10
4.48114e-11
5.89302e-12
2.2987e-12
1.23461e-12
1.4448e-13
9.47079e-15
6.7779e-09
6.40384e-09
3.75928e-09
0.00299362
0.0117598
0.0115038
0.00650497
0.000504118
0.00422279
0.00678514
0.00641352
0.00120774
7.06059e-06
5.18737e-07
3.3597e-08
1.86485e-09
1.15497e-10
9.78585e-12
3.02175e-12
2.21835e-12
2.78285e-13
1.92311e-14
8.49355e-16
5.38947e-09
5.36206e-09
3.353e-10
7.47755e-07
0.00198731
0.00881913
0.00866632
0.00711953
0.00758022
0.00681195
0.00165681
1.13281e-05
1.04525e-06
8.31466e-08
3.73787e-09
1.57128e-10
5.81158e-12
1.77922e-12
2.23697e-12
2.3939e-13
1.31382e-14
4.47265e-16
1.79693e-17
4.77024e-09
5.27252e-09
2.1391e-10
5.76101e-13
6.62574e-13
0.000252708
0.00283853
0.00743006
0.00332429
0.000274523
8.82651e-06
1.09481e-06
1.01828e-07
5.03302e-09
1.68176e-10
6.25529e-12
9.11168e-13
9.74718e-13
3.89444e-14
7.28241e-16
8.97562e-18
1.5492e-18
2.26166e-18
0.994289
0.994289
0.994289
0.994288
0.957943
0.868968
0.731736
0.573701
0.302866
0.365867
0.125375
0.0364433
0.0350285
0.0288424
0.0325505
0.0590422
0.0829778
0.0176871
0.00749803
0.00949305
0.0958021
0.00853518
0.00490624
0.00190677
0.16074
0.159542
0.0739536
0.0402592
0.151976
0.151977
0.143095
0.140878
-2.32156e-06
0.0427583
0.103122
0.0849716
-7.23862e-10
3.09477e-16
2.92492e-11
2.83247e-11
2.64154e-12
3.05389e-11
5.55257e-11
5.36992e-11
4.05115e-10
8.63952e-11
5.92781e-11
5.75538e-11
2.67345e-09
2.94498e-10
8.32722e-11
7.70675e-11
2.04908e-08
1.29573e-09
1.85638e-10
1.16863e-10
3.42697e-07
5.20849e-09
2.17322e-10
6.35252e-11
1.13643e-05
9.42603e-09
7.79217e-11
1.08805e-11
3.66348e-05
3.0547e-06
7.10062e-12
6.44954e-12
6.90706e-05
3.59431e-06
4.27612e-12
5.88343e-12
5.36907e-05
-8.55929e-11
4.00873e-12
5.83626e-12
8.35808e-06
4.04884e-12
4.00872e-12
6.24486e-12
3.55068e-12
4.20537e-12
4.01521e-12
7.60374e-12
2.89476e-12
4.95808e-12
6.23523e-12
9.60027e-12
7.18092e-12
9.15401e-12
9.75881e-12
1.00385e-11
1.11351e-11
1.10226e-11
1.03569e-11
9.38096e-12
1.1441e-11
1.07315e-11
9.70117e-12
8.38262e-12
8.64703e-12
7.85313e-12
6.83243e-12
5.8481e-12
5.77567e-12
4.62848e-12
3.49747e-12
2.73468e-12
3.74086e-12
2.9e-12
2.04896e-12
1.46383e-12
1.97042e-12
1.44107e-12
9.51922e-13
6.33648e-13
8.97519e-13
5.73197e-13
3.39956e-13
2.17114e-13
3.98595e-13
2.21454e-13
1.17297e-13
7.66812e-14
1.40838e-13
6.4911e-14
3.20833e-14
2.67588e-14
4.55418e-14
1.59987e-14
8.11173e-15
1.02185e-14
1.95894e-14
4.65506e-15
2.42355e-15
4.16398e-15
1.18574e-14
2.01599e-15
1.06519e-15
1.7199e-15
8.52007e-15
1.14917e-15
5.84445e-16
8.64967e-16
5.92871e-15
6.97465e-16
3.41101e-16
5.1936e-16
3.20463e-15
3.55195e-16
1.97577e-16
3.37267e-16
8.18456e-16
1.14466e-16
1.11464e-16
2.16597e-16
7.15654e-17
3.65465e-17
6.22156e-17
1.28685e-16
1.03779e-17
1.54492e-17
2.9887e-17
6.10366e-17
2.66089e-18
4.36519e-18
8.60462e-18
1.6502e-17
0.962674
0.992422
0.993545
0.979812
0.605977
0.15324
0.114915
0.159995
0.163715
0.310218
0.514824
0.604772
0.340035
0.0190288
0.015068
0.0154664
0.059477
0.218246
0.218645
0.416565
0.596678
0.924763
0.977852
0.95915
0.245187
0.0481362
0.045078
0.0442261
0.0890666
0.135031
0.0848336
0.0194971
0.015069
0.0146729
0.0150811
0.167296
0.218928
0.221742
0.0125728
0.00352652
0.254185
0.650565
0.748879
0.422477
0.0477809
0.0442364
0.044088
0.0441141
0.0621987
0.104484
0.0276199
0.0143619
0.0146545
0.0321557
0.189073
0.212067
0.213351
0.024561
0.00119747
0.000862863
0.00788258
0.11077
0.318915
0.334317
0.0790658
0.0442364
0.0502891
0.101192
0.0851492
0.0250773
0.0142145
0.0149133
0.0790366
0.0476271
0.0655318
0.203575
0.00615151
0.00105771
0.000794027
0.000785294
0.000795908
0.00106789
0.22201
0.155409
0.0484435
0.0845616
0.101192
0.0380098
0.0111752
0.0113431
0.0319228
0.0184209
0.00964171
0.0096372
0.149484
0.000833218
0.000792949
0.000785179
0.000784622
0.000785294
0.00277918
0.0271385
0.127768
0.127179
0.124166
0.0780428
0.0111584
0.0110181
0.0110182
0.0105776
0.00980822
0.00976645
0.0189643
0.197163
0.030092
0.000781525
0.000784101
0.00078487
0.00078487
0.0927396
0.0790606
0.0810919
0.124166
0.111047
0.0264724
0.0110277
0.011027
0.0110128
0.0221935
0.031615
0.0107752
0.0318299
0.202982
0.138275
0.0197305
0.0137235
0.0134348
0.038021
0.130449
0.130451
0.0447292
0.0229954
0.0197269
0.0116868
0.0112678
0.0110252
0.0238455
0.0528666
0.0529113
0.0262671
0.0430003
0.202982
0.0673
0.121107
0.123595
0.123945
0.125425
0.12813
0.130451
0.0445524
0.0159643
0.015133
0.0149154
0.0117478
0.0396656
0.0527327
0.0529041
0.0528887
0.0426059
0.0466877
0.202211
-3.88162e-10
0.0485768
0.0686312
0.0721584
0.0758788
0.0312354
0.045026
0.0790488
0.0328949
0.0462926
0.0712243
0.0713
0.0712533
0.0519513
0.0043221
0.00240608
0.0187481
0.0604342
0.0873422
4.8963e-11
5.12256e-11
4.95719e-11
2.18843e-10
5.39734e-10
8.3244e-10
1.66288e-09
0.0220582
0.0660274
0.0729759
0.0698995
0.0275488
0.000709155
2.5549e-06
8.52858e-06
2.2111e-05
0.00813905
0.036814
0.0245886
5.57738e-11
5.35172e-11
5.34956e-11
8.07504e-11
2.46379e-10
5.3964e-10
8.32025e-10
1.50053e-09
1.11569e-08
1.33483e-06
1.04317e-06
1.01486e-06
1.16187e-06
1.39499e-06
3.30375e-06
1.35862e-05
0.000669203
0.00366463
0.0618395
6.754e-11
6.16821e-11
7.93315e-10
5.19253e-09
7.71777e-09
5.51038e-09
2.07295e-09
6.66402e-10
2.97404e-08
6.81819e-07
9.93529e-07
7.86651e-07
2.42064e-06
1.49627e-05
2.67381e-05
4.38872e-05
0.000135002
0.000630143
0.0962562
8.91269e-11
5.73543e-11
1.28066e-09
1.19426e-08
1.55724e-08
1.45441e-08
2.79499e-09
6.34005e-10
7.56585e-10
9.91955e-10
4.21296e-09
5.43541e-08
7.08182e-07
6.78743e-06
3.4515e-05
0.000128203
0.00402343
0.0630456
0.0962562
5.90093e-11
1.95422e-11
2.21685e-10
4.59191e-09
1.23285e-08
1.23559e-08
5.91097e-09
6.03066e-10
6.83254e-10
9.37581e-10
4.00583e-09
5.34001e-08
6.34531e-07
7.31294e-06
5.38108e-05
0.000320354
0.0223772
0.0509106
0.0604885
6.31266e-11
1.34759e-11
1.70144e-11
1.71568e-11
1.8618e-11
1.26271e-09
4.19901e-10
5.78654e-10
6.61832e-10
9.31878e-10
1.76126e-09
1.23361e-08
1.88316e-07
2.84443e-06
0.00034852
0.00276038
0.00372155
7.49957e-05
0.000477332
2.60987e-11
1.05622e-11
1.79193e-11
2.52033e-11
2.9041e-11
4.60494e-11
4.17562e-10
4.65494e-10
8.0939e-10
2.08567e-09
4.98034e-09
4.0931e-09
2.5232e-08
7.38909e-06
0.000158192
0.000293623
4.794e-05
7.33642e-05
7.74219e-05
7.17215e-12
1.07748e-11
1.85418e-11
2.77687e-11
7.5e-11
2.41401e-10
2.35116e-09
4.86525e-09
3.30282e-09
3.38621e-09
5.4881e-09
2.15119e-09
1.48204e-08
7.7751e-07
8.00365e-07
1.08578e-06
4.5659e-05
7.05507e-06
8.091e-06
7.16004e-12
1.09514e-11
1.77203e-11
2.67601e-11
6.6569e-11
1.07262e-10
8.29856e-10
2.00095e-07
4.07939e-06
4.98194e-06
1.70533e-07
1.7358e-09
1.92863e-09
3.96186e-09
4.92075e-08
6.71242e-07
8.89285e-06
6.90883e-06
3.99786e-05
8.00692e-12
1.23158e-11
1.51018e-11
4.02605e-11
6.09705e-11
4.35697e-10
8.38855e-08
4.20517e-06
1.07199e-05
1.07279e-05
5.60687e-07
1.73299e-09
2.09231e-09
2.07184e-09
5.22521e-09
5.58415e-06
6.3569e-05
7.0643e-06
6.98021e-05
9.51056e-12
1.1828e-11
2.17839e-11
3.4313e-11
1.45915e-10
2.33927e-09
2.1832e-06
1.07111e-05
1.07286e-05
9.74561e-06
1.73298e-09
1.73298e-09
1.73539e-09
1.7713e-09
3.51936e-09
1.3954e-05
6.84705e-05
1.00057e-06
6.98021e-05
1.09534e-11
1.10696e-11
1.72862e-11
4.45855e-11
2.71611e-10
4.32423e-09
4.22282e-06
1.06334e-05
1.07111e-05
1.97245e-06
1.73183e-09
1.73308e-09
1.74809e-09
2.35457e-09
1.23158e-06
5.17298e-05
6.63237e-05
2.84603e-07
6.9751e-05
1.02281e-11
9.56543e-12
1.08106e-11
2.49554e-11
1.49295e-10
2.25898e-09
1.79029e-06
1.0573e-05
1.05098e-05
5.67198e-07
1.86988e-09
1.74911e-09
1.90343e-09
5.02436e-09
3.59251e-06
4.48831e-05
1.01295e-06
1.97817e-07
6.95169e-05
8.58825e-12
7.41121e-12
7.86915e-12
9.2279e-12
2.23519e-11
1.21773e-10
2.49397e-09
1.61945e-06
7.45876e-06
3.43117e-06
1.72477e-06
1.90384e-09
1.71062e-06
1.0327e-05
1.5097e-05
4.93368e-06
1.98157e-07
1.98156e-07
6.79755e-05
7.14831e-12
4.81149e-12
6.31281e-12
8.53063e-12
1.02561e-11
1.54744e-11
1.50439e-10
3.54265e-09
1.4287e-06
2.26158e-05
2.25648e-05
2.23622e-05
2.24612e-05
2.21414e-05
1.47766e-05
5.09234e-06
6.03309e-06
3.39308e-07
2.24729e-05
4.99364e-12
3.49572e-12
5.31963e-12
9.91831e-12
1.08299e-11
1.61309e-11
7.51363e-11
1.32039e-09
1.01438e-06
1.76071e-05
2.25883e-05
2.25883e-05
2.25883e-05
1.7935e-05
1.25538e-05
1.26026e-05
1.2546e-05
1.5528e-06
1.5693e-08
2.38122e-12
2.22894e-12
3.79821e-12
7.91629e-12
1.30498e-11
3.64474e-11
3.59816e-11
8.6489e-11
1.38457e-09
1.41532e-06
1.38466e-05
2.08329e-05
1.84185e-05
1.38844e-05
1.38072e-05
1.37065e-05
8.14561e-06
4.55428e-07
1.3665e-08
1.22751e-12
1.22702e-12
2.41343e-12
5.80528e-12
1.3669e-11
2.47911e-11
3.22381e-11
3.44346e-11
4.55036e-11
2.95579e-07
4.96013e-06
9.07571e-06
7.14259e-06
8.90288e-06
1.19939e-05
9.72287e-06
1.48408e-08
1.3665e-08
1.36648e-08
5.30771e-13
6.45492e-13
1.35843e-12
3.26323e-12
8.09355e-12
1.86404e-11
4.07087e-11
7.44036e-11
7.33736e-11
2.80383e-11
2.64555e-11
7.14833e-07
8.91409e-07
4.75849e-06
4.49519e-06
6.50593e-11
3.45064e-08
4.31602e-08
1.58198e-08
2.02925e-13
3.48076e-13
7.72827e-13
1.79701e-12
4.53205e-12
1.16112e-11
2.6985e-11
9.73097e-11
1.27989e-10
2.73288e-11
2.61289e-11
2.60154e-11
2.54049e-11
2.51382e-11
2.54049e-11
2.5323e-11
1.44884e-07
2.07323e-07
2.53952e-08
8.88456e-14
1.99495e-13
4.50553e-13
9.96372e-13
2.41777e-12
6.19236e-12
1.44709e-11
2.89801e-11
8.24413e-11
9.16522e-11
5.3794e-11
4.25003e-11
6.40335e-11
5.028e-11
3.31259e-11
1.96249e-09
2.07465e-07
2.07613e-07
2.2769e-08
4.43128e-14
1.17309e-13
2.62507e-13
5.44453e-13
1.22605e-12
2.91064e-12
5.86563e-12
9.92738e-12
1.69051e-11
2.52203e-11
4.01335e-11
5.33354e-11
1.03705e-10
9.75902e-11
3.5265e-11
4.65057e-09
1.79088e-07
1.01892e-07
4.88391e-09
2.4487e-14
6.96339e-14
1.50944e-13
2.90538e-13
6.0925e-13
1.39849e-12
2.68414e-12
4.16934e-12
6.63542e-12
1.38923e-11
1.85585e-11
3.34657e-11
6.53085e-11
1.00406e-10
5.15412e-11
1.27202e-09
1.85794e-13
2.54118e-13
1.34027e-10
1.42827e-14
4.13301e-14
8.4536e-14
1.47426e-13
2.8062e-13
6.16671e-13
1.12964e-12
1.76515e-12
2.96893e-12
6.40991e-12
8.13464e-12
1.20453e-11
2.47196e-11
4.46654e-11
2.15682e-11
1.86437e-13
1.85774e-13
2.662e-12
2.34737e-11
8.55654e-15
2.42564e-14
4.55168e-14
7.02336e-14
1.18935e-13
2.52802e-13
4.33694e-13
6.65325e-13
1.116e-12
2.3584e-12
2.93029e-12
3.70705e-12
6.58698e-12
1.13863e-11
5.51037e-12
5.48051e-13
3.21888e-13
6.18691e-12
3.56402e-11
5.13133e-15
1.38106e-14
2.3106e-14
3.08042e-14
4.54633e-14
9.80435e-14
1.59917e-13
2.38608e-13
3.8606e-13
7.89133e-13
9.04212e-13
9.04347e-13
1.33808e-12
1.68106e-12
9.94251e-13
1.32205e-13
2.74601e-13
6.1168e-12
1.27844e-11
3.07286e-15
7.40356e-15
1.07723e-14
1.21227e-14
1.495e-14
3.36191e-14
5.13994e-14
7.15527e-14
1.03636e-13
1.88813e-13
1.88243e-13
1.30858e-13
1.46866e-13
1.23937e-13
6.71701e-14
1.21528e-14
1.68396e-13
4.75559e-12
2.42975e-12
1.7841e-15
3.61524e-15
4.46344e-15
4.15822e-15
4.08152e-15
9.4423e-15
1.27553e-14
1.52588e-14
1.769e-14
2.24855e-14
1.74326e-14
5.36011e-15
-2.76123e-15
-5.25201e-15
-4.1832e-15
3.76809e-17
7.24837e-14
2.5254e-12
3.29722e-13
9.49315e-16
1.54951e-15
1.5757e-15
1.19154e-15
8.95846e-16
2.08339e-15
2.29615e-15
1.89527e-15
1.3036e-15
5.11403e-16
4.4948e-17
-2.98888e-16
-5.69316e-16
-5.93877e-16
-3.93508e-16
2.48674e-16
2.30348e-14
9.88152e-13
7.11144e-14
4.31039e-16
5.47703e-16
4.45383e-16
2.66102e-16
1.48454e-16
3.44157e-16
2.77499e-16
5.7923e-17
-5.75648e-17
-6.42602e-17
-3.81355e-17
-1.84861e-17
-7.99148e-18
-3.15718e-18
-4.60021e-19
6.04324e-17
4.93181e-15
2.71086e-13
1.89657e-14
1.47995e-16
1.41309e-16
8.93303e-17
4.05653e-17
1.61472e-17
4.00268e-17
2.0444e-17
-6.31425e-18
-1.10915e-17
-6.18624e-18
-2.26708e-18
-6.96223e-19
-1.97521e-19
-5.38911e-20
1.07466e-20
3.63562e-18
4.59888e-16
3.78236e-14
2.38219e-15
2.83554e-17
1.96316e-17
9.37017e-18
3.03152e-18
7.89839e-19
2.68689e-18
6.36373e-19
3.94891e-21
-1.06218e-20
-1.46037e-21
-1.07149e-22
-5.21336e-24
-1.95005e-25
-6.95589e-27
-3.3891e-28
-2.40382e-29
-3.33874e-30
-4.71297e-31
-1.27086e-31
)
;

boundaryField
{
    leftWall
    {
        type            zeroGradient;
    }
    rightWall
    {
        type            zeroGradient;
    }
    lowerWall
    {
        type            zeroGradient;
    }
    atmosphere
    {
        type            inletOutlet;
        inletValue      uniform 0;
        value           nonuniform List<scalar> 
46
(
0
0
0
0
0
0.000252708
0.00283853
0.00743006
0.00332429
0.000274523
8.82651e-06
1.09481e-06
1.01828e-07
5.03302e-09
1.68176e-10
6.25529e-12
0
0
0
0
0
0
0
0
0
0
0
0
0
0
0
0
0
0
0
0
0
0
0
0
0
0
0
0
0
0
)
;
    }
    defaultFaces
    {
        type            empty;
    }
}


// ************************************************************************* //
