/*--------------------------------*- C++ -*----------------------------------*\
| =========                 |                                                 |
| \\      /  F ield         | OpenFOAM: The Open Source CFD Toolbox           |
|  \\    /   O peration     | Version:  2.3.0                                 |
|   \\  /    A nd           | Web:      www.OpenFOAM.org                      |
|    \\/     M anipulation  |                                                 |
\*---------------------------------------------------------------------------*/
FoamFile
{
    version     2.0;
    format      ascii;
    class       volScalarField;
    location    "1.15";
    object      p;
}
// * * * * * * * * * * * * * * * * * * * * * * * * * * * * * * * * * * * * * //

dimensions      [1 -1 -2 0 0 0 0];

internalField   nonuniform List<scalar> 
2268
(
972.251
972.476
973.214
975.329
972.896
967.59
960.197
947.231
929.704
906.616
877.879
843.093
806.533
777.026
752.75
735.724
730.267
729.076
727.416
728.005
730.175
732.718
735.323
912.671
912.483
913.177
916.509
914.135
909.028
902.112
889.361
872.093
848.972
819.999
785.16
747.516
716.769
691.584
674.744
670.158
669.18
668.303
669.05
671.251
673.959
676.783
853.135
854.571
856.407
857.823
854.934
850.489
844.712
832.783
815.353
791.712
763.057
729.345
692.96
658.237
630.635
613.389
608.374
607.81
608.059
609.498
612.218
615.283
618.463
793.143
796.489
799.909
800.09
795.64
791.894
788.053
777.441
760.015
736.373
707.1
673.254
636.14
598.371
568.965
550.962
545.224
545.377
547.052
549.4
552.863
556.549
560.295
732.352
738.053
743.238
743.208
737.17
733.803
732.481
723.38
706.146
682.201
652.113
616.724
577.418
537.475
504.845
486.333
480.472
481.904
485.337
488.871
493.269
497.793
502.268
670.886
678.115
685.784
687.138
680.556
677.348
678.335
670.872
653.843
629.386
598.271
560.328
517.583
472.227
436.773
419.015
414.132
417.888
423.211
428.312
433.601
438.973
444.431
608.456
616.764
627.395
631.598
626.686
623.457
625.424
619.995
603.207
578.293
545.959
504.619
455.94
403.021
364.372
349.633
348.203
357.228
365.682
372.105
377.977
383.533
387.46
541.502
552.034
568.068
577.285
575.792
572.115
573.847
569.895
554.274
528.798
495.511
449.602
393.77
331.543
294.925
285.377
286.122
299.414
311.321
318.489
326.386
332.323
331.334
725.869
725.465
689.653
690.611
721.907
645.01
507.003
433.752
433.262
449.5
464.318
490.147
514.583
501.773
434.998
384.811
371.658
387.374
396.723
667.785
667.266
635.505
633.867
651.391
564.341
427.164
361.058
370.278
388.811
401.826
430.097
470.052
458.426
380.915
326.274
317.499
342.886
348.959
612.138
613.978
590.322
579.089
570.744
468.679
337.006
285.152
301.024
321.019
327.985
352.657
410.737
408.217
319.331
276.162
293.922
317.385
315.842
557.655
564.515
546.451
525.425
492.983
376.963
251.516
215.444
235.588
251.255
245.063
263.522
343.147
348.324
252.771
237.443
270.234
300.97
299.587
503.572
515.637
497.243
472.467
425.047
295.86
178.13
156.876
178.552
186.837
167.114
185.122
277.136
278.629
185.809
198.852
232.076
279.113
286.497
447.727
462.533
440.369
419.587
368.124
233.881
120.566
102.599
131.627
133.195
105.37
126.705
217.895
202.604
117.518
137.611
178.608
250.241
268.357
387.247
404.207
380.975
365.786
315.851
197.704
103.288
67.6865
96.1684
89.405
58.9067
86.3182
157.007
120.445
73.0264
72.3435
118.152
211.671
245.742
334.984
347.951
323.342
311.538
271.147
183.688
130.241
92.1111
83.5376
63.1837
32.5081
57.1777
100.298
66.5643
53.0941
46.1502
77.7349
169.586
221.456
440.99
449.862
480.391
495.533
500.126
498.628
497.02
493.096
479.74
453.516
414.162
366.311
302.395
235.527
220.423
211.285
210.398
218.032
225.772
232.683
242.698
246.344
239.154
365.743
357.075
385.232
395.639
405.536
406.152
405.077
403.948
390.307
363.831
321.491
253.095
183.922
174.161
176.219
172.237
164.982
163.731
169.318
178.169
171.466
141.07
124.064
341.702
338.016
336.29
318.193
315.518
307.835
301.805
304.733
303.509
291.473
254.44
186.541
142.364
142.08
145.782
143.411
139.65
138.007
138.498
129.469
101.687
85.5985
86.4657
319.117
310.01
297.794
282.127
255.584
212.737
189.606
194.231
202.01
193.716
146.594
66.3774
45.3332
52.0513
66.6619
79.1496
86.8916
93.0922
100.654
98.8688
86.7429
67.1977
53.2176
305.067
284.965
262.315
216.659
110.115
55.0739
51.2014
68.4741
81.7016
69.1389
22.3713
6.12731
4.5439
4.26703
7.31129
9.59106
10.9755
18.6711
39.1359
48.9145
50.602
42.0175
32.9628
293.25
258.69
216.956
150.671
61.6589
-2.59155
-15.6603
-6.59833
3.65007
6.02576
0.614599
0.637433
0.70015
0.752933
0.70438
0.631191
0.640299
1.1874
5.61984
10.2421
16.2894
20.8763
20.2692
318.927
290.858
181.531
120.086
63.3877
24.9924
17.6327
16.6717
8.95543
1.16951
0.940972
0.620089
0.554781
0.545791
0.542528
0.478562
0.396887
0.27517
0.0531264
0.132358
1.80835
6.3013
8.8156
252.147
220.338
118.811
64.086
28.5478
24.3918
24.3338
13.7459
5.3156
2.38887
1.03983
0.475992
0.321836
0.375231
0.365208
0.306502
0.230241
0.124389
-0.0840164
-0.153232
-0.262937
-0.328637
1.6676
194.89
139.161
67.0111
29.4016
10.9527
4.26355
3.5576
7.20883
5.92203
2.51968
0.998643
0.43206
0.264248
0.319678
0.241108
0.13942
0.0287262
-0.0981827
-0.247703
-0.366289
-0.505987
-0.598996
-0.753727
135.745
64.8892
19.7493
11.4691
5.86239
2.48304
2.3285
4.0944
4.05025
1.57973
0.653193
0.477871
0.415696
0.293282
0.139034
-0.016644
-0.165555
-0.314346
-0.464445
-0.603382
-0.736871
-0.860745
-1.00475
64.7236
-9.597
-9.34167
5.49272
7.60997
4.74922
2.88178
2.12808
0.343138
-0.675972
-0.0260964
0.395573
0.366747
0.202667
0.00125082
-0.195389
-0.37505
-0.543407
-0.704072
-0.853706
-0.990588
-1.11255
-1.22563
13.3532
-35.7985
-8.52805
2.32098
5.06792
2.99574
0.289446
-0.921292
-2.49468
-2.16555
-0.576368
0.0590993
0.130907
-0.00194618
-0.205703
-0.418822
-0.618799
-0.807163
-0.982407
-1.13806
-1.27185
-1.38478
-1.47914
11.0161
-12.1813
-3.24876
-0.754857
-0.367482
-1.18806
-2.03187
-2.3899
-3.10417
-2.33268
-0.995421
-0.451823
-0.272533
-0.330301
-0.49574
-0.704024
-0.924203
-1.13967
-1.33607
-1.49611
-1.61477
-1.69822
-1.76024
10.5277
-2.33167
-2.52024
-2.70032
-2.53572
-2.52072
-2.40744
-2.55064
-2.78678
-2.30773
-1.46277
-1.02559
-0.788067
-0.768544
-0.882076
-1.08104
-1.32345
-1.57241
-1.79975
-1.96922
-2.0593
-2.08404
-2.08337
8.81434
-2.28226
-2.47933
-2.63213
-2.53555
-2.55513
-2.52479
-2.64612
-2.74986
-2.47776
-2.00733
-1.65412
-1.40204
-1.31962
-1.38387
-1.57168
-1.82967
-2.11295
-2.37486
-2.55545
-2.6104
-2.55123
-2.45314
12.5142
-2.45072
-2.51068
-2.58265
-2.56445
-2.62341
-2.67282
-2.83573
-2.97131
-2.90113
-2.66338
-2.37767
-2.12147
-1.9788
-1.99972
-2.16979
-2.42514
-2.7283
-3.01601
-3.20257
-3.20912
-3.05977
-2.84712
-6.21152
-5.83741
-2.56824
-2.56582
-2.5977
-2.73279
-2.89856
-3.15086
-3.39302
-3.50895
-3.42946
-3.1942
-2.92648
-2.73283
-2.70724
-2.83356
-3.05406
-3.33765
-3.61173
-3.80055
-3.74632
-3.52219
-3.211
-6.27011
-6.23768
-2.45937
-2.65593
-2.74084
-2.96173
-3.23268
-3.58063
-3.9507
-4.23937
-4.29817
-4.0965
-3.80028
-3.55173
-3.45178
-3.49098
-3.63411
-3.85964
-4.08952
-4.21028
-4.10974
-3.83406
-3.49367
-5.93327
-4.95356
-2.73601
-2.93671
-3.05572
-3.34034
-3.67406
-4.09528
-4.58454
-5.03445
-5.2182
-5.03372
-4.70714
-4.37757
-4.16545
-4.07955
-4.10484
-4.22725
-4.36833
-4.41737
-4.28006
-3.98981
-3.65839
-5.55358
-4.40807
-3.23224
-3.36277
-3.53108
-3.83797
-4.18672
-4.64685
-5.22648
-5.81252
-6.11152
-5.98195
-5.59723
-5.14495
-4.79127
-4.56107
-4.44662
-4.4354
-4.46597
-4.43764
-4.27837
-4.00755
-3.71883
-5.62713
-4.77098
-4.00948
-3.94006
-4.14793
-4.40081
-4.71311
-5.17056
-5.79372
-6.46981
-6.8637
-6.79755
-6.37429
-5.79986
-5.29712
-4.92212
-4.67025
-4.52214
-4.43794
-4.33951
-4.16915
-3.93998
-3.71658
-6.00498
-5.87793
-5.42698
-4.84425
-4.86399
-4.95454
-5.18297
-5.59685
-6.20969
-6.92143
-7.37356
-7.34477
-6.9356
-6.2978
-5.67485
-5.17043
-4.80527
-4.54604
-4.36402
-4.21125
-4.04354
-3.86722
-3.71425
-6.5296
-7.03326
-6.73043
-5.92482
-5.46288
-5.38868
-5.52101
-5.86907
-6.42721
-7.12638
-7.61485
-7.63223
-7.25129
-6.60081
-5.91261
-5.32143
-4.88285
-4.55691
-4.31562
-4.13219
-3.97676
-3.84367
-3.74251
-7.08388
-8.37961
-6.85439
-6.14749
-5.70796
-5.59657
-5.67164
-5.95961
-6.44512
-7.07816
-7.57321
-7.64848
-7.29838
-6.68623
-5.99875
-5.3872
-4.92342
-4.57814
-4.31856
-4.12798
-3.98563
-3.88063
-3.80728
-7.5002
-9.14269
-6.51526
-5.81887
-5.63892
-5.56007
-5.63763
-5.88241
-6.28633
-6.81418
-7.26121
-7.37256
-7.11209
-6.58134
-5.94945
-5.38013
-4.93673
-4.60784
-4.35955
-4.17877
-4.04999
-3.96002
-3.89769
-6.97015
-8.53127
-5.76605
-5.39928
-5.41283
-5.37558
-5.48947
-5.70094
-6.02403
-6.43362
-6.78403
-6.90224
-6.72493
-6.3269
-5.82141
-5.32199
-4.92967
-4.6378
-4.41685
-4.25447
-4.13902
-4.05797
-4.00048
-6.76274
-5.83785
-4.96287
-4.99113
-5.13047
-5.16496
-5.31134
-5.49653
-5.74574
-6.0443
-6.29173
-6.38473
-6.27784
-6.01135
-5.63694
-5.24207
-4.91192
-4.66445
-4.47669
-4.33599
-4.23419
-4.16101
-4.10773
-2.14401
-3.92077
-4.10112
-4.62619
-4.88705
-5.00346
-5.17044
-5.33002
-5.51464
-5.71751
-5.87821
-5.93842
-5.87487
-5.70384
-5.44561
-5.15288
-4.89127
-4.68933
-4.53508
-4.41672
-4.32882
-4.264
-4.21566
-2.05729
-3.90137
-3.83781
-4.50616
-4.77311
-4.936
-5.09477
-5.22593
-5.35613
-5.48105
-5.57017
-5.59739
-5.55513
-5.44859
-5.28122
-5.07426
-4.87611
-4.71681
-4.59309
-4.49614
-4.42193
-4.3657
-4.32286
-3.06315
-4.44703
-4.20984
-4.63471
-4.83326
-4.96328
-5.08417
-5.18362
-5.26841
-5.33315
-5.36614
-5.36409
-5.33109
-5.26734
-5.16271
-5.01954
-4.87311
-4.75073
-4.65329
-4.57523
-4.51409
-4.4662
-4.42896
-3.12412
-5.26473
-4.68974
-4.90028
-4.99052
-5.04709
-5.12208
-5.19061
-5.23822
-5.259
-5.25261
-5.22939
-5.20056
-5.1613
-5.09441
-4.99389
-4.88621
-4.79338
-4.71758
-4.65556
-4.60557
-4.56575
-4.53401
3.65326
-6.15767
-4.97668
-5.14627
-5.13426
-5.13762
-5.18523
-5.23098
-5.25086
-5.24187
-5.21084
-5.1754
-5.14815
-5.11994
-5.0714
-4.99652
-4.916
-4.84543
-4.78664
-4.73769
-4.69741
-4.66473
-4.63825
-5.73664
-5.73617
-4.88184
-5.25959
-5.19849
-5.21081
-5.25885
-5.29292
-5.2959
-5.2686
-5.22351
-5.18237
-5.15483
-5.12805
-5.08414
-5.02297
-4.96056
-4.90615
-4.86042
-4.822
-4.78998
-4.76363
-4.74197
-5.68907
-4.9414
-4.64295
-5.17203
-5.19674
-5.27262
-5.34008
-5.37353
-5.36994
-5.33131
-5.2768
-5.23226
-5.20142
-5.16838
-5.12122
-5.06695
-5.01668
-4.97402
-4.93841
-4.90855
-4.88356
-4.8628
-4.84555
-5.4037
-4.54634
-4.55496
-5.05986
-5.21996
-5.35384
-5.43979
-5.48123
-5.47737
-5.42572
-5.35673
-5.30446
-5.26642
-5.22349
-5.17125
-5.12196
-5.08091
-5.0474
-5.02
-4.99729
-4.97833
-4.96253
-4.94929
-5.33673
-4.63137
-5.03374
-5.16419
-5.36026
-5.48799
-5.58151
-5.63586
-5.63235
-5.55387
-5.4489
-5.37835
-5.33209
-5.28081
-5.22666
-5.18362
-5.15082
-5.12511
-5.10473
-5.08818
-5.07448
-5.06309
-5.0535
-5.48903
-5.5169
-5.48385
-5.6497
-5.55791
-5.67516
-5.78604
-5.86131
-5.86351
-5.7331
-5.55528
-5.45452
-5.39913
-5.33786
-5.28633
-5.2505
-5.22522
-5.20654
-5.19237
-5.18125
-5.1722
-5.16473
-5.15842
-5.52298
-5.59015
-5.2521
-5.58036
-5.80286
-5.88893
-6.05824
-6.19877
-6.2074
-6.02347
-5.80569
-5.52873
-5.45111
-5.39553
-5.35125
-5.32191
-5.30369
-5.2915
-5.28292
-5.27659
-5.27165
-5.26766
-5.26426
-5.59913
-5.61323
-5.66509
-5.6212
-5.73495
-6.19896
-6.43151
-6.70813
-6.60006
-6.46365
-5.92538
-5.5813
-5.49611
-5.45166
-5.41898
-5.39813
-5.38664
-5.38015
-5.37643
-5.37426
-5.37294
-5.37204
-5.37124
-5.65743
-5.6658
-5.76994
-5.60838
-5.47308
-6.31197
-7.23232
-7.69331
-7.18495
-6.49995
-5.80853
-5.63699
-5.55859
-5.52082
-5.49692
-5.48207
-5.47506
-5.47275
-5.47303
-5.47454
-5.47648
-5.47833
-5.47977
-5.69747
-5.69954
-5.69707
-5.64122
-5.63319
-6.26296
-9.42042
-12.5134
-9.58713
-6.13848
-5.74064
-5.70188
-5.64529
-5.60743
-5.58555
-5.57404
-5.56949
-5.57001
-5.57386
-5.57861
-5.58316
-5.58704
-5.5901
-5.74006
-5.75209
-5.78697
-5.90811
-6.24753
-8.02339
-14.4569
-21.8762
-13.6379
-7.64109
-6.168
-5.89032
-5.75501
-5.70233
-5.68098
-5.67218
-5.67032
-5.67436
-5.68083
-5.68725
-5.69297
-5.69781
-5.70176
231.942
238.865
248.693
262.272
130.576
125.766
109.373
88.3702
85.5032
53.0403
30.5583
20.5054
37.4308
27.6588
23.1266
21.9564
23.461
21.6604
21.1044
21.3247
19.296
20.3463
20.5583
20.7048
12.8207
14.8788
16.612
18.3086
6.1849
8.77651
10.5855
11.7682
-0.52189
1.59847
5.24915
3.94427
-1.08681
-1.13538
-1.17134
-1.20254
-1.29195
-1.35228
-1.40373
-1.43763
-1.53975
-1.57711
-1.61353
-1.64759
-1.79952
-1.82405
-1.84805
-1.87156
-2.08516
-2.089
-2.09528
-2.10354
-2.39789
-2.37229
-2.35479
-2.34298
-2.72244
-2.66245
-2.61894
-2.58774
-3.01985
-2.93298
-2.86656
-2.81755
-3.27805
-3.16766
-3.08309
-3.02041
-3.44884
-3.33843
-3.25218
-3.18721
-3.54228
-3.44899
-3.37459
-3.3181
-3.58885
-3.52091
-3.4652
-3.42113
-3.63043
-3.58507
-3.54729
-3.51629
-3.68911
-3.65948
-3.63385
-3.61172
-3.76897
-3.74755
-3.7287
-3.71202
-3.86514
-3.84723
-3.83155
-3.81768
-3.97033
-3.9539
-3.93965
-3.92717
-4.07935
-4.06383
-4.05041
-4.03874
-4.18933
-4.17477
-4.16212
-4.15112
-4.29896
-4.28556
-4.27381
-4.26355
-4.40773
-4.39567
-4.38499
-4.37559
-4.51556
-4.50496
-4.49547
-4.48704
-4.62257
-4.61347
-4.60525
-4.59787
-4.72899
-4.72141
-4.71446
-4.70817
-4.83511
-4.82898
-4.82331
-4.81813
-4.94123
-4.93647
-4.93203
-4.92793
-5.04763
-5.04414
-5.04085
-5.03779
-5.15454
-5.15222
-5.14998
-5.14787
-5.26216
-5.26087
-5.25959
-5.25834
-5.3707
-5.37034
-5.3699
-5.36941
-5.48054
-5.48092
-5.48118
-5.48132
-5.59181
-5.59273
-5.5935
-5.5941
-5.70409
-5.70541
-5.70656
-5.70754
284.179
251.831
232.104
229.455
196.776
161.066
128.804
98.9776
70.222
66.0065
79.7963
81.4291
69.7447
49.4714
39.3252
30.1673
40.8628
123.165
193.779
54.8067
57.4701
95.781
132.415
128.847
104.827
93.0904
75.7158
48.7019
41.815
66.3485
55.3047
48.9604
45.037
33.4378
23.3248
21.1865
109.429
182.679
12.4352
18.9892
37.1845
55.9848
69.9226
75.3232
79.0036
66.6563
45.3159
39.1496
43.8913
39.9222
38.9689
37.8763
32.8155
27.5512
30.1094
92.5249
160.452
20.8588
22.2487
23.9417
26.1804
31.9526
48.3041
66.9652
55.9712
46.4006
44.7055
40.0443
25.5928
27.8775
32.9388
34.3894
38.6076
46.7127
58.8885
103.645
22.2543
22.7708
23.5786
24.3208
24.1235
25.3375
42.8798
42.9687
47.6201
50.3928
34.8892
24.2192
26.5483
30.2462
33.3066
38.7404
46.0906
49.7046
54.2294
21.0475
21.9034
23.0361
23.7693
23.5671
24.3556
32.726
42.6093
41.9362
38.8611
26.1523
24.1267
26.2577
27.8077
29.5819
38.1052
48.1839
50.5064
53.4519
20.8434
22.1557
23.1507
23.7125
23.6316
22.5775
19.5503
20.3796
23.5779
23.9929
18.9839
21.2559
22.4511
23.7443
26.1903
37.0931
52.5878
61.7431
67.309
15.0236
21.0617
22.7809
22.9852
21.9193
19.0871
10.4959
5.79002
12.2659
17.2732
17.4281
18.029
18.9346
19.559
20.5063
28.2503
45.0099
56.3578
72.3314
3.31207
12.0568
13.6528
13.8473
14.721
10.8587
6.0711
5.66387
11.9691
17.9142
20.5378
19.2425
17.1477
12.5259
4.19866
2.73598
9.32627
25.4556
50.5373
-1.11481
1.46065
2.65314
2.84727
3.16548
0.565756
0.337389
4.42241
11.5528
16.1627
18.7946
13.0312
3.55473
0.557531
-2.34502
-3.33889
-3.64731
3.88254
17.5533
-1.49891
-1.6824
-1.72627
-1.76873
-1.77393
-1.7809
-1.97584
-1.3471
1.96724
3.10535
2.51523
-0.56526
-1.85064
-2.71821
-3.33351
-3.63485
-3.6161
-1.62798
6.29604
-1.70313
-1.8127
-1.85658
-1.90095
-1.9212
-1.95638
-2.05935
-2.25462
-2.25805
-2.1829
-2.21096
-2.26559
-2.27239
-2.8156
-3.62958
-3.89406
-2.93154
-2.22581
0.771166
-1.90985
-1.9676
-2.01086
-2.04666
-2.06972
-2.10797
-2.18643
-2.26816
-2.26767
-2.27386
-2.31365
-2.33464
-2.41724
-2.84235
-3.42945
-3.47825
-2.09205
-0.73252
-1.24092
-2.11986
-2.1491
-2.17721
-2.20287
-2.22632
-2.25775
-2.30234
-2.34114
-2.36032
-2.37843
-2.39905
-2.39645
-2.43101
-2.65052
-2.94229
-2.81254
-1.62293
-1.1553
-1.1061
-2.33353
-2.33721
-2.34845
-2.36232
-2.37855
-2.40158
-2.43036
-2.45363
-2.46581
-2.47478
-2.47828
-2.46168
-2.4504
-2.51573
-2.6171
-2.44883
-1.61666
0.491413
0.92221
-2.54664
-2.52673
-2.52094
-2.52335
-2.53155
-2.54482
-2.56017
-2.57274
-2.57981
-2.5834
-2.58331
-2.5742
-2.56723
-2.59526
-2.64378
-2.60499
-2.67822
-2.81542
-2.79597
-2.75943
-2.7127
-2.69073
-2.68217
-2.68199
-2.68745
-2.69521
-2.70103
-2.70271
-2.70273
-2.70346
-2.70406
-2.71213
-2.75069
-2.83797
-2.9404
-2.98274
-2.97362
-2.9467
-2.94483
-2.88587
-2.853
-2.8361
-2.82901
-2.82805
-2.83015
-2.83202
-2.83232
-2.83345
-2.83768
-2.84613
-2.86377
-2.90347
-2.97996
-3.06848
-3.10831
-3.07954
-3.04697
-3.10769
-3.04364
-3.00518
-2.98314
-2.97137
-2.96629
-2.96527
-2.96646
-2.97046
-2.97776
-2.98496
-2.99605
-3.01307
-3.04348
-3.09286
-3.15635
-3.19964
-3.19155
-3.15411
-3.24641
-3.18549
-3.14672
-3.12291
-3.10884
-3.10158
-3.0994
-3.10318
-3.11597
-3.13431
-3.14633
-3.15167
-3.15899
-3.17621
-3.20378
-3.24138
-3.27743
-3.28927
-3.25727
-3.36545
-3.31391
-3.27883
-3.25596
-3.24163
-3.23378
-3.23178
-3.23955
-3.26194
-3.29093
-3.30621
-3.30444
-3.29915
-3.30156
-3.31225
-3.33223
-3.35714
-3.37854
-3.35736
-3.47465
-3.43352
-3.40384
-3.38341
-3.37006
-3.36245
-3.36075
-3.37056
-3.39758
-3.4309
-3.44704
-3.4417
-3.42741
-3.41731
-3.4159
-3.42761
-3.44652
-3.46533
-3.45542
-3.58075
-3.54845
-3.52403
-3.50636
-3.49432
-3.48694
-3.48452
-3.49224
-3.51581
-3.5461
-3.56182
-3.55616
-3.5384
-3.52141
-3.51447
-3.52546
-3.5436
-3.55488
-3.55267
-3.68785
-3.66165
-3.64129
-3.6259
-3.6148
-3.60715
-3.60272
-3.60469
-3.61763
-3.63761
-3.65057
-3.64677
-3.63119
-3.61605
-3.61253
-3.62463
-3.64424
-3.65121
-3.6523
-3.79721
-3.7747
-3.75702
-3.74317
-3.73252
-3.72426
-3.71761
-3.71334
-3.71383
-3.71877
-3.72305
-3.72163
-3.71608
-3.71417
-3.7212
-3.73448
-3.74822
-3.75264
-3.75416
-3.90861
-3.8882
-3.87216
-3.85929
-3.84887
-3.84015
-3.83234
-3.8251
-3.81878
-3.81404
-3.81096
-3.81141
-3.81672
-3.82639
-3.83727
-3.84759
-3.85456
-3.85731
-3.85764
-4.02135
-4.00224
-3.98726
-3.97507
-3.96491
-3.95608
-3.94804
-3.94052
-3.93347
-3.92721
-3.92309
-3.92472
-3.93252
-3.9423
-3.95158
-3.95854
-3.96316
-3.96537
-3.9649
-4.13473
-4.11667
-4.10251
-4.09092
-4.08115
-4.07255
-4.06477
-4.05767
-4.05124
-4.04576
-4.04262
-4.0438
-4.04962
-4.0571
-4.06432
-4.06999
-4.07411
-4.07632
-4.07576
-4.24822
-4.23126
-4.2179
-4.20694
-4.19766
-4.18953
-4.18228
-4.17585
-4.17029
-4.16584
-4.1634
-4.16399
-4.16748
-4.17319
-4.17882
-4.18343
-4.18709
-4.18915
-4.18883
-4.36149
-4.34577
-4.3333
-4.32303
-4.31433
-4.30678
-4.30016
-4.29445
-4.28971
-4.28611
-4.28416
-4.28442
-4.2866
-4.29083
-4.29489
-4.2983
-4.30139
-4.30306
-4.30313
-4.47432
-4.46003
-4.44857
-4.43908
-4.43105
-4.42412
-4.41814
-4.4131
-4.40907
-4.40613
-4.40455
-4.40456
-4.40596
-4.40878
-4.41157
-4.41409
-4.41651
-4.41777
-4.41819
-4.58667
-4.57394
-4.56362
-4.555
-4.5477
-4.54143
-4.53608
-4.53164
-4.52816
-4.52567
-4.52429
-4.52409
-4.5249
-4.52668
-4.52855
-4.53038
-4.53214
-4.53309
-4.53377
-4.69857
-4.68752
-4.67843
-4.67077
-4.66424
-4.65864
-4.65389
-4.64998
-4.64692
-4.64472
-4.64343
-4.64304
-4.64339
-4.64445
-4.64567
-4.64695
-4.64816
-4.64881
-4.64957
-4.81015
-4.80083
-4.79303
-4.78636
-4.78063
-4.7757
-4.77152
-4.76806
-4.76533
-4.76334
-4.76208
-4.76152
-4.76154
-4.76211
-4.76284
-4.76368
-4.76446
-4.76492
-4.76544
-4.92155
-4.91396
-4.90747
-4.90181
-4.89687
-4.89259
-4.88892
-4.88586
-4.88342
-4.88157
-4.88033
-4.87965
-4.87942
-4.87963
-4.87999
-4.88051
-4.88097
-4.88131
-4.88147
-5.03295
-5.02703
-5.02181
-5.01713
-5.01297
-5.0093
-5.00611
-5.00341
-5.0012
-4.99949
-4.99826
-4.99748
-4.99708
-4.99703
-4.99712
-4.99738
-4.99761
-4.99784
-4.99776
-5.14447
-5.14009
-5.13608
-5.13235
-5.12893
-5.12583
-5.12309
-5.12071
-5.11873
-5.11713
-5.11593
-5.11509
-5.11456
-5.11432
-5.11422
-5.11428
-5.11432
-5.11446
-5.11428
-5.25624
-5.25328
-5.25039
-5.24753
-5.2448
-5.24224
-5.2399
-5.23782
-5.23604
-5.23455
-5.23339
-5.23251
-5.23189
-5.2315
-5.23126
-5.23116
-5.23108
-5.23112
-5.23089
-5.36846
-5.36677
-5.36488
-5.36281
-5.36069
-5.35861
-5.35663
-5.35481
-5.35319
-5.35181
-5.35067
-5.34977
-5.34908
-5.34858
-5.34822
-5.348
-5.34781
-5.34778
-5.34749
-5.48132
-5.48073
-5.47969
-5.4783
-5.47672
-5.47505
-5.47337
-5.47177
-5.4703
-5.46899
-5.46787
-5.46694
-5.46619
-5.46561
-5.46515
-5.46482
-5.46454
-5.46446
-5.46408
-5.59485
-5.59514
-5.59482
-5.594
-5.59286
-5.59153
-5.59011
-5.58869
-5.58733
-5.58608
-5.58498
-5.58402
-5.58322
-5.58256
-5.58202
-5.5816
-5.58124
-5.58109
-5.58062
-5.70889
-5.7099
-5.71014
-5.70977
-5.70898
-5.70791
-5.70667
-5.70537
-5.70409
-5.70288
-5.70177
-5.70078
-5.69993
-5.6992
-5.6986
-5.6981
-5.69768
-5.69746
-5.69677
)
;

boundaryField
{
    leftWall
    {
        type            calculated;
        value           nonuniform List<scalar> 
50
(
972.251
912.671
853.135
793.143
732.352
670.886
608.456
541.502
440.99
365.743
341.702
319.117
305.067
293.25
318.927
252.147
194.89
135.745
64.7236
13.3532
11.0161
10.5277
8.81434
12.5142
-6.21152
-6.27011
-5.93327
-5.55358
-5.62713
-6.00498
-6.5296
-7.08388
-7.5002
-6.97015
-6.76274
-2.14401
-2.05729
-3.06315
-3.12412
3.65326
-5.73664
-5.68907
-5.4037
-5.33673
-5.48903
-5.52298
-5.59913
-5.65743
-5.69747
-5.74006
)
;
    }
    rightWall
    {
        type            calculated;
        value           nonuniform List<scalar> 
50
(
396.723
348.959
315.842
299.587
286.497
268.357
245.742
221.456
193.779
182.679
160.452
103.645
54.2294
53.4519
67.309
72.3314
50.5373
17.5533
6.29604
0.771166
-1.24092
-1.1061
0.92221
-2.79597
-2.9467
-3.04697
-3.15411
-3.25727
-3.35736
-3.45542
-3.55267
-3.6523
-3.75416
-3.85764
-3.9649
-4.07576
-4.18883
-4.30313
-4.41819
-4.53377
-4.64957
-4.76544
-4.88147
-4.99776
-5.11428
-5.23089
-5.34749
-5.46408
-5.58062
-5.69677
)
;
    }
    lowerWall
    {
        type            calculated;
        value           nonuniform List<scalar> 
62
(
1001.68
1001.91
1002.64
1004.76
1002.33
997.019
989.626
976.66
959.133
936.045
907.308
872.511
835.84
806.333
781.99
764.546
759.089
757.9
756.241
757.109
759.603
762.147
764.752
735.323
676.783
618.463
560.295
502.268
444.431
387.46
331.334
294.182
301.105
310.933
324.512
725.869
667.785
612.138
557.655
503.572
447.727
387.247
334.984
754.89
754.483
716.114
713.664
745.525
669.936
531.21
457.713
457.222
477.808
493.229
518.891
538.65
526.485
461.165
410.978
397.572
412.2
421.337
)
;
    }
    atmosphere
    {
        type            calculated;
        value           nonuniform List<scalar> 
46
(
-5.74658
-5.73398
-5.74071
-5.74844
-5.75629
-7.17537
-21.9748
-48.2536
-24.755
-7.30022
-5.77956
-5.73531
-5.72962
-5.72907
-5.72904
-5.72904
-5.72909
-5.73214
-5.73765
-5.7436
-5.74917
-5.75404
-5.75814
-5.76067
-5.76215
-5.76346
-5.7646
-5.76617
-5.76744
-5.76788
-5.76767
-5.76699
-5.76599
-5.76481
-5.76354
-5.76227
-5.76105
-5.75992
-5.75891
-5.75803
-5.75727
-5.75663
-5.75611
-5.75567
-5.75545
-5.75447
)
;
    }
    defaultFaces
    {
        type            empty;
    }
}


// ************************************************************************* //
