/*--------------------------------*- C++ -*----------------------------------*\
| =========                 |                                                 |
| \\      /  F ield         | OpenFOAM: The Open Source CFD Toolbox           |
|  \\    /   O peration     | Version:  2.3.0                                 |
|   \\  /    A nd           | Web:      www.OpenFOAM.org                      |
|    \\/     M anipulation  |                                                 |
\*---------------------------------------------------------------------------*/
FoamFile
{
    version     2.0;
    format      ascii;
    class       surfaceScalarField;
    location    "1.15";
    object      phi;
}
// * * * * * * * * * * * * * * * * * * * * * * * * * * * * * * * * * * * * * //

dimensions      [0 3 -1 0 0 0 0];

internalField   nonuniform List<scalar> 
4432
(
3.32881e-06
-3.32881e-06
5.71411e-06
-2.38532e-06
4.02928e-06
1.68485e-06
-7.40516e-07
4.76979e-06
-3.82795e-06
3.08744e-06
-2.87402e-06
-9.53929e-07
-5.29723e-07
-2.34429e-06
7.58478e-07
-1.2882e-06
1.38776e-06
-6.29281e-07
2.13088e-06
-7.4312e-07
3.95837e-06
-1.82749e-06
6.3557e-06
-2.39733e-06
5.83599e-06
5.19704e-07
-3.0811e-07
6.14411e-06
-7.59134e-06
7.28323e-06
-8.3963e-06
8.04972e-07
-4.00302e-06
-4.39329e-06
-5.33791e-07
-3.46923e-06
5.97317e-07
-1.13111e-06
7.63878e-07
-1.66556e-07
8.30357e-07
-6.64665e-08
7.71551e-07
5.88003e-08
7.71549e-07
3.04504e-07
-3.6333e-06
1.10945e-06
-3.19028e-06
-9.83885e-08
2.8927e-06
-3.96341e-06
8.63481e-06
-5.7794e-06
4.90343e-06
-4.18281e-06
-2.55051e-06
-1.40481e-06
-5.12229e-06
-1.14767e-07
-2.57824e-06
-3.52911e-07
-3.91139e-07
-9.08991e-07
-1.87041e-07
-1.20446e-06
-1.53203e-06
-2.86748e-06
-7.34304e-07
-6.11578e-06
3.76801e-06
-8.22317e-06
8.2515e-06
-6.29477e-06
5.35482e-06
-1.15575e-06
-4.33404e-06
2.71474e-06
-8.26378e-06
4.53587e-06
-5.29035e-06
5.11852e-06
-1.71375e-06
4.4558e-06
4.96159e-07
2.98561e-06
1.40372e-06
1.72032e-06
1.32409e-06
2.49188e-06
-1.54399e-06
-2.08929e-06
-2.85476e-06
-1.87953e-06
-4.38519e-06
4.42315e-06
-6.0785e-06
1.03281e-05
-7.06635e-06
5.89128e-06
-5.64649e-06
-3.97037e-06
-2.49273e-06
-8.27606e-06
-5.06793e-07
-4.56417e-06
-3.25278e-07
-5.72657e-07
-1.19173e-06
6.79407e-07
-2.95698e-06
2.33224e-07
-5.63458e-06
1.94329e-06
-7.02459e-06
5.15802e-06
-4.13637e-06
5.36327e-06
1.74363e-06
-5.25183e-07
5.5808e-06
-8.17121e-06
6.35394e-06
-9.03691e-06
6.69502e-06
-5.63144e-06
6.85911e-06
-1.87787e-06
6.06685e-06
1.28843e-06
4.08755e-06
3.38301e-06
2.13473e-06
3.27691e-06
4.6266e-06
-1.21367e-06
-8.75616e-07
-3.20367e-06
1.10451e-07
-4.8787e-06
6.09819e-06
-5.95392e-06
1.14033e-05
-6.85926e-06
6.79662e-06
-6.05026e-06
-4.77936e-06
-3.32664e-06
-1.09997e-05
-9.08596e-07
-6.98222e-06
-8.21757e-08
-1.39908e-06
-4.89741e-07
1.08697e-06
-1.84968e-06
1.59316e-06
-2.73081e-06
2.82442e-06
-8.68776e-07
3.29598e-06
4.06792e-06
4.26578e-07
8.49425e-06
-4.95151e-06
9.30119e-06
-8.97816e-06
8.49258e-06
-8.2283e-06
7.86793e-06
-5.00678e-06
7.58782e-06
-1.59778e-06
6.7462e-06
2.13004e-06
4.79425e-06
5.33495e-06
2.34573e-06
5.72543e-06
6.97233e-06
6.1031e-07
-1.48592e-06
-3.61685e-07
1.08243e-06
-2.45406e-06
8.19058e-06
-3.73787e-06
1.26871e-05
-4.73213e-06
7.79088e-06
-4.62809e-06
-4.88341e-06
-3.14004e-06
-1.24877e-05
-1.24878e-06
-8.87348e-06
-1.74783e-07
-2.47308e-06
2.08486e-08
8.9134e-07
-2.03866e-07
1.81787e-06
8.90565e-07
1.72999e-06
4.88446e-06
-6.97922e-07
9.5926e-06
-4.28156e-06
1.14552e-05
-6.81412e-06
1.04965e-05
-8.01944e-06
8.88495e-06
-6.61674e-06
7.8417e-06
-3.96353e-06
7.57773e-06
-1.33379e-06
7.05067e-06
2.6571e-06
5.34069e-06
7.04494e-06
2.53653e-06
8.52959e-06
9.50887e-06
3.07757e-06
-4.56347e-06
3.64655e-06
5.13438e-07
1.9976e-06
9.83954e-06
-7.06629e-08
1.47554e-05
-1.06209e-06
8.7823e-06
-1.56523e-06
-4.38027e-06
-1.53781e-06
-1.25151e-05
-1.04126e-06
-9.37004e-06
-5.0805e-07
-3.00629e-06
-1.10238e-07
4.93535e-07
5.56254e-07
1.15138e-06
2.84147e-06
-5.55224e-07
7.70044e-06
-5.55689e-06
1.11362e-05
-7.71734e-06
1.02362e-05
-5.91415e-06
7.7082e-06
-5.49138e-06
6.11091e-06
-5.01945e-06
5.77301e-06
-3.62563e-06
6.44882e-06
-2.0096e-06
6.75586e-06
2.35007e-06
5.45223e-06
8.34856e-06
2.5055e-06
1.14763e-05
1.20144e-05
5.3774e-06
-9.94087e-06
8.39595e-06
-2.50511e-06
7.29465e-06
1.09408e-05
5.36855e-06
1.66815e-05
3.41113e-06
1.07397e-05
1.88383e-06
-2.85297e-06
1.05629e-06
-1.16876e-05
2.79702e-08
-8.34172e-06
-9.39671e-07
-2.03864e-06
-1.01002e-06
5.63891e-07
-9.57916e-08
2.37156e-07
3.0951e-06
-3.74611e-06
8.00813e-06
-1.04699e-05
8.55388e-06
-8.2631e-06
4.11374e-06
-1.47401e-06
7.60051e-07
-2.1377e-06
4.98458e-07
-4.75787e-06
2.19154e-06
-5.31873e-06
4.91559e-06
-4.73367e-06
6.93834e-06
3.27313e-07
6.06501e-06
9.22188e-06
3.40392e-06
1.41374e-05
1.54183e-05
5.75443e-06
-1.56953e-05
1.02119e-05
-6.96263e-06
1.17165e-05
9.43625e-06
1.06795e-05
1.77185e-05
8.45722e-06
1.2962e-05
5.38441e-06
2.19833e-07
3.69057e-06
-9.99376e-06
2.31321e-06
-6.96436e-06
-1.25265e-07
3.99842e-07
-1.56699e-06
2.00562e-06
-7.70794e-07
-5.59041e-07
3.01998e-06
-7.53689e-06
5.08583e-06
-1.25358e-05
7.99648e-07
-3.97692e-06
-4.52815e-06
3.85379e-06
-7.07589e-06
4.10038e-07
-6.647e-06
-5.18676e-06
-4.02406e-06
-7.94167e-06
-9.46349e-07
-7.81138e-06
3.12271e-06
-3.74174e-06
6.28003e-06
6.06456e-06
5.99434e-06
1.44231e-05
2.14126e-05
8.65016e-06
-8.65016e-06
3.49306e-06
5.1571e-06
-4.11548e-06
7.60854e-06
9.46723e-06
-1.35827e-05
3.95487e-05
-3.00814e-05
6.43196e-05
-2.47709e-05
7.36999e-05
-9.38032e-06
6.64818e-05
7.21815e-06
5.1069e-05
1.54128e-05
3.83188e-05
1.27502e-05
2.88632e-05
9.4556e-06
1.7933e-05
1.09301e-05
7.44695e-06
1.04861e-05
-2.14448e-06
9.59144e-06
-1.2048e-05
9.90357e-06
-1.84479e-05
6.39984e-06
-1.72781e-05
-1.1698e-06
-8.26569e-06
-9.01237e-06
-8.26569e-06
3.45542e-06
-1.21056e-05
-3.62996e-07
8.97552e-06
2.82692e-06
4.41862e-06
2.30531e-05
-3.38089e-05
4.66028e-05
-5.36312e-05
6.36952e-05
-4.18632e-05
7.28617e-05
-1.85468e-05
7.70111e-05
3.06871e-06
7.5022e-05
1.74019e-05
6.74641e-05
2.03081e-05
5.57949e-05
2.11248e-05
3.77592e-05
2.89658e-05
1.47643e-05
3.3481e-05
-4.09404e-06
2.84499e-05
-1.43839e-05
2.01935e-05
-2.23486e-05
1.43645e-05
-2.34047e-05
-1.13728e-07
-8.33903e-06
-2.4078e-05
-1.66047e-05
1.70345e-06
-1.3809e-05
5.88065e-06
4.79831e-06
1.53019e-05
-5.00264e-06
3.0345e-05
-4.88519e-05
4.48908e-05
-6.8177e-05
5.6533e-05
-5.35054e-05
6.16416e-05
-2.36555e-05
6.41238e-05
5.86551e-07
6.57543e-05
1.57715e-05
6.46197e-05
2.14426e-05
5.76531e-05
2.80914e-05
4.03181e-05
4.63008e-05
1.54869e-05
5.83122e-05
-4.10243e-06
4.80392e-05
-2.03705e-05
3.64616e-05
-4.53607e-05
3.93547e-05
-4.6702e-05
1.2275e-06
-1.57291e-05
-5.50509e-05
-3.23338e-05
7.41176e-07
-1.45502e-05
8.96227e-06
-3.42279e-06
2.20163e-05
-1.80566e-05
3.01151e-05
-5.69508e-05
3.55756e-05
-7.36375e-05
4.28806e-05
-6.08105e-05
4.61721e-05
-2.6947e-05
4.69342e-05
-1.75532e-07
4.89323e-05
1.37733e-05
5.0817e-05
1.9558e-05
4.63418e-05
3.25665e-05
3.05314e-05
6.21113e-05
1.00928e-05
7.87508e-05
-7.98963e-06
6.61216e-05
-3.84892e-05
6.69611e-05
-7.34936e-05
7.43592e-05
-5.98582e-05
-1.2408e-05
-2.56829e-05
-8.92262e-05
-5.80167e-05
8.87241e-07
-1.54374e-05
1.19324e-05
-1.44679e-05
2.29488e-05
-2.90731e-05
2.35847e-05
-5.75867e-05
2.0254e-05
-7.03068e-05
2.36244e-05
-6.41809e-05
2.71068e-05
-3.04294e-05
2.83085e-05
-1.37724e-06
2.95526e-05
1.25293e-05
2.90085e-05
2.01021e-05
2.47121e-05
3.68629e-05
1.40546e-05
7.27688e-05
1.18913e-06
9.16163e-05
-2.00033e-05
8.7314e-05
-6.22753e-05
0.000109233
-7.35754e-05
8.56592e-05
-5.56202e-05
-3.03633e-05
-2.78813e-05
-0.000116965
-8.5898e-05
3.27015e-06
-1.87076e-05
1.52395e-05
-2.64373e-05
2.05747e-05
-3.44082e-05
1.4127e-05
-5.1139e-05
8.59779e-07
-5.70396e-05
-4.10972e-07
-6.29101e-05
5.18506e-06
-3.60254e-05
5.99909e-06
-2.19128e-06
5.03553e-06
1.34928e-05
3.53311e-06
2.16045e-05
3.80272e-06
3.65933e-05
1.4454e-06
7.51261e-05
-8.67277e-06
0.000101734
-3.83919e-05
0.000117033
-7.66914e-05
0.000147533
-6.91023e-05
7.80701e-05
-5.12888e-05
-4.81767e-05
-2.59341e-05
-0.00014232
-0.000111832
5.70343e-06
-2.4411e-05
1.45045e-05
-3.52384e-05
1.53103e-05
-3.5214e-05
5.92118e-06
-4.17499e-05
-1.22258e-05
-3.88926e-05
-2.32978e-05
-5.18381e-05
-2.30112e-05
-3.6312e-05
-2.36867e-05
-1.51581e-06
-2.16214e-05
1.14275e-05
-1.4916e-05
1.48991e-05
-1.10095e-05
3.26867e-05
-1.15624e-05
7.5679e-05
-2.25449e-05
0.000112717
-4.95155e-05
0.000144004
-7.49885e-05
0.000173006
-6.96358e-05
7.27175e-05
-4.75917e-05
-7.02209e-05
-2.18986e-05
-0.000168013
-0.000133731
1.667e-07
-2.45777e-05
5.60194e-06
-4.06736e-05
8.52054e-06
-3.81326e-05
3.53953e-06
-3.67688e-05
-1.24074e-05
-2.29457e-05
-3.6252e-05
-2.79935e-05
-4.51358e-05
-2.74282e-05
-4.74257e-05
7.7405e-07
-4.66747e-05
1.06765e-05
-3.95916e-05
7.81594e-06
-3.41152e-05
2.72104e-05
-3.20937e-05
7.36575e-05
-4.01484e-05
0.000120772
-6.07363e-05
0.000164592
-7.03389e-05
0.000182608
-6.75973e-05
6.99759e-05
-3.90585e-05
-9.87596e-05
-1.5472e-05
-0.0001916
-0.000149203
9.34297e-06
-2.50383e-05
1.55321e-05
-1.31518e-05
2.6309e-05
-1.34061e-06
3.35465e-05
1.0481e-05
3.43858e-05
1.21228e-05
2.619e-05
8.41557e-06
1.47709e-05
1.42542e-06
7.77682e-06
2.96849e-08
1.56801e-06
6.60866e-06
-2.10982e-06
5.68345e-06
-6.88203e-07
-1.98065e-06
-4.36304e-06
-3.86205e-06
-1.70209e-05
1.22143e-07
-3.33984e-05
1.24005e-05
-4.12476e-05
1.1703e-05
-3.96478e-05
-1.18978e-06
-3.40527e-05
-1.07818e-05
-2.82392e-05
-1.37552e-05
-2.67633e-05
-9.28729e-06
-2.4845e-05
-5.66006e-06
-1.34215e-05
-5.35896e-06
3.43157e-06
-2.42995e-06
4.87477e-06
1.99694e-05
1.23601e-05
-3.73983e-05
4.24791e-06
-5.03963e-06
8.8829e-06
-5.9756e-06
2.19613e-05
-2.59737e-06
3.60116e-05
-1.92758e-06
3.7276e-05
7.15116e-06
2.68135e-05
1.18879e-05
1.37977e-05
1.30456e-05
2.72257e-06
1.76838e-05
-4.54303e-06
1.29491e-05
-1.86167e-05
1.20931e-05
-4.9069e-05
2.65902e-05
-8.4909e-05
3.59622e-05
-0.000105431
3.29225e-05
-0.000101175
7.44743e-06
-8.37671e-05
-1.85982e-05
-6.5983e-05
-2.85659e-05
-4.69053e-05
-3.28329e-05
-3.62826e-05
-1.991e-05
-3.30635e-05
-8.87913e-06
-3.92905e-05
8.68052e-07
-4.29023e-05
1.18185e-06
1.2568e-06
-3.92843e-05
2.16567e-05
-5.9055e-05
8.69647e-06
7.92058e-06
4.8046e-06
-2.08371e-06
1.53355e-05
-1.31283e-05
3.41003e-05
-2.06924e-05
4.11401e-05
1.11346e-07
3.25568e-05
2.04713e-05
1.42766e-05
3.13257e-05
-5.92752e-06
3.78879e-05
-3.35385e-05
4.056e-05
-7.75467e-05
5.61012e-05
-0.000136262
8.53055e-05
-0.00019254
9.22406e-05
-0.000196664
3.70461e-05
-0.000177907
-1.13096e-05
-0.000160743
-3.57623e-05
-0.000137715
-5.15942e-05
-0.000104918
-6.56299e-05
-5.06757e-05
-7.4152e-05
1.65643e-05
-7.6119e-05
8.35543e-05
-6.61219e-05
0.000109503
-2.47668e-05
6.59183e-05
4.48414e-05
3.40274e-05
-9.30824e-05
6.20792e-05
-2.01312e-05
7.63967e-05
-1.64012e-05
7.17651e-05
-8.49667e-06
5.24085e-05
-1.33574e-06
3.36127e-05
1.89072e-05
1.32369e-05
4.08471e-05
-1.03146e-05
5.48772e-05
-3.82705e-05
6.58439e-05
-7.99202e-05
8.22097e-05
-0.000139155
0.000115336
-0.000214324
0.000160474
-0.000258736
0.000136653
-0.000239855
1.81648e-05
-0.000223004
-2.81605e-05
-0.000205446
-5.332e-05
-0.000188774
-6.8266e-05
-0.000168993
-8.54114e-05
-0.000139692
-0.000103453
-0.000103531
-0.00011228
-5.47151e-05
-0.000114938
3.14517e-05
-0.000110934
-5.06231e-05
0.000147993
2.10184e-06
-9.51842e-05
8.39633e-06
-2.64257e-05
-2.66689e-06
-5.33804e-06
-1.43671e-05
3.20351e-06
-2.7195e-05
1.14922e-05
-3.77364e-05
2.94485e-05
-4.96705e-05
5.27812e-05
-6.69981e-05
7.22048e-05
-9.19105e-05
9.07563e-05
-0.000129359
0.000119659
-0.000178675
0.000164652
-0.000222857
0.000204655
-0.000213499
0.000127295
-0.000201261
5.92689e-06
-0.000187664
-4.17574e-05
-0.00018764
-5.33447e-05
-0.000189245
-6.66606e-05
-0.000187094
-8.75621e-05
-0.000168271
-0.000122276
-0.000148758
-0.000131794
-0.000121924
-0.000141772
-8.94251e-05
-0.000143432
-0.000128119
-1.19289e-05
-3.81745e-05
-5.70097e-05
-7.04724e-05
5.8722e-06
-9.41885e-05
1.8378e-05
-0.000102775
1.179e-05
-0.000109502
1.82191e-05
-0.000117217
3.71633e-05
-0.000123602
5.91669e-05
-0.000132215
8.0818e-05
-0.00014665
0.000105191
-0.000171013
0.000144022
-0.000206995
0.000200635
-0.000193237
0.000190896
-0.000132484
6.65426e-05
-6.86793e-05
-5.78779e-05
-4.94703e-05
-6.09664e-05
-6.5044e-05
-3.77708e-05
-9.8065e-05
-3.36395e-05
-0.000142068
-4.35587e-05
-0.000152377
-0.000111967
-0.000154574
-0.000129597
-0.000146692
-0.000149654
-0.000136904
-0.000153221
-0.000139755
-0.000125268
-4.17311e-05
-1.52787e-05
-7.67907e-05
4.09319e-05
-0.000136832
7.84191e-05
-0.000170228
4.51863e-05
-0.000168272
1.62631e-05
-0.000165131
3.40225e-05
-0.000164284
5.83191e-05
-0.000165006
8.15405e-05
-0.000168269
0.000108454
-0.000195734
0.000171486
-0.000185643
0.000190544
-0.000136121
0.000141374
-7.44774e-05
4.89947e-06
-5.17298e-05
-8.06256e-05
-4.17801e-05
-7.09161e-05
-2.86378e-05
-5.09131e-05
-1.9448e-05
-4.28292e-05
-1.53032e-05
-4.77037e-05
-5.62612e-05
-7.10088e-05
-0.000104856
-8.10012e-05
-0.000128248
-0.000126262
-0.000134405
-0.000147064
-0.000145457
-0.000128703
2.07776e-05
-3.60563e-05
2.06978e-05
4.10117e-05
-2.64132e-05
0.00012553
-0.000124327
0.0001431
-0.00016909
6.10263e-05
-0.000165269
3.02019e-05
-0.000146302
3.93521e-05
-0.000120521
5.57592e-05
-0.000127886
0.000115818
-0.000123278
0.000166879
-0.000101507
0.000168773
-5.75408e-05
9.74083e-05
-3.47522e-05
-1.78893e-05
-3.69684e-05
-7.84094e-05
-3.6248e-05
-7.16363e-05
-2.56873e-05
-6.14735e-05
-7.13769e-06
-6.1379e-05
9.54001e-06
-6.43814e-05
9.18211e-06
-7.06505e-05
-5.25008e-06
-6.65689e-05
-5.12785e-05
-8.02341e-05
-0.000107373
-9.09688e-05
-0.000129541
-0.000123289
4.06549e-05
-7.67112e-05
6.66486e-05
1.5018e-05
8.84773e-05
0.000103701
4.09475e-05
0.00019063
-2.39841e-05
0.000125958
-4.25369e-05
4.87547e-05
-1.89009e-05
1.57161e-05
1.08923e-05
2.59659e-05
4.30579e-05
8.36527e-05
4.24628e-05
0.000167474
2.97653e-05
0.00018147
2.23193e-05
0.000104854
2.3298e-06
2.10009e-06
-2.1188e-05
-5.48915e-05
-3.53832e-05
-5.7441e-05
-3.39355e-05
-6.29213e-05
-2.27249e-05
-7.25897e-05
-6.56953e-06
-8.05363e-05
7.72604e-06
-8.49459e-05
2.30535e-05
-8.18964e-05
1.89199e-05
-7.61006e-05
-7.12418e-06
-6.49249e-05
-7.21645e-05
-6.45007e-05
3.10794e-05
-0.000107791
7.0141e-05
-2.40435e-05
0.000100265
7.35772e-05
0.000113703
0.000177192
8.9725e-05
0.000149936
6.58636e-05
7.26162e-05
5.37178e-05
2.7862e-05
5.81459e-05
2.15379e-05
9.33078e-05
4.84907e-05
0.000120033
0.000140749
8.5464e-05
0.000216039
4.97777e-05
0.00014054
1.2519e-05
3.93589e-05
-2.52727e-05
-1.71001e-05
-4.25291e-05
-4.01846e-05
-4.07712e-05
-6.46789e-05
-2.84067e-05
-8.49542e-05
-1.17496e-05
-9.71933e-05
2.96773e-06
-9.96632e-05
1.46376e-05
-9.35664e-05
2.31802e-05
-8.46435e-05
3.22889e-05
-7.40337e-05
-6.5877e-05
2.60014e-05
2.77905e-05
-0.000135581
5.90124e-05
-5.52654e-05
7.15426e-05
6.1047e-05
0.000104622
0.000144113
0.000113494
0.000141063
9.77401e-05
8.83703e-05
7.4508e-05
5.10942e-05
6.98428e-05
2.6203e-05
7.48137e-05
4.35199e-05
7.96754e-05
0.000135887
5.23549e-05
0.000243359
1.96952e-05
0.0001732
-1.75908e-05
7.66447e-05
-4.99529e-05
1.52621e-05
-5.60759e-05
-3.40613e-05
-4.34738e-05
-7.72812e-05
-2.15003e-05
-0.000106928
1.36859e-06
-0.000120062
1.87513e-05
-0.000117046
2.76644e-05
-0.00010248
2.81357e-05
-8.51149e-05
2.48267e-05
-7.07245e-05
-6.07511e-05
1.97009e-05
1.43748e-05
-0.000149956
8.135e-06
-4.90257e-05
3.29597e-06
6.5886e-05
4.27275e-05
0.000104681
7.77913e-05
0.000106
8.23574e-05
8.38041e-05
6.97212e-05
6.37304e-05
5.35494e-05
4.23747e-05
2.91054e-05
6.79639e-05
-1.72413e-05
0.000182233
-3.98874e-05
0.000266005
-5.51587e-05
0.000188471
-7.7214e-05
9.87001e-05
-8.35908e-05
2.16389e-05
-6.5581e-05
-5.20713e-05
-3.44e-05
-0.000108462
-6.3255e-07
-0.000140695
2.80225e-05
-0.000148717
4.72433e-05
-0.000136267
5.50048e-05
-0.000110241
5.14563e-05
-8.15663e-05
4.0328e-05
-5.9596e-05
-4.76048e-05
2.71817e-05
-7.65621e-06
-0.0001423
-5.70983e-05
4.16421e-07
-4.52917e-05
5.40795e-05
1.53515e-05
4.4038e-05
5.26159e-05
6.87351e-05
7.0371e-05
6.60491e-05
4.98359e-05
8.42657e-05
-9.28415e-06
0.000101495
-9.6207e-05
0.000154887
-0.00015253
0.000238556
-0.0001529
0.000266375
-0.000146736
0.000182307
-0.000137813
8.97769e-05
-0.000106706
-9.46812e-06
-6.19871e-05
-9.67902e-05
-1.48382e-05
-0.000155611
2.71846e-05
-0.000182718
5.94059e-05
-0.000180939
7.93102e-05
-0.000156172
8.51913e-05
-0.000116122
7.72523e-05
-7.36272e-05
5.95648e-05
-4.19084e-05
-2.72342e-05
3.91941e-05
-7.23638e-06
-0.000135063
-3.95728e-05
3.27529e-05
-3.49782e-05
4.94848e-05
5.20183e-06
3.85811e-06
1.45624e-05
5.93747e-05
-1.03879e-05
9.09996e-05
-6.45514e-05
0.000138429
-0.000145066
0.000182009
-0.000221238
0.000231059
-0.00025521
0.000272529
-0.00023817
0.000249334
-0.000213479
0.000157615
-0.00017091
4.72079e-05
-0.000113603
-6.67742e-05
-5.50373e-05
-0.000155356
-9.46393e-07
-0.000209702
4.34885e-05
-0.000227153
7.74345e-05
-0.000214885
9.91268e-05
-0.000177864
0.00010563
-0.000122626
9.58758e-05
-6.38726e-05
7.38693e-05
-1.9902e-05
-9.58613e-07
4.75935e-05
-2.63813e-06
-0.000132425
-1.27865e-05
4.29013e-05
-1.29733e-05
4.96718e-05
-1.79821e-05
8.86719e-06
-4.62954e-05
8.76884e-05
-0.000101738
0.000146443
-0.000170165
0.000206856
-0.000239942
0.000251787
-0.000291294
0.000282411
-0.000303775
0.00028501
-0.000281667
0.000227227
-0.000240986
0.000116934
-0.000181127
-1.26512e-05
-0.000117909
-0.000129992
-5.75121e-05
-0.000215753
-6.10885e-06
-0.000261105
3.48522e-05
-0.000268114
6.80991e-05
-0.000248132
9.12885e-05
-0.000201053
0.00010074
-0.000132077
9.3754e-05
-5.68867e-05
7.31188e-05
7.33288e-07
2.58303e-05
4.63299e-05
1.01823e-05
-0.000142607
1.21754e-05
4.09082e-05
-7.24378e-06
6.90912e-05
-4.8689e-05
5.03125e-05
-9.91288e-05
0.000138128
-0.000162415
0.000209729
-0.000223952
0.000268392
-0.000276939
0.000304773
-0.000312132
0.000317604
-0.000317468
0.000290345
-0.000293103
0.000202862
-0.000246167
6.99975e-05
-0.000188345
-7.04728e-05
-0.00012973
-0.000188607
-7.53972e-05
-0.000270085
-3.32823e-05
-0.00030322
7.21761e-07
-0.000302118
3.08544e-05
-0.000278264
5.29443e-05
-0.000223143
6.41418e-05
-0.000143275
6.23224e-05
-5.50672e-05
4.92921e-05
1.37635e-05
4.60778e-05
2.90447e-05
8.04394e-06
-0.000150651
1.98032e-05
2.91489e-05
3.81196e-06
8.50824e-05
-6.07936e-05
0.000114918
-0.000122888
0.000200223
-0.000182618
0.00026946
-0.000233381
0.000319155
-0.000275391
0.000346783
-0.000304262
0.000346475
-0.000309203
0.000295286
-0.000286418
0.000180078
-0.000245507
2.90859e-05
-0.000198359
-0.00011762
-0.0001488
-0.000238167
-0.000106486
-0.000312399
-7.53729e-05
-0.000334333
-4.91162e-05
-0.000328375
-2.5936e-05
-0.000301445
-8.64336e-06
-0.000240436
2.89744e-06
-0.000154816
7.73228e-06
-5.99019e-05
5.48906e-06
1.60068e-05
5.48165e-05
-3.24962e-06
1.7578e-06
-0.000152409
1.76867e-05
1.32204e-05
5.08314e-06
9.76859e-05
-5.84681e-05
0.000178469
-0.000119503
0.000261257
-0.000171849
0.000321806
-0.000214539
0.000361845
-0.000251588
0.000383833
-0.000279043
0.00037393
-0.000285762
0.000302005
-0.000270038
0.000164354
-0.000241519
5.6728e-07
-0.000207087
-0.000152053
-0.000170565
-0.000274689
-0.000141828
-0.000341136
-0.000121344
-0.000354818
-0.000103968
-0.00034575
-8.90301e-05
-0.000316383
-7.68739e-05
-0.000252592
-6.75529e-05
-0.000164136
-5.76929e-05
-6.97619e-05
-5.00716e-05
8.38552e-06
5.0169e-05
-4.5424e-05
-7.14344e-06
-0.000145266
1.34733e-05
-7.39618e-06
1.08856e-05
0.000100274
-4.14955e-05
0.000230851
-9.88462e-05
0.000318608
-0.000144125
0.000367085
-0.000180739
0.000398459
-0.000214339
0.000417433
-0.000240653
0.000400244
-0.000250194
0.000311545
-0.000244695
0.000158856
-0.00022955
-1.45783e-05
-0.00020921
-0.000172392
-0.000187123
-0.000296777
-0.000170642
-0.000357616
-0.000160393
-0.000365067
-0.000153166
-0.000352978
-0.000147541
-0.000322007
-0.000141009
-0.000259125
-0.000132543
-0.000172602
-0.000119878
-8.24268e-05
-0.000103465
-8.02666e-06
3.43534e-05
-8.76496e-05
-6.86216e-06
-0.000138404
1.82951e-05
-3.25535e-05
2.29058e-05
9.56629e-05
-1.68824e-05
0.000270639
-7.12145e-05
0.00037294
-0.000110067
0.000405938
-0.000140126
0.000428518
-0.000168279
0.000445586
-0.000191596
0.000423561
-0.000203938
0.000323887
-0.000207624
0.000162542
-0.000206057
-1.61447e-05
-0.00019973
-0.000178719
-0.000191273
-0.000305234
-0.000185164
-0.000363724
-0.000184083
-0.000366148
-0.000187193
-0.000349867
-0.000190316
-0.000318885
-0.000189503
-0.000259938
-0.000181986
-0.000180119
-0.000167123
-9.729e-05
-0.000145555
-2.95952e-05
1.0687e-05
-0.000121888
8.39116e-06
-0.000146795
2.41805e-05
-4.83427e-05
2.67163e-05
9.31271e-05
4.68631e-06
0.000292669
-4.6468e-05
0.000424095
-7.7185e-05
0.000436655
-9.81432e-05
0.000449476
-0.00011746
0.000464902
-0.000135126
0.000441227
-0.000148727
0.000337488
-0.000159422
0.000173237
-0.000169488
-6.07823e-06
-0.00017613
-0.000172078
-0.000179981
-0.000301382
-0.000182478
-0.000361228
-0.000188313
-0.000360313
-0.000199677
-0.000338503
-0.000210811
-0.00030775
-0.000215544
-0.000255205
-0.000210289
-0.000185374
-0.000194993
-0.000112586
-0.000171094
-5.34941e-05
-1.88306e-05
-0.000141577
3.16869e-05
-0.000178483
2.30451e-05
-3.97007e-05
1.90148e-05
9.71574e-05
2.33155e-06
0.000309352
-3.32498e-05
0.000459677
-5.07543e-05
0.00045416
-5.91363e-05
0.000457858
-6.62666e-05
0.000472033
-7.55901e-05
0.000450551
-8.81323e-05
0.000350031
-0.000103822
0.000188926
-0.00012177
1.18702e-05
-0.000139777
-0.000154071
-0.000154215
-0.000286944
-0.000163624
-0.000351819
-0.000173727
-0.00035021
-0.000189483
-0.000322747
-0.000206071
-0.000291162
-0.000215417
-0.00024586
-0.000213386
-0.000187404
-0.000199022
-0.000126949
-0.000174148
-7.83676e-05
-5.06178e-05
-0.000142361
4.20303e-05
-0.000220513
1.55798e-05
-1.32503e-05
3.26287e-06
0.000109474
-2.51252e-05
0.000337741
-3.40419e-05
0.000468593
-3.30074e-05
0.000453125
-2.61202e-05
0.000450971
-1.88614e-05
0.000464774
-1.78698e-05
0.000449559
-2.67802e-05
0.000358941
-4.36488e-05
0.000205795
-6.61036e-05
3.43251e-05
-9.18523e-05
-0.000128322
-0.000115153
-0.000263643
-0.000131454
-0.000335518
-0.000144545
-0.000337119
-0.000161005
-0.000306288
-0.000179072
-0.000273094
-0.000190942
-0.00023399
-0.000191447
-0.000186899
-0.000179099
-0.000139298
-0.000156313
-0.000101153
-7.76802e-05
-0.000129251
2.53759e-05
-0.000245889
-7.08534e-06
1.92108e-05
-3.02542e-05
0.000132643
-5.38282e-05
0.000361314
-4.13346e-05
0.0004561
-2.13798e-05
0.000433171
2.92911e-07
0.000429298
2.20481e-05
0.000443019
3.66148e-05
0.000434993
3.58284e-05
0.000359728
2.04179e-05
0.000221205
-3.71578e-06
5.84587e-05
-3.28864e-05
-9.91517e-05
-6.48826e-05
-0.000231647
-8.98072e-05
-0.000310593
-0.000106869
-0.000320057
-0.000122843
-0.000290314
-0.000139491
-0.000256445
-0.000151393
-0.000222088
-0.000153744
-0.000184548
-0.000145336
-0.000147706
-0.000128989
-0.0001175
-9.59963e-05
-0.000110673
-4.42866e-06
-0.00024146
-3.32468e-05
4.80287e-05
-6.8858e-05
0.000168254
-7.15225e-05
0.000363979
-4.42105e-05
0.000428788
-1.10081e-05
0.000399968
2.11055e-05
0.000397185
5.39313e-05
0.000410193
8.04385e-05
0.000408486
8.96355e-05
0.000350531
7.92653e-05
0.000231576
5.49495e-05
8.27744e-05
2.39557e-05
-6.8158e-05
-1.05291e-05
-0.000197162
-4.38469e-05
-0.000277275
-6.6418e-05
-0.000297486
-8.31973e-05
-0.000273535
-9.83489e-05
-0.000241294
-0.000109611
-0.000210826
-0.000113925
-0.000180234
-0.000110568
-0.000151063
-0.000101859
-0.000126209
-0.000106183
-9.16714e-05
-2.80316e-05
-0.000213428
-6.69138e-05
8.69108e-05
-9.54435e-05
0.000196784
-7.83405e-05
0.000346876
-4.00058e-05
0.000390454
-7.87974e-07
0.00036075
3.73323e-05
0.000359064
7.61431e-05
0.000371382
0.000110482
0.000374147
0.000128724
0.000332288
0.0001256
0.0002347
0.000105315
0.000103059
7.37863e-05
-3.66293e-05
3.56308e-05
-0.000159006
-1.6696e-07
-0.000241477
-2.75756e-05
-0.000270078
-4.66488e-05
-0.000254461
-6.19011e-05
-0.000226041
-7.33224e-05
-0.000199404
-7.97356e-05
-0.000173821
-8.09772e-05
-0.000149821
-7.8465e-05
-0.000128722
-0.000110577
-7.40709e-05
-9.83717e-05
-0.000115057
-0.000103378
9.19168e-05
-0.000100686
0.000194093
-7.10714e-05
0.000317261
-2.87049e-05
0.000348087
1.14196e-05
0.000320626
5.01506e-05
0.000320333
8.96396e-05
0.000331893
0.000126391
0.000337395
0.000150319
0.00030836
0.000154091
0.000230929
0.000139096
0.000118054
0.000109861
-7.39442e-06
7.28565e-05
-0.000122002
3.62228e-05
-0.000204844
6.55972e-06
-0.000240415
-1.50893e-05
-0.000232813
-3.16107e-05
-0.00020952
-4.4189e-05
-0.000186826
-5.26635e-05
-0.000165346
-5.72738e-05
-0.000145211
-5.88487e-05
-0.000127147
-0.000111244
-5.81817e-05
-5.83794e-05
-5.66771e-05
-7.56396e-05
0.000109177
-6.64689e-05
0.000184923
-4.82129e-05
0.000299005
-9.71766e-06
0.000309592
2.48763e-05
0.000286032
6.02723e-05
0.000284938
9.64049e-05
0.000295761
0.000130905
0.000302895
0.000156116
0.00028315
0.00016452
0.000222525
0.000155024
0.000127551
0.000130584
1.70448e-05
9.77346e-05
-8.91521e-05
6.4041e-05
-0.00017115
3.43816e-05
-0.000210755
1.10477e-05
-0.000209479
-7.0434e-06
-0.000191429
-2.10434e-05
-0.000172826
-3.12886e-05
-0.000155101
-3.81308e-05
-0.000138369
-4.21751e-05
-0.000123102
-0.000109484
-4.39353e-05
-4.13488e-06
-5.25422e-05
1.98941e-05
8.51482e-05
-1.31856e-05
0.000218002
-1.18473e-05
0.000297667
1.33714e-05
0.000284373
3.98195e-05
0.000259584
6.85473e-05
0.00025621
9.84304e-05
0.000265878
0.000127647
0.000273678
0.000150637
0.000260161
0.000160825
0.000212337
0.000155842
0.000132533
0.000137488
3.53981e-05
0.000111248
-6.2912e-05
8.26628e-05
-0.000142565
5.50742e-05
-0.000183167
3.14394e-05
-0.000185844
1.24598e-05
-0.000172449
-2.61847e-06
-0.000157748
-1.40153e-05
-0.000143704
-2.22765e-05
-0.000130108
-2.7882e-05
-0.000117496
-0.000106024
-3.13414e-05
-2.84857e-07
-5.22574e-05
4.24073e-05
4.24559e-05
2.82457e-05
0.000232164
1.93281e-05
0.000306585
3.32082e-05
0.000270493
5.29563e-05
0.000239836
7.45196e-05
0.000234647
9.70174e-05
0.00024338
0.000119554
0.000251141
0.000138309
0.000241406
0.000148331
0.000202315
0.000146789
0.000134076
0.000134675
4.75121e-05
0.000116065
-4.43021e-05
9.36236e-05
-0.000120124
6.9148e-05
-0.000158691
4.63489e-05
-0.000163045
2.73397e-05
-0.00015344
1.19803e-05
-0.000142389
-1.03477e-07
-0.00013162
-9.17545e-06
-0.000121036
-1.58184e-05
-0.000110854
-0.000101363
-2.04794e-05
6.08618e-07
-5.2866e-05
3.6013e-05
7.05153e-06
4.47586e-05
0.000223418
3.72014e-05
0.000314142
4.39898e-05
0.000263705
5.99121e-05
0.000223914
7.64429e-05
0.000218116
9.24767e-05
0.000227346
0.000108461
0.000235156
0.000122547
0.00022732
0.000131426
0.000193436
0.000132348
0.000133154
0.000126383
5.34766e-05
0.000115621
-3.35398e-05
9.90546e-05
-0.000103557
7.77422e-05
-0.000137379
5.64349e-05
-0.000141738
3.8115e-05
-0.00013512
2.30453e-05
-0.000127319
1.09186e-05
-0.000119493
1.36795e-06
-0.000111486
-5.91484e-06
-0.000103571
-9.5907e-05
-1.13713e-05
1.72024e-05
-7.00684e-05
1.62136e-05
8.04041e-06
3.47609e-05
0.000204871
3.93714e-05
0.000309531
4.71791e-05
0.000255898
6.06806e-05
0.000210412
7.38122e-05
0.000204984
8.49886e-05
0.00021617
9.5523e-05
0.000224622
0.000105548
0.000217294
0.000113061
0.000185923
0.000116433
0.000129782
0.000116941
5.29684e-05
0.000113104
-2.97028e-05
0.000100885
-9.13372e-05
8.21684e-05
-0.000118662
6.26207e-05
-0.00012219
4.5458e-05
-0.000117958
3.10763e-05
-0.000112937
1.92184e-05
-0.000107635
9.61737e-06
-0.000101885
1.97878e-06
-9.59325e-05
-8.9963e-05
-3.96545e-06
8.88969e-06
-7.89581e-05
-8.21336e-06
2.51439e-05
1.26443e-05
0.000184014
4.0169e-05
0.000282006
4.96131e-05
0.000246454
5.86759e-05
0.00020135
6.83814e-05
0.000195279
7.56633e-05
0.000208888
8.18764e-05
0.000218409
8.87156e-05
0.000210455
9.56404e-05
0.000178998
0.00010291
0.000122513
0.000109992
4.58865e-05
0.000110655
-3.03657e-05
0.000100652
-8.13337e-05
8.37172e-05
-0.000101728
6.58905e-05
-0.000104363
5.00699e-05
-0.000102137
3.65769e-05
-9.94442e-05
2.52042e-05
-9.62631e-05
1.5768e-05
-9.24484e-05
8.04948e-06
-8.8214e-05
-8.37498e-05
1.83631e-06
-7.87518e-06
-7.10831e-05
-1.67072e-05
3.39761e-05
1.98625e-05
0.000147444
5.96101e-05
0.000242259
6.39599e-05
0.000242104
6.14928e-05
0.000203817
6.41702e-05
0.000192602
6.6769e-05
0.000206289
6.89508e-05
0.000216227
7.35719e-05
0.000205834
8.23172e-05
0.000170253
9.54019e-05
0.000109428
0.000107317
3.39718e-05
0.000109197
-3.22463e-05
9.93559e-05
-7.14922e-05
8.34126e-05
-8.57842e-05
6.70604e-05
-8.80105e-05
5.25309e-05
-8.76076e-05
3.99625e-05
-8.68752e-05
2.91821e-05
-8.54826e-05
2.00656e-05
-8.3332e-05
1.24538e-05
-8.06024e-05
-7.74676e-05
6.17146e-06
-1.17598e-05
-5.93234e-05
9.04411e-06
1.31722e-05
4.44358e-05
0.000112052
8.37979e-05
0.000202897
8.71561e-05
0.000238746
7.39836e-05
0.00021699
6.55932e-05
0.000200992
6.08185e-05
0.000211064
5.79271e-05
0.000219119
6.18161e-05
0.000201945
7.59591e-05
0.00015611
9.55481e-05
8.98391e-05
0.000108958
2.05617e-05
0.00010874
-3.20277e-05
9.74587e-05
-6.02111e-05
8.18274e-05
-7.01527e-05
6.66178e-05
-7.28009e-05
5.32192e-05
-7.42088e-05
4.1545e-05
-7.52013e-05
3.14287e-05
-7.53662e-05
2.27561e-05
-7.46593e-05
1.53954e-05
-7.32415e-05
-7.1294e-05
9.22197e-06
-2.24015e-05
-3.69219e-05
2.44644e-05
-3.36937e-05
4.47251e-05
9.17916e-05
8.57196e-05
0.000161902
0.000100205
0.000224261
8.7998e-05
0.000229197
7.02895e-05
0.0002187
5.53633e-05
0.00022599
4.54353e-05
0.000229047
5.2615e-05
0.000194765
7.72453e-05
0.00013148
0.000102431
6.46531e-05
0.000112859
1.01346e-05
0.000107981
-2.71499e-05
9.44954e-05
-4.67259e-05
7.89206e-05
-5.45775e-05
6.46808e-05
-5.85611e-05
5.23236e-05
-6.18512e-05
4.15643e-05
-6.44419e-05
3.21994e-05
-6.60013e-05
2.40878e-05
-6.65476e-05
1.71123e-05
-6.62659e-05
-6.53762e-05
1.11947e-05
4.26941e-06
-4.11913e-05
8.43545e-06
-3.78597e-05
4.48563e-05
5.53707e-05
6.2719e-05
0.00014404
9.16053e-05
0.000195374
9.13497e-05
0.000229452
7.25058e-05
0.000237544
4.74893e-05
0.000251007
2.96627e-05
0.000246873
4.64795e-05
0.000177949
8.60189e-05
9.19403e-05
0.000110381
4.02908e-05
0.000113932
6.58334e-06
0.00010453
-1.77472e-05
8.94784e-05
-3.16746e-05
7.43412e-05
-3.94405e-05
6.11948e-05
-4.54143e-05
4.99701e-05
-5.06263e-05
4.02437e-05
-5.47153e-05