/*--------------------------------*- C++ -*----------------------------------*\
| =========                 |                                                 |
| \\      /  F ield         | OpenFOAM: The Open Source CFD Toolbox           |
|  \\    /   O peration     | Version:  2.3.0                                 |
|   \\  /    A nd           | Web:      www.OpenFOAM.org                      |
|    \\/     M anipulation  |                                                 |
\*---------------------------------------------------------------------------*/
FoamFile
{
    version     2.0;
    format      ascii;
    class       volScalarField;
    location    "2.15";
    object      alpha.water;
}
// * * * * * * * * * * * * * * * * * * * * * * * * * * * * * * * * * * * * * //

dimensions      [0 0 0 0 0 0 0];

internalField   nonuniform List<scalar> 
2268
(
0.999924
0.999961
0.973665
0.9819
0.943121
0.958484
1
1
1
1
1
1
1
0.999999
0.995332
0.986461
0.991337
0.999545
0.999547
0.999546
0.999747
0.999794
0.999794
0.988228
0.931639
0.931412
0.97975
0.947832
0.94249
1
1
1
1
1
1
1
0.999999
0.996004
0.986463
0.987834
0.99954
0.999282
0.998572
0.998781
0.999794
0.999794
0.978377
0.931693
0.947131
0.883208
0.934761
0.931153
1
1
1
0.999999
0.999976
0.99996
0.99998
1
0.99983
0.987599
0.991357
0.998829
0.999464
0.999308
0.998583
0.999676
0.999794
0.964848
0.981565
0.97127
0.880272
0.901304
0.930325
1
1
1
1
0.999867
0.999872
0.999957
1
1
0.99898
0.999405
0.999678
0.99974
0.99974
0.997894
0.999793
0.999794
0.949758
0.981661
0.981558
0.88659
0.842612
0.962688
1
0.999999
0.999996
0.999404
0.999808
0.999999
0.999999
0.999999
0.999998
0.999998
0.999998
0.999994
0.999567
0.985923
0.991659
0.99979
0.999793
0.865486
0.981662
0.981661
0.981354
0.842612
0.996721
1
0.999999
0.963928
0.984005
0.999761
0.999998
0.999999
0.999999
0.999998
0.999998
0.999998
0.996222
0.973853
0.973339
0.994191
0.999499
0.999686
0.862593
0.981661
0.981662
0.981271
0.926317
0.999993
0.999999
0.93884
0.875868
0.953175
0.999915
0.999989
0.999998
0.999999
0.999998
0.999998
0.999998
0.972653
0.971123
0.973134
0.994186
0.967969
0.98879
0.86254
0.949575
0.976131
0.980444
0.980732
0.982603
0.960343
0.826144
0.828662
0.962945
0.999439
0.999915
0.999976
0.998569
0.998792
0.999975
0.999998
0.981176
0.971142
0.982482
0.981182
0.948232
0.981514
0.993608
0.971243
0.931792
0.931792
0.931811
0.934071
0.991151
0.999075
0.999074
0.999056
0.979432
0.890462
0.880284
0.880288
0.89992
0.902169
0.901998
0.898318
0.884513
0.983707
0.931152
0.93171
0.939524
0.933164
0.980689
0.999085
0.999077
0.999076
0.999075
0.999031
0.956504
0.880286
0.880284
0.880288
0.880316
0.88034
0.880359
0.911284
0.969677
0.932842
0.969065
0.98206
0.950851
0.98079
0.999087
0.999085
0.999082
0.99906
0.998872
0.998526
0.962477
0.880285
0.880292
0.880317
0.880359
0.880614
0.976327
0.988683
0.982679
0.99411
0.993404
0.98904
0.988227
0.999086
0.999088
0.999024
0.993287
0.983265
0.980869
0.987911
0.979365
0.949833
0.92833
0.880382
0.88081
0.976219
0.994246
0.994203
0.994154
0.960688
0.998333
0.999062
0.999079
0.999071
0.998901
0.981481
0.934227
0.934296
0.935568
0.962037
0.972495
0.972739
0.938357
0.883766
0.97472
0.994246
0.994248
0.994203
0.93511
0.997427
0.997027
0.998837
0.996156
0.998354
0.984981
0.937468
0.934225
0.934225
0.934225
0.934275
0.977465
0.982207
0.978602
0.9814
0.994246
0.966832
0.993282
0.899417
0.886149
0.987774
0.997689
0.980675
0.989848
0.997786
0.989791
0.939003
0.934225
0.934275
0.942346
0.962985
0.982211
0.982176
0.981439
0.986833
0.942728
0.977797
0.816253
0.744681
0.997353
0.997624
0.980675
0.98732
0.997848
0.997786
0.990841
0.970622
0.975015
0.97993
0.981054
0.982176
0.98212
0.949048
0.86254
0.915546
0.974268
0.9793
0.978619
0.918654
0.827996
0.814595
0.85478
0.915354
0.964995
0.960983
0.94428
0.979594
0.999967
0.999969
0.999937
0.999905
0.998709
0.959272
0.86004
0.963049
0.980821
0.893337
0.897754
0.81674
0.724881
0.690485
0.796166
0.827689
0.605183
0.314905
0.257772
0.432087
0.643255
0.841176
0.956419
0.995243
0.999967
0.999964
0.99996
0.999802
0.943541
0.871674
0.95424
0.981099
0.587606
0.30016
0.015878
0.0172755
0.0249988
0.0466613
0.0638134
0.0254215
0.00141312
0.00113271
0.0011579
0.0183358
0.156634
0.399644
0.657324
0.885049
0.990482
0.965494
0.609878
0.285483
0.192444
0.393308
0.849228
0.137884
0.000958373
0.00012459
0.000129565
0.000269539
0.000395059
0.00177483
0.00143439
0.00112631
0.00112535
0.00113852
0.00116176
0.00117892
0.00122877
0.0967804
0.367649
0.494264
0.278902
0.0305013
0.00272444
0.00153076
0.00166505
0.00208484
0.00100093
0.000163491
4.23151e-05
2.2718e-05
0.000415367
0.00220454
0.00231719
0.00190406
0.00112714
0.0011266
0.00113647
0.00131667
0.0011922
0.00119803
0.00123504
0.0081643
0.0106196
0.00220968
0.0017048
0.00136204
0.00132514
0.00153046
0.00166304
0.000207157
5.19673e-05
1.74565e-05
1.43224e-05
5.59052e-05
0.00011562
0.000404284
0.000868692
0.00125774
0.00132569
0.00132573
0.00132497
0.00121046
0.00132772
0.00171143
0.00455233
0.000833331
0.000971592
0.00113433
0.00120285
0.00127825
0.00151386
0.00161978
6.88373e-05
1.58909e-05
1.31068e-05
1.19777e-05
1.23955e-05
1.21293e-05
1.22958e-05
1.19545e-05
1.19613e-05
8.64325e-05
0.00070904
0.00104385
0.00184549
0.00204518
0.00127375
0.000798704
0.000647096
0.000666307
0.000906276
0.00113996
0.00121822
0.00197342
0.00257391
1.07057e-05
1.26569e-05
1.1987e-05
1.23812e-05
1.21463e-05
1.23301e-05
1.23269e-05
1.23035e-05
1.20355e-05
1.22271e-05
1.27874e-05
1.68584e-05
0.000349638
0.00213371
0.00217479
0.000674579
0.00061959
0.000624217
0.0023643
0.0012054
0.00127216
0.00128706
0.00267495
1.80644e-05
1.78723e-05
1.25034e-05
1.24256e-05
1.2399e-05
1.22518e-05
1.23667e-05
1.23259e-05
1.23271e-05
1.23438e-05
1.28749e-05
1.68627e-05
2.20986e-05
0.000329482
0.00217479
0.00186607
0.000614996
0.000618006
0.00435657
0.00444474
0.00129383
0.00147125
0.00285325
2.74961e-05
2.70278e-05
1.24669e-05
1.24064e-05
1.24247e-05
1.37174e-05
1.28518e-05
1.23681e-05
1.23265e-05
1.23542e-05
1.48773e-05
2.05762e-05
2.73212e-05
9.53381e-05
0.00217479
0.00215395
0.000614214
0.000614567
0.00230904
0.00565019
0.00137139
0.00150539
0.00287127
2.10805e-05
1.50577e-05
1.25953e-05
1.23755e-05
3.4369e-05
3.55028e-05
3.13137e-05
1.23711e-05
1.23265e-05
1.8387e-05
0.000368117
0.000232972
3.07864e-05
4.01559e-05
0.0020005
0.00186774
0.000614567
0.000614214
0.000627277
0.00569551
0.00372954
0.0020454
0.00231222
1.53384e-05
1.37098e-05
1.32165e-05
1.32244e-05
3.31848e-05
3.08866e-05
1.45128e-05
1.34867e-05
1.32858e-05
0.000440407
0.000731441
0.000717542
6.70612e-05
8.98888e-05
0.000527336
0.00108716
0.00319632
0.000614567
0.00214153
0.00574154
0.00576464
0.00524215
8.1013e-05
0.000157166
1.46844e-05
1.3584e-05
1.41409e-05
1.99948e-05
1.59577e-05
1.53978e-05
1.45128e-05
0.000555439
0.000735327
0.000732823
0.000710493
0.00021018
0.00138661
0.00067058
0.00141793
0.0053984
0.00504848
0.00575608
0.00573743
0.00577089
0.00316789
5.50962e-05
0.000206706
0.000203659
0.000138508
4.56184e-05
1.76291e-05
1.62784e-05
1.59577e-05
0.000553913
0.000735794
0.000736449
0.000734058
0.000445384
0.000650531
0.00190608
0.00132459
0.00122126
0.00444589
0.00574205
0.00576977
0.00575264
0.0057345
0.000109357
4.93206e-05
0.000140801
0.000201349
0.000197251
8.68128e-05
2.27332e-05
2.21914e-05
0.000595301
0.00073415
0.000736449
0.000735391
0.000467919
0.00044966
0.00155563
0.00190608
0.00190608
0.000699239
0.00107663
0.00378603
0.00575775
0.00576977
0.00513563
5.3e-05
4.99082e-05
4.13772e-05
7.70528e-05
7.73553e-05
3.78101e-05
3.00316e-05
2.52948e-05
0.000203528
0.000726581
0.00073415
0.000734513
0.000408826
0.000425804
0.00188057
0.00190608
0.00136693
0.000142998
1.54134e-05
0.000499072
0.00352916
0.00554321
0.00228377
7.11386e-05
4.93885e-05
4.13772e-05
4.13772e-05
4.58325e-05
4.7192e-05
3.78189e-05
3.38298e-05
3.58083e-05
0.000353773
0.000569355
0.000381205
0.000383272
0.00176337
0.00192905
0.00165995
0.000156985
6.13094e-06
5.53681e-06
0.000317362
0.000347587
0.000781345
0.000142069
8.32084e-05
5.17904e-05
4.13772e-05
9.70457e-05
0.000288917
0.000177929
3.8811e-05
3.59386e-05
4.07696e-05
4.29449e-05
5.17574e-05
0.000965124
0.00252066
0.00247531
0.00173162
3.36302e-07
4.08085e-07
5.73269e-07
6.80271e-07
0.000220532
6.91061e-06
1.94196e-05
1.95956e-05
0.000292598
0.000653728
4.17788e-05
0.000554607
0.000578669
0.000128423
4.17033e-05
4.18869e-05
4.28086e-05
0.000479251
0.00225728
0.00256924
0.00254628
0.000746104
2.48374e-07
3.31789e-07
3.15324e-07
1.96171e-07
2.7603e-07
2.06062e-05
1.38306e-06
2.18638e-06
2.79952e-06
0.000122708
0.000188295
4.72936e-05
0.000298446
0.00032954
5.2322e-05
4.55973e-05
5.43289e-05
0.00208493
0.00277867
0.00277527
0.00173793
2.67732e-07
2.48391e-07
2.35136e-07
3.67235e-07
3.45235e-07
1.4584e-07
2.15516e-07
1.8493e-07
8.73902e-08
2.58066e-07
5.41664e-07
1.31161e-06
2.60304e-06
4.74135e-05
0.000160427
0.000332155
5.8302e-05
0.000428006
0.002342
0.002342
0.0015542
7.0927e-07
6.70327e-07
4.92015e-07
2.05343e-07
1.73902e-07
1.73277e-07
1.6965e-07
1.37427e-07
9.6564e-08
8.00013e-08
6.98217e-09
8.59126e-08
2.8464e-07
5.42297e-07
1.84504e-06
4.77724e-05
0.00022118
0.000342697
0.000126076
0.00177876
0.00231542
0.000885249
4.53752e-06
7.0927e-07
6.98727e-05
0.000129861
7.27136e-05
1.91083e-06
3.61747e-08
1.00217e-08
2.116e-08
7.71215e-08
6.88152e-08
1.5158e-09
2.51954e-07
1.32303e-06
2.20832e-06
2.4345e-06
0.000274603
0.000236214
0.000478045
0.000520705
0.00176433
0.00144918
3.46933e-05
1.96186e-05
0.000167378
0.000291292
0.000291105
0.000291531
0.000131778
1.11594e-05
2.38358e-09
2.30513e-09
2.24435e-09
1.66017e-09
1.48823e-09
1.47825e-09
1.42502e-09
1.42463e-09
1.42943e-09
0.00313394
0.000410667
0.000492373
0.00065078
0.00170399
0.000645934
4.87021e-05
8.17005e-05
0.000290177
0.000291356
0.000290367
0.000268094
0.000153589
2.55718e-05
1.23109e-08
2.38427e-09
2.37784e-09
1.90021e-09
1.51178e-09
1.46549e-09
1.43636e-09
1.42557e-09
1.42553e-09
0.00313394
0.00156874
0.000659562
0.00130101
0.00160859
2.94772e-05
4.42788e-05
0.000217432
0.000288284
0.000290177
0.000153523
6.02795e-06
5.95131e-06
7.22453e-06
8.48865e-06
8.89561e-07
5.53025e-08
2.35557e-09
2.15937e-09
2.29276e-09
1.85202e-09
1.74805e-09
2.27802e-09
0.00313375
0.00312655
0.000627388
0.00129275
0.00125191
1.85344e-05
7.98831e-05
0.000279719
0.000286138
0.000224201
7.12449e-06
5.94755e-06
4.90892e-06
3.33784e-06
2.97984e-06
2.86409e-06
3.18208e-07
3.88053e-07
1.05316e-07
4.68624e-08
1.41527e-08
9.05512e-09
5.75189e-09
0.00275156
0.00200832
0.000634548
0.00129093
0.000751744
9.20134e-06
0.000144007
0.000273955
0.000279689
0.000149152
7.14114e-06
2.04706e-05
5.35059e-05
2.82631e-05
3.29303e-06
2.53507e-06
3.22188e-07
1.0581e-06
1.00265e-05
1.0086e-05
1.78098e-06
1.15316e-08
5.70348e-09
0.00219177
0.000564569
0.000990977
0.00129046
0.00024951
4.05149e-06
0.000132256
0.00027362
0.000226966
1.31428e-06
5.03654e-06
7.52407e-05
8.43489e-05
8.43954e-05
5.01632e-05
2.90347e-06
3.64473e-07
5.0764e-07
1.81328e-05
1.83552e-05
9.995e-06
1.47323e-07
3.80831e-09
0.00268694
0.000515945
0.00129426
0.00124048
4.05424e-06
2.49801e-06
4.57903e-05
0.000147673
4.41661e-05
1.28129e-06
1.21965e-06
2.22559e-05
8.44845e-05
8.42961e-05
8.0409e-05
5.41267e-06
5.07633e-07
6.73031e-07
1.10786e-05
1.84052e-05
1.68589e-05
1.52819e-06
2.6707e-09
0.00332385
0.000510743
0.00129184
0.00129398
2.84764e-05
2.18763e-06
2.2031e-06
2.82373e-06
1.52546e-06
1.47405e-06
1.20984e-06
1.98799e-05
8.4286e-05
8.31768e-05
1.53133e-05
9.55841e-07
7.02163e-07
7.08027e-07
9.21058e-07
1.76287e-05
1.76446e-05
2.98368e-06
2.43429e-09
0.00335034
0.00051589
0.000966861
0.00128306
0.000111156
2.10969e-06
1.47979e-06
1.25689e-06
1.20599e-06
1.17321e-06
1.20325e-06
3.67637e-05
8.29024e-05
3.6404e-05
1.96223e-06
1.54344e-06
1.01624e-06
7.88626e-07
8.92316e-07
1.34589e-05
1.7549e-05
2.74185e-06
1.00365e-09
0.00338044
0.00166751
0.000518345
0.000669973
0.000117706
1.49015e-06
1.27751e-06
1.19521e-06
1.17313e-06
1.16826e-06
1.17297e-06
4.13193e-05
8.05424e-05
3.30274e-06
1.82348e-06
8.67555e-06
8.18178e-06
1.52807e-06
9.43682e-07
1.80753e-05
1.35486e-05
8.06972e-07
1.08692e-11
0.00338044
0.00338044
0.00046417
1.77824e-05
8.65223e-06
1.28479e-06
1.19607e-06
1.17319e-06
1.16827e-06
1.16783e-06
3.60939e-06
5.59965e-05
3.53078e-05
2.54749e-06
1.82348e-06
1.62327e-05
1.63111e-05
1.62262e-06
2.66795e-06
1.87914e-05
1.20979e-05
1.6458e-08
1.41833e-11
0.00133431
0.00332751
0.00287521
0.000149933
6.02677e-06
1.48018e-06
1.19587e-06
1.16992e-06
1.16738e-06
1.16812e-06
3.51528e-05
5.59965e-05
1.12924e-05
1.84228e-06
1.89138e-06
1.63451e-05
1.64732e-05
6.48378e-06
1.25552e-05
1.87914e-05
4.33189e-06
6.9996e-12
1.48703e-11
0.000217773
0.00190027
0.00295094
0.00266684
0.00164168
0.00222865
0.00151477
0.000106379
1.17019e-06
1.1671e-06
5.51942e-05
5.59965e-05
9.51941e-06
3.31562e-06
2.11644e-06
1.64783e-05
1.64732e-05
1.64732e-05
1.64102e-05
5.77783e-06
6.3929e-12
8.29335e-12
1.61967e-11
0.000214011
3.44811e-05
0.00162375
0.00272115
0.00271566
0.00273668
0.00273886
0.000896427
6.52206e-06
1.39142e-05
6.29023e-05
2.07645e-05
2.61141e-07
3.71853e-06
3.47435e-07
9.26188e-06
1.64732e-05
1.47091e-05
2.85157e-06
6.80237e-12
6.80237e-12
1.00411e-11
1.59097e-11
0.000130493
4.79661e-06
1.60736e-05
0.00235342
0.00273668
0.00273934
0.00273886
0.000801601
3.73226e-05
6.69546e-05
6.29824e-05
5.94198e-06
5.92517e-08
2.98466e-06
8.69885e-11
4.79655e-07
7.6934e-06
5.41241e-09
2.22417e-11
2.5373e-11
7.19777e-12
1.00531e-11
1.23579e-11
3.88765e-06
4.00464e-06
4.79661e-06
0.000260923
0.00272713
0.00273668
0.00192476
0.000137087
5.55098e-05
6.71466e-05
3.00492e-05
5.9202e-08
2.38873e-08
5.19914e-11
8.63187e-11
5.09253e-11
1.61664e-11
1.47594e-11
9.3364e-11
1.67857e-10
5.78798e-12
7.6076e-12
6.41651e-12
3.6496e-06
3.88099e-06
3.94649e-06
5.87092e-06
0.000779143
0.00148154
0.000206917
4.96077e-05
6.75268e-05
6.7461e-05
1.81337e-05
1.25174e-08
2.76669e-10
9.96608e-12
8.3672e-11
1.06933e-09
1.99292e-09
1.28222e-11
1.70479e-10
2.50901e-10
3.57942e-12
4.36677e-12
2.83934e-12
2.38364e-54
3.5199e-06
3.72202e-06
4.08536e-06
1.08359e-05
3.04295e-05
2.67971e-05
4.89484e-05
6.7461e-05
3.51806e-05
1.34821e-08
2.3952e-10
-6.98989e-12
1.07366e-12
4.07475e-11
2.81369e-09
6.94809e-09
1.68163e-12
5.69858e-11
1.63076e-10
1.75779e-12
1.52373e-12
5.10691e-13
2.6753e-137
1.6565e-05
4.38976e-06
4.49807e-06
5.79392e-06
8.97935e-06
2.36708e-05
5.84754e-05
4.56198e-05
1.48337e-07
-1.64189e-10
-4.04563e-12
8.1547e-13
5.94384e-13
2.97531e-12
1.35406e-09
6.9404e-09
2.39222e-14
7.7657e-13
9.20587e-13
7.00865e-13
1.85292e-13
4.47168e-14
2.79133e-139
1.69489e-05
5.88285e-06
5.57211e-06
5.6913e-06
7.45067e-06
2.16865e-05
1.62629e-05
-2.16379e-12
-4.04305e-13
-5.29765e-14
-3.76617e-15
-1.1695e-16
-1.52462e-18
1.2231e-13
3.42659e-13
2.21295e-09
1.32744e-14
4.24581e-13
5.16267e-13
5.74464e-14
4.86293e-15
2.68309e-15
0.961566
0.961566
0.96157
0.961607
0.981101
0.981076
0.980767
0.980318
0.977212
0.981008
0.98065
0.980287
0.202049
0.73856
0.907129
0.929276
0.00207143
0.00523461
0.127152
0.273651
0.00161291
0.0087607
0.0141937
0.00684633
0.00145558
0.00146128
0.00148592
0.00146974
0.00144369
0.00144434
0.00144798
0.00145399
0.00144434
0.00144355
0.00144434
0.00143723
0.00290176
0.00282994
0.00261469
0.00235109
0.00294908
0.00295226
0.00295785
0.00173577
0.00089048
0.000572969
0.000248696
8.81213e-05
4.82588e-05
4.48786e-05
3.21599e-05
2.83439e-05
4.99148e-05
4.94834e-05
4.44078e-05
5.19732e-05
4.93984e-05
4.9337e-05
4.94914e-05
4.95747e-05
4.93369e-05
4.93435e-05
0.00024576
0.000719671
4.93984e-05
4.93437e-05
0.000369439
0.000838387
0.000761948
0.000867618
0.000851782
0.000843629
0.000820936
0.000850479
0.000860655
0.000853755
3.31777e-05
7.25842e-05
0.000102994
0.000117719
1.29229e-06
4.69626e-07
4.17428e-07
5.7558e-08
1.84633e-06
2.84644e-07
-8.48688e-10
6.02242e-09
1.42456e-09
1.45168e-09
1.37478e-09
2.38733e-09
2.08706e-09
1.81866e-09
1.99016e-09
3.09238e-08
5.10689e-09
2.07842e-09
1.83925e-07
7.32113e-07
5.68386e-09
4.18673e-09
8.84323e-07
8.83641e-07
4.23641e-09
4.54253e-08
2.61171e-07
8.51243e-07
2.0932e-09
5.34459e-11
4.82636e-11
5.30087e-11
1.65064e-10
4.97572e-11
4.58156e-11
4.85439e-11
1.21214e-10
3.81251e-11
4.25187e-11
4.66854e-11
4.12203e-11
2.37776e-11
3.95478e-11
6.64246e-11
1.60154e-11
2.06988e-11
3.7402e-11
8.39428e-11
1.41786e-11
1.40317e-11
2.02211e-11
4.31311e-11
1.31339e-11
9.99731e-12
1.08952e-11
2.25113e-11
1.1995e-11
7.78699e-12
6.10574e-12
1.03795e-11
9.59023e-12
5.42745e-12
2.99495e-12
3.83717e-12
6.81828e-12
3.29948e-12
1.37066e-12
9.74191e-13
3.63227e-12
1.55265e-12
5.41086e-13
2.48484e-13
1.17625e-12
4.46434e-13
1.44635e-13
6.87831e-14
1.73652e-13
6.0902e-14
1.92307e-14
9.88588e-15
1.57955e-14
6.12335e-15
1.88425e-15
7.41772e-16
1.41579e-15
5.41372e-16
1.14678e-16
1.53545e-17
0.963666
0.979224
0.970593
0.763294
0.744681
0.801723
0.981854
0.998516
0.998531
0.998092
0.996056
0.986575
0.975013
0.969793
0.974041
0.96536
0.961173
0.976258
0.934698
0.980098
0.979882
0.971187
0.840641
0.809285
0.931921
0.997856
0.99852
0.998462
0.869409
0.628305
0.528414
0.51147
0.509385
0.428091
0.35733
0.332162
0.487585
0.759429
0.966044
0.906075
0.905424
0.976782
0.987429
0.99222
0.997201
0.924526
0.372247
0.0773943
0.0129744
0.000578786
0.000527719
0.000498173
0.000495265
0.000490779
0.000490645
0.000490688
0.0504478
0.856281
0.542889
0.397715
0.539788
0.652756
0.640714
0.337328
0.112764
0.00622757
0.0013431
0.0012757
0.00117055
0.00107044
0.0009477
0.000490783
0.000490508
0.000490785
0.000490631
0.000492662
0.287719
0.0450564
0.00157095
0.00134584
0.0073267
0.0140268
0.00117102
0.00148425
0.00212711
0.00395212
0.00392487
0.00204938
0.00384165
0.00511597
0.00206883
0.000490779
0.000490529
0.000492716
0.000591315
0.00227148
0.00149774
0.0013438
0.00134206
0.0013401
0.00113436
0.00110281
0.0020095
0.00242728
0.00236009
0.001101
0.00109602
0.00145795
0.00543719
0.00544002
0.00182065
0.000493947
0.000513274
0.000901311
0.00145987
0.00135672
0.00136222
0.00137617
0.00115812
0.00111058
0.00110676
0.00121057
0.00104589
0.00114881
0.00115161
0.00113106
0.00100861
0.000953669
0.00464538
0.00486974
0.00165285
0.000533647
0.000594039
0.00145138
0.00139645
0.00153626
0.00258143
0.00258031
0.00131636
0.00101548
0.000954103
0.000763385
0.000858355
0.00125778
0.00127631
0.00117669
0.000427843
0.000410226
0.00134949
0.00157866
0.000525817
0.000358261
0.00145388
0.0014867
0.00182022
0.00258143
0.00237701
0.000531501
0.000670438
0.000450582
0.000168837
0.000158798
0.000579539
0.00125884
0.0012816
0.00115359
0.000382544
0.000377569
0.000487374
0.000362284
0.000358261
0.00235034
0.00270599
0.00270599
0.00253212
0.000355283
3.75211e-05
3.09355e-05
2.8554e-05
2.94729e-05
3.31036e-05
3.87197e-05
0.000153271
0.00118002
0.00132664
0.00061426
0.000367321
0.000361576
0.000361576
0.00036622
0.000977756
0.00180628
0.00150396
3.32288e-05
1.86408e-05
2.03106e-05
2.1441e-05
2.9809e-05
8.79494e-05
4.49916e-05
4.59874e-05
5.3189e-05
7.75119e-05
0.00136712
0.00141017
0.0004143
0.000367307
0.000383236
0.000917347
2.55377e-05
3.99265e-05
2.70549e-05
1.76237e-05
1.78504e-05
1.8526e-05
3.16103e-05
0.0001843
0.000215629
0.000209841
5.31835e-05
9.7976e-05
6.91184e-05
0.000719899
0.00142256
0.00090683
0.000374042
0.000694139
0.00106803
2.32761e-05
1.94963e-05
1.75838e-05
1.74907e-05
1.75287e-05
1.77168e-05
7.85235e-05
0.000215761
0.000215791
0.000215629
0.000195409
0.000275975
6.88822e-05
7.41786e-05
0.00143845
0.00145167
0.00144936
0.00134886
0.00107976
5.59685e-05
3.57851e-05
1.7489e-05
1.74899e-05
1.74894e-05
1.75231e-05
3.91254e-05
0.000215761
0.000215629
0.000156247
0.000247292
0.000277352
8.08888e-05
7.72288e-05
0.00131242
0.00145556
0.00131367
0.000459119
0.000496379
5.1768e-05
5.63506e-05
2.60022e-05
1.74867e-05
1.75192e-05
1.77743e-05
1.91335e-05
0.000172531
0.000214475
7.59033e-05
5.35508e-05
0.000269401
0.000355337
8.61634e-05
0.000762586
0.000950397
0.00023298
0.000128204
0.000119012
0.000355932
0.000174838
6.28046e-05
5.70509e-05
0.000105353
6.41827e-05
1.59222e-05
1.89064e-05
0.000194691
0.000188857
4.47717e-05
6.73922e-05
0.00040507
0.000114934
0.000554755
0.00150677
0.000144042
0.000124437
0.000114633
0.000843166
0.000836376
0.000574775
0.000190568
0.000172683
7.205e-05
1.20931e-05
1.08517e-05
3.76969e-05
0.000128556
3.72104e-05
2.22112e-05
0.000394336
0.000273801
0.00112248
0.00152293
0.000912871
0.000116563
0.000112157
0.000844122
0.000843166
0.000835972
0.000825642
0.000287975
1.67496e-05
1.08241e-05
9.15981e-06
7.61182e-06
1.32462e-05
1.25024e-05
1.47263e-05
0.000102932
0.000650516
0.00152734
0.00152774
0.0015366
0.000191434
0.000111573
0.000845536
0.000488837
0.000532377
0.000657215
0.000397236
3.237e-05
9.26658e-06
5.48007e-06
6.78725e-06
7.37434e-06
8.07295e-06
8.76571e-06
7.36019e-05
0.00110804
0.00152791
0.00153119
0.00153216
0.000296205
0.000111573
0.000142438
7.69907e-05
6.70673e-07
1.327e-06
1.01384e-05
5.63024e-05
2.91965e-05
2.31148e-06
4.69906e-06
6.79039e-06
8.54914e-06
3.95451e-05
0.000425465
0.00107652
0.00152869
0.00153213
0.00153208
0.000278426
0.000212929
1.76874e-07
2.95263e-07
5.06028e-07
1.39444e-06
2.21426e-06
1.49394e-06
1.19496e-06
1.78988e-06
6.11755e-06
6.48083e-06
9.04228e-06
0.000532748
0.000787906
0.000537631
0.000509248
0.00153381
0.00153405
0.000291168
0.000819269
5.75685e-08
2.38343e-06
3.55081e-06
3.51319e-06
3.42704e-06
8.3357e-07
8.53504e-07
9.52615e-07
4.48057e-05
3.7605e-05
1.23553e-05
0.000754733
0.000790419
0.000634371
0.0002298
0.00153621
0.00153537
0.000880057
0.00086649
1.10237e-07
8.5523e-07
1.2204e-06
8.74159e-07
8.01527e-07
8.01524e-07
8.01524e-07
4.31081e-05
6.44758e-05
4.59941e-05
8.99245e-05
0.000790465
0.000790419
0.000613588
5.35578e-05
0.000687875
0.000666911
0.000987271
0.0004356
5.73634e-08
7.71709e-08
6.78772e-07
2.77159e-06
2.0552e-06
8.01527e-07
7.21372e-06
0.000195473
7.63352e-05
4.97215e-05
5.96952e-05
0.000718203
0.000790419
0.000192335
4.59012e-05
4.90825e-05
5.84976e-05
0.000590196
7.36714e-05
1.54925e-07
4.32556e-06
1.87384e-05
2.11986e-05
5.95475e-06
9.33695e-07
0.000263409
0.000263889
3.42251e-05
0.000147358
0.000100153
0.000320389
0.000566471
4.59012e-05
4.59012e-05
4.59012e-05
4.87153e-05
5.45858e-05
6.72435e-05
1.41249e-07
0.000131469
0.000234289
9.36042e-05
0.000207894
0.000300306
0.000300306
6.89653e-05
1.98466e-05
0.000336625
0.000229288
8.31919e-05
0.000218793
4.95036e-05
6.90008e-05
7.45918e-05
4.94272e-05
4.43502e-05
5.78211e-05
4.95646e-07
0.000210747
0.000394488
0.000394488
0.000394488
0.00026508
1.23505e-06
6.2384e-09
1.72429e-05
0.000336625
0.000145078
8.25892e-05
8.31876e-05
0.00018848
0.000788184
0.000721554
5.85219e-05
4.12284e-05
0.000261065
1.35294e-09
3.75499e-05
0.000208074
0.000213562
2.44891e-05
5.74562e-09
5.73933e-09
5.79608e-09
1.13122e-05
0.000336625
0.000256659
8.23236e-05
8.25851e-05
0.000310704
0.000789401
0.000789046
4.11263e-05
4.05897e-05
0.000302373
6.70696e-11
1.35791e-09
3.6499e-08
3.27067e-07
6.55551e-06
5.73942e-09
9.38e-09
4.79395e-09
2.81738e-06
0.000263394
0.000425221
8.23813e-05
8.2628e-05
0.000716766
0.000789401
0.000788971
4.05411e-05
4.05448e-05
0.000304566
5.21054e-11
6.64684e-07
6.42943e-06
5.83348e-06
3.66359e-08
7.52697e-08
1.52283e-08
2.38671e-09
4.24378e-09
9.3637e-06
0.0004254
0.000303039
9.00037e-05
0.000785435
0.000789401
0.000789075
0.000459283
4.08311e-05
0.00030582
6.75238e-11
6.92693e-11
2.04889e-10
1.99466e-10
5.01368e-08
1.38836e-07
8.88442e-09
1.1242e-10
8.60247e-10
1.79367e-07
0.000209228
0.00043601
0.000289804
0.00063355
0.000789013
0.000789367
0.000789081
4.33629e-05
0.00030582
1.60259e-10
1.43627e-10
1.51065e-10
2.22371e-08
1.41258e-07
1.40337e-07
1.14749e-10
8.67644e-11
9.47322e-11
1.98205e-10
4.83667e-09
7.36046e-05
0.000177127
0.000121434
0.000226239
0.000789019
0.000774859
0.00012488
0.000184007
9.70283e-11
1.62408e-10
1.94772e-10
5.71439e-08
1.41528e-07
5.31057e-08
8.44314e-11
8.57463e-11
7.9071e-11
9.46055e-11
3.51169e-10
4.86243e-09
1.13788e-06
1.54326e-06
2.12135e-05
0.000685146
0.000753521
0.000132141
1.29228e-06
4.09002e-11
4.21956e-11
2.33417e-09
6.28647e-08
9.81408e-08
8.7624e-11
8.67967e-11
9.65598e-11
7.8053e-11
8.52375e-11
1.48676e-10
8.81647e-10
1.12096e-08
1.3656e-07
1.43673e-05
0.000224448
0.000434986
5.95627e-05
1.09981e-07
1.80136e-11
2.85493e-11
5.91978e-09
2.23945e-08
3.25795e-10
3.16107e-10
1.28427e-10
1.41187e-10
6.74139e-11
9.92727e-11
1.42399e-10
1.33424e-09
1.38255e-08
9.66014e-07
9.45506e-06
4.51451e-06
1.16993e-05
2.12022e-06
5.02668e-08
9.98622e-12
1.03663e-10
1.09941e-09
1.50922e-10
8.2064e-10
1.98854e-09
3.04875e-10
1.62565e-10
4.07186e-11
5.72179e-11
9.51812e-11
3.45591e-10
3.79219e-09
2.98895e-07
1.15301e-06
7.09196e-07
7.4457e-07
4.51213e-08
4.33207e-08
1.6532e-12
3.97153e-12
1.73315e-12
2.82547e-12
4.37466e-10
2.25089e-09
4.64651e-10
1.57832e-10
3.5937e-11
4.75316e-11
1.07049e-10
3.73033e-10
1.26213e-09
1.88614e-08
3.84124e-08
1.21457e-07
9.9396e-08
4.03609e-08
4.03389e-08
3.0559e-13
8.30764e-13
1.70791e-12
3.36616e-12
1.25825e-11
2.00495e-10
3.27136e-10
1.2806e-10
2.36841e-11
3.86873e-11
3.83345e-11
1.32764e-10
2.91412e-09
9.83611e-09
1.43663e-08
4.1728e-08
4.56717e-08
4.08944e-08
9.62984e-09
1.0298e-13
3.59321e-13
9.76047e-13
1.91238e-12
2.81402e-12
3.05554e-12
4.10142e-12
7.83584e-12
1.44379e-11
2.47677e-11
3.09772e-11
3.33378e-11
1.05324e-09
3.00181e-08
6.15537e-08
6.55745e-08
7.33569e-08
7.55952e-08
9.67481e-09
1.93299e-14
9.29011e-14
3.47509e-13
9.29224e-13
1.83358e-12
2.81115e-12
3.56818e-12
4.32244e-12
7.14921e-12
1.39466e-11
2.45421e-11
2.6371e-11
6.25331e-11
2.00147e-08
6.73012e-08
7.73867e-08
7.87697e-08
7.98431e-08
9.02948e-09
1.69777e-15
1.18966e-14
6.05415e-14
2.12759e-13
5.39786e-13
1.08191e-12
1.77461e-12
2.13904e-12
2.99504e-12
6.3419e-12
1.45886e-11
2.27421e-11
1.0689e-10
2.52971e-09
1.91053e-08
4.63002e-08
5.33404e-08
5.84753e-08
2.52505e-09
1.53417e-17
2.49749e-16
2.67365e-15
1.64591e-14
5.96743e-14
1.53834e-13
2.85618e-13
7.58409e-13
8.70747e-13
2.2901e-12
6.21534e-12
1.46153e-11
3.13985e-11
3.63195e-11
1.35492e-10
2.20809e-09
5.08944e-09
3.56125e-09
4.0912e-10
)
;

boundaryField
{
    leftWall
    {
        type            zeroGradient;
    }
    rightWall
    {
        type            zeroGradient;
    }
    lowerWall
    {
        type            zeroGradient;
    }
    atmosphere
    {
        type            inletOutlet;
        inletValue      uniform 0;
        value           nonuniform List<scalar> 
46
(
0
1.69489e-05
5.88285e-06
5.57211e-06
5.6913e-06
7.45067e-06
2.16865e-05
1.62629e-05
0
0
0
0
0
0
0
0
0
0
0
0
0
0
0
0
0
0
0
0
0
0
0
0
0
0
0
8.70747e-13
2.2901e-12
6.21534e-12
1.46153e-11
3.13985e-11
3.63195e-11
1.35492e-10
2.20809e-09
5.08944e-09
3.56125e-09
4.0912e-10
)
;
    }
    defaultFaces
    {
        type            empty;
    }
}


// ************************************************************************* //
