/*--------------------------------*- C++ -*----------------------------------*\
| =========                 |                                                 |
| \\      /  F ield         | OpenFOAM: The Open Source CFD Toolbox           |
|  \\    /   O peration     | Version:  2.3.0                                 |
|   \\  /    A nd           | Web:      www.OpenFOAM.org                      |
|    \\/     M anipulation  |                                                 |
\*---------------------------------------------------------------------------*/
FoamFile
{
    version     2.0;
    format      ascii;
    class       volScalarField;
    location    "2.15";
    object      p_rgh;
}
// * * * * * * * * * * * * * * * * * * * * * * * * * * * * * * * * * * * * * //

dimensions      [1 -1 -2 0 0 0 0];

internalField   nonuniform List<scalar> 
2268
(
687.982
684.594
688.966
678.448
667.824
675.13
673.857
668.465
670.183
678.352
691.319
707.284
725.263
743.553
759.359
771.687
781.371
790.057
797.618
800.813
802.807
808.69
814.517
687.582
679.304
685.933
674.96
664.725
673.356
673.431
666.856
668.107
676.931
690.636
706.741
724.853
743.652
760.108
772.282
781.027
789.438
797.955
801.138
802.083
807.129
813.891
687.644
678.278
684.823
657.731
657.61
669.24
671.929
663.978
665.595
674.735
689.449
705.976
724.418
744.052
761.808
773.444
781.77
789.681
799.272
802.261
800.82
803.766
812.341
684.575
683.524
683.849
651.92
650.202
666.017
669.712
659.41
660.547
671.365
687.988
705.333
724.165
744.601
762.876
776.566
784.416
791.446
800.998
803.153
799.28
800.819
810.644
677.978
677.152
678.958
650.269
639.475
672.094
667.2
653.006
652.394
665.875
685.856
704.498
724.063
744.821
763.398
777.575
786.495
793.929
802.568
800.742
799.416
800.986
809.737
649.808
671.099
671.823
678.41
643.681
683.254
664.903
645.94
631.845
654.663
683.084
703.489
723.759
744.625
763.459
778.242
788.648
795.251
796.536
798.161
803.741
803.567
808.318
647.692
668.962
668.167
681.287
675.325
688.6
664.342
618.174
590.505
637.909
680.546
702.37
723.457
744.214
763.094
779.203
791.158
789.556
797.716
801.9
811.437
797.356
801.108
650.562
661.562
668.691
684.077
696.85
686.547
652.036
571.097
566.463
637.782
677.179
700.619
723.05
743.529
762.674
780.784
794.169
795.902
800.516
809.027
811.213
795.461
792.764
879.309
873.253
860.701
840.74
814.906
790.481
787.291
798.638
798.191
771.739
737.456
707.577
689.008
675.014
663.599
656.747
655.226
659.324
669.125
878.794
869.39
855.181
837.733
815.525
787.553
778.679
793.818
794.435
768.497
736.841
710.46
687.948
673.579
660.497
653.302
651.924
654.195
668.844
879.522
864.564
847.428
838.177
818.049
781.912
772.019
788.879
788.259
762.774
733.165
713.277
695.412
671.488
659.579
653.174
651.483
650.859
675.119
884.939
869.325
844.167
835.023
824.345
779.743
766.844
784.815
782.636
755.873
725.774
706.468
697.324
687.416
672.673
662.624
651.07
650.17
674.53
886.135
871.677
841.575
816.339
820.037
783.316
767.204
784.672
780.585
749.528
710.692
691.748
681.134
681.234
677.434
672.821
663.953
650.195
674.198
883.449
875.588
832.957
779.491
800.755
789.706
777.379
790.029
783.071
749.837
708.4
687.749
677.079
670.174
663.816
673.165
675.656
676.643
675.922
878.93
870.718
820.099
723.903
731.801
798.769
796.073
797.407
785.662
755.248
724.074
685.34
673.071
666.53
663.018
665.732
673.696
676.409
675.175
876.15
863.053
808.796
663.79
659.02
821.121
832.014
813.947
790.291
756.949
725.959
703.43
684.05
679.284
673.962
669.696
671.515
675.198
661.347
659.516
666.716
681.788
687.215
690.449
659.488
598.483
568.362
570.91
604.194
652.035
676.84
694.282
735.573
766.539
785.214
799.232
809.755
820.146
814.425
764.884
806.425
796.273
698.721
672.91
591.544
528.497
504.224
576.853
603.982
444.198
231.244
189.865
314.947
473.469
630.683
729.345
773.401
790.689
806.371
822.526
826.409
789.174
737.538
785.182
801.684
512.98
256.924
17.4585
17.0132
22.9351
38.8958
51.5502
23.0982
4.76812
4.42483
4.32344
19.3115
134.639
337.478
549.082
735.285
832.484
820.166
524.737
249.161
169.149
337.353
713.501
133.857
3.92977
2.63869
2.22319
1.87172
1.06917
1.88945
2.56798
3.31792
3.68795
3.97946
4.2258
4.11229
4.32365
95.8854
355.769
476.898
268.761
32.3467
6.09666
4.90769
4.75842
5.03416
3.01846
2.04952
1.73535
1.41016
1.40395
2.84718
3.03575
3.22538
2.95411
3.30593
3.56188
3.87595
3.83667
3.97927
4.09564
11.5415
13.1665
3.72834
3.6795
3.69667
3.80351
4.03666
4.30629
2.27596
1.60083
1.22569
0.901486
0.637682
0.468828
0.797952
1.57339
2.39224
2.82872
3.17144
3.42765
3.55822
3.88597
4.35006
7.40268
2.94156
3.1324
3.16629
3.14337
3.37511
3.77425
3.88483
1.60638
1.15482
0.814886
0.516927
0.296816
0.178966
0.203002
0.335355
0.542384
0.876596
1.91011
2.57066
3.89869
4.5245
3.66649
2.89639
2.65554
2.69813
2.83783
2.85106
3.07574
4.22924
4.99508
1.00464
0.706444
0.412544
0.15885
0.00279292
-0.0462417
0.0246426
0.183861
0.383298
0.591008
0.787509
0.972883
1.61765
4.40315
4.77028
2.77132
2.52349
2.54415
4.91701
3.07461
3.2573
3.34141
5.1717
0.770313
0.380504
0.11079
-0.106898
-0.194513
-0.176675
-0.0629652
0.112592
0.317119
0.522624
0.719526
0.895986
1.03817
1.65215
4.85332
4.55475
2.45747
2.52893
8.24112
8.25692
3.45241
3.65536
5.46529
0.829542
0.279992
-0.0415381
-0.249925
-0.262691
-0.180911
-0.0301742
0.15195
0.344447
0.531318
0.719688
0.896402
1.04348
1.25121
4.95849
5.01276
2.48949
2.5244
5.2252
10.7604
3.68356
3.74661
5.61984
1.01578
0.447647
0.00708598
-0.225738
-0.179332
-0.0474016
0.121037
0.261882
0.424489
0.592152
1.3793
1.3103
1.07987
1.18084
4.85711
4.70205
2.60065
2.51024
2.42806
11.416
7.84541
4.58731
4.6111
1.18515
0.822737
0.328493
0.0384393
0.0490045
0.161602
0.276192
0.409404
0.528075
1.464
2.16275
2.30119
1.18654
1.34219
2.34793
3.49237
7.52726
2.53744
5.32838
12.1042
12.0016
10.4161
0.23769
1.52158
1.08718
0.760694
0.491986
0.408668
0.431721
0.503628
0.574811
1.74977
2.21166
2.32267
2.3979
1.49659
3.99889
2.73568
4.27726
12.1718
11.3522
12.5698
12.4424
12.4378
6.61025
-0.0055795
1.59754
1.56562
1.31479
0.951155
0.77663
0.730173
0.731484
1.91226
2.35055
2.41364
2.47789
1.92934
2.45065
5.19635
4.03954
3.81056
10.5896
13.0937
12.8463
12.6992
12.5527
0.0928612
-0.250583
1.44198
1.59749
1.58559
1.26483
1.03332
0.976553
2.25795
2.56922
2.58457
2.60212
2.01144
1.99322
4.52557
5.26062
5.19256
2.37312
3.12361
9.1993
13.4919
13.3248
11.5602
-0.378421
-0.596081
1.23401
1.34926
1.37463
1.24867
1.16998
1.1237
1.53765
2.78676
2.78722
2.77321
1.96885
1.98124
5.38869
5.29642
3.83409
0.869118
0.558061
1.64894
8.90795
13.6074
5.29727
-0.476403
-0.808002
1.2568
1.28835
1.3264
1.29352
1.22919
1.21645
1.22809
2.0227
2.54362
2.02278
1.96586
5.36069
5.60082
4.72667
0.799536
0.447396
0.471837
1.21767
1.23973
2.22914
0.319928
-0.238575
-0.690866
1.25087
1.42482
1.93403
1.58203
1.21437
1.25209
1.29427
1.27788
1.26831
3.62487
7.61947
7.32137
5.17095
0.456833
0.406487
0.431383
0.442867
0.994673
0.40595
0.395072
0.236284
0.697628
1.28849
1.22887
2.65703
2.65529
1.36501
1.19521
1.27445
1.32844
2.49208
7.34135
8.05513
7.8004
2.66914
0.522432
0.476241
0.453806
0.478778
0.471885
0.501878
0.435444
0.408573
0.319843
0.487803
0.407597
1.23642
1.94196
1.9626
1.14032
1.19437
1.29334
7.16916
9.06627
8.87714
5.7496
0.62048
0.561785
0.517431
0.497155
0.493265
0.51307
0.509739
0.488852
0.471465
0.447135
0.386652
0.266442
0.0793807
1.24057
1.56249
2.04332
1.16764
2.3057
8.09456
7.93494
5.44182
0.670163
0.610746
0.571534
0.54554
0.517903
0.501766
0.501553
0.514449
0.520227
0.509353
0.493498
0.472086
0.429017
0.348526
0.22549
1.25454
1.7796
2.12566
1.34029
6.49149
8.0768
3.43623
0.619107
0.616968
0.812087
0.965292
0.750972
0.504519
0.489521
0.491876
0.50006
0.505891
0.500346
0.487612
0.470996
0.440548
0.387443
0.300289
1.98999
1.81629
2.55673
2.56001
6.54225
5.37201
0.678405
0.620601
1.09076
1.47111
1.43854
1.41793
0.88826
0.497852
0.472336
0.480301
0.48092
0.472161
0.456108
0.431918
0.402115
0.356768
0.288003
11.5889
2.25369
2.50127
2.96706
6.44977
2.72233
0.654999
0.73465
1.41506
1.38963
1.35821
1.27825
0.917148
0.515886
0.452903
0.461169
0.45451
0.438354
0.416417
0.390164
0.35893
0.317658
0.26066
11.6391
6.11504
2.96229
5.22318
6.19645
0.52105
0.52073
1.07088
1.28814
1.27243
0.781123
0.290465
0.349212
0.416786
0.460892
0.443581
0.425562
0.401599
0.373507
0.344263
0.312821
0.275186
0.226486
11.8599
11.8257
2.77272
5.18871
4.9412
0.354561
0.49245
1.13544
1.12323
0.886019
0.1163
0.179956
0.269223
0.351669
0.403164
0.415567
0.389807
0.361423
0.329277
0.299481
0.269995
0.237056
0.196168
10.8297
7.93559
2.7726
5.19076
3.06361
0.180387
0.560059
0.938333
0.913011
0.42017
-0.0650261
0.0789581
0.33392
0.361567
0.340878
0.359032
0.337837
0.312909
0.317796
0.292396
0.236952
0.203409
0.170244
9.02051
2.52994
4.16189
5.23573
1.09812
0.0591111
0.391178
0.803445
0.558526
-0.322671
-0.258723
0.117691
0.311602
0.470261
0.435103
0.283308
0.266621
0.24567
0.29319
0.277611
0.229959
0.172051
0.145442
11.2865
2.36863
5.42808
5.11727
0.0989705
0.0154079
0.0163032
0.27333
-0.222396
-0.412568
-0.377961
-0.205442
0.198778
0.368224
0.458213
0.195241
0.174653
0.163691
0.198041
0.226205
0.217599
0.145499
0.120197
14.1831
2.37757
5.51803
5.43884
0.190304
0.0212517
-0.116415
-0.252869
-0.348987
-0.382129
-0.368579
-0.228056
0.159139
0.294334
0.0995621
0.0699767
0.0680382
0.0669992
0.0790118
0.16672
0.179892
0.119257
0.0949697
14.568
2.50969
4.27813
5.52111
0.545835
0.0431809
-0.0452923
-0.146777
-0.229206
-0.269913
-0.272003
-0.0841323
0.188524
0.0765865
-0.0232769
-0.0218809
-0.0343854
-0.0286507
0.00214602
0.0947091
0.140535
0.0875077
0.0707293
15.0878
7.67231
2.41591
3.00284
0.587706
0.0657107
0.0165786
-0.0481459
-0.104951
-0.13577
-0.142438
0.0506344
0.257969
-0.0478143
-0.0517186
-0.0495256
-0.0758729
-0.0953056
-0.054897
0.0731907
0.0915162
0.0526227
0.0491615
15.4936
15.5533
2.26476
0.191195
0.148725
0.111174
0.0753556
0.0268381
-0.0102
-0.0263115
-0.0171124
0.22587
0.139914
-0.00841
-0.0397893
-0.0243415
-0.0589199
-0.116818
-0.0673104
0.0582288
0.0662515
0.029626
0.0324278
6.31337
15.6483
13.5616
0.85424
0.193264
0.171414
0.132959
0.0795606
0.0512282
0.0449284
0.206742
0.303952
0.0945906
0.0374224
-0.00200047
0.0096384
-0.0264443
-0.0693865
-0.00660404
0.0622236
0.0243681
0.0180142
0.0209506
1.09781
9.15748
14.2163
12.8606
7.97358
10.7769
7.35988
0.599173
0.076979
0.078076
0.343532
0.346869
0.124593
0.081815
0.0388389
0.0623166
0.0318497
0.0298856
0.0485002
0.0201533
0.00659106
0.0130073
0.014177
1.05344
0.147623
7.93581
13.3334
13.3224
13.4226
13.4846
4.47291
0.104069
0.149695
0.396685
0.190439
0.0920683
0.0987655
0.0557291
0.0700791
0.0835895
0.0681107
0.0136994
0.00585439
0.0096962
0.0108723
0.0101387
0.57173
-0.0787831
-0.0729941
11.699
13.6861
13.7251
13.7872
4.07268
0.250003
0.414329
0.397777
0.112703
0.0846061
0.0904779
0.0599635
0.0452927
0.0659295
0.0184035
0.0142891
0.0121933
0.0106263
0.00909124
0.00720671
-0.135672
-0.170184
-0.204841
1.12638
13.9479
14.0779
9.92595
0.722506
0.336793
0.411302
0.22258
0.0697273
0.0686345
0.0611949
0.0516416
0.0418259
0.0304903
0.0224456
0.0163205
0.0119751
0.00892102
0.00655826
0.00438286
-0.162927
-0.212511
-0.224806
-0.180416
3.97169
7.76725
1.06097
0.272478
0.398198
0.406828
0.1492
0.0537024
0.0502708
0.0444971
0.0375457
0.0307938
0.0227214
0.0165741
0.0115611
0.00780636
0.00510042
0.00300922
0.00119958
-0.167429
-0.185783
-0.180886
-0.148439
-0.0629211
0.0848812
0.108154
0.270979
0.393407
0.226157
0.0388575
0.0368416
0.0318899
0.0269849
0.0213024
0.0158883
0.0104573
0.00650295
0.003481
0.00123664
-0.000344716
-0.00152454
-0.00250636
-0.13569
-0.0562386
-0.109952
-0.0891242
-0.0554361
-0.0193894
0.0852089
0.324547
0.271068
0.0231395
0.0217126
0.0179399
0.0124734
0.00763663
0.00283968
-0.00120112
-0.00411657
-0.00574798
-0.00653564
-0.00686984
-0.00689927
-0.00679179
-0.00666668
-0.105212
9.88266e-07
-0.0317118
-0.0274188
-0.0236579
-0.0108009
0.057631
0.0503085
-0.0102207
0.00222188
-0.000291139
-0.00452132
-0.00995341
-0.0147453
-0.0194339
-0.0213061
-0.0213081
-0.0201025
-0.0181528
-0.0161298
-0.0142487
-0.0125938
-0.0111856
789.96
792.095
787.441
795.554
816.318
828.93
842.829
863.177
844.815
865.969
878.034
892.948
197.282
698.904
860.152
900.088
4.48483
7.1581
134.15
291.682
3.77399
12.0056
17.712
8.22516
3.31458
3.11725
2.92393
2.68819
3.19431
3.03831
2.85944
2.66365
3.12237
3.00054
2.84356
2.65942
5.50095
5.27207
4.79526
4.23236
5.56548
5.45639
5.35743
3.10094
1.65639
0.973029
0.297581
-0.0387355
-0.109376
-0.175826
-0.24524
-0.277874
-0.36391
-0.437091
-0.486997
-0.472321
-0.767083
-0.847754
-0.864264
-0.813263
-0.984861
-1.06291
-0.604524
0.60903
-0.876516
-0.932227
-0.124096
1.11585
1.37294
1.58418
1.51619
1.4909
1.98543
1.96914
1.92089
1.84735
0.0119334
0.0423305
0.0615225
0.0475601
0.112911
0.0405745
-0.026055
-0.0897134
0.212827
0.148054
0.0846753
0.0214689
0.218875
0.169611
0.115808
0.0582945
0.204551
0.163179
0.11593
0.0635176
0.179476
0.144168
0.103253
0.0579288
0.157479
0.128262
0.0965825
0.056313
0.139378
0.116619
0.0904745
0.061676
0.120933
0.103251
0.0832001
0.0606652
0.1008
0.087011
0.0717903
0.0549945
0.0804027
0.0699148
0.0583499
0.0455544
0.0608492
0.0534028
0.0449827
0.0352063
0.0433193
0.0384025
0.0324298
0.0256113
0.0292911
0.0261852
0.0221878
0.0174457
0.0191976
0.0172015
0.0144778
0.0111665
0.0126487
0.0111186
0.00909796
0.00668018
0.00845237
0.00708108
0.00543586
0.00356784
0.00542481
0.00416343
0.00277971
0.0012979
0.0027414
0.00166287
0.000549172
-0.000590016
-4.94297e-05
-0.000839235
-0.00162617
-0.00240686
-0.00315624
-0.00356022
-0.00395707
-0.00434551
-0.00659208
-0.00655121
-0.00651872
-0.0064932
-0.0103105
-0.00979084
-0.00930832
-0.00885862
869.178
879.604
803.128
637.65
662.253
753.301
859.15
841.539
801.933
759.267
720.356
692.037
676.231
667.016
659.684
652.053
653.909
668.886
654.973
898.153
882.31
825.523
714.188
722.54
841.283
876.558
842.953
787.758
648.072
458.644
383.822
371.925
370.619
311.6
260.365
242.76
358.264
560.666
903.031
840.522
811.364
854.298
878.496
894.99
879.447
788.258
317.033
67.8264
13.715
3.61438
3.59375
3.62946
3.46852
3.15247
2.8859
3.58472
45.9312
855.083
541.153
389.49
525.18
635.718
622.367
328.938
109.823
8.6103
4.02234
3.92057
3.82623
3.79029
3.79778
3.46441
3.07274
2.57634
2.60589
3.05695
313.087
50.5945
3.15707
2.77918
9.62754
16.3805
2.72269
3.07456
4.11236
6.15126
6.22313
4.29644
6.14142
7.74289
5.04689
2.91602
2.47935
2.36403
2.95837
2.4785
2.16295
2.1217
2.37024
2.64383
2.42357
2.46931
3.63281
4.43305
4.4767
3.0658
3.12917
3.56667
8.37926
8.81064
4.35556
2.54978
2.5186
3.29236
2.29183
1.8329
1.84671
2.22079
2.32334
2.35262
2.45443
2.69584
2.65293
2.91766
3.03622
3.11989
3.00096
2.91054
7.84702
8.38576
4.12868
2.72698
2.97644
2.31355
1.83971
1.97227
3.82705
4.24496
2.54173
2.20967
2.23866
2.10312
2.35456
3.0443
3.23384
3.16626
2.11641
2.07763
3.51624
4.03245
2.72395
2.61882
2.41024
2.1799
2.65673
4.1207
3.96493
1.22985
1.54522
1.3554
1.06697
1.15724
1.8975
3.08165
3.23878
3.12078
2.00355
2.07853
2.3828
2.35824
2.48555
4.04783
4.51603
4.46673
4.24142
0.686408
0.261654
0.358489
0.509477
0.678253
0.807571
0.904778
1.18979
2.99913
3.39551
2.34983
2.05059
2.14995
2.25736
2.38838
1.68494
3.12232
2.54386
-0.0979921
-0.0491084
0.0355074
0.134891
0.309944
0.597911
0.67705
0.792325
0.911165
1.02913
3.4574
3.741
2.10961
2.11538
2.22335
3.31686
-0.185246
-0.199171
-0.234917
-0.222596
-0.206295
-0.18235
-0.092746
0.347714
0.617412
0.810524
0.66352
0.884906
0.927107
2.25445
3.79123
2.98908
2.06843
2.73823
3.59004
-0.302176
-0.304781
-0.315497
-0.328185
-0.348215
-0.364281
-0.217776
0.185288
0.414029
0.651237
0.798451
1.12633
0.849262
0.937501
3.81587
4.00391
4.10252
3.95591
3.55098
-0.409902
-0.351783
-0.363786
-0.386968
-0.423437
-0.45539
-0.41884
0.0477693
0.27226
0.393244
0.791419
1.03579
0.805263
0.896181
3.61559
3.99274
3.72784
1.95046
2.16686
-0.650361
-0.437334
-0.398477
-0.420513
-0.454563
-0.485116
-0.492198
-0.0880324
0.199114
0.133292
0.28883
0.955845
1.36913
0.899487
2.51627
2.96472
1.33205
1.1231
1.18802
-0.0524265
-0.219847
-0.337228
-0.325625
-0.240619
-0.367445
-0.480746
-0.423349
0.149093
0.36711
0.229347
0.447031
1.46973
0.968319
2.14255
4.45086
1.15965
1.09267
1.10594
1.27082
1.47522
0.954852
0.0236052
-0.0337763
-0.298388
-0.432705
-0.380905
-0.194411
0.228768
0.194061
0.313723
1.43653
1.35824
3.66472
4.69403
3.118
1.05776
1.055
1.51851
1.621
1.70209
1.73784
0.328464
-0.381241
-0.364323
-0.305626
-0.203276
-0.0338456
0.127071
0.275452
0.66663
2.3391
4.84203
4.8486
4.82329
1.19985
0.988612
1.77937
0.811897
0.994708
1.3954
0.708591
-0.270455
-0.287846
-0.229795
-0.128004
-0.00269187
0.120909
0.241
0.551666
3.59279
4.90787
4.91779
4.86899
1.39451
0.903643
0.0450704
-0.188172
-0.408611
-0.381355
-0.311925
-0.122157
-0.140659
-0.145222
-0.050926
0.0458285
0.132344
0.313865
1.49978
3.44083
4.82883
4.89818
4.88817
1.2394
1.09665
-0.188274
-0.28678
-0.33416
-0.331896
-0.287354
-0.219347
-0.138807
-0.0545574
0.0331312
0.0892545
0.139107
1.77624
2.53986
1.75022
1.6692
4.86993
4.89072
1.1716
2.8154
-0.084382
-0.204938
-0.280182
-0.297196
-0.255887
-0.181043
-0.0808561
0.0127498
0.212654
0.216121
0.144405
2.4659
2.50083
1.93688
0.657304
4.8971
4.88408
2.91862
2.90803
-0.0423281
-0.174602
-0.26535
-0.292413
-0.251268
-0.15969
-0.0479422
0.190819
0.309195
0.260106
0.383103
2.59274
2.45577
1.78556
-0.0311859
2.18112
2.08439
3.24819
1.4903
-0.0319958
-0.164538
-0.254775
-0.272525
-0.23131
-0.140616
-0.00686635
0.726011
0.357877
0.274907
0.255425
2.36569
2.46321
0.372523
-0.0515864
0.0525945
0.0909582
1.96629
0.262446
-0.0310083
-0.138398
-0.172437
-0.18196
-0.187991
-0.122363
0.903218
0.977619
0.199688
0.600161
0.34838
0.99766
1.76726
-0.0769436
0.0196465
0.0940388
0.117127
0.159039
0.231362
-0.0204113
0.350874
0.649633
0.123122
0.583804
0.994425
1.07258
0.276527
0.121501
1.26258
0.769271
0.158891
0.60954
0.00952722
0.182909
0.272243
0.179401
0.151468
0.19793
0.00275063
0.701614
1.32603
1.31295
1.34882
0.917888
-0.0289684
-6.67859e-05
0.0793486
1.25927
0.453557
0.181226
0.147571
0.538657
2.91233
2.74818
0.233887
0.147761
0.964653
0.0182754
0.0932206
0.704117
0.705466
-0.0204564
-0.0798937
-0.0400954
-0.021775
0.0277684
1.27032
0.918957
0.218178
0.147217
0.958928
2.91502
3.03965
0.152603
0.132608
1.14674
0.0240001
-0.0253441
-0.0677015
-0.0875875
-0.0584283
-0.0671037
-0.0479976
-0.0404069
-0.0309016
0.990845
1.64307
0.258299
0.144747
2.54454
2.88143
3.07066
0.151762
0.110927
1.18995
0.0220219
-0.0101616
-0.0166975
-0.0387718
-0.0674623
-0.0612514
-0.0540588
-0.0538296
-0.0641278
-0.053147
1.67421
1.18743
0.187793
2.90108
2.93728
3.11754
1.86896
0.0863802
1.23636
0.0178936
-0.00765881
-0.0307366
-0.0474768
-0.0546859
-0.0552614
-0.0561375
-0.0620431
-0.0795677
-0.108794
0.759384
1.74026
1.04865
2.38677
3.04956
3.14416
3.21863
0.0760556
1.27707
0.0130652
-0.00568257
-0.0229969
-0.0365273
-0.0444013
-0.0491162
-0.054603
-0.0643263
-0.0855733
-0.122292
-0.167936
0.12377
0.54324
0.219927
0.649617
3.14282
3.12496
0.430972
0.772396
0.00853538
-0.0052078
-0.0182564
-0.0288839
-0.0365632
-0.0431559
-0.0502835
-0.0612824
-0.0819269
-0.118524
-0.170606
-0.226423
-0.27372
-0.330002
-0.281963
2.70896
3.09894
0.495008
-0.0433103
0.0048414
-0.00523332
-0.0150673
-0.0234262
-0.0303893
-0.0370989
-0.0441928
-0.0544256
-0.0715356
-0.100958
-0.146324
-0.204683
-0.266652
-0.321214
-0.286277
0.698541
1.77663
0.178488
-0.0664543
0.00207597
-0.00535845
-0.0127427
-0.0194282
-0.0254539
-0.0309389
-0.037103
-0.0453265
-0.057556
-0.0768035
-0.106194
-0.145379
-0.186665
-0.221302
-0.197841
-0.209075
-0.123674
-0.103075
-0.0931663
0.000100847
-0.0054176
-0.0109381
-0.0160891
-0.020707
-0.0250297
-0.0297374
-0.0355805
-0.0433856
-0.0541141
-0.0685292
-0.0860446
-0.103249
-0.116007
-0.120344
-0.129744
-0.130999
-0.121205
-0.109986
-0.00135298
-0.00541717
-0.00942951
-0.0131567
-0.0164899
-0.0195416
-0.0226845
-0.0262786
-0.0306427
-0.0358093
-0.0410705
-0.0450079
-0.0469281
-0.0479678
-0.0550876
-0.0765787
-0.104669
-0.11428
-0.105951
-0.00255833
-0.00543637
-0.0081919
-0.0106775
-0.0128133
-0.0146546
-0.0163724
-0.0181326
-0.0200416
-0.0219845
-0.0232245
-0.0227043
-0.01999
-0.0181894
-0.0251547
-0.0470339
-0.0754091
-0.0908496
-0.0861895
-0.00372172
-0.00556143
-0.00724336
-0.00865983
-0.00973858
-0.0105023
-0.0110435
-0.0114539
-0.0117996
-0.0120498
-0.0119085
-0.0107442
-0.00855108
-0.00750912
-0.0130093
-0.0287482
-0.0488799
-0.06137
-0.0612481
-0.00499389
-0.00587201
-0.00661044
-0.00711955
-0.00732159
-0.00720356
-0.00681877
-0.00627958
-0.00576283
-0.00530027
-0.00482891
-0.00407842
-0.00313871
-0.0031682
-0.00682661
-0.0161951
-0.0286753
-0.0366686
-0.0385373
-0.00646384
-0.00643062
-0.00631764
-0.00604965
-0.0055577
-0.00480206
-0.00378189
-0.00261932
-0.00177139
-0.00131361
-0.00100486
-0.000663753
-0.000369368
-0.000688115
-0.00276676
-0.00747311
-0.0138439
-0.0182884
-0.0200369
-0.00815129
-0.00725337
-0.00636301
-0.00541413
-0.00436142
-0.00318572
-0.00188955
-0.000534934
0.000443158
0.000921984
0.00114082
0.0011328
0.000942468
0.000385287
-0.000818986
-0.0026495
-0.00448828
-0.00532558
-0.00552132
)
;

boundaryField
{
    leftWall
    {
        type            fixedFluxPressure;
        gradient        uniform 0;
        value           nonuniform List<scalar> 
50
(
687.982
687.582
687.644
684.575
677.978
649.808
647.692
650.562
659.516
698.721
512.98
133.857
3.01846
2.27596
1.60638
1.00464
0.770313
0.829542
1.01578
1.18515
1.52158
1.59754
1.44198
1.23401
1.2568
1.25087
1.22887
1.23642
1.24057
1.25454
1.98999
11.5889
11.6391
11.8599
10.8297
9.02051
11.2865
14.1831
14.568
15.0878
15.4936
6.31337
1.09781
1.05344
0.57173
-0.135672
-0.162927
-0.167429
-0.13569
-0.105212
)
;
    }
    rightWall
    {
        type            fixedFluxPressure;
        gradient        uniform 0;
        value           nonuniform List<scalar> 
50
(
669.125
668.844
675.119
674.53
674.198
675.922
675.175
661.347
654.973
560.666
45.9312
3.05695
2.95837
3.29236
2.97644
2.61882
2.48555
2.38838
3.31686
3.59004
3.55098
2.16686
1.18802
1.10594
1.055
0.988612
0.903643
1.09665
2.8154
2.90803
1.4903
0.262446
0.231362
0.19793
0.964653
1.14674
1.18995
1.23636
1.27707
0.772396
-0.0433103
-0.0664543
-0.0931663
-0.109986
-0.105951
-0.0861895
-0.0612481
-0.0385373
-0.0200369
-0.00552132
)
;
    }
    lowerWall
    {
        type            fixedFluxPressure;
        gradient        uniform 0;
        value           nonuniform List<scalar> 
62
(
687.982
684.594
688.966
678.448
667.824
675.13
673.857
668.465
670.183
678.352
691.319
707.284
725.263
743.553
759.359
771.687
781.371
790.057
797.618
800.813
802.807
808.69
814.517
814.517
813.891
812.341
810.644
809.737
808.318
801.108
792.764
789.96
792.095
787.441
795.554
879.309
878.794
879.522
884.939
886.135
883.449
878.93
876.15
879.309
873.253
860.701
840.74
814.906
790.481
787.291
798.638
798.191
771.739
737.456
707.577
689.008
675.014
663.599
656.747
655.226
659.324
669.125
)
;
    }
    atmosphere
    {
        type            totalPressure;
        rho             rho;
        psi             none;
        gamma           1;
        p0              uniform 0;
        value           nonuniform List<scalar> 
46
(
-0.0965368
0
0
0
0
0
0
0
-0.00393072
-0.00438527
-0.00970923
-0.0168132
-0.0229751
-0.0275496
-0.0330098
-0.03316
-0.031377
-0.0283995
-0.0247133
-0.0212595
-0.0182616
-0.0157156
-0.0135962
-0.0122919
-0.0115172
-0.0108005
-0.0101324
-0.00908912
-0.00778476
-0.00654303
-0.00530389
-0.00403203
-0.00273593
-0.00147329
-0.000410074
0
0
0
0
0
0
0
0
0
0
0
)
;
    }
    defaultFaces
    {
        type            empty;
    }
}


// ************************************************************************* //
