/*--------------------------------*- C++ -*----------------------------------*\
| =========                 |                                                 |
| \\      /  F ield         | OpenFOAM: The Open Source CFD Toolbox           |
|  \\    /   O peration     | Version:  2.3.0                                 |
|   \\  /    A nd           | Web:      www.OpenFOAM.org                      |
|    \\/     M anipulation  |                                                 |
\*---------------------------------------------------------------------------*/
FoamFile
{
    version     2.0;
    format      ascii;
    class       surfaceScalarField;
    location    "2.15";
    object      phi;
}
// * * * * * * * * * * * * * * * * * * * * * * * * * * * * * * * * * * * * * //

dimensions      [0 3 -1 0 0 0 0];

internalField   nonuniform List<scalar> 
4432
(
2.66222e-06
-2.66222e-06
1.05455e-06
1.60767e-06
5.58577e-06
-4.53123e-06
1.13168e-05
-5.73101e-06
4.49468e-06
6.8221e-06
-2.93012e-06
7.42479e-06
-6.04988e-06
3.11976e-06
-8.6735e-06
2.62362e-06
-8.6218e-06
-5.16906e-08
-8.71999e-06
9.81859e-08
-9.08734e-06
3.67348e-07
-8.88286e-06
-2.04481e-07
-7.08593e-06
-1.79694e-06
-4.10504e-06
-2.98088e-06
-2.48593e-06
-1.61911e-06
-4.48448e-06
1.99854e-06
-8.39381e-06
3.90934e-06
-1.04633e-05
2.06949e-06
-9.87174e-06
-5.91566e-07
-9.92745e-06
5.57201e-08
-9.79543e-06
-1.3201e-07
-6.29464e-06
-3.50079e-06
-6.29463e-06
-3.57112e-06
9.08896e-07
-5.29529e-06
3.33184e-06
9.51289e-07
-1.07778e-05
9.10601e-06
-1.38857e-05
6.25581e-06
9.6723e-06
-2.65837e-06
1.6339e-05
-7.05582e-06
7.51721e-06
-8.95023e-06
4.51803e-06
-9.39563e-06
3.93709e-07
-9.78312e-06
4.85672e-07
-9.62607e-06
2.10296e-07
-8.88183e-06
-9.48725e-07
-7.21069e-06
-3.46807e-06
-4.9595e-06
-5.23207e-06
-3.98521e-06
-2.59338e-06
-5.77136e-06
3.78469e-06
-7.92935e-06
6.06732e-06
-8.22574e-06
2.3659e-06
-7.88255e-06
-9.34759e-07
-9.35905e-06
1.53224e-06
-1.02817e-05
7.90597e-07
-7.07021e-06
-6.71224e-06
-1.33648e-05
-7.37862e-06
8.28752e-06
-6.67428e-06
2.6275e-06
-1.1496e-06
-1.63025e-05
5.08764e-06
-2.0123e-05
5.00047e-06
9.75947e-06
-1.84254e-06
2.3182e-05
-6.2557e-06
1.19304e-05
-8.55331e-06
6.81563e-06
-9.08403e-06
9.24433e-07
-8.45231e-06
-1.46053e-07
-7.2326e-06
-1.00942e-06
-5.55434e-06
-2.62698e-06
-3.85655e-06
-5.16586e-06
-2.90978e-06
-6.17883e-06
-2.30914e-06
-3.19402e-06
-2.65509e-06
4.13065e-06
-2.94857e-06
6.3608e-06
-2.66769e-06
2.08504e-06
-4.2644e-06
6.61956e-07
-7.7741e-06
5.04195e-06
-9.1004e-06
2.1169e-06
-5.52837e-06
-1.02843e-05
-1.88932e-05
-8.34489e-06
1.66324e-05
-8.99575e-06
3.27836e-06
-5.58173e-06
-1.97165e-05
-1.21022e-07
-2.55837e-05
3.02445e-06
6.614e-06
-1.48407e-06
2.76905e-05
-5.76766e-06
1.6214e-05
-8.46404e-06
9.51201e-06
-8.61076e-06
1.07115e-06
-6.2606e-06
-2.49622e-06
-3.43443e-06
-3.83559e-06
-7.48724e-07
-5.31269e-06
1.25706e-06
-7.17164e-06
1.60708e-06
-6.52886e-06
1.07966e-06
-2.6666e-06
1.82228e-06
3.38804e-06
2.96576e-06
5.21732e-06
2.27216e-06
2.77864e-06
-1.1168e-06
4.05092e-06
-5.18614e-06
9.11129e-06
-5.06102e-06
1.99177e-06
-9.2831e-07
-1.4417e-05
-1.98215e-05
-7.13723e-06
2.37696e-05
-9.1011e-06
5.24222e-06
-8.47146e-06
-2.03462e-05
-3.95601e-06
-3.00992e-05
1.53858e-06
1.11941e-06
-9.76948e-07
3.0206e-05
-4.38013e-06
1.96172e-05
-6.66168e-06
1.17936e-05
-6.8151e-06
1.22457e-06
-3.35349e-06
-5.95783e-06
7.96697e-07
-7.98579e-06
4.01828e-06
-8.53427e-06
5.99619e-06
-9.14955e-06
6.56407e-06
-7.09675e-06
5.55392e-06
-1.65645e-06
5.30527e-06
3.63671e-06
6.24335e-06
4.27923e-06
4.91419e-06
4.10781e-06
1.08673e-06
7.87836e-06
-2.33669e-06
1.25347e-05
1.64918e-07
-5.09831e-07
3.89689e-06
-1.8149e-05
-1.59246e-05
-4.15512e-06
2.79247e-05
-5.49155e-06
6.57864e-06
-7.27409e-06
-1.85636e-05
-6.49329e-06
-3.088e-05
9.69232e-07
-6.34311e-06
3.98456e-07
3.07768e-05
-7.8136e-07
2.0797e-05
-1.26052e-07
1.11382e-05
5.62952e-07
5.35555e-07
3.71809e-06
-9.11297e-06
6.83908e-06
-1.11068e-05
8.87136e-06
-1.05666e-05
1.00068e-05
-1.0285e-05
1.0088e-05
-7.17795e-06
8.86887e-06
-4.37353e-07
7.46729e-06
5.03829e-06
7.09619e-06
4.65033e-06
5.20734e-06
5.99667e-06
2.09185e-06
1.09939e-05
1.43773e-06
1.31888e-05
5.66646e-06
-4.73855e-06
6.43922e-06
-1.89217e-05
-9.4854e-06
-4.74707e-07
2.83995e-05
8.21884e-07
5.28205e-06
-1.38829e-06
-1.63535e-05
-5.61205e-06
-2.66562e-05
6.67301e-07
-1.26225e-05
5.30074e-06
2.61434e-05
5.82561e-06
2.02721e-05
8.80497e-06
8.15888e-06
1.27386e-05
-3.39808e-06
1.49238e-05
-1.12982e-05
1.45324e-05
-1.07154e-05
1.31692e-05
-9.20338e-06
1.21656e-05
-9.28136e-06
1.13826e-05
-6.39495e-06
9.99661e-06
9.4866e-07
8.01419e-06
7.02071e-06
6.1034e-06
6.56112e-06
3.76633e-06
8.33375e-06
1.54613e-06
1.3214e-05
4.58945e-06
1.01455e-05
7.65749e-06
-7.80659e-06
4.48026e-06
-1.57445e-05
-5.00514e-06
5.57702e-06
2.28224e-05
7.55531e-06
3.30376e-06
7.1684e-06
-1.59666e-05
2.07419e-06
-2.1562e-05
4.52954e-06
-1.50778e-05
1.25498e-05
1.81231e-05
1.68988e-05
1.59231e-05
2.14861e-05
3.57157e-06
2.47541e-05
-6.66606e-06
2.25727e-05
-9.11678e-06
1.82296e-05
-6.37231e-06
1.36653e-05
-4.63915e-06
1.05524e-05
-6.16838e-06
9.37134e-06
-5.21393e-06
8.6973e-06
1.6227e-06
7.09322e-06
8.62479e-06
4.05589e-06
9.59844e-06
1.66139e-06
1.07282e-05
3.0921e-06
1.17833e-05
6.52985e-06
6.70773e-06
1.20549e-06
-2.48223e-06
-3.5716e-06
-1.09674e-05
-8.57675e-06
2.69273e-06
-2.69273e-06
-8.0383e-06
1.0731e-05
-2.02883e-05
1.225e-05
-2.39809e-05
3.69263e-06
-2.87049e-05
4.72399e-06
-3.89151e-05
1.02102e-05
-4.18728e-05
2.95765e-06
-3.21336e-05
-9.73912e-06
-1.86793e-05
-1.34544e-05
-9.24006e-06
-9.43921e-06
-4.20424e-06
-5.03582e-06
-4.11084e-06
-9.33874e-08
-8.72887e-06
4.61805e-06
-1.43382e-05
5.60937e-06
-1.82276e-05
3.88936e-06
-1.81948e-05
-3.27737e-08
-1.50199e-05
-3.17496e-06
-9.40926e-06
-5.61061e-06
-9.40926e-06
-4.1804e-06
1.48768e-06
-1.90914e-05
2.5642e-05
-3.18118e-05
2.49705e-05
-3.8547e-05
1.04279e-05
-4.34997e-05
9.6767e-06
-4.49381e-05
1.16485e-05
-3.84149e-05
-3.56551e-06
-2.62861e-05
-2.18679e-05
-1.53165e-05
-2.4424e-05
-8.87571e-06
-1.588e-05
-6.28728e-06
-7.62425e-06
-5.84735e-06
-5.33314e-07
-8.4042e-06
7.17492e-06
-1.28164e-05
1.00216e-05
-1.3981e-05
5.05399e-06
-1.28638e-05
-1.14998e-06
-1.08393e-05
-5.19948e-06
-7.56931e-06
-8.88058e-06
-1.69786e-05
-8.76292e-06
1.02506e-05
-1.72667e-05
3.41458e-05
-2.07845e-05
2.84882e-05
-2.75206e-05
1.7164e-05
-3.58859e-05
1.8042e-05
-3.63501e-05
1.21127e-05
-3.04997e-05
-9.416e-06
-2.06945e-05
-3.1673e-05
-1.25384e-05
-3.25801e-05
-8.62246e-06
-1.97959e-05
-7.27849e-06
-8.96822e-06
-6.43365e-06
-1.37816e-06
-4.68746e-06
5.42875e-06
-3.04407e-06
8.37815e-06
-1.19895e-06
3.20888e-06
-3.17236e-07
-2.03169e-06
-2.12472e-06
-3.392e-06
-2.88273e-06
-8.12256e-06
-1.98613e-05
-9.85371e-06
2.01043e-05
-1.20679e-05
3.636e-05
-3.37368e-06
1.97939e-05
-5.25556e-06
1.90459e-05
-2.15858e-05
3.43723e-05
-2.77371e-05
1.8264e-05
-2.40665e-05
-1.30866e-05
-1.70242e-05
-3.87154e-05
-1.32181e-05
-3.63861e-05
-1.12983e-05
-2.17158e-05
-9.23472e-06
-1.10318e-05
-7.322e-06
-3.29089e-06
-4.73083e-06
2.8376e-06
-1.06377e-06
4.71107e-06
1.63237e-06
5.12757e-07
3.7441e-06
-4.14342e-06
3.81188e-06
-3.45979e-06
1.8481e-06
-6.15878e-06
-1.80132e-05
-8.63384e-06
2.87381e-05
-8.35749e-07
2.85619e-05
1.39279e-05
5.03026e-06
1.10979e-05
2.18758e-05
-5.99231e-06
5.14625e-05
-1.83786e-05
3.06503e-05
-1.80751e-05
-1.33901e-05
-1.52919e-05
-4.14986e-05
-1.63849e-05
-3.52931e-05
-1.60349e-05
-2.20658e-05
-1.33212e-05
-1.37454e-05
-1.00321e-05
-6.58e-06
-6.66165e-06
-5.32879e-07
-3.53866e-06
1.58806e-06
-1.84702e-06
-1.17888e-06
9.70013e-09
-6.00014e-06
2.18931e-06
-5.6394e-06
3.24973e-06
-7.2192e-06
-1.47635e-05
-6.93043e-06
3.56686e-05
8.26035e-06
1.33711e-05
2.40166e-05
-1.0726e-05
2.19359e-05
2.39565e-05
5.89061e-06
6.75077e-05
-8.76418e-06
4.53051e-05
-1.24539e-05
-9.70038e-06
-1.52481e-05
-3.87044e-05
-2.06548e-05
-2.98864e-05
-2.19208e-05
-2.07998e-05
-1.97536e-05
-1.59126e-05
-1.60978e-05
-1.02358e-05
-1.13315e-05
-5.29917e-06
-7.01635e-06
-2.72709e-06
-4.82448e-06
-3.37074e-06
-3.68461e-06
-7.14e-06
-2.6434e-07
-9.05968e-06
3.2017e-06
-1.06852e-05
-1.15618e-05
-3.5478e-06
3.92164e-05
9.83379e-06
-1.04609e-08
1.60706e-05
-1.69628e-05
1.60492e-05
2.3978e-05
9.39365e-06
7.41633e-05
-2.00112e-06
5.66998e-05
-8.55831e-06
-3.14319e-06
-1.66906e-05
-3.05721e-05
-2.52417e-05
-2.13353e-05
-2.84254e-05
-1.76161e-05
-2.79201e-05
-1.64179e-05
-2.44637e-05
-1.36922e-05
-1.91641e-05
-1.05988e-05
-1.38131e-05
-8.0781e-06
-9.83314e-06
-7.3507e-06
-7.25575e-06
-9.71739e-06
-3.06554e-06
-1.32499e-05
1.73717e-06
-1.5488e-05
-9.82459e-06
-1.40224e-07
3.93566e-05
3.71495e-06
-3.86562e-06
-1.02121e-06
-1.22267e-05
3.03871e-06
1.99181e-05
6.55281e-06
7.06492e-05
1.64723e-06
6.16054e-05
-6.5678e-06
5.07186e-06
-1.97345e-05
-1.74054e-05
-2.99215e-05
-1.11483e-05
-3.48668e-05
-1.26708e-05
-3.60922e-05
-1.51925e-05
-3.34005e-05
-1.63839e-05
-2.81001e-05
-1.58992e-05
-2.18204e-05
-1.43578e-05
-1.63924e-05
-1.27787e-05
-1.21201e-05
-1.39897e-05
-7.00182e-06
-1.83682e-05
-8.03216e-07
-2.16866e-05
-1.06278e-05
2.35727e-05
-7.50266e-07
3.37558e-05
-6.87935e-06
3.17685e-05
-1.39793e-05
2.11173e-05
-1.09107e-05
1.17177e-05
-5.67821e-06
2.5201e-05
4.63978e-06
4.38394e-05
-2.71524e-06
5.25678e-05
-5.15689e-06
4.36126e-05
2.28914e-06
2.77569e-05
6.73889e-06
1.54968e-05
5.88782e-06
7.3691e-06
3.48854e-06
2.73308e-06
-1.53236e-06
2.19592e-06
-4.67676e-06
6.13704e-06
-2.31843e-06
1.15618e-05
3.19998e-06
1.23758e-05
8.78449e-06
8.69823e-06
1.44058e-05
9.54185e-07
1.95274e-05
-1.90465e-05
2.67084e-05
-3.92704e-05
1.77417e-05
-4.14386e-05
-8.79928e-06
-1.01328e-05
-3.98826e-05
1.7217e-05
-1.79673e-05
2.47358e-05
-1.43982e-05
1.36601e-05
-2.90353e-06
8.82232e-07
1.8671e-06
-3.044e-06
-1.75198e-06
4.63241e-06
-3.03663e-06
-1.65009e-06
3.56725e-06
-2.24911e-05
1.56841e-05
-4.28858e-05
2.26839e-05
-4.72482e-05
1.11014e-05
-4.06845e-05
-6.75875e-07
-3.53042e-05
-1.89182e-06
-2.6391e-05
-1.04456e-05
-2.01994e-05
-1.08684e-05
-1.19118e-05
-1.0606e-05
-7.42608e-06
-1.28578e-06
-1.26318e-05
1.39902e-05
-3.1115e-05
3.2889e-05
-5.94501e-05
4.78625e-05
-8.33112e-05
5.05696e-05
-9.45343e-05
2.89648e-05
-9.38449e-05
-9.48869e-06
-1.33956e-05
-9.05821e-05
-3.74663e-05
1.9499e-05
-7.70962e-05
2.52318e-05
-0.000139613
5.96138e-05
-0.000140016
2.26979e-06
-0.00010954
-3.2228e-05
-7.66826e-05
-3.58941e-05
-7.6907e-05
3.7916e-06
-0.000110671
4.94481e-05
-0.000149659
6.16721e-05
-0.000158673
2.01152e-05
-0.000145047
-1.43026e-05
-0.000115478
-3.14604e-05
-6.73225e-05
-5.8601e-05
-4.20096e-05
-3.61813e-05
-3.46849e-05
-1.79306e-05
-4.29204e-05
6.94969e-06
-5.86042e-05
2.9674e-05
-7.6104e-05
5.03888e-05
-9.87076e-05
7.0466e-05
-0.00011944
7.13015e-05
-0.000125352
3.48769e-05
-0.000119241
-1.55994e-05
-3.46295e-05
-9.80069e-05
-5.65718e-05
7.60708e-05
-0.000141602
0.000110262
-0.000190108
0.00010812
-0.000233046
4.52084e-05
-0.000249558
-1.57167e-05
-0.000254397
-3.10549e-05
-0.000246111
-4.49491e-06
-0.0002209
2.42375e-05
-0.000182343
2.3114e-05
-0.000156638
-5.58909e-06
-0.00014
-3.09413e-05
-0.000113447
-5.80135e-05
-0.000105416
-6.66313e-05
-0.000104787
-3.68109e-05
-8.95415e-05
-3.31758e-05
-8.18569e-05
-7.34888e-07
-8.04087e-05
2.82258e-05
-8.50073e-05
5.49875e-05
-0.000111856
9.7315e-05
-0.000116306
7.57515e-05
-0.000107232
2.5803e-05
-0.000100898
-2.19338e-05
-1.79607e-05
-0.000117567
-0.000117387
0.000193458
-0.000163113
0.000155987
-0.000204378
0.000149384
-0.000236514
7.73442e-05
-0.000271014
1.87833e-05
-0.000290612
-1.14568e-05
-0.000283745
-1.13624e-05
-0.000254031
-5.47665e-06
-0.000218061
-1.28564e-05
-0.000186028
-3.76216e-05
-0.000151886
-6.50837e-05
-0.000118263
-9.16359e-05
-8.6411e-05
-9.84835e-05
-4.94193e-05
-7.38026e-05
-5.89032e-05
-2.3692e-05
-7.8423e-05
1.87849e-05
-0.00011253
6.23331e-05
-0.000133409
7.58662e-05
-0.000123497
8.74034e-05
-0.000105125
5.73793e-05
-7.56337e-05
-3.68814e-06
-6.46023e-05
-3.29652e-05
-6.10575e-08
-8.25015e-05
-8.17082e-05
0.000275166
-0.000143712
0.000217991
-0.000175823
0.000181495
-0.000204195
0.000105716
-0.000235999
5.05869e-05
-0.000261431
1.39748e-05
-0.000263744
-9.04887e-06
-0.00024393
-2.52907e-05
-0.000214473
-4.23138e-05
-0.000186456
-6.56389e-05
-0.000158009
-9.35308e-05
-0.000133468
-0.000116177
-9.83431e-05
-0.000133609
-5.27539e-05
-0.000119392
-2.43781e-05
-5.20679e-05
-2.79931e-05
2.23999e-05
-5.30365e-05
8.73764e-05
-8.34178e-05
0.000106247
-9.49122e-05
9.88975e-05
-9.18978e-05
5.4365e-05
-8.04773e-05
-1.51086e-05
-7.19343e-05
-4.15082e-05
1.1407e-05
-8.34026e-05
-5.65994e-05
0.000331765
-0.000104686
0.000266078
-0.000134114
0.000210922
-0.000160616
0.000132218
-0.000183353
7.33238e-05
-0.000196477
2.70987e-05
-0.000195648
-9.87797e-06
-0.000184267
-3.66719e-05
-0.000165502
-6.10787e-05
-0.000146463
-8.46786e-05
-0.000132179
-0.000107815
-0.000121377
-0.000126979
-0.000103613
-0.000151372
-6.48318e-05
-0.000158174
-8.91381e-06
-0.000107986
-5.81323e-06
1.92995e-05
-1.45005e-05
9.60637e-05
-2.98542e-05
0.000121602
-3.46422e-05
0.000103686
-3.71117e-05
5.68344e-05
-5.28443e-05
6.23538e-07
-5.93261e-05
-3.50262e-05
2.04267e-05
-6.83464e-05
-3.53483e-05
0.000367113
-6.75553e-05
0.000298285
-8.88728e-05
0.00023224
-0.000108989
0.000152334
-0.000121436
8.57716e-05
-0.000125737
3.13997e-05
-0.000122211
-1.34046e-05
-0.000111744
-4.71388e-05
-9.91166e-05
-7.37068e-05
-8.72143e-05
-9.6581e-05
-8.02614e-05
-0.000114768
-7.76764e-05
-0.000129564
-8.1197e-05
-0.000147852
-6.84981e-05
-0.000170873
-2.67785e-05
-0.000149705
7.49563e-06
-1.49751e-05
-3.37199e-07
0.000103896
4.38883e-06
0.000116875
1.82163e-05
8.9858e-05
1.5415e-05
5.96358e-05
-7.4612e-06
2.34998e-05
-3.37514e-05
-8.73577e-06
3.69379e-05
-5.02626e-05
-1.0357e-05
0.00037747
-3.60366e-05
0.000323965
-4.6569e-05
0.000242772
-5.43155e-05
0.00016008
-5.31726e-05
8.46286e-05
-4.6215e-05
2.44418e-05
-3.93786e-05
-2.02411e-05
-3.33765e-05
-5.31406e-05
-3.07588e-05
-7.63251e-05
-3.12854e-05
-9.60547e-05
-3.17948e-05
-0.000114258
-3.21896e-05
-0.000129169
-4.04823e-05
-0.00013956
-5.05337e-05
-0.000160821
-4.08608e-05
-0.000159378
-1.86528e-06
-5.39707e-05
5.00314e-06
9.70284e-05
2.88845e-06
0.00011899
2.5746e-05
6.70003e-05
3.11986e-05
5.41831e-05
7.51259e-06
4.71858e-05
-2.81489e-05
2.69257e-05
5.69185e-05
-4.81295e-05
3.42843e-05
0.000343186
9.15082e-06
0.000349098
-2.66143e-06
0.000254585
-1.04498e-06
0.000158464
9.35456e-06
7.42292e-05
2.33076e-05
1.04887e-05
3.33975e-05
-3.03316e-05
3.45229e-05
-5.42662e-05
2.84596e-05
-7.02617e-05
1.77702e-05
-8.53655e-05
8.3539e-06
-0.000104842
1.03615e-06
-0.000121851
-9.26869e-06
-0.000129255
-2.31752e-05
-0.000146914
-2.90695e-05
-0.000153484
-1.02808e-05
-7.27593e-05
9.7753e-06
7.69721e-05
8.3362e-07
0.000127932
8.5457e-06
5.92881e-05
1.78466e-05
4.48822e-05
-3.39176e-06
6.84243e-05
-4.51797e-05
6.87136e-05
7.37439e-05
-6.20048e-05
7.90325e-05
0.000264153
8.36761e-05
0.000344455
6.85027e-05
0.000269758
6.25804e-05
0.000164386
6.78067e-05
6.90027e-05
7.58843e-05
2.41106e-06
8.04392e-05
-3.48864e-05
7.70757e-05
-5.09031e-05
6.61593e-05
-5.93451e-05
5.33002e-05
-7.25064e-05
4.10874e-05
-9.26293e-05
2.81377e-05
-0.000108902
1.38438e-05
-0.000114961
2.7967e-06
-0.000135867
-1.7796e-05
-0.000132891
-3.17951e-05
-5.87602e-05
1.25933e-05
3.25838e-05
1.98384e-05
0.000120686
9.6209e-06
6.95056e-05
5.6532e-07
5.39376e-05
-2.87488e-05
9.77381e-05
-5.54829e-05
9.54476e-05
7.49922e-05
-5.67314e-05
0.000100772
0.000163381
0.000150136
0.000295091
0.000152807
0.000267087
0.000141827
0.000175367
0.000130105
8.07239e-05
0.000119982
1.25339e-05
0.000110195
-2.50987e-05
9.88745e-05
-3.9583e-05
8.79768e-05
-4.84475e-05
7.80771e-05
-6.26068e-05
6.65428e-05
-8.10948e-05
5.09452e-05
-9.33039e-05
3.31844e-05
-9.72003e-05
2.01054e-05
-0.000122789
-5.8809e-06
-0.000106905
-3.23492e-05
-3.2292e-05
4.8292e-07
-2.48299e-07
3.74705e-05
8.36982e-05
2.43447e-05
8.26312e-05
-8.8471e-06
8.71296e-05
-4.40683e-05
0.000132959
-5.6285e-05
0.000107664
7.73629e-05
-5.86558e-05
8.55917e-05
7.77894e-05
0.000164621
0.000216061
0.000197666
0.000234042
0.000197256
0.000175777
0.000179804
9.8176e-05
0.00015684
3.54974e-05
0.000134355
-2.61315e-06
0.000116846
-2.20744e-05
0.000105296
-3.68974e-05
9.67921e-05
-5.41026e-05
8.56791e-05
-6.9982e-05
6.78209e-05
-7.54459e-05
5.18846e-05
-8.12638e-05
3.71596e-05
-0.000108064
1.11269e-05
-8.08728e-05
-2.00564e-05
-1.10872e-06
-1.84154e-05
-1.88937e-06
1.99588e-05
4.53239e-05
1.57649e-05
8.6825e-05
-2.3925e-05
0.000126819
-6.20477e-05
0.000171082
-8.6864e-05
0.000132481
0.000113473
-0.000122974
4.9307e-05
2.84823e-05
0.000127518
0.00013785
0.000181325
0.000180235
0.000199446
0.000157657
0.000191383
0.000106238
0.000170227
5.6654e-05
0.000147542
2.00716e-05
0.000130881
-5.41395e-06
0.000121388
-2.74041e-05
0.00011248
-4.51937e-05
9.78527e-05
-5.53551e-05
7.766e-05
-5.52534e-05
6.79493e-05
-7.15529e-05
5.37233e-05
-9.38373e-05
3.75588e-05
-6.4708e-05
-2.1239e-06
3.85741e-05
-2.48884e-05
2.08752e-05
-6.85142e-06
2.7287e-05
-9.785e-06
8.97586e-05
-4.49122e-05
0.000161947
-8.05784e-05
0.000206748
-0.00011991
0.000171812
0.000151606
-0.000158043
1.77508e-05
1.07315e-05
7.5548e-05
8.00528e-05
0.000131804
0.000123979
0.000163097
0.000126364
0.000167529
0.000101807
0.000156865
6.73183e-05
0.000145581
3.13551e-05
0.000138461
1.70622e-06
0.000129959
-1.89025e-05
0.000117951
-3.31847e-05
9.95392e-05
-3.69435e-05
8.19578e-05
-3.7672e-05
7.42887e-05
-6.38837e-05
6.21238e-05
-8.16721e-05
4.80427e-05
-5.06269e-05
1.67397e-05
6.98772e-05
-2.17393e-05
5.93543e-05
-2.71117e-05
3.26595e-05
-3.03166e-05
9.29635e-05
-5.07424e-05
0.000182372
-7.2672e-05
0.000228678
-0.000102987
0.000202127
0.000167122
-0.000118502
9.77918e-09
1.07218e-05
3.50108e-05
4.50517e-05
8.56014e-05
7.33888e-05
0.000122095
8.98695e-05
0.000137903
8.59996e-05
0.000140148
6.50726e-05
0.000137007
3.44958e-05
0.000130312
8.40115e-06
0.000116707
-5.29767e-06
0.000100917
-1.73946e-05
8.45387e-05
-2.05651e-05
8.17019e-05
-3.48353e-05
7.4891e-05
-5.70726e-05
6.25597e-05
-6.93408e-05
3.72856e-05
-2.5353e-05
1.36554e-05
9.35073e-05
-1.46847e-05
8.76944e-05
-3.49676e-05
5.29424e-05
-3.20489e-05
9.00447e-05
-2.3205e-05
0.000173528
-1.78205e-05
0.000223293
-2.22135e-05
0.00020652
0.000159359
-1.44504e-05
-1.07724e-05
2.14941e-05
1.43184e-05
1.99611e-05
6.07133e-05
2.69941e-05
9.37518e-05
5.68311e-05
0.000111438
6.83132e-05
0.000118554
5.79563e-05
0.000112871
4.01794e-05
9.85168e-05
2.27548e-05
8.20649e-05
1.11544e-05
7.0214e-05
-5.54365e-06
6.8887e-05
-1.92382e-05
7.03966e-05
-3.63449e-05
6.61107e-05
-5.27868e-05
4.57303e-05
-4.89604e-05
1.32703e-05
7.10717e-06
3.12043e-06
0.000103657
-1.04956e-05
0.00010131
-2.5479e-05
6.79258e-05
-1.81583e-05
8.2724e-05
1.66821e-05
0.000138688
5.65154e-05
0.000183459
7.73982e-05
0.000185638
0.000140567
9.619e-05
-6.29578e-06
2.77898e-05
1.9623e-05
-5.9574e-06
5.18925e-05
-5.27514e-06
6.63225e-05
4.24013e-05
7.37317e-05
6.0904e-05
7.11565e-05
6.05315e-05
6.34801e-05
4.7856e-05
5.31831e-05
3.3052e-05
4.90014e-05
1.53362e-05
4.55084e-05
-2.05039e-06
4.99377e-05
-2.36671e-05
5.25761e-05
-3.89832e-05
4.02927e-05
-4.05034e-05
3.92464e-06
-1.2592e-05
-1.61966e-05
2.72288e-05
-2.14661e-06
8.96071e-05
7.893e-07
9.83745e-05
-5.39806e-06
7.4113e-05
-6.55271e-07
7.79812e-05
3.31232e-05
0.000104909
7.98222e-05
0.000136761
0.000119161
0.000146299
0.000113582
0.000146145
2.13835e-06
2.56515e-05
1.63005e-05
-2.01194e-05
1.91563e-05
-8.13066e-06
1.1625e-05
4.99328e-05
7.38842e-07
7.17901e-05
-5.77346e-06
6.70439e-05
3.65726e-06
3.84256e-05
1.0432e-05
2.62774e-05
2.40387e-05
1.72945e-06
4.14064e-05
-1.94179e-05
4.00913e-05
-2.23518e-05
1.84599e-05
-1.73516e-05
-1.28497e-05
-9.1936e-06
-2.83428e-05
2.90099e-06
-2.5636e-05
2.45222e-05
-1.22247e-06
6.51934e-05
1.67227e-05
8.04293e-05
2.16149e-05
6.92208e-05
2.98075e-05
6.97885e-05
5.28597e-05
8.18572e-05
9.19536e-05
9.76666e-05
0.000134687
0.000103566
8.21367e-05
0.000166133
1.63965e-06
2.4012e-05
-5.42146e-06
-1.30582e-05
-2.98562e-05
1.63042e-05
-5.71386e-05
7.72154e-05
-6.06594e-05
7.53109e-05
-3.63916e-05
4.27761e-05
-1.09099e-05
1.29438e-05
1.78096e-05
-2.44231e-06
2.02266e-05
-6.87548e-07
8.40589e-06
-7.59708e-06
-1.59774e-05
2.03154e-06
-3.12675e-05
-2.06133e-06
-3.58822e-05
-4.57882e-06
-3.39141e-05
9.32784e-07
-2.56924e-05
1.63004e-05
4.78028e-08
3.94533e-05
2.67707e-05
5.37063e-05
4.50098e-05
5.09816e-05
6.35586e-05
5.12396e-05
8.85403e-05
5.68755e-05
0.000123689
6.25177e-05
0.000166279
6.09765e-05
4.35035e-05
0.000204912
-5.18869e-06
2.92007e-05
-2.80682e-05
9.82131e-06
-5.76425e-05
4.58786e-05
-7.61188e-05
9.56918e-05
-5.4848e-05
5.40402e-05
-1.61342e-05
4.06227e-06
1.66786e-08
-3.20718e-06
-1.45934e-05
1.21677e-05
-4.42473e-05
2.89663e-05
-5.97039e-05
7.85942e-06
-5.01605e-05
-7.51202e-06
-3.90077e-05
-1.32144e-05
-3.60058e-05
-7.58065e-06
-3.42506e-05
-8.22415e-07
-2.61088e-05
8.15855e-06
-5.7015e-06
1.90462e-05
2.10205e-05
2.69845e-05
4.51659e-05
2.68363e-05
7.00286e-05
2.6377e-05
9.95282e-05
2.73759e-05
0.000134793
2.72534e-05
0.000173892
2.18772e-05
7.19175e-06
0.000210203
1.59169e-06
2.7609e-05
-2.56473e-05
3.70602e-05
-5.11713e-05
7.14026e-05
-5.43904e-05
9.89111e-05
-2.52741e-05
2.49241e-05
-1.5041e-05
-6.17076e-06
-4.69195e-05
2.86715e-05
-8.43845e-05
4.96328e-05
-8.01987e-05
2.47805e-05
-6.41776e-05
-8.16146e-06
-4.85824e-05
-2.3107e-05
-3.79067e-05
-2.38899e-05
-3.08919e-05
-1.45952e-05
-2.75435e-05
-4.17048e-06
-2.31381e-05
3.7532e-06
-1.19913e-05
7.89923e-06
6.80566e-06
8.18762e-06
2.74817e-05
6.16033e-06
4.98549e-05
4.00406e-06
7.55563e-05
1.67455e-06
0.000104389
-1.57918e-06
0.000134772
-8.50604e-06
-2.07582e-05
0.000162722
2.91449e-05
-1.53605e-06
1.68314e-07
6.60367e-05
-3.14468e-05
0.000103018
-2.9238e-05
9.67025e-05
-1.93087e-05
1.49949e-05
-4.85344e-05
2.3055e-05
-9.53787e-05
7.55158e-05
-0.000104
5.8254e-05
-8.97377e-05
1.0518e-05
-7.50824e-05
-2.28167e-05
-6.33721e-05
-3.48171e-05
-5.23223e-05
-3.49394e-05
-3.98671e-05
-2.70503e-05
-2.82092e-05
-1.58283e-05
-1.92803e-05
-5.1755e-06
-9.89905e-06
-1.48195e-06
3.65543e-06
-5.36675e-06
1.88456e-05
-9.02972e-06
3.54256e-05
-1.25758e-05
5.37157e-05
-1.66155e-05
7.42019e-05
-2.20654e-05
9.58476e-05
-3.01518e-05
-4.17725e-05
0.000116862
1.718e-05
-1.87161e-05
6.00888e-06
7.72078e-05
-2.16609e-05
0.000130688
-1.83516e-05
9.33934e-05
-2.93913e-05
2.60348e-05
-8.02184e-05
7.38823e-05
-0.000108634
0.000103931
-0.000106892
5.65122e-05
-9.82186e-05
1.84435e-06
-9.2164e-05
-2.88714e-05
-8.55204e-05
-4.14607e-05
-7.77397e-05
-4.27201e-05
-6.43789e-05
-4.0411e-05
-4.5308e-05
-3.48992e-05
-2.43178e-05
-2.61658e-05
-6.52789e-06
-1.9272e-05
8.0724e-06
-1.99671e-05
2.07861e-05
-2.17434e-05
3.28427e-05
-2.46323e-05
4.50768e-05
-2.88496e-05
5.78876e-05
-3.48762e-05
7.11034e-05
-4.33676e-05
-5.49787e-05
8.43094e-05
4.19806e-06
-2.29142e-05
-8.11078e-06
8.95168e-05
-2.36504e-05
0.000146227
-1.88647e-05
8.86078e-05
-4.28809e-05
5.0051e-05
-9.25688e-05
0.00012357
-0.000108944
0.000120306
-0.000110614
5.81816e-05
-0.000112923
4.15293e-06
-0.000113717
-2.80767e-05
-0.000111551
-4.36268e-05
-0.000102776
-5.14954e-05
-8.39715e-05
-5.92159e-05
-5.74603e-05
-6.14105e-05
-2.83594e-05
-5.52669e-05
-2.36017e-06
-4.52713e-05
1.60639e-05
-3.83911e-05
2.82113e-05
-3.38908e-05
3.65971e-05
-3.30179e-05
4.3328e-05
-3.55804e-05
4.95061e-05
-4.10543e-05
5.54625e-05
-4.9324e-05
-6.06613e-05
6.11451e-05
-8.42525e-06
-1.44888e-05
-2.80001e-05
0.000109092
-2.8847e-05
0.000147074
-2.4706e-05
8.44668e-05
-5.43207e-05
7.96657e-05
-8.86795e-05
0.000157929
-0.00010167
0.000133297
-0.000110793
6.73039e-05
-0.000120697
1.40567e-05
-0.000126703
-2.20708e-05
-0.000125053
-4.52762e-05
-0.000109244
-6.73052e-05
-8.23092e-05
-8.61505e-05
-5.08304e-05
-9.28894e-05
-2.01918e-05
-8.59056e-05
6.54173e-06
-7.20048e-05
2.61952e-05
-5.80445e-05
3.7942e-05
-4.56374e-05
4.3443e-05
-3.85188e-05
4.52177e-05
-3.73549e-05
4.54179e-05
-4.12544e-05
4.49207e-05
-4.88269e-05
-5.89713e-05
4.32305e-05
-1.39305e-05
-5.58154e-07
-3.72856e-05
0.000132447
-3.01462e-05
0.000139935
-2.86312e-05
8.29519e-05
-5.352e-05
0.000104554
-7.16526e-05
0.000176062
-8.25815e-05
0.000144226
-9.53827e-05
8.01051e-05
-0.000108485
2.71587e-05
-0.000116711
-1.38449e-05
-0.000112976
-4.90109e-05
-9.51479e-05
-8.51334e-05
-6.67507e-05
-0.000114548
-3.36609e-05
-0.000125979
-2.52411e-06
-0.000117043
2.24599e-05
-9.69887e-05
3.93939e-05
-7.49783e-05
4.85983e-05
-5.48417e-05
5.09374e-05
-4.08577e-05
4.8333e-05
-3.47505e-05
4.34289e-05
-3.63504e-05
3.77104e-05
-4.31086e-05
-5.17147e-05
3.04536e-05
-1.27772e-05
1.22191e-05
-3.46143e-05
0.000154284
-2.8527e-05
0.000133847
-2.86488e-05
8.30738e-05
-4.12004e-05
0.000117106
-4.2008e-05
0.000176869
-4.74423e-05
0.000149661
-5.93973e-05
9.20602e-05
-7.23137e-05
4.00753e-05
-7.98839e-05
-6.27456e-06
-7.67033e-05
-5.21916e-05
-6.3271e-05
-9.85658e-05
-3.97521e-05
-0.000138067
-1.04027e-05
-0.000155329
1.84634e-05
-0.000145909
4.09305e-05
-0.000119456
5.44232e-05
-8.84709e-05
5.93262e-05
-5.97446e-05
5.72877e-05
-3.88191e-05
5.05721e-05
-2.8035e-05
4.18692e-05
-2.76475e-05
3.29705e-05
-3.421e-05
-4.23271e-05
2.35827e-05
-8.76631e-06
2.09854e-05
-2.22024e-05
0.00016772
-2.52264e-05
0.000136871
-2.80211e-05
8.58684e-05
-2.57158e-05
0.000114801
-8.92708e-06
0.000160081
-3.51207e-06
0.000144246
-9.5858e-06
9.81341e-05
-1.86669e-05
4.91565e-05
-2.50526e-05
1.11277e-07
-2.54681e-05
-5.1776e-05
-1.91594e-05
-0.000104875
-3.47498e-06
-0.000153751
1.71263e-05
-0.00017593
3.84443e-05
-0.000167227
5.59342e-05
-0.000136946
6.56451e-05
-9.81818e-05
6.64784e-05
-6.05779e-05
6.00966e-05
-3.24374e-05
4.99349e-05
-1.78733e-05
3.89019e-05
-1.66146e-05
2.87813e-05
-2.40895e-05
-3.32512e-05
1.97052e-05
-4.1265e-06
2.51118e-05
1.4398e-07
0.000163449
-1.43138e-05
0.000151329
-2.4506e-05
9.60606e-05
-1.44849e-05
0.00010478
1.54989e-05
0.000130097
3.7244e-05
0.000122501
4.09003e-05
9.4478e-05
3.55467e-05
5.45099e-05
2.88999e-05
6.75792e-06
2.32392e-05
-4.61154e-05
2.31399e-05
-0.000104775
3.01241e-05
-0.000160736
4.10153e-05
-0.000186821
5.23254e-05
-0.000178537
6.22597e-05
-0.00014688
6.70028e-05
-0.000102925
6.44783e-05
-5.80534e-05
5.55992e-05
-2.35583e-05
4.409e-05
-6.36403e-06
3.27627e-05
-5.28722e-06
2.31642e-05
-1.4491e-05
-2.52977e-05
1.52107e-05
-4.03222e-06
2.9144e-05
2.57914e-05
0.000133626
1.19443e-05
0.000165177
-4.1813e-06
0.000112186
-8.30361e-07
0.000101429
2.71743e-05
0.000102092
5.5073e-05
9.46021e-05
6.8826e-05
8.0725e-05
6.96685e-05
5.36672e-05
6.3797e-05
1.26292e-05
5.57556e-05
-3.80741e-05
5.20317e-05
-0.000101052
5.24419e-05
-0.000161146
5.3018e-05
-0.000187398
5.40797e-05
-0.000179599
5.55709e-05
-0.000148371
5.48973e-05
-0.000102251
4.98486e-05
-5.30047e-05
4.09914e-05
-1.4701e-05
3.15307e-05
3.0967e-06
2.2829e-05
3.41451e-06
1.57042e-05
-7.3663e-06
-1.92122e-05
9.6186e-06
-9.89074e-06
3.90348e-05
2.90662e-05
9.46688e-05
3.94752e-05
0.000154768
2.4301e-05
0.000127361
2.23832e-05
0.000103347
3.81636e-05
8.63121e-05
5.9455e-05
7.3311e-05
7.50565e-05
6.51234e-05
7.98452e-05
4.88785e-05
7.57759e-05
1.66985e-05
6.84376e-05
-3.07359e-05
6.45872e-05
-9.72012e-05
5.91644e-05
-0.000155723
4.9694e-05
-0.000177927
4.11679e-05
-0.000171073
3.50615e-05
-0.000142265
2.97288e-05
-9.69185e-05
2.36337e-05
-4.69097e-05
1.78685e-05
-8.93578e-06
1.30378e-05
7.92744e-06
9.65951e-06
6.7929e-06
7.12632e-06
-4.83305e-06
-1.60355e-05
3.94972e-06
-4.15211e-06
4.3187e-05
1.5852e-05
7.46649e-05
4.64217e-05
0.000124198
4.65392e-05
0.000127244
4.24807e-05
0.000107406
4.95995e-05
7.91934e-05
6.132e-05
6.15906e-05
7.09511e-05
5.54924e-05
7.42677e-05
4.5562e-05
7.05132e-05
2.04531e-05
6.65972e-05
-2.68199e-05
6.3684e-05
-9.4288e-05
5.18036e-05
-0.000143843
3.34189e-05
-0.000159542
1.7747e-05
-0.000155401
5.65332e-06
-0.000130171
-2.65808e-06
-8.8607e-05
-6.54688e-06
-4.30208e-05
-7.33116e-06
-8.15142e-06
-6.44369e-06
7.04009e-06
-3.87667e-06
4.22598e-06
-1.51987e-06
-7.1897e-06
-1.60785e-05
-1.47679e-06
4.48332e-06
3.87038e-05
7.84675e-06
7.13018e-05
2.67993e-05
0.000105245
3.6354e-05
0.000117689
3.58704e-05
0.00010789
4.14595e-05
7.36045e-05
5.50519e-05
4.79982e-05
5.99529e-05
5.05914e-05
6.08454e-05
4.46696e-05
5.79678e-05
2.33308e-05
5.87937e-05
-2.76457e-05
5.49109e-05
-9.04053e-05
3.63875e-05
-0.000125319
1.21963e-05
-0.000135351
-7.912e-06
-0.000135292
-2.3284e-05
-0.000114799
-3.25863e-05
-7.93046e-05
-3.44556e-05
-4.11514e-05
-2.98425e-05
-1.27644e-05
-2.21671e-05
-6.35263e-07
-1.33436e-05
-4.59741e-06
-7.58573e-06
-1.29475e-05
-1.79116e-05
-5.75259e-06
1.82066e-05
2.0497e-05
1.95472e-05
6.99614e-05
2.25974e-05
0.000102195
2.4792e-05
0.000115495
2.49504e-05
0.000107731
2.60473e-05
7.25078e-05
3.57898e-05
3.82557e-05
4.50548e-05
4.13265e-05
4.53267e-05
4.43978e-05
4.63327e-05
2.23247e-05
5.10662e-05
-3.23792e-05
4.37873e-05
-8.31263e-05
2.08783e-05
-0.00010241
-4.57428e-06
-0.000109898
-2.51063e-05
-0.00011476
-4.14706e-05
-9.84346e-05
-4.98183e-05
-7.09569e-05
-4.91332e-05
-4.18363e-05
-4.0985e-05
-2.09124e-05
-2.85085e-05
-1.31117e-05
-1.7501e-05
-1.56048e-05
-1.12505e-05
-1.9198e-05
-2.06758e-05
-8.48644e-06
2.81037e-05
-7.60725e-06
4.1212e-05
5.6853e-05
3.77761e-05
0.000105631
3.49792e-05
0.000118291
3.42062e-05
0.000108504
3.22997e-05
7.44143e-05
3.25269e-05
3.80284e-05
3.56327e-05
3.82207e-05
3.40032e-05
4.60271e-05
4.00997e-05
1.62279e-05
4.51514e-05
-3.7431e-05
3.44059e-05
-7.23809e-05
1.18148e-05
-7.98193e-05
-1.09029e-05
-8.71807e-05
-3.00631e-05
-9.56e-05
-4.46351e-05
-8.38625e-05
-5.09346e-05
-6.46575e-05
-4.83278e-05
-4.44431e-05
-3.87165e-05
-3.05236e-05
-2.65758e-05
-2.52523e-05
-1.74689e-05
-2.47117e-05
-1.2533e-05
-2.41339e-05
-2.35315e-05
-9.67721e-06
3.01885e-05
-3.7796e-05
5.48062e-05
3.2235e-05
5.59827e-05
0.000104455
5.16858e-05
0.000122588
5.01656e-05
0.000110024
4.65631e-05
7.80167e-05
3.89958e-05
4.55957e-05
2.92739e-05
4.79425e-05
2.7876e-05
4.74248e-05
3.81488e-05
5.9549e-06
4.02313e-05
-3.95136e-05
2.84767e-05
-6.06264e-05
1.0638e-05
-6.19806e-05
-7.59586e-06
-6.8947e-05
-2.33757e-05
-7.98202e-05
-3.49392e-05
-7.22991e-05
-3.93612e-05
-6.02355e-05
-3.65267e-05
-4.72775e-05
-2.89958e-05
-3.80546e-05
-2.10134e-05