/*--------------------------------*- C++ -*----------------------------------*\
| =========                 |                                                 |
| \\      /  F ield         | OpenFOAM: The Open Source CFD Toolbox           |
|  \\    /   O peration     | Version:  2.3.0                                 |
|   \\  /    A nd           | Web:      www.OpenFOAM.org                      |
|    \\/     M anipulation  |                                                 |
\*---------------------------------------------------------------------------*/
FoamFile
{
    version     2.0;
    format      ascii;
    class       volVectorField;
    location    "2.15";
    object      U;
}
// * * * * * * * * * * * * * * * * * * * * * * * * * * * * * * * * * * * * * //

dimensions      [0 1 -1 0 0 0 0];

internalField   nonuniform List<vector> 
2268
(
(0.0248641 -0.0175235 0)
(0.0257382 -0.00739863 0)
(0.00783074 -0.00536804 0)
(0.103245 -0.00372996 0)
(0.132213 0.0276028 0)
(-0.0103603 0.0205017 0)
(-0.0652214 0.00756537 0)
(-0.0857667 0.0076893 0)
(-0.10473 -0.00233491 0)
(-0.0927554 -0.00158587 0)
(-0.102867 0.00134371 0)
(-0.105843 0.000662936 0)
(-0.0935468 -0.00455696 0)
(-0.0635269 -0.00930747 0)
(-0.0291523 -0.00780206 0)
(-0.0272908 0.00471691 0)
(-0.0788603 0.0121808 0)
(-0.114911 0.00556965 0)
(-0.11676 -0.00280514 0)
(-0.116102 -0.00194938 0)
(-0.119995 -0.00260047 0)
(-0.0954914 -0.0103724 0)
(-0.0388992 -0.0151691 0)
(-0.0243496 -0.0132895 0)
(-0.0696189 0.0225223 0)
(-0.0273701 -0.0390519 0)
(0.0402371 -0.0621694 0)
(0.153239 0.0414968 0)
(0.0127854 0.0641009 0)
(-0.0838994 0.0280607 0)
(-0.0897499 0.0196237 0)
(-0.107108 0.000662269 0)
(-0.106109 0.00244288 0)
(-0.113984 0.00238609 0)
(-0.10806 -0.00330482 0)
(-0.0919304 -0.0158198 0)
(-0.0679359 -0.0231388 0)
(-0.0427891 -0.00942347 0)
(-0.0462609 0.0175969 0)
(-0.0907964 0.0275036 0)
(-0.0957805 0.0136168 0)
(-0.0819675 -0.0044734 0)
(-0.104448 0.0022422 0)
(-0.120462 0.00100466 0)
(-0.108253 -0.0259417 0)
(-0.0420381 -0.0510048 0)
(-0.0820189 0.0260738 0)
(-0.0997231 0.01796 0)
(-0.0285149 -0.0768533 0)
(-0.00871954 -0.0968148 0)
(0.115013 0.0500885 0)
(0.0227055 0.105954 0)
(-0.075163 0.0523349 0)
(-0.0795732 0.030814 0)
(-0.107696 0.00423936 0)
(-0.0961707 0.0031621 0)
(-0.092979 -0.000277722 0)
(-0.0752878 -0.0078358 0)
(-0.0504672 -0.0225988 0)
(-0.0342259 -0.0319842 0)
(-0.029808 -0.0163847 0)
(-0.021406 0.0250097 0)
(-0.0434401 0.0358945 0)
(-0.02801 0.0101164 0)
(-0.0255281 -0.00461857 0)
(-0.0765872 0.0163995 0)
(-0.113199 0.00750922 0)
(-0.0960983 -0.050185 0)
(-0.016453 -0.0943957 0)
(-0.0981439 0.0663781 0)
(-0.106258 0.0123138 0)
(-0.0768975 -0.102778 0)
(-0.0688078 -0.1257 0)
(0.0641839 0.0529733 0)
(0.022828 0.13829 0)
(-0.0667007 0.0751541 0)
(-0.0770415 0.0429985 0)
(-0.107897 0.00664669 0)
(-0.0813177 -0.003502 0)
(-0.05715 -0.00927873 0)
(-0.0234979 -0.0191596 0)
(0.00653603 -0.0315929 0)
(0.027249 -0.0322498 0)
(0.0132195 -0.0168575 0)
(0.0137685 0.0197899 0)
(0.0215011 0.0344716 0)
(0.0405861 0.0148011 0)
(0.0205062 0.0121607 0)
(-0.0478385 0.0373107 0)
(-0.0825568 0.0105814 0)
(-0.0404074 -0.0689933 0)
(0.0273724 -0.114554 0)
(-0.088095 0.107215 0)
(-0.093659 0.0175321 0)
(-0.0963276 -0.115442 0)
(-0.108451 -0.15336 0)
(0.0193217 0.0238191 0)
(0.0246234 0.157931 0)
(-0.0547224 0.0976709 0)
(-0.0574051 0.0569243 0)
(-0.0879437 0.00365783 0)
(-0.0562814 -0.0241541 0)
(-0.0154964 -0.0310307 0)
(0.0295876 -0.0365758 0)
(0.0626872 -0.0441795 0)
(0.0808431 -0.0369624 0)
(0.0734364 -0.011749 0)
(0.0536602 0.0161289 0)
(0.0611248 0.0235103 0)
(0.0761932 0.017427 0)
(0.0463655 0.0314343 0)
(-0.0239802 0.0585899 0)
(-0.036788 0.00941135 0)
(0.0395622 -0.0883999 0)
(0.0621802 -0.0984049 0)
(-0.06236 0.139581 0)
(-0.0523188 0.0316688 0)
(-0.0608645 -0.111673 0)
(-0.105393 -0.168291 0)
(-0.0223444 -0.00734433 0)
(0.0389259 0.166568 0)
(-0.0320212 0.106312 0)
(0.00731994 0.0648407 0)
(-0.0110811 0.00868286 0)
(0.0297388 -0.0442812 0)
(0.0596218 -0.0551744 0)
(0.090116 -0.0547574 0)
(0.112612 -0.0543987 0)
(0.121148 -0.0402805 0)
(0.113837 -0.00595528 0)
(0.0890992 0.0222801 0)
(0.0771604 0.0223595 0)
(0.0793376 0.0259927 0)
(0.0489602 0.0501831 0)
(-0.00521585 0.069041 0)
(0.0342627 -0.0155601 0)
(0.0870095 -0.103659 0)
(0.0727637 -0.0669655 0)
(-0.0270056 0.157091 0)
(0.00689879 0.0300344 0)
(0.015514 -0.096684 0)
(-0.0401913 -0.158899 0)
(-0.0637207 -0.0543972 0)
(0.0727637 0.167099 0)
(0.0387107 0.108927 0)
(0.0781993 0.0449047 0)
(0.13283 -0.00530092 0)
(0.174016 -0.0548216 0)
(0.17053 -0.0618644 0)
(0.156458 -0.0575617 0)
(0.145034 -0.0555716 0)
(0.136236 -0.0388582 0)
(0.126973 0.000531046 0)
(0.104547 0.0310127 0)
(0.0750864 0.0274589 0)
(0.0592169 0.0365181 0)
(0.0337468 0.066512 0)
(-0.00245463 0.0824044 0)
(0.104574 -0.0265195 0)
(0.063223 -0.0958363 0)
(0.0411803 -0.0346443 0)
(0.0220321 0.152833 0)
(0.077753 0.0298098 0)
(0.101067 -0.0815063 0)
(0.0750542 -0.127198 0)
(-0.0185752 -0.0896563 0)
(0.11163 0.126685 0)
(0.156968 0.11914 0)
(0.214468 0.0465296 0)
(0.286298 -0.0242724 0)
(0.285438 -0.0598774 0)
(0.236415 -0.0510967 0)
(0.179184 -0.0398452 0)
(0.134024 -0.0431963 0)
(0.110084 -0.0318967 0)
(0.106159 0.00713043 0)
(0.0971569 0.0440978 0)
(0.0614347 0.0455291 0)
(0.0274425 0.0553531 0)
(0.015786 0.0716369 0)
(0.0480683 0.0107784 0)
(0.0920487 -0.06888 0)
(-0.0566046 -0.0631741 0)
(-0.0435277 -0.0318212 0)
(0.0471695 -0.0181435 0)
(0.0155215 0.0166104 0)
(-0.203914 0.0308159 0)
(-0.261336 0.00385235 0)
(-0.279274 0.00878195 0)
(-0.393559 0.0361559 0)
(-0.503491 0.0179314 0)
(-0.43642 -0.0235786 0)
(-0.276968 -0.0376642 0)
(-0.153481 -0.0266622 0)
(-0.0728873 -0.0129022 0)
(-0.0337387 0.00236816 0)
(-0.0604664 0.0114103 0)
(-0.13355 0.0133858 0)
(-0.198207 0.015296 0)
(-0.221617 0.00695366 0)
(-0.196092 -0.00781585 0)
(-0.14269 -0.0159491 0)
(-0.0535067 -0.0249315 0)
(0.0152731 -0.0124327 0)
(-0.105721 0.0884563 0)
(-0.341238 0.0829744 0)
(-0.387465 0.0269898 0)
(-0.474014 0.0381095 0)
(-0.539187 0.0590824 0)
(-0.501774 0.000811436 0)
(-0.355181 -0.0782333 0)
(-0.225209 -0.0965375 0)
(-0.132287 -0.0675671 0)
(-0.086069 -0.035687 0)
(-0.0638288 -0.00203365 0)
(-0.0643543 0.0347939 0)
(-0.128292 0.0396032 0)
(-0.170618 0.0170833 0)
(-0.153331 -0.00878414 0)
(-0.138195 -0.0284481 0)
(-0.117099 -0.0469301 0)
(-0.0358574 -0.0723002 0)
(-0.0412839 0.0299387 0)
(-0.157235 0.150914 0)
(-0.257546 0.141343 0)
(-0.209128 0.0792694 0)
(-0.39229 0.0616008 0)
(-0.459548 0.0533768 0)
(-0.390254 -0.0348448 0)
(-0.279849 -0.134777 0)
(-0.175976 -0.14572 0)
(-0.119315 -0.0923575 0)
(-0.0920224 -0.0424385 0)
(-0.0796709 -0.00494797 0)
(-0.059761 0.0332263 0)
(-0.045536 0.0542866 0)
(-0.0302194 0.0303409 0)
(0.00125103 -0.000512086 0)
(-0.00586496 -0.0183589 0)
(-0.0507587 -0.0460426 0)
(-0.00195331 -0.0975556 0)
(-0.0720974 0.0763288 0)
(-0.15921 0.17754 0)
(-0.137377 0.142131 0)
(0.0660991 0.0968392 0)
(-0.174088 0.125962 0)
(-0.352656 0.0633333 0)
(-0.305129 -0.0613639 0)
(-0.213534 -0.178774 0)
(-0.161647 -0.176394 0)
(-0.150077 -0.105448 0)
(-0.12142 -0.0494044 0)
(-0.0946581 -0.0110926 0)
(-0.0685396 0.0185156 0)
(-0.0332213 0.030078 0)
(0.00619633 0.00670184 0)
(0.0290511 -0.0155824 0)
(0.0604322 -0.0121784 0)
(0.0197519 -0.0255405 0)
(0.0294041 -0.0935412 0)
(-0.0850046 0.119512 0)
(-0.11717 0.16899 0)
(0.0909602 0.0691436 0)
(0.211273 0.107838 0)
(0.0701569 0.208085 0)
(-0.223157 0.109336 0)
(-0.22373 -0.0722337 0)
(-0.156659 -0.202827 0)
(-0.181589 -0.179936 0)
(-0.203936 -0.107214 0)
(-0.173838 -0.0589221 0)
(-0.134897 -0.0218955 0)
(-0.0919125 0.00854855 0)
(-0.0534939 0.016381 0)
(-0.0279822 -0.0022411 0)
(-0.0181479 -0.0264617 0)
(0.0189939 -0.0205161 0)
(0.0303837 -0.0306872 0)
(0.0446144 -0.077884 0)
(-0.0861696 0.1579 0)
(-0.0540081 0.115752 0)
(0.216903 -0.0241319 0)
(0.299143 0.0892323 0)
(0.224413 0.276321 0)
(-0.0821999 0.183661 0)
(-0.140892 -0.0585302 0)
(-0.116626 -0.199692 0)
(-0.222227 -0.159712 0)
(-0.263006 -0.103605 0)
(-0.245768 -0.0725837 0)
(-0.20992 -0.0411784 0)
(-0.154659 -0.01336 0)
(-0.0977898 -0.00105889 0)
(-0.0627744 -0.00866316 0)
(-0.0533009 -0.0303608 0)
(-0.0250497 -0.034724 0)
(0.0205282 -0.0416223 0)
(0.0452887 -0.0630562 0)
(-0.0865617 0.177624 0)
(0.0319705 0.024509 0)
(0.155151 -0.0927756 0)
(0.166509 0.109438 0)
(0.227581 0.345836 0)
(0.0131387 0.253562 0)
(-0.0721605 -0.0363387 0)
(-0.106253 -0.168 0)
(-0.268778 -0.122839 0)
(-0.323199 -0.094643 0)
(-0.332508 -0.0811532 0)
(-0.306671 -0.0588911 0)
(-0.249018 -0.0386695 0)
(-0.183572 -0.0260177 0)
(-0.131694 -0.0251244 0)
(-0.0989297 -0.0396785 0)
(-0.0612322 -0.0548995 0)
(-0.00205781 -0.0647403 0)
(0.0357861 -0.0508375 0)
(-0.0672265 0.210071 0)
(0.0755295 -0.0245564 0)
(-0.0135633 -0.0713467 0)
(-0.0345356 0.114605 0)
(0.123736 0.378113 0)
(0.0506061 0.308971 0)
(-0.0195795 0.0154321 0)
(-0.136749 -0.113921 0)
(-0.315078 -0.0778555 0)
(-0.384324 -0.07333 0)
(-0.417938 -0.0742573 0)
(-0.405279 -0.0700578 0)
(-0.353522 -0.0613042 0)
(-0.284135 -0.0504986 0)
(-0.216655 -0.0432659 0)
(-0.161743 -0.0510168 0)
(-0.10998 -0.0690096 0)
(-0.0407893 -0.0827717 0)
(0.0201315 -0.0460385 0)
(0.0714555 0.0652657 0)
(0.155653 0.0130945 0)
(0.189654 -0.064586 0)
(0.167715 -0.0829049 0)
(0.0648913 -0.0576546 0)
(0.0733509 0.0483568 0)
(0.183352 0.0331819 0)
(0.274828 -0.0298677 0)
(0.274576 -0.0474985 0)
(0.191257 -0.0326049 0)
(0.118696 -0.00697018 0)
(0.0586225 0.00132249 0)
(0.0225302 -0.0225515 0)
(0.00824535 -0.0266425 0)
(0.0192628 0.0116571 0)
(0.0506554 0.0506036 0)
(0.0682738 0.0602699 0)
(0.0571428 0.0562935 0)
(0.0377479 0.0653332 0)
(-0.0219647 0.124682 0)
(-0.187688 0.120825 0)
(-0.246739 -0.0369279 0)
(-0.226857 -0.0526542 0)
(0.0576259 -0.0740384 0)
(0.119617 -0.0910911 0)
(0.115115 -0.0854164 0)
(0.0464688 -0.0490021 0)
(-0.0400733 -0.0195601 0)
(0.00901892 -0.0125511 0)
(0.0552407 -0.0650738 0)
(-0.0785603 -0.0308824 0)
(-0.210399 0.0629784 0)
(-0.246775 0.0806299 0)
(-0.231516 0.052353 0)
(-0.202192 0.0273529 0)
(-0.153117 0.008687 0)
(-0.125926 -0.0199195 0)
(-0.0870466 -0.0391628 0)
(-0.0470119 -0.0285727 0)
(-0.0336537 0.0163504 0)
(-0.0884844 0.101335 0)
(-0.245167 0.163023 0)
(-0.4011 0.151755 0)
(-0.502233 0.0488468 0)
(-0.516871 -0.0623645 0)
(-0.487714 -0.0626927 0)
(-0.0743601 -0.0829358 0)
(-0.3441 -0.0380162 0)
(-0.636281 0.0799227 0)
(-0.743855 0.0545784 0)
(-0.695389 -0.0110644 0)
(-0.493087 -0.00823769 0)
(-0.340302 0.0840442 0)
(-0.437642 0.15518 0)
(-0.708058 0.223563 0)
(-0.934109 0.059764 0)
(-0.899199 -0.0515028 0)
(-0.657763 -0.0717505 0)
(-0.412945 -0.125451 0)
(-0.256396 -0.0823103 0)
(-0.183781 -0.0620476 0)
(-0.197861 0.0131565 0)
(-0.263285 0.146976 0)
(-0.349044 0.251256 0)
(-0.484424 0.310912 0)
(-0.607102 0.291612 0)
(-0.690703 0.147001 0)
(-0.661192 -0.080096 0)
(-0.564385 -0.0761602 0)
(-0.375075 0.246593 0)
(-0.451644 0.321148 0)
(-0.912178 0.443159 0)
(-1.09627 0.0276565 0)
(-1.34382 -0.244858 0)
(-1.45049 -0.257458 0)
(-1.33231 0.0438113 0)
(-1.18084 0.373005 0)
(-1.10558 0.344019 0)
(-0.928375 0.115613 0)
(-0.78117 -0.0813453 0)
(-0.660093 -0.242873 0)
(-0.627994 -0.410927 0)
(-0.574109 -0.225523 0)
(-0.460973 -0.07196 0)
(-0.435062 0.108265 0)
(-0.43398 0.244979 0)
(-0.4582 0.340025 0)
(-0.536181 0.445482 0)
(-0.633289 0.435631 0)
(-0.587027 0.223844 0)
(-0.554298 -0.118351 0)
(-0.672745 -0.199791 0)
(-0.551708 0.798576 0)
(-0.736189 0.758174 0)
(-1.00876 0.762478 0)
(-1.17092 0.351875 0)
(-1.40447 -0.00262317 0)
(-1.55586 -0.186471 0)
(-1.54665 -0.151175 0)
(-1.43482 -0.042546 0)
(-1.26759 -0.00854397 0)
(-1.0862 -0.123944 0)
(-0.907808 -0.2442 0)
(-0.736415 -0.355729 0)
(-0.554912 -0.385457 0)
(-0.347858 -0.260487 0)
(-0.212205 -0.227526 0)
(-0.339069 -0.0568283 0)
(-0.583748 0.171415 0)
(-0.693115 0.37423 0)
(-0.674943 0.560253 0)
(-0.643994 0.422028 0)
(-0.471659 0.121221 0)
(-0.361731 -0.0867213 0)
(-0.318214 -0.0713029 0)
(-0.378712 1.21328 0)
(-0.644251 1.03756 0)
(-0.875034 0.922963 0)
(-1.00649 0.527681 0)
(-1.1979 0.239665 0)
(-1.37177 0.0604877 0)
(-1.43165 -0.0202156 0)
(-1.36285 -0.0793161 0)
(-1.2282 -0.198562 0)
(-1.06886 -0.347727 0)
(-0.920288 -0.493639 0)
(-0.787447 -0.611681 0)
(-0.636743 -0.659121 0)
(-0.403964 -0.506158 0)
(-0.146754 -0.140124 0)
(-0.162443 0.119128 0)
(-0.191266 0.379335 0)
(-0.306196 0.394441 0)
(-0.610192 0.466637 0)
(-0.480089 0.234262 0)
(-0.434303 -0.137215 0)
(-0.382202 -0.227672 0)
(-0.382849 0.0513572 0)
(-0.246576 1.61373 0)
(-0.45401 1.29928 0)
(-0.667464 1.04695 0)
(-0.787418 0.631281 0)
(-0.939563 0.322853 0)
(-1.03686 0.0948971 0)
(-1.06107 -0.0567588 0)
(-1.02698 -0.152903 0)
(-0.937339 -0.251561 0)
(-0.827542 -0.396565 0)
(-0.7451 -0.563464 0)
(-0.68258 -0.694932 0)
(-0.609274 -0.821985 0)
(-0.469257 -0.790384 0)
(-0.199901 -0.443255 0)
(0.0545284 0.154885 0)
(-0.115752 0.512054 0)
(0.00514435 0.601698 0)
(-0.332086 0.536219 0)
(-0.118605 0.314216 0)
(-0.210625 -0.0560111 0)
(-0.292902 -0.203371 0)
(-0.344281 0.0956814 0)
(-0.167251 1.89658 0)
(-0.276577 1.52978 0)
(-0.446226 1.19512 0)
(-0.531844 0.763575 0)
(-0.634535 0.424407 0)
(-0.67375 0.145837 0)
(-0.666532 -0.0879477 0)
(-0.622547 -0.264581 0)
(-0.559006 -0.389634 0)
(-0.495437 -0.491462 0)
(-0.444326 -0.588297 0)
(-0.420538 -0.682581 0)
(-0.427698 -0.832215 0)
(-0.42678 -0.937779 0)
(-0.277878 -0.731339 0)
(0.0410059 0.0661512 0)
(-0.0152469 0.537713 0)
(0.0340526 0.667402 0)
(0.00735219 0.595387 0)
(0.132756 0.351699 0)
(0.0837416 0.0804533 0)
(-0.139417 -0.133733 0)
(-0.267817 0.133824 0)
(-0.0806324 2.07237 0)
(-0.0896805 1.65122 0)
(-0.265982 1.2871 0)
(-0.264118 0.859787 0)
(-0.302556 0.482926 0)
(-0.267332 0.1747 0)
(-0.223365 -0.0762528 0)
(-0.181086 -0.2675 0)
(-0.158282 -0.41194 0)
(-0.160657 -0.531784 0)
(-0.165424 -0.629127 0)
(-0.173325 -0.695452 0)
(-0.193046 -0.760722 0)
(-0.2779 -0.907965 0)
(-0.203828 -0.864289 0)
(-0.196503 -0.241651 0)
(0.139083 0.539246 0)
(-0.0484982 0.629915 0)
(0.0707969 0.431557 0)
(0.18992 0.330383 0)
(0.188142 0.204907 0)
(-0.0880587 0.0473764 0)
(-0.281461 0.264515 0)
(0.0613973 2.03339 0)
(0.173817 1.83963 0)
(-0.0451012 1.31647 0)
(-0.00455877 0.853363 0)
(0.0188528 0.438549 0)
(0.0962389 0.110237 0)
(0.161233 -0.121347 0)
(0.197584 -0.270566 0)
(0.185885 -0.378734 0)
(0.12698 -0.47911 0)
(0.074464 -0.589901 0)
(0.0195593 -0.682705 0)
(-0.00441466 -0.721722 0)
(-0.135165 -0.827008 0)
(-0.0545895 -0.869923 0)
(-0.27547 -0.393544 0)
(0.155006 0.493006 0)
(-0.0207044 0.650303 0)
(0.0148446 0.281531 0)
(0.0867536 0.261528 0)
(0.141372 0.270152 0)
(-0.175552 0.262508 0)
(-0.372905 0.396782 0)
(0.225965 1.71043 0)
(0.492775 1.96743 0)
(0.375999 1.43723 0)
(0.350179 0.860741 0)
(0.362885 0.371359 0)
(0.397794 0.0177267 0)
(0.428082 -0.182555 0)
(0.433361 -0.282487 0)
(0.394216 -0.348738 0)
(0.316741 -0.427694 0)
(0.262967 -0.532542 0)
(0.192841 -0.621936 0)
(0.113612 -0.659606 0)
(-0.00530377 -0.755485 0)
(0.0566377 -0.77454 0)
(-0.270192 -0.354844 0)
(-0.00208588 0.342717 0)
(0.097622 0.719996 0)
(0.0925089 0.325825 0)
(0.0189525 0.236364 0)
(-0.00306318 0.451538 0)
(-0.300007 0.452663 0)
(-0.336905 0.403364 0)
(0.304774 1.16346 0)
(0.723997 1.80663 0)
(0.820999 1.52259 0)
(0.802336 0.95153 0)
(0.749292 0.407034 0)
(0.681579 0.0225042 0)
(0.618694 -0.176501 0)
(0.560813 -0.259555 0)
(0.497699 -0.308416 0)
(0.444754 -0.36469 0)
(0.401161 -0.461063 0)
(0.329951 -0.542254 0)
(0.208968 -0.571068 0)
(0.120002 -0.703338 0)
(0.131364 -0.629247 0)
(-0.202096 -0.24223 0)
(-0.143275 0.00435976 0)
(0.154245 0.571663 0)
(0.226394 0.426215 0)
(0.0351938 0.351279 0)
(-0.105738 0.626397 0)
(-0.403559 0.560424 0)
(-0.241526 0.352847 0)
(0.215189 0.579349 0)
(0.715225 1.38206 0)
(1.00654 1.40082 0)
(1.08908 0.991627 0)
(1.03553 0.504686 0)
(0.91472 0.131357 0)
(0.778712 -0.0917354 0)
(0.663504 -0.184009 0)
(0.590715 -0.214935 0)
(0.54369 -0.296659 0)
(0.500812 -0.399281 0)
(0.422677 -0.451502 0)
(0.304035 -0.481049 0)
(0.237293 -0.616784 0)
(0.212415 -0.496833 0)
(-0.0776124 -0.0750728 0)
(-0.19867 -0.00370079 0)
(0.0110967 0.319588 0)
(0.186461 0.446823 0)
(-0.0136975 0.558781 0)
(-0.210013 0.807535 0)
(-0.493816 0.6518 0)
(-0.492296 0.516669 0)
(0.0571274 0.222665 0)
(0.496385 0.91567 0)
(0.866089 1.11801 0)
(1.0573 0.918906 0)
(1.07498 0.57215 0)
(0.983892 0.257566 0)
(0.849838 0.0591908 0)
(0.736263 -0.0494162 0)
(0.673716 -0.163481 0)
(0.633067 -0.273296 0)
(0.575032 -0.345313 0)
(0.473993 -0.354718 0)
(0.382355 -0.409397 0)
(0.318416 -0.53759 0)
(0.294442 -0.406845 0)
(0.126358 0.0688078 0)
(-0.171432 -0.00289718 0)
(-0.119163 0.207298 0)
(0.0231057 0.494759 0)
(-0.121242 0.795576 0)
(-0.338077 1.01858 0)
(-0.562007 0.771907 0)
(-0.723243 0.712577 0)
(-0.0336909 0.0898374 0)
(0.245341 0.563075 0)
(0.579945 0.81192 0)
(0.81976 0.774003 0)
(0.915854 0.576501 0)
(0.881724 0.363386 0)
(0.806306 0.174187 0)
(0.760855 0.000857439 0)
(0.727213 -0.125216 0)
(0.672658 -0.211539 0)
(0.589067 -0.248084 0)
(0.489162 -0.246458 0)
(0.406724 -0.358598 0)
(0.365903 -0.472705 0)
(0.302504 -0.32793 0)
(0.235902 0.26295 0)
(-0.064137 0.189894 0)
(-0.179825 0.135314 0)
(-0.130578 0.535079 0)
(-0.179253 0.985757 0)
(-0.355751 1.21866 0)
(-0.475311 0.995194 0)
(-0.593551 0.844674 0)
(-0.0624966 0.0429727 0)
(0.0673587 0.314198 0)
(0.329163 0.5227 0)
(0.570731 0.580555 0)
(0.718762 0.511973 0)
(0.763243 0.366816 0)
(0.750493 0.183974 0)
(0.723918 0.025843 0)
(0.6758 -0.0732119 0)
(0.581367 -0.131903 0)
(0.497388 -0.141474 0)
(0.443696 -0.180387 0)
(0.409538 -0.315079 0)
(0.375825 -0.412643 0)
(0.252771 -0.235491 0)
(0.188812 0.452632 0)
(-0.0192769 0.399653 0)
(-0.173339 0.191009 0)
(-0.188834 0.49341 0)
(-0.128175 1.01879 0)
(-0.117973 1.28664 0)
(-0.105157 1.16468 0)
(-0.113831 0.907378 0)
(-0.0812963 0.0820395 0)
(-0.0132533 0.16933 0)
(0.192499 0.272747 0)
(0.417151 0.389599 0)
(0.572325 0.407269 0)
(0.639775 0.321676 0)
(0.643189 0.183287 0)
(0.57193 0.0782372 0)
(0.491511 0.0250354 0)
(0.38937 -0.0636753 0)
(0.38005 -0.105442 0)
(0.355615 -0.182684 0)
(0.374942 -0.296617 0)
(0.31133 -0.327644 0)
(0.119693 -0.0593708 0)
(0.0629997 0.569169 0)
(-0.0165537 0.524378 0)
(-0.11709 0.328421 0)
(-0.140499 0.435599 0)
(-0.0284041 0.847848 0)
(0.221364 1.13155 0)
(0.334097 1.14133 0)
(0.449006 0.871425 0)
(-0.0816409 0.132884 0)
(0.0332481 0.0225318 0)
(0.167221 -0.000216805 0)
(0.325348 0.192428 0)
(0.407906 0.304098 0)
(0.415645 0.294193 0)
(0.362891 0.233823 0)
(0.304562 0.145053 0)
(0.290091 0.0657146 0)
(0.224893 0.00462772 0)
(0.237398 -0.0888404 0)
(0.283494 -0.195931 0)
(0.262653 -0.267124 0)
(0.140898 -0.178407 0)
(-0.100665 0.152535 0)
(-0.02928 0.572218 0)
(0.00994162 0.576993 0)
(-0.0121753 0.40668 0)
(-0.0357443 0.424804 0)
(0.0394725 0.617836 0)
(0.322809 0.849603 0)
(0.522748 0.916737 0)
(0.706418 0.721392 0)
(-0.0520236 0.146391 0)
(0.0861083 -0.0945226 0)
(0.0533535 -0.0858879 0)
(0.115149 0.211944 0)
(0.0374185 0.352928 0)
(-0.0175358 0.363653 0)
(-0.0132358 0.25634 0)
(0.0436165 0.202764 0)
(0.0588307 0.0928422 0)
(0.190918 -0.0327519 0)
(0.229457 -0.148022 0)
(0.186723 -0.200794 0)
(0.0106655 -0.126695 0)
(-0.143599 0.0255858 0)
(-0.16269 0.165635 0)
(-0.0696218 0.439314 0)
(0.0521885 0.518834 0)
(0.109211 0.414556 0)
(0.141806 0.413478 0)
(0.198825 0.496078 0)
(0.380435 0.609451 0)
(0.604377 0.653114 0)
(0.80616 0.523132 0)
(-0.0137556 0.138039 0)
(0.034475 -0.109417 0)
(-0.120141 0.0140849 0)
(-0.232767 0.375009 0)
(-0.339021 0.440942 0)
(-0.267505 0.333708 0)
(-0.153949 0.174785 0)
(0.0318146 0.0640959 0)
(0.133982 -0.076327 0)
(0.0992384 -0.157182 0)
(-0.00914976 -0.0392078 0)
(-0.168343 0.00668946 0)
(-0.18142 -0.00181479 0)
(-0.194312 0.0135125 0)
(-0.168723 0.112119 0)
(-0.076567 0.270829 0)
(0.0761127 0.367441 0)
(0.196579 0.342602 0)
(0.295015 0.346401 0)
(0.40342 0.389158 0)
(0.558076 0.437961 0)
(0.76777 0.444913 0)
(0.994372 0.343791 0)
(-0.0113315 0.126246 0)
(-0.0420259 -0.0191369 0)
(-0.254278 0.192264 0)
(-0.40204 0.484695 0)
(-0.379305 0.356337 0)
(-0.193503 0.122795 0)
(-0.016238 -0.044593 0)
(0.013377 -0.0811045 0)
(-0.157562 0.0827952 0)
(-0.331156 0.0863125 0)
(-0.290671 0.0374252 0)
(-0.235477 -0.0386691 0)
(-0.199283 -0.0346781 0)
(-0.193386 -0.0024934 0)
(-0.170013 0.0569312 0)
(-0.0935754 0.141236 0)
(0.0413626 0.202466 0)
(0.178984 0.207623 0)
(0.309383 0.21336 0)
(0.453048 0.231649 0)
(0.623282 0.244924 0)
(0.824116 0.224339 0)
(1.03015 0.137687 0)
(0.0222926 0.213336 0)
(-0.00794765 0.146207 0)
(-0.246097 0.323411 0)
(-0.337758 0.533208 0)
(-0.223162 0.206019 0)
(-0.0644113 -0.0689018 0)
(-0.126399 0.0222899 0)
(-0.388466 0.219396 0)
(-0.467825 0.177647 0)
(-0.398911 -0.00063264 0)
(-0.297507 -0.0921824 0)
(-0.232063 -0.0908334 0)
(-0.180307 -0.04768 0)
(-0.153871 -0.00749254 0)
(-0.138648 0.0278381 0)
(-0.100397 0.0583132 0)
(-0.0169545 0.0773751 0)
(0.0916527 0.074193 0)
(0.207065 0.0692483 0)
(0.335709 0.0647488 0)
(0.48135 0.0501409 0)
(0.642233 0.0121615 0)
(0.79808 -0.0611377 0)
(0.124679 0.0616439 0)
(0.164566 0.298875 0)
(-0.156313 0.458282 0)
(-0.207454 0.521697 0)
(-0.100174 0.0853623 0)
(-0.135421 0.0162055 0)
(-0.405207 0.30716 0)
(-0.587872 0.323198 0)
(-0.526423 0.0976746 0)
(-0.435536 -0.0957019 0)
(-0.372613 -0.166718 0)
(-0.313239 -0.16637 0)
(-0.246798 -0.113668 0)
(-0.180047 -0.0463745 0)
(-0.122251 0.00797865 0)
(-0.0787654 0.0209472 0)
(-0.0205777 0.00388445 0)
(0.0591958 -0.0143838 0)
(0.145771 -0.0317271 0)
(0.239154 -0.0511066 0)
(0.342898 -0.0791129 0)
(0.456245 -0.121655 0)
(0.570518 -0.184543 0)
(-0.00427628 -0.0784343 0)
(0.175239 0.347098 0)
(-0.101095 0.62 0)
(-0.129302 0.51548 0)
(-0.0841361 0.0924944 0)
(-0.266564 0.254288 0)
(-0.56293 0.501485 0)
(-0.607201 0.303001 0)
(-0.54018 0.0168727 0)
(-0.509901 -0.148794 0)
(-0.481921 -0.2127 0)
(-0.443147 -0.21602 0)
(-0.384179 -0.182849 0)
(-0.296127 -0.128104 0)
(-0.184189 -0.0671006 0)
(-0.0780277 -0.038087 0)
(0.00634057 -0.0631253 0)
(0.0781867 -0.0869298 0)
(0.145263 -0.109407 0)
(0.210144 -0.134628 0)
(0.277104 -0.167624 0)
(0.346595 -0.213654 0)
(0.417117 -0.276445 0)
(-0.044331 -0.147476 0)
(0.0835414 0.447013 0)
(-0.146704 0.771305 0)
(-0.110773 0.496531 0)
(-0.118757 0.195992 0)
(-0.368343 0.541078 0)
(-0.596441 0.610805 0)
(-0.591414 0.295469 0)
(-0.592669 0.00257829 0)
(-0.61277 -0.162162 0)
(-0.612218 -0.231399 0)
(-0.58676 -0.23978 0)
(-0.508305 -0.249321 0)
(-0.378884 -0.245549 0)
(-0.227432 -0.210023 0)
(-0.0789453 -0.163579 0)
(0.0448897 -0.150161 0)
(0.123421 -0.148919 0)
(0.177653 -0.160046 0)
(0.217108 -0.181781 0)
(0.250921 -0.214504 0)
(0.283004 -0.261014 0)
(0.314382 -0.324882 0)
(-0.0596253 -0.0949725 0)
(-0.0491117 0.561007 0)
(-0.209613 0.807786 0)
(-0.119235 0.459756 0)
(-0.167799 0.348666 0)
(-0.400919 0.770183 0)
(-0.551834 0.678226 0)
(-0.56304 0.324101 0)
(-0.62107 0.036431 0)
(-0.670429 -0.143804 0)
(-0.691651 -0.235725 0)
(-0.643747 -0.310532 0)
(-0.517494 -0.382616 0)
(-0.352464 -0.409278 0)
(-0.186065 -0.378967 0)
(-0.032297 -0.318151 0)
(0.0955613 -0.259632 0)
(0.179055 -0.213981 0)
(0.225225 -0.195113 0)
(0.24253 -0.201895 0)
(0.245671 -0.228667 0)
(0.244709 -0.271921 0)
(0.2403 -0.331198 0)
(-0.0525939 -0.0355571 0)
(-0.13058 0.662356 0)
(-0.224576 0.779493 0)
(-0.123854 0.448276 0)
(-0.188092 0.505665 0)
(-0.353151 0.915085 0)
(-0.439409 0.739577 0)
(-0.472708 0.380434 0)
(-0.550866 0.0915333 0)
(-0.613183 -0.115659 0)
(-0.633554 -0.269439 0)
(-0.569929 -0.425154 0)
(-0.435797 -0.551115 0)
(-0.264397 -0.595127 0)
(-0.0924806 -0.548821 0)
(0.0589383 -0.457927 0)
(0.170734 -0.362043 0)
(0.24247 -0.274252 0)
(0.275418 -0.217168 0)
(0.272805 -0.198232 0)
(0.248866 -0.213538 0)
(0.219807 -0.2515 0)
(0.18738 -0.300954 0)
(-0.0427162 0.0241263 0)
(-0.13164 0.76596 0)
(-0.207056 0.733629 0)
(-0.12186 0.447383 0)
(-0.170787 0.61357 0)
(-0.236151 0.975876 0)
(-0.250781 0.800337 0)
(-0.286521 0.462606 0)
(-0.357694 0.174523 0)
(-0.420118 -0.0648645 0)
(-0.431525 -0.296486 0)
(-0.381681 -0.523785 0)
(-0.27353 -0.704753 0)
(-0.131708 -0.775802 0)
(0.0239101 -0.719435 0)
(0.164012 -0.588603 0)
(0.262445 -0.444454 0)
(0.311915 -0.313527 0)
(0.320815 -0.219514 0)
(0.296302 -0.173135 0)
(0.250138 -0.175327 0)
(0.200822 -0.209875 0)
(0.153848 -0.252699 0)
(-0.0672191 0.0904423 0)
(-0.0536879 0.867303 0)
(-0.170685 0.712549 0)
(-0.119819 0.451366 0)
(-0.147124 0.643151 0)
(-0.104171 0.94028 0)
(-0.0202898 0.823653 0)
(-0.0283374 0.532003 0)
(-0.0760045 0.247978 0)
(-0.121672 -0.0217209 0)
(-0.144503 -0.29017 0)
(-0.125589 -0.565509 0)
(-0.0556092 -0.805828 0)
(0.0373741 -0.912071 0)
(0.148208 -0.86135 0)
(0.254231 -0.703626 0)
(0.332959 -0.51091 0)
(0.363033 -0.329926 0)
(0.347668 -0.196736 0)
(0.301682 -0.126894 0)
(0.238973 -0.12079 0)
(0.178521 -0.157351 0)
(0.128924 -0.202715 0)
(-0.119527 0.125245 0)
(0.0785621 0.924575 0)
(-0.086349 0.771987 0)
(-0.0843707 0.478937 0)
(-0.132162 0.590505 0)
(-0.016251 0.796851 0)
(0.159155 0.75072 0)
(0.216424 0.554585 0)
(0.202664 0.30895 0)
(0.175474 0.0282544 0)
(0.13294 -0.253095 0)
(0.115349 -0.563331 0)
(0.151814 -0.855286 0)
(0.196069 -0.992439 0)
(0.247146 -0.949725 0)
(0.304877 -0.781404 0)
(0.350527 -0.554592 0)
(0.361648 -0.328448 0)
(0.331397 -0.156145 0)
(0.273734 -0.0674732 0)
(0.205154 -0.0588185 0)
(0.144377 -0.102753 0)
(0.0999379 -0.156858 0)
(-0.144841 0.147478 0)
(0.134393 0.846755 0)
(0.0779655 0.868457 0)
(0.0284621 0.569349 0)
(-0.054043 0.54097 0)
(0.0408683 0.608328 0)
(0.233585 0.586268 0)
(0.343871 0.489585 0)
(0.375203 0.31559 0)
(0.364027 0.0707687 0)
(0.317494 -0.210721 0)
(0.281437 -0.544296 0)
(0.292146 -0.868725 0)
(0.289773 -1.02109 0)
(0.281794 -0.982011 0)
(0.287714 -0.812598 0)
(0.295853 -0.567793 0)
(0.288689 -0.310542 0)
(0.254321 -0.108921 0)
(0.20128 -0.00707925 0)
(0.143279 -0.00125133 0)
(0.0962746 -0.0559522 0)
(0.0651047 -0.118251 0)
(-0.0935892 0.196839 0)
(0.0270058 0.601076 0)
(0.232811 0.890239 0)
(0.181283 0.659401 0)
(0.117927 0.55147 0)
(0.135538 0.490335 0)
(0.26005 0.435184 0)
(0.369855 0.3875 0)
(0.423785 0.281728 0)
(0.426856 0.0894669 0)
(0.383342 -0.171147 0)
(0.353159 -0.523057 0)
(0.349869 -0.856182 0)
(0.298064 -0.996508 0)
(0.234997 -0.958303 0)
(0.193681 -0.796719 0)
(0.168591 -0.549943 0)
(0.149077 -0.279098 0)
(0.122756 -0.0660437 0)
(0.0897679 0.0361691 0)
(0.0569566 0.0350457 0)
(0.0389544 -0.0283893 0)
(0.0287456 -0.0929875 0)
(0.00226106 0.263218 0)
(-0.0376129 0.432678 0)
(0.204204 0.764876 0)
(0.27484 0.697719 0)
(0.245097 0.576608 0)
(0.22612 0.443936 0)
(0.290291 0.357292 0)
(0.35943 0.319272 0)
(0.397777 0.251565 0)
(0.397991 0.102851 0)
(0.361203 -0.144628 0)
(0.354549 -0.512176 0)
(0.335036 -0.814582 0)
(0.230001 -0.918428 0)
(0.125818 -0.885252 0)
(0.0486668 -0.740447 0)
(-0.00153639 -0.504716 0)
(-0.0254461 -0.242855 0)
(-0.0356299 -0.039534 0)
(-0.0353174 0.0507002 0)
(-0.0311714 0.0390332 0)
(-0.0135704 -0.0283107 0)
(-0.00603232 -0.0850186 0)
(0.0435935 0.224256 0)
(0.0132517 0.412301 0)
(0.0759138 0.605139 0)
(0.199216 0.655401 0)
(0.201291 0.574648 0)
(0.190797 0.401877 0)
(0.253504 0.284164 0)
(0.312374 0.280408 0)
(0.333876 0.239292 0)
(0.323179 0.116911 0)
(0.306723 -0.141917 0)
(0.322204 -0.501602 0)
(0.273693 -0.732861 0)
(0.123507 -0.795871 0)
(0.00282022 -0.781568 0)
(-0.0982666 -0.656868 0)
(-0.161827 -0.4442 0)
(-0.180788 -0.214835 0)
(-0.166754 -0.0431426 0)
(-0.136329 0.0272087 0)
(-0.0982751 0.0074479 0)
(-0.0530747 -0.0519713 0)
(-0.0348497 -0.0903003 0)
(0.0729255 0.162425 0)
(0.105741 0.394758 0)
(0.107169 0.559698 0)
(0.136377 0.626623 0)
(0.129022 0.581773 0)
(0.135119 0.392382 0)
(0.159517 0.2269 0)
(0.217037 0.241922 0)
(0.252022 0.234013 0)
(0.241773 0.123595 0)
(0.26336 -0.162027 0)
(0.280079 -0.475249 0)
(0.198989 -0.617541 0)
(0.0312995 -0.656375 0)
(-0.0862211 -0.669104 0)
(-0.196374 -0.56529 0)
(-0.257638 -0.391207 0)
(-0.268685 -0.207938 0)
(-0.238339 -0.0775569 0)
(-0.185214 -0.0310754 0)
(-0.122268 -0.0515883 0)
(-0.0731102 -0.0863494 0)
(-0.0523222 -0.103033 0)
(0.0711809 0.034503 0)
(0.211099 0.340462 0)
(0.21553 0.559712 0)
(0.200307 0.633132 0)
(0.178639 0.586681 0)
(0.179253 0.39808 0)
(0.182917 0.209185 0)
(0.176084 0.208196 0)
(0.187611 0.236764 0)
(0.185133 0.109271 0)
(0.243601 -0.193073 0)
(0.238049 -0.424898 0)
(0.141423 -0.488726 0)
(-0.0118455 -0.526819 0)
(-0.114593 -0.561173 0)
(-0.216658 -0.482912 0)
(-0.267865 -0.355778 0)
(-0.271908 -0.22378 0)
(-0.233407 -0.134411 0)
(-0.173335 -0.10431 0)
(-0.114136 -0.111193 0)
(-0.0781217 -0.117313 0)
(-0.0589577 -0.118585 0)
(0.0771943 -0.138955 0)
(0.238931 0.222523 0)
(0.312903 0.552616 0)
(0.300162 0.658898 0)
(0.271934 0.599588 0)
(0.262265 0.42286 0)
(0.240868 0.236845 0)
(0.181014 0.22164 0)
(0.134035 0.255703 0)
(0.165322 0.0638671 0)
(0.234234 -0.214965 0)
(0.199389 -0.361652 0)
(0.11466 -0.3774 0)
(-0.00324915 -0.41785 0)
(-0.0844262 -0.469212 0)
(-0.170408 -0.417566 0)
(-0.208408 -0.335288 0)
(-0.209297 -0.249207 0)
(-0.175964 -0.19057 0)
(-0.131577 -0.164196 0)
(-0.0954973 -0.151494 0)
(-0.0736542 -0.139944 0)
(-0.0579646 -0.133495 0)
(0.0788433 -0.283401 0)
(0.150732 0.095179 0)
(0.293007 0.535943 0)
(0.306563 0.662951 0)
(0.292881 0.611432 0)
(0.284518 0.448218 0)
(0.23066 0.281316 0)
(0.128868 0.293049 0)
(0.0855629 0.255645 0)
(0.169239 -0.00187606 0)
(0.216145 -0.215326 0)
(0.162658 -0.298341 0)
(0.106263 -0.29866 0)
(0.0316408 -0.333634 0)
(-0.02625 -0.396821 0)
(-0.0972302 -0.366976 0)
(-0.125277 -0.319001 0)
(-0.130545 -0.265247 0)
(-0.113651 -0.223057 0)
(-0.0931524 -0.194307 0)
(-0.0772518 -0.171809 0)
(-0.0637387 -0.155543 0)
(-0.0521483 -0.145739 0)
(0.0584184 -0.36657 0)
(0.0464935 0.0450542 0)
(0.155759 0.474216 0)
(0.198974 0.661864 0)
(0.208926 0.587592 0)
(0.200107 0.441897 0)
(0.108639 0.359871 0)
(0.0286276 0.367155 0)
(0.0732101 0.200258 0)
(0.176089 -0.0611752 0)
(0.180545 -0.197446 0)
(0.126864 -0.247023 0)
(0.0964706 -0.253728 0)
(0.0597683 -0.278632 0)
(0.0206109 -0.339009 0)
(-0.0358946 -0.324379 0)
(-0.0600255 -0.298213 0)
(-0.0719146 -0.264667 0)
(-0.0709527 -0.231239 0)
(-0.0659852 -0.203597 0)
(-0.0592732 -0.18195 0)
(-0.0507935 -0.166159 0)
(-0.0430336 -0.154703 0)
(0.0283447 -0.409141 0)
(0.000397639 0.0484096 0)