/*--------------------------------*- C++ -*----------------------------------*\
| =========                 |                                                 |
| \\      /  F ield         | OpenFOAM: The Open Source CFD Toolbox           |
|  \\    /   O peration     | Version:  2.3.0                                 |
|   \\  /    A nd           | Web:      www.OpenFOAM.org                      |
|    \\/     M anipulation  |                                                 |
\*---------------------------------------------------------------------------*/
FoamFile
{
    version     2.0;
    format      ascii;
    class       volScalarField;
    location    "0.018";
    object      alpha.water;
}
// * * * * * * * * * * * * * * * * * * * * * * * * * * * * * * * * * * * * * //

dimensions      [0 0 0 0 0 0 0];

internalField   nonuniform List<scalar> 
725
(
1
1
1
1
0.999781
1
1
1
1
1
1
1
1
1
1
1
1
1
1.00006
1.00001
1
1
1
1.00001
0.979924
0.997627
0.998299
0.999861
0.999857
0.999891
0.9999
0.515014
0.404881
0.40488
0.404881
0.558124
0.964606
0.994543
0.995414
0.999671
0.999689
0.999809
0.99993
0.999999
1.00001
0.973558
0.935774
0.93578
0.935779
0.935778
0.978221
0.999657
0.992788
0.981673
0.9816
0.982711
0.997606
0.999447
0.999661
1.00003
1.00003
1.00003
1.00002
0.99996
0.999937
0.999926
0.999928
0.99994
0.998214
0.995596
0.984976
0.926475
0.961337
0.998435
0.999898
0.99989
0.540744
0.404898
0.40488
0.404898
0.589814
0.972198
0.996173
0.996199
0.996205
0.998092
0.999825
0.999819
0.999938
1
0.99413
0.941354
0.93578
0.935778
0.935775
0.966978
1
1
0.997823
0.982073
0.981643
0.988057
0.999367
1.00009
1
0.999999
0.999988
0.999985
0.999959
0.999914
0.999834
0.999787
0.999743
0.99985
0.999791
0.983426
0.882803
0.916937
0.997321
0.999879
0.999883
0.611097
0.405038
0.404896
0.519983
0.786292
0.961266
0.996142
0.996171
0.993538
0.989063
0.996201
0.999836
0.999826
1.00002
0.999415
0.968499
0.935786
0.935776
0.935774
0.970231
0.999996
1.00012
1.00003
0.993285
0.981646
0.985293
0.998784
0.999753
0.999727
0.999934
0.999989
0.999995
1.00001
1.00001
0.999852
0.999527
0.999516
0.99959
0.999666
0.863185
0.86059
0.899303
0.996718
0.999824
0.999866
0.764248
0.405479
0.405038
0.585247
0.919086
0.943843
0.996122
0.996137
0.993362
0.986948
0.990695
0.999448
0.999582
0.99818
0.997062
0.997067
0.980314
0.936984
0.936468
0.98627
0.999895
0.999833
1.00001
0.999988
0.983684
0.983816
0.997149
0.999742
0.99961
0.999857
1.00007
0.998982
1
1
0.999802
0.999619
0.999432
0.999424
0.999465
0.441504
0.727059
0.859117
0.998891
0.999763
0.96136
0.731592
0.547154
0.417473
0.777248
0.913649
0.949125
0.965832
0.980416
0.982763
0.985082
0.993945
0.999374
0.997256
0.990663
0.990426
0.992137
0.994636
0.989155
0.973031
0.976983
0.996103
0.998815
0.996155
0.998823
0.987509
0.981476
0.991838
0.999816
0.999813
0.9999
0.999868
0.998872
0.979869
0.97668
0.988289
0.999345
0.99957
0.999528
0.999474
0.119964
0.567498
0.91941
0.999595
0.999745
0.976537
0.920776
0.909073
0.598849
0.86953
0.870307
0.970045
0.970301
0.953779
0.953379
0.978765
0.998713
0.999305
0.996101
0.990433
0.990426
0.99184
0.997915
0.999407
0.99833
0.996726
0.998361
0.998574
0.985227
0.982384
0.981228
0.981426
0.996446
0.999685
0.999642
0.999899
0.999901
0.999906
0.940758
0.814417
0.981866
0.999582
0.99959
0.998329
0.998955
0.0681326
0.530872
0.944895
0.999266
0.999503
0.955326
0.956141
0.955093
0.825635
0.93844
0.873495
0.970287
0.970331
0.953848
0.953363
0.981907
0.998967
0.998873
0.997098
0.990452
0.990426
0.993874
0.998295
0.999416
0.999393
0.998917
0.998843
0.9909
0.981181
0.981175
0.981189
0.981975
0.993246
0.999457
0.999582
0.999957
0.999976
0.999939
0.889965
0.645451
0.974428
0.99869
0.99887
0.995748
0.997308
0.00767386
0.360447
0.923924
0.998964
0.999251
0.91553
0.897937
0.900975
0.949427
0.945747
0.876915
0.970235
0.970335
0.955353
0.963022
0.983988
0.999339
0.999461
0.999391
0.992365
0.990435
0.995987
0.99915
0.996194
0.989065
0.986827
0.996669
0.981223
0.981171
0.981163
0.981171
0.982293
0.990969
0.998182
1.00001
1.00014
0.99557
0.999787
0.864435
0.588172
0.962333
0.997832
0.995003
0.994991
0.994995
0.0111172
0.492214
0.958103
0.998743
0.998946
0.909581
0.892104
0.892158
0.958425
0.920036
0.877717
0.968225
0.970337
0.966822
0.992417
0.990004
0.998601
0.999467
0.999283
0.996216
0.993314
0.997071
0.999864
0.99006
0.982918
0.982311
0.98151
0.981209
0.981171
0.981158
0.982405
0.984546
0.990304
0.998206
0.999969
0.999664
0.995291
0.999328
0.846252
0.585306
0.949282
0.996681
0.995941
0.996586
0.99534
0.0170114
0.436803
0.959957
0.998503
0.998744
0.971521
0.893168
0.892106
0.968196
0.904973
0.898432
0.90447
0.970317
0.954583
0.992523
0.991764
0.996077
0.999458
0.999246
0.999067
0.999111
0.999172
0.999865
0.987577
0.985744
0.997367
0.988109
0.988748
0.982166
0.981146
0.99024
0.988401
0.988634
0.996467
0.999962
0.998757
0.997725
0.99805
0.785062
0.568732
0.80767
0.996218
0.999651
0.999251
0.998771
1
1
1
1.00002
1.00001
1
1
1
1.00004
1
1
1
1
1.00002
1
1
1
1
1.00007
0.99974
1
1
1.00003
0.999563
0.973901
0.104721
0.433277
0.908428
0.994097
0.995203
0.994935
0.904043
0.908694
0.980434
0.900642
0.897461
0.806969
0.871099
0.941614
0.999512
0.997174
0.996031
0.999049
0.999821
0.999918
0.999944
0.999157
0.991531
0.986663
0.989693
0.999454
0.999933
0.999918
0.993527
0.989779
0.996639
0.996398
0.988916
0.990825
0.998891
0.998751
0.999984
0.947495
0.63263
0.568194
0.634109
0.991113
0.999934
0.999803
0.999625
0.199747
0.571421
0.780778
0.991929
0.993598
0.960213
0.902958
0.983851
0.997427
0.98491
0.877054
0.806894
0.806966
0.971663
0.999919
0.999918
0.999568
0.999674
0.999743
0.999835
0.999941
0.999941
0.988453
0.986665
0.98951
0.999344
0.999932
0.99987
0.999815
0.999822
0.99976
0.999742
0.998885
0.996255
0.996948
0.99972
0.999991
0.873875
0.569085
0.567992
0.567595
0.991738
0.999965
0.999812
0.999771
0.33288
0.672848
0.738727
0.994038
0.994038
0.938862
0.942145
0.99444
0.997427
0.997423
0.944981
0.806967
0.810737
0.971612
0.999918
0.999914
0.999864
0.999288
0.999239
0.999668
0.999944
0.99945
0.993931
0.993645
0.997931
0.999814
0.999773
0.999772
0.999764
0.999743
0.999678
0.999648
0.999722
0.999814
0.999606
0.99981
0.999994
0.814067
0.568068
0.56797
0.567924
0.972302
1.00001
1.00002
0.999885
0.643212
0.786286
0.794388
0.994038
0.994039
0.938705
0.986445
0.99743
0.997429
0.997423
0.961151
0.808106
0.816607
0.974854
0.999672
0.999483
0.999217
0.999171
0.999318
0.999534
0.999706
0.999805
0.999873
0.999879
0.999888
0.999876
0.999849
0.999826
0.999817
0.999806
0.999778
0.999741
0.999761
0.999805
0.999831
0.999923
0.999996
0.773423
0.568064
0.567997
0.567981
0.897792
0.999967
0.999754
0.999772
0.972857
0.842913
0.789764
0.979578
0.994042
0.970559
0.994279
0.997428
0.997425
0.997423
0.948035
0.809642
0.831335
0.987407
0.999645
0.999639
0.999718
0.999835
0.9999
0.999919
0.999939
0.999949
0.99995
0.99995
0.999944
0.999936
0.999926
0.999921
0.999924
0.99992
0.99991
0.99989
0.999907
0.999934
0.999957
0.999983
0.999995
0.730425
0.568064
0.568033
0.567998
0.889516
0.999832
0.999766
0.999634
)
;

boundaryField
{
    AirInlet
    {
        type            fixedValue;
        value           uniform 0;
    }
    WaterInlet
    {
        type            fixedValue;
        value           uniform 1;
    }
    ChannelWall
    {
        type            zeroGradient;
    }
    Outlet
    {
        type            inletOutlet;
        inletValue      uniform 0;
        value           nonuniform List<scalar> 
15
(
0.995596
0.999791
0.999666
0.999465
0.999474
0.998955
0.997308
0.994995
0.99534
0.998771
0.999625
0.999771
0.999885
0.999772
0.999634
)
;
    }
    FrontAndBack
    {
        type            empty;
    }
}


// ************************************************************************* //
