/*--------------------------------*- C++ -*----------------------------------*\
| =========                 |                                                 |
| \\      /  F ield         | OpenFOAM: The Open Source CFD Toolbox           |
|  \\    /   O peration     | Version:  2.3.0                                 |
|   \\  /    A nd           | Web:      www.OpenFOAM.org                      |
|    \\/     M anipulation  |                                                 |
\*---------------------------------------------------------------------------*/
FoamFile
{
    version     2.0;
    format      ascii;
    class       volScalarField;
    location    "0.018";
    object      alpha.water;
}
// * * * * * * * * * * * * * * * * * * * * * * * * * * * * * * * * * * * * * //

dimensions      [0 0 0 0 0 0 0];

internalField   nonuniform List<scalar> 
725
(
1
1
1
1.00001
0.999977
1
1
1
1
1.00003
1
1
1
1.00001
1.00002
1
1
1
1.00003
1.00001
1
1
1
1.00021
0.941267
0.999249
0.999929
0.999946
1.00008
1
0.977359
0.962872
0.99003
1
0.999826
0.999861
0.999879
0.999899
0.999919
0.999936
0.999948
0.999963
0.99998
1
1.00001
1.00001
1
0.984396
0.266077
0.000516662
0.000524116
0.000464602
0.000464284
0.309537
0.988324
0.999915
0.999913
0.999948
0.999973
0.999987
0.999994
0.999996
0.999997
0.999998
0.999999
0.999999
0.999999
0.999999
1
1
1
0.771511
0.96302
1
1
0.992008
0.962873
0.994181
1
0.999994
0.999844
0.999816
0.999808
0.999812
0.999818
0.999822
0.999831
0.999846
0.999871
0.999901
0.999955
1
1
0.34625
0.000486152
0.000466309
0.000464334
0.000464252
0.289831
0.989211
0.999902
0.999811
0.999757
0.999738
0.999742
0.999758
0.999778
0.999799
0.99982
0.999841
0.99986
0.999878
0.999895
0.99991
0.999923
0.936001
0.371277
0.54616
0.704236
0.962584
0.991054
0.962914
0.979453
1
0.999839
0.999828
0.999787
0.99974
0.999733
0.99979
0.999839
0.99983
0.99983
0.999844
0.999885
0.999938
1
0.987832
0.254276
0.000485429
0.00046575
0.000464284
0.000464032
0.247574
0.978025
0.99992
0.999891
0.999802
0.999749
0.999706
0.999668
0.999636
0.999609
0.999591
0.999581
0.99958
0.999588
0.999606
0.999632
0.999662
0.466008
0.0442922
0.00264112
0.172998
0.587369
0.991013
0.962957
0.977417
0.996875
0.999822
0.999784
0.99976
0.999664
0.999581
0.999577
0.999644
0.999726
0.999784
0.999822
0.999877
0.999934
0.999979
0.999982
0.4682
0.00523538
0.000470118
0.000464345
0.000463972
0.290247
0.958227
1
1.00004
0.999854
0.999803
0.999763
0.999723
0.999685
0.999648
0.99961
0.999572
0.999534
0.999499
0.999469
0.999448
0.999439
0.00234456
0.000148067
0.000158427
0.00600986
0.309164
0.90842
0.965716
0.999146
0.994694
0.998288
0.999791
0.999788
0.999644
0.999499
0.999418
0.999404
0.999465
0.999844
0.999881
0.999899
1.00003
1
0.913814
0.278887
0.0020896
0.00114254
0.000468968
0.000464583
0.323554
0.885602
0.999858
0.999703
0.999749
0.999783
0.999773
0.999746
0.999714
0.999678
0.99964
0.999599
0.999557
0.999516
0.999476
0.999438
0.999406
9.7693e-06
0.000142073
0.00015533
0.000347009
0.172014
0.864904
0.980611
0.999874
0.997947
0.996906
0.999646
0.99983
0.999621
0.99941
0.999337
0.999405
0.99954
0.999647
0.999741
0.999832
1.0001
1
0.964874
0.397636
0.00260161
0.00359569
0.000663888
0.000789766
0.298026
0.859084
0.999851
0.999442
0.999583
0.999719
0.999766
0.999754
0.999729
0.999697
0.999658
0.999615
0.99957
0.999524
0.99948
0.999439
0.999402
6.03162e-06
0.000471196
0.000417627
0.000612924
0.0703505
0.797593
0.997084
0.999972
0.999974
0.99852
0.999284
0.999685
0.999545
0.999291
0.999205
0.999297
0.999463
0.999612
0.999708
0.999798
1.00007
1
0.966176
0.354485
0.00251999
0.0029093
0.00284735
0.00138139
0.323341
0.849908
0.999768
0.999662
0.999636
0.999705
0.999802
0.99978
0.999754
0.999717
0.999675
0.99963
0.999585
0.99954
0.999496
0.999454
0.999413
0.0705538
0.000458649
0.000494623
0.000508098
0.0476311
0.705097
0.991472
0.999906
0.999775
0.999377
0.999775
0.999783
0.999482
0.999191
0.999123
0.99924
0.999414
0.999577
0.999687
0.999795
1.00011
1.00001
0.977098
0.360596
0.00100406
0.000854094
0.00236496
0.00162804
0.302083
0.825941
0.99975
0.99973
0.999708
0.999691
0.999689
0.999726
0.999726
0.999703
0.999665
0.999622
0.999575
0.99953
0.999487
0.999446
0.999409
0.533483
0.013602
0.000520099
0.000544785
0.0264527
0.492294
0.981629
0.999792
0.999691
0.999704
0.999918
0.99975
0.999404
0.99912
0.999065
0.999224
0.99946
0.999637
0.999719
0.999869
0.999939
1
0.973542
0.292858
0.000467706
0.000745939
0.000787052
0.0038653
0.290386
0.824359
0.999884
0.999744
0.999774
0.999741
0.999739
0.999746
0.999739
0.999716
0.999679
0.999634
0.999588
0.999543
0.999499
0.999457
0.999417
0.804758
0.0332306
0.000545697
0.000681635
0.0142977
0.402612
0.984459
0.995713
0.999875
0.999903
0.999882
0.999708
0.999344
0.999134
0.999128
0.999292
0.999494
0.999657
0.99975
0.999814
1.00001
1.00001
0.988072
0.375225
0.00073266
0.000726918
0.000739744
0.000806273
0.344217
0.801825
1.00001
1.00013
0.99988
0.999808
0.999784
0.999775
0.999761
0.999735
0.999698
0.999656
0.999612
0.999569
0.999525
0.999482
0.999439
1
1
1
1.00002
1.00001
1
1
1
1.00002
1.00001
1
1
1
1.00001
1.00001
1
1
1
0.999998
0.999995
1
1
1
1.00001
1.00001
0.977198
0.222831
0.000595205
0.00140549
0.00142844
0.124157
0.977447
0.983311
0.992169
0.999984
1.0001
0.999619
0.999352
0.999297
0.999411
0.99958
0.999782
0.999815
0.999822
0.999831
1.00001
1.00001
1
0.458531
0.000711917
0.000704935
0.000713394
0.0067602
0.460059
0.84322
0.999999
0.999994
0.999915
0.999876
0.999854
0.999828
0.999796
0.999761
0.999725
0.999691
0.999659
0.999629
0.999598
0.999566
0.999534
0.972755
0.41741
0.00315298
0.00150671
0.00143912
0.0726569
0.868733
0.999836
0.997724
0.999454
0.999634
0.999433
0.999418
0.999611
0.999863
0.999849
0.999827
0.999807
0.9998
0.999811
0.999964
1
1
0.46427
0.00154717
0.000699673
0.000705468
0.00155832
0.31936
0.895362
1
1
0.999941
0.999895
0.99985
0.999808
0.999768
0.999731
0.999697
0.999666
0.999638
0.999613
0.999591
0.999572
0.999558
1
0.670621
0.00851017
0.00143887
0.00143575
0.0117949
0.685603
1
0.999766
0.999487
0.999408
0.999489
0.99981
0.999894
0.999837
0.999804
0.999773
0.999764
0.999774
0.999826
0.999918
1.00001
0.987173
0.36614
0.000701229
0.000697848
0.000700282
0.000819991
0.213037
0.967548
1
0.999908
0.99989
0.999847
0.999802
0.999759
0.999722
0.999692
0.99967
0.999657
0.999651
0.999651
0.999655
0.999662
0.99967
1
0.747334
0.00981589
0.00143662
0.00143495
0.00143491
0.602414
0.999999
0.999763
0.999523
0.999649
0.999898
0.999861
0.999813
0.999772
0.999761
0.999779
0.99981
0.999835
0.999885
0.99994
1.00001
0.993249
0.36466
0.000697601
0.000697543
0.000698785
0.000708916
0.149271
0.98021
1
0.99989
0.999849
0.999817
0.999795
0.999783
0.999782
0.999788
0.999797
0.999808
0.999819
0.99983
0.99984
0.99985
0.99986
1
0.783243
0.0384376
0.00143493
0.00143491
0.00143491
0.542028
0.999998
0.99988
0.999774
0.999853
0.999869
0.999893
0.999933
0.999963
0.999976
0.999989
1.00001
1.00001
1.00002
1.00003
1
0.990165
0.353248
0.000697509
0.000697509
0.000707764
0.000707987
0.127614
0.978956
1
0.999949
0.999965
0.999978
0.999986
0.999991
0.999993
0.999995
0.999996
0.999996
0.999996
0.999997
0.999997
0.999996
0.999995
)
;

boundaryField
{
    AirInlet
    {
        type            fixedValue;
        value           uniform 0;
    }
    WaterInlet
    {
        type            fixedValue;
        value           uniform 1;
    }
    ChannelWall
    {
        type            zeroGradient;
    }
    Outlet
    {
        type            inletOutlet;
        inletValue      uniform 0;
        value           nonuniform List<scalar> 
15
(
1
0.999923
0.999662
0.999439
0.999406
0.999402
0.999413
0.999409
0.999417
0.999439
0.999534
0.999558
0.99967
0.99986
0.999995
)
;
    }
    FrontAndBack
    {
        type            empty;
    }
}


// ************************************************************************* //
