/*--------------------------------*- C++ -*----------------------------------*\
| =========                 |                                                 |
| \\      /  F ield         | OpenFOAM: The Open Source CFD Toolbox           |
|  \\    /   O peration     | Version:  2.3.0                                 |
|   \\  /    A nd           | Web:      www.OpenFOAM.org                      |
|    \\/     M anipulation  |                                                 |
\*---------------------------------------------------------------------------*/
FoamFile
{
    version     2.0;
    format      ascii;
    class       volScalarField;
    location    "0.018";
    object      p;
}
// * * * * * * * * * * * * * * * * * * * * * * * * * * * * * * * * * * * * * //

dimensions      [1 -1 -2 0 0 0 0];

internalField   nonuniform List<scalar> 
725
(
2408.04
2232.81
2180.13
2137.93
2072.11
2381.31
2235.08
2183.01
2143.01
2087.44
2366.68
2236.35
2184.96
2150.88
2147.1
2364.42
2233.31
2184.93
2157.39
2226.98
2372.63
2228.31
2184.32
2166.08
2400.66
1941.37
1375.13
938.54
661.667
628.813
616.008
964.575
1163.96
1128.5
914.744
827.264
198.023
194.611
190.043
172.93
169.351
156.085
161.227
167.454
174.19
210.802
259.652
210.757
201.15
155.897
52.9618
29.4866
85.31
159.347
104.319
82.5537
102.87
78.2459
74.192
56.6731
78.9283
20.7372
108.04
31.3299
83.5481
106.484
38.0497
-1.5842
1.44995
12.2626
1964.75
1145.03
804.204
628.94
609.447
570.986
887.551
1169.38
1120.03
869.507
693.33
236.912
210.15
200.02
156.436
162.424
156.878
161.912
168.753
178.088
173.371
225.449
208.531
205.924
167.117
48.761
14.9586
79.3424
104.444
100.034
89.5284
73.3971
74.518
75.4235
57.3058
78.6525
21.5109
100.081
29.8464
78.0105
112.177
34.7561
-4.89481
-3.78889
-6.33053
2113.78
1079.47
834.305
583.563
586.537
573.744
729.311
1203.47
1109.94
734.717
341.414
274.371
220.979
217.2
146.235
168.627
160.358
162.941
169.582
180.855
198.07
190.374
203.943
216.237
177.567
10.4164
-2.4624
89.5728
122.551
99.5934
85.7277
78.8403
74.8625
75.3041
56.884
77.3127
21.5676
87.2639
28.5974
67.8312
126.123
22.5166
-12.8368
-3.94213
-9.69639
2404.64
868.003
854.962
535.787
563.868
489.55
562.255
1286.88
1085.19
732.982
582.4
357.077
210.912
234.483
120.975
173.915
194.616
166.323
169.761
175.945
183.496
173.977
189.221
230.509
191.939
-75.7163
-29.7847
102.261
133.253
158.293
74.6589
86.1959
71.9901
77.507
56.5059
73.6192
20.0459
78.6053
24.2238
42.3414
143.513
-4.01353
-25.0687
-2.08207
-14.9884
3379.01
786.373
768.601
505.689
551.695
329.354
749.95
895.028
905.837
606.766
473.364
371.969
282.565
228.535
59.0117
179.296
176.038
177.025
177.099
196.428
180.959
176.607
187.871
196.788
147.918
-144.06
-33.3625
126.386
127.493
146.694
99.1737
107.13
70.9074
84.2658
54.3402
67.9223
24.5055
55.3981
9.70455
6.23183
186.325
-39.4299
-41.6083
2.11623
-22.0958
4295.56
350.584
1039.84
480.664
558.222
338.488
746.955
935.538
630.22
573.561
855.328
553.044
303.804
341.085
689.917
296.312
210.185
183.182
203.463
207.06
183.939
175.993
193.523
229.813
254.233
793.745
70.8479
173.219
132.785
142.577
102.042
107.776
126.789
86.2887
58.3555
63.6322
32.7132
27.2056
34.4364
62.8735
224.092
-64.059
-53.1658
10.3088
-30.6244
4468.75
146.583
1257.92
440.811
547.715
235.082
2070.34
2498.64
504.083
535.776
733.082
556.318
307.868
347.706
665.046
251.442
217.737
198.07
195.076
205.625
184.903
172.894
192.659
235.815
317.632
816.594
87.1012
190.953
133.986
142.374
104.024
102.614
104.595
85.478
58.7548
62.4837
36.9891
13.3963
191.979
184.832
253.893
-79.0379
-60.434
13.7809
-33.7395
5046.61
3080.69
1191.41
385.882
535.113
1202.27
98.2649
677.05
488.319
875.151
596.228
565.651
312.443
298.15
432.45
239.39
230.379
188.222
197.882
198.573
185.177
172.894
191.86
127.632
-7.22466
768.622
64.4825
240.813
134.468
141.645
104.737
100.201
105.151
87.7573
60.9843
64.9024
23.1022
-0.712224
272.428
315.277
209.52
-93.0409
59.0552
43.8491
43.7432
4933.48
1092.39
1276.35
329.745
536.621
1360.19
274.674
795.639
456.82
55.254
576.152
532.941
317.616
701.393
416.804
222.492
220.137
191.604
198.316
195.027
182.454
172.398
214.824
135.413
227.078
890.864
562.376
263.323
133.279
140.835
103.853
90.243
108.138
88.3777
58.4346
54.2011
30.3455
-15.2515
275.365
334.206
115.72
-99.7323
20.5149
-9.10749
28.9151
4740.59
773.998
1317.13
272.67
533.452
726.337
293.012
787.03
455.75
164.619
498.809
475.604
320.152
286.904
386.236
224.808
216.283
193.48
200.103
193.649
181.747
174.871
211.981
146.543
140.867
340.831
322.817
44.8161
130.421
139.943
104.795
85.909
113.371
86.3138
56.3557
47.9634
-51.739
-39.8963
217.032
362.969
-20.1871
-108.214
23.9806
-5.71824
26.0228
1830.69
1691.55
1635.03
1699.45
2219.21
1822.41
1696.53
1630.02
1645.1
1537.57
1824.78
1701.14
1627.98
1629.99
1273.74
1839.5
1700.69
1628.24
1646.8
1188.92
1866.09
1698.88
1628
1669.68
1308.16
3426.88
1058.08
226.245
112.08
459.591
696.429
202.107
279.782
406.545
361.123
460.061
492.211
397.835
357.187
376.205
235.379
225.392
198.671
192.195
192.165
183.263
175.564
177.88
168.397
165.767
288.033
274.708
97.3747
121.855
127.492
106.328
85.4326
124.265
102.502
48.8824
36.5083
-50.228
-243.655
268.246
382.113
116.348
-98.1018
6.491
3.18582
19.3132
2843.29
518.459
199.134
47.5436
409.613
346.866
321.713
212.504
363.904
70.2761
322.075
532.316
634.652
216.335
334.062
250.025
208.533
205.571
196.741
191.458
184.129
171.809
214.388
184.076
195.23
241.862
242.558
132.892
123.84
121.533
107.089
87.2608
56.523
57.2344
63.1228
29.4871
-33.1288
-130.026
425.868
397.224
350.947
-12.4318
3.58928
9.06736
14.1602
2081.69
427.149
467.427
61.3365
375.081
391.656
257.006
225.463
339.663
195.123
266.444
525.309
584.126
245.139
307.324
254.308
220.774
211.531
201.225
191.66
185.393
176.002
175.573
174.594
190.919
217.604
217.424
148.192
127.853
121.288
107.746
89.1399
63.5273
53.5352
45.6326
29.6968
1.96196
11.9476
389.345
388.172
329.151
59.2174
17.5767
14.4141
12.3627
1286.74
296.669
335.258
130.397
368.87
374.556
249.4
231.901
330.873
265.746
301.621
502.492
528.322
288.371
297.36
253.15
227.472
216.032
202.87
194.158
187.431
176.584
170.042
176.367
191.878
205.502
205.274
154.851
131.687
122.366
108.832
90.7377
67.6521
54.4781
46.7008
33.3712
18.6287
106.198
372.194
384.571
337.171
77.404
16.3379
11.1675
10.3754
2418.93
542.698
386.825
137.038
364.09
317.082
281.432
243.669
328.323
292.335
252.097
515.116
487.044
335.212
298.964
255.641
229.632
218.022
205.05
195.132
187.705
177.279
172.627
178.368
191.373
199.001
199.491
157.497
134.514
124.327
110.464
92.615
70.2206
56.3051
48.6502
36.4024
12.7344
193.643
386.114
392.233
345.44
74.937
4.12526
9.29032
10.5607
)
;

boundaryField
{
    AirInlet
    {
        type            calculated;
        value           nonuniform List<scalar> 5(4599.32 4610.19 5171.01 5308.88 5023.35);
    }
    WaterInlet
    {
        type            calculated;
        value           nonuniform List<scalar> 10(2408.04 2381.32 2366.69 2364.43 2372.64 1830.67 1822.39 1824.77 1839.5 1866.09);
    }
    ChannelWall
    {
        type            calculated;
        value           nonuniform List<scalar> 
110
(
2372.6
2228.28
2184.28
2166.04
2400.62
1830.71
1691.58
1635.06
1699.49
2219.25
1866.06
1698.85
1627.96
1669.64
1308.12
2418.89
542.661
386.79
136.995
364.046
317.039
281.388
243.625
328.279
292.291
252.055
515.08
487.007
335.168
298.92
255.597
229.588
217.978
205.006
195.088
187.661
177.234
172.583
178.324
191.329
198.957
199.447
157.453
134.47
124.282
110.419
92.5709
70.1764
56.2609
48.606
36.3582
12.6903
193.611
386.089
392.208
345.415
74.8977
4.08112
9.24619
10.5166
2408.06
2232.84
2180.16
2137.97
2072.15
1941.42
1375.17
938.584
661.711
628.857
616.052
964.597
1163.98
1128.52
914.762
827.289
198.065
194.655
190.087
172.974
169.395
156.129
161.271
167.498
174.234
210.845
259.693
210.798
201.192
155.938
53.005
29.5307
85.3538
159.39
104.362
82.5971
102.914
78.29
74.2361
56.7173
78.9725
20.7813
108.084
31.3741
83.5922
106.528
38.0938
-1.54006
1.49402
12.3065
)
;
    }
    Outlet
    {
        type            calculated;
        value           nonuniform List<scalar> 
15
(
-0.0439508
-0.132407
-0.220651
-0.30885
-0.397096
-0.450789
-0.469614
-0.488047
-0.507745
-0.52909
-0.583476
-0.671831
-0.760187
-0.848372
-0.936512
)
;
    }
    FrontAndBack
    {
        type            empty;
    }
}


// ************************************************************************* //
