/*--------------------------------*- C++ -*----------------------------------*\
| =========                 |                                                 |
| \\      /  F ield         | OpenFOAM: The Open Source CFD Toolbox           |
|  \\    /   O peration     | Version:  2.3.0                                 |
|   \\  /    A nd           | Web:      www.OpenFOAM.org                      |
|    \\/     M anipulation  |                                                 |
\*---------------------------------------------------------------------------*/
FoamFile
{
    version     2.0;
    format      ascii;
    class       volScalarField;
    location    "0.018";
    object      p_rgh;
}
// * * * * * * * * * * * * * * * * * * * * * * * * * * * * * * * * * * * * * //

dimensions      [1 -1 -2 0 0 0 0];

internalField   nonuniform List<scalar> 
725
(
2408.06
2232.84
2180.16
2137.97
2072.15
2381.39
2235.17
2183.11
2143.13
2087.57
2366.81
2236.5
2185.13
2151.07
2147.31
2364.61
2233.52
2185.17
2157.66
2227.27
2372.86
2228.59
2184.63
2166.43
2401.03
1941.42
1375.17
938.584
661.711
628.857
616.052
964.597
1163.98
1128.52
914.762
827.289
198.065
194.655
190.087
172.974
169.395
156.129
161.271
167.498
174.234
210.845
259.693
210.798
201.192
155.938
53.005
29.5307
85.3538
159.39
104.362
82.5971
102.914
78.29
74.2361
56.7173
78.9725
20.7813
108.084
31.3741
83.5922
106.528
38.0938
-1.54006
1.49402
12.3065
1964.88
1145.15
804.331
629.073
609.58
571.118
887.623
1169.43
1120.08
869.56
693.408
237.041
210.282
200.152
156.568
162.557
157.01
162.044
168.885
178.221
173.503
225.574
208.654
206.048
167.241
48.889
15.091
79.4748
104.576
100.164
89.6584
73.528
74.6504
75.5559
57.4382
78.7849
21.6433
100.214
29.9788
78.1429
112.309
34.8885
-4.76241
-3.65648
-6.19813
2114
1079.66
834.507
583.783
586.758
573.965
729.446
1203.56
1110.03
734.831
341.588
274.583
221.198
217.42
146.454
168.845
160.578
163.162
169.802
181.076
198.291
190.588
204.15
216.443
177.773
10.6305
-2.24167
89.7936
122.771
99.8126
85.9444
79.0577
75.0829
75.5248
57.1046
77.5334
21.7883
87.4846
28.8181
68.052
126.344
22.7372
-12.6162
-3.72149
-9.47574
2404.91
868.269
855.239
536.095
564.177
489.859
562.491
1287
1085.31
733.163
582.684
357.369
211.22
234.79
121.282
174.22
194.922
166.632
170.07
176.254
183.804
174.285
189.524
230.799
192.229
-75.4116
-29.4757
102.57
133.562
158.602
74.9629
86.4999
72.2982
77.8159
56.8148
73.9281
20.355
78.914
24.5329
42.6504
143.822
-3.70463
-24.7599
-1.77323
-14.6795
3379.19
786.662
768.943
506.086
552.092
329.736
750.241
895.246
906.004
607.075
473.727
372.346
282.949
228.925
59.4021
179.688
176.433
177.422
177.495
196.822
181.353
177.001
188.266
197.181
148.304
-143.671
-32.9668
126.783
127.888
147.091
99.566
107.52
71.3015
84.663
54.7374
68.3196
24.9027
55.795
10.0939
6.61987
186.718
-39.0329
-41.2112
2.51335
-21.6987
4295.61
350.84
1040.26
481.115
558.673
338.929
747.37
935.948
630.491
573.953
855.721
553.482
304.242
341.516
690.347
296.754
210.636
183.633
203.913
207.507
184.386
176.441
193.973
230.264
254.683
794.195
71.2985
173.669
133.23
143.02
102.485
108.219
127.239
86.7398
58.8066
64.0834
33.1644
27.6568
34.861
63.2411
224.535
-63.6079
-52.7147
10.7593
-30.1736
4468.78
146.833
1258.37
441.281
548.186
235.532
2070.79
2499.09
504.472
536.218
733.493
556.775
308.325
348.155
665.495
251.904
218.207
198.54
195.546
206.092
185.369
173.362
193.129
236.286
318.102
817.065
87.5715
191.419
134.448
142.836
104.486
103.076
105.063
85.9487
59.2255
62.9545
37.46
13.8672
192.398
185.136
254.352
-78.5676
-59.9637
14.2498
-33.2699
5046.61
3080.87
1191.87
386.372
535.603
1202.72
98.7054
677.492
488.785
875.615
596.659
566.127
312.919
298.619
432.922
239.873
230.869
188.712
198.372
199.06
185.663
173.382
192.35
128.121
-6.73952
769.106
64.9713
241.294
134.949
142.126
105.218
100.683
105.637
88.2469
61.4748
65.3929
23.5905
-0.221829
272.852
315.566
209.993
-92.5514
59.5433
44.3371
44.2312
4933.49
1092.64
1276.84
330.255
537.131
1360.66
275.129
796.095
457.309
55.7233
576.599
533.435
318.111
701.886
417.31
222.997
220.647
192.114
198.825
195.535
182.961
172.907
215.334
135.918
227.579
891.366
562.877
263.824
133.779
141.336
104.354
90.7452
108.643
88.8869
58.9447
54.7111
30.8532
-14.7417
275.797
334.505
116.204
-99.2239
21.0229
-8.59911
29.4228
4740.6
774.229
1317.64
273.198
533.981
726.851
293.485
787.503
456.263
165.098
499.285
476.083
320.666
287.409
386.762
225.334
216.811
194.01
200.633
194.178
182.276
175.4
212.51
147.067
141.389
341.359
323.341
45.3399
130.941
140.463
105.319
86.4326
113.895
86.8417
56.8855
48.4925
-51.2105
-39.3676
217.448
363.271
-19.7592
-107.687
24.5101
-5.18889
26.5519
1831.43
1692.25
1635.7
1700.09
2219.81
1823.2
1697.29
1630.76
1645.81
1538.26
1825.63
1701.97
1628.79
1630.78
1274.51
1840.4
1701.58
1629.12
1647.66
1189.78
1867.04
1699.83
1628.94
1670.62
1309.08
3426.94
1058.33
226.775
112.66
460.172
697.01
202.635
280.313
407.117
361.648
460.585
492.682
398.343
357.737
376.789
235.961
225.974
199.254
192.779
192.749
183.847
176.147
178.458
168.973
166.345
288.616
275.291
97.9583
122.435
128.07
106.909
86.0142
124.842
103.08
49.4654
37.0913
-49.6443
-243.102
268.616
382.445
116.718
-97.5233
7.07466
3.7694
19.8966
2843.43
518.843
199.659
48.2102
410.281
347.511
322.32
213.165
364.574
70.938
322.664
532.858
635.194
216.988
334.734
250.697
209.205
206.242
197.413
192.13
184.801
172.481
215.052
184.739
195.895
242.534
243.23
133.564
124.512
122.205
107.761
87.9327
57.1942
57.9039
63.7927
30.1589
-32.4568
-129.438
426.251
397.606
351.328
-11.7654
4.26124
9.73922
14.8321
2081.94
427.661
467.988
62.0923
375.837
392.37
257.723
226.219
340.421
195.881
267.162
525.923
584.743
245.877
308.084
255.068
221.534
212.291
201.985
192.42
186.153
176.762
176.329
175.35
191.677
218.365
218.184
148.952
128.613
122.048
108.506
89.8999
64.2874
54.2953
46.3926
30.4569
2.72223
12.5666
389.777
388.604
329.583
59.9567
18.3369
15.1744
13.1228
1287.28
297.336
335.932
131.241
369.713
375.353
250.237
232.748
331.72
266.592
302.437
503.178
529.015
289.198
298.208
253.998
228.32
216.88
203.718
195.006
188.279
177.432
170.891
177.215
192.726
206.35
206.122
155.699
132.536
123.214
109.68
91.586
68.5004
55.3265
47.5492
34.2197
19.4773
106.854
372.677
385.054
337.653
78.166
17.1865
12.0159
11.2237
2419.85
543.488
387.565
137.956
365.022
317.991
282.364
244.603
329.258
293.27
252.985
515.874
487.823
336.137
299.901
256.578
230.569
218.959
205.987
196.069
188.642
178.215
173.564
179.305
192.31
199.938
200.428
158.434
135.451
125.263
111.4
93.5518
71.1573
57.2419
49.587
37.3392
13.6713
194.327
386.646
392.766
345.973
75.7704
5.06195
10.227
11.4972
)
;

boundaryField
{
    AirInlet
    {
        type            fixedFluxPressure;
        gradient        nonuniform List<scalar> 5(3.0371e+07 1.41414e+07 1.24396e+07 3.75397e+07 2.82751e+07);
        value           nonuniform List<scalar> 5(4599.32 4610.19 5171.01 5308.88 5023.36);
    }
    WaterInlet
    {
        type            fixedFluxPressure;
        gradient        nonuniform List<scalar> 10(-0.0587308 -29.219 -55.4133 0.202604 -2.49904 0.00169922 -19.3123 -14.2075 -15.2476 -34.6188);
        value           nonuniform List<scalar> 10(2408.06 2381.39 2366.81 2364.61 2372.86 1831.43 1823.2 1825.63 1840.4 1867.04);
    }
    ChannelWall
    {
        type            fixedFluxPressure;
        gradient        uniform 0;
        value           nonuniform List<scalar> 
110
(
2372.86
2228.59
2184.63
2166.43
2401.03
1831.43
1692.25
1635.7
1700.09
2219.81
1867.04
1699.83
1628.94
1670.62
1309.08
2419.85
543.488
387.565
137.956
365.022
317.991
282.364
244.603
329.258
293.27
252.985
515.874
487.823
336.137
299.901
256.578
230.569
218.959
205.987
196.069
188.642
178.215
173.564
179.305
192.31
199.938
200.428
158.434
135.451
125.263
111.4
93.5518
71.1573
57.2419
49.587
37.3392
13.6713
194.327
386.646
392.766
345.973
75.7704
5.06195
10.227
11.4972
2408.06
2232.84
2180.16
2137.97
2072.15
1941.42
1375.17
938.584
661.711
628.857
616.052
964.597
1163.98
1128.52
914.762
827.289
198.065
194.655
190.087
172.974
169.395
156.129
161.271
167.498
174.234
210.845
259.693
210.798
201.192
155.938
53.005
29.5307
85.3538
159.39
104.362
82.5971
102.914
78.29
74.2361
56.7173
78.9725
20.7813
108.084
31.3741
83.5922
106.528
38.0938
-1.54006
1.49402
12.3065
)
;
    }
    Outlet
    {
        type            totalPressure;
        rho             rho;
        psi             none;
        gamma           1;
        p0              uniform 0;
        value           uniform 0;
    }
    FrontAndBack
    {
        type            empty;
    }
}


// ************************************************************************* //
