/*--------------------------------*- C++ -*----------------------------------*\
| =========                 |                                                 |
| \\      /  F ield         | OpenFOAM: The Open Source CFD Toolbox           |
|  \\    /   O peration     | Version:  2.3.0                                 |
|   \\  /    A nd           | Web:      www.OpenFOAM.org                      |
|    \\/     M anipulation  |                                                 |
\*---------------------------------------------------------------------------*/
FoamFile
{
    version     2.0;
    format      ascii;
    class       volScalarField;
    location    "0.018";
    object      p_rgh;
}
// * * * * * * * * * * * * * * * * * * * * * * * * * * * * * * * * * * * * * //

dimensions      [1 -1 -2 0 0 0 0];

internalField   nonuniform List<scalar> 
725
(
-197.896
-240.546
-262.023
-222.457
-297.856
-204.426
-240.227
-261.891
-225.046
-327.465
-207.11
-240.627
-261.673
-232.051
-329.236
-206.784
-242.41
-264.547
-255.069
-348.313
-202.878
-243.975
-259.743
-240.701
-262.896
-163.276
375.015
-19.9429
-130.948
-268.102
33.2898
-42.3335
-57.2693
-24.8647
-35.4323
-35.3826
-37.1384
-38.8567
-40.1854
-41.9592
-44.0734
-46.3562
-48.8145
-51.7773
-55.6767
-62.2439
-66.8945
-133.113
-140.632
-64.7444
-67.5824
-56.2649
-64.6201
0.653757
61.5617
45.7544
21.3854
20.2088
17.195
14.9484
13.2004
11.8828
10.7154
9.39002
7.94608
6.47162
5.06685
3.68828
2.29185
0.819334
-177.068
-339.09
-147.996
-160.834
-287.375
7.68979
-40.2339
-48.7884
-24.0477
-33.61
-36.0052
-37.7546
-39.5191
-40.8531
-42.5755
-44.619
-46.8697
-49.2849
-52.2252
-55.9751
-61.7171
-62.1423
-110.613
-148.678
-65.0043
-68.3402
-56.0772
-60.7521
-102.985
45.6704
36.5723
18.9515
19.2087
16.1716
13.916
12.276
11.0632
9.97105
8.71845
7.34794
5.94415
4.60119
3.28597
1.95147
0.567593
-177.246
135.213
67.4939
-166.591
-382.478
94.1896
-46.9533
-38.2374
-26.3782
-36.7927
-36.4781
-38.1637
-39.781
-40.9909
-42.6718
-44.6391
-46.8335
-49.0916
-51.8007
-55.4309
-58.6879
-41.1663
-13.4536
-94.9085
-64.3282
-70.3957
-55.5078
-58.3021
-195.748
60.5231
30.9464
16.34
17.5575
15.6868
13.9784
12.8186
11.5646
10.2135
8.82286
7.39589
5.964
4.61684
3.29899
1.95244
0.544855
100.108
591.565
627.438
230.375
-78.578
60.3581
-67.4094
-49.3164
-18.1925
-34.9326
-36.5517
-38.5921
-39.929
-40.9389
-42.6777
-44.6295
-46.6994
-48.6856
-51.2124
-54.8643
-60.8058
-64.7659
11.7269
114.63
-63.2576
-73.6782
-54.4929
-58.6077
-70.8184
196.464
19.35
14.2591
15.3698
14.9661
13.2749
12.2366
11.1523
9.9666
8.73099
7.47201
6.21532
4.8507
3.41743
1.99797
0.547478
643.901
656.974
651.548
611.742
78.146
224.673
-60.3245
-86.9774
6.32895
-23.4339
-36.2876
-39.2082
-40.416
-40.8808
-42.6098
-44.3346
-46.3572
-48.1251
-50.1129
-53.4014
-60.7355
-101.456
56.2281
-49.2359
-52.6565
-78.1762
-54.4419
-56.1037
-130.772
113.737
-30.0813
4.92909
12.8094
14.3588
12.9711
12.0761
11.0677
9.85035
8.56661
7.27563
5.97508
4.65691
3.35259
2.07772
0.814522
761.035
659.283
651.064
662.342
161.883
125.822
-11.0077
-33.7971
4.16703
-17.2787
-35.0793
-40.0158
-40.594
-40.6469
-42.5653
-44.2401
-46.0557
-47.9474
-49.2767
-52.0519
-56.013
-96.09
143.288
419.816
-49.0183
43.5885
-60.7538
-56.6807
-120.905
145.021
-23.3456
10.2721
20.798
14.7171
12.3733
12.2834
11.1389
9.9392
8.62658
7.323
6.01457
4.67866
3.35505
2.06719
0.81753
762.4
648.287
648.6
659.462
388.87
-130.459
246.659
-14.0521
4.99286
-21.3626
-23.1644
-35.8016
-40.74
-40.5314
-42.4858
-44.1179
-46.0443
-47.6408
-48.8255
-50.7546
-55.2367
-101.581
143.056
-196.239
-46.5672
24.4188
3.69982
-56.2862
104.159
154.763
-30.3954
10.3908
19.1427
15.1529
13.6031
13.211
12.001
10.2038
8.75868
7.43944
6.14124
4.81476
3.47506
2.13734
0.807242
777.469
646.927
649.184
659.138
505.864
-370.084
136.336
0.554236
-5.15483
-23.3807
-37.0966
-37.1232
-40.7821
-40.3646
-42.3918
-43.3214
-44.5513
-46.3524
-47.8901
-50.0963
-52.3339
-110.34
66.8127
-664.22
-28.2532
30.1095
-12.1231
-42.9118
-130.143
117.733
-41.02
9.85819
19.0219
15.7467
17.366
14.0366
11.9982
10.2313
8.77811
7.45397
6.15893
4.8376
3.49805
2.15525
0.824027
1121.9
726.776
649.167
658.819
572.13
-369.549
145.702
7.91751
-12.4672
-25.4394
-36.7992
-38.4302
-40.6486
-38.6903
-40.2349
-42.7879
-46.0046
-47.8203
-48.5132
-48.3182
-50.3817
-100.319
-14.0903
178.104
-10.2142
26.4844
-5.03285
-22.2067
-249.284
132.768
-34.9949
9.61975
18.9873
15.3751
15.5711
13.3608
11.6075
10.1042
8.6856
7.35425
6.04289
4.71186
3.38614
2.0709
0.781243
1650.57
734.29
648.501
657.113
594.381
-228.153
149.133
-5.23562
-17.4263
-26.8412
-36.998
-39.1425
-40.3728
-39.1112
-42.6194
-44.2567
-46.0595
-47.6374
-48.2988
-49.3702
-50.2501
-80.4343
18.6043
-829.579
-17.0202
23.2987
-4.47696
-28.4446
-714.673
360.789
-25.1794
11.7577
19.0352
15.5249
15.509
13.3746
11.6391
10.1214
8.68048
7.33253
6.01436
4.68334
3.35813
2.039
0.759841
1979.8
1936.41
1929.38
1930.59
1977.81
1975.89
1937.78
1928.49
1923.28
1946.11
1975.43
1938.3
1927.03
1914.37
1897.9
1978
1938.01
1925.8
1911.03
1896.7
1984.5
1937.09
1924.49
1905.89
1883.45
2085.9
744.395
645.955
645.389
627.543
420.589
253.411
-4.33232
-18.944
-32.9783
-34.5108
-39.7075
-40.3807
-42.495
-43.1324
-44.5467
-46.0648
-47.1359
-47.665
-47.7643
-44.5825
-38.2723
336.312
840.199
-32.176
13.7751
-12.6497
-39.9433
683.428
426.018
10.3313
14.6207
19.0632
16.0918
15.3482
13.5615
11.8257
10.2581
8.76009
7.37019
6.02163
4.68335
3.35056
2.01569
0.711985
1912.32
900.395
643.518
644.874
633.331
519.918
-52.8712
-92.9025
-49.0218
-43.1589
-41.3145
-39.6641
-41.163
-42.7657
-43.2022
-44.293
-45.4988
-46.5224
-46.5909
-45.5161
-36.7223
-4.56464
368.68
441.202
-22.7371
8.38532
-14.1682
-24.4721
219.949
335.775
60.002
27.6388
20.9063
16.7471
15.2303
13.3596
11.667
10.1716
8.77722
7.44524
6.07578
4.71822
3.36585
2.01449
0.701995
1873.33
1257
638.796
643.764
636.428
630.495
14.1865
-124.428
-69.0403
-50.439
-41.7096
-41.0274
-41.6389
-42.6379
-43.3912
-44.4398
-45.3545
-45.8898
-45.6416
-44.0257
-35.3196
-24.3522
104.881
-86.8692
-13.7004
4.70274
-13.8578
-15.7867
-101.445
137.296
40.1408
24.8606
20.393
16.9362
15.3165
13.6334
12.1063
10.5851
9.0102
7.49609
6.06901
4.6835
3.332
1.98836
0.688243
1863.83
1372.51
638.603
642.265
638.214
636.981
-63.6236
-155.896
-82.1334
-54.5093
-45.7558
-41.7088
-41.905
-42.8159
-43.4427
-44.355
-45.3403
-46.0167
-45.4762
-43.4997
-36.1686
-35.5967
9.31781
-150.373
-11.0599
1.29981
-13.1559
-14.8486
-90.2653
-49.8784
10.5697
19.7878
19.8128
17.2543
15.422
13.5222
11.7442
10.1452
8.79925
7.44252
6.05724
4.68247
3.33237
1.9904
0.702223
1834.43
1403.23
647.224
641.959
638.409
636.243
118.934
-153.096
-85.802
-55.4189
-45.5506
-41.825
-41.8771
-42.4683
-43.1372
-43.6888
-44.5472
-45.1575
-44.6196
-42.9521
-35.3538
-30.0005
-56.8412
-82.5327
-12.6132
-0.537906
-13.19
-14.461
-81.455
-170.729
-12.1364
16.3849
19.0016
17.5362
16.0659
14.3163
12.5749
10.9645
9.58994
8.18162
6.75146
5.33407
3.944
2.55671
1.18508
)
;

boundaryField
{
    AirInlet
    {
        type            fixedFluxPressure;
        gradient        nonuniform List<scalar> 5(60040.6 0.826368 -1.57937e+06 -6.50821e+07 -2.20055e+08);
        value           nonuniform List<scalar> 5(761.636 762.4 761.675 471.084 -549.983);
    }
    WaterInlet
    {
        type            fixedFluxPressure;
        gradient        nonuniform List<scalar> 10(-0.00209836 -0.0877096 0.0974869 -0.734084 -2.09191 -0.0166915 -2.06824 -0.563819 -9.40797 1.28688);
        value           nonuniform List<scalar> 10(-197.896 -204.426 -207.11 -206.784 -202.878 1979.8 1975.89 1975.43 1978 1984.5);
    }
    ChannelWall
    {
        type            fixedFluxPressure;
        gradient        uniform 0;
        value           nonuniform List<scalar> 
110
(
-202.878
-243.975
-259.743
-240.701
-262.896
1979.8
1936.41
1929.38
1930.59
1977.81
1984.5
1937.09
1924.49
1905.89
1883.45
1834.43
1403.23
647.224
641.959
638.409
636.243
118.934
-153.096
-85.802
-55.4189
-45.5506
-41.825
-41.8771
-42.4683
-43.1372
-43.6888
-44.5472
-45.1575
-44.6196
-42.9521
-35.3538
-30.0005
-56.8412
-82.5327
-12.6132
-0.537906
-13.19
-14.461
-81.455
-170.729
-12.1364
16.3849
19.0016
17.5362
16.0659
14.3163
12.5749
10.9645
9.58994
8.18162
6.75146
5.33407
3.944
2.55671
1.18508
-197.896
-240.546
-262.023
-222.457
-297.856
-163.276
375.015
-19.9429
-130.948
-268.102
33.2898
-42.3335
-57.2693
-24.8647
-35.4323
-35.3826
-37.1384
-38.8567
-40.1854
-41.9592
-44.0734
-46.3562
-48.8145
-51.7773
-55.6767
-62.2439
-66.8945
-133.113
-140.632
-64.7444
-67.5824
-56.2649
-64.6201
0.653757
61.5617
45.7544
21.3854
20.2088
17.195
14.9484
13.2004
11.8828
10.7154
9.39002
7.94608
6.47162
5.06685
3.68828
2.29185
0.819334
)
;
    }
    Outlet
    {
        type            totalPressure;
        rho             rho;
        psi             none;
        gamma           1;
        p0              uniform 0;
        value           uniform 0;
    }
    FrontAndBack
    {
        type            empty;
    }
}


// ************************************************************************* //
