/*--------------------------------*- C++ -*----------------------------------*\
| =========                 |                                                 |
| \\      /  F ield         | OpenFOAM: The Open Source CFD Toolbox           |
|  \\    /   O peration     | Version:  2.3.0                                 |
|   \\  /    A nd           | Web:      www.OpenFOAM.org                      |
|    \\/     M anipulation  |                                                 |
\*---------------------------------------------------------------------------*/
FoamFile
{
    version     2.0;
    format      ascii;
    class       volVectorField;
    location    "0.018";
    object      U;
}
// * * * * * * * * * * * * * * * * * * * * * * * * * * * * * * * * * * * * * //

dimensions      [0 1 -1 0 0 0 0];

internalField   nonuniform List<vector> 
725
(
(0.217063 0.0245741 -2.57036e-30)
(0.195393 0.00991662 4.75333e-31)
(0.159111 0.00284149 3.73081e-31)
(0.128134 0.00561375 0)
(0.0623142 0.00588743 -1.41715e-30)
(0.379618 0.0519987 -1.24531e-29)
(0.404108 0.0383072 2.242e-30)
(0.368503 0.0253964 1.88905e-30)
(0.312843 0.0332291 0)
(0.275919 -0.00163228 -1.75886e-29)
(0.41702 0.0380265 -5.60357e-30)
(0.464123 0.0471816 5.61114e-31)
(0.438421 0.0438166 1.7717e-30)
(0.372562 0.0576084 0)
(0.329664 -0.016025 -2.08558e-29)
(0.375701 0.0175076 7.57381e-30)
(0.392564 0.0430597 3.20553e-31)
(0.362021 0.0468067 1.73511e-30)
(0.294933 0.0648743 0)
(0.405467 -0.0285414 -6.06146e-29)
(0.21007 0.0110729 9.46813e-30)
(0.18025 0.0279515 -4.09048e-31)
(0.152157 0.0279415 3.26572e-31)
(0.0776274 0.0190274 2.97612e-31)
(0.311193 -0.0160753 -3.83479e-29)
(0.174403 -0.0323352 0)
(0.32228 -0.0263286 0)
(0.30586 0.0120005 0)
(0.182503 0.0167342 0)
(0.187655 -0.0240282 0)
(0.36857 -0.0447253 0)
(0.347515 0.0409318 0)
(0.0632909 0.000618512 0)
(0.185617 -0.0102109 0)
(-0.0996386 0.0492839 0)
(0.0516504 -0.0338835 0)
(0.307045 0.0250208 0)
(0.165369 0.0177022 0)
(0.0781848 -0.00156472 0)
(0.0839804 -0.00342759 0)
(0.0917082 -0.00142773 0)
(0.065821 0.00569567 0)
(0.037609 0.00132903 0)
(0.0309633 -0.00164786 0)
(0.0585978 -0.0108561 0)
(0.130242 -0.0158543 0)
(0.144454 0.0149819 0)
(0.0875009 0.0074166 0)
(0.0809407 -0.00690829 0)
(0.161902 -0.0205425 0)
(0.190415 0.00866323 0)
(0.0895984 0.0174854 0)
(0.0514211 -0.00549951 0)
(0.109878 -0.00607281 0)
(0.101599 0.00779499 0)
(0.0839798 -0.00414713 0)
(0.0881928 0.00416746 0)
(0.0594931 0.00542674 0)
(0.0444186 0.000524822 0)
(0.025912 0.00216798 0)
(0.0452108 1.258e-06 0)
(-0.0264474 0.00828371 0)
(0.00145645 -0.0115206 0)
(0.0606444 0.00576495 0)
(0.0432554 -0.00588676 0)
(0.123747 -0.0105231 0)
(0.140253 0.0048009 0)
(0.0982421 0.00565676 0)
(0.0821735 -0.00240203 0)
(0.0968774 -0.0024006 0)
(0.481774 -0.13406 0)
(0.547032 -0.00219221 0)
(0.349381 0.0626588 0)
(0.259124 0.0523718 0)
(0.291965 -0.075752 0)
(0.420237 -0.10583 0)
(0.423362 0.186517 0)
(0.14686 0.0113314 0)
(0.245663 0.025922 0)
(-0.198102 0.133231 0)
(-0.0246094 -0.279796 0)
(0.455172 -0.0233803 0)
(0.42117 0.0916948 0)
(0.246035 0.0339573 0)
(0.217336 0.0028098 0)
(0.205967 0.00306472 0)
(0.150364 0.0291573 0)
(0.104647 0.0114584 0)
(0.0898287 -0.00196543 0)
(0.0860716 -0.0297886 0)
(0.0907323 -0.0379527 0)
(0.134547 0.0179103 0)
(0.152145 0.0224401 0)
(0.152516 -0.0237912 0)
(0.176883 -0.0471532 0)
(0.184091 0.0303949 0)
(0.115181 0.0579352 0)
(0.0842277 -0.0158473 0)
(0.141043 -0.0268553 0)
(0.162859 0.0209435 0)
(0.13308 -0.0048522 0)
(0.108625 0.0132631 0)
(0.100734 0.014446 0)
(0.100828 0.00531947 0)
(0.0739613 0.010072 0)
(0.0921432 0.00959713 0)
(-0.0277702 0.0316983 0)
(0.0182756 -0.055615 0)
(0.121731 -0.000121598 0)
(0.120123 -0.0326741 0)
(0.255811 -0.0473878 0)
(0.293473 0.0206469 0)
(0.2235 0.0286458 0)
(0.184659 -0.000787837 0)
(0.174689 -0.00383676 0)
(0.51161 -0.266056 0)
(0.490715 0.116203 0)
(0.256602 0.0706755 0)
(0.295081 0.0548451 0)
(0.310806 -0.106373 0)
(0.301126 -0.106827 0)
(0.372637 0.23123 0)
(0.505426 0.0272228 0)
(0.35673 0.116474 0)
(0.206683 0.190735 0)
(0.215703 -0.370062 0)
(0.416598 -0.145156 0)
(0.448478 0.130937 0)
(0.284024 0.082766 0)
(0.281315 0.0203252 0)
(0.280476 0.0156544 0)
(0.209907 0.0589451 0)
(0.165579 0.0228505 0)
(0.153001 0.00870209 0)
(0.122316 -0.0191926 0)
(0.0765355 -0.0311624 0)
(0.107036 -0.0207338 0)
(0.157974 0.0192989 0)
(0.175991 -0.0329468 0)
(0.164974 -0.0413342 0)
(0.177317 0.032058 0)
(0.146846 0.0855071 0)
(0.113434 -0.0215707 0)
(0.163335 -0.0501103 0)
(0.209955 0.0111386 0)
(0.179757 0.0224236 0)
(0.122538 0.0198993 0)
(0.131925 0.0126307 0)
(0.144778 0.00676241 0)
(0.114148 0.0225076 0)
(0.132071 0.0228973 0)
(-0.0148034 0.0594911 0)
(0.0471678 -0.104633 0)
(0.130754 -0.00388958 0)
(0.0912506 -0.0691878 0)
(0.290122 -0.108961 0)
(0.3798 0.0366891 0)
(0.302258 0.0576884 0)
(0.255054 0.00918336 0)
(0.232961 0.00386473 0)
(0.426375 -0.346235 0)
(0.253251 0.285619 0)
(-0.00265216 0.154715 0)
(0.284292 0.0711133 0)
(0.304351 -0.109648 0)
(0.227724 -0.158788 0)
(0.519082 0.0862551 0)
(0.736015 0.060752 0)
(0.292033 0.262917 0)
(0.466409 0.137755 0)
(0.346678 -0.263932 0)
(0.300801 -0.182134 0)
(0.24086 0.17306 0)
(0.207801 0.0901177 0)
(0.284682 0.0172924 0)
(0.31449 0.0312645 0)
(0.260634 0.084922 0)
(0.233623 0.0286621 0)
(0.228873 0.020044 0)
(0.203982 -0.000165188 0)
(0.167363 -0.0269746 0)
(0.162677 -0.0354708 0)
(0.171737 0.00852506 0)
(0.199504 -0.0367822 0)
(0.147993 -0.0296944 0)
(0.14519 0.0112719 0)
(0.156361 0.109285 0)
(0.159867 -0.0348204 0)
(0.207099 -0.0619546 0)
(0.194852 0.00928492 0)
(0.17318 0.046554 0)
(0.14415 0.0271708 0)
(0.158049 0.00291962 0)
(0.188583 0.00217844 0)
(0.156035 0.0366571 0)
(0.175386 0.0392889 0)
(0.00293584 0.0871227 0)
(0.135821 -0.142569 0)
(0.144905 0.0150329 0)
(0.000874203 -0.114221 0)
(0.241899 -0.213974 0)
(0.420177 0.0442381 0)
(0.341825 0.0860836 0)
(0.29612 0.017881 0)
(0.271421 0.0144968 0)
(-0.388414 -0.187813 0)
(-0.495077 0.455832 0)
(-0.109058 -0.130528 0)
(0.29851 -0.0493588 0)
(0.27017 -0.0701304 0)
(-0.0930321 -0.173286 0)
(0.0106386 -0.0206682 0)
(0.372403 0.0403686 0)
(0.269752 0.413038 0)
(0.368426 -0.0296045 0)
(0.240036 -0.21273 0)
(0.216672 -0.12945 0)
(0.0300525 0.201311 0)
(0.207105 0.0121103 0)
(0.206466 -0.00367821 0)
(0.305415 0.010404 0)
(0.364713 0.0919502 0)
(0.336946 0.042771 0)
(0.321221 0.0195002 0)
(0.321936 0.0150581 0)
(0.259015 -0.00948739 0)
(0.20344 -0.0201847 0)
(0.173009 0.00517774 0)
(0.198293 -0.0524565 0)
(0.156914 0.00909035 0)
(0.165506 0.0126697 0)
(0.195714 0.111567 0)
(0.257938 -0.0826859 0)
(0.293812 -0.0629872 0)
(0.253815 0.0206568 0)
(0.23866 0.0509329 0)
(0.217234 0.0357936 0)
(0.234699 -0.0119202 0)
(0.260445 -0.000945372 0)
(0.207643 0.0561006 0)
(0.218646 0.0592417 0)
(0.022056 0.106658 0)
(0.223882 -0.202404 0)
(0.297668 0.0975289 0)
(-0.0627943 -0.114285 0)
(0.11658 -0.35972 0)
(0.431549 0.039533 0)
(0.35772 0.108189 0)
(0.318379 0.0176054 0)
(0.296438 0.0285845 0)
(0.174364 -0.230454 0)
(0.417007 0.448283 0)
(0.996844 -0.229514 0)
(0.869766 -0.0628331 0)
(0.448823 0.0223796 0)
(-0.0313495 -0.0838857 0)
(-0.219624 -0.102554 0)
(0.282911 -0.0488945 0)
(0.419439 0.418008 0)
(0.49695 -0.0292137 0)
(0.200189 -0.149403 0)
(0.0984182 -0.105752 0)
(0.0957105 0.18911 0)
(0.241411 0.00207866 0)
(0.140551 0.00263105 0)
(0.274776 -0.0314823 0)
(0.404406 0.080265 0)
(0.376324 0.052153 0)
(0.362587 0.0176688 0)
(0.360261 0.0264459 0)
(0.281087 0.0106767 0)
(0.21988 -0.00547131 0)
(0.181814 0.0127983 0)
(0.159256 -0.0475368 0)
(0.0853953 0.00873799 0)
(0.277147 -0.0232694 0)
(0.390803 0.109574 0)
(0.375212 -0.0924154 0)
(0.345844 -0.0504479 0)
(0.286117 0.028551 0)
(0.274759 0.0546625 0)
(0.258159 0.0374937 0)
(0.276326 -0.0194012 0)
(0.295724 0.0037825 0)
(0.237396 0.0676231 0)
(0.234628 0.0812913 0)
(0.0396347 0.11654 0)
(0.14033 -0.272689 0)
(0.495575 0.130131 0)
(0.0790706 -0.047244 0)
(0.119097 -0.441377 0)
(0.457929 0.0178711 0)
(0.374346 0.121644 0)
(0.325236 0.0205982 0)
(0.308592 0.0357244 0)
(-0.391409 -0.237169 0)
(0.614155 0.412063 0)
(1.07929 -0.255861 0)
(1.00229 -0.0296278 0)
(0.533507 0.0638776 0)
(0.101123 -0.0425609 0)
(-0.208513 -0.120613 0)
(0.175236 -0.077487 0)
(0.42547 0.397856 0)
(0.600346 -0.0208778 0)
(0.203026 -0.117151 0)
(0.0270267 -0.105752 0)
(0.155365 0.178224 0)
(0.294355 0.00426505 0)
(0.17633 0.00184734 0)
(0.2795 -0.0463576 0)
(0.41487 0.075455 0)
(0.383866 0.0548086 0)
(0.359446 0.0182279 0)
(0.355391 0.0307048 0)
(0.287642 0.0176257 0)
(0.228751 -0.000639529 0)
(0.190445 0.0157849 0)
(0.164329 -0.042787 0)
(0.0844476 0.00581803 0)
(0.292044 -0.0467153 0)
(0.438342 0.110226 0)
(0.411395 -0.0923824 0)
(0.360834 -0.0442239 0)
(0.293035 0.03172 0)
(0.283743 0.0565233 0)
(0.266266 0.0375174 0)
(0.2786 -0.0216544 0)
(0.300814 0.00568664 0)
(0.248639 0.0710372 0)
(0.241358 0.0909099 0)
(0.0495961 0.122744 0)
(0.0947662 -0.298461 0)
(0.574212 0.123808 0)
(0.264178 -0.0189591 0)
(0.177516 -0.45797 0)
(0.463888 0.00881199 0)
(0.380184 0.127908 0)
(0.326046 0.0228052 0)
(0.313169 0.0373883 0)
(-7.87934 -0.0210845 0)
(-0.398915 0.0833464 0)
(0.719571 -0.329043 0)
(1.01885 0.00114697 0)
(0.627801 0.0954165 0)
(0.445969 -0.0047529 0)
(0.0507974 -0.117027 0)
(0.174386 -0.105019 0)
(0.495598 0.377622 0)
(0.544051 -0.0090858 0)
(0.165247 -0.0899251 0)
(0.0689045 -0.106233 0)
(0.179048 0.165104 0)
(0.334342 0.00407548 0)
(0.28626 0.00260016 0)
(0.315387 -0.0572288 0)
(0.415953 0.0719819 0)
(0.381687 0.0576855 0)
(0.350359 0.0198614 0)
(0.348716 0.0337998 0)
(0.29695 0.023658 0)
(0.244587 0.00411402 0)
(0.203358 0.01871 0)
(0.190597 -0.0383143 0)
(0.111595 0.00368934 0)
(0.28418 -0.071324 0)
(0.457904 0.108632 0)
(0.446182 -0.09066 0)
(0.370998 -0.0363907 0)
(0.29582 0.0351247 0)
(0.292934 0.0580805 0)
(0.27792 0.0379376 0)
(0.281222 -0.0235078 0)
(0.30448 0.00697957 0)
(0.259302 0.07415 0)
(0.249372 0.100773 0)
(0.0645007 0.131517 0)
(0.0467864 -0.322809 0)
(0.57023 0.103475 0)
(0.525198 -0.00035168 0)
(0.226029 -0.456937 0)
(0.459012 0.00192732 0)
(0.384683 0.134143 0)
(0.325729 0.0259648 0)
(0.318493 0.0380434 0)
(-4.45672 0.485345 0)
(0.36087 -0.548151 0)
(0.879343 -0.392435 0)
(1.01793 0.0235096 0)
(0.621174 0.116921 0)
(0.563542 0.0143949 0)
(0.232997 -0.0856184 0)
(0.105559 -0.128709 0)
(0.499706 0.357188 0)
(0.63366 0.0140632 0)
(0.139231 -0.069527 0)
(0.0206605 -0.10535 0)
(0.169824 0.152359 0)
(0.379291 -0.00957623 0)
(0.402204 0.00793453 0)
(0.327057 -0.0608359 0)
(0.395106 0.0693582 0)
(0.373157 0.0608715 0)
(0.341889 0.021607 0)
(0.342399 0.0358716 0)
(0.304548 0.0284251 0)
(0.260754 0.00856578 0)
(0.21249 0.0222114 0)
(0.209051 -0.0368424 0)
(0.159126 0.00368799 0)
(0.279606 -0.0927189 0)
(0.462875 0.101953 0)
(0.476861 -0.0866212 0)
(0.371139 -0.0273439 0)
(0.295221 0.0385436 0)
(0.299699 0.0587586 0)
(0.289634 0.0388349 0)
(0.285441 -0.0249316 0)
(0.306901 0.00769988 0)
(0.269248 0.077192 0)
(0.264347 0.109616 0)
(0.0895342 0.142142 0)
(0.0343377 -0.340065 0)
(0.460556 0.0774135 0)
(0.375296 0.0117935 0)
(0.114815 -0.457447 0)
(0.413532 -0.0084914 0)
(0.378378 0.138726 0)
(0.320952 0.0299119 0)
(0.314771 0.0378354 0)
(-1.37135 0.856578 0)
(1.17042 -0.808512 0)
(0.943518 -0.400993 0)
(0.95425 0.0440623 0)
(0.558783 0.135934 0)
(0.517957 0.0195654 0)
(0.296161 -0.0488743 0)
(0.0774036 -0.139858 0)
(0.443632 0.325261 0)
(0.667765 0.0397523 0)
(0.0909077 -0.0396636 0)
(-0.0372927 -0.11019 0)
(0.167814 0.139094 0)
(0.342994 -0.0284359 0)
(0.386317 0.0147338 0)
(0.322029 -0.0599233 0)
(0.36836 0.0666786 0)
(0.359159 0.063225 0)
(0.336984 0.0229577 0)
(0.339398 0.0372222 0)
(0.310747 0.0321835 0)
(0.271497 0.0127397 0)
(0.239621 0.0245915 0)
(0.241925 -0.0359533 0)
(0.213795 0.00224244 0)
(0.290314 -0.106573 0)
(0.439675 0.0903764 0)
(0.466384 -0.0799765 0)
(0.356862 -0.0189256 0)
(0.296085 0.0414677 0)
(0.307051 0.0586916 0)
(0.300095 0.0400227 0)
(0.288556 -0.0256095 0)
(0.301049 0.00825924 0)
(0.27465 0.0796039 0)
(0.27398 0.116743 0)
(0.120994 0.151075 0)
(0.12652 -0.350717 0)
(0.395141 0.0531014 0)
(0.313776 0.0333636 0)
(0.0912473 -0.459462 0)
(0.344146 -0.0216123 0)
(0.360252 0.140564 0)
(0.314547 0.0339862 0)
(0.309605 0.0373232 0)
(0.208941 -0.0109851 0)
(0.188306 -0.0309125 -2.58435e-31)
(0.150677 -0.0279841 -1.91022e-30)
(0.146877 -0.0437361 -1.34915e-29)
(0.42145 -0.0549005 0)
(0.372581 -0.0178107 0)
(0.40434 -0.049592 0)
(0.345024 -0.0511271 0)
(0.428363 -0.141305 -1.03755e-29)
(0.517977 -0.137396 0)
(0.412477 -0.0385322 0)
(0.474924 -0.054216 0)
(0.395657 -0.0517712 0)
(0.518653 -0.170757 -2.07039e-30)
(0.230216 -0.162475 0)
(0.374889 -0.0524602 0)
(0.411892 -0.0424706 0)
(0.30394 -0.0336942 0)
(0.421655 -0.128789 -2.48956e-30)
(-0.172056 -0.148597 0)
(0.214012 -0.0249025 0)
(0.198481 -0.0100714 0)
(0.107755 -0.00835522 0)
(0.172381 -0.0329678 -1.14659e-30)
(-0.448969 -0.0421688 0)
(-0.158968 0.47195 0)
(0.477679 -0.921133 0)
(0.0987999 -0.40236 0)
(0.578852 0.0789824 0)
(0.320013 0.173039 0)
(0.236658 0.0365961 0)
(0.277641 0.00559434 0)
(0.195709 -0.133497 0)
(0.287663 0.208225 0)
(0.561847 0.103569 0)
(-0.06129 0.0542872 0)
(-0.155672 -0.135351 0)
(0.0238449 0.107724 0)
(0.128634 -0.070746 0)
(0.286892 -0.00219955 0)
(0.287146 -0.0513366 0)
(0.288766 0.0613267 0)
(0.311875 0.0646047 0)
(0.319901 0.0251091 0)
(0.328848 0.0390618 0)
(0.324434 0.0399821 0)
(0.306625 0.0248206 0)
(0.311663 0.0188472 0)
(0.322539 -0.0285148 0)
(0.329292 -0.0127577 0)
(0.326691 -0.112675 0)
(0.380509 0.0507604 0)
(0.41465 -0.0576644 0)
(0.332831 -0.00220561 0)
(0.297003 0.0469663 0)
(0.319724 0.0566175 0)
(0.327403 0.0434928 0)
(0.299533 -0.0215217 0)
(0.274846 0.0108228 0)
(0.282901 0.0821218 0)
(0.30118 0.13016 0)
(0.235056 0.161393 0)
(0.350741 -0.351368 0)
(0.317838 0.00747926 0)
(0.372303 0.089053 0)
(0.057605 -0.420606 0)
(0.127812 -0.0568069 0)
(0.284238 0.13392 0)
(0.291729 0.0448572 0)
(0.29333 0.0348377 0)
(0.730823 0.679204 0)
(0.594014 -0.701744 0)
(-0.264395 -0.410133 0)
(0.255788 0.0661706 0)
(0.064077 0.205687 0)
(0.0424813 0.029656 0)
(0.0453414 -0.0663408 0)
(0.090423 -0.113399 0)
(0.0545847 0.126493 0)
(0.299133 0.193927 0)
(0.175944 0.16455 0)
(0.131003 -0.112948 0)
(-0.0238367 0.065987 0)
(0.167175 -0.150739 0)
(0.23548 -0.064828 0)
(0.211224 -0.0216441 0)
(0.219007 0.0511772 0)
(0.264116 0.0461027 0)
(0.287922 0.0185199 0)
(0.305232 0.0316653 0)
(0.328062 0.0352342 0)
(0.36019 0.0184555 0)
(0.392521 -0.00250556 0)
(0.385744 -0.0136113 0)
(0.370717 -0.0266419 0)
(0.322714 -0.0768066 0)
(0.309156 0.0137268 0)
(0.321014 -0.0274035 0)
(0.281929 0.00636145 0)
(0.277593 0.0437115 0)
(0.309741 0.0468751 0)
(0.338534 0.0418253 0)
(0.329467 0.000626638 0)
(0.295982 0.0168276 0)
(0.317995 0.0661489 0)
(0.349162 0.118646 0)
(0.459361 0.115355 0)
(0.513074 -0.313683 0)
(0.331271 0.0169964 0)
(0.440313 0.106069 0)
(0.0486409 -0.284931 0)
(-0.0869471 -0.122028 0)
(0.167678 0.0750051 0)
(0.229393 0.0409371 0)
(0.250042 0.0276946 0)
(0.704613 0.693973 0)
(0.679937 -0.424121 0)
(-0.234431 -0.333816 0)
(-0.0255004 -0.0212247 0)
(0.0519735 0.185967 0)
(0.204461 0.0709893 0)
(0.0692006 -0.0470708 0)
(0.0494256 -0.08867 0)
(-0.0373142 0.0880309 0)
(0.110266 0.185201 0)
(0.229073 0.0930144 0)
(0.258191 -0.038187 0)
(0.233151 0.0537224 0)
(0.264595 -0.141616 0)
(0.184848 -0.0639152 0)
(0.138152 -0.0121863 0)
(0.173233 0.0328465 0)
(0.220144 0.0264383 0)
(0.239444 0.0104387 0)
(0.258383 0.0202336 0)
(0.289793 0.0204539 0)
(0.314989 -0.00280968 0)
(0.325773 -0.00191171 0)
(0.318907 -0.000205452 0)
(0.305209 -0.0173973 0)
(0.25561 -0.0455797 0)
(0.229682 0.00430838 0)
(0.231938 -0.0107411 0)
(0.217465 0.00858439 0)
(0.234874 0.0319391 0)
(0.271997 0.0314098 0)
(0.30795 0.0295372 0)
(0.319832 0.00881287 0)
(0.315015 0.0175466 0)
(0.342677 0.0479402 0)
(0.381205 0.0885335 0)
(0.512966 0.056744 0)
(0.42835 -0.248674 0)
(0.192549 0.0331583 0)
(0.400427 0.117045 0)
(0.232196 -0.152978 0)
(-0.0227562 -0.141686 0)
(0.113011 0.00907081 0)
(0.161112 0.0207853 0)
(0.190802 0.0179757 0)
(0.580255 0.516367 0)
(0.737595 -0.147959 0)
(-0.0422667 -0.188662 0)
(-0.126317 -0.0220485 0)
(-0.0489909 0.0998718 0)
(0.085541 0.0854613 0)
(0.00948129 -0.020187 0)
(-0.0037034 -0.0586927 0)
(-0.0670906 0.0594135 0)
(0.0990749 0.130367 0)
(0.239319 0.0320902 0)
(0.24124 -0.0512182 0)
(0.299784 0.0249983 0)
(0.236592 -0.0975008 0)
(0.121452 -0.0348987 0)
(0.0783154 -0.0063047 0)
(0.120361 0.0131664 0)
(0.155535 0.0108595 0)
(0.16767 0.00450298 0)
(0.184073 0.00873778 0)
(0.210807 0.00762088 0)
(0.218801 -0.00382097 0)
(0.217133 4.75043e-05 0)
(0.218806 1.74192e-06 0)
(0.21151 -0.00811391 0)
(0.169719 -0.0210607 0)
(0.143037 0.00206672 0)
(0.142966 -0.00412873 0)
(0.140163 0.00433634 0)
(0.164494 0.0159605 0)
(0.198655 0.0148037 0)
(0.232326 0.0145767 0)
(0.252714 0.005235 0)
(0.263311 0.00962565 0)
(0.296548 0.0284733 0)
(0.356376 0.0533806 0)
(0.46258 0.04163 0)
(0.332872 -0.135729 0)
(0.0881641 0.00171979 0)
(0.332555 0.0814932 0)
(0.359669 -0.0723409 0)
(0.106083 -0.0805946 0)
(0.0697951 -0.0115855 0)
(0.0926166 0.00571886 0)
(0.117698 0.00876227 0)
(-0.011737 0.14966 0)
(0.362619 -0.073555 0)
(-0.166366 -0.0318051 0)
(-0.207657 0.0104908 0)
(-0.134883 0.0229101 0)
(0.0497946 0.0384711 0)
(0.11949 -0.0101162 0)
(0.0102923 -0.0207702 0)
(-0.0450061 0.0121242 0)
(0.148454 0.0362298 0)
(0.309296 0.0168767 0)
(0.246447 -0.0279731 0)
(0.233346 0.0161196 0)
(0.172335 -0.0291085 0)
(0.0682128 -0.00734834 0)
(0.0319047 -0.00337881 0)
(0.0486643 0.000193281 0)
(0.0611222 0.00144219 0)
(0.0677586 0.000336009 0)
(0.0761406 0.000995699 0)
(0.0880232 0.00106523 0)
(0.0877299 -0.00142803 0)
(0.0842721 -0.000565955 0)
(0.0862461 0.000282728 0)
(0.0833012 -0.000672247 0)
(0.0620516 -0.00373683 0)
(0.0500035 0.00200575 0)
(0.0516811 -0.00117901 0)
(0.0496463 6.31919e-05 0)
(0.0632202 0.00269067 0)
(0.0821156 0.00205763 0)
(0.100699 0.00226563 0)
(0.111803 -0.000283715 0)
(0.116907 0.000849045 0)
(0.137511 0.0053638 0)
(0.189136 0.0108835 0)
(0.297297 0.0205975 0)
(0.251671 -0.0280881 0)
(0.0784546 -0.0050962 0)
(0.206878 0.0199012 0)
(0.196747 -0.0264079 0)
(0.0459512 -0.0103613 0)
(0.0114316 0.00158711 0)
(0.0213594 0.0010594 0)
(0.0379043 0.00197674 0)
)
;

boundaryField
{
    AirInlet
    {
        type            fixedValue;
        value           uniform (0.08 0 0);
    }
    WaterInlet
    {
        type            fixedValue;
        value           uniform (0.4 0 0);
    }
    ChannelWall
    {
        type            fixedValue;
        value           uniform (0 0 0);
    }
    Outlet
    {
        type            pressureInletOutletVelocity;
        value           nonuniform List<vector> 
15
(
(0.0968774 -0.0024006 0)
(0.174689 -0.00383676 0)
(0.232961 0.00386473 0)
(0.271421 0.0144968 0)
(0.296438 0.0285845 0)
(0.308592 0.0357244 0)
(0.313169 0.0373883 0)
(0.318493 0.0380434 0)
(0.314771 0.0378354 0)
(0.309605 0.0373232 0)
(0.29333 0.0348377 0)
(0.250042 0.0276946 0)
(0.190802 0.0179757 0)
(0.117698 0.00876227 0)
(0.0379043 0.00197674 0)
)
;
    }
    FrontAndBack
    {
        type            empty;
    }
}


// ************************************************************************* //
