/*--------------------------------*- C++ -*----------------------------------*\
| =========                 |                                                 |
| \\      /  F ield         | OpenFOAM: The Open Source CFD Toolbox           |
|  \\    /   O peration     | Version:  2.3.0                                 |
|   \\  /    A nd           | Web:      www.OpenFOAM.org                      |
|    \\/     M anipulation  |                                                 |
\*---------------------------------------------------------------------------*/
FoamFile
{
    version     2.0;
    format      ascii;
    class       volScalarField;
    location    "3e-05";
    object      alpha.fuel;
}
// * * * * * * * * * * * * * * * * * * * * * * * * * * * * * * * * * * * * * //

dimensions      [0 0 0 0 0 0 0];

internalField   nonuniform List<scalar> 
7500
(
1
1
1
1
1
1
1
1
1
1
1
1
1
1
1
1
1
1
1
1
1
1
1
1
1
1
1
1
1
1
1
1
1
1
1
1
1
1
1
1
1
1
1
1
1
1
1
1
1
1
1
1
1
1
1
1
1
1
1
1
1
1
1
1
1
1
1
1
1
1
1
1
1
1
1
1
1
1
1
1
1
1
1
1
1
1
1
1
1
1
1
1
1
1
1
1
1
1
1
1
1
1
1
1
1
1
1
1
1
1
1
1
1
1
1
1
1
1
1
1
1
1
1
1
1
1
1
1
1
1
1
1
1
1
1
1
1
1
1
1
1
1
1
1
1
1
1
1
1
1
1
1
1
1
1
1
1
1
1
1
1
1
1
1
1
1
1
1
1
1
1
1
1
1
1
1
1
1
1
1
1
1
1
1
1
1
1
1
1
1
1
1
1
1
1
1
1
1
1
1
1
1
1
1
1
1
1
1
1
1
1
1
1
1
1
1
1
1
1
1
1
1
1
1
1
1
1
1
1
1
1
1
1
1
1
1
1
1
1
1
1
1
1
1
1
1
1
1
1
1
1
1
1
1
1
1
1
1
1
1
1
1
1
1
1
1
1
1
1
1
1
1
1
1
1
1
1
1
1
1
1
1
1
1
1
1
1
1
1
1
1
1
1
1
1
1
1
1
1
1
1
1
1
1
1
1
1
1
1
1
1
1
1
1
1
1
1
1
1
1
1
1
1
1
1
1
1
1
1
1
1
1
1
1
1
1
1
1
1
1
1
1
1
1
1
1
1
1
1
1
1
1
1
1
1
1
1
1
1
1
1
1
1
1
1
1
1
1
1
1
1
1
1
1
1
1
1
1
1
1
1
1
1
1
1
1
1
1
1
1
1
1
1
1
1
1
1
1
1
1
1
1
1
1
1
1
1
1
1
1
1
1
1
1
1
1
1
1
1
1
1
1
1
1
1
1
1
1
1
1
1
1
1
1
1
1
1
1
1
1
1
1
1
1
1
1
1
1
1
1
1
1
1
1
1
1
1
1
1
1
1
1
1
1
1
1
1
1
1
1
1
1
1
1
1
1
1
1
1
1
1
1
1
1
1
1
1
1
1
1
1
1
1
1
1
1
1
1
1
1
1
1
1
1
1
1
1
1
1
1
1
1
1
1
1
1
1
1
1
1
1
1
1
1
1
1
1
1
1
1
1
1
1
1
1
1
1
1
1
1
1
1
1
1
1
1
1
1
1
1
1
1
1
1
1
1
1
1
1
1
1
1
1
1
1
1
1
1
1
1
1
1
1
1
1
1
1
1
1
1
1
1
1
1
1
1
1
1
1
1
1
1
1
1
1
1
1
1
1
1
1
1
1
1
1
1
1
1
1
1
1
1
1
1
1
1
1
1
1
1
1
1
1
1
1
1
1
1
1
1
1
1
1
1
1
1
1
1
1
1
1
1
1
1
1
1
1
1
1
1
1
1
1
1
1
1
1
1
1
1
1
1
1
1
1
1
1
1
1
1
1
1
1
1
1
1
1
1
1
1
1
1
1
1
1
1
1
1
1
1
1
1
1
1
1
1
1
1
1
1
1
1
1
1
1
1
1
1
1
1
1
1
1
1
1
1
1
1
1
1
1
1
1
1
1
1
1
1
1
1
1
1
1
1
1
1
1
1
1
1
1
1
1
0.99954867
0.99669174
0.99227099
0.98566916
0.9766127
0.96602418
0.94623452
1
1
1
1
1
1
1
1
1
1
1
1
1
1
1
1
1
1
1
1
1
1
1
1
1
1
1
1
1
1
1
1
1
1
1
1
1
1
1
1
1
1
1
1
1
1
1
1
1
1
1
1
0.99952763
0.99415419
0.98382505
0.96764319
0.94690593
0.92035594
0.88597211
0.83258643
0.77210431
0.71190789
0.65236571
0.59397637
0.53831113
0.48258789
0.43094913
0.38100733
0.32949956
0.28403613
0.23944454
0.19892542
0.16083556
0.13050888
0.084404346
1
1
1
1
1
1
1
1
1
1
1
1
1
1
1
1
1
1
1
1
1
1
1
1
1
1
1
1
1
1
1
1
1
1
1
1
1
1
1
1
1
1
0.99205069
0.97467894
0.94655322
0.90902001
0.83605947
0.74809919
0.66321976
0.57711194
0.49501724
0.41332457
0.33165602
0.2583607
0.19080667
0.13255112
0.086982449
0.039620362
8.9339554e-10
3.6404968e-10
3.6404967e-10
3.6404967e-10
3.6404967e-10
3.6404967e-10
3.6404988e-10
3.6404965e-10
3.6404965e-10
3.6404965e-10
3.6404965e-10
3.6404966e-10
3.6404966e-10
3.6404966e-10
3.6404966e-10
3.6404966e-10
3.6404966e-10
1
1
1
1
1
1
1
1
1
1
1
1
1
1
1
1
1
1
1
1
1
1
1
1
1
1
1
1
1
1
1
1
1
1
0.98858706
0.96159535
0.91412257
0.81429749
0.69913338
0.58219394
0.46593717
0.35360998
0.24786958
0.15755335
0.089977882
0.0014570872
7.2379788e-10
6.9839323e-10
6.9839323e-10
6.9839323e-10
6.9839323e-10
6.9839323e-10
6.9839323e-10
6.9839326e-10
6.9839923e-10
6.9863892e-10
6.9883601e-10
6.9898098e-10
7.3069558e-10
7.5017576e-10
7.5050033e-10
7.7169514e-10
7.9900162e-10
6.8565444e-10
1.2126634e-07
9.1553272e-10
7.3318522e-10
7.9844042e-10
1.0943946e-09
2.8349812e-09
6.5992972e-10
6.829072e-10
7.2389696e-10
7.1781898e-10
7.3222319e-10
1
1
1
1
1
1
1
1
1
1
1
1
1
1
1
1
1
1
1
1
1
1
1
1
1
1
1
1
0.98125533
0.92766178
0.81443566
0.67094909
0.5224946
0.37252168
0.2333626
0.12828899
0.0021491555
2.6736495e-09
2.6427185e-09
2.6427185e-09
2.6427185e-09
2.6427185e-09
2.6427185e-09
2.6427185e-09
2.6427186e-09
2.6427213e-09
3.1585589e-09
3.1490688e-09
1.1024538e-09
1.1753538e-09
1.2056086e-09
1.124945e-09
1.0651341e-09
1.0927001e-08
1.4727853e-06
5.1102789e-05
3.1577166e-05
5.6264261e-06
1.2312871e-09
1.2017172e-09
7.5050617e-10
1.0691391e-09
1.2045365e-09
4.7509895e-06
2.0662541e-09
0.00025342918
0.00099296653
0.0005473821
1.5877756e-09
1.5897556e-09
0.00011723937
0.00063729703
0.0013012217
0.001287432
0.00082389926
1
1
1
1
1
1
1
1
1
1
1
1
1
1
1
1
1
1
1
1
1
1
1
0.97692984
0.90048954
0.73903822
0.55377784
0.36182525
0.19972936
0.024743757
3.4316064e-09
3.1720631e-09
3.1720584e-09
3.171822e-09
3.1715903e-09
3.171602e-09
3.1745554e-09
3.1724224e-09
3.1854132e-09
3.1028111e-09
3.0603851e-09
3.0935346e-09
3.3283168e-09
3.0675812e-09
5.0727479e-09
1.0407901e-08
1.0458667e-08
3.1498684e-09
0.00010152827
0.00093560419
0.0012466755
0.00063986274
2.0821588e-05
2.8806517e-09
0.0001909761
0.00048121097
0.00023266934
1.7740791e-09
0.040648514
0.034185505
0.0037680118
6.0690325e-05
0.0015369332
0.00077477649
2.0478897e-09
0.00033780455
0.0029585838
0.0009262897
0.00066631565
1.962992e-09
0.0025020823
0.0029811602
0.0029811602
0.0029787022
0.001614764
1
1
1
1
1
1
1
1
1
1
1
1
1
1
1
1
1
1
1
0.96460572
0.84765659
0.64236385
0.40962599
0.1956503
4.9211537e-09
3.7414892e-09
3.7428876e-09
3.7443963e-09
3.7483024e-09
3.7457622e-09
4.0074789e-09
1.936871e-06
8.1527714e-05
7.0541915e-05
4.0237864e-09
2.0140597e-06
1.0302006e-05
0.00027040941
0.0010247812
1.1296766e-06
3.719026e-09
0.00040649662
4.0541934e-09
3.3247932e-06
3.3072177e-07
2.7684584e-08
1.3773022e-08
3.228699e-09
0.0019208174
0.0024323306
0.0024372307
0.0024372306
0.0014833017
1.5288155e-05
2.465631e-09
0.0001255376
0.00010951078
1.7338783e-09
0.060747137
0.060885995
0.0060220885
0.001875181
0.0030920047
0.00025349695
1.7420948e-09
2.0934576e-09
0.00038275611
0.0032381021
0.0032361039
0.0024106715
1.4928401e-09
0.0002310568
3.0239295e-05
1.2095197e-09
1.2023217e-09
1
1
1
1
1
1
1
1
1
1
1
1
1
1
1
1
0.92172834
0.72006315
0.45567582
0.15990801
5.2753824e-09
4.3082155e-09
4.3082396e-09
4.308281e-09
4.4872843e-09
4.6664817e-09
0.00043727073
0.00039767242
0.00037535141
4.8195842e-09
8.7442096e-05
0.0011466167
0.0011464788
0.00089227067
0.001702845
0.00045498237
0.0025887909
0.0037865485
0.0037907296
0.0027912788
0.0047401208
0.0068672103
0.0042333274
9.6337134e-05
1.2133447e-08
1.2125087e-08
1.2343524e-08
0.00028200289
1.2541623e-09
1.2429719e-09
0.00018206071
0.00099076697
0.0013939534
0.00019683683
2.3812597e-09
2.0073253e-09
2.0093042e-09
0.0079708981
0.054005643
0.0039683722
8.3323935e-08
9.2074505e-05
1.4258297e-09
1.4173434e-09
1.4173425e-09
0.0043981811
5.7450143e-08
0.00047154571
9.6119376e-10
9.626228e-10
1.2540846e-09
1.0266578e-09
1.5891854e-09
1.4519868e-09
1.4459119e-09
1
1
1
1
1
1
1
1
1
1
1
1
1
0.93071425
0.71699576
0.40628363
0.047628339
5.8031877e-09
5.5818749e-09
5.5849219e-09
6.2873526e-09
5.2869753e-09
6.3893854e-06
3.6220661e-06
5.4717924e-09
0.0033096956
0.00509472
0.0037345669
5.391051e-09
4.3835983e-09
0.0015966561
0.00010013397
3.9368687e-09
3.9365498e-09
0.0030210037
4.807025e-05
4.4393475e-05
4.4393308e-05
0.00068781957
0.0066599253
0.0067753868
0.0067805053
0.0060101634
0.00010705742
1.212501e-08
1.2125009e-08
0.00087583854
1.0903044e-09
1.1036558e-09
1.4580839e-09
1.2676712e-09
1.1716694e-09
0.00017021384
5.7816196e-09
0.0064227078
2.1481423e-09
0.053393684
0.069631564
0.02214179
0.00014042428
0.0063440241
0.00042502717
1.6771407e-09
1.7356043e-09
1.4173425e-09
0.0086478612
0.0086443469
1.0141598e-09
9.6297638e-10
3.5912957e-06
3.531785e-06
1.1107333e-09
2.3639457e-05
0.00057257133
0.00064803074
1
1
1
1
1
1
1
1
1
1
1
0.8695895
0.54767132
0.10422048
5.2547983e-09
4.5650694e-09
4.5650694e-09
5.4166619e-09
6.5638345e-06
0.00038230976
0.0029202782
0.0024815728
0.00078235594
6.5670426e-08
0.0024619966
0.0054139848
0.00031102967
5.0538947e-09
5.0974119e-09
4.5585649e-09
4.4025531e-09
4.9210914e-09
5.17156e-09
4.632221e-09
3.894066e-09
0.0013729381
0.00061250315
5.0581172e-05
0.00060563496
8.7582937e-08
8.7632974e-08
8.7980219e-08
0.000267018
8.4763244e-05
1.2778258e-08
1.2125202e-08
0.0015207088
2.663806e-08
1.5675933e-09
0.002314994
5.7787577e-05
1.1745765e-09
0.0060259884
0.0014196832
0.016886779
0.0041427932
0.010839513
0.068541684
0.0060153994
6.0966444e-08
0.00042012484
8.1456455e-06
2.0097886e-09
0.0018760419
0.0047775675
0.0027902469
0.0084919874
0.0069353345
1.3164794e-09
1.7145012e-05
7.407973e-06
1.2382763e-09
2.1220613e-05
0.0022796049
0.0022796047
1
1
1
1
1
1
1
1
1
0.84772961
0.45716883
0.0053012073
4.8867142e-09
4.8339752e-09
5.7909366e-09
5.7370966e-09
4.5664645e-09
3.2434902e-05
0.0026483921
0.0054655167
0.0054665029
0.004722067
3.5571901e-05
6.5857723e-08
0.0017372007
4.6835405e-09
5.2685397e-09
5.2904551e-09
5.1671042e-09
5.2583378e-09
5.5149834e-09
4.8964939e-09
5.2192644e-09
4.4962891e-09
3.8967771e-09
0.0078313331
0.0032052048
2.9320889e-09
2.4355942e-09
0.00012289739
0.00063927124
0.0017775677
0.00025171009
1.3795436e-08
1.3379487e-08
1.0327205e-07
0.0015209033
0.00083459722
0.0066678038
0.011723316
0.0044634714
5.8153885e-06
0.00046555312
0.017489137
0.00059698436
0.0051570466
3.3233248e-05
8.001341e-08
0.001618625
0.0020758907
9.2068377e-09
9.1636919e-09
0.00060834576
0.0038761574
0.0015218716
1.8874809e-09
1.6989697e-09
8.5192134e-05
4.3561003e-06
6.2127352e-10
5.984244e-10
2.1334067e-07
1.1897143e-09
0.00024886435
0.00085511348
1
1
1
1
1
1
1
0.89301632
0.51014854
0.0082844874
5.9655261e-09
5.8781734e-09
5.8780138e-09
4.8382949e-09
2.1304553e-05
0.00033856733
5.0286212e-09
0.0022977477
9.2861938e-09
9.2487816e-09
9.2451504e-09
9.1939479e-09
9.1931453e-09
0.00014601281
0.0049800152
4.5869753e-09
5.6480265e-09
5.4650588e-09
5.2580754e-09
5.1992534e-09
4.6174716e-09
5.3597775e-09
0.00082933216
0.00023887858
4.9763506e-06
0.0078940099
8.7721164e-07
7.2344699e-07
2.435803e-09
0.0024393101
0.0044051452
0.0044166127
0.00034112103
1.4094716e-08
0.0030199687
0.0029474734
0.00068371892
0.0054069607
0.011681232
0.011723317
0.011723316
0.00058468592
4.0821205e-09
0.0099366916
0.0006002263
0.0024802747
0.0018846135
7.95246e-08
0.023220506
0.023211601
0.014071325
0.012382526
0.0011195706
6.3020874e-08
6.3110374e-08
0.0054717102
1.3016305e-09
1.2964251e-09
1.1094232e-09
1.1439382e-08
6.0008914e-10
2.0151557e-06
2.1258241e-07
3.761479e-10
3.7558342e-10
1
1
1
1
1
1
0.73697191
0.10612883
1.0383309e-08
9.6306111e-09
1.6511471e-06
7.2104019e-09
1.0726932e-05
4.9649368e-09
0.00043686851
0.00068162966
6.6512872e-05
1.2238164e-08
1.2583471e-05
1.4052179e-05
0.00011034789
1.8167555e-06
9.226333e-09
0.0038296979
0.0049801904
4.5869715e-09
4.8513975e-09
5.5077836e-09
5.3478649e-09
4.5487284e-09
5.5705182e-05
0.0011651726
0.0011643761
0.00050800377
9.8172744e-05
0.00789401
0.00024002555
3.1209458e-09
2.436078e-09
2.0225681e-09
1.9856285e-09
0.0032723653
0.0018008731
2.2304529e-07
0.003442864
0.0034428641
0.0006244317
2.4481283e-08
2.4392083e-08
0.0019723314
0.0024156965
0.0010123137
5.6044933e-06
2.0673102e-06
0.0041514602
0.0001767033
0.00017569555
7.9300855e-08
0.023217366
2.8804819e-09
0.00093011297
0.0025662726
0.00023913544
0.00077550799
0.0055420087
0.012805475
0.012790189
0.00010626386
1.1306309e-09
9.4550887e-10
7.0920509e-10
5.0908906e-10
5.0879868e-10
5.0806119e-10
5.9879175e-10
1
1
1
1
0.96968275
0.47629974
1.2245301e-08
1.0092915e-08
1.7158557e-07
1.1279365e-08
0.00016914675
0.00090004156
0.00027180973
5.9245227e-09
5.9262813e-09
0.00019379748
0.00033996087
1.2229386e-08
1.367972e-08
0.00032849167
0.00038135895
0.00025476503
1.0449377e-05
0.0015159014
0.0049804691
0.0043204813
5.6787208e-09
0.0013848217
0.0025645358
2.0161143e-05
4.8189667e-05
0.0015952113
3.9464934e-09
3.7236996e-09
5.5085078e-05
0.0024541626
2.4954403e-06
0.011187634
0.0022739278
0.00011695837
2.2373119e-09
1.8772139e-09
0.0015821457
0.0054762934
0.0031316608
5.6818832e-05
4.5898558e-05
0.00049736149
3.0802004e-05
2.5877912e-09
2.5870989e-09
2.5956286e-09
0.0014046783
0.0063008527
0.0063010421
0.00059927089
1.5587217e-08
0.021196038
0.00695692
2.8255938e-09
2.6978939e-09
2.485755e-09
2.2608703e-09
0.0065054868
0.012805456
0.0053475841
0.0012770953
2.5825277e-05
1.449649e-09
0.002817665
0.0015245589
7.9066473e-10
5.4831285e-10
3.8147249e-10
2.1598346e-05
1
1
1
0.95635273
0.26682544
1.4664535e-08
1.3130489e-08
1.1261692e-08
2.115091e-05
0.00010209988
3.2881547e-06
0.002190201
0.00017884645
3.9601865e-05
1.2237436e-07
8.0734891e-09
0.00076400591
0.00098448086
0.00081565213
0.00049105127
5.2817817e-09
5.3335687e-09
5.3337534e-09
0.00024275369
0.0021420936
0.0017526419
0.0031809287
0.0035335052
0.0035492298
0.0035564953
2.8871848e-06
4.7408702e-09
4.4081188e-09
1.2790416e-07
4.3373024e-06
5.5643807e-09
1.717464e-06
0.012844108
0.011572511
4.2883277e-05
2.1026274e-09
1.7663616e-09
1.5733112e-09
1.5733074e-09
1.5733073e-09
1.5748554e-09
1.7180586e-09
0.0013257389
0.0001517409
2.958718e-09
2.5871223e-09
2.6789919e-05
2.9366466e-07
0.004861823
1.9430944e-08
0.0013268586
1.5617964e-08
0.0026215526
1.6397726e-08
0.00018071878
1.2100967e-05
2.4655428e-09
2.2608703e-09
2.2763345e-09
0.011001741
8.8913625e-10
9.6295614e-10
5.9961079e-06
0.0048979535
0.0054850287
0.0054850287
0.0042905721
5.0376265e-05
5.5405105e-10
3.8576931e-05
1
1
0.98712994
0.24917842
1.6661062e-08
1.475583e-08
2.4686091e-06
8.5531522e-06
5.5924224e-09
5.2783373e-09
8.2474375e-05
0.0021902021
0.00050294163
0.00032343515
0.00014196306
9.4564983e-09
0.00055167188
0.0011078303
0.0011077221
5.2817841e-09
5.2817817e-09
9.0560515e-06
6.1461236e-09
6.2950125e-09
5.6229828e-09
4.9037232e-09
4.2025731e-09
4.1904444e-09
4.190179e-09
0.0024179888
0.00018458393
0.00132002
0.00025804167
1.1697986e-06
5.4070285e-09
5.1003491e-09
0.0075451879
0.010079317
3.0964973e-08
3.1041772e-07
6.3529959e-09
3.2103677e-09
6.2535772e-09
1.7811203e-09
1.5918374e-09
1.5696266e-07
6.9130978e-09
2.0091347e-09
0.00036820625
3.2203457e-09
2.8535557e-09
2.8568254e-09
0.006090969
0.00070566646
1.9277692e-08
0.0087494632
0.0017980244
0.0010959444
0.012880535
0.0025885397
4.1710831e-09
2.3218788e-08
0.0011580578
5.4124933e-05
3.1489146e-09
4.3695837e-08
7.8167796e-10
4.2468319e-10
0.0054495014
0.0042684396
0.0031762152
0.0054850215
0.002262705
8.2100889e-10
6.1045799e-10
1
1
0.31575323
1.9191227e-08
1.6781388e-08
1.4763421e-08
8.4652129e-06
1.4161943e-08
1.3244642e-08
5.278433e-09
0.00025079085
0.00057893527
0.00074109727
2.2771405e-09
1.6413345e-09
2.2669166e-06
3.7700744e-05
0.00045163907
0.00033023026
6.0132094e-09
5.2817817e-09
0.00010382467
0.00063586625
6.2971862e-09
4.5424527e-05
4.905462e-09
2.3787199e-05
4.5095097e-07
4.9045037e-09
5.4582939e-09
0.0047189495
0.0047085746
0.0039647825
1.0736734e-07
4.4400179e-07
5.1004604e-09
0.0098656536
5.8116315e-07
0.00096479951
1.7237977e-05
3.739482e-09
5.6823094e-09
6.6830846e-09
2.0778615e-09
5.1512097e-09
2.13285e-09
3.4504203e-09
2.0091358e-09
0.0014873247
0.0014934542
0.0012674632
0.006003153
0.01076972
0.00069887251
1.9616602e-08
4.2002081e-06
8.5778726e-05
0.055271719
0.03831083
6.7413121e-08
5.2008057e-05
2.3776861e-09
0.0064321328
2.8627931e-06
2.8487469e-09
3.7405487e-08
7.057108e-10
4.2236843e-10
0.00068783694
1.1888061e-10
1.1888061e-10
0.0010012116
0.0028455644
0.00016098682
7.709353e-10
1
0.64568339
0.024683294
0.00032055786
1.0670107e-06
1.7894258e-08
1.7859294e-08
7.0415901e-08
9.6193161e-09
5.2784719e-09
0.00028689923
5.3726908e-09
0.00080484877
4.299805e-05
1.6413345e-09
8.9921119e-06
2.3642349e-07
2.3578626e-07
2.3508821e-07
2.5483395e-05
5.2817828e-09
5.3547745e-09
0.0035570661
0.0035527487
0.0035521815
0.0035511565
0.0003173816
6.28568e-08
0.00065600009
8.0955132e-06
0.0047386083
2.9729042e-09
2.4631743e-09
5.8988014e-06
2.16179e-09
0.00065588282
3.0679294e-08
2.15748e-05
0.0011802447
1.6205551e-07
3.0750084e-09
6.2180317e-09
6.7696718e-09
1.2846517e-06
2.2026093e-06
2.1434237e-09
1.8633865e-09
2.1390576e-09
2.1424438e-09
0.0037730559
0.0083090278
0.0063582722
5.1294291e-05
5.129424e-05
0.010888195
0.0022328281
8.6422926e-05
0.070465879
0.032035037
0.00031255608
0.001908016
2.4380126e-09
0.0064318988
4.2964235e-05
5.7548841e-07
7.637394e-10
5.9756762e-10
4.3101353e-10
1.1889689e-10
1.3200085e-10
1.6872497e-10
1.1886245e-10
1.1886245e-10
0.0001201948
9.1387222e-06
0.97021529
0.080861922
8.2567039e-08
7.9480189e-08
0.00042578666
0.00018025304
1.7872938e-08
7.9130103e-08
8.1340037e-09
5.2784781e-09
0.00028693455
5.3702314e-09
0.00080475774
7.8519472e-05
1.6413356e-09
5.5415424e-06
6.954759e-07
2.359397e-07
0.0019039354
0.0014004239
5.2819158e-09
6.763202e-09
6.5943878e-09
0.0021274717
5.768273e-09
0.00020604778
4.9654542e-09
0.00075685952
0.0017298101
4.8746241e-06
0.0016361586
3.0854449e-09
2.4693693e-09
2.0523681e-09
2.1299684e-09
0.00039528933
6.1094012e-05
0.00012871109
0.0090074658
0.00092257213
3.5167529e-09
3.8516124e-09
5.9951269e-05
1.8043e-05
7.8227823e-07
0.00043322603
0.00029034485
0.00039331283
1.0275913e-05
8.8772349e-09
0.0087973274
0.00064672521
5.1294565e-05
0.010549189
0.013025435
0.0083706588
0.056974091
0.046950631
0.0087877728
1.8183049e-09
1.5919789e-09
0.0028196007
0.0003905816
1.2118133e-09
9.8158799e-10
9.8157935e-10
0.00026979597
1.8336839e-06
1.9176379e-09
1.8683719e-10
2.3627128e-10
1.3143816e-10
1.2789107e-10
1.1889139e-10
6.2414785e-06
0.32208537
9.1030704e-08
8.7122567e-08
2.1225716e-07
0.000426096
4.963642e-08
2.6983592e-07
7.4731094e-08
7.8926525e-09
5.2784861e-09
0.00028697115
5.3637741e-09
0.00078753232
7.0898321e-05
1.6430961e-09
1.666803e-09
2.8960602e-09
0.00095064888
0.0018762835
4.0049282e-09
1.8727696e-08
7.212019e-09
6.3959873e-09
5.7450744e-09
5.7647467e-09
5.1664945e-09
4.6139861e-09
0.0014361518
0.0013038318
0.001767998
1.4781521e-05
0.0015879992
7.027293e-05
2.477958e-09
3.3693122e-06
4.388298e-09
4.9343463e-08
9.168364e-06
0.011092767
0.0029333161
3.8964505e-09
6.4913895e-05
6.4631886e-05
2.1657032e-08
2.3143901e-06
0.0052924089
0.0053036277
0.0025111612
0.0014183812
0.0016818902
0.018077154
0.0036055505
0.0038444677
0.010479241
7.9438903e-06
0.019520521
0.043873707
0.017363375
0.017568384
0.0031818433
1.6634964e-06
0.0096970501
1.1767592e-06
0.0030066671
0.0012093443
0.0016270371
0.0018092231
1.1984943e-10
1.188877e-10
2.4199706e-10
2.6891338e-10
1.2705326e-10
2.1054282e-10
2.8157968e-10
2.7625853e-10
0.10231146
9.4594801e-08
8.9890611e-08
1.2373991e-05
0.00042609894
5.2214747e-08
4.3532532e-07
1.2772775e-06
2.6103456e-07
5.2809942e-09
0.00023759034
5.3637741e-09
0.00063357359
3.7259155e-09
2.9343733e-09
7.0786698e-08
4.0563351e-08
8.0616825e-06
5.9193312e-09
4.4688361e-09
5.4348441e-09
0.0012837701
1.7342941e-05
4.9129292e-09
4.7703611e-06
5.7048065e-09
5.1211352e-09
5.1211612e-09
5.5712323e-09
0.0001975322
1.4780928e-05
0.0033371895
0.0033419243
0.00060303361
0.00012552296
3.9402742e-09
3.5632602e-09
3.6327085e-09
0.0016014869
4.5978942e-09
4.3521998e-09
0.0002363518
2.1302313e-08
2.153396e-08
0.002197844
1.5843096e-07
0.0053036273
0.005303627
7.5694243e-05
0.017533501
0.018077154
0.015824096
0.0019818458
0.00042105344
5.0741381e-07
0.0020440863
1.7350769e-05
0.034995248
0.043757973
0.016038598
1.6061188e-08
0.007741968
0.0055824456
0.0051457897
0.0051409783
0.0043874582
1.435143e-05
0.00079253251
1.1888263e-10
2.9869913e-10
3.0042966e-10
1.2236377e-10
3.2233108e-10
6.5201741e-05
4.8295662e-10
2.6283878e-08
3.0025153e-05
1.2559034e-05
7.4663253e-05
9.4018932e-05
2.4635791e-06
5.4193171e-09
5.4126823e-09
5.323292e-09
5.297647e-09
1.4360907e-06
5.3637741e-09
0.00072475397
0.00056686766
0.00072351273
3.4180071e-09
2.4633018e-09
3.2021359e-09
4.8829564e-09
5.4461358e-09
0.001682939
0.0029267036
0.00029412234
0.00036152734
3.2391797e-05
0.00015282449
9.0613151e-06
5.8507303e-09
0.001788782
1.0099089e-05
0.00097840706
0.00028487088
0.0033377839
0.0033275278
4.1858235e-05
4.2106974e-09
6.2134326e-09
2.2824776e-05
5.0386864e-09
4.9662733e-09
0.015370404
0.0002551991
2.1704708e-08
0.0028197554
0.00013034441
3.9837295e-08
0.0026340223
0.00094279777
2.3699702e-07
9.3765618e-10
0.0009889601
0.017033563
0.0090009636
1.1382089e-07
0.0038696325
0.00041022168
1.7350503e-05
0.043851328
0.0052557844
0.0044356252
0.0016241494
1.4184308e-07
0.0013695905
1.5218281e-08
0.0022989823
4.1223761e-08
0.00079733898
0.0033494289
1.1916868e-10
1.0159872e-06
3.8822748e-10
1.5408377e-10
3.2738801e-05
0.00013406852
4.1515355e-05
0.00016482696
0.00021131973
0.00021420068
3.5927886e-08
3.602308e-08
1.7008428e-05
6.9461496e-09
4.3139942e-08
7.6779817e-09
5.4341049e-09
6.4349208e-09
5.3637747e-09
0.00096085851
0.00025693331
0.0013007305
0.00023374691
0.0035193037
2.6138085e-09
2.6669188e-09
0.00041883726
0.002909356
0.0029266915
2.8434969e-07
0.00014525284
1.7812751e-09
0.0011565926
0.0013624969
0.0017605132
0.0025699629
9.5556406e-05
0.0019648738
0.00033940497
9.8648251e-10
9.7271933e-10
1.3773544e-09
9.2667073e-08
1.6442949e-09
0.00044863183
0.00016943774
0.0077505476
0.021880896
0.012839166
0.015287528
0.015219415
0.00071240833
0.00012789017
0.0010175621
3.006397e-08
3.383491e-06
2.2157363e-07
1.4499013e-09
0.0079400719
0.0031533355
0.006974229
0.006970762
0.003841681
1.7350507e-05
0.04385156
3.6909024e-09
3.7287157e-09
0.0022044504
4.2437871e-05
2.3126227e-07
4.0908391e-05
6.4624517e-08
0.00014938628
0.0018033524
0.0030439496
1.291107e-10
1.8505063e-06
4.6882108e-05
8.400017e-07
4.9464542e-05
0.00013406847
0.00010402137
0.00027215004
4.3074741e-08
0.00021341987
4.5323417e-08
3.682289e-07
5.7247432e-06
3.8372105e-06
5.4753282e-08
5.8391224e-09
5.3337539e-09
5.6019401e-09
5.3737852e-09
0.00082225739
2.5903907e-05
0.0013007305
0.00089386881
0.0055284317
2.7568889e-09
0.0016367163
0.0019590137
3.3157076e-09
0.001246458
8.9449328e-07
2.401268e-09
1.7797822e-09
1.2696609e-09
0.0023904643
0.0023891276
3.9341674e-05
0.00010724529
0.0004300955
0.00026820874
8.5331167e-06
1.3759335e-09
0.0012030333
1.0607671e-05
0.0050119933
8.1780834e-10
8.178068e-10
0.017086946
0.011616197
0.017854278
0.017820193
6.926138e-10
6.9269826e-10
0.00072799684
2.340568e-09
0.00013632725
2.9585813e-05
1.6977752e-09
1.4498922e-09
0.0015465422
1.7469767e-09
0.00044245427
1.5489959e-09
0.0012261759
0.012405613
0.0035997744
3.8916722e-09
0.00054694036
0.0043414811
1.1269748e-08
5.5420536e-06
0.0001277773
6.4522815e-08
0.00043130165
2.7412454e-07
3.8516364e-08
6.5340186e-06
1.8616654e-06
4.8812031e-05
4.8812068e-05
3.0489824e-10
0.00011611613
2.1022527e-05
0.00027215163
4.2766553e-08
4.3010672e-08
4.5939211e-08
4.8784387e-08
1.844576e-06
1.323112e-06
1.5969968e-06
5.4309633e-09
5.2962406e-09
5.2962542e-09
2.9043875e-08
2.9134817e-08
2.9254174e-08
0.0013007304
7.0305818e-07
0.0055284721
0.001205725
0.0047240678
2.6585322e-09
2.2911899e-08
2.8031209e-09
3.2993331e-09
5.6058854e-07
0.00064109036
1.9478599e-09
0.00154734
1.9047344e-08
5.6730772e-08
0.00066114261
8.9410844e-07
2.1897442e-10
2.1852522e-10
0.0011556239
0.0038653062
1.753273e-08
0.0046098614
1.2761102e-09
8.4153911e-10
5.6643599e-10
5.6643566e-10
5.6641484e-10
5.6641457e-10
6.2776372e-10
8.5555062e-10
7.9704051e-10
7.9364685e-10
0.00059539694
7.5080852e-08
0.0090800403
1.7485818e-09
1.8476388e-09
1.6770873e-09
1.7120866e-09
1.5346764e-09
0.0028571921
0.04661732
0.00053258352
0.00055581698
0.003874554
0.0038869485
0.0032075068
3.7319662e-09
2.7169583e-06
0.00022959432
1.7202293e-10
1.7640418e-08
5.6009192e-06
2.1757334e-09
7.5379737e-05
1.6826353e-05
7.151661e-06
2.7023756e-10
2.8165574e-05
5.7505236e-05
0.00027216203
5.18153e-08
8.9250382e-06
0.00029393245
0.00031347084
7.4663131e-09
1.3857679e-07
1.2536805e-08
1.2173958e-08
5.2956031e-09
7.9758526e-05
3.006974e-08
2.3973259e-05
0.0012512128
0.0009832033
7.0416809e-07
0.0038533328
0.0075516658
0.0014619154
3.3448308e-09
7.6027497e-08
4.5233644e-06
6.8813034e-06
7.7026704e-09
0.0051924838
0.00024025218
1.989795e-08
1.9378106e-08
8.0176899e-05
0.00056839464
8.4605265e-10
6.3815654e-08
7.9267843e-09
0.0036119241
0.0026943665
0.003300512
2.1479107e-07
0.004505581
0.00011661617
9.1961166e-10
5.2881077e-07
8.2536441e-09
1.0278051e-09
8.6473907e-10
1.4895642e-05
2.6806579e-06
1.0170112e-09
8.0608489e-10
0.0049123998
0.022361648
0.01542924
0.0017369449
1.7909297e-09
1.5346791e-09
1.5346765e-09
0.0016937613
0.045528273
0.0017890145
0.0014496606
9.3093213e-10
8.3838515e-10
0.00021029217
0.00024715681
5.098892e-05
0.00088565223
1.7201916e-10
7.0370424e-09
2.4074084e-09
2.1757909e-09
9.3729071e-05
3.6256445e-08
2.1962888e-10
2.1942551e-10
2.4363434e-05
8.229876e-05
0.00027216396
1.413874e-07
1.1886099e-05
0.00033624561
0.00033622786
7.2501523e-09
1.5321365e-07
2.5393447e-07
1.1938004e-08
5.2956788e-09
0.00012752265
3.2296841e-08
3.9028622e-05
0.00087014742
1.3652908e-08
0.00021916623
2.0573689e-05
0.007551665
2.8016559e-06
0.0020522811
6.4604268e-08
0.00021771072
0.00094069449
1.1825206e-05
0.0045515603
0.0032691021
6.4192052e-06
0.00047775314
1.0504589e-09
3.6330634e-10
8.0875377e-10
3.6287629e-08
0.00018578989
3.5932897e-09
3.6160398e-09
0.0011806161
5.112828e-05
0.0054808236
0.003365909
0.0003713917
1.8748932e-09
1.5304995e-09
1.4622701e-09
0.003238564
0.00031855568
1.0458166e-09
8.0787347e-10
8.076785e-10
0.017674632
0.022361649
0.022293952
0.0094952382
0.010429295
0.00088803643
1.7551005e-09
3.7733545e-06
1.2733411e-08
0.001207788
1.7875394e-05
0.00085440536
5.8758773e-10
5.8757547e-10
2.5897551e-05
2.3817308e-05
0.00062052518
1.7204194e-10
4.5510219e-09
9.8127299e-09
5.8951068e-09
9.372982e-05
2.0970169e-05
3.4771949e-10
2.1942952e-10
2.9373426e-05
8.2298915e-05
5.6898121e-05
0.00021811454
3.6224575e-06
0.00033624634
0.00033622829
7.2900833e-09
1.0223737e-06
1.0222688e-06
6.3196457e-07
5.4129729e-09
9.7903471e-05
2.8246e-05
1.0895974e-08
1.2054161e-08
1.1252187e-06
0.00028471231
2.7013955e-05
0.0029835583
9.5351199e-06
0.0054141597
0.00044576033
5.401637e-05
0.00093985023
0.00017106537
8.0874375e-07
0.0062231527
0.0003054758
0.0050524797
0.0018388071
8.9020902e-10
4.1064491e-09
2.2601348e-10
0.00030734781
3.3913516e-06
9.0348078e-05
2.3135132e-09
2.0027725e-09
0.00032788422
0.0038520413
0.0012037048
2.1491793e-09
1.9018574e-09
0.022932677
0.02289347
0.0005104988
1.2861546e-09
1.4687718e-06
1.4536687e-05
2.0637899e-09
0.00010096591
1.4035262e-09
0.015050049
0.015997811
0.0043211855
1.6443027e-09
1.4685432e-09
1.6290373e-07
8.0922329e-08
5.6903326e-05
0.0017587105
0.0017558555
4.4926898e-10
5.7997114e-10
4.805417e-10
6.4156931e-10
1.8927854e-09
4.9057428e-09
7.2032978e-10
3.285245e-05
2.8210719e-05
6.3921503e-05
7.3529573e-06
2.5104729e-10
1.044607e-10
1.1361362e-05
9.8272537e-07
0.00026915526
0.00017326622
0.00021554409
0.00014179359
7.1876522e-09
1.256027e-07
5.7174046e-09
5.9099485e-09
6.2628868e-08
6.5511769e-08
8.7187444e-05
5.1040015e-07
2.2460324e-08
2.7547887e-07
1.1755097e-08
1.454971e-06
6.5473902e-09
5.6544192e-09
0.0040918343
0.0032753631
3.8152694e-09
3.1335978e-09
0.00081316736
2.4832177e-05
0.0042470516
0.0011384263
0.0045176796
0.0050524749
0.00041370244
7.8764254e-10
4.2299924e-10
4.2589663e-10
7.6533757e-10
0.00023941968
9.5788164e-08
0.0041403724
1.8329463e-09
1.5046056e-09
1.502441e-09
0.0015867103
0.023295959
0.023909579
1.9368756e-09
1.8442201e-09
5.2685305e-05
8.1132742e-08
0.0002441694
5.6183053e-05
6.4299764e-06
1.5813043e-09
1.5750215e-09
0.0039444613
0.0016529597
2.3987457e-06
1.3207155e-09
1.5498972e-09
7.4910431e-07
1.9154984e-05
3.0404794e-08
0.00077137559
4.4927341e-10
4.8595642e-10
5.0226622e-10
4.6215832e-10
1.7465761e-09
1.0379204e-08
7.172971e-10
5.7397082e-05
7.338847e-10
6.3919718e-05
4.0366661e-05
2.6276759e-10
1.0605216e-10
8.5943885e-06
3.595185e-06
0.00026915692
0.00026915618
1.5514862e-07
5.1768882e-06
3.1589008e-05
6.5249727e-09
6.600264e-09
9.5639575e-08
9.6990764e-08
9.2525171e-07
7.2694939e-05
8.227907e-05
5.4051947e-07
3.0348782e-06
8.6691378e-05
1.2282406e-05
0.0012397929
0.0012439536
3.9613244e-09
3.9439732e-09
4.368604e-09
9.6203314e-07
9.5613355e-05
8.1328082e-06
2.3034438e-09
2.7170431e-09
2.9259249e-09
0.0010436287
0.0013257959
0.00016251099
9.3727544e-10
1.29975e-06
0.0014427547
1.3455024e-09
1.2526335e-09
0.0051408741
0.000199844
1.699067e-05
1.7722399e-09
0.022957871
0.026803125
0.0010885003
2.2254823e-09
1.8482991e-09
1.6138847e-09
0.0020787365
5.7633785e-08
5.7594393e-08
4.9699152e-05
0.00059626438
1.8607843e-09
1.9484931e-09
2.0043487e-09
1.9515441e-05
1.3205468e-09
1.3205471e-09
1.3278725e-09
3.163686e-05
0.00022383196
6.018968e-10
4.4927432e-10
5.9710284e-10
6.2267053e-10
3.4422936e-06
1.7465789e-09
2.4766331e-08
7.410727e-10
5.4661963e-10
6.982564e-10
1.6103072e-05
2.0579553e-09
4.5016361e-08
2.4513615e-09
1.4251148e-10
1.2221712e-05
0.00026915865
2.4765679e-07
1.5744903e-07
2.9272463e-05
0.0001358739
6.9045937e-09
1.2724701e-06
7.2574375e-07
7.5898433e-06
6.5928076e-06
4.2291766e-09
8.222589e-05
5.0829731e-07
4.1471289e-06
0.00036394026
1.1998033e-06
0.00052035714
2.1095519e-05
4.455083e-09
4.4227062e-09
0.00016782741
3.3234695e-09
2.7251485e-09
2.6221212e-09
2.3248838e-09
0.0044767038
0.00066552754
0.00072130928
0.0017416852
0.0014915313
1.4586342e-09
1.0407756e-08
0.003797859
8.2012559e-08
1.2524846e-09
0.002880146
0.0068877472
0.006929755
0.015696682
2.1051178e-09
0.00027339717
1.9582935e-09
2.1401985e-09
2.5153377e-06
1.6138448e-09
0.00065638025
0.035349451
0.00010622896
5.3191936e-08
0.0054830277
0.015214341
0.00061472897
0.013115131
1.329941e-09
1.3271598e-09
0.00024446343
1.1665079e-09
1.1665074e-09
0.00091165913
6.0329372e-10
1.0638649e-05
0.00035392004
9.3018321e-05
6.3813906e-07
1.753616e-09
7.1264943e-08
6.9546726e-10
6.72644e-10
0.0010042414
2.0637365e-05
3.4448777e-08
4.6220207e-10
2.6832694e-10
5.1304113e-09
4.3965839e-08
2.7406557e-05
0.00024398207
0.00018119379
0.00018471622
6.7112209e-05
4.2820516e-05
1.8053358e-05
1.0559995e-08
7.55982e-06
5.0658545e-09
3.938669e-09
2.9263471e-09
2.8117475e-09
2.7880177e-09
2.9563806e-09
0.0015571971
1.4648574e-08
1.5158878e-08
0.0007586628
0.00018480131
0.0018115572
0.0018388314
0.00051784772
1.8502803e-05
1.0590164e-07
0.0059631837