/*--------------------------------*- C++ -*----------------------------------*\
| =========                 |                                                 |
| \\      /  F ield         | OpenFOAM: The Open Source CFD Toolbox           |
|  \\    /   O peration     | Version:  2.3.0                                 |
|   \\  /    A nd           | Web:      www.OpenFOAM.org                      |
|    \\/     M anipulation  |                                                 |
\*---------------------------------------------------------------------------*/
FoamFile
{
    version     2.0;
    format      ascii;
    class       volScalarField;
    location    "3e-05";
    object      k;
}
// * * * * * * * * * * * * * * * * * * * * * * * * * * * * * * * * * * * * * //

dimensions      [0 2 -2 0 0 0 0];

internalField   nonuniform List<scalar> 
7500
(
9.9993211e-06
9.9962175e-06
9.995653e-06
9.9945497e-06
9.9924038e-06
9.992238e-06
9.9916738e-06
9.9900744e-06
9.9890437e-06
9.9873257e-06
9.9863599e-06
9.9850012e-06
9.9840578e-06
9.9841885e-06
9.9844485e-06
9.9849564e-06
9.9852858e-06
9.9853357e-06
9.9856205e-06
9.9865419e-06
9.9884762e-06
9.9918375e-06
9.9967094e-06
1.000281e-05
1.0010659e-05
1.0019769e-05
1.0028651e-05
1.0034375e-05
1.0039545e-05
1.0042267e-05
1.0044599e-05
1.004627e-05
1.0049138e-05
1.0053335e-05
1.0061712e-05
1.0066265e-05
1.0074013e-05
1.0077462e-05
1.0081903e-05
1.0084277e-05
1.0087837e-05
1.0090557e-05
1.0095304e-05
1.0099169e-05
1.0106439e-05
1.0111416e-05
1.0119403e-05
1.0124671e-05
1.0132011e-05
1.013875e-05
1.0151123e-05
1.0158712e-05
1.0172465e-05
1.0185057e-05
1.0204666e-05
1.0218795e-05
1.0243829e-05
1.026239e-05
1.0297622e-05
1.0320896e-05
1.0365956e-05
1.0396727e-05
1.0454694e-05
1.0494223e-05
1.0570914e-05
1.0620503e-05
1.0715953e-05
1.0777636e-05
1.0897899e-05
1.0974754e-05
1.1126476e-05
1.122008e-05
1.1406388e-05
1.1518181e-05
1.1815771e-05
9.9992933e-06
9.9972779e-06
9.9960311e-06
9.9943843e-06
9.9927234e-06
9.9913846e-06
9.9903072e-06
9.9897284e-06
9.9887242e-06
9.9884614e-06
9.9884892e-06
9.9884534e-06
9.9884726e-06
9.9885448e-06
9.9887396e-06
9.9892386e-06
9.9902444e-06
9.9923524e-06
9.9951098e-06
1.0000577e-05
1.0005439e-05
1.0015441e-05
1.0022665e-05
1.0036939e-05
1.0046633e-05
1.0061285e-05
1.0071463e-05
1.0082559e-05
1.0091269e-05
1.0098738e-05
1.0107072e-05
1.0112585e-05
1.0120704e-05
1.0125953e-05
1.0133624e-05
1.0139135e-05
1.0147379e-05
1.0155114e-05
1.016722e-05
1.0179446e-05
1.0199171e-05
1.0218062e-05
1.0248585e-05
1.0275821e-05
1.0319454e-05
1.0357135e-05
1.0417693e-05
1.0469545e-05
1.0555449e-05
1.062719e-05
1.0748735e-05
1.084837e-05
1.1018085e-05
1.1151635e-05
1.1375494e-05
1.1553258e-05
1.1846959e-05
1.2078013e-05
1.2460493e-05
1.2744717e-05
1.3236114e-05
1.3597663e-05
1.421358e-05
1.4650001e-05
1.5407346e-05
1.5940308e-05
1.6858792e-05
1.7485993e-05
1.8581052e-05
1.9329734e-05
2.0654237e-05
2.1525385e-05
2.3075119e-05
2.4056301e-05
2.6412913e-05
1.0000057e-05
9.9998187e-06
1.0000082e-05
9.9999653e-06
1.0000273e-05
1.0000728e-05
1.0001754e-05
1.0002805e-05
1.0004649e-05
1.0006321e-05
1.000972e-05
1.0012343e-05
1.0016857e-05
1.0023968e-05
1.002949e-05
1.0040689e-05
1.005064e-05
1.0070429e-05
1.0085068e-05
1.0113444e-05
1.0134341e-05
1.0177131e-05
1.0206263e-05
1.0265279e-05
1.0305227e-05
1.0369604e-05
1.0416757e-05
1.046559e-05
1.0513831e-05
1.0548782e-05
1.0594302e-05
1.0625427e-05
1.0675011e-05
1.0715847e-05
1.0782968e-05
1.0847381e-05
1.0955977e-05
1.1065066e-05
1.1248595e-05
1.1430211e-05
1.1731278e-05
1.201864e-05
1.2489503e-05
1.2917868e-05
1.3613696e-05
1.4223773e-05
1.5218553e-05
1.6065905e-05
1.7474336e-05
1.8634176e-05
2.0588223e-05
2.216362e-05
2.4817049e-05
2.6860466e-05
3.0247461e-05
3.287554e-05
3.715509e-05
4.0469346e-05
4.5789884e-05
4.9743728e-05
5.6358538e-05
6.1205677e-05
6.9159763e-05
7.4857309e-05
8.4288438e-05
9.1006949e-05
0.00010206274
0.00010971117
0.00012236258
0.00013122234
0.00014601154
0.00015599722
0.0001725914
0.00018345307
0.00020786998
1.0005639e-05
1.0008311e-05
1.0016303e-05
1.002015e-05
1.0029689e-05
1.0034971e-05
1.0046503e-05
1.0052253e-05
1.0065469e-05
1.0072409e-05
1.009e-05
1.0101861e-05
1.0124417e-05
1.0158414e-05
1.0184464e-05
1.0241006e-05
1.0284592e-05
1.0371933e-05
1.0427605e-05
1.0538305e-05
1.0611256e-05
1.0763681e-05
1.0863041e-05
1.1070618e-05
1.1195233e-05
1.1430733e-05
1.1602594e-05
1.1808577e-05
1.2081822e-05
1.2303932e-05
1.2690775e-05
1.3052463e-05
1.3691968e-05
1.4309224e-05
1.540844e-05
1.6470508e-05
1.835591e-05
2.0129749e-05
2.3216995e-05
2.6046509e-05
3.0876226e-05
3.517994e-05
4.2416621e-05
4.8619182e-05
5.8946974e-05
6.7536117e-05
8.1811108e-05
9.3406712e-05
0.00011284931
0.00012825588
0.00015434724
0.00017451831
0.00020860254
0.0002337858
0.00027585293
0.00030699173
0.00035825537
0.00039620241
0.00045708846
0.00050131605
0.0005746787
0.00062685108
0.00071190137
0.00077196473
0.00086982566
0.00093833047
0.0010495613
0.0011254203
0.0012486644
0.0013342602
0.0014740614
0.0015679408
0.0017194704
0.0018189614
0.0020351697
1.0004821e-05
1.000924e-05
1.0019729e-05
1.0027845e-05
1.0045582e-05
1.0057505e-05
1.0084567e-05
1.0102289e-05
1.0146507e-05
1.0172569e-05
1.023509e-05
1.0278688e-05
1.0339663e-05
1.0444006e-05
1.0522646e-05
1.0686688e-05
1.0802225e-05
1.1028429e-05
1.1170659e-05
1.1455731e-05
1.1655471e-05
1.2062439e-05
1.2381805e-05
1.3017095e-05
1.3575815e-05
1.4656152e-05
1.5719369e-05
1.7615839e-05
2.0017893e-05
2.2912748e-05
2.8076246e-05
3.329499e-05
4.2575766e-05
5.1502879e-05
6.7619955e-05
8.241524e-05
0.00010922755
0.00013266295
0.00017421858
0.00020944862
0.00027117369
0.00032213792
0.00041012391
0.00048031315
0.00060032286
0.00069366493
0.00085218624
0.00097342163
0.0011795271
0.0013352426
0.0016017496
0.0017976605
0.0021313037
0.0023667615
0.0027648151
0.003044432
0.0035141975
0.0038421137
0.0043767328
0.0047512685
0.0053741335
0.0057992465
0.0064990173
0.0069775576
0.0077587467
0.0082870358
0.0091467574
0.0097162984
0.01064211
0.011268814
0.012289412
0.01295754
0.014028205
0.014718234
0.016192883
1.0004306e-05
1.0041902e-05
1.0050596e-05
1.010015e-05
1.0119152e-05
1.0163284e-05
1.0213703e-05
1.0266475e-05
1.0355792e-05
1.0440862e-05
1.0540218e-05
1.0683197e-05
1.0792358e-05
1.0990861e-05
1.1153446e-05
1.1461711e-05
1.1710477e-05
1.2172074e-05
1.2628154e-05
1.3490954e-05
1.4553528e-05
1.6606769e-05
1.9222636e-05
2.4325251e-05
3.0405669e-05
4.2248942e-05
5.5308209e-05
8.0418986e-05
0.00010627936
0.00014887642
0.00020994429
0.00027359341
0.00038093187
0.00048618579
0.00066736272
0.00082542151
0.0011163314
0.001351733
0.0017746703
0.0021088237
0.0027067076
0.0031648551
0.0039730231
0.0045747427
0.0056272627
0.0063919582
0.0077181741
0.0086698413
0.01031573
0.011492453
0.013531446
0.014953778
0.017397774
0.019045014
0.021855785
0.023734436
0.026953355
0.029065693
0.032590239
0.034953891
0.038907321
0.041494247
0.045815185
0.048650321
0.053319658
0.056349567
0.06131286
0.064490789
0.069682515
0.073091877
0.078646956
0.082187208
0.087849444
0.091394962
0.098873737
1.0016508e-05
1.0178026e-05
1.0260146e-05
1.0556733e-05
1.0701151e-05
1.1024e-05
1.131522e-05
1.1592687e-05
1.1995949e-05
1.221048e-05
1.2623887e-05
1.2831326e-05
1.32302e-05
1.3559412e-05
1.4137882e-05
1.5001412e-05
1.6522638e-05
1.9164406e-05
2.3679089e-05
3.2376509e-05
4.5074364e-05
7.0104865e-05
0.00010178864
0.00016472168
0.00023520583
0.00037463523
0.0005162711
0.00079360751
0.0010536718
0.0015534178
0.0019945459
0.0027660094
0.0035560452
0.0047469485
0.0060355165
0.0074388506
0.0098352744
0.01159726
0.014851262
0.01726445
0.021618777
0.024721392
0.030284796
0.034185782
0.041110346
0.045823397
0.054134569
0.059745912
0.069610961
0.076269774
0.087940375
0.095687249
0.10909372
0.11776291
0.13259798
0.14212579
0.15864079
0.1689172
0.18643309
0.19769128
0.21655021
0.22852051
0.24868702
0.2614429
0.28254984
0.29578274
0.31746152
0.33101372
0.35304412
0.36738548
0.39038625
0.40515854
0.42773709
0.44186238
0.47108716
1.0090318e-05
1.0543425e-05
1.0848981e-05
1.1467992e-05
1.1910853e-05
1.2302717e-05
1.3082066e-05
1.3648895e-05
1.4908927e-05
1.5588964e-05
1.7214107e-05
1.8255353e-05
2.0569117e-05
2.339429e-05
2.8855514e-05
3.841351e-05
5.6781929e-05
8.7927571e-05
0.00014161221
0.00024677593
0.00038460818
0.00066166027
0.00097951014
0.001617641
0.002267453
0.0035622421
0.0047609655
0.0071284622
0.0091588378
0.013113217
0.016305951
0.022430958
0.027150649
0.036110793
0.042810075
0.05469204
0.066236339
0.077084192
0.096954583
0.11006411
0.13356451
0.14960037
0.1785496
0.19793046
0.23239333
0.25461734
0.2941168
0.31951278
0.36455274
0.39358503
0.44478725
0.47765799
0.53455832
0.57033473
0.63115547
0.6695094
0.7357242
0.77586157
0.84499917
0.88825728
0.96007436
1.005755
1.0820647
1.1300073
1.2085243
1.2573654
1.3360019
1.3854463
1.4641511
1.5170963
1.5979655
1.6515713
1.730307
1.7818572
1.8862222
1.0585138e-05
1.3295707e-05
1.4126034e-05
1.6410783e-05
1.6982649e-05
1.8767486e-05
1.9579036e-05
2.0290226e-05
2.104537e-05
2.2560413e-05
2.5912172e-05
3.2729515e-05
4.6891527e-05
7.446974e-05
0.00012926992
0.00022858122
0.0004310663
0.00073804857
0.0012859071
0.0022698263
0.0034803466
0.0058851317
0.008406962
0.013419359
0.018113945
0.027414654
0.035299556
0.050870609
0.063128132
0.087070499
0.10488856
0.13927269
0.16387652
0.21080651
0.2434218
0.30483098
0.34708892
0.41680892
0.48751023
0.54837702
0.64702964
0.71777952
0.83004006
0.90929829
1.0423357
1.1288991
1.2795499
1.374685
1.5412877
1.6490571
1.8353941
1.959042
2.1616881
2.2928812
2.5069035
2.6455336
2.87905
3.0252398
3.2745719
3.4321694
3.6888222
3.8604886
4.138096
4.3204377
4.6077119
4.7919362
5.0758644
5.2625382
5.5545908
5.7537005
6.0529986
6.268861
6.5870845
6.8213653
7.2921842
1.0227424e-05
1.2009197e-05
1.3230665e-05
1.6948027e-05
1.8817373e-05
2.3999656e-05
2.7000831e-05
3.4601604e-05
4.2506725e-05
5.8331464e-05
8.9613538e-05
0.00015393233
0.000283
0.00053715536
0.0010522905
0.0019132904
0.0037386983
0.0061388767
0.011160359
0.017023515
0.026564504
0.0418731
0.058329617
0.087808669
0.11541542
0.16633724
0.20748634
0.28645845
0.34435423
0.45585175
0.5343224
0.6832131
0.78644908
0.97644959
1.1061843
1.3433156
1.5002895
1.7833942
1.9679615
2.2970287
2.529147
2.8853305
3.1737912
3.5582519
3.9212084
4.3081413
4.7753847
5.1582727
5.721462
6.1692729
6.7677252
7.3197615
7.9429057
8.5047516
9.2175831
9.7865436
10.690965
11.31046
12.331034
13.006196
14.067679
14.820097
15.971239
16.829142
17.97745
18.798764
19.978139
20.819474
22.160578
23.135636
24.724033
26.091048
28.15893
29.721098
32.716922
1.1050825e-05
1.1653453e-05
1.2831393e-05
1.3423863e-05
1.4551806e-05
1.7407321e-05
2.4678725e-05
4.4095e-05
9.3119368e-05
0.00020949121
0.00046611958
0.0010166333
0.0021064424
0.0042609559
0.0085463448
0.014830012
0.028316242
0.043633485
0.076414399
0.10803526
0.17467363
0.23153079
0.34250104
0.44370738
0.61236963
0.78772193
0.99342166
1.2812554
1.5194676
1.9183684
2.2285135
2.7211363
3.1538919
3.7107995
4.2692215
4.945438
5.5992757
6.4377513
7.166859
8.2688308
9.054171
10.414198
11.290418
12.871677
13.957204
15.893409
17.24375
19.338919
21.282282
23.281253
25.496319
27.961748
29.922705
33.074678
35.729383
39.661219
44.204753
47.312637
52.731673
56.277238
61.400434
65.378673
71.770036
76.235457
81.783918
86.41262
93.504252
97.72655
109.06828
115.19732
134.29315
145.01637
163.10094
172.57779
191.29468
1.1691645e-05
1.403685e-05
1.6006958e-05
1.8390716e-05
2.4143399e-05
4.1890783e-05
9.4609598e-05
0.00024118666
0.00060524647
0.001464946
0.0033105369
0.007383924
0.014929943
0.030727361
0.056280218
0.095043206
0.1711587
0.2502251
0.41483547
0.55811267
0.85612353
1.0878485
1.5646548
1.9079103
2.6025572
3.0767417
4.0285786
4.6612575
5.8512073
6.7592081
8.2368813
9.4533721
11.299446
12.771877
15.108418
16.832656
20.017585
22.271368
26.209349
29.202279
33.530848
38.001651
41.837184
49.411741
54.685237
64.687124
70.60591
82.193083
88.979217
99.272548
110.93666
119.82338
133.54416
157.01259
174.95826
211.49648
228.95851
240.1068
276.16337
297.25945
315.73685
351.80795
390.72916
419.11136
437.9228
476.70527
514.67241
531.71545
607.0943
614.97375
670.01888
679.02287
701.85855
747.02322
771.10675
1.1459532e-05
1.3270675e-05
1.5973496e-05
2.6210504e-05
6.6097443e-05
0.00020783929
0.00062759723
0.0017487531
0.004394918
0.01047561
0.022783192
0.051511492
0.094914373
0.19455456
0.306622
0.53366113
0.82308148
1.1916838
1.8217774
2.371234
3.4452902
4.236175
5.8324153
6.9533488
9.1884795
10.741779
13.843973
15.92934
20.067456
23.061227
28.613873
32.843311
39.511763
45.488341
53.217746
62.246112
77.066474
87.188304
105.68845
117.87769
142.47891
156.71707
183.68368
240.44512
262.52966
321.25968
342.17761
415.95131
441.97334
504.96367
558.48702
592.47988
663.32631
705.53011
739.88274
881.24594
839.26066
877.26495
1043.32
941.28389
934.34595
1018.3761
967.00396
939.19334
862.53558
893.07918
788.35767
843.26421
820.02217
800.76326
709.54751
656.91956
575.50878
564.76854
456.54427
1.0756889e-05
1.4121959e-05
2.7348123e-05
0.00010147137
0.00040544745
0.0014359327
0.0043432705
0.011678184
0.028062842
0.065596789
0.13473161
0.29726228
0.49942217
0.95805981
1.4091306
2.4068684
3.2433312
4.9634847
6.4918641
8.8276376
11.812651
14.522139
19.540451
23.200703
30.627943
36.169026
47.172933
54.565223
71.474417
84.47523
107.96102
125.00332
155.65627
178.76491
223.49013
293.12773
352.49661
403.66372
508.71964
554.86825
711.55431
726.24179
869.42643
889.75408
966.9446
1121.2511
1046.4447
1209.2388
1113.4092
1141.7088
952.7215
940.79775
860.03722
806.91364
818.42987
650.34172
580.89618
621.6017
573.47199
440.53468
424.55278
311.32534
304.95362
245.32679
194.79813
164.5439
124.65332
185.02965
117.49972
125.33717
69.212734
65.926319
56.44591
45.856876
28.527208
1.0115884e-05
2.0298031e-05
0.00011336224
0.00064117981
0.0027312637
0.0092857559
0.026695307
0.068095266
0.1546575
0.36324628
0.67308846
1.3952914
2.1728511
3.8771237
5.4367254
8.7664897
11.42945
17.051021
21.377358
30.164372
37.137705
49.816902
63.799414
78.466462
109.3234
131.47355
177.66976
205.87994
311.62764
368.71768
472.11063
560.43105
704.19254
822.6872
978.18842
1081.5543
1162.8241
1220.9031
1299.77
1310.0745
1295.295
1066.0293
1071.3884
814.76731
913.2397
646.14119
670.53405
466.73351
339.60674
283.23484
158.53511
159.30035
94.528732
106.47144
114.71304
52.635435
57.164789
103.75536
47.131249
34.91007
61.879361
35.061537
28.050389
21.710169
18.862743
13.537751
14.330844
31.506586
12.062463
8.3543968
4.3680529
5.3887072
5.3547319
4.7792058
4.6770783
1.0000496e-05
7.7507417e-05
0.00074345193
0.0041682353
0.016760495
0.052988333
0.14273185
0.34526788
0.73345483
1.6607219
2.8174667
5.4452121
8.0280159
13.467528
18.595813
28.61935
37.125803
55.45389
69.771871
100.83445
127.91416
181.23513
227.00876
311.25597
467.6962
563.79994
772.48295
883.14721
1183.283
1222.2524
1327.117
1426.8663
1449.6854
1365.3065
1194.7233
924.68397
943.33129
656.58945
483.73014
409.66104
221.47991
201.81344
135.25844
124.76063
159.011
55.828969
106.66433
45.598648
25.654827
15.286332
11.56602
11.694137
12.173232
16.541989
11.859524
5.784187
8.2669196
29.183259
13.726024
6.9221121
17.24773
10.772896
9.0190529
7.821576
10.368016
8.1205688
11.268753
15.485359
3.9232167
2.7015692
2.1214927
2.3112095
2.2540499
2.5280955
3.2538422
9.8875829e-06
0.0005084602
0.0047758017
0.024517628
0.090364804
0.26347389
0.66351058
1.5354882
2.9932774
6.3590905
10.147637
18.490505
26.569842
43.467668
61.58586
89.852028
122.82771
191.32334
244.26533
389.7007
514.25446
766.17749
944.67475
1258.6011
1386.1431
1501.5272
1506.1209
1518.0867
1263.4845
999.54781
713.6318
666.81147
425.51692
290.53083
152.98981
141.1452
124.39866
60.611237
48.588053
32.094488
14.082091
16.104424
12.438344
34.424522
22.807122
7.8586389
21.640466
7.6574093
4.3821317
4.7142811
4.2528425
4.3184442
5.5790278
10.148946
5.8591353
3.6841942
5.2571578
16.770884
9.1411925
4.4460963
6.6302791
5.4792874
6.901102
6.015812
9.4702666
5.9602802
12.436573
9.0351386
2.345421
2.7020463
2.1942464
1.9707216
2.0550932
2.3738391
2.6628124
2.6803407e-06
0.0032232459
0.027413452
0.12722311
0.42500432
1.1385407
2.6937342
5.7369242
10.70045
21.27322
33.074792
58.694114
84.887214
145.72647
205.65593
307.39681
473.34111
754.54602
965.4974
1397.1574
1485.8342
1744.4855
1588.1434
1475.0625
1044.1623
756.61837
559.28347
553.88246
166.47171
122.0165
80.598714
75.85508
31.431701
19.566511
11.519522
35.717626
12.036406
14.976511
14.379362
6.5913158
3.4579538
3.2247977
4.091232
10.747429
15.494066
7.1256245
10.750779
3.2164967
3.2844444
4.2811954
4.1829435
3.9079361
6.5425513
7.9152925
4.8511926
3.3324607
4.6186807
10.781551
5.8173399
3.4429687
4.088075
5.8230045
5.8919512
6.7857967
4.7341213
3.1597668
10.272589
5.1954174
2.1800664
2.0835061
2.0928482
1.9478625
2.1894183
2.5094626
2.5292304
1.0527903e-06
0.018144329
0.13831944
0.57759765
1.7454228
4.3058358
9.733513
18.622081
35.495171
65.908939
104.9549
190.0384
285.5521
544.00528
779.93063
1267.502
1464.1348
1780.1521
1735.9217
1595.0128
1175.1142
762.47664
384.80783
248.31004
125.75081
99.279582
86.468678
55.058517
12.288534
13.259275
16.634797
9.754758
4.6258116
1.7771236
2.0215734
11.323573
2.6861555
4.7362216
10.232425
4.5842298
2.1181912
2.3352494
2.7711779
7.8343139
5.6491255
7.8149247
7.7995865
2.9392108
2.8686911
5.2967257
4.0865149
3.9353985
4.712318
5.9018478
3.8356264
3.2071851
4.0221667
7.54977
4.502136
3.2716401
3.7682531
6.4010806
6.7417755
9.6280581
6.0921526
3.0034175
6.4943767
3.4926386
2.1637652
1.9143618
2.1332832
2.2373593
2.4013775
2.743452
2.5998895
0.00071815036
0.096329172
0.62385264
2.3044629
6.291658
14.407644
30.329768
58.498922
115.36946
204.96173
353.92536
702.25261
1102.8737
1656.9232
1921.9715
1874.7468
1506.4134
932.50715
618.91179
366.1256
187.46116
85.552077
31.994678
22.931315
15.73073
24.260411
21.439733
10.8025
3.5548707
3.1750386
5.3488535
2.2431613
1.5271522
0.89320389
0.95158608
5.0967178
1.8364429
2.1370798
12.425134
3.1070736
1.5234659
2.9822103
2.5061615
5.3808479
3.9291255
3.5015271
4.8007248
2.7321409
2.7166781
8.7315329
6.2752341
5.8208162
4.905205
5.409042
3.5616537
3.2267204
4.4305255
5.0427482
3.4775662
4.8093652
4.0898449
5.3598117
5.8335135
5.6012373
5.0020614
2.8069364
4.5870529
2.6569213
2.2552557
2.0821356
2.0345018
2.4472346
2.9374802
2.6105132
2.6395231
0.0082543946
0.45655801
2.5038897
8.1174073
20.216634
44.064628
91.023285
185.95161
380.73638
730.64251
1392.6546
1826.6058
1967.4978
1768.79
1133.7562
441.43066
260.2478
127.46739
110.88416
64.982001
21.103605
6.4246855
2.8518445
2.9111174
6.0212894
9.170901
9.109749
13.637047
3.9374809
2.0969439
2.9262465
3.3268205
1.3335497
0.80427853
0.80714729
3.6126954
2.0508204
1.1721777
5.4665338
2.9492446
1.3431917
4.4915229
2.8724286
4.2819528
4.9843127
3.4926012
3.7683102
2.4614256
2.9858116
9.3146585
8.6946709
7.3387142
4.8693651
4.3346343
2.9841877
3.12121
4.1679012
4.1761435
3.9157003
14.366718
5.0571557
6.2646337
5.7302066
3.4637572
3.8940371
3.22665
3.3097602
2.585876
2.3034308
2.4283512
2.3823523
2.4660822
3.0984908
2.9454619
3.3094669
0.063521297
1.9348878
8.8991292
25.489387
59.558616
129.47623
283.243
641.3094
1470.9131
1807.4285
2088.0675
1550.0965
716.45058
377.93186
143.43759
42.725544
31.42845
20.771968
16.224944
6.0994848
4.6884017
1.5017528
1.2354193
1.9239142
4.8036402
5.4774057
7.2997011
13.461013
4.2940941
1.9224188
1.7257142
1.9709493
1.2704244
0.84202106
0.87567881
3.6691758
1.5097566
1.09827
1.770517
1.7121901
1.2681479
3.0678494
7.3843689
4.7138379
6.717844
3.9405453
3.6677177
2.4224631
3.9644928
7.8694724
11.02875
8.2055164
4.6346752
3.9454657
3.468952
5.1046706
4.5853927
4.0698828
5.0338417
18.971597
5.8050106
7.8590205
6.25164
3.1963267
4.1815145
3.0190096
3.013524
2.263618
2.9126091
3.0818117
2.9168194
2.8658064
2.82029
3.1589969
3.6807857
0.39264546
7.3364804
28.259706
73.142576
168.61862
390.45005
999.77478
1791.4324
2421.3265
1570.3032
707.8347
285.43164
111.08782
53.31803
11.26246
3.3250812
3.8931302
4.5242717
3.3600848
2.2072431
4.11993
1.2704794
1.147527
1.702315
3.1783721
5.7511147
13.068899
6.3616311
3.6659098
2.0272261
1.3078435
1.3584539
1.1367091
1.0227625
0.95826694
3.973015
1.4529979
1.2733458
2.6274846
2.0508387
1.2395891
5.4198687
25.244388
11.892519
7.1109131
3.6130311
3.6285367
2.4025571
3.0100502
8.8892814
7.4808976
5.8222418
4.3399608
3.9388073
5.0863383
10.281377
5.8715598
4.3849597
5.8892878
10.557479
10.222877
9.2106859
6.4902296
2.9817461
6.1235811
3.070148
2.3164809
1.8730741
3.1467917
3.9325428
3.0372583
2.9877595
2.9377876
3.3504241
3.2377061
2.0766754
24.973105
81.745671
198.98968
491.00403
1338.8523
1943.1698
1889.3429
1031.8292
294.80412
134.85099
33.354213
13.552876
5.6086893
1.2234953
0.59557049
1.0244062
2.5109746
2.2284583
1.4542537
2.2253547
1.2441954
1.5671499
1.6391212
3.5226699
5.5955587
7.138774
4.306473
3.0667417
2.1408551
1.4086834
1.3730931
1.2490933
1.2699407
0.9552816
3.4575503
1.4694956
1.416258
4.8707537
2.9889928
1.3814292
9.0933164
16.748934
13.186243
6.7162297
3.3272568
3.550368
2.2507434
2.5973535
11.228625
5.1663761
7.006579
4.3321248
3.4133639
6.9508016
21.473101
11.833109
4.3900767
3.8688782
14.277176
7.3111549
7.7330983
6.3055049
2.806378
3.3458036
2.7961785
2.3555096
1.7532068
3.3510853
4.1605135
2.9110253
2.8798143
3.7297582
3.5491718
2.9693639
9.6617431
77.236085
220.74424
545.19306
1596.856
2152.7724
1414.8804
563.42134
193.7706
32.849752
16.921465
3.015451
2.198278
1.4370606
0.7302762
0.43603592
0.60289
1.8193759
1.8772578
1.2564251
2.1183879
1.1992253
2.3772042
1.6530761
5.2554321
11.900954
3.3364372
4.2427088
2.9077538
2.0960963
1.6017705
1.5788345
1.5094684
1.2690911
1.0044739
2.2598013
1.3715246
1.6273113
2.3261298
1.2490292
1.5331809
6.8904746
20.809833
11.924945
4.6536894
3.5812306
3.0395681
2.2434085
2.5699415
4.6917898
3.9231152
5.6248252
3.2789717
2.8833578
3.3387217
24.871001
12.401562
4.4150173
3.9955828
3.4216027
2.7848427
5.2369354
4.9221894
2.6538631
2.8795984
1.75693
2.7960254
1.8980123
3.8008483
3.686156
2.7851297
2.7367113
4.5277984
3.969935
2.9078702
40.435209
219.24013
581.7343
1619.3332
2189.9503
1186.0395
496.31232
154.23938
18.231278
3.4016785
2.8248227
0.654301
0.68948581
0.96627001
0.67143078
0.41722403
0.49472178
1.437553
1.5141011
1.1834588
2.4462969
1.038415
2.308842
1.458991
3.0974679
15.150262
3.2831018
3.7657262
2.5040175
2.0861781
1.6083366
1.7940809
1.6167284
1.0728881
1.1202413
1.7407025
1.5968923
1.6536193
1.3878819
0.91488257
1.3777124
3.4342738
1.9739488
6.1281831
3.7780585
3.6066684
2.8581829
2.3090495
3.062202
2.800254
2.6312441
3.1539216
2.3637083
2.2428652
3.5750943
5.2256417
13.503225
5.553095
3.2978086
2.9513962
2.6297921
3.9399635
4.6136656
2.1618146
3.2317925
1.9773799
2.7707755
1.9664143
3.6814104
3.2788002
2.7443381
2.7298596
4.072287
3.4997116
2.8502286
155.7797
579.14498
1609.7924
2120.1954
1055.6617
386.12519
126.32322
22.43977
1.8801601
1.2736558
0.87805173
0.53467679
0.49518476
0.93561309
0.64049388
0.39517376
0.45614357
1.1709907
1.2894433
1.0900044
1.834733
0.94018307
1.3685909
1.2647611
2.4607334
8.9816368
3.065629
1.8596836
2.385203
1.8502807
1.6539737
2.0640549
1.5952633
0.94215215
1.0683884
1.3912554
2.0454498
1.3932321
1.0225647
0.97140222
1.3827129
2.8522998
1.2919338
4.4832457
3.6825693
3.2748834
2.5762442
2.2899449
2.3137895
2.3487739
2.489774
2.4391629
2.0845825
2.4114212
3.6766328
5.1592408
14.452255
7.0349145
4.0526845
3.4917861
3.2959821
3.6084552
4.4209852
2.6388651
2.3058236
1.5752235
1.8140745
2.4676978
3.3693628
3.2941793
2.830858
2.8841434
2.9993274
3.2211798
2.9052847
494.05642
1534.6929
2551.6149
1303.8308
380.77981
87.7762
19.395995
2.759626
0.79505362
0.96890186
0.61136254
0.58286994
0.47775054
0.85494522
0.60565005
0.38153538
0.44196026
0.97074602
1.1349891
0.99846216
1.2470915
0.8608662
1.1066893
1.0350004
1.8129139
4.1891388
2.0110414
1.2604328
2.6645015
2.0967772
1.6772904
2.1658609
1.5632299
1.0048033
1.3644856
1.2460448
1.3536533
1.7447193
1.0011423
1.0543684
1.2460917
2.0815627
1.1688184
2.1217949
2.1988644
2.5963193
2.3077336
2.2880667
2.2220328
2.271738
2.4728282
2.1552162
1.9129543
2.1815761
2.5058221
6.8486618
11.717829
6.8197239
3.1836118
3.2115279
3.538499
3.6554528
4.1608315
3.8679872
2.2616037
1.0381751
1.0939361
3.0516759
3.2822143
3.214183
3.1254248
3.2443088
3.4643044
3.3256509
3.004456
1468.6947
3038.1309
2041.0165
540.66364
86.62906
12.774612
2.5302297
0.70614428
0.73117179
0.75808565
0.54477994
0.63011992
0.44143378
0.76077559
0.57211119
0.35468348
0.43728059
0.81965438
1.0271266
0.98844137
1.1953061
0.75002791
0.81288762
0.93050591
1.613773
1.6106332
1.3639812
1.1050811
3.4469015
5.2324067
1.9576482
2.1716245
1.4353206
1.2656073
2.3131057
1.273768
1.3584838
2.2442311
1.3196139
1.1150595
1.1434599
1.069693
1.192817
1.9138003
1.7112489
1.7622364
2.1849311
2.3276753
2.0068505
2.6831815
2.6640853
2.146576
1.6169992
2.8815768
2.8291616
4.3414502
8.3010677
6.9360496
3.1386894
4.0841412
3.9056105
3.7783578
3.9463785
4.5142502
2.1246224
0.84382876
1.1535124
3.898048
2.713439
3.1762963
3.3150434
3.5254348
4.4047134
4.0113694
3.0334037
4194.8066
3236.463
758.0826
108.2572
11.286555
1.870032
0.61296293
0.50999682
0.72303497
0.69539573
0.50255217
0.6779571
0.46023065
0.66854513
0.53476056
0.34582245
0.43633926
0.69424051
0.92727874
1.0586415
1.2034696
0.72701505
0.78843487
0.96378711
1.5339426
1.2565401
1.3307263
1.0897797
4.6381848
15.23866
3.0708936
2.2856809
1.2643772
1.4970706
4.4873383
1.4595799
2.4649007
2.9184396
1.8797906
1.1580555
1.1062556
1.5465522
1.2743253
1.4672955
1.5275744
1.6319616
2.3591785
2.3416768
1.9286521
3.0874198
3.1679134
2.228965
1.5556048
2.8009824
2.6305975
3.5171691
8.4758516
6.4661644
5.107692
5.7153348
5.332516
3.9038742
3.7240571
3.6847576
2.4122565
0.7857651
1.6668708
3.8899909
2.3135352
3.4671464
3.3676178
4.9014409
5.6301239
5.0187646
3.1017022
7829.7192
1571.5013
148.27483
12.720244
1.3501823
0.48280591
0.38710007
0.50924636
0.76756197
0.71488976
0.48587354
0.72737225
0.77394708
0.64577893
0.50627048
0.34475204
0.44156737
0.62618713
0.87582605
1.2175168
1.1951919
0.72569174
1.0173347
1.3992175
1.5385328
0.99869562
1.1638575
1.0755784
5.1833962
15.849786
2.7982386
2.3243762
1.2689942
1.3380823
5.5550771
1.7440068
2.3383976
2.4832395
2.2957259
2.1054835
1.25988
2.0488948
1.4972121
1.4763882
1.5306496
1.7684503
2.9255578
2.184798
1.9404452
2.7367973
2.9420736
2.2831772
1.5368921
2.9738456
1.9009857
3.1425232
7.7595621
4.9191777
8.0505483
6.4686318
3.2945106
3.8291274
3.9648911
3.6704673
2.0514839
0.87786173
1.9082254
3.1293561
2.2114713
2.7776891
4.0152303
5.916214
5.7590746
5.6178152
3.5302984
1503.4562
250.25305
15.079478
1.2441684
0.29789884
0.29299118
0.36321199
0.53695325
0.83411433
0.75411929
0.48406606
0.77746108
1.9552507
0.70777496
0.49671768
0.3512196
0.46712765
0.5981499
0.86604447
1.4891429
1.28795
0.71523836
1.2230335
6.035946
1.6937866
0.8194205
0.91262783
0.99446252
4.131833
6.9032616
3.17996
2.6124695
1.327761
1.1526726
5.4790943
2.0557068
2.2831731
1.798031
1.9725122
2.9440371
1.7441548
1.7732475
1.6567833
1.6549959
1.5885309
3.2194641
2.7081813
1.9870005
2.0303509
2.0306949
2.214507
2.1890047
1.5758945
2.1209751
1.6126863
2.3590354
5.7998877
4.2791038
6.5924051
5.7841529
3.3799891
3.8602623
3.9794799
3.763161
2.0239342
1.2079403
2.1868576
2.6703532
2.1992292
2.3641716
4.5886489
5.465288
5.8595509
5.6986947
3.925919
103.60676
21.287199
1.1829189
0.25554168
0.20605094
0.26741047
0.3627878
0.56400739
0.87141428
0.81258731
0.48710766
0.86678787
4.1853707
0.8930797
0.49603302
0.37341928
0.49362686
0.57061896
0.88754664
2.1672228
1.4545353
0.62848235
0.66982076
7.2555229
1.8860348
0.78104438
0.82805464
0.85362596
3.2850955
8.3984698
5.5287003
3.0894639
1.2863887
1.3671194
4.1101819
2.1324027
2.575118
1.7475347
1.6129891
2.8838765
2.1094491
2.2349769
1.7352722
1.9469896
1.583085
4.7787462
2.8528751
1.9928044
2.1244245
1.9846491
2.1156161
1.9497093
1.4600214
1.6034037
1.5567853
2.5812036
4.5974234
3.9949296
3.4728433
3.320207
2.9573913
4.121307
3.9907696
2.3014255
2.1734462
1.2951251
2.3230341
2.516376
2.2832435
2.3545247
4.1362944
4.7183446
6.0135934
5.5229809
3.9755112
3.7127673
1.2330074
0.26553569
0.19485059
0.20216822
0.26445126
0.36638698
0.59567149
0.91041938
0.87441542
0.49607324
0.92023469
5.6911263
1.0216991
0.51674959
0.43485725
0.49727347
0.54012334
0.94207637
3.5157782
1.6182615
0.61273913
0.66234586
2.5834018
1.8991607
0.83273892
0.79901988
0.86861091
1.2680602
3.3959794
18.807789
3.468542
1.0052301
1.4701078
2.2705826
2.0568316
2.2681165
1.4864758
1.4061461
2.4308528
2.2503582
2.398424
1.7134475
2.2011281
1.7804552
2.1404666
3.1075011
2.0043694
2.2304541
1.962272
2.0543361
1.7657834
1.4691584
1.4861205
1.6249964
2.5866479
3.9224569
3.8810558
2.948344
3.3101421
3.0470055
4.347027
7.5266092
2.1051445
2.0365448
1.1072537
2.5678235
2.8665558
2.3429355
2.2487819
2.7082272
4.7129748
4.6326943
4.9623671
3.7225434
0.65518276
0.31976621
0.22625829
0.1988715
0.21240728
0.26543199
0.3736931
0.63414653
0.95830314
0.82334934
0.50080936
0.94141346
4.5175598
0.97464091
0.5718406
0.55862404
0.49200505
0.51141167
1.0135847
4.4075032
1.7934176
0.61114549
0.62443038
1.8344442
1.9869993
1.0607752
0.80888208
1.0953013
1.348222
3.3391911
7.1104249
1.1970887
0.86978714
1.3828115
2.1086719
1.9638541
1.8393875
1.4609526
1.2862197
1.337281
1.6067414
1.5037263
1.5272255
2.3541751
2.1304683
1.7123309
2.5403416
1.918265
2.4552128
2.0324072
1.849588
1.756084
1.7712244
1.3955749
1.8951798
2.4963683
3.5705268
4.0350361
2.8834071
3.5382132
4.5279486
5.388538
13.583033
2.2642506
1.7286828
1.0266061
2.2793169
2.7182602
2.4011139
2.0484184
2.6584987
5.0174755
4.2305723
4.3360041
3.3300442
0.59187752
0.29129874
0.23659797
0.21610399
0.22056704
0.26825504
0.38601662
0.68332926
1.0276591
0.73552466
0.49563361
0.78673571
2.0190601
0.90723987
0.64434082
0.61570776
0.4759506
0.4939611
0.97535449
4.4746664
1.9489012
0.62447136
0.63053481
1.573413
1.8283126
1.2102248
0.78725811
1.1839688
1.5818927
4.8682086
1.5318442
0.72851601
0.82632787
1.2756994
2.443692
1.9125184
2.5154088
1.400462
1.3131789
1.4186743
1.3037231
1.2386705
1.4488818
2.3307793
2.1700984
1.760799