/*--------------------------------*- C++ -*----------------------------------*\
| =========                 |                                                 |
| \\      /  F ield         | OpenFOAM: The Open Source CFD Toolbox           |
|  \\    /   O peration     | Version:  2.3.0                                 |
|   \\  /    A nd           | Web:      www.OpenFOAM.org                      |
|    \\/     M anipulation  |                                                 |
\*---------------------------------------------------------------------------*/
FoamFile
{
    version     2.0;
    format      ascii;
    class       volScalarField;
    location    "3e-05";
    object      nuSgs;
}
// * * * * * * * * * * * * * * * * * * * * * * * * * * * * * * * * * * * * * //

dimensions      [0 2 -1 0 0 0 0];

internalField   nonuniform List<scalar> 
7500
(
4.1405493e-10
4.1897576e-10
4.2390329e-10
4.2877338e-10
4.3357474e-10
4.3837291e-10
4.4311659e-10
4.4779122e-10
4.5243242e-10
4.5701185e-10
4.6156231e-10
4.660576e-10
4.7051651e-10
4.74955e-10
4.793511e-10
4.8370777e-10
4.8801475e-10
4.9226942e-10
4.964844e-10
5.006699e-10
5.0483582e-10
5.0899331e-10
5.1314534e-10
5.1728548e-10
5.2142794e-10
5.2556082e-10
5.2964546e-10
5.3360376e-10
5.3750365e-10
5.4129376e-10
5.4502857e-10
5.4870049e-10
5.5236016e-10
5.5601186e-10
5.5973554e-10
5.6330925e-10
5.6692861e-10
5.7038304e-10
5.73821e-10
5.8297222e-10
5.8665959e-10
5.9028066e-10
5.9391932e-10
5.9749048e-10
6.0112122e-10
6.0464273e-10
6.0821325e-10
6.1166108e-10
6.1513041e-10
6.1854051e-10
6.2208219e-10
6.2543704e-10
6.2894151e-10
6.3237055e-10
6.3597851e-10
6.3937686e-10
6.4307797e-10
6.4653795e-10
6.504858e-10
6.540191e-10
6.5820622e-10
6.6190371e-10
6.6643134e-10
6.7033603e-10
6.7539246e-10
6.7954807e-10
6.8513521e-10
6.8960725e-10
6.9591609e-10
7.0080132e-10
7.0803584e-10
7.1337935e-10
7.2162284e-10
7.2746084e-10
7.3909159e-10
4.5545979e-10
4.6089778e-10
4.6630244e-10
4.7164682e-10
4.7693984e-10
4.821896e-10
4.8739491e-10
4.9256182e-10
4.976677e-10
5.0274162e-10
5.0777267e-10
5.1275198e-10
5.1768258e-10
5.2256447e-10
5.2739951e-10
5.3219263e-10
5.3694949e-10
5.4168658e-10
5.4639227e-10
5.5112375e-10
5.5579072e-10
5.6055356e-10
5.6519218e-10
5.6998392e-10
5.7460039e-10
5.7931336e-10
5.8385226e-10
5.883717e-10
5.9277514e-10
5.9709491e-10
6.0139295e-10
6.0555933e-10
6.0975585e-10
6.1381797e-10
6.1790544e-10
6.2187891e-10
6.2588818e-10
6.29834e-10
6.3386822e-10
6.442883e-10
6.4887684e-10
6.5339822e-10
6.5825229e-10
6.6296274e-10
6.6816546e-10
6.7313992e-10
6.7882354e-10
6.841904e-10
6.9063791e-10
6.9659099e-10
7.0414499e-10
7.1095024e-10
7.2001726e-10
7.2786672e-10
7.3861964e-10
7.4782845e-10
7.6072661e-10
7.7154309e-10
7.8709952e-10
7.9944668e-10
8.1814491e-10
8.3266694e-10
8.5475998e-10
8.7122221e-10
8.9692584e-10
9.1577478e-10
9.4529379e-10
9.662242e-10
9.9957027e-10
1.0230648e-09
1.0611424e-09
1.0869028e-09
1.129018e-09
1.1564445e-09
1.2155367e-09
5.010249e-10
5.0705198e-10
5.1303659e-10
5.1895634e-10
5.2483197e-10
5.306565e-10
5.3644147e-10
5.4217249e-10
5.4787068e-10
5.5350996e-10
5.5914321e-10
5.6470127e-10
5.7025936e-10
5.7583927e-10
5.8132163e-10
5.8691756e-10
5.924271e-10
5.9817861e-10
6.0373015e-10
6.0964754e-10
6.152954e-10
6.2156629e-10
6.2737991e-10
6.3407413e-10
6.4014315e-10
6.469349e-10
6.5315405e-10
6.5938783e-10
6.6556468e-10
6.7127994e-10
6.7728978e-10
6.8279682e-10
6.8885447e-10
6.9458852e-10
7.011347e-10
7.0755549e-10
7.1538206e-10
7.2319164e-10
7.3339798e-10
7.5099662e-10
7.6549999e-10
7.7949624e-10
7.9932924e-10
8.1765289e-10
8.4418256e-10
8.6773201e-10
9.0250681e-10
9.3230575e-10
9.7747369e-10
1.0146504e-09
1.0719772e-09
1.1178152e-09
1.1886599e-09
1.242602e-09
1.3248688e-09
1.3876466e-09
1.4819277e-09
1.5535249e-09
1.6597378e-09
1.7373458e-09
1.8570454e-09
1.9432457e-09
2.0740149e-09
2.1663065e-09
2.3076466e-09
2.4069678e-09
2.5584673e-09
2.6622624e-09
2.8215983e-09
2.9321539e-09
3.1035259e-09
3.2185952e-09
3.3964964e-09
3.512898e-09
3.7510123e-09
5.512812e-10
5.5799397e-10
5.6479777e-10
5.714278e-10
5.7816363e-10
5.8472067e-10
5.9140419e-10
5.9786202e-10
6.0448679e-10
6.1086831e-10
6.1751907e-10
6.239421e-10
6.3064419e-10
6.3765695e-10
6.4437522e-10
6.5201764e-10
6.5921077e-10
6.6777386e-10
6.7528706e-10
6.8455343e-10
6.9256731e-10
7.031498e-10
7.1197644e-10
7.2432467e-10
7.3393497e-10
7.4715245e-10
7.5826252e-10
7.7046079e-10
7.8481748e-10
7.9747513e-10
8.1540827e-10
8.3244818e-10
8.581613e-10
8.8290722e-10
9.2194354e-10
9.5905663e-10
1.0185753e-09
1.0729717e-09
1.1590075e-09
1.247034e-09
1.3660837e-09
1.4669881e-09
1.6203687e-09
1.7448981e-09
1.9322877e-09
2.0798832e-09
2.3017737e-09
2.4727915e-09
2.7324163e-09
2.9281455e-09
3.2286296e-09
3.4503475e-09
3.7908362e-09
4.0325247e-09
4.4010865e-09
4.6644288e-09
5.0618223e-09
5.346953e-09
5.768296e-09
6.0668825e-09
6.5230079e-09
6.8407977e-09
7.3196062e-09
7.6523392e-09
8.1544392e-09
8.5016574e-09
9.0249097e-09
9.3794095e-09
9.9148562e-09
1.02848e-08
1.0847065e-08
1.122446e-08
1.1792655e-08
1.2167671e-08
1.2910576e-08
5.9752667e-10
6.0532657e-10
6.1325295e-10
6.21051e-10
6.290937e-10
6.3690233e-10
6.4514119e-10
6.5303405e-10
6.617409e-10
6.6981575e-10
6.7905541e-10
6.8763647e-10
6.9676696e-10
7.0733959e-10
7.1702579e-10
7.2961128e-10
7.4053569e-10
7.5524725e-10
7.6707879e-10
7.8380356e-10
7.9759907e-10
8.1844849e-10
8.3627969e-10
8.6464042e-10
8.9025607e-10
9.3246246e-10
9.7334217e-10
1.0384001e-09
1.1153906e-09
1.2022699e-09
1.3406655e-09
1.4705202e-09
1.674702e-09
1.8547779e-09
2.1398316e-09
2.3782582e-09
2.7560202e-09
3.0570397e-09
3.5256012e-09
3.889869e-09
4.4532971e-09
4.8830667e-09
5.5423767e-09
6.032831e-09
6.7830678e-09
7.33227e-09
8.1717755e-09
8.7809526e-09
9.7172656e-09
1.0392661e-08
1.1440863e-08
1.2181166e-08
1.3328785e-08
1.4113603e-08
1.5326636e-08
1.6157753e-08
1.7438788e-08
1.8315788e-08
1.9634286e-08
2.0545052e-08
2.1942306e-08
2.2887746e-08
2.4327324e-08
2.5306955e-08
2.6789614e-08
2.7791884e-08
2.9306585e-08
3.0315255e-08
3.1839784e-08
3.2878148e-08
3.4451863e-08
3.5493969e-08
3.7051688e-08
3.8072927e-08
4.0058996e-08
6.3152387e-10
6.4135128e-10
6.5021163e-10
6.6035345e-10
6.6946015e-10
6.7935952e-10
6.8944129e-10
6.9957698e-10
7.1094297e-10
7.2215672e-10
7.3385936e-10
7.4708597e-10
7.5913621e-10
7.7433867e-10
7.8829259e-10
8.0740585e-10
8.2443648e-10
8.4893698e-10
8.7319002e-10
9.1123438e-10
9.5540798e-10
1.0300801e-09
1.1183764e-09
1.2693875e-09
1.4317241e-09
1.7023169e-09
1.9643239e-09
2.3884717e-09
2.7683807e-09
3.3030421e-09
3.9536071e-09
4.5485848e-09
5.4084396e-09
6.1562781e-09
7.2662752e-09
8.1400777e-09
9.534415e-09
1.0565686e-08
1.2190312e-08
1.3379184e-08
1.5259291e-08
1.6609109e-08
1.8730011e-08
2.0226561e-08
2.2573684e-08
2.4206979e-08
2.676123e-08
2.8532223e-08
3.1305311e-08
3.3233019e-08
3.6265111e-08
3.8335797e-08
4.1576438e-08
4.3734319e-08
4.7098449e-08
4.9336182e-08
5.284412e-08
5.5151433e-08
5.8687954e-08
6.1073769e-08
6.4742263e-08
6.7173097e-08
7.090874e-08
7.3400052e-08
7.718287e-08
7.969149e-08
8.3482978e-08
8.5979111e-08
8.9741808e-08
9.2283377e-08
9.6106655e-08
9.8629338e-08
1.023607e-07
1.0479805e-07
1.0940314e-07
6.5683366e-10
6.71728e-10
6.840284e-10
7.0351481e-10
7.1798308e-10
7.3848592e-10
7.5799178e-10
7.7709766e-10
8.0046956e-10
8.1758773e-10
8.414039e-10
8.5839278e-10
8.8182183e-10
9.0296945e-10
9.324164e-10
9.7109422e-10
1.0302138e-09
1.1213589e-09
1.2595279e-09
1.4879547e-09
1.7734211e-09
2.2336667e-09
2.717802e-09
3.4905649e-09
4.2104311e-09
5.363158e-09
6.3533396e-09
7.9478106e-09
9.2387834e-09
1.131517e-08
1.2931012e-08
1.5355744e-08
1.7555064e-08
2.044764e-08
2.3240948e-08
2.6004882e-08
3.0133272e-08
3.2970733e-08
3.759051e-08
4.0828864e-08
4.6020417e-08
4.9563974e-08
5.5244384e-08
5.9101303e-08
6.5253156e-08
6.9354591e-08
7.5880343e-08
8.0234639e-08
8.7160299e-08
9.1808979e-08
9.9194991e-08
1.0410404e-07
1.1182639e-07
1.1687246e-07
1.2473836e-07
1.2988304e-07
1.3799687e-07
1.4318795e-07
1.5125202e-07
1.5659093e-07
1.6475888e-07
1.7013465e-07
1.7839468e-07
1.8383741e-07
1.9206514e-07
1.9747351e-07
2.0556808e-07
2.1090534e-07
2.1882688e-07
2.2425198e-07
2.3220929e-07
2.3761299e-07
2.4521113e-07
2.5029853e-07
2.5953615e-07
6.7719684e-10
7.0292483e-10
7.2381933e-10
7.5520336e-10
7.8081372e-10
8.0483672e-10
8.4150396e-10
8.712861e-10
9.2281824e-10
9.5603302e-10
1.0175868e-09
1.0611726e-09
1.1404079e-09
1.2310379e-09
1.3835675e-09
1.6151221e-09
1.9863525e-09
2.4998534e-09
3.2078812e-09
4.2810725e-09
5.4021068e-09
7.1605379e-09
8.8029907e-09
1.1428515e-08
1.3666835e-08
1.7299733e-08
2.0194568e-08
2.4947466e-08
2.854459e-08
3.4472157e-08
3.8791242e-08
4.5905977e-08
5.0951783e-08
5.9272373e-08
6.5089826e-08
7.4191043e-08
8.2324865e-08
8.9537352e-08
1.0122571e-07
1.0870812e-07
1.206884e-07
1.2871128e-07
1.4168058e-07
1.5028619e-07
1.6404334e-07
1.7295288e-07
1.872124e-07
1.9650081e-07
2.1134959e-07
2.2110456e-07
2.3662941e-07
2.4684417e-07
2.6284037e-07
2.7324274e-07
2.8926826e-07
2.9979209e-07
3.1620558e-07
3.2669001e-07
3.4297759e-07
3.5372321e-07
3.6988476e-07
3.8075334e-07
3.9716611e-07
4.0813042e-07
4.24389e-07
4.3522224e-07
4.5101817e-07
4.6170252e-07
4.7709449e-07
4.8812347e-07
5.0348497e-07
5.1439838e-07
5.2908988e-07
5.3949881e-07
5.5770718e-07
7.0623845e-10
8.0449742e-10
8.4255174e-10
9.2241339e-10
9.5279645e-10
1.0167253e-09
1.0538301e-09
1.0883489e-09
1.1241707e-09
1.1801579e-09
1.2820887e-09
1.4602458e-09
1.770872e-09
2.2605318e-09
3.0161304e-09
4.0607397e-09
5.6447667e-09
7.4750435e-09
9.9835287e-09
1.3418277e-08
1.6805379e-08
2.2098838e-08
2.6704533e-08
3.4105722e-08
4.0048623e-08
4.9787215e-08
5.7079997e-08
6.9220523e-08
7.7883573e-08
9.237095e-08
1.0236783e-07
1.1908788e-07
1.3039623e-07
1.4926541e-07
1.6186283e-07
1.8276296e-07
1.96749e-07
2.1748919e-07
2.3723714e-07
2.5374522e-07
2.7792949e-07
2.951415e-07
3.1995981e-07
3.3756715e-07
3.6426945e-07
3.8204128e-07
4.0985271e-07
4.280267e-07
4.5659968e-07
4.7576372e-07
5.0556136e-07
5.2604589e-07
5.5647846e-07
5.7709988e-07
6.0757003e-07
6.2836381e-07
6.5988224e-07
6.8087911e-07
7.129798e-07
7.3460921e-07
7.6639157e-07
7.8890771e-07
8.2180254e-07
8.4480732e-07
8.7766352e-07
9.003223e-07
9.320101e-07
9.5444931e-07
9.861384e-07
1.009275e-06
1.0409098e-06
1.0650803e-06
1.0976495e-06
1.1229254e-06
1.1671101e-06
7.0205916e-10
7.7400515e-10
8.2625424e-10
9.5074515e-10
1.0181625e-09
1.1682339e-09
1.2585409e-09
1.4465881e-09
1.6274762e-09
1.9346468e-09
2.4326571e-09
3.233599e-09
4.4455819e-09
6.2085475e-09
8.8065617e-09
1.2031632e-08
1.7036874e-08
2.2109186e-08
3.0183649e-08
3.773723e-08
4.7711156e-08
6.0614104e-08
7.2377478e-08
8.9825211e-08
1.0414831e-07
1.2642352e-07
1.4274629e-07
1.6953673e-07
1.8785658e-07
2.1840159e-07
2.3888956e-07
2.7287135e-07
2.9568815e-07
3.3271949e-07
3.575684e-07
3.9780044e-07
4.2436028e-07
4.6696384e-07
4.9502021e-07
5.3963088e-07
5.7127423e-07
6.1552487e-07
6.5114021e-07
6.9532774e-07
7.3606545e-07
7.7792384e-07
8.2572089e-07
8.6510832e-07
9.1836279e-07
9.6111253e-07
1.0144485e-06
1.0630757e-06
1.1157555e-06
1.1631376e-06
1.2197975e-06
1.2659939e-06
1.3326701e-06
1.3804215e-06
1.4514082e-06
1.5008755e-06
1.5715297e-06
1.6238334e-06
1.696888e-06
1.7532614e-06
1.823795e-06
1.8768863e-06
1.9470528e-06
1.999991e-06
2.0760761e-06
2.1341261e-06
2.2193879e-06
2.2934092e-06
2.3964842e-06
2.4762732e-06
2.6128914e-06
7.3405942e-10
7.6773107e-10
8.2014869e-10
8.5369196e-10
9.0420493e-10
1.0056936e-09
1.2173164e-09
1.6536195e-09
2.4413007e-09
3.7188692e-09
5.6321519e-09
8.4426896e-09
1.2331781e-08
1.7792632e-08
2.5556395e-08
3.4134488e-08
4.7813179e-08
6.015117e-08
8.0654061e-08
9.7146918e-08
1.2510465e-07
1.4584323e-07
1.7957509e-07
2.0687608e-07
2.4594132e-07
2.8222275e-07
3.206074e-07
3.6825456e-07
4.0553085e-07
4.6070014e-07
5.0195202e-07
5.6061122e-07
6.0992109e-07
6.6846821e-07
7.2435733e-07
7.8749652e-07
8.4628692e-07
9.1635413e-07
9.7621546e-07
1.0585956e-06
1.1181554e-06
1.2103328e-06
1.2717635e-06
1.3701716e-06
1.4394956e-06
1.5496089e-06
1.6281022e-06
1.7389411e-06
1.8396389e-06
1.9401444e-06
2.0470601e-06
2.1611724e-06
2.2536082e-06
2.3881008e-06
2.5015051e-06
2.655909e-06
2.8253004e-06
2.9449499e-06
3.1321619e-06
3.2595266e-06
3.4293741e-06
3.564102e-06
3.760704e-06
3.9030558e-06
4.0705461e-06
4.2127352e-06
4.4117718e-06
4.5403666e-06
4.8282215e-06
4.9943505e-06
5.4271483e-06
5.6755476e-06
6.056895e-06
6.2691021e-06
6.640861e-06
7.5615894e-10
8.4475723e-10
9.193558e-10
1.0038731e-09
1.1712634e-09
1.5704456e-09
2.4014775e-09
3.9001376e-09
6.2822128e-09
9.934748e-09
1.5175962e-08
2.302385e-08
3.3247702e-08
4.8424898e-08
6.6517654e-08
8.7711372e-08
1.1940384e-07
1.464193e-07
1.9115205e-07
2.2475398e-07
2.8211126e-07
3.2221479e-07
3.9145846e-07
4.3780358e-07
5.1776864e-07
5.6994136e-07
6.6012438e-07
7.1859631e-07
8.1462985e-07
8.8575221e-07
9.8900187e-07
1.0714872e-06
1.1844819e-06
1.2731031e-06
1.3996322e-06
1.4930776e-06
1.6453132e-06
1.7534339e-06
1.921566e-06
2.0487369e-06
2.2171317e-06
2.3834386e-06
2.5249966e-06
2.7702316e-06
2.9417328e-06
3.229172e-06
3.4045904e-06
3.706578e-06
3.8909985e-06
4.1461378e-06
4.4211084e-06
4.6342758e-06
4.9339524e-06
5.3948076e-06
5.7419292e-06
6.3647383e-06
6.675796e-06
6.8909747e-06
7.4485901e-06
7.7880916e-06
8.08832e-06
8.6028424e-06
9.1344453e-06
9.5307357e-06
9.813883e-06
1.0313618e-05
1.0793434e-05
1.1048587e-05
1.1888675e-05
1.2048633e-05
1.2662621e-05
1.2833934e-05
1.3135524e-05
1.3641516e-05
1.3950645e-05
7.4701575e-10
8.2056292e-10
9.1849522e-10
1.1998519e-09
1.9422511e-09
3.5092792e-09
6.2109927e-09
1.0555615e-08
1.7030694e-08
2.6750342e-08
4.0121817e-08
6.1335986e-08
8.4621511e-08
1.2309868e-07
1.5697241e-07
2.1029012e-07
2.651255e-07
3.2377115e-07
4.0618149e-07
4.7007309e-07
5.7463367e-07
6.4604474e-07
7.6841872e-07
8.5030028e-07
9.9038736e-07
1.0847717e-06
1.2472663e-06
1.3547849e-06
1.5394893e-06
1.6705115e-06
1.8831943e-06
2.0415112e-06
2.2653634e-06
2.4586568e-06
2.6895396e-06
2.9412917e-06
3.3088655e-06
3.5577352e-06
3.9590569e-06
4.225364e-06
4.6938829e-06
4.9735154e-06
5.4391377e-06
6.2854245e-06
6.632715e-06
7.4088476e-06
7.7199561e-06
8.592588e-06
8.9405205e-06
9.6450894e-06
1.0236337e-05
1.0638689e-05
1.1357445e-05
1.1816635e-05
1.220649e-05
1.3436506e-05
1.3224238e-05
1.3634175e-05
1.4992399e-05
1.4357537e-05
1.4420821e-05
1.5176324e-05
1.4906087e-05
1.4805577e-05
1.4298704e-05
1.4661424e-05
1.3879669e-05
1.4462704e-05
1.4367962e-05
1.4302577e-05
1.3561211e-05
1.3142427e-05
1.2388651e-05
1.235888e-05
1.1189199e-05
7.2002111e-10
8.4312159e-10
1.1984489e-09
2.3568028e-09
4.8073639e-09
9.2277665e-09
1.636206e-08
2.7342316e-08
4.3177467e-08
6.7221607e-08
9.8065841e-08
1.4822234e-07
1.9542925e-07
2.752457e-07
3.3933624e-07
4.5069e-07
5.3151547e-07
6.6781762e-07
7.7548509e-07
9.1795012e-07
1.0776215e-06
1.2122573e-06
1.4263575e-06
1.5761266e-06
1.8360302e-06
2.0224302e-06
2.3406826e-06
2.5506707e-06
2.9572227e-06
3.2561178e-06
3.7274548e-06
4.0607116e-06
4.5867847e-06
4.9747713e-06
5.6285084e-06
6.5215667e-06
7.2341797e-06
7.8296214e-06
8.8883616e-06
9.3856218e-06
1.0744679e-05
1.0972069e-05
1.2132813e-05
1.240273e-05
1.3063565e-05
1.4211296e-05
1.3867742e-05
1.5056159e-05
1.4589572e-05
1.4917544e-05
1.3758015e-05
1.3801421e-05
1.33195e-05
1.3021116e-05
1.3233768e-05
1.1903518e-05
1.1350634e-05
1.1845374e-05
1.147696e-05
1.0146028e-05
1.004535e-05
8.6747783e-06
8.6572399e-06
7.8290071e-06
7.0333004e-06
6.5163123e-06
5.7170166e-06
7.0203325e-06
5.6381749e-06
5.8682338e-06
4.3941273e-06
4.3210237e-06
4.028256e-06
3.6577432e-06
2.9061488e-06
6.9285778e-10
1.0042864e-09
2.4271824e-09
5.900069e-09
1.244001e-08
2.3420846e-08
4.0528411e-08
6.6031475e-08
1.0147037e-07
1.5850183e-07
2.1982441e-07
3.2233811e-07
4.0951831e-07
5.5672183e-07
6.7070103e-07
8.6617818e-07
1.0055498e-06
1.2483316e-06
1.4202591e-06
1.7137593e-06
1.9310914e-06
2.270705e-06
2.6082303e-06
2.9351927e-06
3.5148213e-06
3.9094562e-06
4.60846e-06
5.029356e-06
6.2717223e-06
6.9133596e-06
7.9259222e-06
8.7476144e-06
9.9309796e-06
1.0869287e-05
1.1999243e-05
1.277172e-05
1.3402644e-05
1.3896644e-05
1.4506674e-05
1.4732587e-05
1.4816467e-05
1.3592791e-05
1.3778355e-05
1.2147253e-05
1.2999603e-05
1.1051424e-05
1.1376891e-05
9.5906795e-06
8.2651189e-06
7.6247556e-06
5.7617408e-06
5.8329147e-06
4.5372682e-06
4.8619942e-06
5.0949588e-06
3.4838696e-06
3.6646174e-06
4.9827048e-06
3.3889472e-06
2.9430111e-06
3.9532321e-06
3.0020311e-06
2.7086178e-06
2.4035186e-06
2.2595176e-06
1.9303875e-06
2.0027481e-06
2.994141e-06
1.8678127e-06
1.5670393e-06
1.142187e-06
1.2787069e-06
1.2846895e-06
1.2231325e-06
1.219314e-06
6.8208454e-10
1.9456387e-09
6.1702555e-09
1.4951209e-08
3.0663217e-08
5.5731578e-08
9.3450736e-08
1.4842125e-07
2.2079783e-07
3.3896136e-07
4.5023238e-07
6.3802873e-07
7.8938665e-07
1.041398e-06
1.2459721e-06
1.5732781e-06
1.8232288e-06
2.2664967e-06
2.5851065e-06
3.1590762e-06
3.615806e-06
4.3725457e-06
4.9703056e-06
5.9095509e-06
7.3536056e-06
8.1940041e-06
9.7317113e-06
1.0555321e-05
1.2391147e-05
1.2769236e-05
1.3488516e-05
1.4175448e-05
1.4478736e-05
1.4235505e-05
1.34888e-05
1.2018166e-05
1.2291296e-05
1.0381515e-05
9.0196521e-06
8.4004596e-06
6.2501478e-06
6.0361804e-06
4.9988112e-06
4.8557426e-06
5.5436944e-06
3.321409e-06
4.6413941e-06
3.067623e-06
2.3256261e-06
1.8141778e-06
1.5945487e-06
1.6199197e-06
1.6696408e-06
1.9659522e-06
1.6812065e-06
1.1856797e-06
1.4312922e-06
2.7151011e-06
1.8797823e-06
1.347488e-06
2.1468278e-06
1.7122976e-06
1.5810012e-06
1.4855778e-06
1.725644e-06
1.5406751e-06
1.8307555e-06
2.1646541e-06
1.0988692e-06
9.1958555e-07
8.21726e-07
8.6479196e-07
8.6104074e-07
9.1929191e-07
1.0513205e-06
6.7024403e-10
4.9315408e-09
1.549662e-08
3.5976844e-08
7.0726023e-08
1.2359022e-07
2.0059865e-07
3.1194733e-07
4.4500184e-07
6.6237338e-07
8.5408535e-07
1.1762836e-06
1.4380194e-06
1.8750277e-06
2.2743025e-06
2.7982771e-06
3.3314732e-06
4.2323531e-06
4.8662308e-06
6.2524577e-06
7.3040238e-06
9.0634849e-06
1.022829e-05
1.1995422e-05
1.2786966e-05
1.3514758e-05
1.3741677e-05
1.4002954e-05
1.2963273e-05
1.1697411e-05
1.0025044e-05
9.8269291e-06
7.9588517e-06
6.6661498e-06
4.9024247e-06
4.7712221e-06
4.5377421e-06
3.2082236e-06
2.9089196e-06
2.3937895e-06
1.6052211e-06
1.7375334e-06
1.5453668e-06
2.6013945e-06
2.1422164e-06
1.2720175e-06
2.1349175e-06
1.2842679e-06
9.8234548e-07
1.0300954e-06
9.89009e-07
1.0073006e-06
1.1570569e-06
1.5769299e-06
1.2105778e-06
9.6977264e-07
1.1701639e-06
2.1109235e-06
1.5738782e-06
1.1083761e-06
1.3666127e-06
1.2542327e-06
1.4209129e-06
1.3390721e-06
1.69568e-06
1.3575637e-06
1.9787925e-06
1.7017667e-06
8.7475447e-07
9.4716688e-07
8.6097203e-07
8.2297714e-07
8.4758436e-07
9.1864713e-07
9.8110118e-07
3.4429114e-10
1.2268087e-08
3.6734256e-08
8.1191681e-08
1.5214662e-07
2.5514765e-07
4.0186115e-07
6.0015471e-07
8.3831307e-07
1.2082916e-06
1.5393347e-06
2.0941161e-06
2.5706484e-06
3.4365034e-06
4.1635175e-06
5.1892619e-06
6.5620613e-06
8.4397816e-06
9.7217248e-06
1.1904745e-05
1.2493041e-05
1.3770935e-05
1.3362495e-05
1.3092777e-05
1.119618e-05
9.6841899e-06
8.4579192e-06
8.5480401e-06
4.7580536e-06
4.1348938e-06
3.4104603e-06
3.3568828e-06
2.1919301e-06
1.7539016e-06
1.3645238e-06
2.43575e-06
1.4331184e-06
1.6199374e-06
1.6082046e-06
1.1029546e-06
8.0910501e-07
7.9121744e-07
9.0229495e-07
1.4804032e-06
1.7990691e-06
1.2346587e-06
1.5344766e-06
8.4912731e-07
8.6794221e-07
1.0022131e-06
1.0017903e-06
9.7906086e-07
1.2807162e-06
1.4239694e-06
1.1267434e-06
9.4376483e-07
1.1227131e-06
1.7331182e-06
1.286109e-06
9.9945064e-07
1.0999826e-06
1.3258206e-06
1.3467278e-06
1.4593009e-06
1.2305926e-06
1.0149139e-06
1.847168e-06
1.325867e-06
8.6677664e-07
8.5509111e-07
8.6474358e-07
8.4171026e-07
9.0027476e-07
9.7227967e-07
9.8457484e-07
2.1257725e-10
2.8719702e-08
8.1533664e-08
1.7117474e-07
3.0547515e-07
4.9219724e-07
7.5863702e-07
1.0750338e-06
1.5196244e-06
2.118926e-06
2.7346261e-06
3.7613412e-06
4.7105701e-06
6.6394838e-06
8.1145645e-06
1.0554245e-05
1.156853e-05
1.3004024e-05
1.3086082e-05
1.2777988e-05
1.1168707e-05
9.158221e-06
6.6208358e-06
5.4105856e-06
3.915858e-06
3.5375185e-06
3.3556183e-06
2.720891e-06
1.3058401e-06
1.3776217e-06
1.5667568e-06
1.217923e-06
8.5118424e-07
5.3531419e-07
5.7918895e-07
1.3902755e-06
6.8662415e-07
9.243302e-07
1.3771264e-06
9.3413388e-07
6.4338399e-07
6.843661e-07
7.5511442e-07
1.2857787e-06
1.1055285e-06
1.3163928e-06
1.3311735e-06
8.2703451e-07
8.2678927e-07
1.1366799e-06
1.010022e-06
1.0025551e-06
1.109512e-06
1.2556021e-06
1.0234423e-06
9.4610531e-07
1.0709916e-06
1.4830266e-06
1.1573535e-06
9.9692804e-07
1.0810013e-06
1.4233435e-06
1.4755363e-06
1.7810066e-06
1.4307695e-06
1.0144621e-06
1.5062494e-06
1.1152248e-06
8.8614797e-07
8.4137132e-07
8.9646673e-07
9.2655772e-07
9.6870313e-07
1.0447851e-06
1.0262097e-06
5.4628094e-09
6.5215097e-08
1.7090345e-07
3.3794246e-07
5.74012e-07
8.9221688e-07
1.3286773e-06
1.8926225e-06
2.7242796e-06
3.719508e-06
5.0036709e-06
7.2113649e-06
9.2414008e-06
1.1577311e-05
1.2737947e-05
1.2845892e-05
1.1752725e-05
9.4336773e-06
7.8375537e-06
6.1450089e-06
4.4806539e-06
3.0833493e-06
1.9200719e-06
1.6547007e-06
1.3946535e-06
1.7619497e-06
1.6845235e-06
1.2157029e-06
7.0885006e-07
6.8073402e-07
8.9759607e-07
5.9036327e-07
4.9461017e-07
3.8399682e-07
4.0226069e-07
9.4463468e-07
5.7523993e-07
6.2939285e-07
1.5389522e-06
7.802397e-07
5.5381315e-07
7.8528963e-07
7.2945837e-07
1.0828795e-06
9.3731818e-07
8.961478e-07
1.0625404e-06
8.1155109e-07
8.1919736e-07
1.4864638e-06
1.2752631e-06
1.2427683e-06
1.1541952e-06
1.2260379e-06
1.0062468e-06
9.6858444e-07
1.1476438e-06
1.2378886e-06
1.0392045e-06
1.2352949e-06
1.1513116e-06
1.3319171e-06
1.4040476e-06
1.3900338e-06
1.3270212e-06
1.0041391e-06
1.296504e-06
9.965104e-07
9.2711333e-07
8.9947615e-07
8.9768297e-07
9.9391658e-07
1.0992031e-06
1.0459059e-06
1.0614345e-06
1.8202259e-08
1.39773e-07
3.376038e-07
6.2632181e-07
1.0174815e-06
1.5449728e-06
2.2819175e-06
3.349171e-06
4.9175468e-06
6.985393e-06
9.8828341e-06
1.1591454e-05
1.2313354e-05
1.1943228e-05
9.7764248e-06
6.2340636e-06
4.889297e-06
3.4935566e-06
3.3252897e-06
2.5967911e-06
1.5090073e-06
8.4868285e-07
5.7614184e-07
5.9291189e-07
8.6826347e-07
1.0907305e-06
1.1061977e-06
1.3768167e-06
7.5237539e-07
5.5822021e-07
6.7024865e-07
7.2618796e-07
4.6707012e-07
3.6839752e-07
3.7473309e-07
8.0480927e-07
6.1542521e-07
4.7211505e-07
1.0343203e-06
7.7057204e-07
5.2735029e-07
9.7772169e-07
7.9259184e-07
9.8078304e-07
1.0722705e-06
9.0939092e-07
9.5686468e-07
7.832497e-07
8.735709e-07
1.5622217e-06
1.5279595e-06
1.420878e-06
1.171336e-06
1.1183008e-06
9.3879873e-07
9.7126853e-07
1.135266e-06
1.1492956e-06
1.1253798e-06
2.1795659e-06
1.307341e-06
1.4708786e-06
1.4218614e-06
1.1172231e-06
1.1970498e-06
1.1009993e-06
1.1265806e-06
1.005948e-06
9.5900907e-07
9.9451407e-07
9.9479978e-07
1.0220503e-06
1.1567472e-06
1.1386619e-06
1.2184633e-06
4.9577398e-08
2.8301695e-07
6.270422e-07
1.0951109e-06
1.7256697e-06
2.6204129e-06
3.987986e-06
6.1693873e-06
9.5982761e-06
1.0921932e-05
1.2042218e-05
1.0636335e-05
7.4082004e-06
5.5090416e-06
3.4730121e-06
1.9386169e-06
1.6996601e-06
1.411826e-06
1.2743089e-06
7.9758743e-07
7.1352466e-07
4.1189324e-07
3.8090159e-07
4.8445864e-07
7.7992323e-07
8.4821778e-07
9.9696964e-07
1.3779684e-06
7.9190617e-07
5.3897773e-07
5.1929713e-07
5.6420113e-07
4.6038322e-07
3.8084068e-07
3.9453235e-07
8.2019634e-07
5.3420595e-07
4.6252259e-07
5.9601338e-07
5.9472583e-07
5.1924296e-07
8.191438e-07
1.2887609e-06
1.043982e-06
1.2633695e-06
9.8067529e-07
9.5873963e-07
7.8942883e-07
1.0230287e-06
1.4598432e-06
1.7501186e-06
1.5284862e-06
1.16294e-06
1.0861065e-06
1.030709e-06
1.2652428e-06
1.2133114e-06
1.1564083e-06
1.3009178e-06
2.5543282e-06
1.4288841e-06
1.6811161e-06
1.5159221e-06
1.095775e-06
1.2668614e-06
1.0879593e-06
1.0984707e-06
9.6200433e-07
1.1025427e-06
1.1457548e-06
1.1259887e-06
1.1273285e-06
1.1294833e-06
1.2071804e-06
1.3158068e-06
1.2091511e-07
5.4161468e-07
1.1000542e-06
1.829207e-06
2.8673612e-06
4.4999202e-06
7.4188772e-06
1.0222418e-05
1.2222877e-05
1.011538e-05
6.9738295e-06
4.5442464e-06
2.9070822e-06
2.0639455e-06
9.7152345e-07
5.4033748e-07
5.9814291e-07
6.5932118e-07
5.8069925e-07
4.8078484e-07
6.7069548e-07
3.8013059e-07
3.685706e-07
4.5780294e-07
6.3770009e-07
8.7415459e-07
1.3423897e-06
9.537725e-07
7.3707699e-07
5.5782705e-07
4.558509e-07
4.7253975e-07
4.3953188e-07
4.2382432e-07
4.1692826e-07
8.6255804e-07
5.298646e-07
5.0374085e-07
7.3469352e-07
6.5888195e-07
5.1986783e-07
1.1029858e-06
2.4148563e-06
1.6810999e-06
1.3182076e-06
9.5266582e-07
9.677773e-07
7.9813233e-07
9.0527124e-07
1.5761822e-06
1.4647396e-06
1.3087909e-06
1.1443066e-06
1.1038008e-06
1.2698599e-06
1.8275166e-06
1.3977644e-06
1.2223683e-06
1.4333578e-06
1.9415587e-06
1.9326296e-06
1.8554338e-06
1.5751207e-06
1.0795719e-06
1.5642301e-06
1.1197201e-06
9.8316739e-07
8.9356514e-07
1.1705007e-06
1.3222625e-06
1.174141e-06
1.1765401e-06
1.1785707e-06
1.2713486e-06
1.2622965e-06
2.7256958e-07
9.8138867e-07
1.8407653e-06
2.9733574e-06
4.829394e-06
8.2362459e-06
1.0236772e-05
1.0403337e-05
7.9163541e-06
4.3532442e-06
3.0265167e-06
1.5460641e-06
1.0115561e-06
6.6746856e-07
3.1955622e-07
2.2839875e-07
3.0668533e-07
4.913254e-07
4.7338502e-07
3.9091325e-07
4.940852e-07
3.7730418e-07
4.322744e-07
4.5111436e-07
6.7456132e-07
8.6685426e-07
9.9796721e-07
7.8975582e-07
6.7881487e-07
5.7749197e-07
4.7682887e-07
4.7904717e-07
4.6480593e-07
4.7663923e-07
4.2030997e-07
8.1279335e-07
5.3847022e-07
5.3706106e-07
1.0116311e-06
8.0474449e-07
5.5543639e-07
1.4464768e-06
1.9921996e-06
1.7934945e-06
1.2984236e-06
9.2688788e-07
9.7088937e-07
7.8372899e-07
8.5341699e-07
1.7983611e-06
1.236094e-06
1.4584287e-06
1.1616816e-06
1.044395e-06
1.5092524e-06
2.6859536e-06
2.0185732e-06
1.2445543e-06
1.1824785e-06
2.2987217e-06
1.6644306e-06
1.7318136e-06
1.581909e-06
1.0674278e-06
1.178711e-06
1.089633e-06
1.0111858e-06
8.8195613e-07
1.2325858e-06
1.3881775e-06
1.1735342e-06
1.1795361e-06
1.3563803e-06
1.3368219e-06
1.2352882e-06
5.7587318e-07
1.6939783e-06
2.974504e-06
4.8479255e-06
8.592504e-06
1.0318971e-05
8.6424154e-06
5.6280179e-06
3.4025594e-06
1.4429135e-06
1.0656689e-06
4.6254008e-07
4.0573953e-07
3.3678994e-07
2.4630976e-07
1.9513409e-07
2.3510272e-07
4.1822788e-07
4.3479673e-07
3.6386171e-07
4.8305512e-07
3.7141765e-07
5.3415254e-07
4.5478789e-07
8.2759101e-07
1.2705093e-06
6.8602083e-07
7.8861762e-07
6.6530254e-07
5.7543181e-07
5.1226445e-07
5.1776345e-07
5.1524318e-07
4.8068063e-07
4.3497745e-07
6.6343931e-07
5.2543855e-07
5.8169948e-07
7.0666944e-07
5.260388e-07
5.9191553e-07
1.2741532e-06
2.2478681e-06
1.7270798e-06
1.094817e-06
9.7438607e-07
9.1056062e-07
7.9334735e-07
8.60989e-07
1.1793825e-06
1.0931383e-06
1.3265235e-06
1.0262631e-06
9.7498743e-07
1.0627519e-06
2.9377465e-06
2.1007156e-06
1.2690937e-06
1.2222344e-06
1.14487e-06
1.0453459e-06
1.4506391e-06
1.4230004e-06
1.0570987e-06
1.1138818e-06
8.8002487e-07
1.1227463e-06
9.3541401e-07
1.338409e-06
1.3325443e-06
1.1708917e-06
1.1731718e-06
1.5251013e-06
1.4431471e-06
1.2480352e-06
1.1532159e-06
2.7997531e-06
4.7461276e-06
8.2267513e-06
9.9241374e-06
7.5653695e-06
5.0629366e-06
2.9164211e-06
1.0349292e-06
4.6095051e-07
4.3270854e-07
2.1433585e-07
2.2626294e-07
2.7523615e-07
2.3558261e-07
1.9055171e-07
2.1276992e-07
3.7168446e-07
3.906771e-07
3.5355201e-07
5.200411e-07
3.4646237e-07
5.2801541e-07
4.2880077e-07
6.3800211e-07
1.4402444e-06
6.8407122e-07
7.4722154e-07
6.212253e-07
5.7790639e-07
5.1697969e-07
5.5611764e-07
5.3751126e-07
4.4569456e-07
4.6342492e-07
5.8766014e-07
5.7243102e-07
5.9225616e-07
5.5152269e-07
4.5504836e-07
5.6733264e-07
9.0982669e-07
7.0047735e-07
1.2530896e-06
9.9873139e-07
9.9032157e-07
8.9452021e-07
8.1564183e-07
9.526987e-07
9.238755e-07
9.0801676e-07
1.0077709e-06
8.8426601e-07
8.7290223e-07
1.1166474e-06
1.3676734e-06
2.2269238e-06
1.4463169e-06
1.1286385e-06
1.0810369e-06
1.0330276e-06
1.2798618e-06
1.4016784e-06
9.7092751e-07
1.2011486e-06
9.5052573e-07
1.1381798e-06
9.6981254e-07
1.3419838e-06
1.2806733e-06
1.1846561e-06
1.1945082e-06
1.4748149e-06
1.381938e-06
1.2604397e-06
2.2144831e-06
4.4618521e-06
7.7571884e-06
9.2659587e-06
6.7937706e-06
4.2627367e-06
2.5259777e-06
1.1015351e-06
3.2951074e-07
2.7996373e-07
2.3971451e-07
1.9271882e-07
1.909059e-07
2.698851e-07
2.2947922e-07
1.851038e-07
2.0408267e-07
3.3533705e-07
3.6065022e-07
3.3964431e-07
4.5110704e-07
3.3040919e-07
4.076771e-07
4.0059765e-07
5.7090216e-07
1.1138889e-06
6.6431851e-07
5.2797569e-07
6.0991253e-07
5.4773887e-07
5.2785502e-07
6.008392e-07
5.3804475e-07
4.2104634e-07
4.5642424e-07
5.3004718e-07
6.5386674e-07
5.4887222e-07
4.7813938e-07
4.737476e-07
5.7443935e-07
8.3830529e-07
5.7312614e-07
1.0843112e-06
9.9785129e-07
9.5527598e-07
8.5995481e-07
8.2273308e-07
8.3905095e-07
8.5752142e-07
8.9541119e-07
8.986768e-07
8.4228239e-07
9.182823e-07
1.149171e-06
1.3794389e-06
2.3391571e-06
1.6532428e-06
1.2709531e-06
1.1947298e-06
1.1753424e-06
1.2450837e-06
1.3950974e-06
1.090946e-06
1.0320511e-06
8.6317311e-07
9.3721526e-07
1.1058349e-06
1.3070714e-06
1.3071636e-06
1.2254542e-06
1.2507773e-06
1.2896441e-06
1.3511564e-06
1.2971416e-06
3.8563075e-06
7.1190442e-06
9.5925307e-06
7.1506726e-06
4.0222704e-06
2.0067153e-06
9.7869653e-07
3.8247303e-07
2.1242063e-07
2.4235062e-07
1.9873805e-07
2.0012471e-07
1.8667462e-07
2.5706176e-07
2.2253655e-07
1.815268e-07
2.0064515e-07
3.0517771e-07
3.3843456e-07
3.2535295e-07
3.7247188e-07
3.1682959e-07
3.6758221e-07
3.635606e-07
4.9187124e-07
7.6398074e-07
5.4062665e-07
4.3694991e-07
6.4832135e-07
5.8668077e-07
5.350727e-07
6.1980178e-07
5.365741e-07
4.3822486e-07
5.2004616e-07
5.0593285e-07
5.3668669e-07
6.1993733e-07
4.7767432e-07
4.984989e-07
5.5095467e-07
7.2377056e-07
5.5111324e-07
7.5436109e-07
7.7999042e-07
8.6067009e-07
8.2380814e-07
8.3263341e-07
8.3271081e-07
8.543056e-07
9.041996e-07
8.5618229e-07
8.1799198e-07
8.8569129e-07
9.6227507e-07
1.6124354e-06
2.1374137e-06
1.6522126e-06
1.1436518e-06
1.1635261e-06
1.236953e-06
1.2731395e-06
1.3752987e-06
1.3424319e-06
1.0390666e-06
7.1252431e-07
7.4017557e-07
1.2509176e-06
1.3125361e-06
1.3139535e-06
1.3105872e-06
1.3504857e-06
1.4112575e-06