/*--------------------------------*- C++ -*----------------------------------*\
| =========                 |                                                 |
| \\      /  F ield         | OpenFOAM: The Open Source CFD Toolbox           |
|  \\    /   O peration     | Version:  2.3.0                                 |
|   \\  /    A nd           | Web:      www.OpenFOAM.org                      |
|    \\/     M anipulation  |                                                 |
\*---------------------------------------------------------------------------*/
FoamFile
{
    version     2.0;
    format      ascii;
    class       volScalarField;
    location    "3e-05";
    object      p_rgh;
}
// * * * * * * * * * * * * * * * * * * * * * * * * * * * * * * * * * * * * * //

dimensions      [1 -1 -2 0 0 0 0];

internalField   nonuniform List<scalar> 
7500
(
-8612.1989
-11734.653
-10927.703
-4634.7194
615.82469
2250.9395
5737.5037
2073.679
4201.2184
1263.0153
2160.5598
1788.4274
-349.80277
3592.9442
-1391.9145
5431.9173
-1947.0049
4931.8369
-2667.9564
3679.1989
-1531.1833
2377.9528
-321.35622
2704.8611
2943.6826
-461.98703
3746.3302
-3148.4919
5931.5495
-4399.2985
6401.0828
420.39396
5710.5429
1432.2195
2446.6824
4393.912
443.04508
4644.2365
-1089.8257
5155.7266
273.26909
3190.0713
1795.9045
2493.064
3610.8242
963.83207
2989.9949
-627.67094
4083.3887
1115.8767
-334.34557
1337.4068
2777.0445
-243.57488
-7563.8528
-2933.6397
-571.2589
9875.9662
12543.621
-360.8369
1649.1472
11257.466
12737.699
4481.5755
117.42275
6212.031
9736.7215
6550.6588
4545.0362
7991.1231
11497.144
11848.269
10341.423
4691.7434
-706.66712
-8684.3523
-12100.115
-10739.68
-4075.0268
945.80584
1857.6019
5190.275
2099.7989
4241.1388
1704.5386
1987.5305
2006.1493
-712.14239
3764.2517
-1384.5192
5252.1101
-1610.0306
4529.0696
-2253.1633
3255.8437
-1159.0125
2014.1096
55.236999
2315.565
3223.5427
-449.99608
3451.486
-2803.4982
5398.8918
-3684.503
5857.3552
962.33673
5012.3819
1851.761
2401.3983
4262.2555
741.16699
4245.8633
-672.51179
4697.7065
638.73936
2839.3708
2291.6358
2108.2205
3721.3652
1086.6776
2618.8798
85.07709
3172.9757
1455.8218
169.45432
1396.7493
2198.1448
-1128.5442
-6311.3367
-2779.1802
-644.63285
9398.645
11674.678
915.10572
2642.367
10072.548
11305.308
5754.0503
1461.3339
5150.472
8836.5287
6741.8018
5259.3676
8303.0336
11171.425
11823.385
10063.643
4484.1644
-479.11911
-8917.7583
-12382.184
-10449.491
-3443.5009
1106.9312
1814.6706
4409.2518
2130.5317
4067.4255
2225.3066
1899.3784
2037.2793
-691.34199
3463.7613
-948.72544
4716.0394
-1006.9017
3852.1058
-1533.244
2568.3303
-546.99897
1514.2467
376.49966
2291.9662
2866.955
239.63053
2512.6168
-1864.8404
4178.6273
-2442.9837
5142.2725
1461.5274
4633.8413
1789.5274
2819.7181
3786.535
1341.0175
3410.4305
148.34121
3884.0826
1248.0173
2601.9107
2467.2689
2129.7644
3278.2215
1684.9374
2039.9617
795.12862
2459.6436
1565.3657
758.26639
1343.4781
1943.1118
-2268.0228
-5233.6381
-2530.3599
-399.39587
8921.8385
10140.652
2421.1251
3968.6053
9070.188
9681.8027
6304.2062
3108.8213
4859.0279
7925.6984
6446.241
5700.0633
8965.889
11140.446
11680.296
9704.6954
4175.9837
-250.75487
-9241.187
-12450.606
-10255.865
-2737.0345
1142.4295
1910.3421
3610.5333
2206.0659
3751.3483
2719.7591
1947.7881
1917.4063
-446.95852
2993.9246
-406.64349
4037.0793
-155.14631
2799.6151
-468.18961
1630.9992
188.12783
1084.3663
529.25504
2532.1642
2198.0497
1132.4498
1421.553
-701.73463
2661.634
-966.45556
4278.2345
2106.3542
4190.2638
1692.7134
3373.8468
3111.1025
2216.8409
2298.0149
1155.3889
2877.2529
1950.6513
2514.7542
2432.4843
2355.5195
2719.4192
2217.6591
1495.5207
1605.2982
1699.813
1556.7252
1367.236
1329.1935
1701.6331
-3242.5544
-4338.9619
-2521.0834
534.61333
8181.114
7900.8197
4270.2188
5478.8696
7965.0526
8173.0122
6629.9825
4689.4486
5040.9235
6918.9594
5778.1848
6129.5877
9871.5927
11373.629
11424.154
9085.2065
3808.6781
51.067142
-9794.2452
-12318.625
-10034.864
-2049.1554
1156.2558
2013.1064
2940.0759
2207.4043
3504.9244
3075.4987
2046.6519
1906.5381
-380.82544
2691.0525
117.24081
3190.4271
957.49728
1547.9827
590.10799
842.71441
715.61936
857.32163
730.19031
2531.8636
1805.4061
1776.9052
499.96505
391.39272
1228.7671
459.83857
3355.8785
2815.9571
3579.5521
1912.8091
3734.8708
2586.6655
2875.0683
1313.852
2089.6991
1892.0016
2662.5212
2416.6947
2552.837
2456.2063
2287.3169
2494.4841
1039.2744
2386.7955
1053.4748
1500.8596
1736.6131
1546.0417
1105.6928
-3731.9
-3416.0212
-2673.7189
2018.2292
6854.9451
5617.1804
6453.0383
6767.4909
6807.9784
7023.1195
6845.853
5860.4681
5538.0014
6137.1621
5006.8922
6528.7252
10649.126
11687.324
11194.572
8404.4181
3507.3815
340.10942
-10752.864
-11985.541
-9572.5217
-1497.049
1204.154
2039.4441
2442.2442
2113.1559
3319.9372
3406.6283
2074.8531
1979.2538
-308.62397
2318.2461
716.17019
2413.0124
1783.6408
758.44515
1186.255
312.65921
1172.0037
546.11942
1178.6309
2312.1781
1567.251
2157.3567
-71.430146
1096.9715
256.72871
1592.4838
2473.5183
3483.511
2833.4368
2478.8518
3871.0924
2437.9426
3086.1513
478.87151
2869.6215
1133.1545
3291.5706
2313.1508
2778.0054
2471.5343
2087.9478
2410.0182
895.28705
2764.6066
768.16843
1584.2356
1612.5712
1947.9956
41.519484
-3776.4224
-2488.8813
-2595.9136
3611.2125
4699.1768
3972.8266
8751.3174
7443.1076
5676.2411
6583.1278
6996.2445
6235.3152
6086.8743
5777.9433
4554.0968
7176.3011
11088.027
11765.908
10847.17
7729.4951
3467.059
630.28929
-12028.04
-11490.49
-8898.8801
-1047.6923
1240.1242
1954.5054
2102.2927
2004.7438
3136.8298
3715.0033
2148.6258
1881.8079
4.9286157
1828.0353
1153.6008
2066.3469
2034.4486
494.82629
1483.5631
-149.20109
1599.512
308.86848
1601.2478
2110.8281
1419.7473
2094.8942
-134.49727
1349.5067
-190.81504
2414.608
1720.3806
3885.2746
2298.6591
2981.7469
4109.7357
2458.997
2970.0875
-64.493981
3026.537
875.89434
3774.8356
2323.5602
2918.3994
2527.8169
2111.3389
2000.8143
1150.74
2572.2234
835.9371
1965.7624
1170.0816
2113.9041
-1249.4439
-3390.1583
-1853.8505
-1882.286
4692.7462
2104.1491
3464.5936
10433.744
7438.8774
4811.999
6872.1281
7277.3244
5970.8594
6228.5192
5510.2049
4622.6955
8434.056
11461.457
11479.824
10147.443
7014.4206
3696.8253
935.04664
-13362.483
-10943.18
-8072.7074
-669.60145
1207.6606
1831.8098
1811.9054
1933.5678
3046.5369
3804.0098
2415.2176
1627.5437
313.09036
1586.0217
1210.7763
2029.9461
2108.0767
291.42249
1733.1842
-460.53378
1710.6073
443.30828
1892.9894
1861.9149
1460.5574
1603.7214
86.869901
1415.3457
-144.83256
2784.5417
1311.6417
3685.8774
2286.4163
3287.4755
4421.0269
2719.7044
2399.4215
-74.861046
2497.6876
982.63958
4145.9073
2452.5758
2950.1476
2774.4055
2019.9013
1669.3431
1492.2581
1984.0567
1352.1986
2399.431
969.22475
1560.7222
-2404.5289
-2803.1515
-1535.0896
-171.22696
4421.774
-119.41041
4567.8858
10367.854
6664.0574
4960.5241
7620.681
7319.5445
5601.4777
5982.0588
4909.4286
5261.3256
10213.077
11839.128
11147.897
9082.7733
6355.9397
4231.3344
1163.3303
-14575.507
-10404.008
-7119.4319
-393.39531
1088.3561
1711.1095
1538.109
1849.6451
3144.4677
3696.0677
2675.5449
1528.455
366.73779
1620.3788
1165.8008
1927.7601
2242.0959
95.818852
1850.1302
-525.93447
1551.3462
752.16412
2213.7742
1687.9647
1401.0826
969.15141
329.76146
1379.569
537.37695
2632.3125
1083.1795
3130.7188
2451.5073
3686.3243
4702.9024
3178.4118
1607.9188
79.922355
1793.7176
1250.9242
4327.2751
2517.3684
3025.2189
3264.3695
1686.8839
1733.9063
1685.8244
1190.001
2256.8929
2568.0822
1297.349
127.38938
-3054.2661
-2302.8848
-1286.9113
2591.5124
2295.3745
-1105.7186
7304.2386
8016.7639
4886.297
6600.1008
8707.0576
6615.6198
5201.5572
5709.4755
3821.4192
6451.7219
12345.039
11840.096
11086.454
7900.8853
5717.1766
5007.6656
1590.6601
-15696.568
-9887.1902
-6099.0908
-230.50828
899.02548
1550.6813
1384.0542
1700.4716
3357.8208
3648.7939
2647.5815
1692.0761
310.9623
1609.223
1293.4095
1763.5667
2248.455
75.813458
1786.1585
-477.10035
1357.443
1018.1549
2565.9027
1760.8684
1155.0672
232.34077
431.40014
1391.9154
1670.4974
2346.319
662.75386
2520.2412
2646.5934
4004.8118
5171.3
3537.2887
1020.7492
111.0486
1087.7955
1654.7156
4535.9043
1885.8984
3652.5009
3424.1464
1552.608
2310.2372
1508.1669
636.61472
2921.4514
2542.3062
1742.5305
-1638.3021
-3096.9875
-2046.1817
-900.76065
5622.1054
-1185.3068
19.708351
10905.615
3433.593
2427.9073
9146.8176
9927.5078
5426.268
4563.5414
5413.5914
2036.8295
7853.7563
14615.934
11240.081
11301.412
6909.3691
5194.4352
5604.1144
2174.5504
-16825.758
-9400.2216
-5073.654
-180.46343
711.74019
1304.3694
1389.0585
1553.1333
3525.8196
3749.743
2436.0715
1850.1146
393.25836
1473.9099
1431.3967
1786.5412
2035.3821
154.39916
1674.0431
-450.86473
1174.5483
1279.7391
2914.3522
2029.0029
875.07789
-561.13001
122.63855
1691.6029
3009.0771
2037.0987
236.98518
1690.1109
3025.8738
4104.5506
5690.3929
3846.4453
684.13876
66.836414
399.9076
2006.4797
5048.3892
268.79972
4881.856
2940.541
1607.6376
3372.3083
872.44734
1132.2051
2393.756
2713.4179
1076.6436
-2646.1101
-3264.9504
-2375.8246
290.18773
6715.5835
-4102.9267
3698.0933
13963.324
-1521.9648
510.78654
10317.794
10285.866
4268.6168
3722.6129
4783.0091
-77.33263
8927.1382
15055.808
10037.606
11189.247
6098.4379
4971.9224
5537.6922
2754.4576
-17969.715
-8913.3964
-4094.8533
-232.57961
590.38836
993.80566
1453.9723
1521.2613
3614.8061
3820.5617
2338.1199
1805.9673
609.37453
1373.9318
1393.545
2021.0478
1729.3768
229.05519
1552.2068
-420.67234
929.41706
1556.6851
3245.9064
2569.5483
484.90124
-1192.5636
-679.89717
2072.3204
4709.1843
1448.9438
37.759528
798.17224
3221.5183
4215.7615
5821.1457
4168.9153
638.58139
148.40607
-412.72037
2389.312
5304.3137
-1727.1848
5950.8375
1892.0741
1951.9886
4339.8998
84.723176
2590.1928
316.14103
3199.6352
-1793.7762
-2873.2706
-4431.7052
-2869.7326
1276.4404
3529.685
-3873.3618
6834.6189
14811.975
-565.63508
506.43386
9836.6282
9960.2209
3831.4483
3422.9008
3962.2769
-645.16163
9739.2819
14167.191
9869.081
11154.258
5462.4121
4930.948
5030.4995
2549.6686
-19077.922
-8391.1103
-3203.056
-357.26876
510.20648
715.49663
1451.2169
1633.191
3712.8139
3706.9952
2414.8719
1662.5504
827.26557
1355.9575
1276.4584
2295.4522
1445.8101
307.49208
1360.6046
-331.28754
618.29851
1814.2086
3332.5725
3497.3148
19.625663
-1655.645
-1681.0613
2051.9886
6705.6196
727.62666
-80.850922
176.03391
2964.2359
4132.4371
5427.7126
3985.4805
997.61277
490.93636
-1379.1204
2743.1653
4628.4118
-3310.2734
5833.8277
104.33366
2137.6736
5559.4331
1163.6966
2697.832
273.56468
3328.727
-2850.6695
-2870.8737
-5560.1301
-2533.4636
1586.71
135.92545
-4580.5894
6643.9503
15109.716
1228.6994
1554.8449
10170.686
10709.224
4152.3767
4395.8007
3937.889
-849.08196
10822.707
13600.548
9904.7576
12029.886
5142.2165
5362.1887
4922.1544
2522.4879
-20102.993
-7833.9938
-2415.0593
-520.38848
423.82928
525.34775
1359.274
1838.7628
3848.9613
3476.8695
2514.1137
1551.7797
1015.9297
1374.3158
1189.5029
2515.416
1217.5141
425.41001
1028.2778
-213.65901
321.35751
2039.0034
2962.7463
4457.9818
-229.97258
-2072.1835
-2766.0657
1591.2947
7898.1158
326.20513
-92.121002
-239.13002
2395.0391
3571.8084
4189.0587
2837.6094
2270.0422
1242.7393
-1330.38
3014.4352
4206.1164
-3272.2062
5463.4282
-1216.4582
518.95356
5978.9718
2718.0216
2969.6901
1005.507
4344.0756
-1983.5522
-2483.2516
-5467.7387
-2034.1105
2772.7905
-354.5742
-6024.8504
8938.5395
14799.711
-1185.9545
3417.9793
9636.2123
8745.6583
3826.4588
4845.9648
3341.0118
-1013.2755
11690.005
13270.275
9521.2531
11646.545
5059.7009
5284.4596
4758.1177
2525.4293
-21044.401
-7245.189
-1743.5032
-673.63207
338.96376
366.48443
1250.3308
2113.7715
3947.719
3256.9533
2566.0222
1462.4772
1162.9464
1457.4099
1113.3682
2676.957
984.86349
675.70314
411.74437
-207.50157
170.95146
2064.8802
2163.5022
4637.8439
-83.982501
-2286.8041
-3988.8489
734.40281
7015.5059
640.76267
792.61758
166.19574
2464.6476
3507.1739
3538.6389
1158.1202
2865.602
2296.6132
-847.80213
3827.1452
4538.3218
-2514.7643
6294.5982
-1608.2199
1081.4483
5695.3739
2899.7083
2218.0689
-124.95468
3560.1629
-2996.261
-2327.599
-6144.3125
-2293.252
1786.2559
-371.98087
-5185.0534
6228.0423
13731.74
-812.91624
1633.6272
9660.2674
9355.6328
3770.8568
4697.1439
3130.5592
-1113.1648
10752.343
13549.98
9882.6366
10932.116
5138.7616
5275.1125
4436.0612
2348.8993
-21894.599
-6619.5652
-1213.88
-769.84876
299.73402
158.25416
1143.0485
2513.6945
3955.0069
3018.1587
2659.277
1316.2685
1223.9092
1571.4846
1052.4781
2668.292
644.45561
1105.6914
-687.14279
-532.61537
320.6293
1824.7209
738.38097
3857.2415
761.00454
-1679.8358
-3905.4482
799.7126
5972.1278
371.95365
1646.4641
1020.4541
3141.0523
4030.2827
4028.9027
983.89093
2989.3513
2041.9054
-1542.1627
3416.824
3371.8653
-3318.9177
5822.2913
-1867.9319
551.95024
5722.559
3054.4429
3493.5568
642.06207
3170.6511
-3042.6497
-2394.7027
-6097.8608
-2136.8211
2880.6254
-1517.0831
-5945.8455
5630.6013
11587.879
-323.92466
2959.4736
9226.3805
8802.2386
3564.0825
5228.8503
2564.7211
-1674.5289
10234.574
12843.54
9624.8974
10190.894
5019.2333
5010.17
3882.0587
2089.7374
-22604.005
-5991.4012
-823.1817
-840.20746
382.36257
-137.08883
978.9477
3083.6111
3931.4728
2648.6685
2832.8869
1098.2775
1073.7647
1551.1538
1064.6563
2007.3685
349.60283
1493.2995
-2192.1787
-1225.1062
1357.824
2339.8695
489.89393
2965.0529
1385.4814
-839.13702
-3127.6811
1645.5803
6083.6315
116.29268
1759.8884
107.13837
2590.2453
3273.5101
3450.0946
933.99924
3196.2331
2469.7613
-869.68139
3536.0713
3350.8367
-2869.9666
5733.3535
-1102.103
399.5212
5086.8579
3083.7941
2349.3134
76.469464
2866.906
-3297.0168
-2905.8327
-6898.2783
-4383.9877
1937.8131
-2293.8931
-7917.1409
5050.9402
10604.285
1084.6655
2059.0237
8282.1778
8318.8647
2629.7146
5032.0575
1972.734
-1391.4788
9260.8486
11620.66
9476.8878
9666.4077
5078.6229
4800.8897
3431.4725
1838.7551
-23212.279
-5398.1155
-541.90517
-983.54959
673.41995
-550.00759
774.82051
3667.6902
4092.7621
2036.8311
2944.8669
914.69332
306.831
1382.1512
1112.5363
457.69099
677.67818
2298.9631
-2217.3733
-1871.6086
2290.4416
3169.8449
1106.1524
2960.6752
1261.551
-1699.0389
-4423.9486
1045.7542
6249.905
25.969954
1947.9537
706.16151
2974.1046
3423.2329
3391.9831
912.18095
2836.2647
1859.8132
-1176.2786
3316.4679
3068.0266
-3146.7475
5464.409
-812.23544
258.97986
4836.9068
2484.0874
1120.1283
562.80239
2432.4104
-3780.5137
-3281.2513
-7002.588
-6084.6425
2224.4633
-3560.3404
-6505.28
6117.8245
9016.2128
1721.3367
3009.8848
7968.3063
8605.6141
3788.6974
4243.5959
2024.8775
-707.98277
8057.411
9959.8446
8623.0587
8882.3363
4712.5384
4441.1357
3006.5207
1622.2634
-23798.406
-4829.8718
-369.11423
-1228.819
1119.1356
-1037.5741
598.27726
3906.1329
4713.6363
978.09353
2863.5114
833.50119
-1136.0047
1216.1436
2000.6428
113.84972
803.78982
3128.0047
-1459.762
-1990.0819
2049.5729
2610.833
500.38564
2630.0677
1292.7479
-1233.7533
-3590.7604
1224.5171
5667.9764
64.65323
1886.5077
115.64773
2768.3787
3306.2966
3376.656
729.39895
2790.9299
1986.044
-817.41712
3286.8403
2971.0873
-2962.3248
5258.7713
-480.04643
90.449914
4521.583
1982.2326
70.927073
370.89352
1743.9013
-4602.0659
-3479.666
-7102.7003
-8220.7039
-1197.1145
-4906.5785
-5243.0751
6032.1664
10762.264
2458.7244
2416.4569
7377.5171
8298.9383
3429.4528
3713.3492
2993.9038
1160.6342
7918.6645
9052.2177
8023.6847
8388.1927
4759.2168
4207.6437
2714.3574
1601.4931
-24375.03
-4241.2858
-331.02224
-1461.1994
1451.635
-1339.9877
294.46758
3598.1686
5618.4447
-332.9514
2398.4765
1573.5466
-1136.5368
1090.4574
2908.1072
524.94837
708.01881
2628.4496
-2474.906
-2291.983
2328.6199
2988.0592
741.29361
2619.1334
1184.3309
-1579.9806
-4461.881
845.27321
4969.4291
-25.065284
1887.322
479.90962
2650.5336
3195.2009
3492.7578
711.53722
2169.3651
2100.1321
-531.33128
2747.873
2601.7019
-3008.7099
4869.9209
-238.96434
210.87209
3993.8538
1098.3037
-673.49874
-159.19379
953.27258
-4863.11
-3495.4671
-7589.9035
-9886.7469
-267.42427
-5203.7767
-7270.1547
5573.14
8990.9432
2204.4076
1819.1531
6135.8232
7269.5337
3757.5571
3513.7336
3534.0034
1828.0809
8251.5436
8720.4438
7563.8209
8017.9806
4989.8078
3901.1309
2621.1501
1880.5761
-24883.628
-3587.2779
-436.34912
-1514.6961
1367.9656
-1083.5797
-497.10815
2929.3109
5869.4133
356.72003
2060.6386
2514.807
-601.74085
990.02854
2359.1002
63.074363
559.84474
2948.1047
-2031.4052
-2189.2333
2242.4332
2770.5185
615.36355
2560.2098
1215.3916
-1403.4823
-4013.772
466.11855
4358.8529
162.10306
1575.9003
210.80708
2412.9456
3024.0316
3449.3243
11.485614
1788.3132
1947.4433
-441.35613
2677.9864
2475.4132
-2890.2787
4877.7871
-106.31517
-51.825227
3352.9932
-239.8896
-2064.0482
-823.27719
-272.51269
-4997.5479
-3357.1542
-7348.4812
-8740.1083
45.658814
-5025.7554
-6849.1812
4933.4817
7814.0611
1521.6588
1006.9624
5801.9031
6763.6455
3664.4087
4829.593
4443.1747
2616.2111
8363.6494
8320.8622
7129.8206
7588.275
4853.926
3406.991
2449.0416
2127.7926
-25253.129
-2860.988
-608.12435
-1328.7832
804.20701
-242.78043
-1608.0778
2621.9054
5885.1453
1494.8054
2078.4221
2119.0189
-1033.1144
920.98207
2547.9945
175.34746
560.70454
2694.1335
-2276.6451
-2216.5107
2167.3184
2663.7272
629.74684
2482.7968
1257.917
-1542.9419
-4080.5106
142.26614
3903.1086
-139.16441
1505.833
185.30615
2335.9478
2918.4292
3611.5806
63.412794
1466.8382
1854.9303
-269.42918
2501.7474
2534.5146
-2788.4656
4912.3957
127.25117
18.786725
3018.1114
-1654.0962
-2951.9054
-1109.3745
-784.17996
-4582.1725
-3283.4838
-6234.9898
-7315.324
-2146.8773
-5039.69
-6069.8014
5022.9562
4158.603
1642.9409
1412.8471
3590.3523
6330.2161
3046.879
4401.5883
4513.7504
3075.8711
8513.2042
8137.3767
6821.0443
7209.1249
4580.9114
2937.4603
2283.1672
2295.7098
-25539.593
-2084.123
-626.30897
-1002.7385
36.497645
387.32476
-1068.527
2757.6189
5970.2479
1196.1577
1854.0445
2169.1775
-871.6455
886.76351
2373.6535
106.00747
557.05916
2772.6755
-2085.5185
-2234.9996
2071.217
2521.2779
577.69135
2266.5944
1339.002
-1468.7435
-3639.7569
-98.205364
3443.6193
49.234863
1422.8146
21.073507
2225.9719
2697.1141
3330.4474
-299.88515
1142.912
1744.7766
-135.56201
2094.9012
2582.5635
-2377.5415
5013.6679
1011.651
317.27758
2472.6099
-2630.8663
-2696.966
-1266.0437
-700.47697
-3914.044
-3216.2658
-5578.1367
-5971.269
-2526.4042
-5732.6792
-6363.0872
5489.779
5318.6541
1859.9555
2842.813
4129.0764
6773.8839
3729.7353
4733.3854
4860.7852
3424.9039
8379.8281
7541.3743
6622.8893
6863.7973
4201.9186
2583.9923
2013.4782
2268.3817
-26126.452
-1292.8343
-166.96151
-730.9729
-348.69943
521.15199
-56.554298
2566.3515
5535.4434
1232.6643
1883.2485
2118.4963
-961.16373
862.77917
2229.9
83.655381
540.51677
2531.575
-2342.4164
-2340.3335
1964.4602
2393.4957
613.68074
2094.6466
1379.1429
-1478.2004
-3236.1505
125.26089
2839.1613
-438.32698
1322.7902
-214.69334
2140.0275
2558.8949
3243.0365
-709.79197
1128.249
1610.6444
29.079634
1909.5726
2593.9594
-2565.1231
4619.3098
1084.9752
458.94021
1748.3873
-3774.8984
-2944.6567
-1312.802
-535.95757
-3521.7267
-3086.8146
-5343.5002
-4721.9894
-2420.0237
-5465.9995
-4529.4754
3950.4284
3904.9016
1576.7517
2764.6617
3469.9127
8085.598
4756.7147
4538.5517
4594.5821
3690.8045
7705.2144
6663.7117
6409.3432
6536.9248
3688.8499
2252.6562
1721.3612
2181.1929
-27719.215
-522.65311
813.62286
-617.65664
-143.90439
531.62999
-229.87323
2616.0303
5579.6036
1224.7575
1860.0132
2052.1646
-921.40477
838.99847
2058.7392
28.052542
487.9146
2376.6706
-2507.0263
-2512.8592
1810.5482
2198.3271
547.89416
1863.4428
1412.6034
-1482.9026
-3011.5294
240.84423
2349.82
-585.52113
1224.0907
-409.99821
2072.9857
2470.9032
2943.5346
-1110.1133
1311.7556
1676.8353
247.95536
1911.8883
2549.2672
-2982.0886
4195.5026
782.65037
107.7436
673.59253
-5249.5323
-2525.6323
-1452.7679
-575.2753
-3559.7435
-3200.1598
-5601.2108
-5077.1887
-2597.0415
-3907.8832
-3364.5995
4816.7493
4948.4964
1398.477
1155.7944
3087.4193
8319.5452
5407.2845
4776.7561
4623.0686
3960.6233
7720.5843
6898.1298
6184.1194
6190.0477
3189.9682
1872.0601
1526.5262
2097.9979
-30145.484
9.138629
1354.9655
-381.99427
-89.560638
359.78004
-243.73511
2565.0322
5511.545
1195.3745
1872.1228
1973.9314
-961.17617
803.30185
1904.6425
-27.627656
406.23225
2155.2327
-2732.6328
-2700.8828
1624.625
2043.8917
536.22078
1737.8562
1400.3243
-1534.516
-2862.0776
417.19736
1953.9702
-627.18184
1136.0271
-506.40435
1989.9601
2432.7067
2604.4633
-1605.729
1312.6498
1672.3276
436.87671
1473.8446
2514.4412
-2163.896
3782.8097
561.09208
182.33067
-380.72962
-5791.151
-1334.4607
-1557.5835
-425.7867
-3766.5653
-3074.5896
-5014.52
-6847.3131
-3527.7689
-2983.8812
-5119.4091
5132.624
4771.6531
1515.4882
640.90371
2835.3805
7936.7574
5681.9324
5120.2703
4541.6143
4293.12
7214.6273
6987.3452
5874.333
5668.2082
3053.1251
1805.3325
1385.1588
1957.6916
-29992.249
-695.46665
745.30875
-29.708025
-107.40424
302.94353
-272.29614
2513.9519
5400.4651
1157.0712
1806.1686
1883.7571
-954.00279
752.73893
1763.3886
-92.084158
307.6875
1943.0957
-2965.3631
-2893.5707
1429.584
1927.3358
560.93237
1745.7202
1391.9877
-1469.3801
-2543.5164
625.40955
1602.1252
-672.51518
1033.3564
-526.19091
1842.2557
2422.4352
2036.7541
-2179.2413
1585.2792
1644.4211
621.04284
1480.5806
2326.7715
-1881.4015
3386.5602
337.03356
289.65453
-970.51811
-5792.3628
-607.19805
-1587.979
-148.5598
-3816.1577
-2973.3872
-4923.0284
-7362.5433
-4225.238
-2941.9577
-6703.428
3079.7204
5428.3961
1287.1411
-772.39334
2326.8211
7185.5311
5479.6867
5485.0364
4683.3774
4050.603
6678.3751
7050.2013
5571.1215
5054.2603
3028.1315
1861.1774
1139.5674
1804.7017
-20938.805
-3039.8806
218.04059
124.02695
-90.456818
298.85743
-272.43269
2485.2052
5244.8858
1115.4121
1771.5132
1779.1162
-985.03141
686.50121
1646.346
-156.15313
197.58598
1737.4254
-3173.5245
-3054.3284
1255.9132
1875.0886
535.2019
1741.3911
1288.2206
-1377.8345
-2126.2821
849.17917
1262.1011
-737.53273
881.99382
-463.02678
1720.3405
2452.7819
1315.2436
-2974.5042
1566.3493
1597.2999
787.13417
1247.1609
2223.9109
-2045.4434
2801.6037
101.1011
483.23745
-1401.3395
-5533.1793
-61.963791
-1725.9606
35.981765
-3993.9249
-3064.0458
-5532.9074
-5856.2921
-2720.4177
-4118.0514
-6831.3419
5804.4616
6348.4821
888.72466
-1383.8751
1548.4436
7041.1755
5164.2972
5470.3758
4709.0801
4034.2455
6293.5451
6766.5628
5156.4746
4575.6102
2870.5557
1869.2747
819.91779
1642.1947
-3160.3264
-3995.6889
130.05755
26.871325
-80.125092
309.16828
-268.0695
2439.5711
5083.5004
1080.1901
1716.7395
1660.496
-1007.6745
599.24955
1548.9153
-219.2646
78.919134
1544.3883
-3373.9036
-3195.7167
1107.0739
1858.4706
542.62722
1754.2441
1122.7533
-1217.9636
-1740.3807
1054.4233
978.77934
-859.60475
711.50728
-365.91807
1608.9722
2469.0798
353.48801
-3950.9826
1811.0393
1583.204
977.541
1237.7683
2165.231
-1709.1588
2270.5381
-98.30302
683.3344
-1826.9027
-4758.5217
559.85038
-1974.9844
70.006284
-4276.0784
-3431.184
-6020.6724
-4404.9987
-1378.9469
-6077.5636
-4696.7602
7536.0026
7418.1649
376.34213
-2780.3096
506.11834
7100.167
4770.3353
5622.776
4609.7045
3966.2102
5613.4863
6757.8446
4599.7803
4366.6918
2840.1913
1885.9414
528.82281
1537.9221
1141.1691
-2420.961
63.459911
-0.048904305
-58.198188
328.02101
-264.46965
2381.0912
4916.8829
1045.0973
1657.4004
1529.8625
-1045.3137
490.01681
1468.7916
-280.07229
-45.5478
1346.2598
-3545.6502
-3295.257
976.37296
1849.4808
568.55113
1733.7873
865.26036
-1153.5908
-1439.2648
1185.2917
942.77617
-908.98808
644.71725
-125.86954
1481.7244
2510.9976
-662.65089
-4837.303
1960.0983
1569.2205
1040.5046
1140.2169
2094.0651
-2021.5276
1827.9937
-306.87224
740.64192
-2275.6744
-3750.5987
1265.1866
-2271.7014
91.242698
-4388.943
-3860.2525
-5856.6885
-4181.0793
-1086.5117
-7026.7251
-3853.9351
8484.3288
7883.2203
49.851217
-4489.7429
-793.93369
7709.0413
4318.3831
5286.0369
4500.4579
3921.5127
4707.452
6103.8479
3972.2203
4125.4117
2947.0899
1862.8388
198.36702
1441.3213
-8069.6333
-1462.065
107.3348
-5.0738469
-36.688176
344.90558
-263.37292
2315.106
4746.709
1003.1422
1574.0026
1389.9037
-1091.3156
360.86824
1397.1475
-341.27539
-176.90726
1168.2507
-3701.7899
-3385.4587
850.09085
1876.1672
595.8663
1696.1494
508.04627
-1146.2143
-1257.6903
1282.7747
1036.5671
-933.3859
802.75221
159.60166
1423.9069
2563.2613
-1507.1584
-5449.0029
1991.4365
1466.6505
1108.3603
1066.2151
1946.3532
-1614.5541
1573.3776
-464.39425
804.90945
-2536.8448
-2716.1341
1793.6031
-2154.2557
90.430272
-4500.9522
-3579.6368
-5228.667
-4238.693
-1267.473
-6931.8778
-3469.2976
8592.46
7969.708
-384.71712
-4816.9179
-985.81242
9012.8584
4126.2903
4466.8866
4332.9793
3986.4221
3701.3179
4940.6427
3408.0448
3867.5696
2706.873
1540.2854
-297.77888
1368.1453
-8093.7295
-1681.2279
124.54161
-7.8433224
-15.125986
357.58477
-265.24829
2236.6105
4559.754
950.41106
1461.1024
1250.5453
-1143.5184
196.32539
1330.7078
-399.04346
-324.28142
998.08744
-3826.1393
-3454.728
729.71725
1908.7907
638.78854
1642.2495
159.43177
-1169.8553
-1153.9369
1324.7603
1201.8677
-803.4844
1185.8732
524.01205
1401.3975
2509.8265
-2195.0837
-5705.1494
2149.0373
1349.2032
1144.664
996.69808
1768.2594
-1805.643
1279.8617
-437.32985
873.07493
-2401.3179
-1658.7463
2022.0025
-1914.4867
162.61876
-4525.6138
-2791.0559
-4476.7716
-4476.4956
-1899.1934
-6304.2926
-3367.4531
7510.1907
7707.3878
-1200.4307
-6059.5349
-1298.1315
9593.1449
3691.4942
4010.955
3812.5287
4081.8519
2726.3405
3592.5595
2774.0737
3611.4008
2193.2429
859.70081
-1065.3003
1261.6809
-7841.008
-1540.5154
140.8364
-7.8745809
5.170071
364.79403
-269.59701
2146.8816
4355.5493
884.15414
1320.2037
1138.6402
-1191.8334
27.37599
1259.8253
-445.02579
-494.55263
839.3741
-3920.3427
-3488.033
620.17028
1905.1481
602.67122
1597.4634
1.9557183
-1200.1301
-1132.2022
1295.2884
1165.9059
-915.3731
1587.5046
1013.0995
1360.0534
2382.3631
-2676.7767
-5511.3177
2149.7327
1102.4513
1193.3054
906.10853
1521.6253
-1258.4239
1082.0917
-380.413
996.4594
-2366.7233
-529.47181
2361.2701
-1787.585
152.96199
-4483.525
-2385.0695
-4018.546
-4374.2391
-2349.9869
-6757.0564
-3474.2314
6846.8215
7031.1568
-1709.6938
-6491.6747
-1986.1435
9649.0306
3104.7861
3571.6908
3521.926
4008.2448
2004.6396
2809.7034
2253.5602
3225.5697
1693.0236
-82.773683
-1843.5142
1128.0463
-7408.7108
-1473.4973
151.38635
-6.3877396
23.809746
366.15394
-275.94851
2050.0719
4145.7048
811.94423
1167.1528
1074.3984
-1215.0739
-127.08822
1186.2076
-485.78565
-667.83225
687.15671
-3920.8733
-3487.237
576.07896
1889.848
502.71226
1590.4386
35.047847
-1226.2197
-1183.5311
1205.7089
1027.5597
-1000.1943
1724.4505
1189.0169
1243.755
2111.2766
-2773.8533
-4857.0684
1861.6057
626.11025
1208.2151
672.82894
1419.3483
-1047.9737
1100.9203
-130.70011
1151.0528
-2468.0835
-109.15638
2255.502
-1601.3675
97.471484
-4555.1458
-2144.2692
-3749.7291
-4271.8373
-2556.076
-6695.8481
-3002.7491
6502.8298
6339.0929
-2093.421
-5835.3958
-2476.0315
8865.8012
2660.8534
3115.7965
3142.1278
3937.2835
1795.8316
2525.6743
1942.9868
2842.7907
1445.2599
-909.40404
-2212.1358
979.91694
-6962.8266
-1344.2772
166.05459
-3.1873019
39.96138
361.19871
-284.05929
1945.3423
3943.4674
746.71941
1017.1034
1056.1731
-1204.3222
-228.76013
1111.1298
-491.43961
-830.81633
532.12334
-3841.1322
-3411.3642
552.77084
1848.3724
368.04141
1512.808
102.14981
-1216.1232
-1264.3872
1163.5541
1004.2743
-900.5864
1661.3967
1159.6887
1158.3306
1731.5951
-2726.5952
-4025.1913
1430.9843
-60.76331
1158.7133
662.35269
1377.9581
-781.3524
1290.9886
58.892308
1272.9885
-2491.3116
-201.9594
2049.3415
-1611.3355
55.109563
-4499.5217
-1889.1246
-3616.1789
-4255.5889
-2614.1246
-6802.6499
-2126.0117
6128.3698
5730.9837
-2602.766
-5934.9578
-2805.8488
8385.7124
1160.6817
2548.5624
3076.4578
3992.5435
1805.0432
2348.0601
1742.0592
2494.4532
1103.611
-1407.6357
-1840.6773
833.7519
-6464.0462
-1276.295
182.17077
2.6116347
53.888784
349.46706
-293.9361
1833.7685
3750.6965
687.6097
871.16685
1066.1656
-1159.0378
-290.61898
1033.871
-461.75296
-923.23248
368.35877
-3626.9746
-3252.4353
554.25389
1786.0005
239.41775
1311.659
83.099165
-1129.6498
-1323.3519
1072.7629
779.79181
-763.93597
1842.4909
1085.6904
1043.5195
1387.084
-2728.893
-3268.8092
992.53736
-841.31123
1014.3288
605.06203
1357.1484
-563.60371
1504.7533
209.27696
1243.9323
-2514.046
7.2930261
1934.9436
-1800.2796
-469.12344
-4296.2878
-1627.2287
-3461.929
-4212.3053
-2785.2768
-6949.7384
-1818.1832
5789.0831
4972.9984
-3268.5735
-6361.9401
-4853.6737
6699.8781
-1388.2243
2097.957
2959.1828
3971.3701
1852.2134
2249.7194
1926.2932
2172.328
660.97097
-1725.1339
-1702.3515
669.0299
-5991.6765
-1124.2447
198.9161
10.353877
64.772659
330.71922
-305.88268
1718.2791
3557.5959
621.55646
708.68567
1068.7994
-1084.6572
-307.23866
969.98228
-407.30142
-966.30852
203.70238
-3279.4008
-2949.9161
568.95218
1688.4862
126.4591
1018.1235
-1.2676084
-964.93987
-1348.248
970.60163
709.6034
-652.61268
1671.4056
1018.8677
938.93931
1137.6333
-2597.6331
-2608.3652
607.06524
-1290.2392
932.79344
557.19381
1339.8983
-413.07316
1712.8732
434.58971
1200.6531
-2570.4382
-359.88712
1821.5545
-1759.2443
-736.31626
-4565.4419
-1119.6763
-3259.3369
-4329.3223
-2926.534
-7105.7734
-1818.0365
5569.7992
4082.5365
-3678.2212
-5773.1424
-8917.0132
3679.3212
-2631.4702
2396.8637
2587.7696
3994.0825
1958.7782
2132.6035
2293.8639
1963.6571
360.94066
-1827.7868
-1555.913
624.6229
-5477.7172
-1087.4109
218.57265
20.566292
73.188553
304.70487
-320.34476
1602.1544
3358.2473
537.04452
515.87946
1065.7616
-1041.3345
-296.1527
968.81318
-339.14271
-979.2206
94.627817
-2848.5293
-2620.4925
577.27299
1564.5237
36.944585
675.06639
-96.794903
-810.97568
-1288.6072
807.49654
568.0277
-508.84654
1642.5453
966.33459
833.40032
890.71232
-2364.4559
-1929.4875
363.2239
-1315.3232
873.11845
523.83604
1287.5937
-219.60629
1962.4602
577.41888
1169.8422
-2621.2437
-522.87584
1756.5394
-1725.4678
-439.42026
-4247.552
-1022.0627
-3163.8975
-4223.9495
-2944.0005
-6876.798
-1806.2084
5399.1544
2962.8474
-3838.9196
-4422.2731
-11492.108
408.84182
-2372.9932
2881.3581
2068.6521
3929.5526
1905.8647
1870.92
2318.0975
1751.4107
123.94164
-2060.3126
-1699.7031
615.84138
-5008.5077
-905.56317
237.92176
33.895048
80.820362
271.40642
-337.9963
1486.0984
3155.1931
438.71582
297.2419