/*--------------------------------*- C++ -*----------------------------------*\
| =========                 |                                                 |
| \\      /  F ield         | OpenFOAM: The Open Source CFD Toolbox           |
|  \\    /   O peration     | Version:  2.3.0                                 |
|   \\  /    A nd           | Web:      www.OpenFOAM.org                      |
|    \\/     M anipulation  |                                                 |
\*---------------------------------------------------------------------------*/
FoamFile
{
    version     2.0;
    format      ascii;
    class       volVectorField;
    location    "3e-05";
    object      U;
}
// * * * * * * * * * * * * * * * * * * * * * * * * * * * * * * * * * * * * * //

dimensions      [0 1 -1 0 0 0 0];

internalField   nonuniform List<vector> 
7500
(
(460.02541 -0.00058057405 2.1402964e-16)
(459.99563 0.0010622026 3.684687e-15)
(460.03414 0.013324492 2.8595937e-15)
(459.96641 -0.00173787 5.9079596e-17)
(460.00231 -0.0052235778 2.7255244e-15)
(459.94656 -0.014291458 5.3574085e-15)
(459.98084 0.0078499045 1.7916403e-15)
(459.95238 0.0031729046 5.0961071e-15)
(459.97212 0.005106488 5.1137982e-15)
(459.96458 0.0030767549 2.313755e-15)
(459.97308 -0.008501746 1.2801323e-15)
(459.95991 0.0076308638 -1.4801661e-15)
(459.98908 -0.013980114 2.1181621e-15)
(459.93549 0.018291085 1.3482378e-15)
(459.9995 -0.018174941 1.1337302e-15)
(459.91766 0.016138623 9.3799724e-16)
(459.99818 -0.010435235 6.6500064e-16)
(459.93121 0.0027032598 -1.5714557e-15)
(459.98728 0.0046129968 1.5459911e-15)
(459.96404 -0.012999828 1.3544704e-15)
(459.98064 0.019832708 -1.3373194e-15)
(459.98488 -0.025479128 9.394952e-16)
(459.9862 0.030229877 9.3161705e-16)
(459.98783 -0.03537286 -1.3708177e-15)
(459.98434 0.041149484 1.0324538e-15)
(459.9919 -0.042458884 9.0167648e-16)
(459.97512 0.037858292 8.9361545e-16)
(460.00192 -0.030258603 -1.6599732e-15)
(459.95517 0.022897156 -1.4372707e-16)
(460.02274 -0.010141742 2.7359055e-15)
(459.9433 -0.0019667855 -2.3613359e-15)
(460.01435 0.010484547 5.3175856e-16)
(459.94044 -0.02276049 1.3965136e-15)
(460.00744 0.035123204 -8.1166462e-16)
(459.96515 -0.03911335 -8.2428571e-16)
(459.98835 0.036725132 5.1984953e-16)
(459.99709 -0.032507297 -1.197333e-15)
(459.98682 0.023791363 1.0724336e-15)
(460.01474 -0.017549046 8.3884659e-16)
(459.99308 0.0092676477 1.2122971e-15)
(460.0073 -0.0023935653 7.6797782e-16)
(460.01381 -0.0023456522 6.5541364e-16)
(459.99268 0.0094196709 2.862238e-15)
(460.0199 -0.017922097 2.7973438e-15)
(459.98632 0.02135495 5.6555909e-16)
(460.01249 -0.022116494 -1.5224313e-15)
(459.99416 0.018553139 -1.2439772e-15)
(460.00349 -0.0095762521 -1.2122004e-15)
(459.9846 -0.0048980552 9.3252233e-16)
(459.98338 0.019414406 4.2404438e-16)
(459.98622 -0.015293912 5.91653e-16)
(459.98758 0.0050237976 2.8413002e-15)
(459.97989 -0.018193886 5.8124745e-16)
(459.9992 0.01992694 6.3025342e-16)
(460.02218 0.0067108501 1.7756568e-16)
(460.00136 -0.014373207 -1.3740458e-15)
(460.01255 0.0056183867 5.5333513e-16)
(459.96497 -0.01603197 5.7595777e-16)
(459.96948 0.017759506 6.0558902e-16)
(459.9981 0.0094399092 6.1703222e-16)
(459.99178 -0.016913633 2.6546241e-16)
(459.96297 -0.015095765 2.1534094e-15)
(459.95437 0.013279851 3.203796e-16)
(459.98264 0.020453144 -1.1967241e-15)
(460.00274 -0.017885489 -1.778402e-15)
(459.97331 -0.013446053 1.387508e-16)
(459.96496 0.0085431349 3.3418598e-16)
(459.95915 0.011226511 4.3156197e-16)
(459.96792 0.0047159969 4.922009e-16)
(459.94622 -0.0094561054 -9.5766396e-16)
(459.9392 -0.0043089872 -1.534068e-15)
(459.94537 -0.00098509485 4.2497382e-16)
(459.93671 -0.0036289983 2.4888181e-15)
(459.96807 0.0070861941 4.2845709e-16)
(459.96263 0.0019900178 1.8723473e-15)
(460.02465 -0.0051685394 -2.0239953e-17)
(459.99867 0.0089862274 3.8654004e-17)
(460.0321 0.0098182486 -9.2106983e-19)
(459.96576 -0.0017030784 5.2546018e-17)
(459.99943 -0.0085775882 -3.544283e-17)
(459.94634 -0.008154851 4.3430356e-17)
(459.98048 -0.007404154 6.8350969e-17)
(459.94973 0.016776052 3.1064774e-16)
(459.96998 -0.0099617749 9.050963e-18)
(459.96179 0.019564608 4.0191614e-16)
(459.97149 -0.023485764 2.6963217e-16)
(459.95904 0.021071786 1.5125169e-16)
(459.98915 -0.022983045 3.5332692e-16)
(459.93483 0.020734088 -5.3620992e-16)
(459.99952 -0.012757482 -6.5144782e-17)
(459.91722 0.0032348144 -9.1109368e-16)
(459.99665 0.0090179979 1.2495472e-16)
(459.93069 -0.021573442 5.3659265e-16)
(459.98316 0.032463192 1.472233e-16)
(459.96304 -0.045188229 4.1937539e-16)
(459.97445 0.052174408 1.4697886e-16)
(459.98289 -0.060965907 3.2465302e-16)
(459.9797 0.065043078 3.7391451e-17)
(459.98524 -0.070105884 1.2155061e-15)
(459.97923 0.068356845 -3.3425648e-17)
(459.98709 -0.061076874 4.2144474e-16)
(459.97314 0.046144339 -8.9562531e-16)
(459.99555 -0.028328785 -4.6412631e-16)
(459.95449 0.010101395 1.7443677e-15)
(460.01594 0.014306564 2.921781e-16)
(459.94251 -0.032585557 -8.5816856e-17)
(460.00861 0.042370804 1.9063161e-16)
(459.93964 -0.051055764 -1.269925e-17)
(460.00175 0.054851607 3.4542163e-16)
(459.96171 -0.052242652 3.0198444e-17)
(459.98351 0.043176032 3.2552306e-16)
(459.99178 -0.037995489 2.4128668e-16)
(459.98111 0.025328253 -5.8611155e-16)
(460.00855 -0.014019622 1.4149766e-16)
(459.98639 0.00080718 2.1129963e-16)
(460.00025 0.010746589 4.7352094e-18)
(460.00677 -0.01797395 -4.7074077e-16)
(459.98359 0.022906973 2.3777526e-16)
(460.01333 -0.027758359 2.4697077e-16)
(459.97683 0.025995117 8.5364314e-17)
(460.00455 -0.017127308 -4.4147327e-16)
(459.98584 0.0082352271 2.4858072e-16)
(459.99316 0.0027234253 -4.7952671e-16)
(459.97874 -0.013343393 1.1432284e-16)
(459.97438 0.023985332 1.7433186e-16)
(459.97698 -0.019580355 2.0696019e-16)
(459.97971 0.0082583251 -2.605018e-16)
(459.9752 -0.019214364 1.0591812e-16)
(459.99505 0.015305991 -3.9520243e-16)
(460.01311 0.010507522 2.2462722e-16)
(459.9951 -0.016086744 1.4938302e-16)
(460.00814 0.0082012531 1.9623383e-16)
(459.96066 -0.020088206 2.7029527e-16)
(459.96825 0.020350117 2.130476e-16)
(459.98802 0.014867408 -3.9652103e-16)
(459.98369 -0.017123771 2.3100363e-16)
(459.95895 -0.012902482 1.6440961e-16)
(459.95163 0.0063654288 2.4850616e-16)
(459.97037 0.023014613 5.1267798e-17)
(459.9917 -0.0089148868 -7.0067101e-16)
(459.96706 -0.01299089 1.7545279e-16)
(459.96072 0.004374738 -2.6410738e-16)
(459.94909 0.0079372846 1.8645097e-16)
(459.958 0.0061315379 1.8210557e-16)
(459.93492 -0.0038318632 2.0582481e-16)
(459.93147 -0.0065002096 7.1607404e-16)
(459.93427 -0.00014026279 -4.531264e-16)
(459.92769 -0.0049338608 2.9526538e-16)
(459.9568 0.0059921565 2.4585487e-16)
(459.95127 0.002503126 2.1415219e-16)
(460.01169 -0.0076161545 6.5717477e-17)
(460.00858 0.014904917 -8.7857156e-16)
(460.02122 0.0029891242 7.0604238e-17)
(459.9694 0.0037741116 -6.5335146e-17)
(459.99233 -0.017209398 1.2394235e-16)
(459.94832 0.0027345283 5.9440872e-16)
(459.97657 -0.023957812 8.2183531e-17)
(459.95029 0.033054535 2.4071655e-17)
(459.96345 -0.030761991 -1.1399141e-16)
(459.961 0.043801984 -1.1873124e-18)
(459.96535 -0.045388972 -1.608804e-17)
(459.95987 0.03896398 -7.696511e-16)
(459.98533 -0.032707378 -5.8309377e-16)
(459.93636 0.019796215 6.9309118e-16)
(459.99616 -0.003903255 6.9014531e-16)
(459.91815 -0.010905508 -6.7160477e-16)
(459.99109 0.026003261 5.8426176e-16)
(459.92884 -0.042700839 6.9173634e-17)
(459.97208 0.059188693 1.0611554e-16)
(459.95739 -0.079403328 -1.0000597e-16)
(459.95906 0.092068231 -9.2063467e-18)
(459.97401 -0.10612177 4.8943173e-16)
(459.96483 0.10909151 5.4032357e-16)
(459.97423 -0.11036464 -1.5075541e-16)
(459.97092 0.09698872 -5.8298393e-17)
(459.9733 -0.077666788 -1.3985207e-16)
(459.97134 0.054792036 -3.1846539e-16)
(459.98123 -0.029235499 7.2574957e-17)
(459.95521 0.0025497846 -6.3212381e-16)
(460.00271 0.03028209 3.6456353e-16)
(459.94025 -0.053077644 1.2734988e-16)
(459.99945 0.065930282 1.4383127e-16)
(459.93327 -0.075881109 -4.1261764e-16)
(459.99273 0.077401157 -1.0192419e-16)
(459.95114 -0.070945659 6.5502827e-17)
(459.97123 0.056470907 -1.6174381e-17)
(459.97918 -0.047446494 -4.3164921e-16)
(459.96599 0.026686369 -3.921689e-16)
(459.99313 -0.0088507111 9.6905084e-17)
(459.97008 -0.0090294123 -1.1891708e-16)
(459.98399 0.025120027 -1.523846e-18)
(459.98999 -0.03160053 -2.5050067e-17)
(459.96693 0.031932201 -3.3713021e-16)
(459.99706 -0.030931566 -1.0713772e-16)
(459.96018 0.024672494 -6.7587152e-17)
(459.98614 -0.012264118 -4.1083627e-17)
(459.96782 0.0040507477 3.9128812e-16)
(459.97436 0.0086147688 2.7431584e-16)
(459.96046 -0.01924011 -2.7084798e-16)
(459.95673 0.030188704 1.1212899e-16)
(459.9573 -0.023260593 4.5332602e-16)
(459.96357 0.011460315 6.8496998e-16)
(459.96066 -0.021770306 1.7956199e-17)
(459.98403 0.014601739 -9.7642892e-17)
(459.9976 0.0077533763 -3.4467292e-17)
(459.98184 -0.012577797 4.3459904e-16)
(459.99802 0.01126838 -8.0984531e-16)
(459.95022 -0.032495544 1.2688699e-17)
(459.96395 0.025726186 8.9164701e-17)
(459.97047 0.023232059 -2.979657e-16)
(459.96841 -0.021201511 -3.7525084e-16)
(459.94487 -0.010576959 -3.477367e-16)
(459.93981 0.0044816352 -4.9344997e-17)
(459.94895 0.021222127 -1.8475934e-17)
(459.96875 -0.0019482795 -3.9694924e-16)
(459.94448 -0.014072566 -6.8758825e-16)
(459.94358 -0.00085986898 1.1560899e-16)
(459.92463 0.011264365 9.2250804e-17)
(459.9364 0.0085359809 6.2198006e-17)
(459.9065 -0.0011559276 -1.1818625e-18)
(459.90812 -0.010828177 8.7140204e-17)
(459.90569 -0.0042695953 1.9227385e-17)
(459.90138 -0.0052299097 2.2879205e-17)
(459.92726 0.0085734116 5.0037999e-16)
(459.92161 0.003846401 4.4737931e-16)
(459.96197 -0.0082696125 8.5159453e-18)
(460.03889 0.020092482 -5.1874328e-17)
(459.98746 -0.0027998057 -6.3621707e-16)
(459.98941 0.012284206 -4.3624162e-16)
(459.96787 -0.025647324 -6.3656939e-17)
(459.968 0.014057138 -5.5674109e-16)
(459.95489 -0.034333676 9.0293338e-17)
(459.96671 0.043152412 -6.273329e-17)
(459.93879 -0.041777002 1.5466017e-16)
(459.96976 0.054187608 -5.2673651e-16)
(459.94085 -0.052128713 -5.0330528e-16)
(459.96434 0.043623157 6.8931942e-16)
(459.96456 -0.03701455 3.4925134e-16)
(459.93896 0.024687095 5.0659981e-16)
(459.97793 -0.0093855185 4.6125395e-16)
(459.91907 -0.006432376 4.9095714e-17)
(459.96939 0.028166645 8.7640538e-18)
(459.92628 -0.052475019 5.9169091e-17)
(459.94099 0.078359101 -3.7712756e-16)
(459.94723 -0.10103903 9.7796795e-17)
(459.92308 0.11509384 2.237597e-17)
(459.95572 -0.12534535 4.7545977e-16)
(459.93455 0.1237024 -1.7701853e-16)
(459.95277 -0.12537064 7.6041869e-17)
(459.95467 0.11256072 3.6645847e-16)
(459.95451 -0.095158527 3.7853631e-17)
(459.96526 0.073681607 -2.9966923e-16)
(459.96753 -0.046098795 3.1359829e-17)
(459.95416 0.014754056 2.4360626e-16)
(459.99134 0.022116879 -3.2639476e-16)
(459.93585 -0.049068271 3.9882562e-16)
(459.98861 0.066492997 -5.0529357e-18)
(459.92311 -0.07867923 3.7533751e-17)
(459.9773 0.084625831 4.0641886e-16)
(459.93233 -0.080256266 4.8938098e-18)
(459.94906 0.065157609 3.8554772e-17)
(459.95417 -0.05418677 -8.2034314e-17)
(459.9401 0.031815331 -3.6441887e-16)
(459.96501 -0.014578783 2.8314503e-16)
(459.94378 -0.0036052729 1.7150733e-17)
(459.95767 0.021112675 -3.1490133e-17)
(459.96496 -0.027553849 6.3892592e-17)
(459.94463 0.027564031 -9.2487912e-17)
(459.97479 -0.02852475 6.4769683e-19)
(459.93891 0.02252445 -6.7374979e-17)
(459.9635 -0.012613504 -4.5278331e-17)
(459.94471 0.0080226202 -2.8793831e-17)
(459.94852 0.0075688987 -4.6354535e-17)
(459.9365 -0.018659573 3.1704009e-17)
(459.93228 0.030409124 3.1917097e-16)
(459.92894 -0.021484906 -4.1532541e-17)
(459.94129 0.012132015 3.7004467e-17)
(459.9377 -0.025174371 2.3578176e-16)
(459.967 0.022102298 3.4572352e-17)
(459.97467 -0.0048768391 1.994179e-17)
(459.96361 -0.0037503882 -3.531256e-17)
(459.9776 0.0069002559 -1.6478315e-16)
(459.93328 -0.04169571 8.3038916e-17)
(459.95548 0.03199948 2.5763238e-16)
(459.94389 0.026329515 -6.4424301e-18)
(459.94404 -0.022324808 -2.1086933e-17)
(459.92282 -0.0091972883 3.1082703e-17)
(459.91727 0.0065238063 -2.7231353e-16)
(459.91511 0.018261798 -2.7562926e-16)
(459.93365 0.0019496973 3.306329e-16)
(459.90518 -0.013201528 3.5890976e-17)
(459.91395 -0.0051341036 1.9517448e-16)
(459.88457 0.013916806 -2.5028701e-17)
(459.89994 0.01038507 -3.0429803e-16)
(459.86114 0.00031615758 -2.7929806e-16)
(459.87103 -0.011456062 2.8396442e-16)
(459.86323 -0.0076929941 2.7674933e-18)
(459.86477 -0.005780098 -2.3256039e-18)
(459.88468 0.0096448642 -1.2423671e-17)
(459.8806 0.0048690624 -2.4675196e-16)
(459.87408 -0.011455229 -1.8589328e-17)
(460.08996 0.03429224 4.8480628e-17)
(459.92642 -0.0092028945 2.1570033e-16)
(460.03107 0.017238902 -4.7902249e-17)
(459.91396 -0.028131205 -6.5526224e-17)
(460.01942 0.018375232 8.9673336e-17)
(459.89394 -0.036134106 -4.1352684e-17)
(460.01948 0.044152051 -5.5074361e-16)
(459.86938 -0.039559905 -1.2109821e-17)
(460.00634 0.050744392 5.3021095e-17)
(459.87304 -0.045822599 -4.5589376e-16)
(459.9824 0.039995265 -4.6536215e-17)
(459.9038 -0.036479587 2.5097009e-18)
(459.95018 0.02790547 -1.0762127e-17)
(459.91764 -0.012671315 -2.1664633e-18)
(459.93517 -0.0051953926 1.7300808e-17)
(459.9033 0.031098624 3.9752786e-16)
(459.94312 -0.054587651 -2.6229787e-18)
(459.87317 0.078744045 -1.7801754e-17)
(459.95181 -0.095063839 3.5623116e-16)
(459.86237 0.10650711 4.0577144e-16)
(459.94748 -0.11529861 -4.7456654e-17)
(459.88584 0.11531448 2.9675474e-17)
(459.9439 -0.1274984 -4.9935104e-17)
(459.92323 0.11887021 -4.0945549e-17)
(459.95166 -0.10865639 1.946913e-16)
(459.95026 0.088678495 5.0584619e-17)
(459.97106 -0.064397564 -5.1350842e-18)
(459.94794 0.034185013 -1.6153748e-17)
(459.99605 -0.00053161893 -2.6967036e-16)
(459.92692 -0.025970409 3.5506639e-16)
(459.98884 0.046249412 1.9325129e-16)
(459.90687 -0.055953399 2.9139444e-16)
(459.96634 0.070626736 -2.165903e-16)
(459.90557 -0.071203421 -2.5422707e-16)
(459.92905 0.061881212 -3.6378793e-16)
(459.91947 -0.059857871 -3.0479064e-16)
(459.91581 0.045040309 3.9303677e-17)
(459.9277 -0.029638341 1.3572905e-17)
(459.92145 0.012292742 -7.5712159e-17)
(459.92372 0.0033600346 -1.2442126e-18)
(459.94538 -0.011836779 3.824846e-16)
(459.91881 0.013746837 -8.0580807e-18)
(459.95786 -0.020564141 1.6957139e-16)
(459.92095 0.015826951 -1.5385396e-16)
(459.9449 -0.010490577 -1.2855127e-17)
(459.9292 0.010315711 2.3161779e-16)
(459.92572 0.0044618076 3.5278013e-16)
(459.91833 -0.0094732042 2.8920648e-16)
(459.91134 0.019174421 -3.4781072e-16)
(459.90291 -0.014506611 1.7566043e-16)
(459.92067 0.010471794 2.2142355e-16)
(459.91346 -0.026793741 6.3666312e-17)
(459.94885 0.034731708 3.0913546e-16)
(459.9452 -0.018371862 -3.2263358e-17)
(459.94344 0.0078395664 -2.8553713e-16)
(459.94583 -0.0078938865 -5.4049723e-17)
(459.91328 -0.037239712 3.1242137e-16)
(459.93693 0.038408077 -3.8581209e-17)
(459.91284 0.021201562 1.6830393e-16)
(459.91312 -0.019003407 -2.8124421e-17)
(459.89933 -0.0025905994 4.5517796e-17)
(459.89217 0.0081493344 1.8720625e-16)
(459.88347 0.011355802 -1.0766216e-18)
(459.90031 0.0079089758 2.569415e-16)
(459.86951 -0.0050710412 -2.0502036e-16)
(459.88731 -0.0054540403 -2.1120138e-17)
(459.85307 0.013007911 -4.1202108e-17)
(459.87173 0.0051873756 -1.4947906e-16)
(459.82905 -0.0010290583 2.7259387e-17)
(459.84793 -0.0082547943 -7.2536148e-18)
(459.83961 -0.0076652078 2.3324234e-16)
(459.85046 -0.0030300331 -1.5473371e-16)
(459.86774 0.0077200849 -1.3693992e-17)
(459.86966 0.0036440226 -1.2429286e-17)
(459.85473 -0.011896899 4.1814476e-18)
(460.06258 0.04970788 -2.573573e-16)
(459.92511 -0.018209262 8.4122964e-17)
(460.00557 0.021856328 -1.9815081e-17)
(459.8965 -0.032957917 -2.0342872e-16)
(460.03052 0.022859541 4.7680073e-16)
(459.83761 -0.035249575 -1.9074663e-16)
(460.06286 0.04259686 -2.939543e-16)
(459.77985 -0.03449894 3.2871347e-17)
(460.05118 0.04748667 4.4708786e-16)
(459.77267 -0.042035659 -4.1023326e-16)
(460.01614 0.03755411 3.3753179e-16)
(459.80019 -0.03150193 -2.2527037e-17)
(459.99029 0.017391971 -3.076499e-16)
(459.80325 0.00022877582 4.7591888e-17)
(460.00034 -0.016403373 4.0838602e-17)
(459.78342 0.033191646 -2.1337862e-17)
(460.02587 -0.043290861 5.2505768e-17)
(459.7676 0.056876231 1.7851915e-17)
(460.03034 -0.068849362 -2.0809087e-18)
(459.78124 0.082509239 3.4750688e-16)
(460.01116 -0.096258457 4.1389359e-17)
(459.82164 0.098601522 6.3090188e-18)
(459.9975 -0.11799188 1.3672952e-17)
(459.87125 0.10443064 3.6512313e-17)
(460.00032 -0.10000032 1.1332773e-17)
(459.90554 0.085729888 2.9420796e-16)
(460.01928 -0.072231914 5.6748646e-17)
(459.90792 0.051530111 -2.3700736e-16)
(460.03906 -0.027251345 5.365389e-17)
(459.89003 0.0044959461 -4.5862809e-18)
(460.022 0.018401066 -2.4674518e-16)
(459.8727 -0.02356737 -3.8766325e-18)
(459.98717 0.047801019 5.1921581e-17)
(459.87014 -0.04912085 3.1897308e-16)
(459.94488 0.045398203 7.1401683e-17)
(459.88172 -0.052385268 2.9025293e-17)
(459.93147 0.042498132 3.0327631e-17)
(459.88553 -0.030424828 2.8673163e-16)
(459.9356 0.021830816 -2.7096949e-16)
(459.88457 -0.012402192 -2.2473955e-16)
(459.95499 0.0039538852 1.1033902e-16)
(459.88889 -0.0044643661 1.1830647e-16)
(459.96369 -0.0042790453 2.5996231e-16)
(459.90514 0.00061358852 -5.6220606e-17)
(459.94824 -0.0037945344 2.1737684e-16)
(459.92292 0.010045131 6.1119727e-17)
(459.92712 -0.0026914142 5.9685979e-17)
(459.91305 0.0076016962 2.8127208e-17)
(459.91326 0.0016331712 2.488442e-17)
(459.8919 -0.0063507571 2.4607128e-16)
(459.91952 0.0047083969 2.9335502e-17)
(459.90128 -0.020868901 -1.89539e-16)
(459.94569 0.040222174 9.3322144e-17)
(459.9221 -0.024241629 2.7486738e-16)
(459.9361 0.02028536 -1.7309729e-16)
(459.9169 -0.028394377 3.5365853e-17)
(459.91006 -0.020271944 2.2481277e-16)
(459.91889 0.035979909 5.6329776e-17)
(459.89899 0.014026831 -1.4527567e-16)
(459.8932 -0.014836153 -1.8914318e-16)
(459.90026 0.0057983715 5.7987137e-17)
(459.88332 0.011557395 2.3013196e-16)
(459.88693 -5.3783597e-05 3.0458843e-17)
(459.89743 0.0089827112 -2.873805e-16)
(459.87631 0.0049879791 2.3596258e-16)
(459.89202 -0.00031622923 -1.6344669e-16)
(459.8681 0.016641768 1.7407824e-17)
(459.87835 -0.001743194 2.2896149e-16)
(459.84824 -0.01122346 7.6471143e-17)
(459.86297 -0.010160308 3.9953911e-17)
(459.86546 -0.01052168 4.1611387e-17)
(459.87627 0.0015694253 4.9870842e-17)
(459.89659 0.007333196 -1.3723591e-16)
(459.90014 0.0023585233 2.0896222e-17)
(460.03868 -0.006003885 1.3724964e-17)
(459.7899 0.054717738 -2.4027666e-16)
(460.14687 -0.021936724 -7.1259328e-18)
(459.70837 0.023226824 2.1813137e-16)
(460.11088 -0.039794204 -1.098288e-17)
(459.76908 0.029989316 -6.9332129e-18)
(460.00333 -0.038779879 3.5681167e-17)
(459.87005 0.04546038 3.3115405e-17)
(459.88355 -0.035553574 -1.3846393e-16)
(459.92363 0.046820518 1.5466552e-16)
(459.82545 -0.037284008 1.6054673e-17)
(459.9486 0.029750182 5.5802498e-17)
(459.8044 -0.019713941 3.4309004e-16)
(459.99465 0.0038722369 -2.9317574e-16)
(459.75472 0.007077739 3.3457279e-17)
(460.08354 -0.015686248 1.9144612e-17)
(459.69919 0.02154324 5.0038771e-17)
(460.16794 -0.026517624 3.8715134e-19)
(459.68066 0.036883656 -2.293652e-16)
(460.19083 -0.04918166 -4.2089022e-18)
(459.70904 0.061690249 5.7394673e-17)
(460.15913 -0.069969022 3.5603886e-17)
(459.74872 0.066538043 3.7001493e-17)
(460.13123 -0.087238396 7.836965e-17)
(459.77712 0.074338364 -1.5058369e-16)
(460.12702 -0.080346879 2.6852687e-16)
(459.7861 0.077861859 5.9862052e-17)
(460.14021 -0.071349042 -2.1163177e-16)
(459.78327 0.058352793 -2.3579697e-16)
(460.14842 -0.043046727 -1.0416716e-16)
(459.78252 0.024635077 3.343556e-16)
(460.12039 -0.0058357231 3.339523e-17)
(459.78966 0.013537697 3.3177086e-18)
(460.08049 0.0086561261 3.3597142e-17)
(459.8039 -0.0052842967 2.8758235e-17)
(460.04305 0.0038690713 -1.9076818e-16)
(459.82196 -0.018005932 2.5548636e-16)
(460.03242 0.017214308 2.7225267e-16)
(459.82379 -0.019420707 3.5864599e-17)
(460.02613 0.028148547 4.2818958e-17)
(459.82251 -0.02321939 7.7747035e-17)
(460.03075 0.016322981 -1.0021976e-16)
(459.83546 -0.019659553 2.3059834e-16)
(460.02594 0.010088797 2.58125e-16)
(459.86805 -0.013606986 8.3970493e-18)
(460.00389 0.0051669322 1.0935177e-16)
(459.90038 0.0036980194 1.2237939e-17)
(459.98036 -0.0028202035 2.116929e-16)
(459.89739 0.016764545 1.8623967e-16)
(459.96151 -0.0085880479 -1.5671482e-16)
(459.87637 -0.0037644052 1.8818125e-17)
(459.95847 -0.0073495204 3.3324719e-17)
(459.8872 -0.0047289142 9.1478541e-17)
(459.97135 0.029945495 1.997919e-16)
(459.89898 -0.018746488 -1.2793083e-16)
(459.95004 0.024398512 -1.4268643e-16)
(459.88368 -0.049005018 3.7701557e-17)
(459.92632 0.010517383 8.5607549e-19)
(459.88518 0.014797961 4.8167408e-17)
(459.89804 0.0075287956 -1.2876321e-16)
(459.85499 -0.0032540839 2.8683016e-17)
(459.90224 0.011618867 6.3024548e-17)
(459.8446 0.0095089599 -1.1848168e-16)
(459.87949 -0.0069512856 -2.5532008e-17)
(459.85788 0.0043937139 4.505188e-17)
(459.86238 0.0061930963 1.9893812e-16)
(459.8419 0.0089607873 -1.8016392e-16)
(459.84102 0.023724826 1.4304271e-16)
(459.80601 -0.0053229661 -1.0799181e-16)
(459.80011 -0.018470823 -1.1878513e-16)
(459.77538 -0.017388608 3.0120189e-17)
(459.79421 -0.013894572 5.0619362e-17)
(459.76902 0.0040659624 -7.9376845e-17)
(459.79265 0.0037655376 3.4415685e-17)
(459.76477 0.0017279076 1.563759e-16)
(460.14837 0.0095462863 2.9702626e-17)
(459.4947 0.045494219 -2.1944551e-16)
(460.42626 -0.013292845 1.7667501e-16)
(459.25357 0.011017846 1.1253947e-16)
(460.54906 -0.036016307 -1.0234478e-16)
(459.19973 0.027593438 9.0154303e-18)
(460.5535 -0.038993058 7.6497834e-17)
(459.26317 0.047175748 6.1848482e-17)
(460.46975 -0.036519394 2.5369322e-16)
(459.36737 0.041615787 4.4831876e-17)
(460.37427 -0.026631411 2.4515288e-16)
(459.50536 0.017866432 4.1097295e-17)
(460.26257 -0.011219804 5.5375152e-17)
(459.69023 0.0023233622 -1.1310196e-16)
(460.09567 -0.0031459503 9.8926061e-17)
(459.9115 -0.0034569277 4.5096738e-17)
(459.92932 0.0075728835 7.9566663e-17)
(460.09803 -0.017959629 4.3604664e-17)
(459.82545 0.029440853 -2.3890014e-16)
(460.18417 -0.039841948 4.0090063e-17)
(459.78831 0.047300381 7.9900397e-17)
(460.1914 -0.044155043 2.1386402e-16)
(459.75717 0.037677974 4.8641122e-17)
(460.20901 -0.058034443 -1.9319606e-16)
(459.70093 0.047335569 -1.6529599e-16)
(460.25626 -0.056297482 1.7815309e-17)
(459.63687 0.061983315 6.1020314e-17)
(460.30376 -0.055913793 3.3488976e-16)
(459.60516 0.051601236 2.3408133e-16)
(460.32226 -0.053791679 -2.0440303e-16)
(459.61834 0.043814157 5.284195e-17)
(460.29339 -0.035740219 5.2939038e-17)
(459.64825 0.05714588 2.6992452e-18)
(460.257 -0.036816123 -2.1138648e-16)
(459.67146 0.037672616 -8.2183278e-18)
(460.23469 -0.034342486 -1.7151271e-16)
(459.68372 0.0093144945 6.9130112e-17)
(460.23309 0.00033166585 -1.6983783e-16)
(459.67445 -0.010892392 4.4551385e-17)
(460.21675 0.028002825 3.658328e-16)
(459.66661 -0.023881227 4.6136032e-17)
(460.19503 0.021191899 1.7364376e-17)
(459.68705 -0.023896957 -1.6910127e-17)
(460.15692 0.016326035 1.9367086e-16)
(459.72985 -0.025905723 -1.8294691e-16)
(460.10566 0.020451066 2.0794832e-17)
(459.76208 -0.017053387 -1.4563421e-16)
(460.06031 0.014922892 3.3039313e-17)
(459.74795 0.0069334971 6.060747e-17)
(460.01126 -0.0052739195 6.1414351e-17)
(459.71037 -0.0067005884 2.076487e-17)
(459.9687 -0.022054241 -1.2561444e-16)
(459.70765 0.018385633 1.258685e-17)
(459.92656 0.006781948 5.8619774e-17)
(459.69323 0.0013470981 1.3570181e-17)
(459.85114 0.010988661 1.3316429e-17)
(459.6393 -0.063685953 -1.8536501e-16)
(459.78807 0.047944856 -9.8653593e-17)
(459.58982 -0.020217514 2.2516774e-16)
(459.6967 -0.0019024531 2.3163519e-17)
(459.51282 0.017801321 1.1421713e-16)
(459.63147 0.021565525 -7.2867957e-17)
(459.44252 -0.0029556359 1.8862937e-17)
(459.53093 -0.0052951888 -1.2312059e-17)
(459.39088 0.0066432924 -1.3424076e-16)
(459.43759 0.0063800358 -1.1861152e-16)
(459.30021 0.016076815 -9.1165124e-18)
(459.32765 0.036453359 -1.2687897e-16)
(459.16997 -0.012848722 -1.1126369e-16)
(459.19028 -0.011792667 -1.3145219e-16)
(459.04972 -0.019934364 -1.9133957e-17)
(459.08642 -0.012936477 1.2345859e-16)
(458.94772 0.0094912897 4.2113157e-17)
(458.97419 0.0019045958 2.009564e-17)
(458.84288 0.00093821818 1.266741e-16)
(459.54894 0.028111865 8.561484e-18)
(459.98193 0.028010477 1.4000267e-16)
(460.04434 0.0034049406 -4.8129638e-17)
(459.5074 -0.013055033 1.207343e-16)
(460.49979 -0.017724868 1.1997393e-16)
(459.12382 0.010631647 -1.2357202e-16)
(460.88643 -0.023213585 1.5431508e-16)
(458.84978 0.033379701 5.9305892e-17)
(461.13105 -0.022962453 1.0621341e-16)
(458.7186 0.02453807 2.2118725e-16)
(461.22686 -0.014719883 -7.8644519e-17)
(458.75359 0.01322861 4.0313047e-18)
(461.1696 -0.01603083 1.8770985e-16)
(458.92388 0.012116508 1.7830452e-16)
(460.97135 -0.014872563 5.9907102e-17)
(459.16731 0.0026424012 1.7191371e-17)
(460.73296 0.0033704928 1.0535755e-17)
(459.40031 -0.013225182 -1.0783382e-16)
(460.5221 0.022642829 2.648176e-16)
(459.58172 -0.027291182 -2.7239181e-17)
(460.34249 0.033164221 3.2457177e-17)
(459.72686 -0.023728857 -3.7105387e-17)
(460.15537 0.019489474 4.1076478e-17)
(459.9003 -0.035545064 3.2601701e-17)
(459.9455 0.017922446 1.9920884e-16)
(460.10101 -0.024640759 -5.9855071e-18)
(459.74126 0.036662374 -1.5781548e-16)
(460.26654 -0.030867196 1.5820189e-16)
(459.61457 0.038767747 2.3528542e-17)
(460.35208 -0.061789758 -1.3914062e-16)
(459.57996 0.052785335 1.2914518e-17)
(460.35455 -0.047522669 -2.0860728e-17)
(459.56238 0.071753692 2.3444942e-16)
(460.34909 -0.04624949 -4.4357031e-17)
(459.50956 0.045811139 -1.7222054e-16)
(460.37692 -0.042093345 -1.9293986e-16)
(459.43313 0.016020833 3.4299295e-17)
(460.41068 -0.0079674691 1.9415803e-16)
(459.3486 -0.0011594039 7.1186062e-18)
(460.38713 0.021136328 2.2900277e-17)
(459.292 -0.022233723 4.4003918e-17)
(460.31056 0.022832314 -1.2070874e-17)
(459.28038 -0.016655784 3.5119946e-17)
(460.19293 0.013461599 -7.6656395e-18)
(459.27624 -0.021417347 2.6379799e-17)
(460.06153 0.022492229 1.5243709e-17)
(459.23082 -0.028402688 2.7842305e-17)
(459.93562 0.028489625 -1.2576429e-17)
(459.12334 -0.0011566688 -1.3382515e-16)
(459.77443 0.0036488252 -2.1950728e-19)
(458.98712 -0.0038458758 4.6146946e-17)
(459.59244 -0.029717736 1.036239e-16)
(458.88348 0.045669943 -1.380939e-16)
(459.38479 -0.020361036 -4.7864689e-18)
(458.74917 0.034029174 2.7336466e-17)
(459.13902 -0.012734951 -1.6950298e-17)
(458.54957 -0.057875352 -1.3933407e-16)
(458.91933 0.075891869 -1.31431e-16)
(458.31765 -0.059193918 -1.486288e-16)
(458.63974 -0.0067564454 2.5446954e-17)
(458.08101 0.037893501 2.2877133e-18)
(458.34577 0.039088786 -1.9324309e-17)
(457.8165 -0.014803675 -1.7429885e-16)
(458.02064 0.0027989308 -1.1485492e-16)
(457.56542 0.014116185 1.9790022e-17)
(457.70108 0.020269262 2.5382978e-19)
(457.27017 0.024460507 -8.8341458e-18)
(457.36004 0.063852356 -1.2311173e-16)
(456.91068 -0.015636666 -1.2101046e-16)
(456.98335 0.010471551 -2.2068988e-17)
(456.56549 -0.010796503 -4.3038946e-17)
(456.63948 0.0012540262 -1.2887615e-16)
(456.24026 0.019699429 -1.3812333e-17)
(456.27737 0.01661735 -3.6027933e-17)
(455.90761 0.011429658 -1.5211264e-17)
(458.60147 0.030636671 -5.7027619e-17)
(461.22802 0.020482653 -1.6258402e-16)
(458.90252 0.012369572 -1.5988097e-16)
(460.8565 -0.031125598 -2.5789889e-16)
(459.3696 0.0023086949 8.7260418e-17)
(460.34448 -0.0095236384 -5.8978116e-17)
(459.97676 0.0035486184 -8.1005078e-17)
(459.73583 0.0063145148 1.4188861e-16)
(460.59885 0.0029534861 9.746119e-17)
(459.15891 0.0014268836 -1.676957e-16)
(461.11585 -0.0030542444 -2.2811055e-17)
(458.74571 0.011889342 8.8327049e-19)
(461.43929 -0.018449384 1.7540561e-16)
(458.52134 0.014945017 9.6309534e-17)
(461.5601 -0.013122244 2.5011244e-17)
(458.4401 -3.9695465e-05 -3.1962436e-17)
(461.5715 0.0024493965 3.0267003e-17)
(458.44629 -0.0059022973 -2.1641124e-17)
(461.50641 0.011945016 5.8688192e-17)
(458.54624 -0.011681309 1.1532503e-18)
(461.3399 0.017517006 2.7515244e-17)
(458.7378 -0.0046490567 5.2117661e-19)
(461.07371 0.00045832268 5.8268389e-17)
(459.01081 -0.011428299 1.8152982e-17)
(460.74941 -0.013189231 -1.5615848e-16)
(459.32574 0.0027005457 3.4917796e-17)
(460.40466 0.013253393 7.5675392e-17)
(459.59758 -0.0022698543 2.148928e-16)
(460.12956 0.018023287 2.208711e-17)
(459.77177 -0.051925525 2.861793e-17)
(459.95074 0.038583005 5.3388055e-17)
(459.84467 -0.033854123 -7.1131735e-18)
(459.76205 0.062444124 -1.7252571e-16)
(459.90369 -0.03567955 1.8076347e-16)
(459.493 0.04220985 8.2102692e-17)
(460.00431 -0.035996329 2.8368592e-17)
(459.17324 0.018864899 1.4870714e-17)
(460.07522 -0.01041001 3.7450157e-17)
(458.85005 0.0070559054 1.6962759e-16)
(460.0201 0.017644033 -5.7427688e-18)
(458.56974 -0.013303 2.5493332e-17)
(459.83142 0.0096942799 1.5364367e-16)
(458.34906 0.021671397 1.3264362e-17)
(459.54364 -0.019743474 -3.6896821e-17)
(458.09749 0.033504256 3.3501009e-17)
(459.23115 -0.011131457 2.2244189e-19)
(457.75645 0.0024972429 1.5602428e-16)
(458.89337 0.016686261 1.3650158e-16)
(457.33887 0.0094965113 8.54847e-18)
(458.44267 0.012581461 -2.7781647e-16)
(456.89456 0.010977074 -1.3851537e-16)
(457.91638 -0.018159524 -4.7850719e-17)
(456.46951 0.060970132 1.4581572e-16)
(457.34007 -0.020899583 -5.5255143e-17)
(455.99347 0.061010337 1.0406437e-17)
(456.71094 -0.021461362 1.0938118e-16)
(455.42759 -0.018512397 -1.8896542e-16)
(456.10852 0.088187241 -1.767251e-16)
(454.77087 -0.090259004 1.3174824e-16)
(455.40461 0.0069383498 8.0184213e-17)
(454.13609 0.039217668 -1.4146239e-16)
(454.65887 0.047615956 -1.6162707e-16)
(453.46926 -0.01148361 -1.6308925e-16)
(453.93251 0.011589696 3.9904689e-17)
(452.84525 0.010954138 -5.133075e-17)
(453.23529 0.029073639 -8.0081639e-17)
(452.1791 0.024303608 -4.9045936e-17)
(452.50351 0.083760452 -3.884752e-17)
(451.41819 -0.017612747 -3.8874086e-17)
(451.67703 0.042125829 8.8017966e-17)
(450.68883 -0.0071976566 -1.5145669e-16)
(450.88902 0.022469162 1.0270912e-16)
(449.9803 0.0138032 -6.9450148e-17)
(450.07163 0.022522979 -7.5871039e-17)
(449.22048 0.014960775 -6.1847801e-17)