/*--------------------------------*- C++ -*----------------------------------*\
| =========                 |                                                 |
| \\      /  F ield         | OpenFOAM: The Open Source CFD Toolbox           |
|  \\    /   O peration     | Version:  2.3.0                                 |
|   \\  /    A nd           | Web:      www.OpenFOAM.org                      |
|    \\/     M anipulation  |                                                 |
\*---------------------------------------------------------------------------*/
FoamFile
{
    version     2.0;
    format      ascii;
    class       volScalarField;
    location    "3.6e-05";
    object      p;
}
// * * * * * * * * * * * * * * * * * * * * * * * * * * * * * * * * * * * * * //

dimensions      [1 -1 -2 0 0 0 0];

internalField   nonuniform List<scalar> 
7500
(
-8837.1578
-13438.038
-9614.5266
-3145.5265
1055.0273
4840.5338
3085.0645
3280.4636
-1090.7068
2271.9742
132.19926
3816.1945
1140.7675
2623.8679
101.436
535.95109
506.69387
1485.309
2112.6084
833.36288
2956.1257
-1146.6682
3358.5002
-1051.9698
3187.658
-854.36009
2374.928
-568.90461
1151.5921
1494.3624
1662.8988
2296.1281
-245.17546
2870.8364
388.03462
5063.39
1377.2644
3111.0511
571.95901
888.82059
2005.5937
1737.2723
3209.0594
2550.4148
3368.8037
1531.5892
2299.9792
-709.63662
1979.1729
1344.6594
102.27642
1056.8567
-240.12254
161.77652
276.5433
-501.79366
-4387.7855
-5205.9085
-4813.1512
-4077.7772
-726.47627
3990.4227
5174.601
4291.8673
5380.5811
5913.3276
5494.4904
6840.6876
7245.7395
5093.6399
2711.0038
2915.2222
3583.1897
3529.9897
2043.4528
-9057.8836
-13542.367
-9369.7572
-2955.6198
1247.7622
4561.3272
2953.2896
3247.9316
-1009.998
2432.1136
32.985925
3852.5845
1052.8732
2615.5113
156.97761
499.56483
580.16815
1399.5379
2196.926
784.68157
2953.8181
-1090.6558
3208.7223
-884.55133
3013.3222
-591.35648
2071.6857
-334.88047
1005.3102
1569.897
1663.8679
2188.0836
-27.295644
2619.5594
706.22931
4719.7785
1718.8073
2670.4582
780.47182
950.76944
1930.2127
1982.8159
2991.4114
2706.4496
3063.7403
1662.7763
2160.6228
-442.96177
2018.3947
1226.3512
192.46623
955.49119
-115.92205
46.805385
58.216566
-500.06421
-4175.8737
-5382.1322
-4926.7531
-3689.3121
-437.39634
3658.8325
4765.6971
4531.5282
5634.8176
5890.3274
5357.7113
6609.0899
7367.7431
5317.1521
2574.5273
2763.7748
3875.7951
3693.8956
1891.2046
-9302.552
-13604.667
-9071.1097
-2696.7036
1321.1499
4358.207
2715.7715
3177.2394
-844.93746
2505.1351
105.67083
3735.7824
1090.2805
2502.1707
184.38246
561.50604
610.89215
1359.3056
2199.2989
817.88845
2788.0697
-757.25892
2793.2935
-501.67935
2690.3854
-319.23309
1810.247
-209.44467
1051.1177
1423.4244
1882.5114
1821.3627
416.20079
2273.2657
1137.8595
4263.8071
2037.3782
2369.3588
796.33321
1105.6186
1753.3298
2354.3596
2744.6964
2880.3965
2825.9765
1774.3007
1845.7692
-58.713866
2105.48
984.86816
324.26295
863.22168
239.90196
-62.559141
-298.41082
-671.19142
-3981.9652
-5521.326
-5052.5289
-3291.9693
-198.95918
3478.5279
4488.9002
4521.3001
5743.2902
6157.0701
5458.4911
6241.0955
7286.0244
5416.7779
2452.1791
2772.0585
4227.7823
3902.3753
1731.554
-9675.2304
-13448.304
-8823.4317
-2361.1758
1331.1151
4106.7763
2525.9064
3021.6579
-582.32237
2467.6656
354.64788
3472.4162
1237.2073
2263.2895
324.63984
475.73339
785.71589
1321.7781
2048.319
1083.3146
2349.0753
-180.92183
2239.7272
-19.079467
2252.4394
83.076342
1433.9556
-69.167006
1151.2196
1232.368
2162.3383
1302.107
1021.6013
1815.0748
1753.0187
3732.0741
2294.0565
2076.5734
782.53808
1289.1692
1581.8636
2699.3951
2574.3683
3058.2453
2591.4034
1897.4648
1401.8746
334.73823
2124.3562
912.43541
523.60312
686.07315
674.9257
-119.09846
-670.79789
-922.43137
-3770.1951
-5757.1435
-5223.3249
-2898.1406
-17.667519
3320.3143
4362.9578
4522.7878
5743.8799
6478.0294
5613.0558
5886.6192
7249.6098
5404.5145
2302.3371
2865.9816
4494.6159
4126.0224
1634.0834
-10267.223
-13104.195
-8508.8864
-2025.8917
1342.1046
3776.6292
2408.8879
2782.7328
-223.39895
2362.3219
699.62439
3106.1253
1482.2324
1930.6157
513.09083
396.29277
909.04476
1360.2062
1858.4167
1366.5783
1882.3589
449.96333
1595.4569
576.07211
1732.609
577.8352
948.93575
145.62525
1193.4155
1090.1235
2399.1776
751.32729
1637.7961
1443.1446
2404.6512
3224.4339
2476.4505
1615.8945
942.5001
1381.602
1532.3939
2948.1032
2520.3871
3200.9877
2374.7864
1965.2027
952.10472
713.24487
1890.2206
1081.8397
777.93148
556.36802
1091.8519
-185.39065
-973.22236
-1261.8472
-3570.7661
-6007.8833
-5350.7569
-2542.6352
90.007016
3045.9741
4255.8595
4594.2636
5834.3587
6870.8517
5624.8582
5587.8029
7306.0996
5274.5826
2220.482
3094.9828
4653.2809
4265.9442
1569.6929
-11148.429
-12628.379
-8013.0079
-1727.6558
1342.1483
3401.0809
2337.2869
2481.3072
239.3681
2194.2119
1093.4179
2718.4747
1685.8622
1674.4808
594.87022
440.67937
961.84708
1392.0218
1708.3791
1599.705
1469.1439
1025.5437
987.77539
1111.4013
1347.5408
920.61219
552.40317
349.65017
1225.8466
1029.0446
2394.8099
407.12665
2068.9167
1333.1898
2935.4594
2824.6916
2555.6848
1048.6606
1197.7443
1351.9038
1719.9567
3048.2988
2609.5128
3269.9316
2247.6458
1937.4992
565.17981
1019.9365
1457.7271
1348.8734
953.04361
681.62987
1507.5727
-303.74432
-1199.189
-1671.6721
-3540.1488
-6190.102
-5277.9687
-2238.9089
165.08044
2660.469
4048.2891
4582.3496
6121.1188
7429.4927
5468.9964
5435.3364
7290.4479
4903.2577
2418.1514
3578.7201
4771.6157
4212.7544
1416.5749
-12315.487
-12026.516
-7379.4085
-1437.0032
1301.8393
2978.065
2319.1624
2142.5392
787.83497
1972.8453
1497.5002
2372.534
1777.7639
1481.7259
677.6012
468.96373
1029.9482
1461.7528
1463.0017
1873.369
1120.2923
1422.8472
643.7214
1357.4362
1232.035
987.98383
358.22089
542.20219
1191.7732
1136.1515
2064.2552
291.74702
2295.6923
1504.7716
3267.5876
2693.8758
2327.0097
609.03037
1390.7076
1230.4864
2139.3218
2972.1492
2850.0605
3273.9155
2239.899
1759.4836
371.79079
1109.0747
1042.2134
1545.1081
963.54592
1156.2116
1804.1653
-435.50838
-1286.2938
-2021.9088
-3819.1884
-6309.4745
-5020.901
-2084.5705
286.43199
2334.9268
3722.5547
4440.549
6586.6579
7861.2087
5312.4283
5673.4382
6961.3416
4296.6668
3024.9272
4266.1665
4943.0751
3978.5898
999.24451
-13598.92
-11346.357
-6668.525
-1140.2401
1198.4694
2536.2892
2314.2883
1833.3185
1338.4622
1757.8806
1870.2159
2054.2568
1855.0077
1233.6139
834.12104
492.47664
1032.1011
1638.1136
1169.7044
2082.318
942.50647
1568.6582
571.50043
1429.4739
1208.2473
894.09444
288.1531
801.03148
1139.4843
1233.6684
1590.5301
282.32463
2359.1535
1945.6909
3418.0036
2883.8582
1684.0489
381.14846
1495.3298
1130.5434
2586.2603
2786.9351
3184.5409
3261.1212
2379.7666
1425.9595
441.48244
887.62008
799.48173
1544.3149
949.41516
1917.9229
1675.445
-493.66552
-1077.7463
-2259.3249
-4436.6778
-6244.9309
-4668.5132
-2235.1815
406.3343
2118.3717
3171.106
4429.0126
7409.2518
7578.5462
5434.2884
6536.3488
6026.3069
3725.9637
4142.9766
4902.9907
5322.5663
3736.9364
317.90694
-14824.36
-10640.971
-5888.1005
-873.53089
1021.7495
2140.1166
2250.9635
1648.6612
1802.962
1604.2492
2199.2447
1749.3956
1934.972
1008.3168
939.84546
582.31416
1006.1761
1731.907
1061.1282
2139.5877
882.81659
1590.5089
578.20966
1558.305
1109.1978
696.47451
317.60202
1050.7083
1310.67
1126.1959
1021.7011
355.19535
2341.7365
2471.9967
3663.3688
3120.6352
826.98555
301.30867
1453.5051
1267.3862
2812.0756
2637.6294
3468.1356
3292.8405
2627.0278
1232.7008
558.73727
414.04602
819.29621
1173.6619
1205.1379
2733.5371
966.81021
-414.02927
-498.41542
-2475.5049
-5235.261
-5801.0844
-4330.3946
-2590.7438
579.78961
1847.6083
1901.6395
4855.764
8693.065
6376.1675
6153.6109
7739.97
4201.423
3390.7972
5671.8838
5225.5662
5974.0295
3689.0904
-201.72341
-15960.067
-9945.3328
-5052.4785
-678.82619
794.20588
1817.2685
2121.6531
1617.3902
2163.5558
1515.6152
2447.4919
1531.972
1901.8389
919.70254
976.52
661.77989
1054.2798
1619.0433
1161.3412
2157.6192
786.74916
1579.5482
649.18211
1737.6002
950.42238
384.3436
411.5498
1328.981
1659.0213
888.82497
404.24435
380.15288
2383.7389
2802.2448
4285.0207
3158.8741
37.947232
252.44364
1342.6451
1685.6304
2595.6024
2708.735
3505.0341
3443.9068
2838.7673
1678.6385
291.43597
84.637849
1032.5501
207.34926
2027.1677
3186.0035
-162.11253
-162.39787
312.11921
-2849.8293
-5917.3067
-4756.2702
-4263.7781
-3065.0301
1134.1368
1594.4361
-473.44227
5689.4362
9514.6468
4454.4906
7960.5134
8436.9755
1796.1597
3521.3856
6864.1503
5073.0941
6661.7031
3614.4141
-274.53973
-17044.129
-9295.6003
-4197.5262
-571.6874
550.71216
1541.9104
1963.9498
1691.9444
2435.1271
1498.3729
2563.2055
1445.1902
1757.0427
909.27405
1012.5131
752.53495
1091.467
1365.7392
1369.5347
2257.5563
622.86898
1438.6361
912.74682
1938.4351
670.27898
103.2091
347.76888
1776.0604
2146.9408
475.07062
-93.770885
343.76714
2360.5516
2903.9636
5248.792
2917.5214
-415.82387
28.145985
1369.6082
2131.4496
2049.5395
2924.6069
3156.7083
3664.8912
2832.5198
3205.3669
-866.80597
272.03412
1212.5965
-1267.887
3477.4009
2729.894
-1429.2371
33.028485
930.41263
-3598.93
-6202.5054
-3244.0703
-4211.4594
-3614.3739
1738.12
1482.9392
-3448.9125
6486.1578
8460.1824
2825.3157
9763.3481
7382.7537
197.32457
3819.1235
6423.6527
4718.1599
6657.5295
3079.5872
502.09637
-18109.343
-8703.6964
-3357.9698
-554.12237
330.48761
1270.3115
1818.5803
1834.6112
2609.2905
1562.288
2591.7505
1370.3816
1652.5905
896.17752
998.71974
1002.9945
1034.6094
967.45116
1693.7964
2438.0048
443.8272
1113.7724
1314.5862
2284.1489
210.91343
-66.433587
52.673465
2220.4441
2879.8786
-65.872509
-546.98153
476.80879
2009.7143
2817.9436
6247.456
2260.3021
-205.71388
-656.11226
1749.2112
2044.3098
1561.4816
2883.8347
2410.5871
3404.9497
2394.6191
5790.8102
-2868.4819
726.63998
859.28894
-2574.4652
4496.7213
816.59116
-2471.17
-297.37392
343.7811
-4758.8842
-6233.7988
-2262.3254
-2533.2541
-2793.3909
1692.2193
1014.6448
-3745.4377
5895.9466
6721.8667
3233.141
10129.845
5962.5456
189.65492
4012.6033
5502.7736
4612.4629
6566.9446
2186.705
499.69623
-19168.124
-8138.7602
-2568.3907
-616.43089
164.46494
987.96334
1694.9119
2066.9286
2666.1863
1670.6438
2630.7095
1194.4758
1643.2245
901.5101
886.93113
1426.7983
963.39803
349.04366
2147.674
2709.3828
200.06289
714.79565
1679.5858
2734.4404
-198.23893
-231.03258
-445.51215
2551.535
3474.8628
-407.6115
-1027.3532
801.98222
1285.6593
2516.7324
6656.4197
1053.4026
765.56899
-1673.2674
2214.9537
1028.6676
1256.5152
2194.0792
1601.7729
1981.5527
1541.3817
8126.2884
-2294.2616
1162.1874
261.1098
-2357.0434
4853.5746
-313.27124
-2825.78
-621.73644
-516.58457
-5682.9148
-6987.8888
-3538.2729
-1812.8652
-753.90651
2166.9564
1742.3218
-1989.9198
6530.3256
6132.0607
3872.6726
10827.054
6033.7977
653.42694
4760.3631
5224.7145
4774.0573
7057.8592
1688.4521
617.9859
-20188.771
-7560.0822
-1862.1967
-732.70663
58.415109
703.6809
1568.3031
2416.822
2617.985
1787.3169
2683.5124
953.80341
1669.8152
937.82652
713.21652
1952.7086
935.49597
-444.47613
2591.2644
3153.0617
-182.66233
289.19818
1923.8608
2920.0983
-290.72086
-318.32408
-1373.0871
2814.8011
3217.735
-421.57386
-1313.9402
1052.917
214.03371
2139.3645
5639.1807
-506.34806
2219.1677
-917.92199
2314.5532
913.88191
1396.6037
1936.786
1286.3878
656.40307
-21.142135
8806.8403
-1189.6323
1843.5343
689.02976
-1710.3694
5734.0311
1104.8741
-2108.4402
-172.74268
-421.87144
-5866.4356
-7145.6104
-3876.6873
-2363.3979
-318.55632
2046.0034
-1512.2613
-2272.7365
8425.689
4449.9606
4048.373
10806.537
4476.0415
717.43275
4670.4014
4786.7122
4696.1471
7038.4711
1840.3704
795.42124
-21135.583
-6946.1549
-1263.287
-866.10249
7.2221976
414.13194
1438.7027
2849.8087
2510.8123
1926.7524
2709.1383
675.11546
1733.4959
965.78277
482.92873
2557.7591
885.43223
-1254.9082
2718.2145
3714.4149
-604.37388
-256.70272
1873.422
2389.0787
2.0083263
-220.24001
-2645.613
2630.6509
1905.8237
24.540162
-458.0482
1427.9831
190.55532
2316.5041
4844.2701
-2132.5678
2710.6253
398.03984
2668.5401
1439.6804
2176.6459
2291.3136
2139.0642
470.86777
156.49692
8939.0783
-1207.6925
1826.8307
-1403.5514
-1624.7143
4624.009
-1378.671
-1715.3488
-158.29034
-527.62483
-5995.8261
-6944.2926
-3511.6295
-2191.3711
-643.8684
1754.5933
169.0917
-1136.1887
7188.6444
4861.6732
3548.7906
10716.093
4723.0314
538.29709
4830.7373
5105.5708
4590.7427
6609.8617
1667.4039
779.3277
-21984.068
-6293.1172
-791.3054
-973.92949
1.0161067
113.95583
1319.1837
3333.9384
2350.4666
2098.351
2756.0513
283.50669
1845.1205
952.2586
187.50823
3048.2367
775.38909
-1960.6823
2203.3194
4000.6993
-863.95719
-796.20176
1146.2534
1071.8199
1061.8262
370.58345
-2632.7691
2649.0208
819.49897
-135.88215
417.91139
2156.3057
704.36649
3085.8805
5139.0428
-2306.2587
2796.7541
384.8992
2401.1608
134.01793
1609.1345
1713.1835
1303.4245
207.58335
39.071579
9108.2709
-1536.9571
1909.8881
-153.11351
-1998.3675
4710.6158
-921.22142
-2265.8401
-603.36358
-1036.7148
-6128.1777
-7136.7294
-3648.783
-2477.4415
-656.58839
1460.5225
-692.4385
1849.8788
7293.9636
4908.9089
3596.1142
9980.8364
3612.9591
604.46768
4674.9812
4869.5072
4522.0882
6235.0327
1564.8257
818.74864
-22688.439
-5637.9756
-438.13028
-1063.2936
62.465355
-221.64135
1204.8241
3887.39
2129.5684
2250.2992
2847.7183
-178.98142
1764.5011
872.10818
-101.59376
2830.5858
734.54095
-2514.1382
1044.5544
3506.0326
24.534728
-347.71505
1077.0091
-140.04403
1676.7294
1461.7346
-2029.3718
3216.0134
858.9518
-261.10369
553.26757
1558.9781
-261.84871
2342.4296
4742.5985
-2421.8515
2848.1987
556.06854
2645.8824
736.54994
1858.9692
1858.2098
1376.2824
178.16148
403.81232
9524.9306
-991.78936
1527.7111
-1733.8127
-2388.0301
3667.7325
-950.45541
-1872.4964
-1259.9577
-1476.8897
-6465.9902
-7366.6692
-3619.1316
-2451.9898
-719.19775
1953.2942
646.53723
1680.1227
6407.5964
4503.5601
3437.7443
9245.2822
3481.4066
998.07067
5152.5601
4676.3397
4368.4592
5771.5529
1467.4447
858.30754
-23281.196
-5024.8967
-181.17126
-1195.2754
261.88774
-667.38394
1135.5792
4392.9377
2030.0733
2224.7942
2818.3308
-456.64479
919.40112
775.8315
-347.45971
1691.9418
983.14769
-1835.9162
1118.9064
2904.6005
728.37775
526.27806
1552.4313
-128.66751
1457.1353
971.39585
-2640.3758
2787.914
496.48114
-286.21051
616.68537
2065.2237
666.12366
2307.4859
4068.9309
-2121.2589
2662.612
500.3255
2491.9942
325.31858
1803.2109
1565.2094
1147.3484
166.53058
426.17883
7521.2307
-2142.2588
1077.0357
-2328.5239
-2240.6808
3178.3155
-606.42454
-1988.3141
-1848.5017
-2024.4221
-7082.6545
-7601.6938
-3302.731
-2602.3377
-753.43361
1807.4703
435.89368
1563.8655
5923.752
4179.7663
3932.2203
8762.9463
3892.2516
1413.372
5168.4502
4697.2239
4238.9876
5260.3486
1332.8944
873.21385
-23845.781
-4443.8011
-40.068003
-1376.1506
579.78438
-1215.9205
1160.2942
4498.1872
2373.8425
1739.4977
2503.8686
-475.78067
-654.98842
707.8167
502.16437
1472.388
1025.899
-1081.5945
1887.64
2829.1975
541.88601
116.9224
792.63373
-513.0582
1328.3698
1470.0466
-2215.6039
2849.9811
580.3328
-316.79438
506.20967
1621.5616
99.726371
2144.9964
3104.796
-2615.6848
2560.0214
645.85271
2496.0513
611.28617
1801.9229
1504.4483
998.04213
-392.33585
-35.062652
5585.8623
-2417.5628
197.4355
-3094.376
-1763.5682
2273.1475
-725.61484
-2269.6554
-2422.989
-2556.1856
-6677.5204
-7892.7846
-3880.9634
-2786.0777
-593.99367
1987.6812
1049.7319
1764.8831
5673.703
3896.3137
3787.1493
8118.9187
4583.3169
2054.2935
5120.3904
4632.1414
4366.7601
4870.8568
1168.5408
858.00721
-24396.226
-3842.6359
-58.274991
-1515.9746
809.54233
-1626.2884
1150.3602
3979.2663
3008.482
931.22692
1781.9328
293.95943
-649.8175
552.46762
1507.9069
1867.6446
861.80516
-1583.1754
1279.6184
2649.789
595.02503
396.22914
990.39195
-470.08535
1134.4152
1275.2801
-2327.5323
2278.1558
415.91697
-351.4847
197.05809
1728.815
719.66201
1396.054
1662.2561
-1828.1669
2276.2901
688.63451
2409.4641
309.10793
1780.7774
1432.8879
740.99404
-10.818402
-80.409733
4604.3001
-2161.5058
684.09984
-2084.1659
-2076.098
828.70356
-1039.6001
-2162.9251
-2318.4481
-3048.8181
-5615.8914
-6865.7932
-4241.7864
-2713.6968
-690.77393
1702.386
380.94789
1733.6128
5546.0856
3539.7754
3568.005
7340.5496
4190.7925
2162.8591
4881.7917
4485.0443
4257.3623
4387.838
1026.1354
830.16346
-24877.978
-3167.714
-236.31643
-1512.7108
694.06112
-1581.7035
809.82186
3068.0531
3073.6994
1755.8759
1363.4419
1204.1947
-4.6260282
385.2679
891.44322
1441.4195
767.43403
-1318.2823
1551.2816
2577.4488
511.49731
305.61252
853.86096
-524.57847
1059.1139
1516.5577
-2123.2482
2072.8333
328.45364
-390.62183
-90.063624
1502.6616
429.13515
240.48767
59.499028
-1375.5642
1871.5841
552.65646
2259.3091
400.31482
1716.5608
1387.2026
636.81504
551.67845
380.15767
4215.039
-2118.7559
618.44451
-1109.7762
-1990.798
-1002.0247
-1809.1306
-2381.1068
-2357.5643
-3430.7619
-5339.9175
-7327.1936
-4995.3767
-2755.8955
-377.26814
2234.738
684.65226
1588.8907
5481.5482
3528.7588
3660.7817
6742.5545
4290.6193
2379.7348
4721.0182
4280.4216
4020.465
3912.1717
916.45642
841.81473
-25227.038
-2405.7061
-458.55361
-1352.6796
188.6834
-1126.4642
186.32132
2649.2093
3059.4405
2975.931
1427.2527
812.67898
-402.41951
273.4601
1124.2706
1584.8157
786.34453
-1649.7391
1382.1139
2411.6423
430.81255
368.80511
900.70088
-518.30257
991.83905
1595.6327
-1997.2979
1977.5108
258.18854
-415.67782
-301.868
1441.6836
808.92027
-139.79651
-969.38109
-1222.0317
1553.1426
468.21364
2164.2841
355.22419
1562.7368
940.67381
343.62113
746.22776
539.19526
4003.1837
-1960.1553
76.029065
-1103.6279
-1862.4518
-1496.6401
-1950.4219
-1808.0222
-2122.5713
-3622.6261
-5297.7594
-7166.0927
-5044.467
-2615.3475
-162.45438
2063.3978
1074.6321
1672.3505
4669.676
2917.0123
3867.6544
6109.2807
4226.5421
2308.9647
4513.4839
3938.4855
3744.5878
3688.0431
811.25171
828.17079
-25502.769
-1589.0425
-460.74766
-1115.9693
-408.70364
-900.00029
826.47789
2751.4901
3129.4799
2681.8125
1269.4689
795.56387
-241.46277
259.58966
995.71174
1497.4971
835.15945
-1674.443
1282.985
2259.0145
301.7552
352.52469
835.98184
-642.8215
921.37546
1689.1979
-1885.3719
1925.1566
232.8271
-473.55829
-601.1965
1289.0432
591.95242
-290.64447
-1410.9212
-1299.4091
1356.1307
409.10562
2058.9422
340.44757
1541.1347
874.17819
199.01853
565.52667
754.31599
3898.094
-2067.9839
-85.006265
-1552.2015
-1994.6875
-1391.4973
-1593.1479
-1625.6757
-2437.5455
-3634.1013
-5534.0179
-6333.748
-5053.6638
-2270.4216
-97.208453
2082.8241
1446.9856
1887.2263
3456.0702
2707.9224
4167.8305
5449.5825
4222.2078
2282.1316
4381.8015
3837.5857
3470.2918
3358.9568
724.03287
817.60303
-26088.277
-785.16719
76.56483
-922.72861
-612.43299
-842.68575
1857.7663
2564.9496
2728.4882
2664.683
1327.2483
741.05877
-292.88766
240.02503
954.39899
1486.95
808.53248
-1834.6707
1057.5917
2100.2875
210.95979
367.32569
887.10232
-741.5045
828.41515
1673.2191
-1865.469
1857.1618
217.82902
-556.39642
-973.00732
1176.2132
737.63911
-472.91834
-1328.9002
-944.07105
1187.6395
234.44139
2015.7119
259.60996
1552.118
692.55641
-269.48058
528.78049
507.6695
3676.5838
-1668.2346
177.46967
-1746.2254
-2266.7925
-1021.0723
-1014.8027
-1297.7808
-3936.8095
-4454.4857
-5810.1093
-5945.9796
-5174.6707
-2129.7346
-59.145212
1913.4373
1991.2002
1928.593
2172.3185
2662.4584
4508.4542
5026.8783
4209.8505
2311.5958
4222.9969
3880.3137
3220.1527
2983.5808
610.19915
789.77805
-27673.07
-64.974369
1127.3276
-834.7086
-382.78097
-821.39226
1692.3995
2627.3282
2768.2197
2581.9369
1323.7635
745.92611
-259.27602
239.15736
854.46274
1457.655
779.10917
-1845.3937
827.57075
1982.998
130.18574
360.92624
873.19816
-832.28989
810.23916
1567.8995
-1847.803
1772.003
148.12384
-659.61207
-1367.4617
1031.0698
620.03901
-428.35617
-981.57817
-896.07331
1057.6893
263.81736
1925.0201
306.03313
1603.3829
554.45635
-288.37966
584.58795
569.32923
3266.9084
-1833.3986
238.42765
-1645.5467
-1662.8226
-625.57115
-920.49964
-1082.3954
-4463.2108
-5861.3017
-6203.7761
-5971.5643
-5414.0162
-2463.7474
163.82721
1872.0184
2249.6364
2272.6366
1518.2006
2780.79
4448.1256
4814.0683
3822.4517
2090.7459
3960.6676
3767.956
2982.26
2564.7366
424.17673
744.15863
-30062.177
355.20048
1669.9253
-603.55633
-339.68224
-976.59716
1676.1005
2636.931
2706.3459
2459.627
1349.7072
746.56322
-270.06036
207.88199
768.99273
1449.1939
719.12353
-1889.5654
581.6544
1864.1407
127.19924
364.1448
898.79433
-1016.7822
658.63788
1217.6066
-1939.6991
1617.0726
129.33663
-805.12479
-1637.032
990.26859
582.14574
-136.4866
-497.81975
-725.97288
983.89784
28.447533
1833.8114
386.8424
1676.8463
343.79551
-358.34639
423.41255
698.35139
2752.6065
-2476.8451
201.10906
-1427.574
-1411.9266
-214.53452
-908.49083
-860.5504
-4240.2862
-6207.613
-6455.1076
-5967.9162
-5545.7586
-2936.7223
114.73717
1925.497
2380.7304
2970.251
1408.5444
2905.6094
4291.2127
4481.3271
3320.6779
1735.467
3616.0933
3632.5632
2702.7652
2170.2917
232.20434
694.867
-29841.297
-456.7159
1051.9256
-251.42213
-380.56964
-1036.2544
1644.0622
2636.7903
2660.9969
2321.7013
1375.1087
742.22758
-269.81902
163.46789
687.68584
1440.0996
661.05217
-1929.4634
350.435
1748.0104
92.720811
369.80026
901.14217
-1262.4799
252.9284
769.72308
-1920.2662
1483.0693
92.194287
-904.15537
-1683.4856
975.0374
500.67418
13.107098
-18.140005
-469.96781
958.8476
-121.42957
1743.3251
374.49543
1743.5398
211.48905
-458.15334
509.55077
527.06059
2048.9389
-2451.4298
268.84149
-1144.1143
-1295.4901
284.97113
-963.45297
-841.34039
-3484.2986
-6494.578
-6961.5576
-6146.0108
-5633.1049
-3479.0014
171.86196
1998.1947
2520.951
3392.4034
1323.8667
3008.0219
4298.0952
4111.7949
2675.5401
1243.7705
3131.1732
3346.209
2451.3293
1974.3095
51.796439
651.67693
-20738.125
-2827.9132
520.2135
-87.041541
-384.9171
-1061.0035
1640.2711
2632.1494
2603.472
2177.6168
1405.8324
735.51874
-286.5439
98.221134
619.82428
1439.2251
598.07865
-1974.0796
131.19129
1641.2782
98.836034
372.28578
949.87707
-1401.0839
-94.075132
574.2124
-1859.8685
1346.1431
19.299093
-876.33328
-1371.6199
938.05859
449.75528
128.30342
309.01683
-376.79522
1028.2454
-135.243
1701.3939
390.51595
1796.6122
143.61781
-385.93906
581.54748
297.04333
1288.6807
-2715.7389
159.91185
-999.04805
-1204.1122
728.76019
-888.79017
-777.80126
-3253.8146
-6199.7654
-7189.7523
-6107.8865
-6130.0058
-3791.7524
357.01896
2033.0672
2636.6583
3825.961
1106.2318
2917.1753
4376.3724
3981.9578
1784.7568
707.20766
2665.0869
2907.9059
2392.152
1793.0548
-225.50306
597.01073
-2994.8128
-3768.2211
431.75439
-169.4606
-385.81539
-1067.9604
1630.5494
2627.3805
2549.0127
2035.518
1430.0896
725.95702
-306.31987
20.87353
559.38093
1441.1111
531.9539
-2016.1584
-75.552032
1542.3746
88.075528
362.63997
994.53266
-1332.9536
-216.88247
473.51278
-1804.0553
1265.2272
-151.00231
-757.48061
-756.17209
899.08359
409.52253
162.24029
486.23953
-351.99725
984.69222
-75.164029
1686.1087
408.50732
1778.7915
13.365305
-480.1294
592.45605
203.867
821.96581
-3126.859
-45.560984
-1033.3401
-1069.5352
1174.9925
-862.07504
-765.7786
-3253.976
-6334.6669
-7637.3309
-6138.8302
-4764.6978
-3787.7278
-20.085767
2154.4173
2788.8889
4011.3437
743.68964
2897.147
4865.5413
3925.5599
1299.6178
518.39762
2280.6831
2648.9858
2367.9556
1550.1288
-524.35856
507.87043
1301.8882
-2204.2854
361.99094
-183.05185
-364.92188
-1065.5555
1612.8604
2623.4575
2497.2956
1900.0389
1450.3351
718.96124
-330.29504
-60.731348
508.13088
1428.8529
462.8092
-2079.8855
-268.00164
1411.2551
82.579828
353.89
1020.1273
-1229.8219
-340.43811
425.21148
-1722.881
1124.6002
-444.59811
-645.21261
-45.939572
816.23015
336.45819
42.87011
472.72517
-327.79382
844.55442
-15.2042
1676.151
372.02919
1777.4586
-24.305835
-526.60902
624.47629
108.73435
773.51348
-3243.5873
-192.76841
-1134.8544
-1076.121
1291.1878
-780.59207
-741.16872
-3573.8874
-6579.5754
-7637.2755
-6402.4872
-5663.8146
-3588.2912
-834.2151
1042.4174
2929.8828
4855.1296
433.06965
2768.3556
4967.0783
3413.6149
1139.6565
694.23505
2013.2988
2416.159
2073.2672
1164.5757
-900.81542
416.2184
-7862.7586
-1253.7237
406.05574
-170.36703
-341.2466
-1066.4681
1590.4001
2619.9477
2453.6109
1768.4179
1458.4244
712.03645
-352.53626
-133.69433
453.94566
1425.6983
392.28993
-2143.5028
-443.73041
1295.8047
81.368272
342.04982
1034.7015
-1132.1562
-437.93206
409.51811
-1634.3237
1002.918
-717.13843
-575.09914
420.59031
678.19707
285.39486
-126.18496
311.76043
-316.06993
635.73399
39.235958
1667.4867
326.16616
1752.4552
-7.5185548
-525.35558
602.96131
-37.300961
820.89012
-3290.6015
-275.56818
-1252.5111
-982.95712
1005.7595
-734.97547
-700.19054
-3731.8957
-6807.1821
-7933.9736
-6177.528
-5962.3267
-3693.4762
-972.73234
784.22475
3188.7217
6399.1198
42.469707
2471.1319
5252.8756
2992.1597
1130.9076
1095.6842
1926.2707
2107.4031
1682.7887
624.78684
-1413.1645
308.46309
-7917.762
-1467.629
426.84991
-147.36603
-316.15926
-1073.3361
1561.6716
2616.0585
2415.0826
1638.8294
1453.3115
715.1946
-368.5668
-201.93514
402.89242
1415.7253
321.60303
-2215.6942
-599.527
1180.0966
81.12548
324.26927
1055.6074
-1041.7369
-523.82502
364.42674
-1556.643
920.13727
-815.25703
-456.00305
629.81037
519.9771
231.49266
-326.83348
31.942354
-384.16943
378.06608
135.81241
1657.0088
262.58111
1787.1273
97.258323
-370.17914
584.48541
82.691119
742.73488
-3468.3513
-220.65642
-1226.4471
-1038.0586
904.56603
-636.86743
-603.88174
-3609.4819
-7061.8549
-8073.1572
-6269.6792
-5868.5863
-3529.086
-1101.2923
651.80794
3082.4067
6753.7969
-187.52327
1927.9792
5287.2236
2473.038
1251.0695
1521.1538
1849.371
1882.7818
1525.664
147.97316
-1850.2473
206.71234
-7706.2928
-1342.0143
457.16104
-122.56657
-294.18597
-1086.443
1526.7991
2611.2077
2381.7809
1515.4552
1436.9456
727.65524
-382.59812
-246.76639
351.56724
1395.2104
260.0706
-2276.1673
-738.82788
1067.3275
90.276544
302.37408
1062.475
-935.38689
-589.33863
411.64369
-1482.4938
871.08161
-781.62439
-328.93931
691.07343
470.19244
175.87416
-491.51654
-256.41789
-563.33855
104.98978
280.9521
1641.1242
217.34313
1781.4445
167.17901
-276.71758
715.35908
158.56467
684.32333
-3712.8181
-30.106131
-1018.8382
-1002.2179
1043.9246
-548.25664
-662.89082
-3389.9372
-7316.3058
-8368.1343
-6199.1726
-6006.6595
-3558.6058
-1066.9421
656.54751
2433.1472
6576.4742
-542.19132
1197.3235
5506.1052
1911.1147
1543.3089
1994.414
1703.1072
1792.0759
1528.538
-171.3927
-2037.0685
166.53141
-7327.64
-1289.203
485.62405
-97.949313
-275.77848
-1106.9796
1484.8276
2604.4614
2356.3157
1400.0329
1403.765
747.31407
-379.36321
-265.12981
303.78451
1363.1249
207.44049
-2313.4837
-859.26688
971.62145
104.79973
282.10097
1050.0327
-825.99657
-636.21328
504.48038
-1355.8734
904.97739
-676.99467
-328.58675
680.10513
573.77183
128.53882
-539.17231
-519.61214
-927.88824
-195.09598
511.52154
1619.2929
190.97983
1797.3005
312.36194
-44.679049
754.0967
226.73394
802.03789
-3824.8542
215.66993
-739.52071
-1045.8737
1018.5556
-465.68679
-703.85307
-3402.9792
-7536.1245
-8820.5361
-6214.2599
-6090.0754
-3621.4899
-1115.9882
479.35005
114.47591
5426.4771
-2082.5582
-1616.8511
5802.6253
1488.5043
1772.8039
2124.8497
1576.7713
1637.6078
1393.0857
-400.78603
-2088.6797
142.93431
-6937.0881
-1181.9962
515.60374
-74.482152
-261.67648
-1136.2831
1434.4024
2593.4931
2337.4087
1296.6649
1349.3909
768.74993
-369.72738
-258.94933
253.30071
1311.1525
179.81821
-2299.5337
-943.96739
844.66684
95.362417
262.58096
1040.1421
-705.56284
-700.3428
626.52138
-1219.2273
973.14432
-552.49166
-364.79608
586.68152
663.25158
84.310787
-458.73818
-657.05618
-1426.6914
-480.99208
775.84527
1588.8577
181.8469
1812.3515
429.10989
187.8783
858.9061
387.69619
1027.4672
-3768.7615
456.28237
-564.41419
-934.14908
914.18212
-425.66977
-716.1852
-3461.417
-7938.9338
-9467.7453
-6266.1197
-6099.96
-3650.4619
-1339.5385
126.83712
-2507.2667
4445.413
-3052.7807
-3974.3953
5805.1346
1253.6864
1731.09
2042.6605
1637.7914
1502.8859
1109.838
-510.21578
-2048.8796
110.33452
-6496.9528
-1130.0077
545.83563
-50.516443
-249.87111
-1175.9907
1373.9163
2574.9046
2322.5779
1204.5459
1271.8632
790.28362
-351.79353
-228.00033
208.71844
1244.6845
135.70562
-2213.8004
-999.34742
750.62263
121.95781
249.58683
1039.317
-604.82066
-741.35704
742.65512
-1110.7654
1024.9526
-431.55408
-262.7586
473.44554
695.86387
28.938325
-264.73169
-664.70075
-1958.1268
-769.27696
936.72483
1525.4612
133.85374
1809.2823
491.47416
266.7726
862.42432
271.08754
1152.1674
-3514.3486
613.70835
-428.46364
-705.80941
660.04891
-393.51497
-816.25095
-3361.3156
-8369.7837
-10041.853
-6010.0567
-5693.0617
-3950.0513
-1553.0765
-14.448186
-2403.5212
4261.1513
-2720.6781
-3231.2565
5274.8747
1245.1012
1744.1635
1820.0035
1776.5237
1446.3398
875.40552
-576.30275
-1917.8091
71.773718
-6076.9288
-1001.985
575.21069
-34.888275
-247.08813
-1227.9116
1301.4115
2544.3738
2306.6278
1117.1657
1163.9924
795.38355
-352.88078
-197.66635
169.68341
1156.3497
113.88852
-2095.9628
-989.91915
653.1578
157.4312
222.85232
1017.5114
-489.72338
-677.57221
806.33585
-1028.2834
1082.0415
-284.85095
-64.775614
415.57555
641.48742
-35.710279
8.2196861
-583.84588
-2409.8199
-998.27251
1117.2073
1477.4214
133.558
1788.5608
488.169
476.92156
909.6784
334.01707
1359.0446
-3211.9899
745.10047
-379.1127
-600.79435
499.06624
-359.23674
-894.85036
-3122.3035
-8515.8499
-10066.223
-5856.3088
-5201.1642
-4555.9529
-1655.4098
97.977232
-662.66493
4455.6664
-2888.2219
-2292.4727
5354.2326
1365.0027
1997.9258
1644.0029
1914.138
1391.3768
842.49139
-562.92082
-1802.3054
95.605652
-5620.1827
-975.30957
605.52454
-17.544494
-248.39881
-1294.119
1214.4426
2497.846
2280.4297
1025.3695
1023.5501
795.97315
-344.7901
-148.43171
135.15063
1043.9005
99.412803
-1965.992
-949.30403
561.85194
199.84216
185.40361
966.04028
-354.15975
-514.86798
864.28774
-949.7018
1081.2806
-207.36678
76.534603
334.26208
583.60467
-102.22698
218.80363
-462.7253
-2702.2288
-1088.5093
1122.4867
1445.9784
142.6863
1755.9925
440.16507
415.95171
928.31037
387.89573
1534.8273
-2987.4295
803.77023
-563.71775
-488.76487
366.19858
-329.69541
-950.00341
-2895.4832
-8359.3596
-9784.2107
-5809.1932
-4644.8335
-5044.5615
-1965.1637
314.23137
-0.70509401
3862.0809
-2756.7134
-1826.1958
5215.1672
1585.6734
2413.4712
1524.7164
2032.7972
1361.6577
847.89968
-464.69953
-1730.0825
71.259197
-5199.7591
-818.00947