/*--------------------------------*- C++ -*----------------------------------*\
| =========                 |                                                 |
| \\      /  F ield         | OpenFOAM: The Open Source CFD Toolbox           |
|  \\    /   O peration     | Version:  2.3.0                                 |
|   \\  /    A nd           | Web:      www.OpenFOAM.org                      |
|    \\/     M anipulation  |                                                 |
\*---------------------------------------------------------------------------*/
FoamFile
{
    version     2.0;
    format      ascii;
    class       surfaceScalarField;
    location    "3.6e-05";
    object      phi;
}
// * * * * * * * * * * * * * * * * * * * * * * * * * * * * * * * * * * * * * //

dimensions      [0 3 -1 0 0 0 0];

internalField   nonuniform List<scalar> 
14825
(
1.0344005e-09
-2.0639119e-11
1.0546895e-09
-2.0289027e-11
1.0751727e-09
-2.0483233e-11
1.0954488e-09
-2.0276005e-11
1.1159163e-09
-2.0467596e-11
1.1361611e-09
-2.0244741e-11
1.1562587e-09
-2.0097622e-11
1.1762862e-09
-2.0027492e-11
1.1960554e-09
-1.9769234e-11
1.2160157e-09
-1.9960291e-11
1.2355293e-09
-1.9513606e-11
1.2553465e-09
-1.98172e-11
1.2745088e-09
-1.9162294e-11
1.294098e-09
-1.9589133e-11
1.3128962e-09
-1.8798242e-11
1.3322091e-09
-1.9312877e-11
1.3507075e-09
-1.849837e-11
1.3697167e-09
-1.9009254e-11
1.3879003e-09
-1.818358e-11
1.4065082e-09
-1.8607881e-11
1.4244388e-09
-1.7930583e-11
1.4424686e-09
-1.8029895e-11
1.4603039e-09
-1.7835301e-11
1.4776405e-09
-1.7336533e-11
1.4953727e-09
-1.7732174e-11
1.5120147e-09
-1.6642021e-11
1.5295653e-09
-1.7550634e-11
1.5455368e-09
-1.5971531e-11
1.5627542e-09
-1.7217373e-11
1.5782835e-09
-1.5529331e-11
1.5949666e-09
-1.6683031e-11
1.6101796e-09
-1.5213044e-11
1.6261093e-09
-1.5929712e-11
1.641115e-09
-1.5005712e-11
1.6562389e-09
-1.5123857e-11
1.6711192e-09
-1.4880268e-11
1.6853744e-09
-1.425522e-11
1.7000191e-09
-1.4644674e-11
1.7134629e-09
-1.3443866e-11
1.7276522e-09
-1.4189251e-11
1.7405881e-09
-1.2935928e-11
1.7540801e-09
-1.3492009e-11
1.7666702e-09
-1.2590043e-11
1.7793803e-09
-1.2710097e-11
1.7915688e-09
-1.2188515e-11
1.8035239e-09
-1.1955103e-11
1.815277e-09
-1.1753096e-11
1.826395e-09
-1.1118068e-11
1.8377796e-09
-1.1384543e-11
1.8481925e-09
-1.041296e-11
1.8588319e-09
-1.0639356e-11
1.8687463e-09
-9.9144255e-12
1.8786176e-09
-9.8712704e-12
1.8881433e-09
-9.525683e-12
1.897342e-09
-9.1986796e-12
1.9060348e-09
-8.6928723e-12
1.9144897e-09
-8.4548125e-12
1.9226882e-09
-8.1985636e-12
1.9303469e-09
-7.658728e-12
1.9378003e-09
-7.453347e-12
1.9450482e-09
-7.2478689e-12
1.9518762e-09
-6.8280192e-12
1.9581991e-09
-6.3229295e-12
1.9642429e-09
-6.0437614e-12
1.9699855e-09
-5.7426546e-12
1.9753116e-09
-5.326081e-12
1.9804819e-09
-5.1703154e-12
1.9852599e-09
-4.7779704e-12
1.9895465e-09
-4.286635e-12
1.9936189e-09
-4.0723791e-12
1.9972688e-09
-3.6498593e-12
2.0004486e-09
-3.1798476e-12
2.0033462e-09
-2.8975662e-12
2.0060593e-09
-2.7131056e-12
-2.2411481e-12
2.8624982e-09
-8.1171419e-11
2.9220843e-09
-7.9875092e-11
2.9824979e-09
-8.0896846e-11
3.042264e-09
-8.0042086e-11
3.1028113e-09
-8.1014916e-11
3.1625458e-09
-7.9979232e-11
3.2223054e-09
-7.9857242e-11
3.2816898e-09
-7.9411887e-11
3.3407101e-09
-7.8789489e-11
3.4001501e-09
-7.9400299e-11
3.4585388e-09
-7.790236e-11
3.5178649e-09
-7.9143291e-11
3.5753711e-09
-7.6668513e-11
3.6343193e-09
-7.853729e-11
3.6909514e-09
-7.5430339e-11
3.7493555e-09
-7.7716974e-11
3.8053241e-09
-7.446699e-11
3.8630335e-09
-7.6718597e-11
3.9183563e-09
-7.3506459e-11
3.9750529e-09
-7.5304477e-11
4.0299247e-09
-7.2802344e-11
4.0851483e-09
-7.3253505e-11
4.1399303e-09
-7.2617251e-11
4.1934079e-09
-7.0814216e-11
4.2480467e-09
-7.2370952e-11
4.2998406e-09
-6.8435928e-11
4.3540307e-09
-7.1740699e-11
4.4042109e-09
-6.6151791e-11
4.4575637e-09
-7.0570138e-11
4.5067142e-09
-6.467981e-11
4.5587606e-09
-6.8729459e-11
4.6071392e-09
-6.3591615e-11
4.6573127e-09
-6.6103254e-11
4.7051486e-09
-6.2841535e-11
4.7533812e-09
-6.3356537e-11
4.8008518e-09
-6.2350879e-11
4.8470498e-09
-6.0453147e-11
4.8937705e-09
-6.1365447e-11
4.9380171e-09
-5.7690453e-11
4.9835248e-09
-5.9696869e-11
5.0264406e-09
-5.5851791e-11
5.0703551e-09
-5.7406535e-11
5.1122067e-09
-5.4441607e-11
5.1542847e-09
-5.4788058e-11
5.1949477e-09
-5.2851564e-11
5.2351827e-09
-5.2190057e-11
5.2746628e-09
-5.1233243e-11
5.3128511e-09
-4.9306399e-11
5.3513338e-09
-4.986718e-11
5.3875641e-09
-4.6643294e-11
5.4242678e-09
-4.7343044e-11
5.4590943e-09
-4.4740926e-11
5.4939233e-09
-4.4700291e-11
5.5276464e-09
-4.3248765e-11
5.560611e-09
-4.2163301e-11
5.5923035e-09
-4.0385342e-11
5.6232989e-09
-3.9450226e-11
5.6534985e-09
-3.839813e-11
5.6824773e-09
-3.6637558e-11
5.7108722e-09
-3.5848243e-11
5.7385567e-09
-3.4932334e-11
5.7651724e-09
-3.3443724e-11
5.7905574e-09
-3.1707976e-11
5.8151316e-09
-3.0617977e-11
5.8387585e-09
-2.936955e-11
5.8615287e-09
-2.8096275e-11
5.8837584e-09
-2.7399952e-11
5.90484e-09
-2.5859632e-11
5.9248052e-09
-2.4251762e-11
5.9440732e-09
-2.3340431e-11
5.961985e-09
-2.1561601e-11
5.978978e-09
-2.0172933e-11
5.9951319e-09
-1.9051381e-11
6.0105972e-09
-1.81785e-11
-1.6491562e-11
4.3664227e-09
-1.7948459e-10
4.463342e-09
-1.767944e-10
4.5621065e-09
-1.7966138e-10
4.6596955e-09
-1.7763108e-10
4.7589147e-09
-1.8023415e-10
4.8566355e-09
-1.7769995e-10
4.9550233e-09
-1.7824511e-10
5.0527029e-09
-1.7709141e-10
5.1502723e-09
-1.7635892e-10
5.2484558e-09
-1.7758384e-10
5.3452744e-09
-1.7472096e-10
5.4436987e-09
-1.7756752e-10
5.5394434e-09
-1.7241327e-10
5.6376745e-09
-1.7676842e-10
5.7323947e-09
-1.7015052e-10
5.8301708e-09
-1.7549303e-10
5.924197e-09
-1.6849323e-10
6.0212094e-09
-1.7373101e-10
6.1146053e-09
-1.6690233e-10
6.2103318e-09
-1.7103098e-10
6.3033785e-09
-1.6584907e-10
6.3972796e-09
-1.6715458e-10
6.4903328e-09
-1.6567043e-10
6.5820355e-09
-1.6251688e-10
6.6750417e-09
-1.6537718e-10
6.7647056e-09
-1.5809981e-10
6.8571299e-09
-1.64165e-10
6.9447171e-09
-1.5373905e-10
7.0361511e-09
-1.6200405e-10
7.1223791e-09
-1.509079e-10
7.2123254e-09
-1.5867574e-10
7.2973494e-09
-1.4861555e-10
7.3850363e-09
-1.5379022e-10
7.4691665e-09
-1.4697175e-10
7.5545537e-09
-1.4874374e-10
7.6380359e-09
-1.4583305e-10
7.7210136e-09
-1.4343081e-10
7.8032829e-09
-1.4363475e-10
7.8836822e-09
-1.3808979e-10
7.9643594e-09
-1.4037407e-10
8.0427733e-09
-1.3426562e-10
8.1216972e-09
-1.3633052e-10
8.19825e-09
-1.3099437e-10
8.2750248e-09
-1.3156288e-10
8.349669e-09
-1.274957e-10
8.4241111e-09
-1.2663218e-10
8.4969969e-09
-1.2411901e-10
8.5688388e-09
-1.2114836e-10
8.6402198e-09
-1.2124819e-10
8.7091485e-09
-1.1557194e-10
8.7783301e-09
-1.1652463e-10
8.84503e-09
-1.1144086e-10
8.9119249e-09
-1.1159516e-10
8.976831e-09
-1.0815492e-10
9.0409853e-09
-1.0631763e-10
9.1033012e-09
-1.0270124e-10
9.1645927e-09
-1.0074165e-10
9.2245023e-09
-9.8307802e-11
9.283118e-09
-9.5253271e-11
9.3407121e-09
-9.344229e-11
9.397065e-09
-9.1285283e-11
9.4520525e-09
-8.8431212e-11
9.5053212e-09
-8.4976691e-11
9.5573501e-09
-8.2646831e-11
9.6077908e-09
-7.9810237e-11
9.6574485e-09
-7.7753975e-11
9.7059974e-09
-7.5948837e-11
9.7527765e-09
-7.2638735e-11
9.7984837e-09
-6.9958947e-11
9.8426767e-09
-6.7533438e-11
9.8847636e-09
-6.3648537e-11
9.9260263e-09
-6.1435581e-11
9.9658466e-09
-5.8871697e-11
1.000433e-08
-5.6662179e-11
-5.3350999e-11
5.5903903e-09
-3.1340421e-10
5.7228106e-09
-3.0921468e-10
5.8581146e-09
-3.1496535e-10
5.9919658e-09
-3.1148225e-10
6.128125e-09
-3.1639341e-10
6.2624897e-09
-3.1206465e-10
6.3981344e-09
-3.1388983e-10
6.5330859e-09
-3.1204287e-10
6.6682039e-09
-3.1147688e-10
6.8042901e-09
-3.1367007e-10
6.9388742e-09
-3.093051e-10
7.0757158e-09
-3.1440904e-10
7.2094663e-09
-3.0616378e-10
7.3464798e-09
-3.1378194e-10
7.4794883e-09
-3.03159e-10
7.6163553e-09
-3.1236006e-10
7.7489879e-09
-3.0112579e-10
7.8853089e-09
-3.1005204e-10
8.0175707e-09
-2.9916414e-10
8.1527143e-09
-3.061746e-10
8.2848634e-09
-2.979982e-10
8.4184958e-09
-3.0078697e-10
8.55065e-09
-2.9782458e-10
8.682326e-09
-2.9419288e-10
8.8145451e-09
-2.9759631e-10
8.9445072e-09
-2.8806189e-10
9.0760692e-09
-2.9572703e-10
9.2039997e-09
-2.8166948e-10
9.3346942e-09
-2.9269863e-10
9.4611747e-09
-2.7738831e-10
9.5907518e-09
-2.8825291e-10
9.7154903e-09
-2.7335399e-10
9.8432057e-09
-2.8150561e-10
9.9666243e-09
-2.7039035e-10
1.0092475e-08
-2.7459449e-10
1.021484e-08
-2.6819794e-10
1.0338663e-08
-2.6725393e-10
1.0459396e-08
-2.643678e-10
1.0580517e-08
-2.5921076e-10
1.0699602e-08
-2.5945945e-10
1.08184e-08
-2.5306288e-10
1.0936072e-08
-2.5400245e-10
1.1052288e-08
-2.4721115e-10
1.1168043e-08
-2.4731771e-10
1.1281605e-08
-2.4105765e-10
1.139507e-08
-2.4009706e-10
1.1506465e-08
-2.3551427e-10
1.1617592e-08
-2.3227523e-10
1.1726963e-08
-2.3061886e-10
1.1834739e-08
-2.2334762e-10
1.1941769e-08
-2.2355469e-10
1.2046678e-08
-2.1634981e-10
1.2151781e-08
-2.1669869e-10
1.2254016e-08
-2.1039028e-10
1.2355926e-08
-2.0822675e-10
1.2455606e-08
-2.0238178e-10
1.2554093e-08
-1.9922822e-10
1.2650491e-08
-1.9470611e-10
1.2746259e-08
-1.9102104e-10
1.2840244e-08
-1.8742714e-10
1.2932709e-08
-1.8375034e-10
1.3023756e-08
-1.7947904e-10
1.3112823e-08
-1.7404292e-10
1.3200204e-08
-1.7002812e-10
1.3285632e-08
-1.6523827e-10
1.3370868e-08
-1.6298969e-10
1.3453806e-08
-1.5888713e-10
1.3535059e-08
-1.5389182e-10
1.3615697e-08
-1.5059691e-10
1.3693358e-08
-1.4519459e-10
1.3768918e-08
-1.3920823e-10
1.3843951e-08
-1.3646877e-10
1.3916807e-08
-1.3172784e-10
1.3987945e-08
-1.277999e-10
-1.2255748e-10
6.5731983e-09
-4.8083124e-10
6.7393816e-09
-4.7539791e-10
6.9092012e-09
-4.8478502e-10
7.0778626e-09
-4.801436e-10
7.2490226e-09
-4.8755344e-10
7.4188176e-09
-4.818596e-10
7.5901362e-09
-4.8520846e-10
7.761293e-09
-4.8319965e-10
7.9327922e-09
-4.8297615e-10
8.105787e-09
-4.8666481e-10
8.2773467e-09
-4.8086482e-10
8.4516975e-09
-4.8875982e-10
8.6230785e-09
-4.7754483e-10
8.7981033e-09
-4.8880672e-10
8.9694178e-09
-4.7447352e-10
9.1447928e-09
-4.8773505e-10
9.3163293e-09
-4.7266232e-10
9.4916836e-09
-4.8540628e-10
9.6633001e-09
-4.7078063e-10
9.8379335e-09
-4.8080805e-10
1.0009825e-08
-4.6989018e-10
1.0183834e-08
-4.7479581e-10
1.0355662e-08
-4.6965205e-10
1.052856e-08
-4.670915e-10
1.0700593e-08
-4.6962901e-10
1.0872655e-08
-4.6012362e-10
1.104399e-08
-4.6706247e-10
1.1214666e-08
-4.5234545e-10
1.1385385e-08
-4.6341743e-10
1.1554875e-08
-4.4687775e-10
1.172518e-08
-4.5855873e-10
1.1892431e-08
-4.4060422e-10
1.206186e-08
-4.5093523e-10
1.2227494e-08
-4.3602436e-10
1.2396076e-08
-4.4317591e-10
1.2560197e-08
-4.3231953e-10
1.2727669e-08
-4.3472537e-10
1.288975e-08
-4.2644907e-10
1.3055042e-08
-4.2450241e-10
1.3215539e-08
-4.1995656e-10
1.3378813e-08
-4.163374e-10
1.3538262e-08
-4.1345164e-10
1.3698652e-08
-4.0760078e-10
1.3856752e-08
-4.0541739e-10
1.4014012e-08
-3.9831756e-10
1.4170239e-08
-3.9632426e-10
1.4325008e-08
-3.9028377e-10
1.4479601e-08
-3.8686794e-10
1.4631634e-08
-3.826522e-10
1.4783565e-08
-3.7527836e-10
1.4933136e-08
-3.7312541e-10
1.5082014e-08
-3.6522803e-10
1.5230428e-08
-3.6511243e-10
1.5375553e-08
-3.5551528e-10
1.5520999e-08
-3.5367336e-10
1.566402e-08
-3.4540234e-10
1.5805762e-08
-3.4097014e-10
1.5944693e-08
-3.33637e-10
1.6084367e-08
-3.3069548e-10
1.6221016e-08
-3.240758e-10
1.6356452e-08
-3.1918611e-10
1.6490384e-08
-3.1341105e-10
1.6622715e-08
-3.0637445e-10
1.6752289e-08
-2.9960236e-10
1.6880564e-08
-2.9351322e-10
1.7008976e-08
-2.9140091e-10
1.7133226e-08
-2.8313787e-10
1.725734e-08
-2.7800598e-10
1.7381002e-08
-2.7425825e-10
1.7499914e-08
-2.6410682e-10
1.7618034e-08
-2.5732866e-10
1.773545e-08
-2.5388445e-10
1.7849732e-08
-2.4600994e-10
1.7962339e-08
-2.4040662e-10
-2.3309593e-10
7.3491532e-09
-6.8013781e-10
7.5470465e-09
-6.7329127e-10
7.7495819e-09
-6.8732044e-10
7.951298e-09
-6.8185966e-10
8.1556855e-09
-6.9194097e-10
8.3594396e-09
-6.8561368e-10
8.5649536e-09
-6.9072248e-10
8.7709247e-09
-6.8917075e-10
8.9777317e-09
-6.8978313e-10
9.1863094e-09
-6.9524246e-10
9.3940674e-09
-6.8862284e-10
9.6047861e-09
-6.9947852e-10
9.8132264e-09
-6.8598513e-10
1.0025401e-08
-7.0098151e-10
1.0234654e-08
-6.8372643e-10
1.0447949e-08
-7.0103038e-10
1.0658189e-08
-6.8290211e-10
1.0872381e-08
-6.9959786e-10
1.1083291e-08
-6.816911e-10
1.1297564e-08
-6.9508062e-10
1.1509356e-08
-6.8168232e-10
1.1724257e-08
-6.896972e-10
1.1936054e-08
-6.8144854e-10
1.215102e-08
-6.8205749e-10
1.2363341e-08
-6.8195064e-10
1.2578498e-08
-6.7527983e-10
1.2790343e-08
-6.7890771e-10
1.3005227e-08
-6.6722979e-10
1.3216858e-08
-6.750485e-10
1.3431283e-08
-6.6130241e-10
1.364322e-08
-6.7049613e-10
1.3855314e-08
-6.526982e-10
1.406761e-08
-6.6323135e-10
1.4278264e-08
-6.4667815e-10
1.4490895e-08
-6.5580666e-10
1.469988e-08
-6.4130482e-10
1.4912382e-08
-6.4722683e-10
1.5119075e-08
-6.3314181e-10
1.5330536e-08
-6.3596347e-10
1.5535696e-08
-6.2511741e-10
1.574635e-08
-6.2699093e-10
1.5950349e-08
-6.1745097e-10
1.6158782e-08
-6.1603376e-10
1.6361926e-08
-6.0856125e-10
1.6567306e-08
-6.0369726e-10
1.6769038e-08
-5.9805677e-10
1.6972075e-08
-5.9332068e-10
1.7173276e-08
-5.8806854e-10
1.7372893e-08
-5.822694e-10
1.7573006e-08
-5.7539086e-10
1.7769187e-08
-5.6930711e-10
1.7967207e-08
-5.6324814e-10
1.8163244e-08
-5.6114867e-10
1.8356409e-08
-5.4868066e-10
1.8550503e-08
-5.4776744e-10
1.8742155e-08
-5.370543e-10
1.8932551e-08
-5.3136643e-10
1.911969e-08
-5.2077571e-10
1.9309077e-08
-5.2008287e-10
1.9494017e-08
-5.0901514e-10
1.9678785e-08
-5.0395393e-10
1.9861719e-08
-4.9634519e-10
2.0044106e-08
-4.8876221e-10
2.022162e-08
-4.7711602e-10
2.0400627e-08
-4.7251964e-10
2.0578464e-08
-4.6923826e-10
2.0750755e-08
-4.5542871e-10
2.0926037e-08
-4.5328774e-10
2.1098913e-08
-4.4713448e-10
2.1266021e-08
-4.3121517e-10
2.1434782e-08
-4.260898e-10
2.1601925e-08
-4.2102739e-10
2.1765812e-08
-4.0989679e-10
2.1928009e-08
-4.0260361e-10
-3.9314832e-10
7.948037e-09
-9.0993827e-10
8.1750879e-09
-9.0034214e-10
8.4090439e-09
-9.2127653e-10
8.6412853e-09
-9.1410105e-10
8.8777976e-09
-9.2845327e-10
9.1131809e-09
-9.209969e-10
9.3521267e-09
-9.296683e-10
9.5906339e-09
-9.2767802e-10
9.8323672e-09
-9.3151637e-10
1.0074371e-08
-9.3724677e-10
1.0318108e-08
-9.3235958e-10
1.0563423e-08
-9.4479283e-10
1.0808648e-08
-9.312105e-10
1.1056717e-08
-9.4905066e-10
1.1303644e-08
-9.3065386e-10
1.1554033e-08
-9.5141844e-10
1.1802735e-08
-9.3160437e-10
1.2055468e-08
-9.5233067e-10
1.2305394e-08
-9.3161786e-10
1.255948e-08
-9.4916634e-10
1.2811018e-08
-9.3322069e-10
1.3067173e-08
-9.4585184e-10
1.331913e-08
-9.3340568e-10
1.3576618e-08
-9.3954499e-10
1.3829794e-08
-9.3512654e-10
1.4088255e-08
-9.337408e-10
1.4341678e-08
-9.3233105e-10
1.4601274e-08
-9.2682576e-10
1.4855078e-08
-9.2885211e-10
1.5115418e-08
-9.2164262e-10
1.5370023e-08
-9.2510145e-10
1.5628572e-08
-9.1124678e-10
1.5884802e-08
-9.1946198e-10
1.6142775e-08
-9.0465072e-10
1.6400327e-08
-9.1335921e-10
1.6657326e-08
-8.983038e-10
1.6915107e-08
-9.0500724e-10
1.7170124e-08
-8.8815875e-10
1.7428256e-08
-8.9409569e-10
1.7682172e-08
-8.7903356e-10
1.7941408e-08
-8.8622677e-10
1.819341e-08
-8.6945279e-10
1.8452294e-08
-8.7491836e-10
1.8703431e-08
-8.5969829e-10
1.8960489e-08
-8.6075479e-10
1.9210154e-08
-8.4772186e-10
1.9465791e-08
-8.4895735e-10
1.9715666e-08
-8.3794346e-10
1.9967883e-08
-8.344869e-10
2.0218893e-08
-8.2640081e-10
2.0466439e-08
-8.1685322e-10
2.0717655e-08
-8.1446396e-10
2.0964628e-08
-8.0812153e-10
2.1210579e-08
-7.9463214e-10
2.1457514e-08
-7.9470209e-10
2.1702359e-08
-7.8189948e-10
2.1946194e-08
-7.7520076e-10
2.2186965e-08
-7.6154684e-10
2.2430283e-08
-7.6340131e-10
2.2668416e-08
-7.4714783e-10
2.2907987e-08
-7.4352564e-10
2.314528e-08
-7.3363751e-10
2.3382962e-08
-7.2644476e-10
2.3613184e-08
-7.073377e-10
2.3849991e-08
-7.0932669e-10
2.4080289e-08
-6.9953584e-10
2.4307871e-08
-6.8301059e-10
2.4540973e-08
-6.863904e-10
2.4767517e-08
-6.7367835e-10
2.4990602e-08
-6.5429989e-10
2.5217183e-08
-6.526706e-10
2.5439061e-08
-6.4290622e-10
2.5659136e-08
-6.2997179e-10
2.5877771e-08
-6.2123868e-10
-6.0942013e-10
8.3937642e-09
-1.1669956e-09
8.6487976e-09
-1.1553755e-09
8.9119343e-09
-1.1844132e-09
9.1728404e-09
-1.1750071e-09
9.4402544e-09
-1.1958673e-09
9.7050518e-09
-1.1857943e-09
9.9770352e-09
-1.2016517e-09
1.0245536e-08
-1.1961786e-09
1.0522424e-08
-1.2084046e-09
1.0795154e-08
-1.209977e-09
1.1075505e-08
-1.2127105e-09
1.1352852e-08
-1.2221393e-09
1.1635659e-08
-1.2140178e-09
1.1917413e-08
-1.2308043e-09
1.2202863e-08
-1.2161043e-09
1.2488548e-08
-1.2371039e-09
1.2776441e-08
-1.2194972e-09
1.3066452e-08
-1.2423415e-09
1.3355869e-08
-1.2210345e-09
1.364906e-08
-1.2423579e-09
1.3940753e-08
-1.2249136e-09
1.423751e-08
-1.2426083e-09
1.4530433e-08
-1.2263287e-09
1.483e-08
-1.2391125e-09
1.5125039e-08
-1.2301649e-09
1.5426251e-08
-1.2349529e-09
1.5722614e-08
-1.2286942e-09
1.6026703e-08
-1.2309151e-09
1.6324234e-08
-1.2263826e-09
1.6630606e-08
-1.2280151e-09
1.6929014e-08
-1.2235096e-09
1.7234835e-08
-1.2170674e-09
1.7536133e-08
-1.2207595e-09
1.7842787e-08
-1.2113052e-09
1.8146163e-08
-1.2167352e-09
1.8453801e-08
-1.205942e-09
1.8756649e-08
-1.2078547e-09
1.9063483e-08
-1.1949927e-09
1.9367938e-08
-1.1985511e-09
1.9674989e-08
-1.1860845e-09
1.9982116e-08
-1.1933539e-09
2.0286513e-08
-1.17385e-09
2.0595701e-08
-1.1841063e-09
2.0898681e-08
-1.1626775e-09
2.1208924e-08
-1.1709985e-09
2.1509508e-08
-1.1483054e-09
2.1820017e-08
-1.159466e-09
2.2120432e-08
-1.1383591e-09
2.2429209e-08
-1.1432638e-09
2.2731685e-08
-1.1288766e-09
2.3035385e-08
-1.1205533e-09
2.334151e-08
-1.1205892e-09
2.3642223e-08
-1.108834e-09
2.3944714e-08
-1.0971238e-09
2.4246873e-08
-1.0968612e-09
2.4547598e-08
-1.0826237e-09
2.4847906e-08
-1.0755088e-09
2.5146693e-08
-1.0603336e-09
2.5445399e-08
-1.062108e-09
2.573979e-08
-1.0415386e-09
2.603796e-08
-1.0416953e-09
2.633307e-08
-1.0287483e-09
2.6627419e-08
-1.0207934e-09
2.6915656e-08
-9.9557493e-10
2.7214319e-08
-1.0079895e-09
2.7496369e-08
-9.8158567e-10
2.7787467e-08
-9.7410839e-10
2.8079223e-08
-9.7814674e-10
2.8361012e-08
-9.5546722e-10
2.8645897e-08
-9.3918483e-10
2.8934153e-08
-9.4092681e-10
2.9213247e-08
-9.2200016e-10
2.9495508e-08
-9.1223307e-10
2.9773722e-08
-8.9945178e-10
-8.8561345e-10
8.7066649e-09
-1.4459524e-09
8.9916938e-09
-1.4404044e-09
9.2792044e-09
-1.4719239e-09
9.5704063e-09
-1.466209e-09
9.8648988e-09
-1.4903598e-09
1.0160205e-08
-1.4811006e-09
1.046229e-08
-1.5037367e-09
1.0761191e-08
-1.4950793e-09
1.1071141e-08
-1.5183549e-09
1.1374256e-08
-1.5130919e-09
1.1690195e-08
-1.5286492e-09
1.1998346e-08
-1.530291e-09
1.2318804e-08
-1.5344755e-09
1.2632233e-08
-1.5442335e-09
1.2957e-08
-1.5408708e-09
1.3275592e-08
-1.5556961e-09
1.3603831e-08
-1.5477367e-09
1.3928549e-08
-1.5670592e-09
1.4258787e-08
-1.5512728e-09
1.458876e-08
-1.5723302e-09
1.4922012e-08
-1.5581657e-09
1.5256878e-08
-1.5774746e-09
1.5592569e-08
-1.5620196e-09
1.5932202e-08
-1.5787451e-09
1.6270693e-08
-1.5686565e-09
1.6612875e-08
-1.5771344e-09
1.6953896e-08
-1.5697152e-09
1.7300998e-08
-1.5780176e-09
1.7644414e-08
-1.5697979e-09
1.7995413e-08
-1.5790143e-09
1.8339212e-08
-1.5673086e-09
1.8691627e-08
-1.5694827e-09
1.9039657e-08
-1.5687895e-09
1.9394288e-08
-1.5659357e-09
1.9745189e-08
-1.5676365e-09
2.0103757e-08
-1.5645104e-09
2.0452359e-08
-1.5564564e-09
2.0811669e-08
-1.5543027e-09
2.116292e-08
-1.5498025e-09
2.1525061e-08
-1.548225e-09
2.1878607e-08
-1.5469001e-09
2.2238928e-08
-1.5341707e-09
2.2595516e-08
-1.5406946e-09
2.2954023e-08
-1.5211846e-09
2.3315269e-08
-1.5322441e-09
2.3670167e-08
-1.503204e-09
2.4033023e-08
-1.5223217e-09
2.4386055e-08
-1.4913907e-09
2.4751539e-08
-1.5087483e-09
2.5103781e-08
-1.4811186e-09
2.5467083e-08
-1.4838551e-09
2.5824961e-08
-1.4784676e-09
2.6180224e-08
-1.4640963e-09
2.6539343e-08
-1.4562431e-09
2.6896488e-08
-1.4540062e-09
2.7251469e-08
-1.4376051e-09
2.7608083e-08
-1.4321224e-09
2.7966556e-08
-1.4188064e-09
2.831675e-08
-1.4123025e-09
2.8666586e-08
-1.3913741e-09
2.9024112e-08
-1.3992219e-09
2.9375666e-08
-1.3803026e-09
2.9721686e-08
-1.3668129e-09
3.0073438e-08
-1.3473268e-09
3.0427523e-08
-1.3620748e-09
3.0758722e-08
-1.312785e-09
3.1118987e-08
-1.3343725e-09
3.1461917e-08
-1.3210768e-09
3.1798696e-08
-1.2922467e-09
3.214606e-08
-1.2865491e-09
3.2494139e-08
-1.2890059e-09
3.2826074e-08
-1.2539352e-09
3.3171501e-08
-1.25766e-09
3.3507754e-08
-1.2357047e-09
-1.2200216e-09
8.9103324e-09
-1.7455047e-09
9.2253198e-09
-1.7553919e-09
9.5340103e-09
-1.7806143e-09
9.8570037e-09
-1.7892024e-09
1.0173933e-08
-1.8072893e-09
1.0502419e-08
-1.8095864e-09
1.082888e-08
-1.8301976e-09
1.116159e-08
-1.8277899e-09
1.1498369e-08
-1.8551336e-09
1.1835434e-08
-1.850157e-09
1.2181043e-08
-1.8742577e-09
1.2522878e-08
-1.8721268e-09
1.2876127e-08
-1.8877243e-09
1.3222855e-08
-1.8909608e-09
1.3583356e-08
-1.9013724e-09
1.3935317e-08
-1.9076571e-09
1.4301779e-08
-1.9141984e-09
1.4660294e-08
-1.9255739e-09
1.503068e-08
-1.9216596e-09
1.5395991e-08
-1.9376408e-09
1.577089e-08
-1.9330649e-09
1.6141682e-08
-1.9482662e-09
1.65211e-08
-1.9414374e-09
1.6898771e-08
-1.9564166e-09
1.728163e-08
-1.9515159e-09
1.7662744e-08
-1.9582484e-09
1.8049707e-08
-1.9566779e-09
1.843745e-08
-1.965761e-09
1.8829115e-08
-1.9614624e-09
1.9221629e-08
-1.9715281e-09
1.961286e-08
-1.9585396e-09
2.0009124e-08
-1.965747e-09
2.0406e-08
-1.9656651e-09
2.0804783e-08
-1.9647193e-09
2.1205703e-08
-1.9685562e-09
2.1611136e-08
-1.9699438e-09
2.2007839e-08
-1.9531594e-09
2.2413949e-08
-1.9604123e-09
2.2814849e-08
-1.9507028e-09
2.3226812e-08
-1.9601878e-09
2.362629e-08
-1.9463776e-09
2.4040422e-08
-1.9483035e-09
2.4440025e-08
-1.9402973e-09
2.4853433e-08
-1.9345929e-09
2.5258704e-08
-1.9375145e-09
2.5669907e-08
-1.914407e-09
2.6074664e-08
-1.9270792e-09
2.6480712e-08
-1.8974381e-09
2.6895473e-08
-1.9235099e-09
2.7291685e-08
-1.87733e-09
2.7713404e-08
-1.9055746e-09
2.8113227e-08
-1.8782903e-09
2.8519619e-08
-1.870488e-09
2.8928413e-08
-1.8650375e-09
2.9335206e-08
-1.860799e-09
2.9735506e-08
-1.8379054e-09
3.0142007e-08
-1.8386237e-09
3.0555021e-08
-1.8318204e-09
3.0946236e-08
-1.8035175e-09
3.1342229e-08
-1.7873663e-09
3.1755261e-08
-1.8122546e-09
3.2153475e-08
-1.7785167e-09
3.2541154e-08
-1.7544916e-09
3.2960552e-08
-1.7667247e-09
3.3349914e-08
-1.751437e-09
3.3730265e-08
-1.6931357e-09
3.4156441e-08
-1.7605484e-09
3.4534334e-08
-1.6989696e-09
3.4925837e-08
-1.6837504e-09
3.5325641e-08
-1.686353e-09
3.5727462e-08
-1.6908263e-09
3.6102697e-08
-1.629171e-09
3.6503824e-08
-1.6587867e-09
3.6887966e-08
-1.6198469e-09
-1.60178e-09
9.0273422e-09
-2.0699386e-09
9.3651413e-09
-2.093191e-09
9.6980392e-09
-2.1135123e-09
1.0046986e-08
-2.1381488e-09
1.0387444e-08
-2.1477474e-09
1.0745382e-08
-2.1675245e-09
1.109512e-08
-2.179936e-09
1.1460223e-08
-2.1928925e-09
1.1820605e-08
-2.2155157e-09
1.219228e-08
-2.2218323e-09
1.2562493e-08
-2.2444708e-09
1.294039e-08
-2.2500236e-09
1.3320164e-08
-2.2674977e-09
1.3703682e-08
-2.2744794e-09
1.4093234e-08
-2.2909238e-09
1.448252e-08
-2.2969434e-09
1.4881214e-08
-2.312893e-09
1.5276688e-08
-2.3210479e-09
1.5682442e-08
-2.3274131e-09
1.6086085e-08
-2.3412837e-09
1.6498365e-08
-2.3453455e-09
1.6907425e-08
-2.3573254e-09
1.7327006e-08
-2.3610186e-09
1.7745128e-08
-2.3745387e-09
1.8168599e-08
-2.3749873e-09
1.8590646e-08
-2.3802947e-09
1.9020097e-08
-2.386129e-09
1.9448818e-08
-2.3944818e-09
1.988671e-08
-2.3993553e-09
2.031861e-08
-2.4034275e-09
2.07553e-08
-2.3952299e-09
2.1192377e-08
-2.4028235e-09
2.1635615e-08
-2.4089036e-09
2.2073063e-08
-2.4021675e-09
2.2521904e-08
-2.4173972e-09
2.2965918e-08
-2.4139574e-09
2.3409864e-08
-2.3971057e-09
2.3850056e-08
-2.4006042e-09
2.4301126e-08
-2.4017723e-09
2.4747618e-08
-2.4066798e-09
2.5191226e-08
-2.3899865e-09
2.5646291e-08
-2.4033682e-09
2.6082839e-08
-2.3768455e-09
2.6539427e-08
-2.3911805e-09
2.6976953e-08
-2.375041e-09
2.7437768e-08
-2.3752215e-09
2.7865556e-08
-2.3548673e-09
2.8318912e-08
-2.3507941e-09
2.8768914e-08
-2.3735118e-09
2.9198119e-08
-2.3065348e-09
2.9672906e-08
-2.3803624e-09
3.009668e-08
-2.3020636e-09
3.054805e-08
-2.3218586e-09
3.0989254e-08
-2.3062411e-09
3.1436458e-08
-2.3080034e-09
3.1863912e-08
-2.2653589e-09
3.2301249e-08
-2.2759614e-09
3.2750131e-08
-2.2807024e-09
3.3153427e-08
-2.2068134e-09
3.3591993e-08
-2.2259325e-09
3.4077414e-08
-2.2976753e-09
3.4511816e-08
-2.2129183e-09
3.4929027e-08
-2.1717027e-09
3.5433705e-08
-2.2714029e-09
3.5821511e-08
-2.1392428e-09
3.6223712e-08
-2.0953366e-09
3.6727089e-08
-2.2639258e-09
3.707474e-08
-2.0466208e-09
3.7461863e-08
-2.070873e-09
3.7860454e-08
-2.0849437e-09
3.8258497e-08
-2.08887e-09
3.8528568e-08
-1.8992418e-09
3.8926669e-08
-2.0568876e-09
3.9164917e-08
-1.858095e-09
-1.8658416e-09
9.0687596e-09
-2.4198602e-09
9.4236031e-09
-2.4480345e-09
9.7830933e-09
-2.4730024e-09
1.0150931e-08
-2.5059866e-09
1.051839e-08
-2.5152059e-09
1.089839e-08
-2.5475246e-09
1.1275181e-08
-2.5567268e-09
1.1665613e-08
-2.5833248e-09
1.2053006e-08
-2.6029092e-09
1.245302e-08
-2.6218463e-09
1.2850426e-08
-2.6418767e-09
1.3259722e-08
-2.6593194e-09
1.3667281e-08
-2.675057e-09
1.4085185e-08
-2.6923827e-09
1.4503342e-08
-2.7090811e-09
1.4929557e-08
-2.7231587e-09
1.5359176e-08
-2.7425113e-09
1.5791785e-08
-2.753657e-09
1.6230998e-08
-2.7666264e-09
1.6674206e-08
-2.7844913e-09
1.7120823e-08
-2.7919626e-09
1.7569434e-08
-2.8059362e-09
1.8024753e-08
-2.8163382e-09
1.8485179e-08
-2.8349649e-09
1.8942225e-08
-2.8320325e-09
1.9407262e-08
-2.8453324e-09
1.9869438e-08
-2.8483047e-09
2.033944e-08
-2.8644835e-09
2.0812345e-08
-2.8722608e-09
2.1281519e-08
-2.8726009e-09
2.1750285e-08
-2.8639962e-09
2.2225086e-08
-2.8776251e-09
2.2697742e-08
-2.881559e-09
2.317e-08
-2.8744256e-09
2.3648106e-08
-2.8955028e-09
2.412261e-08
-2.8884623e-09
2.4596666e-08
-2.8711613e-09
2.5056271e-08
-2.8602092e-09
2.5544781e-08
-2.8902826e-09
2.6010058e-08
-2.8719562e-09
2.6487162e-08
-2.8670904e-09
2.6966596e-08
-2.8828023e-09
2.7424993e-08
-2.8352428e-09
2.7907714e-08
-2.8739016e-09
2.8350033e-08
-2.8173597e-09
2.8835652e-08
-2.8608408e-09
2.927346e-08
-2.7926747e-09
2.9791602e-08
-2.8689368e-09
3.0263543e-08
-2.845452e-09
3.0703535e-08
-2.7465271e-09
3.1241281e-08
-2.9181084e-09
3.1612721e-08
-2.6735039e-09
3.2070834e-08
-2.779972e-09
3.2437316e-08
-2.6727229e-09
3.2841059e-08
-2.7117457e-09
3.3027275e-08
-2.4515748e-09
3.319677e-08
-2.4454566e-09
3.3033271e-08
-2.1172037e-09
3.3000681e-08
-2.1742233e-09
3.3267028e-08
-2.4922791e-09
3.3770044e-08
-2.8006918e-09
3.4120849e-08
-2.5637232e-09
3.4066597e-08
-2.1174511e-09
3.4397654e-08
-2.6024595e-09
3.4546519e-08
-2.2881082e-09
3.4238356e-08
-1.7871729e-09
3.4588862e-08
-2.6144323e-09
3.4474824e-08
-1.9325824e-09
3.4179519e-08
-1.775568e-09
3.4144339e-08
-2.0497642e-09
3.39669e-08
-1.9114308e-09
3.3489859e-08
-1.4222006e-09
3.3427198e-08
-1.9942268e-09
3.2940225e-08
-1.3711219e-09
-1.4792697e-09
9.0431603e-09
-2.7916701e-09
9.4148854e-09
-2.8197596e-09
9.7981826e-09
-2.8562995e-09
1.0183756e-08
-2.8915601e-09
1.0576626e-08
-2.9080757e-09
1.0976496e-08
-2.9473952e-09
1.1379869e-08
-2.9600993e-09
1.1792664e-08
-2.9961197e-09
1.2207628e-08
-3.0178735e-09
1.2632356e-08
-3.0465743e-09
1.3058821e-08
-3.0683418e-09
1.3495667e-08
-3.0961653e-09
1.3933616e-08
-3.1130057e-09
1.4382581e-08
-3.1413479e-09
1.4831462e-08
-3.1579617e-09
1.529172e-08
-3.1834171e-09
1.5754175e-08
-3.2049665e-09
1.6219906e-08
-3.2193875e-09
1.6693817e-08
-3.2405377e-09
1.7171212e-08
-3.2618859e-09
1.7652332e-08
-3.2730827e-09
1.8131621e-08
-3.2852257e-09
1.8621495e-08
-3.3062125e-09
1.9111177e-08
-3.3246467e-09
1.9598628e-08
-3.319483e-09
2.0090382e-08
-3.3370861e-09
2.0577988e-08
-3.3359108e-09
2.1071206e-08
-3.3577019e-09
2.1567964e-08
-3.3690192e-09
2.2054521e-08
-3.3591579e-09
2.2540843e-08
-3.350318e-09
2.3035264e-08
-3.3720458e-09
2.3522374e-08
-3.3686687e-09
2.4014171e-08
-3.3662234e-09
2.4499356e-08
-3.3806871e-09
2.4985527e-08
-3.3746336e-09
2.5448291e-08
-3.3339252e-09
2.5931877e-08
-3.3437956e-09
2.6461424e-08
-3.4198292e-09
2.6928893e-08
-3.339425e-09
2.7401146e-08
-3.3393433e-09
2.7863816e-08
-3.3454722e-09
2.81959e-08
-3.1673272e-09
2.8554132e-08
-3.2321334e-09
2.8387184e-08
-2.6504117e-09
2.8328974e-08
-2.8026313e-09
2.8514659e-08
-2.9783597e-09
2.8904478e-08
-3.2587551e-09
2.9139827e-08
-3.0808018e-09
2.8996357e-08
-2.6030566e-09
2.921661e-08
-3.1383615e-09
2.895126e-08
-2.4081542e-09
2.8701583e-08
-2.5302944e-09
2.8407016e-08
-2.3781562e-09
2.8060567e-08
-2.3652968e-09
2.7381557e-08
-1.7725642e-09
2.6750479e-08
-1.8143795e-09
2.6174014e-08
-1.540738e-09
2.5230289e-08
-1.2304989e-09
2.4110341e-08
-1.3723305e-09
2.298673e-08
-1.6770806e-09
2.1839421e-08
-1.4164145e-09
2.0441597e-08
-7.1962769e-10
1.8987898e-08
-1.1487602e-09
1.7739303e-08
-1.0395127e-09
1.6519896e-08
-5.6776646e-10
1.5172545e-08
-1.2670811e-09
1.4158088e-08
-9.1812584e-10
1.3166701e-08
-7.8418064e-10
1.1865851e-08
-7.489144e-10
1.0832066e-08
-8.7764508e-10
9.6571114e-09
-2.4724645e-10
8.6498538e-09
-9.8696921e-10
8.1000239e-09
-8.2129197e-10
-1.0130533e-09
8.9626162e-09
-3.1827808e-09
9.3498994e-09
-3.2070429e-09
9.7545889e-09
-3.260989e-09
1.0156709e-08
-3.2936802e-09
1.0573082e-08
-3.3244483e-09
1.0991785e-08
-3.3660985e-09
1.1420452e-08
-3.3887664e-09
1.18547e-08
-3.4303675e-09
1.2296693e-08
-3.4598664e-09
1.2745283e-08
-3.4951652e-09
1.3201176e-08
-3.5242347e-09
1.3664849e-08
-3.5598376e-09
1.4133143e-08
-3.5813005e-09
1.4613117e-08
-3.6213219e-09
1.5090001e-08
-3.6348451e-09
1.5584482e-08
-3.6778984e-09
1.6073259e-08
-3.6937428e-09
1.6570978e-08
-3.7171065e-09
1.706773e-08
-3.7372897e-09
1.7575586e-08
-3.7697428e-09
1.8074592e-08
-3.7720886e-09
1.8576182e-08
-3.7868151e-09
1.9080151e-08
-3.8101818e-09
1.9585077e-08
-3.8295722e-09
2.0081927e-08
-3.816334e-09
2.0578815e-08
-3.8339736e-09
2.1077759e-08
-3.8348544e-09
2.1571406e-08
-3.8513495e-09
2.2075739e-08
-3.8733519e-09
2.2545348e-08
-3.8287667e-09
2.3049602e-08
-3.8545719e-09
2.3547473e-08
-3.8699171e-09
2.4042382e-08
-3.8635775e-09
2.4448263e-08
-3.7721046e-09
2.4870776e-08
-3.8032001e-09
2.4827671e-08
-3.331529e-09
2.4715508e-08
-3.2217622e-09
2.4966166e-08
-3.5944533e-09
2.5200831e-08
-3.6544939e-09
2.5178653e-08
-3.3172469e-09
2.5045933e-08
-3.2066234e-09
2.4714172e-08
-3.0137117e-09
2.4248577e-08
-2.7017323e-09
2.3554699e-08