/*--------------------------------*- C++ -*----------------------------------*\
| =========                 |                                                 |
| \\      /  F ield         | OpenFOAM: The Open Source CFD Toolbox           |
|  \\    /   O peration     | Version:  2.3.0                                 |
|   \\  /    A nd           | Web:      www.OpenFOAM.org                      |
|    \\/     M anipulation  |                                                 |
\*---------------------------------------------------------------------------*/
FoamFile
{
    version     2.0;
    format      ascii;
    class       volVectorField;
    location    "3.6e-05";
    object      U;
}
// * * * * * * * * * * * * * * * * * * * * * * * * * * * * * * * * * * * * * //

dimensions      [0 1 -1 0 0 0 0];

internalField   nonuniform List<vector> 
7500
(
(460.00494 -0.002551548 3.8894511e-17)
(460.00383 0.0098950576 4.2072888e-15)
(460.00691 1.8524229e-05 2.5935531e-15)
(459.98312 0.003168853 -8.7126304e-16)
(459.97123 -0.0054874236 2.759514e-15)
(459.97038 -0.0057234388 6.2084557e-15)
(459.96187 0.0061422527 2.2855775e-15)
(459.96879 -0.0042342697 4.9025597e-15)
(459.97885 0.0085709603 5.0132525e-15)
(459.96408 -0.0076440444 2.109599e-15)
(459.97899 0.0042285453 1.4282402e-15)
(459.95798 -0.0044654673 -1.4595917e-15)
(459.97572 0.0027565617 1.8754838e-15)
(459.96201 -0.00099783961 1.7386058e-15)
(459.97308 0.0028160168 1.3171446e-15)
(459.9699 -0.0039864752 1.2858552e-15)
(459.96447 0.0065708592 1.0105468e-15)
(459.9674 -0.0083013888 -1.670959e-15)
(459.95408 0.0098903436 1.3277865e-15)
(459.96993 -0.010015621 1.268064e-15)
(459.949 0.0086665002 -6.5563773e-16)
(459.97518 -0.0072903598 1.1886719e-15)
(459.9524 0.0052199796 8.0436987e-16)
(459.96967 -0.0017113112 -1.415468e-15)
(459.95934 -0.00076713461 1.1023848e-15)
(459.9675 0.0055889326 4.2275865e-16)
(459.95681 -0.011266005 1.8361742e-15)
(459.96318 0.016830483 -1.9069631e-15)
(459.95643 -0.019654872 -1.0264106e-15)
(459.95483 0.022155697 3.3695984e-15)
(459.95193 -0.02263487 -1.2543561e-15)
(459.94835 0.022279044 1.0822296e-15)
(459.96008 -0.018934981 8.8120707e-16)
(459.94437 0.01430669 -1.5305517e-15)
(459.95929 -0.0087925107 -2.923719e-16)
(459.93908 0.0019763848 1.094492e-15)
(459.95603 0.0031218188 -1.5831381e-15)
(459.94579 -0.0096654811 1.0552669e-15)
(459.95771 0.017758841 8.7427192e-16)
(459.94994 -0.016982615 1.0152058e-15)
(459.95812 0.015827565 8.356496e-16)
(459.94707 -0.014632865 6.5173703e-16)
(459.96054 0.0090799203 2.8420927e-15)
(459.94332 -0.0080414172 2.7473856e-15)
(459.95721 0.0035546734 5.5526028e-16)
(459.94881 0.0019610737 -1.2418515e-15)
(459.95667 -0.0015877226 -1.5746637e-15)
(459.96116 0.0057771107 -1.8040657e-15)
(459.96143 -0.0086436597 6.7882868e-16)
(459.9588 0.0057757723 6.9686075e-16)
(459.97276 -0.0070968654 7.601867e-16)
(459.95734 0.0029026894 2.7555578e-15)
(459.97474 -0.0029120027 8.7578284e-16)
(459.96077 0.000824296 7.1503943e-16)
(459.97767 0.00014308482 2.2596702e-16)
(459.96161 0.005111865 -1.5078934e-15)
(459.99064 -0.00049944736 4.9015657e-16)
(459.97866 -0.0012156383 7.8237463e-16)
(459.99105 0.0053008896 6.7350374e-16)
(459.97637 0.0022330117 2.6856879e-16)
(459.98067 -0.0045545026 4.8427958e-16)
(459.95943 -0.0057559272 2.4761401e-15)
(459.96045 0.0043037574 -1.1004406e-16)
(459.95171 0.0057739854 -1.5428914e-15)
(459.94947 -0.0026348669 -1.3064315e-15)
(459.93445 -0.0019867558 6.2713238e-16)
(459.95567 -0.0018317469 3.8455578e-16)
(459.94323 0.0025575901 4.0316105e-16)
(459.96151 0.0034493409 -5.9614743e-17)
(459.96295 -0.002153496 -1.3687689e-15)
(459.98731 -0.0026536056 -1.1669519e-15)
(459.97614 0.0014944493 7.0732638e-16)
(459.97934 0.0027526593 1.9439985e-15)
(459.97197 -0.0039370578 4.4526983e-16)
(459.97606 -0.0007081648 2.2834743e-15)
(460.0046 -0.004706406 -1.0201422e-16)
(460.00271 0.011689128 8.5186393e-17)
(460.00581 -0.00077515992 -1.1352646e-18)
(459.9813 0.0014316978 4.2983664e-17)
(459.96961 -0.0060243131 -8.773649e-17)
(459.9704 -0.0048254399 2.1923744e-16)
(459.96068 0.003622054 5.4364963e-17)
(459.96819 -0.001223836 3.1752972e-16)
(459.97701 0.0086030063 5.8092251e-17)
(459.96281 -0.0089463962 2.8085598e-16)
(459.9777 0.0084023876 2.270502e-16)
(459.95687 -0.011806694 2.4518088e-16)
(459.97448 0.01285312 2.393212e-16)
(459.96111 -0.013923631 -8.2208046e-16)
(459.97124 0.016631353 2.4963519e-16)
(459.96952 -0.014528164 -4.9330652e-16)
(459.96249 0.013127966 1.0347526e-16)
(459.96705 -0.012252437 3.3547983e-16)
(459.9523 0.011755226 1.1958539e-16)
(459.96903 -0.011653566 1.333714e-16)
(459.94754 0.010167318 2.6642213e-16)
(459.97382 -0.0064919963 4.3427195e-16)
(459.95136 -0.0010848067 1.923557e-17)
(459.96782 0.0091423464 1.0203935e-15)
(459.95896 -0.016707938 1.8138463e-16)
(459.96522 0.022889082 3.6681828e-16)
(459.95741 -0.027160943 -5.9520391e-16)
(459.96123 0.031938046 -4.1686061e-16)
(459.95691 -0.032475623 1.2110662e-15)
(459.95341 0.031948017 1.5651811e-16)
(459.95188 -0.028653361 1.2599364e-16)
(459.94739 0.024751676 4.2530644e-16)
(459.95875 -0.017467774 2.5124079e-16)
(459.94403 0.010657539 1.6608745e-16)
(459.95713 -0.0051748077 1.1937514e-16)
(459.93932 -0.0039844174 -2.1520286e-18)
(459.95414 0.010522837 2.9580335e-17)
(459.94697 -0.016575693 -4.5752773e-16)
(459.95678 0.022048767 1.7080268e-16)
(459.94973 -0.020044734 1.8894181e-16)
(459.95834 0.018432349 -1.4588974e-16)
(459.94619 -0.01490001 -4.6347091e-16)
(459.96083 0.0080241422 3.2382869e-17)
(459.9423 -0.0061554137 3.8386457e-16)
(459.95746 0.0018529525 1.8540013e-16)
(459.94805 0.0017880603 -4.4278975e-16)
(459.95631 -0.0031613769 1.6049392e-16)
(459.96079 0.0098259007 -5.2573417e-16)
(459.96097 -0.015074217 1.0282709e-16)
(459.9597 0.010279712 1.4175915e-16)
(459.97204 -0.0085689891 2.025478e-16)
(459.95819 0.0061781126 -4.0689833e-16)
(459.97394 -0.0055841757 1.2729417e-16)
(459.96088 -0.0020056751 -3.99119e-16)
(459.97751 -0.0018969454 2.7708855e-16)
(459.96108 0.0048712409 3.6130235e-16)
(459.98953 0.0025076096 2.1149835e-16)
(459.97908 -0.001042795 1.245755e-16)
(459.99117 0.0053120818 1.7787379e-16)
(459.97517 0.0022004617 -5.8028841e-16)
(459.97893 -0.0042865894 1.2018898e-16)
(459.95994 -0.0040000098 1.7729464e-16)
(459.9597 0.0029038645 1.6382565e-16)
(459.94959 0.0048282853 1.2103206e-16)
(459.94532 0.0015129929 -2.7162424e-16)
(459.93251 -0.00053042384 3.0100768e-16)
(459.95244 -0.0050075373 -4.8573694e-16)
(459.94156 -0.0027004967 1.7662735e-16)
(459.95737 0.0027230375 1.6069994e-16)
(459.95982 -0.00075095227 1.4262017e-16)
(459.98429 0.00054666542 7.4504045e-16)
(459.97392 0.0023375196 -4.7418349e-16)
(459.97491 0.0022349925 1.6457032e-16)
(459.96817 -0.0050175754 1.6333966e-16)
(459.97205 -0.0010180197 2.2400585e-16)
(459.98899 -0.0063290173 -4.3224821e-18)
(460.01288 0.01713393 -9.7129597e-16)
(459.99199 -0.0090344269 1.3889549e-16)
(459.98772 0.0082218391 6.1030961e-17)
(459.95867 -0.016525977 -6.5324632e-17)
(459.9761 0.0038458303 7.059414e-16)
(459.95255 -0.0045009136 3.3543267e-17)
(459.97185 0.00531037 5.3487662e-17)
(459.96918 0.0054485779 5.9707324e-17)
(459.96437 -0.0086761355 -1.1934312e-16)
(459.97115 0.011961697 -1.0378483e-16)
(459.95783 -0.020369295 -4.9090773e-16)
(459.96867 0.02306614 -4.3942794e-16)
(459.96162 -0.026133434 4.2501381e-16)
(459.96665 0.029681545 6.7091214e-16)
(459.96909 -0.027846477 -7.0245169e-16)
(459.95899 0.028722674 6.6839186e-16)
(459.96704 -0.02981165 -1.1281272e-17)
(459.94849 0.027678985 1.5485949e-16)
(459.96843 -0.023213699 -1.2312168e-16)
(459.94362 0.015700795 -9.5070147e-18)
(459.97046 -0.0050031139 4.7300495e-16)
(459.94849 -0.0083218956 5.8979017e-16)
(459.96293 0.018957955 -8.8467597e-17)
(459.95651 -0.029928477 3.7852363e-17)
(459.96164 0.038378417 -1.4476373e-16)
(459.95591 -0.044147637 -3.0751742e-16)
(459.95936 0.050029692 -4.2546835e-17)
(459.95617 -0.048431316 -5.572083e-16)
(459.95336 0.045381506 4.2055199e-16)
(459.9507 -0.039665847 -2.6247191e-17)
(459.94773 0.033844333 4.0752046e-17)
(459.9559 -0.022797369 -3.1172488e-16)
(459.94357 0.01336944 -1.0855926e-16)
(459.95355 -0.0051627607 -3.2030138e-17)
(459.93985 -0.0085858095 1.9946748e-17)
(459.95165 0.015652493 -3.6023216e-16)
(459.94839 -0.021687432 -5.7618827e-16)
(459.95736 0.025648737 -1.7812595e-17)
(459.95109 -0.021916246 -1.5485278e-17)
(459.96072 0.01970341 1.5554503e-16)
(459.94678 -0.015208468 -2.6743251e-17)
(459.96282 0.0089462265 -4.6018764e-16)
(459.94282 -0.0072521566 -6.3227781e-17)
(459.95782 0.0021576742 5.6017276e-17)
(459.9487 0.00019394324 1.2190468e-16)
(459.95669 -0.0046089274 3.5402458e-16)
(459.96138 0.013649191 4.500101e-16)
(459.96072 -0.018905201 -3.1100039e-16)
(459.96357 0.014544866 -1.0108265e-16)
(459.97141 -0.012975932 6.0673237e-16)
(459.96027 0.0091514216 7.1513519e-16)
(459.97217 -0.0074983117 -2.927928e-17)
(459.96121 -0.003294041 -7.1871737e-18)
(459.9777 -0.0053070613 -5.3545685e-17)
(459.96059 0.0050265684 4.2327735e-16)
(459.98836 0.0021496196 -8.8348386e-16)
(459.97791 -0.0013573455 3.1785673e-17)
(459.99103 0.0068772223 1.5038228e-16)
(459.97274 0.0028679656 -4.00661e-16)
(459.97627 -0.003014036 -4.63761e-16)
(459.9581 -0.0020278452 -4.5241979e-16)
(459.95538 0.0036752568 6.8328367e-17)
(459.94472 0.0031996267 8.9604047e-17)
(459.93648 0.0038728753 -3.4226341e-16)
(459.92401 0.0010718479 -7.5958216e-16)
(459.94192 -0.006135249 -3.7448128e-17)
(459.93448 -0.0057585749 4.607812e-17)
(459.94864 0.00075797981 5.1523344e-17)
(459.95172 -0.0022179028 6.8347759e-18)
(459.97596 0.0023876424 8.0776362e-17)
(459.96561 0.0015282758 -7.5414618e-18)
(459.96464 0.0025351976 3.4010309e-19)
(459.95872 -0.0040623856 4.2005456e-16)
(459.96193 -0.00097032715 3.8316611e-16)
(459.91393 -0.00858669 -5.412722e-18)
(460.07432 0.027119284 -9.4255774e-17)
(459.92603 -0.019994513 -5.3535309e-16)
(460.03778 0.018802801 -5.0160756e-16)
(459.90465 -0.028454193 -8.5882488e-17)
(460.01679 0.013071812 -5.5396747e-16)
(459.91103 -0.010485948 4.7043936e-17)
(460.0021 0.0096924548 1.0282764e-16)
(459.93578 0.0047485008 5.3718912e-17)
(459.9862 -0.0095343566 -5.5359911e-16)
(459.94395 0.015551303 -5.2257264e-16)
(459.97448 -0.027080182 6.9974662e-16)
(459.94664 0.032106823 5.7055784e-16)
(459.97448 -0.037558753 4.1628056e-16)
(459.94911 0.044381179 3.4144978e-16)
(459.97955 -0.044369008 -4.0400028e-17)
(459.94501 0.047965647 1.058011e-16)
(459.975 -0.047906004 1.1709588e-16)
(459.93811 0.043639917 -4.4314736e-16)
(459.97116 -0.03528468 4.5627294e-17)
(459.93462 0.024850098 -6.0414335e-17)
(459.96814 -0.010177509 6.2829195e-16)
(459.93898 -0.0057786311 -5.4495777e-17)
(459.95881 0.018983412 -3.8157174e-17)
(459.94806 -0.033242227 4.1761948e-16)
(459.95875 0.044771191 3.8709092e-17)
(459.95065 -0.054259256 -3.4862927e-16)
(459.96038 0.062468974 -9.3874277e-17)
(459.95315 -0.061642066 3.0282443e-16)
(459.9577 0.060019841 -1.8916723e-16)
(459.94897 -0.054408736 3.1184628e-16)
(459.95242 0.048223074 8.8546086e-18)
(459.95234 -0.033429134 -8.7767433e-18)
(459.94682 0.023152634 4.3857535e-16)
(459.94879 -0.012965873 -7.9363844e-17)
(459.94306 -0.0049341645 -2.808039e-18)
(459.94974 0.0096774458 1.0173212e-17)
(459.95232 -0.016954017 -3.3071405e-16)
(459.9603 0.023632312 3.6537727e-16)
(459.956 -0.021083919 -3.1900304e-17)
(459.96677 0.01967584 -3.2044551e-17)
(459.95256 -0.016603561 2.5137512e-17)
(459.9685 0.011665923 -3.1514398e-17)
(459.94803 -0.010978589 2.6524766e-17)
(459.96125 0.0049403167 -4.6113214e-17)
(459.95264 -0.0031992937 -4.2214803e-17)
(459.95901 -0.0021845974 -2.9121298e-17)
(459.96438 0.011572339 -2.7092033e-17)
(459.96079 -0.016995387 1.0308579e-17)
(459.9683 0.018580795 3.4507129e-16)
(459.9704 -0.01774794 -6.2947352e-17)
(459.96357 0.011350181 4.7082832e-17)
(459.96928 -0.010488045 3.149073e-16)
(459.96053 -0.00062405964 -6.3620449e-17)
(459.97571 -0.009098375 -5.6101273e-17)
(459.95771 0.0059354233 4.5595339e-17)
(459.9833 0.0001500991 -2.0911539e-16)
(459.97321 -0.0016849842 2.5740645e-18)
(459.98627 0.0070441494 2.4908764e-16)
(459.96483 0.0037690026 3.3966596e-17)
(459.96816 -0.0022734616 -4.9835652e-17)
(459.95019 0.00019923548 6.3111816e-18)
(459.94463 0.0075133446 -2.4376478e-16)
(459.93267 0.0039341756 -2.5379144e-16)
(459.92137 0.0048898624 2.7933385e-16)
(459.90776 0.0006066455 -1.0971359e-16)
(459.92398 -0.0058615258 2.9902497e-16)
(459.91878 -0.005349674 1.1300889e-16)
(459.93222 -0.0011419391 -3.7982773e-16)
(459.93619 -0.0041828797 -2.9034729e-16)
(459.96089 0.0029073831 3.6189798e-16)
(459.9506 -0.00018576549 5.9131705e-17)
(459.94851 0.0022123966 2.7272284e-19)
(459.94294 -0.0021942836 -6.3478231e-17)
(459.94518 -0.00033664942 -2.9973512e-16)
(459.72892 -0.010947189 -1.8707385e-17)
(460.25181 0.039215041 6.8973575e-18)
(459.74876 -0.026329104 3.0023484e-16)
(460.20045 0.0231583 -2.3146517e-17)
(459.74863 -0.032360493 -5.1314259e-17)
(460.15777 0.015492102 -5.6542577e-17)
(459.78117 -0.010065624 -7.5455973e-17)
(460.11903 0.0092201017 -3.9615392e-16)
(459.82589 0.009536446 -6.3023765e-18)
(460.08363 -0.014990769 -4.1268704e-17)
(459.84948 0.023043716 -4.4564047e-16)
(460.05714 -0.035665249 -2.0353007e-17)
(459.86571 0.042564243 -4.482357e-17)
(460.04322 -0.048416052 -2.9204465e-17)
(459.88227 0.05543739 6.8377491e-17)
(460.03428 -0.052593121 -9.9961445e-18)
(459.89183 0.05337584 3.8209885e-16)
(460.01657 -0.050557938 1.4621289e-17)
(459.89572 0.047128621 -1.8874252e-17)
(460.00054 -0.039800401 3.525467e-16)
(459.89911 0.031843439 3.8063574e-16)
(459.98669 -0.017186665 -6.1550691e-17)
(459.90817 0.00073353129 -3.0509208e-18)
(459.97105 0.015246767 3.6984122e-18)
(459.92147 -0.032006395 -4.7047042e-17)
(459.96968 0.043228998 2.9752133e-16)
(459.92946 -0.054096314 8.5534436e-17)
(459.97301 0.063038158 -3.8477615e-17)
(459.93693 -0.064348438 -6.1891444e-17)
(459.97191 0.063258462 -2.9306866e-16)
(459.9366 -0.058790956 3.4785695e-16)
(459.96684 0.05605514 2.0853987e-16)
(459.94073 -0.041234897 3.0291568e-16)
(459.95798 0.03511876 -2.8610455e-16)
(459.93794 -0.02759929 -3.0638249e-16)
(459.95161 0.008254141 -3.3284009e-16)
(459.94246 -0.005894791 -2.1834776e-16)
(459.95948 -0.0039274266 -3.5241568e-17)
(459.95642 0.014996301 7.4705708e-17)
(459.96259 -0.014711358 3.1023262e-17)
(459.96714 0.015709916 3.3215609e-17)
(459.9602 -0.015532727 3.1238415e-16)
(459.96999 0.012336694 1.3395359e-17)
(459.95502 -0.013518498 3.5055646e-16)
(459.96069 0.0079410743 -2.8977609e-16)
(459.95644 -0.0080457346 -4.1366268e-17)
(459.95546 0.0033216083 2.6711995e-16)
(459.96345 0.0049555475 2.6934711e-16)
(459.95433 -0.012227219 2.0168508e-16)
(459.96553 0.020280098 -2.3903876e-16)
(459.96031 -0.017208186 3.0439143e-16)
(459.95936 0.013591403 2.2672398e-16)
(459.9571 -0.014554949 3.0210245e-17)
(459.95251 0.0025461459 2.5447424e-16)
(459.96228 -0.012398221 3.4169008e-17)
(459.9469 0.0069410678 -2.4664426e-16)
(459.96496 -0.00016566585 -2.6560192e-16)
(459.95884 0.0013272274 1.9190747e-16)
(459.96745 0.0042232006 7.8593153e-17)
(459.94723 0.0034642429 2.7203339e-16)
(459.94801 -0.0036527993 -1.4022496e-17)
(459.93478 0.0017238095 6.9537186e-18)
(459.92605 0.011568584 1.9339282e-16)
(459.91504 0.0075805183 -7.2917538e-18)
(459.90256 0.0088291226 2.3901533e-16)
(459.88841 -0.0017987547 -2.0685844e-16)
(459.90555 -0.0065809502 2.222547e-18)
(459.90065 -0.0046991649 -7.7731605e-17)
(459.91469 -0.0050098512 -1.9738535e-16)
(459.91872 -0.0023898617 7.4594531e-17)
(459.94453 0.00397111 4.6937683e-17)
(459.93393 -0.0019285808 2.2137768e-16)
(459.93246 -0.00028698783 -1.9754629e-16)
(459.92749 -0.0018057965 -1.4807542e-17)
(459.92988 0.0009787914 3.1416728e-18)
(459.53534 -0.015176053 1.6952293e-17)
(460.49676 0.054947374 -2.8721776e-16)
(459.5106 -0.034512176 5.6390813e-17)
(460.46791 0.028295994 -1.5306604e-17)
(459.49926 -0.037536393 -1.5841319e-16)
(460.41988 0.018908756 4.1809913e-16)
(459.53642 -0.010897121 -1.5728088e-16)
(460.36655 0.0097836533 -1.5641259e-16)
(459.58473 0.012014893 7.3079636e-18)
(460.31958 -0.019738309 3.6339345e-16)
(459.6138 0.028533762 -3.2259501e-16)
(460.27875 -0.042805806 3.3555361e-16)
(459.64345 0.047741308 -7.5202355e-18)
(460.2398 -0.051564662 -3.2457132e-16)
(459.6834 0.055954776 -3.2711015e-17)
(460.19882 -0.051763896 -4.2970777e-19)
(459.71994 0.051552354 3.2727378e-17)
(460.151 -0.050226837 4.9423894e-17)
(459.74938 0.04747597 -2.5367844e-17)
(460.1086 -0.039301394 9.1367708e-17)
(459.77661 0.0317123 3.6126654e-16)
(460.07317 -0.01743235 8.2316412e-18)
(459.80493 0.0033109334 -6.5790968e-17)
(460.04249 0.009724532 4.105897e-17)
(459.83128 -0.023843121 -3.8326114e-17)
(460.03027 0.030140329 8.4371441e-17)
(459.85067 -0.038821972 3.5488334e-16)
(460.02322 0.04555869 -5.9309877e-17)
(459.86883 -0.048988703 -2.1469785e-16)
(460.0147 0.048002277 1.4503243e-17)
(459.88026 -0.049645107 4.3003358e-17)
(460.0045 0.055140913 -1.9201782e-16)
(459.89293 -0.043829586 -1.6094929e-17)
(459.98981 0.043960616 3.613166e-17)
(459.89637 -0.040360911 2.7600668e-16)
(459.97709 0.02212433 -9.4151475e-18)
(459.90633 -0.023465722 4.4872554e-17)
(459.97702 0.013625439 2.4649358e-17)
(459.92324 -0.0024320092 2.1299079e-16)
(459.97298 0.0021130832 -1.6741039e-16)
(459.93859 0.0028016631 -1.380504e-16)
(459.96924 -0.0076570487 3.5280879e-17)
(459.94541 0.0069636551 6.7447285e-17)
(459.96317 -0.010591809 2.7633571e-16)
(459.93803 0.0066930282 8.1882916e-18)
(459.96068 -0.0095084621 2.5608056e-16)
(459.93306 0.0058636065 1.5653355e-17)
(459.96026 -0.00098547084 6.9230883e-17)
(459.93186 -0.0060714076 6.5506828e-17)
(459.958 0.016310636 -8.5476656e-18)
(459.9351 -0.010586139 2.2118322e-16)
(459.94913 0.014805447 5.6270151e-17)
(459.9307 -0.01716798 -1.7587289e-16)
(459.94121 0.0048657896 9.0661059e-17)
(459.93587 -0.014483394 2.1890697e-16)
(459.93531 0.0076596301 -1.8645269e-16)
(459.93583 -0.0022047553 6.1033468e-17)
(459.94461 0.0085279395 1.8444142e-16)
(459.93852 0.00036787888 5.0263371e-17)
(459.93249 0.0043729065 -1.0789559e-16)
(459.92228 -0.0059605914 -1.212742e-16)
(459.92536 0.0016524626 7.5310827e-18)
(459.90734 0.011726778 1.8180864e-16)
(459.90577 0.011626591 5.7952962e-17)
(459.8867 0.013130332 -2.8880341e-16)
(459.87774 -0.0035196179 2.247364e-16)
(459.89252 -0.0054698436 -1.5500998e-16)
(459.89005 -0.0059679793 5.3718608e-17)
(459.90012 -0.010954717 2.0065737e-16)
(459.9063 0.0018518656 -1.415366e-17)
(459.92613 0.0046629996 2.0828567e-17)
(459.91657 -0.0052447031 5.2664263e-17)
(459.9123 -0.0044927014 5.3071435e-17)
(459.9093 -0.0047942548 -8.5068732e-17)
(459.90888 0.0020286027 4.2316278e-17)
(459.70966 -0.021736168 7.1648869e-18)
(460.43787 0.069899414 -2.3419102e-16)
(459.54626 -0.044838337 -4.0799073e-17)
(460.50897 0.035700219 2.1244516e-16)
(459.42125 -0.046390457 2.4789771e-17)
(460.53609 0.02602778 -1.4381284e-17)
(459.36136 -0.015821243 7.3264709e-17)
(460.55091 0.014518043 -4.3758362e-17)
(459.32033 0.0081529263 -1.4808327e-16)
(460.57231 -0.018281228 2.3734993e-16)
(459.27746 0.026813975 2.9540239e-17)
(460.58007 -0.042457912 -5.7072845e-18)
(459.26835 0.046077679 3.9322931e-16)
(460.55411 -0.04981881 -3.2345305e-16)
(459.30606 0.05659793 7.412593e-18)
(460.49944 -0.054662697 -9.4825921e-18)
(459.36507 0.055306849 7.6932129e-17)
(460.42725 -0.052949026 7.988154e-18)
(459.43029 0.046855853 -2.2259782e-16)
(460.35766 -0.03663193 6.6185754e-17)
(459.49652 0.030172524 -1.6731289e-17)
(460.29849 -0.019478525 3.8567447e-17)
(459.55862 0.010683305 8.6646245e-17)
(460.24885 -0.0041072015 8.69728e-17)
(459.61042 -0.0066285596 -2.5467159e-16)
(460.21664 0.009074011 2.7376955e-16)
(459.65339 -0.014057749 1.3160513e-16)
(460.18445 0.019018597 -2.436427e-16)
(459.69611 -0.027132167 -1.6738577e-16)
(460.153 0.027779584 -1.9227289e-16)
(459.73442 -0.036030718 2.6001803e-16)
(460.1275 0.046302561 4.7418729e-17)
(459.76692 -0.037583396 6.6567029e-18)
(460.10078 0.043658121 1.3462206e-16)
(459.78759 -0.044812117 -7.8599184e-19)
(460.07394 0.030456802 -1.8641614e-16)
(459.81343 -0.04031491 2.7394564e-16)
(460.05652 0.035379488 2.5243982e-16)
(459.83988 -0.026371843 4.4553288e-17)
(460.03734 0.025292606 3.7981151e-17)
(459.86315 -0.018074948 7.3142666e-18)
(460.02577 0.0091975476 -1.9154038e-16)
(459.87939 -0.0072831064 2.670154e-16)
(460.01459 0.0019192855 2.3028186e-16)
(459.88087 -0.0040887481 4.1295966e-17)
(460.00597 -0.0021582687 2.557821e-16)
(459.88364 0.0021077792 5.9888974e-17)
(459.99564 -0.0040754197 2.0388631e-16)
(459.88895 -0.00075921892 2.4387032e-16)
(459.98387 0.009077399 -1.2302807e-16)
(459.89337 -0.0012648069 2.0839758e-18)
(459.96503 0.011572539 2.4287872e-17)
(459.8875 -0.017451406 9.3112093e-17)
(459.95183 0.0094262391 1.4630094e-16)
(459.89238 -0.016104055 -1.4625784e-16)
(459.94013 0.0075907733 -6.8881628e-17)
(459.89041 -0.0073414595 2.5203522e-17)
(459.94081 0.017067691 -2.1951849e-17)
(459.88764 -0.007636323 -3.043256e-17)
(459.91933 0.0092104338 -1.7083308e-16)
(459.86609 -0.0078799368 6.5918942e-17)
(459.90395 0.0044049496 1.3469769e-17)
(459.84644 0.0077198795 -1.2664349e-16)
(459.86873 0.017817924 4.0734769e-17)
(459.81224 0.010951012 2.5050322e-17)
(459.82091 -0.0031425528 2.0410017e-16)
(459.80319 0.0025253254 -1.27601e-16)
(459.81317 -0.011233704 1.467586e-16)
(459.79122 -0.016551496 -1.4209101e-16)
(459.80891 0.0077663696 -1.8861293e-16)
(459.79246 0.0016003024 7.4202372e-18)
(459.79098 -0.0089773348 3.5834304e-17)
(459.75757 -0.0085857774 -9.4274318e-17)
(459.7607 -0.011527667 5.2122752e-17)
(459.73233 0.0010668073 1.6927763e-16)
(460.36334 -0.023729813 1.9192015e-17)
(459.74102 0.07780505 -1.6730579e-16)
(460.1457 -0.048773097 2.2663721e-16)
(459.85775 0.038002545 -5.9970527e-19)
(459.91021 -0.049965837 -1.5145993e-16)
(459.99878 0.031895113 6.0710845e-17)
(459.69552 -0.020775507 8.067744e-17)
(460.1789 0.023919249 6.1283355e-17)
(459.47295 -0.0020605157 2.2273396e-16)
(460.39347 -0.0067045429 1.665277e-18)
(459.24891 0.015531823 3.092361e-16)
(460.5858 -0.031936774 5.3904357e-17)
(459.09079 0.03834103 4.9732715e-17)
(460.70467 -0.044798942 -1.1562542e-16)
(459.03144 0.055113343 8.4749915e-17)
(460.74808 -0.053867687 2.1792935e-17)
(459.04171 0.05333202 7.0478402e-17)
(460.73676 -0.05015779 4.2372111e-18)
(459.09185 0.044269132 -1.9444655e-16)
(460.69951 -0.037641275 1.0539185e-16)
(459.1598 0.033821919 1.3428836e-17)
(460.65697 -0.028063144 2.7110836e-16)
(459.22726 0.02256035 8.6449042e-17)
(460.61836 -0.01883192 -2.5555427e-16)
(459.28417 0.0062191318 -2.198718e-16)
(460.58618 -0.0044113929 5.8372527e-17)
(459.34117 0.002929343 5.1804439e-17)
(460.53385 0.0023575202 2.8117054e-16)
(459.40948 -0.012420894 2.9045547e-16)
(460.47417 0.0078920921 -1.9127308e-16)
(459.47874 -0.017349855 8.6181178e-18)
(460.42302 0.030874179 2.1610386e-17)
(459.5351 -0.024999126 3.1670709e-17)
(460.37359 0.037065733 -2.3062532e-16)
(459.57681 -0.042419082 1.726459e-17)
(460.32233 0.030319385 -1.3873725e-16)
(459.62497 -0.04722548 3.4296351e-17)
(460.2775 0.048148387 -1.8147429e-16)
(459.66428 -0.041144224 5.7197328e-17)
(460.23174 0.042697342 4.1406527e-16)
(459.69545 -0.039041435 3.4113627e-17)
(460.19589 0.029579366 7.6737195e-18)
(459.71692 -0.025537717 2.2132603e-17)
(460.1593 0.020442398 2.0113684e-16)
(459.7223 -0.020147591 -1.6310962e-16)
(460.12229 0.01053742 2.9109911e-17)
(459.72541 -0.0096823673 -1.8610463e-16)
(460.0767 -0.0003181365 4.0469953e-17)
(459.72834 -0.0021037802 2.3383234e-17)
(460.02633 0.0049311689 7.110369e-17)
(459.72006 0.0058925898 -9.638492e-18)
(459.96279 0.0046817264 -1.2046714e-16)
(459.69254 -0.016392098 1.261622e-17)
(459.90764 0.018294641 4.6409365e-17)
(459.6689 -0.018603031 1.7457059e-17)
(459.84842 0.0079614186 3.3733478e-18)
(459.63586 -0.012185333 -1.3281772e-16)
(459.7943 0.025674776 -7.5656789e-17)
(459.58744 -0.02018968 1.8650507e-16)
(459.71345 0.014989681 1.6103734e-17)
(459.51395 -0.012395597 1.3681441e-16)
(459.6295 0.011531889 -1.3097173e-16)
(459.43753 0.0043513432 2.3095048e-17)
(459.51551 0.034815297 -3.2936628e-17)
(459.33231 0.00047927772 -1.4888997e-16)
(459.38507 0.0022888643 -1.1962835e-16)
(459.24744 0.014228898 -5.5358398e-18)
(459.28772 -0.015165997 -6.8815429e-17)
(459.15602 -0.017340012 -1.1293521e-16)
(459.20103 0.022521373 -1.139186e-16)
(459.06928 -0.0022833568 4.1182497e-17)
(459.09034 -0.0042917969 1.1071003e-16)
(458.95111 -0.0061586416 -1.5656877e-17)
(458.96782 -0.012148907 1.4201863e-17)
(458.83785 0.0019064137 1.3956588e-16)
(460.5345 -0.015395676 1.5775679e-19)
(459.16416 0.07751149 2.1683663e-16)
(460.65836 -0.043668274 -2.9216387e-17)
(459.01635 0.033621356 4.5113525e-17)
(460.65652 -0.045525013 1.3051088e-16)
(459.04719 0.034259346 -1.1322035e-16)
(460.54375 -0.023859591 8.4526326e-17)
(459.24314 0.03501599 3.9330233e-17)
(460.3128 -0.017197916 1.127209e-16)
(459.56414 0.011415829 1.9565129e-16)
(459.99987 -0.003953213 -4.2846614e-17)
(459.92951 -0.013838599 1.7564448e-17)
(459.69606 0.021352283 2.0198264e-16)
(460.25537 -0.030041712 1.7275797e-16)
(459.46807 0.039067249 -6.5548714e-18)
(460.49994 -0.040027424 1.1595605e-19)
(459.31723 0.039541253 1.5825129e-17)
(460.66228 -0.042284651 -9.8267184e-17)
(459.22867 0.041898515 2.9449805e-16)
(460.75958 -0.041411748 1.3304463e-17)
(459.18067 0.03784084 4.2327683e-17)
(460.82389 -0.033761876 -3.0381592e-17)
(459.14178 0.02840269 4.4181344e-18)
(460.87909 -0.024562619 2.2986706e-19)
(459.10279 0.0086842837 2.373961e-16)
(460.91791 -0.0081352142 -5.5195162e-17)
(459.09288 0.012429845 -2.3120776e-16)
(460.89517 -0.0079074064 2.5033574e-16)
(459.12532 0.0013537696 3.8600212e-17)
(460.839 -0.013037534 -1.9162339e-16)
(459.17958 0.0015514599 1.6788333e-17)
(460.77514 0.01700059 -3.9803919e-17)
(459.21852 -0.011432338 2.4811043e-16)
(460.70986 0.026443507 -2.4919115e-17)
(459.23813 -0.028691992 -1.5717773e-16)
(460.63732 0.013754791 -1.5688092e-16)
(459.26597 -0.031468475 4.7643812e-17)
(460.56119 0.036862529 1.7524326e-16)
(459.27416 -0.033073308 -3.7975801e-18)
(460.47248 0.040659467 -4.3482922e-18)
(459.26656 -0.043926583 2.5587889e-17)
(460.37957 0.040568272 -2.3655432e-17)
(459.24449 -0.03581614 5.8996967e-17)
(460.26587 0.037155451 -1.2986487e-17)
(459.20439 -0.031299749 9.6550098e-18)
(460.13231 0.026703224 3.5945126e-17)
(459.14998 -0.029929996 1.4266198e-17)
(459.9758 0.016263318 -4.2730275e-17)
(459.0807 -0.015824242 -8.1935894e-17)
(459.80332 0.012183054 5.8540374e-17)
(458.98513 0.0089403219 8.9002706e-18)
(459.59832 -0.00015628834 1.2276776e-16)
(458.85464 -0.0097312408 -1.1291702e-16)
(459.39524 0.027459199 -1.9009662e-17)
(458.7044 -0.016086418 4.6551371e-18)
(459.17451 0.0098807036 -1.6585156e-17)
(458.53744 -0.0076692095 -1.2336246e-16)
(458.94212 0.030553343 -1.1827232e-16)
(458.32699 -0.027592264 -1.4975244e-16)
(458.67327 0.023897824 1.2409593e-17)
(458.08274 -0.018898114 -2.3050978e-17)
(458.37961 0.016594512 -1.0109974e-18)
(457.82896 0.0036819976 -1.3405794e-16)
(458.04206 0.063953797 -1.3901792e-16)
(457.52422 -0.010766427 -5.0575109e-18)
(457.68585 0.026671657 -9.6168014e-18)
(457.23395 0.020903728 -2.6923449e-17)
(457.3451 -0.012214421 -1.4226165e-16)
(456.93198 -0.0080696537 -1.3142667e-16)
(457.03413 0.04296252 7.7391161e-18)
(456.6217 -0.00052141233 -1.2894516e-17)
(456.69 0.016038001 -1.5097346e-16)
(456.28928 0.0055270095 -2.6012771e-17)
(456.32821 0.0046529537 -2.2717646e-17)
(455.94939 0.011459052 -1.3314121e-17)
(459.3765 -0.0017356846 -8.2029419e-17)
(460 0.06734483 -1.1490964e-16)
(459.96256 -0.03245652 -1.6195904e-16)
(459.46887 0.020518021 -2.2818874e-16)
(460.45968 -0.035055796 6.1112692e-17)
(459.11797 0.027933302 -7.4225883e-17)
(460.79068 -0.021922361 -8.1600281e-17)
(458.9678 0.037555279 9.1636353e-17)
(460.92764 -0.027232404 1.2414412e-16)
(458.99979 0.022285535 -1.9600229e-16)
(460.89059 -0.019987296 -1.2997955e-17)
(459.17039 0.0033262216 -2.1138789e-17)
(460.73174 -0.00014989235 1.4319847e-16)
(459.41962 -0.0075723765 1.2575502e-16)
(460.51084 0.014826732 3.8613278e-17)
(459.68353 -0.020444909 -2.4985117e-17)
(460.2748 0.021722305 3.3991049e-17)
(459.92315 -0.030282818 -7.1989772e-18)
(460.05385 0.036239523 4.0676713e-17)
(460.12374 -0.03811034 -2.9790387e-17)
(459.8525 0.033535839 6.8282632e-17)
(460.30495 -0.02885603 -4.6037279e-18)
(459.64246 0.026986538 2.9134964e-17)
(460.48921 -0.024894384 2.3050596e-17)
(459.42638 0.0089888425 -1.5737638e-16)
(460.64765 -0.0098269242 -2.9791608e-18)
(459.26134 0.020875054 6.2651823e-17)
(460.70779 -0.014067024 2.1564214e-16)
(459.16324 0.0092218099 2.0614485e-17)
(460.70957 -0.023697889 4.1316684e-17)
(459.09932 0.01318679 9.2955859e-17)
(460.67754 0.005909119 -3.4899786e-18)
(459.00892 0.0032199377 -1.6992789e-16)
(460.62485 0.014802375 1.9329244e-16)
(458.8815 -0.0057516663 6.2154146e-17)
(460.54699 -0.0093711298 1.1487935e-17)
(458.74554 -0.00080132719 3.7827875e-17)
(460.44012 0.011906654 1.0240116e-17)
(458.56127 -0.0051308089 1.7494265e-16)
(460.28137 0.021531304 3.041864e-17)
(458.34753 -0.027142859 1.2081521e-17)
(460.06843 0.040827556 1.7921286e-16)
(458.11301 -0.028571617 3.7746913e-17)
(459.78275 0.049792332 -1.8011766e-17)
(457.85644 -0.027550899 1.8281315e-17)
(459.41953 0.04598199 2.7837847e-17)
(457.55905 -0.047529095 1.6700509e-16)
(459.00219 0.050410201 1.1370658e-16)
(457.20116 -0.040999852 -3.3709304e-17)
(458.54663 0.041040887 -2.9901909e-16)
(456.80737 0.0052250269 -1.2518467e-16)
(458.00891 0.0084039591 -6.4541752e-17)
(456.37893 0.004584705 1.0725183e-16)
(457.44025 0.041235716 -1.5101698e-17)
(455.89667 -0.0052210481 -2.7222766e-17)
(456.83392 0.021830837 1.1199302e-16)
(455.38427 0.010605503 -1.3498862e-16)
(456.18748 0.036310291 -2.22606e-16)
(454.78303 -0.024422457 1.5098159e-16)
(455.48341 0.037547881 1.3239993e-16)
(454.11604 -0.017282649 -1.8257017e-16)
(454.76415 0.01391253 -2.0671321e-16)
(453.48853 5.6592066e-05 -1.8107796e-16)
(454.02014 0.080748023 5.6272336e-17)
(452.79753 -0.024920764 -1.7700158e-17)
(453.26254 0.069267572 -5.6846234e-17)
(452.12758 0.0046058825 -4.0460746e-17)
(452.48897 0.0016407237 -6.7882531e-17)
(451.45132 -0.0059651408 -4.5113122e-17)
(451.7558 0.043275758 9.9174755e-17)
(450.75447 -0.011914875 -2.2130621e-16)