/*--------------------------------*- C++ -*----------------------------------*\
| =========                 |                                                 |
| \\      /  F ield         | OpenFOAM: The Open Source CFD Toolbox           |
|  \\    /   O peration     | Version:  2.3.0                                 |
|   \\  /    A nd           | Web:      www.OpenFOAM.org                      |
|    \\/     M anipulation  |                                                 |
\*---------------------------------------------------------------------------*/
FoamFile
{
    version     2.0;
    format      ascii;
    class       volScalarField;
    location    "0.075";
    object      T;
}
// * * * * * * * * * * * * * * * * * * * * * * * * * * * * * * * * * * * * * //

dimensions      [0 0 0 1 0 0 0];

internalField   nonuniform List<scalar> 
12225
(
1.00702
1.00235
1.00097
1.00057
1.00029
1.0001
1.00001
0.999957
0.999926
0.999905
0.999886
0.999856
0.999789
0.999624
0.999214
0.998205
0.995672
0.989282
0.99388
0.995662
0.997505
0.998595
0.999122
0.9994
0.999575
0.999689
0.999763
0.999809
0.999835
0.999834
0.999789
0.999642
0.999257
0.998298
0.995957
0.990261
1.00047
1.00054
1.00043
1.00038
1.00027
1.00015
1.00007
1.00002
0.999985
0.999959
0.999936
0.999903
0.999837
0.999683
0.999314
0.998434
0.996398
0.991886
1.00033
0.999923
0.999616
0.999668
0.999738
0.999771
0.999797
0.999821
0.999841
0.999854
0.999859
0.999847
0.999799
0.999668
0.999344
0.998583
0.9969
0.993449
1.00018
1
0.999776
0.999808
0.999867
0.999886
0.999893
0.999898
0.999901
0.999902
0.999897
0.99988
0.999831
0.999711
0.999427
0.998789
0.997451
0.994902
1.00003
0.999994
0.999833
0.999822
0.999856
0.999871
0.999878
0.999884
0.999889
0.999892
0.999889
0.999875
0.999835
0.999733
0.999497
0.998986
0.997965
0.996134
1.00001
1.00003
0.999913
0.999874
0.999883
0.999891
0.999895
0.999898
0.999901
0.999903
0.9999
0.999888
0.999853
0.999768
0.999578
0.999185
0.998433
0.99715
1
1.00003
0.999948
0.999903
0.9999
0.999903
0.999904
0.999906
0.999908
0.999909
0.999906
0.999896
0.999866
0.999796
0.999643
0.999337
0.99877
0.997832
1
1.00003
0.99997
0.999929
0.999919
0.999917
0.999916
0.999916
0.999917
0.999917
0.999913
0.999904
0.999879
0.999821
0.999699
0.99946
0.999029
0.998334
0.999998
1.00002
0.999986
0.999952
0.999938
0.999932
0.999929
0.999927
0.999927
0.999926
0.999922
0.999914
0.999894
0.999848
0.999754
0.999576
0.999262
0.998769
0.999998
1.00002
0.999996
0.99997
0.999956
0.999948
0.999943
0.99994
0.999939
0.999936
0.999932
0.999924
0.999909
0.999876
0.999807
0.99968
0.999463
0.999129
0.999998
1.00001
1
0.999983
0.999972
0.999964
0.999958
0.999954
0.99995
0.999947
0.999944
0.999938
0.999926
0.999901
0.999854
0.999769
0.999627
0.999414
0.999998
1.00001
1.00001
0.999993
0.999984
0.999977
0.999972
0.999967
0.999962
0.99996
0.999957
0.99995
0.999942
0.999925
0.999895
0.999841
0.999753
0.999626
0.999998
1.00001
1.00001
1
0.999993
0.999986
0.999982
0.999979
0.999975
0.999971
0.999968
0.999964
0.999957
0.999947
0.999928
0.999896
0.999847
0.999776
0.999998
1.00001
1.00001
1
0.999998
0.999995
0.999991
0.999988
0.999985
0.999982
0.99998
0.999976
0.999972
0.999964
0.999952
0.999936
0.999909
0.999874
0.999999
1.00001
1.00001
1
1
1
0.999997
0.999994
0.999992
0.99999
0.999989
0.999987
0.999983
0.999978
0.999971
0.999962
0.999949
0.999933
0.999998
1.00001
1.00001
1
1
1
1
0.999999
0.999997
0.999996
0.999994
0.999992
0.99999
0.999988
0.999985
0.999979
0.999971
0.999964
0.999999
1
1.00001
1.00001
1.00001
1.00001
1
0.999999
0.999998
0.999998
0.999997
0.999996
0.999994
0.99999
0.999987
0.999983
0.99998
0.999979
0.999999
1.00001
1.00001
1.00001
1.00001
1.00001
1
0.999999
0.999996
0.999995
0.999993
0.999991
0.999989
0.999988
0.999987
0.999983
0.99998
0.99998
0.999998
1.00001
1.00001
1.00001
1
1
1
0.999996
0.999992
0.999989
0.999988
0.999986
0.999984
0.999983
0.999981
0.999978
0.999977
0.999978
0.999997
1.00001
1.00001
1.00001
1
0.999995
0.999992
0.999987
0.999983
0.99998
0.999977
0.999975
0.999973
0.999972
0.999971
0.999969
0.999967
0.999968
0.999997
1.00001
1.00002
1.00001
0.999995
0.999987
0.999982
0.999976
0.999973
0.99997
0.999967
0.999966
0.999966
0.999964
0.999963
0.999962
0.99996
0.999961
0.999996
1.00003
1.00002
0.999994
0.999975
0.999966
0.999959
0.999954
0.999952
0.99995
0.999949
0.999948
0.999948
0.999949
0.999948
0.999948
0.999948
0.999949
0.999994
1.00005
1.00003
0.999984
0.999963
0.999957
0.999953
0.99995
0.999949
0.999948
0.999947
0.999947
0.999948
0.999948
0.999948
0.999948
0.999948
0.999949
0.999986
1.00005
0.999974
0.999913
0.9999
0.9999
0.9999
0.999902
0.999905
0.999908
0.999911
0.999914
0.999918
0.999921
0.999925
0.999927
0.999928
0.999931
1.00011
1.00014
0.999977
0.99993
0.999954
0.99997
0.999971
0.999969
0.999965
0.999962
0.999959
0.999954
0.999952
0.99995
0.999949
0.999948
0.999947
0.999947
1.00029
1.00004
0.999634
0.999556
0.999609
0.999662
0.999706
0.999746
0.999781
0.999809
0.999832
0.99985
0.999865
0.999878
0.999888
0.999897
0.999905
0.999908
1.00089
1.00118
1.00097
1.00079
1.00062
1.00045
1.00031
1.00022
1.00015
1.0001
1.00006
1.00003
1.00001
0.999992
0.999981
0.999974
0.99997
0.999957
0.993498
0.994872
0.996789
0.998012
0.998681
0.999064
0.999313
0.999485
0.999605
0.99969
0.99975
0.999794
0.999827
0.999852
0.999872
0.999888
0.999905
0.999901
1.00657
1.00291
1.00132
1.00082
1.00049
1.00027
1.00014
1.00007
1.00002
0.99999
0.999968
0.999954
0.999944
0.999937
0.999933
0.999931
0.999938
0.999912
0.688158
0.688147
0.688083
0.688001
0.687909
0.687799
0.687674
0.687535
0.687377
0.687206
0.687024
0.686831
0.686628
0.686415
0.686193
0.685963
0.685728
0.685488
0.685245
0.685001
0.684757
0.684516
0.684278
0.684046
0.683821
0.683606
0.683402
0.68321
0.683034
0.682873
0.68273
0.682608
0.682506
0.682427
0.682373
0.682344
0.682342
0.682369
0.682424
0.682511
0.682629
0.682779
0.682962
0.683179
0.68343
0.683715
0.684034
0.684389
0.684778
0.685202
0.685661
0.686154
0.68668
0.687239
0.687831
0.688454
0.689108
0.689791
0.690502
0.691241
0.692006
0.692796
0.69361
0.694446
0.695302
0.696178
0.697072
0.697983
0.698909
0.699849
0.700802
0.701766
0.70274
0.703722
0.704712
0.705708
0.706709
0.707714
0.708722
0.709731
0.710741
0.71175
0.712759
0.713764
0.714767
0.715766
0.71676
0.717748
0.718729
0.719702
0.720668
0.721625
0.722573
0.72351
0.724437
0.725352
0.726255
0.727146
0.728025
0.728889
0.729741
0.730578
0.731401
0.73221
0.733004
0.733783
0.734547
0.735295
0.736028
0.736746
0.737448
0.738134
0.738804
0.739458
0.740095
0.740716
0.741321
0.741908
0.742478
0.743032
0.743567
0.744085
0.744585
0.745067
0.745531
0.745976
0.746402
0.746809
0.747197
0.747565
0.747913
0.748241
0.748549
0.748836
0.749102
0.749347
0.74957
0.749772
0.749951
0.750109
0.750243
0.750355
0.750443
0.750508
0.750549
0.750567
0.75056
0.750528
0.750472
0.750391
0.750285
0.750154
0.749998
0.749815
0.749607
0.749373
0.749113
0.748828
0.748515
0.748179
0.747812
0.74742
0.74701
0.746544
0.746051
0.745531
0.744961
0.744367
0.74375
0.74311
0.742445
0.741756
0.741045
0.74031
0.739555
0.738776
0.738004
0.737155
0.736595
0.734658
0.689023
0.688995
0.688959
0.688905
0.688832
0.688742
0.688636
0.688511
0.688366
0.688201
0.688021
0.687827
0.68762
0.687401
0.687174
0.686939
0.686697
0.686451
0.686202
0.685951
0.685702
0.685454
0.685211
0.684973
0.684743
0.684522
0.684312
0.684116
0.683934
0.683768
0.683621
0.683493
0.683386
0.683302
0.683243
0.683209
0.683202
0.683224
0.683274
0.683355
0.683468
0.683612
0.68379
0.684
0.684245
0.684525
0.684839
0.685188
0.685571
0.685989
0.686441
0.686928
0.687448
0.688
0.688585
0.689202
0.689848
0.690525
0.691229
0.691961
0.69272
0.693503
0.694309
0.695138
0.695988
0.696857
0.697745
0.698649
0.699568
0.700502
0.701448
0.702405
0.703373
0.704349
0.705332
0.706322
0.707317
0.708316
0.709317
0.710321
0.711325
0.712328
0.713331
0.714331
0.715328
0.716321
0.717309
0.718291
0.719267
0.720235
0.721195
0.722146
0.723088
0.72402
0.72494
0.72585
0.726747
0.727633
0.728505
0.729363
0.730209
0.73104
0.731858
0.73266
0.733448
0.734221
0.734979
0.735722
0.736449
0.73716
0.737856
0.738536
0.739199
0.739847
0.740478
0.741092
0.741689
0.74227
0.742834
0.74338
0.743908
0.744419
0.744912
0.745386
0.745843
0.74628
0.746698
0.747098
0.747478
0.747838
0.748178
0.748498
0.748797
0.749076
0.749334
0.74957
0.749785
0.749977
0.750148
0.750297
0.750422
0.750525
0.750604
0.75066
0.750692
0.7507
0.750683
0.750642
0.750576
0.750485
0.750369
0.750227
0.75006
0.749867
0.749648
0.749403
0.749131
0.748834
0.748508
0.748157
0.747776
0.747369
0.746944
0.746474
0.745986
0.745483
0.744941
0.744373
0.74378
0.74316
0.742516
0.741846
0.741152
0.740435
0.739699
0.738941
0.738186
0.737378
0.736765
0.735309
0.690789
0.690713
0.690654
0.690589
0.69051
0.690409
0.690289
0.69015
0.689992
0.689817
0.689626
0.689422
0.689205
0.688978
0.688742
0.688499
0.68825
0.687996
0.687741
0.687484
0.687228
0.686974
0.686725
0.686482
0.686246
0.686019
0.685804
0.685602
0.685414
0.685243
0.685089
0.684955
0.684842
0.684751
0.684684
0.684643
0.684629
0.684642
0.684684
0.684757
0.68486
0.684996
0.685164
0.685365
0.6856
0.685869
0.686173
0.686511
0.686883
0.68729
0.687732
0.688206
0.688715
0.689256
0.689829
0.690434
0.691069
0.691734
0.692427
0.693148
0.693895
0.694666
0.695462
0.69628
0.697119
0.697977
0.698854
0.699748
0.700658
0.701582
0.702519
0.703468
0.704427
0.705395
0.70637
0.707353
0.708341
0.709333
0.710329
0.711326
0.712325
0.713324
0.714322
0.715319
0.716313
0.717303
0.718289
0.719269
0.720243
0.721211
0.722171
0.723122
0.724064
0.724997
0.725919
0.72683
0.727729
0.728617
0.729491
0.730353
0.731201
0.732036
0.732856
0.733662
0.734454
0.73523
0.735992
0.736739
0.73747
0.738185
0.738885
0.739569
0.740236
0.740888
0.741523
0.742141
0.742743
0.743328
0.743895
0.744445
0.744977
0.745491
0.745987
0.746465
0.746925
0.747365
0.747786
0.748188
0.748571
0.748933
0.749276
0.749597
0.749898
0.750178
0.750437
0.750675
0.75089
0.751083
0.751254
0.751402
0.751527
0.751629
0.751708
0.751762
0.751792
0.751798
0.751779
0.751736
0.751667
0.751573
0.751454
0.751308
0.751137
0.75094
0.750716
0.750466
0.750189
0.749885
0.749553
0.749197
0.748812
0.748401
0.747966
0.747496
0.747007
0.746501
0.745963
0.745398
0.744807
0.74419
0.743547
0.742878
0.742185
0.741469
0.740731
0.739972
0.739211
0.7384
0.737732
0.736533
0.69339
0.693276
0.693196
0.693119
0.693025
0.692908
0.692771
0.692615
0.692443
0.692254
0.692051
0.691835
0.691607
0.691369
0.691122
0.690868
0.690608
0.690345
0.690079
0.689812
0.689546
0.689283
0.689024
0.688771
0.688526
0.68829
0.688065
0.687853
0.687655
0.687473
0.687308
0.687163
0.687039
0.686937
0.686858
0.686804
0.686777
0.686777
0.686806
0.686865
0.686954
0.687074
0.687227
0.687413
0.687632
0.687885
0.688172
0.688493
0.688848
0.689238
0.689662
0.690119
0.690609
0.691132
0.691688
0.692274
0.692891
0.693538
0.694213
0.694916
0.695645
0.696399
0.697178
0.697979
0.698801
0.699643
0.700504
0.701383
0.702278
0.703187
0.70411
0.705045
0.705991
0.706946
0.70791
0.708881
0.709858
0.710841
0.711827
0.712816
0.713807
0.714799
0.715791
0.716782
0.717771
0.718758
0.719741
0.720719
0.721692
0.722658
0.723618
0.724571
0.725515
0.72645
0.727375
0.728289
0.729193
0.730085
0.730965
0.731832
0.732687
0.733528
0.734355
0.735169
0.735968
0.736752
0.737521
0.738276
0.739015
0.739739
0.740448
0.74114
0.741817
0.742477
0.743121
0.743748
0.744359
0.744952
0.745528
0.746087
0.746628
0.747151
0.747655
0.748142
0.748609
0.749057
0.749486
0.749896
0.750286
0.750655
0.751004
0.751332
0.75164
0.751925
0.75219
0.752432
0.752652
0.75285
0.753025
0.753177
0.753305
0.75341
0.753491
0.753547
0.753579
0.753586
0.753568
0.753525
0.753457
0.753363
0.753242
0.753096
0.752923
0.752723
0.752497
0.752244
0.751964
0.751658
0.751324
0.750963
0.750575
0.750159
0.749719
0.749248
0.748754
0.748239
0.747696
0.747125
0.746528
0.745905
0.745256
0.744582
0.743882
0.743159
0.742413
0.741644
0.740868
0.740041
0.739332
0.738255
0.696818
0.69668
0.696584
0.696495
0.696388
0.696256
0.696104
0.695933
0.695744
0.69554
0.695322
0.69509
0.694848
0.694595
0.694334
0.694066
0.693792
0.693515
0.693236
0.692956
0.692677
0.692401
0.692129
0.691863
0.691604
0.691355
0.691117
0.690891
0.690679
0.690483
0.690304
0.690144
0.690005
0.689887
0.689792
0.689722
0.689677
0.68966
0.689671
0.689711
0.689781
0.689882
0.690015
0.69018
0.690378
0.690609
0.690874
0.691173
0.691506
0.691873
0.692273
0.692707
0.693174
0.693673
0.694205
0.694768
0.695361
0.695984
0.696635
0.697315
0.69802
0.698752
0.699507
0.700286
0.701086
0.701907
0.702746
0.703604
0.704479
0.705368
0.706272
0.707189
0.708117
0.709055
0.710003
0.710959
0.711922
0.71289
0.713864
0.714841
0.715821
0.716803
0.717786
0.718769
0.719751
0.720732
0.721709
0.722684
0.723654
0.724619
0.725578
0.726531
0.727476
0.728413
0.729341
0.730259
0.731167
0.732064
0.73295
0.733824
0.734685
0.735534
0.736369
0.73719
0.737998
0.738791
0.73957
0.740335
0.741084
0.741818
0.742536
0.743239
0.743926
0.744597
0.745252
0.74589
0.746511
0.747115
0.747702
0.748271
0.748823
0.749356
0.749871
0.750367
0.750845
0.751303
0.751741
0.75216
0.752559
0.752937
0.753294
0.75363
0.753945
0.754238
0.754509
0.754758
0.754984
0.755187
0.755367
0.755524
0.755656
0.755764
0.755848
0.755907
0.755941
0.75595
0.755933
0.755891
0.755822
0.755728
0.755606
0.755458
0.755284
0.755081
0.754853
0.754598
0.754314
0.754004
0.753666
0.7533
0.752907
0.752486
0.75204
0.751564
0.751064
0.75054
0.749988
0.74941
0.748805
0.748174
0.747517
0.746834
0.746126
0.745394
0.744638
0.743856
0.743064
0.742222
0.741487
0.74045
0.7011
0.70095
0.700842
0.70074
0.700619
0.700473
0.700305
0.700117
0.699912
0.699691
0.699455
0.699206
0.698946
0.698676
0.698398
0.698113
0.697823
0.697529
0.697233
0.696937
0.696642
0.696349
0.696061
0.695778
0.695503
0.695237
0.694982
0.694739
0.694509
0.694295
0.694098
0.693919
0.69376
0.693623
0.693508
0.693417
0.693351
0.693312
0.6933
0.693316
0.693363
0.693439
0.693547
0.693687
0.693859
0.694064
0.694302
0.694573
0.694878
0.695217
0.695589
0.695994
0.696432
0.696902
0.697404
0.697938
0.698502
0.699096
0.699718
0.700368
0.701045
0.701747
0.702475
0.703225
0.703998
0.704792
0.705605
0.706437
0.707286
0.708151
0.709031
0.709924
0.71083
0.711747
0.712673
0.71361
0.714553
0.715504
0.716461
0.717422
0.718387
0.719356
0.720326
0.721298
0.72227
0.723242
0.724212
0.72518
0.726145
0.727106
0.728062
0.729013
0.729958
0.730896
0.731825
0.732746
0.733658
0.73456
0.73545
0.73633
0.737198
0.738054
0.738897
0.739727
0.740543
0.741346
0.742134
0.742909
0.743668
0.744412
0.745142
0.745856
0.746554
0.747236
0.747902
0.748552
0.749184
0.7498
0.750399
0.750979
0.751542
0.752087
0.752613
0.75312
0.753608
0.754077
0.754526
0.754954
0.755363
0.75575
0.756117
0.756461
0.756784
0.757085
0.757363
0.757619
0.757851
0.75806
0.758246
0.758407
0.758543
0.758655
0.758742
0.758804
0.75884
0.75885
0.758834
0.758791
0.758722
0.758627
0.758504
0.758354
0.758178
0.757972
0.75774
0.757481
0.757193
0.756877
0.756533
0.756162
0.755762
0.755335
0.754881
0.754398
0.75389
0.753357
0.752796
0.752209
0.751595
0.750955
0.750289
0.749597
0.748879
0.748136
0.747369
0.746574
0.745767
0.744908
0.744152
0.743115
0.706262
0.706108
0.705991
0.705878
0.705743
0.705583
0.705399
0.705194
0.704971
0.704731
0.704476
0.704208
0.703929
0.703639
0.703341
0.703037
0.702727
0.702413
0.702098
0.701782
0.701466
0.701154
0.700846
0.700543
0.700248
0.699961
0.699685
0.699421
0.69917
0.698935
0.698715
0.698514
0.698331
0.69817
0.698031
0.697915
0.697823
0.697757
0.697719
0.697708
0.697726
0.697774
0.697852
0.697961
0.698103
0.698276
0.698482
0.698721
0.698993
0.699299
0.699637
0.700008
0.700412
0.700847
0.701315
0.701814
0.702343
0.702902
0.703489
0.704105
0.704747
0.705416
0.706109
0.706826
0.707566
0.708327
0.709108
0.709908
0.710727
0.711562
0.712412
0.713277
0.714155
0.715045
0.715946
0.716857
0.717778
0.718706
0.719641
0.720582
0.721528
0.722478
0.723432
0.724389
0.725347
0.726306
0.727265
0.728223
0.72918
0.730134
0.731085
0.732032
0.732974
0.73391
0.734839
0.735761
0.736674
0.737578
0.738473
0.739358
0.740231
0.741093
0.741942
0.742779
0.743604
0.744415
0.745212
0.745995
0.746765
0.747519
0.748259
0.748984
0.749693
0.750386
0.751063
0.751724
0.752368
0.752996
0.753606
0.754198
0.754773
0.755329
0.755866
0.756385
0.756884
0.757363
0.757822
0.758261
0.758679
0.759076
0.759452
0.759805
0.760136
0.760445
0.760731
0.760993
0.761232
0.761447
0.761637
0.761803
0.761944
0.762059
0.762149
0.762213
0.762251
0.762262
0.762246
0.762203
0.762133
0.762037
0.761912
0.761759
0.761579
0.76137
0.761134
0.760869
0.760575
0.760254
0.759903
0.759525
0.759118
0.758683
0.75822
0.757729
0.757212
0.756669
0.756098
0.755501
0.754877
0.754227
0.75355
0.752848
0.752119
0.751364
0.750584
0.749776
0.748953
0.748078
0.747302
0.746246
0.712355
0.712198
0.712072
0.711945
0.711796
0.711619
0.711418
0.711195
0.710952
0.710692
0.710417
0.710128
0.709826
0.709514
0.709194
0.708867
0.708534
0.708198
0.70786
0.70752
0.707182
0.706846
0.706515
0.706188
0.705869
0.705558
0.705258
0.704969
0.704693
0.704431
0.704185
0.703957
0.703748
0.703558
0.70339
0.703245
0.703124
0.703028
0.702958
0.702915
0.7029
0.702914
0.702959
0.703033
0.703139
0.703277
0.703446
0.703648
0.703882
0.704149
0.704449
0.704781
0.705145
0.705541
0.705968
0.706427
0.706916
0.707434
0.707982
0.708557
0.709159
0.709788
0.710442
0.71112
0.71182
0.712543
0.713287
0.71405
0.714832
0.715631
0.716447
0.717277
0.718122
0.71898
0.71985
0.72073
0.721621
0.722521
0.72343
0.724345
0.725267
0.726195
0.727127
0.728063
0.729003
0.729945
0.730888
0.731833
0.732777
0.73372
0.734662
0.7356
0.736536
0.737467
0.738392
0.739312
0.740224
0.741128
0.742023
0.74291
0.743786
0.744651
0.745505
0.746348
0.747178
0.747995
0.7488
0.749591
0.750368
0.751131
0.75188
0.752614
0.753332
0.754036
0.754723
0.755394
0.756049
0.756687
0.757308
0.757911
0.758497
0.759063
0.759611
0.76014
0.76065
0.76114
0.761609
0.762057
0.762485
0.762891
0.763275
0.763637
0.763976
0.764293
0.764585
0.764855
0.765099
0.76532
0.765515
0.765685
0.76583
0.765948
0.76604
0.766106
0.766144
0.766157
0.766141
0.766098
0.766026
0.765928
0.7658
0.765644
0.76546
0.765246
0.765004
0.764733
0.764433
0.764105
0.763747
0.76336
0.762945
0.762501
0.762029
0.761529
0.761002
0.760448
0.759866
0.759258
0.758623
0.757962
0.757274
0.756559
0.755819
0.755051
0.754258
0.753436
0.752598
0.751706
0.75091
0.749827
0.719419
0.71926
0.719123
0.718982
0.718815
0.718621
0.718401
0.718158
0.717894
0.717612
0.717313
0.717
0.716674
0.716338
0.715992
0.715639
0.715281
0.714918
0.714553
0.714188
0.713823
0.71346
0.713101
0.712747
0.7124
0.712061
0.711732
0.711414
0.711108
0.710817
0.710541
0.710282
0.710041
0.70982
0.709619
0.709441
0.709285
0.709154
0.709049
0.70897
0.708918
0.708895
0.7089
0.708936
0.709002
0.709098
0.709227
0.709386
0.709578
0.709802
0.710058
0.710346
0.710665
0.711016
0.711399
0.711812
0.712255
0.712728
0.713229
0.713759
0.714316
0.714899
0.715507
0.71614
0.716796
0.717475
0.718175
0.718895
0.719634
0.720391
0.721166
0.721956
0.722761
0.723581
0.724413
0.725257
0.726113
0.726979
0.727854
0.728738
0.72963
0.730528
0.731434
0.732344
0.733259
0.734179
0.735101
0.736026
0.736953
0.73788
0.738807
0.739733
0.740657
0.741578
0.742495
0.743408
0.744314
0.745214
0.746107
0.746991
0.747866
0.748732
0.749586
0.75043
0.751263
0.752084
0.752892
0.753688
0.75447
0.75524
0.755995
0.756735
0.757461
0.758172
0.758868
0.759547
0.760211
0.760858
0.761487
0.7621
0.762694
0.76327
0.763827
0.764365
0.764884
0.765382
0.76586
0.766317
0.766753
0.767167
0.767559
0.767928
0.768275
0.768597
0.768896
0.769171
0.769421
0.769646
0.769846
0.770019
0.770167
0.770288
0.770382
0.770449
0.770488
0.7705
0.770484
0.770439
0.770366
0.770264
0.770133
0.769973
0.769784
0.769565
0.769317
0.76904
0.768733
0.768396
0.76803
0.767635
0.76721
0.766757
0.766275
0.765764
0.765226
0.764661
0.764068
0.763448
0.762801
0.762127
0.761427
0.7607
0.759947
0.759167
0.758361
0.757524
0.756671
0.755762
0.754947
0.753836
0.727499
0.727337
0.727188
0.72703
0.726845
0.726631
0.72639
0.726124
0.725837
0.72553
0.725206
0.724866
0.724513
0.724148
0.723774
0.723392
0.723004
0.722611
0.722216
0.72182
0.721424
0.72103
0.720639
0.720254
0.719875
0.719503
0.719142
0.718791
0.718452
0.718127
0.717816
0.717522
0.717246
0.716989
0.716751
0.716535
0.716342
0.716172
0.716026
0.715907
0.715814
0.715749
0.715712
0.715703
0.715725
0.715777
0.715859
0.715972
0.716117
0.716293
0.7165
0.716739
0.717009
0.71731
0.717642
0.718004
0.718396
0.718817
0.719268
0.719746
0.720251
0.720783
0.72134
0.721921
0.722527
0.723155
0.723805
0.724475
0.725165
0.725874
0.726601
0.727344
0.728104
0.728878
0.729666
0.730467
0.731281
0.732106
0.732941
0.733787
0.734642
0.735505
0.736376
0.737254
0.738138
0.739028
0.739923
0.740822
0.741724
0.742629
0.743536
0.744443
0.745349
0.746255
0.747158
0.748058
0.748953
0.749843
0.750728
0.751605
0.752473
0.753334
0.754185
0.755026
0.755856
0.756676
0.757484
0.75828
0.759064
0.759835
0.760592
0.761336
0.762066
0.762781
0.763481
0.764166
0.764835
0.765487
0.766123
0.766742
0.767342
0.767925
0.768489
0.769033
0.769559
0.770064
0.770548
0.771012
0.771454
0.771875
0.772273
0.772648
0.772999
0.773327
0.77363
0.77391
0.774164
0.774392
0.774595
0.774771
0.77492
0.775043
0.775138
0.775205
0.775244
0.775255
0.775237
0.77519
0.775114
0.775008
0.774873
0.774708
0.774514
0.774289
0.774034
0.77375
0.773435
0.77309
0.772715
0.772311
0.771876
0.771413
0.77092
0.770399
0.769849
0.769272
0.768666
0.768034
0.767375
0.766689
0.765976
0.765236
0.76447
0.763677
0.762857
0.762007
0.761139
0.760215
0.759381
0.758244
0.736647
0.73648
0.736317
0.736139
0.735933
0.735697
0.735431
0.73514
0.734826
0.734491
0.734138
0.733768
0.733383
0.732987
0.73258
0.732164
0.731742
0.731316
0.730886
0.730454
0.730023
0.729593
0.729167
0.728745
0.72833
0.727922
0.727523
0.727135
0.726758
0.726395
0.726046
0.725712
0.725396
0.725098
0.72482
0.724563
0.724327
0.724114
0.723925
0.723761
0.723623
0.723511
0.723427
0.723371
0.723344
0.723346
0.723378
0.72344
0.723533
0.723656
0.72381
0.723995
0.72421
0.724456
0.724733
0.725039
0.725374
0.725739
0.726132
0.726552
0.727
0.727474
0.727974
0.728498
0.729046
0.729617
0.73021
0.730824
0.731458
0.732112
0.732784
0.733473
0.734179
0.734901
0.735637
0.736388
0.737152
0.737929
0.738717
0.739517
0.740327
0.741147
0.741976
0.742814
0.74366
0.744513
0.745372
0.746238
0.747108
0.747983
0.748862
0.749742
0.750625
0.751507
0.752389
0.753269
0.754146
0.75502
0.755889
0.756752
0.757608
0.758457
0.759298
0.76013
0.760952
0.761765
0.762567
0.763358
0.764138
0.764906
0.765661
0.766403
0.767131
0.767846
0.768547
0.769232
0.769902
0.770556
0.771194
0.771815
0.772418
0.773004
0.773571
0.774119
0.774648
0.775157
0.775645
0.776112
0.776558
0.776982
0.777384
0.777762
0.778117
0.778448
0.778754
0.779036
0.779291
0.779522
0.779725
0.779902
0.780052
0.780175
0.780269
0.780335
0.780373
0.780382
0.780361
0.780311
0.780231
0.780121
0.779981
0.779811
0.77961
0.779379
0.779117
0.778824
0.778501
0.778148
0.777763
0.777349
0.776904
0.77643
0.775926
0.775394
0.774832
0.774242
0.773625
0.77298
0.772308
0.771609
0.770883
0.770131
0.769352
0.768546
0.767713
0.766849
0.765967
0.765028
0.764178
0.763017
0.746916
0.746742
0.746562
0.746363
0.746132
0.74587
0.745577
0.745256
0.744911
0.744544
0.744156
0.743751
0.743331
0.742897
0.742452
0.741998
0.741537
0.741071
0.740601
0.740129
0.739657
0.739187
0.73872
0.738257
0.7378
0.737351
0.73691
0.73648
0.736061
0.735655
0.735263
0.734886
0.734526
0.734183
0.73386
0.733557
0.733274
0.733014
0.732778
0.732565
0.732377
0.732215
0.73208
0.731972
0.731892
0.731841
0.731818
0.731825
0.731861
0.731927
0.732023
0.732149
0.732304
0.73249
0.732705
0.73295
0.733223
0.733525
0.733855
0.734212
0.734596
0.735006
0.735441
0.735901
0.736385
0.736892
0.737421
0.737972
0.738543
0.739134
0.739743
0.740371
0.741015
0.741677
0.742354
0.743046
0.743752
0.744472
0.745204
0.74595
0.746707
0.747475
0.748254
0.749043
0.749842
0.750649
0.751465
0.752288
0.753119
0.753955
0.754797
0.755643
0.756492
0.757343
0.758195
0.759047
0.759898
0.760747
0.761592
0.762433
0.763269
0.764099
0.764922
0.765737
0.766545
0.767343
0.768133
0.768912
0.769681
0.770439
0.771186
0.77192
0.772642
0.77335
0.774045
0.774726
0.775391
0.776042
0.776677
0.777295
0.777897
0.778481
0.779047
0.779594
0.780123
0.780631
0.781119
0.781587
0.782033
0.782457
0.782859
0.783238
0.783593
0.783924
0.78423
0.784512
0.784767
0.784997
0.7852
0.785376
0.785524
0.785645
0.785737
0.785801
0.785835
0.785841
0.785816
0.785762
0.785677
0.785562
0.785416
0.785239
0.785032
0.784793
0.784523
0.784222
0.78389
0.783528
0.783134
0.782709
0.782254
0.781768
0.781253
0.780709
0.780135
0.779533
0.778903
0.778246
0.777561
0.776849
0.77611
0.775345
0.774553
0.773735
0.772889
0.772013
0.771118
0.770166
0.7693
0.76812
0.758367
0.758183
0.757983
0.757758
0.757499
0.757206
0.75688
0.756525
0.756143
0.755737
0.755309
0.754862
0.754399
0.753922
0.753433
0.752934
0.752428
0.751916
0.7514
0.750882
0.750363
0.749847
0.749333
0.748823
0.74832
0.747824
0.747336
0.746859
0.746393
0.745939
0.745499
0.745075
0.744666
0.744275
0.743902
0.743549
0.743216
0.742905
0.742616
0.742351
0.74211
0.741893
0.741703
0.741539
0.741402
0.741292
0.74121
0.741157
0.741132
0.741136
0.741169
0.741231
0.741322
0.741441
0.74159
0.741767
0.741972
0.742206
0.742466
0.742753
0.743067
0.743406
0.743771
0.744159
0.744572
0.745007
0.745465
0.745944
0.746444
0.746964
0.747503
0.74806
0.748635
0.749228
0.749836
0.750461
0.7511
0.751755
0.752423
0.753105
0.753799
0.754507
0.755226
0.755957
0.756699
0.757451
0.758214
0.758985
0.759766
0.760554
0.761349
0.76215
0.762957
0.763766
0.764579
0.765394
0.766209
0.767024
0.767836
0.768646
0.769452
0.770254
0.77105
0.771841
0.772625
0.773401
0.77417
0.77493
0.77568
0.776421
0.777151
0.777871
0.778578
0.779274
0.779957
0.780626
0.781282
0.781923
0.782549
0.783159
0.783753
0.78433
0.78489
0.785431
0.785954
0.786457
0.786941
0.787404
0.787846
0.788267
0.788665
0.78904
0.789392
0.78972
0.790023
0.790301
0.790554
0.79078
0.79098
0.791152
0.791297
0.791414
0.791502
0.791561
0.791591
0.791592
0.791562
0.791501
0.791411
0.791289
0.791136
0.790953
0.790737
0.790491
0.790212
0.789903
0.789561
0.789189
0.788785
0.78835
0.787884
0.787387
0.786861
0.786304
0.785719
0.785105
0.784462
0.783792
0.783094
0.78237
0.781619
0.780841
0.780037
0.779206
0.778349
0.777461
0.776554
0.775591
0.774711
0.773516
0.771066
0.770867
0.770644
0.770389
0.770096
0.769765
0.769399
0.769001
0.768574
0.768121
0.767645
0.767149
0.766635
0.766106
0.765564
0.765012
0.764452
0.763886
0.763317
0.762746
0.762174
0.761604
0.761037
0.760475
0.759919
0.75937
0.758831
0.758301
0.757782
0.757277
0.756784
0.756307
0.755846
0.755401
0.754975
0.754567
0.75418
0.753813
0.753468
0.753146
0.752847
0.752572
0.752322
0.752098
0.751899
0.751727
0.751581
0.751463
0.751372
0.751309
0.751274
0.751267
0.751287
0.751336
0.751412
0.751516
0.751647
0.751805
0.751989
0.7522
0.752436
0.752697
0.752983
0.753293
0.753627
0.753983
0.754361
0.75476
0.75518
0.755621
0.75608
0.756559
0.757055
0.75757
0.758101
0.758648
0.759212
0.759791
0.760385
0.760993
0.761616
0.762252
0.762901
0.763564
0.764239
0.764926
0.765625
0.766334
0.767054
0.767783
0.768522
0.769268
0.77002
0.770777
0.771541
0.772308
0.773077
0.773846
0.774616
0.775384
0.776151
0.776915
0.777675
0.778431
0.779181
0.779926
0.780665
0.781396
0.78212
0.782835
0.783541
0.784237
0.784923
0.785597
0.78626
0.786911
0.787549
0.788174
0.788784
0.789379
0.789959
0.790523
0.791071
0.7916
0.792112
0.792605
0.793079
0.793533
0.793966
0.794378
0.794768
0.795136
0.79548
0.795801
0.796097
0.796369
0.796615
0.796834
0.797028
0.797194
0.797332
0.797443
0.797524
0.797577
0.7976
0.797594
0.797557
0.79749
0.797391
0.797262
0.797101
0.796909
0.796686
0.79643
0.796143
0.795823
0.795472
0.79509
0.794676
0.79423
0.793753
0.793245
0.792707
0.792139
0.791542
0.790915
0.790261
0.789578
0.788868
0.788131
0.787368
0.786578
0.785763
0.78492
0.784052
0.783154
0.782237
0.781264
0.780372
0.779165
0.785085
0.784867
0.784614
0.784322
0.783987
0.78361
0.783194
0.782743
0.78226
0.78175
0.781214
0.780656
0.78008
0.779487
0.778883
0.778267
0.777644
0.777016
0.776384
0.775751
0.775118
0.774487
0.77386
0.773238
0.772623
0.772016
0.771418
0.77083
0.770254
0.76969
0.769141
0.768606
0.768087
0.767584
0.7671
0.766634
0.766187
0.765761
0.765356
0.764972
0.764611
0.764273
0.763959
0.76367
0.763405
0.763165
0.762951
0.762763
0.762601
0.762466
0.762357
0.762274
0.762219
0.76219
0.762187
0.762211
0.762261
0.762337
0.762439
0.762565
0.762716
0.762892
0.763092
0.763315
0.763561
0.763829
0.764119
0.76443
0.764761
0.765113
0.765484
0.765874
0.766283
0.766709
0.767153
0.767614
0.768091
0.768585
0.769094
0.769619
0.770159
0.770713
0.771282
0.771866
0.772463
0.773074
0.773697
0.774333
0.774982
0.775641
0.776311
0.776988
0.777675
0.778372
0.779074
0.779781
0.780492
0.781205
0.78192
0.782636
0.783352
0.784068
0.784781
0.785492
0.7862
0.786903
0.787602
0.788295
0.788982
0.789662
0.790334
0.790998
0.791653
0.792299
0.792934
0.793558
0.79417
0.79477
0.795357
0.795931
0.796489
0.797033
0.797562
0.798073
0.798567
0.799044
0.799502
0.799941
0.80036
0.800758
0.801135
0.80149
0.801822
0.802131
0.802416
0.802677
0.802913
0.803123
0.803306
0.803463
0.803592
0.803693
0.803766
0.80381
0.803824
0.803808
0.803762
0.803686
0.803579
0.803441
0.803271
0.803069
0.802836
0.802571
0.802274
0.801944
0.801583
0.80119
0.800765
0.800308
0.799821
0.799302
0.798752
0.798173
0.797564
0.796926
0.796259
0.795564
0.794843
0.794094
0.793319
0.792518
0.791691
0.790838
0.78996
0.789052
0.788127
0.787146
0.786244
0.785029
0.800505
0.800263
0.799973
0.799635
0.799246
0.79881
0.79833
0.79781
0.797256
0.796671
0.796059
0.795425
0.794772
0.794102
0.793421
0.79273
0.792032
0.791329
0.790624
0.789919
0.789216
0.788516
0.78782
0.787131
0.78645
0.785777
0.785114
0.784462
0.783823
0.783196
0.782584
0.781986
0.781404
0.780839
0.780292
0.779762
0.779252
0.778761
0.778291
0.777841
0.777413
0.777008
0.776625
0.776265
0.775928
0.775616
0.775328
0.775065
0.774826
0.774612
0.774423
0.77426
0.774121
0.774008
0.77392
0.773857
0.773819
0.773805
0.773816
0.77385
0.773909
0.773991