/*--------------------------------*- C++ -*----------------------------------*\
| =========                 |                                                 |
| \\      /  F ield         | OpenFOAM: The Open Source CFD Toolbox           |
|  \\    /   O peration     | Version:  2.3.0                                 |
|   \\  /    A nd           | Web:      www.OpenFOAM.org                      |
|    \\/     M anipulation  |                                                 |
\*---------------------------------------------------------------------------*/
FoamFile
{
    version     2.0;
    format      ascii;
    class       volScalarField;
    location    "1.4";
    object      epsilon;
}
// * * * * * * * * * * * * * * * * * * * * * * * * * * * * * * * * * * * * * //

dimensions      [0 2 -3 0 0 0 0];

internalField   nonuniform List<scalar> 
2268
(
0.0115424
0.0714637
0.137685
0.196072
0.244683
0.283881
0.315074
0.340009
0.359828
0.374636
0.385022
0.395299
0.405635
0.418126
0.443662
0.49055
0.55354
0.611771
0.635944
0.593052
0.475362
0.291892
0.0980829
0.0237796
0.0443021
0.0676113
0.088558
0.106625
0.122128
0.135715
0.148102
0.159803
0.171058
0.182137
0.193797
0.206207
0.220423
0.238516
0.262102
0.288762
0.31108
0.320738
0.30838
0.268935
0.199291
0.129426
0.0423991
0.0524933
0.0678607
0.0816044
0.0934133
0.103699
0.113152
0.122479
0.132193
0.142562
0.15372
0.16579
0.178652
0.192731
0.209024
0.228058
0.248019
0.26444
0.272174
0.265589
0.239851
0.192985
0.186419
0.0633542
0.0670055
0.0786623
0.0890702
0.0978599
0.105478
0.112706
0.12032
0.128857
0.138571
0.149502
0.161541
0.174434
0.188343
0.203869
0.221156
0.238766
0.253587
0.261942
0.259588
0.241741
0.207085
0.233844
0.0872362
0.0850997
0.0940681
0.102147
0.10876
0.114358
0.119837
0.126066
0.133597
0.142648
0.153176
0.164968
0.177735
0.191528
0.206697
0.223204
0.239967
0.254829
0.265149
0.267437
0.25717
0.234316
0.283194
0.115321
0.106254
0.11263
0.118724
0.123435
0.127169
0.130992
0.135884
0.142406
0.150725
0.160737
0.172181
0.184791
0.198547
0.2136
0.229811
0.246454
0.262195
0.275294
0.282852
0.281226
0.274585
0.354032
0.149322
0.130417
0.133815
0.138039
0.140912
0.142744
0.144847
0.148352
0.153812
0.16134
0.170783
0.181865
0.194352
0.208142
0.223219
0.239392
0.256272
0.27326
0.289427
0.302466
0.310484
0.327703
0.490059
0.191292
0.157533
0.157384
0.159781
0.160764
0.160533
0.160775
0.162808
0.167166
0.173889
0.182776
0.193536
0.205947
0.219792
0.234926
0.251149
0.268336
0.286503
0.305396
0.323226
0.340121
0.38636
0.862242
0.0821825
0.426854
0.638277
0.678416
0.593078
0.537521
0.599223
0.78318
0.9406
0.933003
0.845773
0.770815
0.720131
0.686868
0.655622
0.556132
0.394006
0.215562
0.0473226
0.144304
0.267661
0.321419
0.323655
0.301552
0.303124
0.351386
0.423116
0.471541
0.480654
0.461398
0.428385
0.400463
0.375921
0.345297
0.298389
0.234813
0.158543
0.0919513
0.258263
0.310621
0.319189
0.303055
0.282562
0.283694
0.318174
0.365772
0.398598
0.406845
0.396219
0.3747
0.35191
0.328843
0.301147
0.263919
0.216657
0.164171
0.158433
0.406943
0.38565
0.35438
0.321785
0.297255
0.293575
0.316911
0.354043
0.383302
0.391073
0.381896
0.363968
0.342929
0.320768
0.294785
0.260963
0.219486
0.178739
0.216741
0.608261
0.477929
0.398154
0.348925
0.32053
0.312601
0.327312
0.358819
0.38878
0.396733
0.38716
0.369222
0.347758
0.325957
0.301122
0.268533
0.229517
0.195716
0.261643
0.894501
0.588531
0.442892
0.376537
0.345863
0.335917
0.344068
0.372175
0.405404
0.414445
0.403446
0.384123
0.360334
0.337724
0.313674
0.281121
0.243015
0.213298
0.295631
1.31792
0.718758
0.484814
0.401954
0.37051
0.360643
0.364172
0.390332
0.429029
0.44002
0.426416
0.405197
0.378782
0.353466
0.329813
0.296432
0.258562
0.231177
0.324034
1.94642
0.843121
0.519649
0.424334
0.393307
0.384645
0.38563
0.410943
0.457134
0.470255
0.452402
0.428467
0.400095
0.372597
0.348121
0.312826
0.275509
0.250168
0.359209
0.24924
0.195308
0.192335
0.193438
0.19229
0.189277
0.186956
0.187026
0.189998
0.195798
0.204135
0.214636
0.226964
0.240809
0.255935
0.272136
0.289529
0.308796
0.330453
0.353066
0.377226
0.427357
0.642061
0.368592
0.262374
0.252286
0.25035
0.244682
0.236149
0.229178
0.226101
0.227214
0.23209
0.240122
0.250657
0.263019
0.276609
0.291054
0.306315
0.322598
0.340688
0.361198
0.382284
0.403025
0.437026
0.526983
0.53684
0.344963
0.324687
0.318366
0.306373
0.290456
0.277605
0.270937
0.270346
0.274752
0.282913
0.293615
0.305743
0.318441
0.331489
0.345175
0.359547
0.37522
0.392821
0.410239
0.42632
0.450418
0.495949
0.79466
0.450046
0.40976
0.397178
0.377659
0.353126
0.332949
0.321559
0.318784
0.322639
0.330737
0.340988
0.351931
0.362716
0.373442
0.384972
0.397793
0.411926
0.42738
0.441957
0.454877
0.474133
0.504571
1.12022
0.573032
0.503366
0.482917
0.456993
0.426615
0.397382
0.378395
0.371833
0.374304
0.381353
0.389703
0.398008
0.406066
0.414425
0.424062
0.435669
0.449089
0.463783
0.475708
0.486466
0.505275
0.528395
1.44902
0.682044
0.592693
0.570973
0.541829
0.511788
0.473198
0.440778
0.428717
0.429548
0.434663
0.439146
0.442749
0.446856
0.452724
0.460639
0.470002
0.480987
0.492857
0.501693
0.514718
0.536576
0.555893
1.59365
0.769376
0.686833
0.690807
0.643056
0.598103
0.552309
0.50328
0.487552
0.488648
0.490709
0.488126
0.483875
0.481723
0.483479
0.488402
0.494617
0.500798
0.507817
0.517918
0.53618
0.557302
0.574744
1.43225
0.840465
0.814988
0.897517
0.788449
0.676315
0.601577
0.555116
0.539846
0.535794
0.528814
0.518325
0.509967
0.505814
0.506443
0.510421
0.515511
0.518909
0.521787
0.532442
0.552002
0.569065
0.575324
1.27486
0.904601
0.949016
1.14298
0.989585
0.77576
0.64753
0.593573
0.574889
0.555045
0.536792
0.525495
0.521096
0.521597
0.52599
0.5344
0.541372
0.540486
0.533962
0.539566
0.555322
0.565926
0.56278
1.13474
0.898611
0.982781
1.13174
1.19568
0.90818
0.691976
0.612793
0.587645
0.563399
0.539577
0.526092
0.526364
0.531437
0.538527
0.545488
0.547862
0.54342
0.533881
0.535835
0.546901
0.551225
0.543487
1.0655
0.850493
0.957045
1.0071
1.08532
0.921194
0.700579
0.59419
0.557554
0.54193
0.526557
0.516967
0.517247
0.518807
0.52155
0.520169
0.51872
0.515151
0.512358
0.516824
0.524907
0.526297
0.51946
1.13491
0.821169
0.879468
0.891027
0.928782
0.821007
0.668072
0.567807
0.521789
0.502681
0.492068
0.486083
0.482295
0.480636
0.478552
0.476582
0.475969
0.475994
0.478376
0.484678
0.491676
0.4943
0.49149
1.37803
0.839509
0.784585
0.782434
0.79026
0.713135
0.608809
0.530587
0.487219
0.46596
0.454404
0.446917
0.441952
0.439029
0.437003
0.436194
0.437088
0.43969
0.444392
0.450662
0.456354
0.458953
0.457002
1.72164
0.854987
0.710221
0.67848
0.660058
0.602134
0.533846
0.48082
0.448791
0.431567
0.421784
0.415242
0.410671
0.407757
0.406091
0.405722
0.406881
0.409571
0.413425
0.417453
0.420165
0.420228
0.417042
1.68941
0.77445
0.62403
0.577862
0.546365
0.502576
0.459465
0.427407
0.4082
0.398094
0.392544
0.388683
0.38559
0.383208
0.381542
0.380662
0.380694
0.38156
0.382695
0.383267
0.382427
0.379774
0.375803
1.42626
0.660196
0.536134
0.488765
0.455495
0.422565
0.395469
0.377513
0.368052
0.364167
0.362712
0.361623
0.360167
0.358393
0.356499
0.354662
0.353015
0.351522
0.349849
0.347426
0.344048
0.340043
0.336594
1.1498
0.553873
0.45705
0.415559
0.385831
0.360856
0.343068
0.333001
0.329094
0.328863
0.329906
0.330604
0.330297
0.328987
0.326897
0.324261
0.321271
0.318022
0.314532
0.310537
0.306289
0.302541
0.3007
0.875607
0.45899
0.38933
0.356167
0.331506
0.312096
0.299292
0.292838
0.29111
0.292087
0.293896
0.295218
0.295421
0.294404
0.29232
0.289398
0.285871
0.281943
0.277812
0.273773
0.27013
0.267782
0.268076
0.620563
0.376384
0.331214
0.306426
0.286758
0.27123
0.26092
0.255699
0.254141
0.254766
0.256163
0.257276
0.257513
0.256686
0.254854
0.252198
0.248952
0.245378
0.241782
0.238573
0.236333
0.235877
0.238309
0.44138
0.309066
0.280535
0.262961
0.247786
0.235183
0.226169
0.221131
0.218915
0.218559
0.219053
0.219583
0.219629
0.218961
0.217561
0.215546
0.213118
0.210539
0.208143
0.20636
0.205764
0.2071
0.211265
0.307769
0.247648
0.234309
0.223625
0.212593
0.202504
0.194589
0.189489
0.186595
0.185288
0.184897
0.184831
0.184663
0.184161
0.183261
0.182022
0.180597
0.179213
0.17817
0.177857
0.178772
0.181529
0.186838
0.213909
0.195287
0.193219
0.188231
0.180797
0.173001
0.166269
0.161335
0.158185
0.156326
0.155355
0.154876
0.154572
0.154244
0.153808
0.153286
0.152779
0.152466
0.152591
0.153474
0.155515
0.159194
0.165046
0.155044
0.153205
0.157803
0.1569
0.152472
0.146862
0.14153
0.137217
0.134231
0.132261
0.131081
0.130437
0.130113
0.129957
0.129893
0.129923
0.130111
0.130588
0.131542
0.133219
0.135931
0.140041
0.145953
0.121096
0.120103
0.12744
0.129314
0.127467
0.124009
0.120287
0.117017
0.114554
0.112854
0.111789
0.11121
0.110982
0.111004
0.111221
0.111627
0.112269
0.11324
0.114681
0.11678
0.119773
0.123937
0.129574
0.101647
0.0948506
0.102059
0.105523
0.105761
0.104297
0.102226
0.100187
0.0985243
0.0973554
0.0966355
0.0962955
0.0962636
0.0964823
0.0969199
0.0975769
0.0984885
0.0997258
0.101396
0.103644
0.106648
0.110619
0.11579
0.0897348
0.0764557
0.0819848
0.0859399
0.0875716
0.0876952
0.0870774
0.0862282
0.0854508
0.0849263
0.0846731
0.0846758
0.0849078
0.0853454
0.0859779
0.0868141
0.0878858
0.0892507
0.0909933
0.0932259
0.0960874
0.0997414
0.104368
0.0816507
0.0635446
0.0669902
0.0706671
0.0729796
0.0741513
0.0746232
0.074751
0.0747749
0.074884
0.0751207
0.0755007
0.0760258
0.0766953
0.0775135
0.0784962
0.0796744
0.0810975
0.0828345
0.0849753
0.0876303
0.0909287
0.0950131
0.0757359
0.0545964
0.0561949
0.0592348
0.061701
0.0634289
0.0646016
0.0654282
0.0660956
0.0667464
0.067427
0.0681658
0.0689786
0.0698768
0.0708732
0.0719877
0.0732502
0.0747041
0.0764076
0.0784345
0.0808746
0.0838321
0.087423
0.0713218
0.0483195
0.0485071
0.0508518
0.0531821
0.0551212
0.056678
0.057961
0.0591054
0.0601788
0.0612258
0.0622756
0.0633475
0.0644568
0.0656191
0.0668549
0.0681923
0.0696695
0.071336
0.0732542
0.0754984
0.078155
0.0813199
0.0679234
0.0437887
0.0429706
0.0447163
0.0468038
0.0487615
0.0505152
0.0521001
0.0535625
0.0549442
0.0562762
0.0575804
0.0588728
0.0601669
0.0614771
0.0628223
0.0642273
0.0657256
0.06736
0.0691838
0.0712599
0.0736613
0.0764689
0.0653166
0.0405265
0.0389783
0.0402385
0.0420858
0.0440027
0.04585
0.0476038
0.0492733
0.0508749
0.052423
0.0539291
0.0554021
0.0568511
0.0582873
0.059726
0.0611889
0.0627047
0.0643109
0.0660534
0.0679867
0.0701734
0.0726831
0.0634293
0.038185
0.0361531
0.0370646
0.038712
0.0405609
0.0424409
0.0442947
0.0461043
0.0478654
0.0495774
0.0512409
0.0528575
0.0544307
0.0559677
0.0574804
0.0589867
0.0605117
0.062088
0.0637561
0.0655638
0.0675659
0.0698232
0.0622802
0.0365944
0.034242
0.0349289
0.036446
0.03825
0.0401535
0.0420799
0.0439932
0.045874
0.0477101
0.049493
0.0512178
0.0528833
0.0544928
0.056055
0.0575849
0.0591043
0.0606422
0.0622346
0.063924
0.0657592
0.0677941
0.0620034
0.0357218
0.0331828
0.0337688
0.0352384
0.0370396
0.0389772
0.0409651
0.0429575
0.0449257
0.0468493
0.0487139
0.0505097
0.0522316
0.0538803
0.0554621
0.0569895
0.0584819
0.0599653
0.0614721
0.0630409
0.0647151
0.0665432
0.0629904
0.0357369
0.0331498
0.033755
0.0352444
0.0370674
0.0390344
0.0410606
0.0430974
0.0451118
0.0470787
0.0489796
0.0508014
0.0525368
0.0541844
0.0557488
0.057241
0.0586782
0.0600842
0.0614883
0.0629254
0.0644346
0.0660592
0.0663334
0.0372751
0.0347191
0.0353725
0.0368529
0.0386418
0.0405734
0.0425711
0.0445864
0.0465823
0.0485298
0.0504068
0.0521977
0.0538933
0.0554909
0.0569937
0.0584114
0.0597595
0.0610594
0.0623378
0.0636258
0.0649585
0.0663743
0.0748582
0.0419759
0.039082
0.0394592
0.0406532
0.0421917
0.0439217
0.0457595
0.0476435
0.0495255
0.051368
0.0531435
0.0548329
0.0564247
0.0579148
0.059305
0.0606036
0.0618243
0.062986
0.0641122
0.0652303
0.0663709
0.0675672
0.0951281
0.053147
0.0480637
0.0470316
0.0472507
0.0481217
0.0493846
0.0508771
0.0524874
0.0541373
0.0557724
0.0573555
0.0588625
0.0602788
0.0615983
0.0628212
0.0639537
0.0650072
0.0659976
0.0669448
0.067872
0.0688046
0.0697699
0.141361
0.0760911
0.0635442
0.0587223
0.0568896
0.0565843
0.0571082
0.0580808
0.0592837
0.0605877
0.061914
0.0632137
0.0644569
0.0656261
0.0667126
0.0677146
0.0686359
0.069485
0.0702741
0.071019
0.0717377
0.0724499
0.0731766
0.247342
0.117244
0.0856457
0.0737606
0.0689896
0.0672765
0.0669856
0.067383
0.0681155
0.0690023
0.0699454
0.0708893
0.0718012
0.0726624
0.0734629
0.074199
0.074872
0.0754871
0.0760524
0.0765789
0.0770792
0.077567
0.078056
0.525823
0.177584
0.108644
0.0888319
0.0819612
0.0794776
0.0787151
0.0786932
0.0790084
0.0794783
0.080013
0.0805646
0.0811058
0.0816211
0.0821014
0.0825429
0.0829448
0.0833093
0.0836407
0.0839449
0.084229
0.0845006
0.0847668
1.60077
0.210803
0.115128
0.0984724
0.0939981
0.0925513
0.0920751
0.0919679
0.0920186
0.0921415
0.0922969
0.0924645
0.0926331
0.0927958
0.0929486
0.0930895
0.0932176
0.0933331
0.0934372
0.0935315
0.0936183
0.0936996
0.0937773
1.7735
1.52446
1.52833
1.82853
0.656015
0.689246
0.722612
0.772749
0.541171
0.57193
0.605083
0.640455
0.529531
0.545466
0.561406
0.580373
0.538408
0.544722
0.553602
0.567216
0.565292
0.569029
0.574847
0.582516
0.586827
0.590549
0.587658
0.579046
0.574383
0.570654
0.561236
0.549186
0.550965
0.540787
0.529011
0.517849
0.528769
0.517967
0.506751
0.496484
0.508287
0.49956
0.490095
0.481121
0.483608
0.476902
0.46953
0.462321
0.450764
0.445876
0.440777
0.435729
0.412259
0.409166
0.406321
0.403525
0.372849
0.371537
0.37077
0.370073
0.33578
0.336166
0.337235
0.338393
0.302071
0.303977
0.3066
0.309336
0.271401
0.274553
0.278403
0.282395
0.243156
0.247211
0.251923
0.256802
0.217083
0.221642
0.226796
0.232173
0.193096
0.197829
0.203095
0.208608
0.171294
0.175949
0.181074
0.186461
0.151886
0.156275
0.161077
0.166145
0.135006
0.13901
0.143372
0.147996
0.120635
0.124196
0.128068
0.132188
0.108614
0.111729
0.115111
0.118719
0.0987001
0.101398
0.104324
0.107452
0.0906172
0.0929467
0.0954683
0.0981685
0.0840955
0.0861104
0.0882866
0.0906177
0.0788963
0.0806483
0.0825351
0.0845545
0.0748223
0.0763559
0.078002
0.0797611
0.0717204
0.0730708
0.074515
0.0760553
0.0694816
0.0706738
0.0719441
0.073296
0.0680404
0.06909
0.0702046
0.0713883
0.0673746
0.0682899
0.0692587
0.0702857
0.0675082
0.0682914
0.069118
0.0699932
0.0685151
0.069165
0.0698492
0.0705729
0.0705262
0.0710406
0.0715807
0.0721515
0.0737382
0.0741165
0.0745125
0.0749305
0.0784267
0.0786733
0.07893
0.0792006
0.0849627
0.0850904
0.0852219
0.0853601
0.0938319
0.0938663
0.0939011
0.0939379
1.10922
0.804748
0.550764
0.45226
0.423876
0.418339
0.419062
0.444244
0.505054
0.520257
0.493815
0.46433
0.43233
0.40469
0.378915
0.338581
0.300565
0.282618
0.442402
0.813971
0.675172
0.555849
0.4842
0.456991
0.449819
0.453946
0.479727
0.5611
0.583484
0.543059
0.500872
0.464118
0.441447
0.422398
0.378552
0.332132
0.307404
0.5617
0.68695
0.619237
0.569216
0.527527
0.495211
0.476259
0.475871
0.501989
0.572072
0.625496
0.57943
0.518932
0.473562
0.450249
0.42339
0.377569
0.335471
0.309158
0.475954
0.615643
0.613945
0.626605
0.620453
0.563861
0.511928
0.496729
0.516481
0.565125
0.609024
0.584516
0.513259
0.464356
0.437497
0.403225
0.357857
0.317854
0.298411
0.350855
0.594153
0.633192
0.71613
0.752733
0.657839
0.552677
0.515747
0.53153
0.568495
0.575557
0.548471
0.49599
0.456227
0.431492
0.402927
0.367151
0.330046
0.304196
0.31226
0.586986
0.631518
0.722347
0.742654
0.636674
0.545909
0.521257
0.540179
0.562659
0.557057
0.52574
0.486488
0.455896
0.436385
0.421798
0.404102
0.370302
0.349101
0.387737
0.563465
0.586219
0.639364
0.643864
0.57329
0.520593
0.511871
0.527956
0.541369
0.537672
0.517677
0.488628
0.460056
0.442074
0.446918
0.449485
0.41202
0.407088
0.53397
0.532393
0.537356
0.561021
0.567039
0.540434
0.507381
0.499079
0.507416
0.517048
0.516469
0.504372
0.483433
0.457858
0.438433
0.441822
0.436132
0.409807
0.416864
0.727595
0.502892
0.498172
0.50403
0.505541
0.506125
0.512729
0.499165
0.49246
0.496443
0.497056
0.488581
0.471303
0.447511
0.426659
0.41281
0.402591
0.393452
0.411132
0.692415
0.48276
0.473512
0.470487
0.465841
0.464305
0.479946
0.48365
0.471259
0.472897
0.477941
0.473463
0.458381
0.436025
0.419229
0.398638
0.381586
0.37857
0.387966
0.562795
0.468576
0.456924
0.449345
0.44078
0.432366
0.43232
0.434555
0.430486
0.426372
0.427332
0.425626
0.419624
0.410682
0.400845
0.38011
0.358094
0.351426
0.353028
0.456782
0.451583
0.4392
0.429691
0.419948
0.40942
0.402291
0.399032
0.396657
0.395386
0.395015
0.394513
0.392822
0.385943
0.372246
0.349967
0.32619
0.312566
0.30352
0.348646
0.42765
0.416469
0.407038
0.3981
0.388905
0.381354
0.376937
0.374845
0.373444
0.370826
0.367149
0.362294
0.353228
0.337913
0.315383
0.290782
0.272981
0.258966
0.279193
0.398524
0.389963
0.382034
0.374918
0.36803
0.362157
0.358232
0.356062
0.35349
0.348088
0.340795
0.332652
0.32134
0.304668
0.282363
0.259164
0.242578
0.232487
0.262204
0.368133
0.362905
0.357387
0.352406
0.347751
0.343495
0.339989
0.337117
0.333079
0.325943
0.316804
0.306331
0.293117
0.275775
0.255499
0.237118
0.22584
0.225171
0.28426
0.33932
0.337685
0.335076
0.332422
0.329747
0.326842
0.323626
0.319959
0.314857
0.306965
0.296908
0.285025
0.270716
0.254196
0.238064
0.225809
0.220959
0.230828
0.324235
0.31285
0.314784
0.315265
0.315101
0.314327
0.312679
0.309882
0.305774
0.300014
0.291935
0.281442
0.268925
0.254839
0.240572
0.228482
0.221119
0.221921
0.241488
0.366953
0.288118
0.29335
0.296838
0.299181
0.300339
0.30001
0.297889
0.293837
0.287835
0.279739
0.26942
0.257239
0.244248
0.232099
0.222793
0.218693
0.223743
0.250621
0.404436
0.26424
0.27226
0.278446
0.283144
0.28622
0.287341
0.286209
0.282724
0.277004
0.269204
0.259401
0.248106
0.236424
0.225925
0.218507
0.216586
0.224589
0.256186
0.436309
0.240739
0.250844
0.25922
0.265967
0.270826
0.273459
0.273576
0.271083
0.266138
0.259033
0.25009
0.239896
0.229523
0.22046
0.214551
0.214296
0.224569
0.26026
0.465797
0.217708
0.229084
0.238988
0.247302
0.253699
0.257793
0.259276
0.258041
0.254233
0.248192
0.240378
0.231477
0.222539
0.214954
0.210459
0.211578
0.223561
0.262756
0.488176
0.195548
0.207387
0.218142
0.227508
0.235084
0.240442
0.24325
0.243369
0.240909
0.236207
0.229784
0.22238
0.215016
0.208988
0.20591
0.208268
0.22151
0.263565
0.502746
0.174818
0.186476
0.197453
0.207335
0.215666
0.221991
0.225954
0.227381
0.226336
0.223127
0.218276
0.212527
0.206853
0.202459
0.200833
0.204369
0.218514
0.262574
0.513104
0.155996
0.167015
0.177709
0.187627
0.196293
0.203247
0.208118
0.210703
0.211021
0.209333
0.206125
0.2021
0.198165
0.195431
0.19526
0.199906
0.214637
0.259374
0.51896
0.139378
0.14948
0.159538
0.169118
0.177759
0.185017
0.190522
0.194054
0.195593
0.195345
0.193738
0.191406
0.189169
0.188037
0.189263
0.194926
0.210034
0.254332
0.517897
0.125063
0.134122
0.143341
0.152331
0.160674
0.16796
0.173838
0.178083
0.180645
0.181675
0.181534
0.180771
0.180104
0.180429
0.182938
0.1895
0.204874
0.248068
0.508415
0.112982
0.120988
0.129288
0.137551
0.145417
0.152522
0.158549
0.163279
0.166642
0.168742
0.169868
0.17048
0.171194
0.172799
0.176389
0.183684
0.199194
0.240935
0.491892
0.10296
0.109977
0.117365
0.124856
0.132149
0.138934
0.144934
0.149946
0.153891
0.156833
0.158994
0.160749
0.162613
0.165267
0.169699
0.177528
0.192992
0.233223
0.47397
0.0947638
0.100897
0.107436
0.114171
0.120859
0.127244
0.13309
0.138219
0.142547
0.146107
0.149065
0.151716
0.154481
0.157937
0.162947
0.171112
0.186351
0.225165
0.458328
0.0881495
0.0935164
0.0992959
0.105328
0.111422
0.117372
0.122981
0.128098
0.132639
0.136616
0.140146
0.143455
0.14688
0.150908
0.156301
0.164555
0.179452
0.216998
0.444367
0.0828923
0.0876016
0.0927147
0.0981127
0.103647
0.109155
0.114478
0.119487
0.124106
0.128328
0.132232
0.135985
0.139854
0.144248
0.149844
0.158025
0.172535
0.208947
0.430137
0.078796
0.0829391
0.0874706
0.092302
0.0973197
0.102396
0.107406
0.112241
0.116831
0.121159
0.125271
0.129288
0.133418
0.138008
0.143675
0.151738
0.165796
0.201041
0.413261
0.0756997
0.0793492
0.0833684
0.0876912
0.0922319
0.0968925
0.101574
0.106187
0.110669
0.114993
0.119181
0.123317
0.127563
0.132217
0.137853
0.145748
0.159373
0.193178
0.392956
0.073491
0.076697
0.0802539
0.0841102
0.088203
0.092459
0.0968015
0.101158
0.105471
0.109706
0.113867
0.118008
0.122259
0.126879
0.132403
0.140058
0.153179
0.185208
0.371112
0.072109
0.074904
0.0780245
0.0814364
0.0850948
0.0889468
0.0929362
0.0970046
0.101098
0.105178
0.109232
0.113293
0.117462
0.121971
0.127319
0.13467
0.147226
0.177928
0.354583
0.0715466
0.0739443
0.0766356
0.0796057
0.0828233
0.086255
0.0898656
0.0936108
0.0974406
0.10131
0.105194
0.109106
0.113127
0.117463
0.122583
0.129583
0.141526
0.170979
0.341019
0.0718576
0.073857
0.0761127
0.0786235
0.0813701
0.0843394
0.0875257
0.0909021
0.094422
0.0980333
0.101697
0.105408
0.109229
0.113346
0.118197
0.124827
0.136164
0.164356
0.327918
0.0731655
0.0747586
0.0765639
0.0785778
0.0807918
0.0832153
0.0858987
0.0888428
0.0920022
0.0953127
0.098717
0.102192
0.10578
0.109648
0.114214
0.120482
0.131273
0.158343
0.315898
0.0756741
0.0768541
0.0781913
0.0796595
0.0812368
0.0829507
0.0849974
0.0874223
0.0901679
0.093144
0.0962667
0.0994881
0.102831
0.106444
0.11073
0.11667
0.127024
0.153266
0.306312
0.0796826
0.0804563
0.0813218
0.0822051
0.0829832
0.0836358
0.0848196
0.0866193
0.0889093
0.0915392
0.0943818
0.0973581
0.100468
0.103845
0.107878
0.113542
0.123604
0.149486
0.300814
0.0856071
0.0860102
0.0864426
0.0867585
0.0865662
0.085273
0.0852439
0.086338
0.0881822
0.0905014
0.0931049
0.0958775
0.0987962
0.101979
0.105805
0.111258
0.121176
0.147303
0.301234
0.0940048
0.0941192
0.0942311
0.0941874
0.0932353
0.0873756
0.0858433
0.0863363
0.087872
0.0899985
0.092461
0.0951151
0.0979204
0.100982
0.104672
0.109983
0.119866
0.14673
0.308219
)
;

boundaryField
{
    leftWall
    {
        type            epsilonWallFunction;
        value           nonuniform List<scalar> 
50
(
0.0115424
0.0237796
0.0423991
0.0633542
0.0872362
0.115321
0.149322
0.191292
0.24924
0.368592
0.53684
0.79466
1.12022
1.44902
1.59365
1.43225
1.27486
1.13474
1.0655
1.13491
1.37803
1.72164
1.68941
1.42626
1.1498
0.875607
0.620563
0.44138
0.307769
0.213909
0.155044
0.121096
0.101647
0.0897348
0.0816507
0.0757359
0.0713218
0.0679234
0.0653166
0.0634293
0.0622802
0.0620034
0.0629904
0.0663334
0.0748582
0.0951281
0.141361
0.247342
0.525823
1.60077
)
;
        Cmu             0.09;
        kappa           0.41;
        E               9.8;
        value           nonuniform List<scalar> 
50
(
0.0115424
0.0237796
0.0423991
0.0633542
0.0872362
0.115321
0.149322
0.191292
0.24924
0.368592
0.53684
0.79466
1.12022
1.44902
1.59365
1.43225
1.27486
1.13474
1.0655
1.13491
1.37803
1.72164
1.68941
1.42626
1.1498
0.875607
0.620563
0.44138
0.307769
0.213909
0.155044
0.121096
0.101647
0.0897348
0.0816507
0.0757359
0.0713218
0.0679234
0.0653166
0.0634293
0.0622802
0.0620034
0.0629904
0.0663334
0.0748582
0.0951281
0.141361
0.247342
0.525823
1.60077
)
;
    }
    rightWall
    {
        type            epsilonWallFunction;
        value           nonuniform List<scalar> 
50
(
0.0473226
0.0919513
0.158433
0.216741
0.261643
0.295631
0.324034
0.359209
0.442402
0.5617
0.475954
0.350855
0.31226
0.387737
0.53397
0.727595
0.692415
0.562795
0.456782
0.348646
0.279193
0.262204
0.28426
0.324235
0.366953
0.404436
0.436309
0.465797
0.488176
0.502746
0.513104
0.51896
0.517897
0.508415
0.491892
0.47397
0.458328
0.444367
0.430137
0.413261
0.392956
0.371112
0.354583
0.341019
0.327918
0.315898
0.306312
0.300814
0.301234
0.308219
)
;
        Cmu             0.09;
        kappa           0.41;
        E               9.8;
        value           nonuniform List<scalar> 
50
(
0.0473226
0.0919513
0.158433
0.216741
0.261643
0.295631
0.324034
0.359209
0.442402
0.5617
0.475954
0.350855
0.31226
0.387737
0.53397
0.727595
0.692415
0.562795
0.456782
0.348646
0.279193
0.262204
0.28426
0.324235
0.366953
0.404436
0.436309
0.465797
0.488176
0.502746
0.513104
0.51896
0.517897
0.508415
0.491892
0.47397
0.458328
0.444367
0.430137
0.413261
0.392956
0.371112
0.354583
0.341019
0.327918
0.315898
0.306312
0.300814
0.301234
0.308219
)
;
    }
    lowerWall
    {
        type            epsilonWallFunction;
        value           nonuniform List<scalar> 
62
(
0.0115424
0.0714637
0.137685
0.196072
0.244683
0.283881
0.315074
0.340009
0.359828
0.374636
0.385022
0.395299
0.405635
0.418126
0.443662
0.49055
0.55354
0.611771
0.635944
0.593052
0.475362
0.291892
0.0980829
0.0980829
0.129426
0.186419
0.233844
0.283194
0.354032
0.490059
0.862242
1.7735
1.52446
1.52833
1.82853
0.0821825
0.144304
0.258263
0.406943
0.608261
0.894501
1.31792
1.94642
0.0821825
0.426854
0.638277
0.678416
0.593078
0.537521
0.599223
0.78318
0.9406
0.933003
0.845773
0.770815
0.720131
0.686868
0.655622
0.556132
0.394006
0.215562
0.0473226
)
;
        Cmu             0.09;
        kappa           0.41;
        E               9.8;
        value           nonuniform List<scalar> 
62
(
0.0115424
0.0714637
0.137685
0.196072
0.244683
0.283881
0.315074
0.340009
0.359828
0.374636
0.385022
0.395299
0.405635
0.418126
0.443662
0.49055
0.55354
0.611771
0.635944
0.593052
0.475362
0.291892
0.0980829
0.0980829
0.129426
0.186419
0.233844
0.283194
0.354032
0.490059
0.862242
1.7735
1.52446
1.52833
1.82853
0.0821825
0.144304
0.258263
0.406943
0.608261
0.894501
1.31792
1.94642
0.0821825
0.426854
0.638277
0.678416
0.593078
0.537521
0.599223
0.78318
0.9406
0.933003
0.845773
0.770815
0.720131
0.686868
0.655622
0.556132
0.394006
0.215562
0.0473226
)
;
    }
    atmosphere
    {
        type            inletOutlet;
        inletValue      uniform 0.1;
        value           nonuniform List<scalar> 
46
(
0.1
0.1
0.1
0.1
0.1
0.1
0.1
0.1
0.1
0.1
0.1
0.1
0.1
0.1
0.1
0.1
0.1
0.1
0.1
0.1
0.1
0.1
0.1
0.1
0.1
0.1
0.1
0.1
0.1
0.1
0.1
0.1
0.0873756
0.0858433
0.0863363
0.087872
0.0899985
0.092461
0.0951151
0.0979204
0.100982
0.104672
0.109983
0.119866
0.14673
0.308219
)
;
    }
    defaultFaces
    {
        type            empty;
    }
}


// ************************************************************************* //
