/*--------------------------------*- C++ -*----------------------------------*\
| =========                 |                                                 |
| \\      /  F ield         | OpenFOAM: The Open Source CFD Toolbox           |
|  \\    /   O peration     | Version:  2.3.0                                 |
|   \\  /    A nd           | Web:      www.OpenFOAM.org                      |
|    \\/     M anipulation  |                                                 |
\*---------------------------------------------------------------------------*/
FoamFile
{
    version     2.0;
    format      ascii;
    class       volScalarField;
    location    "1.4";
    object      k;
}
// * * * * * * * * * * * * * * * * * * * * * * * * * * * * * * * * * * * * * //

dimensions      [0 2 -2 0 0 0 0];

internalField   nonuniform List<scalar> 
2268
(
0.00236544
0.00666568
0.0103311
0.013049
0.015087
0.0166141
0.0177631
0.0186424
0.0193202
0.0198183
0.0201513
0.0204378
0.0207624
0.0211452
0.0219022
0.0232781
0.0251054
0.0267881
0.0274823
0.0263499
0.0228414
0.0165836
0.00802719
0.0052112
0.0149786
0.0220762
0.0273639
0.0313119
0.0342707
0.0365376
0.0383568
0.0398936
0.0412355
0.0424259
0.0435199
0.0446156
0.0458853
0.047933
0.0510794
0.054846
0.0580803
0.0591338
0.0565342
0.04894
0.0353963
0.0160818
0.00767998
0.020386
0.0291659
0.0356748
0.0405254
0.0441524
0.0469449
0.0492272
0.0512209
0.05305
0.0547838
0.0564895
0.0582549
0.0603104
0.0631427
0.0669494
0.0711755
0.0746122
0.075615
0.0725073
0.0636127
0.0472397
0.0206826
0.0100396
0.0253285
0.0353748
0.0427167
0.0481376
0.0521527
0.0552355
0.0577815
0.060057
0.0622124
0.0643307
0.0664845
0.0687723
0.0714325
0.0748311
0.079034
0.0834725
0.0870069
0.0880767
0.0849125
0.0754814
0.0572889
0.0242944
0.0124225
0.030261
0.0415184
0.0495817
0.0554323
0.0596873
0.0629207
0.065604
0.0680455
0.0704166
0.0728119
0.0753093
0.078024
0.0811739
0.0850082
0.0894867
0.0940724
0.0977523
0.0990874
0.0962408
0.0868292
0.0675199
0.0278663
0.0149572
0.0353605
0.0478771
0.0566435
0.0628466
0.0672338
0.0705083
0.0732292
0.075746
0.0782484
0.080843
0.0836154
0.0866939
0.0902547
0.0944384
0.099127
0.103844
0.10774
0.109526
0.107327
0.0984937
0.0790276
0.0324863
0.0177604
0.040785
0.0546231
0.0640958
0.0705883
0.0750071
0.0782225
0.0808955
0.0834153
0.0859872
0.0887281
0.0917314
0.0951278
0.0990358
0.103501
0.108353
0.113193
0.117348
0.119698
0.118381
0.110658
0.0923641
0.0400459
0.0209356
0.0467053
0.0618994
0.0720672
0.0787743
0.083116
0.086174
0.0887259
0.0911962
0.0937989
0.0966554
0.0998594
0.103532
0.107722
0.112399
0.117366
0.122298
0.126688
0.129595
0.129223
0.122953
0.107315
0.0568442
0.00696773
0.0214953
0.0285691
0.0302851
0.0280974
0.0258712
0.0267232
0.0310887
0.0351475
0.0354456
0.0334363
0.03155
0.0300929
0.0290124
0.0279998
0.0251414
0.0199965
0.0133133
0.0062316
0.0182096
0.045037
0.0583313
0.0622326
0.0602683
0.0575118
0.0601906
0.0687655
0.0763732
0.0772992
0.0739682
0.0709255
0.0679148
0.0651646
0.062136
0.0557076
0.0451244
0.0318508
0.01342
0.0268002
0.0592396
0.0757892
0.0813191
0.0803014
0.0785704
0.0817958
0.0905328
0.0984495
0.0999682
0.0966385
0.0927856
0.0886066
0.0844259
0.0795821
0.0713667
0.0588424
0.0428947
0.0192312
0.0361769
0.0722269
0.0910232
0.0975688
0.0972327
0.0959736
0.0990347
0.107437
0.115464
0.117291
0.113928
0.109306
0.104092
0.0987077
0.0924243
0.0828278
0.068985
0.0512753
0.0236753
0.0472375
0.085525
0.105913
0.112887
0.113019
0.111922
0.114417
0.122301
0.130573
0.132595
0.129079
0.123569
0.117233
0.110717
0.103221
0.0923816
0.0773728
0.0581367
0.0268172
0.0612249
0.100029
0.120932
0.127607
0.128052
0.127121
0.128817
0.136063
0.144811
0.147028
0.143168
0.136771
0.129116
0.121365
0.112794
0.10075
0.0846334
0.0639382
0.0290354
0.0796548
0.116908
0.136234
0.141753
0.14228
0.14159
0.142421
0.149008
0.158529
0.16097
0.156476
0.149237
0.140304
0.13103
0.121453
0.108202
0.0910772
0.0690088
0.0308678
0.103695
0.1373
0.151791
0.155297
0.155611
0.15511
0.155196
0.161173
0.171777
0.174363
0.168843
0.16066
0.150649
0.140035
0.129305
0.114759
0.0968877
0.0737724
0.0331006
0.0249696
0.0552992
0.0728815
0.0843148
0.0914373
0.095689
0.0985381
0.100957
0.10342
0.106147
0.109253
0.1128
0.11683
0.121335
0.126223
0.131273
0.136243
0.140838
0.144394
0.145281
0.141208
0.130288
0.105648
0.0324104
0.0706002
0.0912915
0.104057
0.111192
0.114736
0.116866
0.118855
0.121193
0.124041
0.127439
0.13136
0.135713
0.140366
0.145151
0.149915
0.154507
0.158762
0.162252
0.163648
0.161367
0.155765
0.14977
0.0418783
0.0893658
0.112619
0.126384
0.133151
0.135562
0.136653
0.138045
0.140205
0.143164
0.146806
0.150943
0.155357
0.159832
0.164257
0.168587
0.172626
0.176264
0.179345
0.180897
0.180159
0.1789
0.180133
0.054392
0.11028
0.135595
0.150243
0.156671
0.157976
0.157806
0.158323
0.160106
0.163033
0.166722
0.170771
0.174875
0.178827
0.182615
0.186363
0.190021
0.193355
0.196201
0.197924
0.19839
0.199791
0.203701
0.0676561
0.131638
0.158481
0.174219
0.18095
0.182056
0.180455
0.179457
0.180429
0.183036
0.186434
0.189951
0.193333
0.196555
0.199721
0.202999
0.206409
0.209696
0.212605
0.214292
0.215476
0.218736
0.223346
0.0793133
0.147298
0.177656
0.196436
0.204822
0.207571
0.204738
0.200964
0.200754
0.20298
0.205859
0.208354
0.210513
0.212727
0.215284
0.218173
0.221108
0.223941
0.226372
0.227722
0.230116
0.234968
0.239727
0.0825233
0.155476
0.193799
0.221652
0.229737
0.231597
0.228447
0.221327
0.220487
0.222875
0.225025
0.225762
0.225949
0.2266
0.228154
0.23034
0.232561
0.234328
0.235765
0.237619
0.241556
0.246573
0.25128
0.0761238
0.157328
0.210159
0.257897
0.260176
0.251732
0.244007
0.238156
0.237522
0.238696
0.238746
0.237629
0.236846
0.237021
0.238303
0.24024
0.242184
0.243307
0.243797
0.245887
0.250247
0.254408
0.256489
0.0702322
0.150905
0.222523
0.293096
0.296769
0.273929
0.257311
0.250576
0.249166
0.246592
0.24403
0.242824
0.243123
0.244513
0.246753
0.249763
0.252131
0.252178
0.250344
0.251229
0.254776
0.257483
0.257248
0.0648526
0.145548
0.222513
0.289302
0.329702
0.300744
0.268802
0.257262
0.254601
0.251056
0.247177
0.245498
0.24703
0.249604
0.252505
0.25509
0.256251
0.255387
0.252828
0.252941
0.255559
0.256884
0.255485
0.064289
0.145496
0.221249
0.272265
0.31356
0.303998
0.2713
0.253992
0.248887
0.247441
0.245585
0.244881
0.246438
0.24813
0.249912
0.250347
0.250489
0.249795
0.249021
0.250024
0.252188
0.25295
0.251788
0.0698415
0.153963
0.219073
0.257458
0.288359
0.285065
0.264155
0.247803
0.24049
0.238266
0.237597
0.237801
0.238297
0.23914
0.239629
0.239879
0.240242
0.24054
0.241284
0.243064
0.245214
0.246422
0.246302
0.0820723
0.171265
0.212954
0.241714
0.263368
0.262652
0.249897
0.237827
0.23102
0.228304
0.227452
0.227308
0.227547
0.228093
0.228633
0.229259
0.230134
0.231296
0.232916
0.234967
0.23695
0.238179
0.238162
0.0922881
0.175628
0.20323
0.223262
0.236862
0.237207
0.230426
0.22341
0.21921
0.217596
0.217346
0.217602
0.218104
0.218801
0.219594
0.220515
0.221665
0.223083
0.224719
0.226351
0.227589
0.228036
0.227444
0.0895151
0.163671
0.187254
0.201997
0.210604
0.211747
0.209233
0.206624
0.205561
0.205948
0.207047
0.208265
0.209407
0.210481
0.211504
0.212518
0.213588
0.214722
0.215783
0.21655
0.216775
0.216312
0.215257
0.079435
0.145469
0.167983
0.180082
0.1865
0.188527
0.188873
0.189429
0.190927
0.193184
0.195658
0.197905
0.19976
0.201254
0.202456
0.203433
0.204243
0.204889
0.205278
0.205238
0.204695
0.203725
0.202664
0.0685598
0.126525
0.148027
0.159145
0.165024
0.167964
0.170119
0.172609
0.175726
0.179219
0.182643
0.185637
0.18805
0.189896
0.191253
0.192197
0.192795
0.193075
0.193035
0.192585
0.191788
0.190871
0.190272
0.0573753
0.107845
0.128516
0.139489
0.145625
0.14942
0.152682
0.1562
0.160106
0.164169
0.168035
0.171411
0.174155
0.176257
0.177775
0.178786
0.179361
0.179558
0.179429
0.179051
0.178518
0.178117
0.178299
0.0457024
0.0893566
0.109584
0.120875
0.127623
0.132186
0.136122
0.140137
0.144296
0.14846
0.152385
0.155854
0.158741
0.161019
0.162726
0.163925
0.164692
0.165107
0.165257
0.165267
0.165326
0.165711
0.166803
0.0362826
0.0712576
0.0913023
0.103236
0.110749
0.116005
0.120367
0.124617
0.128767
0.132796
0.13658
0.139977
0.142894
0.1453
0.147215
0.148694
0.149806
0.150639
0.151298
0.151925
0.152714
0.153928
0.15588
0.0284775
0.0570257
0.0754529
0.0874637
0.0954926
0.101259
0.105914
0.110184
0.114203
0.118021
0.121601
0.124877
0.127774
0.130275
0.132396
0.134179
0.135688
0.137006
0.138237
0.139516
0.14102
0.142967
0.145607
0.0222817
0.0471843
0.063396
0.074694
0.0826858
0.0886078
0.0933511
0.0975202
0.101384
0.104987
0.108357
0.111479
0.114327
0.116889
0.119179
0.12123
0.123095
0.124848
0.126582
0.128414
0.13049
0.132983
0.13608
0.0179255
0.0406383
0.0548735
0.0651158
0.0726662
0.0784368
0.083095
0.087109
0.0907892
0.0941935
0.097378
0.100359
0.103136
0.105713
0.108102
0.110333
0.11245
0.114515
0.116605
0.118817
0.121266
0.124087
0.127415
0.0151891
0.0360977
0.0487818
0.0580526
0.0650789
0.0705875
0.0750957
0.078971
0.0824747
0.0857149
0.0887488
0.0916067
0.0943042
0.0968537
0.0992724
0.101587
0.103836
0.10607
0.108353
0.110763
0.11339
0.116336
0.119704
0.0135313
0.0327316
0.0441938
0.0526968
0.0592896
0.0645702
0.0689545
0.0727371
0.0761292
0.0792597
0.0821874
0.0849499
0.087571
0.0900699
0.0924671
0.0947888
0.0970691
0.0993515
0.101689
0.104146
0.106792
0.109708
0.112972
0.0124746
0.0301311
0.0406092
0.0485049
0.0547661
0.0598844
0.0641962
0.0679409
0.0712901
0.0743691
0.077239
0.0799404
0.0825019
0.0849464
0.087297
0.0895799
0.0918268
0.0940764
0.0963742
0.0987733
0.101332
0.104115
0.107182
0.0117331
0.0280922
0.0377781
0.0451735
0.051165
0.0561615
0.0604342
0.0641764
0.0675286
0.0706029
0.0734569
0.0761312
0.078656
0.0810564
0.0833564
0.0855823
0.0877644
0.0899377
0.0921432
0.0944264
0.0968378
0.0994297
0.102254
0.0111828
0.0264883
0.0355404
0.0425154
0.0482711
0.0531604
0.0574034
0.0611552
0.0645347
0.067632
0.0704983
0.0731716
0.0756814
0.0780528
0.0803098
0.082478
0.0845863
0.0866677
0.0887592
0.0909021
0.0931408
0.0955212
0.0980888
0.0107629
0.0252217
0.0337687
0.0403927
0.0459387
0.0507256
0.0549364
0.0586996
0.0621156
0.0652476
0.0681409
0.0708294
0.0733397
0.0756954
0.0779196
0.0800367
0.0820742
0.084063
0.0860377
0.0880366
0.0900999
0.0922696
0.094587
0.0104324
0.024215
0.0323614
0.0387006
0.0440673
0.0487609
0.0529441
0.0567237
0.0601718
0.0633396
0.0662643
0.0689744
0.0714929
0.073841
0.07604
0.0781128
0.0800853
0.081987
0.0838505
0.0857115
0.0876081
0.0895791
0.0916633
0.010176
0.0234429
0.0312724
0.0373878
0.0426154
0.0472403
0.0514049
0.0551957
0.0586706
0.06187
0.0648233
0.0675535
0.07008
0.0724214
0.0745971
0.0766285
0.0785402
0.0803599
0.0821189
0.0838512
0.0855928
0.0873807
0.0892518
0.00999056
0.0228843
0.0304952
0.036461
0.041598
0.0461796
0.0503347
0.0541367
0.0576328
0.0608553
0.0638277
0.0665687
0.0690949
0.0714227
0.0735699
0.0755567
0.0774064
0.0791457
0.0808044
0.0824152
0.0840124
0.0856316
0.0873082
0.00988265
0.0225534
0.0300578
0.0359633
0.0410715
0.0456455
0.0498054
0.053618
0.0571251
0.060355
0.0633284
0.0660617
0.0685699
0.0708683
0.0729737
0.0749055
0.0766859
0.0783408
0.0798987
0.081391
0.0828507
0.0843119
0.0858087
0.00987263
0.0225182
0.0300702
0.0360293
0.0411797
0.0457798
0.0499505
0.0537612
0.0572558
0.0604641
0.0634073
0.0661023
0.0685639
0.0708072
0.0728486
0.074707
0.076404
0.0779643
0.0794155
0.0807875
0.0821121
0.0834216
0.0847483
0.0100128
0.0229499
0.0307729
0.0369182
0.0421709
0.0468059
0.0509644
0.0547327
0.0581666
0.0613031
0.0641674
0.0667785
0.0691522
0.071304
0.0732501
0.075009
0.0766015
0.0780513
0.0793848
0.0806302
0.0818174
0.0829769
0.084139
0.0104337
0.02421
0.0325912
0.0390341
0.0443946
0.0490135
0.0530836
0.0567258
0.0600168
0.0630047
0.0657206
0.068186
0.0704178
0.0724313
0.0742424
0.0758687
0.07733
0.0786486
0.0798489
0.0809574
0.0820016
0.0830095
0.0840087
0.0114281
0.0269227
0.0361328
0.0428828
0.0482462
0.0527058
0.0565424
0.0599255
0.0629562
0.0656937
0.0681734
0.0704175
0.0724426
0.0742629
0.075893
0.0773487
0.0786481
0.0798113
0.0808606
0.0818194
0.0827126
0.083565
0.0844009
0.0135448
0.0319247
0.0420764
0.0489458
0.0540531
0.0581097
0.0615066
0.0644613
0.0670924
0.0694638
0.0716099
0.0735507
0.0752998
0.0768687
0.0782692
0.0795146
0.0806202
0.0816032
0.0824825
0.0832785
0.0840122
0.0847046
0.0853762
0.0176758
0.0401435
0.0509976
0.0575037
0.0619341
0.0652753
0.0680058
0.070362
0.0724603
0.0743569
0.0760788
0.0776396
0.0790478
0.0803107
0.0814364
0.0824346
0.0833169
0.0840968
0.0847894
0.0854109
0.085978
0.0865074
0.0870149
0.0254518
0.0526271
0.0631684
0.0684462
0.0716799
0.0740107
0.0758973
0.0775353
0.0790095
0.0803555
0.0815877
0.0827113
0.083729
0.0846435
0.0854589
0.0861809
0.0868171
0.0873768
0.0878706
0.0883101
0.0887072
0.0890738
0.0894206
0.0415488
0.0705696
0.0781654
0.0810783
0.0827109
0.0838976
0.0848947
0.085792
0.086622
0.0873948
0.0881121
0.0887727
0.089375
0.0899185
0.090404
0.090834
0.0912121
0.0915435
0.0918341
0.0920908
0.0923203
0.0925297
0.0927248
0.0863311
0.0936023
0.0938835
0.093999
0.0941903
0.0944226
0.0946692
0.0949176
0.0951613
0.0953961
0.0956188
0.095827
0.0960188
0.0961931
0.0963495
0.0964883
0.0966103
0.096717
0.0968102
0.096892
0.0969645
0.0970299
0.09709
0.0914406
0.0826704
0.0818316
0.0915821
0.151012
0.153996
0.159605
0.16926
0.185197
0.190062
0.196316
0.204073
0.2081
0.211169
0.214693
0.219346
0.225673
0.227337
0.229786
0.233516
0.242595
0.243993
0.245912
0.2483
0.254956
0.256398
0.25624
0.254656
0.256919
0.256456
0.254572
0.25197
0.254843
0.252636
0.249984
0.247417
0.252243
0.249778
0.247141
0.244658
0.249397
0.247396
0.245107
0.24283
0.244656
0.243074
0.241197
0.23923
0.236735
0.235478
0.234043
0.232486
0.226156
0.225225
0.224252
0.223164
0.214269
0.213717
0.213224
0.212636
0.202189
0.20208
0.202088
0.20202
0.190468
0.190844
0.191362
0.191817
0.17923
0.180088
0.181093
0.182049
0.16843
0.169724
0.171157
0.172551
0.158079
0.159709
0.161465
0.163202
0.148209
0.15007
0.152041
0.154007
0.138907
0.140896
0.142981
0.145072
0.130313
0.132335
0.134441
0.136565
0.122548
0.124523
0.126574
0.128651
0.115672
0.117543
0.119483
0.121455
0.109684
0.111416
0.11321
0.11504
0.104534
0.10611
0.107742
0.109412
0.100144
0.101562
0.10303
0.104537
0.0964275
0.0976944
0.0990061
0.100355
0.0933061
0.0944336
0.0956004
0.0968021
0.0907154
0.0917163
0.0927511
0.0938177
0.0886093
0.0894953
0.0904102
0.0913538
0.0869606
0.0877414
0.0885465
0.0893768
0.0857608
0.0864434
0.0871462
0.0878707
0.0850181
0.0856076
0.0862133
0.0868373
0.0847578
0.0852572
0.0857692
0.0862963
0.0850217
0.0854329
0.0858534
0.086286
0.0858698
0.0861944
0.0865256
0.0868656
0.0873834
0.0876237
0.087868
0.0881182
0.0896686
0.0898287
0.0899904
0.0901556
0.0928614
0.0929482
0.0930352
0.0931237
0.0971308
0.0971562
0.0971814
0.097207
0.133741
0.167398
0.174305
0.17423
0.174204
0.174136
0.173712
0.178846
0.191614
0.194021
0.186412
0.1765
0.164747
0.152844
0.14042
0.123592
0.104551
0.0812518
0.0382723
0.191567
0.196544
0.200212
0.197667
0.195432
0.193832
0.193151
0.196933
0.212578
0.215502
0.204462
0.191108
0.177221
0.164972
0.152406
0.133138
0.110914
0.085654
0.0462782
0.217378
0.217464
0.222801
0.221529
0.215761
0.209893
0.207034
0.20961
0.221508
0.229901
0.216986
0.199042
0.18258
0.169452
0.154099
0.13257
0.108573
0.0821525
0.0419711
0.22899
0.237239
0.250537
0.254524
0.241234
0.225934
0.218306
0.218554
0.225201
0.230936
0.221643
0.200977
0.183508
0.169304
0.151351
0.127719
0.100968
0.0735868
0.0338889
0.24116
0.255902
0.281475
0.292784
0.269802
0.241065
0.227392
0.226414
0.230477
0.22782
0.217449
0.200489
0.185011
0.171268
0.154133
0.131152
0.102252
0.0695279
0.0306134
0.250546
0.264595
0.289219
0.29492
0.268619
0.242959
0.232225
0.232164
0.233069
0.227506
0.215905
0.201758
0.188441
0.176096
0.162265
0.142983
0.114195
0.0791321
0.0343773
0.251677
0.25891
0.273107
0.274249
0.255664
0.23921
0.232711
0.232262
0.231227
0.226138
0.216986
0.205082
0.19232
0.180587
0.17154
0.157383
0.129178
0.093433
0.0429202
0.248307
0.250106
0.256089
0.257085
0.249146
0.23773
0.231579
0.229408
0.227581
0.223239
0.215803
0.205594
0.193333
0.181296
0.172681
0.158939
0.135778
0.105695
0.0535776
0.243894
0.242613
0.243432
0.242712
0.24142
0.240335
0.232922
0.226941
0.223685
0.219546
0.212779
0.203102
0.190856
0.178192
0.165602
0.151507
0.132794
0.10589
0.051812
0.24119
0.238316
0.236371
0.233445
0.231026
0.232412
0.229549
0.221988
0.217987
0.214701
0.208569
0.198957
0.186624
0.174322
0.159381
0.143415
0.126081
0.098873
0.0446658
0.239421
0.235518
0.23196
0.227471
0.222574
0.219501
0.216486
0.211255
0.2057
0.201128
0.195244
0.187348
0.177566
0.166157
0.150619
0.132901
0.11464
0.0875849
0.0387603
0.236028
0.231509
0.227049
0.221851
0.21596
0.210656
0.206091
0.201387
0.196516
0.191282
0.185211
0.17785
0.168038
0.155287
0.139053
0.120662
0.101249
0.0751246
0.032283
0.229729
0.225147
0.220383
0.215155
0.209412
0.203824
0.198839
0.194136
0.189089
0.182996
0.175747
0.167301
0.156739
0.143461
0.127113
0.108641
0.0891476
0.0648983
0.0280397
0.221037
0.216888
0.212316
0.207475
0.202294
0.197122
0.192224
0.187435
0.181965
0.174985
0.166697
0.157368
0.146285
0.132816
0.116811
0.0991842
0.080833
0.0588104
0.0271191
0.211248
0.207893
0.203911
0.199659
0.195148
0.190462
0.185704
0.180736
0.174887
0.167482
0.15883
0.149081
0.137814
0.124659
0.10987
0.0943226
0.0780234
0.0579821
0.0287417
0.20145
0.199143
0.196049
0.192554
0.188732
0.184546
0.179968
0.174883
0.168888
0.161495
0.152883
0.143139
0.132122
0.119935
0.107175
0.0941885
0.0800996
0.0614174
0.0314143
0.192114
0.191016
0.189002
0.18642
0.183339
0.1797
0.175411
0.170389
0.164457
0.157343
0.149027
0.139636
0.129349
0.11857
0.107762
0.0968121
0.0844114
0.0666333
0.0341148
0.183207
0.183374
0.182532
0.180957
0.178694
0.175677
0.171818
0.167063
0.161368
0.154643
0.146856
0.138138
0.128823
0.119335
0.109918
0.100232
0.0888569
0.0717166
0.0364127
0.174498
0.175879
0.176201
0.175658
0.174268
0.171964
0.168678
0.164383
0.15911
0.152887
0.145728
0.137812
0.129447
0.12096
0.112445
0.103476
0.0926611
0.0759442
0.0383425
0.165801
0.168245
0.169635
0.170083
0.169576
0.168053
0.165455
0.161776
0.15708
0.151459
0.145005
0.137883
0.130349
0.122633
0.114729
0.106178
0.095646
0.0789836
0.0400904
0.157081
0.16036
0.162649
0.163984
0.164324
0.163597
0.16175
0.158786
0.154776
0.149839
0.144109
0.137756
0.130986
0.123938
0.116528
0.108273
0.097881
0.0811718
0.0413828
0.148429
0.152281
0.155262
0.157337
0.158432
0.158464
0.157374
0.155164
0.151901
0.147707
0.142729
0.137137
0.131092
0.124666
0.117714
0.10973
0.0994356
0.0827629
0.0422361
0.140031
0.144205
0.147655
0.15029
0.152009
0.152714
0.152337
0.150871
0.148369
0.144943
0.140736
0.135903
0.130568
0.124752
0.118261
0.110554
0.100333
0.0836778
0.0428488
0.132084
0.136363
0.14007
0.14308
0.145271
0.146533
0.146789
0.146015
0.14425
0.141584
0.138144
0.134061
0.129425
0.124213
0.118189
0.11077
0.100605
0.0838467
0.0431731
0.124747
0.128961
0.132745
0.135959
0.138472
0.140164
0.140949
0.140789
0.139702
0.137757
0.135053
0.131693
0.12773
0.123106
0.117547
0.110427
0.10034
0.0834311
0.0430796
0.11812
0.122148
0.125871
0.129149
0.131847
0.133844
0.135046
0.135404
0.134916
0.133625
0.131602
0.128915
0.125581
0.121509
0.116401
0.109586
0.0996309
0.0826258
0.0425021
0.112242
0.11601
0.119576
0.12281
0.125581
0.12777
0.129282
0.130056
0.130073
0.129353
0.127934
0.12585
0.123084
0.119513
0.11482
0.108306
0.0985288
0.0815433
0.0415434
0.107103
0.110574
0.113926
0.117041
0.119798
0.122085
0.123808
0.124899
0.125324
0.125079
0.124175
0.122611
0.120338
0.117203
0.112873
0.106642
0.0970635
0.0802186
0.0405395
0.102662
0.105826
0.108934
0.111883
0.114565
0.116875
0.118724
0.12004
0.120778
0.120912
0.120427
0.119293
0.117429
0.114659
0.110628
0.104656
0.0952845
0.0786786
0.0396689
0.0988631
0.101727
0.104581
0.107337
0.109901
0.112179
0.114084
0.115545
0.116507
0.116928
0.116768
0.115973
0.114436
0.111959
0.108178
0.102421
0.0932732
0.0770086
0.0388742
0.0956511
0.0982294
0.10083
0.10338
0.105798
0.108
0.109906
0.111443
0.112551
0.113174
0.113253
0.112712
0.111423
0.109173
0.105594
0.100024
0.0911227
0.0752943
0.0380465
0.0929786
0.0952855
0.0976388
0.099977
0.10223
0.104324
0.106184
0.107741
0.108927
0.109678
0.109919
0.109555
0.108444
0.106364
0.102949
0.0975623
0.0889104
0.073548
0.0370503
0.0908084
0.0928581
0.0949703
0.0970935
0.0991674
0.101127
0.102905
0.104432
0.10564
0.106454
0.10679
0.106538
0.105545
0.103583
0.100297
0.0950788
0.0866867
0.0717464
0.0358294
0.0891209
0.0909235
0.0927998
0.0947041
0.0965857
0.0983878
0.10005
0.101506
0.102686
0.103509
0.103882
0.103685
0.102757
0.100871
0.0976778
0.0925939
0.084427
0.0698522
0.0345029
0.0879147
0.0894785
0.0911188
0.0927976
0.0944718
0.096093
0.0976079
0.098955
0.100062
0.100846
0.101206
0.101015
0.100109
0.0982579
0.0951208
0.0901276
0.0821259
0.0679234
0.033481
0.0872066
0.0885361
0.0899369
0.0913801
0.0928284
0.0942418
0.0955765
0.0967766
0.097771
0.0984725
0.0987753
0.0985482
0.0976229
0.0957702
0.0926536
0.0877126
0.079823
0.065928
0.032627
0.087033
0.0881296
0.089286
0.0904798
0.0916771
0.092848
0.0939638
0.0949774
0.0958195
0.0964001
0.0966084
0.0963087
0.0953298
0.093443
0.0903166
0.0854005
0.0775975
0.0639727
0.0317906
0.0874526
0.0883174
0.0892252
0.0901507
0.091062
0.0919399
0.0927863
0.0935693
0.0942212
0.0946475
0.0947312
0.0943308
0.0932719
0.0913266
0.0881689
0.0832622
0.0755396
0.0621754
0.0310134
0.0885499
0.0891863
0.0898434
0.0904816
0.091057
0.0915564
0.0920601
0.092562
0.0929895
0.0932369
0.0931764
0.0926586
0.0915046
0.0894867
0.0862854
0.0813805
0.0737419
0.0606413
0.0303864
0.0904401
0.0908582
0.0912723
0.0916153
0.0917855
0.0917333
0.0917806
0.0919472
0.0921277
0.0921874
0.0919794
0.0913424
0.0900913
0.0879979
0.0847487
0.0798426
0.0722937
0.0594711
0.0300236
0.0932759
0.0934985
0.0936993
0.0937765
0.0934851
0.0924533
0.091875
0.0916709
0.0916131
0.0915052
0.0911702
0.0904318
0.0890974
0.0869371
0.0836422
0.0787302
0.0712659
0.0587394
0.0300513
0.0972517
0.0973178
0.0973685
0.0973107
0.0967249
0.0934522
0.0921162
0.0916033
0.0913837
0.0911731
0.0907635
0.0899656
0.0885807
0.0863764
0.0830457
0.0781183
0.0707047
0.0584244
0.0305119
)
;

boundaryField
{
    leftWall
    {
        type            kqRWallFunction;
        value           nonuniform List<scalar> 
50
(
0.00236544
0.0052112
0.00767998
0.0100396
0.0124225
0.0149572
0.0177604
0.0209356
0.0249696
0.0324104
0.0418783
0.054392
0.0676561
0.0793133
0.0825233
0.0761238
0.0702322
0.0648526
0.064289
0.0698415
0.0820723
0.0922881
0.0895151
0.079435
0.0685598
0.0573753
0.0457024
0.0362826
0.0284775
0.0222817
0.0179255
0.0151891
0.0135313
0.0124746
0.0117331
0.0111828
0.0107629
0.0104324
0.010176
0.00999056
0.00988265
0.00987263
0.0100128
0.0104337
0.0114281
0.0135448
0.0176758
0.0254518
0.0415488
0.0863311
)
;
    }
    rightWall
    {
        type            kqRWallFunction;
        value           nonuniform List<scalar> 
50
(
0.0062316
0.01342
0.0192312
0.0236753
0.0268172
0.0290354
0.0308678
0.0331006
0.0382723
0.0462782
0.0419711
0.0338889
0.0306134
0.0343773
0.0429202
0.0535776
0.051812
0.0446658
0.0387603
0.032283
0.0280397
0.0271191
0.0287417
0.0314143
0.0341148
0.0364127
0.0383425
0.0400904
0.0413828
0.0422361
0.0428488
0.0431731
0.0430796
0.0425021
0.0415434
0.0405395
0.0396689
0.0388742
0.0380465
0.0370503
0.0358294
0.0345029
0.033481
0.032627
0.0317906
0.0310134
0.0303864
0.0300236
0.0300513
0.0305119
)
;
    }
    lowerWall
    {
        type            kqRWallFunction;
        value           nonuniform List<scalar> 
62
(
0.00236544
0.00666568
0.0103311
0.013049
0.015087
0.0166141
0.0177631
0.0186424
0.0193202
0.0198183
0.0201513
0.0204378
0.0207624
0.0211452
0.0219022
0.0232781
0.0251054
0.0267881
0.0274823
0.0263499
0.0228414
0.0165836
0.00802719
0.00802719
0.0160818
0.0206826
0.0242944
0.0278663
0.0324863
0.0400459
0.0568442
0.0914406
0.0826704
0.0818316
0.0915821
0.00696773
0.0182096
0.0268002
0.0361769
0.0472375
0.0612249
0.0796548
0.103695
0.00696773
0.0214953
0.0285691
0.0302851
0.0280974
0.0258712
0.0267232
0.0310887
0.0351475
0.0354456
0.0334363
0.03155
0.0300929
0.0290124
0.0279998
0.0251414
0.0199965
0.0133133
0.0062316
)
;
    }
    atmosphere
    {
        type            inletOutlet;
        inletValue      uniform 0.1;
        value           nonuniform List<scalar> 
46
(
0.1
0.1
0.1
0.1
0.1
0.1
0.1
0.1
0.1
0.1
0.1
0.1
0.1
0.1
0.1
0.1
0.1
0.1
0.1
0.1
0.1
0.1
0.1
0.1
0.1
0.1
0.1
0.1
0.1
0.1
0.1
0.1
0.0934522
0.0921162
0.0916033
0.0913837
0.0911731
0.0907635
0.0899656
0.0885807
0.0863764
0.0830457
0.0781183
0.0707047
0.0584244
0.0305119
)
;
    }
    defaultFaces
    {
        type            empty;
    }
}


// ************************************************************************* //
