/*--------------------------------*- C++ -*----------------------------------*\
| =========                 |                                                 |
| \\      /  F ield         | OpenFOAM: The Open Source CFD Toolbox           |
|  \\    /   O peration     | Version:  2.3.0                                 |
|   \\  /    A nd           | Web:      www.OpenFOAM.org                      |
|    \\/     M anipulation  |                                                 |
\*---------------------------------------------------------------------------*/
FoamFile
{
    version     2.0;
    format      ascii;
    class       surfaceScalarField;
    location    "1.4";
    object      phi;
}
// * * * * * * * * * * * * * * * * * * * * * * * * * * * * * * * * * * * * * //

dimensions      [0 3 -1 0 0 0 0];

internalField   nonuniform List<scalar> 
4432
(
3.61991e-07
-3.61991e-07
3.03813e-06
-2.67615e-06
6.51481e-06
-3.47668e-06
9.90359e-06
-3.38875e-06
1.29541e-05
-3.05049e-06
1.55912e-05
-2.63711e-06
1.77983e-05
-2.20713e-06
1.95864e-05
-1.78808e-06
2.09603e-05
-1.3739e-06
2.18861e-05
-9.25821e-07
2.22939e-05
-4.07808e-07
2.21777e-05
1.16215e-07
2.15769e-05
6.00847e-07
2.02508e-05
1.32611e-06
1.84531e-05
1.79766e-06
1.67195e-05
1.7336e-06
1.5443e-05
1.27655e-06
1.48666e-05
5.76395e-07
1.46914e-05
1.75186e-07
1.40159e-05
6.75444e-07
1.16584e-05
2.35756e-06
6.47158e-06
5.18678e-06
6.47156e-06
1.4581e-06
-1.82008e-06
4.27244e-06
-5.49048e-06
7.34601e-06
-6.55026e-06
1.03239e-05
-6.36665e-06
1.30137e-05
-5.74029e-06
1.53209e-05
-4.94428e-06
1.72106e-05
-4.09687e-06
1.86812e-05
-3.25868e-06
1.97407e-05
-2.43336e-06
2.04001e-05
-1.58528e-06
2.06805e-05
-6.8814e-07
2.05788e-05
2.17896e-07
2.00541e-05
1.12558e-06
1.91033e-05
2.2769e-06
1.7795e-05
3.10595e-06
1.63835e-05
3.14511e-06
1.51206e-05
2.53948e-06
1.41288e-05
1.56813e-06
1.32891e-05
1.01488e-06
1.21444e-05
1.82014e-06
1.0201e-05
4.30099e-06
6.88387e-06
8.50387e-06
1.33554e-05
2.18446e-06
-4.00455e-06
5.02285e-06
-8.32887e-06
7.85101e-06
-9.37842e-06
1.05192e-05
-9.03481e-06
1.29059e-05
-8.12699e-06
1.49262e-05
-6.96459e-06
1.65431e-05
-5.71383e-06
1.7755e-05
-4.47054e-06
1.85755e-05
-3.25384e-06
1.9026e-05
-2.03581e-06
1.91316e-05
-7.9373e-07
1.88975e-05
4.52025e-07
1.83299e-05
1.69317e-06
1.75632e-05
3.04362e-06
1.66632e-05
4.00596e-06
1.56472e-05
4.16109e-06
1.45631e-05
3.62362e-06
1.34967e-05
2.63452e-06
1.2372e-05
2.1396e-06
1.08616e-05
3.33056e-06
8.7348e-06
6.42777e-06
5.89835e-06
1.13403e-05
1.92538e-05
2.55031e-06
-6.55486e-06
5.45806e-06
-1.12366e-05
8.14086e-06
-1.20612e-05
1.05791e-05
-1.14731e-05
1.27194e-05
-1.02672e-05
1.44951e-05
-8.74038e-06
1.58772e-05
-7.09585e-06
1.68724e-05
-5.46578e-06
1.75051e-05
-3.88649e-06
1.78071e-05
-2.33789e-06
1.78134e-05
-7.99987e-07
1.75535e-05
7.11952e-07
1.70767e-05
2.16991e-06
1.65327e-05
3.58767e-06
1.59577e-05
4.58093e-06
1.52275e-05
4.89132e-06
1.4291e-05
4.56012e-06
1.31975e-05
3.72793e-06
1.19225e-05
3.41468e-06
1.01813e-05
5.0717e-06
7.84449e-06
8.76462e-06
5.01728e-06
1.41675e-05
2.42711e-05
2.75092e-06
-9.30579e-06
5.68363e-06
-1.41694e-05
8.24204e-06
-1.46196e-05
1.04927e-05
-1.37238e-05
1.2429e-05
-1.22034e-05
1.39975e-05
-1.03089e-05
1.51804e-05
-8.27878e-06
1.60002e-05
-6.28561e-06
1.6496e-05
-4.38228e-06
1.67127e-05
-2.55457e-06
1.66991e-05
-7.86396e-07
1.65078e-05
9.03248e-07
1.62132e-05
2.46451e-06
1.5935e-05
3.8659e-06
1.56568e-05
4.85914e-06
1.51857e-05
5.36244e-06
1.43936e-05
5.35216e-06
1.33424e-05
4.77913e-06
1.20044e-05
4.75265e-06
1.00923e-05
6.98381e-06
7.52615e-06
1.13308e-05
4.50425e-06
1.71894e-05
2.87753e-05
2.90165e-06
-1.22074e-05
5.76241e-06
-1.70301e-05
8.15954e-06
-1.70168e-05
1.02358e-05
-1.58e-05
1.20014e-05
-1.39691e-05
1.33999e-05
-1.17074e-05
1.44236e-05
-9.30244e-06
1.51153e-05
-6.97723e-06
1.55322e-05
-4.79927e-06
1.57332e-05
-2.75558e-06
1.57802e-05
-8.33393e-07
1.57405e-05
9.43003e-07
1.56931e-05
2.51184e-06
1.57192e-05
3.83983e-06
1.57521e-05
4.82625e-06
1.55476e-05
5.5669e-06
1.49366e-05
5.9632e-06
1.40226e-05
5.69317e-06
1.27039e-05
6.07131e-06
1.06898e-05
8.9979e-06
7.93447e-06
1.40861e-05
4.58785e-06
2.0536e-05
3.33632e-05
3.02344e-06
-1.52309e-05
5.68363e-06
-1.96903e-05
7.85689e-06
-1.919e-05
9.76016e-06
-1.77033e-05
1.13873e-05
-1.55962e-05
1.26563e-05
-1.29764e-05
1.35662e-05
-1.02123e-05
1.41846e-05
-7.59561e-06
1.45892e-05
-5.20388e-06
1.48507e-05
-3.01703e-06
1.50394e-05
-1.02208e-06
1.52259e-05
7.56472e-07
1.54805e-05
2.25727e-06
1.5845e-05
3.47527e-06
1.62156e-05
4.4557e-06
1.62975e-05
5.48499e-06
1.59671e-05
6.29359e-06
1.52778e-05
6.3825e-06
1.40612e-05
7.28788e-06
1.20725e-05
1.09867e-05
9.28726e-06
1.68713e-05
5.52329e-06
2.43e-05
3.88865e-05
3.05797e-06
-1.82889e-05
5.38646e-06
-2.20188e-05
7.28023e-06
-2.10838e-05
9.01614e-06
-1.94392e-05
1.05405e-05
-1.71206e-05
1.17221e-05
-1.41581e-05
1.25657e-05
-1.10559e-05
1.31693e-05
-8.19923e-06
1.36316e-05
-5.66622e-06
1.40303e-05
-3.4157e-06
1.44372e-05
-1.42902e-06
1.49144e-05
2.7927e-07
1.5514e-05
1.6577e-06
1.62395e-05
2.74981e-06
1.69819e-05
3.71324e-06
1.73874e-05
5.07954e-06
1.74699e-05
6.21108e-06
1.70616e-05
6.79078e-06
1.60491e-05
8.3004e-06
1.42535e-05
1.27822e-05
1.1751e-05
1.93738e-05
8.34083e-06
2.77101e-05
4.72273e-05
4.48042e-07
-4.48041e-07
7.71986e-06
-7.27181e-06
1.67015e-05
-8.98162e-06
2.36193e-05
-6.91782e-06
2.57029e-05
-2.08358e-06
2.26553e-05
3.04758e-06
1.71534e-05
5.50193e-06
1.36265e-05
3.52683e-06
1.32521e-05
3.74432e-07
1.1737e-05
1.51512e-06
8.46171e-06
3.27529e-06
6.08039e-06
2.38131e-06
3.90845e-06
2.17194e-06
2.11758e-06
1.79086e-06
2.19401e-06
-7.64057e-08
2.38656e-06
-1.92523e-07
5.9466e-07
1.79189e-06
-2.21133e-06
2.806e-06
-2.21134e-06
3.10578e-06
-3.55381e-06
9.47309e-06
-1.36391e-05
1.59427e-05
-1.54513e-05
2.09814e-05
-1.19564e-05
2.32848e-05
-4.38708e-06
2.22982e-05
4.0342e-06
1.84144e-05
9.38576e-06
1.50459e-05
6.89538e-06
1.37878e-05
1.63246e-06
1.28302e-05
2.4728e-06
1.03017e-05
5.80377e-06
7.98866e-06
4.69437e-06
5.77203e-06
4.38858e-06
4.03586e-06
3.52702e-06
3.31609e-06
6.43378e-07
2.91292e-06
2.10684e-07
1.61279e-06
3.09201e-06
-3.17866e-08
4.4506e-06
-2.24315e-06
4.69382e-06
-8.24763e-06
9.88704e-06
-1.88324e-05
1.46095e-05
-2.01737e-05
1.83394e-05
-1.56864e-05
2.01215e-05
-6.16924e-06
1.94978e-05
4.65792e-06
1.68351e-05
1.20485e-05
1.45613e-05
9.16918e-06
1.33547e-05
2.83901e-06
1.27098e-05
3.11774e-06
1.12782e-05
7.23534e-06
9.12372e-06
6.84888e-06
6.94676e-06
6.56556e-06
5.16482e-06
5.30897e-06
4.04796e-06
1.76025e-06
3.24162e-06
1.01705e-06
2.16188e-06
4.17173e-06
1.06867e-06
5.54383e-06
-1.1745e-06
5.48746e-06
-1.37351e-05
9.41012e-06
-2.2755e-05
1.27198e-05
-2.34834e-05
1.55924e-05
-1.85589e-05
1.70933e-05
-7.67018e-06
1.6847e-05
4.90423e-06
1.55435e-05
1.3352e-05
1.39935e-05
1.07192e-05
1.24272e-05
4.40525e-06
1.1935e-05
3.60997e-06
1.16304e-05
7.5399e-06
9.82133e-06
8.658e-06
7.86424e-06
8.52267e-06
6.02349e-06
7.14974e-06
4.62128e-06
3.16247e-06
3.48598e-06
2.15235e-06
2.36411e-06
5.29359e-06
1.3926e-06
6.51536e-06
2.18088e-07
6.18203e-06
-1.99171e-05
8.39513e-06
-2.49681e-05
1.03739e-05
-2.54622e-05
1.26412e-05
-2.08262e-05
1.41395e-05
-9.16852e-06
1.48568e-05
4.18693e-06
1.47511e-05
1.34577e-05
1.33476e-05
1.21227e-05
1.12906e-05
6.46228e-06
1.06353e-05
4.26527e-06
1.10533e-05
7.12195e-06
1.00362e-05
9.67507e-06
8.67242e-06
9.88645e-06
6.76461e-06
9.05754e-06
5.12155e-06
4.80553e-06
3.65008e-06
3.62384e-06
2.22486e-06
6.71881e-06
1.08488e-06
7.65536e-06
1.30296e-06
7.50177e-06
-2.74189e-05
7.18269e-06
-2.46491e-05
7.85196e-06
-2.61314e-05
9.5308e-06
-2.25051e-05
1.15531e-05
-1.11908e-05
1.34561e-05
2.28393e-06
1.4144e-05
1.27698e-05
1.24685e-05
1.37982e-05
9.85348e-06
9.07731e-06
8.77215e-06
5.3466e-06
9.20182e-06
6.69229e-06
9.61961e-06
9.25729e-06
9.5462e-06
9.95986e-06
7.61266e-06
1.09911e-05
5.61926e-06
6.79893e-06
3.71525e-06
5.52787e-06
1.87706e-06
8.55698e-06
4.80872e-07
9.05156e-06
1.78382e-06
9.96085e-06
-3.73797e-05
6.05398e-06
-2.07422e-05
5.48632e-06
-2.55638e-05
6.81073e-06
-2.38294e-05
9.19275e-06
-1.35729e-05
1.20975e-05
-6.20796e-07
1.32477e-05
1.16196e-05
1.13324e-05
1.57135e-05
7.9922e-06
1.24175e-05
6.16313e-06
7.17567e-06
6.27799e-06
6.57742e-06
7.91058e-06
7.62471e-06
9.65628e-06
8.21419e-06
8.61305e-06
1.20343e-05
6.17957e-06
9.23242e-06
3.78135e-06
7.9261e-06
1.50284e-06
1.08355e-05
-7.33487e-08
1.06278e-05
1.71046e-06
1.35113e-05
-5.0891e-05
5.39403e-06
-1.26249e-05
3.28617e-06
-2.34559e-05
4.36996e-06
-2.49132e-05
6.85324e-06
-1.60562e-05
1.03632e-05
-4.13078e-06
1.19257e-05
1.00572e-05
9.82741e-06
1.78117e-05
5.69016e-06
1.65548e-05
2.99577e-06
9.87006e-06
3.14935e-06
6.42384e-06
5.48017e-06
5.29389e-06
7.92402e-06
5.77034e-06
8.78445e-06
1.11739e-05
6.48951e-06
1.15274e-05
4.27557e-06
1.014e-05
1.83241e-06
1.32786e-05
-1.37884e-07
1.25981e-05
1.57257e-06
5.73654e-06
-2.40254e-05
9.37028e-06
-2.56525e-05
1.24844e-05
-2.41979e-05
1.57629e-05
-2.27177e-05
1.88538e-05
-2.02114e-05
2.12213e-05
-1.65256e-05
2.29302e-05
-1.27647e-05
2.43302e-05
-9.59928e-06
2.56951e-05
-7.03114e-06
2.7195e-05
-4.91561e-06
2.89471e-05
-3.18114e-06
3.10512e-05
-1.82478e-06
3.35205e-05
-8.11565e-07
3.62733e-05
-3.04517e-09
3.90141e-05
9.72446e-07
4.12566e-05
2.83705e-06
4.29003e-05
4.56738e-06
4.32879e-05
6.40314e-06
4.20526e-05
9.53572e-06
3.94006e-05
1.54342e-05
3.60394e-05
2.2735e-05
3.62241e-05
2.75255e-05
2.74828e-05
5.59686e-05
3.0183e-06
-2.70437e-05
4.15194e-06
-2.67862e-05
6.14574e-06
-2.61917e-05
9.3943e-06
-2.59663e-05
1.27981e-05
-2.36153e-05
1.5277e-05
-1.90045e-05
1.70725e-05
-1.45602e-05
1.88255e-05
-1.13523e-05
2.08821e-05
-9.08773e-06
2.33639e-05
-7.39745e-06
2.63142e-05
-6.13144e-06
2.9729e-05
-5.2395e-06
3.35371e-05
-4.61965e-06
3.7554e-05
-4.01999e-06
4.15343e-05
-3.00787e-06
4.54578e-05
-1.08642e-06
4.87738e-05
1.25133e-06
5.06752e-05
4.50183e-06
5.06953e-05
9.51561e-06
4.93966e-05
1.6733e-05
4.76486e-05
2.4483e-05
4.8846e-05
2.63281e-05
2.16688e-05
5.46599e-05
-2.14827e-06
-2.48954e-05
-3.48172e-06
-2.54527e-05
-2.00008e-06
-2.76734e-05
1.93082e-06
-2.98972e-05
6.21036e-06
-2.78948e-05
8.90398e-06
-2.16981e-05
1.07937e-05
-1.645e-05
1.29806e-05
-1.35392e-05
1.58046e-05
-1.19118e-05
1.92555e-05
-1.08483e-05
2.32734e-05
-1.01493e-05
2.77759e-05
-9.74198e-06
3.26232e-05
-9.46692e-06
3.75527e-05
-8.94951e-06
4.23134e-05
-7.7686e-06
4.6974e-05
-5.74696e-06
5.11311e-05
-2.90581e-06
5.40212e-05
1.61171e-06
5.48594e-05
8.6774e-06
5.40043e-05
1.75881e-05
5.36802e-05
2.48071e-05
5.59413e-05
2.40669e-05
1.8007e-05
5.96032e-05
-9.12429e-06
-1.57711e-05
-1.2623e-05
-2.1954e-05
-1.08731e-05
-2.94233e-05
-5.17805e-06
-3.55923e-05
4.29805e-07
-3.35027e-05
3.2827e-06
-2.4551e-05
5.11101e-06
-1.82783e-05
7.75199e-06
-1.61802e-05
1.12344e-05
-1.53942e-05
1.54007e-05
-1.50146e-05
2.01558e-05
-1.49044e-05
2.53451e-05
-1.49313e-05
3.07905e-05
-1.49123e-05
3.61798e-05
-1.43388e-05
4.11436e-05
-1.27323e-05
4.57041e-05
-1.03075e-05
4.97804e-05
-6.98211e-06
5.28602e-05
-1.46808e-06
5.47035e-05
6.83412e-06
5.35266e-05
1.87649e-05
5.34921e-05
2.48415e-05
5.53016e-05
2.22575e-05
2.09672e-05
5.23413e-05
-1.61216e-05
3.5049e-07
-2.23731e-05
-1.57025e-05
-1.94346e-05
-3.23617e-05
-1.16699e-05
-4.33569e-05
-4.71973e-06
-4.04529e-05
-6.37781e-07
-2.8633e-05
1.67137e-06
-2.05874e-05
4.70686e-06
-1.92156e-05
8.308e-06
-1.89953e-05
1.26389e-05
-1.93455e-05
1.75545e-05
-1.98201e-05
2.27807e-05
-2.01574e-05
2.81476e-05
-2.02792e-05
3.33322e-05
-1.95233e-05
3.78539e-05
-1.72541e-05
4.18754e-05
-1.4329e-05
4.62059e-05
-1.13126e-05
4.96975e-05
-4.95975e-06
5.13741e-05
5.15754e-06
5.28577e-05
1.72813e-05
5.32633e-05
2.44361e-05
4.83349e-05
2.71859e-05
2.95094e-05
3.97927e-05
-1.90973e-05
1.9448e-05
-2.36267e-05
-1.11732e-05
-2.04973e-05
-3.54912e-05
-1.6867e-05
-4.69873e-05
-1.11992e-05
-4.61207e-05
-2.64377e-06
-3.71884e-05
1.19885e-06
-2.443e-05
3.6865e-06
-2.17033e-05
6.89521e-06
-2.2204e-05
1.09937e-05
-2.3444e-05
1.56468e-05
-2.44732e-05
2.03756e-05
-2.48862e-05
2.5041e-05
-2.49446e-05
2.96566e-05
-2.41389e-05
3.41055e-05
-2.1703e-05
3.79464e-05
-1.81698e-05
4.25356e-05
-1.59018e-05
4.87646e-05
-1.11888e-05
5.49105e-05
-9.88247e-07
5.57864e-05
1.64054e-05
5.10154e-05
2.92068e-05
4.35617e-05
3.4639e-05
3.46283e-05
3.84428e-05
-1.28617e-05
3.23099e-05
-9.55436e-06
-1.44803e-05
-1.16591e-05
-3.33865e-05
-1.95443e-05
-3.9102e-05
-1.8979e-05
-4.66861e-05
-7.39676e-06
-4.87707e-05
6.35656e-06
-3.81833e-05
5.13093e-06
-2.04776e-05
5.27888e-06
-2.2352e-05
8.23597e-06
-2.64011e-05
1.32067e-05
-2.9444e-05
1.83467e-05
-3.00262e-05
2.21988e-05
-2.87967e-05
2.49805e-05
-2.69207e-05
2.7796e-05
-2.45185e-05
3.21273e-05
-2.25012e-05
3.67878e-05
-2.05622e-05
4.14136e-05
-1.58146e-05
4.36926e-05
-3.2674e-06
4.2413e-05
1.76851e-05
3.95574e-05
3.20629e-05
3.53639e-05
3.88324e-05
3.99363e-05
3.00557e-05
5.08083e-06
2.72291e-05
1.25481e-05
-2.19476e-05
8.5334e-06
-2.93719e-05
-1.94203e-05
-1.11482e-05
-2.67363e-05
-3.93701e-05
-2.15769e-05
-5.393e-05
-1.30131e-05
-4.67472e-05
-9.71226e-06
-2.37785e-05
-1.59677e-05
-1.60962e-05
-1.1539e-05
-3.08301e-05
-6.5974e-07
-4.03232e-05
7.62929e-06
-3.83152e-05
1.33692e-05
-3.45365e-05
1.76357e-05
-3.11872e-05
2.15871e-05
-2.84698e-05
2.31942e-05
-2.41084e-05
2.40677e-05
-2.14358e-05
2.46286e-05
-1.63755e-05
2.37036e-05
-2.34248e-06
2.08622e-05
2.05263e-05
1.87974e-05
3.41275e-05
1.71532e-05
4.04766e-05
4.3674e-05
1.34159e-05
2.57729e-05
1.45615e-06
3.34956e-05
-2.967e-05
2.65844e-05
-2.24607e-05
-9.6547e-06
2.50906e-05
-3.06351e-05
-1.83896e-05
-3.14598e-05
-5.31053e-05
-2.90009e-05
-4.92061e-05
-2.31858e-05
-2.95935e-05
-1.34761e-05
-2.58055e-05
-9.83784e-06
-3.44684e-05
-4.99701e-06
-4.51641e-05
4.45481e-07
-4.37577e-05
5.19278e-06
-3.92839e-05
9.35691e-06
-3.53513e-05
1.43376e-05
-3.34505e-05
1.49301e-05
-2.4701e-05
1.05264e-05
-1.70321e-05
2.58289e-06
-8.43199e-06
-1.74494e-06
1.98542e-06
-2.6051e-06
2.13863e-05
-2.26043e-06
3.37827e-05
-1.88301e-06
4.0099e-05
4.62174e-05
-4.42656e-06
3.20562e-05
-3.06001e-05
4.28485e-05
-4.04624e-05
3.66905e-05
-1.63028e-05
1.97251e-05
4.2056e-05
-9.25864e-06
1.05942e-05
-3.35846e-05
-2.87798e-05
-4.08152e-05
-4.19754e-05
-2.99329e-05
-4.04759e-05
-1.71531e-05
-3.85853e-05
-9.5264e-06
-4.20953e-05
-9.13e-06
-4.55605e-05
-4.96712e-06
-4.79205e-05
-3.16684e-06
-4.10841e-05
-2.40842e-06
-3.61098e-05
-8.47159e-06
-2.73875e-05
-1.42089e-05
-1.89639e-05
-1.94344e-05
-1.18068e-05
-2.34178e-05
-4.44897e-06
-2.6806e-05
5.37334e-06
-2.5418e-05
1.99984e-05
-2.31297e-05
3.14944e-05
-2.21658e-05
3.91351e-05
4.73008e-05
-2.32491e-05
2.71254e-05
-5.77255e-05
3.35484e-05
-4.68853e-05
1.61018e-05
1.14384e-06
1.22794e-05
4.58783e-05
-2.68941e-06
2.55634e-05
-2.13775e-05
-1.00916e-05
-3.18337e-05
-3.15197e-05
-3.19825e-05
-4.03271e-05
-2.71112e-05
-4.34568e-05
-2.23572e-05
-4.68491e-05
-1.99491e-05
-4.79682e-05
-2.46496e-05
-4.32199e-05
-2.85604e-05
-3.71734e-05
-3.36018e-05
-3.10685e-05
-3.78714e-05
-2.3118e-05
-4.16376e-05
-1.51981e-05
-4.50047e-05
-8.4401e-06
-4.80772e-05
-1.3764e-06
-4.96789e-05
6.97496e-06
-4.79989e-05
1.83183e-05
-4.52005e-05
2.86961e-05
-4.32218e-05
3.71565e-05
4.32681e-05
-3.9189e-05
1.36051e-05
-7.13309e-05
8.64617e-06
-4.19263e-05
-6.23163e-06
1.60211e-05
-6.43014e-06
4.60769e-05
-1.02933e-05
2.94257e-05
-2.05098e-05
1.25117e-07
-2.96538e-05
-2.23757e-05
-3.49429e-05
-3.50381e-05
-3.68935e-05
-4.15063e-05
-3.89753e-05
-4.4767e-05
-4.26039e-05
-4.43394e-05
-4.64129e-05
-3.94112e-05
-5.04563e-05
-3.31305e-05
-5.47997e-05
-2.67251e-05
-5.83841e-05
-1.95337e-05
-6.11717e-05
-1.24106e-05
-6.36573e-05
-5.95492e-06
-6.56946e-05
6.6086e-07
-6.68189e-05
8.09922e-06
-6.53091e-05
1.68085e-05
-6.17544e-05
2.51413e-05
-5.63646e-05
3.17665e-05
3.54784e-05
-4.85751e-05
-9.9467e-06
-6.13839e-05
-2.58524e-05
-2.60205e-05
-3.04501e-05
2.06189e-05
-2.35194e-05
3.91461e-05
-2.09662e-05
2.68724e-05
-2.52402e-05
4.39898e-06
-3.22068e-05
-1.54089e-05
-3.85725e-05
-2.86724e-05
-4.382e-05
-3.62586e-05
-4.90295e-05
-3.95573e-05
-5.44408e-05
-3.8928e-05
-5.89966e-05
-3.48555e-05
-6.29554e-05
-2.91718e-05
-6.65411e-05
-2.31393e-05
-6.9366e-05
-1.67089e-05
-7.13828e-05
-1.0394e-05
-7.28926e-05
-4.44536e-06
-7.37607e-05
1.52885e-06
-7.3518e-05
7.85656e-06
-7.12245e-05
1.45149e-05
-6.66978e-05
2.06145e-05
-6.0026e-05
2.50945e-05
2.69962e-05
-5.15439e-05
-2.37943e-05
-3.759e-05
-4.08835e-05
-8.93157e-06
-4.1009e-05
2.07448e-05
-3.31389e-05
3.1276e-05
-2.8586e-05
2.23195e-05
-2.97137e-05
5.52655e-06
-3.44762e-05
-1.06463e-05
-4.04837e-05
-2.26649e-05
-4.66345e-05
-3.01077e-05
-5.27123e-05
-3.34794e-05
-5.84043e-05
-3.3236e-05
-6.31434e-05
-3.01163e-05
-6.68768e-05
-2.54385e-05
-6.9839e-05
-2.0177e-05
-7.19268e-05
-1.46212e-05
-7.31921e-05
-9.12884e-06
-7.37718e-05
-3.86571e-06
-7.35465e-05
1.30359e-06
-7.21579e-05
6.46794e-06
-6.91089e-05
1.14658e-05
-6.42137e-05
1.57192e-05
-5.76227e-05
1.85036e-05
1.92274e-05
-4.98539e-05
-2.6521e-05
-1.10694e-05
-4.06032e-05
5.15064e-06
-4.09291e-05
2.10709e-05
-3.513e-05
2.54768e-05
-3.10548e-05
1.82441e-05
-3.10207e-05
5.49275e-06
-3.4283e-05
-7.38407e-06
-3.93481e-05
-1.75997e-05
-4.5126e-05
-2.43294e-05
-5.09688e-05
-2.76363e-05
-5.63291e-05
-2.78757e-05
-6.07348e-05
-2.57105e-05
-6.40859e-05
-2.20874e-05
-6.65016e-05
-1.77614e-05
-6.79988e-05
-1.31239e-05
-6.86478e-05
-8.47998e-06
-6.85199e-05
-3.99369e-06
-6.75369e-05
3.20444e-07
-6.54913e-05
4.42222e-06
-6.21458e-05
8.12027e-06
-5.74448e-05
1.10182e-05
-5.15937e-05
1.26525e-05
1.27149e-05
-4.50812e-05
-2.25739e-05
1.15043e-05
-3.38407e-05
1.64174e-05
-3.4943e-05
2.21734e-05
-3.15581e-05
2.20922e-05
-2.87534e-05
1.54394e-05
-2.85737e-05
5.3131e-06
-3.09633e-05
-4.99466e-06
-3.50768e-05
-1.3486e-05
-4.00435e-05
-1.93626e-05
-4.51703e-05
-2.25095e-05
-4.98836e-05
-2.31624e-05
-5.37665e-05
-2.18277e-05
-5.66766e-05
-1.91774e-05
-5.86457e-05
-1.57925e-05
-5.97129e-05
-1.20568e-05
-5.9943e-05
-8.24987e-06
-5.93887e-05
-4.548e-06
-5.80251e-05
-1.04335e-06
-5.5766e-05
2.16307e-06
-5.25367e-05
4.89091e-06
-4.83838e-05
6.86519e-06
-4.35323e-05
7.80085e-06
7.56428e-06
-3.83816e-05
-1.68433e-05
2.8348e-05
-2.48301e-05
2.44039e-05
-2.62253e-05
2.35688e-05
-2.45329e-05
2.03999e-05
-2.29366e-05
1.38435e-05
-2.29903e-05
5.36673e-06
-2.49085e-05
-3.07664e-06
-2.82438e-05
-1.01507e-05
-3.23695e-05
-1.5237e-05
-3.66895e-05
-1.81896e-05
-4.06951e-05
-1.91569e-05
-4.40244e-05
-1.84986e-05
-4.6514e-05
-1.66881e-05
-4.81409e-05
-1.41658e-05
-4.89315e-05
-1.12662e-05
-4.89395e-05
-8.24196e-06
-4.82162e-05
-5.27144e-06
-4.67798e-05
-2.47993e-06
-4.46257e-05
8.71273e-09
-4.17756e-05
2.04068e-06
-3.83322e-05
3.4217e-06
-3.45116e-05
3.98024e-06
3.67696e-06
-3.06242e-05
-9.68701e-06
3.80353e-05
-1.49036e-05
2.96207e-05
-1.61445e-05
2.48098e-05
-1.55573e-05
1.98129e-05
-1.49127e-05
1.31989e-05
-1.53001e-05
5.75379e-06
-1.69913e-05
-1.38536e-06
-1.9759e-05
-7.38294e-06
-2.31733e-05
-1.18228e-05
-2.67702e-05
-1.45928e-05
-3.01362e-05
-1.5791e-05
-3.29675e-05
-1.56675e-05
-3.51011e-05
-1.45546e-05
-3.64858e-05
-1.27812e-05
-3.71303e-05
-1.06219e-05
-3.70765e-05
-8.2959e-06
-3.63765e-05
-5.97171e-06
-3.50751e-05
-3.78158e-06
-3.3218e-05
-1.84858e-06
-3.08737e-05
-3.03737e-07
-2.8168e-05
7.15974e-07
-2.52941e-05
1.1064e-06
8.72867e-07
-2.249e-05
-1.63731e-06
3.96723e-05
-4.60234e-06
3.25859e-05
-5.73047e-06
2.59377e-05
-5.84507e-06
1.99277e-05
-5.90404e-06
1.32574e-05
-6.61852e-06
6.46811e-06
-8.22567e-06
2.21932e-07
-1.06084e-05
-5.00026e-06
-1.3477e-05
-8.95431e-06
-1.64895e-05
-1.15804e-05
-1.93273e-05
-1.29532e-05
-2.1746e-05
-1.3249e-05
-2.35985e-05
-1.27023e-05
-2.48235e-05
-1.15564e-05
-2.54167e-05
-1.00288e-05
-2.54096e-05
-8.30319e-06
-2.4852e-05
-6.52943e-06
-2.38016e-05
-4.83219e-06
-2.2326e-05
-3.32425e-06
-2.05152e-05
-2.11461e-06
-1.84961e-05
-1.30316e-06
-1.64331e-05
-9.56683e-07
-1.05025e-06
-1.451e-05
6.18385e-06
3.34887e-05
5.09817e-06
3.36716e-05
3.93937e-06
2.70963e-05
3.43938e-06
2.04278e-05
2.92837e-06
1.37681e-05
1.9658e-06
7.43072e-06
3.90419e-07
1.79733e-06
-1.72468e-06
-2.88535e-06
-4.1816e-06
-6.49754e-06
-6.73515e-06
-9.02679e-06
-9.14905e-06
-1.05393e-05
-1.12341e-05
-1.1164e-05
-1.28669e-05
-1.10697e-05
-1.39871e-05
-1.04363e-05
-1.45831e-05
-9.43294e-06
-1.46776e-05
-8.20883e-06
-1.43152e-05
-6.89189e-06
-1.35553e-05
-5.59222e-06
-1.24712e-05
-4.40835e-06
-1.11558e-05
-3.43009e-06
-9.72562e-06
-2.73345e-06
-8.3183e-06
-2.36416e-06
-2.29095e-06
-7.07774e-06
9.37809e-06
2.41107e-05
1.15104e-05
3.15393e-05
1.13951e-05
2.72115e-05
1.10192e-05
2.08036e-05
1.04192e-05
1.43681e-05
9.41027e-06
8.43972e-06
7.93856e-06
3.26894e-06
6.07665e-06
-1.02353e-06
3.97261e-06
-4.39353e-06
1.80425e-06
-6.85837e-06
-2.53747e-07
-8.4813e-06
-2.05648e-06
-9.36136e-06
-3.5036e-06
-9.62265e-06
-4.54104e-06
-9.39888e-06
-5.15392e-06
-8.82011e-06
-5.35734e-06
-8.00548e-06
-5.18863e-06
-7.0607e-06
-4.7019e-06
-6.07907e-06
-3.96644e-06
-5.1439e-06
-3.06774e-06
-4.32891e-06
-2.10819e-06
-3.69314e-06
-1.20267e-06
-3.26981e-06
-3.03748e-06
-4.56201e-07
8.51945e-06
1.5591e-05
1.33554e-05
2.67033e-05
1.52025e-05
2.53644e-05
1.57375e-05
2.02685e-05
1.55669e-05
1.45388e-05
1.48467e-05
9.15998e-06
1.36706e-05
4.44507e-06
1.21529e-05
4.94412e-07
1.04295e-05
-2.66999e-06
8.64289e-06
-5.0717e-06
6.9283e-06
-6.76668e-06
5.39913e-06
-7.83223e-06
4.13781e-06
-8.36138e-06
3.19318e-06
-8.45425e-06
2.58318e-06
-8.21015e-06
2.30005e-06
-7.72243e-06
2.31526e-06
-7.07606e-06
2.58353e-06
-6.3475e-06
3.04478e-06
-5.60528e-06
3.62517e-06
-4.90941e-06
4.23929e-06
-4.30733e-06
4.79514e-06
-3.82569e-06
-3.44573e-06
5.2034e-06
6.12029e-06
9.47085e-06
1.1926e-05
2.08976e-05
1.54876e-05
2.1803e-05
1.73128e-05
1.84435e-05
1.79909e-05
1.38608e-05
1.7886e-05
9.26497e-06
1.7227e-05
5.10435e-06
1.61867e-05
1.53507e-06
1.49151e-05
-1.39835e-06
1.35454e-05
-3.70198e-06
1.21943e-05
-5.41561e-06
1.0958e-05
-6.59604e-06
9.90833e-06
-7.31176e-06
9.09104e-06
-7.63699e-06
8.5273e-06
-7.64647e-06
8.21655e-06
-7.41178e-06
8.13969e-06
-6.99933e-06
8.26191e-06
-6.46983e-06
8.53475e-06
-5.87816e-06
8.89784e-06
-5.2725e-06
9.28168e-06
-4.69117e-06
9.61223e-06
-4.15626e-06
-3.65387e-06
9.82033e-06
4.00587e-06
5.46552e-06
9.42587e-06
1.54776e-05
1.37628e-05
1.74667e-05
1.65802e-05
1.56261e-05
1.8139e-05
1.2302e-05
1.87717e-05
8.6324e-06
1.87465e-05
5.12977e-06
1.82686e-05
2.01317e-06
1.75016e-05
-6.31361e-07
1.65798e-05
-2.78027e-06
1.56139e-05
-4.44968e-06
1.46925e-05
-5.67471e-06
1.38829e-05
-6.50209e-06
1.32303e-05
-6.98437e-06
1.27596e-05
-7.17581e-06
1.24771e-05
-7.1294e-06
1.2373e-05
-6.8952e-06
1.24228e-05
-6.51965e-06
1.25899e-05
-6.04528e-06
1.28273e-05
-5.50987e-06
1.30802e-05
-4.94406e-06
1.32902e-05
-4.36626e-06
-3.76662e-06
1.34028e-05
2.66237e-06
2.80327e-06
7.20663e-06
1.09333e-05
1.15014e-05
1.31721e-05
1.47545e-05
1.23727e-05
1.69155e-05
1.01408e-05
1.81703e-05
7.37766e-06
1.8736e-05
4.56427e-06
1.88034e-05
1.94581e-06
1.85311e-05
-3.59118e-07
1.80499e-05
-2.29898e-06
1.74657e-05
-3.86545e-06
1.68633e-05
-5.07222e-06
1.63074e-05
-5.94609e-06
1.58439e-05
-6.52081e-06
1.55012e-05
-6.83304e-06
1.52915e-05
-6.91976e-06
1.5213e-05
-6.81667e-06
1.52508e-05
-6.55751e-06
1.53793e-05
-6.17375e-06
1.55634e-05
-5.69396e-06
1.57613e-05
-5.14196e-06
1.59278e-05
-4.53281e-06
-3.85951e-06
1.60206e-05
1.9468e-06
8.56093e-07
5.64595e-06
7.23428e-06
9.49599e-06
9.32169e-06
1.27335e-05
9.13471e-06
1.51504e-05
7.72383e-06
1.67939e-05
5.73418e-06
1.77972e-05
3.56098e-06
1.83064e-05
1.43652e-06
1.8456e-05
-5.08727e-07
1.83626e-05
-2.20548e-06
1.81234e-05
-3.62621e-06
1.78174e-05
-4.76615e-06
1.75063e-05
-5.63494e-06
1.72358e-05
-6.25019e-06
1.70363e-05
-6.6336e-06
1.69249e-05
-6.80834e-06
1.69059e-05
-6.79766e-06
1.69725e-05
-6.62419e-06
1.71084e-05
-6.30965e-06
1.72889e-05
-5.87442e-06
1.74831e-05
-5.33617e-06
1.76569e-05
-4.70666e-06
-3.9807e-06
1.77781e-05
1.60765e-06
-7.51867e-07
4.6462e-06
4.19573e-06
7.95572e-06
6.0115e-06
1.0936e-05
6.15407e-06
1.33468e-05
5.31303e-06
1.51526e-05
3.92831e-06
1.64139e-05
2.29947e-06
1.72265e-05
6.23803e-07
1.76914e-05
-9.73677e-07
1.79044e-05
-2.41851e-06
1.7949e-05
-3.67081e-06
1.78954e-05
-4.71259e-06
1.78004e-05
-5.53992e-06
1.77076e-05
-6.15732e-06
1.76481e-05
-6.57404e-06
1.76415e-05
-6.80171e-06
1.76968e-05
-6.85301e-06
1.78136e-05
-6.741e-06
1.7983e-05
-6.47894e-06
1.81887e-05
-6.08003e-06
1.8409e-05
-5.55638e-06
1.86189e-05
-4.91648e-06
-4.15607e-06
1.87944e-05
1.44469e-06
-2.19655e-06
3.99812e-06
1.64216e-06
6.81062e-06
3.19861e-06
9.45174e-06
3.51291e-06
1.17101e-05
3.05473e-06
1.35171e-05
2.12114e-06
1.48865e-05
9.29916e-07
1.58728e-05
-3.62585e-07
1.65449e-05
-1.6459e-06
1.69763e-05
-2.84987e-06
1.72344e-05
-3.92897e-06
1.73789e-05
-4.85713e-06
1.74598e-05
-5.62081e-06
1.7517e-05
-6.2145e-06
1.75806e-05
-6.63763e-06
1.76714e-05
-6.89244e-06
1.78014e-05
-6.98287e-06
1.79745e-05
-6.91398e-06
1.81876e-05
-6.69187e-06
1.84312e-05
-6.32347e-06
1.86909e-05
-5.81595e-06
1.89492e-05
-5.1746e-06
-4.39534e-06
1.91886e-05
1.34803e-06
-3.54446e-06
3.53484e-06
-5.44721e-07
5.92785e-06
8.05635e-07
8.23096e-06
1.21004e-06
1.02768e-05
1.00902e-06
1.19923e-05
4.05639e-07
1.33668e-05
-4.4459e-07
1.44253e-05
-1.42108e-06
1.52137e-05
-2.43435e-06
1.57841e-05
-3.42016e-06
1.61889e-05
-4.33372e-06
1.64767e-05
-5.14496e-06
1.66901e-05
-5.83419e-06
1.68644e-05
-6.38877e-06
1.70275e-05
-6.80067e-06
1.72e-05
-7.0648e-06
1.73953e-05
-7.17811e-06
1.76206e-05
-7.13916e-06
1.7877e-05
-6.94805e-06
1.81601e-05
-6.60645e-06
1.84613e-05
-6.1171e-06
1.8769e-05
-5.48226e-06
-4.69743e-06
1.90711e-05
1.26831e-06
-4.81268e-06
3.15207e-06
-2.42828e-06
5.20063e-06
-1.2426e-06
7.19826e-06
-7.87226e-07
9.01968e-06
-8.12198e-07
1.05992e-05
-1.17375e-06
1.19156e-05
-1.76073e-06
1.29777e-05
-2.48307e-06
1.3813e-05
-3.26955e-06
1.4458e-05
-4.06504e-06
1.49523e-05
-4.82785e-06
1.53344e-05
-5.52692e-06
1.56394e-05
-6.13912e-06
1.58977e-05
-6.64707e-06
1.61345e-05
-7.03736e-06
1.63692e-05
-7.29941e-06
1.66159e-05
-7.42474e-06
1.68835e-05
-7.40674e-06
1.71762e-05
-7.24068e-06
1.74936e-05
-6.9238e-06
1.78314e-05
-6.45504e-06
1.81829e-05
-5.83379e-06
-5.05467e-06
1.854e-05
1.17419e-06
-5.98673e-06
2.80923e-06
-4.06293e-06
4.56694e-06
-2.99989e-06
6.29645e-06
-2.51636e-06
7.90247e-06
-2.41795e-06
9.32929e-06
-2.6003e-06
1.05529e-05
-2.9841e-06
1.15732e-05
-3.50327e-06
1.24063e-05
-4.10241e-06
1.30771e-05
-4.73567e-06
1.36151e-05
-5.36562e-06
1.40503e-05
-5.96193e-06
1.44112e-05
-6.49992e-06
1.47235e-05
-6.95927e-06
1.50091e-05
-7.32292e-06
1.52861e-05
-7.5763e-06
1.55683e-05
-7.70691e-06
1.58657e-05
-7.70416e-06
1.61845e-05
-7.55949e-06
1.65271e-05
-7.26653e-06
1.68929e-05
-6.82097e-06
1.72786e-05
-6.21959e-06
-5.45582e-06
1.76795e-05
1.06697e-06
-7.05346e-06
2.48245e-06
-5.478e-06
3.99426e-06
-4.51129e-06
5.49061e-06
-4.01239e-06
6.89749e-06
-3.82456e-06
8.16859e-06
-3.87114e-06
9.28118e-06
-4.09654e-06
1.02312e-05
-4.45326e-06
1.1028e-05
-4.89903e-06
1.16888e-05
-5.39625e-06
1.22352e-05
-5.91189e-06
1.26906e-05
-6.41717e-06
1.30778e-05
-6.88701e-06
1.34181e-05
-7.29945e-06
1.37304e-05
-7.63513e-06
1.40309e-05
-7.87677e-06
1.4333e-05
-8.00895e-06
1.46469e-05
-8.01815e-06
1.49802e-05
-7.89287e-06
1.53375e-05
-7.6239e-06
1.57207e-05
-7.20422e-06
1.61293e-05
-6.62828e-06
-5.88809e-06
1.65615e-05
9.49341e-07
-8.00255e-06
2.17007e-06
-6.69838e-06
3.47138e-06
-5.81224e-06
4.76372e-06
-5.3045e-06
5.98757e-06
-5.04821e-06
7.1052e-06
-4.98861e-06
8.09734e-06
-5.08861e-06
8.95928e-06
-5.31515e-06
9.69661e-06
-5.63626e-06
1.03216e-05
-6.02106e-06
1.08502e-05
-6.4404e-06
1.13003e-05
-6.86722e-06
1.16901e-05
-7.27671e-06
1.20369e-05
-7.64624e-06
1.23569e-05
-7.95507e-06
1.26644e-05
-8.18423e-06
1.29718e-05
-8.31637e-06
1.32896e-05
-8.33588e-06
1.36258e-05
-8.22914e-06
1.39866e-05
-7.98476e-06
1.4376e-05
-7.59355e-06
1.47956e-05
-7.04791e-06
-6.33831e-06
1.52458e-05
8.30479e-07
-8.83284e-06
1.88022e-06
-7.74777e-06
2.99874e-06
-6.93051e-06
4.10885e-06
-6.41451e-06
5.16211e-06
-6.10133e-06
6.1293e-06
-5.95569e-06
6.99602e-06
-5.95526e-06
7.75869e-06
-6.07774e-06
8.42123e-06
-6.29868e-06
8.99243e-06
-6.59219e-06
9.48416e-06
-6.93211e-06
9.90997e-06
-7.29301e-06
1.0284e-05
-7.65073e-06
1.06204e-05
-7.98255e-06
1.09325e-05
-8.26715e-06
1.12329e-05
-8.48461e-06
1.1533e-05
-8.61643e-06
1.18428e-05
-8.64568e-06
1.2171e-05
-8.5573e-06
1.25246e-05
-8.3383e-06
1.2909e-05
-7.97784e-06
1.33277e-05
-7.46661e-06
-6.79351e-06
1.3783e-05
7.23077e-07
-9.55576e-06
1.62463e-06
-8.64895e-06
2.57972e-06
-7.88554e-06
3.52114e-06
-7.35592e-06
4.4115e-06
-6.99162e-06
5.23065e-06
-6.77477e-06
5.96962e-06
-6.69412e-06
6.6267e-06
-6.73467e-06
7.20495e-06
-6.87681e-06
7.71072e-06
-7.09788e-06
8.15256e-06
-7.37392e-06
8.54049e-06
-7.6809e-06
8.88531e-06
-7.9955e-06
9.19817e-06
-8.29533e-06
9.49017e-06
-8.55907e-06
9.77208e-06
-8.76646e-06
1.00541e-05
-8.89845e-06
1.03459e-05
-8.9374e-06
1.06561e-05
-8.86738e-06
1.09923e-05
-8.67441e-06
1.13609e-05
-8.34644e-06
1.17671e-05
-7.87282e-06
-7.24101e-06
1.22146e-05
6.40302e-07
-1.01959e-05
1.4112e-06
-9.41959e-06
2.2122e-06
-8.68664e-06
2.991e-06
-8.13476e-06
3.72287e-06
-7.72348e-06
4.39659e-06
-7.44844e-06
5.00815e-06
-7.30555e-06
5.55746e-06
-7.28381e-06
6.0469e-06
-7.36611e-06
6.48072e-06
-7.53161e-06
6.8647e-06
-7.75782e-06
7.20585e-06
-8.02197e-06
7.51215e-06
-8.30168e-06
7.79219e-06
-8.57525e-06
8.05493e-06
-8.82172e-06
8.3095e-06
-9.02096e-06
8.56496e-06
-9.15386e-06
8.83016e-06
-9.20255e-06
9.11355e-06
-9.15074e-06
9.42306e-06
-8.98391e-06
9.76589e-06
-8.68931e-06
1.01484e-05
-8.25537e-06
-7.66836e-06
1.05756e-05
5.8755e-07
-1.07832e-05
1.2331e-06
-1.00651e-05
1.88117e-06
-9.33486e-06
2.50062e-06
-8.75425e-06
3.07897e-06
-8.30183e-06
3.61231e-06
-7.98173e-06
4.10029e-06
-7.79341e-06
4.54378e-06
-7.72715e-06
4.94424e-06
-7.76645e-06
5.30397e-06
-7.89124e-06
5.62631e-06
-8.08006e-06
5.91575e-06
-8.31128e-06
6.17782e-06
-8.56362e-06
6.41891e-06
-8.81625e-06
6.64611e-06
-9.04887e-06
6.86696e-06
-9.2418e-06
7.0893e-06
-9.37621e-06
7.32109e-06
-9.43438e-06
7.57034e-06
-9.40005e-06
7.84494e-06
-9.2586e-06
8.15252e-06
-8.99702e-06
8.50035e-06
-8.60335e-06
-8.06312e-06
8.89495e-06
5.49755e-07
-1.13329e-05
1.06276e-06
-1.05782e-05