/*--------------------------------*- C++ -*----------------------------------*\
| =========                 |                                                 |
| \\      /  F ield         | OpenFOAM: The Open Source CFD Toolbox           |
|  \\    /   O peration     | Version:  2.3.0                                 |
|   \\  /    A nd           | Web:      www.OpenFOAM.org                      |
|    \\/     M anipulation  |                                                 |
\*---------------------------------------------------------------------------*/
FoamFile
{
    version     2.0;
    format      ascii;
    class       volVectorField;
    location    "1.4";
    object      U;
}
// * * * * * * * * * * * * * * * * * * * * * * * * * * * * * * * * * * * * * //

dimensions      [0 1 -1 0 0 0 0];

internalField   nonuniform List<vector> 
2268
(
(-0.00259701 -0.00151931 0)
(0.0164414 -0.0114862 0)
(0.0545896 -0.0148193 0)
(0.0942026 -0.0142369 0)
(0.1312 -0.0126483 0)
(0.163872 -0.0108718 0)
(0.191648 -0.00910252 0)
(0.214518 -0.00741039 0)
(0.232669 -0.00573232 0)
(0.24607 -0.00384471 0)
(0.25401 -0.00156301 0)
(0.255453 0.000726422 0)
(0.251392 0.00274361 0)
(0.240656 0.00606915 0)
(0.22138 0.00845071 0)
(0.199065 0.00815608 0)
(0.180953 0.00565732 0)
(0.170562 0.00149126 0)
(0.167411 -0.0013007 0)
(0.164423 -0.000116944 0)
(0.150542 0.00587105 0)
(0.113047 0.0178813 0)
(0.0548011 0.0223611 0)
(0.00789766 -0.00439773 0)
(0.031621 -0.0226087 0)
(0.0663559 -0.0285665 0)
(0.101501 -0.0280325 0)
(0.134127 -0.0253179 0)
(0.162828 -0.0218511 0)
(0.186866 -0.018185 0)
(0.206059 -0.0145796 0)
(0.220499 -0.0110225 0)
(0.230305 -0.00728963 0)
(0.235609 -0.00323533 0)
(0.2367 0.000894666 0)
(0.233105 0.00499501 0)
(0.225018 0.0105183 0)
(0.211359 0.0143494 0)
(0.194622 0.0141625 0)
(0.178566 0.0108229 0)
(0.165572 0.00577595 0)
(0.156209 0.0029776 0)
(0.145989 0.00664241 0)
(0.129341 0.0184559 0)
(0.102978 0.0384662 0)
(0.0680689 0.0554922 0)
(0.0140233 -0.0152947 0)
(0.0409066 -0.0369398 0)
(0.0737121 -0.0430021 0)
(0.105542 -0.041802 0)
(0.134643 -0.0377519 0)
(0.159971 -0.0324877 0)
(0.180799 -0.0268092 0)
(0.196931 -0.0211512 0)
(0.208487 -0.0155825 0)
(0.215685 -0.00994353 0)
(0.218811 -0.00411829 0)
(0.218059 0.00179355 0)
(0.213299 0.00774859 0)
(0.205546 0.0146409 0)
(0.195718 0.0195588 0)
(0.184435 0.0200401 0)
(0.172095 0.0167978 0)
(0.159693 0.0113553 0)
(0.148013 0.00839028 0)
(0.133919 0.0137201 0)
(0.112992 0.0288177 0)
(0.0857371 0.0535628 0)
(0.0588865 0.0879229 0)
(0.0165694 -0.0283576 0)
(0.0462852 -0.0525614 0)
(0.0781525 -0.0577581 0)
(0.107614 -0.0553578 0)
(0.133936 -0.0497254 0)
(0.156446 -0.0425157 0)
(0.174513 -0.0347273 0)
(0.188034 -0.0269724 0)
(0.197244 -0.0194035 0)
(0.202486 -0.0118966 0)
(0.204158 -0.00433627 0)
(0.202613 0.00319671 0)
(0.198118 0.0105956 0)
(0.192018 0.0181566 0)
(0.185658 0.0234614 0)
(0.178393 0.0246565 0)
(0.168706 0.0222075 0)
(0.156999 0.0171701 0)
(0.144151 0.0148553 0)
(0.127731 0.022441 0)
(0.10386 0.0407294 0)
(0.0748963 0.0686162 0)
(0.0461524 0.118229 0)
(0.0179361 -0.0426686 0)
(0.0493298 -0.0685254 0)
(0.0802704 -0.072066 0)
(0.10776 -0.0681042 0)
(0.131801 -0.060771 0)
(0.151949 -0.0515617 0)
(0.167659 -0.0416555 0)
(0.178995 -0.0318623 0)
(0.186381 -0.0224232 0)
(0.190314 -0.0132497 0)
(0.191336 -0.004245 0)
(0.19 0.00450051 0)
(0.186908 0.0127646 0)
(0.183418 0.0204463 0)
(0.18054 0.025816 0)
(0.176704 0.0279483 0)
(0.169412 0.0269528 0)
(0.158849 0.0230104 0)
(0.145792 0.0219589 0)
(0.127959 0.0323468 0)
(0.101609 0.0539905 0)
(0.0705971 0.0844303 0)
(0.0351952 0.144568 0)
(0.0195134 -0.0578629 0)
(0.0510728 -0.0842995 0)
(0.0803418 -0.0855712 0)
(0.105803 -0.079845 0)
(0.127884 -0.0707758 0)
(0.146094 -0.0595584 0)
(0.159877 -0.0475792 0)
(0.169511 -0.0358852 0)
(0.175668 -0.0248036 0)
(0.179025 -0.0142691 0)
(0.180261 -0.0042088 0)
(0.180095 0.00525888 0)
(0.179315 0.0138112 0)
(0.179087 0.021229 0)
(0.179927 0.0265634 0)
(0.179464 0.0298676 0)
(0.174863 0.0308322 0)
(0.16616 0.0284208 0)
(0.15401 0.0292565 0)
(0.135618 0.0430726 0)
(0.107493 0.0685038 0)
(0.0750683 0.101994 0)
(0.0286927 0.168971 0)
(0.021621 -0.0738296 0)
(0.0515822 -0.0993176 0)
(0.0780412 -0.0980077 0)
(0.10122 -0.0906208 0)
(0.121614 -0.0799214 0)
(0.138331 -0.066721 0)
(0.150668 -0.0527348 0)
(0.15916 -0.039324 0)
(0.164782 -0.026889 0)
(0.168385 -0.0153559 0)
(0.170753 -0.00466399 0)
(0.172684 0.00504351 0)
(0.174988 0.0134147 0)
(0.178536 0.0203145 0)
(0.18337 0.0255942 0)
(0.186418 0.0303503 0)
(0.185259 0.033504 0)
(0.179491 0.0328939 0)
(0.16921 0.0361844 0)
(0.151425 0.0539961 0)
(0.12307 0.0836743 0)
(0.0913337 0.121863 0)
(0.0300455 0.198324 0)
(0.0236423 -0.0904978 0)
(0.0502156 -0.113065 0)
(0.0727136 -0.109025 0)
(0.09341 -0.100397 0)
(0.112441 -0.0883566 0)
(0.128144 -0.0732707 0)
(0.139536 -0.0574083 0)
(0.14748 -0.0425595 0)
(0.153306 -0.0291609 0)
(0.158012 -0.0170698 0)
(0.162414 -0.00619823 0)
(0.167278 0.00328918 0)
(0.173295 0.011117 0)
(0.180999 0.0173522 0)
(0.189962 0.0226008 0)
(0.196924 0.0290645 0)
(0.200296 0.0342692 0)
(0.198496 0.0359518 0)
(0.190923 0.0423081 0)
(0.175159 0.0643649 0)
(0.149125 0.0981215 0)
(0.121475 0.14022 0)
(0.061388 0.23662 0)
(-0.0183837 -0.000410843 0)
(0.0395273 -0.0310921 0)
(0.137871 -0.0383927 0)
(0.235316 -0.0293195 0)
(0.3 -0.00842644 0)
(0.287667 0.0133483 0)
(0.221823 0.0223859 0)
(0.165768 0.00932592 0)
(0.150315 -0.00299997 0)
(0.149734 0.00342638 0)
(0.121658 0.0132392 0)
(0.081444 0.00965775 0)
(0.053765 0.0083585 0)
(0.0302939 0.0061927 0)
(0.0215448 -0.00241886 0)
(0.0286675 -0.00219626 0)
(0.0262699 0.00758349 0)
(-0.0142551 0.0123615 0)
(-0.0270042 -0.00806043 0)
(0.0136089 -0.00718774 0)
(0.0707675 -0.0533375 0)
(0.146181 -0.0636812 0)
(0.215398 -0.0491526 0)
(0.261838 -0.0163757 0)
(0.272276 0.0193945 0)
(0.233965 0.0391957 0)
(0.18403 0.0271033 0)
(0.160069 0.00518603 0)
(0.155141 0.01023 0)
(0.135869 0.0240504 0)
(0.104474 0.0187713 0)
(0.0773691 0.0170739 0)
(0.0529393 0.0134279 0)
(0.0391844 0.00101547 0)
(0.0367272 -0.00043956 0)
(0.0315932 0.012609 0)
(0.00550931 0.0187952 0)
(-0.0032753 -0.0127026 0)
(0.0315138 -0.0275903 0)
(0.0845307 -0.0795055 0)
(0.140952 -0.087615 0)
(0.191722 -0.0679303 0)
(0.22603 -0.0260557 0)
(0.234498 0.0217149 0)
(0.210333 0.0530276 0)
(0.175107 0.0399019 0)
(0.155799 0.01099 0)
(0.149613 0.0135286 0)
(0.139817 0.0323522 0)
(0.117371 0.0288909 0)
(0.0914497 0.0272596 0)
(0.0671998 0.0215879 0)
(0.0504177 0.00565559 0)
(0.0420658 0.00266768 0)
(0.0336801 0.01744 0)
(0.0162618 0.0241119 0)
(0.0121802 -0.008674 0)
(0.0439183 -0.0521319 0)
(0.0879806 -0.10253 0)
(0.126426 -0.107274 0)
(0.163847 -0.0837659 0)
(0.191018 -0.0334223 0)
(0.199596 0.0239637 0)
(0.187462 0.0627816 0)
(0.167651 0.0484846 0)
(0.148733 0.0173398 0)
(0.137238 0.0161417 0)
(0.136513 0.0362312 0)
(0.124294 0.0381407 0)
(0.10138 0.0370228 0)
(0.078525 0.030468 0)
(0.0591885 0.0118216 0)
(0.0462363 0.00739693 0)
(0.034655 0.022658 0)
(0.019624 0.0290859 0)
(0.017039 -0.0022686 0)
(0.0607684 -0.07924 0)
(0.085904 -0.117572 0)
(0.105308 -0.12032 0)
(0.131893 -0.0962235 0)
(0.155225 -0.0399693 0)
(0.168916 0.0233087 0)
(0.172697 0.0660005 0)
(0.162951 0.0554074 0)
(0.139375 0.0258155 0)
(0.120911 0.018607 0)
(0.123339 0.035491 0)
(0.123137 0.0449229 0)
(0.108279 0.0451302 0)
(0.0888475 0.0391532 0)
(0.0671691 0.0192463 0)
(0.0497273 0.01394 0)
(0.0340384 0.0289279 0)
(0.0171409 0.034245 0)
(0.0138674 0.00397097 0)
(0.0943507 -0.114895 0)
(0.082149 -0.122931 0)
(0.0814222 -0.126518 0)
(0.0981923 -0.105609 0)
(0.119789 -0.0495271 0)
(0.144858 0.0168889 0)
(0.163457 0.0643546 0)
(0.157447 0.0628992 0)
(0.126639 0.0374983 0)
(0.100148 0.0227533 0)
(0.0999499 0.0337854 0)
(0.108731 0.0479703 0)
(0.112633 0.050145 0)
(0.100462 0.0485021 0)
(0.0760624 0.0280152 0)
(0.0527207 0.02238 0)
(0.0322247 0.037222 0)
(0.0114678 0.040576 0)
(0.00595338 0.00811167 0)
(0.156799 -0.168636 0)
(0.0784294 -0.118368 0)
(0.0581057 -0.127143 0)
(0.0677061 -0.112664 0)
(0.0891139 -0.060342 0)
(0.122595 0.00385846 0)
(0.152303 0.0594142 0)
(0.148377 0.0717164 0)
(0.110351 0.052038 0)
(0.0738818 0.0305849 0)
(0.0667253 0.032644 0)
(0.078347 0.0422642 0)
(0.103326 0.0451149 0)
(0.110474 0.0565965 0)
(0.0865861 0.0375574 0)
(0.0556471 0.0310556 0)
(0.0305719 0.0460636 0)
(0.00626813 0.048046 0)
(-0.00346092 0.00950832 0)
(0.244706 -0.221434 0)
(0.0800283 -0.0955288 0)
(0.0353333 -0.122204 0)
(0.0402001 -0.118032 0)
(0.0611929 -0.07066 0)
(0.0987375 -0.0105691 0)
(0.134836 0.0529214 0)
(0.134973 0.0800898 0)
(0.0895347 0.0686896 0)
(0.0430498 0.0417116 0)
(0.0274571 0.0319941 0)
(0.0453126 0.0308872 0)
(0.0778306 0.0337337 0)
(0.10086 0.0575803 0)
(0.0931651 0.0494955 0)
(0.0599061 0.0426694 0)
(0.0352629 0.0573716 0)
(0.00845872 0.0565299 0)
(-0.00374834 0.0119279 0)
(0.0235652 -0.115016 0)
(0.0427546 -0.1308 0)
(0.0583541 -0.123402 0)
(0.0756432 -0.114151 0)
(0.0935465 -0.100759 0)
(0.108603 -0.0828746 0)
(0.119274 -0.0643579 0)
(0.127163 -0.0478744 0)
(0.134265 -0.0337498 0)
(0.141745 -0.0215955 0)
(0.150312 -0.0112149 0)
(0.160555 -0.00272092 0)
(0.17284 0.00382788 0)
(0.187092 0.0089724 0)
(0.20208 0.0142976 0)
(0.21605 0.0233962 0)
(0.227377 0.031376 0)
(0.233202 0.0377307 0)
(0.230935 0.0501558 0)
(0.220158 0.0784548 0)
(0.201906 0.116415 0)
(0.192219 0.153941 0)
(0.225421 0.201936 0)
(0.0150895 -0.139385 0)
(0.0196162 -0.14373 0)
(0.025958 -0.137047 0)
(0.0407652 -0.131518 0)
(0.0601817 -0.118021 0)
(0.0766151 -0.095733 0)
(0.0874781 -0.0735206 0)
(0.0962686 -0.0559723 0)
(0.106146 -0.0425185 0)
(0.118198 -0.031897 0)
(0.132722 -0.0235729 0)
(0.149822 -0.0173958 0)
(0.169359 -0.0130301 0)
(0.190591 -0.00935789 0)
(0.212155 -0.00419184 0)
(0.234011 0.00596782 0)
(0.25451 0.0171327 0)
(0.269133 0.0309687 0)
(0.27385 0.0529337 0)
(0.269461 0.0880073 0)
(0.259451 0.127647 0)
(0.253505 0.144065 0)
(0.276835 0.124685 0)
(-0.00492742 -0.152217 0)
(-0.0185131 -0.145586 0)
(-0.0176866 -0.146682 0)
(-0.00183579 -0.150141 0)
(0.0226648 -0.138652 0)
(0.0422006 -0.110146 0)
(0.0534578 -0.0839104 0)
(0.0633324 -0.0669185 0)
(0.0764725 -0.0559854 0)
(0.0933151 -0.048247 0)
(0.113434 -0.0428037 0)
(0.136425 -0.0393024 0)
(0.161752 -0.0370106 0)
(0.188316 -0.0342502 0)
(0.214472 -0.0287331 0)
(0.240192 -0.0185824 0)
(0.264683 -0.00475793 0)
(0.284265 0.0167938 0)
(0.29342 0.0499053 0)
(0.291814 0.0910218 0)
(0.288478 0.129599 0)
(0.289053 0.136508 0)
(0.308423 0.109535 0)
(-0.0343689 -0.144597 0)
(-0.0677141 -0.143347 0)
(-0.0654805 -0.156354 0)
(-0.0437832 -0.173269 0)
(-0.0116453 -0.162681 0)
(0.0114375 -0.124031 0)
(0.0233878 -0.0939744 0)
(0.0341169 -0.0802397 0)
(0.0499513 -0.0739144 0)
(0.070525 -0.0702119 0)
(0.0947046 -0.0680855 0)
(0.121631 -0.0671713 0)
(0.15049 -0.0665823 0)
(0.179982 -0.0638972 0)
(0.208012 -0.0565483 0)
(0.233781 -0.0442466 0)
(0.25727 -0.0261679 0)
(0.275717 0.00223236 0)
(0.287618 0.0421973 0)
(0.291806 0.092095 0)
(0.288471 0.132327 0)
(0.288705 0.128268 0)
(0.298168 0.102639 0)
(-0.0635073 -0.0420824 0)
(-0.124829 -0.105554 0)
(-0.111043 -0.165489 0)
(-0.0794776 -0.211844 0)
(-0.0444786 -0.19623 0)
(-0.0138175 -0.138659 0)
(0.0045906 -0.102361 0)
(0.0178102 -0.0926267 0)
(0.03425 -0.0902552 0)
(0.05528 -0.0912953 0)
(0.0803153 -0.0931915 0)
(0.107949 -0.0946566 0)
(0.136758 -0.0946986 0)
(0.165289 -0.0899449 0)
(0.191516 -0.0775857 0)
(0.21468 -0.0612248 0)
(0.235802 -0.04345 0)
(0.254968 -0.0141146 0)
(0.269428 0.0337186 0)
(0.280522 0.099991 0)
(0.288068 0.135271 0)
(0.286213 0.123478 0)
(0.237697 0.113865 0)
(-0.10058 0.0704808 0)
(-0.136104 -0.0561744 0)
(-0.111151 -0.189646 0)
(-0.0966092 -0.249193 0)
(-0.0815669 -0.234536 0)
(-0.0414374 -0.17063 0)
(0.00130305 -0.110575 0)
(0.0157856 -0.10494 0)
(0.0281296 -0.105146 0)
(0.0476232 -0.107767 0)
(0.0708155 -0.11089 0)
(0.096665 -0.113021 0)
(0.122432 -0.113935 0)
(0.146475 -0.110587 0)
(0.169279 -0.098803 0)
(0.193815 -0.0814986 0)
(0.217516 -0.0688081 0)
(0.23993 -0.0420398 0)
(0.272708 0.010025 0)
(0.302023 0.0914021 0)
(0.301467 0.142817 0)
(0.261723 0.165608 0)
(0.217335 0.179258 0)
(-0.0899742 0.148555 0)
(-0.0591406 -0.0708578 0)
(-0.0474988 -0.185105 0)
(-0.0855094 -0.248549 0)
(-0.115151 -0.25719 0)
(-0.084646 -0.238718 0)
(-0.00400768 -0.17492 0)
(0.0464021 -0.11385 0)
(0.0264812 -0.115751 0)
(0.0365267 -0.122113 0)
(0.0563524 -0.133638 0)
(0.0848915 -0.137555 0)
(0.110443 -0.139111 0)
(0.127395 -0.137327 0)
(0.141829 -0.130569 0)
(0.160389 -0.122521 0)
(0.183522 -0.109665 0)
(0.205586 -0.0789352 0)
(0.226752 -0.0153227 0)
(0.240007 0.0900727 0)
(0.227529 0.166542 0)
(0.202805 0.203417 0)
(0.175457 0.210471 0)
(-0.00287937 0.173872 0)
(0.0494253 -0.0910051 0)
(0.0716101 -0.167665 0)
(-0.0142134 -0.181249 0)
(-0.147311 -0.247711 0)
(-0.138555 -0.281677 0)
(-0.104237 -0.232968 0)
(-0.0687031 -0.123437 0)
(-0.0645324 -0.114262 0)
(-0.0715125 -0.172814 0)
(-0.0218979 -0.210009 0)
(0.0195661 -0.204395 0)
(0.0575253 -0.187071 0)
(0.0844842 -0.167085 0)
(0.104938 -0.146605 0)
(0.122742 -0.124694 0)
(0.130455 -0.112639 0)
(0.129251 -0.0832109 0)
(0.12841 -0.0118242 0)
(0.125198 0.107217 0)
(0.105497 0.181691 0)
(0.0957478 0.214846 0)
(0.0844179 0.226923 0)
(0.0971501 0.0842526 0)
(0.151112 -0.123005 0)
(0.180429 -0.141883 0)
(0.0730878 0.019139 0)
(-0.141536 -0.200022 0)
(-0.171407 -0.285662 0)
(-0.176564 -0.249861 0)
(-0.152351 -0.146804 0)
(-0.0914188 -0.11207 0)
(-0.0525299 -0.189452 0)
(-0.0363808 -0.222629 0)
(-0.0140319 -0.217244 0)
(0.0146231 -0.192492 0)
(0.0408163 -0.171518 0)
(0.0615411 -0.156004 0)
(0.0837213 -0.129304 0)
(0.081737 -0.115447 0)
(0.032419 -0.0872729 0)
(-0.00267404 -0.00716536 0)
(-0.0137005 0.114325 0)
(-0.0149688 0.185281 0)
(-0.0116479 0.21958 0)
(-0.0127033 0.246407 0)
(0.115397 -0.0630451 0)
(0.201184 -0.175311 0)
(0.215076 -0.110593 0)
(0.202435 0.195245 0)
(0.0305032 -0.0430581 0)
(-0.144023 -0.278034 0)
(-0.227394 -0.262112 0)
(-0.190802 -0.185355 0)
(-0.130945 -0.170249 0)
(-0.0621555 -0.190008 0)
(-0.0433838 -0.244589 0)
(-0.0435103 -0.239135 0)
(-0.0230539 -0.211925 0)
(-0.00820194 -0.195366 0)
(-0.0109631 -0.179119 0)
(-0.0730973 -0.131011 0)
(-0.0918777 -0.0773871 0)
(-0.117262 -0.0299409 0)
(-0.138475 0.0148795 0)
(-0.142208 0.112662 0)
(-0.129682 0.178057 0)
(-0.119218 0.218465 0)
(-0.119872 0.257968 0)
(0.0807188 -0.2233 0)
(0.175414 -0.246957 0)
(0.141135 -0.0654314 0)
(0.0940311 0.295382 0)
(0.0281141 0.164675 0)
(-0.0730199 -0.0699387 0)
(-0.156748 -0.205635 0)
(-0.179523 -0.226272 0)
(-0.161 -0.228808 0)
(-0.132175 -0.247394 0)
(-0.113337 -0.263627 0)
(-0.0997933 -0.26046 0)
(-0.152085 -0.232908 0)
(-0.167583 -0.197876 0)
(-0.188947 -0.143631 0)
(-0.216097 -0.0916422 0)
(-0.232981 -0.0519728 0)
(-0.251904 -0.00968782 0)
(-0.267207 0.0390549 0)
(-0.265159 0.106136 0)
(-0.248367 0.165164 0)
(-0.234051 0.20843 0)
(-0.225813 0.248653 0)
(0.0517969 -0.339049 0)
(0.066513 -0.255418 0)
(0.00892009 0.0566878 0)
(-0.0404776 0.26384 0)
(-0.0391579 0.162572 0)
(-0.0817752 -0.0173936 0)
(-0.13975 -0.145615 0)
(-0.17907 -0.208219 0)
(-0.194205 -0.236769 0)
(-0.203242 -0.253942 0)
(-0.217874 -0.255968 0)
(-0.235743 -0.23033 0)
(-0.261282 -0.190416 0)
(-0.282953 -0.1551 0)
(-0.304321 -0.11327 0)
(-0.321628 -0.072276 0)
(-0.335454 -0.0369097 0)
(-0.348688 -0.000228122 0)
(-0.358692 0.0427195 0)
(-0.357593 0.0949011 0)
(-0.342386 0.145696 0)
(-0.318272 0.187687 0)
(-0.28488 0.214859 0)
(-0.015925 -0.414134 0)
(-0.108223 -0.196789 0)
(-0.157882 0.118454 0)
(-0.146605 0.234582 0)
(-0.112064 0.155285 0)
(-0.1198 0.0165969 0)
(-0.154238 -0.099204 0)
(-0.191779 -0.172778 0)
(-0.221941 -0.212518 0)
(-0.249199 -0.22957 0)
(-0.278155 -0.225356 0)
(-0.304992 -0.200714 0)
(-0.328101 -0.166894 0)
(-0.348251 -0.132924 0)
(-0.365704 -0.095991 0)
(-0.37853 -0.0599409 0)
(-0.387913 -0.0264813 0)
(-0.394967 0.00744137 0)
(-0.397576 0.0444906 0)
(-0.39114 0.0853481 0)
(-0.372513 0.123971 0)
(-0.342268 0.153904 0)
(-0.301412 0.168553 0)
(-0.109146 -0.305949 0)
(-0.195292 -0.0969804 0)
(-0.225254 0.120401 0)
(-0.197785 0.191376 0)
(-0.158892 0.133915 0)
(-0.151272 0.0291337 0)
(-0.169952 -0.0680658 0)
(-0.200792 -0.137526 0)
(-0.233948 -0.179123 0)
(-0.267039 -0.197358 0)
(-0.299245 -0.194641 0)
(-0.327514 -0.174705 0)
(-0.350096 -0.146533 0)
(-0.367959 -0.115811 0)
(-0.38155 -0.0834645 0)
(-0.390403 -0.051615 0)
(-0.395358 -0.0212798 0)
(-0.396707 0.00881851 0)
(-0.392945 0.0396268 0)
(-0.381338 0.0706138 0)
(-0.35988 0.0979705 0)
(-0.328691 0.116947 0)
(-0.2897 0.123319 0)
(-0.128155 -0.117653 0)
(-0.201066 -0.00307071 0)
(-0.225884 0.114615 0)
(-0.203151 0.151683 0)
(-0.172667 0.108965 0)
(-0.161844 0.0306409 0)
(-0.17229 -0.047218 0)
(-0.196273 -0.107428 0)
(-0.226377 -0.146012 0)
(-0.258309 -0.164184 0)
(-0.289062 -0.164209 0)
(-0.315586 -0.150028 0)
(-0.336313 -0.12767 0)
(-0.351676 -0.101735 0)
(-0.362106 -0.07421 0)
(-0.367756 -0.0468326 0)
(-0.369157 -0.0204767 0)
(-0.366389 0.00505429 0)
(-0.358553 0.029797 0)
(-0.344212 0.0527854 0)
(-0.322435 0.0714737 0)
(-0.293738 0.0827582 0)
(-0.260246 0.0843595 0)
(-0.109315 0.00125091 0)
(-0.168957 0.0603201 0)
(-0.190563 0.115518 0)
(-0.178486 0.126105 0)
(-0.158668 0.0896237 0)
(-0.150139 0.0292574 0)
(-0.157012 -0.0324873 0)
(-0.17568 -0.0827145 0)
(-0.201061 -0.11677 0)
(-0.22898 -0.134295 0)
(-0.25605 -0.136856 0)
(-0.279457 -0.127611 0)
(-0.297707 -0.110828 0)
(-0.310717 -0.0900772 0)
(-0.318775 -0.0675273 0)
(-0.322161 -0.0447635 0)
(-0.321265 -0.0227235 0)
(-0.316199 -0.00176199 0)
(-0.306577 0.0176846 0)
(-0.29183 0.0346073 0)
(-0.271785 0.0472619 0)
(-0.2473 0.0537258 0)
(-0.220333 0.0529235 0)
(-0.0819631 0.108463 0)
(-0.123688 0.111452 0)
(-0.141261 0.122531 0)
(-0.136641 0.112893 0)
(-0.125428 0.0778064 0)
(-0.120577 0.0286116 0)
(-0.1263 -0.0212236 0)
(-0.141223 -0.0628349 0)
(-0.16209 -0.0923027 0)
(-0.185504 -0.108807 0)
(-0.208434 -0.113332 0)
(-0.228449 -0.108161 0)
(-0.244152 -0.0963063 0)
(-0.255163 -0.080499 0)
(-0.261574 -0.0627038 0)
(-0.263631 -0.0443728 0)
(-0.261658 -0.026484 0)
(-0.255853 -0.00966172 0)
(-0.246203 0.00546075 0)
(-0.232662 0.0179767 0)
(-0.215522 0.0266775 0)
(-0.195778 0.0303987 0)
(-0.175122 0.0287455 0)
(-0.0476171 0.186164 0)
(-0.0718658 0.147781 0)
(-0.086255 0.130195 0)
(-0.0855753 0.107361 0)
(-0.0805592 0.0720296 0)
(-0.0792191 0.029708 0)
(-0.084972 -0.0117409 0)
(-0.0974737 -0.0466246 0)
(-0.114703 -0.0721556 0)
(-0.134125 -0.0875884 0)
(-0.153297 -0.0935425 0)
(-0.170228 -0.0916117 0)
(-0.183671 -0.0839105 0)
(-0.193116 -0.0724838 0)
(-0.198509 -0.0589783 0)
(-0.200019 -0.0446753 0)
(-0.197924 -0.030526 0)
(-0.192492 -0.0172473 0)
(-0.183937 -0.00551504 0)
(-0.172508 0.00389725 0)
(-0.158713 0.0101423 0)
(-0.143553 0.0125118 0)
(-0.128452 0.0109602 0)
(-0.0060878 0.22313 0)
(-0.016618 0.170436 0)
(-0.0299164 0.137193 0)
(-0.0315203 0.106495 0)
(-0.0307734 0.0707142 0)
(-0.0323342 0.0327018 0)
(-0.0386312 -0.00298209 0)
(-0.0496848 -0.0329207 0)
(-0.064233 -0.0553888 0)
(-0.0804742 -0.0699104 0)
(-0.0965571 -0.0769238 0)
(-0.110919 -0.0775367 0)
(-0.122506 -0.0732336 0)
(-0.130792 -0.0655264 0)
(-0.13564 -0.0557339 0)
(-0.13715 -0.0449434 0)
(-0.135558 -0.034022 0)
(-0.131158 -0.0236744 0)
(-0.124271 -0.0145432 0)
(-0.115289 -0.00726992 0)
(-0.10479 -0.00247158 0)
(-0.0936969 -0.000587961 0)
(-0.083203 -0.00151027 0)
(0.0279524 0.205995 0)
(0.0328681 0.184428 0)
(0.0228733 0.144295 0)
(0.0195017 0.108863 0)
(0.0175935 0.0726845 0)
(0.0139985 0.0374219 0)
(0.00716062 0.0056275 0)
(-0.00297609 -0.0208675 0)
(-0.0155612 -0.0411397 0)
(-0.0293389 -0.055011 0)
(-0.0429593 -0.0628522 0)
(-0.0552397 -0.0654578 0)
(-0.065332 -0.063883 0)
(-0.0727589 -0.0592417 0)
(-0.0773495 -0.0525628 0)
(-0.079152 -0.0447393 0)
(-0.0783604 -0.0365228 0)
(-0.0752585 -0.0285516 0)
(-0.0701967 -0.0213986 0)
(-0.063603 -0.0155959 0)
(-0.0560439 -0.011606 0)
(-0.0483259 -0.00971719 0)
(-0.04146 -0.00977064 0)
(0.0401825 0.156181 0)
(0.0614983 0.180161 0)
(0.0618 0.148811 0)
(0.0602807 0.112248 0)
(0.0580315 0.0763404 0)
(0.0538661 0.0431266 0)
(0.0471644 0.0140477 0)
(0.0380438 -0.0100645 0)
(0.0271769 -0.028833 0)
(0.0154719 -0.0423064 0)
(0.00391293 -0.0508304 0)
(-0.00661267 -0.0550022 0)
(-0.0154341 -0.055589 0)
(-0.0221434 -0.0534186 0)
(-0.0265684 -0.0492852 0)
(-0.0287208 -0.0439062 0)
(-0.0287505 -0.0379102 0)
(-0.0269077 -0.0318467 0)
(-0.0235227 -0.0262066 0)
(-0.0190009 -0.0214282 0)
(-0.0138534 -0.0178695 0)
(-0.00875601 -0.0157362 0)
(-0.00457975 -0.0148863 0)
(0.0319155 0.103483 0)
(0.0644948 0.158652 0)
(0.0785619 0.144403 0)
(0.0840021 0.112559 0)
(0.0847818 0.0790565 0)
(0.0822813 0.0482351 0)
(0.077064 0.0214655 0)
(0.0696681 -0.000794415 0)
(0.0607863 -0.0184328 0)
(0.0511838 -0.0316009 0)
(0.0416204 -0.0406282 0)
(0.0327826 -0.0459852 0)
(0.0252057 -0.048244 0)
(0.0192417 -0.0480208 0)
(0.0150641 -0.0459236 0)
(0.0126933 -0.0425194 0)
(0.0120255 -0.03832 0)
(0.0128582 -0.0337823 0)
(0.0149072 -0.0293151 0)
(0.0178192 -0.0252769 0)
(0.0211565 -0.021952 0)
(0.0243515 -0.0194991 0)
(0.0266804 -0.0178122 0)
(0.0188242 0.0639756 0)
(0.0525281 0.128071 0)
(0.0759669 0.128733 0)
(0.0896262 0.106024 0)
(0.0958845 0.077889 0)
(0.0971086 0.0507166 0)
(0.0948276 0.0266191 0)
(0.0900709 0.00624281 0)
(0.0836864 -0.0102774 0)
(0.0764383 -0.0230445 0)
(0.0689944 -0.0323289 0)
(0.0619366 -0.0384924 0)
(0.0557215 -0.0419642 0)
(0.0506652 -0.0432065 0)
(0.046945 -0.0426819 0)
(0.0446122 -0.0408298 0)
(0.0436095 -0.0380555 0)
(0.0437886 -0.0347269 0)
(0.0449235 -0.0311751 0)
(0.046726 -0.0276903 0)
(0.0488366 -0.0245017 0)
(0.0507924 -0.0217401 0)
(0.0519884 -0.0193216 0)
(0.0100535 0.0379534 0)
(0.038047 0.0968835 0)
(0.0641249 0.106086 0)
(0.0830985 0.092719 0)
(0.0945003 0.0715438 0)
(0.100035 0.0492134 0)
(0.101387 0.0284655 0)
(0.0998152 0.0103528 0)
(0.0962868 -0.00477125 0)
(0.0916006 -0.0168625 0)
(0.0864029 -0.0260762 0)
(0.0812323 -0.03266 0)
(0.0765095 -0.0369215 0)
(0.0725365 -0.0391977 0)
(0.0695002 -0.0398319 0)
(0.0674818 -0.039156 0)
(0.0664684 -0.0374815 0)
(0.0663648 -0.0350952 0)
(0.0670051 -0.0322578 0)
(0.0681672 -0.0291995 0)
(0.0695671 -0.0261052 0)
(0.0708351 -0.0230837 0)
(0.071466 -0.020074 0)
(0.00572624 0.0209584 0)
(0.0270796 0.0698836 0)
(0.0513541 0.0820262 0)
(0.0718082 0.0755954 0)
(0.0862395 0.0609992 0)
(0.0951636 0.0438129 0)
(0.0998011 0.0268211 0)
(0.101286 0.0113385 0)
(0.100553 -0.00205411 0)
(0.0983812 -0.013142 0)
(0.0953966 -0.0219398 0)
(0.0921113 -0.0285756 0)
(0.0889268 -0.0332441 0)
(0.0861398 -0.036174 0)
(0.0839481 -0.0376071 0)
(0.0824587 -0.0377827 0)
(0.0816973 -0.0369298 0)
(0.0816164 -0.0352624 0)
(0.0821054 -0.0329785 0)
(0.0830031 -0.0302552 0)
(0.0840934 -0.0272386 0)
(0.0850873 -0.0240189 0)
(0.0855659 -0.0205525 0)
(0.00399599 0.0090991 0)
(0.0203304 0.0478962 0)
(0.0412223 0.0598317 0)
(0.0605892 0.0576542 0)
(0.0758491 0.0482243 0)
(0.0866359 0.0356508 0)
(0.0935643 0.0223285 0)
(0.097447 0.009587 0)
(0.0990533 -0.00187142 0)
(0.0990679 -0.0117047 0)
(0.0980591 -0.0198031 0)
(0.0965013 -0.0261845 0)
(0.0947723 -0.0309421 0)
(0.0931594 -0.0342103 0)
(0.0918657 -0.0361431 0)
(0.0910171 -0.0368997 0)
(0.090669 -0.0366367 0)
(0.0908133 -0.0355043 0)
(0.0913859 -0.0336442 0)
(0.0922785 -0.031187 0)
(0.093333 -0.0282438 0)
(0.0943291 -0.0248867 0)
(0.0949229 -0.0210844 0)
(0.0035358 -0.000198091 0)
(0.0165508 0.0299934 0)
(0.0340889 0.040561 0)
(0.0512947 0.0407201 0)
(0.0659293 0.0349504 0)
(0.0772335 0.0260857 0)
(0.0853646 0.0159859 0)
(0.0908031 0.00582481 0)
(0.0941025 -0.00368958 0)
(0.0958064 -0.0121554 0)
(0.0963957 -0.0193786 0)
(0.0962863 -0.0252906 0)
(0.0958199 -0.0299011 0)
(0.0952653 -0.0332653 0)
(0.0948222 -0.0354632 0)
(0.0946254 -0.0365858 0)
(0.0947508 -0.0367276 0)
(0.0952198 -0.0359829 0)
(0.0960057 -0.0344445 0)
(0.0970429 -0.0322016 0)
(0.0982218 -0.0293338 0)
(0.0993787 -0.0258956 0)
(0.100235 -0.0218626 0)
(0.00352105 -0.0083046 0)
(0.0143894 0.015108 0)
(0.0291267 0.0241681 0)
(0.0440131 0.0255477 0)
(0.057339 0.0222501 0)
(0.0682897 0.0161869 0)
(0.0767696 0.0087255 0)
(0.0830084 0.000819606 0)
(0.0873652 -0.0068935 0)
(0.0902343 -0.0140091 0)
(0.0919996 -0.0202903 0)
(0.0930066 -0.0256117 0)
(0.0935512 -0.029921 0)
(0.0938749 -0.0332114 0)
(0.0941652 -0.0355027 0)
(0.0945577 -0.0368295 0)
(0.0951394 -0.0372343 0)
(0.0959524 -0.0367642 0)
(0.0969979 -0.0354697 0)
(0.0982437 -0.0334039 0)
(0.0996193 -0.0306183 0)
(0.101007 -0.0271496 0)
(0.102184 -0.0229765 0)
(0.00356932 -0.0158002 0)
(0.0129647 0.00247647 0)
(0.0254519 0.0102507 0)
(0.0382302 0.0122665 0)
(0.0500576 0.0106218 0)
(0.0602116 0.00661517 0)
(0.0684928 0.00122806 0)
(0.0749736 -0.0047993 0)
(0.0798655 -0.0109331 0)
(0.0834418 -0.0168011 0)
(0.085991 -0.0221566 0)
(0.0877888 -0.0268434 0)
(0.0890821 -0.0307676 0)
(0.0900805 -0.0338769 0)
(0.0909536 -0.0361447 0)
(0.0918312 -0.0375609 0)
(0.0928044 -0.0381257 0)
(0.0939279 -0.0378469 0)
(0.0952228 -0.0367398 0)
(0.0966825 -0.0348265 0)
(0.0982667 -0.032133 0)
(0.099895 -0.0286793 0)
(0.101391 -0.0244433 0)
(0.00356767 -0.0228268 0)
(0.0117991 -0.00840525 0)
(0.02245 -0.00162594 0)
(0.033424 0.000735546 0)
(0.0438014 0.000211909 0)
(0.0529903 -0.00229227 0)
(0.0607686 -0.0060762 0)
(0.0671259 -0.0105823 0)
(0.0721744 -0.0153792 0)
(0.0760958 -0.0201439 0)
(0.0791008 -0.024641 0)
(0.0814034 -0.0287026 0)
(0.0832037 -0.0322103 0)
(0.0846788 -0.0350803 0)
(0.0859778 -0.0372522 0)
(0.0872205 -0.0386815 0)
(0.0884968 -0.0393351 0)
(0.0898682 -0.0391895 0)
(0.0913694 -0.0382309 0)
(0.093012 -0.0364551 0)
(0.0947796 -0.0338661 0)
(0.0966209 -0.030468 0)
(0.0983993 -0.026235 0)
(0.0034556 -0.0293851 0)
(0.0106824 -0.0178433 0)
(0.0198189 -0.0118054 0)
(0.0292525 -0.00924861 0)
(0.0383068 -0.00899547 0)
(0.0465022 -0.0103946 0)
(0.0536299 -0.0129448 0)
(0.0596398 -0.0162333 0)
(0.0645853 -0.0199215 0)
(0.0685842 -0.0237381 0)
(0.0717883 -0.0274692 0)
(0.0743608 -0.0309476 0)
(0.0764613 -0.0340428 0)
(0.0782365 -0.0366508 0)
(0.0798145 -0.0386875 0)
(0.0813029 -0.0400833 0)
(0.0827874 -0.0407798 0)
(0.0843319 -0.040729 0)
(0.0859795 -0.0398937 0)
(0.0877552 -0.0382484 0)
(0.0896601 -0.0357778 0)
(0.0916662 -0.0324713 0)
(0.0936705 -0.0282974 0)
(0.00325872 -0.0354042 0)
(0.0095511 -0.0260128 0)
(0.0174003 -0.020555 0)
(0.0255215 -0.0178922 0)
(0.0333955 -0.0170862 0)
(0.0406307 -0.0176582 0)
(0.0470445 -0.0192524 0)
(0.0525754 -0.0215681 0)
(0.0572448 -0.0243456 0)
(0.0611298 -0.0273618 0)
(0.0643394 -0.0304272 0)
(0.0669973 -0.0333818 0)
(0.0692292 -0.0360905 0)
(0.0711549 -0.0384378 0)
(0.0728829 -0.0403239 0)
(0.0745078 -0.0416615 0)
(0.0761088 -0.0423737 0)
(0.0777496 -0.0423942 0)
(0.0794782 -0.0416677 0)
(0.0813287 -0.0401513 0)
(0.0833153 -0.0378136 0)
(0.0854284 -0.0346305 0)
(0.0875931 -0.0305635 0)
(0.0029892 -0.0408161 0)
(0.00841497 -0.0330767 0)
(0.0151585 -0.028093 0)
(0.0221498 -0.0253738 0)
(0.0289685 -0.0241569 0)
(0.0352918 -0.0240917 0)
(0.040969 -0.0249334 0)
(0.0459435 -0.0264696 0)
(0.0502232 -0.0285038 0)
(0.0538601 -0.0308538 0)
(0.0569332 -0.0333527 0)
(0.0595358 -0.0358502 0)
(0.0617663 -0.0382111 0)
(0.063721 -0.0403142 0)
(0.0654904 -0.0420504 0)
(0.0671564 -0.0433204 0)
(0.0687912 -0.0440349 0)
(0.070456 -0.044114 0)
(0.072201 -0.043489 0)
(0.0740662 -0.0421035 0)
(0.0760758 -0.039913 0)
(0.0782342 -0.0368815 0)
(0.0804909 -0.0329624 0)
(0.00267762 -0.0455967 0)
(0.00733025 -0.0391659 0)
(0.0131187 -0.0345881 0)
(0.0191168 -0.0318313 0)
(0.0249735 -0.030286 0)
(0.0304257 -0.0297115 0)
(0.0353591 -0.0299518 0)
(0.0397315 -0.0308625 0)
(0.043548 -0.0322949 0)
(0.0468453 -0.0340984 0)
(0.049681 -0.0361251 0)
(0.052125 -0.0382337 0)
(0.0542529 -0.0402919 0)
(0.0561412 -0.0421766 0)
(0.0578642 -0.0437736 0)
(0.0594919 -0.0449771 0)
(0.0610889 -0.0456893 0)
(0.0627128 -0.0458216 0)
(0.0644142 -0.0452957 0)
(0.0662363 -0.0440451 0)
(0.0682108 -0.042015 0)
(0.0703529 -0.0391594 0)
(0.0726334 -0.0354228 0)
(0.00236648 -0.0497661 0)
(0.00637859 -0.044406 0)
(0.0113229 -0.0401679 0)
(0.0164146 -0.037358 0)
(0.0213662 -0.0355254 0)
(0.0259743 -0.0345303 0)
(0.0301634 -0.034287 0)
(0.0339095 -0.0346994 0)
(0.037219 -0.0356522 0)
(0.0401187 -0.0370166 0)
(0.0426496 -0.0386584 0)
(0.0448627 -0.0404447 0)
(0.0468146 -0.0422471 0)
(0.0485649 -0.0439435 0)
(0.0501735 -0.0454182 0)
(0.0516995 -0.0465622 0)
(0.0531995 -0.0472733 0)
(0.054727 -0.0474576 0)
(0.0563311 -0.0470307 0)
(0.0580568 -0.0459191 0)
(0.0599406 -0.0440606 0)
(0.0620067 -0.0414006 0)
(0.064244 -0.0378754 0)
(0.0021136 -0.0534303 0)
(0.00563452 -0.0489141 0)
(0.00978163 -0.044908 0)
(0.0140057 -0.0420001 0)
(0.0180816 -0.0399014 0)
(0.0218656 -0.0385572 0)
(0.0253188 -0.0379309 0)
(0.0284337 -0.0379565 0)
(0.0312178 -0.0385379 0)
(0.0336895 -0.0395593 0)
(0.035876 -0.0408962 0)
(0.0378122 -0.0424227 0)
(0.0395387 -0.0440153 0)
(0.0411006 -0.0455547 0)
(0.0425451 -0.0469264 0)
(0.0439211 -0.0480208 0)
(0.0452776 -0.0487346 0)
(0.046663 -0.0489713 0)
(0.048124 -0.0486433 0)
(0.0497054 -0.0476733 0)
(0.0514472 -0.0459937 0)
(0.0533799 -0.0435438 0)
(0.0555086 -0.0402526 0)
(0.0019778 -0.0567489 0)
(0.00509191 -0.0527553 0)
(0.00842418 -0.048826 0)
(0.011797 -0.0457713 0)
(0.0150228 -0.0434307 0)
(0.0180117 -0.0418073 0)
(0.0207542 -0.0408919 0)
(0.0232538 -0.0406318 0)
(0.0255173 -0.0409385 0)
(0.0275543 -0.0417028 0)
(0.0293799 -0.0428066 0)
(0.0310152 -0.0441303 0)
(0.0324873 -0.0455559 0)
(0.0338286 -0.0469685 0)
(0.0350755 -0.0482564 0)
(0.0362675 -0.049312 0)
(0.0374461 -0.0500324 0)
(0.0386539 -0.0503213 0)
(0.039934 -0.0500903 0)
(0.0413298 -0.0492604 0)
(0.0428824 -0.0477615 0)
(0.0446274 -0.0455295 0)
(0.046583 -0.0424875 0)
(0.00194272 -0.0596814 0)
(0.00460119 -0.0558609 0)
(0.00709082 -0.0518956 0)
(0.00965089 -0.0486855 0)
(0.0120778 -0.0461454 0)
(0.0143259 -0.0443156 0)
(0.0164062 -0.0431997 0)
(0.0183287 -0.0427452 0)
(0.0200969 -0.0428627 0)
(0.021712 -0.0434447 0)
(0.0231783 -0.044378 0)
(0.0245055 -0.0455491 0)
(0.0257099 -0.0468461 0)
(0.0268133 -0.0481592 0)
(0.0278427 -0.0493812 0)
(0.0288289 -0.0504072 0)
(0.029806 -0.0511369 0)
(0.0308103 -0.0514755 0)
(0.0318802 -0.0513358 0)
(0.0330557 -0.0506392 0)