/*--------------------------------*- C++ -*----------------------------------*\
| =========                 |                                                 |
| \\      /  F ield         | OpenFOAM: The Open Source CFD Toolbox           |
|  \\    /   O peration     | Version:  2.3.0                                 |
|   \\  /    A nd           | Web:      www.OpenFOAM.org                      |
|    \\/     M anipulation  |                                                 |
\*---------------------------------------------------------------------------*/
FoamFile
{
    version     2.0;
    format      ascii;
    class       volScalarField;
    location    "3.1e-05";
    object      alpha.fuel;
}
// * * * * * * * * * * * * * * * * * * * * * * * * * * * * * * * * * * * * * //

dimensions      [0 0 0 0 0 0 0];

internalField   nonuniform List<scalar> 
7500
(
1
1
1
1
1
1
1
1
1
1
1
1
1
1
1
1
1
1
1
1
1
1
1
1
1
1
1
1
1
1
1
1
1
1
1
1
1
1
1
1
1
1
1
1
1
1
1
1
1
1
1
1
1
1
1
1
1
1
1
1
1
1
1
1
1
1
1
1
1
1
1
1
1
1
1
1
1
1
1
1
1
1
1
1
1
1
1
1
1
1
1
1
1
1
1
1
1
1
1
1
1
1
1
1
1
1
1
1
1
1
1
1
1
1
1
1
1
1
1
1
1
1
1
1
1
1
1
1
1
1
1
1
1
1
1
1
1
1
1
1
1
1
1
1
1
1
1
1
1
1
1
1
1
1
1
1
1
1
1
1
1
1
1
1
1
1
1
1
1
1
1
1
1
1
1
1
1
1
1
1
1
1
1
1
1
1
1
1
1
1
1
1
1
1
1
1
1
1
1
1
1
1
1
1
1
1
1
1
1
1
1
1
1
1
1
1
1
1
1
1
1
1
1
1
1
1
1
1
1
1
1
1
1
1
1
1
1
1
1
1
1
1
1
1
1
1
1
1
1
1
1
1
1
1
1
1
1
1
1
1
1
1
1
1
1
1
1
1
1
1
1
1
1
1
1
1
1
1
1
1
1
1
1
1
1
1
1
1
1
1
1
1
1
1
1
1
1
1
1
1
1
1
1
1
1
1
1
1
1
1
1
1
1
1
1
1
1
1
1
1
1
1
1
1
1
1
1
1
1
1
1
1
1
1
1
1
1
1
1
1
1
1
1
1
1
1
1
1
1
1
1
1
1
1
1
1
1
1
1
1
1
1
1
1
1
1
1
1
1
1
1
1
1
1
1
1
1
1
1
1
1
1
1
1
1
1
1
1
1
1
1
1
1
1
1
1
1
1
1
1
1
1
1
1
1
1
1
1
1
1
1
1
1
1
1
1
1
1
1
1
1
1
1
1
1
1
1
1
1
1
1
1
1
1
1
1
1
1
1
1
1
1
1
1
1
1
1
1
1
1
1
1
1
1
1
1
1
1
1
1
1
1
1
1
1
1
1
1
1
1
1
1
1
1
1
1
1
1
1
1
1
1
1
1
1
1
1
1
1
1
1
1
1
1
1
1
1
1
1
1
1
1
1
1
1
1
1
1
1
1
1
1
1
1
1
1
1
1
1
1
1
1
1
1
1
1
1
1
1
1
1
1
1
1
1
1
1
1
1
1
1
1
1
1
1
1
1
1
1
1
1
1
1
1
1
1
1
1
1
1
1
1
1
1
1
1
1
1
1
1
1
1
1
1
1
1
1
1
1
1
1
1
1
1
1
1
1
1
1
1
1
1
1
1
1
1
1
1
1
1
1
1
1
1
1
1
1
1
1
1
1
1
1
1
1
1
1
1
1
1
1
1
1
1
1
1
1
1
1
1
1
1
1
1
1
1
1
1
1
1
1
1
1
1
1
1
1
1
1
1
1
1
1
1
1
1
1
1
1
1
1
1
1
1
1
1
1
1
1
1
1
1
1
1
1
1
1
1
1
1
1
1
1
1
1
1
1
1
1
1
1
1
1
1
1
1
1
1
1
1
1
1
1
1
1
1
1
1
1
1
1
1
1
1
1
1
1
1
1
1
1
1
1
1
1
1
1
1
1
1
1
1
1
1
1
1
1
1
1
1
1
1
1
0.99937656
0.99649083
0.99214401
0.98571852
0.97694379
0.96650408
0.94626988
1
1
1
1
1
1
1
1
1
1
1
1
1
1
1
1
1
1
1
1
1
1
1
1
1
1
1
1
1
1
1
1
1
1
1
1
1
1
1
1
1
1
1
1
1
1
1
1
1
1
1
1
0.99937892
0.99391719
0.98362287
0.96731738
0.94614444
0.92046647
0.88648653
0.83385823
0.77458559
0.71434692
0.65379075
0.5942802
0.53749126
0.48002475
0.42711058
0.37703791
0.3252469
0.28080597
0.23806912
0.19915771
0.16248892
0.13230626
0.084695083
1
1
1
1
1
1
1
1
1
1
1
1
1
1
1
1
1
1
1
1
1
1
1
1
1
1
1
1
1
1
1
1
1
1
1
1
1
1
1
1
1
1
0.9922087
0.97505032
0.9476184
0.91008883
0.83758191
0.74967259
0.66363753
0.57558765
0.49261172
0.41046671
0.32919269
0.25624514
0.19018877
0.13186294
0.085085296
0.040461424
9.2600125e-10
3.6404992e-10
3.6404991e-10
3.6404991e-10
3.6404991e-10
3.6404991e-10
3.6404991e-10
3.6405371e-10
3.6404998e-10
3.6404998e-10
3.6404998e-10
3.6404998e-10
3.6404998e-10
3.6404998e-10
3.6404998e-10
3.6404998e-10
3.6404998e-10
1
1
1
1
1
1
1
1
1
1
1
1
1
1
1
1
1
1
1
1
1
1
1
1
1
1
1
1
1
1
1
1
1
1
0.98847666
0.96140079
0.9138246
0.81377849
0.6977131
0.58133006
0.46436545
0.35337909
0.24916444
0.15894273
0.092344739
0.0030795381
7.5254712e-10
6.9839392e-10
6.9839437e-10
6.9839356e-10
6.9839356e-10
6.9839356e-10
6.9839355e-10
6.9839355e-10
6.9839355e-10
6.9846812e-10
6.9866113e-10
6.9927043e-10
9.6004816e-10
9.6694146e-10
8.6901252e-10
7.9705257e-10
7.8272101e-10
7.2626237e-10
7.2581396e-10
1.719718e-06
1.0003954e-09
7.8382342e-10
6.8941196e-10
7.9108648e-10
7.5586516e-10
6.7596474e-10
7.2985886e-10
7.5012475e-10
7.2824084e-10
1
1
1
1
1
1
1
1
1
1
1
1
1
1
1
1
1
1
1
1
1
1
1
1
1
1
1
1
0.98134417
0.92786264
0.8147903
0.671215
0.52180932
0.37163117
0.23237747
0.12769097
0.0016892598
2.6683662e-09
2.6427186e-09
2.6427186e-09
2.6427186e-09
2.6427186e-09
2.6427186e-09
2.6427186e-09
2.6427186e-09
2.642719e-09
3.0075954e-09
3.044296e-09
4.1091822e-07
1.2012157e-09
1.187617e-09
1.2698007e-09
1.2216306e-09
1.0954369e-09
7.2218306e-10
1.520396e-05
2.7395664e-05
2.5225639e-05
1.0109276e-09
1.6267768e-09
1.4232048e-09
7.7844427e-10
1.13072e-09
0.00017565316
5.3708791e-05
2.1758748e-05
0.00039308872
0.00046035139
8.6759065e-05
1.2207127e-09
3.7110824e-05
0.00024880087
0.0011518729
0.0014638116
0.00084358015
1
1
1
1
1
1
1
1
1
1
1
1
1
1
1
1
1
1
1
1
1
1
1
0.97696711
0.90050369
0.73847296
0.55386291
0.36135278
0.19984034
0.02512224
3.4470678e-09
3.1716644e-09
3.1716597e-09
3.1716455e-09
3.171592e-09
3.171592e-09
3.1748027e-09
3.1854856e-09
3.2607637e-09
3.1571474e-09
3.1348599e-09
3.1801161e-09
3.1256696e-09
3.0956858e-09
2.6671764e-09
4.6157889e-09
7.8275537e-09
3.0858392e-09
3.1376412e-05
0.00018180092
0.00087390338
0.001458034
0.0012363585
0.00024131036
1.0321012e-09
0.00038165897
0.00015974304
2.0274934e-09
0.010515463
0.056755499
0.034174979
0.00038873962
0.00041436557
0.0012062259
0.00031803397
2.1325947e-09
0.0014407628
0.00095362799
0.0010946046
0.00012043572
9.3513544e-05
0.0029595689
0.0029748491
0.0029744382
0.0019876994
1
1
1
1
1
1
1
1
1
1
1
1
1
1
1
1
1
1
1
0.96481634
0.84771098
0.64283183
0.40971064
0.19577408
4.978364e-09
3.7414967e-09
3.7418543e-09
3.7438207e-09
3.7472314e-09
3.7529404e-09
4.0453302e-09
1.5520174e-06
4.6830831e-06
1.6754087e-05
4.0720282e-09
3.8526108e-09
8.5827434e-06
0.00017919265
0.0015251913
0.00041647594
3.9818847e-09
0.0020327664
0.00097446996
9.6048354e-05
2.0670964e-06
5.0242807e-09
1.097986e-08
3.4809255e-06
4.0098988e-07
0.0017939916
0.002292598
0.0022927671
0.0022917666
0.0021623979
2.1299359e-08
1.7636275e-09
2.0771072e-09
1.9659035e-09
0.033642738
0.060886074
0.037010112
0.00039299992
0.002116121
5.2521759e-05
1.5902527e-09
2.017991e-09
2.0732895e-09
0.0032301663
0.0032324868
0.0023004713
1.5724376e-09
1.1917324e-09
1.1917285e-09
1.1917283e-09
1.1917284e-09
1
1
1
1
1
1
1
1
1
1
1
1
1
1
1
1
0.92161942
0.72032547
0.45598525
0.16054337
5.3236928e-09
4.3082221e-09
4.3082415e-09
4.3082519e-09
4.3250387e-09
4.5146503e-09
0.00011154101
0.00049166545
0.00041106693
0.00010157644
3.9413053e-05
0.000512013
0.0012055021
0.0013361655
0.001459528
0.00029109513
0.0011232265
0.0037376003
0.0037417002
0.0033534357
0.004874602
0.0068672804
0.0068672806
0.0015904544
1.5374407e-09
1.138408e-08
4.1426882e-06
9.7214076e-05
2.7888369e-06
1.2439474e-09
1.2430092e-09
1.2430092e-09
1.2918389e-09
0.00064626863
2.4240663e-09
7.3986452e-06
0.0022632125
2.0038698e-09
0.040505414
0.010443855
0.00011368173
0.00011812042
1.7806221e-09
1.6825636e-09
1.4173578e-09
0.0059486707
0.00097940862
0.00080405978
4.4466608e-05
1.0688174e-09
1.3925503e-09
2.3651196e-08
2.8804678e-09
1.5234061e-09
1.5136696e-09
1
1
1
1
1
1
1
1
1
1
1
1
1
0.93076214
0.71659519
0.40647502
0.04768676
5.9072528e-09
5.6044807e-09
5.6049827e-09
6.3200848e-09
5.7517208e-09
4.9032869e-06
8.666047e-07
4.3364754e-09
0.0013369087
0.0047430125
0.0047466746
0.00075412397
5.3287527e-09
0.0010150619
0.00014008721
3.9573595e-09
3.9368872e-09
0.0019767525
0.00057631296
4.4407048e-05
4.4407084e-05
4.440719e-05
0.0052623095
0.0052286857
0.0042073445
0.0068672809
0.0012736191
1.5234639e-09
1.5234651e-09
2.7096126e-05
1.0936141e-09
1.4470308e-09
1.8747584e-09
1.7259914e-09
1.5835895e-09
0.0001339874
6.8451613e-05
0.0024999111
3.4820366e-08
0.026819783
0.0089228363
0.028126047
0.0031506569
0.0043292245
0.00028423411
2.0578564e-09
0.00040722711
1.4490887e-09
0.0081796301
0.0079671662
1.3436358e-09
1.293875e-09
5.9637416e-07
5.0567146e-06
1.3825276e-06
1.2122545e-09
3.6810488e-05
0.0010851234
1
1
1
1
1
1
1
1
1
1
1
0.86958203
0.54693053
0.10398379
5.2860795e-09
4.565071e-09
4.565088e-09
5.5017977e-09
2.5160866e-06
6.4243421e-05
0.0021047897
0.0044971072
0.0034677904
1.1584762e-08
2.6599608e-08
0.0050717178
4.7750617e-09
4.6679817e-09
4.6679835e-09
4.8134663e-09
4.4028163e-09
4.4029042e-09
5.2797593e-09
4.7226192e-09
3.9108208e-09
4.3214444e-09
0.00045320357
5.5848017e-05
0.00019493368
2.8022312e-06
1.1337947e-07
1.1360383e-07
0.0010591184
0.00027422696
1.1186868e-06
1.5361911e-09
1.1186925e-09
1.0936302e-09
0.00056351525
0.010803756
0.0074862222
0.00059569668
0.0024683776
1.5388629e-05
0.015579704
0.0029416799
0.0010543936
0.067583884
0.026618577
1.9647972e-07
8.581071e-05
7.5947968e-05
7.2081383e-05
0.0040275112
0.0039365501
0.00023113908
0.0086326083
0.0078497577
1.0584915e-07
6.9670348e-06
8.8433451e-06
1.463931e-06
1.1983153e-09
0.00015280129
0.0017273502
1
1
1
1
1
1
1
1
1
0.84778378
0.45679195
0.0049801452
4.8858875e-09
4.8339761e-09
5.8204234e-09
5.9578975e-09
7.0857296e-07
0.00026426836
9.5179334e-09
0.0047094859
0.0048403889
0.0047160533
9.5589098e-09
1.0179887e-08
0.0036196938
4.8003198e-09
5.4434028e-09
5.3997489e-09
5.3662941e-09
5.2415793e-09
5.2197014e-09
5.050976e-09
5.4250001e-09
4.5835009e-09
3.910869e-09
0.00095184457
0.0031590051
2.2026581e-05
2.456908e-09
9.1635941e-05
0.00044019212
0.0027967269
0.00024362829
1.0692934e-07
1.0716122e-07
0.00131327
0.00081299211
1.5600505e-09
0.011192765
0.011723388
0.011723388
0.0066194132
6.9167389e-08
0.00089294395
0.005744157
0.0032855641
0.0010521716
0.059896735
0.008163818
0.007798882
1.0164756e-08
1.006191e-08
0.00098050398
0.00082210927
0.0015738046
1.0116944e-07
0.0025483378
0.00028519673
2.5649239e-06
6.2757951e-10
5.9872309e-10
2.3321557e-07
7.461832e-08
3.780054e-10
3.7594843e-10
1
1
1
1
1
1
1
0.89336175
0.51080622
0.008486576
6.0257326e-09
5.9333782e-09
5.9170952e-09
4.8479748e-09
4.1000326e-06
0.00034179744
2.0669118e-06
0.0018014748
9.289554e-09
9.2472769e-09
9.2519443e-09
9.218021e-09
9.2037223e-09
0.00014504391
0.0049800818
4.5869935e-09
5.5216026e-09
5.4128358e-09
5.461465e-09
5.1801151e-09
4.645655e-09
5.4235242e-09
0.00095698268
0.00031615626
4.7425627e-09
0.0078898612
9.4731434e-05
2.9505637e-09
2.4357585e-09
0.0009353973
0.0044050055
0.0044166708
0.00064933975
1.0673053e-07
0.0021130705
0.0041954233
0.0041954232
0.0040271912
5.5133606e-09
0.000767117
0.0025002353
0.0053011463
0.00063507321
0.010456513
0.0040809946
0.00031180258
0.0010499547
2.2158905e-08
0.019292372
0.01962818
0.019630055
0.012421559
0.0011413317
1.043859e-07
1.0443367e-07
0.0061492366
1.1804657e-09
1.0855175e-09
8.869657e-10
8.9606112e-10
6.3654882e-10
3.0743261e-07
3.0205233e-07
1.4248736e-09
5.5503387e-10
1
1
1
1
1
1
0.73721468
0.10653824
1.0422106e-08
9.6308748e-09
2.1426279e-07
6.2916301e-05
2.0773802e-06
4.8769807e-09
0.00029999761
0.000506559
6.1123249e-05
1.2239741e-08
4.3677791e-06
1.03031e-08
6.2323873e-05
2.9988934e-05
9.3860536e-09
0.0049803388
0.004980412
4.5869917e-09
4.6908388e-09
5.2803064e-09
5.5293334e-09
4.5614785e-09
2.7979021e-06
0.0011459633
0.0011450413
0.0005464646
0.00025468999
0.0078940932
0.00035684198
0.0051276127
3.0376324e-09
2.9515951e-09
2.2571337e-09
0.0011811185
0.0022020272
0.00031295975
0.0034429856
0.0019374778
0.0030827305
8.1449908e-09
8.4151396e-07
2.5872218e-09
2.5871172e-09
2.5871206e-09
1.2286693e-05
0.0042418265
0.00614156
0.00073644875
2.1917459e-08
2.170997e-08
0.021321277
6.3302074e-09
0.0044917019
0.001854436
0.00019489283
0.00087868757
0.0047021586
0.012805523
0.01280196
0.0002233016
1.2386987e-09
0.0030974697
9.5535734e-10
1.0591957e-09
7.5063786e-10
5.7017342e-10
7.787056e-08
1
1
1
1
0.96958347
0.47667378
1.2354362e-08
1.0096494e-08
1.2320543e-08
3.251159e-08
1.2812024e-08
0.0021896946
0.00081888783
6.1888025e-09
5.9323916e-09
5.8830583e-09
0.00051757417
1.2230582e-08
1.3550014e-08
9.2924044e-05
0.00020062167
0.00020097697
2.3325064e-05
0.0031944661
0.0049808778
0.003307682
5.5503407e-09
0.00040869794
0.0031582902
0.0005447068
5.7219528e-05
0.0015634068
3.2683437e-09
3.0526683e-09
3.0315331e-09
0.0078936365
0.00020531877
0.012844198
0.0057895404
0.00017169247
2.2534892e-09
1.8233284e-09
0.00040948776
0.0026984436
0.0014593894
2.3471047e-09
2.0579639e-09
0.0001453067
1.0358833e-05
2.8968359e-09
2.6367413e-09
4.8324406e-08
1.6458375e-05
1.9687455e-05
0.0050910097
0.00064538265
2.1956921e-08
0.0099758688
0.013066654
6.6859835e-05
2.7332225e-09
2.4900442e-09
2.2608818e-09
0.0046117437
0.012805498
0.0057338185
0.0031011589
0.00015089635
0.0049752668
0.0054850691
0.0037845098
0.0045265729
0.00035663975
8.3032624e-10
1.0520298e-05
1
1
1
0.95645463
0.26670678
1.5804658e-08
1.4190768e-08
5.8525805e-07
1.300788e-08
1.0587678e-05
1.0019918e-05
0.0021836629
0.00072192288
1.2840532e-05
4.8271395e-06
5.8999486e-09
0.00081410557
0.00037524231
0.00026229357
0.00027166763
4.5527646e-09
4.7255087e-09
4.7026012e-09
3.0941299e-05
0.0014210451
0.00080569906
0.0013257287
0.0035349027
0.0035553418
0.0035566271
0.00028074431
7.931092e-08
4.050651e-09
1.0512604e-05
3.0599081e-09
0.0022392984
8.0070518e-06
0.012843512
0.012823771
0.00084675949
2.0811217e-09
1.7068243e-09
1.5733339e-09
1.5733274e-09
1.573327e-09
3.0122915e-09
1.5801088e-09
0.00039893475
4.8084669e-08
2.9715575e-09
2.694791e-09
1.2299373e-05
0.00082048001
0.0012536764
0.00031309501
0.0035377836
0.00022640781
0.0031577918
9.4054822e-08
9.4308883e-08
7.2432059e-05
8.5402233e-06
2.4734343e-09
2.5473657e-09
0.010092735
6.383885e-10
8.4840324e-10
6.7462653e-08
0.0054846915
0.0038036651
0.0053853272
0.0053856197
0.0051364405
0.00023091928
1.6817931e-06
1
1
0.98710511
0.24939473
1.8095678e-08
1.6092149e-08
5.3719966e-07
5.2669217e-06
1.1236801e-06
5.3217914e-09
5.4867092e-05
0.00018690908
0.00079623734
0.00049429206
2.3334042e-05
6.1653972e-09
0.00078486216
0.0011079549
0.0011073119
4.5528979e-09
5.0216237e-09
2.1071982e-05
5.7964093e-09
5.5344731e-09
4.9055422e-09
4.9055307e-09
4.2459558e-09
4.1902747e-09
4.4644692e-09
0.002785774
9.8265915e-05
0.0016734943
0.0022900719
0.00015237041
3.015904e-09
2.9812485e-09
0.0054988077
0.0016722917
4.3964658e-08
3.3634136e-05
1.3756555e-08
6.2915427e-09
4.2585368e-09
3.1040858e-09
1.9892544e-09
1.343847e-07
6.3471514e-09
2.0095375e-09
0.00032853808
0.00012786943
4.0818554e-07
2.8731577e-09
0.0082144484
0.0082153147
0.00041370143
0.0054250185
0.0054324397
2.1767315e-06
9.3709989e-08
0.0052190153
0.0013433083
2.4893779e-09
2.2629683e-09
1.1752305e-05
1.1628629e-09
3.7215918e-08
7.5633404e-10
4.8475932e-10
0.00035130812
1.1887974e-10
1.1887972e-10
1.1887972e-10
0.002793237
0.00087119425
4.4262972e-08
1
1
0.31576052
2.0780221e-08
1.8247152e-08
1.6132566e-08
2.7535911e-06
5.8255074e-09
5.3255346e-09
5.2814199e-09
0.00026979993
1.4248467e-08
0.00079623299
6.5229167e-09
1.6466541e-09
2.8610281e-06
6.5800019e-05
0.0011079552
0.00013799492
5.2706651e-09
5.5526525e-09
0.00010148427
0.0014525628
5.5400161e-09
0.00011943297
4.9111008e-09
4.9371754e-05
4.9384002e-09
0.00064387125
1.0845762e-07
1.0756438e-07
0.0029428285
0.0029476361
8.2573733e-05
2.5795413e-09
2.522001e-09
0.0088662339
2.9356767e-06
4.4511129e-08
2.3539771e-05
1.1938449e-07
1.1776004e-07
3.9848341e-09
3.4677504e-09
2.3249161e-08
2.4627055e-09
6.0363927e-09
2.0095406e-09
0.001094523
0.0012888808
4.6072614e-07
4.0494888e-05
0.0072519666
0.0064207208
0.00043658483
6.3967436e-08
0.00054341035
9.392561e-08
0.028393859
0.01609807
2.7651631e-09
2.4883572e-09
0.0011746269
0.00034842956
1.1629655e-09
2.503776e-08
7.1748092e-10
4.5139236e-10
1.1889915e-10
2.9270611e-10
1.9205125e-10
1.2012518e-10
1.18877e-10
0.00011319689
3.3240444e-05
1
0.64583341
0.024710007
0.00033747521
1.1489015e-06
1.9403346e-08
1.9410289e-08
5.2891634e-08
2.0122141e-08
5.281475e-09
0.0002697558
1.426195e-08
0.00079606771
5.5486328e-05
2.7808978e-09
5.6521416e-06
8.1760835e-09
0.00037461547
3.118744e-07
7.6720359e-06
4.8164016e-09
1.1762626e-05
0.0032722566
0.0032673959
0.0032642894
0.0032628887
0.0003149852
0.00069396263
0.0017298969
0.00018327602
0.0033559447
2.1681206e-09
2.1028971e-09
2.1029073e-09
2.1445613e-09
0.0001810363
0.00012905605
4.8453205e-05
0.0044973923
4.7122434e-09
4.6606635e-09
1.6768347e-06
4.5659197e-05
4.9747111e-06
5.9268095e-07
2.4279478e-09
2.0610229e-09
2.0609631e-09
2.0679111e-09
0.00096779965
0.012488959
0.0062825371
5.1310378e-05
5.1310317e-05
0.0060839764
0.0046006205
3.4328135e-05
0.03555755
0.063127044
0.009520149
2.7394788e-09
2.4883362e-09
0.0064102053
0.0004272464
1.1674257e-09
2.5337198e-09
6.1879685e-10
4.4028836e-10
4.730316e-10
6.9445688e-10
2.8155926e-10
1.3906469e-10
1.412864e-10
1.1888516e-10
2.634666e-06
0.97000161
0.08078143
9.6554757e-08
9.6765372e-08
0.00039630491
0.00034118223
1.9416936e-08
4.492089e-08
1.8276658e-08
5.281402e-09
0.00023459845
1.4474678e-08
0.00077321047
0.00024989347
0.00044131678
7.4905345e-09
6.6958844e-09
7.3151071e-09
0.0018231523
0.00071946312
4.1721737e-09
4.9515467e-09
5.3241336e-09
0.0022678256
5.934382e-09
0.00013944377
4.8220887e-09
0.0013555572
0.00094990761
0.00011665196
0.0047335253
0.00016795621
2.7261169e-09
2.5612086e-09
2.1184176e-07
0.00038102688
0.00014164786
8.959677e-05
0.010825988
0.00084605239
4.1250028e-09
4.8753991e-09
5.8167698e-05
1.7064988e-05
5.9668979e-07
0.0014980181
9.7214119e-05
2.549744e-09
1.6346547e-05
2.0497962e-05
0.018077208
0.0079719456
5.1310282e-05
5.1310001e-05
5.131009e-05
0.0021677478
0.06981799
0.070048283
0.042064758
4.5412939e-08
3.7265232e-06
2.5024184e-09
0.002642345
1.2699849e-09
9.8949584e-10
1.2712955e-09
0.00032920605
1.6760605e-06
3.8155866e-10
4.9478037e-10
3.1990697e-10
1.3366369e-10
2.3159435e-10
2.3848844e-10
1.2019013e-10
0.32167948
9.7419494e-08
9.3382484e-08
1.0067365e-05
7.4632589e-05
5.3105538e-08
2.4057543e-07
1.3319532e-08
1.025349e-08
5.2813799e-09
0.00027399211
1.5446648e-08
0.0005905514
0.00012299235
0.0013010099
7.088682e-09
1.7355278e-05
0.001826895
0.0018246753
5.0467864e-09
5.2808746e-09
0.00075785242
5.7145729e-09
6.6656636e-09
6.9635601e-07
4.6614117e-09
4.6562802e-09
4.6233805e-09
4.6233809e-09
0.0015832622
0.0030015918
0.0031332491
0.0020077817
0.00070060132
8.1477638e-05
0.00014515061
7.4048781e-06
2.7547168e-09
0.007796509
0.0035904955
3.6559883e-09
4.1063707e-05
4.342881e-08
4.3428809e-08
0.00068102199
0.0031831941
2.6359501e-05
0.0049262279
0.0038151532
0.0021821626
0.013076239
0.0066241111
0.0040678327
0.0065647194
0.00096018994
5.5510295e-07
0.013915625
0.054850291
0.026229638
0.0081565334
0.00045120016
2.5076585e-09
4.0794866e-05
0.0014482533
1.0447975e-09
0.0016531276
0.0017448989
9.3816244e-07
3.7515249e-10
1.7509048e-07
2.9237424e-10
1.3392504e-10
3.6352804e-10
4.5686607e-10
2.5592983e-10
0.10220027
1.022904e-07
9.8967944e-08
5.0760018e-05
5.1223298e-08
5.3588542e-08
3.6346851e-07
1.062726e-06
5.2910977e-09
5.2813525e-09
0.00027399061
1.1982184e-06
0.00024713812
2.1152931e-07
0.0013010065
1.1900872e-07
7.7348491e-06
0.00068139926
3.9660639e-05
3.2808277e-05
0.0020737121
0.0029267881
2.0178741e-05
5.763897e-09
7.5709301e-06
5.3057145e-09
5.0507586e-09
5.2752468e-09
5.4991591e-09
0.00015286465
1.0153021e-05
0.0029774016
0.0032323868
0.0032323868
0.00010209361
2.5227784e-09
2.3947645e-09
2.7499225e-09
2.6820574e-09
2.6816795e-09
3.1979347e-09
9.8127874e-05
4.388558e-08
4.3776298e-08
0.0021971521
7.1581713e-08
0.00035540481
0.0053037009
2.5253408e-08
0.0072079575
1.0015308e-09
0.015089767
0.01529447
0.0037364664
5.5540079e-07
5.5522317e-07
5.5528346e-07
5.5529647e-07
0.037821124
0.03843305
0.0015539047
0.0096536345
0.0096892902
0.0078509737
0.0064098617
0.0043433639
2.4274079e-10
1.5112662e-10
2.9351339e-10
5.3169635e-07
1.2829607e-05
1.6531917e-10
1.1194958e-05
0.000109353
1.8576024e-05
2.8848576e-08
5.8270332e-05
0.00020576641
4.7427939e-08
2.9597188e-07
2.6887798e-06
5.6850333e-09
5.6351938e-09
5.5943529e-09
5.2815771e-09
4.2771283e-05
5.4393848e-09
0.0006717897
0.0013002798
0.0013010031
1.0647539e-08
6.3098416e-09
4.7357881e-09
9.144285e-06
0.0019542807
0.0029115769
0.0029267879
0.00039564676
0.00026946032
2.5654069e-06
5.6192572e-05
5.9061975e-09
0.00086827289
0.0019506183
1.0152432e-05
1.0152375e-05
1.0152515e-05
0.0010457873
0.0012443527
3.6461995e-05
2.074423e-09
2.0291579e-09
1.1532435e-05
2.6249333e-06
2.9765224e-09
0.016890002
0.0015398568
0.012523858
0.0063701548
0.00050896376
7.1613551e-08
0.0052274151
0.000920381
3.1407323e-06
9.3880861e-10
9.3872535e-10
0.013835394
0.012915855
0.0019998327
0.0034420718
0.0011172707
5.5526114e-07
0.029265658
0.0056040771
8.7243425e-09
0.00053975958
0.0069630776
0.0026501589
1.9794836e-08
0.0018029062
7.2582409e-06
0.0010550124
0.0011796069
1.5474652e-10
3.459358e-10
4.895848e-05
3.8516425e-10
1.8887934e-05
0.00013410042
0.00013410042
4.9426429e-06
0.00016142585
0.00021118092
1.8125011e-07
1.4489007e-06
1.7503713e-05
7.2409299e-09
1.8568117e-08
5.5405513e-09
5.3093125e-09
6.5235369e-09
5.3642175e-09
0.00092542304
0.00079643218
0.0013010012
0.00039076789
4.2117606e-07
3.796916e-09
8.9958636e-05
0.00083748405
3.3978708e-09
0.0014000665
4.3927848e-07
6.7055219e-05
6.1571492e-08
0.00063921702
0.0016738184
0.0022836359
0.0022823793
3.9123267e-05
0.0013973979
0.00028471594
3.3181918e-09
3.3590776e-09
0.0036706945
9.1227451e-05
1.5409351e-09
0.00016027344
9.6348554e-10
0.0052196176
0.021880961
0.017810746
0.017755662
0.017387348
0.0010718755
2.8694039e-05
0.0029958565
0.00023816945
9.7347218e-08
9.657069e-08
9.3876854e-10
0.005102802
9.8195718e-06
0.0063766431
0.006376319
0.0054812408
0.0010430206
0.043818698
0.00033912281
8.9032728e-09
0.0018170292
1.7348981e-08
1.7505067e-08
5.0693249e-05
1.2664232e-07
0.00011320569
0.002285132
0.0032522762
1.5807147e-10
5.6261587e-05
5.5827425e-05
2.5257204e-05
5.405829e-09
0.00012292741
0.00013410041
5.8695368e-05
0.00023875456
8.467007e-05
0.00033394226
4.1886017e-07
4.1106798e-06
3.4528954e-06
7.1768438e-09
5.539653e-09
5.3005459e-09
6.7639003e-09
5.5500982e-09
0.00047589632
1.9426804e-08
3.4770498e-05
0.00091856292
2.9984713e-09
2.9379748e-09
3.0222481e-09
2.9376846e-09
8.3176151e-09
2.9494063e-09
1.4650917e-06
4.3297983e-06
0.0018280883
3.2164897e-08
0.0021838765
0.001818582
5.8613564e-07
0.00056634657
0.00082679375
6.0385919e-05
4.6440643e-07
1.818541e-05
0.0036522741
0.00021994583
1.2664083e-09
1.2609988e-09
8.1782457e-10
0.011992701
0.0096783126
0.011686568
0.0035885573
6.5870184e-10
6.590134e-10
0.00027466737
1.1269906e-09
2.7351069e-05
1.7826689e-05
1.2012969e-09
9.3879241e-10
0.00041866607
8.7669025e-05
0.00030358296
1.5587213e-09
6.6026174e-05
0.00023389756
0.043818698
7.1441365e-06
0.00091239305
0.0043407679
1.7123361e-08
6.2079716e-06
0.00012781641
1.0930483e-05
0.00035560933
7.6284498e-05
0.0017637995
5.3469662e-06
9.3475486e-05
3.0561001e-05
3.3344132e-05
5.1405927e-07
8.1957719e-06
4.6672128e-05
3.806536e-07
0.00027004296
9.8683107e-07
0.00033670625
8.7329391e-05
9.3326224e-09
1.0117467e-08
9.9043803e-07
5.5838577e-09
5.3081569e-09
6.3948236e-09
1.4086037e-07
1.8371337e-08
1.8121953e-08
1.8120852e-08
1.8581636e-08
0.0013529032
0.00014956771
0.0031378083
4.0626802e-09
3.1162403e-08
3.5118514e-09
4.0420623e-09
4.0868582e-09
0.0047052936
2.0948498e-07
0.0014614879
7.0102237e-08
3.5288178e-06
0.00066121153
1.0190912e-09
3.3670689e-10
3.4154518e-10
0.0025573417
1.0125207e-07
1.0162686e-07
0.0044511048
0.0028117063
1.2812399e-09
3.2174481e-07
5.6655407e-10
5.6642777e-10
5.6642021e-10
6.4237772e-10
8.7800046e-10
8.1824419e-10
8.0093302e-10
0.00019785988
1.7977455e-07
0.0094004002
1.2996936e-09
1.4851263e-09
1.6957484e-09
1.7137851e-09
1.5346964e-09
0.0015512184
2.3360124e-05
0.0072498574
0.00014878067
0.0043360957
0.0043408062
0.0029154733
5.2394391e-09
5.0395916e-05
1.8863569e-10
1.7400825e-10
3.0484018e-10
4.7593922e-10
4.8010455e-10
9.3463779e-05
4.3408478e-09
2.1992934e-10
2.2228864e-10
3.8896343e-10
3.3896321e-05
3.579617e-07
0.00027004282
9.9798884e-07
0.00033670618
0.00033666927
8.9306932e-09
1.2495024e-07
1.1930011e-08
1.1484534e-08
5.3356758e-09
6.0373105e-09
6.5274964e-07
4.6922368e-05
1.8636807e-08
1.9062966e-08
0.00017901787
0.0060171523
3.6228317e-05
0.0030922873
0.004724174
3.2154326e-08
8.0804665e-06
9.0150159e-06
4.1132766e-09
0.0027994289
0.0042613941
0.00010072916
7.0458622e-08
9.623556e-05
2.5761206e-05
3.1765424e-07
9.1534252e-09
9.3602835e-08
0.0026760938
3.2590175e-06
0.00030570091
0.0048968772
0.0048968773
0.002412129
4.415087e-05
9.6742977e-10
1.4991838e-07
8.2126175e-10
9.470341e-10
9.5507157e-05
5.0200042e-06
1.018633e-09
8.0615665e-10
0.0025663408
0.022361746
0.019186698
0.0012526499
0.003217862
6.9589076e-05
1.560429e-09
0.0010593668
0.030570004
0.00020763029
0.00093598891
2.1166545e-08
0.00087792405
0.00020098759
0.00010402687
4.3148882e-05
0.00034925197
1.7402789e-10
6.3963644e-09
2.0318544e-09
4.696861e-10
1.4198701e-05
6.1884048e-05
4.0304503e-10
2.5054619e-10
9.9279452e-06
8.2316625e-05
1.5312799e-05
0.0002700428
0.00017112531
0.00033191564
0.00033664512
8.9335546e-09
3.1035192e-07
1.8402625e-07
1.137699e-08
5.3661294e-09
5.3486575e-09
6.5576395e-09
0.00019135839
0.0010635537
2.1453393e-08
0.0002224765
0.0060171492
1.919358e-07
1.9571292e-07
0.0052842548
0.002583258
0.00043611513
0.00080661154
2.4754608e-05
8.1410911e-07
0.0062089165
0.00043733268
0.0026096083
0.00010069693
1.5041215e-09
1.1764877e-09
2.3877108e-10
0.00018255026
8.2231741e-09
2.4381238e-05
0.002337983
0.00083252892
0.0007121751
0.004714933
0.0016118517
1.3554669e-09
3.0889228e-08
0.0014275745
0.011317953
0.0057514307
1.1003915e-09
8.0710912e-10
8.0615714e-10
0.011108161
0.022361746
0.022260912
0.0084801236
0.015153119
0.0048526884
1.8568326e-09
5.348795e-06
0.046617343
0.00096846487
1.7892512e-05
0.00062347288
6.5875115e-10
5.9190463e-10
6.5233517e-06
6.8922563e-06
0.00085693774
1.7411333e-10
4.7585926e-09
6.2921139e-09
6.9520202e-10
6.3522464e-10
6.392816e-05
2.3441867e-05
2.915966e-07
2.4405172e-06
7.51005e-05
0.00014066399
0.00025128756
0.00027004197
1.1119332e-08
0.00025687175
6.92116e-07
6.0057801e-07
8.037542e-07
6.6416817e-07
5.4544698e-09
0.00011450831
7.9952045e-05
2.1567009e-05
0.00082821872
1.0198695e-06
4.9627572e-06
0.0060171484
0.0052225132
4.8773628e-09
0.0001260414
0.0035690756
6.2199956e-05
0.00080557488
8.1486099e-07
8.1474848e-07
0.0022111823
0.0011579646
0.0050525528
0.002420398
6.1447196e-05
7.9549174e-10
2.3874388e-10
0.00021992071
1.4845009e-05
5.0952239e-06
0.0022178368
2.1154957e-09
1.8216524e-09
0.00023217398
0.0013992143
4.5305637e-05
4.8865662e-08
0.023858486
0.023830902
0.0010707181
1.3883953e-09
1.4063478e-07
5.431106e-09
1.0418338e-09
0.00078072768
1.817639e-09
0.013361545
0.011655969
0.009836847
6.3436172e-05
1.0278692e-09
0.024309724
0.0014531177
3.6162011e-05
0.0016091981
0.0016073439
4.4942839e-10
5.79382e-10
1.5415398e-05
0.00046078374
5.5741481e-08
4.4287901e-09
1.9796987e-09
3.0508423e-05
7.6006152e-10
5.7721599e-05
6.2744746e-05
6.1297155e-06
6.3326681e-09
1.4743651e-06
0.00013870389
8.6591052e-08
0.00027003758
1.8153963e-08
5.3115622e-06
2.8025719e-07
2.7285308e-08
6.7058516e-09
6.8995845e-09
1.6758191e-08
0.00012701673
0.0001268425
8.2165221e-09
5.2709187e-09
3.0725478e-06
1.703e-07
0.0005871558
0.0075477934
1.1083931e-05
4.0187836e-09
4.0164954e-09
1.7030034e-05
6.0337513e-09
0.00073592898
6.7720208e-06
2.3035492e-09
0.00067864996
0.0010494529
0.0050525499
0.0020174341
1.1445608e-09
5.9072954e-10
5.9880802e-10
1.0168918e-09
1.4318524e-09
1.9394976e-09
1.1333704e-07
2.0852514e-09
1.8504109e-09
1.5908668e-09
0.00067931032
0.018825821
0.023858465
1.9239647e-09
1.8442333e-09
9.5993083e-06
1.5741724e-09
1.5664163e-09
1.3230954e-09
6.4884465e-06
1.8163103e-09
1.6367244e-09
1.6230647e-09
1.6285521e-09
2.7231941e-05
1.0001618e-09
1.1960321e-09
0.000137
5.5146397e-09
5.5619639e-09
0.00059174372
5.6205138e-07
6.4619991e-10
5.1643616e-10
6.7938034e-10
1.7466317e-09
1.0328396e-08
4.8882193e-08
3.1318649e-05
0.00034248287
1.9277091e-09
1.778932e-09
3.3996762e-06
2.410714e-07
8.3194085e-06
5.6011564e-08
4.6355914e-07
9.504463e-05
8.729971e-09
7.1425643e-09
7.0104334e-09
8.5487475e-09
1.8738895e-08
5.4606078e-08
9.0575629e-08
4.7050352e-05
1.3708891e-06
6.5027082e-05
4.1957757e-09
2.7682033e-05
2.488924e-05
8.3419948e-05
0.0045940628
0.00096275157
4.6124463e-09
8.8139066e-09
8.9702669e-09
3.3264237e-06
0.00034531282
1.7094408e-06
2.3198742e-09
2.6575956e-09
2.7947215e-09
0.0014605516
0.0020141547
0.0006221325
3.2519963e-05
2.183993e-06
0.0023349773
0.0025190778
2.9602234e-05
1.9198994e-09
0.00048539906
0.0029150169
9.706984e-06
0.017874647
0.024028108
0.0020694563
5.5761315e-08
1.8578165e-09
1.6080449e-09
0.00078405378
0.023809817
0.0012215068
8.1003826e-08
0.00069407303
0.0007578367
2.6325616e-05
0.00021088392
1.0157081e-05
9.9937679e-10
9.9938091e-10
1.006301e-09
1.0353341e-07
0.00011589434
5.7483486e-10
6.8405013e-10
4.6935954e-05
7.2066886e-10
6.9553825e-07
1.7468431e-09
2.1191298e-08
7.2437798e-09
3.9996971e-08
0.0014456741
1.7941558e-06
1.7849834e-09
1.6415059e-09
5.117007e-09
4.731289e-09
7.1303711e-08
1.8697417e-06
2.1883246e-07
0.00015712469
3.0006683e-05
5.3189419e-05
1.0137286e-08
9.2806332e-07
1.4384281e-06
6.349874e-06
1.5729938e-08
2.7503838e-06
6.5109898e-05
4.1937701e-09
4.4033049e-09
0.000114507
9.5248885e-06
5.5981764e-09
4.9035344e-09
5.073364e-09
5.530668e-09
2.8354118e-05
3.9132068e-09
3.2061281e-09
2.7052021e-09
2.7017443e-09
0.0034606837
0.00019710724
0.00031394483
0.00082866291
0.0014365796
0.00017831074
2.6959616e-06
0.0038637263
0.003863726
5.1067995e-06
0.0077730987
0.011213083
0.01301459
0.013030978
1.6947544e-09
1.6813599e-09
1.68136e-09
1.8875516e-09
1.0547306e-06
1.792649e-09
0.00026275905
0.051158587
0.002819996
8.0876862e-08
0.0061459652
0.016839285
0.0023934031
0.012152793
1.0006491e-09
1.000214e-09
1.3205258e-05
8.6261459e-10
1.0016679e-09
0.00049904601
4.2020036e-10
2.7679745e-05
0.00052102869
0.000403584
1.6207255e-09
1.9205839e-09
5.9932649e-08
3.5056817e-10
0.0004842234
0.001445674
0.00066584969
1.9565051e-09
9.3319314e-09
1.611229e-09
3.8724447e-09
1.8862207e-08
8.0770996e-05
0.00021680689
0.00028679582
0.00011018089
0.00011331043
3.850759e-05
8.2101626e-09
8.4851288e-09
6.3271316e-06
1.4541046e-08
4.5170336e-06
4.0178712e-09
4.0178836e-09
4.1921106e-09
4.8474831e-09
5.3950988e-09
5.1402453e-09
5.6030881e-09
0.00014035869
0.0001023249
0.0020187401
0.0020199637
3.2064074e-09
3.3701754e-09
9.2002975e-05
0.005963215