/*--------------------------------*- C++ -*----------------------------------*\
| =========                 |                                                 |
| \\      /  F ield         | OpenFOAM: The Open Source CFD Toolbox           |
|  \\    /   O peration     | Version:  2.3.0                                 |
|   \\  /    A nd           | Web:      www.OpenFOAM.org                      |
|    \\/     M anipulation  |                                                 |
\*---------------------------------------------------------------------------*/
FoamFile
{
    version     2.0;
    format      ascii;
    class       volScalarField;
    location    "3.1e-05";
    object      k;
}
// * * * * * * * * * * * * * * * * * * * * * * * * * * * * * * * * * * * * * //

dimensions      [0 2 -2 0 0 0 0];

internalField   nonuniform List<scalar> 
7500
(
9.9990643e-06
9.9967714e-06
9.9950472e-06
9.9937352e-06
9.9912566e-06
9.9904139e-06
9.9888286e-06
9.9874154e-06
9.9849038e-06
9.9839524e-06
9.9834213e-06
9.9823434e-06
9.9810611e-06
9.9799312e-06
9.9791237e-06
9.9785356e-06
9.9787484e-06
9.9793963e-06
9.9808335e-06
9.9833036e-06
9.9872879e-06
9.9915645e-06
9.9963488e-06
9.9991836e-06
1.0001447e-05
1.0002245e-05
1.0003083e-05
1.0004402e-05
1.0007127e-05
1.0010799e-05
1.0018825e-05
1.0022777e-05
1.003041e-05
1.003612e-05
1.0042267e-05
1.0046575e-05
1.0051994e-05
1.0055639e-05
1.0061114e-05
1.006478e-05
1.0070902e-05
1.0074708e-05
1.0079187e-05
1.008223e-05
1.0086858e-05
1.008994e-05
1.0095327e-05
1.0099968e-05
1.0109341e-05
1.0116046e-05
1.0128246e-05
1.0136566e-05
1.0151949e-05
1.0163902e-05
1.0187857e-05
1.0202934e-05
1.0230357e-05
1.024901e-05
1.0283857e-05
1.0308895e-05
1.0354702e-05
1.0386722e-05
1.0446678e-05
1.0486554e-05
1.0561321e-05
1.0610606e-05
1.0704108e-05
1.076289e-05
1.0877097e-05
1.0948094e-05
1.1088214e-05
1.1174173e-05
1.1344418e-05
1.1446732e-05
1.1717036e-05
9.9992737e-06
9.9971017e-06
9.9960953e-06
9.9939561e-06
9.9931029e-06
9.9913322e-06
9.9902994e-06
9.9887271e-06
9.9877848e-06
9.9862006e-06
9.9853295e-06
9.98425e-06
9.9835172e-06
9.9828321e-06
9.9831402e-06
9.9841031e-06
9.9858085e-06
9.9892386e-06
9.9913326e-06
9.9939953e-06
9.9965351e-06
9.9977395e-06
9.9999711e-06
1.0001437e-05
1.0003835e-05
1.0006196e-05
1.0010902e-05
1.0015352e-05
1.0024276e-05
1.0030381e-05
1.0042406e-05
1.0049861e-05
1.0064603e-05
1.0074728e-05
1.0093959e-05
1.010987e-05
1.0133593e-05
1.015276e-05
1.0178342e-05
1.0198095e-05
1.0225494e-05
1.0245921e-05
1.027769e-05
1.0303719e-05
1.034474e-05
1.0380496e-05
1.0438575e-05
1.0489434e-05
1.0574609e-05
1.0646969e-05
1.0768482e-05
1.0869948e-05
1.1038342e-05
1.117609e-05
1.1401272e-05
1.1578798e-05
1.1873407e-05
1.2097705e-05
1.2479454e-05
1.2759726e-05
1.3235024e-05
1.3594014e-05
1.4212433e-05
1.4645832e-05
1.5389767e-05
1.5917221e-05
1.6820979e-05
1.7434503e-05
1.849415e-05
1.9203192e-05
2.0453079e-05
2.128271e-05
2.2753593e-05
2.3696363e-05
2.5948654e-05
9.9994104e-06
9.9982842e-06
9.9978012e-06
9.9965556e-06
9.9962663e-06
9.9953125e-06
9.9950731e-06
9.994696e-06
9.994961e-06
9.9950556e-06
9.9955207e-06
9.9960616e-06
9.9970702e-06
9.9988167e-06
1.0001286e-05
1.0006074e-05
1.0009703e-05
1.001633e-05
1.0022148e-05
1.0026766e-05
1.0035898e-05
1.0041527e-05
1.0051168e-05
1.0058806e-05
1.0074275e-05
1.0087271e-05
1.0112918e-05
1.0133086e-05
1.0174212e-05
1.020527e-05
1.0266759e-05
1.0312124e-05
1.0400425e-05
1.0469749e-05
1.0600979e-05
1.0705309e-05
1.0891486e-05
1.1041255e-05
1.1294155e-05
1.1503903e-05
1.184836e-05
1.21448e-05
1.2631556e-05
1.3057447e-05
1.3760847e-05
1.4369972e-05
1.5385526e-05
1.6242063e-05
1.7682237e-05
1.8860699e-05
2.0832414e-05
2.2420001e-05
2.5025502e-05
2.7104321e-05
3.0447961e-05
3.3050529e-05
3.7279199e-05
4.0495218e-05
4.5807303e-05
4.9716541e-05
5.616119e-05
6.1020496e-05
6.9095028e-05
7.4809322e-05
8.4221198e-05
9.0934521e-05
0.00010192124
0.0001095062
0.00012190355
0.00013039978
0.00014453483
0.00015420711
0.00017027194
0.00018092968
0.00020482852
9.9999982e-06
1.0000512e-05
1.0001958e-05
1.0004282e-05
1.0008336e-05
1.001228e-05
1.0018973e-05
1.0023523e-05
1.0032568e-05
1.0037138e-05
1.0046637e-05
1.0051883e-05
1.0060453e-05
1.0069066e-05
1.0077402e-05
1.0090804e-05
1.0101995e-05
1.0119566e-05
1.0138716e-05
1.015423e-05
1.0183943e-05
1.0208227e-05
1.0249559e-05
1.028848e-05
1.0362818e-05
1.0434242e-05
1.0570841e-05
1.0698597e-05
1.0945793e-05
1.1179338e-05
1.1620663e-05
1.2034385e-05
1.2799732e-05
1.3520126e-05
1.4812588e-05
1.6020555e-05
1.8130896e-05
2.0070755e-05
2.3370085e-05
2.6317858e-05
3.1274725e-05
3.5604307e-05
4.2913985e-05
4.9129629e-05
5.9636788e-05
6.8329581e-05
8.3039874e-05
9.4859326e-05
0.000114916
0.00013053862
0.00015696496
0.00017715596
0.00021067191
0.00023611094
0.00027749797
0.00030833605
0.00035866843
0.00039576978
0.000456602
0.00050046584
0.00057272319
0.00062534085
0.00071213665
0.00077263058
0.00087127919
0.00093995339
0.0010508441
0.0011264196
0.001247498
0.0013300105
0.0014642179
0.0015556253
0.0017034427
0.0018017655
0.002015374
1.0002228e-05
1.0015185e-05
1.0031372e-05
1.0059078e-05
1.0088875e-05
1.011532e-05
1.0157603e-05
1.0187205e-05
1.024022e-05
1.0270594e-05
1.0323373e-05
1.0351543e-05
1.0396517e-05
1.0422882e-05
1.0460959e-05
1.0493155e-05
1.0534878e-05
1.0592528e-05
1.064995e-05
1.0741013e-05
1.0840931e-05
1.1012013e-05
1.1221346e-05
1.1575798e-05
1.2096373e-05
1.2819368e-05
1.408455e-05
1.5527725e-05
1.8241425e-05
2.1117666e-05
2.6421334e-05
3.1733539e-05
4.1495313e-05
5.0798025e-05
6.7516073e-05
8.2909299e-05
0.00011029017
0.00013453003
0.00017677246
0.00021259334
0.00027432972
0.00032530928
0.00041327189
0.00048377091
0.00060527466
0.00070012603
0.00086303375
0.00098689312
0.0011995666
0.0013568321
0.0016267564
0.0018216979
0.0021510018
0.0023870897
0.0027791368
0.0030558063
0.0035149827
0.003838014
0.0043699394
0.0047417855
0.0053605753
0.0057896592
0.0065029051
0.0069850758
0.0077754914
0.0083046502
0.0091619629
0.0097291765
0.010637107
0.011243109
0.012224978
0.012876777
0.013925728
0.014610708
0.016077857
1.0068711e-05
1.0361013e-05
1.0484489e-05
1.0739207e-05
1.081433e-05
1.0962843e-05
1.1068498e-05
1.1214803e-05
1.1386513e-05
1.1545832e-05
1.1717784e-05
1.1872843e-05
1.2027572e-05
1.2163152e-05
1.2315038e-05
1.2470152e-05
1.2669567e-05
1.296014e-05
1.3364616e-05
1.4054377e-05
1.5068526e-05
1.6934989e-05
1.9513043e-05
2.4367718e-05
3.0490976e-05
4.148453e-05
5.6500982e-05
7.574557e-05
0.00011124489
0.00014636565
0.00021164099
0.00027374899
0.00038907137
0.0004917715
0.00067946569
0.00084036167
0.0011330852
0.0013728149
0.0018006417
0.0021374958
0.0027313224
0.0031894061
0.003993878
0.0045983929
0.0056586869
0.0064368571
0.0077939537
0.0087665866
0.010457346
0.011642279
0.013702463
0.015111219
0.017530691
0.019169151
0.021946322
0.023799345
0.026938498
0.029028911
0.032505082
0.034850188
0.038795897
0.041398371
0.045777674
0.048630479
0.053353602
0.056382167
0.061335154
0.064496428
0.069582972
0.072893914
0.07825752
0.08171723
0.087298869
0.090850905
0.098380123
1.017462e-05
1.1053575e-05
1.1368695e-05
1.2307313e-05
1.2690589e-05
1.3686604e-05
1.4115512e-05
1.4990968e-05
1.5588191e-05
1.6354713e-05
1.6944979e-05
1.7575542e-05
1.8102714e-05
1.8699019e-05
1.9363353e-05
2.0322708e-05
2.1918792e-05
2.4633186e-05
2.9230198e-05
3.7789749e-05
5.0593952e-05
7.5316347e-05
0.00010712084
0.00016909433
0.00023984026
0.0003770637
0.00052046262
0.00076806528
0.0011099506
0.0014580576
0.0021046665
0.0026734753
0.0037249525
0.0046032679
0.0062277683
0.0075229639
0.0099105547
0.011719244
0.014997134
0.017406324
0.021720968
0.024840818
0.030374365
0.034285684
0.041230439
0.046028626
0.054506231
0.060237003
0.070300599
0.077000905
0.08875649
0.096405484
0.10968931
0.11824832
0.1329617
0.14231879
0.15842957
0.16859363
0.18565891
0.19681096
0.21565309
0.22763997
0.24795307
0.26077947
0.28210915
0.29533525
0.31705937
0.33055691
0.35225721
0.3662021
0.38854172
0.4027752
0.42556324
0.43994117
0.46985371
1.0074626e-05
1.0707017e-05
1.1321519e-05
1.2744536e-05
1.4225474e-05
1.6025778e-05
1.8633197e-05
2.0351936e-05
2.3682598e-05
2.5210193e-05
2.8317164e-05
2.9883223e-05
3.3027102e-05
3.6138042e-05
4.1929386e-05
5.1570635e-05
6.9975055e-05
0.00010094806
0.00015573347
0.00025526302
0.00039786621
0.00066684975
0.00098984541
0.0016110983
0.0022648416
0.0035389011
0.004750034
0.0070944579
0.0091832998
0.012542824
0.017087265
0.021219682
0.028252018
0.034276493
0.044799231
0.05297014
0.067599046
0.078186067
0.096954344
0.11032687
0.13373767
0.15023941
0.17877518
0.19834469
0.23268628
0.25532198
0.29551851
0.32140877
0.36708381
0.39633987
0.44781201
0.48013095
0.5364115
0.57151612
0.63199213
0.66947468
0.7341835
0.77359729
0.84007346
0.88299916
0.95492679
1.0006714
1.0775448
1.1258743
1.205289
1.2543177
1.3338254
1.3832298
1.461394
1.5126173
1.5917378
1.6439704
1.7249776
1.778043
1.8859764
1.1269364e-05
1.6657166e-05
1.8823567e-05
2.3856779e-05
2.5590573e-05
2.9654682e-05
3.1452559e-05
3.4971494e-05
3.7170507e-05
3.9482087e-05
4.3960388e-05
5.1715143e-05
6.6861241e-05
9.5017852e-05
0.00015028071
0.0002492407
0.00045263622
0.00075674767
0.0013454146
0.0022003817
0.0036017613
0.0057456995
0.0085522775
0.013131992
0.018121721
0.027024053
0.035303495
0.050582495
0.063078366
0.086664913
0.10461789
0.13831428
0.16361665
0.20870717
0.24557257
0.29899592
0.35546774
0.41601078
0.48511548
0.55932978
0.63910257
0.7286598
0.82239256
0.9197373
1.0386533
1.1330699
1.2827262
1.3804733
1.549686
1.6582899
1.8468066
1.9642124
2.1668791
2.2928513
2.5066555
2.6417342
2.8710101
3.0136131
3.253874
3.412667
3.6729857
3.8464013
4.1290804
4.3126463
4.6027609
4.7892224
5.0795254
5.2664015
5.5565316
5.7548612
6.047637
6.2637575
6.5853962
6.8244504
7.3065847
1.1296507e-05
1.9245874e-05
2.2423456e-05
3.2926443e-05
3.5818121e-05
4.5437361e-05
4.825268e-05
5.6937792e-05
6.4728736e-05
8.0827728e-05
0.0001120875
0.00017677831
0.0003064068
0.00055897364
0.0010797585
0.0019405404
0.003783796
0.0061860846
0.011311625
0.016933447
0.028726658
0.039984796
0.062993054
0.083006581
0.12179288
0.1581077
0.21513961
0.27876351
0.34958217
0.44982136
0.53624921
0.68004935
0.78621914
0.97619392
1.108811
1.3467618
1.5061563
1.791592
1.9777939
2.3141104
2.5284266
2.9184042
3.1623119
3.6044595
3.8864656
4.3570732
4.7533964
5.2109611
5.7380904
6.1881685
6.8295778
7.2692036
7.9936009
8.4574821
9.2289799
9.7711205
10.677175
11.292588
12.311282
12.997499
14.080395
14.838857
16.015427
16.835602
18.025461
18.867559
20.094014
20.933603
22.292196
23.284973
24.794753
26.148479
28.207137
29.762032
32.75625
1.0264338e-05
1.1730212e-05
1.3085232e-05
1.6308924e-05
1.9287797e-05
2.5302307e-05
3.6199204e-05
6.0007152e-05
0.00011429427
0.00023666201
0.00050039794
0.0010569739
0.0021545306
0.0042545323
0.0086427225
0.014852394
0.028465519
0.043750131
0.076727852
0.10849369
0.17555361
0.23282153
0.35123054
0.44347137
0.63057789
0.76660277
1.0371417
1.2255704
1.5929978
1.8426017
2.3109552
2.6533969
3.2025656
3.6936619
4.3105138
4.9478713
5.6357289
6.4747235
7.2033582
8.3257349
9.0969704
10.465904
11.333796
12.925027
14.002883
15.951121
17.252904
19.572393
21.075357
23.542034
25.544803
27.756807
30.275774
32.565493
36.43598
39.413025
44.67746
47.797392
52.907321
56.461802
61.835848
65.551941
71.871632
76.333143
82.683642
87.190247
94.855087
98.78823
110.76171
117.17855
132.89297
145.01044
163.62346
172.30482
190.94548
1.2553258e-05
1.5872946e-05
1.8711889e-05
2.0961094e-05
2.6436692e-05
4.3933347e-05
9.6894854e-05
0.00024475066
0.00061399358
0.0014861678
0.0033605075
0.0074760142
0.015105404
0.030037228
0.057518876
0.094674431
0.1725703
0.25059068
0.41642357
0.55984175
0.85916487
1.0909924
1.5656949
1.9081673
2.5958679
3.0697433
4.0093658
4.6419885
5.8775384
6.7117883
8.3209877
9.4024293
11.452303
12.796635
15.191502
16.918083
20.118734
22.370527
26.279257
29.584189
33.396189
38.397468
41.913156
49.61641
54.765571
64.619513
70.409484
82.210427
88.709649
101.70989
109.52906
121.00612
134.2443
155.8586
184.05579
203.33707
242.47431
246.39751
268.22569
298.28545
320.73251
345.12618
391.75089
423.74921
449.24206
475.27644
532.17915
537.06835
607.83135
616.29698
657.08923
691.41065
708.97711
734.90897
774.72651
1.1899116e-05
1.6448374e-05
2.0232169e-05
3.2314948e-05
7.4302206e-05
0.0002197055
0.00064368397
0.0017731161
0.0044316633
0.010563055
0.022953349
0.051806982
0.095470032
0.19458975
0.30735147
0.51620405
0.84192253
1.1826963
1.8360345
2.3761271
3.4506073
4.238189
5.8233207
6.9391286
9.1456767
10.69564
13.753159
15.846571
19.989673
23.00236
28.825893
32.800722
40.261591
45.234019
53.732115
62.429191
77.213672
87.330412
106.49019
118.78685
140.79948
160.06996
178.6494
244.7941
262.37899
319.07719
339.80394
419.14657
437.82202
527.76208
547.24826
622.56805
648.24135
713.67725
740.50279
838.62185
913.29769
859.82355
993.07049
984.37439
929.72279
998.17323
1001.7817
975.99962
871.44094
908.18334
797.10508
807.40462
803.19975
786.56381
727.76113
680.73315
571.17419
583.04661
495.66833
1.0912591e-05
1.5114537e-05
2.9375824e-05
0.0001063879
0.00041595724
0.0014602992
0.0043849153
0.011774746
0.02825448
0.066204393
0.13565405
0.29866943
0.50177611
0.95561425
1.4099324
2.4097147
3.253267
4.8748397
6.6109761
8.7254264
11.83667
14.475543
19.447516
23.097282
30.412349
35.957103
46.883249
54.388362
71.519958
84.451984
109.14806
125.21677
157.34885
178.58829
224.44744
292.59351
351.7016
404.30289
518.48735
556.58875
705.45393
737.0025
826.30557
968.98671
966.75281
1104.134
1052.7945
1197.1071
1105.1571
1203.0281
996.69702
970.13799
840.15701
780.88487
789.71301
731.30675
545.01512
566.66288
616.73711
465.18905
429.40703
338.39637
314.62986
264.73369
195.93469
180.15782
113.53523
160.52556
115.2973
131.04423
81.890629
63.319774
52.579647
52.749418
35.342532
1.0141502e-05
2.0684874e-05
0.00011504889
0.00064655214
0.0027500774
0.0093351567
0.026756642
0.068437929
0.15556192
0.36566613
0.67641336
1.3996108
2.1806193
3.8457346
5.4388643
8.7708942
11.452335
17.030667
21.359293
29.738289
37.298793
49.025064
63.700332
78.175828
108.33904
130.81473
177.30858
205.95737
312.29412
367.94321
478.74534
554.8588
710.95689
812.51915
966.37232
1094.8795
1138.0401
1247.7406
1292.9195
1280.6259
1342.2238
1054.6664
1090.7131
821.60134
844.65911
661.85762
644.46927
499.13064
379.46211
272.79254
177.56531
167.68503
106.79357
80.734535
109.87997
68.571054
38.872767
83.918929
63.591418
29.224279
42.166864
38.585081
24.857659
16.694009
16.78478
13.427438
11.359151
25.57869
15.211321
10.551503
5.0188591
4.5277017
4.875887
4.7834387
3.8722549
1.0102351e-05
7.8208913e-05
0.0007482637
0.004175856
0.016811472
0.053123059
0.14259583
0.34759599
0.73837825
1.6678139
2.826337
5.455094
8.048866
13.23994
18.765677
28.511296
37.19463
55.124008
69.71465
99.279606
127.50886
178.68995
228.05027
309.25623
463.15397
564.53562
774.52685
886.3621
1183.8152
1231.3959
1330.3731
1428.6065
1436.7025
1359.214
1175.2936
945.14741
897.78643
693.64116
447.72476
429.65775
239.15237
185.18794
160.87586
92.646176
168.86306
68.103448
91.916751
43.914016
29.032523
18.577899
11.606744
10.910765
8.6454125
12.934228
12.737153
7.0095476
5.0602627
24.064277
19.524108
6.3502206
8.8513795
12.181122
7.1617746
5.7632861
7.6882299
5.9791712
7.2756918
15.102471
6.0706105
2.7978633
2.1157516
1.9192399
1.8300615
1.8545199
2.1311324
1.0006614e-05
0.00051228076
0.0047958577
0.02453429
0.090519612
0.2639207
0.66065337
1.557218
3.010662
6.3645642
10.164513
18.507011
26.612033
42.602612
63.044937
88.457082
124.04596
188.83613
246.05874
379.67984
521.41365
755.02918
956.00961
1241.6644
1378.1722
1525.4285
1538.2072
1499.8435
1269.9461
1027.4277
676.12212
655.10529
397.96824
312.70367
144.87821
130.91549
120.59085
64.223596
43.963947
39.139805
14.092776
14.809441
14.330691
18.058099
41.731762
7.1589695
18.459084
4.9508226
4.1872621
4.5149167
3.83205
3.6351114
3.9410278
7.5505002
7.3507184
3.9315211
3.1450484
10.844068
10.899219
5.0414982
4.4868291
5.4726584
5.0269943
6.0196571
7.2808051
3.5749029
9.2563543
11.863794
2.1600075
2.348648
2.1020982
1.7454104
1.7278693
1.779463
2.0067499
1.8404255e-06
0.0032272372
0.027467278
0.12724735
0.42557695
1.1402994
2.6679705
5.8429999
10.697278
21.261134
33.140236
58.65448
84.942311
144.45583
207.84502
303.64498
492.39721
734.19396
988.88571
1397.5376
1502.501
1730.3829
1558.5137
1459.3018
1061.7059
770.65854
576.83056
497.38771
170.07606
121.60195
72.589103
77.829298
30.617359
22.479354
10.794174
28.214807
12.247219
10.718315
12.409669
7.6281302
2.3497542
2.7019888
3.372028
6.9250718
13.04625
7.1112137
8.6404323
2.7753529
3.0029697
4.5954517
4.2182448
3.3961255
3.6772065
7.4189817
5.2643945
3.7095964
3.0018935
9.0152017
8.1164267
4.1842009
3.357958
4.9074424
4.7043409
8.6067222
5.0217604
2.6639314
7.9512229
7.1318572
2.1440716
1.8491605
2.1224397
1.9153464
1.8693573
2.1276542
2.1662675
3.254056e-07
0.018111272
0.13837263
0.57748033
1.7473892
4.311935
9.546028
19.037551
35.000487
66.276961
105.33232
189.28617
285.81798
541.08599
781.15466
1268.1575
1474.2156
1764.6143
1786.959
1636.9946
1159.2566
790.5287
366.45622
257.4436
128.6437
97.649557
79.257036
51.000486
12.146571
11.196388
15.597783
12.267495
3.8788409
1.6993957
1.4100036
8.54891
2.9697093
2.8427567
7.776986
4.274036
1.4348122
2.2082548
2.2538608
5.3341651
5.0481084
5.0046013
8.9225467
2.6476483
3.0907325
6.3426439
5.4706186
3.9263295
4.0507957
5.8109155
6.2576252
3.6617674
2.9370704
6.7334256
6.0724944
4.5319462
3.4477913
5.7722885
5.2752788
6.8119917
5.2339097
2.8278564
5.1165106
4.7926772
2.1801319
1.835975
1.980697
2.0784094
2.5544249
2.3613827
2.3104681
0.00071215821
0.096095147
0.6236649
2.3039611
6.2992791
14.423776
30.462806
58.534362
113.73873
207.64735
354.32606
698.22142
1106.1802
1651.6533
1921.9129
1900.9203
1491.6671
976.09624
638.84891
368.74723
165.7007
92.459552
31.047187
25.946379
15.747273
22.144174
16.253938
19.237851
4.1192265
2.3672913
5.2992424
2.4105415
1.337215
0.80891507
0.77408016
4.1208898
1.5626209
1.4451096
10.767754
2.9217499
1.288861
3.3066022
2.4399589
4.6006693
4.5612495
3.2485877
6.8625936
2.6484439
3.0822272
6.6659915
6.5573599
5.8489838
4.5752938
4.7626966
4.1970484
3.7613422
3.3370583
6.3413957
3.759151
8.545351
4.493503
4.6981595
4.2840766
3.286884
3.8391021
2.7423594
3.9649715
3.1739987
2.2015617
2.2767391
2.0834756
2.3046284
2.7286947
2.5813997
2.7426745
0.0082077411
0.45547508
2.5030975
8.1166685
20.248657
44.120819
91.259466
185.92432
379.42922
738.62969
1384.8029
1821.9687
1964.9732
1765.3566
1143.262
458.01873
255.01276
144.95315
100.72562
53.934092
16.723848
7.2041395
2.6504982
3.2171106
5.5452248
8.7875525
7.5417974
12.59018
4.8713079
1.9282843
3.0882903
3.1665626
1.1452698
0.78590296
0.718479
2.7256895
1.7695843
1.0846374
2.5775596
2.4199096
1.2286567
3.922389
3.061671
3.4775283
7.6190098
4.1981115
4.571625
2.547781
3.8602382
6.50845
7.8036136
7.0848869
4.6880999
4.9620987
3.4881404
5.4274603
3.945952
5.4837808
3.328278
14.621161
5.7353692
4.8087123
4.3747991
3.207919
3.0225672
2.9415097
2.9062024
2.5089724
2.5165412
2.7850607
2.5464993
2.4894348
2.4434873
2.597316
3.1216597
0.063215467
1.9304018
8.8984804
25.491646
59.692463
129.63514
284.41601
640.31499
1475.8429
1810.1785
2064.409
1535.3861
708.46946
376.39004
148.84092
44.058055
31.432993
24.612771
11.936306
4.9372376
4.9344301
1.9378764
1.2935373
2.0127454
3.9084992
5.2121728
7.3158954
4.9441291
3.2105135
1.7243117
2.0319734
1.5037751
1.0541437
1.0289668
0.87569289
2.4105048
1.3787283
1.0010227
1.8550492
1.537825
1.1899148
3.9863128
10.531234
5.4568919
6.3685663
4.4700955
3.7928887
2.2556624
2.8461798
9.728536
7.0347477
7.0244214
3.9514692
4.7952959
3.4989844
8.7474691
4.7192767
3.9903969
3.7839427
12.425864
4.8962627
5.0327872
6.5194322
3.0000063
3.5474455
2.7053978
3.0170784
2.1983786
2.8404651
3.3756982
2.6178367
2.6732217
2.5158393
2.6303818
2.9742944
0.39079862
7.3210561
28.269721
73.158715
169.16982
390.76024
1006.1715
1787.6911
2444.2184
1543.6398
683.3724
286.5153
110.21906
54.243675
12.107459
3.1426062
4.1765711
5.5118098
2.2635275
1.6571698
2.5763043
1.2979742
1.1721954
1.7231506
2.8383414
5.2246259
10.51466
4.3455021
3.1551068
1.8487781
1.3684345
1.2490827
1.0775863
1.3258639
0.97436003
2.7294557
1.3441781
1.1854345
2.8545828
1.8622583
1.3750756
7.7750178
16.097305
12.896018
7.0644788
4.0438616
3.5066322
2.2755817
2.3353488
11.844904
4.5933644
4.4777571
3.4373819
3.8423268
6.1029456
15.525072
6.6998753
4.3903754
4.9026649
13.897366
6.8263644
7.280727
6.1914323
3.1788378
5.3055986
2.791266
2.405607
1.8375614
2.808022
3.5093926
2.5483624
2.4638793
2.9779113
3.0712541
2.7156181
2.0663228
24.926097
81.829658
199.00264
493.34781
1339.1745
1947.7772
1887.5182
1041.9227
280.80457
125.99126
36.424438
13.764384
5.8907302
1.1222816
0.48071814
1.2227268
2.6842873
1.4787284
1.2876995
2.7732455
1.1368123
1.7939003
1.5995882
3.3824621
4.389241
4.1993534
3.3520804
3.4212298
1.8406667
1.1962178
1.3779733
1.2944554
1.2616794
0.96866009
2.9987665
1.5266577
1.3208904
3.4582448
2.9680685
1.5668604
9.3352337
24.308978
15.71816
6.6695701
4.6683137
3.3730539
2.3525863
2.6680412
4.1115547
3.2336499
5.9593547
3.4421919
4.7858787
12.965964
20.283674
11.909395
4.3863064
3.7529731
10.752977
6.5359306
6.7930336
6.3722551
3.1838005
2.8776937
2.3908473
2.0270236
1.6135892
3.2618994
3.0617907
2.5435935
2.3365155
3.6203464
3.4186865
2.6833471
9.6090604
77.105506
221.18473
544.83607
1606.4509
2163.8701
1421.9183
565.17535
189.71408
30.446386
16.426556
3.2876848
2.3129011
1.4598883
0.5760666
0.34827859
0.74475493
1.9437536
1.3963046
1.1204462
2.6625062
1.0053714
2.3327533
1.5580056
4.7938224
7.5853472
3.5361449
1.7081294
1.9700484
1.6891752
1.2891782
1.5635882
1.4230704
1.0105969
1.050002
2.8587178
1.4906332
1.419397
1.3997189
1.4031733
1.5427186
4.9950099
9.1565683
7.9458246
3.6695354
4.1830014
3.3587051
2.3054622
2.7519581
2.3432612
2.1909158
4.1645963
2.4143728
3.9874984
4.171023
6.0434868
9.9528236
4.8810067
3.6615737
2.9606033
2.5843548
4.5188067
5.4120736
2.4203216
2.3196233
1.7086835
2.5606382
1.8289602
3.3739543
2.8907123
2.5330662
2.3793721
3.6401551
3.4092356
2.642534
40.192132
218.94741
583.67426
1618.7494
2194.1281
1202.0124
502.59309
158.29647
17.222664
2.7939445
2.8573881
0.64234399
0.71817179
0.90774948
0.51114859
0.33063773
0.57934127
1.6071527
1.226739
0.92383882
1.1894691
0.82025773
1.621577
1.3923351
2.5567926
14.878639
4.4255397
1.2904793
1.8465646
1.6908716
1.3821286
1.6454178
1.4215276
0.97190285
1.298046
2.4133677
1.627733
1.3770715
1.066889
0.80737399
1.3167277
2.7581638
2.4267706
3.0472605
2.8575444
2.4382022
3.2456047
2.4162713
2.1490399
1.9521929
2.1030191
2.3387789
1.8204496
2.512198
9.3362159
5.6133123
8.5252795
4.8048907
3.1839929
2.6813353
2.6875873
3.1177966
4.5075706
2.5419604
2.9643952
2.0578673
2.6680689
1.7830556
2.9452358
3.0255606
2.6520375
2.617193
2.8838746
2.9346163
2.5741167
154.75349
578.84039
1617.9778
2121.5361
1049.3312
397.21016
127.17446
23.380484
1.5589584
0.7692955
0.93221113
0.50429661
0.49276361
0.8586384
0.47244248
0.31913795
0.49244889
1.3753899
1.0743067
0.91228374
0.97176006
0.69382445
1.0425819
1.1849371
1.6840528
10.54737
3.5954094
1.1449086
2.1011195
1.5815526
1.4925069
1.6702349
1.2838156
1.3205455
2.3667564
1.8465153
2.1079063
1.3580564
0.92880708
0.8216203
1.0938533
2.1011996
1.1454568
2.3456042
2.0105011
1.9355652
2.8461104
2.1479638
2.0967165
1.9394412
2.165253
2.1007712
1.6663514
2.0753391
5.2504554
4.6884271
8.915942
5.7153409
3.7324221
3.1291297
3.7220515
3.2156071
4.2430946
3.0046386
2.0731009
1.3545682
1.564273
1.8627177
3.0126946
2.9972085
2.9054271
3.0430871
3.2296409
2.9339473
2.6509245
491.81374
1534.7614
2565.7393
1308.3915
379.73071
94.063741
19.099389
2.8042398
0.75711626
0.62847359
0.59299482
0.55050319
0.44815299
0.79073891
0.43090554
0.31722694
0.440924
1.1733637
0.99679377
1.0433655
0.96011067
0.64691402
0.87403302
1.0228855
1.559073
4.2370865
1.8473441
1.0657916
2.7200026
2.1377051
1.5077144
1.6667623
1.2281009
1.6762631
4.5896819
1.9083255
1.4768922
1.619224
1.0017745
0.97502316
1.0406092
1.6241569
1.0667654
1.9809116
1.5929181
1.5543755
2.6331747
2.0194307
1.7659477
2.0406174
2.3055742
2.035251
1.6020466
2.2382904
2.4862369
4.5032984
11.022379
7.4766715
3.8747702
3.0937667
3.1150316
3.2927901
3.9092356
3.7659806
2.1240931
0.97234483
1.064748
2.398206
2.9206749
3.3915987
3.0377659
3.5967861
4.2682567
3.5104876
2.7822345
1463.4731
3039.7449
2050.456
541.11714
87.1906
14.378439
2.3995302
0.70588528
0.72794681
0.64291949
0.51896542
0.57828882
0.41942481
0.72446223
0.41406702
0.32127823
0.41159424
1.0322947
0.9751179
1.3770716
0.9761697
0.59186349
0.6814705
0.89425917
1.530502
1.4558414
1.3675417
1.058921
3.7188213
7.7333724
1.7583529
1.8252639
1.1966483
1.7343501
5.3394392
2.0683138
1.3592296
1.8491054
1.575972
1.020371
1.0178731
1.0494146
1.1786135
1.3569391
1.3800427
1.4999628
2.2364385
1.9107394
1.7316349
2.1887093
2.8265585
2.2324807
1.5562876
2.0735628
3.8399566
3.3005952
9.4130226
7.2986691
3.8772319
4.0230191
4.5539776
3.5346896
3.6825557
3.9968804
2.1685067
0.76499755
1.1891102
3.2815831
2.1590046
3.5342875
3.1168022
4.3494588
4.8321912
4.5148426
2.9983865
4180.5819
3236.3763
760.91112
107.74152
11.412632
2.1205009
0.57008258
0.52227291
0.77998043
0.75162879
0.49124388
0.61638348
0.48710498
0.64490901
0.40993704
0.33036482
0.39160919
0.90900318
0.9752848
1.9723869
1.0953216
0.59153164
0.68732062
0.86846687
1.6276015
1.1202912
1.2826083
1.0705978
4.9860811
19.837018
2.498973
2.1070688
1.190485
1.3834395
4.5063685
2.1191313
1.9562324
2.3020786
1.9721423
1.0939722
0.98781349
1.7953026
1.3400155
1.3764285
1.3768207
1.8967147
1.9951144
1.9062525
1.766137
2.222425
2.8019357
2.3569608
1.5555897
2.2356586
3.0956239
2.8712727
6.2856582
6.7921679
5.2437938
4.939252
5.1752742
3.606425
3.7539534
3.235873
2.3687512
0.73481285
1.6441801
3.4286552
1.9453644
2.3989803
3.7772937
4.55948
5.0405883
4.8846434
3.5172486
7825.4827
1580.8531
148.28524
12.578203
1.3893611
0.5206748
0.36201346
0.54454902
0.80538745
0.81969294
0.49090619
0.64942902
0.98021396
0.64806403
0.41655997
0.36352053
0.38287221
0.79515928
1.0142252
2.8758673
1.2166053
0.59928589
0.90428781
0.98968253
1.8506862
0.94943563
0.99952018
0.94484567
5.2977223
12.279934
2.8780888
2.4701935
1.2887838
1.2236048
2.6634489
2.0135428
2.4205854
1.8606656
1.9539553
2.0752669
1.2582017
2.073478
1.5183462
1.6260687
1.5333687
3.2592611
2.2321075
1.9027278
1.7924418
1.9297478
1.9145366
2.1458119
1.5874806
2.6419751
1.9690681
2.0146564
6.5899351
6.7868733
6.991133
5.5008859
3.148036
3.5522094
4.026849
3.5438121
2.3237246
0.87420646
1.8144582
3.1836188
1.8817666
2.2355352
4.0287195
3.9860261
5.2298339
4.8484863
3.7049343
1511.3592
254.04877
15.105606
1.197536
0.30284344
0.30147373
0.3463473
0.57616073
0.82422137
0.79461532
0.48994499
0.71086121
2.3793037
0.70182083
0.44786032
0.45008394
0.382862
0.67982057
1.0478819
3.6533593
1.3395215
0.57337437
1.177951
2.4233022
1.9036461
0.8742591
0.85705827
0.80521401
4.3001447
6.1690953
3.3655423
2.9662894
1.2609867
1.4275618
2.2071741
1.8860001
2.3453978
1.669324
1.5065374
2.6007676
1.6682129
1.7797613
1.5941146
1.7887633
1.5826017
4.2695164
3.0210551
1.9780536
1.8977763
1.8645919
1.7359656
1.9530122
1.5574483
2.253784
1.5353266
1.8054122
6.3354396
5.6646711
4.9137577
3.7465976
2.9254753
3.44514
4.1006178
2.6352464
1.8667618
1.3585901
1.9519402
2.4973059
1.9509829
2.203803
3.1793539
3.8447768
4.956547
4.6793711
3.7046352
103.13901
21.814317
1.1602424
0.24116231
0.19722332
0.26973456
0.35503205
0.60068991
0.88087019
0.68891202
0.47843871
0.78595957
4.3546156
0.85607717
0.50095933
0.54523869
0.39275694
0.60579499
1.0392863
3.8096525
1.5771199
0.52798785
0.78002578
7.2791946
1.8020679
0.95299443
0.80684057
0.7546375
3.3613814
7.6590894
4.6299742
3.6185248
1.0376437
1.4215957
2.275273
1.8043215
2.4531696
1.5286111
1.3475881
2.3188421
1.9169848
2.2343144
1.6079316
1.9052622
1.7141201
3.2205291
2.960097
2.024471
1.9752994
1.9909314
1.6992287
1.7017253
1.4332402
1.5041781
1.3767355
2.0248203
5.2193769
4.4813283
2.7908684
2.7740021
2.7244933
3.4413043
3.5949372
1.9817978
1.8368799
1.3158223
2.0179145
2.2990127
2.1012834
1.9410522
2.3953857
3.9320017
4.0433483
4.2208549
3.6363249
3.6063667
1.288102
0.2466775
0.18259103
0.19032568
0.26610905
0.36636814
0.63419
0.96191742
0.67280045
0.46847373
0.82219149
5.0254109
0.84631373
0.55489421
0.56773644
0.4133997
0.55740087
0.98437551
3.2326149
1.7005591
0.52368484
0.6712031
5.1644625
1.6163039
1.1712142
0.78868213
0.91284729
1.1785632
3.2521953
15.680004
4.1041921
0.83117687
1.2615135
2.7293199
1.7972016
2.6504058
1.3728993
1.3249381
1.9189525
1.9187849
2.260624
1.5545743
1.9216723
1.7982054
1.6071962
2.5358456
1.9677656
2.1314828
1.970067
1.6345317
1.6073905
1.4785993
1.4693635
1.4601563
2.0189104
4.4850319
3.8475429
2.5861073
3.0767383
2.7480727
3.796828
4.7290753
2.0950401
1.8664125
1.1232338
2.2806291
2.3663412
2.1547964
1.8462695
2.5946638
3.9904581
4.2876217
3.8689937
3.270077
0.64482249
0.31817254
0.20975764
0.18699231
0.19706085
0.26742279
0.38137507
0.67608115
1.0319511
0.72923508
0.46392009
0.81782024
3.1691891
0.80777922
0.59047936
0.55144655
0.44302411
0.55062778
0.93974467
2.0539679
1.6996646
0.53991441
0.66103562
2.2619944
1.5079647
1.5656804
0.83710263
1.0385133
1.2978182
4.3471484
9.0683487
1.3635866
0.7258699
1.1001205
2.8755579
1.8276676
2.4823621
1.401881
1.1854725
1.1804435
1.2734276
1.2503935
1.30836
1.8026869
1.761015
1.5776137
2.3552322
1.7985528
2.2303634
1.9493499
1.688715
1.8047814
1.9447686
1.4484113
1.6579163
2.0464023
3.4879446
3.4957887
2.5544225
3.9125004
3.8085449
6.2842091
14.5803
2.3845532
1.754059
1.0217213
2.0258395
2.4247096
2.3985733
1.8782507
2.4848756
3.9256465
4.7530801
3.603739
2.8971667
0.58819532
0.28792454
0.22424988
0.19878396
0.2029804
0.27099463
0.401914
0.72748293
1.0797566
0.86784265
0.46500779
0.70179069
1.4193814
0.76544422
0.61232538
0.49717095
0.4542351
0.54991234
0.89982237
1.676196
1.5367748
0.55503385
0.62118587
1.8986487
1.681039
2.2102637
0.89129325
0.99144021
1.5274061
4.9680222
1.6238851
0.66987539
0.68851456
1.0600905
3.0079039
1.7960486
1.9226404
1.1947637
1.2497401