/*--------------------------------*- C++ -*----------------------------------*\
| =========                 |                                                 |
| \\      /  F ield         | OpenFOAM: The Open Source CFD Toolbox           |
|  \\    /   O peration     | Version:  2.3.0                                 |
|   \\  /    A nd           | Web:      www.OpenFOAM.org                      |
|    \\/     M anipulation  |                                                 |
\*---------------------------------------------------------------------------*/
FoamFile
{
    version     2.0;
    format      ascii;
    class       volScalarField;
    location    "3.1e-05";
    object      p;
}
// * * * * * * * * * * * * * * * * * * * * * * * * * * * * * * * * * * * * * //

dimensions      [1 -1 -2 0 0 0 0];

internalField   nonuniform List<scalar> 
7500
(
-10628.733
-12887.16
-7470.9423
-2759.4464
-941.01629
3025.795
3453.8387
5307.9213
815.36136
2929.6778
462.50732
3878.7163
-150.8144
2928.3769
-1751.1716
3923.6873
-144.1713
3124.8058
952.0239
282.13721
1974.3155
-1083.7569
4060.8761
-2668.4992
5676.5372
-2535.6933
4930.7899
-2081.2106
2458.2986
565.2212
1130.5326
3475.9767
1016.2859
5579.2472
560.69282
4331.9398
-452.81199
4974.5254
1773.177
1130.2648
2901.4914
1426.4636
3799.639
1774.8176
3573.6424
1138.379
3234.2711
1150.4981
1951.7208
2738.7594
1269.8746
3903.7315
-1904.5681
2136.9917
-661.68506
-6814.7117
-1184.3455
1331.3952
7384.119
7996.0788
1238.9994
2518.8703
10562.016
9801.9249
3454.9865
5191.4201
6365.9659
5766.7483
7183.2352
4767.8697
5978.743
9865.23
10200.007
6399.6365
-281.34589
-10602.179
-13057.714
-7447.6992
-2482.1727
-786.24893
3056.2401
2888.4614
5334.2291
736.75418
3169.3386
712.88027
3663.0508
-97.186146
2797.7703
-1570.9755
3652.2653
226.18279
2663.4717
1375.1377
-5.5849994
2157.1923
-1097.788
3882.9746
-2319.3438
5226.4081
-2024.455
4298.4888
-1501.3728
1913.0141
940.48104
1111.8561
3442.3067
1116.8596
5197.1021
992.25252
3938.6417
1.2443471
4540.1175
2101.8894
911.18183
2868.0312
1606.0036
3748.4792
1935.4312
3145.4604
1589.2894
2810.349
1584.2565
1820.5703
2295.5211
1871.2481
3692.3574
-1450.9345
1221.5756
-723.26143
-5945.7425
-1401.5446
1724.8323
6491.3918
7464.8866
2632.2847
3050.7984
9082.5152
9244.734
4894.0521
5465.7212
5486.852
5365.4305
7308.6818
5444.3497
6265.6886
9620.642
9762.1173
6137.2688
-106.41329
-10843.482
-12917.065
-7467.1289
-2035.2018
-784.48008
3110.3688
2573.1203
4908.2711
974.39317
3215.0182
981.71283
3508.8662
108.9083
2174.1826
-752.44051
2868.8477
820.53701
2326.7746
1356.2121
177.71516
1945.6723
-706.41467
3218.5989
-1388.9533
4207.6
-1058.5946
3424.0216
-1025.4601
1683.3363
895.64604
1545.5913
2991.9114
1661.6713
4382.1811
1738.2406
3389.9555
554.75049
4068.3497
2098.1567
1243.7848
2514.8328
1943.5265
3467.6625
2312.9087
2655.9769
1966.8742
2509.9627
1738.9664
2138.2062
1594.4494
2462.3365
3442.7792
-866.7944
529.98286
-1300.8496
-4861.3436
-1484.9876
2055.184
5582.4745
6605.2026
3951.4406
3837.4508
7956.817
8352.8922
5969.3685
6183.0226
5042.2753
4945.3584
6887.4603
5914.7648
6869.7693
9570.82
9423.7634
5662.6498
-79.348898
-11417.541
-12511.3
-7410.8153
-1562.012
-722.47752
3025.6464
2366.5403
4514.6731
1077.0452
3218.7938
1467.7711
2967.151
783.1069
1213.4608
179.19294
2135.3459
1357.2138
2020.4448
1333.6563
350.22544
1613.7215
9.7393098
2175.282
-137.37253
2946.0239
82.947285
2453.6029
-551.11689
1518.9065
714.76654
2106.7594
2464.4345
2322.3076
3434.9245
2653.1272
2629.2312
1325.1366
3536.858
1893.3719
1782.4653
2019.653
2565.3165
2989.323
2731.5562
2235.85
2146.7238
2331.5415
1826.2833
2526.843
1016.2959
2872.7789
2988.9795
-100.41713
-53.861267
-1916.3893
-3875.4577
-1434.8802
2642.409
4529.345
5426.6656
5361.5718
4728.2882
6882.8908
7517.2551
6712.7686
6938.6359
5033.5239
4517.3821
6236.4026
6464.8784
7614.2526
9436.8221
8976.2986
5080.4732
-54.685365
-12238.219
-12025.206
-7113.3141
-1134.6908
-642.41927
2922.3264
2052.7643
4310.9575
1109.9473
3063.9369
2201.2414
2230.5463
1513.7755
393.23958
917.83009
1512.2826
1903.4509
1638.89
1415.3552
446.3677
1311.7832
683.99423
1284.89
915.94914
1831.7652
1106.2787
1461.9021
160.10353
1083.3699
754.04274
2505.8018
2006.7765
3022.4629
2508.7393
3567.0549
1900.9777
2025.7732
2961.0688
1725.2423
2183.0813
1636.3001
3289.3451
2566.9263
3020.1236
1965.5036
2161.5361
2101.0145
2032.6587
2652.5381
1003.0038
3029.2794
2191.2997
776.4945
-745.94303
-2229.6887
-3022.6392
-1228.8063
3270.4951
3246.3439
4232.6139
6743.8005
5784.553
5871.6299
6687.8445
7247.4563
7412.1343
5329.7442
4227.5267
5514.7597
7225.5396
8352.0933
9057.5698
8375.4012
4530.711
14.34187
-13269.079
-11563.938
-6548.7494
-760.83562
-634.82856
2847.9839
1754.7099
4053.2724
1339.6677
2782.9567
2848.1458
1746.3855
1905.4324
-77.112142
1446.7341
973.47175
2374.8716
1314.0655
1476.8641
500.27717
1210.3754
1024.6069
787.67491
1685.2094
887.61363
1888.3406
623.44405
855.14122
716.42892
838.03789
2673.329
1695.4487
3540.9397
1922.7342
4215.7579
1469.3823
2503.1419
2264.6186
1731.5375
2359.0797
1477.837
3871.2652
2368.5948
3118.2317
1844.4574
2171.8901
1756.0974
2357.9542
2297.0177
1612.6994
3139.204
1306.8866
1398.2237
-1601.0282
-2149.7258
-2340.5265
-635.58756
3446.1448
1855.8132
3476.1006
7627.488
6761.9014
5476.2614
6036.1521
7453.7816
7470.4042
5697.5766
4125.2836
5101.1687
8135.546
8940.4949
8568.4555
7565.1151
3983.8201
149.08835
-14453.309
-11137.287
-5842.1916
-392.16513
-667.54283
2673.3929
1673.0661
3620.9115
1700.5658
2604.7253
3181.4025
1572.8116
2010.3934
-288.75168
1790.4187
622.64025
2642.8523
1099.7418
1491.9595
533.5451
1220.9403
1187.4491
635.39901
2067.6932
338.03823
2085.2994
280.29979
1237.0804
679.79993
886.42405
2566.0727
1523.9419
3752.8325
1847.8861
4543.033
1406.8871
2681.9625
1596.6362
1756.6529
2411.0376
1547.7827
4241.8859
2285.1023
3188.7882
1797.8233
2103.7876
1505.455
2719.5036
1673.3333
2361.3056
3243.0255
885.23374
1453.8128
-2499.5594
-1854.0198
-1699.6307
495.78648
2706.2103
687.11916
3409.9272
7578.2351
7299.8126
5892.1292
5934.5666
7391.6592
7201.109
5861.2229
3991.8932
5466.816
9218.3059
9207.7335
8113.0145
6581.8416
3373.0009
306.67406
-15624.839
-10728.578
-5071.5392
-37.509643
-661.21808
2343.5716
1727.1826
3189.9404
1990.9542
2586.4347
3322.0118
1489.5393
2020.8799
-345.66615
1939.4986
529.73022
2681.155
995.84032
1421.2021
614.73646
1225.7354
1233.0784
909.41864
1961.3652
244.93877
1718.9259
260.34163
1514.5096
844.57613
936.02888
2333.174
1306.7677
3755.7505
2233.5938
4577.2495
1790.8681
2372.6903
1128.8581
1715.4645
2310.1461
1898.0117
4485.5809
2153.1475
3404.0935
1812.4986
1772.7847
1599.1662
2753.2292
1369.5659
2922.5493
3025.7237
1129.8412
947.76946
-3140.7313
-1704.0219
-654.4134
1965.5982
713.75293
193.19586
3858.9801
6473.1006
7339.2949
6916.2724
6302.947
7114.18
6868.8226
5658.2074
3744.3154
6859.419
10330.087
9087.7856
7722.5481
5589.6418
2873.4564
498.5534
-16637.971
-10310.445
-4262.1916
233.46414
-615.2787
1954.9263
1738.9297
2912.6028
2181.7741
2660.6123
3387.7078
1400.2981
2005.2059
-293.50228
1911.6073
669.01655
2529.547
984.37345
1304.2314
672.40668
1289.5168
1150.1704
1444.3281
1766.1211
193.6305
1145.527
240.7747
1777.3204
1342.7719
855.70034
2048.2539
1026.575
3569.3587
2901.0483
4546.2189
2409.0125
1832.2539
625.78221
1782.9689
1994.6347
2491.7814
4492.4182
2133.1815
3732.6497
1825.1373
1431.4895
1969.4231
2222.3165
1547.0395
3524.4248
2353.1105
1724.7549
48.966071
-3367.2463
-1955.9038
1309.3123
3325.5165
-2050.9556
938.86691
4087.3992
4358.1504
7165.2968
8323.0593
6736.2842
6434.8461
6683.3448
4801.7027
3541.6773
9364.9483
10989.295
8794.2582
7474.0879
4608.3564
2553.7962
916.64479
-17517.367
-9899.9402
-3438.2577
386.55191
-588.59531
1625.1875
1664.7695
2751.7337
2363.8696
2763.9115
3369.7459
1360.297
1909.3686
-102.34044
1742.1561
924.0324
2341.3319
918.3365
1274.9796
662.02116
1297.6901
1171.3944
1904.0158
1810.0685
61.526806
385.79539
211.59633
1924.4938
2246.7848
708.73329
1573.2617
747.16983
3358.2466
3362.4275
4927.9336
2850.8828
1424.8935
108.71055
1823.8026
1596.5974
3406.6527
3689.8218
2511.6455
4312.7853
1329.0155
1850.2211
2223.2489
1500.8814
1754.4072
4192.4942
1361.5667
2363.5809
-998.49643
-3505.1958
-2427.7454
4114.9354
3974.4661
-4275.0807
3344.2482
3328.8063
1796.2958
7097.2889
9798.1225
6993.3523
5397.8101
6763.5446
2797.4338
3566.5686
12696.283
10751.774
8679.6968
7318.2519
3841.8434
2427.6955
1307.1961
-18377.633
-9526.5377
-2617.1699
425.75258
-595.61375
1360.4552
1562.7674
2630.3857
2587.2804
2867.5344
3265.2855
1412.4649
1705.1848
205.11282
1512.6713
1188.6412
2184.266
777.28321
1269.7203
740.5416
1084.9131
1348.4217
2316.1477
1972.3416
25.338015
-540.52603
50.676051
2093.4283
3392.5913
644.97736
921.40188
393.95291
3313.3685
3365.9728
5646.6704
3255.3034
924.0546
-7.6878475
1583.7689
1165.9178
4735.1649
1869.5223
3083.3544
5181.7837
137.23669
3267.6914
2196.7285
928.26987
1513.6219
4691.5986
52.825887
2656.7509
-1652.3953
-4309.8475
-2417.0483
5795.1782
3518.2427
-4713.5195
6390.7443
1340.363
-133.2124
6720.6242
10466.936
6688.3679
4243.0993
6709.9959
-412.35482
4118.0916
14031.845
9337.9474
8789.6336
6591.5433
3364.4414
2429.9685
1838.0222
-19282.898
-9158.7863
-1841.0984
379.98014
-598.97157
1106.3029
1501.868
2514.8136
2849.5306
2976.7935
3079.01
1524.2656
1497.286
489.05787
1309.7214
1505.3973
1898.6533
765.76103
1119.9106
937.51894
840.41256
1385.9858
2826.4639
2217.3938
4.6433932
-1372.8293
-443.99087
2351.7605
4682.3908
623.95624
254.62952
25.65179
3276.0267
3136.2038
5983.632
3866.3896
356.54198
330.96051
1051.7675
750.01643
6024.6573
-775.67843
3718.6641
5340.4674
-938.18013
5146.2916
1898.859
766.26692
607.1477
4790.3155
-1574.8172
2157.4757
-2370.2405
-5878.4606
-1360.3342
4258.8844
2131.0442
-1670.6965
7495.766
1797.8181
-95.436405
6325.3696
10333.088
6302.0127
4237.4804
5911.9784
-1615.6232
5160.0489
13312.107
8736.0927
9172.5118
5869.3931
3175.0731
2169.8718
1703.9795
-20213.57
-8737.0986
-1164.7218
285.74303
-573.08213
852.84805
1484.4156
2428.9599
3097.3951
3088.4629
2862.6891
1580.4515
1416.6449
702.23372
1092.9972
1990.5329
1407.3601
869.2763
947.60109
1030.2579
797.55565
1227.6082
3198.1545
2705.9895
-70.820691
-2038.1116
-1271.7489
2517.7794
5958.02
615.03517
-326.32966
-212.98452
2995.6624
2784.911
5553.4925
3952.6629
378.17618
829.83285
158.28789
543.96023
6392.4281
-3544.685
4133.5431
3400.0707
-998.74688
6653.2866
2708.7912
929.99506
518.59779
4863.398
-1996.2545
2123.1601
-3479.6013
-6165.4712
-685.71099
2540.7164
-451.10071
-735.93703
8293.2699
2774.9132
890.36148
6621.1638
10660.848
6846.197
5399.3062
6077.5185
-2015.2521
6239.5825
13145.655
8467.3036
9816.9304
5736.5588
3341.3936
2129.3922
1751.875
-21098.418
-8233.5995
-616.76467
162.13683
-516.48192
613.72339
1451.1765
2469.1603
3246.2565
3176.8332
2701.7718
1513.5111
1420.714
966.24877
781.7192
2604.9885
921.06177
845.05969
871.32523
986.61346
843.40648
1105.2824
3046.8697
3310.2143
-44.4247
-2518.2218
-2446.9119
2451.6963
6384.1399
728.16869
-656.35627
-375.39237
2353.5858
2234.5827
4322.3447
2722.3759
1674.7515
1638.0783
29.437764
914.33194
6134.5355
-3866.4348
4353.7657
1531.6101
-2223.0424
7412.3006
3840.8447
1325.112
1324.6358
5354.8635
-1036.8719
3062.5273
-3581.7687
-6088.0338
103.80322
3375.9012
-2122.3801
-503.1664
10202.01
420.80553
1619.3837
7119.9396
8919.3057
5439.236
5948.7347
5536.6907
-2508.0335
7073.9684
12757.065
8432.1403
9766.3468
5487.1366
3445.1599
2116.0994
1766.4373
-21910.394
-7649.6674
-199.15756
25.452638
-416.27925
378.15732
1351.1341
2705.4685
3306.9882
3185.7539
2625.1312
1396.863
1332.4921
1356.9162
451.11742
3104.6079
650.25959
703.72595
574.47861
955.82866
878.03407
988.8101
2240.8651
3410.8668
189.2174
-2708.5806
-3738.0141
1937.1227
5196.985
1125.1641
187.91185
42.334236
2384.1911
2200.8266
3722.5522
1011.6369
2287.2089
2754.2743
448.79032
1667.7316
6627.753
-3279.0737
5319.7894
1182.1637
-2294.5328
7826.2582
3333.9831
531.66971
856.27875
4467.369
-2484.955
3041.2706
-3635.8159
-6366.689
-503.87994
2514.3192
-1900.4504
-643.12659
8883.3719
724.43794
1554.3864
6477.3146
9499.5708
5852.3955
5353.4435
5680.7307
-2668.7281
5960.8907
13129.426
8618.2458
9472.7771
5340.1338
3501.2158
2060.2119
1600.2417
-22647.785
-6995.6121
92.101982
-101.59311
-254.90958
142.32371
1148.6769
3112.7578
3380.1772
3056.5814
2617.4079
1294.4895
1093.7791
1703.6837
294.64335
3188.8729
499.76752
720.24488
-400.93893
787.15174
1103.8779
767.95408
708.34948
2679.6208
1035.1297
-2225.1306
-3546.4816
2033.6628
4053.3307
893.70817
1079.8593
834.96004
3035.0782
2726.093
4192.4234
772.29913
2397.2849
2540.5471
-398.90093
1243.697
5516.3767
-4089.9942
4814.9336
715.12937
-2539.8142
8009.8766
3699.7852
1442.8105
1250.1293
4638.0636
-2202.5974
2641.0168
-3886.1893
-6870.2757
251.81649
2325.4792
-2646.5173
-692.08372
8246.0221
-2456.4732
1596.3698
6768.5279
8784.6421
5077.4413
5822.202
5495.4368
-3035.5062
5218.856
12695.587
8489.1224
8997.5789
5085.5103
3520.9089
1887.0015
1372.6867
-23270.563
-6317.5503
281.28134
-239.76373
-4.3494175
-101.26635
850.79608
3607.6129
3539.9614
2793.7399
2636.4976
1166.061
722.44481
1709.7725
404.36288
2489.5185
361.43774
922.24256
-1944.9558
189.19884
2120.8174
1338.9607
429.20391
1807.558
1711.8303
-1582.6448
-2651.0188
2932.2703
4075.9722
734.90432
1172.5993
59.463854
2349.4951
1981.7286
3783.1602
740.67192
2646.5998
2868.0547
120.2221
1576.4318
5499.429
-3658.303
4765.23
1163.4588
-2470.4115
7886.1156
3131.1775
399.83736
1204.7694
4403.9492
-2570.4175
2338.4781
-5658.8831
-8900.0876
75.441369
1889.5605
-3490.1086
-1214.2499
8506.7682
-1288.8703
1834.9242
5933.8721
8608.8756
4064.1649
4852.422
5105.5277
-2598.6692
4349.3767
12323.017
8102.2668
8394.308
4853.571
3650.9912
1745.8725
1188.2591
-23811.282
-5670.1847
403.08839
-449.664
388.20583
-432.44889
566.34584
4014.8649
3896.781
2347.5125
2607.3373
1000.6734
-69.690822
1390.6098
590.81332
993.11095
664.04184
1675.1227
-1996.0514
-382.48212
2994.4105
2241.0689
1068.9369
1739.6255
1684.9267
-2320.6417
-4127.0592
2302.9882
4170.4979
665.35702
1327.4118
607.7979
2781.5743
2150.0293
3645.1305
837.44161
2182.4771
2255.7148
-107.42255
1060.7451
5199.9622
-3677.3588
3984.1514
1694.1069
-2047.6731
7673.1437
2492.9274
-628.25492
1346.1216
3807.8098
-2806.5766
1974.9251
-6623.408
-9831.6764
952.8467
538.94326
-4461.6567
-2167.6702
8879.4703
118.62083
1391.608
5878.6859
9302.4716
4804.8668
3459.0464
4647.7804
-1388.4951
3551.2549
10525.526
7439.2632
7701.3043
4424.9606
3639.8536
1586.1794
1083.9484
-24344.523
-5056.8587
443.37477
-722.38382
901.45093
-888.11688
380.19708
4036.8679
4656.116
1449.5616
2509.1641
831.12688
-1389.4119
1165.8504
1489.8589
673.91595
806.1717
2405.0981
-1295.1482
-433.98836
2658.9768
1482.2121
547.46176
1505.5325
1733.6486
-1871.2213
-3059.1109
2489.6933
3778.1534
632.81352
1305.0228
157.81868
2559.9733
2103.6307
3546.1912
645.86776
2228.4822
2223.0669
54.785426
1277.5807
5024.8412
-3562.1109
3750.7251
1913.2397
-1875.3252
7518.3879
1798.0741
-1800.5953
661.58745
3185.4418
-3133.5619
1629.5386
-7311.0311
-11660.153
-179.16571
-1314.7468
-4937.885
-2964.2973
8688.5448
1561.9651
1312.6609
5424.0199
8569.768
4194.0445
3943.9242
4763.2427
861.39465
4221.5329
9485.2226
7081.7402
7309.518
4537.964
3516.2991
1587.2769
1279.286
-24877.687
-4432.2525
343.94675
-942.47461
1343.7472
-1217.745
97.889402
3519.7625
5646.6283
221.85525
2120.9704
1541.4206
-1381.1892
1026.8545
2430.7555
1028.0142
705.99895
2030.0343
-2203.7224
-808.54989
2946.0789
1769.4815
749.97003
1503.1868
1633.309
-2238.1243
-3954.9968
2268.6247
3301.1807
556.20032
1304.6571
501.82379
2445.2355
2071.5914
3591.6608
501.22658
1723.816
2060.1738
221.58115
1080.2658
4578.6528
-3590.4581
3347.0301
1820.5884
-1612.3695
6826.0801
-68.540036
-2549.5605
265.31207
2390.9187
-2902.2173
1212.8393
-8009.93
-12679.382
-372.65394
-1641.7446
-5633.4231
-347.62861
8518.6434
791.09607
1365.2926
4563.7182
6190.9495
4132.1967
4707.0726
4955.4776
1226.6707
4840.7823
8447.4942
6708.2248
6891.6198
4579.1536
3060.9629
1519.9876
1639.9458
-25348.304
-3739.6237
72.647555
-995.17888
1437.4873
-976.12587
-655.8796
2675.044
5940.0714
900.09587
1786.6632
2462.4904
-826.34979
908.0569
1904.0435
558.07131
581.79674
2300.509
-1734.5239
-728.28429
2841.3534
1588.7273
621.11077
1436.9052
1677.4542
-2121.0518
-3147.0507
2067.4688
2883.8071
513.64414
1019.9597
295.00582
2240.0164
1970.6448
3649.4498
-26.535728
1758.4984
1962.4996
225.30604
1141.9149
4380.2537
-3395.0955
3440.4874
1899.6326
-1402.7987
5588.5218
-2060.39
-2691.9117
15.0747
1614.0926
-3116.0829
448.78406
-7905.8419
-11591.702
166.28314
-1663.8112
-5749.0949
-330.75621
8469.338
65.727026
1003.3441
4193.6989
5719.0533
3526.9505
4930.0845
5227.4716
2374.8149
5399.9596
7762.0711
6426.1855
6505.2315
4393.2285
2598.8015
1346.7289
1793.0641
-25685.624
-2955.4551
-279.41403
-878.87822
1047.3822
-103.68701
-1711.6523
2288.4656
5975.8762
2018.9554
1796.1863
2079.2653
-1233.1704
821.94017
2093.8955
666.52957
600.68637
2067.8706
-2129.0504
-804.8509
2808.7674
1558.1141
627.69807
1376.5917
1710.1134
-2368.9037
-3156.5645
1807.0345
2468.9214
245.20607
959.25466
353.15051
2165.7691
1906.0971
3789.2128
-134.10122
1339.8927
1866.2942
291.82715
927.11638
4218.5838
-3088.1206
3562.8852
2205.3368
-947.76355
4627.2427
-3359.6039
-2176.6833
-173.90564
1417.5615
-3102.0928
-335.58411
-7222.7144
-9989.062
-910.59384
-1350.883
-3598.348
71.155912
5239.9644
-138.24456
1772.9893
2646.6379
4879.9582
2742.8701
4354.9553
5124.8514
2599.5654
6032.6264
7391.5509
6174.9276
6198.5602
4167.0901
2236.4636
1133.3098
1874.1273
-25947.947
-2099.2174
-438.89861
-689.24048
374.09936
571.80357
-1173.3083
2402.905
6061.9556
1736.4778
1559.035
2118.1209
-1050.2874
789.52344
1933.7373
593.5626
622.01005
2053.2749
-2104.7963
-997.56747
2734.7363
1456.4081
603.20518
1194.5048
1779.3099
-2461.0159
-3023.9716
1562.2697
1902.2328
162.84255
842.29092
212.56516
2087.1418
1773.9338
3891.6399
-645.91957
989.19834
1723.112
341.66256
768.85931
4060.4564
-2598.6864
3703.0141
2445.2969
-370.41427
3657.5023
-4944.0846
-1939.1065
-323.75637
1209.6989
-2675.4463
-816.57819
-6110.3713
-8379.6619
-2248.8695
-1255.4103
-3821.4183
1180.2959
3135.3056
46.855417
2895.0109
2935.824
5305.7409
3778.5319
4251.1497
5180.4046
3054.9992
5979.1563
6643.058
5882.1795
5893.4346
3784.9284
1918.0638
823.6548
1833.6143
-26522.173
-1228.3539
-39.452469
-548.73387
15.833246
716.68671
-165.90637
2213.6912
5630.5739
1766.4702
1575.1979
2045.1255
-1114.576
764.73533
1811.6717
566.78611
629.5056
1839.0763
-2500.0349
-1329.0997
2607.4059
1350.1851
637.70875
1012.2327
1796.5224
-2464.4455
-3105.8921
1561.7378
1392.852
-136.05139
691.65983
-26.378064
2021.1936
1723.6795
3943.9515
-1283.7042
816.61879
1617.2831
503.72096
754.34206
3873.3454
-2874.6025
3499.4915
1972.9036
-208.201
2683.1955
-6938.884
-2019.67
-610.03093
1041.1356
-2224.6138
-1407.1434
-5087.4049
-6844.0217
-3575.4915
-1793.0113
-2226.2171
1359.2159
2149.5636
-101.93044
2581.0391
2940.5032
6414.4961
4972.1239
4237.9173
4950.011
3286.6975
5693.5871
5898.3395
5633.4547
5594.7856
3318.8563
1664.0702
595.92681
1771.3272
-28110.108
-410.03764
943.46454
-494.80082
228.16603
723.97973
-333.83286
2269.4702
5675.0649
1728.3019
1551.9161
1988.2439
-1069.39
738.26855
1662.8823
505.48649
593.55778
1692.4826
-2773.5024
-1671.5035
2444.4804
1210.4121
603.41872
836.42275
1815.9616
-2382.6342
-3207.106
1654.3086
1166.3708
-1.8017161
508.7023
-310.36744
1923.5157
1703.9873
3763.5638
-1885.5478
886.92098
1654.9987
692.45583
764.90463
3663.9186
-2677.1138
3161.4923
1693.6323
-74.828105
2002.9888
-7734.9206
-1541.8005
-989.05921
1051.267
-2302.8443
-2103.4233
-4848.1471
-6578.1897
-3871.1675
-3552.8037
-3775.632
1694.8467
3159.4343
-210.439
1086.0562
2868.5031
6394.8081
5749.4363
4881.5868
4865.3702
3518.5434
5617.152
5344.7301
5383.1956
5195.2772
3085.1452
1574.3249
526.3408
1649.8238
-30524.368
120.85349
1501.7991
-280.07086
289.1018
549.48206
-343.86066
2220.9552
5618.9883
1657.8094
1547.5329
1926.8713
-1081.6746
688.73997
1526.8466
441.66584
514.50076
1490.8055
-3060.4963
-1969.6151
2287.0861
1172.7013
639.98004
781.83791
1803.1692
-2308.2005
-3181.5095
1822.5611
960.90503
-4.2350834
315.84253
-524.22959
1734.4156
1714.1494
3355.3587
-2574.2056
749.75608
1653.3286
865.50463
695.72091
3416.1331
-2205.781
2952.3353
1443.8772
229.0506
1460.2197
-7330.8024
-1205.3735
-1216.0795
1258.9331
-2493.2167
-2131.7921
-4704.88
-7977.2998
-3329.7297
-4573.8038
-5983.3073
2220.908
2778.9054
-188.32276
722.98838
2679.1377
6205.557
6104.6398
4945.4002
4799.3823
3679.3886
5131.012
5201.0188
5101.2601
4709.9811
2982.8622
1711.1594
535.83069
1476.9161
-30335.622
-625.35149
908.515
61.477806
271.88062
486.85832
-361.10409
2180.7707
5509.074
1587.9484
1497.4444
1851.2912
-1071.2877
616.46484
1396.6304
360.52259
404.8216
1283.1892
-3322.5933
-2234.0384
2140.9688
1148.2302
673.03465
841.70245
1795.5632
-2063.1676
-2848.3677
1978.2167
691.99588
-51.354422
79.553737
-665.46282
1524.0614
1754.9705
2702.1928
-3316.5424
874.6573
1660.5135
1014.7828
666.58856
3113.731
-2268.2566
2466.9861
954.0309
411.09444
593.15292
-6626.6473
-623.61906
-1453.5173
1336.4716
-2784.9814
-2481.6866
-4280.2243
-7504.6717
-4143.7503
-1922.2321
-6058.7067
2444.097
2703.6305
-10.04043
-600.02267
2351.7823
6150.4146
6066.2161
5355.1309
4914.2672
3421.9848
4948.7206
5691.7715
4839.3806
4338.6716
2863.9053
1788.8249
407.3918
1301.5776
-21240.577
-3018.1256
388.29562
209.10205
285.98958
473.11054
-352.41337
2149.1593
5348.4541
1512.053
1467.2544
1761.6194
-1088.7999
520.46095
1281.7885
272.04668
267.33753
1081.7926
-3550.033
-2445.93
2016.8435
1142.6059
677.2431
857.99956
1669.1178
-1817.1009
-2466.6475
2122.0514
388.19352
-146.57559
-208.45564
-731.52019
1394.956
1838.6258
1923.3053
-4000.4114
890.28582
1588.3938
1240.1465
689.81997
2920.0854
-2200.4308
1996.671
711.99813
608.11448
-283.94565
-5811.1773
407.31761
-1659.8177
1316.8664
-3236.1761
-3386.7807
-4148.0416
-6145.346
-3816.9254
-4565.5306
-6393.5547
3010.9793
3302.5392
-32.712881
-1148.6018
1746.9426
6325.369
5865.1505
5236.6005
4920.323
3339.2826
4803.4788
5784.3815
4394.0425
4129.395
2732.3912
1834.235
217.16832
1148.7517
-3483.5041
-3993.1827
305.29285
112.08818
280.29772
466.39553
-343.68194
2100.1027
5180.3506
1427.7863
1368.3428
1659.3252
-1106.7389
394.54911
1176.081
174.57663
106.65437
903.89326
-3753.4596
-2615.9748
1914.4383
1164.4903
708.83857
843.87891
1476.974
-1623.3862
-2108.5509
2198.0277
202.87852
-332.48657
-478.85987
-682.55139
1302.3175
1905.6571
1119.3076
-4481.9003
1021.9515
1587.4591
1382.2019
697.79459
2730.2393
-2074.4012
1784.461
488.11321
681.91361
-732.61306
-4830.0035
864.96054
-1821.1274
1280.3944
-3611.2359
-4075.882
-4296.0533
-5299.3861
-2766.0389
-6773.9403
-6412.6741
4119.9513
4256.7354
-457.41418
-2297.4826
843.33094
6660.777
5548.4043
5215.8394
4901.771
3209.8902
4151.412
5584.6632
3811.8647
3897.1713
2602.8067
1816.4956
-22.9423
1030.9427
773.20996
-2445.0772
245.71584
91.616747
292.09323
472.70013
-336.64091
2046.2003
5002.0591
1336.7937
1259.6153
1547.3795
-1136.8901
246.09099
1084.5119
70.318892
-73.279397
710.31389
-3890.3724
-2738.3194
1806.4564
1187.8136
729.46847
807.52911
1222.1503
-1512.619
-1879.7297
2239.2683
177.11227
-321.20473
-494.19307
-591.17898
1268.6645
1926.1731
544.6027
-4369.4264
1203.5415
1669.7101
1459.0237
650.01379
2578.7407
-2121.037
1472.1847
295.42078
817.71365
-1125.956
-3800.8105
1332.4928
-1661.2787
1295.481
-3771.1039
-4005.1305
-4160.347
-5240.5469
-3493.1747
-5402.0571
-5178.5869
4818.9113
4751.5383
-831.2879
-3112.21
229.25107
7491.052
5204.5193
4867.9487
4581.1347
3145.3134
3392.632
4556.5827
3196.1003
3624.5095
2258.9509
1487.0251
-497.56107
917.31994
-8406.3797
-1501.8351
293.54612
93.58821
304.57457
478.25078
-332.49632
1985.7162
4818.2567
1242.1154
1136.4998
1429.5032
-1182.5327
88.897966
1003.8246
-38.969527
-267.69949
539.53788
-3964.8151
-2794.9921
1690.4891
1197.128
752.17468
761.19703
876.97763
-1465.2385
-1768.8835
2241.2007
290.55824
-268.17132
-192.02267
-375.34092
1255.5595
1807.5795
93.95317
-3841.5319
1319.5633
1665.8348
1527.4635
618.16644
2349.0392
-1874.5229
1244.6375
231.70291
960.29414
-1635.3465
-2561.1894
2374.2824
-1289.8493
1250.8279
-3829.6759
-2929.0366
-3902.867
-5765.6709
-2998.7618
-6751.973
-5322.4718
4959.882
4580.414
-1167.1203
-3869.3784
231.44253
8746.6102
4759.5914
4268.4623
4592.678
3206.3976
2720.1528
3584.6927
2639.3405
3359.4386
1806.4532
785.77948
-1139.172
818.48908
-8424.0165
-1728.3603
310.3082
99.988744
316.8983
479.64913
-331.29287
1921.9638
4629.5323
1146.5254
1016.4738
1316.5521
-1228.369
-101.74759
932.56515
-152.19857
-468.9858
386.75825
-3942.04
-2816.1409
1566.0908
1178.9571
801.20387
643.03898
427.67784
-1433.3528
-1733.2481
2201.0399
384.72199
-178.764
447.69129
30.91754
1200.3612
1577.0651
-380.50205
-3133.1009
1397.9385
1656.163
1580.4239
555.76857
2069.5128
-1790.4131
1001.2023
259.98813
998.3014
-1810.803
-1319.3227
2922.0238
-1214.3065
1151.397
-3719.5702
-2223.9885
-3578.0575
-5856.6401
-3487.9461
-6502.6456
-5426.0572
4852.7809
4573.3067
-1702.5048
-4515.3406
-31.344535
9025.2873
4233.1889
3949.3766
4198.9967
3432.0707
2066.9495
2480.855
2025.3833
3070.3464
1523.566
8.9654806
-1499.7537
681.17
-8156.032
-1580.4586
321.61719
107.23432
327.27884
475.36381
-332.42851
1856.3457
4442.885
1053.1943
902.87562
1229.9005
-1273.2468
-267.70556
870.88293
-257.66752
-662.0721
254.61676
-3801.5234
-2761.6277
1499.1295
1172.1414
808.56528
458.12156
123.24237
-1420.1607
-1791.3136
2077.2152
293.18898
-372.62327
961.92425
536.43867
1103.0321
1253.6098
-843.49227
-2460.0553
1349.0179
1533.7707
1618.4172
498.24829
1790.803
-1426.9715
949.35421
325.37518
1166.1164
-2056.8197
-857.61172
3164.9828
-1090.765
985.33802
-3637.4798
-2013.3817
-3288.2198
-5552.9191
-3740.5413
-6282.1327
-5433.3031
4176.3193
3907.3967
-2160.9287
-4693.2485
-602.55223
9083.2421
3532.983
3483.948
3953.8453
3614.4646
1569.2982
1988.3804
1646.2036
2716.5868
1158.9901
-713.69111
-1357.1524
503.06991
-7712.5123
-1505.7892
334.28348
115.58427
335.25545
465.20845
-335.99745
1788.7994
4257.3909
957.48116
782.60465
1177.4305
-1288.1312
-382.81358
819.72137
-349.83946
-818.65109
132.90254
-3512.2633
-2657.8682
1433.0975
1161.2465
740.76954
285.36831
84.407896
-1417.5969
-1891.3218
1953.4832
192.4774
-524.67524
1102.1402
770.6433
959.55146
912.35789
-1351.5103
-1869.2558
1159.3191
1258.3664
1622.6109
356.75188
1692.0701
-1208.9792
1098.2925
513.40289
1305.9629
-2390.9899
-1177.3549
3216.1317
-950.29499
691.50925
-3622.3056
-1714.3907
-3099.1418
-5440.7882
-3978.4983
-6160.5235
-5222.1782
4006.2783
3250.8191
-2585.0325
-5286.0818
-1190.4074
9162.2268
3113.6614
2776.9328
3450.2545
3541.1759
1734.1044
2214.0431
1565.6774
2383.1397
725.66163
-1128.2034
-1166.1673
306.59982
-7254.9039
-1371.7726
346.25821
125.11975
340.11509
448.66641
-341.9955
1722.0286
4073.5143
849.42857
640.20429
1155.9457
-1272.5825
-434.13911
777.02952
-401.055
-932.09889
20.949104
-3059.5008
-2491.6983
1335.5485
1106.9179
573.88063
96.570837
162.06492
-1384.8181
-2006.8266
1881.9593
124.42056
-508.60374
1129.0723
801.79522
856.52553
626.91817
-1802.7328
-1534.5235
839.39564
779.27562
1572.3884
332.15824
1679.7238
-955.82784
1307.7026
616.70801
1346.1165
-2518.0995
-1419.604
3233.1731
-988.74587
361.67759
-3472.7667
-1515.737
-3066.8462
-5384.1666
-4079.0058
-6476.258
-4758.9539
4040.0116
2422.5306
-2926.5149
-5326.5762
-1431.4574
9275.3966
2274.2419
1922.0965
3221.2495
3574.8651
1936.7375
2301.096
1796.3987
2120.719
482.09162
-1345.079
-1179.238
229.00039
-6743.1862
-1301.8969
359.51579
135.83603
341.9008
425.32628
-350.58964
1656.2547
3889.1175
731.00912
476.40784
1146.2522
-1238.0015
-414.50919
742.98206
-405.54419
-987.11921
-74.224183
-2637.8614
-2269.5222
1174.5752
1018.0836
393.74444
-129.9348
228.5609
-1291.5886
-2105.3569
1743.5388
-27.690273
-414.73113
1284.2139
752.90196
725.74365
425.27928
-1923.469
-1250.0227
392.4635
-76.00692
1487.9727
266.81623
1671.6831
-747.822
1527.3803
711.91885
1423.9493
-2629.3386
-1556.5241
3123.8131
-1086.3243
1.047
-3309.7442
-1390.3509
-2934.0116
-5358.3764
-4314.4117
-6893.6386
-3774.1213
4182.1104
1572.6707
-3308.3808
-4792.0671
-3236.6965
7330.8546
-331.46938
874.31129
3265.9576
3574.8498
1993.0748
2238.3067
2147.0304
1927.8221
361.25588
-1558.9973
-1425.7725
214.13387
-6254.0102
-1149.3373
374.46616
147.96169
339.44315
394.83772
-362.33593
1588.4815
3708.1025
612.49367
306.91745
1127.8816
-1191.3371
-365.26448
701.98896
-356.21113
-959.86414
-165.38905
-2250.729
-2098.0699
948.07876
888.55084
233.3695
-325.8112
282.8085
-1200.1261
-2101.4167
1580.4205
-9.0663823
-300.59791
1107.1809
716.26476
612.08982
348.96584
-1916.4258
-998.18808
-86.784732
-826.23587
1367.3896
211.85761
1659.7443
-597.60829
1744.8738
790.86827
1522.7081
-2664.7572
-1913.239
2994.8651
-1048.6215
5.6166907
-3402.719
-1168.9258
-2806.7662
-5293.755
-4453.6778
-7355.2509
-3516.8
4537.5286
762.25939
-3725.662
-4444.275
-6988.3849
4809.6703
-2154.3378
648.01751
3187.113
3611.4063
1940.7658
1979.4507
2145.6068
1759.9828
129.0395
-2017.8275
-1688.9544
292.32826
-5731.569
-1108.2881
391.6352
161.65586
335.54504
356.77277
-377.93743
1515.2254
3527.0977
509.72406
150.74526
1104.4658
-1132.5867
-312.31823
659.42462
-273.44063
-890.31318
-231.02778
-1967.0583
-1949.3872
729.6652
772.3691
115.54893
-420.84715
345.99264
-1049.5078
-1896.2565
1363.5319
-56.559959
-174.03562
1149.7674
691.97572
501.01017
418.38248
-2073.4124
-1106.4105
-313.07033
-1363.312
1253.9467
185.70693
1608.136
-429.66049
1950.2116
817.81438
1535.011
-2641.9259
-1781.4791
2942.4466
-1023.7624
385.34626
-2990.7457
-1145.2065
-2734.1445
-5051.0615
-4459.09
-7454.5218
-3597.1391
4984.1451
-185.62265
-4168.5915
-4085.0797
-9548.5108
2789.28
-1844.0729
1470.483
2829.2305
3618.8278
1653.4391
1590.028
2026.1234
1597.6406
-242.37393
-2680.145
-2317.8865
337.92157
-5258.2179
-930.82727
407.28625
177.05937
329.87154
310.7376
-398.44397
1429.8574
3345.9435
421.45524
12.58541
1075.4026
-1091.584
-250.62304
669.88558
-177.91709
-811.84115