/*--------------------------------*- C++ -*----------------------------------*\
| =========                 |                                                 |
| \\      /  F ield         | OpenFOAM: The Open Source CFD Toolbox           |
|  \\    /   O peration     | Version:  2.3.0                                 |
|   \\  /    A nd           | Web:      www.OpenFOAM.org                      |
|    \\/     M anipulation  |                                                 |
\*---------------------------------------------------------------------------*/
FoamFile
{
    version     2.0;
    format      ascii;
    class       surfaceScalarField;
    location    "3.1e-05";
    object      phi;
}
// * * * * * * * * * * * * * * * * * * * * * * * * * * * * * * * * * * * * * //

dimensions      [0 3 -1 0 0 0 0];

internalField   nonuniform List<scalar> 
14825
(
1.0343683e-09
-2.0606939e-11
1.0546688e-09
-2.0300504e-11
1.075129e-09
-2.04602e-11
1.095365e-09
-2.0236017e-11
1.1159065e-09
-2.054151e-11
1.1360697e-09
-2.0163132e-11
1.156359e-09
-2.0289305e-11
1.1762064e-09
-1.9847395e-11
1.1961672e-09
-1.9960839e-11
1.2159269e-09
-1.9759718e-11
1.2355908e-09
-1.9663916e-11
1.2553453e-09
-1.9754431e-11
1.2744977e-09
-1.9152416e-11
1.2942033e-09
-1.9705644e-11
1.3127441e-09
-1.8540792e-11
1.3325104e-09
-1.9766273e-11
1.3504105e-09
-1.7900092e-11
1.3701284e-09
-1.9717884e-11
1.3875268e-09
-1.7398453e-11
1.4069357e-09
-1.940888e-11
1.4240357e-09
-1.7099948e-11
1.442909e-09
-1.8873369e-11
1.4599398e-09
-1.7030738e-11
1.4779423e-09
-1.8002544e-11
1.4952035e-09
-1.726116e-11
1.512093e-09
-1.688954e-11
1.5296189e-09
-1.7525925e-11
1.545434e-09
-1.5815102e-11
1.5629801e-09
-1.754602e-11
1.5780776e-09
-1.5097551e-11
1.5952116e-09
-1.7133947e-11
1.6100544e-09
-1.4842816e-11
1.6264269e-09
-1.637255e-11
1.641119e-09
-1.469209e-11
1.6564225e-09
-1.5303471e-11
1.6711425e-09
-1.4719971e-11
1.6854677e-09
-1.4325243e-11
1.7001328e-09
-1.4665054e-11
1.7135905e-09
-1.3457772e-11
1.7277572e-09
-1.4166633e-11
1.7407372e-09
-1.2980088e-11
1.7541346e-09
-1.3397366e-11
1.7667824e-09
-1.264774e-11
1.7794646e-09
-1.2682202e-11
1.7917332e-09
-1.2268638e-11
1.8035352e-09
-1.1801989e-11
1.8155141e-09
-1.1978965e-11
1.8264124e-09
-1.0898262e-11
1.8379917e-09
-1.1579323e-11
1.8483056e-09
-1.0313855e-11
1.8589358e-09
-1.0630232e-11
1.8690737e-09
-1.0137905e-11
1.8786781e-09
-9.604418e-12
1.8886052e-09
-9.9270511e-12
1.897042e-09
-8.4367703e-12
1.9061545e-09
-9.1125271e-12
1.9145284e-09
-8.3738896e-12
1.9226634e-09
-8.135013e-12
1.9308552e-09
-8.1917757e-12
1.9377693e-09
-6.9141685e-12
1.9447435e-09
-6.9741794e-12
1.9519156e-09
-7.1720894e-12
1.9585736e-09
-6.6579469e-12
1.9641873e-09
-5.6137454e-12
1.9698902e-09
-5.7029328e-12
1.9756788e-09
-5.7885682e-12
1.9806537e-09
-4.9748933e-12
1.9853282e-09
-4.6745192e-12
1.9896133e-09
-4.2850538e-12
1.9934352e-09
-3.8218851e-12
1.9973066e-09
-3.8714216e-12
2.0006653e-09
-3.358735e-12
2.0037698e-09
-3.1044344e-12
2.0062245e-09
-2.4547173e-12
-2.1451836e-12
2.8624224e-09
-8.1063446e-11
2.9220084e-09
-7.9886428e-11
2.9824052e-09
-8.0857034e-11
3.0420624e-09
-7.9893176e-11
3.1027809e-09
-8.1260097e-11
3.1623179e-09
-7.9700044e-11
3.2225159e-09
-8.0487392e-11
3.2815413e-09
-7.887277e-11
3.3409587e-09
-7.9378255e-11
3.3999843e-09
-7.8785298e-11
3.4586677e-09
-7.834733e-11
3.5178917e-09
-7.8978425e-11
3.5753247e-09
-7.6585354e-11
3.634618e-09
-7.8999022e-11
3.6905682e-09
-7.4490945e-11
3.750127e-09
-7.9325067e-11
3.804594e-09
-7.2367112e-11
3.8640365e-09
-7.9160394e-11
3.9174621e-09
-7.082405e-11
3.9760732e-09
-7.8020015e-11
4.0289751e-09
-7.0001839e-11
4.0861879e-09
-7.6086158e-11
4.139085e-09
-6.9927829e-11
4.1941126e-09
-7.3030121e-11
4.2476855e-09
-7.0834109e-11
4.3000113e-09
-6.9215284e-11
4.3541847e-09
-7.1699378e-11
4.40395e-09
-6.5580352e-11
4.4580705e-09
-7.1666559e-11
4.5062431e-09
-6.3270116e-11
4.5592796e-09
-7.017044e-11
4.6069129e-09
-6.2476165e-11
4.6579872e-09
-6.7446769e-11
4.7052727e-09
-6.1977622e-11
4.7537249e-09
-6.375565e-11
4.801009e-09
-6.2004092e-11
4.8471517e-09
-6.0467928e-11
4.8941773e-09
-6.1690701e-11
4.9382437e-09
-5.7524182e-11
4.9838539e-09
-5.9776798e-11
5.026825e-09
-5.5951164e-11
5.0704404e-09
-5.7012785e-11
5.112643e-09
-5.485032e-11
5.1543476e-09
-5.4386782e-11
5.1954841e-09
-5.340518e-11
5.235177e-09
-5.1494916e-11
5.2752632e-09
-5.2065185e-11
5.3129475e-09
-4.8582543e-11
5.3517543e-09
-5.038605e-11
5.3878809e-09
-4.6440479e-11
5.4246089e-09
-4.7358243e-11
5.4599622e-09
-4.5491244e-11
5.4940888e-09
-4.3731021e-11
5.5286471e-09
-4.448535e-11
5.5600687e-09
-3.9858353e-11
5.5924292e-09
-4.1473003e-11
5.6233701e-09
-3.9314837e-11
5.6536374e-09
-3.840224e-11
5.6835725e-09
-3.8126933e-11
5.7107556e-09
-3.4097241e-11
5.7379501e-09
-3.4168701e-11
5.7651369e-09
-3.4358844e-11
5.7911611e-09
-3.2682196e-11
5.8151101e-09
-2.9562708e-11
5.8387739e-09
-2.9366738e-11
5.8622574e-09
-2.9272103e-11
5.8842173e-09
-2.6934819e-11
5.9051519e-09
-2.5609117e-11
5.9249466e-09
-2.4079658e-11
5.9434772e-09
-2.2352534e-11
5.9622145e-09
-2.2608726e-11
5.9796197e-09
-2.0763944e-11
5.9960946e-09
-1.9579314e-11
6.0109869e-09
-1.7346983e-11
-1.6161853e-11
4.3663012e-09
-1.7925515e-10
4.463274e-09
-1.7685924e-10
4.5619459e-09
-1.7952892e-10
4.6595346e-09
-1.7748184e-10
4.758785e-09
-1.8051051e-10
4.8564257e-09
-1.7734074e-10
4.9551942e-09
-1.7925589e-10
5.052592e-09
-1.7627057e-10
5.1505543e-09
-1.7734055e-10
5.2482811e-09
-1.7651215e-10
5.3454378e-09
-1.75504e-10
5.4437127e-09
-1.7725337e-10
5.5394329e-09
-1.7230557e-10
5.6379637e-09
-1.7752975e-10
5.7321096e-09
-1.6863691e-10
5.830948e-09
-1.7816345e-10
5.9235444e-09
-1.6496355e-10
6.0222134e-09
-1.7782934e-10
6.1136959e-09
-1.6230652e-10
6.2114167e-09
-1.7574089e-10
6.3023319e-09
-1.6091698e-10
6.3984772e-09
-1.7223151e-10
6.489294e-09
-1.607446e-10
6.5829822e-09
-1.6671832e-10
6.6744825e-09
-1.6233442e-10
6.7651072e-09
-1.5983998e-10
6.8570802e-09
-1.6367238e-10
6.9445525e-09
-1.5305262e-10
7.036389e-09
-1.635031e-10
7.1218918e-09
-1.487729e-10
7.2125748e-09
-1.6085348e-10
7.2971817e-09
-1.4708303e-10
7.3855191e-09
-1.5578413e-10
7.469415e-09
-1.4587357e-10
7.5546936e-09
-1.4903424e-10
7.6382779e-09
-1.4558843e-10
7.7209095e-09
-1.4309949e-10
7.8038704e-09
-1.4465159e-10
7.8838069e-09
-1.3746064e-10
7.9648088e-09
-1.4077879e-10
8.0431798e-09
-1.3432208e-10
8.1216881e-09
-1.3552115e-10
8.1988226e-09
-1.3198476e-10
8.2748244e-09
-1.3038863e-10
8.3503204e-09
-1.2890115e-10
8.4240213e-09
-1.2519586e-10
8.4976114e-09
-1.2565525e-10
8.5687882e-09
-1.197593e-10
8.640483e-09
-1.2208086e-10
8.7092077e-09
-1.1516522e-10
8.7788615e-09
-1.1701198e-10
8.8458774e-09
-1.1250718e-10
8.9120472e-09
-1.0990085e-10
8.9776255e-09
-1.1006369e-10
9.0403129e-09
-1.0254572e-10
9.1029648e-09
-1.0412491e-10
9.1643242e-09
-1.0067425e-10
9.2248921e-09
-9.8970124e-11
9.2838635e-09
-9.7098343e-11
9.3402486e-09
-9.0482358e-11
9.3963843e-09
-9.0304318e-11
9.4516125e-09
-8.9587036e-11
9.505474e-09
-8.6543753e-11
9.5573944e-09
-8.1483071e-11
9.6082826e-09
-8.0254991e-11
9.6582576e-09
-7.9247079e-11
9.7065995e-09
-7.527669e-11
9.7534552e-09
-7.2464825e-11
9.798415e-09
-6.9039498e-11
9.8418379e-09
-6.5775408e-11
9.8853952e-09
-6.6166011e-11
9.9269897e-09
-6.2358462e-11
9.9669066e-09
-5.9496173e-11
1.0004683e-08
-5.5123262e-11
-5.2724471e-11
5.5902284e-09
-3.130128e-10
5.7228783e-09
-3.0950917e-10
5.8578959e-09
-3.1454652e-10
5.9919952e-09
-3.1158117e-10
6.1278919e-09
-3.1640715e-10
6.262437e-09
-3.1188587e-10
6.3981662e-09
-3.1498509e-10
6.5331095e-09
-3.1121388e-10
6.6683577e-09
-3.1258875e-10
6.8041568e-09
-3.123112e-10
6.9389737e-09
-3.1032094e-10
7.0756056e-09
-3.1388525e-10
7.2095509e-09
-3.0625087e-10
7.3464643e-09
-3.1444309e-10
7.479617e-09
-3.0178963e-10
7.6166468e-09
-3.1519332e-10
7.7488895e-09
-2.9720623e-10
7.8857131e-09
-3.1465291e-10
8.017113e-09
-2.9370646e-10
8.1532502e-09
-3.1187805e-10
8.2841159e-09
-2.9178267e-10
8.4192519e-09
-3.0736758e-10
8.5496279e-09
-2.9112052e-10
8.6831662e-09
-3.0025669e-10
8.8136965e-09
-2.9286467e-10
8.9450496e-09
-2.9119313e-10
9.0754427e-09
-2.9406546e-10
9.2039107e-09
-2.8152056e-10
9.3339988e-09
-2.9359125e-10
9.4605971e-09
-2.7537115e-10
9.5900238e-09
-2.9028024e-10
9.7152573e-09
-2.7231651e-10
9.8427664e-09
-2.8329325e-10
9.9667555e-09
-2.6986259e-10
1.0091924e-08
-2.7420254e-10
1.0214947e-08
-2.6861122e-10
1.0338124e-08
-2.6627697e-10
1.0459921e-08
-2.6644874e-10
1.0580327e-08
-2.5786635e-10
1.0700062e-08
-2.6051441e-10
1.0818432e-08
-2.5269206e-10
1.0936022e-08
-2.5311045e-10
1.1052591e-08
-2.4855364e-10
1.1167464e-08
-2.452619e-10
1.1281763e-08
-2.4320048e-10
1.1394583e-08
-2.3801528e-10
1.1506381e-08
-2.374531e-10
1.1616856e-08
-2.3023516e-10
1.1726591e-08
-2.3181576e-10
1.1833834e-08
-2.2240813e-10
1.1942172e-08
-2.2534994e-10
1.2046739e-08
-2.1707447e-10
1.2151619e-08
-2.1478084e-10
1.2253962e-08
-2.1240622e-10
1.2355098e-08
-2.0368212e-10
1.2454332e-08
-2.0335838e-10
1.2553282e-08
-1.9962398e-10
1.2651114e-08
-1.9680214e-10
1.2745672e-08
-1.9165698e-10
1.2839354e-08
-1.8416455e-10
1.2932165e-08
-1.8311492e-10
1.3022482e-08
-1.7990402e-10
1.3112033e-08
-1.7609453e-10
1.3200252e-08
-1.6970277e-10
1.3286634e-08
-1.6663611e-10
1.3371546e-08
-1.641596e-10
1.3454625e-08
-1.5835575e-10
1.3536145e-08
-1.5398444e-10
1.3614959e-08
-1.4785363e-10
1.3692726e-08
-1.43542e-10
1.3769914e-08
-1.4335418e-10
1.3844669e-08
-1.3711423e-10
1.3917446e-08
-1.3227248e-10
1.3987903e-08
-1.2558017e-10
-1.2161934e-10
6.5730527e-09
-4.8029417e-10
6.7396093e-09
-4.7606578e-10
6.9090668e-09
-4.8400409e-10
7.0780469e-09
-4.8056124e-10
7.2488446e-09
-4.8720487e-10
7.4189285e-09
-4.8196977e-10
7.5899935e-09
-4.8605002e-10
7.7614948e-09
-4.8271519e-10
7.932567e-09
-4.8366095e-10
8.105685e-09
-4.8542918e-10
8.2771523e-09
-4.8178824e-10
8.4512707e-09
-4.880037e-10
8.6231269e-09
-4.7810702e-10
8.7974829e-09
-4.8879916e-10
8.969953e-09
-4.7425966e-10
9.1442335e-09
-4.8947383e-10
9.3168988e-09
-4.6987155e-10
9.4910355e-09
-4.8878958e-10
9.6634411e-09
-4.6611213e-10
9.8373659e-09
-4.8580282e-10
1.0009536e-08
-4.6395235e-10
1.0183419e-08
-4.8125146e-10
1.0354742e-08
-4.6244352e-10
1.0528586e-08
-4.7410067e-10
1.0699449e-08
-4.6372675e-10
1.0872761e-08
-4.6450564e-10
1.1042704e-08
-4.6400877e-10
1.1214273e-08
-4.5308896e-10
1.1383555e-08
-4.6287303e-10
1.155404e-08
-4.4585695e-10
1.1723246e-08
-4.5948554e-10
1.1892086e-08
-4.4115723e-10
1.2060249e-08
-4.5145602e-10
1.2227412e-08
-4.3702538e-10
1.2394763e-08
-4.41554e-10
1.256012e-08
-4.3396787e-10
1.2726778e-08
-4.3293471e-10
1.2890208e-08
-4.2987868e-10
1.3054555e-08
-4.22214e-10
1.3216201e-08
-4.2216017e-10
1.3378113e-08
-4.1460378e-10
1.3538613e-08
-4.1361041e-10
1.3698093e-08
-4.0803389e-10
1.385608e-08
-4.0324841e-10
1.4013311e-08
-4.0043169e-10
1.4169622e-08
-3.9432623e-10
1.4324015e-08
-3.9184684e-10
1.4478061e-08
-3.8428109e-10
1.4630304e-08
-3.8405837e-10
1.4781579e-08
-3.736831e-10
1.4933421e-08
-3.7719237e-10
1.5081146e-08
-3.6479859e-10
1.5229949e-08
-3.6358387e-10
1.5374715e-08
-3.5717216e-10
1.5520416e-08
-3.4938361e-10
1.5661834e-08
-3.4477628e-10
1.5805244e-08
-3.4303369e-10
1.5945776e-08
-3.3733408e-10
1.6082243e-08
-3.2812457e-10
1.6220486e-08
-3.2240786e-10
1.6356471e-08
-3.1909994e-10
1.6488269e-08
-3.1170163e-10
1.6621101e-08
-3.0892651e-10
1.6752676e-08
-3.0127781e-10
1.688203e-08
-2.9599046e-10
1.7009106e-08
-2.912355e-10
1.7134486e-08
-2.8373537e-10
1.7258034e-08
-2.7753198e-10
1.7378821e-08
-2.6864091e-10
1.7500128e-08
-2.6484876e-10
1.7619082e-08
-2.6230853e-10
1.7735503e-08
-2.5353509e-10
1.784973e-08
-2.465002e-10
1.7961638e-08
-2.3748749e-10
-2.3190829e-10
7.3489782e-09
-6.7942578e-10
7.5472562e-09
-6.7434375e-10
7.7495668e-09
-6.8631472e-10
7.9512925e-09
-6.8228695e-10
8.1555755e-09
-6.9148785e-10
8.3594164e-09
-6.8581067e-10
8.5645044e-09
-6.9113804e-10
8.7710977e-09
-6.893085e-10
8.9768715e-09
-6.8943473e-10
9.1860512e-09
-6.9460886e-10
9.3933612e-09
-6.8909829e-10
9.6038038e-09
-6.9844626e-10
9.8130258e-09
-6.8732909e-10
1.002395e-08
-6.9972383e-10
1.0235356e-08
-6.8566487e-10
1.0446381e-08
-7.004991e-10
1.0659282e-08
-6.8277212e-10
1.0870597e-08
-7.0010518e-10
1.1084026e-08
-6.7954093e-10
1.1295839e-08
-6.9761563e-10
1.150968e-08
-6.777935e-10
1.1722483e-08
-6.9405498e-10
1.1935663e-08
-6.7562322e-10
1.2149982e-08
-6.8841969e-10
1.2362498e-08
-6.7624215e-10
1.2578161e-08
-6.8016932e-10
1.2789237e-08
-6.750847e-10
1.3004958e-08
-6.6880936e-10
1.321503e-08
-6.7294569e-10
1.3431012e-08
-6.6183869e-10
1.3641443e-08
-6.6991627e-10
1.3855808e-08
-6.5552231e-10
1.4066044e-08
-6.6169264e-10
1.4278723e-08
-6.4970361e-10
1.4489851e-08
-6.5268272e-10
1.4700144e-08
-6.4426038e-10
1.4912027e-08
-6.4481819e-10
1.511988e-08
-6.377313e-10
1.5330476e-08
-6.3280994e-10
1.5537095e-08
-6.2877969e-10
1.574505e-08
-6.2255871e-10
1.5952088e-08
-6.206477e-10
1.6157234e-08
-6.1318077e-10
1.6362235e-08
-6.0824917e-10
1.6565925e-08
-6.0412143e-10
1.6769239e-08
-5.9764013e-10
1.6970698e-08
-5.9330617e-10
1.717237e-08
-5.8595333e-10
1.7371613e-08
-5.8330094e-10
1.7571443e-08
-5.7351284e-10
1.7769887e-08
-5.7563668e-10
1.7966029e-08
-5.6094061e-10
1.8163013e-08
-5.6056822e-10
1.8355706e-08
-5.4986431e-10
1.8550721e-08
-5.4439929e-10
1.8739756e-08
-5.3381054e-10
1.8933851e-08
-5.371289e-10
1.9121157e-08
-5.2464033e-10
1.9306294e-08
-5.1326137e-10
1.9495165e-08
-5.1127878e-10
1.9679496e-08
-5.0343131e-10
1.9859278e-08
-4.9148345e-10
2.0041974e-08
-4.9162249e-10
2.0222761e-08
-4.8206506e-10
2.0402106e-08
-4.753352e-10
2.0577704e-08
-4.6683353e-10
2.0753292e-08
-4.5932362e-10
2.0925434e-08
-4.4967348e-10
2.1095604e-08
-4.3881154e-10
2.1267634e-08
-4.3687813e-10
2.1434712e-08
-4.2938717e-10
2.1600793e-08
-4.1961574e-10
2.1765336e-08
-4.1104301e-10
2.1927124e-08
-3.9927589e-10
-3.9198549e-10
7.9472638e-09
-9.0845303e-10
8.1750065e-09
-9.020865e-10
8.4085461e-09
-9.1985423e-10
8.6406734e-09
-9.1441432e-10
8.8771951e-09
-9.2800949e-10
9.1126849e-09
-9.2130054e-10
9.3510737e-09
-9.295268e-10
9.5906421e-09
-9.2887693e-10
9.830904e-09
-9.2969665e-10
1.0074097e-08
-9.3780225e-10
1.0317202e-08
-9.3220236e-10
1.0562225e-08
-9.4347022e-10
1.080865e-08
-9.3375379e-10
1.105489e-08
-9.4596334e-10
1.1304912e-08
-9.3568709e-10
1.1552037e-08
-9.4762396e-10
1.1804722e-08
-9.3545697e-10
1.205329e-08
-9.486732e-10
1.2307244e-08
-9.3349493e-10
1.2557539e-08
-9.4791065e-10
1.2812764e-08
-9.3301897e-10
1.3065035e-08
-9.4632548e-10
1.3320561e-08
-9.3115005e-10
1.3575464e-08
-9.4332234e-10
1.3830822e-08
-9.3159987e-10
1.4088469e-08
-9.3781612e-10
1.4342447e-08
-9.2906261e-10
1.4602199e-08
-9.2856209e-10
1.4855085e-08
-9.2583097e-10
1.5116712e-08
-9.2346637e-10
1.5370231e-08
-9.2343539e-10
1.5630618e-08
-9.1590862e-10
1.588473e-08
-9.1580504e-10
1.6144112e-08
-9.0908559e-10
1.6400524e-08
-9.0909472e-10
1.6657689e-08
-9.0142566e-10
1.6915904e-08
-9.0303291e-10
1.7170574e-08
-8.9240152e-10
1.7429026e-08
-8.9126193e-10
1.7683655e-08
-8.8340823e-10
1.7939634e-08
-8.7853838e-10
1.8196853e-08
-8.7786604e-10
1.8449515e-08
-8.6584328e-10
1.8705796e-08
-8.6452945e-10
1.8958324e-08
-8.5664952e-10
1.9211889e-08
-8.5120575e-10
1.9463935e-08
-8.4535156e-10
1.9716215e-08
-8.3823414e-10
1.9966521e-08
-8.3360635e-10
2.0218824e-08
-8.2581581e-10
2.0467733e-08
-8.2454594e-10
2.0716496e-08
-8.0970303e-10
2.0964659e-08
-8.087319e-10
2.1210084e-08
-7.9528859e-10
2.1457529e-08
-7.9184477e-10
2.1700153e-08
-7.764349e-10
2.1949431e-08
-7.8640623e-10
2.2186807e-08
-7.6201677e-10
2.2427967e-08
-7.544208e-10
2.2671323e-08
-7.5463511e-10
2.2908018e-08
-7.4012639e-10
2.3142958e-08
-7.2642317e-10
2.3380727e-08
-7.2939169e-10
2.3615295e-08
-7.1663282e-10
2.3850166e-08
-7.1020612e-10
2.4079009e-08
-6.9567685e-10
2.4311595e-08
-6.9191023e-10
2.4537523e-08
-6.7560135e-10
2.476557e-08
-6.6685864e-10
2.4995006e-08
-6.6631335e-10
2.5216537e-08
-6.5091823e-10
2.543849e-08
-6.4156901e-10
2.5658782e-08
-6.3133535e-10
2.5877873e-08
-6.1836669e-10
-6.0876474e-10
8.3916975e-09
-1.1634437e-09
8.6486652e-09
-1.1590541e-09
8.9102293e-09
-1.1814184e-09
9.1722741e-09
-1.1764591e-09
9.4386504e-09
-1.1943857e-09
9.7050258e-09
-1.187676e-09
9.9754808e-09
-1.1999817e-09
1.0246497e-08
-1.1998931e-09
1.052106e-08
-1.2042593e-09
1.0796254e-08
-1.2129966e-09
1.1075397e-08
-1.2113454e-09
1.1353034e-08
-1.2211073e-09
1.1636911e-08
-1.2176309e-09
1.1916773e-08
-1.2258254e-09
1.2205507e-08
-1.2244208e-09
1.2487502e-08
-1.2296194e-09
1.277987e-08
-1.2278248e-09
1.3065022e-08
-1.2338249e-09
1.3359276e-08
-1.2277486e-09
1.3647861e-08
-1.2364956e-09
1.3944298e-08
-1.229456e-09
1.4235719e-08
-1.237747e-09
1.4534267e-08
-1.229698e-09
1.4828862e-08
-1.2379168e-09
1.5128456e-08
-1.2311944e-09
1.5426486e-08
-1.2358458e-09
1.5725203e-08
-1.2277793e-09
1.6027595e-08
-1.2309548e-09
1.6325467e-08
-1.2237031e-09
1.6631678e-08
-1.2296773e-09
1.6930242e-08
-1.2219986e-09
1.7236209e-08
-1.2218759e-09
1.7536399e-08
-1.2159954e-09
1.7842896e-08
-1.215582e-09
1.8146535e-08
-1.2127339e-09
1.8452112e-08
-1.207003e-09
1.8757847e-08
-1.2087673e-09
1.9061416e-08
-1.1959711e-09
1.9369076e-08
-1.1989215e-09
1.9674234e-08
-1.1885663e-09
1.9979632e-08
-1.1839368e-09
2.028977e-08
-1.1880042e-09
2.0590803e-08
-1.1668759e-09
2.0902531e-08
-1.1762578e-09
2.1204673e-08
-1.1587915e-09
2.1512027e-08
-1.1585596e-09
2.1816319e-08
-1.1496431e-09
2.2122093e-08
-1.1440087e-09
2.2426311e-08
-1.1378238e-09
2.2732903e-08
-1.1324083e-09
2.3035236e-08
-1.126879e-09
2.3339368e-08
-1.1138346e-09
2.3642432e-08
-1.1117961e-09
2.3943831e-08
-1.0966877e-09
2.4245217e-08
-1.0932303e-09
2.4546958e-08
-1.0781761e-09
2.485141e-08
-1.0908582e-09
2.5142112e-08
-1.0527187e-09
2.5445818e-08
-1.0581269e-09
2.574314e-08
-1.0519568e-09
2.6035298e-08
-1.0322852e-09
2.6331475e-08
-1.0225999e-09
2.6626184e-08
-1.0241004e-09
2.6919004e-08
-1.0094531e-09
2.7212478e-08
-1.0036799e-09
2.7499067e-08
-9.8226608e-10
2.7791119e-08
-9.8396217e-10
2.8072357e-08
-9.5683971e-10
2.8365046e-08
-9.5954771e-10
2.8650871e-08
-9.521383e-10
2.8931553e-08
-9.3159968e-10
2.9214558e-08
-9.2457379e-10
2.9494901e-08
-9.1167901e-10
2.9774098e-08
-8.9756337e-10
-8.8586283e-10
8.7046579e-09
-1.4403935e-09
8.9924649e-09
-1.4468612e-09
9.2776083e-09
-1.4665618e-09
9.5716681e-09
-1.4705189e-09
9.8634184e-09
-1.486136e-09
1.0162611e-08
-1.4868683e-09
1.0461166e-08
-1.4985367e-09
1.0764772e-08
-1.5035e-09
1.1070425e-08
-1.5099118e-09
1.1378085e-08
-1.5206563e-09
1.1690742e-08
-1.5240028e-09
1.2000972e-08
-1.5313376e-09
1.2320404e-08
-1.5370628e-09
1.2633556e-08
-1.5389769e-09
1.2959476e-08
-1.5503408e-09
1.3275864e-08
-1.5460073e-09
1.3606879e-08
-1.5588402e-09
1.3927679e-08
-1.5546252e-09
1.4261829e-08
-1.5618979e-09
1.4587538e-08
-1.5622052e-09
1.4925059e-08
-1.566977e-09
1.5254208e-08
-1.5668953e-09
1.5596459e-08
-1.5719493e-09
1.5929137e-08
-1.5705953e-09
1.6274192e-08
-1.5762495e-09
1.6610613e-08
-1.5722666e-09
1.6955924e-08
-1.5730907e-09
1.7299032e-08
-1.5740619e-09
1.7644661e-08
-1.5693321e-09
1.7993665e-08
-1.5786813e-09
1.8339601e-08
-1.5679353e-09
1.868998e-08
-1.5722548e-09
1.9038937e-08
-1.5649524e-09
1.9391759e-08
-1.5684037e-09
1.9745029e-08
-1.5660036e-09
2.0099197e-08
-1.5611716e-09
2.0453891e-08
-1.5634611e-09
2.0806799e-08
-1.5488795e-09
2.1164885e-08
-1.5570074e-09
2.1521097e-08
-1.5447778e-09
2.1877676e-08
-1.5405163e-09
2.2239761e-08
-1.5500894e-09
2.259058e-08
-1.5176944e-09
2.2958435e-08
-1.5441125e-09
2.3310054e-08
-1.5104105e-09
2.3672266e-08
-1.5207724e-09
2.4027634e-08
-1.5050106e-09
2.4389621e-08
-1.5059962e-09
2.4746938e-08
-1.4951408e-09
2.5108471e-08
-1.4939411e-09
2.5463961e-08
-1.482369e-09
2.5823083e-08
-1.4729563e-09
2.6181705e-08
-1.470418e-09
2.6537584e-08
-1.4525668e-09
2.6893308e-08
-1.4489539e-09
2.7256301e-08
-1.44117e-09
2.7609826e-08
-1.4443828e-09
2.7958462e-08
-1.4013547e-09
2.8323837e-08
-1.4235014e-09
2.8669254e-08
-1.3973744e-09
2.9017714e-08
-1.3807447e-09
2.9375164e-08
-1.3800498e-09
2.9724315e-08
-1.3732517e-09
3.0075076e-08
-1.3602144e-09
3.0421479e-08
-1.3500825e-09
3.0771048e-08
-1.3318355e-09
3.1115595e-08
-1.3285093e-09
3.1451996e-08
-1.2932407e-09
3.1813696e-08
-1.3212475e-09
3.2146171e-08
-1.2846134e-09
3.2487923e-08
-1.2733517e-09
3.2827865e-08
-1.264515e-09
3.3165387e-08
-1.2492015e-09
3.3505213e-08
-1.2373896e-09
-1.2215687e-09
8.9115044e-09
-1.7411178e-09
9.2268009e-09
-1.7621577e-09
9.5352145e-09
-1.7749755e-09
9.8595611e-09
-1.7948655e-09
1.0174353e-08
-1.8009275e-09
1.0506168e-08
-1.8186835e-09
1.0828766e-08
-1.821135e-09
1.1166154e-08
-1.8408882e-09
1.1497488e-08
-1.8412455e-09
1.184006e-08
-1.8632281e-09
1.2180139e-08
-1.8640814e-09
1.2525958e-08
-1.8771565e-09
1.2875157e-08
-1.8862618e-09
1.3224511e-08
-1.888331e-09
1.3582335e-08
-1.9081652e-09
1.3935836e-08
-1.899508e-09
1.4301149e-08
-1.9241531e-09
1.4659308e-08
-1.9127845e-09
1.5030439e-08
-1.9330286e-09
1.5394273e-08
-1.9260397e-09
1.5770549e-08
-1.9432533e-09
1.613832e-08
-1.934666e-09
1.6522383e-08
-1.9560126e-09
1.689452e-08
-1.942732e-09
1.7283397e-08
-1.9651262e-09
1.7659096e-08
-1.9479658e-09
1.8050711e-08
-1.9647057e-09
1.8433728e-08
-1.9570791e-09
1.8829411e-08
-1.9650153e-09
1.9218874e-08
-1.9681438e-09
1.9614046e-08
-1.9631072e-09
2.0006375e-08
-1.9645836e-09
2.0406271e-08
-1.9648487e-09
2.0802176e-08
-1.9643089e-09
2.1206671e-08
-1.9704984e-09
2.1606434e-08
-1.9609351e-09
2.201102e-08
-1.9680464e-09
2.2409441e-08
-1.9473013e-09
2.2818685e-08
-1.9662512e-09
2.322102e-08
-1.9471128e-09
2.3631699e-08
-1.9511954e-09
2.4036226e-08
-1.9546165e-09
2.4441129e-08
-1.9225975e-09
2.4856321e-08
-1.9593037e-09
2.5258158e-08
-1.9122481e-09
2.5669652e-08
-1.9322659e-09
2.6070567e-08
-1.9059262e-09
2.6487728e-08
-1.923157e-09
2.6888849e-08
-1.8962617e-09
2.7303965e-08
-1.909057e-09
2.7704338e-08
-1.8827421e-09
2.8114916e-08
-1.8835341e-09
2.8523234e-08
-1.8787363e-09
2.8924527e-08
-1.8538598e-09
2.9331237e-08
-1.8556634e-09
2.9748439e-08
-1.8583723e-09
3.0137547e-08
-1.8334905e-09
3.0547143e-08
-1.810951e-09
3.0962097e-08
-1.8384551e-09
3.1342694e-08
-1.7779719e-09
3.1744592e-08
-1.7826426e-09
3.2151075e-08
-1.7865327e-09
3.2552356e-08
-1.7745328e-09
3.2952676e-08
-1.7605349e-09
3.334013e-08
-1.7375363e-09
3.37591e-08
-1.7508058e-09
3.413472e-08
-1.7041292e-09
3.4527343e-08
-1.6858635e-09
3.4954561e-08
-1.7484656e-09
3.5314619e-08
-1.6446711e-09
3.5719172e-08
-1.6779044e-09
3.610551e-08
-1.6508536e-09
3.6490076e-08
-1.633767e-09
3.6882655e-08
-1.6299686e-09
-1.6055301e-09
9.0313684e-09
-2.0695779e-09
9.3653694e-09
-2.0961586e-09
9.7015407e-09
-2.1111468e-09
1.0047351e-08
-2.1406761e-09
1.0389182e-08
-2.1427579e-09
1.0746226e-08
-2.1757282e-09
1.1095438e-08
-2.1703466e-09
1.1461405e-08
-2.206855e-09
1.181904e-08
-2.1988811e-09
1.219392e-08
-2.2381078e-09
1.2559892e-08
-2.2300534e-09
1.2941179e-08
-2.2584431e-09
1.331704e-08
-2.2621231e-09
1.3704106e-08
-2.2753973e-09
1.4089679e-08
-2.2937384e-09
1.4483006e-08
-2.2928349e-09
1.4877987e-08
-2.3191336e-09
1.5276587e-08
-2.3113849e-09
1.5680175e-08
-2.3366162e-09
1.6085757e-08
-2.3316214e-09
1.6495687e-08
-2.353184e-09
1.6906545e-08
-2.3455233e-09
1.7326337e-08
-2.3758048e-09
1.7743769e-08
-2.3601638e-09
1.8169195e-08
-2.3905521e-09
1.8589894e-08
-2.3686653e-09
1.9020804e-08
-2.3956158e-09
1.9446774e-08
-2.3830493e-09
1.9888003e-08
-2.4062436e-09
2.0318266e-08
-2.3984069e-09
2.0757516e-08
-2.4023573e-09
2.1190946e-08
-2.3980141e-09
2.1636858e-08
-2.4107603e-09
2.2072836e-08
-2.4002867e-09
2.2522689e-08
-2.4203511e-09
2.2963726e-08
-2.4019724e-09
2.3412363e-08
-2.4166834e-09
2.3848868e-08
-2.3838064e-09
2.4303935e-08
-2.4213184e-09
2.4740569e-08
-2.3837468e-09
2.5204773e-08
-2.4153995e-09
2.5632151e-08
-2.3819945e-09
2.6094337e-08
-2.3847829e-09
2.653465e-08
-2.3996168e-09
2.6985517e-08
-2.3631151e-09
2.7429211e-08
-2.3759597e-09
2.7864015e-08
-2.3407308e-09
2.8327483e-08
-2.3866246e-09
2.8756337e-08
-2.3251153e-09
2.9220019e-08
-2.3727395e-09
2.9649083e-08
-2.3118057e-09
3.0104547e-08
-2.3389981e-09
3.0549063e-08
-2.3232526e-09
3.0979707e-08
-2.2845035e-09
3.1433908e-08
-2.3098652e-09
3.1883484e-08
-2.3079481e-09
3.2283359e-08
-2.233365e-09
3.2748517e-08
-2.2761093e-09
3.3177054e-08
-2.2669923e-09
3.3588663e-08
-2.1895804e-09
3.4058695e-08
-2.2526749e-09
3.4500484e-08
-2.2283214e-09
3.4967401e-08
-2.2414495e-09
3.5399999e-08
-2.1931331e-09
3.5809386e-08
-2.1469232e-09
3.6308821e-08
-2.2502411e-09
3.6643913e-08
-2.0392207e-09
3.7063462e-08
-2.1054128e-09
3.7551779e-08
-2.2367822e-09
3.782405e-08
-1.9169424e-09
3.8268266e-08
-2.1221204e-09
3.8570217e-08
-1.9528048e-09
3.8888429e-08
-1.9519786e-09
3.9165605e-08
-1.9071445e-09
-1.876766e-09
9.0718124e-09
-2.4225523e-09
9.422184e-09
-2.4465302e-09
9.7858488e-09
-2.4748116e-09
1.0148489e-08
-2.5033166e-09
1.0519751e-08
-2.5140195e-09
1.0895849e-08
-2.5518261e-09
1.1275689e-08
-2.5501868e-09
1.1663089e-08
-2.5942546e-09
1.2052067e-08
-2.5878593e-09
1.2451584e-08
-2.637625e-09
1.2848721e-08
-2.6271904e-09
1.3258594e-08
-2.6683162e-09
1.366542e-08
-2.6689495e-09
1.4084819e-08
-2.6947955e-09
1.4501112e-08
-2.710032e-09
1.4930382e-08
-2.7221043e-09
1.5357e-08
-2.7457522e-09
1.5793001e-08
-2.7473854e-09
1.6230248e-08
-2.7738636e-09
1.6675229e-08
-2.7766027e-09
1.7118781e-08
-2.7967354e-09
1.7570911e-08
-2.7976534e-09
1.8024265e-08
-2.8291585e-09
1.8486139e-08
-2.8220377e-09
1.8942897e-08
-2.8473102e-09
1.9408463e-08
-2.8342321e-09
1.9869658e-08
-2.8568108e-09
2.0338163e-08
-2.8515535e-09
2.0812804e-08
-2.8808851e-09
2.1283679e-08
-2.8692812e-09
2.1750156e-08
-2.8688349e-09
2.2225023e-08
-2.872881e-09
2.2696384e-08
-2.8821218e-09
2.3173133e-08
-2.8770355e-09
2.3642972e-08
-2.8901894e-09
2.412603e-08
-2.8850307e-09
2.4590471e-08
-2.8811243e-09
2.5062545e-08
-2.8558804e-09
2.5537544e-08
-2.8963181e-09
2.6004123e-08
-2.8503251e-09
2.6504557e-08
-2.9158342e-09
2.6938524e-08
-2.8159612e-09
2.7448144e-08
-2.8944026e-09
2.7887717e-08
-2.8391896e-09
2.8373492e-08
-2.8488908e-09
2.8806327e-08
-2.8087944e-09
2.9273999e-08
-2.8084033e-09
2.9796884e-08
-2.9095097e-09
3.0236582e-08
-2.7648128e-09
3.0755883e-08
-2.8920403e-09
3.1171095e-08
-2.7270179e-09
3.1645259e-08
-2.8131623e-09
3.2078106e-08
-2.7560999e-09
3.2399811e-08
-2.6062076e-09
3.281195e-08
-2.7220046e-09
3.3098528e-08
-2.5945261e-09
3.3225305e-08
-2.3601426e-09
3.2818403e-08
-1.8692066e-09
3.3116267e-08
-2.5648566e-09
3.336755e-08
-2.440863e-09
3.3629454e-08
-2.5145796e-09
3.3928255e-08
-2.5271223e-09
3.4287254e-08
-2.600448e-09
3.4326767e-08
-2.2326461e-09
3.4417336e-08
-2.2374922e-09
3.4762051e-08
-2.5949569e-09
3.4437881e-08
-1.7150505e-09
3.4370088e-08
-2.0376198e-09
3.4510978e-08
-2.3776717e-09
3.4070504e-08
-1.4764685e-09
3.4115667e-08
-2.1672836e-09
3.3716558e-08
-1.5536961e-09
3.3473021e-08
-1.7084413e-09
3.3098617e-08
-1.5327403e-09
-1.4886293e-09
9.0438805e-09
-2.7950825e-09
9.4130942e-09
-2.8157439e-09
9.7991798e-09
-2.8608972e-09
1.0180685e-08
-2.8848218e-09
1.0577317e-08
-2.9106511e-09
1.097329e-08
-2.9477992e-09
1.1380877e-08
-2.9577743e-09
1.1789297e-08
-3.0026747e-09
1.2208071e-08
-3.0066332e-09
1.2630351e-08
-3.0599046e-09
1.305899e-08
-3.0558297e-09
1.3494541e-08
-3.1038668e-09
1.3933715e-08
-3.1081241e-09
1.4382376e-08
-3.1434561e-09
1.4830939e-08
-3.1585949e-09
1.5293017e-08
-3.1841827e-09
1.5752728e-08
-3.2054625e-09
1.6222018e-08
-3.2166754e-09
1.6694417e-08
-3.2462634e-09
1.7171802e-08
-3.2539875e-09
1.7650804e-08
-3.2757376e-09
1.8133197e-08
-3.2800463e-09
1.86211e-08
-3.3170612e-09
1.9111177e-08
-3.3121144e-09
1.9600268e-08
-3.3364014e-09
2.0089369e-08
-3.3233332e-09
2.0579788e-08
-3.3472296e-09
2.1066088e-08
-3.3378536e-09
2.1570278e-08
-3.3850753e-09
2.2054937e-08
-3.3539404e-09
2.2540817e-08
-3.3547151e-09
2.3033018e-08
-3.3650812e-09
2.3520709e-08
-3.3698131e-09
2.4018186e-08
-3.374513e-09
2.4488111e-08
-3.3601142e-09
2.4996159e-08
-3.3930789e-09
2.5426769e-08
-3.3117335e-09
2.5955389e-08
-3.3845006e-09
2.6427591e-08
-3.3685204e-09
2.6934016e-08
-3.3567504e-09
2.7425255e-08
-3.4070727e-09
2.7805956e-08
-3.1966625e-09
2.8227962e-08
-3.3164085e-09
2.8544621e-08
-3.1558483e-09
2.8376202e-08
-2.6804721e-09
2.8416413e-08
-2.8490057e-09
2.8652308e-08
-3.0442975e-09
2.8957146e-08
-3.2143484e-09
2.9028097e-08
-2.835763e-09
2.9274699e-08
-3.138643e-09
2.9066048e-08
-2.5183662e-09
2.9082751e-08
-2.8298662e-09
2.8900397e-08
-2.5737455e-09
2.8385724e-08
-2.0915345e-09
2.8080329e-08
-2.4166096e-09
2.7538392e-08
-2.0525895e-09
2.6743769e-08
-1.5655195e-09
2.6096015e-08
-1.2214521e-09
2.5400673e-08
-1.8695143e-09
2.409623e-08
-1.1364207e-09
2.2931545e-08
-1.3498939e-09
2.1679343e-08
-1.2749209e-09
2.0491641e-08
-1.4127462e-09
1.9187129e-08
-9.2813395e-10
1.8146291e-08
-1.1966535e-09
1.6944896e-08
-1.3935627e-09
1.5921859e-08
-6.9201345e-10
1.4574108e-08
-6.8986806e-10
1.3310458e-08
-1.1140226e-09
1.2367989e-08
-5.3399851e-10
1.1128638e-08
-9.279336e-10
1.0369239e-08
-7.9429654e-10
9.6490998e-09
-9.8830216e-10
8.6168308e-09
-5.004713e-10
-1.0300615e-09
8.9616279e-09
-3.1852049e-09
9.3484009e-09
-3.2025169e-09
9.7542821e-09
-3.2667784e-09
1.0154185e-08
-3.2847249e-09
1.0573436e-08
-3.3299017e-09
1.0989165e-08
-3.3635279e-09
1.1422126e-08
-3.3907361e-09
1.1851557e-08
-3.4321057e-09
1.2298361e-08
-3.4534372e-09
1.2743426e-08
-3.5049692e-09
1.3202761e-08
-3.5151649e-09
1.3663863e-08
-3.5649682e-09
1.4134567e-08
-3.5788282e-09
1.4612502e-08
-3.6213911e-09
1.5090637e-08
-3.6367299e-09
1.5585375e-08
-3.6789208e-09
1.6071432e-08
-3.6915194e-09
1.6573614e-08
-3.7188581e-09
1.7068325e-08
-3.7409741e-09
1.7575549e-08
-3.7612115e-09
1.8071677e-08
-3.7718658e-09
1.857929e-08
-3.7876596e-09
1.9076734e-08
-3.8145051e-09
1.9586159e-08
-3.8215394e-09
2.0082006e-08
-3.8322485e-09
2.057715e-08
-3.8184772e-09
2.1080515e-08
-3.8505944e-09
2.1562479e-08
-3.8198171e-09
2.2080495e-08
-3.9030911e-09
2.2542123e-08
-3.8155684e-09
2.3052651e-08
-3.8652438e-09
2.3535734e-08
-3.848164e-09
2.404564e-08
-3.8797196e-09
2.4447043e-08
-3.775916e-09
2.4846953e-08
-3.7600233e-09
2.4861363e-08
-3.4074897e-09
2.4693624e-08
-3.1439938e-09
2.5063141e-08
-3.7540179e-09
2.5133865e-08
-3.4392444e-09
2.5178582e-08
-3.4014673e-09
2.5087479e-08
-3.3159695e-09
2.4670286e-08
-2.7794696e-09
2.4223292e-08