/*--------------------------------*- C++ -*----------------------------------*\
| =========                 |                                                 |
| \\      /  F ield         | OpenFOAM: The Open Source CFD Toolbox           |
|  \\    /   O peration     | Version:  2.3.0                                 |
|   \\  /    A nd           | Web:      www.OpenFOAM.org                      |
|    \\/     M anipulation  |                                                 |
\*---------------------------------------------------------------------------*/
FoamFile
{
    version     2.0;
    format      ascii;
    class       volVectorField;
    location    "3.1e-05";
    object      U;
}
// * * * * * * * * * * * * * * * * * * * * * * * * * * * * * * * * * * * * * //

dimensions      [0 1 -1 0 0 0 0];

internalField   nonuniform List<vector> 
7500
(
(460.0025 4.6541395e-05 -3.8775013e-17)
(460.00321 -0.0018074354 3.2739306e-15)
(460.0082 0.007799503 3.310249e-15)
(459.95731 -0.002731281 -7.9374717e-16)
(460.0042 0.0010743477 3.0513124e-15)
(459.93619 -0.011330259 5.9097435e-15)
(459.98268 0.0010706553 1.8846969e-15)
(459.93952 0.008003027 5.8128799e-15)
(459.97848 -0.0045054648 4.7987252e-15)
(459.96874 0.014572603 1.2462909e-15)
(459.97351 -0.01190689 1.2783991e-15)
(459.97572 0.0025558076 -1.0543806e-15)
(459.98215 0.0013909058 1.4929944e-15)
(459.97136 -0.0036355988 1.6097368e-15)
(459.99149 0.0049411507 9.037435e-16)
(459.96309 -0.00526147 1.3152735e-15)
(459.97832 0.0090222625 1.2614542e-15)
(459.97195 -0.014425507 -1.9376121e-15)
(459.95722 0.0234698 1.3180328e-15)
(459.99675 -0.030953793 7.6235892e-16)
(459.93944 0.036105841 -8.3472634e-16)
(460.0072 -0.037076508 1.7461675e-15)
(459.93255 0.033193013 1.0741425e-15)
(460.00222 -0.026505703 -1.1701602e-15)
(459.93555 0.018026469 1.3432794e-15)
(459.98389 -0.0087921222 4.9936216e-16)
(459.94617 -0.0014461516 1.3492326e-15)
(459.973 0.013258773 -1.9338494e-15)
(459.95643 -0.022314068 -1.0225263e-15)
(459.97355 0.031619631 3.2568787e-15)
(459.96153 -0.034908751 -1.43318e-15)
(459.9794 0.032142289 9.3621246e-16)
(459.96974 -0.033019372 1.2375088e-15)
(459.98381 0.027620138 -1.4783326e-15)
(459.97698 -0.019673226 -1.2420164e-15)
(459.97704 0.012511868 6.6693329e-16)
(459.99103 -0.0041105287 -7.2864822e-16)
(459.96432 -0.0045157753 1.2054375e-15)
(459.98564 0.0099979278 1.1929825e-15)
(459.98578 -0.016468976 6.3086767e-16)
(459.97737 0.019762911 1.8691881e-16)
(459.98704 -0.014828093 1.3554003e-15)
(459.97292 0.011844754 2.6915511e-15)
(459.97974 -0.011646122 2.4069325e-15)
(459.97974 0.0061314484 1.1948611e-16)
(459.97971 0.00095818109 -1.4799002e-15)
(459.98842 -0.007702414 -5.0334031e-16)
(459.98623 0.014061952 -1.1148737e-15)
(459.99719 -0.021836297 4.4039458e-16)
(459.99529 0.018715337 4.642876e-16)
(460.00338 -0.0095289639 4.3125812e-16)
(459.99506 0.00073147308 2.7404528e-15)
(460.02064 -0.00058653351 4.1529867e-16)
(460.00194 -0.014217198 6.0916301e-16)
(460.01632 0.025413359 6.1624163e-16)
(460.02924 -0.012794422 -1.0873069e-15)
(460.01655 0.0030876813 4.7854837e-16)
(459.99752 -0.0030878396 1.4368148e-16)
(459.97914 -0.011173335 7.5573223e-16)
(459.96705 0.020348587 6.7895437e-16)
(459.97631 0.0046338753 1.9227241e-16)
(459.98478 -0.017842604 2.3820431e-15)
(459.94643 -0.010218575 6.52612e-16)
(459.96929 0.02031656 -1.3064581e-15)
(459.98251 0.0043012263 -1.8475639e-15)
(459.98545 -0.017397766 2.4240481e-16)
(459.98283 -0.0017102074 3.2058707e-16)
(459.98983 0.0049480317 5.9148065e-16)
(459.97567 0.0085696526 4.2117329e-16)
(459.98664 0.0031637755 -1.5179736e-15)
(459.97407 -0.010950784 -1.56787e-15)
(459.96841 -0.0050076361 8.9016683e-16)
(459.95898 -0.0038276005 2.5398301e-15)
(459.97973 0.0068704324 4.5963951e-16)
(459.99328 0.002962008 1.9498067e-15)
(460.00055 -0.00072458276 -7.5348165e-17)
(460.00511 0.0044672139 -4.9480278e-17)
(460.00734 -0.00032589108 1.040014e-16)
(459.9569 0.0053395115 8.0648616e-17)
(460.0033 -0.011781329 -1.4224193e-16)
(459.93577 0.0036499574 2.7851649e-16)
(459.98356 -0.013959253 -3.5916061e-18)
(459.93919 0.013038085 1.9732514e-16)
(459.97723 -0.00011652957 2.164931e-16)
(459.96912 0.00083386831 2.4605091e-16)
(459.97043 0.0035874785 1.771547e-16)
(459.97773 -0.010938543 3.6012211e-16)
(459.98052 0.0097173661 3.1693542e-17)
(459.97112 -0.014301301 -3.8157113e-16)
(459.99117 0.024542355 -5.0639417e-17)
(459.96132 -0.036443965 -7.3742565e-16)
(459.97708 0.048234758 2.7581443e-16)
(459.97032 -0.055216533 3.9923908e-16)
(459.9542 0.057811406 4.4642464e-17)
(459.99525 -0.053745857 2.3975096e-16)
(459.93682 0.048644444 1.174279e-16)
(460.00498 -0.04307057 3.7520937e-16)
(459.93232 0.034053423 3.7209521e-17)
(459.99916 -0.021123987 1.2420995e-15)
(459.93755 0.0043312889 -1.6999223e-17)
(459.9799 0.012431426 8.0583851e-17)
(459.94918 -0.028842959 -6.6236316e-16)
(459.96769 0.043038938 -4.1339616e-16)
(459.95761 -0.050682275 1.5630307e-15)
(459.96771 0.055360515 2.8011187e-16)
(459.95812 -0.053506026 4.2084375e-17)
(459.97442 0.043416876 2.1241975e-16)
(459.96351 -0.038006586 -1.8499058e-17)
(459.98044 0.023777782 1.2174352e-16)
(459.96885 -0.0094950549 4.7819846e-17)
(459.97448 -0.0010334131 2.4153992e-16)
(459.98329 0.0090598373 1.1904348e-16)
(459.96178 -0.018077622 -5.3269859e-16)
(459.97968 0.022870024 1.3085353e-16)
(459.98276 -0.021757679 1.4439069e-16)
(459.97397 0.017637671 -3.048039e-17)
(459.98202 -0.012617475 -4.8247309e-16)
(459.97012 0.0093777795 8.6603446e-18)
(459.9745 -0.0057405167 2.2384484e-16)
(459.97761 -0.0022363836 1.9766033e-16)
(459.97255 0.0092152859 -3.3900846e-16)
(459.98541 -0.016509893 1.3217465e-16)
(459.97773 0.020675837 -5.1101919e-16)
(459.99205 -0.023884525 1.2519774e-16)
(459.98869 0.015094493 2.8744219e-16)
(459.99474 -0.005499632 2.1718557e-16)
(459.98745 -0.0035307675 -5.3437303e-16)
(460.01177 0.0060689051 2.1266799e-16)
(459.99548 -0.021864597 -3.3350097e-16)
(460.00897 0.027162256 1.9268432e-16)
(460.01655 -0.0077410398 2.2171808e-16)
(460.00981 -0.0026306007 2.3056088e-16)
(459.98536 0.0003045358 1.2043601e-16)
(459.97365 -0.01100177 3.1372261e-16)
(459.95869 0.021072893 -4.0954592e-16)
(459.96398 0.0071594779 2.097169e-16)
(459.9739 -0.012390488 2.6657918e-16)
(459.94331 -0.013051906 2.8271818e-16)
(459.96284 0.015315448 2.1571296e-16)
(459.97154 0.0086251907 -5.1089859e-16)
(459.978 -0.014439946 3.126617e-16)
(459.97973 -0.0037017331 -3.7377057e-16)
(459.9854 0.00038797605 8.4305941e-18)
(459.97041 0.0039342385 1.3844761e-16)
(459.97885 0.010160583 2.8060447e-16)
(459.96765 -0.0086747415 8.5476406e-16)
(459.96255 -0.002466732 -4.8811552e-16)
(459.95372 -0.0062204254 2.0746057e-16)
(459.97252 0.0035526462 1.4159825e-16)
(459.98513 0.0028053759 1.355045e-16)
(459.99043 -0.0042831664 -8.4783191e-19)
(460.01084 0.018118297 -7.9193174e-16)
(460.00052 -0.013696533 1.0095745e-16)
(459.96019 0.01819626 -6.3414997e-17)
(459.99812 -0.02630826 6.8807515e-17)
(459.93996 0.01455518 6.9749471e-16)
(459.97747 -0.022348013 -4.2645466e-17)
(459.94547 0.013695346 6.0781379e-17)
(459.96715 8.7564595e-05 -1.0088675e-16)
(459.97235 -0.0019242055 -5.4763529e-17)
(459.96137 0.0075120917 1.4715824e-16)
(459.97792 -0.01953791 -9.2981412e-16)
(459.975 0.025259471 -6.8998441e-16)
(459.97109 -0.039647421 9.5724176e-16)
(459.9861 0.057799865 7.1485121e-16)
(459.9612 -0.07273036 -7.114762e-16)
(459.97385 0.083701568 5.6559439e-16)
(459.96668 -0.088039421 -3.4321374e-17)
(459.95232 0.086575378 6.2776659e-17)
(459.98846 -0.079053622 -8.4374185e-17)
(459.93385 0.071424959 2.0020124e-17)
(459.99784 -0.060697282 7.5019488e-16)
(459.93117 0.042354427 5.9742542e-16)
(459.99001 -0.018987625 -2.7266827e-16)
(459.94055 -0.0082746029 -4.8279971e-17)
(459.96955 0.033162986 -3.3955652e-17)
(459.95213 -0.055565204 -2.3177705e-16)
(459.9568 0.071359432 -8.5969789e-17)
(459.95383 -0.07575755 -3.6726449e-16)
(459.95577 0.075299679 5.3939494e-16)
(459.94469 -0.067393188 1.2328925e-16)
(459.96241 0.052299818 -1.0499635e-16)
(459.94439 -0.043880738 -5.6305427e-16)
(459.97091 0.025341601 -1.2056605e-16)
(459.94928 -0.0074112507 2.3980608e-17)
(459.96601 -0.0070266936 1.4183483e-17)
(459.96822 0.019141007 -4.0086685e-16)
(459.95508 -0.032628465 -5.1895059e-16)
(459.97034 0.035523702 1.0771707e-16)
(459.97444 -0.028430543 -2.2963164e-17)
(459.96842 0.019685302 1.0663174e-16)
(459.97402 -0.011557516 1.1466419e-16)
(459.96436 0.0036821147 -3.7683487e-16)
(459.96374 0.002644841 -1.3783335e-16)
(459.97076 -0.011569001 1.2032403e-16)
(459.95807 0.016859034 3.3901992e-17)
(459.97477 -0.022328344 3.9822172e-16)
(459.96056 0.02451766 4.3730781e-16)
(459.97598 -0.025506088 -3.4002382e-16)
(459.9722 0.013842542 -8.0995923e-17)
(459.97629 -0.0056298032 5.5562683e-16)
(459.96954 -0.0028809917 8.2741515e-16)
(459.99344 0.010617919 -1.5474051e-16)
(459.97787 -0.026481172 -7.7365232e-17)
(459.99589 0.027582808 -6.3672877e-17)
(459.99182 -0.0054640265 2.1524533e-16)
(459.99468 -0.0030933584 -8.6934204e-16)
(459.96284 0.0015674616 1.2671513e-16)
(459.95891 -0.01579361 8.1997411e-17)
(459.93925 0.023924963 -5.0403268e-16)
(459.94294 0.010259759 -2.7098673e-16)
(459.95128 -0.010964597 -3.4570821e-16)
(459.92924 -0.012458209 -1.0797273e-16)
(459.94847 0.011711725 7.4470168e-17)
(459.95335 0.0093920193 -4.7184503e-16)
(459.96172 -0.0092306561 -8.0343308e-16)
(459.96803 -0.0059468907 5.4972e-18)
(459.97424 -0.0031046543 5.3645719e-17)
(459.96071 0.0016690207 1.2934477e-16)
(459.96629 0.014030699 9.1737456e-17)
(459.95322 -0.0096262926 6.4619627e-17)
(459.9487 -0.0027938907 2.0294494e-18)
(459.93805 -0.0080031985 -3.5160377e-17)
(459.95641 0.0037328767 3.3338326e-16)
(459.96548 0.0042297121 3.9424768e-16)
(459.95911 -0.0057739787 1.107179e-17)
(460.0326 0.029399137 3.7947875e-17)
(459.97404 -0.020707415 -7.2772028e-16)
(459.98323 0.023967749 -4.4867631e-16)
(459.97218 -0.032633698 -3.4202746e-17)
(459.96828 0.016589694 -5.683753e-16)
(459.94957 -0.023866375 4.6190059e-17)
(459.97149 0.016775804 1.4469729e-16)
(459.93725 -0.0075022755 -5.0873139e-19)
(459.98684 0.0064448765 -4.6538601e-16)
(459.9329 0.0044647581 -4.2992356e-16)
(459.98542 -0.024337201 5.7565803e-16)
(459.95172 0.038613333 3.2512413e-16)
(459.97697 -0.057080878 5.4358921e-16)
(459.96938 0.074534744 5.2392635e-16)
(459.96602 -0.085869136 1.0490292e-17)
(459.96195 0.095723577 1.1043896e-17)
(459.96856 -0.10040809 -2.3929402e-17)
(459.93957 0.10175777 -4.1192574e-16)
(459.98442 -0.096348835 1.3997983e-16)
(459.91876 0.089490117 -4.6247079e-17)
(459.98517 -0.074777635 4.8761006e-16)
(459.91967 0.051702206 -4.1356262e-17)
(459.97096 -0.025810507 2.7984337e-17)
(459.93296 -0.0022112731 4.2573119e-16)
(459.94991 0.02876215 -7.5072093e-17)
(459.94343 -0.051208219 -4.1708871e-16)
(459.93843 0.07172194 8.834865e-17)
(459.93615 -0.079546602 4.0556164e-16)
(459.93593 0.084607823 -2.2259121e-16)
(459.91636 -0.077611134 2.6004431e-16)
(459.93979 0.064252981 8.1810176e-17)
(459.912 -0.055798454 -5.8032174e-17)
(459.95068 0.034007691 3.3792938e-16)
(459.91976 -0.014514958 -4.3280611e-17)
(459.95127 -0.0044441502 -2.1355506e-17)
(459.94719 0.0181363 7.9191894e-17)
(459.94645 -0.034613311 -3.1332986e-16)
(459.96042 0.036206295 2.6716623e-16)
(459.96702 -0.028620943 -2.7546312e-17)
(459.96265 0.021867662 -4.8643903e-17)
(459.96639 -0.011183673 3.9301499e-17)
(459.95659 0.00010451436 -9.0119403e-19)
(459.95142 0.0054437371 3.901839e-17)
(459.95733 -0.013726503 2.8898511e-17)
(459.93813 0.016701072 -3.4468886e-17)
(459.95415 -0.019330335 -2.7598768e-17)
(459.93388 0.023811215 -1.8365433e-17)
(459.94881 -0.026372764 -1.1973148e-18)
(459.94497 0.017307985 2.6373286e-16)
(459.94807 -0.015940701 -6.120068e-17)
(459.94318 0.0059946495 7.0813764e-17)
(459.96724 0.0091400922 2.8568682e-16)
(459.95302 -0.023688332 -3.1973766e-17)
(459.97876 0.028267726 -5.1898976e-17)
(459.96207 -0.0065150586 -2.8374373e-17)
(459.97649 0.00049772457 -2.9857726e-16)
(459.93328 -0.00079487639 2.1680514e-17)
(459.9409 -0.017402492 2.5337192e-16)
(459.91478 0.025500043 1.5794534e-17)
(459.91617 0.013410473 1.4673781e-17)
(459.92158 -0.012367525 -4.9496809e-17)
(459.90987 -0.014975297 -2.9369903e-16)
(459.92623 0.012300514 -2.5537856e-16)
(459.92996 0.0059963394 2.9514022e-16)
(459.93796 -0.0061854614 5.2241946e-17)
(459.94854 -0.0041860577 2.4091265e-16)
(459.95575 -0.0072450579 5.4547746e-17)
(459.94408 0.0031362293 -2.3358721e-16)
(459.94564 0.014215158 -3.2642633e-16)
(459.93072 -0.01382306 2.7184856e-16)
(459.92718 -0.0041823941 1.9428905e-17)
(459.91419 -0.0070121483 8.6741887e-18)
(459.9314 0.0058229334 6.4389849e-18)
(459.93444 0.0059573507 -2.5933632e-16)
(459.92455 -0.005332121 1.3735048e-17)
(460.06927 0.037466608 2.8720979e-18)
(459.93053 -0.020144264 1.7188046e-16)
(460.03865 0.020497044 -1.0838644e-17)
(459.91467 -0.029828371 2.2359768e-17)
(460.04274 0.014964137 -5.0379625e-18)
(459.8802 -0.022017436 -7.6753632e-17)
(460.04217 0.0193865 -5.3473262e-16)
(459.86417 -0.0073082532 3.5162265e-17)
(460.03614 0.0033605566 2.0880773e-18)
(459.86348 0.013024214 -4.9341986e-16)
(460.01814 -0.033362059 -2.5319327e-17)
(459.89019 0.044419802 3.9943397e-17)
(460.00484 -0.057527127 -5.3811921e-18)
(459.91456 0.06893581 4.9373951e-17)
(459.99518 -0.079042629 -1.1211729e-17)
(459.91179 0.090170714 4.1057311e-16)
(459.99431 -0.094765028 -3.4010382e-17)
(459.89164 0.098409427 6.3253301e-17)
(459.99732 -0.091848423 3.8850914e-16)
(459.87219 0.087949856 2.5344761e-16)
(459.98112 -0.076185736 -6.5420423e-17)
(459.8769 0.060642155 3.5903529e-17)
(459.95682 -0.041353336 -6.313937e-17)
(459.8944 0.016475699 -8.0474787e-18)
(459.93497 0.0093064501 4.3685638e-16)
(459.90832 -0.031031472 1.3111839e-17)
(459.92684 0.058154708 -6.8814161e-17)
(459.90156 -0.070585979 -1.6272117e-17)
(459.92683 0.081248274 -3.1492166e-16)
(459.87971 -0.077482504 3.6272329e-16)
(459.92955 0.067687256 2.5940258e-16)
(459.87736 -0.059809117 3.3533608e-16)
(459.94082 0.037606476 -3.0002189e-16)
(459.89265 -0.023163854 -3.6031724e-16)
(459.94363 0.0035649099 -3.9546285e-16)
(459.93137 0.0025248821 -2.2932666e-16)
(459.94492 -0.020722165 3.5157155e-17)
(459.9543 0.023772569 -1.4742411e-17)
(459.9689 -0.019653368 -3.0658173e-17)
(459.95801 0.018910153 8.8167884e-17)
(459.96725 -0.0093549562 2.8275378e-16)
(459.94792 0.0022813399 -1.8471698e-17)
(459.94649 0.00069621631 3.0475511e-16)
(459.94142 -0.0053315227 -2.5212291e-16)
(459.92445 0.0075212981 2.7890231e-17)
(459.93102 -0.010276675 3.1768276e-16)
(459.91164 0.018779726 1.8070418e-16)
(459.92 -0.023137485 2.3911754e-16)
(459.92076 0.023558152 -2.2252612e-16)
(459.91917 -0.033063289 2.4148064e-16)
(459.92236 0.016980716 2.4578687e-16)
(459.94039 -0.00016755814 -1.1171543e-17)
(459.93399 -0.012832742 1.9896386e-16)
(459.96274 0.024630338 7.6860764e-17)
(459.94032 -0.0047094089 -1.8301996e-16)
(459.96213 0.0012238816 -2.1262415e-16)
(459.9132 -0.0051557156 2.2378376e-16)
(459.92875 -0.0097720688 -4.5998457e-17)
(459.89901 0.024641455 2.4379099e-16)
(459.89486 0.012959545 1.432446e-17)
(459.89663 -0.0068137993 -7.5933647e-18)
(459.89493 -0.019998715 1.8602e-16)
(459.90594 0.0084989504 -8.0551731e-19)
(459.90809 0.0023110676 2.6223178e-16)
(459.91226 -0.0044312956 -2.1924893e-16)
(459.92634 0.0012864198 4.9334233e-17)
(459.93027 -0.009731204 5.2269762e-17)
(459.92392 0.0040509632 -1.7954094e-16)
(459.91693 0.011761671 -1.1273887e-17)
(459.90461 -0.015218911 -2.8036169e-17)
(459.90221 -0.0053229861 1.8837637e-16)
(459.89 -0.0045442238 -1.3277295e-16)
(459.90584 0.007878145 3.6352529e-17)
(459.90637 0.0068657952 -5.8909085e-18)
(460.04078 -0.0057275284 4.3288015e-17)
(460.00158 0.045635323 -2.798806e-16)
(459.98072 -0.021075225 1.7563288e-17)
(460.03403 0.020202995 9.942474e-18)
(459.89714 -0.02953455 -1.9383999e-16)
(460.09343 0.017118648 4.0791531e-16)
(459.80955 -0.017584171 -1.8162638e-16)
(460.11364 0.014052607 -1.6980259e-16)
(459.76714 0.0069535188 3.8410066e-17)
(460.10008 -0.012378828 3.6848608e-16)
(459.7585 0.026193439 -3.8469536e-16)
(460.07409 -0.038858845 2.8644946e-16)
(459.77793 0.041414599 3.4974643e-17)
(460.06782 -0.048128776 -2.9502874e-16)
(459.79019 0.053123792 1.4251378e-17)
(460.07171 -0.062233026 2.6231901e-17)
(459.78387 0.070521619 1.5108173e-18)
(460.07262 -0.072074652 3.7699367e-17)
(459.77271 0.077184492 -1.073558e-17)
(460.06358 -0.070007224 3.2225853e-17)
(459.76722 0.07265649 2.5472304e-16)
(460.03075 -0.06633255 5.631877e-17)
(459.78607 0.058285756 1.0071142e-17)
(459.99611 -0.045542002 8.2267666e-17)
(459.81473 0.022477749 2.3186066e-17)
(459.97767 -0.0018834094 7.3350065e-19)
(459.83961 -0.013604107 3.68661e-16)
(459.9801 0.037049295 1.9079521e-17)
(459.84728 -0.045055703 -2.6155305e-16)
(459.98888 0.051941445 3.983146e-17)
(459.84097 -0.052223642 1.1504188e-17)
(459.98834 0.04914927 -2.367622e-16)
(459.85064 -0.045658633 -5.3341701e-17)
(459.98767 0.032845552 9.4431163e-17)
(459.87308 -0.028445083 3.2547147e-16)
(459.97612 0.011969406 1.6669021e-17)
(459.91422 -0.016089758 6.5301124e-17)
(459.971 -0.0054496717 5.422213e-18)
(459.93714 0.009038492 2.7948287e-16)
(459.98991 -0.0092736146 -1.5725742e-16)
(459.94051 0.013486381 -1.741792e-16)
(459.98399 -0.0066571903 7.5464368e-17)
(459.93172 0.0071286736 7.1938467e-18)
(459.9609 -0.0046989089 2.1962018e-16)
(459.92688 0.006033758 5.331762e-17)
(459.93677 -0.0024513583 2.6969821e-16)
(459.91723 0.0002348242 5.3118863e-17)
(459.92125 0.0097232645 -3.1763089e-17)
(459.90414 -0.017521662 -1.386297e-17)
(459.92551 0.028061799 1.0368008e-16)
(459.90035 -0.041666429 2.7050681e-16)
(459.92825 0.021291597 5.246273e-17)
(459.92011 -0.016193958 -1.339878e-16)
(459.93734 0.0048695581 4.6146805e-17)
(459.94875 0.011793036 1.8087996e-16)
(459.94108 0.0044484506 -1.6007943e-16)
(459.9509 -0.0049684583 1.2990363e-17)
(459.91876 -0.0092810775 2.3544906e-16)
(459.92449 0.003470687 4.5992496e-17)
(459.90586 0.02007819 -1.6822545e-16)
(459.88439 0.010243101 -9.5277304e-17)
(459.89222 0.0062950018 1.0342584e-17)
(459.88681 -0.016679823 2.2761828e-16)
(459.90012 0.00096009206 5.2324203e-17)
(459.89438 -0.0037857845 -3.5701905e-16)
(459.89586 -0.0025967208 2.3627077e-16)
(459.90716 0.0042666718 -1.053176e-16)
(459.90745 -0.0052038017 6.7659325e-17)
(459.90379 0.0060421724 1.9540215e-16)
(459.89004 0.0022729843 3.3784919e-17)
(459.88034 -0.01503934 6.2701027e-17)
(459.88098 -0.0093782704 2.9652815e-17)
(459.87279 -0.0054868352 5.9402938e-17)
(459.88826 0.010086849 -7.8861699e-17)
(459.89147 0.0078562536 3.3247905e-17)
(460.51717 -0.0060793606 -1.4790423e-17)
(459.56754 0.052119686 -2.3359266e-16)
(460.35023 -0.023964691 5.8492929e-17)
(459.67893 0.024322526 2.5281554e-16)
(460.1476 -0.03451478 -5.1938961e-17)
(459.83059 0.020269179 -2.8795517e-17)
(459.95705 -0.012569537 1.1263825e-17)
(459.93282 0.0051898329 5.9672378e-17)
(459.84042 0.020582066 -1.5802369e-16)
(459.98659 -0.023956182 1.0784912e-16)
(459.77151 0.032014025 5.4824386e-17)
(460.02719 -0.038040034 -3.2522937e-18)
(459.72518 0.035312515 3.7280001e-16)
(460.09276 -0.03745881 -2.9589542e-16)
(459.6704 0.036060951 5.2022296e-17)
(460.16229 -0.042766481 2.8331116e-18)
(459.62248 0.045096854 4.4616425e-17)
(460.20199 -0.045492395 4.1232378e-17)
(459.60945 0.051374442 -2.3554958e-16)
(460.20451 -0.043807382 3.6939867e-17)
(459.62579 0.04918734 3.367775e-17)
(460.17447 -0.042969545 3.167297e-17)
(459.66421 0.039563994 1.0466251e-16)
(460.14957 -0.037980926 4.7286667e-17)
(459.69753 0.02328167 -2.4266514e-16)
(460.15171 -0.016677857 3.02544e-16)
(459.72252 0.012896308 7.2909965e-17)
(460.16903 0.0032314579 -1.9028039e-16)
(459.74179 -0.0093415095 -1.5003976e-16)
(460.17756 0.012741771 -1.5734544e-16)
(459.757 -0.019888242 2.4292376e-16)
(460.15785 0.021572029 1.551108e-17)
(459.78173 -0.019583609 -1.8960732e-17)
(460.12717 0.017777631 5.1782838e-17)
(459.80678 -0.020291313 7.005992e-17)
(460.0841 0.0093631753 -1.6998918e-16)
(459.84146 -0.024241826 2.7644898e-16)
(460.05747 0.0065641664 2.7204319e-16)
(459.86 -0.0069656622 7.0611656e-17)
(460.05901 0.0059667576 1.1024724e-16)
(459.86987 0.0028352167 2.5510413e-17)
(460.0417 -0.0018011091 -2.0356115e-16)
(459.87806 0.0070688311 2.3624193e-16)
(460.01551 -0.0031961606 2.2841136e-16)
(459.89056 0.005760817 2.793607e-17)
(459.99358 -0.0028656894 1.9007811e-16)
(459.89066 0.0058934516 4.5051726e-17)
(459.9777 0.0021156067 2.3202994e-16)
(459.87944 -0.010255514 1.9955678e-16)
(459.97203 0.019691046 -1.6352995e-16)
(459.86922 -0.031344091 6.0920119e-17)
(459.96329 0.017907296 6.2890446e-17)
(459.88509 -0.028534874 9.176066e-17)
(459.96036 0.02051518 1.9192977e-16)
(459.90903 -0.0054526939 -2.3529752e-16)
(459.95319 0.019701695 -1.9897451e-16)
(459.90637 -0.022722102 4.6308074e-17)
(459.93058 -0.0084369151 3.9583732e-17)
(459.88439 0.017154063 1.5768996e-17)
(459.90591 0.010313737 -1.9893136e-16)
(459.83562 0.0062500198 3.1213589e-17)
(459.87397 0.021296913 6.7633448e-17)
(459.82758 -0.0071484181 -1.3369233e-16)
(459.865 -0.0015860651 9.7675903e-18)
(459.82398 -0.0095570046 4.6052946e-17)
(459.84095 -0.00025909172 1.7069881e-16)
(459.81961 0.0025656984 -1.0757938e-16)
(459.83166 0.0054505425 1.7757387e-16)
(459.79866 0.0091599542 -1.2309593e-16)
(459.79274 -0.0090644909 -1.1523582e-16)
(459.75989 -0.014654592 4.5113171e-17)
(459.76952 -0.013171122 1.7056856e-17)
(459.74192 -0.0082516015 -1.2626517e-16)
(459.75964 0.0075812776 4.410129e-17)
(459.74326 0.0059287058 1.6651631e-16)
(461.00213 -0.0001876012 7.631852e-18)
(458.89827 0.053364063 -1.5234658e-16)
(460.9188 -0.023382461 2.5384364e-16)
(458.92358 0.023817426 1.8702073e-17)
(460.75399 -0.034615164 -1.3551879e-16)
(459.07237 0.016238052 3.9172096e-17)
(460.56412 -0.0049486162 6.1912088e-17)
(459.24304 -0.0019832886 5.5067355e-17)
(460.40274 0.025390842 2.0981548e-16)
(459.42252 -0.026334669 4.4430878e-17)
(460.23687 0.029812565 2.4974638e-16)
(459.62294 -0.034148291 -4.5578652e-18)
(460.05898 0.029106156 9.3836626e-17)
(459.84929 -0.028318807 -1.4296861e-16)
(459.8679 0.021657378 5.6374449e-17)
(460.06203 -0.025090037 5.742578e-17)
(459.70844 0.021717811 5.7637678e-17)
(460.2098 -0.021926395 5.0060074e-17)
(459.63267 0.02716473 -1.8653522e-16)
(460.27904 -0.02001589 7.7353071e-17)
(459.62055 0.026198551 6.7686285e-17)
(460.30183 -0.021960791 2.7492652e-16)
(459.62248 0.024072701 9.3013175e-17)
(460.33743 -0.034119907 -2.0603365e-16)
(459.59751 0.022864476 -1.9809693e-16)
(460.39929 -0.026141994 6.74481e-17)
(459.56132 0.02786936 6.4919541e-17)
(460.44666 -0.012401211 2.5189672e-16)
(459.54618 0.0083629204 2.1992338e-16)
(460.45222 -0.011277353 -1.8666032e-16)
(459.5575 0.0023502566 5.9485878e-17)
(460.4079 -0.0015995157 1.9975897e-17)
(459.589 0.0062150235 2.213489e-17)
(460.3471 0.0036385569 -1.6309691e-16)
(459.61563 -0.010792349 2.4528166e-18)
(460.28295 0.0088571808 -1.8009495e-16)
(459.64323 -0.034459795 1.8508184e-17)
(460.2432 0.02433263 -2.1570563e-16)
(459.66007 -0.025573189 8.5463044e-17)
(460.22429 0.022687348 4.0901911e-16)
(459.6824 -0.0069356656 4.4574502e-17)
(460.17997 0.0028345761 6.6355154e-18)
(459.71308 0.0032627333 2.2614374e-17)
(460.12769 0.0015289817 2.3024294e-16)
(459.73783 -0.00149814 -1.5714559e-16)
(460.087 -0.00041193648 -2.6693457e-18)
(459.73546 0.0078846626 -1.6029632e-16)
(460.04783 -0.0069535388 8.2670102e-17)
(459.71447 0.0088268104 5.0994171e-17)
(460.00627 -0.005874523 3.1670085e-17)
(459.69094 -0.0096581775 -5.7933164e-17)
(459.95076 0.0073840867 -1.2100747e-16)
(459.68936 -0.025783551 1.5813778e-17)
(459.90303 0.026760437 3.8696491e-17)
(459.68073 -0.018136616 1.0223665e-17)
(459.84651 0.036432581 4.3831159e-18)
(459.63725 -0.051956935 -1.458144e-16)
(459.78586 0.0040462695 -1.1126525e-16)
(459.58172 0.018994645 1.7822956e-16)
(459.69565 -0.0012065191 5.6318088e-17)
(459.48569 0.00090408248 1.5175182e-16)
(459.59764 0.03278494 -9.3275951e-17)
(459.41631 -0.002139574 2.8165594e-17)
(459.51407 -0.0010963553 -7.0783294e-18)
(459.35409 -0.010968455 -1.2105193e-16)
(459.4151 0.0089473974 -1.34844e-16)
(459.27862 -0.0016609454 5.5388352e-18)
(459.32492 0.026326142 -1.2918275e-16)
(459.17657 0.0062969354 -1.3075375e-16)
(459.19724 -0.012857732 -1.2173362e-16)
(459.05889 -0.0094174539 2.967698e-17)
(459.0846 -0.010782858 1.8818785e-16)
(458.95239 -0.0045338194 2.2261679e-17)
(458.97498 0.0088104891 5.5639736e-18)
(458.85722 0.0044805653 1.3201898e-16)
(460.44445 0.013811443 -7.8290923e-18)
(459.06621 0.045813199 1.6941769e-16)
(460.78409 -0.015892791 -2.1076743e-17)
(458.73725 0.014162016 1.0503053e-16)
(461.02935 -0.025358226 1.1737911e-16)
(458.59776 0.0055760571 -1.1018955e-16)
(461.16623 0.0036783977 1.1808447e-16)
(458.58368 -0.007825352 1.0758296e-17)
(461.19969 0.025379398 7.2061942e-17)
(458.69698 -0.025754433 1.6816593e-16)
(461.09219 0.022330744 -1.056895e-16)
(458.92694 -0.024284591 4.4769632e-17)
(460.87373 0.016853183 1.8934034e-16)
(459.22789 -0.013055919 1.8472649e-16)
(460.59615 0.0035942489 2.2280119e-17)
(459.53157 -0.0042980826 2.7780186e-17)
(460.33038 -0.001130207 -1.5691805e-18)
(459.77891 -0.00029694337 -1.2521955e-16)
(460.14567 0.0067684467 3.1107577e-16)
(459.93984 -0.0027015322 -6.8787725e-18)
(460.02645 0.010350686 1.42761e-17)
(460.05685 -0.006792496 3.4478045e-18)
(459.90207 0.008873619 3.481643e-17)
(460.20114 -0.019157386 -2.291915e-18)
(459.73171 0.0013329967 2.6910643e-16)
(460.3776 -0.0082502771 -3.0425989e-17)
(459.54958 0.015366901 -2.0982411e-16)
(460.51519 -0.00033792587 2.4184155e-16)
(459.42271 0.0076279071 2.6546877e-18)
(460.57646 -0.019841422 -2.1859328e-16)
(459.37155 0.010848812 2.2062654e-17)
(460.55915 -0.0076616685 -5.7033076e-17)
(459.36381 0.01315044 2.5054004e-16)
(460.51393 0.0067328876 1.4494543e-17)
(459.34706 -0.010424614 -1.669627e-16)
(460.47558 0.011716022 -1.9341863e-16)
(459.31665 -0.039125808 1.4364913e-17)
(460.4525 0.02857592 1.7464018e-16)
(459.28634 -0.027778918 5.7137273e-17)
(460.40652 0.022023023 2.617932e-17)
(459.28058 -0.002830381 6.0120799e-17)
(460.30387 -0.0050921981 -2.7029168e-17)
(459.27921 0.021849818 2.3661844e-17)
(460.18206 -0.014471108 -1.1411072e-17)
(459.2474 0.014455362 2.9227773e-17)
(460.06664 -0.009202752 1.5420527e-17)
(459.17309 0.014216981 2.3073439e-17)
(459.93318 -0.01812161 -2.8420033e-17)
(459.07697 0.03041589 -1.364202e-16)
(459.76672 -0.02649587 3.4211079e-17)
(458.97672 0.010845511 1.744374e-17)
(459.56944 -0.0040101436 9.0923855e-17)
(458.87894 -0.0099806086 -8.100651e-17)
(459.37476 0.029119036 1.9115982e-17)
(458.74089 -0.016387942 -1.6360981e-17)
(459.15906 0.051967297 3.1811284e-17)
(458.54726 -0.076659431 -1.5519666e-16)
(458.94758 0.033962553 -1.6022186e-16)
(458.34083 0.0014254386 -1.1162146e-16)
(458.65486 -0.0079928475 1.8636386e-17)
(458.07669 0.0012313735 -1.238056e-17)
(458.34335 0.042461772 -7.8785472e-18)
(457.81017 -0.00072522033 -1.3555306e-16)
(458.03314 0.00057893257 -1.3327197e-16)
(457.55866 -0.0078960826 -2.5263615e-17)
(457.70935 0.024186977 -3.9937709e-17)
(457.27433 -0.0039230779 2.710767e-17)
(457.38991 0.063592401 -1.2376287e-16)
(456.94927 -0.00060021155 -1.8583415e-16)
(457.02294 -0.00016926827 -2.4282512e-18)
(456.6146 0.0032240481 -6.0140244e-18)
(456.66525 -0.00022057847 -1.1443224e-16)
(456.27132 0.0059144681 3.378259e-18)
(456.29942 0.018370619 -2.4047324e-17)
(455.93202 0.012579395 -2.1415982e-17)
(458.8972 0.023103194 -7.4145611e-17)
(460.62397 0.033984688 -1.0983899e-16)
(459.44499 -0.0065934915 -2.0637107e-16)
(460.09819 -0.0019760312 -2.5535542e-16)
(460.04813 -0.011026278 6.3184478e-17)
(459.61679 -0.0084755033 -1.0035982e-16)
(460.58598 0.013085918 -7.4457117e-17)
(459.21017 -0.014827899 7.3911821e-17)
(460.99601 0.02757215 1.0184247e-16)
(458.94088 -0.027188633 -1.5985896e-16)
(461.21582 0.017645581 3.4135859e-18)
(458.83825 -0.014392206 5.6791079e-18)
(461.24743 0.0045111745 1.397717e-16)
(458.87985 0.0048283085 1.0958074e-16)
(461.14622 -0.016576534 1.9410181e-17)
(458.99454 0.017764354 -1.635597e-17)
(460.99023 -0.021449229 4.1465458e-17)
(459.12874 0.016107617 -3.8385113e-17)
(460.84484 -0.0041352437 3.544574e-17)
(459.24008 0.0053315258 -1.6372748e-17)
(460.71105 0.0016394862 4.4010932e-17)
(459.35292 0.0094997216 7.3598942e-18)
(460.53629 -0.011417808 3.8406131e-17)
(459.51909 0.0062593653 6.4631843e-20)
(460.3009 -0.028218235 -1.907878e-16)
(459.74255 0.014839197 3.6480185e-17)
(460.02914 -0.00070814132 8.0371415e-17)
(459.95143 0.015506185 2.0239786e-16)
(459.78193 0.0025067386 5.7209358e-17)
(460.10291 -0.021986614 -8.413543e-18)
(459.59949 0.0092850575 5.6799267e-17)
(460.16423 -0.0039822855 -1.7409482e-17)
(459.44218 0.013033062 -1.2271639e-16)
(460.173 0.0090083775 2.1322058e-16)
(459.25062 0.00089958288 4.1655291e-17)
(460.1824 0.0017691141 1.9552718e-17)
(459.00364 -0.021357625 3.838405e-17)
(460.18399 0.015451398 -2.1845367e-18)
(458.74706 -0.015226589 1.8416e-16)
(460.09089 0.013248643 2.4010579e-17)
(458.5251 0.013365018 -6.444278e-18)
(459.89076 -0.027945388 1.6230179e-16)
(458.28506 0.069522397 -1.0602706e-17)
(459.63273 -0.044901035 1.9611298e-17)
(457.98727 0.049032363 4.4150536e-17)
(459.33556 -0.011406058 -4.2337123e-18)
(457.63683 0.016811935 1.5617615e-16)
(458.95266 -0.011348455 1.1992853e-16)
(457.26642 0.035344084 -8.1759618e-18)
(458.46777 -0.018975871 -3.3561323e-16)
(456.88104 0.023791451 -1.5084026e-16)
(457.93361 0.0054241015 -3.7096104e-17)
(456.46739 0.0042085472 1.3397267e-16)
(457.38788 0.041243621 -6.0438269e-18)
(455.97836 -0.0026945048 -1.4737137e-17)
(456.79339 0.065853036 7.6325572e-17)
(455.42036 -0.068366014 -1.104627e-16)
(456.2014 0.082107959 -1.6145398e-16)
(454.83448 -0.017877294 1.1217335e-16)
(455.45341 0.0074273422 1.1452076e-16)
(454.15087 0.013178617 -1.6578492e-16)
(454.69514 0.047232493 -1.8763431e-16)
(453.46722 0.0083932826 -1.3099635e-16)
(453.96697 0.0035473236 5.9531921e-17)
(452.84729 -0.00030001877 -8.3360169e-17)
(453.2522 0.027669242 -8.8691474e-17)
(452.18603 -0.008025468 -3.6233963e-17)
(452.53637 0.092978232 -5.9291521e-17)
(451.46618 -0.018758 -5.4194791e-17)
(451.71755 0.032378404 9.6384879e-17)
(450.75571 0.0091254995 -1.6958233e-16)
(450.9106 0.018354673 6.920686e-17)