/*--------------------------------*- C++ -*----------------------------------*\
| =========                 |                                                 |
| \\      /  F ield         | OpenFOAM: The Open Source CFD Toolbox           |
|  \\    /   O peration     | Version:  2.3.0                                 |
|   \\  /    A nd           | Web:      www.OpenFOAM.org                      |
|    \\/     M anipulation  |                                                 |
\*---------------------------------------------------------------------------*/
FoamFile
{
    version     2.0;
    format      ascii;
    class       volScalarField;
    location    "0.024";
    object      alpha.water;
}
// * * * * * * * * * * * * * * * * * * * * * * * * * * * * * * * * * * * * * //

dimensions      [0 0 0 0 0 0 0];

internalField   nonuniform List<scalar> 
725
(
1
1
0.999996
1.0003
0.99586
1
1
0.999996
1.00048
0.996938
1
1
0.999997
1.00022
1
1
1
0.999998
1.0001
1
1
1
0.999997
1.00005
0.999689
0.992945
0.985123
0.97659
0.976577
0.996367
1
1.00001
1.00002
1.00003
1.00004
1.00003
1.00004
1.00005
1
0.661787
0.0266767
0.0054077
0.00540485
0.0500599
0.806534
0.999799
0.999794
0.999875
0.999932
0.99996
0.999976
0.999987
0.999987
0.999984
0.99998
0.999979
0.99998
0.999983
0.999998
1.00001
1.00002
1.00003
1.00005
1.00002
1.00001
1
0.479288
0.000515537
8.17396e-05
7.03698e-05
0.996794
0.993669
0.990155
0.978242
0.996867
1
0.999899
0.999919
0.99995
0.999993
1.00001
1.00003
1.00003
1
0.661462
0.0250049
0.00541723
0.00540496
0.0549631
0.817806
0.999717
0.999626
0.999552
0.999515
0.999537
0.999598
0.999676
0.999733
0.999769
0.999797
0.999823
0.999845
0.999859
0.999866
0.999865
0.999866
0.999882
0.999929
0.999981
1
1
0.473161
0.000216616
8.16574e-05
7.00735e-05
0.945994
0.943588
0.955974
0.966427
0.998306
0.999987
0.999883
0.999889
0.999905
0.99991
0.999917
1
1.00002
1.00001
0.681559
0.0529124
0.00547783
0.00541613
0.0438182
0.775319
0.999705
0.999536
0.999542
0.99944
0.999336
0.999272
0.999267
0.999304
0.99936
0.999429
0.999507
0.999586
0.999652
0.999698
0.999724
0.999743
0.999774
0.999814
0.999995
1
0.992052
0.567832
0.0133035
4.44377e-05
8.03979e-05
0.951352
0.760979
0.828882
0.951535
0.999966
0.999964
0.999872
0.999857
0.999874
0.999886
0.999893
0.999974
0.999995
0.99987
0.606245
0.105208
0.00697989
0.0054761
0.105328
0.792543
0.999863
0.999859
0.999614
0.999512
0.999406
0.999299
0.999203
0.999132
0.999095
0.999096
0.999139
0.999215
0.999309
0.9994
0.999479
0.999548
0.999622
0.999691
0.999966
1
0.947408
0.505026
0.0106687
2.77657e-05
6.78522e-05
0.388221
0.43558
0.689233
0.862348
0.997281
0.999964
0.999856
0.999828
0.999841
0.999863
0.999873
0.999965
1.00002
1.00001
0.704783
0.0885322
0.00720787
0.00637029
0.0922306
0.673187
0.99976
0.999663
0.999678
0.99958
0.999506
0.999407
0.99929
0.999168
0.999057
0.998978
0.998945
0.998964
0.999027
0.999118
0.999223
0.999335
0.999449
0.999607
0.999848
1
0.934452
0.512227
0.000154361
6.27339e-06
1.85936e-06
3.13158e-06
0.0873336
0.561744
0.784156
0.99892
0.999948
0.999845
0.999787
0.99979
0.999839
0.999867
0.99995
1.00013
0.997286
0.718015
0.0961322
0.00721192
0.00723515
0.0778036
0.7214
0.99953
0.999354
0.99963
0.999603
0.999536
0.999429
0.999298
0.999153
0.999012
0.998897
0.998833
0.998835
0.998901
0.999009
0.999136
0.999272
0.999405
0.999573
0.999837
1.00001
0.889123
0.611194
0.0367265
0.00016167
2.20552e-05
1.11036e-05
0.0571122
0.453502
0.793251
0.999448
0.999916
0.999826
0.999758
0.99977
0.999823
0.99986
0.999937
1.00014
1.00002
0.73073
0.0935548
0.00730981
0.00732603
0.0559664
0.704964
0.999699
0.999604
0.99958
0.999562
0.999515
0.999419
0.999285
0.999133
0.998982
0.998857
0.998781
0.99877
0.998823
0.998926
0.999058
0.999209
0.999355
0.999525
0.999836
1.00003
0.890504
0.541379
0.0546069
0.000563143
0.000200716
1.14202e-05
0.0411195
0.366665
0.792095
0.995777
0.999894
0.999803
0.99974
0.999759
0.999813
0.999853
0.999924
1.00016
1.00002
0.73971
0.0898691
0.00717146
0.007494
0.04657
0.725097
0.999896
0.999786
0.99969
0.999601
0.99952
0.999412
0.999272
0.999114
0.99896
0.998833
0.998751
0.998732
0.99878
0.99888
0.999013
0.999165
0.999312
0.999466
0.999847
1.00005
0.888324
0.564728
0.049498
0.00157465
0.000658578
1.4238e-05
0.0216387
0.270258
0.655326
0.988277
0.999831
0.999784
0.999735
0.999759
0.999807
0.999845
0.999906
1.00024
1.00001
0.738652
0.0926365
0.00632312
0.00604343
0.0521875
0.692884
1.00001
1.00003
0.999734
0.999624
0.999527
0.999409
0.999263
0.999102
0.998951
0.998828
0.998748
0.998728
0.998775
0.998874
0.999005
0.999152
0.999286
0.99943
0.999827
1.00002
0.9102
0.582487
0.0582598
0.00302358
0.00227135
1.76896e-05
0.0234876
0.200131
0.36641
0.972697
0.999876
0.999733
0.999732
0.999775
0.999809
0.999839
0.999879
1.00042
0.99797
0.753237
0.0810633
0.00526989
0.00422055
0.038329
0.714572
0.999615
0.999506
0.999665
0.999622
0.999534
0.999412
0.99926
0.999102
0.998961
0.998852
0.998784
0.998772
0.99882
0.998918
0.999043
0.999173
0.999287
0.999381
0.999872
1.00009
0.9363
0.621898
0.060841
0.00223146
0.000820289
1
1
1
1.00005
1.00001
1
1
1.00001
1.00004
1
1
1
1.00002
0.999996
1
1
1
1.00003
1
1
1
1
1.00001
0.999995
1
0.00482276
0.00975915
0.0106261
0.113761
0.958025
0.999986
0.999867
0.999881
0.999859
0.999836
0.999831
0.999887
1.00023
1
0.79495
0.0575916
0.00395919
0.0039758
0.0161227
0.659155
0.999729
0.999723
0.999782
0.999619
0.999551
0.999421
0.999268
0.999114
0.99899
0.998914
0.998899
0.99894
0.999021
0.999122
0.999228
0.999328
0.999409
0.999523
0.999791
1
0.97582
0.438722
0.0237414
0.000204531
0.000251993
0.505984
0.0468261
0.0130327
0.0676149
0.909455
0.999986
0.999878
0.999844
0.999816
0.999811
0.999832
0.999871
1.00011
1
0.820991
0.0454384
0.00395603
0.00395829
0.00534999
0.651475
0.999737
0.999731
0.999684
0.999615
0.999486
0.999318
0.999168
0.999062
0.999014
0.999024
0.999082
0.99917
0.99927
0.999368
0.999454
0.999523
0.999575
0.999633
0.999792
0.999974
0.998249
0.296878
1.63454e-05
1.70878e-05
2.04088e-05
0.801688
0.0204502
0.0198626
0.0215763
0.656839
0.999986
0.999782
0.999771
0.999787
0.999812
0.999846
0.99986
1.00003
1
0.823177
0.0355966
0.0039562
0.00395648
0.00395913
0.558282
0.998699
0.999737
0.999601
0.999452
0.999285
0.999155
0.99909
0.999106
0.999184
0.999293
0.999408
0.999512
0.999599
0.999666
0.999714
0.999745
0.999765
0.999778
0.999845
0.999983
1
0.361897
1.11292e-05
8.44193e-06
9.73319e-06
0.851948
0.346871
0.0205406
0.0262184
0.52042
0.999986
0.999675
0.999774
0.999812
0.999839
0.999873
0.999905
0.999968
1
0.79243
0.0357861
0.00395645
0.00395646
0.00400637
0.53632
0.998715
0.999735
0.999355
0.999208
0.9992
0.999305
0.999439
0.999562
0.99966
0.999729
0.999773
0.999805
0.999831
0.999852
0.999867
0.999881
0.999894
0.999898
0.999922
0.999988
1
0.331614
5.73928e-06
5.64746e-06
6.67467e-06
0.776126
0.477731
0.0460631
0.0265862
0.540902
0.999986
0.999756
0.999877
0.999923
1.00001
1.00002
1.00002
1.00001
1
0.765099
0.0378711
0.00395645
0.00395646
0.00452716
0.517787
0.998337
0.999733
0.999734
0.999848
0.999999
1.00003
1.00002
1.00002
1.00002
1.00002
1.00001
1.00001
1.00001
1.00001
1.00001
1.00001
1.00001
1.00001
1.00001
1.00001
1
0.306772
8.43725e-06
5.68251e-06
1.05777e-05
)
;

boundaryField
{
    AirInlet
    {
        type            fixedValue;
        value           uniform 0;
    }
    WaterInlet
    {
        type            fixedValue;
        value           uniform 1;
    }
    ChannelWall
    {
        type            zeroGradient;
    }
    Outlet
    {
        type            inletOutlet;
        inletValue      uniform 0;
        value           nonuniform List<scalar> 
15
(
0
0
0
0
0
2.20552e-05
0.000200716
0.000658578
0.00227135
0.000820289
0.000251993
2.04088e-05
9.73319e-06
6.67467e-06
1.05777e-05
)
;
    }
    FrontAndBack
    {
        type            empty;
    }
}


// ************************************************************************* //
