/*--------------------------------*- C++ -*----------------------------------*\
| =========                 |                                                 |
| \\      /  F ield         | OpenFOAM: The Open Source CFD Toolbox           |
|  \\    /   O peration     | Version:  2.3.0                                 |
|   \\  /    A nd           | Web:      www.OpenFOAM.org                      |
|    \\/     M anipulation  |                                                 |
\*---------------------------------------------------------------------------*/
FoamFile
{
    version     2.0;
    format      ascii;
    class       volScalarField;
    location    "0.024";
    object      alpha.water;
}
// * * * * * * * * * * * * * * * * * * * * * * * * * * * * * * * * * * * * * //

dimensions      [0 0 0 0 0 0 0];

internalField   nonuniform List<scalar> 
725
(
1
1
1
1
1
1
1
1
1
1
1
1
1
1
1
1
1
1
1
1
1
1
1
1
1.00004
0.999989
1
0.959109
0.780367
0.180135
0.0573817
0.658232
0.998738
0.999858
0.999521
0.999662
0.999745
0.999798
0.999832
0.999853
0.999866
0.999875
0.999882
0.999886
0.999885
0.999883
0.999886
0.999894
0.999894
0.999888
0.999876
0.999859
0.999843
0.999832
0.999828
0.999827
0.999821
0.999821
0.999824
0.999829
0.999835
0.999841
0.999848
0.999863
0.999877
0.999888
0.999898
0.999906
0.999912
0.999904
1.00003
1.00001
0.979967
0.685833
0.155755
0.046267
0.593968
0.99988
0.999906
0.999598
0.999628
0.999721
0.999762
0.999802
0.999833
0.999861
0.999988
0.999975
0.99996
0.99995
0.99993
0.999953
0.999919
0.999903
0.999947
0.999943
0.999933
0.999919
0.999897
0.99986
0.999839
0.999822
0.999792
0.999773
0.999762
0.999756
0.999749
0.999747
0.999753
0.999766
0.999777
0.999787
0.999798
0.999813
0.999825
1.00001
0.999954
0.99598
0.51217
0.106983
0.0317966
0.411843
0.998556
0.999959
0.999933
0.999948
0.999916
0.999872
0.999872
0.999865
0.999859
0.999862
0.999874
0.999878
0.999862
0.999828
0.999746
0.99969
0.999634
0.999667
0.999744
0.999815
0.999857
0.999844
0.999882
0.999884
0.999879
0.99985
0.99982
0.999782
0.999757
0.999749
0.999754
0.999732
0.999726
0.999725
0.999723
0.999722
0.999726
0.999735
1.00004
0.999994
0.999994
0.206437
0.0199133
0.0288098
0.545983
0.99994
0.999944
0.999979
0.999922
0.999879
0.999901
0.999873
0.99987
0.999867
0.999864
0.999862
0.99985
0.999801
0.999717
0.999534
0.999576
0.999511
0.999341
0.999749
0.999975
0.999893
0.999801
0.999669
0.997729
0.998383
0.999829
0.99982
0.999654
0.999643
0.999864
0.999867
0.999741
0.999697
0.999689
0.999669
0.999641
0.999629
0.999649
0.996735
0.999994
0.545318
0.0131456
0.0176191
0.0277193
0.437211
0.999926
0.999982
0.999979
0.999927
0.99987
0.999788
0.999773
0.999786
0.999816
0.999836
0.999874
0.999896
0.999966
0.999848
0.999731
0.999169
0.997824
0.998411
0.999595
0.999345
0.999807
0.999864
0.999095
0.977025
0.973949
0.989698
0.998642
0.999736
0.999749
0.999811
0.998487
0.997983
0.9985
0.999611
0.99955
0.99949
0.99948
0.99951
0.334607
0.99997
0.141471
0.00731429
0.0122533
0.20752
0.597959
0.974728
1
1
0.999906
0.999855
0.9998
0.99978
0.999777
0.999789
0.999807
0.999836
0.999845
0.999813
0.999441
0.998847
0.995682
0.992856
0.992869
0.992973
0.998095
0.999822
0.992991
0.974555
0.97021
0.970168
0.970139
0.975145
0.999684
0.998412
0.992995
0.980763
0.988094
0.998505
0.998833
0.999189
0.9992
0.999247
0.999376
0.000709969
0.909373
0.0424322
0.00659007
0.0106267
0.164301
0.698212
0.996277
0.999992
0.999968
0.999881
0.999844
0.999805
0.999797
0.999798
0.999803
0.999919
0.999855
0.999783
0.9995
0.999161
0.998191
0.992872
0.99285
0.99285
0.992851
0.99563
0.999619
0.989469
0.970319
0.970164
0.970118
0.970054
0.970052
0.993147
0.983877
0.980758
0.98075
0.984984
0.997341
0.998327
0.998812
0.999011
0.999142
0.99927
0.0254532
0.272132
0.00665986
0.00372704
0.0147835
0.366149
0.658526
0.992638
0.999916
0.999908
0.99987
0.999842
0.999812
0.999815
0.999822
0.999832
0.999846
0.99984
0.99974
1.00002
0.999762
0.994334
0.992902
0.992858
0.99285
0.992852
0.994196
0.995266
0.99452
0.98022
0.971572
0.970244
0.970114
0.970055
0.970118
0.991781
0.982392
0.980753
0.980766
0.991398
0.999067
0.999052
0.999258
0.999331
0.999325
0.00127905
0.00142386
0.00322839
0.00261173
0.00360662
0.413412
0.699253
0.986541
0.999938
0.999906
0.999871
0.999832
0.999814
0.999834
0.999848
0.999852
0.999855
0.999847
0.999784
0.999726
0.999101
0.99706
0.993594
0.995176
0.996315
0.996907
0.995584
0.993223
0.994564
0.99457
0.991381
0.973512
0.970088
0.970044
0.989382
0.999945
0.996836
0.981274
0.980766
0.992203
0.998481
0.999539
0.999519
0.999467
0.999425
1.38478e-05
0.000401921
0.000711484
0.00131843
0.0453801
0.392626
0.707693
0.987908
0.999548
0.999249
0.999793
0.999813
0.999817
0.999844
0.99988
0.999889
0.99989
0.999877
0.99984
0.999937
0.999568
0.99841
0.99745
0.999065
0.999633
0.99889
0.988411
0.98249
0.991955
0.994521
0.987205
0.970408
0.970109
0.970063
0.992994
1
1.00001
0.984363
0.984649
0.997523
0.999001
0.999121
0.99906
0.998974
0.999348
1
1
1
1
0.978355
1
1
1
1.00003
1
1
1
1
1
1.00001
1
1
1
1
1.00001
1
1
1
1
1
0.00613646
0.000701574
0.000700628
0.000702237
0.0507831
0.476171
0.815755
0.993184
0.999564
0.999093
0.998898
0.999181
0.999893
0.999947
0.999912
0.999901
0.999891
0.999877
0.999857
0.999848
0.999805
0.999411
0.998788
0.999533
1
0.98785
0.981573
0.981571
0.984051
0.988499
0.972618
0.970201
0.970173
0.983439
0.997084
1.00001
1
0.985037
0.987365
0.998649
0.99994
0.999924
0.999441
0.997039
0.99776
0.815157
0.00910155
0.0107848
0.118988
0.266819
0.637779
0.923156
0.995596
0.999676
0.999314
0.998827
0.999301
0.999894
0.999906
0.999901
0.999881
0.999861
0.999847
0.999837
0.999831
0.999865
0.999865
0.999882
0.999967
1
0.995494
0.982377
0.981573
0.989389
0.99909
0.998708
0.992554
0.992119
0.998703
0.999988
0.999966
0.999649
0.985082
0.983725
0.993773
1.00001
1
0.997836
0.987801
0.987386
1
0.717174
0.347894
0.401404
0.579435
0.784624
0.950673
0.987596
0.999902
0.999899
0.999797
0.9999
0.999975
0.999959
0.999935
0.9999
0.999874
0.999859
0.999848
0.999847
0.999861
0.999871
0.999717
0.99994
0.999532
0.998638
0.996915
0.99903
0.999831
0.999835
1
1
0.999999
0.999957
0.999988
0.996987
0.986418
0.983958
0.990723
0.999848
1.00003
1
0.99117
0.987799
0.988361
1
1
0.923376
0.887758
0.904093
0.978261
0.997219
0.983716
0.99752
0.999939
0.999971
0.999942
0.999924
0.999905
0.999749
0.999453
0.999313
0.999333
0.999413
0.999542
0.999771
1.00009
0.997662
0.995149
0.995143
0.996741
0.999524
0.99949
0.999025
0.998965
0.999871
0.999881
0.999996
0.99999
0.993464
0.984586
0.983958
0.983959
0.987813
0.999004
1
0.999539
0.997313
0.995625
0.996544
0.999988
0.999995
1
0.999516
0.9996
0.999597
0.997238
0.983713
0.999472
0.999849
0.999815
0.999764
0.999687
0.999874
0.994697
0.993438
0.993524
0.994247
0.995226
0.996174
0.995964
0.995127
0.994924
0.997357
0.998963
0.999283
0.999524
0.999098
0.988147
0.98672
0.987023
0.986568
0.988013
0.994328
0.994988
0.994987
0.994999
0.996311
0.998428
0.998443
0.998498
0.998489
0.998487
0.996979
0.996127
)
;

boundaryField
{
    AirInlet
    {
        type            fixedValue;
        value           uniform 0;
    }
    WaterInlet
    {
        type            fixedValue;
        value           uniform 1;
    }
    ChannelWall
    {
        type            zeroGradient;
    }
    Outlet
    {
        type            inletOutlet;
        inletValue      uniform 0;
        value           nonuniform List<scalar> 
15
(
0.999904
0.999825
0.999735
0.999649
0.99951
0.999376
0.99927
0.999325
0.999425
0.999348
0.99776
0.987386
0.988361
0.996544
0.996127
)
;
    }
    FrontAndBack
    {
        type            empty;
    }
}


// ************************************************************************* //
