/*--------------------------------*- C++ -*----------------------------------*\
| =========                 |                                                 |
| \\      /  F ield         | OpenFOAM: The Open Source CFD Toolbox           |
|  \\    /   O peration     | Version:  2.3.0                                 |
|   \\  /    A nd           | Web:      www.OpenFOAM.org                      |
|    \\/     M anipulation  |                                                 |
\*---------------------------------------------------------------------------*/
FoamFile
{
    version     2.0;
    format      ascii;
    class       volScalarField;
    location    "0.024";
    object      p;
}
// * * * * * * * * * * * * * * * * * * * * * * * * * * * * * * * * * * * * * //

dimensions      [1 -1 -2 0 0 0 0];

internalField   nonuniform List<scalar> 
725
(
405.444
363.065
351.557
340.692
335.177
399.542
363.457
351.883
343.308
325.912
396.844
363.267
351.599
341.243
317.377
397.161
362.266
350.861
341.043
298.755
400.383
360.514
349.928
342.141
269.802
377.602
267.143
277.051
372.257
248.59
227.401
231.496
233.184
233.595
231.852
226.686
220.579
203.491
199.665
91.7519
193.353
249.699
244.897
212.433
269.28
236.409
214.927
201.524
190.589
184.103
180.053
177.001
174.702
172.986
171.528
170.169
168.881
167.66
166.714
166.213
166.499
167.543
171.662
169.97
166.562
111.697
-218.825
2.04505
2.98621
-0.153577
398.925
266.701
345.941
370.906
237.308
226.637
232.353
233.503
233.744
232.35
227.871
222.015
206.899
200.061
90.8509
197
248.548
245.122
193.334
242.904
234.023
212.6
199.255
188.291
182.003
178.29
175.579
173.54
172.009
170.685
169.433
168.227
167.053
166.056
165.475
165.768
167.081
172.131
175.197
183.707
169.577
-101.96
0.896691
3.0782
-0.0694693
500.897
184.712
374.006
388.692
206.396
221.814
234.32
234.503
234.608
233.479
229.512
224.464
207.257
186.025
127.183
188.527
245.971
246.832
153.28
235.213
236.016
210.507
197.815
187.393
182.17
178.225
175.321
173.305
171.84
170.553
169.303
168.087
166.875
165.822
165.161
165.381
166.736
172.482
178.606
195.772
245.154
333.354
-0.33178
3.37342
0.049621
586.045
135.074
655.974
385.103
163.744
217.755
236.756
235.626
235.771
234.971
231.786
228.251
209.984
179.109
218.857
199.639
249.2
245.379
165.191
333.562
235.363
208.214
193.842
184.58
180.072
177.158
175.204
173.4
171.774
170.443
169.186
167.953
166.67
165.508
164.682
164.672
165.789
171.643
179.617
209.142
161.834
-378.574
-18.6558
4.41397
0.0900522
1083.96
168.818
1076.67
446.745
121.022
223.574
240.681
236.739
237.324
236.711
234.511
233.624
226.654
217.565
227.993
162.321
250.752
235.84
223.196
375.811
213.811
199.997
189.809
182.013
178.444
176.112
174.246
172.755
171.531
170.356
169.094
167.85
166.466
165.154
164.076
163.684
164.139
168.473
174.381
221.444
348.567
-75.4006
-20.9015
3.65857
0.260388
1468.08
942.948
1245.54
1294.68
128.135
236.931
245.223
236.901
238.521
237.833
236.107
236.882
239.37
239.333
321.497
222.371
246.028
228.758
182.301
192.871
213.765
196.536
187.152
179.79
177.715
175.744
173.943
172.483
171.401
170.333
169.069
167.833
166.348
164.919
163.632
162.973
162.728
166.315
168.595
192.021
569.748
1428.8
34.7691
0.912087
-0.0544983
1471.64
1045.27
1329.83
1268.17
130.477
235.688
246.488
237.091
239.011
238.27
236.718
237.919
243.356
244.248
359.171
236.336
244.723
227.768
217.113
129.756
215.87
195.493
187.521
180.173
177.22
175.358
173.692
172.355
171.381
170.359
169.077
167.838
166.328
164.87
163.522
162.749
162.263
165.443
166.409
179.303
541.091
1948.09
158.214
-2.66168
-1.14291
1470.07
1114.62
1434.5
1180.66
54.805
227.981
247.363
237.406
239.761
238.748
237.356
238.868
246.216
242.028
382.972
247.656
243.222
227.803
267.04
169.575
216.173
194.4
183.797
178.123
176.601
175.102
173.544
172.32
171.48
170.657
169.588
168.32
166.866
165.383
163.876
162.74
161.905
164.623
164.51
171.247
602.054
1897.96
160.255
-9.23248
-3.91909
1469.62
1190.53
1421.87
550.833
-9.67821
215.32
248.005
237.979
240.238
239.344
237.979
239.751
248.657
233.53
375.332
261.674
241.163
225.681
258.947
209.352
212.574
201.581
183.752
177.431
175.989
174.842
173.452
172.345
171.613
170.766
169.654
168.421
166.993
165.513
164.016
162.944
162.053
163.923
162.879
169.744
480.31
2213.49
149.992
-2.7258
45.5393
1468.2
1164.63
1368.7
558.835
37.9116
201.565
249.592
238.588
240.456
239.71
238.577
240.582
251.962
233.264
320.229
227.318
241.885
236.178
210.202
191.006
211.547
179.429
179.817
176.548
175.476
174.547
173.298
172.249
171.374
170.194
168.908
167.369
165.921
164.46
163.001
162.072
161.66
163.98
161.838
174.274
492.839
2976.43
138.704
-8.17826
-1.13045
1632.34
1598.54
1571.6
1600.05
1535.45
1629.07
1600.8
1570.02
1597.52
1397.4
1628.68
1602.65
1572.31
1620.56
1409.27
1631.2
1603.02
1573.18
1626.45
1473.04
1636.72
1601.96
1569.7
1606.79
1466.56
1382.1
1246.99
1258.64
854.113
56.4359
169.183
245.393
240.18
241.455
240.549
240.147
242.405
250.895
249.436
258.51
197.993
243.181
236.809
177.422
188.241
209.078
172.3
175.016
174.132
174.128
173.792
172.843
171.882
170.954
169.855
168.621
167.166
165.653
164.06
162.378
160.737
158.429
157.435
157.056
183.35
446.851
-409.84
-38.8781
-10.9176
-0.207925
1138.19
1121.15
1277.51
932.292
436.038
184.148
253.704
240.932
242.838
242.053
241.913
244.637
254.375
273.195
351.765
213.788
240.555
235.369
205.007
111.823
160.779
154.479
166.886
169.783
171.5
172.329
172.416
171.883
170.735
169.535
168.336
166.924
165.367
163.651
161.692
159.409
155.999
151.992
144.573
131.554
-30.1502
-780.378
-8.18317
-7.01789
-0.615065
1404.07
1113.17
1163.05
1063.61
474.89
179.638
249.745
241.098
244.55
243.269
243.163
245.546
251.801
269.145
344.624
221.456
239.102
236.72
218.332
74.247
117.012
132.536
156.633
166.124
170.769
172.736
172.549
171.371
170.342
169.302
168.13
166.731
165.14
163.327
161.14
158.333
153.867
147.112
133.083
101.31
-10.8202
-193.836
-10.2098
-5.54128
-0.185022
1622.08
732.013
1186.06
1103.46
540.409
143.041
244.43
241.824
245.662
244.228
244.077
245.384
245.432
239.567
170.874
228.749
239.294
238.552
224.504
34.2787
86.4995
122.488
153.07
165.481
169.965
171.103
171.324
170.982
170.147
169.146
167.983
166.591
164.979
163.105
160.768
157.61
152.392
143.66
125.368
90.4191
50.6887
41.4774
-10.9214
-4.56599
0.317147
1615.51
1184.36
1067.69
1102.87
547.798
220.066
252.807
244.68
247.355
245.78
245.386
245.758
240.676
218.955
75.8559
239.726
239.671
239.313
225.614
105.717
78.9398
117.125
152.099
163.545
172.025
173.439
173.319
172.575
171.42
170.162
168.819
167.307
165.599
163.625
161.152
157.818
152.189
142.467
121.628
81.5176
-10.8944
-104.016
-7.7987
-3.952
0.642898
)
;

boundaryField
{
    AirInlet
    {
        type            calculated;
        value           nonuniform List<scalar> 5(1468.08 1472.04 1470.06 1469.81 1468.54);
    }
    WaterInlet
    {
        type            calculated;
        value           nonuniform List<scalar> 10(405.446 399.548 396.854 397.176 400.401 1632.32 1629.06 1628.67 1631.19 1636.72);
    }
    ChannelWall
    {
        type            calculated;
        value           nonuniform List<scalar> 
110
(
400.357
360.484
349.894
342.103
269.761
1632.37
1598.57
1571.64
1600.09
1535.49
1636.7
1601.93
1569.66
1606.75
1466.52
1615.48
1184.34
1067.69
1102.87
547.774
220.022
252.763
244.636
247.31
245.736
245.342
245.714
240.632
218.911
75.8221
239.724
239.671
239.312
225.614
105.694
78.8957
117.08
152.055
163.501
171.981
173.395
173.275
172.531
171.376
170.118
168.774
167.263
165.555
163.581
161.108
157.774
152.145
142.423
121.584
81.4735
-10.9385
-104.03
-7.79874
-3.95205
0.642853
405.471
363.095
351.592
340.73
335.219
377.646
267.187
277.094
372.3
248.634
227.445
231.54
233.228
233.639
231.896
226.73
220.623
203.535
199.709
91.7811
193.354
249.699
244.897
212.435
269.315
236.453
214.971
201.568
190.634
184.147
180.097
177.045
174.746
173.03
171.572
170.213
168.925
167.704
166.758
166.257
166.544
167.587
171.706
170.014
166.606
111.741
-218.804
2.04511
2.98626
-0.15353
)
;
    }
    Outlet
    {
        type            calculated;
        value           nonuniform List<scalar> 
15
(
-0.112282
-0.399698
-0.532821
-0.379802
-0.0313849
-0.000461203
-0.000565299
-0.000813209
-0.00166762
-0.000963845
-0.000730635
-0.000685686
-0.000767667
-0.000854223
-0.000946755
)
;
    }
    FrontAndBack
    {
        type            empty;
    }
}


// ************************************************************************* //
