/*--------------------------------*- C++ -*----------------------------------*\
| =========                 |                                                 |
| \\      /  F ield         | OpenFOAM: The Open Source CFD Toolbox           |
|  \\    /   O peration     | Version:  2.3.0                                 |
|   \\  /    A nd           | Web:      www.OpenFOAM.org                      |
|    \\/     M anipulation  |                                                 |
\*---------------------------------------------------------------------------*/
FoamFile
{
    version     2.0;
    format      ascii;
    class       volScalarField;
    location    "0.024";
    object      p;
}
// * * * * * * * * * * * * * * * * * * * * * * * * * * * * * * * * * * * * * //

dimensions      [1 -1 -2 0 0 0 0];

internalField   nonuniform List<scalar> 
725
(
2239.26
2063.62
2013.06
1993.5
1977.95
2211.85
2065.8
2014.59
1994.34
1976.06
2197.13
2066.66
2013.69
1990.51
1963.04
2194.74
2062.71
2009.88
1983.52
1941.5
2203.17
2056.77
2004.61
1976.61
1920.27
2003.32
2112.19
2099.85
2143.92
1335.83
1471.09
255.188
129.761
216.47
171.112
162.058
157.412
160.165
161.19
158.469
153.809
148.926
143.828
139.202
135.089
132.029
133.798
144.607
158.571
168.185
175.41
173.737
181.564
197.907
219.418
246.7
209.089
157.67
113.742
51.4955
11.5533
-1.6442
14.3968
24.803
18.6979
12.9637
8.35692
5.63368
4.16738
0.649374
1997.43
2122.75
2053.95
1807.53
1363.11
1544.58
38.4655
16.1557
188.423
168.945
161.714
155.953
158.659
160.443
158.146
153.577
149.43
144.458
139.502
135.206
131.524
132.094
142.647
156.613
168.169
180.103
173.426
180.303
197.583
224.396
253.013
208.392
155.447
112.501
49.4946
7.70285
-5.44666
14.3965
25.5519
18.6654
13.0995
8.25428
5.23453
3.77652
0.678936
1968.18
2126.9
2062.48
1414.78
1367.11
1606.23
158.65
-41.5289
184.863
174.911
161.054
153.799
156.78
159.764
157.769
153.29
148.313
143.315
138.74
134.493
130.357
129.087
140.192
153.332
166.312
188.602
169.844
174.814
193.46
234.063
271.2
207.995
151.891
110.753
42.705
-0.707151
-14.7934
16.0164
28.7413
18.2012
13.5755
8.42241
5.27244
3.75195
1.15697
1904.06
2099.41
1997.05
1373.45
1521.49
1614.11
-145.712
-17.5421
185.149
176.353
159.012
152.672
156.116
158.918
157.148
152.849
147.989
143.077
138.466
134.288
128.727
125.282
137.734
147.557
159.906
204.757
163.616
166.107
184.455
251.106
306.541
204.404
146.49
108.926
30.6956
-14.3221
-30.4887
22.0602
34.5074
16.3584
14.2007
8.29154
5.43075
3.52214
1.97198
1791.38
2170.59
1318.54
1547.75
1528.67
1606.65
333.891
-337.055
189.278
168.127
154.51
154.269
156.999
159.25
157.029
152.425
147.741
142.644
138.09
134.471
126.837
120.127
136.822
139.928
145.716
237.931
148.484
147.011
164.632
281.934
382.665
204.444
139.693
109.46
12.741
-32.4696
-59.3177
33.6833
44.0429
15.0314
15.7873
7.44056
5.88729
2.68158
3.38886
1729.56
2150.88
1594.6
1586.37
1552.36
95.8063
395.576
-51.7325
202.157
155.752
150.615
156.476
157.936
159.115
156.664
152.789
147.595
142.752
137.883
134.838
131.298
113.34
140.175
138.211
131.517
286.609
127.114
136.677
196.254
398.105
471.106
177.605
137.007
135.167
-0.199656
-51.903
-91.581
65.1981
62.408
10.2438
17.7196
5.7804
6.94286
2.27141
4.83434
2022.57
1934.53
1689.42
1581.29
1551.83
486.937
1215.9
36.6755
193.941
149.973
149.564
157.319
158.363
159.108
156.529
152.449
151.472
142.9
137.803
145.925
137.232
110.755
143.36
136.711
125.977
308.381
117.648
128.818
295.765
560.915
503.778
166.831
135.913
143.621
-13.2813
443.091
317.57
74.5931
67.4117
4.16303
30.7693
18.1459
13.7467
5.55064
9.03134
1920.42
1665.52
1651.46
1565.25
1537.61
182.152
987.824
58.0323
179.868
143.829
148.773
158.194
158.87
159.135
156.426
152.34
148.756
142.881
139.172
130.971
134.88
235.652
143.846
134.06
120.136
326.718
108.951
109.568
151.392
239.041
486.81
148.287
129.813
149.351
758.281
168.687
247.231
79.9954
133.723
130.652
17.4693
9.67257
5.68554
5.07566
8.01944
1848.75
1635.42
1638.2
1575.92
1672.25
864.627
773.073
58.0438
169.154
139
148.09
159.052
159.45
159.188
156.339
152.252
148.406
142.679
137.626
129.443
138.936
140.978
119.142
130.732
114.225
355.022
99.3784
101.406
146.285
244.901
592.218
228.734
123.984
150.809
103.388
173.116
236.045
82.7595
136.668
103.357
22.0024
22.4038
15.4584
9.22834
12.4029
1884.18
1632.69
1634.56
1612.98
1329.69
652.507
685.111
66.1617
160.583
134.258
147.337
159.892
160.16
159.302
156.264
152.167
147.182
142.532
137.589
129.4
128.361
137.008
117.963
126.774
111.09
444.03
104.978
99.5748
52.5168
248.309
481.7
123.512
116.567
150.848
109.265
171.318
235.383
83.1351
56.8754
40.6389
15.3416
6.61419
-0.267544
8.58854
10.7864
1189
1042.67
992.967
969.998
956.754
1180.37
1048.12
996.262
964.977
925.67
1182.54
1051.64
999.058
973.792
943.486
1197.09
1050.44
999.011
975.713
943.651
1224.38
1048.12
997.357
975.324
943.441
1544.12
1627.44
1632.76
1626.26
1374.13
524.348
450.658
100.574
145.36
128.947
145.775
162.98
162.883
159.908
156.101
151.933
147.097
142.284
137.191
130.69
127.271
130.918
117.298
115.469
85.2136
-32.0919
102.083
88.7084
39.8518
-90.1984
-105.517
92.894
93.5202
88.9849
118.231
164.37
213.636
80.0492
51.3216
50.512
16.7905
14.8651
1.3235
7.66633
13.955
1085.01
1555.09
1539.22
1351.64
1001.52
434.025
372.267
189.385
148.199
127.262
149.895
165.277
164.958
160.094
155.623
151.42
146.619
141.718
136.758
130.775
126.997
126.973
119.252
105.426
66.6446
-27.2006
78.212
61.9845
-17.4926
-112.503
-227.143
-88.3889
41.7341
72.6953
123.495
147.61
179.754
102.905
81.3951
37.635
18.5263
14.5348
2.05186
38.9654
23.3495
985.726
1021.96
1128.31
1108.8
744.939
342.315
292.766
210.238
154.822
133.867
147.648
164.535
166.255
160.716
155.656
151.394
146.483
141.468
136.418
130.694
126.418
123.667
113.866
95.7414
56.6465
-4.7276
28.9573
33.1709
15.324
-83.1472
-154.585
-26.8236
78.3545
83.3462
115.553
126.792
154.988
111.676
49.8066
36.1719
21.0863
12.71
41.4385
42.2899
23.5557
973.656
906.764
859.519
786.913
562.521
236.925
224.548
223.758
161.042
140.764
154.884
166.507
166.072
160.39
155.537
151.473
146.475
141.288
136.083
130.447
126.004
123.079
111.943
103.596
87.5272
14.4468
28.9153
25.4596
-1.75392
-76.5949
-121.844
-20.6046
68.688
83.8434
121.503
203.697
174.924
110.721
63.4936
38.704
21.9482
11.2089
-0.498606
-8.33823
-27.5237
985.497
942.382
1130.47
1165.5
908.118
402.275
237.935
229.539
150.227
138.454
157.122
167.11
166.441
159.829
178.131
178.434
170.705
161.76
151.974
141.929
138.724
139.873
124.959
94.4132
68.856
27.9918
28.6181
17.1855
43.6569
-18.5813
-57.6919
40.9525
113.96
95.5744
123.522
156.564
129.291
137.911
84.7242
40.3144
23.8179
10.9658
2.32584
-4.68347
-25.8862
)
;

boundaryField
{
    AirInlet
    {
        type            calculated;
        value           nonuniform List<scalar> 5(1766.76 2023.74 2095.56 1832.46 1885.14);
    }
    WaterInlet
    {
        type            calculated;
        value           nonuniform List<scalar> 10(2239.26 2211.86 2197.14 2194.76 2203.19 1188.98 1180.35 1182.53 1197.08 1224.38);
    }
    ChannelWall
    {
        type            calculated;
        value           nonuniform List<scalar> 
110
(
2203.15
2056.74
2004.58
1976.57
1920.23
1189.03
1042.7
993.001
970.036
956.795
1224.35
1048.09
997.323
975.286
943.399
985.453
942.338
1130.43
1165.45
908.074
402.231
237.891
229.495
150.183
138.41
157.078
167.066
166.397
159.785
178.087
178.39
170.661
161.716
151.93
141.885
138.68
139.829
124.915
94.3692
68.8119
27.9476
28.574
17.1414
43.6133
-18.6249
-57.7354
40.9089
113.916
95.5305
123.478
156.52
129.247
137.868
84.6801
40.2704
23.7738
10.9217
2.28176
-4.72748
-25.9301
2239.28
2063.65
2013.1
1993.53
1978
2003.36
2112.24
2099.9
2143.95
1335.84
1471.09
255.217
129.805
216.514
171.156
162.102
157.456
160.209
161.234
158.513
153.853
148.971
143.872
139.246
135.133
132.074
133.842
144.652
158.615
168.229
175.454
173.781
181.608
197.951
219.462
246.744
209.133
157.715
113.786
51.5397
11.5975
-1.60006
14.4409
24.8472
18.742
13.0079
8.40106
5.67782
4.21152
0.693515
)
;
    }
    Outlet
    {
        type            calculated;
        value           nonuniform List<scalar> 
15
(
-0.0441408
-0.132412
-0.220667
-0.308907
-0.39711
-0.450979
-0.470536
-0.490169
-0.509827
-0.529395
-0.582389
-0.663517
-0.751435
-0.845635
-0.93323
)
;
    }
    FrontAndBack
    {
        type            empty;
    }
}


// ************************************************************************* //
