/*--------------------------------*- C++ -*----------------------------------*\
| =========                 |                                                 |
| \\      /  F ield         | OpenFOAM: The Open Source CFD Toolbox           |
|  \\    /   O peration     | Version:  2.3.0                                 |
|   \\  /    A nd           | Web:      www.OpenFOAM.org                      |
|    \\/     M anipulation  |                                                 |
\*---------------------------------------------------------------------------*/
FoamFile
{
    version     2.0;
    format      ascii;
    class       volScalarField;
    location    "0.024";
    object      p_rgh;
}
// * * * * * * * * * * * * * * * * * * * * * * * * * * * * * * * * * * * * * //

dimensions      [1 -1 -2 0 0 0 0];

internalField   nonuniform List<scalar> 
725
(
2239.28
2063.65
2013.1
1993.53
1978
2211.93
2065.89
2014.7
1994.45
1976.18
2197.26
2066.81
2013.86
1990.7
1963.25
2194.93
2062.92
2010.12
1983.79
1941.8
2203.41
2057.04
2004.92
1976.95
1920.65
2003.36
2112.24
2099.9
2143.95
1335.84
1471.09
255.217
129.805
216.514
171.156
162.102
157.456
160.209
161.234
158.513
153.853
148.971
143.872
139.246
135.133
132.074
133.842
144.652
158.615
168.229
175.454
173.781
181.608
197.951
219.462
246.744
209.133
157.715
113.786
51.5397
11.5975
-1.60006
14.4409
24.8472
18.742
13.0079
8.40106
5.67782
4.21152
0.693515
1997.56
2122.89
2054.08
1807.62
1363.13
1544.58
38.5443
16.2881
188.556
169.078
161.846
156.085
158.791
160.576
158.279
153.71
149.563
144.59
139.634
135.338
131.656
132.227
142.78
156.746
168.302
180.236
173.558
180.436
197.716
224.529
253.145
208.524
155.579
112.633
49.627
7.83525
-5.31426
14.5289
25.6843
18.7978
13.2319
8.38669
5.36694
3.90893
0.811348
1968.4
2127.12
2062.7
1414.89
1367.13
1606.23
158.741
-41.3085
185.084
175.131
161.274
154.02
157.001
159.984
157.99
153.51
148.534
143.536
138.96
134.713
130.577
129.308
140.412
153.553
166.533
188.823
170.065
175.034
193.68
234.283
271.42
208.216
152.112
110.974
42.9257
-0.486479
-14.5727
16.2371
28.962
18.4218
13.7962
8.64307
5.49311
3.97261
1.37764
1904.37
2099.71
1997.36
1373.51
1521.5
1614.12
-145.543
-17.2331
185.458
176.662
159.321
152.981
156.425
159.227
157.457
153.158
148.298
143.386
138.775
134.597
129.036
125.59
138.043
147.866
160.215
205.066
163.925
166.416
184.764
251.415
306.85
204.713
146.799
109.235
31.0045
-14.0132
-30.1797
22.3691
34.8163
16.6673
14.5096
8.60045
5.73965
3.83104
2.28089
1791.78
2170.99
1318.76
1547.76
1528.68
1606.66
334.064
-336.658
189.675
168.524
154.907
154.667
157.396
159.647
157.426
152.823
148.138
143.041
138.487
134.868
127.234
120.524
137.219
140.324
146.113
238.328
148.881
147.408
165.029
282.331
383.053
204.831
140.086
109.857
13.1382
-32.0724
-58.9205
34.08
44.4394
15.4281
16.1844
7.83769
6.28439
3.07868
3.78597
1729.71
2151.33
1594.66
1586.37
1552.36
95.9003
395.846
-51.2926
202.609
156.204
151.066
156.927
158.387
159.567
157.115
153.24
148.047
143.203
138.334
135.289
131.749
113.791
140.624
138.659
131.965
287.057
127.564
137.128
196.702
398.544
471.543
178.043
137.445
135.607
0.251462
-51.4524
-91.1329
65.6407
62.8539
10.6944
18.1704
6.2313
7.39376
2.72233
5.28532
2022.57
1934.96
1689.44
1581.29
1551.83
487.015
1216.22
37.1446
194.412
150.444
150.035
157.79
158.834
159.579
157
152.92
151.943
143.37
138.274
146.396
137.703
111.225
143.828
137.178
126.445
308.849
118.117
129.288
296.231
561.372
504.235
167.288
136.37
144.078
-12.8136
443.554
318.032
75.0549
67.8755
4.63266
31.2394
18.6162
14.2172
6.02111
9.50187
1920.43
1665.66
1651.46
1565.26
1537.62
182.332
988.147
58.5191
180.358
144.319
149.263
158.685
159.36
159.625
156.916
152.831
149.247
143.371
139.662
131.461
135.37
236.139
144.333
134.547
120.623
327.205
109.439
110.056
151.88
239.522
487.287
148.763
130.289
149.827
758.756
169.173
247.713
80.4765
134.204
131.139
17.9593
10.1626
6.17568
5.56583
8.50961
1848.75
1635.42
1638.2
1575.92
1672.26
864.839
773.429
58.5471
169.664
139.51
148.6
159.562
159.96
159.698
156.849
152.762
148.916
143.189
138.136
129.953
139.446
141.487
119.649
131.24
114.733
355.531
99.8862
101.912
146.793
245.409
592.724
229.231
124.479
151.304
103.893
173.626
236.554
83.2601
137.168
103.863
22.5118
22.9137
15.9683
9.73819
12.9127
1884.19
1632.69
1634.56
1612.98
1329.72
652.715
685.486
66.6851
161.113
134.788
147.866
160.421
160.69
159.831
156.793
152.697
147.712
143.062
138.119
129.93
128.89
137.537
118.492
127.303
111.619
444.559
105.501
100.095
53.0423
248.835
482.223
124.026
117.081
151.362
109.791
171.848
235.913
83.6566
57.397
41.1674
15.8708
7.14346
0.261699
9.11773
11.3158
1189.74
1043.38
993.639
970.634
957.342
1181.16
1048.89
997.002
965.69
926.355
1183.39
1052.47
999.868
974.582
944.256
1197.99
1051.33
999.889
976.579
944.505
1225.33
1049.07
998.304
976.267
944.38
1544.13
1627.44
1632.76
1626.26
1374.16
524.627
451.134
101.154
145.944
129.53
146.358
163.563
163.467
160.491
156.684
152.516
147.68
142.868
137.774
131.274
127.855
131.502
117.881
116.052
85.7973
-31.5153
102.656
89.2813
40.4261
-89.6214
-104.949
93.4603
94.0865
89.559
118.813
164.953
214.22
80.6242
51.8979
51.0949
17.3742
15.4487
1.90687
8.2483
14.5374
1085.56
1555.1
1539.22
1351.72
1001.7
434.454
372.887
190.054
148.871
127.933
150.566
165.948
165.63
160.766
156.295
152.092
147.291
142.39
137.429
131.447
127.669
127.645
119.924
106.098
67.3165
-26.5316
78.8722
62.6442
-16.8278
-111.831
-226.472
-87.7219
42.4008
73.3664
124.167
148.282
180.426
103.567
82.0561
38.3028
19.1983
15.2068
2.72239
39.6292
24.013
986.486
1022.51
1128.57
1109.1
745.38
342.912
293.489
210.989
155.582
134.628
148.408
165.296
167.015
161.476
156.417
152.155
147.244
142.228
137.178
131.455
127.178
124.427
114.626
96.5016
57.4064
-3.96836
29.7153
33.9304
16.0842
-82.387
-153.825
-26.0633
79.1148
84.1064
116.314
127.55
155.738
112.424
50.5599
36.932
21.8466
13.4703
42.192
43.0409
24.3071
974.505
907.612
860.302
787.666
563.288
237.756
225.394
224.592
161.889
141.613
155.732
167.356
166.921
161.238
156.386
152.321
147.323
142.136
136.931
131.295
126.852
123.928
112.79
104.441
88.3717
15.2926
29.7634
26.3077
-0.906186
-75.7472
-120.996
-19.7561
69.5365
84.692
122.346
204.533
175.759
111.555
64.3318
39.5518
22.7967
12.0571
0.347681
-7.49337
-26.678
986.434
943.319
1131.41
1166.43
909.054
403.211
238.869
230.46
151.164
139.391
158.059
168.047
167.377
160.766
179.063
179.364
171.636
162.692
152.906
142.862
139.658
140.805
125.891
95.3476
69.7919
28.9279
29.5545
18.1215
44.5826
-17.6569
-56.7671
41.8768
114.885
96.506
124.454
157.497
130.223
138.845
85.6595
41.2498
24.7533
11.9012
3.26128
-3.74944
-24.9529
)
;

boundaryField
{
    AirInlet
    {
        type            fixedFluxPressure;
        gradient        nonuniform List<scalar> 5(3.70524e+06 116887 1.7513e+07 -1.62921e+06 95746);
        value           nonuniform List<scalar> 5(1766.76 2023.74 2095.56 1832.46 1885.14);
    }
    WaterInlet
    {
        type            fixedFluxPressure;
        gradient        nonuniform List<scalar> 10(-0.00702937 -7.68956 -22.1815 -6.47531 0.257459 -0.013462 -3.10698 -1.68359 -0.340314 -9.82856);
        value           nonuniform List<scalar> 10(2239.28 2211.93 2197.26 2194.93 2203.41 1189.74 1181.16 1183.39 1197.99 1225.33);
    }
    ChannelWall
    {
        type            fixedFluxPressure;
        gradient        uniform 0;
        value           nonuniform List<scalar> 
110
(
2203.41
2057.04
2004.92
1976.95
1920.65
1189.74
1043.38
993.639
970.634
957.342
1225.33
1049.07
998.304
976.267
944.38
986.434
943.319
1131.41
1166.43
909.054
403.211
238.869
230.46
151.164
139.391
158.059
168.047
167.377
160.766
179.063
179.364
171.636
162.692
152.906
142.862
139.658
140.805
125.891
95.3476
69.7919
28.9279
29.5545
18.1215
44.5826
-17.6569
-56.7671
41.8768
114.885
96.506
124.454
157.497
130.223
138.845
85.6595
41.2498
24.7533
11.9012
3.26128
-3.74944
-24.9529
2239.28
2063.65
2013.1
1993.53
1978
2003.36
2112.24
2099.9
2143.95
1335.84
1471.09
255.217
129.805
216.514
171.156
162.102
157.456
160.209
161.234
158.513
153.853
148.971
143.872
139.246
135.133
132.074
133.842
144.652
158.615
168.229
175.454
173.781
181.608
197.951
219.462
246.744
209.133
157.715
113.786
51.5397
11.5975
-1.60006
14.4409
24.8472
18.742
13.0079
8.40106
5.67782
4.21152
0.693515
)
;
    }
    Outlet
    {
        type            totalPressure;
        rho             rho;
        psi             none;
        gamma           1;
        p0              uniform 0;
        value           uniform 0;
    }
    FrontAndBack
    {
        type            empty;
    }
}


// ************************************************************************* //
