/*--------------------------------*- C++ -*----------------------------------*\
| =========                 |                                                 |
| \\      /  F ield         | OpenFOAM: The Open Source CFD Toolbox           |
|  \\    /   O peration     | Version:  2.3.0                                 |
|   \\  /    A nd           | Web:      www.OpenFOAM.org                      |
|    \\/     M anipulation  |                                                 |
\*---------------------------------------------------------------------------*/
FoamFile
{
    version     2.0;
    format      ascii;
    class       volScalarField;
    location    "0.024";
    object      p_rgh;
}
// * * * * * * * * * * * * * * * * * * * * * * * * * * * * * * * * * * * * * //

dimensions      [1 -1 -2 0 0 0 0];

internalField   nonuniform List<scalar> 
725
(
405.471
363.095
351.592
340.73
335.219
399.621
363.548
351.986
343.423
326.039
396.976
363.42
351.771
341.435
317.588
397.347
362.479
351.101
341.311
299.05
400.622
360.788
350.237
342.486
270.182
377.646
267.187
277.094
372.3
248.634
227.445
231.54
233.228
233.639
231.896
226.73
220.623
203.535
199.709
91.7811
193.354
249.699
244.897
212.435
269.315
236.453
214.971
201.568
190.634
184.147
180.097
177.045
174.746
173.03
171.572
170.213
168.925
167.704
166.758
166.257
166.544
167.587
171.706
170.014
166.606
111.741
-218.804
2.04511
2.98626
-0.15353
399.057
266.833
346.072
371.035
237.44
226.769
232.486
233.635
233.876
232.482
228.003
222.148
207.031
200.194
90.9386
197.003
248.549
245.123
193.342
243.012
234.155
212.732
199.388
188.424
182.136
178.422
175.711
173.673
172.141
170.818
169.565
168.36
167.185
166.189
165.607
165.901
167.213
172.263
175.33
183.84
169.709
-101.897
0.896852
3.07834
-0.0693276
501.106
184.921
374.217
388.906
206.616
222.035
234.541
234.724
234.829
233.699
229.733
224.685
207.477
186.245
127.333
188.539
245.972
246.833
153.29
235.384
236.237
210.727
198.036
187.614
182.391
178.445
175.542
173.525
172.061
170.773
169.524
168.307
167.095
166.043
165.381
165.601
166.957
172.703
178.827
195.993
245.373
333.479
-0.328626
3.37365
0.0498594
586.339
135.309
656.23
385.397
164.053
218.064
237.065
235.935
236.08
235.28
232.095
228.56
210.293
179.418
219.045
199.672
249.203
245.381
165.224
333.807
235.672
208.523
194.151
184.889
180.381
177.467
175.512
173.709
172.083
170.752
169.495
168.262
166.979
165.817
164.99
164.98
166.098
171.952
179.926
209.451
162.127
-378.418
-18.6522
4.41429
0.0903821
1084.11
168.991
1076.94
447.088
121.419
223.971
241.079
237.136
237.721
237.108
234.908
234.021
227.051
217.962
228.274
162.357
250.755
235.843
223.233
376.078
214.208
200.394
190.206
182.41
178.841
176.509
174.643
173.152
171.928
170.752
169.491
168.247
166.863
165.551
164.473
164.081
164.536
168.871
174.778
221.841
348.938
-75.1969
-20.901
3.65897
0.260787
1468.08
942.987
1245.8
1295.03
128.585
237.382
245.674
237.353
238.972
238.284
236.558
237.333
239.822
239.783
321.822
222.415
246.032
228.761
182.336
193.196
214.216
196.987
187.603
180.241
178.166
176.195
174.394
172.934
171.852
170.784
169.52
168.284
166.799
165.37
164.083
163.424
163.179
166.766
169.047
192.472
570.149
1429.07
34.7862
0.912611
-0.0540371
1471.64
1045.29
1330.05
1268.54
130.948
236.159
246.959
237.562
239.482
238.741
237.189
238.39
243.827
244.719
359.515
236.38
244.727
227.772
217.139
130.088
216.341
195.964
187.992
180.644
177.69
175.829
174.162
172.826
171.851
170.83
169.547
168.308
166.798
165.341
163.992
163.219
162.734
165.914
166.879
179.774
541.51
1948.34
158.24
-2.66095
-1.14234
1470.07
1114.64
1434.68
1181.05
55.2935
228.472
247.854
237.897
240.251
239.238
237.846
239.358
246.707
242.518
383.335
247.701
243.226
227.807
267.063
169.931
216.663
194.89
184.288
178.613
177.091
175.592
174.034
172.81
171.97
171.147
170.078
168.81
167.356
165.873
164.366
163.231
162.395
165.113
165
171.738
602.489
1898.23
160.28
-9.23122
-3.91828
1469.63
1190.54
1422.01
551.168
-9.17406
215.83
248.515
238.489
240.748
239.854
238.489
240.261
249.167
234.041
375.709
261.722
241.167
225.685
258.974
209.705
213.084
202.091
184.262
177.941
176.499
175.352
173.962
172.854
172.123
171.276
170.163
168.93
167.503
166.022
164.526
163.453
162.562
164.433
163.389
170.254
480.774
2213.79
150.023
-2.72374
45.541
1468.2
1164.65
1368.8
559.03
38.4268
202.095
250.122
239.118
240.986
240.24
239.107
241.111
252.492
233.793
320.628
227.361
241.888
236.181
210.223
191.385
212.077
179.959
180.347
177.077
176.006
175.076
173.828
172.778
171.903
170.723
169.437
167.898
166.45
164.989
163.53
162.601
162.189
164.509
162.367
174.804
493.335
2976.76
138.737
-8.17655
-1.12949
1633.08
1599.25
1572.28
1600.69
1536.05
1629.87
1601.57
1570.76
1598.23
1398.08
1629.53
1603.48
1573.12
1621.35
1410.04
1632.1
1603.91
1574.06
1627.31
1473.89
1637.68
1602.91
1570.64
1607.73
1467.5
1382.1
1247
1258.64
854.18
56.9951
169.766
245.977
240.764
242.039
241.132
240.731
242.989
251.479
250.02
258.975
198.027
243.184
236.812
177.431
188.626
209.662
172.884
175.6
174.716
174.711
174.375
173.427
172.465
171.537
170.438
169.204
167.749
166.236
164.643
162.961
161.321
159.012
158.019
157.64
183.933
447.42
-409.584
-38.8637
-10.9169
-0.207194
1138.53
1121.18
1277.51
932.338
436.649
184.82
254.375
241.604
243.51
242.725
242.585
245.309
255.047
273.867
352.317
213.819
240.558
235.372
205.011
112.261
161.45
155.151
167.558
170.455
172.172
173
173.087
172.554
171.406
170.207
169.007
167.596
166.038
164.323
162.364
160.08
156.671
152.663
145.245
132.226
-29.4794
-780.178
-8.18248
-7.0172
-0.614379
1404.68
1113.18
1163.07
1063.63
475.39
180.398
250.505
241.858
245.31
244.029
243.923
246.306
252.561
269.906
345.25
221.484
239.106
236.724
218.336
74.6717
117.771
133.296
157.393
166.884
171.529
173.496
173.309
172.131
171.102
170.062
168.89
167.491
165.9
164.087
161.9
159.094
154.627
147.872
133.843
102.07
-10.0599
-193.561
-10.2091
-5.54051
-0.184255
1622.8
732.308
1186.08
1103.48
540.851
143.89
245.278
242.673
246.511
245.077
244.926
246.233
246.281
240.416
171.546
228.78
239.299
238.556
224.508
34.7342
87.3469
123.336
153.918
166.329
170.813
171.951
172.172
171.83
170.995
169.994
168.832
167.439
165.828
163.953
161.616
158.459
153.241
144.509
126.216
91.2677
51.5373
41.7593
-10.9206
-4.56514
0.318002
1616.24
1184.81
1067.73
1102.9
548.305
221.003
253.744
245.617
248.291
246.717
246.323
246.695
241.613
219.892
76.5729
239.762
239.676
239.317
225.619
106.202
79.8751
118.061
153.036
164.482
172.962
174.376
174.256
173.512
172.357
171.099
169.755
168.244
166.536
164.562
162.089
158.755
153.126
143.404
122.565
82.4545
-9.9575
-103.728
-7.79776
-3.95106
0.643845
)
;

boundaryField
{
    AirInlet
    {
        type            fixedFluxPressure;
        gradient        nonuniform List<scalar> 5(287.967 39752.9 -262.543 18912.3 33533.5);
        value           nonuniform List<scalar> 5(1468.08 1472.04 1470.06 1469.81 1468.54);
    }
    WaterInlet
    {
        type            fixedFluxPressure;
        gradient        nonuniform List<scalar> 10(0.000133849 -3.19895 -3.60666 0.831504 -5.45375 0.0516986 -3.82947 -11.187 2.98017 2.63793);
        value           nonuniform List<scalar> 10(405.471 399.621 396.976 397.347 400.622 1633.08 1629.87 1629.53 1632.1 1637.68);
    }
    ChannelWall
    {
        type            fixedFluxPressure;
        gradient        uniform 0;
        value           nonuniform List<scalar> 
110
(
400.622
360.788
350.237
342.486
270.182
1633.08
1599.25
1572.28
1600.69
1536.05
1637.68
1602.91
1570.64
1607.73
1467.5
1616.24
1184.81
1067.73
1102.9
548.305
221.003
253.744
245.617
248.291
246.717
246.323
246.695
241.613
219.892
76.5729
239.762
239.676
239.317
225.619
106.202
79.8751
118.061
153.036
164.482
172.962
174.376
174.256
173.512
172.357
171.099
169.755
168.244
166.536
164.562
162.089
158.755
153.126
143.404
122.565
82.4545
-9.9575
-103.728
-7.79776
-3.95106
0.643845
405.471
363.095
351.592
340.73
335.219
377.646
267.187
277.094
372.3
248.634
227.445
231.54
233.228
233.639
231.896
226.73
220.623
203.535
199.709
91.7811
193.354
249.699
244.897
212.435
269.315
236.453
214.971
201.568
190.634
184.147
180.097
177.045
174.746
173.03
171.572
170.213
168.925
167.704
166.758
166.257
166.544
167.587
171.706
170.014
166.606
111.741
-218.804
2.04511
2.98626
-0.15353
)
;
    }
    Outlet
    {
        type            totalPressure;
        rho             rho;
        psi             none;
        gamma           1;
        p0              uniform 0;
        value           nonuniform List<scalar> 
15
(
-0.112238
-0.399566
-0.5326
-0.379493
-0.0309876
0
0
0
0
0
0
0
0
0
0
)
;
    }
    FrontAndBack
    {
        type            empty;
    }
}


// ************************************************************************* //
