/*--------------------------------*- C++ -*----------------------------------*\
| =========                 |                                                 |
| \\      /  F ield         | OpenFOAM: The Open Source CFD Toolbox           |
|  \\    /   O peration     | Version:  2.3.0                                 |
|   \\  /    A nd           | Web:      www.OpenFOAM.org                      |
|    \\/     M anipulation  |                                                 |
\*---------------------------------------------------------------------------*/
FoamFile
{
    version     2.0;
    format      ascii;
    class       surfaceScalarField;
    location    "0.024";
    object      phi;
}
// * * * * * * * * * * * * * * * * * * * * * * * * * * * * * * * * * * * * * //

dimensions      [0 3 -1 0 0 0 0];

internalField   nonuniform List<scalar> 
1380
(
3.13276e-13
1.86724e-13
2.85728e-13
2.75485e-14
2.95844e-13
-1.01159e-14
3.20118e-13
-2.42742e-14
2.10914e-13
1.09204e-13
6.01621e-13
8.51026e-14
6.23974e-13
5.19486e-15
6.32396e-13
-1.85373e-14
5.93383e-13
1.4739e-14
4.16446e-13
3.87851e-13
6.84739e-13
-9.96362e-14
7.29252e-13
-3.93184e-14
7.40107e-13
-2.93924e-14
7.98887e-13
-4.40407e-14
2.64259e-13
9.51074e-13
5.96798e-13
-1.96434e-13
6.02195e-13
-4.47156e-14
5.99468e-13
-2.66649e-14
6.49082e-13
-9.36554e-14
-5.37362e-15
9.18715e-13
3.03566e-13
2.5885e-13
2.32185e-13
1.3853e-13
1.33157e-13
1.65414e-13
-5.62102e-14
2.11836e-13
-4.64215e-14
2.21818e-14
1.89654e-13
4.07815e-13
-3.85634e-13
5.41037e-13
-1.33222e-13
3.66602e-13
1.74435e-13
2.39394e-13
1.27208e-13
1.90097e-13
4.92967e-14
1.81109e-13
8.98795e-15
1.70665e-13
1.04442e-14
1.67726e-13
2.93845e-15
2.27124e-13
-5.9397e-14
4.71374e-13
-2.4425e-13
1.38129e-12
-9.09921e-13
3.16863e-12
-1.78734e-12
2.54677e-12
6.21861e-13
3.5152e-12
-9.68428e-13
6.52602e-12
-3.01083e-12
1.40149e-12
5.12453e-12
4.048e-13
9.96692e-13
2.9401e-13
1.10791e-13
2.30539e-13
6.34708e-14
2.09874e-13
2.06649e-14
1.88697e-13
2.11771e-14
1.65334e-13
2.33623e-14
1.56473e-13
8.86075e-15
1.48659e-13
7.8143e-15
1.42438e-13
6.22063e-15
1.40778e-13
1.66017e-15
1.42277e-13
-1.49916e-15
1.44815e-13
-2.53854e-15
1.47224e-13
-2.4082e-15
1.47427e-13
-2.03203e-16
1.43431e-13
3.99521e-15
1.33042e-13
1.03889e-14
1.14022e-13
1.90203e-14
7.74006e-14
3.66211e-14
3.07955e-14
4.66049e-14
2.54973e-14
5.29878e-15
4.7194e-13
-4.46442e-13
2.09014e-12
-1.6182e-12
1.73309e-12
3.57048e-13
-1.55803e-12
3.29112e-12
-2.30903e-12
7.50991e-13
1.91852e-12
8.23095e-13
-4.91454e-13
1.01649e-12
-2.39821e-13
7.10367e-13
4.95781e-13
1.35645e-12
-1.03171e-12
1.35105e-12
-1.27819e-13
7.87556e-13
7.37925e-13
4.50216e-13
4.64548e-13
3.66166e-13
1.33346e-13
3.62537e-13
1.26171e-14
3.32312e-13
4.06694e-14
2.73666e-13
6.15845e-14
2.09152e-13
5.11635e-15
1.07384e-13
-1.42482e-13
3.04759e-13
-1.1073e-12
3.09854e-12
-4.58112e-12
4.93825e-12
-1.21785e-12
6.60319e-12
-2.63337e-12
8.57017e-12
-4.9778e-12
4.69263e-13
1.32254e-11
4.05591e-13
1.06036e-12
3.78193e-13
1.38188e-13
3.53823e-13
8.78408e-14
3.7685e-13
-2.36287e-15
3.89927e-13
8.09932e-15
3.77495e-13
3.57942e-14
3.75281e-13
1.10747e-14
3.70832e-13
1.22637e-14
3.66375e-13
1.06775e-14
3.67507e-13
5.2818e-16
3.72888e-13
-6.8804e-15
3.79548e-13
-9.19896e-15
3.85523e-13
-8.38343e-15
3.86852e-13
-1.53285e-15
3.80327e-13
1.05212e-14
3.62657e-13
2.80585e-14
3.28682e-13
5.29951e-14
2.65496e-13
9.98067e-14
1.70802e-13
1.41299e-13
7.39391e-14
1.02162e-13
1.30193e-13
-5.02696e-13
7.54092e-13
-2.2421e-12
1.5101e-12
-3.98961e-13
-4.04118e-12
8.8424e-12
-5.47419e-12
2.184e-12
4.45087e-12
2.3638e-12
-1.90418e-12
1.98904e-12
1.34943e-13
1.05947e-12
1.42535e-12
2.12266e-12
-2.09491e-12
2.10098e-12
-1.06141e-13
1.24343e-12
1.59548e-12
6.87647e-13
1.02033e-12
5.34554e-13
2.86439e-13
5.14913e-13
3.22583e-14
4.72557e-13
8.30254e-14
3.81583e-13
1.52558e-13
2.32014e-13
1.54686e-13
-3.54992e-14
1.25031e-13
-7.67703e-14
-1.06602e-12
1.58715e-12
-6.24504e-12
3.59622e-12
-3.22692e-12
5.64772e-12
-4.68487e-12
5.61966e-13
1.07953e-13
2.08049e-13
1.35793e-11
7.54893e-13
5.13521e-13
5.72358e-13
3.20723e-13
4.96344e-13
1.63855e-13
5.20348e-13
-2.63668e-14
5.4825e-13
-1.9803e-14
5.53795e-13
3.02491e-14
5.52462e-13
1.24079e-14
5.48637e-13
1.60881e-14
5.45941e-13
1.33738e-14
5.48997e-13
-2.52845e-15
5.55626e-13
-1.35092e-14
5.62691e-13
-1.62645e-14
5.68636e-13
-1.43286e-14
5.69234e-13
-2.13079e-15
5.60911e-13
1.88445e-14
5.40324e-13
4.86451e-14
5.01556e-13
9.17633e-14
4.31415e-13
1.69948e-13
3.11131e-13
2.61583e-13
8.8476e-14
3.24816e-13
-4.11552e-13
-2.66825e-15
-5.51978e-13
-2.10167e-12
-1.62066e-12
6.69721e-13
-4.6687e-12
1.18904e-11
-6.55583e-12
4.07115e-12
7.10703e-12
3.50754e-12
-4.49301e-12
2.05945e-12
1.58304e-12
4.34161e-13
3.05064e-12
1.40899e-12
-3.06973e-12
2.03999e-12
-7.37136e-13
1.52248e-12
2.11298e-12
9.70299e-13
1.57251e-12
7.35444e-13
5.21294e-13
6.68407e-13
9.92955e-14
6.08263e-13
1.43169e-13
5.0647e-13
2.54351e-13
3.1978e-13
3.41376e-13
2.87175e-13
1.57636e-13
4.07616e-13
-1.18647e-12
5.28062e-13
-6.36549e-12
1.04254e-12
-3.74139e-12
-4.58343e-12
9.41093e-13
-1.20606e-11
7.58509e-12
1.12186e-12
3.96928e-13
8.73707e-13
7.61673e-13
6.09406e-13
5.85024e-13
5.93419e-13
1.79842e-13
6.23565e-13
-5.65131e-14
6.50045e-13
-4.62829e-14
6.69181e-13
1.11132e-14
6.79224e-13
2.36534e-15
6.82035e-13
1.32762e-14
6.83151e-13
1.22579e-14
6.86147e-13
-5.52492e-15
6.9123e-13
-1.85925e-14
6.94438e-13
-1.94721e-14
6.96532e-13
-1.64223e-14
6.94213e-13
1.87246e-16
6.84605e-13
2.84533e-14
6.6496e-13
6.82898e-14
6.3e-13
1.26723e-13
5.71671e-13
2.28278e-13
4.69155e-13
3.64099e-13
2.25514e-13
5.68457e-13
-3.76809e-13
5.99655e-13
-5.17793e-13
-1.96068e-12
5.64454e-12
-5.49262e-12
-3.73205e-12
2.1267e-11
-5.85881e-12
6.19791e-12
8.99761e-12
3.5936e-12
-7.95345e-12
-5.88589e-14
5.23549e-12
-1.275e-12
4.26678e-12
2.28527e-13
-4.57326e-12
1.82343e-12
-2.33204e-12
1.67765e-12
2.25876e-12
1.23389e-12
2.01627e-12
9.33784e-13
8.214e-13
8.08177e-13
2.24902e-13
7.26059e-13
2.25287e-13
6.29595e-13
3.50816e-13
4.36311e-13
5.3466e-13
3.55779e-13
2.38168e-13
-3.99964e-13
-4.30723e-13
-2.2912e-12
-4.47426e-12
2.4604e-12
-8.49299e-12
-3.53981e-12
6.94131e-12
-6.45581e-12
1.05011e-11
1.36704e-12
-7.42592e-12
8.29535e-13
1.29918e-12
7.56815e-13
6.57745e-13
7.31458e-13
2.05198e-13
7.16393e-13
-4.14472e-14
7.17799e-13
-4.76897e-14
7.26644e-13
2.26911e-15
7.33489e-13
-4.47946e-15
7.49044e-13
-2.2797e-15
7.6657e-13
-5.268e-15
7.77102e-13
-1.60575e-14
7.79662e-13
-2.11526e-14
7.74915e-13
-1.47247e-14
7.69058e-13
-1.05656e-14
7.6155e-13
7.69474e-15
7.51669e-13
3.83352e-14
7.37638e-13
8.23213e-14
7.15661e-13
1.48699e-13
6.93363e-13
2.50576e-13
6.77726e-13
3.79735e-13
7.4565e-13
5.00534e-13
6.87091e-13
6.58214e-13
-3.70901e-12
2.43542e-12
-8.13595e-12
-1.06568e-12
-5.6776e-12
1.88087e-11
-1.97452e-13
7.17751e-13
1.07305e-11
-7.98618e-13
-6.95483e-12
-1.82088e-12
6.25776e-12
-6.04969e-13
3.05086e-12
4.57263e-13
-5.63549e-12
5.69797e-13
-2.44457e-12
4.01152e-13
2.42741e-12
2.83918e-13
2.13351e-12
2.25249e-13
8.80068e-13
1.91168e-13
2.58982e-13
1.70913e-13
2.45542e-13
1.53986e-13
3.67743e-13
9.78337e-14
5.90813e-13
-4.53938e-15
3.40541e-13
-2.27148e-13
-2.08114e-13
-2.90879e-13
-4.41052e-12
-5.63622e-13
-8.22025e-12
-1.27118e-12
7.64887e-12
-1.57669e-12
1.08066e-11
4.29594e-13
-9.4322e-12
2.12175e-13
1.5166e-12
1.97827e-13
6.72093e-13
1.79071e-13
2.23954e-13
1.68483e-13
-3.08588e-14
1.68164e-13
-4.73711e-14
1.67045e-13
3.38808e-15
1.68235e-13
-5.66996e-15
1.71668e-13
-5.71235e-15
1.75875e-13
-9.47531e-15
1.78718e-13
-1.8901e-14
1.78672e-13
-2.11061e-14
1.76178e-13
-1.22307e-14
1.73133e-13
-7.52073e-15
1.7053e-13
1.02982e-14
1.68365e-13
4.05002e-14
1.66849e-13
8.38366e-14
1.639e-13
1.51649e-13
1.66137e-13
2.48338e-13
1.60683e-13
3.85189e-13
1.68909e-13
4.92308e-13
1.21398e-13
7.05725e-13
-6.94338e-13
3.25115e-12
-1.69864e-12
-6.13799e-14
2.96807e-12
1.4142e-11
3.29317e-12
3.92644e-13
1.227e-11
-7.85593e-12
1.1011e-12
-3.47971e-12
1.88154e-12
8.89924e-14
-5.1784e-13
1.08012e-12
-6.62662e-12
6.57632e-13
-2.02208e-12
4.05306e-13
2.67973e-12
2.84987e-13
2.25383e-12
2.29437e-13
9.35618e-13
1.94063e-13
2.94357e-13
1.74102e-13
2.65503e-13
1.57728e-13
3.84116e-13
1.00568e-13
6.47973e-13
-6.4098e-14
5.05207e-13
-4.101e-13
1.37888e-13
-2.69254e-13
-4.55137e-12
-5.46115e-13
-7.94339e-12
-1.41782e-12
8.52058e-12
-1.4843e-12
1.08731e-11
3.2516e-14
-1.0949e-11
3.5361e-13
1.1955e-12
2.11691e-13
8.14012e-13
1.83264e-13
2.52381e-13
1.71431e-13
-1.90265e-14
1.71073e-13
-4.70123e-14
1.69345e-13
5.11599e-15
1.70276e-13
-6.60125e-15
1.73583e-13
-9.01963e-15
1.77751e-13
-1.36432e-14
1.8058e-13
-2.17295e-14
1.80223e-13
-2.07498e-14
1.7712e-13
-9.12732e-15
1.73397e-13
-3.79732e-15
1.7037e-13
1.33249e-14
1.68195e-13
4.26755e-14
1.67185e-13
8.48458e-14
1.65176e-13
1.53658e-13
1.68853e-13
2.44661e-13
1.64755e-13
3.89287e-13
1.7357e-13
4.83493e-13
7.86295e-14
8.00665e-13
-2.13228e-13
3.54301e-12
1.80418e-12
-2.07879e-12
5.06366e-12
1.08825e-11
4.78085e-12
6.75463e-13
1.45899e-11
-1.90402e-12
3.20512e-12
-3.1877e-12
3.16521e-12
1.32756e-13
-3.83829e-12
1.19328e-12
-7.68714e-12
7.18887e-13
-1.54768e-12
4.03318e-13
2.9953e-12
2.83255e-13
2.37389e-12
2.31579e-13
9.87294e-13
1.95846e-13
3.3009e-13
1.76751e-13
2.84598e-13
1.61479e-13
3.99388e-13
1.07045e-13
7.02407e-13
-1.01962e-13
7.14214e-13
-5.15919e-13
5.51845e-13
-2.7756e-13
-4.78973e-12
-4.80029e-13
-7.74092e-12
-1.16548e-12
9.20603e-12
-8.4466e-13
1.05523e-11
1.06534e-13
-1.19002e-11
4.01115e-13
9.00922e-13
2.13668e-13
1.00146e-12
1.85361e-13
2.80688e-13
1.7283e-13
-6.4957e-15
1.72159e-13
-4.63412e-14
1.70832e-13
6.44339e-15
1.71923e-13
-7.69246e-15
1.75155e-13
-1.22521e-14
1.79285e-13
-1.77734e-14
1.82108e-13
-2.45517e-14
1.81447e-13
-2.00886e-14
1.77607e-13
-5.28742e-15
1.73073e-13
7.36605e-16
1.69534e-13
1.68638e-14
1.6731e-13
4.48996e-14
1.66816e-13
8.53395e-14
1.65913e-13
1.54561e-13
1.70914e-13
2.3966e-13
1.68716e-13
3.91486e-13
1.78492e-13
4.73717e-13
1.40528e-13
8.38629e-13
3.49997e-13
3.33354e-12
5.33193e-12
-7.06073e-12
6.13688e-12
1.00776e-11
5.24573e-12
1.56661e-12
1.66522e-11
-4.26774e-12
7.67286e-12
-5.124e-12
4.02147e-12
-3.45165e-13
-8.61713e-12
7.5703e-13
-8.78934e-12
6.84948e-13
-1.4756e-12
3.91145e-13
3.2891e-12
2.78176e-13
2.48686e-12
2.3184e-13
1.03363e-12
1.96834e-13
3.65096e-13
1.78749e-13
3.02683e-13
1.65585e-13
4.12552e-13
1.17506e-13
7.50486e-13
-8.57701e-14
9.1749e-13
-3.18972e-13
7.85047e-13
-9.30849e-14
-5.01562e-12
-3.9825e-13
-7.43575e-12
-7.55982e-13
9.56377e-12
-6.88656e-13
1.04849e-11
7.39704e-13
-1.33286e-11
1.82286e-13
1.45834e-12
1.91155e-13
9.9259e-13
1.83775e-13
2.88067e-13
1.73794e-13
3.48607e-15
1.72594e-13
-4.51413e-14
1.71092e-13
7.94522e-15
1.72603e-13
-9.20334e-15
1.75939e-13
-1.55884e-14
1.80025e-13
-2.18596e-14
1.82602e-13
-2.71289e-14
1.81475e-13
-1.89616e-14
1.77446e-13
-1.25839e-15
1.72676e-13
5.50722e-15
1.69026e-13
2.0513e-14
1.66876e-13
4.70502e-14
1.66457e-13
8.57587e-14
1.66222e-13
1.54795e-13
1.72537e-13
2.33345e-13
1.72457e-13
3.91566e-13
1.84245e-13
4.61929e-13
2.75848e-13
7.47026e-13
5.52544e-13
3.05685e-12
4.57789e-12
-1.10861e-11
6.40153e-12
8.25391e-12
5.32439e-12
2.64375e-12
1.81632e-11
-4.2468e-12
1.21197e-11
-5.67559e-12
5.45026e-12
-5.69891e-13
-1.37228e-11
2.46779e-13
-9.60601e-12
5.72903e-13
-1.80173e-12
3.6638e-13
3.49563e-12
2.70026e-13
2.58321e-12
2.30147e-13
1.07351e-12
1.97119e-13
3.98124e-13
1.80446e-13
3.19357e-13
1.70058e-13
4.22939e-13
1.33089e-13
7.87456e-13
-3.28683e-14
1.08345e-12
-1.57262e-13
9.09441e-13
-3.77612e-14
-5.13512e-12
-2.85201e-14
-7.44499e-12
-5.98658e-13
1.01339e-11
-1.26239e-12
1.11487e-11
4.53688e-13
-1.50447e-11
1.03644e-13
1.80838e-12
1.64807e-13
9.31427e-13
1.83228e-13
2.69646e-13
1.75034e-13
1.16804e-14
1.72516e-13
-4.26239e-14
1.70743e-13
9.71913e-15
1.72155e-13
-1.06161e-14
1.75512e-13
-1.89453e-14
1.79236e-13
-2.55838e-14
1.81241e-13
-2.9134e-14
1.80005e-13
-1.77255e-14
1.7656e-13
2.18694e-15
1.72537e-13
9.53045e-15
1.69575e-13
2.34749e-14
1.68024e-13
4.86011e-14
1.68257e-13
8.55257e-14
1.68437e-13
1.54615e-13
1.74574e-13
2.27209e-13
1.75798e-13
3.90342e-13
1.90079e-13
4.47648e-13
3.15122e-13
6.21982e-13
2.99813e-13
3.07215e-12
2.68883e-12
-1.34751e-11
5.7138e-12
5.22894e-12
4.89715e-12
3.46041e-12
1.98645e-11
3.08399e-13
1.91601e-13
3.11213e-13
-2.81445e-15
4.69994e-13
-1.58781e-13
1.33121e-12
-8.61214e-13
8.2849e-13
5.02717e-13
5.99762e-13
9.18391e-14
6.19379e-13
-2.24316e-14
7.93772e-13
-3.33173e-13
1.72542e-12
-1.79286e-12
-2.0993e-12
4.65321e-12
6.81719e-13
-8.98794e-14
6.8293e-13
-2.36434e-14
5.16919e-13
-1.67162e-13
-4.80922e-13
-7.95022e-13
-2.47778e-12
-1.02444e-13
5.98387e-13
-1.88266e-13
5.88277e-13
-1.35341e-14
4.10819e-13
1.02964e-14
-7.0994e-13
3.25738e-13
-4.77404e-13
-2.71031e-12
3.11734e-13
2.982e-13
3.08496e-13
6.34234e-13
1.5683e-13
3.24343e-12
9.37895e-12
-9.74392e-13
9.66808e-12
7.61636e-13
-1.54589e-11
-2.5565e-12
-6.28788e-12
1.05285e-12
-5.41107e-12
1.13233e-12
3.41615e-12
1.10286e-12
2.61268e-12
9.76511e-13
1.19986e-12
8.77115e-13
4.9752e-13
8.28419e-13
3.68053e-13
8.16907e-13
4.34452e-13
8.10434e-13
7.93929e-13
6.15483e-13
1.2784e-12
1.74252e-13
1.35067e-12
-1.50685e-12
-3.45401e-12
-6.66709e-13
-8.28514e-12
-2.5821e-12
1.20493e-11
-5.05692e-12
1.36235e-11
7.53987e-13
-2.08556e-11
8.63081e-13
1.69929e-12
6.84387e-13
1.11012e-12
7.9973e-13
1.54303e-13
8.08062e-13
3.34877e-15
7.7478e-13
-9.34289e-15
7.58321e-13
2.6179e-14
7.63887e-13
-1.61817e-14
7.74141e-13
-2.91995e-14
7.88079e-13
-3.9522e-14
7.9218e-13
-3.32349e-14
7.85758e-13
-1.13031e-14
7.77315e-13
1.06298e-14
7.67486e-13
1.93595e-14
7.61817e-13
2.91441e-14
7.62723e-13
4.76943e-14
7.70633e-13
7.76168e-14
7.89012e-13
1.36236e-13
8.1267e-13
2.03551e-13
8.48974e-13
3.54038e-13
8.13866e-13
4.82755e-13
5.44088e-13
8.91759e-13
-1.51184e-13
3.76743e-12
1.47904e-12
-1.51053e-11
1.70622e-11
-1.03542e-11
1.48256e-11
5.69702e-12
2.2235e-11
7.34108e-12
6.69108e-12
3.19008e-12
1.38191e-11
-1.29689e-11
7.00149e-13
-2.28083e-12
-1.6976e-11
-4.01939e-13
-7.28997e-12
2.49907e-13
2.7643e-12
5.93831e-13
2.26876e-12
7.25048e-13
1.06864e-12
7.42551e-13
4.80017e-13
7.72838e-13
3.37766e-13
8.48242e-13
3.59048e-13
1.0119e-12
6.30273e-13
1.11534e-12
1.17495e-12
7.99406e-13
1.66661e-12
-7.22914e-13
-1.93169e-12
-9.17599e-13
-8.09045e-12
7.39364e-13
1.03923e-11
2.6057e-12
1.17572e-11
-6.80453e-13
-1.75694e-11
4.27504e-13
5.91334e-13
6.98255e-13
8.3937e-13
7.80518e-13
7.20402e-14
7.70169e-13
1.36974e-14
7.34349e-13
2.64779e-14
7.16191e-13
4.43372e-14
7.20156e-13
-2.01472e-14
7.22086e-13
-3.11288e-14
7.1334e-13
-3.07763e-14
7.02763e-13
-2.26578e-14
6.96524e-13
-5.06351e-15
6.95326e-13
1.18271e-14
6.95934e-13
1.87517e-14
7.00098e-13
2.49799e-14
7.10416e-13
3.73771e-14
7.29322e-13
5.87107e-14
7.62773e-13
1.02785e-13
8.08156e-13
1.58169e-13
8.66813e-13
2.9538e-13
8.73382e-13
4.76187e-13
5.85789e-13
1.17935e-12
1.56825e-12
2.78497e-12
4.78412e-13
-1.40155e-11
-1.53473e-12
-8.34109e-12
1.61254e-12
2.54976e-12
1.70449e-11
3.03414e-12
3.55449e-12
3.5245e-13
1.65008e-11
4.53448e-12
-3.48188e-12
3.2211e-12
-1.56626e-11
-1.99457e-12
-2.0743e-12
-8.21557e-13
1.59129e-12
-1.40732e-14
1.46127e-12
3.84035e-13
6.7053e-13
5.28856e-13
3.35196e-13
6.41376e-13
2.25246e-13
7.79357e-13
2.21067e-13
1.02377e-12
3.8586e-13
1.37248e-12
8.26239e-13
1.57687e-12
1.46222e-12
5.30541e-14
-4.07879e-13
-1.89321e-12
-6.14419e-12
2.53639e-12
5.96273e-12
6.53235e-12
7.7612e-12
-1.4578e-13
-1.08913e-11
1.57431e-13
2.88123e-13
6.1293e-13
3.83871e-13
6.67292e-13
1.76784e-14
6.44504e-13
3.64855e-14
6.26908e-13
4.40745e-14
6.21708e-13
4.95369e-14
6.10414e-13
-8.85267e-15
5.93044e-13
-1.37583e-14
5.74934e-13
-1.26664e-14
5.62966e-13
-1.06894e-14
5.58951e-13
-1.04799e-15
5.62283e-13
8.4948e-15
5.68748e-13
1.22861e-14
5.78279e-13
1.54488e-14
5.9333e-13
2.23271e-14
6.17429e-13
3.46117e-14
6.58742e-13
6.14727e-14
7.19411e-13
9.74996e-14
8.2075e-13
1.94041e-13
9.45138e-13
3.51798e-13
1.25444e-12
8.70048e-13
2.32138e-12
1.71802e-12
-4.55215e-12
-7.14194e-12
-5.98624e-12
-6.90699e-12
-4.14311e-12
7.06624e-13
1.02959e-11
5.41243e-13
3.02937e-13
1.57689e-11
1.27315e-12
1.24456e-11
-1.58602e-13
-1.35983e-12
-1.85717e-12
-3.0914e-12
-3.42734e-13
-1.33776e-12
-1.62349e-13
-3.49604e-13
4.7312e-13
8.36787e-14
2.37247e-13
2.87053e-13
1.31821e-13
4.29482e-13
8.28173e-14
5.76735e-13
7.38135e-14
8.23106e-13
1.3949e-13
1.29655e-12
3.52797e-13
2.04053e-12
7.1824e-13
2.10762e-12
-4.74968e-13
-1.27291e-12
-2.76366e-12
2.0218e-12
2.66802e-12
6.53562e-12
3.24738e-12
-4.22816e-13
-3.93285e-12
1.65261e-13
-2.99954e-13
4.61223e-13
8.79093e-14
4.16717e-13
6.21838e-14
4.05009e-13
4.81938e-14
4.1195e-13
3.71336e-14
4.21021e-13
4.04667e-14
4.06998e-13
5.17061e-15
3.93859e-13
-6.1836e-16
3.83124e-13
-1.93169e-15
3.74991e-13
-2.55658e-15
3.73761e-13
1.82793e-16
3.78862e-13
3.39392e-15
3.86671e-13
4.47683e-15
3.96707e-13
5.41363e-15
4.11182e-13
7.85205e-15
4.33458e-13
1.23346e-14
4.72304e-13
2.26269e-14
5.33511e-13
3.62923e-14
6.49685e-13
7.78661e-14
8.48722e-13
1.52761e-13
1.32607e-12
3.927e-13
1.63688e-12
1.40721e-12
-5.56341e-12
5.83518e-14
-6.78911e-12
-5.6813e-12
-5.74896e-12
-3.33528e-13
3.9981e-12
4.59768e-13
1.73292e-12
1.57432e-12
-2.82855e-13
-6.2559e-13
-7.87939e-13
-3.14819e-13
-7.75716e-14
5.42499e-14
1.37067e-13
2.10881e-13
3.50371e-13
7.03168e-13
1.42141e-12
9.46439e-13
-1.81722e-12
8.50795e-13
4.09817e-12
1.65321e-13
-1.34633e-13
-4.67241e-14
1.54598e-14
6.36538e-14
1.00788e-13
1.41254e-13
1.46425e-13
1.45807e-13
1.43875e-13
1.41319e-13
1.41501e-13
1.44895e-13
1.49373e-13
1.54786e-13
1.62639e-13
1.74974e-13
1.97601e-13
2.33893e-13
3.11759e-13
4.6452e-13
8.5722e-13
2.26443e-12
2.32278e-12
-3.35851e-12
-3.69204e-12
)
;

boundaryField
{
    AirInlet
    {
        type            calculated;
        value           nonuniform List<scalar> 5(-2e-13 -2e-13 -2e-13 -2e-13 -2e-13);
    }
    WaterInlet
    {
        type            calculated;
        value           nonuniform List<scalar> 10(-5e-13 -5e-13 -5e-13 -5e-13 -5e-13 -5e-13 -5e-13 -5e-13 -5e-13 -5e-13);
    }
    ChannelWall
    {
        type            calculated;
        value           uniform 0;
    }
    Outlet
    {
        type            calculated;
        value           nonuniform List<scalar> 
15
(
-4.22753e-12
-8.00655e-12
-9.212e-12
-7.74939e-12
-1.93036e-12
1.75366e-12
2.46103e-12
3.18337e-12
3.81337e-12
3.19584e-12
1.24551e-11
6.80266e-12
2.60586e-12
5.48872e-13
3.06067e-13
)
;
    }
    FrontAndBack
    {
        type            empty;
        value           nonuniform 0();
    }
}


// ************************************************************************* //
