/*--------------------------------*- C++ -*----------------------------------*\
| =========                 |                                                 |
| \\      /  F ield         | OpenFOAM: The Open Source CFD Toolbox           |
|  \\    /   O peration     | Version:  2.3.0                                 |
|   \\  /    A nd           | Web:      www.OpenFOAM.org                      |
|    \\/     M anipulation  |                                                 |
\*---------------------------------------------------------------------------*/
FoamFile
{
    version     2.0;
    format      ascii;
    class       surfaceScalarField;
    location    "0.024";
    object      phi;
}
// * * * * * * * * * * * * * * * * * * * * * * * * * * * * * * * * * * * * * //

dimensions      [0 3 -1 0 0 0 0];

internalField   nonuniform List<scalar> 
1380
(
1.32458e-12
6.75417e-13
1.11014e-12
2.1444e-13
1.04556e-12
6.45808e-14
1.02123e-12
2.43331e-14
1.34143e-13
8.87086e-13
2.40735e-12
2.68063e-13
2.48766e-12
1.34136e-13
2.48035e-12
7.1894e-14
2.38671e-12
1.17969e-13
5.19956e-13
2.0009e-12
2.67628e-12
-4.08219e-13
2.92524e-12
-1.14826e-13
2.98646e-12
1.0674e-14
2.94494e-12
1.59497e-13
7.79733e-13
2.68516e-12
2.35098e-12
-7.59199e-13
2.42752e-12
-1.91361e-13
2.45745e-12
-1.92621e-14
2.51259e-12
1.04363e-13
6.26733e-13
2.66558e-12
1.2408e-12
1.04944e-12
1.03018e-12
1.13454e-12
1.76127e-12
8.03791e-13
8.32959e-14
7.89499e-13
1.4292e-14
-2.06444e-13
9.95942e-13
-4.15906e-13
2.09462e-13
5.27983e-12
-5.69573e-12
4.02405e-12
1.25578e-12
1.9434e-12
2.08065e-12
3.68129e-13
1.57527e-12
3.39938e-13
2.81911e-14
3.51506e-13
-1.15683e-14
2.10942e-13
1.40565e-13
2.16786e-13
-5.84488e-15
3.45886e-13
-1.291e-13
4.60974e-13
-1.15087e-13
5.15114e-13
-5.414e-14
5.26575e-13
-1.14606e-14
5.23526e-13
3.04827e-15
5.05935e-13
1.7591e-14
4.85923e-13
2.00125e-14
4.56793e-13
2.91296e-14
4.28936e-13
2.7857e-14
4.57744e-13
-2.88073e-14
5.87409e-13
-1.29666e-13
7.63324e-13
-1.75915e-13
7.49226e-13
1.40977e-14
5.5317e-13
1.96057e-13
4.20532e-13
1.32637e-13
3.57354e-13
6.31783e-14
2.24944e-13
1.3241e-13
5.75088e-14
1.67435e-13
2.89457e-13
-2.31949e-13
5.94286e-13
-3.04829e-13
7.48316e-13
-1.5403e-13
9.34197e-13
-1.85881e-13
7.41533e-13
1.92664e-13
5.65748e-13
1.75785e-13
4.79071e-13
8.66764e-14
5.78253e-13
-9.91815e-14
6.9228e-13
-1.14027e-13
6.49856e-13
4.24243e-14
5.70645e-13
7.92101e-14
5.08105e-13
6.25399e-14
4.87178e-13
2.09274e-14
4.87549e-13
-3.71556e-16
3.31642e-14
9.82074e-13
1.10212e-12
-7.42092e-13
1.73846e-12
-1.29206e-12
1.54591e-12
6.9961e-13
-1.78221e-12
4.77998e-12
-9.77611e-12
2.02372e-12
4.01204e-12
-7.99223e-15
4.11236e-12
4.37102e-14
1.52357e-12
8.56506e-13
-7.84604e-13
9.87199e-13
-1.42262e-13
7.3637e-13
3.91394e-13
7.49872e-13
-1.93464e-14
1.00054e-12
-3.79771e-13
1.22939e-12
-3.43928e-13
1.34682e-12
-1.71575e-13
1.38068e-12
-4.53205e-14
1.36399e-12
1.97363e-14
1.32669e-12
5.48988e-14
1.27486e-12
7.18364e-14
1.211e-12
9.29901e-14
1.16647e-12
7.23868e-14
1.23599e-12
-9.83237e-14
1.49339e-12
-3.87069e-13
1.82384e-12
-5.06361e-13
1.83634e-12
1.59308e-15
1.52621e-12
5.06193e-13
1.24513e-12
4.13716e-13
1.04626e-12
2.62044e-13
7.76902e-13
4.01773e-13
5.03418e-13
4.40919e-13
9.11572e-13
-6.40102e-13
1.41377e-12
-8.07025e-13
1.69457e-12
-4.34832e-13
1.99852e-12
-4.89835e-13
1.71978e-12
4.7141e-13
1.45807e-12
4.37493e-13
1.33549e-12
2.09252e-13
1.50837e-12
-2.72057e-13
1.69064e-12
-2.963e-13
1.62257e-12
1.105e-13
1.47904e-12
2.22738e-13
1.35648e-12
1.851e-13
1.31283e-12
6.4579e-14
1.30087e-12
1.1588e-14
9.18392e-14
1.74563e-12
2.04165e-12
-5.58835e-13
4.04292e-12
-1.49257e-12
2.47965e-12
1.48104e-12
-4.75582e-12
4.56012e-12
-1.28552e-11
5.04666e-12
3.5255e-12
-2.49224e-13
9.40825e-12
-5.47386e-15
1.27982e-12
1.54197e-12
-2.33205e-12
1.84874e-12
-4.49027e-13
1.49645e-12
7.43684e-13
1.39754e-12
7.95646e-14
1.60625e-12
-5.8848e-13
1.84733e-12
-5.85007e-13
1.98349e-12
-3.07738e-13
2.0268e-12
-8.86283e-14
2.01559e-12
3.09452e-14
1.97224e-12
9.82454e-14
1.91893e-12
1.25143e-13
1.84621e-12
1.65713e-13
1.78412e-12
1.34479e-13
1.81337e-12
-1.27571e-13
2.09939e-12
-6.73096e-13
2.50399e-12
-9.10957e-13
2.52044e-12
-1.48606e-14
2.16796e-12
8.58676e-13
1.87381e-12
7.07863e-13
1.76632e-12
3.69532e-13
1.46151e-12
7.06587e-13
1.09436e-12
8.08066e-13
1.56409e-12
-1.10983e-12
2.02847e-12
-1.2714e-12
2.27714e-12
-6.83504e-13
2.64778e-12
-8.60476e-13
2.31793e-12
8.01259e-13
2.0654e-12
6.90028e-13
1.91726e-12
3.57386e-13
2.11268e-12
-4.67475e-13
2.32141e-12
-5.05028e-13
2.23649e-12
1.95416e-13
2.10609e-12
3.53137e-13
1.97918e-12
3.1201e-13
1.94126e-12
1.025e-13
1.94038e-12
1.24683e-14
1.48756e-13
2.63411e-12
2.07313e-12
3.18742e-12
3.4896e-12
3.05304e-12
2.61403e-12
9.18124e-12
-1.0884e-11
-1.65857e-12
-2.01537e-12
-2.88305e-12
4.74997e-12
-2.87688e-12
9.40208e-12
-2.4544e-13
-1.35162e-12
2.41108e-12
-4.98857e-12
2.92533e-12
-9.63274e-13
2.47511e-12
1.1939e-12
2.15055e-12
4.04133e-13
2.1735e-12
-6.11434e-13
2.31807e-12
-7.29579e-13
2.42502e-12
-4.1469e-13
2.46708e-12
-1.30688e-13
2.46661e-12
3.14232e-14
2.44277e-12
1.22081e-13
2.41548e-12
1.52432e-13
2.37834e-12
2.02855e-13
2.31209e-12
2.00726e-13
2.25297e-12
-6.84491e-14
2.48798e-12
-9.08109e-13
2.87351e-12
-1.29648e-12
2.80474e-12
5.39048e-14
2.38192e-12
1.2815e-12
2.14447e-12
9.4531e-13
2.41044e-12
1.03566e-13
2.27298e-12
8.44049e-13
1.91654e-12
1.1645e-12
2.39539e-12
-1.58868e-12
2.52018e-12
-1.39619e-12
2.52835e-12
-6.91672e-13
2.88574e-12
-1.21786e-12
2.516e-12
1.171e-12
2.34274e-12
8.63281e-13
2.2085e-12
4.9163e-13
2.41653e-12
-6.75503e-13
2.58217e-12
-6.70673e-13
2.45945e-12
3.18133e-13
2.42262e-12
3.8997e-13
2.35036e-12
3.8427e-13
2.35562e-12
9.72442e-14
2.39384e-12
-2.57582e-14
1.87139e-13
2.17893e-12
1.65547e-12
7.59685e-13
4.90885e-12
3.4493e-12
-7.55798e-14
-3.79551e-12
-3.63923e-12
-1.84744e-11
1.26636e-11
-9.50082e-12
-4.22365e-12
-4.67244e-12
4.57369e-12
2.66448e-12
-8.68854e-12
3.95149e-12
-6.27558e-12
3.84562e-12
-8.57404e-13
3.40744e-12
1.63208e-12
2.91779e-12
8.93778e-13
2.67043e-12
-3.64075e-13
2.64413e-12
-7.03281e-13
2.68007e-12
-4.50624e-13
2.70703e-12
-1.57653e-13
2.72034e-12
1.81206e-14
2.72707e-12
1.15349e-13
2.74641e-12
1.33087e-13
2.79282e-12
1.56446e-13
2.80802e-12
1.85528e-13
2.63456e-12
1.05009e-13
2.6826e-12
-9.5615e-13
2.78239e-12
-1.39626e-12
2.48466e-12
3.51633e-13
2.25718e-12
1.50897e-12
2.12164e-12
1.08086e-12
2.74904e-12
-5.23839e-13
3.01281e-12
5.8028e-13
3.195e-12
9.82309e-13
3.8017e-12
-2.19537e-12
3.02249e-12
-6.16981e-13
2.36092e-12
-3.00999e-14
2.49884e-12
-1.35579e-12
2.31418e-12
1.35566e-12
2.42439e-12
7.53078e-13
2.34589e-12
5.70127e-13
2.40283e-12
-7.3244e-13
2.35792e-12
-6.25769e-13
2.23969e-12
4.36367e-13
2.44038e-12
1.89275e-13
2.49254e-12
3.32114e-13
2.56691e-12
2.28697e-14
2.6521e-12
-1.1094e-13
1.9178e-13
7.21795e-13
1.09368e-12
3.84144e-13
5.2465e-12
2.43288e-12
-2.12431e-12
-1.34369e-12
1.37337e-13
-3.07077e-12
1.43906e-11
-2.36612e-12
-4.92829e-12
7.02752e-13
1.50482e-12
1.50362e-12
-9.48941e-12
1.05246e-12
-5.82442e-12
8.92185e-13
-6.9713e-13
8.15831e-13
1.70843e-12
7.10528e-13
9.99081e-13
6.37421e-13
-2.90969e-13
6.10925e-13
-6.76784e-13
6.07375e-13
-4.47074e-13
6.1028e-13
-1.60558e-13
6.14785e-13
1.36153e-14
6.1997e-13
1.10164e-13
6.29823e-13
1.23234e-13
6.59095e-13
1.27174e-13
6.88159e-13
1.56464e-13
6.60628e-13
1.3254e-13
6.07685e-13
-9.03207e-13
5.09508e-13
-1.29809e-12
4.12547e-13
4.48594e-13
5.04516e-13
1.417e-12
5.10587e-13
1.07478e-12
5.42783e-13
-5.56035e-13
7.48973e-13
3.7409e-13
9.95289e-13
7.35993e-13
1.03381e-12
-2.2339e-12
7.27117e-13
-3.10286e-13
4.40195e-13
2.56822e-13
3.5373e-13
-1.26932e-12
4.18228e-13
1.29116e-12
5.82253e-13
5.89053e-13
6.00858e-13
5.51522e-13
4.84744e-13
-6.16325e-13
3.90931e-13
-5.31957e-13
4.18574e-13
4.08724e-13
5.15676e-13
9.21737e-14
5.58082e-13
2.89708e-13
5.77495e-13
3.4572e-15
5.95294e-13
-1.28739e-13
1.82452e-13
1.31411e-13
1.12227e-12
6.07604e-13
4.77031e-12
-1.33286e-12
-1.83852e-13
-1.28732e-12
9.18032e-14
7.68528e-13
1.23348e-11
3.91161e-13
-4.55093e-12
2.02969e-12
-1.33708e-13
1.57225e-12
-9.03197e-12
1.04478e-12
-5.29694e-12
8.92272e-13
-5.44622e-13
8.25823e-13
1.77488e-12
7.26108e-13
1.09879e-12
6.50206e-13
-2.15067e-13
6.17633e-13
-6.44211e-13
6.09996e-13
-4.39437e-13
6.11313e-13
-1.61875e-13
6.16588e-13
8.34013e-15
6.22645e-13
1.04107e-13
6.33138e-13
1.12742e-13
6.70277e-13
9.00348e-14
7.10639e-13
1.16102e-13
6.88123e-13
1.55056e-13
6.13081e-13
-8.28165e-13
4.72464e-13
-1.15747e-12
3.73659e-13
5.47399e-13
4.92318e-13
1.29834e-12
5.24015e-13
1.04309e-12
5.47371e-13
-5.7939e-13
8.48796e-13
7.26647e-14
9.99145e-13
5.85644e-13
1.04928e-12
-2.28403e-12
7.35141e-13
3.84792e-15
4.03551e-13
5.88412e-13
2.70909e-13
-1.13668e-12
3.27583e-13
1.23449e-12
6.2527e-13
2.91367e-13
6.78972e-13
4.97819e-13
4.37016e-13
-3.74369e-13
3.24613e-13
-4.19554e-13
3.79644e-13
3.53693e-13
5.07061e-13
-3.52429e-14
5.59896e-13
2.36873e-13
5.78407e-13
-1.5054e-14
5.95972e-13
-1.46304e-13
1.68887e-13
-6.42186e-13
1.92445e-12
-1.18283e-12
5.31095e-12
-1.82006e-12
4.5338e-13
-2.31121e-12
5.82955e-13
-5.56824e-13
1.05804e-11
9.77508e-13
-6.08526e-12
2.08082e-12
-1.23702e-12
1.31656e-12
-8.26771e-12
9.76517e-13
-4.9569e-12
8.81657e-13
-4.49763e-13
8.28051e-13
1.82849e-12
7.36004e-13
1.19084e-12
6.5958e-13
-1.38642e-13
6.22185e-13
-6.06816e-13
6.10586e-13
-4.27837e-13
6.10123e-13
-1.61413e-13
6.15956e-13
2.50787e-15
6.23982e-13
9.6081e-14
6.34369e-13
1.02354e-13
6.67125e-13
5.7279e-14
7.15672e-13
6.7554e-14
7.35085e-13
1.35643e-13
6.10965e-13
-7.04045e-13
4.43059e-13
-9.89563e-13
3.37215e-13
6.53243e-13
5.13542e-13
1.12202e-12
5.46761e-13
1.00987e-12
5.22409e-13
-5.55039e-13
6.44591e-13
-4.95173e-14
8.75724e-13
3.54512e-13
1.00108e-12
-2.40938e-12
7.20749e-13
2.84178e-13
3.94267e-13
9.14894e-13
1.23934e-13
-8.66348e-13
3.00316e-13
1.0581e-12
5.43405e-13
4.82772e-14
6.65668e-13
3.75556e-13
4.22772e-13
-1.31473e-13
2.10698e-13
-2.0748e-13
3.69759e-13
1.94632e-13
5.11583e-13
-1.77067e-13
5.65562e-13
1.82894e-13
5.79961e-13
-2.94526e-14
5.9835e-13
-1.64693e-13
1.54511e-13
1.34135e-12
7.43095e-13
-7.00736e-13
7.35304e-12
-3.39914e-12
3.15179e-12
-3.92698e-12
1.11079e-12
5.47839e-12
1.17503e-12
1.5183e-12
-2.12517e-12
8.38244e-13
-5.56957e-13
1.01456e-12
-8.44403e-12
8.95529e-13
-4.83787e-12
8.62481e-13
-4.16716e-13
8.21901e-13
1.86907e-12
7.3987e-13
1.27287e-12
6.65588e-13
-6.4361e-14
6.24626e-13
-5.65854e-13
6.09334e-13
-4.12545e-13
6.07338e-13
-1.59417e-13
6.13216e-13
-3.37e-15
6.21426e-13
8.7871e-14
6.33965e-13
8.98153e-14
6.63089e-13
2.81549e-14
7.13059e-13
1.75846e-14
7.08939e-13
1.39763e-13
6.03554e-13
-5.9866e-13
4.22159e-13
-8.08168e-13
3.09799e-13
7.65603e-13
5.24519e-13
9.07298e-13
5.65646e-13
9.68741e-13
5.11155e-13
-5.00547e-13
5.42396e-13
-8.0758e-14
7.33317e-13
1.63591e-13
8.58914e-13
-2.53498e-12
7.05572e-13
4.37519e-13
3.97771e-13
1.2227e-12
1.92723e-13
-6.613e-13
3.02443e-13
9.48385e-13
5.15809e-13
-1.65088e-13
6.21397e-13
2.69968e-13
4.10119e-13
7.98052e-14
2.16094e-13
-1.34559e-14
3.72522e-13
3.82044e-14
5.23523e-13
-3.28068e-13
5.70553e-13
1.35864e-13
5.80753e-13
-3.96535e-14
5.97924e-13
-1.81864e-13
1.36934e-13
4.04098e-12
-3.13787e-12
-6.31309e-13
1.20253e-11
-3.12511e-12
5.64559e-12
-6.6814e-12
4.66708e-12
1.95632e-12
-7.46269e-12
9.55658e-13
-1.12451e-12
7.03969e-13
-3.05269e-13
8.49045e-13
-8.5891e-12
8.34447e-13
-4.82328e-12
8.30121e-13
-4.12389e-13
8.06017e-13
1.89317e-12
7.37498e-13
1.34139e-12
6.67936e-13
5.20147e-15
6.24748e-13
-5.22667e-13
6.06083e-13
-3.9388e-13
6.0284e-13
-1.56174e-13
6.07933e-13
-8.46346e-15
6.16995e-13
7.88087e-14
6.29691e-13
7.71193e-14
6.55275e-13
2.57175e-15
6.88706e-13
-1.58471e-14
6.92014e-13
1.36455e-13
5.91998e-13
-4.98644e-13
4.2033e-13
-6.365e-13
2.86239e-13
8.99693e-13
5.05451e-13
6.88087e-13
5.84642e-13
8.89551e-13
5.32591e-13
-4.48497e-13
5.20361e-13
-6.8528e-14
6.03467e-13
8.04851e-14
8.15906e-13
-2.74742e-12
6.88953e-13
5.64472e-13
4.21454e-13
1.4902e-12
2.86051e-13
-5.25897e-13
3.57086e-13
8.7735e-13
4.85798e-13
-2.93799e-13
5.73759e-13
1.82007e-13
4.22343e-13
2.31222e-13
3.19452e-13
8.94353e-14
4.21857e-13
-6.42013e-14
5.35882e-13
-4.42093e-13
5.74925e-13
9.68216e-14
5.7836e-13
-4.30884e-14
5.96755e-13
-2.00259e-13
1.17591e-13
1.23829e-12
7.61715e-13
1.03364e-12
2.04641e-13
9.45008e-13
8.86374e-14
7.35644e-13
2.09364e-13
3.25916e-13
4.09728e-13
2.34967e-12
4.12041e-13
2.42285e-12
1.31467e-13
2.44067e-12
7.08137e-14
2.63046e-12
1.95721e-14
-4.95436e-13
3.45181e-12
2.67694e-12
-2.64895e-13
2.93058e-12
-1.22173e-13
3.01544e-12
-1.40506e-14
3.0814e-12
-4.63905e-14
-4.29144e-13
3.01511e-12
2.40929e-12
-6.74189e-13
2.49825e-12
-2.11133e-13
2.53196e-12
-4.7757e-14
2.51825e-12
-3.26791e-14
-2.1571e-13
2.30481e-12
1.32581e-12
1.11468e-12
1.06692e-12
1.03424e-12
8.18531e-13
-3.16804e-12
4.39892e-13
-1.86659e-12
1.07239e-11
-1.48458e-12
5.26359e-12
5.15288e-12
-1.97039e-12
-2.44761e-12
1.37811e-13
1.64266e-12
-5.21478e-12
4.38486e-12
-3.04747e-12
3.37683e-12
-7.58107e-12
3.19179e-12
-4.63823e-12
3.16328e-12
-3.83882e-13
3.30811e-12
1.74834e-12
3.23015e-12
1.41935e-12
2.98995e-12
2.45398e-13
2.77587e-12
-3.08583e-13
2.65903e-12
-2.77044e-13
2.63046e-12
-1.27601e-13
2.64824e-12
-2.62395e-14
2.69307e-12
3.39723e-14
2.75189e-12
1.83004e-14
2.79444e-12
-3.99754e-14
2.8131e-12
-3.45067e-14
2.90151e-12
4.80412e-14
2.54575e-12
-1.42885e-13
1.95708e-12
-4.78251e-14
1.98365e-12
8.73119e-13
2.45792e-12
2.13822e-13
2.78822e-12
5.59248e-13
2.61842e-12
-2.78699e-13
2.86851e-12
-3.18612e-13
3.95882e-12
-1.00983e-12
3.30237e-12
-2.09097e-12
2.94732e-12
9.19528e-13
2.36542e-12
2.07209e-12
1.80987e-12
2.96519e-14
1.96256e-12
7.24661e-13
1.88859e-12
-2.19829e-13
1.89548e-12
1.7512e-13
2.08758e-12
3.91144e-14
2.41378e-12
-2.36757e-13
2.55105e-12
-2.01478e-13
2.5311e-12
-4.22138e-13
2.66731e-12
-3.9396e-14
2.57459e-12
4.9641e-14
2.64667e-12
-2.72341e-13
-1.61989e-14
1.46968e-12
2.42203e-12
8.06504e-12
4.12851e-12
1.14171e-11
1.91152e-12
7.67937e-12
1.76736e-12
5.87849e-12
1.93869e-12
4.65264e-12
-3.98893e-12
5.08009e-12
-3.47492e-12
3.30994e-12
-5.81092e-12
2.18996e-12
-3.51826e-12
2.04407e-12
-2.37983e-13
2.43722e-12
1.35519e-12
2.69962e-12
1.15695e-12
2.65771e-12
2.87299e-13
2.48828e-12
-1.39149e-13
2.36645e-12
-1.55212e-13
2.33544e-12
-9.65986e-14
2.35309e-12
-4.38824e-14
2.38942e-12
-2.35816e-15
2.42228e-12
-1.45629e-14
2.423e-12
-4.06906e-14
2.40043e-12
-1.19415e-14
2.41381e-12
3.46665e-14
2.33373e-12
-6.28086e-14
2.03493e-12
2.50975e-13
2.18082e-12
7.27224e-13
2.4648e-12
-7.01565e-14
2.67911e-12
3.44937e-13
2.82303e-12
-4.22617e-13
2.67009e-12
-1.65675e-13
2.71762e-12
-1.05735e-12
1.92667e-12
-1.30002e-12
1.96236e-12
8.83834e-13
2.35836e-12
1.67609e-12
2.29962e-12
8.83951e-14
2.41983e-12
6.04446e-13
2.05784e-12
1.42167e-13
2.139e-12
9.39533e-14
2.17452e-12
3.59644e-15
2.12421e-12
-1.86451e-13
2.4518e-12
-5.29065e-13
2.41698e-12
-3.87318e-13
2.42324e-12
-4.56493e-14
2.46526e-12
7.61894e-15
2.57658e-12
-3.8366e-13
-2.88207e-13
4.03274e-12
1.4044e-12
6.75036e-12
1.41089e-12
6.34534e-12
2.31654e-12
6.22389e-12
1.8888e-12
5.92453e-12
2.23806e-12
4.3394e-12
-2.4038e-12
4.54333e-12
-3.67886e-12
2.71498e-12
-3.98256e-12
1.18544e-12
-1.98873e-12
1.03491e-12
-8.74503e-14
1.57556e-12
8.1454e-13
2.02567e-12
7.06841e-13
2.11308e-12
1.99895e-13
2.00576e-12
-3.18275e-14
1.91315e-12
-6.26081e-14
1.88767e-12
-7.11198e-14
1.89841e-12
-5.46162e-14
1.91832e-12
-2.2273e-14
1.92424e-12
-2.04777e-14
1.90457e-12
-2.10213e-14
1.88931e-12
3.31529e-15
1.88623e-12
3.775e-14
1.9084e-12
-8.49805e-14
1.87358e-12
2.85794e-13
2.09552e-12
5.05279e-13
2.1045e-12
-7.91302e-14
2.30171e-12
1.47725e-13
2.14413e-12
-2.65039e-13
2.15908e-12
-1.80622e-13
1.7795e-12
-6.77771e-13
1.15607e-12
-6.76599e-13
1.52084e-12
5.19062e-13
2.27489e-12
9.22052e-13
2.33553e-12
2.77502e-14
2.46983e-12
4.70152e-13
2.21676e-12
3.9523e-13
2.41684e-12
-1.06126e-13
2.2564e-12
1.64041e-13
2.28498e-12
-2.15036e-13
2.21943e-12
-4.63508e-13
2.11532e-12
-2.83209e-13
2.18201e-12
-1.12345e-13
2.33324e-12
-1.43611e-13
2.13817e-12
-1.8859e-13
-4.2378e-13
3.3572e-12
3.52021e-13
4.85271e-12
-8.46268e-14
5.79457e-12
1.37468e-12
6.10812e-12
1.57525e-12
6.8587e-12
1.48748e-12
5.92332e-12
-1.46842e-12
4.14063e-12
-1.89617e-12
1.86611e-12
-1.70804e-12
4.03164e-13
-5.25779e-13
3.09552e-13
6.16211e-15
8.3851e-13
2.85582e-13
1.29202e-12
2.53327e-13
1.41493e-12
7.69916e-14
1.36561e-12
1.74844e-14
1.30705e-12
-4.04516e-15
1.28535e-12
-4.94158e-14
1.27652e-12
-4.57879e-14
1.27347e-12
-1.9227e-14
1.26066e-12
-7.66817e-15
1.23663e-12
3.00952e-15
1.22808e-12
1.18682e-14
1.22452e-12
4.13081e-14
1.18492e-12
-4.53801e-14
1.3101e-12
1.60611e-13
1.68222e-12
1.33164e-13
1.62014e-12
-1.70513e-14
1.71256e-12
5.53042e-14
1.51523e-12
-6.77132e-14
1.38199e-12
-4.73759e-14
1.00423e-12
-3.00018e-13
6.26864e-13
-2.9923e-13
1.00838e-12
1.37552e-13
1.64036e-12
2.90068e-13
1.63086e-12
3.72467e-14
1.94471e-12
1.56301e-13
2.14087e-12
1.99067e-13
2.133e-12
-9.82537e-14
1.98132e-12
3.15725e-13
1.90992e-12
-1.43641e-13
1.69259e-12
-2.46176e-13
1.50423e-12
-9.48454e-14
1.47663e-12
-8.47442e-14
1.43788e-12
-1.04858e-13
1.29278e-12
-4.34985e-14
-1.77451e-13
1.17055e-12
1.08592e-12
2.46061e-12
4.03586e-12
5.52334e-12
4.05491e-12
2.15875e-12
4.50704e-13
-7.50755e-14
-6.89135e-14
2.16668e-13
4.69996e-13
5.46987e-13
5.64471e-13
5.60426e-13
5.1101e-13
4.65222e-13
4.45995e-13
4.38327e-13
4.41337e-13
4.53205e-13
4.94513e-13
4.49133e-13
6.09743e-13
7.42908e-13
7.25857e-13
7.81161e-13
7.13448e-13
6.66072e-13
3.66054e-13
6.68236e-14
2.04375e-13
4.94443e-13
5.3169e-13
6.87992e-13
8.87059e-13
7.88805e-13
1.10453e-12
9.60889e-13
7.14713e-13
6.19868e-13
5.35124e-13
4.30265e-13
3.86766e-13
)
;

boundaryField
{
    AirInlet
    {
        type            calculated;
        value           nonuniform List<scalar> 5(-1.6e-13 -1.6e-13 -1.6e-13 -1.6e-13 -1.6e-13);
    }
    WaterInlet
    {
        type            calculated;
        value           nonuniform List<scalar> 10(-2e-12 -2e-12 -2e-12 -2e-12 -2e-12 -2e-12 -2e-12 -2e-12 -2e-12 -2e-12);
    }
    ChannelWall
    {
        type            calculated;
        value           uniform 0;
    }
    Outlet
    {
        type            calculated;
        value           nonuniform List<scalar> 
15
(
4.54385e-13
1.24219e-12
1.88346e-12
2.35546e-12
2.64746e-12
6.04621e-13
6.09537e-13
6.12725e-13
6.15501e-13
6.16099e-13
2.78046e-12
2.84858e-12
2.27375e-12
1.04645e-12
2.09316e-13
)
;
    }
    FrontAndBack
    {
        type            empty;
        value           nonuniform 0();
    }
}


// ************************************************************************* //
