/*--------------------------------*- C++ -*----------------------------------*\
| =========                 |                                                 |
| \\      /  F ield         | OpenFOAM: The Open Source CFD Toolbox           |
|  \\    /   O peration     | Version:  2.3.0                                 |
|   \\  /    A nd           | Web:      www.OpenFOAM.org                      |
|    \\/     M anipulation  |                                                 |
\*---------------------------------------------------------------------------*/
FoamFile
{
    version     2.0;
    format      ascii;
    class       volVectorField;
    location    "0.024";
    object      U;
}
// * * * * * * * * * * * * * * * * * * * * * * * * * * * * * * * * * * * * * //

dimensions      [0 1 -1 0 0 0 0];

internalField   nonuniform List<vector> 
725
(
(0.217289 0.0250709 -2.15345e-30)
(0.197048 0.00963179 3.75271e-31)
(0.156186 0.00286157 1.80112e-31)
(0.134721 0.000400204 0)
(0.104546 0.0018056 1.15317e-31)
(0.379824 0.0526388 -1.02832e-29)
(0.406738 0.0378815 1.68401e-30)
(0.361992 0.0256232 5.25354e-31)
(0.318711 0.0210702 0)
(0.247636 0.0282172 2.58562e-30)
(0.417135 0.0380923 -4.60654e-30)
(0.466747 0.0470372 2.56119e-31)
(0.430581 0.0453406 -5.31163e-31)
(0.387478 0.0462833 0)
(0.314778 0.0660365 3.87475e-30)
(0.375931 0.0171902 6.21865e-30)
(0.394865 0.0434467 -2.21759e-31)
(0.353705 0.0495266 -2.08139e-30)
(0.32279 0.0535366 0)
(0.275089 0.0784082 8.54164e-30)
(0.210375 0.0108433 7.90854e-30)
(0.182057 0.028556 -7.74026e-31)
(0.14898 0.0281795 -9.7904e-31)
(0.14059 0.0299034 -9.6521e-31)
(0.123487 0.0442947 4.24376e-30)
(0.0981935 -0.00984013 0)
(0.110819 -0.0229345 0)
(0.0168637 0.0292341 0)
(-0.0718238 0.0486998 0)
(0.122434 -0.149054 0)
(0.751599 -0.0250462 0)
(0.195914 0.0704093 0)
(0.124621 0.0520054 0)
(-0.000751088 0.00545131 0)
(0.0575502 -0.000152529 0)
(0.0277361 0.00221194 0)
(0.0201341 0.000505911 0)
(0.0308786 -0.00147689 0)
(0.046016 -0.0013428 0)
(0.055294 -0.000551818 0)
(0.0584665 -4.80005e-05 0)
(0.0587165 -8.49821e-05 0)
(0.0573049 0.000187534 0)
(0.0553331 0.000117815 0)
(0.0522187 0.000310813 0)
(0.0479229 0.000580322 0)
(0.0474835 1.14565e-05 0)
(0.0567567 -0.00154234 0)
(0.0774223 -0.00257257 0)
(0.0884697 0.000720959 0)
(0.0727156 0.00360156 0)
(0.0538092 0.00115196 0)
(0.041939 -0.000428497 0)
(0.0351658 0.0018708 0)
(0.0100889 0.00343261 0)
(0.00778444 -0.00398774 0)
(0.0506904 -0.00469132 0)
(0.0760438 -0.00169578 0)
(0.0978768 -0.00350445 0)
(0.097115 0.00435643 0)
(0.0709064 0.00296411 0)
(0.0545677 0.00180322 0)
(0.0576624 -0.00164352 0)
(0.0725008 -0.00193182 0)
(0.0764382 0.000875522 0)
(0.067933 0.00107823 0)
(0.0591272 0.000785863 0)
(0.0546367 0.000216033 0)
(0.0551176 -0.000277486 0)
(0.0505523 0.000536332 0)
(0.206411 0.0203171 0)
(0.0486243 0.0255504 0)
(-0.25571 0.0595594 0)
(-0.0109158 -0.0202668 0)
(0.292054 -0.358625 0)
(0.500176 0.228685 0)
(0.00193276 0.0885676 0)
(-0.00406677 0.0668777 0)
(0.0269134 -0.00629296 0)
(0.130114 -0.00185249 0)
(0.0906515 0.0120598 0)
(0.0748478 -0.00139051 0)
(0.0963494 -0.0123767 0)
(0.126169 -0.0106577 0)
(0.145537 -0.00503935 0)
(0.152982 -0.00115971 0)
(0.15344 0.000488032 0)
(0.149818 0.00166547 0)
(0.14502 0.00205668 0)
(0.137925 0.00276096 0)
(0.129517 0.00214919 0)
(0.129795 -0.00332797 0)
(0.148392 -0.0123871 0)
(0.18796 -0.0155852 0)
(0.21164 0.00112819 0)
(0.189279 0.0173091 0)
(0.156409 0.0129614 0)
(0.125093 0.00740213 0)
(0.101387 0.0125696 0)
(0.0624226 0.0142369 0)
(0.0634947 -0.0211965 0)
(0.131633 -0.0268667 0)
(0.175297 -0.0142832 0)
(0.212368 -0.0157704 0)
(0.21349 0.0165361 0)
(0.17472 0.0151918 0)
(0.148949 0.00718301 0)
(0.155349 -0.00924676 0)
(0.180985 -0.00980873 0)
(0.188138 0.00395193 0)
(0.173036 0.00734511 0)
(0.155788 0.00582437 0)
(0.146648 0.00194408 0)
(0.147123 0.000269642 0)
(0.138068 0.00301407 0)
(0.289034 0.0872579 0)
(0.142396 0.155669 0)
(-0.321539 0.103573 0)
(0.10359 -0.245894 0)
(0.28025 -0.558433 0)
(0.807776 0.0315998 0)
(0.0717026 0.361833 0)
(-0.0787581 0.104777 0)
(0.0819953 -0.0618607 0)
(0.221541 -0.0100163 0)
(0.184145 0.0267651 0)
(0.151441 -0.00113831 0)
(0.164287 -0.026185 0)
(0.193436 -0.0237886 0)
(0.215349 -0.0119862 0)
(0.224573 -0.00324606 0)
(0.225722 0.0013842 0)
(0.221929 0.00396381 0)
(0.21674 0.0050819 0)
(0.209417 0.00652754 0)
(0.199342 0.0048175 0)
(0.195721 -0.00651086 0)
(0.212167 -0.0269502 0)
(0.259012 -0.0344223 0)
(0.290626 -0.000655076 0)
(0.263164 0.0330967 0)
(0.22436 0.0285309 0)
(0.199369 0.0181269 0)
(0.182272 0.0288918 0)
(0.13255 0.0296795 0)
(0.131836 -0.0450281 0)
(0.202601 -0.0531132 0)
(0.240333 -0.0296382 0)
(0.281855 -0.0331787 0)
(0.284024 0.0312964 0)
(0.23931 0.028994 0)
(0.215036 0.0145711 0)
(0.221312 -0.0185674 0)
(0.249149 -0.0202679 0)
(0.257529 0.00752214 0)
(0.242373 0.0147455 0)
(0.225143 0.0127647 0)
(0.215617 0.00443024 0)
(0.217919 0.000940196 0)
(0.209269 0.00614803 0)
(0.322422 0.118461 0)
(0.301987 0.202304 0)
(0.327761 0.135489 0)
(0.545807 -0.305111 0)
(0.599638 -0.490816 0)
(-0.490376 0.405121 0)
(-0.331647 0.465637 0)
(-0.196072 0.076397 0)
(0.148853 -0.184924 0)
(0.332446 -0.0342382 0)
(0.305577 0.0474051 0)
(0.248453 0.00850778 0)
(0.234829 -0.0338288 0)
(0.24858 -0.0349758 0)
(0.26492 -0.0188542 0)
(0.273161 -0.00563997 0)
(0.274997 0.00170437 0)
(0.272938 0.0058168 0)
(0.270166 0.00743997 0)
(0.266959 0.00986988 0)
(0.259711 0.00854283 0)
(0.250792 -0.00620605 0)
(0.257689 -0.0417502 0)
(0.298913 -0.0572544 0)
(0.33078 -0.000258473 0)
(0.289403 0.0511266 0)
(0.241876 0.0427089 0)
(0.245676 0.0224857 0)
(0.27077 0.0455161 0)
(0.226572 0.0487811 0)
(0.229584 -0.0710466 0)
(0.276605 -0.071559 0)
(0.277386 -0.0395411 0)
(0.306012 -0.0540806 0)
(0.308821 0.0477963 0)
(0.259011 0.0409681 0)
(0.250373 0.0230285 0)
(0.257948 -0.0294304 0)
(0.27791 -0.0309824 0)
(0.28202 0.0123797 0)
(0.272023 0.0198948 0)
(0.264312 0.0186745 0)
(0.259379 0.00577178 0)
(0.26612 0.000396966 0)
(0.261623 0.00879219 0)
(0.254422 0.0725375 0)
(0.141387 0.209102 0)
(0.156861 0.0674654 0)
(0.396002 -0.450829 0)
(-1.4846 0.222759 0)
(-1.81877 -0.247168 0)
(-0.858989 0.39854 0)
(0.175535 -0.29359 0)
(0.349034 -0.318733 0)
(0.433588 -0.0591491 0)
(0.413848 0.0709002 0)
(0.347672 0.0326722 0)
(0.302872 -0.0263895 0)
(0.291167 -0.0378894 0)
(0.29524 -0.0227418 0)
(0.299715 -0.00754707 0)
(0.301817 0.00137577 0)
(0.302613 0.00627082 0)
(0.303476 0.00766415 0)
(0.307472 0.0106622 0)
(0.312526 0.011747 0)
(0.303553 0.000878447 0)
(0.295423 -0.0517102 0)
(0.300785 -0.0770298 0)
(0.304176 0.00584654 0)
(0.260388 0.0774582 0)
(0.228286 0.052514 0)
(0.255854 -0.0140002 0)
(0.326479 0.0464576 0)
(0.344454 0.0704232 0)
(0.410672 -0.102148 0)
(0.381862 -0.0631401 0)
(0.291909 -0.0290118 0)
(0.257595 -0.0737551 0)
(0.271438 0.0675959 0)
(0.245941 0.0504015 0)
(0.276682 0.0287125 0)
(0.274817 -0.0442634 0)
(0.25454 -0.0386987 0)
(0.249947 0.0215661 0)
(0.260814 0.0192557 0)
(0.276481 0.0206191 0)
(0.280129 0.00356415 0)
(0.29158 -0.00320468 0)
(0.293905 0.0102112 0)
(0.308941 0.0583167 0)
(0.289655 0.249686 0)
(0.374441 -0.0435268 0)
(0.778894 -0.093111 0)
(-1.41577 0.670882 0)
(-1.5722 -0.173464 0)
(-0.301593 0.156356 0)
(0.938388 -0.465686 0)
(0.570078 -0.305599 0)
(0.456884 -0.0392726 0)
(0.43653 0.083653 0)
(0.380154 0.0474157 0)
(0.330098 -0.0164067 0)
(0.30752 -0.0345772 0)
(0.303241 -0.0224954 0)
(0.304137 -0.00797658 0)
(0.306036 0.000801707 0)
(0.308804 0.00565426 0)
(0.311027 0.00642447 0)
(0.319213 0.00715392 0)
(0.340484 0.00869648 0)
(0.343441 0.0060717 0)
(0.322595 -0.0468345 0)
(0.283065 -0.067829 0)
(0.216777 0.0198798 0)
(0.221273 0.0741206 0)
(0.259037 0.0540367 0)
(0.252046 -0.0272773 0)
(0.303578 0.0238631 0)
(0.444545 0.043863 0)
(0.556993 -0.109782 0)
(0.453728 -0.0235088 0)
(0.283942 0.005227 0)
(0.166512 -0.0664312 0)
(0.176607 0.0667782 0)
(0.242406 0.0344511 0)
(0.329866 0.0284129 0)
(0.291742 -0.0344559 0)
(0.190374 -0.0295779 0)
(0.188174 0.0217279 0)
(0.237949 0.00736918 0)
(0.275607 0.0156484 0)
(0.283579 0.000658338 0)
(0.293599 -0.00598645 0)
(0.302013 0.00939276 0)
(0.0135538 0.0546923 0)
(0.301899 0.254601 0)
(0.129866 -0.0526071 0)
(-0.934609 0.00475999 0)
(0.22884 0.758942 0)
(-0.171801 -0.249649 0)
(0.601227 0.03272 0)
(1.14102 -0.459553 0)
(0.578593 -0.27926 0)
(0.454993 -0.0307847 0)
(0.438604 0.0872819 0)
(0.387815 0.0525292 0)
(0.338002 -0.0126681 0)
(0.312332 -0.0330894 0)
(0.30521 -0.0222102 0)
(0.304758 -0.00807571 0)
(0.306539 0.000556687 0)
(0.309962 0.00537211 0)
(0.312595 0.00591334 0)
(0.321883 0.00546063 0)
(0.347907 0.00693553 0)
(0.358727 0.00731799 0)
(0.334357 -0.0435328 0)
(0.277116 -0.0618418 0)
(0.186888 0.0248383 0)
(0.206322 0.0686654 0)
(0.270187 0.0531 0)
(0.261329 -0.0290928 0)
(0.31566 0.010231 0)
(0.47119 0.0331511 0)
(0.565535 -0.112315 0)
(0.464485 -0.00751824 0)
(0.281026 0.02074 0)
(0.130348 -0.060659 0)
(0.123063 0.0636052 0)
(0.236201 0.0224558 0)
(0.362085 0.0265487 0)
(0.306269 -0.0251699 0)
(0.154069 -0.0242415 0)
(0.156809 0.0196002 0)
(0.23037 0.00171658 0)
(0.275259 0.0132195 0)
(0.284623 -0.000324554 0)
(0.293189 -0.00689253 0)
(0.304159 0.00882729 0)
(-0.329604 0.0999869 0)
(0.225269 0.244959 0)
(-0.760896 -0.0263848 0)
(-1.99992 0.0304029 0)
(-0.355932 0.58361 0)
(0.18251 -0.274914 0)
(0.847449 -0.0497381 0)
(0.925398 -0.427924 0)
(0.522899 -0.253635 0)
(0.446374 -0.024224 0)
(0.436699 0.0902726 0)
(0.391872 0.0573519 0)
(0.34375 -0.00883831 0)
(0.315937 -0.0313318 0)
(0.306167 -0.0217298 0)
(0.30433 -0.00810137 0)
(0.305932 0.000272332 0)
(0.310064 0.00501814 0)
(0.313317 0.00538484 0)
(0.321282 0.00366806 0)
(0.347953 0.00459765 0)
(0.372907 0.00740571 0)
(0.347366 -0.0384302 0)
(0.271511 -0.0539221 0)
(0.162157 0.0300599 0)
(0.200605 0.060936 0)
(0.287329 0.0514956 0)
(0.26631 -0.0288948 0)
(0.256112 -0.000655639 0)
(0.386604 0.0231819 0)
(0.513529 -0.116872 0)
(0.45427 0.00773334 0)
(0.278223 0.0376475 0)
(0.0912863 -0.050228 0)
(0.0688271 0.0576104 0)
(0.213023 0.00819111 0)
(0.33998 0.0219233 0)
(0.302969 -0.0125944 0)
(0.116066 -0.0155923 0)
(0.122457 0.0139911 0)
(0.231778 -0.00523847 0)
(0.278708 0.0105193 0)
(0.286905 -0.00119199 0)
(0.293074 -0.00778852 0)
(0.305968 0.0081106 0)
(0.430979 0.0416604 0)
(0.436654 0.283162 0)
(-0.873848 0.0827563 0)
(-3.12053 0.0733936 0)
(1.91358 0.3257 0)
(0.924787 -0.18749 0)
(0.528457 -0.0534999 0)
(0.517337 -0.420591 0)
(0.45218 -0.242448 0)
(0.433695 -0.021116 0)
(0.430253 0.0926371 0)
(0.392118 0.0617443 0)
(0.347294 -0.00506253 0)
(0.318371 -0.0293705 0)
(0.306186 -0.0210557 0)
(0.303071 -0.00803871 0)
(0.304395 -2.19627e-05 0)
(0.308671 0.00461189 0)
(0.312934 0.00481703 0)
(0.320543 0.00206293 0)
(0.34454 0.0020141 0)
(0.36652 0.00699757 0)
(0.340989 -0.0326143 0)
(0.265526 -0.0449878 0)
(0.144364 0.0357365 0)
(0.195265 0.0508579 0)
(0.298923 0.0495567 0)
(0.27699 -0.0266071 0)
(0.228667 -0.00408553 0)
(0.31141 0.013243 0)
(0.43804 -0.12386 0)
(0.419409 0.0188105 0)
(0.277612 0.0539527 0)
(0.115325 -0.0382455 0)
(0.0874493 0.0501312 0)
(0.2121 -0.00386174 0)
(0.312992 0.015808 0)
(0.289316 -0.000512409 0)
(0.115605 -0.00490619 0)
(0.125262 0.00569081 0)
(0.237253 -0.0129927 0)
(0.282155 0.00795309 0)
(0.288651 -0.00184549 0)
(0.292036 -0.00868153 0)
(0.307154 0.00729629 0)
(1.37126 -0.0588603 0)
(1.08506 0.465716 0)
(-0.994892 0.215671 0)
(-4.29052 0.0804759 0)
(0.53798 -0.197631 0)
(0.718316 -0.0669731 0)
(0.304026 -0.0194795 0)
(0.433659 -0.426439 0)
(0.408123 -0.24142 0)
(0.413911 -0.0204042 0)
(0.418287 0.0942199 0)
(0.388301 0.0655499 0)
(0.348474 -0.0014079 0)
(0.3195 -0.0272381 0)
(0.305169 -0.0202059 0)
(0.300898 -0.0079096 0)
(0.301858 -0.000301665 0)
(0.306127 0.00416987 0)
(0.311046 0.00417869 0)
(0.318242 0.000692475 0)
(0.336476 -9.36267e-05 0)
(0.354737 0.00686797 0)
(0.333747 -0.0272498 0)
(0.261471 -0.0360348 0)
(0.13702 0.0415519 0)
(0.186475 0.0402305 0)
(0.298161 0.0465316 0)
(0.288746 -0.0236226 0)
(0.229955 -0.00429359 0)
(0.268941 0.00622241 0)
(0.395069 -0.13202 0)
(0.397533 0.0253367 0)
(0.279276 0.0682087 0)
(0.150692 -0.0289627 0)
(0.129169 0.0450245 0)
(0.221158 -0.0123763 0)
(0.283551 0.0108177 0)
(0.273485 0.00848322 0)
(0.152597 0.00282475 0)
(0.169157 -0.00111058 0)
(0.251513 -0.0196418 0)
(0.284723 0.00565969 0)
(0.289445 -0.00211267 0)
(0.290151 -0.00957149 0)
(0.307494 0.00641087 0)
(0.210372 -0.0107919 0)
(0.180944 -0.0280027 -4.31274e-32)
(0.145452 -0.0256491 2.13539e-31)
(0.106387 -0.0127588 -1.10792e-30)
(0.0683391 0.00501776 0)
(0.376107 -0.0170426 0)
(0.394044 -0.0424425 0)
(0.355533 -0.0449217 0)
(0.317857 -0.0389115 5.21702e-31)
(0.346838 -0.0501659 0)
(0.417406 -0.0379331 0)
(0.466493 -0.0461966 0)
(0.433627 -0.0417509 0)
(0.390495 -0.0422817 1.0649e-30)
(0.338861 -0.0684417 0)
(0.380104 -0.052552 0)
(0.406958 -0.0375 0)
(0.365906 -0.0239467 0)
(0.329715 -0.0210747 -5.152e-32)
(0.259848 -0.0291834 0)
(0.217456 -0.025049 0)
(0.197173 -0.0096044 0)
(0.157795 -0.0027707 0)
(0.140205 -0.00171284 7.43688e-32)
(0.0919161 -0.00671328 0)
(0.0741655 -0.0782895 0)
(-0.374913 0.974836 0)
(-0.213883 0.493926 0)
(0.559005 0.184065 0)
(-0.365874 -0.380755 0)
(0.116133 -0.102952 0)
(0.364991 -0.0810377 0)
(0.467077 -0.414606 0)
(0.341199 -0.238461 0)
(0.34595 -0.0201905 0)
(0.370645 0.0953085 0)
(0.366831 0.0738879 0)
(0.345201 0.00860086 0)
(0.317925 -0.0207459 0)
(0.298946 -0.017308 0)
(0.291971 -0.00735561 0)
(0.292259 -0.000967628 0)
(0.296519 0.00284555 0)
(0.30211 0.00225683 0)
(0.307003 -0.00208115 0)
(0.312924 -0.00306856 0)
(0.321933 0.00451796 0)
(0.312578 -0.0135948 0)
(0.255179 -0.0142046 0)
(0.18551 0.0492761 0)
(0.240525 0.0212511 0)
(0.310598 0.034583 0)
(0.310126 -0.0161396 0)
(0.290375 -0.0082826 0)
(0.371302 -0.0245377 0)
(0.42922 -0.133291 0)
(0.364188 0.0383442 0)
(0.290192 0.100386 0)
(0.215891 -0.00759993 0)
(0.198987 0.0371442 0)
(0.228169 -0.0227805 0)
(0.205402 0.00591848 0)
(0.219173 0.0141585 0)
(0.239649 0.00375146 0)
(0.278566 -0.00885599 0)
(0.288574 -0.0277944 0)
(0.290074 -0.000959271 0)
(0.291924 -0.000430504 0)
(0.285466 -0.0116968 0)
(0.307831 0.0044657 0)
(0.34978 0.0891612 0)
(0.161033 0.259675 0)
(1.40868 0.117176 0)
(1.05346 0.0465019 0)
(0.672878 0.156231 0)
(0.561454 -0.244225 0)
(0.556639 -0.174755 0)
(0.491666 -0.340866 0)
(0.273001 -0.210014 0)
(0.217102 -0.0166505 0)
(0.253754 0.0820931 0)
(0.291036 0.0681101 0)
(0.30161 0.0155737 0)
(0.286194 -0.0102733 0)
(0.267247 -0.0105064 0)
(0.259114 -0.00547848 0)
(0.259427 -0.00174641 0)
(0.263519 0.000662395 0)
(0.267478 -0.000262611 0)
(0.268821 -0.00234208 0)
(0.26914 -0.00109144 0)
(0.269007 0.00123277 0)
(0.268818 -0.00317846 0)
(0.244097 0.00837218 0)
(0.216986 0.041299 0)
(0.25777 -0.0014959 0)
(0.29396 0.0222119 0)
(0.311693 -0.0177785 0)
(0.304433 -0.0146183 0)
(0.297869 -0.0610171 0)
(0.260061 -0.0862438 0)
(0.211497 0.0546104 0)
(0.238268 0.10245 0)
(0.258801 0.00890928 0)
(0.268361 0.0318916 0)
(0.253838 -0.00189414 0)
(0.223694 0.0097444 0)
(0.235854 -0.00594236 0)
(0.238317 -0.0188236 0)
(0.256504 -0.017429 0)
(0.271607 -0.019343 0)
(0.268813 -0.00178682 0)
(0.273766 0.00400219 0)
(0.273145 -0.0176158 0)
(0.315533 -0.00676032 0)
(0.372771 0.110059 0)
(0.53104 0.125646 0)
(0.850698 0.115077 0)
(0.695621 0.0852825 0)
(0.654148 0.116965 0)
(0.55393 -0.168373 0)
(0.532118 -0.19351 0)
(0.421579 -0.252257 0)
(0.172004 -0.136045 0)
(0.0978857 -0.00648316 0)
(0.144997 0.0564251 0)
(0.207749 0.0472916 0)
(0.236324 0.0128661 0)
(0.230393 -0.00353435 0)
(0.216064 -0.00491592 0)
(0.209493 -0.00405558 0)
(0.209561 -0.00259574 0)
(0.212341 -0.000880413 0)
(0.213749 -0.00118243 0)
(0.212317 -0.00176656 0)
(0.211391 -0.000218154 0)
(0.210931 0.00186231 0)
(0.211095 -0.00368873 0)
(0.207645 0.0159248 0)
(0.215463 0.0325424 0)
(0.233752 -0.00630126 0)
(0.249696 0.0117074 0)
(0.253623 -0.0193744 0)
(0.240886 -0.00817567 0)
(0.214677 -0.0443837 0)
(0.154894 -0.0469473 0)
(0.136574 0.0392459 0)
(0.21335 0.0663291 0)
(0.262288 0.00171982 0)
(0.275034 0.0266741 0)
(0.260383 0.0173714 0)
(0.252683 -0.000769897 0)
(0.259403 0.00484708 0)
(0.253814 -0.00649452 0)
(0.251878 -0.028099 0)
(0.240043 -0.018571 0)
(0.235814 -0.00370141 0)
(0.254586 -0.00375664 0)
(0.24549 -0.0161315 0)
(0.251447 -0.021021 0)
(0.291236 0.0428419 0)
(0.434496 0.0193392 0)
(0.626169 0.0928042 0)
(0.677641 0.104254 0)
(0.708992 0.102483 0)
(0.731842 -0.0908051 0)
(0.610556 -0.146365 0)
(0.329514 -0.145883 0)
(0.0728087 -0.0563726 0)
(0.0161196 -0.000348274 0)
(0.0607965 0.0263571 0)
(0.125999 0.0225389 0)
(0.156045 0.00661195 0)
(0.155923 0.000578068 0)
(0.147984 -0.000967179 0)
(0.14332 -0.00331216 0)
(0.141768 -0.00309024 0)
(0.14183 -0.00142821 0)
(0.14077 -0.000830657 0)
(0.13817 -0.00017118 0)
(0.136841 0.000670208 0)
(0.138268 0.0022271 0)
(0.130894 -0.00378939 0)
(0.13404 0.0131141 0)
(0.16841 0.0153508 0)
(0.185001 -0.00231536 0)
(0.188998 0.0047291 0)
(0.185683 -0.00801536 0)
(0.162486 -0.00575144 0)
(0.127412 -0.0250108 0)
(0.0803622 -0.0234904 0)
(0.0817105 0.0152692 0)
(0.154076 0.0271389 0)
(0.184255 0.00132938 0)
(0.199513 0.016656 0)
(0.227586 0.0177788 0)
(0.236247 -0.00619821 0)
(0.231105 0.0139685 0)
(0.218926 -0.0104608 0)
(0.200134 -0.0195629 0)
(0.175658 -0.00949758 0)
(0.163521 -0.00646334 0)
(0.164124 -0.00804719 0)
(0.153388 -0.00537236 0)
(0.118569 -0.0166135 0)
(0.116473 0.00105963 0)
(0.0998406 -0.0233258 0)
(0.188096 0.0350952 0)
(0.359097 0.0398053 0)
(0.551052 0.0377075 0)
(0.5683 -0.0398607 0)
(0.367372 -0.0412803 0)
(0.123586 -0.0289538 0)
(-0.00690231 -0.00346437 0)
(-0.0159055 -3.38064e-06 0)
(0.00478518 0.00326613 0)
(0.0423094 0.00327367 0)
(0.0590999 0.000889981 0)
(0.0623385 0.000830384 0)
(0.0625446 0.000331069 0)
(0.0595407 -0.00114382 0)
(0.0540797 -0.00107271 0)
(0.0506234 -0.000378409 0)
(0.0490261 -6.98972e-05 0)
(0.0485448 0.000321327 0)
(0.0494494 0.00027227 0)
(0.0547397 0.0015093 0)
(0.0500094 -0.00111846 0)
(0.0551775 0.00340388 0)
(0.077402 0.000737658 0)
(0.0820116 -0.000330405 0)
(0.0855645 0.00133732 0)
(0.0865306 -0.000223282 0)
(0.0783393 0.00102818 0)
(0.0556282 -0.00613201 0)
(0.015985 -0.00768992 0)
(0.00821706 0.000785127 0)
(0.0432977 0.00430961 0)
(0.0560937 0.00120936 0)
(0.066844 0.00264594 0)
(0.091454 0.00336514 0)
(0.0887899 -0.00278009 0)
(0.105196 0.0115087 0)
(0.11987 -0.00336778 0)
(0.0932718 -0.00506956 0)
(0.0725154 -0.000957489 0)
(0.0634607 -0.00174832 0)
(0.0535201 -0.00227237 0)
(0.0488394 0.000482571 0)
(0.025316 -0.00344212 0)
)
;

boundaryField
{
    AirInlet
    {
        type            fixedValue;
        value           uniform (0.08 0 0);
    }
    WaterInlet
    {
        type            fixedValue;
        value           uniform (0.4 0 0);
    }
    ChannelWall
    {
        type            fixedValue;
        value           uniform (0 0 0);
    }
    Outlet
    {
        type            pressureInletOutletVelocity;
        value           nonuniform List<vector> 
15
(
(0.0505523 0.000536332 0)
(0.138068 0.00301407 0)
(0.209269 0.00614803 0)
(0.261623 0.00879219 0)
(0.293905 0.0102112 0)
(0.302013 0.00939276 0)
(0.304159 0.00882729 0)
(0.305968 0.0081106 0)
(0.307154 0.00729629 0)
(0.307494 0.00641087 0)
(0.307831 0.0044657 0)
(0.315533 -0.00676032 0)
(0.251447 -0.021021 0)
(0.118569 -0.0166135 0)
(0.025316 -0.00344212 0)
)
;
    }
    FrontAndBack
    {
        type            empty;
    }
}


// ************************************************************************* //
