/*--------------------------------*- C++ -*----------------------------------*\
| =========                 |                                                 |
| \\      /  F ield         | OpenFOAM: The Open Source CFD Toolbox           |
|  \\    /   O peration     | Version:  2.3.0                                 |
|   \\  /    A nd           | Web:      www.OpenFOAM.org                      |
|    \\/     M anipulation  |                                                 |
\*---------------------------------------------------------------------------*/
FoamFile
{
    version     2.0;
    format      ascii;
    class       volVectorField;
    location    "90";
    object      D;
}
// * * * * * * * * * * * * * * * * * * * * * * * * * * * * * * * * * * * * * //

dimensions      [0 1 0 0 0 0 0];

internalField   nonuniform List<vector> 
1000
(
(5.91812e-08 -2.6155e-08 0)
(5.551e-08 -2.35552e-08 0)
(5.326e-08 -2.19122e-08 0)
(5.19464e-08 -2.08757e-08 0)
(5.12787e-08 -2.02418e-08 0)
(5.10709e-08 -1.98834e-08 0)
(5.11984e-08 -1.97167e-08 0)
(5.15742e-08 -1.96849e-08 0)
(5.21367e-08 -1.97491e-08 0)
(5.28491e-08 -1.98845e-08 0)
(5.36003e-08 -2.84281e-08 0)
(4.97251e-08 -2.63196e-08 0)
(4.73502e-08 -2.49732e-08 0)
(4.5952e-08 -2.41184e-08 0)
(4.52192e-08 -2.35967e-08 0)
(4.49544e-08 -2.33078e-08 0)
(4.50266e-08 -2.31847e-08 0)
(4.5346e-08 -2.31811e-08 0)
(4.58509e-08 -2.32648e-08 0)
(4.65042e-08 -2.34139e-08 0)
(4.7777e-08 -3.05652e-08 0)
(4.38444e-08 -2.9017e-08 0)
(4.14346e-08 -2.80102e-08 0)
(4.00076e-08 -2.73644e-08 0)
(3.92438e-08 -2.69722e-08 0)
(3.89421e-08 -2.67638e-08 0)
(3.897e-08 -2.66911e-08 0)
(3.92376e-08 -2.67199e-08 0)
(3.96832e-08 -2.68256e-08 0)
(4.02672e-08 -2.69904e-08 0)
(4.17533e-08 -3.25327e-08 0)
(3.79198e-08 -3.15804e-08 0)
(3.55715e-08 -3.09357e-08 0)
(3.4175e-08 -3.05133e-08 0)
(3.34162e-08 -3.02601e-08 0)
(3.30985e-08 -3.01385e-08 0)
(3.3093e-08 -3.01206e-08 0)
(3.33125e-08 -3.01849e-08 0)
(3.36968e-08 -3.0315e-08 0)
(3.4207e-08 -3.04983e-08 0)
(3.55672e-08 -3.42971e-08 0)
(3.19915e-08 -3.39409e-08 0)
(2.98019e-08 -3.3659e-08 0)
(2.84957e-08 -3.34611e-08 0)
(2.77781e-08 -3.33478e-08 0)
(2.74652e-08 -3.33142e-08 0)
(2.7437e-08 -3.33522e-08 0)
(2.76122e-08 -3.34532e-08 0)
(2.7935e-08 -3.3609e-08 0)
(2.8369e-08 -3.38119e-08 0)
(2.92529e-08 -3.58255e-08 0)
(2.60874e-08 -3.60308e-08 0)
(2.41495e-08 -3.60909e-08 0)
(2.29904e-08 -3.6105e-08 0)
(2.23483e-08 -3.61245e-08 0)
(2.20601e-08 -3.61746e-08 0)
(2.20195e-08 -3.62663e-08 0)
(2.2155e-08 -3.64028e-08 0)
(2.2417e-08 -3.65836e-08 0)
(2.27735e-08 -3.68063e-08 0)
(2.28403e-08 -3.70869e-08 0)
(2.02233e-08 -3.77863e-08 0)
(1.86208e-08 -3.81478e-08 0)
(1.766e-08 -3.83492e-08 0)
(1.71241e-08 -3.84863e-08 0)
(1.68785e-08 -3.86109e-08 0)
(1.68353e-08 -3.87505e-08 0)
(1.69352e-08 -3.89191e-08 0)
(1.71376e-08 -3.91228e-08 0)
(1.74159e-08 -3.93636e-08 0)
(1.63562e-08 -3.80526e-08 0)
(1.44046e-08 -3.91505e-08 0)
(1.32069e-08 -3.97556e-08 0)
(1.24867e-08 -4.01088e-08 0)
(1.20829e-08 -4.03414e-08 0)
(1.18951e-08 -4.05265e-08 0)
(1.18575e-08 -4.07052e-08 0)
(1.19259e-08 -4.08999e-08 0)
(1.20698e-08 -4.11226e-08 0)
(1.22694e-08 -4.1379e-08 0)
(9.82567e-09 -3.86947e-08 0)
(8.62686e-09 -4.00731e-08 0)
(7.88522e-09 -4.08507e-08 0)
(7.4376e-09 -4.13109e-08 0)
(7.18586e-09 -4.16104e-08 0)
(7.06764e-09 -4.18378e-08 0)
(7.04209e-09 -4.20436e-08 0)
(7.08174e-09 -4.22567e-08 0)
(7.16791e-09 -4.24931e-08 0)
(7.28846e-09 -4.2761e-08 0)
(3.27562e-09 -3.89836e-08 0)
(2.87817e-09 -4.05054e-08 0)
(2.62373e-09 -4.13695e-08 0)
(2.46955e-09 -4.1882e-08 0)
(2.38268e-09 -4.22135e-08 0)
(2.34144e-09 -4.24607e-08 0)
(2.33177e-09 -4.26792e-08 0)
(2.34431e-09 -4.29008e-08 0)
(2.37279e-09 -4.31435e-08 0)
(2.4133e-09 -4.34174e-08 0)
(9.12776e-08 -1.20992e-09 0)
(9.18099e-08 -8.67355e-10 0)
(9.21415e-08 -6.34624e-10 0)
(9.24762e-08 -4.87657e-10 0)
(9.29129e-08 -3.97812e-10 0)
(9.34946e-08 -3.4524e-10 0)
(9.4236e-08 -3.17191e-10 0)
(9.51371e-08 -3.05363e-10 0)
(9.61909e-08 -3.04274e-10 0)
(9.73874e-08 -3.10468e-10 0)
(9.06965e-08 -3.68583e-09 0)
(9.10865e-08 -2.61211e-09 0)
(9.13302e-08 -1.93684e-09 0)
(9.16121e-08 -1.51338e-09 0)
(9.20157e-08 -1.25369e-09 0)
(9.25755e-08 -1.10175e-09 0)
(9.33011e-08 -1.02114e-09 0)
(9.41895e-08 -9.87771e-10 0)
(9.52317e-08 -9.85391e-10 0)
(9.64159e-08 -1.0029e-09 0)
(8.94109e-08 -6.18459e-09 0)
(8.95306e-08 -4.42521e-09 0)
(8.96061e-08 -3.33596e-09 0)
(8.9781e-08 -2.65684e-09 0)
(9.01146e-08 -2.24069e-09 0)
(9.06262e-08 -1.99723e-09 0)
(9.1316e-08 -1.86837e-09 0)
(9.21751e-08 -1.81547e-09 0)
(9.31904e-08 -1.81219e-09 0)
(9.43472e-08 -1.84026e-09 0)
(8.74715e-08 -8.69842e-09 0)
(8.7209e-08 -6.34307e-09 0)
(8.70495e-08 -4.88924e-09 0)
(8.70743e-08 -3.9854e-09 0)
(8.73084e-08 -3.43243e-09 0)
(8.77508e-08 -3.10942e-09 0)
(8.83888e-08 -2.9391e-09 0)
(8.92053e-08 -2.87016e-09 0)
(9.0182e-08 -2.8675e-09 0)
(9.13005e-08 -2.90681e-09 0)
(8.49197e-08 -1.1225e-08 0)
(8.41845e-08 -8.39256e-09 0)
(8.37356e-08 -6.64288e-09 0)
(8.3576e-08 -5.55563e-09 0)
(8.36879e-08 -4.89112e-09 0)
(8.40447e-08 -4.50377e-09 0)
(8.46185e-08 -4.30072e-09 0)
(8.53821e-08 -4.2204e-09 0)
(8.63108e-08 -4.22068e-09 0)
(8.73819e-08 -4.27244e-09 0)
(8.17954e-08 -1.37608e-08 0)
(8.05261e-08 -1.05904e-08 0)
(7.975e-08 -8.62814e-09 0)
(7.93823e-08 -7.40767e-09 0)
(7.93561e-08 -6.66192e-09 0)
(7.96162e-08 -6.22817e-09 0)
(8.01168e-08 -6.00257e-09 0)
(8.08198e-08 -5.91624e-09 0)
(8.16935e-08 -5.92205e-09 0)
(8.27102e-08 -5.9875e-09 0)
(7.81415e-08 -1.62984e-08 0)
(7.63099e-08 -1.29421e-08 0)
(7.51889e-08 -1.08596e-08 0)
(7.46016e-08 -9.56216e-09 0)
(7.44294e-08 -8.76914e-09 0)
(7.45867e-08 -8.30895e-09 0)
(7.5009e-08 -8.07186e-09 0)
(7.56467e-08 -7.98511e-09 0)
(7.64605e-08 -7.9989e-09 0)
(7.74177e-08 -8.07898e-09 0)
(7.40041e-08 -1.88259e-08 0)
(7.16171e-08 -1.54408e-08 0)
(7.01553e-08 -1.3334e-08 0)
(6.93505e-08 -1.20186e-08 0)
(6.9033e-08 -1.12142e-08 0)
(6.9087e-08 -1.07486e-08 0)
(6.94297e-08 -1.05116e-08 0)
(7e-08 -1.04297e-08 0)
(7.07515e-08 -1.04532e-08 0)
(7.16465e-08 -1.0548e-08 0)
(6.94318e-08 -2.13263e-08 0)
(6.65316e-08 -1.80663e-08 0)
(6.47547e-08 -1.60299e-08 0)
(6.37481e-08 -1.4755e-08 0)
(6.32944e-08 -1.39749e-08 0)
(6.325e-08 -1.35253e-08 0)
(6.35153e-08 -1.33e-08 0)
(6.40188e-08 -1.32283e-08 0)
(6.47078e-08 -1.3262e-08 0)
(6.55409e-08 -1.33695e-08 0)
(6.44743e-08 -2.37779e-08 0)
(6.11363e-08 -2.0786e-08 0)
(5.90906e-08 -1.89079e-08 0)
(5.79105e-08 -1.77282e-08 0)
(5.73378e-08 -1.70063e-08 0)
(5.72048e-08 -1.65931e-08 0)
(5.73977e-08 -1.63915e-08 0)
(5.78364e-08 -1.63362e-08 0)
(5.84635e-08 -1.63814e-08 0)
(5.92371e-08 -1.6497e-08 0)
(9.87147e-08 -3.14144e-10 0)
(1.00171e-07 -3.09264e-10 0)
(1.01733e-07 -3.04233e-10 0)
(1.0339e-07 -2.98434e-10 0)
(1.05133e-07 -2.91331e-10 0)
(1.06953e-07 -2.82443e-10 0)
(1.08843e-07 -2.71367e-10 0)
(1.10795e-07 -2.57767e-10 0)
(1.12802e-07 -2.41346e-10 0)
(1.14858e-07 -2.21814e-10 0)
(1.16956e-07 -1.98869e-10 0)
(1.19092e-07 -1.72173e-10 0)
(1.21258e-07 -1.41331e-10 0)
(1.23449e-07 -1.0588e-10 0)
(1.25659e-07 -6.52607e-11 0)
(1.27881e-07 -1.88103e-11 0)
(1.30108e-07 3.42144e-11 0)
(1.32332e-07 9.43521e-11 0)
(1.34544e-07 1.60665e-10 0)
(1.36737e-07 2.26698e-10 0)
(9.7785e-08 -1.00413e-09 0)
(9.9326e-08 -9.76346e-10 0)
(1.0096e-07 -9.52297e-10 0)
(1.02679e-07 -9.28488e-10 0)
(1.04476e-07 -9.02257e-10 0)
(1.06343e-07 -8.71667e-10 0)
(1.08275e-07 -8.35266e-10 0)
(1.10265e-07 -7.91899e-10 0)
(1.12306e-07 -7.40566e-10 0)
(1.14393e-07 -6.80325e-10 0)
(1.1652e-07 -6.10203e-10 0)
(1.18681e-07 -5.29138e-10 0)
(1.20872e-07 -4.35916e-10 0)
(1.23086e-07 -3.29126e-10 0)
(1.25318e-07 -2.07111e-10 0)
(1.27561e-07 -6.79575e-11 0)
(1.29808e-07 9.04674e-11 0)
(1.32053e-07 2.7037e-10 0)
(1.34287e-07 4.7408e-10 0)
(1.365e-07 7.05943e-10 0)
(9.5798e-08 -1.8267e-09 0)
(9.75107e-08 -1.75639e-09 0)
(9.92934e-08 -1.69672e-09 0)
(1.01143e-07 -1.64139e-09 0)
(1.03054e-07 -1.58519e-09 0)
(1.05023e-07 -1.52422e-09 0)
(1.07045e-07 -1.45555e-09 0)
(1.09116e-07 -1.37686e-09 0)
(1.1123e-07 -1.28619e-09 0)
(1.13384e-07 -1.18175e-09 0)
(1.15572e-07 -1.06173e-09 0)
(1.17791e-07 -9.24226e-10 0)
(1.20035e-07 -7.67107e-10 0)
(1.22299e-07 -5.87935e-10 0)
(1.24578e-07 -3.8389e-10 0)
(1.26867e-07 -1.51696e-10 0)
(1.29159e-07 1.12466e-10 0)
(1.31447e-07 4.13222e-10 0)
(1.33723e-07 7.57024e-10 0)
(1.35976e-07 1.1556e-09 0)
(9.28684e-08 -2.86137e-09 0)
(9.48273e-08 -2.71891e-09 0)
(9.68256e-08 -2.59848e-09 0)
(9.88643e-08 -2.49066e-09 0)
(1.00943e-07 -2.38727e-09 0)
(1.03061e-07 -2.28189e-09 0)
(1.05217e-07 -2.16959e-09 0)
(1.07407e-07 -2.04644e-09 0)
(1.09631e-07 -1.90912e-09 0)
(1.11884e-07 -1.75468e-09 0)
(1.14164e-07 -1.58023e-09 0)
(1.16467e-07 -1.38281e-09 0)
(1.1879e-07 -1.15918e-09 0)
(1.21128e-07 -9.05751e-10 0)
(1.23478e-07 -6.18354e-10 0)
(1.25834e-07 -2.92153e-10 0)
(1.2819e-07 7.86227e-11 0)
(1.3054e-07 5.01182e-10 0)
(1.32877e-07 9.85495e-10 0)
(1.3519e-07 1.54823e-09 0)
(8.90961e-08 -4.17359e-09 0)
(9.1363e-08 -3.92133e-09 0)
(9.36334e-08 -3.70804e-09 0)
(9.5913e-08 -3.5208e-09 0)
(9.8206e-08 -3.34785e-09 0)
(1.00515e-07 -3.17966e-09 0)
(1.02842e-07 -3.00872e-09 0)
(1.05188e-07 -2.82891e-09 0)
(1.07552e-07 -2.63515e-09 0)
(1.09934e-07 -2.42289e-09 0)
(1.12332e-07 -2.18785e-09 0)
(1.14745e-07 -1.92575e-09 0)
(1.1717e-07 -1.63204e-09 0)
(1.19605e-07 -1.30173e-09 0)
(1.22045e-07 -9.2913e-10 0)
(1.24487e-07 -5.07658e-10 0)
(1.26927e-07 -2.94631e-11 0)
(1.29357e-07 5.15176e-10 0)
(1.31772e-07 1.1393e-09 0)
(1.34163e-07 1.86365e-09 0)
(8.45916e-08 -5.81108e-09 0)
(8.72138e-08 -5.40662e-09 0)
(8.9801e-08 -5.0638e-09 0)
(9.23633e-08 -4.76604e-09 0)
(9.49093e-08 -4.49745e-09 0)
(9.74457e-08 -4.2448e-09 0)
(9.99776e-08 -3.99737e-09 0)
(1.02509e-07 -3.74635e-09 0)
(1.05042e-07 -3.48434e-09 0)
(1.07579e-07 -3.20481e-09 0)
(1.1012e-07 -2.90173e-09 0)
(1.12665e-07 -2.56917e-09 0)
(1.15213e-07 -2.20102e-09 0)
(1.17763e-07 -1.79066e-09 0)
(1.20312e-07 -1.33073e-09 0)
(1.22858e-07 -8.12722e-10 0)
(1.25397e-07 -2.26633e-10 0)
(1.27923e-07 4.39754e-10 0)
(1.30432e-07 1.2024e-09 0)
(1.32917e-07 2.08569e-09 0)
(7.94784e-08 -7.80065e-09 0)
(8.24862e-08 -7.20094e-09 0)
(8.54218e-08 -6.69043e-09 0)
(8.82981e-08 -6.24918e-09 0)
(9.11276e-08 -5.85686e-09 0)
(9.39203e-08 -5.49613e-09 0)
(9.66846e-08 -5.15255e-09 0)
(9.94272e-08 -4.81414e-09 0)
(1.02153e-07 -4.47069e-09 0)
(1.04867e-07 -4.11328e-09 0)
(1.07571e-07 -3.73372e-09 0)
(1.10268e-07 -3.32416e-09 0)
(1.12957e-07 -2.87665e-09 0)
(1.15639e-07 -2.38276e-09 0)
(1.18314e-07 -1.83325e-09 0)
(1.20978e-07 -1.2176e-09 0)
(1.23631e-07 -5.23533e-10 0)
(1.26268e-07 2.63685e-10 0)
(1.28885e-07 1.16291e-09 0)
(1.31477e-07 2.2019e-09 0)
(7.3889e-08 -1.0146e-08 0)
(7.72951e-08 -9.31191e-09 0)
(8.05965e-08 -8.59761e-09 0)
(8.38069e-08 -7.98063e-09 0)
(8.6941e-08 -7.43645e-09 0)
(9.00114e-08 -6.94351e-09 0)
(9.30292e-08 -6.48346e-09 0)
(9.60036e-08 -6.04072e-09 0)
(9.89424e-08 -5.60192e-09 0)
(1.01852e-07 -5.15534e-09 0)
(1.04737e-07 -4.69032e-09 0)
(1.07601e-07 -4.19676e-09 0)
(1.10447e-07 -3.66465e-09 0)
(1.13275e-07 -3.08356e-09 0)
(1.16088e-07 -2.44223e-09 0)
(1.18884e-07 -1.72802e-09 0)
(1.21662e-07 -9.26363e-10 0)
(1.24421e-07 -1.99065e-11 0)
(1.27157e-07 1.01311e-09 0)
(1.29869e-07 2.20362e-09 0)
(6.79609e-08 -1.28274e-08 0)
(7.17619e-08 -1.17279e-08 0)
(7.54326e-08 -1.07794e-08 0)
(7.89852e-08 -9.95789e-09 0)
(8.2435e-08 -9.2357e-09 0)
(8.57963e-08 -8.58755e-09 0)
(8.90817e-08 -7.99123e-09 0)
(9.23025e-08 -7.42744e-09 0)
(9.54684e-08 -6.8794e-09 0)
(9.85875e-08 -6.33231e-09 0)
(1.01667e-07 -5.77272e-09 0)
(1.04711e-07 -5.18808e-09 0)
(1.07725e-07 -4.56605e-09 0)
(1.10712e-07 -3.89408e-09 0)
(1.13673e-07 -3.15876e-09 0)
(1.1661e-07 -2.34534e-09 0)
(1.19524e-07 -1.43693e-09 0)
(1.22413e-07 -4.13656e-10 0)
(1.25279e-07 7.49247e-10 0)
(1.28118e-07 2.08586e-09 0)
(6.18389e-08 -1.58002e-08 0)
(6.60199e-08 -1.44146e-08 0)
(7.005e-08 -1.32094e-08 0)
(7.39404e-08 -1.21605e-08 0)
(7.77061e-08 -1.12384e-08 0)
(8.13616e-08 -1.04152e-08 0)
(8.49202e-08 -9.66514e-09 0)
(8.83944e-08 -8.96535e-09 0)
(9.17953e-08 -8.29554e-09 0)
(9.51325e-08 -7.63762e-09 0)
(9.84144e-08 -6.97521e-09 0)
(1.01648e-07 -6.29303e-09 0)
(1.04839e-07 -5.57632e-09 0)
(1.07991e-07 -4.81022e-09 0)
(1.11109e-07 -3.97919e-09 0)
(1.14194e-07 -3.06631e-09 0)
(1.1725e-07 -2.05262e-09 0)
(1.20277e-07 -9.15862e-10 0)
(1.23276e-07 3.71369e-10 0)
(1.26251e-07 1.84694e-09 0)
(5.73445e-08 -1.84628e-08 0)
(6.17518e-08 -1.68635e-08 0)
(6.59929e-08 -1.54689e-08 0)
(7.00875e-08 -1.42446e-08 0)
(7.40495e-08 -1.31598e-08 0)
(7.78919e-08 -1.2186e-08 0)
(8.16271e-08 -1.1297e-08 0)
(8.52667e-08 -1.04691e-08 0)
(8.88218e-08 -9.68078e-09 0)
(9.2302e-08 -8.91254e-09 0)
(9.57161e-08 -8.14653e-09 0)
(9.90716e-08 -7.36597e-09 0)
(1.02375e-07 -6.55466e-09 0)
(1.05631e-07 -5.69644e-09 0)
(1.08845e-07 -4.77453e-09 0)
(1.12021e-07 -3.77097e-09 0)
(1.15161e-07 -2.66584e-09 0)
(1.1827e-07 -1.43629e-09 0)
(1.2135e-07 -5.44086e-11 0)
(1.24406e-07 1.51839e-09 0)
(5.47503e-08 -2.05205e-08 0)
(5.91696e-08 -1.8857e-08 0)
(6.34497e-08 -1.73717e-08 0)
(6.75967e-08 -1.60469e-08 0)
(7.16188e-08 -1.48565e-08 0)
(7.5525e-08 -1.37748e-08 0)
(7.93247e-08 -1.27781e-08 0)
(8.30276e-08 -1.18443e-08 0)
(8.66429e-08 -1.09529e-08 0)
(9.01792e-08 -1.00852e-08 0)
(9.36446e-08 -9.22331e-09 0)
(9.70462e-08 -8.35064e-09 0)
(1.0039e-07 -7.45083e-09 0)
(1.03683e-07 -6.50758e-09 0)
(1.06928e-07 -5.50407e-09 0)
(1.10131e-07 -4.42248e-09 0)
(1.13297e-07 -3.24329e-09 0)
(1.16428e-07 -1.94449e-09 0)
(1.19531e-07 -4.99734e-10 0)
(1.22612e-07 1.12681e-09 0)
(5.24413e-08 -2.24764e-08 0)
(5.68266e-08 -2.07799e-08 0)
(6.11019e-08 -1.92317e-08 0)
(6.52636e-08 -1.78261e-08 0)
(6.9313e-08 -1.65447e-08 0)
(7.32545e-08 -1.53668e-08 0)
(7.70943e-08 -1.42713e-08 0)
(8.08393e-08 -1.32386e-08 0)
(8.44968e-08 -1.22495e-08 0)
(8.80741e-08 -1.12863e-08 0)
(9.15782e-08 -1.03321e-08 0)
(9.50155e-08 -9.37025e-09 0)
(9.83922e-08 -8.38488e-09 0)
(1.01714e-07 -7.35984e-09 0)
(1.04986e-07 -6.27863e-09 0)
(1.08213e-07 -5.12388e-09 0)
(1.114e-07 -3.87688e-09 0)
(1.14553e-07 -2.51682e-09 0)
(1.17678e-07 -1.01931e-09 0)
(1.20782e-07 6.48414e-10 0)
(5.03883e-08 -2.43338e-08 0)
(5.47148e-08 -2.26228e-08 0)
(5.89542e-08 -2.10329e-08 0)
(6.30994e-08 -1.95651e-08 0)
(6.71471e-08 -1.82082e-08 0)
(7.10977e-08 -1.69464e-08 0)
(7.4954e-08 -1.57623e-08 0)
(7.87205e-08 -1.46388e-08 0)
(8.24024e-08 -1.35588e-08 0)
(8.60054e-08 -1.25058e-08 0)
(8.95352e-08 -1.14638e-08 0)
(9.29976e-08 -1.04172e-08 0)
(9.63981e-08 -9.3503e-09 0)
(9.97421e-08 -8.24771e-09 0)
(1.03035e-07 -7.09347e-09 0)
(1.06282e-07 -5.871e-09 0)
(1.09488e-07 -4.56267e-09 0)
(1.1266e-07 -3.14919e-09 0)
(1.15804e-07 -1.60842e-09 0)
(1.18931e-07 8.91427e-11 0)
(4.85577e-08 -2.60937e-08 0)
(5.28088e-08 -2.4381e-08 0)
(5.69914e-08 -2.27651e-08 0)
(6.10971e-08 -2.12513e-08 0)
(6.512e-08 -1.98333e-08 0)
(6.90577e-08 -1.85002e-08 0)
(7.29104e-08 -1.72383e-08 0)
(7.66801e-08 -1.60332e-08 0)
(8.03701e-08 -1.48701e-08 0)
(8.39846e-08 -1.3734e-08 0)
(8.7528e-08 -1.26102e-08 0)
(9.10051e-08 -1.14839e-08 0)
(9.44209e-08 -1.03407e-08 0)
(9.77803e-08 -9.16557e-09 0)
(1.01088e-07 -7.94363e-09 0)
(1.04351e-07 -6.65928e-09 0)
(1.07573e-07 -5.29619e-09 0)
(1.10761e-07 -3.83685e-09 0)
(1.13924e-07 -2.26149e-09 0)
(1.1707e-07 -5.44144e-10 0)
(4.69164e-08 -2.77587e-08 0)
(5.10811e-08 -2.60536e-08 0)
(5.51928e-08 -2.44236e-08 0)
(5.92426e-08 -2.28767e-08 0)
(6.32234e-08 -2.14105e-08 0)
(6.71309e-08 -2.0018e-08 0)
(7.09633e-08 -1.8689e-08 0)
(7.47208e-08 -1.74119e-08 0)
(7.84051e-08 -1.6174e-08 0)
(8.20186e-08 -1.49622e-08 0)
(8.55647e-08 -1.37633e-08 0)
(8.90474e-08 -1.25637e-08 0)
(9.24707e-08 -1.13498e-08 0)
(9.58391e-08 -1.01079e-08 0)
(9.91575e-08 -8.82406e-09 0)
(1.02431e-07 -7.4839e-09 0)
(1.05666e-07 -6.07259e-09 0)
(1.08868e-07 -4.57451e-09 0)
(1.12046e-07 -2.9724e-09 0)
(1.1521e-07 -1.24392e-09 0)
(4.54336e-08 -2.93332e-08 0)
(4.95051e-08 -2.76421e-08 0)
(5.35367e-08 -2.6007e-08 0)
(5.75194e-08 -2.44373e-08 0)
(6.14455e-08 -2.29339e-08 0)
(6.53098e-08 -2.14928e-08 0)
(6.9109e-08 -2.01068e-08 0)
(7.28419e-08 -1.8767e-08 0)
(7.65087e-08 -1.7463e-08 0)
(8.01108e-08 -1.61834e-08 0)
(8.36503e-08 -1.49165e-08 0)
(8.71303e-08 -1.36501e-08 0)
(9.05542e-08 -1.2372e-08 0)
(9.39259e-08 -1.10695e-08 0)
(9.72499e-08 -9.72978e-09 0)
(1.00531e-07 -8.33997e-09 0)
(1.03775e-07 -6.8868e-09 0)
(1.06989e-07 -5.35661e-09 0)
(1.10181e-07 -3.73467e-09 0)
(1.1336e-07 -2.0023e-09 0)
(4.40812e-08 -3.08228e-08 0)
(4.80559e-08 -2.915e-08 0)
(5.2002e-08 -2.75161e-08 0)
(5.59102e-08 -2.59318e-08 0)
(5.9773e-08 -2.44002e-08 0)
(6.35845e-08 -2.29199e-08 0)
(6.73407e-08 -2.14863e-08 0)
(7.10393e-08 -2.00928e-08 0)
(7.46795e-08 -1.8731e-08 0)
(7.82615e-08 -1.73915e-08 0)
(8.17868e-08 -1.60641e-08 0)
(8.52573e-08 -1.4738e-08 0)
(8.86759e-08 -1.34022e-08 0)
(9.20459e-08 -1.20454e-08 0)
(9.53712e-08 -1.06561e-08 0)
(9.86566e-08 -9.22272e-09 0)
(1.01908e-07 -7.73377e-09 0)
(1.0513e-07 -6.17752e-09 0)
(1.08333e-07 -4.54176e-09 0)
(1.11525e-07 -2.81129e-09 0)
(4.28335e-08 -3.22338e-08 0)
(4.67107e-08 -3.05815e-08 0)
(5.05684e-08 -2.89534e-08 0)
(5.43979e-08 -2.73607e-08 0)
(5.81917e-08 -2.58084e-08 0)
(6.19439e-08 -2.4297e-08 0)
(6.56501e-08 -2.28241e-08 0)
(6.93072e-08 -2.13852e-08 0)
(7.29137e-08 -1.99738e-08 0)
(7.64691e-08 -1.85821e-08 0)
(7.99738e-08 -1.72015e-08 0)
(8.34294e-08 -1.58227e-08 0)
(8.68378e-08 -1.4436e-08 0)
(9.02019e-08 -1.30313e-08 0)
(9.35251e-08 -1.15985e-08 0)
(9.68117e-08 -1.01276e-08 0)
(1.00067e-07 -8.60858e-09 0)
(1.03297e-07 -7.03171e-09 0)
(1.06509e-07 -5.38716e-09 0)
(1.09712e-07 -3.66308e-09 0)
(4.16679e-08 -3.35729e-08 0)
(4.54484e-08 -3.1942e-08 0)
(4.92169e-08 -3.03225e-08 0)
(5.29655e-08 -2.87261e-08 0)
(5.66872e-08 -2.71589e-08 0)
(6.0376e-08 -2.56233e-08 0)
(6.40274e-08 -2.41185e-08 0)
(6.76381e-08 -2.26417e-08 0)
(7.12058e-08 -2.11882e-08 0)
(7.47296e-08 -1.97518e-08 0)
(7.82092e-08 -1.83253e-08 0)
(8.16455e-08 -1.69007e-08 0)
(8.504e-08 -1.54697e-08 0)
(8.83948e-08 -1.40234e-08 0)
(9.1713e-08 -1.25532e-08 0)
(9.49984e-08 -1.10504e-08 0)
(9.82556e-08 -9.50658e-09 0)
(1.0149e-07 -7.91387e-09 0)
(1.0471e-07 -6.26467e-09 0)
(1.07922e-07 -4.55016e-09 0)
(4.05639e-08 -3.48464e-08 0)
(4.42495e-08 -3.32366e-08 0)
(4.79297e-08 -3.16274e-08 0)
(5.15971e-08 -3.00307e-08 0)
(5.52453e-08 -2.84534e-08 0)
(5.88686e-08 -2.68992e-08 0)
(6.24625e-08 -2.53689e-08 0)
(6.60235e-08 -2.38611e-08 0)
(6.95492e-08 -2.23725e-08 0)
(7.3038e-08 -2.08984e-08 0)
(7.64892e-08 -1.94329e-08 0)
(7.99032e-08 -1.79692e-08 0)
(8.32809e-08 -1.65003e-08 0)
(8.66239e-08 -1.50186e-08 0)
(8.99349e-08 -1.35167e-08 0)
(9.3217e-08 -1.19872e-08 0)
(9.64745e-08 -1.04234e-08 0)
(9.97125e-08 -8.81904e-09 0)
(1.02937e-07 -7.16845e-09 0)
(1.06156e-07 -5.46559e-09 0)
(3.95029e-08 -3.60606e-08 0)
(4.30964e-08 -3.44708e-08 0)
(4.66899e-08 -3.28726e-08 0)
(5.0277e-08 -3.12778e-08 0)
(5.38518e-08 -2.96941e-08 0)
(5.74091e-08 -2.81262e-08 0)
(6.09444e-08 -2.6576e-08 0)
(6.44543e-08 -2.50433e-08 0)
(6.79361e-08 -2.3526e-08 0)
(7.1388e-08 -2.20207e-08 0)
(7.48089e-08 -2.05227e-08 0)
(7.81987e-08 -1.90263e-08 0)
(8.15577e-08 -1.75255e-08 0)
(8.48873e-08 -1.60142e-08 0)
(8.81894e-08 -1.44859e-08 0)
(9.14668e-08 -1.29348e-08 0)
(9.47231e-08 -1.13553e-08 0)
(9.79628e-08 -9.74268e-09 0)
(1.01192e-07 -8.09321e-09 0)
(1.04416e-07 -6.40307e-09 0)
(3.84677e-08 -3.72209e-08 0)
(4.19722e-08 -3.56495e-08 0)
(4.54816e-08 -3.40624e-08 0)
(4.89903e-08 -3.24712e-08 0)
(5.24931e-08 -3.0884e-08 0)
(5.59851e-08 -2.93063e-08 0)
(5.94621e-08 -2.7741e-08 0)
(6.29208e-08 -2.61888e-08 0)
(6.63583e-08 -2.46488e-08 0)
(6.97727e-08 -2.31183e-08 0)
(7.31625e-08 -2.15937e-08 0)
(7.65271e-08 -2.00706e-08 0)
(7.98666e-08 -1.85438e-08 0)
(8.31817e-08 -1.70081e-08 0)
(8.6474e-08 -1.54585e-08 0)
(8.97455e-08 -1.38901e-08 0)
(9.29995e-08 -1.22986e-08 0)
(9.62399e-08 -1.06807e-08 0)
(9.94713e-08 -9.03416e-09 0)
(1.027e-07 -7.35703e-09 0)
(3.74421e-08 -3.83325e-08 0)
(4.0861e-08 -3.67778e-08 0)
(4.42894e-08 -3.52013e-08 0)
(4.77225e-08 -3.36147e-08 0)
(5.11555e-08 -3.20263e-08 0)
(5.45842e-08 -3.04422e-08 0)
(5.80045e-08 -2.8866e-08 0)
(6.14132e-08 -2.72992e-08 0)
(6.48073e-08 -2.57416e-08 0)
(6.81847e-08 -2.41915e-08 0)
(7.15436e-08 -2.26461e-08 0)
(7.48832e-08 -2.11016e-08 0)
(7.82031e-08 -1.95541e-08 0)
(8.15035e-08 -1.79991e-08 0)
(8.47855e-08 -1.64325e-08 0)
(8.80506e-08 -1.48507e-08 0)
(9.13015e-08 -1.32505e-08 0)
(9.45414e-08 -1.16297e-08 0)
(9.77746e-08 -9.9872e-09 0)
(1.01006e-07 -8.32269e-09 0)
(3.64102e-08 -3.93999e-08 0)
(3.97471e-08 -3.786e-08 0)
(4.30981e-08 -3.62936e-08 0)
(4.64591e-08 -3.47122e-08 0)
(4.98258e-08 -3.31245e-08 0)
(5.31941e-08 -3.1537e-08 0)
(5.65605e-08 -2.99536e-08 0)
(5.99215e-08 -2.83765e-08 0)
(6.32743e-08 -2.68061e-08 0)
(6.66163e-08 -2.52414e-08 0)
(6.99458e-08 -2.36802e-08 0)
(7.32613e-08 -2.21195e-08 0)
(7.65623e-08 -2.0556e-08 0)
(7.98484e-08 -1.89861e-08 0)
(8.31202e-08 -1.74066e-08 0)
(8.63788e-08 -1.58147e-08 0)
(8.96261e-08 -1.42084e-08 0)
(9.28648e-08 -1.25865e-08 0)
(9.60986e-08 -1.09488e-08 0)
(9.93315e-08 -9.29613e-09 0)
(3.5356e-08 -4.04273e-08 0)
(3.86147e-08 -3.89004e-08 0)
(4.18926e-08 -3.73436e-08 0)
(4.51858e-08 -3.5768e-08 0)
(4.84904e-08 -3.41827e-08 0)
(5.18028e-08 -3.25942e-08 0)
(5.51191e-08 -3.10069e-08 0)
(5.84361e-08 -2.94234e-08 0)
(6.17507e-08 -2.78446e-08 0)
(6.50601e-08 -2.62698e-08 0)
(6.83623e-08 -2.46974e-08 0)
(7.16557e-08 -2.3125e-08 0)
(7.49391e-08 -2.15498e-08 0)
(7.82119e-08 -1.9969e-08 0)
(8.14742e-08 -1.83799e-08 0)
(8.47265e-08 -1.67807e-08 0)
(8.79701e-08 -1.51703e-08 0)
(9.12071e-08 -1.35484e-08 0)
(9.44406e-08 -1.1916e-08 0)
(9.76742e-08 -1.02742e-08 0)
(3.42627e-08 -4.14186e-08 0)
(3.74477e-08 -3.99034e-08 0)
(4.06573e-08 -3.83556e-08 0)
(4.3888e-08 -3.67865e-08 0)
(4.71361e-08 -3.5205e-08 0)
(5.0398e-08 -3.36179e-08 0)
(5.36696e-08 -3.20298e-08 0)
(5.69475e-08 -3.04434e-08 0)
(6.02283e-08 -2.88598e-08 0)
(6.3509e-08 -2.72789e-08 0)
(6.67871e-08 -2.56994e-08 0)
(7.00608e-08 -2.41193e-08 0)
(7.33287e-08 -2.25363e-08 0)
(7.65897e-08 -2.09479e-08 0)
(7.98436e-08 -1.93522e-08 0)
(8.30903e-08 -1.77478e-08 0)
(8.63305e-08 -1.61345e-08 0)
(8.95656e-08 -1.45134e-08 0)
(9.27979e-08 -1.28862e-08 0)
(9.60312e-08 -1.12547e-08 0)
(3.31119e-08 -4.23776e-08 0)
(3.62283e-08 -4.08731e-08 0)
(3.93755e-08 -3.93343e-08 0)
(4.25505e-08 -3.77725e-08 0)
(4.57493e-08 -3.61966e-08 0)
(4.89677e-08 -3.46131e-08 0)
(5.22016e-08 -3.30268e-08 0)
(5.54468e-08 -3.14404e-08 0)
(5.86995e-08 -2.98553e-08 0)
(6.19564e-08 -2.82717e-08 0)
(6.52146e-08 -2.66886e-08 0)
(6.84719e-08 -2.51042e-08 0)
(7.17266e-08 -2.35165e-08 0)
(7.49776e-08 -2.19235e-08 0)
(7.82243e-08 -2.03235e-08 0)
(8.14663e-08 -1.87156e-08 0)
(8.47039e-08 -1.71002e-08 0)
(8.79375e-08 -1.54794e-08 0)
(9.11685e-08 -1.38572e-08 0)
(9.44003e-08 -1.22361e-08 0)
(3.18827e-08 -4.33084e-08 0)
(3.49361e-08 -4.18142e-08 0)
(3.80287e-08 -4.0285e-08 0)
(4.11567e-08 -3.8732e-08 0)
(4.43154e-08 -3.71634e-08 0)
(4.74999e-08 -3.55857e-08 0)
(5.07049e-08 -3.40034e-08 0)
(5.39256e-08 -3.24195e-08 0)
(5.71577e-08 -3.08356e-08 0)
(6.0397e-08 -2.92519e-08 0)
(6.36404e-08 -2.76678e-08 0)
(6.68852e-08 -2.60817e-08 0)
(7.01295e-08 -2.4492e-08 0)
(7.33722e-08 -2.28967e-08 0)
(7.66125e-08 -2.12943e-08 0)
(7.98505e-08 -1.96842e-08 0)
(8.30863e-08 -1.8067e-08 0)
(8.632e-08 -1.64458e-08 0)
(8.95515e-08 -1.48267e-08 0)
(9.27826e-08 -1.32175e-08 0)
(3.0546e-08 -4.42143e-08 0)
(3.35443e-08 -4.27318e-08 0)
(3.65934e-08 -4.12144e-08 0)
(3.96869e-08 -3.96723e-08 0)
(4.28182e-08 -3.81132e-08 0)
(4.59809e-08 -3.65431e-08 0)
(4.91688e-08 -3.49667e-08 0)
(5.23759e-08 -3.33872e-08 0)
(5.55968e-08 -3.18061e-08 0)
(5.88266e-08 -3.02241e-08 0)
(6.20616e-08 -2.86405e-08 0)
(6.52985e-08 -2.70544e-08 0)
(6.85354e-08 -2.5464e-08 0)
(7.17709e-08 -2.38679e-08 0)
(7.5005e-08 -2.22647e-08 0)
(7.82382e-08 -2.06538e-08 0)
(8.14717e-08 -1.90356e-08 0)
(8.47073e-08 -1.74134e-08 0)
(8.7946e-08 -1.57952e-08 0)
(9.11867e-08 -1.41973e-08 0)
(2.39735e-09 -4.37298e-08 0)
(7.23376e-09 -4.31045e-08 0)
(1.21654e-08 -4.17849e-08 0)
(1.72477e-08 -3.98574e-08 0)
(2.25225e-08 -3.7407e-08 0)
(2.80152e-08 -3.45306e-08 0)
(3.3731e-08 -3.13371e-08 0)
(3.96536e-08 -2.79422e-08 0)
(4.57444e-08 -2.44636e-08 0)
(5.19419e-08 -2.10165e-08 0)
(2.32258e-09 -4.40819e-08 0)
(7.00075e-09 -4.35163e-08 0)
(1.17577e-08 -4.23173e-08 0)
(1.66405e-08 -4.056e-08 0)
(2.16851e-08 -3.83175e-08 0)
(2.6914e-08 -3.56724e-08 0)
(3.23338e-08 -3.27174e-08 0)
(3.79341e-08 -2.95521e-08 0)
(4.36861e-08 -2.62793e-08 0)
(4.95427e-08 -2.30064e-08 0)
(2.25604e-09 -4.44675e-08 0)
(6.79494e-09 -4.39524e-08 0)
(1.13988e-08 -4.28574e-08 0)
(1.61073e-08 -4.12487e-08 0)
(2.0951e-08 -3.91895e-08 0)
(2.59494e-08 -3.67513e-08 0)
(3.11095e-08 -3.40142e-08 0)
(3.64244e-08 -3.10642e-08 0)
(4.18727e-08 -2.79915e-08 0)
(4.74174e-08 -2.48923e-08 0)
(2.19619e-09 -4.4885e-08 0)
(6.61079e-09 -4.44131e-08 0)
(1.1079e-08 -4.34082e-08 0)
(1.56343e-08 -4.1929e-08 0)
(2.03025e-08 -4.00311e-08 0)
(2.51001e-08 -3.7777e-08 0)
(3.00337e-08 -3.52366e-08 0)
(3.50984e-08 -3.24852e-08 0)
(4.02778e-08 -2.96021e-08 0)
(4.55416e-08 -2.6673e-08 0)
(2.14144e-09 -4.5333e-08 0)
(6.44292e-09 -4.48983e-08 0)
(1.0789e-08 -4.39715e-08 0)
(1.52078e-08 -4.26053e-08 0)
(1.97209e-08 -4.08492e-08 0)
(2.43424e-08 -3.87585e-08 0)
(2.90779e-08 -3.63949e-08 0)
(3.39235e-08 -3.3825e-08 0)
(3.88662e-08 -3.11187e-08 0)
(4.38806e-08 -2.83526e-08 0)
(2.09042e-09 -4.58094e-08 0)
(6.28695e-09 -4.54071e-08 0)
(1.05209e-08 -4.45482e-08 0)
(1.4816e-08 -4.32809e-08 0)
(1.91904e-08 -4.16495e-08 0)
(2.36559e-08 -3.97034e-08 0)
(2.8217e-08 -3.74981e-08 0)
(3.28705e-08 -3.50925e-08 0)
(3.76054e-08 -3.25493e-08 0)
(4.23999e-08 -2.99366e-08 0)
(2.04201e-09 -4.63123e-08 0)
(6.13941e-09 -4.5938e-08 0)
(1.02686e-08 -4.51384e-08 0)
(1.44497e-08 -4.39577e-08 0)
(1.86982e-08 -4.2436e-08 0)
(2.30238e-08 -4.06181e-08 0)
(2.74301e-08 -3.85538e-08 0)
(3.19142e-08 -3.62964e-08 0)
(3.64662e-08 -3.3902e-08 0)
(4.10675e-08 -3.14317e-08 0)
(1.99534e-09 -4.68391e-08 0)
(5.99754e-09 -4.64894e-08 0)
(1.00272e-08 -4.57418e-08 0)
(1.41015e-08 -4.46372e-08 0)
(1.82339e-08 -4.32123e-08 0)
(2.24323e-08 -4.15077e-08 0)
(2.66997e-08 -3.9569e-08 0)
(3.1033e-08 -3.74444e-08 0)
(3.54236e-08 -3.51849e-08 0)
(3.98549e-08 -3.28452e-08 0)
(1.94966e-09 -4.73877e-08 0)
(5.85907e-09 -4.70595e-08 0)
(9.79256e-09 -4.63577e-08 0)
(1.37654e-08 -4.53202e-08 0)
(1.77889e-08 -4.39807e-08 0)
(2.187e-08 -4.23766e-08 0)
(2.6011e-08 -4.05495e-08 0)
(3.02089e-08 -3.85438e-08 0)
(3.44558e-08 -3.64058e-08 0)
(3.87369e-08 -3.41848e-08 0)
(1.90436e-09 -4.79554e-08 0)
(5.72207e-09 -4.76462e-08 0)
(9.56142e-09 -4.69849e-08 0)
(1.3436e-08 -4.60068e-08 0)
(1.7356e-08 -4.4743e-08 0)
(2.13273e-08 -4.32281e-08 0)
(2.53518e-08 -4.15003e-08 0)
(2.94264e-08 -3.96007e-08 0)
(3.3544e-08 -3.75716e-08 0)
(3.76914e-08 -3.54578e-08 0)
(1.85888e-09 -4.85396e-08 0)
(5.58484e-09 -4.82473e-08 0)
(9.33072e-09 -4.76221e-08 0)
(1.3109e-08 -4.66967e-08 0)
(1.69288e-08 -4.55003e-08 0)
(2.07957e-08 -4.40647e-08 0)
(2.4711e-08 -4.24254e-08 0)
(2.8672e-08 -4.06204e-08 0)
(3.26719e-08 -3.86887e-08 0)
(3.66989e-08 -3.66711e-08 0)
(1.8127e-09 -4.91378e-08 0)
(5.44579e-09 -4.88606e-08 0)
(9.09769e-09 -4.82675e-08 0)
(1.27801e-08 -4.73894e-08 0)
(1.65017e-08 -4.62531e-08 0)
(2.02676e-08 -4.48882e-08 0)
(2.4079e-08 -4.33279e-08 0)
(2.79334e-08 -4.16073e-08 0)
(3.18246e-08 -3.97625e-08 0)
(3.5742e-08 -3.78309e-08 0)
(1.76533e-09 -4.97471e-08 0)
(5.30336e-09 -4.94834e-08 0)
(8.85965e-09 -4.89194e-08 0)
(1.24455e-08 -4.80836e-08 0)
(1.60692e-08 -4.70013e-08 0)
(1.97357e-08 -4.56999e-08 0)
(2.34465e-08 -4.42102e-08 0)
(2.71994e-08 -4.25649e-08 0)
(3.09886e-08 -4.07977e-08 0)
(3.48046e-08 -3.89427e-08 0)
(1.71623e-09 -5.03645e-08 0)
(5.15599e-09 -5.01131e-08 0)
(8.61389e-09 -4.95753e-08 0)
(1.2101e-08 -4.8778e-08 0)
(1.56257e-08 -4.77444e-08 0)
(1.91931e-08 -4.65001e-08 0)
(2.28048e-08 -4.50738e-08 0)
(2.64591e-08 -4.3496e-08 0)
(3.01509e-08 -4.1798e-08 0)
(3.38715e-08 -4.00113e-08 0)
(1.66485e-09 -5.09866e-08 0)
(5.00202e-09 -5.07465e-08 0)
(8.3576e-09 -5.02329e-08 0)
(1.17427e-08 -4.94706e-08 0)
(1.51658e-08 -4.84812e-08 0)
(1.86324e-08 -4.72888e-08 0)
(2.21447e-08 -4.59198e-08 0)
(2.57016e-08 -4.44027e-08 0)
(2.92986e-08 -4.27666e-08 0)
(3.29279e-08 -4.10406e-08 0)
(1.6106e-09 -5.16098e-08 0)
(4.8397e-09 -5.13803e-08 0)
(8.08779e-09 -5.0889e-08 0)
(1.13661e-08 -5.0159e-08 0)
(1.46835e-08 -4.92102e-08 0)
(1.80461e-08 -4.8065e-08 0)
(2.14568e-08 -4.67483e-08 0)
(2.49155e-08 -4.52864e-08 0)
(2.84183e-08 -4.37061e-08 0)
(3.19584e-08 -4.20344e-08 0)
(1.55286e-09 -5.22298e-08 0)
(4.66725e-09 -5.20106e-08 0)
(7.80128e-09 -5.15404e-08 0)
(1.09664e-08 -5.08402e-08 0)
(1.41722e-08 -4.99289e-08 0)
(1.74256e-08 -4.88274e-08 0)
(2.07308e-08 -4.7559e-08 0)
(2.40883e-08 -4.61477e-08 0)
(2.74957e-08 -4.46184e-08 0)
(3.09469e-08 -4.29957e-08 0)
(1.49127e-09 -5.28421e-08 0)
(4.48314e-09 -5.26333e-08 0)
(7.49476e-09 -5.2183e-08 0)
(1.05384e-08 -5.15107e-08 0)
(1.36248e-08 -5.06344e-08 0)
(1.67621e-08 -4.95739e-08 0)
(1.99555e-08 -4.83506e-08 0)
(2.32068e-08 -4.69868e-08 0)
(2.65151e-08 -4.55051e-08 0)
(2.98757e-08 -4.39276e-08 0)
(1.42698e-09 -5.34416e-08 0)
(4.28673e-09 -5.32436e-08 0)
(7.16518e-09 -5.2812e-08 0)
(1.00771e-08 -5.21659e-08 0)
(1.30346e-08 -5.1323e-08 0)
(1.60469e-08 -5.03015e-08 0)
(1.91201e-08 -4.91214e-08 0)
(2.22576e-08 -4.78031e-08 0)
(2.54598e-08 -4.63671e-08 0)
(2.87247e-08 -4.48327e-08 0)
(1.36658e-09 -5.40243e-08 0)
(4.07969e-09 -5.38358e-08 0)
(6.81183e-09 -5.34217e-08 0)
(9.58075e-09 -5.28011e-08 0)
(1.23989e-08 -5.19905e-08 0)
(1.5276e-08 -5.1007e-08 0)
(1.82187e-08 -4.98688e-08 0)
(2.12314e-08 -4.85948e-08 0)
(2.43159e-08 -4.72037e-08 0)
(2.74721e-08 -4.57125e-08 0)
)
;

boundaryField
{
    left
    {
        type            symmetryPlane;
    }
    right
    {
        type            tractionDisplacement;
        traction        uniform (10000 0 0);
        pressure        uniform 0;
        value           nonuniform List<vector> 
30
(
(1.37828e-07 2.52548e-10 -7.48618e-26)
(1.37598e-07 8.37664e-10 -1.0656e-25)
(1.37092e-07 1.38555e-09 3.22257e-26)
(1.36333e-07 1.87234e-09 9.19595e-27)