/*--------------------------------*- C++ -*----------------------------------*\
| =========                 |                                                 |
| \\      /  F ield         | OpenFOAM: The Open Source CFD Toolbox           |
|  \\    /   O peration     | Version:  2.3.0                                 |
|   \\  /    A nd           | Web:      www.OpenFOAM.org                      |
|    \\/     M anipulation  |                                                 |
\*---------------------------------------------------------------------------*/
FoamFile
{
    version     2.0;
    format      ascii;
    class       volSymmTensorField;
    location    "90";
    object      sigma;
}
// * * * * * * * * * * * * * * * * * * * * * * * * * * * * * * * * * * * * * //

dimensions      [1 -1 -2 0 0 0 0];

internalField   nonuniform List<symmTensor> 
1000
(
(7759.93 -5588.64 3.85538e-13 4574.69 -2.50937e-13 2846.45)
(10950.4 -4255.77 1.77771e-14 1146.26 7.71073e-14 2791.54)
(12573.1 -3362.99 1.30627e-13 -712.047 6.68961e-14 2737.17)
(13401.4 -2729 2.17031e-14 -1729.69 -1.83817e-14 2693.47)
(13793.4 -2262.55 9.95579e-14 -2276.35 5.46797e-14 2657.77)
(13936.3 -1909.51 -9.76476e-16 -2547.9 6.96875e-15 2628.08)
(13933.7 -1636.01 -7.88718e-14 -2654.79 -4.3291e-14 2602.82)
(13845.4 -1419.72 -1.20022e-13 -2663.57 -5.76442e-14 2580.43)
(13716.4 -1241.65 0 -2617.67 0 2561.26)
(13546.1 -1014.02 1.29019e-14 -2539.16 -1.63388e-15 2540.06)
(10757.2 -6879.06 2.32623e-13 5150.66 -1.6112e-13 3671.04)
(13186 -4613.48 -5.81224e-14 1844.76 3.21408e-14 3468.64)
(14312.7 -3208.12 6.79531e-14 27.5223 3.24031e-14 3309.27)
(14788.5 -2294.29 2.45629e-14 -1002.38 -1.58816e-14 3181.41)
(14920.8 -1678.42 -9.86461e-14 -1586.15 -5.59093e-14 3077.23)
(14866.8 -1251.14 -4.8929e-15 -1905.49 1.06461e-14 2991.06)
(14711.4 -946.964 8.60947e-14 -2063.67 4.70219e-14 2918.71)
(14503.9 -724.286 -8.18943e-14 -2123.17 -3.86302e-14 2857.09)
(14281 -552.534 -2.64922e-14 -2121.55 5.33036e-15 2806.03)
(14036.4 -359.424 -1.33641e-14 -2061.18 -1.64643e-14 2763.51)
(14072.6 -7841.68 1.76479e-13 5273.66 -1.51132e-13 4464.53)
(15479.3 -4806.31 -3.12577e-14 2374.96 1.25743e-14 4120.21)
(15968.4 -2982.36 -5.64499e-16 757.553 2.42581e-16 3859.84)
(16016.9 -1844.04 -1.32496e-14 -195.86 6.25482e-15 3651)
(15851.9 -1111.66 -9.7854e-14 -767.706 -5.45922e-14 3480.97)
(15584.8 -629.616 -8.19745e-14 -1109.27 -5.28785e-14 3340.51)
(15273.2 -306.454 -3.40399e-14 -1307.27 -2.15429e-14 3222.91)
(14949 -86.0612 3.35448e-14 -1414.61 1.99168e-14 3123.31)
(14636 69.0923 -1.56793e-14 -1462.94 4.16047e-15 3039.94)
(14325.5 226.626 -1.10338e-14 -1449.44 -1.51002e-14 2971.41)
(17561.8 -8365.68 2.99823e-13 5005.7 -1.3507e-13 5207.89)
(17752.9 -4800.78 -7.61898e-14 2745.59 -3.26086e-14 4730.42)
(17502.2 -2695.27 1.58986e-15 1457.62 -4.49612e-16 4375.35)
(17072 -1411.64 0 654.124 0 4090.64)
(16586.4 -608.786 8.15482e-14 135.458 5.6963e-14 3858.89)
(16098.6 -98.5828 -6.4591e-15 -206.067 2.64771e-15 3667.5)
(15631.4 228.309 -7.33391e-14 -433.164 -4.2423e-14 3507.3)
(15195.1 438.016 5.26303e-14 -584.873 4.24749e-14 3371.6)
(14797.8 573.916 -1.36048e-14 -684.952 4.84699e-15 3256.82)
(14424.7 699.439 5.43563e-14 -727.248 3.10228e-14 3160.95)
(21052.1 -8374.89 -2.74132e-13 4441.81 4.65278e-14 5883.21)
(19921.8 -4576.39 -1.81793e-13 2977.15 -5.53637e-14 5284.37)
(18879.7 -2357.15 1.72354e-14 2107.36 -2.3088e-15 4843.17)
(17949.4 -1024.22 1.11336e-14 1505.13 -1.64887e-15 4489.5)
(17137.5 -205.874 0 1069.71 0 4201.65)
(16431.3 301.642 1.54714e-13 745.677 8.68901e-14 3963.91)
(15815 615.988 1.05681e-13 499.312 5.8743e-14 3764.84)
(15274.5 807.986 5.58538e-14 308.335 3.90798e-14 3596.04)
(14801.3 923.731 -4.05907e-14 158.527 -1.00459e-14 3452.26)
(14374 1020.15 -5.57033e-14 58.2565 -3.02564e-14 3330.53)
(24355.1 -7835.71 -4.36897e-13 3699.55 7.41084e-14 6474.15)
(21897.7 -4128.41 1.47625e-13 3098.59 2.90393e-14 5768.38)
(20070.8 -1978.82 9.40983e-14 2686.63 2.58029e-14 5251.7)
(18652.8 -700.497 0 2310.71 0 4837.74)
(17528.5 74.6234 -7.59086e-14 1975.21 -4.12871e-14 4500.86)
(16617.6 547.262 4.30035e-17 1680.2 2.00985e-17 4222.57)
(15864.7 832.861 1.36239e-13 1422.77 6.54861e-14 3989.41)
(15231.3 1000.8 6.35014e-14 1198.46 2.83863e-14 3791.49)
(14692.7 1095.95 4.87098e-15 1003.25 -3.26122e-15 3622.15)
(14221.3 1166.97 -4.44805e-14 846.995 -1.58375e-14 3477.31)
(27280.3 -6761.63 -6.79055e-14 2905.69 4.04544e-15 6965.99)
(23594.8 -3469.92 1.7459e-13 3142.3 4.63661e-14 6170.1)
(21050.5 -1571.65 0 3175.98 0 5590.72)
(19192.3 -449.843 -1.16579e-13 3023.85 -4.20304e-14 5126.8)
(17789.2 225.046 -1.39014e-16 2790.98 -4.93111e-17 4749.27)
(16698.1 631.884 -1.39107e-13 2530.17 -5.55423e-14 4437.29)
(15827.1 873.454 -7.78617e-16 2267.82 4.56319e-15 4175.74)
(15115.5 1011.57 4.30402e-15 2016.55 -5.51114e-15 3953.54)
(14523.5 1086.02 3.34199e-14 1782.17 4.62008e-15 3762.84)
(14017.8 1135.92 -1.70748e-16 1575.66 1.42969e-16 3598.5)
(29647.3 -5213.68 -7.3417e-14 2181.76 -2.68464e-14 7345.17)
(24935.4 -2633.44 4.39904e-14 3138.48 2.40361e-14 6478.58)
(21799.8 -1149.15 -7.96597e-14 3557.21 -2.52473e-14 5851.63)
(19580.5 -274.084 -9.69981e-14 3601.51 -2.80585e-14 5349.7)
(17950 250.151 1.0528e-16 3461.24 7.73726e-17 4941.05)
(16713.2 563.848 -2.95539e-17 3233.66 -4.95607e-17 4603.12)
(15748.2 747.954 -6.27274e-14 2970.25 -1.5824e-14 4319.64)
(14975.6 851.311 -5.57016e-14 2698.4 -1.9021e-14 4078.62)
(14343.3 905.25 2.69741e-15 2432.56 -3.88272e-15 3871.34)
(13813 938.467 5.90183e-15 2184.72 1.98537e-15 3691.79)
(31291.2 -3297.57 3.05884e-13 1628.69 -1.45116e-14 7596.9)
(25856.1 -1676.17 1.40484e-13 3110.62 6.00683e-15 6684.63)
(22304.4 -735.824 -1.2923e-14 3816.76 -1.36754e-14 6027.97)
(19828.6 -178.999 9.1101e-14 4010.35 1.22526e-14 5501.29)
(18036.6 154.616 4.32916e-15 3941.15 6.385e-15 5071.79)
(16697.4 353.778 7.08005e-14 3739.71 1.98454e-14 4716.26)
(15667.2 470.315 0 3476.6 0 4417.81)
(14853.3 535.605 0 3190.3 0 4163.91)
(14194.5 569.792 -2.45847e-14 2901.59 -5.04259e-15 3945.25)
(13649.3 590.557 1.88538e-14 2623.29 -1.2034e-14 3755.21)
(32089.7 -1160.59 7.71362e-15 1329.22 1.30816e-14 7712.07)
(26355.7 -714.059 -4.51583e-13 3111.53 -9.52876e-15 6800.13)
(22550 -411.192 5.41139e-14 3966.48 -1.198e-14 6119.2)
(19915.4 -220.213 9.41059e-14 4233.99 3.90888e-15 5572.93)
(18027.2 -101.42 7.87353e-14 4196.96 3.49295e-15 5128.66)
(16629.4 -27.4048 0 4005.32 0 4761.86)
(15563.5 18.6263 0 3739.76 0 4454.59)
(14728.3 46.9914 3.02576e-16 3444.05 -3.55732e-15 4193.61)
(14057.8 64.4907 7.23134e-14 3141.5 3.26304e-15 3969.06)
(13509.2 76.9256 -1.0996e-15 2844.04 -2.5136e-16 3773.82)
(-491.953 434.265 -1.26168e-14 -11913.9 2.11213e-13 -2862.88)
(-518.654 174.551 1.65368e-15 -7803.53 -4.03766e-14 -1920.5)
(-132.004 -30.4864 0 -5222.02 0 -1235.55)
(577.361 -151.606 5.74488e-15 -3547.89 1.89307e-14 -685.507)
(1399.49 -213.879 -7.75996e-15 -2431.79 1.16971e-14 -238.223)
(2231.75 -240.867 -5.03046e-15 -1663.69 2.97149e-14 131.09)
(3026.95 -247.436 3.41084e-14 -1117.52 2.56491e-14 440.636)
(3765.68 -242.405 4.32108e-14 -715.703 3.04237e-16 703.84)
(4442.53 -231.267 -9.89275e-16 -409.389 -3.20548e-15 930.725)
(5058.71 -219.696 4.42151e-15 -167.834 6.01331e-15 1128.66)
(-571.885 1053.25 -2.60867e-15 -11509.2 -4.95221e-14 -2787.95)
(-333.793 -183.539 2.48066e-16 -7523.85 6.44928e-16 -1813.3)
(179.19 -838.246 -2.60023e-14 -5160.56 -3.81993e-14 -1149.55)
(945.167 -1172.09 -8.55108e-15 -3624.67 -8.08873e-15 -618.347)
(1782.96 -1327.47 1.16777e-14 -2586.55 4.83724e-15 -185.443)
(2610.22 -1381.44 -3.48741e-15 -1860.92 -8.8484e-15 172.915)
(3390.08 -1378.13 -1.8057e-14 -1336.55 -9.83691e-15 473.891)
(4108.2 -1343.31 -4.66224e-14 -944.076 -9.12928e-15 730.182)
(4761.12 -1292.41 -3.62286e-14 -639.096 2.05773e-16 951.236)
(5348.04 -1242.24 4.28213e-14 -392.246 2.8526e-16 1143.65)
(-655.393 1520.66 -4.56936e-15 -10326.7 -3.6387e-14 -2534.33)
(30.2701 -449.734 5.18197e-14 -6997.68 6.16173e-14 -1607.86)
(769.963 -1468.56 4.24901e-17 -4987.5 2.61128e-16 -973.278)
(1638.8 -1975.29 -8.92782e-14 -3660.6 -5.30516e-14 -466.569)
(2510.26 -2204.61 -7.75915e-14 -2746.76 -3.59125e-14 -54.5782)
(3332.5 -2278.72 -3.52253e-14 -2093.43 -1.46111e-14 285.938)
(4086.29 -2265.55 -2.54362e-14 -1609.26 -1.5785e-14 571.623)
(4767.25 -2204.31 1.42915e-14 -1237.03 4.51612e-16 814.666)
(5377.09 -2118.3 -7.1447e-14 -939.955 -1.39795e-14 1023.95)
(5914.8 -2034.26 -8.92572e-14 -693.531 -8.98825e-15 1204.91)
(-685.68 1712.3 -2.29112e-14 -8620.55 4.1508e-14 -2147.59)
(607.945 -744.762 1.80504e-15 -6226.09 -1.77561e-14 -1296.5)
(1643.02 -2008.85 -3.35449e-14 -4723.11 5.47907e-15 -710.789)
(2636.19 -2627.84 3.45335e-15 -3688.26 1.72448e-14 -242.785)
(3542.5 -2899.39 5.19792e-16 -2946.46 6.47109e-16 137.548)
(4350.83 -2978.5 8.11227e-15 -2393.81 3.64738e-15 451.618)
(5064.32 -2950.31 -6.29633e-14 -1966.61 -1.88406e-14 714.856)
(5691.41 -2863.39 1.22699e-14 -1624.31 1.25071e-14 938.562)
(6240.8 -2746.46 1.71354e-14 -1340.78 6.10318e-15 1130.78)
(6710.88 -2635.67 3.86943e-14 -1098.55 1.29801e-14 1295.15)
(-581.612 1551.56 4.80524e-14 -6555.92 -1.52954e-13 -1647.12)
(1401.62 -1108.95 -4.95001e-14 -5259.29 -4.97083e-15 -890.231)
(2767.58 -2469.19 -8.0854e-14 -4367.18 -4.18229e-14 -369.138)
(3891.78 -3123.06 7.33169e-14 -3685 1.24942e-14 47.7191)
(4825.69 -3397.29 6.53574e-14 -3150.68 2.62277e-14 386.541)
(5606.94 -3462.79 7.10264e-14 -2720.04 3.01976e-14 666.209)
(6264.73 -3413.18 7.84489e-14 -2362.97 2.91378e-14 900.405)
(6822.02 -3301.47 -2.46421e-14 -2058.92 -1.23437e-15 1099.18)
(7295.21 -3158.89 3.29161e-14 -1794.4 2.39324e-14 1269.42)
(7681.31 -3030.21 -1.48655e-14 -1560.41 -1.24142e-14 1412.52)
(-243.215 1007.39 -1.62991e-14 -4296.99 2.07664e-13 -1047.74)
(2421.39 -1553.61 -6.19799e-14 -4159.82 -3.26239e-15 -401.176)
(4107.05 -2845.44 1.00565e-13 -3922.77 3.01369e-14 42.5253)
(5346.9 -3447.25 4.03254e-15 -3623.36 -2.17107e-14 397.738)
(6291.23 -3679.88 7.63992e-14 -3316.3 3.23964e-14 686.521)
(7028.3 -3711.43 -6.84917e-14 -3020.83 -2.76762e-14 924.8)
(7614.37 -3633.86 6.0777e-14 -2743.04 2.39037e-14 1124.15)
(8087.25 -3498.88 -2.38298e-14 -2483.93 -1.29448e-15 1293.07)
(8470.93 -3336.9 4.51017e-14 -2243.71 -1.54772e-15 1437.05)
(8760.62 -3200.04 -1.71252e-14 -2022.93 -3.14566e-14 1554.85)
(430.394 94.1383 2.78126e-13 -2010.45 -4.52085e-13 -364.629)
(3677.31 -2070.91 -2.64517e-14 -2994.25 4.9182e-14 157.628)
(5621.89 -3132.42 2.213e-13 -3397 8.7149e-14 513.436)
(6936.94 -3595.69 8.50468e-15 -3477.14 -2.42408e-14 798.415)
(7863.01 -3742.46 8.4252e-17 -3399.19 1.54051e-14 1030.11)
(8534.68 -3719.89 -6.847e-14 -3242.77 -2.38235e-14 1221.21)
(9032.8 -3608.16 -1.45868e-14 -3048.85 -4.46905e-15 1380.91)
(9408.55 -3451.92 0 -2839.46 0 1515.94)
(9692.49 -3277.31 -5.49013e-14 -2628.53 -2.29734e-14 1630.14)
(9877.81 -3142.12 8.22305e-14 -2426.88 2.59024e-14 1719.44)
(1525.87 -1130.63 1.17516e-13 143.574 -2.72037e-13 385.257)
(5172.7 -2638.14 1.01969e-13 -1827.52 -2.09235e-14 771.964)
(7270.16 -3326.83 -4.52975e-14 -2799.69 -4.7807e-14 1031.65)
(8596.54 -3575.46 9.06157e-14 -3224.59 7.35933e-14 1239.68)
(9464.81 -3597.46 -2.78267e-13 -3359.97 -1.13353e-13 1408.81)
(10046.1 -3503.13 8.16859e-14 -3337.07 3.74753e-14 1548.24)
(10440.4 -3351.91 -1.2553e-14 -3226.95 -4.39362e-15 1664.65)
(10708.9 -3176.46 0 -3069.97 0 1762.83)
(10886.5 -2995.91 1.30785e-14 -2892.49 -8.92473e-16 1844.78)
(10963.9 -2871.69 1.56281e-14 -2715.84 -2.13282e-15 1903.39)
(3103.46 -2571.53 0 2024.83 0 1183.45)
(6899.91 -3220.72 -2.08357e-14 -718.187 2.3697e-14 1426.55)
(9007.95 -3428.11 -2.16117e-13 -2143.09 -1.58621e-13 1584.2)
(10263.2 -3404.86 -2.51097e-14 -2851.12 3.58024e-14 1710.49)
(11025.7 -3273.4 -5.90286e-15 -3168.72 1.50632e-14 1813.16)
(11489.3 -3094.82 7.96967e-14 -3265.5 2.46722e-14 1897.81)
(11765.2 -2900.65 0 -3234.96 0 1968.52)
(11920.2 -2707.39 0 -3131.16 0 2028.23)
(11991.3 -2525.51 0 -2990.13 0 2077.19)
(11964.7 -2420.64 1.13104e-13 -2842.53 2.81349e-14 2105.11)
(5187.59 -4104.59 2.32711e-13 3524.77 -2.35599e-13 2010.55)
(8837.92 -3775.74 -5.39623e-14 284.968 4.89554e-14 2105.28)
(10790.5 -3438.6 -4.63044e-14 -1441.69 -4.91974e-14 2157.41)
(11880.7 -3111.45 -9.37285e-14 -2351.19 -7.83883e-14 2199.13)
(12484.6 -2811.82 1.98567e-13 -2808.29 1.02463e-13 2233)
(12802 -2544.13 0 -3004.64 0 2260.93)
(12946.1 -2307.52 -7.86139e-14 -3046.81 -4.09315e-14 2284.45)
(12984.8 -2098.91 0 -2996.21 0 2305.07)
(12959.2 -1915.29 1.10991e-14 -2893.29 -1.2441e-15 2322.91)
(12867.6 -1824.6 -2.66426e-14 -2782.22 -1.44166e-14 2327.39)
(5601.41 -189.719 6.69245e-14 22.0883 -8.33542e-15 1297.73)
(6099.94 -159.157 -1.02319e-14 199.757 -2.78647e-14 1453.78)
(6547.55 -134.46 -8.39733e-14 359.724 -1.13151e-14 1593.99)
(6952.56 -113.408 -9.54192e-17 509.038 -3.70252e-19 1721.91)
(7320.23 -95.3265 -5.88139e-15 653.001 -1.61153e-14 1839.98)
(7654.87 -79.7297 -3.02357e-14 795.914 -1.64183e-16 1950.18)
(7960.07 -66.2579 0 941.303 0 2054.16)
(8238.85 -54.6036 0 1092.14 0 2153.31)
(8493.76 -44.4784 -6.29377e-14 1251.05 4.05584e-15 2248.8)
(8726.85 -35.6018 1.02056e-13 1420.49 1.38163e-14 2341.69)
(8939.75 -27.6968 9.64664e-14 1602.9 -1.62148e-14 2432.92)
(9133.64 -20.4841 -7.02377e-14 1800.78 -7.69296e-15 2523.33)
(9309.27 -13.6769 -3.55216e-14 2016.85 -4.73739e-15 2613.72)
(9466.94 -6.9698 -1.02876e-13 2254.12 -1.77844e-15 2704.86)
(9606.42 -0.0292565 3.67843e-14 2515.98 4.7002e-15 2797.48)
(9726.94 7.48955 6.75321e-14 2806.24 9.15225e-16 2892.27)
(9827.14 15.7398 1.05996e-15 3129.06 -6.62285e-16 2989.89)
(9905.2 23.7462 3.26117e-14 3488 3.84004e-15 3090.74)
(9959.8 26.3879 -3.36629e-14 3882.86 6.60676e-16 3194.46)
(10016.1 9.52566 7.68026e-14 4307.89 5.69272e-15 3305.55)
(5848.01 -1149.27 9.26716e-14 -181.139 1.04366e-14 1307.74)
(6302.72 -1024.38 4.34645e-14 28.893 1.00613e-14 1461.14)
(6710.99 -922.236 -2.14322e-14 212.405 2.74245e-15 1597.71)
(7085.47 -831.6 6.79774e-14 380.998 6.95678e-15 1723.03)
(7428.49 -751.056 2.02375e-15 540.917 8.65901e-17 1839.09)
(7742.83 -679.397 -9.6616e-14 697.139 -4.53048e-15 1947.68)
(8031.12 -615.458 9.23389e-15 853.619 5.58502e-15 2050.32)
(8295.7 -558.118 -6.39156e-14 1013.64 -1.50874e-15 2148.31)
(8538.61 -506.309 -1.71192e-15 1180.06 -9.82461e-17 2242.77)
(8761.52 -459.012 5.9906e-14 1355.53 -2.53137e-15 2334.7)
(8965.75 -415.242 4.26322e-14 1542.61 7.42673e-15 2425.01)
(9152.27 -374.038 -6.8931e-15 1743.93 -3.74377e-15 2514.51)
(9321.68 -334.441 -3.46546e-14 1962.26 -1.58973e-15 2603.99)
(9474.22 -295.47 0 2200.63 0 2694.2)
(9609.75 -256.12 -5.09345e-15 2462.4 -1.58922e-15 2785.88)
(9727.8 -215.388 -6.85671e-14 2751.35 -4.54558e-15 2879.8)
(9827.58 -172.369 -3.38217e-15 3071.84 1.42277e-16 2976.79)
(9907.76 -126.22 2.4596e-15 3429.57 -8.18541e-16 3077.84)
(9964.84 -74.8965 1.635e-15 3834.37 -1.59608e-15 3184.43)
(10014.6 -9.7256 1.08617e-13 4317.1 3.96795e-14 3307.32)
(6343.52 -1887.73 -1.02347e-14 -466.82 -2.27747e-15 1356.16)
(6726.87 -1696.35 6.57501e-14 -221.542 6.01245e-15 1501.23)
(7062.63 -1538.18 -5.87133e-14 -10.478 -1.94193e-15 1627.42)
(7377.06 -1395.85 1.81092e-14 183.113 -2.90991e-15 1744.65)
(7670.19 -1267.74 1.07234e-13 364.999 9.64534e-15 1854.27)
(7942.97 -1152.53 -1.00671e-13 540.135 -6.34417e-15 1957.64)
(8196.47 -1048.83 -3.39983e-14 712.66 -1.33114e-15 2055.95)
(8431.8 -955.141 6.48249e-14 886.103 2.63553e-15 2150.29)
(8650.01 -869.947 1.68498e-15 1063.57 1.67951e-16 2241.6)
(8851.99 -791.735 -6.57456e-15 1247.93 -2.68356e-15 2330.75)
(9038.45 -719.011 1.00322e-13 1441.91 5.87064e-15 2418.55)
(9209.91 -650.292 2.36099e-14 1648.28 -1.95873e-15 2505.74)
(9366.61 -584.088 -1.01193e-13 1869.9 -7.5278e-15 2593.04)
(9508.56 -518.879 -3.4066e-14 2109.85 -2.87434e-15 2681.17)
(9635.46 -453.106 2.89554e-14 2371.53 2.15144e-15 2770.85)
(9746.69 -385.14 2.96804e-14 2658.87 3.12017e-15 2862.82)
(9841.11 -313.15 -4.1619e-14 2976.61 -4.15974e-15 2957.94)
(9916.54 -234.45 -3.76923e-14 3331.14 -4.13304e-15 3057.16)
(9968.71 -143.082 2.17376e-14 3731.97 9.52665e-15 3161.7)
(9997.01 -21.6527 -3.24323e-14 4195.63 -1.88658e-14 3275.22)
(7044.67 -2451.89 -4.69921e-14 -854.546 -1.74586e-14 1428.49)
(7330.05 -2219.95 -1.495e-14 -566.988 -5.0661e-15 1560.71)
(7568 -2027.09 3.22752e-14 -321.495 1.92197e-15 1672.27)
(7799.85 -1851.09 -2.22249e-14 -96.0115 -8.58539e-15 1777.81)
(8023.3 -1690.44 1.21799e-14 114.683 4.27674e-15 1878)
(8237.25 -1544.13 -2.05563e-14 315.204 2.42344e-15 1973.64)
(8441.04 -1410.99 -8.45142e-14 509.644 -2.08275e-14 2065.54)
(8634.26 -1289.57 -6.53893e-14 701.664 -3.87536e-15 2154.44)
(8816.69 -1178.29 2.09648e-14 894.58 -1.57067e-15 2241.06)
(8988.19 -1075.42 6.77798e-14 1091.47 4.99033e-15 2326.07)
(9148.62 -979.221 8.40737e-14 1295.26 1.12942e-14 2410.13)
(9297.83 -887.865 2.52068e-14 1508.85 7.97066e-15 2493.85)
(9435.53 -799.482 -7.84644e-14 1735.23 -3.5486e-15 2577.87)
(9561.28 -712.118 3.36452e-14 1977.55 3.88295e-15 2662.81)
(9674.42 -623.703 2.72816e-14 2239.27 2.99418e-15 2749.31)
(9773.94 -531.945 -2.6902e-14 2524.36 -3.96804e-15 2838.07)
(9858.29 -434.059 5.73481e-15 2837.57 3.41628e-16 2929.81)
(9925.1 -325.89 2.76137e-14 3184.8 6.70595e-15 3025.36)
(9970.87 -199.176 -4.88278e-14 3573.56 -4.22415e-15 3125.64)
(9974.14 -32.0707 -9.08157e-15 4007.91 -1.05708e-14 3226.63)
(7904.29 -2828.32 8.55224e-14 -1300.21 4.21389e-15 1524.02)
(8070.93 -2585.95 -8.7975e-14 -972.911 -2.26109e-14 1638)
(8193.7 -2382.45 -1.72469e-14 -691.819 2.82698e-15 1731.2)
(8326.92 -2193.13 1.50493e-14 -432.494 5.41699e-15 1821.79)
(8466.29 -2016.93 4.5354e-14 -190.21 1.57084e-14 1909.86)
(8608.54 -1853.66 1.12334e-13 38.937 1.20859e-14 1995.57)
(8751.14 -1702.82 3.24604e-14 258.665 1.01173e-14 2079.18)
(8892.08 -1563.45 -6.67556e-14 472.522 -5.31578e-15 2161.06)
(9029.77 -1434.27 -5.87005e-14 683.866 -2.02944e-14 2241.61)
(9162.89 -1313.7 -8.90689e-14 895.881 -5.65255e-15 2321.25)
(9290.34 -1199.98 2.00745e-14 1111.63 6.78486e-15 2400.45)
(9411.15 -1091.18 2.93935e-14 1334.11 9.29788e-15 2479.68)
(9524.38 -985.201 -3.228e-14 1566.39 -9.03399e-15 2559.41)
(9629.07 -879.775 9.03325e-14 1811.62 1.19255e-14 2640.16)
(9724.09 -772.39 2.72076e-14 2073.25 6.07871e-15 2722.46)
(9808.08 -660.16 -2.51501e-14 2355.11 -4.71062e-15 2806.89)
(9879.31 -539.508 4.88348e-14 2661.59 8.67366e-15 2894.05)
(9935.56 -405.256 1.05224e-13 2997.76 2.37685e-14 2984.61)
(9974.11 -247.747 -2.45237e-14 3369.55 -9.5563e-15 3079.31)
(9951.19 -42.5587 -3.38343e-14 3770.78 -3.00735e-14 3166.61)
(8867.31 -2999.97 1.22637e-14 -1752.3 7.22725e-15 1641.93)
(8903.09 -2780.07 -8.74014e-15 -1399.46 3.90033e-15 1731.61)
(8903.21 -2591.62 -1.06659e-13 -1088.63 -1.33663e-14 1803.37)
(8929.26 -2410.91 -6.93737e-14 -799.294 -7.74584e-15 1876.15)
(8976.15 -2237.61 -4.09615e-15 -527.238 -7.07278e-16 1949.75)
(9038.58 -2072.85 5.03664e-16 -269.871 4.99707e-17 2023.55)
(9112.32 -1917.26 4.25475e-14 -24.3476 1.58566e-14 2097.22)
(9193.86 -1770.82 1.67454e-13 212.385 1.70238e-14 2170.67)
(9280.27 -1632.89 1.88479e-14 443.438 5.73178e-15 2243.93)
(9369.05 -1502.37 -1.66013e-13 671.902 -1.90864e-14 2317.14)
(9458.12 -1377.78 -2.79523e-14 900.81 -8.85456e-15 2390.52)
(9545.65 -1257.29 1.64583e-13 1133.16 2.2665e-14 2464.34)
(9630.03 -1138.79 1.14972e-15 1371.96 -4.69137e-15 2538.92)
(9709.73 -1019.84 -1.62439e-13 1620.3 -2.76935e-14 2614.62)
(9783.2 -897.603 -3.52241e-14 1881.44 -6.81789e-15 2691.84)
(9848.81 -768.753 -3.11379e-14 2158.9 -6.31198e-15 2771.01)
(9904.72 -629.121 -3.07179e-14 2456.56 -4.72154e-15 2852.6)
(9948.87 -472.838 7.26234e-14 2778.69 1.88233e-14 2937.13)
(9979.1 -289.399 5.6293e-14 3130 1.01589e-14 3025.18)
(9932.47 -53.0989 -3.3642e-14 3495.81 -3.51659e-14 3098.83)
(9873.08 -2962.15 -7.02809e-15 -2156.79 -4.57764e-15 1780.68)
(9776.07 -2796.77 -4.60007e-14 -1804.58 -9.0638e-15 1839.57)
(9656.76 -2648.07 0 -1477.32 0 1887.56)
(9575.36 -2497.6 0 -1167.9 0 1940.18)
(9527.83 -2345.75 -6.29103e-14 -872.726 -2.33681e-14 1997.33)
(9507.46 -2195.35 0 -591.376 0 2057.56)
(9508.77 -2048.48 -3.64849e-14 -322.573 -1.33336e-14 2119.89)
(9527.08 -1906.37 -5.75507e-14 -64.2915 -1.99237e-14 2183.72)
(9558.31 -1769.38 4.94614e-14 185.925 1.75018e-14 2248.67)
(9598.94 -1637.17 3.46068e-14 430.768 1.1602e-14 2314.55)
(9645.97 -1508.81 -2.98566e-14 673.002 -1.00754e-14 2381.3)
(9696.8 -1382.83 3.22701e-14 915.437 5.14029e-15 2448.98)
(9749.13 -1257.28 4.19237e-14 1160.88 1.29018e-14 2517.69)
(9800.93 -1129.73 1.272e-14 1412.18 3.70441e-15 2587.64)
(9850.28 -997.214 3.22299e-14 1672.27 4.19195e-15 2659.05)
(9895.34 -856.101 5.32071e-14 1944.21 1.32796e-14 2732.2)
(9934.21 -701.814 -1.13742e-13 2231.25 -2.99177e-14 2807.41)
(9964.94 -527.998 -9.33212e-14 2536.87 -2.99556e-14 2885.03)
(9985.78 -323.675 3.08235e-14 2864.73 1.14685e-14 2965.5)
(9921.9 -63.0358 -3.04017e-14 3194.01 -3.98173e-14 3026.75)
(10860.5 -2725.16 2.144e-14 -2462.74 -4.74271e-15 1937.95)
(10639.3 -2640.99 -3.04111e-14 -2147.76 -6.58152e-15 1959.58)
(10413.6 -2552.8 -1.17055e-13 -1824.12 -2.40507e-14 1982.19)
(10232.5 -2451.87 1.01283e-14 -1510.03 -3.73887e-15 2012.87)
(10095 -2338.8 2.98029e-15 -1202.89 7.1173e-16 2052.03)
(9994.02 -2218.03 -3.53279e-14 -905.514 -5.55305e-15 2097.35)
(9923.55 -2093.18 3.22095e-14 -618.934 -1.02549e-14 2147.22)
(9878.18 -1966.87 5.2015e-14 -342.828 1.78087e-14 2200.47)
(9853.11 -1840.69 -1.22445e-13 -75.8531 -9.98214e-15 2256.29)
(9844.05 -1715.3 -2.44545e-14 183.839 -8.05544e-15 2314.13)
(9847.26 -1590.53 6.84419e-15 438.489 -8.84715e-15 2373.63)
(9859.47 -1465.48 0 690.421 0 2434.59)
(9877.83 -1338.59 1.56902e-14 942.097 5.11231e-15 2496.91)
(9899.85 -1207.64 1.25208e-13 1195.91 3.00106e-14 2560.56)
(9923.33 -1069.69 4.85045e-14 1454.33 1.24468e-14 2625.61)
(9946.25 -920.991 -5.05525e-14 1719.75 -1.43083e-14 2692.15)
(9966.78 -756.711 7.53603e-15 1994.66 -9.6226e-16 2760.33)
(9983.12 -570.14 0 2281.58 0 2830.32)
(9993.85 -350.069 1.8341e-14 2583.19 1.08688e-14 2902.4)
(9922.7 -71.4626 -1.89891e-14 2876.21 -4.14612e-14 2953.6)
(11777.2 -2307.64 1.97034e-14 -2623.45 2.37519e-16 2112.4)
(11450 -2320.5 -3.74155e-14 -2385.59 5.96961e-15 2091.78)
(11137.3 -2308.03 7.82215e-15 -2089.9 -3.88239e-15 2087.86)
(10870.4 -2272.58 -2.65084e-14 -1790.48 -1.15501e-14 2095.37)
(10652.8 -2213.89 4.71478e-14 -1486.84 2.69189e-14 2115.22)
(10478 -2137.29 1.60249e-13 -1185.46 4.15922e-14 2144.43)
(10340.1 -2047.64 -5.83139e-14 -890.346 -9.66083e-15 2180.72)
(10233.8 -1948.84 -1.28943e-13 -603.316 -1.34328e-14 2222.42)
(10153.9 -1843.74 1.93377e-14 -324.745 -1.13789e-14 2268.26)
(10095.7 -1734.12 1.19372e-13 -53.9467 1.34526e-14 2317.33)
(10055.1 -1620.74 -8.98068e-14 210.344 -2.74006e-14 2368.95)
(10028.3 -1503.46 -5.08184e-14 469.792 -3.92422e-15 2422.64)
(10012 -1381.28 -6.03346e-14 726.17 -1.30189e-14 2478.04)
(10003.4 -1252.38 -3.25392e-15 981.329 -9.31919e-16 2534.94)
(10000 -1114.06 9.02005e-14 1236.98 2.51656e-14 2593.16)
(9999.81 -962.676 1.51909e-14 1494.77 4.33804e-15 2652.6)
(10001.1 -793.319 0 1756.08 0 2713.18)
(10002.3 -599.043 1.49072e-14 2022.22 7.95946e-15 2774.9)
(10002.7 -368.475 -5.73975e-14 2294.48 -2.52705e-14 2837.8)
(9937.04 -77.5228 5.17639e-14 2552.28 7.43571e-14 2882.15)
(12605.3 -1724.68 5.90854e-14 -2606.77 3.99311e-14 2307.35)
(12197.4 -1838.99 9.42197e-15 -2449.73 -4.73457e-15 2249.46)
(11806.1 -1918.89 4.04713e-14 -2210.39 1.3452e-14 2214.4)
(11462.2 -1965.05 -8.32368e-14 -1955.26 -1.33977e-14 2193.91)
(11171.4 -1976.82 -1.08925e-13 -1682.19 -2.88645e-14 2189.82)
(10928.5 -1959.44 4.32735e-14 -1398.92 -1.19741e-15 2199.14)
(10728.2 -1918.52 1.54208e-13 -1112.26 4.14593e-14 2219.07)
(10565.1 -1859.12 4.54919e-14 -826.985 -5.5384e-16 2247.27)
(10434.1 -1785.37 -8.19854e-14 -546.013 -2.30051e-14 2281.86)
(10330 -1700.31 2.19174e-17 -270.712 -8.10948e-16 2321.37)
(10248.3 -1605.83 4.81987e-15 -1.42447 1.47629e-14 2364.67)
(10184.9 -1502.74 -1.07917e-13 262.242 -2.82233e-14 2410.88)
(10136 -1390.82 5.82116e-14 521.017 1.35675e-14 2459.32)
(10098.6 -1268.86 -2.82068e-14 775.806 -1.28154e-14 2509.47)
(10069.8 -1134.63 -1.17838e-16 1027.39 8.41046e-17 2560.89)
(10047.6 -984.812 -4.52503e-14 1276.32 -1.4145e-14 2613.22)
(10030.4 -814.702 2.79653e-14 1522.69 9.88097e-15 2666.1)
(10017.3 -617.369 6.91261e-16 1766.03 8.02651e-18 2719.23)
(10008.1 -381.041 -1.38277e-14 2005.26 -9.89075e-15 2772.33)
(9964.59 -81.0202 -8.52027e-15 2225.79 -3.86527e-15 2813.17)
(13181.2 -1221.54 -2.97423e-14 -2543.27 -2.36186e-14 2454.91)
(12731.8 -1394.34 -3.47483e-14 -2330.59 -2.04126e-14 2400.29)
(12284 -1548.62 -2.28814e-14 -2161.64 -7.49637e-15 2335.94)
(11904.4 -1651.59 3.15888e-14 -1950.33 1.7465e-14 2297.08)
(11577.1 -1713.08 -4.8145e-14 -1711.6 -3.75925e-14 2276.64)
(11296.3 -1740.01 -3.4469e-14 -1455.38 -2.39464e-14 2270.98)
(11057.3 -1738.25 -5.75008e-14 -1189.62 -2.07211e-14 2277.16)
(10855.7 -1712.95 -4.07213e-15 -920.314 5.91314e-15 2292.78)
(10687 -1668.42 1.0196e-13 -651.519 4.09892e-14 2315.87)
(10546.8 -1607.98 -5.58037e-15 -385.826 -1.09187e-15 2344.85)
(10431.1 -1533.92 4.85932e-14 -124.624 2.02911e-14 2378.41)
(10335.9 -1447.5 -4.56734e-14 131.391 -1.84689e-14 2415.52)
(10257.7 -1348.95 0 382.027 0 2455.31)
(10193.4 -1237.51 -1.87363e-14 627.175 -7.18204e-15 2497.05)
(10140.5 -1111.41 1.78138e-14 866.702 6.41158e-15 2540.13)
(10097.1 -967.811 -1.52948e-15 1100.06 -5.09819e-16 2583.97)
(10061.9 -802.545 -2.57914e-14 1326.16 -9.62968e-15 2628)
(10034.3 -609.302 2.99917e-16 1542.9 2.7273e-16 2671.65)
(10015 -376.771 -1.48077e-14 1746.81 -3.35651e-15 2714.26)
(10012.3 -78.436 -4.87189e-15 1934.48 -2.8031e-15 2756.95)
(13097.3 -863.548 4.2961e-14 -2322.86 2.00605e-14 2486.41)
(12790.8 -1056.9 0 -2221.16 0 2439.15)
(12406.5 -1238.09 -3.4791e-14 -2098.86 -1.16012e-14 2378.69)
(12060.4 -1373.54 6.37539e-28 -1922.03 2.26022e-28 2339.62)
(11751.1 -1466.23 7.66808e-29 -1710.84 7.9592e-29 2316.97)
(11477.3 -1522.55 4.81328e-28 -1477.18 2.35972e-28 2307.72)
(11237.1 -1548.27 5.58408e-28 -1229.91 1.9496e-28 2309.34)
(11027.9 -1548.28 -3.02125e-14 -975.726 -7.53514e-15 2319.73)
(10847.1 -1526.59 0 -719.491 0 2337.14)
(10691.7 -1486.39 2.89059e-14 -464.585 7.14065e-15 2360.09)
(10558.6 -1429.96 -2.2633e-28 -213.258 -3.88755e-29 2387.38)
(10445 -1358.66 -2.78491e-14 33.0189 -7.31755e-15 2417.99)
(10348 -1272.97 2.73981e-14 273.222 7.60893e-15 2451.06)
(10265.4 -1172.45 2.9689e-28 506.488 1.02498e-28 2485.83)
(10195.2 -1055.77 -2.6623e-14 731.836 -8.60819e-15 2521.62)
(10135.8 -920.611 -1.82361e-28 947.894 -6.47382e-29 2557.78)
(10086.6 -763.493 2.59962e-14 1152.59 1.02302e-14 2593.65)
(10047.5 -579.071 2.57397e-14 1342.75 1.13266e-14 2628.52)
(10019.9 -357.521 -1.19837e-28 1513.35 -7.25106e-29 2661.52)
(10010.2 -74.3938 -3.38475e-14 1657.29 -5.77794e-14 2692.51)
(13044.6 -517.568 1.83792e-14 -2017.18 -1.36948e-15 2544.79)
(12801.7 -719.958 -1.83911e-14 -1984.87 -1.55468e-14 2496.2)
(12475.1 -917.213 -5.33909e-14 -1920.97 -2.73095e-14 2435.58)
(12164 -1077.09 0 -1793.2 0 2393.27)
(11874.5 -1197.3 1.45288e-14 -1622.57 -3.68448e-15 2365.83)
(11610 -1281.5 -4.43103e-15 -1423.1 -1.68014e-14 2350.83)
(11371.5 -1334.23 -4.93572e-14 -1204.84 -2.11061e-14 2346.16)
(11158.5 -1359.68 -6.61241e-14 -975.326 -3.14208e-14 2349.96)
(10969.6 -1361.47 2.98685e-14 -740.19 8.05952e-15 2360.64)
(10803.2 -1342.5 -3.4463e-14 -503.637 -1.99872e-14 2376.82)
(10657.2 -1304.96 -1.69654e-14 -268.761 -9.24985e-15 2397.33)
(10529.5 -1250.28 -3.34287e-14 -37.8968 -1.70629e-14 2421.13)
(10418 -1179.12 -3.29633e-14 187.086 -1.56836e-14 2447.33)
(10321 -1091.36 -1.62683e-14 404.48 -7.18398e-15 2475.12)
(10237.1 -986.085 -3.21466e-14 612.463 -1.31234e-14 2503.74)
(10165.2 -861.529 -3.1787e-14 808.801 -1.19603e-14 2532.46)
(10105 -714.938 -2.61752e-14 990.536 -1.07631e-14 2560.51)
(10057.1 -541.95 -1.55578e-14 1153.55 -4.97354e-15 2587.08)
(10023.5 -334.179 -1.53863e-14 1291.99 -4.57714e-15 2611.26)
(10008.4 -69.5148 -5.07241e-15 1397.34 -4.28395e-15 2632.1)
(12919.2 -229.077 1.60426e-13 -1742.6 7.63012e-14 2579.21)
(12724.7 -426.472 1.6587e-14 -1753.19 1.48669e-14 2531.89)
(12451.2 -626.35 -8.62001e-14 -1730.57 -3.98341e-14 2473.98)
(12180.5 -798.369 1.31883e-27 -1644.4 5.39294e-28 2431.4)
(11919.2 -936.625 4.87298e-14 -1511.46 8.04603e-15 2401.79)
(11673.1 -1041.75 0 -1345.24 0 2383.35)
(11445 -1116.38 1.7273e-14 -1156.16 1.22489e-14 2374.36)
(11236.4 -1163.58 -6.15002e-14 -952.236 -1.8194e-14 2373.26)
(11047.2 -1186.2 1.47618e-27 -739.665 5.12327e-28 2378.65)
(10876.8 -1186.7 5.88942e-14 -523.249 1.72979e-14 2389.29)
(10724.3 -1167.03 -1.67209e-14 -306.747 -9.40499e-15 2404.06)
(10588.4 -1128.57 -1.89124e-28 -93.1835 -5.70358e-29 2421.96)
(10467.6 -1072.06 -1.14769e-27 114.862 -3.69167e-28 2442.12)
(10361 -997.617 1.62395e-14 314.974 7.45483e-15 2463.68)
(10267.5 -904.713 -5.56401e-28 504.617 -2.02217e-28 2485.87)
(10186.6 -792.119 -5.3282e-14 680.852 -2.08965e-14 2507.88)
(10118.6 -657.798 4.59362e-28 840.013 1.89957e-28 2528.91)
(10064.4 -498.389 3.65002e-14 977.333 1.89431e-14 2548.09)
(10026.3 -306.932 -1.5499e-14 1086.36 -5.12823e-15 2564.47)
(10006.9 -63.8672 -7.38545e-14 1157.27 -1.23994e-13 2576.34)
(12740.9 6.17839 2.8699e-14 -1491.24 2.83614e-14 2596.08)
(12587.1 -181.54 4.98198e-14 -1531.05 2.79057e-14 2551.39)
(12360.2 -375.803 3.1057e-14 -1537.17 2.79969e-14 2497.61)
(12129 -550.359 1.6885e-28 -1483.99 3.36673e-29 2456.54)
(11899.2 -697.689 6.52624e-14 -1383.98 3.77988e-14 2426.58)
(11676.4 -816.172 -1.57852e-14 -1248.69 1.9678e-15 2406.4)
(11464.8 -906.591 -1.49931e-14 -1087.95 1.89815e-15 2394.66)
(11266.7 -970.654 3.30246e-14 -909.742 2.2897e-14 2390.07)
(11083.3 -1010.31 3.01561e-14 -720.478 9.49227e-15 2391.42)
(10915 -1027.42 4.60098e-14 -525.339 1.9471e-14 2397.62)
(10761.7 -1023.57 3.27832e-14 -328.548 1.89861e-14 2407.64)
(10622.7 -999.952 -1.2149e-14 -133.648 -5.07797e-16 2420.56)
(10497.6 -957.33 4.45699e-15 56.2282 6.93829e-15 2435.49)
(10385.6 -895.985 1.61131e-14 238.098 7.67972e-15 2451.63)
(10286.5 -815.707 5.91396e-14 408.863 2.46363e-14 2468.16)
(10200.2 -715.758 1.58963e-14 565.038 6.6587e-15 2484.28)
(10127.2 -594.785 5.87646e-30 702.448 2.5873e-30 2499.16)
(10069 -450.366 5.75262e-14 815.869 2.42971e-14 2511.9)