/*--------------------------------*- C++ -*----------------------------------*\
| =========                 |                                                 |
| \\      /  F ield         | OpenFOAM: The Open Source CFD Toolbox           |
|  \\    /   O peration     | Version:  2.3.0                                 |
|   \\  /    A nd           | Web:      www.OpenFOAM.org                      |
|    \\/     M anipulation  |                                                 |
\*---------------------------------------------------------------------------*/
FoamFile
{
    version     2.0;
    format      ascii;
    class       volScalarField;
    location    "3e-06";
    object      alpha.fuel;
}
// * * * * * * * * * * * * * * * * * * * * * * * * * * * * * * * * * * * * * //

dimensions      [0 0 0 0 0 0 0];

internalField   nonuniform List<scalar> 
7500
(
1
1
1
1
1
1
1
1
1
1
1
1
1
1
1
1
1
1
1
1
1
1
1
1
1
1
1
1
1
1
0.83170854
0.1234912
2.0351509e-08
5.9058187e-09
9.5096258e-10
9.394292e-11
6.1056534e-12
2.7430232e-13
8.8513965e-15
2.118103e-16
3.862672e-18
5.494795e-20
6.2193623e-22
5.6966549e-24
4.2845566e-26
2.6799157e-28
1.4096866e-30
6.2982843e-33
2.4114375e-35
7.9754339e-38
2.2951018e-40
5.7848074e-43
1.2848577e-45
2.5290007e-48
4.4346792e-51
6.9624001e-54
9.8333726e-57
1.2550988e-59
1.4541627e-62
1.5360174e-65
1.4855693e-68
1.3211757e-71
1.0850787e-74
8.2655823e-78
5.8654589e-81
3.8948086e-84
2.4311171e-87
1.4331332e-90
8.0167996e-94
4.2763214e-97
2.1860592e-100
1.0764313e-103
5.1320638e-107
2.3815476e-110
1.0814345e-113
1
1
1
1
1
1
1
1
1
1
1
1
1
1
1
1
1
1
1
1
1
1
1
1
1
1
1
1
1
1
1
0.61800572
7.7597383e-09
2.154276e-09
3.6131665e-10
3.7072457e-11
2.4622267e-12
1.118315e-13
3.6337719e-15
8.7514823e-17
1.6069732e-18
2.3028252e-20
2.6265426e-22
2.4248568e-24
1.8385181e-26
1.1593463e-28
6.1480579e-31
2.7689238e-33
1.0684342e-35
3.5602811e-38
1.0319002e-40
2.6185255e-43
5.8528351e-46
1.1587886e-48
2.0429402e-51
3.2231574e-54
4.5724002e-57
5.8590891e-60
6.8119196e-63
7.2169647e-66
6.9977021e-69
6.2364085e-72
5.1304999e-75
3.9130488e-78
2.7791512e-81
1.8462726e-84
1.1525302e-87
6.7922378e-91
3.7971366e-94
2.0235264e-97
1.0331028e-100
5.0789724e-104
2.416902e-107
1.1191235e-110
5.0692609e-114
1
1
1
1
1
1
1
1
1
1
1
1
1
1
1
1
1
1
1
1
1
1
1
1
1
1
1
1
1
1
0.99600166
0.45659442
0.0011098616
2.0059722e-09
2.4174902e-10
2.4010103e-11
1.5823578e-12
7.1199982e-14
2.2891615e-15
5.4533311e-17
9.9064774e-19
1.4048361e-20
1.586119e-22
1.4500272e-24
1.0891425e-26
6.8074441e-29
3.5803126e-31
1.6002247e-33
6.1317179e-36
2.030256e-38
5.8503898e-41
1.4767506e-43
3.2848282e-46
6.4745253e-49
1.1367025e-51
1.7863244e-54
2.5245468e-57
3.2231285e-60
3.733802e-63
3.9416432e-66
3.8081076e-69
3.381389e-72
2.7713457e-75
2.1055719e-78
1.4894829e-81
9.8542901e-85
6.1251946e-88
3.5937334e-91
1.9997627e-94
1.0605761e-97
5.3877478e-101
2.6350548e-104
1.2472184e-107
5.7431698e-111
2.5866015e-114
1
1
1
1
1
1
1
1
1
1
1
1
1
1
1
1
1
1
1
1
1
0.99999999
0.99999998
0.99999998
0.99999998
0.99999998
0.99999998
0.99999999
1
1
0.69636769
0.082367619
3.1013728e-09
9.1240095e-10
1.4453563e-10
1.4040622e-11
8.9376497e-13
3.9236687e-14
1.2369715e-15
2.8954903e-17
5.1753771e-19
7.2315005e-21
8.0569178e-23
7.2785594e-25
5.4088386e-27
3.3478503e-29
1.744963e-31
7.7334366e-34
2.9395412e-36
9.657928e-39
2.7621522e-41
6.9210229e-44
1.5283929e-46
2.991205e-49
5.2150989e-52
8.1400156e-55
1.1428321e-57
1.4498085e-60
1.669298e-63
1.7520263e-66
1.6834463e-69
1.487209e-72
1.2131859e-75
9.1780664e-79
6.4677956e-82
4.2647165e-85
2.6432683e-88
1.5471881e-91
8.5936292e-95
4.5516664e-98
2.3104636e-101
1.1297436e-104
5.3489329e-108
2.4651675e-111
1.1118029e-114
1
1
1
1
1
1
1
1
1
1
1
1
1
1
1
1
1
1
1
1
1
0.99999998
0.99999994
0.99999996
1
1
1
1
1
0.9408748
0.31060172
4.0156207e-09
1.8882215e-09
5.0140975e-10
7.7326841e-11
7.4621471e-12
4.7289747e-13
2.061516e-14
6.442862e-16
1.4946367e-17
2.6485747e-19
3.6710881e-21
4.0594786e-23
3.6417344e-25
2.6887368e-27
1.6542869e-29
8.5753946e-32
3.781756e-34
1.4311825e-36
4.6843605e-39
1.3354835e-41
3.3379305e-44
7.3581106e-47
1.4385466e-49
2.5073739e-52
3.9156039e-55
5.5044317e-58
6.9973549e-61
8.0794241e-64
8.5100215e-67
8.2118472e-70
7.2905318e-73
5.9805236e-76
4.5525136e-79
3.2299277e-82
2.1453427e-85
1.340101e-88
7.9092731e-92
4.4316333e-95
2.368857e-98
1.2140289e-101
5.9957867e-105
2.8684099e-108
1.3362812e-111
6.0943334e-115
1
1
1
1
1
1
1
1
1
1
1
1
1
1
1
1
1
1
0.99999999
0.99999999
0.99999999
1
1
0.99999583
0.99999722
1
1
1
1
0.80174429
0.075946504
2.5526662e-09
1.1529791e-09
2.9461262e-10
4.463248e-11
4.2453668e-12
2.6481178e-13
1.1358212e-14
3.4948437e-16
7.9904227e-18
1.3971916e-19
1.9133769e-21
2.0931955e-23
1.8602553e-25
1.3625464e-27
8.3290897e-30
4.2964663e-32
1.8886968e-34
7.1380862e-37
2.3379618e-39
6.6848398e-42
1.6797572e-44
3.7324088e-47
7.3759478e-50
1.3033829e-52
2.0699279e-55
2.9686258e-58
3.8624546e-61
4.5792025e-64
4.9680065e-67
4.9526828e-70
4.5554756e-73
3.8816362e-76
3.0763509e-79
2.2769931e-82
1.5804553e-85
1.0330532e-88
6.3863401e-92
3.7504942e-95
2.1018556e-98
1.1293251e-101
5.8453707e-105
2.9288988e-108
1.4277749e-111
6.8057967e-115
1
1
1
1
1
1
1
1
1
1
1
1
1
1
1
1
1
0.99999999
0.99999999
0.99999998
0.99999999
0.99999999
1
1
0.99990622
0.99977317
0.99982657
0.99996728
1
0.68504973
0.0092775821
1.705826e-09
8.0694391e-10
1.9583517e-10
2.8416776e-11
2.6160318e-12
1.5872596e-13
6.6529591e-15
2.0112922e-16
4.5470209e-18
7.9208357e-20
1.0901158e-21
1.2106665e-23
1.1047442e-25
8.4111305e-28
5.412845e-30
2.9760531e-32
1.410284e-34
5.8009606e-37
2.0831467e-39
6.5621844e-42
1.820944e-44
4.4680903e-47
9.7299926e-50
1.8872981e-52
3.272594e-55
5.0919316e-58
7.1361067e-61
9.0430324e-64
1.0403093e-66
1.0908493e-69
1.0469283e-72
9.2353862e-76
7.5206957e-79
5.6787249e-82
3.9939954e-85
2.6287769e-88
1.6269263e-91
9.5144039e-95
5.2841917e-98
2.801506e-101
1.4252736e-104
6.9954428e-108
3.3303599e-111
1.5463208e-114
1
1
1
1
1
1
1
1
1
1
1
1
1
1
1
1
1
0.99999999
0.99999997
0.99999995
0.99999998
1
1
1
0.99999362
0.99919887
0.99923512
0.99984119
1
0.57538377
2.8065222e-09
1.4927929e-09
5.7886535e-10
1.3107594e-10
1.8464427e-11
1.6762864e-12
1.0184806e-13
4.3691372e-15
1.3888912e-16
3.4000012e-18
6.5947909e-20
1.0336147e-21
1.3259276e-23
1.404035e-25
1.2351101e-27
9.0778976e-30
5.6068272e-32
2.9275997e-34
1.3003897e-36
4.9448162e-39
1.6198738e-41
4.6000198e-44
1.139224e-46
2.4749801e-49
4.7435872e-52
8.0648292e-55
1.2227753e-57
1.6619256e-60
2.0351321e-63
2.2566148e-66
2.2769416e-69
2.1009336e-72
1.7814666e-75
1.3950841e-78
1.0140423e-81
6.8762483e-85
4.3725119e-88
2.621079e-91
1.4891134e-94
8.0620524e-98
4.182585e-101
2.0910797e-104
1.0131986e-107
4.7852568e-111
2.2157096e-114
1
1
1
1
1
1
1
1
1
1
1
1
1
1
1
1
1
1
1
0.99999997
0.99999961
0.9999992
1
1
1
0.99908444
0.99828193
0.99939113
1
0.66392709
0.012153953
1.2231027e-09
4.6325467e-10
1.0267505e-10
1.4915788e-11
1.4822992e-12
1.0452273e-13
5.4375509e-15
2.1310382e-16
6.356228e-18
1.4552091e-19
2.5839182e-21
3.6023043e-23
3.9951393e-25
3.5714484e-27
2.6062766e-29
1.5712938e-31
7.914459e-34
3.3655768e-36
1.2201933e-38
3.8065011e-41
1.0306681e-43
2.4421245e-46
5.1031895e-49
9.4738221e-52
1.5733273e-54
2.3525344e-57
3.186362e-60
3.9311535e-63
4.4406101e-66
4.6144214e-69
4.4304062e-72
3.9463762e-75
3.2739581e-78
2.5392808e-81
1.848173e-84
1.2671232e-87
8.2154648e-91
5.0574873e-94
2.9685798e-97
1.6686649e-100
9.0232628e-104
4.7159257e-107
2.3937201e-110
1.1858994e-113
1
1
1
1
1
1
1
1
1
1
1
1
1
1
1
1
0.99999999
0.99999999
0.99999999
1
1
0.99998469
0.99998464
1
1
1
0.99697828
0.99806739
1
0.85838288
0.066803164
1.3486084e-09
4.1283768e-10
9.1054843e-11
1.6228656e-11
2.1994389e-12
2.0989435e-13
1.3808429e-14
6.3590041e-16
2.1110371e-17
5.2123128e-19
9.8488706e-21
1.4595715e-22
1.7315734e-24
1.672332e-26
1.3329224e-28
8.8663808e-31
4.9681742e-33
2.3638893e-35
9.618491e-38
3.3684577e-40
1.0214176e-42
2.6970523e-45
6.235193e-48
1.2687084e-50
2.2836682e-53
3.6543878e-56
5.2241055e-59
6.7034029e-62
7.7573114e-65
8.1338007e-68
7.7638076e-71
6.7779335e-74
5.4378079e-77
4.028536e-80
2.7694838e-83
1.7756427e-86
1.0671989e-89
6.0443581e-93
3.2434522e-96
1.6580924e-99
8.1207476e-103
3.8322686e-106
1.7527161e-109
7.8146063e-113
1
1
1
1
1
1
1
1
1
1
1
1
1
1
1
0.99999999
0.99999999
0.99999998
0.99999998
0.99999999
1
1
0.99997289
0.99982457
0.99991754
1
0.9960193
0.99422196
0.9982303
1
0.24385582
1.0936448e-09
3.0794272e-10
1.2789794e-10
4.6898916e-11
8.837426e-12
9.0599136e-13
5.677073e-14
2.3861551e-15
7.2069295e-17
1.6436946e-18
2.9282325e-20
4.1642892e-22
4.7933102e-24
4.5092967e-26
3.4952812e-28
2.2496355e-30
1.2116048e-32
5.5029861e-35
2.1239971e-37
7.0189362e-40
2.0002274e-42
4.9497064e-45
1.0706416e-47
2.0371522e-50
3.4304777e-53
5.1424827e-56
6.9011738e-59
8.3362452e-62
9.1119655e-65
9.0591217e-68
8.2334681e-71
6.874716e-74
5.2994075e-77
3.7897392e-80
2.5264088e-83
1.577673e-86
9.2740497e-90
5.1570537e-93
2.7263481e-96
1.3772291e-99
6.681992e-103
3.1299715e-106
1.4229705e-109
6.3121532e-113
1
1
1
1
1
1
1
1
1
1
1
1
1
1
1
0.99999999
0.99999998
0.99999997
0.99999996
1
1
1
1
0.99837216
0.99891972
1
0.99811618
0.98151221
0.99213739
1
0.92234098
0.09878451
3.0082295e-10
1.236869e-10
1.8670281e-10
3.0278097e-11
2.3855566e-12
1.2307705e-13
4.6737009e-15
1.3702056e-16
3.1502965e-18
5.7080668e-20
8.1907403e-22
9.3791682e-24
8.6542358e-26
6.5030907e-28
4.0221585e-30
2.0686609e-32
8.9328534e-35
3.267822e-37
1.0212162e-39
2.7475416e-42
6.4105892e-45
1.3060328e-47
2.3384871e-50
3.7028678e-53
5.2162968e-56
6.5754955e-59
7.4593188e-62
7.6575899e-65
7.1530509e-68
6.1129952e-71
4.8052378e-74
3.4929072e-77
2.3602732e-80
1.4904242e-83
8.8404868e-87
4.9509139e-90
2.6311276e-93
1.3336288e-96
6.4795333e-100
3.0327996e-103
1.3743966e-106
6.0608345e-110
2.6139523e-113
1
1
1
1
1
1
1
1
1
1
1
1
1
1
1
1
1
1
0.99999994
0.99999921
0.99999732
0.99999758
0.99999941
1
1
1
1
0.9845112
0.99437407
1
1
0.94735611
0.52020403
0.017100549
6.1212582e-10
6.6374514e-11
5.6307083e-12
3.8018415e-13
1.831061e-14
6.2242291e-16
1.5254938e-17
2.7647913e-19
3.7938554e-21
4.0248879e-23
3.3625305e-25
2.2483267e-27
1.2206892e-29
5.4520976e-32
2.0273068e-34
6.3459106e-37
1.6898068e-39
3.8663244e-42
7.6749567e-45
1.3342625e-47
2.0499168e-50
2.8076518e-53
3.4564776e-56
3.8539544e-59
3.9186365e-62
3.6554424e-65
3.144865e-68
2.5067483e-71
1.8588343e-74
1.2871693e-77
8.3538303e-81
5.1001829e-84
2.9401877e-87
1.6067845e-90
8.3581582e-94
4.1560835e-97
1.9842575e-100
9.1376514e-104
4.0778654e-107
1.7720827e-110
7.5356595e-114
1
1
1
1
1
1
1
1
1
1
1
1
1
1
1
1
1
1
1
0.99999715
0.99997738
0.99999139
1
1
0.90777725
0.9170403
0.98536243
0.99724899
0.93341384
0.950201
1
1
0.68349592
0.019234269
6.0815742e-10
8.693992e-11
8.5160094e-12
5.6419029e-13
2.491756e-14
7.589352e-16
1.6556273e-17
2.6716391e-19
3.2749898e-21
3.1181753e-23
2.3498298e-25
1.4246426e-27
7.0496423e-30
2.8843795e-32
9.874818e-35
2.8603943e-37
7.0848937e-40
1.5159258e-42
2.829883e-45
4.6538014e-48
6.805616e-51
8.9294264e-54
1.0599081e-56
1.1466113e-59
1.1377318e-62
1.0410108e-65
8.8220449e-69
6.9498568e-72
5.1059195e-75
3.5089762e-78
2.2626599e-81
1.3733491e-84
7.8732511e-88
4.2789575e-91
2.2133075e-94
1.0941531e-97
5.1922218e-101
2.3760545e-104
1.0535335e-107
4.5483708e-111
1.9215553e-114
1
1
1
1
1
1
1
1
1
1
1
1
1
1
0.99999999
0.99999999
1
0.99999921
1
1
1
1
0.96594225
0.61031785
0.072019963
0.053040794
0.38588809
0.81583635
0.79467422
0.45808057
0.3359571
0.40900561
0.078309089
0.0014949559
7.4156175e-10
9.1330545e-11
7.6443769e-12
4.3974778e-13
1.70342e-14
4.5927282e-16
8.9530203e-18
1.3025641e-19
1.4513918e-21
1.2654846e-23
8.793545e-26
4.9480972e-28
2.28698e-30
8.7956899e-33
2.8490387e-35
7.8614878e-38
1.8682996e-40
3.864771e-43
7.0303802e-46
1.1356639e-48
1.643941e-51
2.1500327e-54
2.5585993e-57
2.7868325e-60
2.7914352e-63
2.5810859e-66
2.2100769e-69
1.7573946e-72
1.3013176e-75
8.9989667e-79
5.8295653e-82
3.5495238e-85
2.0387932e-88
1.1090287e-91
5.7370187e-95
2.8347261e-98
1.3440456e-101
6.1442703e-105
2.7215871e-108
1.1740187e-111
4.9576102e-115
1
1
1
1
1
1
1
1
1
1
1
1
1
1
1
1
1
1
0.94442844
0.81213506
0.7471999
0.66378964
0.30293851
0.0032162924
4.0180502e-09
3.9910376e-09
0.090359415
0.29998476
0.30073808
0.080213929
2.9488468e-09
2.2042003e-09
1.4975873e-09
9.6660826e-10
4.2626406e-10
5.8498261e-11
4.7026516e-12
2.395354e-13
8.1829845e-15
1.9688169e-16
3.4665592e-18
4.6038724e-20
4.7267088e-22
3.82969e-24
2.4926809e-26
1.3240681e-28
5.8223164e-31
2.1476352e-33
6.7282377e-36
1.811533e-38
4.2391126e-41
8.7133951e-44
1.5886579e-46
2.591806e-49
3.8121684e-52
5.0867638e-55
6.1884116e-58
6.8914929e-61
7.0479846e-64
6.6387307e-67
5.7752575e-70
4.6532039e-73
3.4828707e-76
2.4296555e-79
1.5852885e-82
9.7113285e-86
5.6081256e-89
3.0661483e-92
1.5943047e-95
7.921563e-99
3.7796849e-102
1.7407129e-105
7.778868e-109
3.3914274e-112
1.4505349e-115
1
1
1
1
1
1
1
1
1
1
1
1
1
1
1
1
0.8862888
0.48855391
0.08813462
4.3878699e-09
3.8670118e-09
3.866939e-09
3.8669384e-09
3.8669112e-09
3.8668378e-09
4.2278579e-09
0.062916075
0.070613173
0.012510607
6.4798273e-09
3.0466581e-07
8.749112e-09
2.6071825e-09
1.1082505e-09
2.8462042e-10
3.4227277e-11
2.3870192e-12
1.0635962e-13
3.2326492e-15
7.0272655e-17
1.1325677e-18
1.392385e-20
1.3367914e-22
1.0224982e-24
6.3412618e-27
3.2393254e-29
1.3828672e-31
5.0001601e-34
1.5505876e-36
4.1719793e-39
9.842088e-42
2.0547948e-44
3.8268268e-47
6.3996752e-50
9.6614819e-53
1.3224427e-55
1.647153e-58
1.8729253e-61
1.950214e-64
1.8654624e-67
1.6446511e-70
1.3411835e-73
1.0155315e-76
7.1693601e-80
4.7399263e-83
2.9486423e-86
1.7346769e-89
9.7022972e-93
5.1882319e-96
2.6679642e-99
1.3272505e-102
6.4263883e-106
3.0467583e-109
1.4228774e-112
6.5828015e-116
1
1
1
1
1
1
1
1
1
1
1
1
1
0.93039124
0.80404971
0.58173403
0.080509485
5.201742e-09
4.6430109e-09
5.8877191e-09
5.3261533e-09
4.5814472e-09
4.7381695e-09
4.6560385e-09
3.8667837e-09
3.8661509e-09
0.086139592
0.012670215
6.7844271e-09
5.8240372e-09
1.485556e-08
8.6269636e-09
2.7973263e-09
9.3733799e-10
1.7548804e-10
1.7592991e-11
1.0608694e-12
4.1914103e-14
1.1519252e-15
2.3004812e-17
3.4527194e-19
4.002082e-21
3.6659377e-23
2.7077156e-25
1.642168e-27
8.315194e-30
3.5701777e-32
1.3184978e-34
4.2429166e-37
1.2032812e-39
3.0360611e-42
6.8674348e-45
1.4007897e-47
2.588298e-50
4.3481042e-53
6.6620164e-56
9.3375941e-59
1.2008681e-61
1.4214382e-64
1.5534889e-67
1.5726483e-70
1.4794519e-73
1.2975298e-76
1.0643458e-79
8.1923536e-83
5.936519e-86
4.0637928e-89
2.6372196e-92
1.6284967e-95
9.6060546e-99
5.4349625e-102
2.9621014e-105
1.5620408e-108
8.007928e-112
4.009918e-115
1
1
1
1
1
1
1
1
1
1
1
0.88737954
0.56626428
0.10134901
4.7923442e-09
4.6785293e-09
4.6785293e-09
5.1315494e-09
4.6668005e-09
5.5573282e-08
5.0606968e-09
8.1454734e-06
0.00018676412
0.00016327148
2.84477e-05
3.8667714e-09
0.16487455
0.13637323
6.0836616e-09
5.4187019e-09
5.3347225e-09
5.8185553e-09
2.2456954e-09
6.3114617e-10
9.5436363e-11
8.1692941e-12
4.3547903e-13
1.5592883e-14
3.9613196e-16
7.4420404e-18
1.069046e-19
1.2084234e-21
1.1031965e-23
8.3346043e-26
5.3317163e-28
2.9482969e-30
1.4333539e-32
6.1996296e-35
2.401206e-37
8.3465599e-40
2.6032837e-42
7.2796783e-45
1.8243792e-47
4.0996466e-50
8.271937e-53
1.5017958e-55
2.459791e-58
3.6455822e-61
4.9048155e-64
6.0110259e-67
6.7342387e-70
6.9221217e-73
6.5531274e-76
5.7360928e-79
4.6611736e-82
3.5309804e-85
2.5042823e-88
1.6702622e-91
1.052404e-94
6.2938368e-98
3.5898315e-101
1.9624356e-104
1.0333722e-107
5.2680809e-111
2.6134416e-114
1
1
1
1
1
1
1
1
1
0.85230384
0.48745655
0.033854576
3.4166762e-09
3.1044686e-09
4.1110476e-09
5.2715302e-09
5.8529037e-09
5.9285076e-09
4.8765172e-09
4.0313616e-09
4.3175524e-09
0.00037378471
0.00051303911
0.00051995329
7.0628297e-05
4.2112827e-09
3.6896791e-09
0.54714672
0.34731348
4.3379476e-09
3.4858447e-09
3.6512847e-09
1.5337658e-09
3.6912453e-10
4.7344632e-11
3.5707587e-12
1.7302517e-13
5.7765681e-15
1.4013419e-16
2.5791225e-18
3.7385032e-20
4.4127056e-22
4.3648847e-24
3.6993618e-26
2.7243044e-28
1.7544083e-30
9.8931739e-33
4.8822861e-35
2.1079856e-37
7.9700864e-40
2.6445186e-42
7.7244002e-45
1.9935052e-47
4.563884e-50
9.3067129e-53
1.6974094e-55
2.7801826e-58
4.105847e-61
5.4891308e-64
6.6695244e-67
7.39429e-70
7.5099914e-73
7.0157825e-76
6.0532568e-79
4.8439428e-82
3.6105268e-85
2.5177766e-88
1.6500753e-91
1.0210514e-94
5.9940117e-98
3.3545272e-101
1.7986673e-104
9.2870241e-108
4.6412289e-111
2.2566861e-114
1
1
1
1
1
1
1
0.91464389
0.53046362
0.012790625
3.7319989e-09
3.6172307e-09
3.6174619e-09
3.1093138e-09
1.438471e-05
4.0911049e-05
4.6595901e-05
4.406351e-05
2.0932324e-05
4.3078232e-09
0.00011728793
8.6562741e-06
4.1983703e-09
9.5667178e-05
0.0025399489
0.00047402309
3.6944208e-09
0.14320212
0.69246686
0.13981813
2.7965691e-09
2.2461761e-09
9.4097204e-10
1.9773468e-10
2.2371716e-11
1.5464796e-12
7.1417102e-14
2.3674104e-15
5.9631926e-17
1.1923034e-18
1.9500668e-20
2.6544438e-22
3.0321601e-24
2.9187651e-26
2.3762818e-28
1.6437325e-30
9.7138484e-33
4.9336001e-35
2.1662905e-37
8.2694048e-40
2.7585298e-42
8.0797498e-45
2.0872457e-47
4.7758615e-50
9.7190068e-53
1.7662022e-55
2.8777078e-58
4.2205943e-61
5.5944228e-64
6.7287299e-67
7.3732988e-70
7.3912136e-73
6.8060476e-76
5.7813814e-79
4.5498357e-82
3.3319633e-85
2.2808929e-88
1.4662875e-91
8.894116e-95
5.1152359e-98
2.803269e-101
1.471297e-104
7.4340557e-108
3.6352099e-111
1.7293658e-114
1
1
1
1
1
0.99971712
0.73109854
0.13106981
3.736376e-09
2.9111363e-09
5.1538846e-09
4.6120778e-09
2.9278239e-09
3.4271855e-09
7.3740221e-05
7.5330138e-05
7.5302698e-05
7.4563712e-05
7.3386235e-05
1.0253498e-05
4.3011003e-09
4.2866335e-09
4.1702306e-09
3.5220205e-09
0.00021867
3.6967249e-09
3.6747335e-09
3.9872519e-09
0.50824781
0.63422838
0.029105604
6.6593303e-10
5.4172202e-10
1.07493e-10
1.1906944e-11
8.9465013e-13
4.967363e-14
2.1066483e-15
6.8660033e-17
1.7278631e-18
3.400998e-20
5.3403518e-22
6.8402608e-24
7.2954911e-26
6.582549e-28
5.0747762e-30
3.3596755e-32
1.9141101e-34
9.3970372e-37
3.9820713e-39
1.4602794e-41
4.6500065e-44
1.2909819e-46
3.1388416e-49
6.7147373e-52
1.2698856e-54
2.1332677e-57
3.1983537e-60
4.2997406e-63
5.2072274e-66
5.7071324e-69
5.6867874e-72
5.1754133e-75
4.3216826e-78
3.3266661e-81
2.3716907e-84
1.5735286e-87
9.7627006e-91
5.6923737e-94
3.1349705e-97
1.6391411e-100
8.1790556e-104
3.9154753e-107
1.8078562e-110
8.094109e-114
1
1
1
1
0.93610363
0.32250478
5.4461096e-09
3.930124e-09
4.1953556e-09
3.5136013e-09
5.2236938e-09
3.7045704e-09
2.4304882e-09
2.3895112e-05
2.6005991e-09
2.4642446e-09
2.4640646e-09
2.4651591e-09
2.465189e-09
2.5900306e-09
7.5770486e-09
1.032054e-06
4.2886029e-09
3.6405099e-09
3.1894384e-09
0.047247381
0.054522179
0.014966958
0.025346078
0.60341659
0.6040006
0.07009249
5.7503893e-10
9.0253235e-11
1.0915801e-11
1.0209835e-12
6.9624552e-14
3.4170061e-15
1.236682e-16
3.4237596e-18
7.5012286e-20
1.3325977e-21
1.9457531e-23
2.3491294e-25
2.3518385e-27
1.9580541e-29
1.3611698e-31
7.9425804e-34
3.914072e-36
1.6396409e-38
5.877548e-41
1.8146758e-43
4.856153e-46
1.1331799e-48
2.3191364e-51
4.1857558e-54
6.6979877e-57
9.5511997e-60
1.2197418e-62
1.4017669e-65
1.4566208e-68
1.3750627e-71
1.1847786e-74
9.3610957e-78
6.8146056e-81
4.5925231e-84
2.8791228e-87
1.6873446e-90
9.29088e-94
4.8309619e-97
2.3844427e-100
1.1230667e-103
5.0746977e-107
2.2117668e-110
9.3488061e-114
1
1
1
1
0.27693792
3.8158571e-08
1.2081082e-06
0.000282434
4.9248188e-09
3.2345775e-09
0.0011156226
0.00061580392
2.4290906e-09
2.4290907e-09
3.9508683e-09
1.1647724e-08
5.6815453e-09
5.2672001e-08
2.8535451e-09
2.4763839e-07
7.1856232e-09
1.437669e-05
3.0390013e-05
3.9161805e-09
3.1856494e-09
0.015733628
0.054649673
0.0372574
2.2050538e-08
0.077844305
0.28624645
0.049528394
6.8219939e-10
2.7504277e-11
1.3032055e-11
1.337388e-12
9.3786492e-14
4.7890488e-15
1.8578233e-16
5.6489239e-18
1.3674407e-19
2.6504838e-21
4.1266948e-23
5.1845854e-25
5.291003e-27
4.4216577e-29
3.0524638e-31
1.7561371e-33
8.4920837e-36
3.4796347e-38
1.217358e-40
3.6623315e-43
9.5376926e-46
2.1636632e-48
4.3008676e-51
7.5330247e-54
1.1688141e-56
1.6147646e-59
1.9962453e-62
2.2190056e-65
2.2284545e-68
2.0313654e-71
1.6886524e-74
1.2861523e-77
9.0175878e-81
5.8479402e-84
3.5247548e-87
1.9842792e-90
1.0485713e-93
5.2279135e-97
2.4719966e-100
1.1144171e-103
4.8156201e-107
2.0054298e-110
8.0925896e-114
1
1
1
0.46758151
3.9346274e-08
3.7851971e-08
3.6992273e-08
0.0027460989
0.00025464237
1.5188731e-05
0.0014314669
0.0014221628
0.00029383578
2.4304302e-09
2.7088562e-07
5.7597186e-08
6.7635488e-09
2.0706038e-06
3.887164e-09
4.7213438e-09
5.8535157e-07
2.1068308e-09
0.00019293497
0.0018251169
3.2135212e-09
2.7960125e-09
0.002843335
0.00062983096
4.3060298e-05
3.840168e-09
3.3845497e-09
2.7944265e-09
9.0906662e-06
1.1789884e-07
4.0215683e-10
1.0715438e-11
2.0363134e-13
7.7660607e-15
3.2909048e-16
1.1148319e-17
2.9107722e-19
5.8764495e-21
9.2731498e-23
1.1586128e-24
1.1611914e-26
9.4515425e-29
6.319974e-31
3.5083401e-33
1.6323915e-35
6.4222477e-38
2.1536679e-40
6.2017612e-43
1.5441063e-45
3.3453882e-48
6.3450536e-51
1.0595325e-53
1.5661646e-56
2.0599842e-59
2.4231398e-62
2.5615906e-65
2.4453839e-68
2.1181462e-71
1.6726001e-74
1.2098008e-77
8.0536554e-81
4.9582026e-84
2.8368236e-87
1.5159254e-90
7.6043274e-94
3.5993372e-97
1.6160144e-100
6.9191096e-104
2.8405118e-107
1.1242653e-110
4.3139879e-114
1
1
0.41421795
2.3600368e-08
3.9779421e-05
1.2750836e-05
0.00055686105
0.0027461344
0.0027153824
0.00089917487
0.00020718821
2.3385798e-09
7.7989483e-06
6.5280186e-08
2.4954672e-07
2.1823862e-08
7.5982498e-07
2.5991808e-08
0.052900452
0.038512308
3.1587534e-09
2.1079491e-09
1.4884089e-09
0.011453396
0.0067988974
2.1558391e-09
2.0399523e-09
2.4483277e-09
6.1636713e-06
1.1011646e-06
2.9859791e-09
2.1388008e-09
1.4115119e-06
8.8556078e-08
4.202802e-10
1.3267045e-11
3.4769916e-13
1.4968209e-14
6.863825e-16
2.4419625e-17
6.504062e-19
1.3148909e-20
2.0547e-22
2.5244799e-24
2.4763739e-26
1.9661229e-28
1.278918e-30
6.8904626e-33
3.1052393e-35
1.1810083e-37
3.821694e-40
1.0601143e-42
2.5383464e-45
5.2802444e-48
9.6005103e-51
1.5344787e-53
2.1678287e-56
2.7212129e-59
3.0505259e-62
3.0690668e-65
2.7846023e-68
2.2894307e-71
1.7138485e-74
1.1737476e-77
7.38969e-81
4.2977724e-84
2.3204687e-87
1.1689926e-90
5.5231171e-94
2.4602147e-97
1.038739e-100
4.1798624e-104
1.6120039e-107
5.9922447e-111
2.1594927e-114
1
0.50399991
2.3969508e-08
2.1212541e-08
2.128086e-08
0.00026448123
0.0017623203
0.00069181464
4.2105284e-09
9.4132259e-06
3.3821538e-09
2.3868749e-09
3.1977231e-09
2.1755447e-09
1.5560131e-09
1.8915389e-08
8.0466572e-09
0.0047336141
0.079295851
0.079295851
0.03665254
3.0764215e-09
2.1206914e-09
1.4614772e-09
1.6791727e-09
1.2087504e-09
1.5084358e-09
1.9546452e-09
1.9671364e-09
2.9241388e-07
1.8206743e-08
2.1320466e-09
1.2147296e-09
4.5777643e-09
2.1079065e-10
6.8909212e-12
4.0965292e-13
2.7367978e-14
1.3641081e-15
4.8936731e-17
1.2900392e-18
2.5582924e-20
3.89774e-22
4.6470632e-24
4.4058926e-26
3.3691869e-28
2.1042587e-30
1.0854759e-32
4.6715955e-35
1.6927852e-37
5.2077799e-40
1.3707184e-42
3.1086559e-45
6.1150681e-48
1.0498668e-50
1.5824316e-53
2.1057473e-56
2.4872132e-59
2.6212181e-62
2.4772881e-65
2.1100489e-68
1.6277441e-71
1.142833e-74
7.338575e-78
4.3313013e-81
2.3614296e-84
1.1953372e-87
5.6470121e-91
2.5030342e-94
1.0466506e-97
4.1520084e-101
1.571617e-104
5.7104628e-108
2.0041437e-111
6.8380363e-115
0.98132878
0.091199682
0.0025955602
2.3030632e-08
3.7188234e-06
9.066226e-05
0.00077094236
7.3082168e-09
6.0864428e-09
2.5712949e-08
2.185472e-09
2.5968968e-09
3.0629897e-09
2.9573584e-09
2.2403047e-09
1.2288523e-07
9.2039642e-09
0.067615706
0.055761494
0.036601648
0.067229775
0.031227313
2.4837311e-09
1.4876729e-09
0.026690334
0.026729966
1.5377549e-09
1.4472478e-09
1.4472478e-09
1.9671478e-09
1.4194183e-08
1.7209855e-09
7.9867173e-10
1.1207017e-09
7.2904949e-11
7.9528747e-12
8.4900229e-13
6.2045401e-14
3.0869733e-15
1.0814253e-16
2.7538886e-18
5.2383208e-20
7.616223e-22
8.6323345e-24
7.7574578e-26
5.6095176e-28
3.3066508e-30
1.6073777e-32
6.5103238e-35
2.2176642e-37
6.4074803e-40
1.5825619e-42
3.3654431e-45
6.203562e-48
9.9743582e-51
1.4071815e-53
1.7518176e-56
1.9348781e-59
1.9059815e-62
1.683065e-65
1.3389929e-68
9.6451186e-72
6.3218081e-75
3.7891624e-78
2.0873912e-81
1.06232e-84
5.0209621e-88
2.2159566e-91
9.1840216e-95
3.5955962e-98
1.3380946e-101
4.7650888e-105
1.6355004e-108
5.4528625e-112
1.7812688e-115
0.34429249
3.61119e-08
3.245779e-08
6.2545827e-06
1.2382044e-09
1.0290979e-09
2.9805057e-09
5.5980436e-09
8.6827536e-09
5.6557664e-06
3.4271229e-06
1.2445419e-09
2.8098338e-09
3.1426484e-09
3.0748033e-09
1.3030942e-09
0.027366785
0.079295848
2.1598378e-06
3.0592477e-10
0.031628128
0.067312879
0.022719545
0.00037030804
0.0032804599
0.0026080447
0.10460112
0.10795894
0.016255603
2.5944798e-09
2.9242874e-09
1.362898e-09
6.3531477e-10
3.644916e-10
8.4950163e-11
1.5810673e-11
1.8234013e-12
1.3323177e-13
6.4785048e-15
2.1888496e-16
5.3243835e-18
9.6020566e-20
1.3155933e-21
1.3980665e-23
1.1729782e-25
7.890435e-28
4.3135952e-30
1.9396426e-32
7.2513825e-35
2.2759305e-37
6.0503841e-40
1.3734862e-42
2.6825631e-45
4.5394595e-48
6.6995298e-51
8.677049e-54
9.9211115e-57
1.0071121e-59
9.1266445e-63
7.4231021e-66
5.4473392e-69
3.6255149e-72
2.1998898e-75
1.2233673e-78
6.2684355e-82
2.9757743e-85
1.3163657e-88
5.4592765e-92
2.1366288e-95
7.9486886e-99
2.8336861e-102
9.7703307e-106
3.2930839e-109
1.0982305e-112
3.672654e-116
0.10872467
4.3273679e-08
1.3432806e-06
1.2820605e-09
1.6888394e-09
5.7310525e-09
5.3377033e-09
9.1331528e-09
1.0767344e-08
5.6268552e-08
2.1391232e-05
1.277802e-06
1.70363e-09
3.6576578e-09
2.6549213e-07
2.0844276e-09
0.04194723
0.020692088
0.001033882
1.054089e-09
3.2219317e-10
0.021295784
0.036383566
0.0018733161
2.254957e-09
1.9571555e-09
0.072729594
0.081059078
0.02129485
3.2688628e-09
3.4940869e-09
1.1084369e-09
6.0284458e-10
4.5975714e-10
1.8044385e-10
3.6473989e-11
4.1409324e-12
2.8793211e-13
1.310245e-14
4.1039565e-16
9.2026948e-18
1.5245378e-19
1.9144437e-21
1.8619072e-23
1.4282826e-25
8.7791426e-28
4.3838077e-30
1.8001106e-32
6.144955e-35
1.7610453e-37
4.2749662e-40
8.8626906e-43
1.5811254e-45
2.444634e-48
3.2976791e-51
3.905757e-54
4.0864394e-57
3.7991066e-60
3.1565058e-63
2.3570877e-66
1.5908642e-69
9.7597622e-73
5.4739916e-76
2.8237665e-79
1.3482238e-82
5.9990046e-86
2.506649e-89
9.9221589e-93
3.7591768e-96
1.3800325e-99
4.980546e-103
1.7958843e-106
6.5763238e-110
2.4791647e-113
9.7012113e-117
1.4892908e-09
0.00016667366
0.00071253015
0.0014116024
1.4348604e-09
3.6104491e-09
5.464945e-09
6.8082893e-09
6.9225199e-09
9.1424997e-09
9.3661212e-06
4.017488e-07
1.698527e-09
2.8734173e-09
1.19396e-09
0.0022826691
6.5806055e-10
5.2054721e-10
5.2055145e-10
2.1509493e-09
2.4710029e-06
6.5855726e-10
6.9612336e-10
7.2053331e-10
0.0151249
0.075441383
0.019770009
3.2524177e-09
0.00043785007
5.7301026e-06
8.8622348e-10
8.5767008e-10
5.418609e-10
5.7106903e-10
3.2800769e-10
7.5157256e-11
8.6547334e-12
5.7759363e-13
2.4451417e-14
6.9889619e-16
1.4123642e-17
2.0910973e-19
2.3339744e-21
2.0106415e-23
1.363658e-25
7.4062971e-28
3.2693339e-30
1.1883776e-32
3.5986546e-35
9.1739273e-38
1.9875013e-40
3.6909565e-43
5.9221921e-46
8.2700703e-49
1.0119819e-51
1.0920721e-54
1.0456582e-57
8.9359896e-61
6.8552252e-64
4.7484276e-67
2.9876414e-70
1.7184121e-73
9.0993691e-77
4.47223e-80
2.0603892e-83
9.0083117e-87
3.7963063e-90
1.5715031e-93
6.5240439e-97
2.767345e-100
1.213091e-103
5.5024959e-107
2.5650286e-110
1.2165605e-113
5.8186846e-117
5.1183616e-06
0.00022960318
3.4003002e-07
0.0020059392
4.4362369e-06
9.5892881e-10
9.7846232e-10
2.505318e-09
4.3746099e-09
2.4345835e-08
4.0884196e-09
3.9268027e-09
3.0160222e-09
2.0602229e-09
1.193995e-09
0.0028231118
0.0013212618
1.468536e-09
1.995533e-09
4.5070011e-10
8.3572971e-06
0.0011766354
0.0034271597
0.00028696059
2.0353354e-09
0.063605634
0.0075242852
2.4765299e-09
1.9646502e-09
2.9758929e-06
1.0515852e-09
6.4417466e-10
4.26527e-10
4.8254136e-10
7.7921064e-10
1.8957519e-10
2.0077586e-11
1.1805964e-12
4.3337352e-14
1.067327e-15
1.854309e-17
2.3595527e-19
2.2650938e-21
1.6805114e-23
9.8334772e-26
4.618033e-28
1.7673691e-30
5.5875869e-33
1.4773088e-35
3.3029967e-38
6.3089758e-41
1.0391424e-43
1.4885613e-46
1.8690865e-49
2.0719457e-52
2.0412592e-55
1.7985217e-58
1.4259531e-61
1.0238543e-64
6.705006e-68
4.0392793e-71
2.2633627e-74
1.1973448e-77
6.1000791e-81
3.0669831e-84
1.5599767e-87
8.1661477e-91
4.4124486e-94
2.4360802e-97
1.3530081e-100
7.4566269e-104
4.0414886e-107
2.1450245e-110
1.1138604e-113
5.6664008e-117
4.7818153e-12
4.7934489e-12
7.1279557e-07
0.00028127077
2.4636834e-05
1.5194184e-09
1.3948252e-06
4.8860018e-05
1.2344614e-06
3.2530366e-08
2.7712368e-09
2.7585584e-09
2.296356e-09
0.00020847106
2.0483359e-09
1.2002342e-09
1.1063857e-09
6.1017645e-09
3.9052471e-09
9.58929e-10
2.9784989e-10
0.012882137
0.015187446
0.0012552074
2.2190561e-09
2.3684174e-09
1.6311331e-09
1.4739593e-09
1.4739594e-09
1.2069525e-09
1.3757072e-09
4.6633083e-10
3.0493806e-10
3.1164849e-10
2.7695113e-09
5.5144689e-10
4.5793668e-11
2.1046934e-12
6.0691644e-14
1.1839456e-15
1.6462223e-17
1.6969008e-19
1.3374099e-21
8.2635498e-24
4.085761e-26
1.6443219e-28
5.4645106e-31
1.518236e-33
3.5652933e-36
7.1469385e-39
1.2342386e-41
1.8521644e-44
2.4350812e-47
2.826785e-50
2.919505e-53
2.7032138e-56
2.2625389e-59
1.7288175e-62
1.2218318e-65
8.1339136e-69
5.2285155e-72
3.3419696e-75
2.1792999e-78
1.4650243e-81
1.0063488e-84
6.9244055e-88
4.67961e-91
3.0642293e-94
1.9301837e-97
1.1667407e-100
6.7714206e-104
3.7819945e-107
2.0396258e-110
1.0663263e-113
5.427676e-117
4.7710182e-12
4.68743e-11
5.5045857e-10
2.2014388e-09
2.0419549e-06
9.0818065e-10
9.2657651e-10
0.00016793203
2.3012162e-06
1.3244657e-08
7.9172315e-07
2.7639687e-09
0.0051460718
0.021468799
0.0035480983
0.00019837717
2.4123614e-09
2.51259e-08
4.7247141e-09
5.0255524e-08
7.6223948e-09
2.9916052e-10
2.991223e-10
1.0418874e-09
1.6727562e-09
1.6161824e-09
0.061048539
0.078183143
0.0002595348
1.5233034e-10
1.4229528e-10
3.1729567e-10
2.1669753e-10
1.9674226e-10
2.1982895e-10
1.2299964e-09
9.0994284e-11
3.1078168e-12
6.4513113e-14
9.1381939e-16