/*--------------------------------*- C++ -*----------------------------------*\
| =========                 |                                                 |
| \\      /  F ield         | OpenFOAM: The Open Source CFD Toolbox           |
|  \\    /   O peration     | Version:  2.3.0                                 |
|   \\  /    A nd           | Web:      www.OpenFOAM.org                      |
|    \\/     M anipulation  |                                                 |
\*---------------------------------------------------------------------------*/
FoamFile
{
    version     2.0;
    format      ascii;
    class       volScalarField;
    location    "3e-06";
    object      k;
}
// * * * * * * * * * * * * * * * * * * * * * * * * * * * * * * * * * * * * * //

dimensions      [0 2 -2 0 0 0 0];

internalField   nonuniform List<scalar> 
7500
(
1.0057873e-05
1.057388e-05
1.0820885e-05
1.1869013e-05
1.1982731e-05
1.2778917e-05
1.3084374e-05
1.3658428e-05
1.4955191e-05
1.5699564e-05
1.746401e-05
1.905985e-05
2.0872772e-05
2.4772186e-05
2.8104177e-05
3.1343161e-05
3.3886681e-05
4.3076605e-05
5.264824e-05
7.6999829e-05
0.0001114188
0.00013101661
0.00013600841
0.00016003734
0.00026094184
0.00069087358
0.0026164236
0.011286829
0.050075647
0.22289142
1.0292304
1.8259596
1.2288642
0.22659149
0.025711395
0.0024859512
0.00031730033
6.663324e-05
1.8823132e-05
6.2873424e-06
2.3027359e-06
9.1370042e-07
3.8812479e-07
1.7472902e-07
8.2723358e-08
4.094628e-08
2.1094483e-08
1.1271396e-08
6.2297377e-09
3.5541903e-09
2.0898152e-09
1.2649248e-09
7.8750604e-10
5.0399946e-10
3.3146564e-10
2.2396264e-10
1.5544248e-10
1.1080016e-10
8.1093072e-11
6.0916875e-11
4.6943645e-11
3.7084816e-11
3.000661e-11
2.4842172e-11
2.1018894e-11
1.8152314e-11
1.5980491e-11
1.4322442e-11
1.3051585e-11
1.2078605e-11
1.1340077e-11
1.0791256e-11
1.0399582e-11
1.0160197e-11
1.0023829e-11
1.0017714e-05
1.0216316e-05
1.0430445e-05
1.1200952e-05
1.1362211e-05
1.2184946e-05
1.2735911e-05
1.3901808e-05
1.4878346e-05
1.5407343e-05
1.6548792e-05
1.7771585e-05
1.9879444e-05
2.3182565e-05
2.555317e-05
3.0101688e-05
3.6058733e-05
4.3241799e-05
4.8716615e-05
6.6166788e-05
0.0001087586
0.00013752768
0.00015846667
0.00021314606
0.00040936361
0.0012868074
0.0052276696
0.021716536
0.08618382
0.33178094
0.89694082
1.2056426
0.98031481
0.2205283
0.025741491
0.002449013
0.00030398461
6.3306721e-05
1.7949205e-05
6.0257333e-06
2.2171429e-06
8.8336503e-07
3.7662019e-07
1.7011221e-07
8.0780704e-08
4.0095463e-08
2.0709009e-08
1.1091694e-08
6.1439523e-09
3.5124547e-09
2.0692223e-09
1.2546789e-09
7.8240183e-10
5.0147959e-10
3.3025255e-10
2.234106e-10
1.5522163e-10
1.107415e-10
8.1109821e-11
6.0965042e-11
4.7001281e-11
3.7141482e-11
3.0057731e-11
2.4886166e-11
2.1055614e-11
1.8182284e-11
1.6004486e-11
1.4341302e-11
1.3066126e-11
1.2089588e-11
1.1348206e-11
1.0797206e-11
1.0403747e-11
1.0164998e-11
1.0025104e-11
1.0017776e-05
1.0159451e-05
1.0360968e-05
1.113847e-05
1.1929986e-05
1.2847003e-05
1.5957438e-05
2.1430718e-05
2.4070651e-05
3.022905e-05
3.514817e-05
4.0234028e-05
5.3748779e-05
6.0527862e-05
7.3846782e-05
9.0947486e-05
0.00013467139
0.00015137981
0.00018657477
0.00026302981
0.00047977213
0.00054531543
0.00063355864
0.0007923884
0.0013015058
0.0034917504
0.01360703
0.058434461
0.23556531
0.86688475
1.6002705
1.9260357
1.3637391
0.27457135
0.031144412
0.0029195248
0.00036213736
7.5987236e-05
2.1674795e-05
7.3064662e-06
2.6959754e-06
1.0762432e-06
4.5944154e-07
2.0767366e-07
9.8642976e-08
4.8952092e-08
2.5267072e-08
1.3517656e-08
7.4752477e-09
4.2638394e-09
2.5044675e-09
1.5129706e-09
9.3919409e-10
5.9870727e-10
3.9176798e-10
2.6307638e-10
1.8126002e-10
1.2812306e-10
9.2894626e-11
6.9069631e-11
5.2646135e-11
4.1116258e-11
3.288134e-11
2.6904765e-11
2.2503586e-11
1.9220669e-11
1.6745586e-11
1.486464e-11
1.342893e-11
1.2333795e-11
1.1505197e-11
1.0891125e-11
1.0453599e-11
1.0188668e-11
1.0031054e-11
1.0109951e-05
1.0316497e-05
1.1298105e-05
1.2688076e-05
1.5572961e-05
1.9865741e-05
2.287367e-05
3.2769499e-05
3.5292887e-05
3.9658361e-05
4.353573e-05
5.7781654e-05
8.3078706e-05
0.00012227437
0.00017311237
0.00023214741
0.00027989529
0.00051507663
0.00056173682
0.00076877426
0.0012785987
0.0019798198
0.0021217238
0.0025226969
0.0037194848
0.0088225685
0.032317498
0.13632465
0.57109508
1.4997439
2.2922856
2.6723322
1.5478019
0.26968292
0.029923354
0.0029594225
0.00040259465
8.8338216e-05
2.5438959e-05
8.606478e-06
3.182397e-06
1.2722969e-06
5.4369271e-07
2.4591618e-07
1.1684419e-07
5.7983496e-08
2.9917946e-08
1.5994117e-08
8.8345704e-09
5.0310242e-09
2.9487213e-09
1.776433e-09
1.0989579e-09
6.9763288e-10
4.5423871e-10
3.0326335e-10
2.0756656e-10
1.4562687e-10
1.0471938e-10
7.7169661e-11
5.8264264e-11
4.5055198e-11
3.5667443e-11
2.8888252e-11
2.3920868e-11
2.0233608e-11
1.7466598e-11
1.5372962e-11
1.3781292e-11
1.2571549e-11
1.1659106e-11
1.098472e-11
1.0505212e-11
1.0215672e-11
1.0039335e-11
1.0197623e-05
1.1485437e-05
1.7840488e-05
2.4519558e-05
3.0185241e-05
3.6710597e-05
4.4558693e-05
5.8816415e-05
6.8206849e-05
9.1998815e-05
0.00014063316
0.0001616468
0.00021897657
0.00036214865
0.00043437808
0.00057501089
0.0006540244
0.00079930885
0.0011966871
0.0016920609
0.002686234
0.0045298914
0.0050886801
0.005821254
0.0079563747
0.017380106
0.063316658
0.29578001
1.4409813
3.2593085
4.229477
3.9527098
1.4349603
0.23160692
0.02667739
0.0029667911
0.00045786024
0.0001054697
3.0719521e-05
1.0271054e-05
3.7960072e-06
1.5201082e-06
6.5053625e-07
2.9454217e-07
1.4003408e-07
6.9507628e-08
3.5858878e-08
1.9159673e-08
1.0572693e-08
6.0119567e-09
3.5165141e-09
2.1128889e-09
1.3027377e-09
8.2360601e-10
5.3362352e-10
3.5420091e-10
2.4081026e-10
1.6767019e-10
1.1955331e-10
8.7288089e-11
6.5250678e-11
4.9930384e-11
3.9099225e-11
3.1319781e-11
2.5650347e-11
2.1464462e-11
1.8339517e-11
1.598664e-11
1.4206006e-11
1.2858202e-11
1.1845304e-11
1.1098975e-11
1.056963e-11
1.0250932e-11
1.0051007e-11
1.0164052e-05
1.3118564e-05
1.7044179e-05
3.2634361e-05
4.5772728e-05
6.6793312e-05
8.5178339e-05
0.00011209897
0.00016352909
0.00022652974
0.00030630161
0.00038370549
0.00060118244
0.00078715996
0.0012016942
0.0022123319
0.002363791
0.0026752325
0.0034057949
0.0054052529
0.0068299342
0.0081668054
0.010283497
0.011734679
0.015987497
0.031068931
0.10175389
0.49559908
2.8487374
5.3838718
5.612671
3.8906976
1.0938106
0.18739968
0.023797332
0.0029891802
0.00050563234
0.00011995845
3.5208561e-05
1.1821964e-05
4.3858526e-06
1.762056e-06
7.5612899e-07
3.431219e-07
1.6343283e-07
8.1243228e-08
4.1961356e-08
2.2437915e-08
1.2386597e-08
7.0431228e-09
4.11748e-09
2.4712908e-09
1.5211069e-09
9.5934184e-10
6.195904e-10
4.0961164e-10
2.771189e-10
1.9183083e-10
1.3586178e-10
9.8441534e-11
7.2969107e-11
5.5326993e-11
4.2904864e-11
3.4020912e-11
2.7575159e-11
2.2837298e-11
1.9315761e-11
1.6675401e-11
1.4684997e-11
1.3183709e-11
1.2058895e-11
1.1232194e-11
1.0646942e-11
1.0295536e-11
1.0066884e-11
1.0268079e-05
1.2156818e-05
1.8990575e-05
3.5171036e-05
5.5530134e-05
0.00010618685
0.00014842381
0.00023292525
0.00039285099
0.00052770261
0.00065582175
0.0008699172
0.0014439128
0.0022561113
0.0027494649
0.0029929237
0.0034254001
0.0048185487
0.0083766403
0.012750077
0.015487546
0.017176659
0.019296128
0.022849796
0.030003664
0.057376076
0.15923721
0.67963798
4.2296219
9.1269014
8.7324634
4.4745532
1.1680536
0.19671366
0.024859758
0.0031865164
0.00055147508
0.00013201924
3.8957873e-05
1.3145864e-05
4.8982492e-06
1.9750822e-06
8.5010378e-07
3.8674107e-07
1.8460018e-07
9.1928498e-08
4.7549193e-08
2.5454731e-08
1.4063261e-08
8.0000145e-09
4.6770823e-09
2.8060217e-09
1.7255701e-09
1.0866973e-09
7.0037941e-10
4.6174424e-10
3.1130233e-10
2.1458196e-10
1.5121517e-10
1.0893503e-10
8.022362e-11
6.039284e-11
4.6472185e-11
3.6549269e-11
2.9374595e-11
2.4119647e-11
2.0227599e-11
1.7319482e-11
1.513435e-11
1.3491072e-11
1.2263079e-11
1.1362524e-11
1.0726118e-11
1.0344953e-11
1.0086303e-11
1.1542389e-05
2.7644472e-05
3.110868e-05
6.4975146e-05
0.00013613587
0.00016083361
0.00024296811
0.00055088675
0.00093110373
0.0012030419
0.0013770482
0.001948051
0.0039006288
0.0058695247
0.0069427955
0.0077957956
0.0092275094
0.012709299
0.02287617
0.032092149
0.038493096
0.043892593
0.050187529
0.059543137
0.076850115
0.1240517
0.2533701
0.714948
4.9948081
14.077593
14.06741
6.1727868
1.3921407
0.22207773
0.027715269
0.0035461288
0.0005996323
0.00014205547
4.2020343e-05
1.4252241e-05
5.3357485e-06
2.1600252e-06
9.3276154e-07
4.2551429e-07
2.0358201e-07
1.0158263e-07
5.2630777e-08
2.8213976e-08
1.5604571e-08
8.8836307e-09
5.1959038e-09
3.1174573e-09
1.9163921e-09
1.2058718e-09
7.7614741e-10
5.1072518e-10
3.4346385e-10
2.3600845e-10
1.6568329e-10
1.1882589e-10
8.7061104e-11
6.5166093e-11
4.9832061e-11
3.8929628e-11
3.106834e-11
2.5326968e-11
2.1086985e-11
1.7927962e-11
1.55608e-11
1.3785149e-11
1.2461237e-11
1.1492239e-11
1.0808513e-11
1.0400176e-11
1.0109599e-11
1.0119963e-05
1.377079e-05
3.2960108e-05
6.3202209e-05
0.00010754111
0.00021705537
0.00053358574
0.0018025697
0.0028462401
0.0031720456
0.0036581383
0.0057994152
0.012305846
0.01705455
0.019669146
0.021182841
0.025001005
0.0373561
0.074717124
0.10611478
0.11342253
0.11909044
0.14121949
0.19402116
0.24325509
0.33223526
0.5291137
1.0047688
3.2000306
24.672791
25.105563
11.15381
2.194267
0.33793169
0.0429643
0.0051358752
0.00072585044
0.0001535295
4.4541083e-05
1.5158625e-05
5.7034854e-06
2.3186945e-06
1.0047956e-06
4.5972647e-07
2.2050271e-07
1.102629e-07
5.7233788e-08
3.0729634e-08
1.7017895e-08
9.6980169e-09
5.676256e-09
3.406972e-09
2.0944219e-09
1.31741e-09
8.4725602e-10
5.5680249e-10
3.737785e-10
2.5623692e-10
1.7935959e-10
1.2818424e-10
9.3534841e-11
6.9687581e-11
5.3015932e-11
4.1186235e-11
3.2675062e-11
2.6473551e-11
2.1904762e-11
1.8508954e-11
1.5970304e-11
1.4070193e-11
1.2656295e-11
1.1623207e-11
1.0895259e-11
1.0461786e-11
1.0137097e-11
1.1604063e-05
3.2164555e-05
4.1690908e-05
0.00016758111
0.00053258274
0.00080460618
0.001953802
0.0049468958
0.0096032074
0.0092393225
0.0099002982
0.015496406
0.037416353
0.054477915
0.061439072
0.066179671
0.079730525
0.12295289
0.24699336
0.34304634
0.36039725
0.373162
0.45799765
0.74196658
0.90860491
1.0221874
1.1862732
1.5576675
2.9115138
15.191126
61.375701
30.340462
5.3938018
0.88703875
0.11329965
0.011199139
0.0010826167
0.00017108176
4.6651943e-05
1.5883154e-05
6.0071206e-06
2.4530699e-06
1.0669534e-06
4.8967915e-07
2.3549112e-07
1.1802719e-07
6.1385407e-08
3.3015e-08
1.8309991e-08
1.0446739e-08
6.1200921e-09
3.6756768e-09
2.260317e-09
1.4217164e-09
9.1396438e-10
6.0014858e-10
4.0236514e-10
2.7535191e-10
1.9230586e-10
1.3705623e-10
9.9679863e-11
7.3984222e-11
5.6044639e-11
4.3335282e-11
3.4207327e-11
2.7569104e-11
2.268836e-11
1.9068069e-11
1.6367014e-11
1.4349202e-11
1.2850346e-11
1.1756904e-11
1.098751e-11
1.0530439e-11
1.0168978e-11
1.1421824e-05
2.1953808e-05
5.5734406e-05
0.00057841544
0.00094644948
0.0023623741
0.00593229
0.013465666
0.023118077
0.024628271
0.026387675
0.041170635
0.1118171
0.18040995
0.20197989
0.21462241
0.26326001
0.42331604
0.80576722
1.0925287
1.1261376
1.1319751
1.3395066
2.3182195
3.0310051
3.0279265
2.872056
2.9047617
3.3603734
9.6404746
54.318451
105.05001
53.250807
6.1381038
0.54089841
0.035721753
0.0020535572
0.000199728
4.8398915e-05
1.644267e-05
6.2526256e-06
2.5652796e-06
1.1200507e-06
5.1570677e-07
2.4869245e-07
1.2494175e-07
6.5117208e-08
3.5085726e-08
1.9488905e-08
1.1134076e-08
6.5297648e-09
3.9249079e-09
2.414861e-09
1.5192659e-09
9.7656967e-10
6.4095551e-10
4.2935179e-10
2.934413e-10
2.0458402e-10
1.4548651e-10
1.0552902e-10
7.8080542e-11
5.8936702e-11
4.5390848e-11
3.567587e-11
2.8621802e-11
2.3443967e-11
1.9609937e-11
1.6754343e-11
1.4624637e-11
1.3045129e-11
1.1894424e-11
1.1085863e-11
1.0606897e-11
1.0205531e-11
1.3484549e-05
5.8356947e-05
0.00019544392
0.0015370311
0.0027952851
0.0040559621
0.006316032
0.022231703
0.062662746
0.070193549
0.075533576
0.11655853
0.33409477
0.57672192
0.63270845
0.66147933
0.82354666
1.3915272
2.3497488
3.0493507
3.080613
3.0543705
3.5470646
6.1844797
8.0958983
7.969041
6.6258581
5.6199118
5.3768259
7.3866456
36.844299
85.849941
70.534234
15.487445
1.2549625
0.067265245
0.0029756601
0.00022000815
4.9481174e-05
1.6850449e-05
6.4457371e-06
2.6573671e-06
1.1648699e-06
5.3812973e-07
2.6024571e-07
1.3107e-07
6.8459418e-08
3.6956799e-08
2.0562338e-08
1.1764121e-08
6.9075197e-09
4.1559361e-09
2.5587953e-09
1.6105043e-09
1.0353482e-09
6.7939971e-10
4.5485446e-10
3.1058352e-10
2.1624852e-10
1.5351376e-10
1.1111034e-10
8.1997214e-11
6.1707556e-11
4.7364562e-11
3.7089493e-11
2.9638305e-11
2.4176605e-11
2.0138314e-11
1.7135061e-11
1.4898502e-11
1.3242023e-11
1.2036832e-11
1.1190961e-11
1.0691461e-11
1.0246945e-11
1.2871486e-05
3.3635074e-05
0.00088429741
0.0046877123
0.0093070841
0.0088667021
0.013489427
0.054098964
0.19449199
0.22062753
0.24007909
0.34593337
0.92385345
1.6171821
1.7302329
1.8081283
2.3914999
4.3041587
6.2848026
7.5544164
7.5123376
7.3733247
8.4918878
15.232953
20.227669
19.705667
14.864361
10.981583
8.8916932
9.2232979
20.36653
46.09583
46.762481
16.297309
1.6189624
0.082947123
0.0033352338
0.00022437704
4.988184e-05
1.7123087e-05
6.5919257e-06
2.7312617e-06
1.2021474e-06
5.5724881e-07
2.7028099e-07
1.3647103e-07
7.1440077e-08
3.8642043e-08
2.1537352e-08
1.23406e-08
7.2553838e-09
4.3698976e-09
2.6927757e-09
1.6958213e-09
1.0905383e-09
7.1563138e-10
4.7897055e-10
3.2684357e-10
2.273439e-10
1.6116929e-10
1.1644633e-10
8.5750698e-11
6.4369427e-11
4.9265602e-11
3.845513e-11
3.0623866e-11
2.4890243e-11
2.0656177e-11
1.7511376e-11
1.517241e-11
1.3442238e-11
1.2184892e-11
1.130364e-11
1.0784649e-11
1.0293419e-11
1.4667706e-05
0.00016578522
0.0030502575
0.0073572089
0.02997324
0.029474938
0.037449177
0.14973464
0.54829387
0.64730416
0.72611326
1.0112462
2.3852289
4.0198737
4.2284668
4.4706586
6.8253116
12.330686
15.57284
17.392348
17.002364
16.795509
19.696889
39.246804
51.450651
48.882963
33.101292
21.485406
16.169646
14.527351
20.752679
40.244542
44.179967
20.348283
1.8848707
0.086634014
0.0032263991
0.00021595856
4.9693504e-05
1.7277024e-05
6.6963372e-06
2.7887743e-06
1.2325745e-06
5.7334611e-07
2.7892013e-07
1.412001e-07
7.4085327e-08
4.0154308e-08
2.2420482e-08
1.2866944e-08
7.5752135e-09
4.5678259e-09
2.8173938e-09
1.775565e-09
1.1423509e-09
7.4978178e-10
5.0178416e-10
3.4227686e-10
2.3790771e-10
1.684792e-10
1.2155554e-10
8.9354474e-11
6.6932271e-11
5.1101412e-11
3.9778395e-11
3.1582733e-11
2.5588094e-11
2.1165946e-11
1.7885094e-11
1.5447691e-11
1.3646685e-11
1.2339249e-11
1.1424162e-11
1.0886928e-11
1.0345119e-11
2.4471743e-05
0.00022974866
0.0022765495
0.0092906987
0.065485426
0.08565273
0.11537041
0.39294859
1.4746806
1.8216093
2.0520544
2.8549054
5.6883813
9.3941528
9.8831386
10.826071
19.663466
32.239766
35.87138
38.423789
38.16879
40.625854
50.283106
127.36368
138.24217
123.43318
70.472696
45.733672
35.39502
30.172872
36.463889
64.076204
73.846371
22.217867
1.5841454
0.067276329
0.0024108751
0.00019045745
4.8996963e-05
1.7328371e-05
6.7637813e-06
2.8315929e-06
1.2567962e-06
5.866851e-07
2.8627691e-07
1.4530876e-07
7.6419533e-08
4.1505547e-08
2.3217792e-08
1.3346326e-08
7.8687183e-09
4.7506673e-09
2.9331879e-09
1.8500501e-09
1.1909747e-09
7.8196725e-10
5.2336906e-10
3.5693147e-10
2.4797214e-10
1.7546562e-10
1.2645359e-10
9.281979e-11
6.9404339e-11
5.2878138e-11
4.1063912e-11
3.2518406e-11
2.6272811e-11
2.1669624e-11
1.8257717e-11
1.5725463e-11
1.3856175e-11
1.2500449e-11
1.1552812e-11
1.0998549e-11
1.0402199e-11
1.1502665e-05
0.00017039122
0.0013402922
0.015819186
0.18062103
0.30118203
0.40079971
1.0025045
3.3346933
4.3028135
5.4068899
8.4379052
13.792141
22.882195
24.850724
29.016447
54.57711
77.460664
78.723278
81.620221
92.549079
134.27405
168.52216
284.6611
376.04205
287.51432
131.68307
99.355875
130.41276
120.42182
122.90984
139.43695
90.375241
13.687748
0.82400497
0.034019564
0.0014115579
0.0001658191
4.8123312e-05
1.729387e-05
6.798696e-06
2.8612794e-06
1.2754113e-06
5.9751079e-07
2.9245726e-07
1.4884502e-07
7.8465373e-08
4.2706869e-08
2.393491e-08
1.3781685e-08
8.1374756e-09
4.919292e-09
3.0406505e-09
1.9195622e-09
1.2365797e-09
8.1229185e-10
5.4379056e-10
3.7084954e-10
2.5756514e-10
1.8214758e-10
1.3115377e-10
9.6156146e-11
7.1792563e-11
5.460092e-11
4.2315537e-11
3.3433801e-11
2.6946605e-11
2.2168888e-11
1.8630511e-11
1.6006665e-11
1.4071512e-11
1.2669373e-11
1.1690053e-11
1.1119836e-11
1.0464799e-11
9.9380064e-06
0.00058227519
0.0034069672
0.049347409
0.61917103
1.1166848
1.4279446
2.8665704
7.9093377
10.150332
14.589647
26.987504
35.719367
65.376407
75.695395
91.017343
148.39342
175.88563
149.68323
127.93182
196.26646
247.30708
393.33276
263.33
568.01207
391.46544
191.93273
108.67332
276.95155
253.35222
173.82574
135.61941
55.174673
5.9561079
0.35296045
0.015376592
0.00086843344
0.00015085149
4.7222499e-05
1.7192163e-05
6.8048984e-06
2.8792692e-06
1.2889727e-06
6.0605006e-07
2.9755943e-07
1.5185347e-07
8.0243908e-08
4.3768594e-08
2.4577057e-08
1.4175741e-08
8.3829426e-09
5.0745008e-09
3.1402327e-09
1.9843621e-09
1.2793204e-09
8.4084919e-10
5.6310694e-10
3.8406832e-10
2.6671117e-10
1.8854158e-10
1.3566751e-10
9.9371648e-11
7.4102821e-11
5.6274096e-11
4.3536521e-11
3.4331373e-11
2.7611344e-11
2.2665158e-11
1.9004552e-11
1.629215e-11
1.4293131e-11
1.2846317e-11
1.1836422e-11
1.1251061e-11
1.0533048e-11
8.6466816e-06
0.0041889429
0.021913697
0.17437368
1.8456057
3.6206238
4.7076795
8.698405
19.945324
25.579157
45.929478
84.985729
99.82269
227.92326
261.75669
320.3923
415.67424
342.5487
184.22132
132.33999
170.96099
197.2513
182.27392
117.79938
116.54317
161.61835
124.13224
137.87513
215.13358
171.05653
135.00849
80.657331
22.608163
2.3487897
0.14158924
0.0070574521
0.00061634739
0.00014152053
4.6252621e-05
1.702681e-05
6.7865327e-06
2.8868691e-06
1.2979888e-06
6.1251234e-07
3.0167434e-07
1.543754e-07
8.1774669e-08
4.4700288e-08
2.5149071e-08
1.4531014e-08
8.6064662e-09
5.2170323e-09
3.2323494e-09
2.0446881e-09
1.319337e-09
8.6772386e-10
5.8137048e-10
3.9662093e-10
2.7543179e-10
1.9466204e-10
1.4000469e-10
1.0247327e-10
7.6340134e-11
5.7901356e-11
4.4729618e-11
3.5213205e-11
2.826861e-11
2.3159642e-11
1.9380765e-11
1.658253e-11
1.4521787e-11
1.30315e-11
1.1992285e-11
1.1392493e-11
1.0607067e-11
8.0375221e-05
0.02768783
0.12461797
0.61659636
4.8399571
9.8596861
13.259117
26.317128
53.234981
66.69563
172.05217
255.86725
270.51635
951.47702
944.63234
1024.2974
628.22468
320.64342
139.85236
116.05427
104.56448
94.871283
108.70662
84.152839
155.69173
142.67696
102.1414
100.61221
416.43878
221.47559
77.399
35.559597
8.8304783
0.89546878
0.056973298
0.0036490444
0.00049958367
0.0001346518
4.5198496e-05
1.6809834e-05
6.7472592e-06
2.8851484e-06
1.3029245e-06
6.1709032e-07
3.0488589e-07
1.5644901e-07
8.3075744e-08
4.5510819e-08
2.5655437e-08
1.4849836e-08
8.8092928e-09
5.3475684e-09
3.3173826e-09
2.1007591e-09
1.3567578e-09
8.9299266e-10
5.986283e-10
4.0853702e-10
2.8374612e-10
2.0052163e-10
1.4417394e-10
1.0546702e-10
7.8508815e-11
5.9485858e-11
4.589718e-11
3.6081073e-11
2.8919758e-11
2.3653377e-11
1.9759946e-11
1.6878541e-11
1.4757962e-11
1.3225788e-11
1.2158088e-11
1.154457e-11
1.068697e-11
0.00094245178
0.1597087
0.63280847
2.1874324
11.765294
23.761058
34.481681
83.460935
148.52041
180.7031
650.61571
841.0517
789.23686
2747.2227
1431.9643
1153.6987
290.62279
133.13847
107.51812
111.61169
107.54366
102.5163
92.70671
70.973928
73.587329
117.24535
94.368194
81.80939
171.86567
417.53665
97.349822
15.096206
3.3155258
0.33904569
0.024382797
0.0022610417
0.00043840605
0.00012874603
4.4066461e-05
1.6550145e-05
6.6888361e-06
2.8756534e-06
1.3041885e-06
6.1996082e-07
3.072714e-07
1.581096e-07
8.4163865e-08
4.6208398e-08
2.6100308e-08
1.5134368e-08
8.9925757e-09
5.4667392e-09
3.3956843e-09
2.1527762e-09
1.3917e-09
9.1672552e-10
6.1492304e-10
4.198432e-10
2.916712e-10
2.0613154e-10
1.4818283e-10
1.0835816e-10
8.0612589e-11
6.1030311e-11
4.704122e-11
3.6936493e-11
2.9565944e-11
2.4147253e-11
2.0142778e-11
1.7180607e-11
1.5001804e-11
1.342907e-11
1.2334026e-11
1.1707626e-11
1.0772853e-11
0.0084110123
0.80555883
2.7985602
7.4320663
27.48536
55.673203
91.074062
277.05041
439.35819
517.25101
1818.5448
2053.7989
1805.3186
1020.0403
279.02753
146.16995
101.33121
84.269319
112.69791
141.06473
139.20376
116.10225
92.430468
71.987994
76.39298
83.353429
153.62334
111.9225
122.82961
391.51678
478.40458
18.727723
1.4946073
0.13804502
0.012198443
0.0016712074
0.00039967677
0.00012323643
4.2872428e-05
1.6255431e-05
6.6145823e-06
2.858905e-06
1.3021821e-06
6.2128577e-07
3.0890197e-07
1.5938971e-07
8.5054507e-08
4.6800626e-08
2.6487537e-08
1.5386615e-08
9.157383e-09
5.5751281e-09
3.4675798e-09
2.2009245e-09
1.4242712e-09
9.3898634e-10
6.3029343e-10
4.3056348e-10
2.9922227e-10
2.115017e-10
1.5203797e-10
1.1115123e-10
8.2654681e-11
6.2537051e-11
4.8163465e-11
3.7780767e-11
3.0208162e-11
2.4642036e-11
2.0529858e-11
1.7489237e-11
1.525389e-11
1.3641538e-11
1.2520003e-11
1.1881812e-11
1.08648e-11
0.059784014
3.5822469
10.551937
23.080905
64.721201
140.35579
260.07916
987.02689
1430.2865
1653.972
1439.8029
1755.8409
1747.5135
478.54832
160.23112
97.783277
81.693264
79.531361
157.6943
155.89689
162.74185
141.97652
119.60367
85.728852
74.388342
85.72002
104.36914
116.26105
102.94277
233.58585
399.3983
84.977383
2.5024909
0.10946192
0.0086278095
0.0014043178
0.00037054853
0.00011793706
4.1633918e-05
1.5932428e-05
6.5268481e-06
2.8358666e-06
1.2973491e-06
6.2119774e-07
3.0984287e-07
1.6031936e-07
8.5761966e-08
4.7294546e-08
2.6820691e-08
1.5608434e-08
9.3047063e-09
5.6732756e-09
3.5333703e-09
2.2453751e-09
1.4545707e-09
9.5983367e-10
6.4477477e-10
4.407196e-10
3.0641305e-10
2.1664095e-10
1.5574526e-10
1.1385025e-10
8.4637894e-11
6.4008092e-11
4.9265398e-11
3.8615009e-11
3.0847263e-11
2.5138384e-11
2.0921698e-11
1.7804809e-11
1.5514438e-11
1.3863797e-11
1.2716501e-11
1.2067346e-11
1.0962885e-11
0.35577975
13.997406
33.246651
64.539518
166.58168
401.87035
849.77993
2489.4872
2310.8277
2500.1701
528.98118
448.34032
837.11512
581.99594
158.14178
107.9053
82.299761
75.72786
168.22263
183.84265
187.71304
129.68831
144.82622
124.66623
85.251647
83.245965
102.30006
133.39016
108.307
126.92012
203.12805
62.661251
3.3277958
0.11358898
0.0073413964
0.0012402587
0.00034556414
0.00011279443
4.0366908e-05
1.5586987e-05
6.4277161e-06
2.8073967e-06
1.2898533e-06
6.1987819e-07
3.1015272e-07
1.6092621e-07
8.6299462e-08
4.7696676e-08
2.710308e-08
1.5801551e-08
9.4354663e-09
5.7616837e-09
3.5933351e-09
2.2862865e-09
1.48269e-09
9.7932138e-10
6.583994e-10
4.5033134e-10
3.1325588e-10
2.2155722e-10
1.5930988e-10
1.1645872e-10
8.6564664e-11
6.5445173e-11
5.0348293e-11
3.9440173e-11
3.1483974e-11
2.5636861e-11
2.1318741e-11
1.8127658e-11
1.5783619e-11
1.4095846e-11
1.2923684e-11
1.2264432e-11
1.1067172e-11
1.8298469
42.986423
89.313857
171.30665
491.84631
1363.3942
1984.1381
2401.8753
1415.1072
1333.8844
162.13501
226.83591
481.76652
440.42756
138.89816
91.772306
72.914829
75.855922
192.04015
234.96459
232.05538
168.66122
243.47882
213.33538
108.85356
162.24494
400.4952
383.4784
214.55804
129.83708
134.56431
46.301796
2.6801759
0.095088209
0.0060628282
0.0011026597
0.00032284741
0.00010780822
3.9085068e-05
1.5224149e-05
6.3190287e-06
2.774207e-06
1.2800542e-06
6.1741592e-07
3.0988455e-07
1.6123573e-07
8.6679214e-08
4.801306e-08
2.733778e-08
1.5967568e-08
9.5505186e-09
5.8408193e-09
3.6477338e-09
2.3238057e-09
1.5087137e-09
9.974992e-10
6.7119697e-10
4.5941674e-10
3.1976197e-10
2.2625761e-10
1.6273646e-10
1.1897974e-10
8.8437114e-11
6.6849796e-11
5.1413242e-11
4.0257073e-11
3.2118915e-11
2.6137947e-11
2.1721361e-11
1.8458171e-11
1.6062045e-11
1.4337834e-11
1.3141708e-11
1.2473249e-11
1.1177717e-11
8.1138802
112.39851
220.77614
466.79052
1664.9478
2222.4471
2060.0557
827.43241
559.24616
287.32835
156.88373
184.46852
433.60046
109.16872
127.59258
99.837507
77.107526
88.542111
220.83956
235.8626
229.3519
205.77296
357.10814
345.74951
170.00385
162.86005
210.02164
278.12418
264.35176
185.98344
144.78228
29.562092
1.4137536
0.059347171
0.0046145275
0.00097925717
0.00030199463
0.0001029937
3.7799649e-05
1.4848218e-05
6.2024107e-06
2.7369334e-06
1.2682157e-06
6.1391728e-07
3.0910611e-07
1.6126982e-07
8.6912527e-08
4.8249306e-08
2.7527647e-08
1.610798e-08
9.6506617e-09
5.9111177e-09
3.6968083e-09
2.3580696e-09
1.5327207e-09
1.0144131e-09
6.8319482e-10
4.6799234e-10
3.2594151e-10
2.3074853e-10
1.6602913e-10
1.2141601e-10
9.0257096e-11
6.8223256e-11
5.2461176e-11
4.1066399e-11
3.275261e-11
2.664205e-11
2.2129907e-11
1.879639e-11
1.6349658e-11
1.458995e-11
1.3370687e-11
1.2693547e-11
1.129496e-11
32.264974
274.33621
541.60915
1481.9877
2296.1922
1415.1311
990.12068
283.57161
213.97812
192.06017
169.62399
153.95521
352.09788
108.9302
146.33103
105.90815
80.648321
105.74259
189.04316
216.33591
227.62824
287.77928
466.54842
466.82732
274.28722
174.3074
203.58825
170.74745
232.15558
219.80702
136.87593
14.710437
0.68186392
0.033897497
0.0034735478
0.00087524559
0.00028294113
9.8363649e-05
3.6519837e-05
1.4462904e-05
6.0792992e-06
2.696148e-06
1.2545752e-06
6.0949756e-07
3.078415e-07
1.6105374e-07
8.7009811e-08
4.8410619e-08
2.7675342e-08
1.6224178e-08
9.7366402e-09
5.9729852e-09
3.7407847e-09
2.3892059e-09
1.5547843e-09
1.0301059e-09
6.9441833e-10
4.7607337e-10
3.3180381e-10
2.3503577e-10
1.6919157e-10
1.2376996e-10
9.2026221e-11
6.9566664e-11
5.3492889e-11
4.1868734e-11
3.3385498e-11
2.7149509e-11
2.2544568e-11
1.9142807e-11
1.664661e-11
1.4852349e-11
1.3610586e-11
1.2925652e-11
1.1418776e-11
119.71532
666.37151
1459.5543
2357.4608
1251.6411
624.86472
388.57864
92.524773
120.33312
116.48187
60.739175
77.855408
158.07177
103.22713
179.46927
105.68864
79.582463
103.64572
180.25602
253.54183
232.15598
402.75972
402.78872
701.86677
333.52446
308.67142
447.28152
218.04477
190.77713
205.42122
88.018571
6.3495194
0.31293452
0.018940723
0.0027037496
0.00079090453
0.00026563939
9.3929255e-05
3.5252543e-05
1.4071108e-05
5.950871e-06
2.6523374e-06
1.2393398e-06
6.0424811e-07
3.0614083e-07
1.606076e-07
8.6979799e-08
4.8501817e-08
2.7783337e-08
1.6317462e-08
9.8091512e-09
6.0268034e-09
3.7798749e-09
2.4173344e-09
1.5749733e-09
1.0446177e-09
7.0489104e-10
4.8367392e-10
3.3735744e-10
2.3912462e-10
1.722271e-10
1.2604372e-10
9.3745899e-11
7.088098e-11
5.4509051e-11
4.266456e-11
3.401794e-11
2.7660604e-11
2.2965688e-11
1.9497655e-11
1.695361e-11
1.5125628e-11
1.3861689e-11
1.316992e-11
1.1549e-11
427.10687
1712.9037
2296.8395
1620.2182
531.392
205.97355
133.51593
89.933863
147.0981
40.095904
42.82723
75.202851
95.927047
74.143242
163.95961
109.67316
83.184071
94.173305
223.21628
284.49731
230.18629
382.00559
361.20685
1300.9827
555.40383
405.4848
666.23128
306.28943
94.153928
139.21751
42.048252
2.5155026
0.14175038
0.011088055
0.0022021097
0.00072000205
0.00024954494
8.9646191e-05
3.3999123e-05
1.3675643e-05
5.818543e-06
2.6061189e-06
1.2227731e-06
5.9828286e-07
3.0405521e-07
1.5994929e-07
8.6836327e-08
4.8528208e-08
2.7854445e-08
1.6389281e-08
9.8689576e-09
6.0729817e-09
3.8143029e-09
2.4425796e-09
1.5933576e-09
1.0579882e-09
7.1463597e-10
4.9080743e-10
3.4261025e-10
2.4301977e-10
1.7513854e-10
1.2823899e-10
9.5417183e-11
7.2166861e-11
5.5510082e-11
4.3454156e-11
3.4650122e-11
2.8175461e-11
2.3393265e-11
1.9860736e-11
1.7270235e-11
1.5409481e-11
1.4124171e-11
1.3426396e-11
1.1685625e-11
1366.1595
3057.427
1969.9739
826.28423
145.8947
55.2286
62.574183
96.809974
75.880512
39.726432
42.449876
72.870461
98.246051
63.663944
120.97759
133.94992
96.238783
104.94415
262.49705
275.0372
213.77682
327.60677
348.67412
1360.2159
700.18495
423.38799
846.44664
990.7607
206.64705
72.461865
17.004063
0.97556906
0.066748288
0.0071310819
0.0018804743
0.00066494333
0.00023587193
8.578287e-05
3.2814522e-05
1.3287443e-05
5.6842991e-06
2.5577151e-06
1.2048006e-06
5.9151425e-07
3.0152514e-07
1.5904579e-07
8.6555449e-08
4.8476393e-08
2.7880787e-08
1.643502e-08
9.9132567e-09
6.1097877e-09
3.8429795e-09
2.4642446e-09
1.6094838e-09
1.0699173e-09
7.2345097e-10
4.9733537e-10
3.4746576e-10
2.4665276e-10
1.778765e-10
1.303195e-10
9.7012935e-11
7.3403625e-11
5.6479911e-11
4.4224778e-11
3.5271728e-11
2.8685547e-11
2.382013e-11
2.0225988e-11
1.7591025e-11
1.5698486e-11
1.4393007e-11
1.3690549e-11
1.182702e-11
3942.4237
2888.2325
851.36377
218.84701
44.852623
34.812047
48.664474
61.451584
24.382572
50.068603
34.851611
66.279192
117.76273
63.987837
108.03125
147.99994
116.51639
143.11881
284.27417
271.5558
201.31857
313.90117
235.55651
1314.0822
777.16961
421.3059
594.61242
931.81169
279.34723
45.461231
6.574257
0.40309899
0.034999262
0.0051095507
0.001636811
0.00060853611
0.00022011894
8.1138527e-05
3.1371515e-05
1.2814703e-05
5.5218007e-06
2.4990747e-06
1.182807e-06
5.8304679e-07
2.9822935e-07
1.5777659e-07
8.608997e-08
4.8328669e-08
2.7852103e-08
1.6448489e-08
9.9384814e-09
6.1351563e-09
3.8647002e-09
2.4816215e-09
1.622933e-09
1.0801559e-09
7.3118741e-10
5.0316943e-10
3.5187237e-10
2.4999545e-10
1.8042806e-10
1.3228079e-10
9.8533299e-11
7.4593881e-11
5.7422429e-11
4.4980956e-11
3.5887591e-11
2.9195835e-11
2.42513e-11
2.05985e-11
1.7921461e-11
1.5999032e-11
1.4674076e-11
1.3968893e-11
1.1974562e-11
7715.5999
1254.4828
212.3764
50.206819
48.97225
33.519624
43.012186
43.073556
20.994531
41.34737
31.302592
63.813573
159.65616
70.587823
91.208319
146.03519
151.80451
258.29872
325.39755
267.13978
200.35971
212.73449
204.10503
1138.4806
1124.0704
457.09663
536.36786
558.88694
128.70194
18.715506
2.454738
0.18935703
0.022203089
0.0041425889
0.0014951138
0.00057775883
0.00021303296
7.9608097e-05
3.1085359e-05
1.2791333e-05
5.5444055e-06
2.5212974e-06
1.1979524e-06
5.9239829e-07
3.0382418e-07
1.6109723e-07
8.8067296e-08
4.9517093e-08
2.8576157e-08
1.6895222e-08
1.0217213e-08
6.3111814e-09
3.9772652e-09
2.5545194e-09
1.6707386e-09
1.1118968e-09
7.5252104e-10
5.1768178e-10
3.6186284e-10
2.5695383e-10
1.853319e-10
1.357815e-10
1.0106664e-10
7.6454108e-11
5.8810415e-11
4.6035185e-11
3.6704543e-11
2.984345e-11
2.4777981e-11
2.1039301e-11
1.830217e-11
1.6339179e-11
1.4987481e-11
1.4274858e-11
1.2132015e-11