/*--------------------------------*- C++ -*----------------------------------*\
| =========                 |                                                 |
| \\      /  F ield         | OpenFOAM: The Open Source CFD Toolbox           |
|  \\    /   O peration     | Version:  2.3.0                                 |
|   \\  /    A nd           | Web:      www.OpenFOAM.org                      |
|    \\/     M anipulation  |                                                 |
\*---------------------------------------------------------------------------*/
FoamFile
{
    version     2.0;
    format      ascii;
    class       volScalarField;
    location    "3e-06";
    object      p;
}
// * * * * * * * * * * * * * * * * * * * * * * * * * * * * * * * * * * * * * //

dimensions      [1 -1 -2 0 0 0 0];

internalField   nonuniform List<scalar> 
7500
(
100298.96
35478.362
-23563.65
76210.297
55250.627
21624.317
20594.71
65250.081
161010.58
92969.974
119823.11
282133.75
196909.08
18960.263
353958.56
528162.47
225552.77
64257.444
30417.658
-19862.004
-325951.25
-614452.03
-654866.85
-783817.42
-949002.47
-694907.13
-475695.65
-146240.07
697033.13
1062363.5
1673153.2
1662998
1349659.3
1150490.6
945409.69
752761.55
593944.45
471917.77
380065.95
310717.24
257660.67
216397.12
183774.88
157589.02
136278.87
118721.44
104094.63
91786.525
81334.608
72384.362
64660.57
57947.094
52072.378
46898.926
42315.53
38231.486
34572.217
31275.942
28291.103
25574.372
23089.079
20803.977
18692.254
16730.74
14899.269
13180.154
11557.76
10018.15
8548.7896
7138.292
5776.209
4452.8419
3159.0748
1886.2614
625.82184
99665.394
34884.237
-21374.84
75072.198
53228.24
22321.756
22356.135
68313.586
159124.6
88899.488
122578.41
283763.23
190360.87
22191.383
356159.49
529942.19
221410.74
61873.334
40917.183
-28020.111
-334708.67
-599528.5
-657747.39
-795668.28
-935981.77
-708075.55
-468506.79
-131726.87
716867.29
999807.02
1716333.6
1644932.1
1343263.6
1148778.4
944190.39
751680.45
593014.68
471215.65
379564.57
310364.05
257409.81
216215.8
183641.14
157488.42
136201.8
118661.43
104047.23
91748.599
81303.914
72359.267
64639.863
57929.866
52057.938
46886.742
42305.187
38222.658
34564.646
31269.422
28285.468
25569.487
23084.834
20800.282
18689.035
16727.937
14896.83
13178.037
11555.93
10016.579
8547.4535
7137.1714
5775.2883
4452.1087
3158.5199
1885.8786
625.60779
99206.621
35704.069
-19563.587
73853.138
49599.207
23331.606
23647.068
73109.839
157121.21
82823.109
125335.64
288239.75
182073.53
23823.94
369655.32
518045.97
226116.2
67242.799
47427.005
-21424.597
-348154.64
-615974.2
-644265.19
-786763.3
-977426.64
-686142.96
-542833.4
-149453.58
766334.91
952778.98
1594670.2
1573650.4
1330801
1140812.1
939788.53
748573.39
590542.96
469392.96
378272.11
309453.47
256760.82
215744.37
183291.55
157224
135998.19
118502.12
103920.81
91647.02
81221.378
72291.534
64583.781
57883.057
52018.586
46853.443
42276.846
38198.412
34543.808
31251.441
28269.9
25555.971
23073.076
20790.041
18680.111
16720.164
14890.073
13172.183
11550.885
10012.266
8543.8076
7134.1417
5772.8333
4450.1966
3157.1271
1884.99
625.21585
97281.98
32709.226
-14096.11
73469.049
45831.43
25686.242
23074.087
77130.381
154536.43
76338.574
127934.32
285122.5
173376.5
35536.659
384775.81
504564.25
205287.09
80293.32
56011.001
-9218.6069
-330783.72
-618299.66
-690169.7
-812522.57
-923088.29
-747480.12
-454226.48
-148981.55
686046.61
840245.82
1512914.1
1530076
1319064.7
1125463.7
933553.44
744121.58
586961.23
466751.1
376399.26
308133.33
255818.92
215059.29
182782.82
156838.71
135701.12
118269.41
103735.93
91498.297
81100.406
72192.153
64501.409
57814.235
51960.67
46804.389
42235.057
38162.626
34513.024
31224.854
28246.862
25535.954
23055.649
20774.85
18666.865
16708.622
14880.035
13163.483
11543.387
10005.857
8538.3944
7129.6495
5769.2027
4447.3817
3155.095
1883.7205
624.70586
98001.733
31744.761
-11791.82
72553.164
41847.778
31517.83
21773.991
80631.923
152482.04
67032.907
131057.31
283823.8
160293.28
44882.668
400560.14
489789.78
200138.01
110809.21
56054.918
-32289.624
-298377.21
-608202.67
-706176.58
-867462.84
-994045.27
-676381.73
-552689.27
-31401.351
927019.62
732652.43
1580471.9
1504308.9
1306292.3
1107709.4
926493.76
738560.28
582384.21
463373.7
374006.54
306445.9
254613.37
214180.95
182129.44
156343.01
135318.31
117969.06
103496.96
91305.785
80943.597
72063.16
64394.352
57724.674
51885.208
46740.394
42180.472
38115.829
34472.719
31190.006
28216.631
25509.658
23032.732
20754.852
18649.41
16693.398
14866.784
13151.99
11533.475
9997.3791
8531.2325
7123.7067
5764.4028
4443.6667
3152.4238
1882.0685
624.06394
94554.151
29509.32
-6269.6529
69205.067
39749.882
34869.821
22097.053
84515.01
149095.95
60870.134
132973.07
283399.93
144657.83
53221.895
412824.22
482376.36
203184.25
107889.81
70529.416
-23250.609
-295800.96
-607048.31
-705524.8
-812600.67
-1033742.7
-803589.52
-467850.81
-271155.33
894375.06
666239.68
1562490.1
1506116.2
1289398.7
1088252.9
919078.57
732030.64
576909.32
459338.98
371151.73
304431.9
253172.56
213129.36
181345.74
155747.39
134857.55
117606.98
103208.44
91073.024
80753.744
71906.774
64264.394
57615.818
51793.373
46662.421
42113.886
38058.674
34423.439
31147.348
28179.584
25477.399
23004.586
20730.268
18627.93
16674.645
14850.445
13137.806
11521.232
9986.9013
8522.3757
7116.355
5758.4652
4439.0744
3149.1289
1880.0434
623.30064
94654.201
27448.801
-3996.595
66358.971
36447.927
37327.448
22033.274
87540.713
148975.38
51638.576
137163.35
284046.88
124218.47
64337.322
425986.85
470402.67
203968
118614.84
80818.398
-5935.0365
-313299.07
-616812.19
-684042.9
-822555.23
-999899.54
-801543.13
-670583.1
-3224.7641
881931.77
689292.17
1497626.8
1507483.1
1269963.7
1068460.1
911930.7
724653.77
570615.76
454714.86
367885.84
302127.26
251521.4
211921.94
180444.12
155060.84
134325.5
117188.19
102874.21
90802.984
80533.172
71724.837
64113.002
57488.845
51686.12
46571.245
42035.932
37991.683
34365.61
31097.233
28136.012
25439.416
22971.412
20701.26
18602.559
16652.472
14831.108
13121.004
11506.717
9974.4685
8511.8589
7107.6207
5751.4088
4433.6179
3145.2186
1877.6495
622.41714
91591.921
26253.007
447.66088
63097.117
35312.231
37541.101
21657.169
86745.914
148921.62
47265.506
138669.85
284561.8
99733.031
86241.696
434934.44
450165.81
212066.43
120624.02
108448.73
6329.4016
-332513.89
-600767.16
-677831.09
-846872.11
-1083435.9
-759955.33
-527698.75
-301634.76
985226.11
888278.19
1479115
1506475.8
1247645.9
1046977.8
905067.97
716433.02
563561.12
449561.79
364255.25
299564.64
249682.51
210574.49
179435.82
154291.53
133728.21
116717.23
102497.73
90498.348
80283.979
71519.008
63941.5
57344.818
51564.31
46467.566
41947.181
37915.324
34299.618
31039.98
28086.178
25395.927
22933.388
20667.976
18573.418
16626.98
14808.854
13101.649
11489.981
9960.1215
8499.7136
7097.5274
5743.251
4427.309
3140.7003
1874.8908
621.41476
90618.798
24223.761
4208.7926
62136.973
32684.445
41666.368
18135.146
87735.576
144452.1
44200.471
141749.26
281072.15
84038.91
106019.03
448930.24
428048.18
210752.54
136894.13
112864.44
4199.8986
-333594.51
-591460.65
-658514.86
-882189.88
-1090145.2
-828878.45
-511211.93
-143023.29
715508.94
741901.63
1464146.3
1505832.5
1223218.8
1024419.3
899076.39
707400.04
555798.26
443935.71
360302.89
296774.17
247676.68
209101.48
178331.12
153446.89
133071.16
116198.22
102082.15
90161.554
80008.077
71290.796
63751.092
57184.706
51428.724
46352.02
41848.153
37830.023
34225.814
30975.877
28030.321
25347.129
22890.676
20630.551
18540.618
16598.258
14783.756
13079.801
11471.072
9943.8976
8485.9687
7086.0968
5734.0073
4420.1586
3135.581
1871.7713
620.29463
86879.772
24296.211
7540.7182
61304.505
32554.073
44259.907
17201.856
86692.646
140162.5
39703.906
148514.38
271033.76
70766.389
131620.2
460252
411561.21
214239.82
149048.53
114242.8
-3470.8923
-339595.67
-588481.24
-651781.74
-889942.68
-1117394.8
-804499.89
-615194.76
-141388.73
646028.16
563092.61
1384531.9
1500458.8
1195933.1
999169.08
894123.49
697485.62
547367.68
437888.39
356068.58
293783.62
245522.99
207516.22
177139.45
152533.77
132359.42
115634.97
101630.39
89794.855
79707.226
71041.595
63542.889
57009.402
51280.085
46225.195
41739.329
37736.175
34144.522
30905.192
27968.662
25293.205
22843.429
20589.11
18504.261
16566.39
14755.883
13055.514
11450.034
9925.832
8470.6512
7073.3494
5723.6927
4412.1768
3129.8671
1868.2942
619.05781
83803.26
22813.212
10347.089
57534.88
33583.153
45095.198
18500.899
88643.402
133360.66
37988.83
153357.49
258865.92
56012.745
159123.64
475956.56
395295.99
215709.5
169504.63
112928.79
-7369.7881
-361656.2
-592354.92
-633363.21
-928292.71
-1143232.8
-807841.96
-567485.55
-250276.59
496447.62
663730.87
1163947.1
1461497.3
1167404.2
972176.59
890980.72
686628.7
538310.66
431468.94
351589.41
290618.56
243238.96
205830.86
175869.48
151558.46
131597.64
115031
101145.13
89400.325
79383.054
70772.693
63317.92
56819.733
51119.064
46087.638
41621.156
37634.148
34056.047
30828.178
27901.409
25234.328
22791.79
20543.77
18464.446
16531.458
14725.302
13028.843
11426.911
9905.9584
8453.7876
7059.3051
5712.3219
4403.374
3123.5652
1864.4628
617.70537
79433.776
23604.253
10719.412
53838.026
29725.768
44675.119
18442.986
89555.128
128246.38
38375.034
157825.36
243325.76
41014.126
184204.42
490657.81
385278.68
212060.09
183689.55
135380.7
-11486.332
-387431.29
-611020.07
-632371.49
-943430.38
-1200622.1
-819634.39
-579011.77
-191951.04
227932.42
670493.48
579101.53
1305565.7
1129428.7
953019.26
891456.2
674783.02
528668.03
424723.94
346899.93
287302.51
240840.58
204056.56
174529.12
150526.71
130790.1
114389.52
100628.82
88979.878
79037.063
70485.281
63077.138
56616.469
50946.285
45939.858
41494.053
37524.286
33960.672
30745.068
27828.758
25170.66
22735.892
20494.643
18421.265
16493.537
14692.074
12999.838
11401.742
9884.3099
8435.4037
7043.9839
5699.9094
4393.7605
3116.6821
1860.2814
616.23843
73934.687
24693.319
11464.489
49316.002
24145.165
42280.856
17035.741
87501.346
123399.46
37156.293
166862.62
228395.67
24745.318
206030.98
497906.63
375453.15
220407.68
189036.67
155972.67
-907.03752
-402914.1
-621953.35
-653670.84
-977843.82
-1254711.9
-865233.49
-605652.1
-211770.67
282736.99
483786.6
317248.61
781526.38
1048930.8
923718.64
893330.84
661429.17
518443.94
417696.4
342032.45
283857.07
238342.5
202203.47
173125.61
149443.81
129940.7
113713.49
100083.75
88535.283
78670.643
70180.464
62821.428
56400.323
50762.328
45782.329
41358.409
37406.91
33858.664
30656.083
27750.892
25102.353
22675.863
20441.837
18374.805
16452.7
14656.259
12968.549
11374.568
9860.9183
8415.5245
7027.405
5686.4699
4383.3465
3109.2244
1855.7537
614.65813
69901.753
25942.795
12530.82
47409.445
18364.498
41493.247
14997.365
85464.788
115989.18
37074.251
173319.93
212489.82
13878.387
226855.32
497526.89
359965.28
225441.01
215600.39
166455.68
-624.89041
-414332.56
-617278.1
-642813.41
-1041772.2
-1327462
-911222.49
-667050.22
-256756
88205.709
357107.21
178247.63
361444.49
600513.5
881277.63
874554.46
645023.82
507643.88
410430.82
337017.45
280302.09
235758.07
200280.87
171665.58
148314.59
129053.05
113005.64
99512.012
88068.172
78285.081
69859.264
62551.611
56171.959
50567.733
45615.494
41214.587
37282.321
33750.272
30561.433
27667.984
25029.552
22611.825
20385.45
18325.152
16409.017
14617.915
12935.022
11345.429
9835.8147
8394.1749
7009.5876
5672.0177
4372.1424
3101.1992
1850.8832
612.96567
66100.804
26232.973
14677.989
48607.657
14474.704
44321.887
17107.427
84693.383
108187.47
40340.053
179591.18
190139.11
9444.749
250153.15
496525.09
345643.48
220029.47
232506.38
203432.34
3901.7477
-441790.75
-633485.95
-598381.49
-1043240.7
-1311005.8
-919256.83
-630370.25
-301593.22
-29448.076
196970.94
48509.006
87594.405
417129.55
832320.72
826850.59
625868.84
496387
402979.25
331883.92
276655.73
233099.43
198297.22
170155.09
147143.47
128130.47
112268.48
98915.541
87580.057
77881.57
69522.632
62268.451
55931.997
50363.007
45439.768
41062.932
37150.803
33635.732
30461.312
27580.199
24952.395
22543.891
20325.58
18272.384
16362.555
14577.098
12899.304
11314.361
9809.0298
8371.3791
6990.5508
5656.5672
4360.1588
3092.6136
1845.674
611.16228
63861.254
24736.441
17593.797
50861.578
12213.159
47570.999
26477.173
86895.687
100827.38
47831.199
186473.84
169560.34
8373.1316
272378.03
499647.3
340060.76
222573.8
241874.98
221414.83
45139.755
-432871.22
-683083
-607121.4
-1035027.8
-1305975
-921257.81
-583764.12
-390803.01
-103393.83
109218.12
16667.354
85489.33
360597.15
780009.61
776316.39
605847.09
484846.68
395396.51
326658.93
272934.54
230377.6
196260.2
168599.64
145934.53
127176
111504.34
98296.127
87072.337
77461.215
69171.453
61972.661
55681.016
50148.622
45255.54
40903.762
37012.623
33515.266
30355.907
27487.691
24871.012
22472.172
20262.317
18216.579
16313.378
14533.862
12861.44
11281.4
9780.5933
8347.1613
6970.3136
5640.133
4347.406
3083.4748
1840.1301
609.24926
61280.888
22633.774
20129.515
53388.037
10127.405
47574.9
36575.99
94161.331
96026.588
54599.837
193053.88
143994.6
11305.531
301992.55
487739.38
332014.15
238718.51
270979.72
228943.14
45981.72
-433763.6
-677910.03
-616612.36
-1046259.3
-1306042.6
-925937.98
-549864.35
-371017.48
-167634.79
99543.675
16121.683
101717.59
383298.49
733733.37
730822.13
585733.81
473171.19
387733.08
321367.22
269153.52
227602.58
194176.8
167004.29
144691.48
126192.42
110715.35
97655.424
86546.309
77025.046
68806.551
61664.906
55419.555
49925.021
45063.174
40737.382
36868.032
33389.084
30245.393
27390.609
24785.527
22396.772
20195.752
18157.811
16261.549
14488.258
12821.472
11246.584
9750.5348
8321.5452
6948.8947
5622.7295
4333.8947
3073.7903
1834.2555
607.22793
59450.501
20093.018
22516.765
55894.626
8989.5463
45187.672
41304.542
97901.594
94110.366
64938.338
200338.19
118321.96
66.758759
346021.32
478756.57
283508.6
260631.61
278373.25
229176.42
43457.851
-436061.77
-670702.29
-620310.58
-1062164.5
-1322854.5
-924946.01
-541057.61
-383658.12
-120613.25
118636.67
33821.452
124958.54
407735.69
692983.39
690417.51
565940.11
461481.86
380033.35
316030.96
265326.15
224783.41
192053.37
165373.64
143417.73
125182.32
109903.47
96994.966
86003.18
76574.022
68428.693
61345.808
55148.124
49692.621
44863.015
40564.076
36717.268
33257.386
30129.939
27289.094
24696.059
22317.791
20125.967
18096.153
16207.128
14440.338
12779.444
11209.948
9718.8833
8294.5544
6926.3131
5604.3714
4319.6357
3063.5665
1828.0544
605.0997
57496.768
17609.524
24550.992
58705.723
9767.4295
46058.297
44327.395
93020.954
85677.2
74490.863
207832.53
99584.91
-15754.235
372083.49
472883.5
280235.41
263032.22
278049.9
226486.73
36665.618
-441209.94
-663541.36
-623289.9
-1082235.7
-1341291.5
-920522.17
-539234.67
-499298.35
-134346.28
160840.54
58355.75
147713.86
426678.96
657282.1
654462.82
546714.83
449873.4
372335.33
310669.85
261464.54
221928.21
189895.67
163711.87
142116.41
124148.07
109070.54
96316.174
85444.07
76109.035
68038.599
61015.95
54867.198
49451.814
44655.388
40384.116
36560.557
33120.361
30009.703
27183.28
24602.722
22235.326
20053.046
18031.673
16150.174
14390.151
12735.396
11171.525
9685.6675
8266.2124
6902.5875
5585.0734
4304.6397
3052.7967
1821.531
602.86602
56118.959
14941.17
25786.063
61179.833
8313.2005
49710.074
53730.383
93649.109
74277.096
76027.03
205509.52
91017.195
-14899.978
376257.22
476175.03
279810.14
257248.98
275166.01
222381.09
26663.181
-444938.42
-657770.96
-631538.12
-1100979.8
-1357633.9
-921563.63
-550316.02
-490111.6
-228646.04
134816.46
67727.119
168327.62
444685.87
625930.79
622299.71
528195.4
438417.53
364670.97
305301.12
257579.45
219044.33
187708.92
162022.84
140790.39
123091.85
108218.24
95620.369
84870.024
75630.921
67636.944
60675.881
54577.228
49202.971
44440.6
40197.757
36398.116
32978.191
29884.839
27073.298
24505.626
22149.471
19977.067
17964.438
16090.743
14337.745
12689.371
11131.351
9650.916
8236.5427
6877.7369
5564.8504
4288.9185
3041.5149
1814.6906
600.5284
55248.411
12538.844
26872.537
64147.695
1736.3776
44721.716
61022.451
101395.6
78273.051
81122.082
204891.1
85613.861
-16606.066
377906.7
475904.06
279406.43
253325.18
271867.61
217082.58
14625.688
-450371.01
-650397.06
-640115.91
-1122902.4
-1379715.9
-922706.13
-552799.5
-456950.67
-638297.24
28275.97
83915.736
183265.32
461564.67
597992.19
593326.13
510447.49
427167
357066.63
299939.7
253680.42
216138.34
185497.86
160310.03
139442.3
122015.67
107348.14
94908.778
84282.017
75140.463
67224.359
60326.118
54278.636
48946.443
44218.944
40005.244
36230.147
32831.048
29755.494
26959.27
24404.877
22060.315
19898.107
17894.515
16028.893
14283.168
12641.407
11089.459
9614.6572
8205.5686
6851.7802
5543.7172
4272.4835
3029.7187
1807.5377
598.08837
54805.568
10716.34
28612.597
71904.646
1099.5972
33722.331
49292.678
100008.9
78575.818
85792.646
205346.63
81465.89
-24195.556
378760.19
476476.21
276095.34
248264.68
267358.85
209455.11
2894.3776
-454612.04
-644250.93
-645470.34
-1151648.7
-1405080.6
-928716.79
-546841.76
-506262.89
-446443.03
-561625.67
14033.542
199488.97
477618
572784.51
567057.65
493493.16
416159.42
349543.67
294598.4
249775.87
213216.13
183266.77
158576.64
138074.57
120921.41
106461.69
94182.549
83680.963
74638.393
66801.44
59967.146
53971.825
48682.563
43990.696
39806.81
36056.848
32679.097
29621.807
26841.318
24300.577
21967.946
19816.242
17821.967
15964.677
14226.467
12591.545
11045.883
9576.9191
8173.3136
6824.7365
5521.6892
4255.3462
3017.4152
1800.0771
595.54753
54203.801
8143.1605
29863.581
79772.897
27730.329
39018.978
46747.594
99449.288
78707.896
85320.397
203248.03
81552.64
-23316.524
377280.81
477348.11
270921.76
242755.35
264431.18
201707.75
-8778.1041
-458914.81
-638890.2
-654255.36
-1183656.5
-1434600.5
-931298.12
-544796.71
-523549.3
-523009.7
-594561.53
-265903.78
192561.68
485218.71
549862.78
543089.02
477325
405420.3
342119.09
289288.11
245873.2
210282.99
181019.56
156825.6
136689.44
119810.79
105560.24
93442.751
83067.716
74125.403
66368.749
59599.427
53657.176
48411.647
43756.122
39602.676
35878.407
32522.5
29483.914
26719.556
24192.825
21872.449
19731.543
17746.856
15898.149
14167.687
12539.824
11000.656
9537.7299
8139.8009
6796.6249
5498.7814
4237.5182
3004.6123
1792.3137
592.9075
53964.768
3058.3658
26220.371
71843.668
64135.844
44335.027
47301.297
98469.212
78471.451
86510.196
201232.86
82910.126
-24566.401
371059.72
474399.8
265421.84
237363.59
261850.49
196246.06
-20234.67
-463056.8
-635002.14
-666396.19
-1212945.1
-1469116.8
-926440.08
-523536.72
-499196.92
-570910.67
-571341.44
-336769.58
162914.12
472891.87
527246.13
521029.69
461918.38
394965.93
334806.15
284017.99
241978.87
207343.63
178759.73
155059.58
135288.95
118685.41
104645.05
92690.384
82443.081
73602.143
65926.818
59223.398
53335.049
48133.996
43515.475
39393.058
35695.004
32361.409
29341.947
26594.098
24081.718
21773.906
19644.083
17669.245
15829.362
14106.874
12486.283
10953.811
9497.1176
8105.0541
6767.4647
5475.0093
4219.0113
2991.3183
1784.2523
590.16991
54589.243
317.42006
15174.494
45049.663
71626.385
46820.021
47639.495
96274.155
79607.325
90574.033
196381
85352.809
-30904.172
357475.62
466754.08
257454.53
231457.8
258448.42
191582.97
-31949.438
-465866.55
-633454.44
-670690.48
-1247963
-1502480.5
-923699.12
-535867.05
-506015.49
-581099.92
-572999.48
-335903.07
148091.45
448964.01
505501.12
500624.08
447244.74
384805.76
327614.93
278795.67
238098.5
204402.25
176490.48
153281.03
133875.01
117546.75
103717.3
91926.389
81807.812
73069.227
65476.149
58839.474
53005.791
47849.901
43268.997
39178.159
35506.814
32195.972
29196.033
26465.051
23967.348
21672.399
19553.93
17589.193
15758.369
14044.073
12430.96
10905.382
9455.1103
8069.0966
6737.2753
5450.3886
4199.8378
2977.5417
1775.898
587.33648
54464.426
10290.264
7405.7192
35649.221
72663.665
46851.501
47796.765
92664.562
80041.354
96832.405
191990.42
88662.273
-38581.444
336525.76
455579.35
247331.32
224638.69
254364.01
173010.8
-53646.297
-473530.55
-632050.87
-678469.67
-1264939.4
-1539203.8
-944756.83
-540888.12
-492970.37
-570774.13
-565485.22
-332083.56
145098.42
425432.38
485301.53
481692.58
433273.4
374943.87
320552.8
273627.43
234236.97
201462.61
174214.69
151492.18
132449.37
116396.21
102778.09
91151.646
81162.625
72527.238
65017.222
58448.051
52669.732
47559.636
43016.922
38958.177
35314.004
32026.334
29046.294
26332.523
23849.809
21568.006
19461.154
17506.76
15685.219
13979.329
12373.895
10855.402
9411.7359
8031.9522
6706.0762
5424.9349
4180.0096
2963.2911
1767.2559
584.40893
53882.077
32312.767
7460.7738
32170.485
71521.608
47411.011
48130.735
88606.937
79197.571
101305.88
187355.84
92888.034
-44505.081
309666.57
439427.63
237071.63
217953.78
251362.63
126364.57
-106870.78
-480248.95
-634142.31
-682328.93
-1279247.4
-1573795.9
-957877.46
-545889.92
-491030.36
-554435.74
-544745.05
-321944.16
144362.67
404857.74
466609.95
464091.67
419970.8
365380.1
313624.87
268518.36
230398.49
198528.04
171934.99
149695.11
131013.66
115235.07
101828.44
90366.988
80508.194
71976.728
64550.49
58049.508
52327.186
47263.468
42759.473
38733.303
35116.738
31852.633
28892.852
26196.616
23729.188
21460.805
19365.821
17422.005
15609.965
13912.684
12315.124
10803.902
9367.0226
7993.6445
6673.8871
5398.6641
4159.5392
2948.5752
1758.3315
581.38901
57474.42
44840.864
9481.0302
32357.876
70403.06
48171.471
48726.976
84943.928
77989.371
105572.08
182624.54
96897.884
-48437.728
280085.25
421516.11
229163.12
212221.07
250053.59
111102.6
-152629.13
-484364.21
-641424.04
-673863.1
-1292995
-1580667.6
-968688.43
-571947.79
-508015.41
-529446.93
-514841.55
-312138.78
142028.42
386823.79
449338.84
447699.67
407301.4
356110.96
306834.38
263472.53
226586.67
195601.5
169653.76
147891.69
129569.37
114064.53
100869.33
89573.198
79845.158
71418.221
64076.389
57644.205
51978.458
46961.652
42496.868
38503.721
34915.173
31675.007
28735.823
26057.432
23605.574
21350.873
19267.999
17334.984
15532.657
13844.184
12254.686
10750.916
9320.9985
7954.1973
6640.7279
5371.5922
4138.4395
2933.4029
1749.13
578.2785
61870.469
46940.127
10858.926
32489.753
68980.41
48933.362
49537.252
82162.937
77024.463
108139
178056.49
100103.25
-50375.722
251886.91
405720.16
219512.04
201610.18
240514.9
126650.77
-163081.42
-513444.51
-639763.69
-663375.52
-1290754.7
-1544542.4
-1008173.3
-603362.76
-490167.28
-476375.37
-478125.12
-302666.86
137815.89
371073.23
433426.32
432408.87
395229.05
347130.5
300182.99
258493.12
222804.6
192685.63
167373.14
146083.68
128117.92
112885.73
99901.673
88771.017
79174.124
70852.22
63595.335
57232.491
51623.839
46654.436
42229.317
38269.611
34709.463
31493.586
28575.32
25915.071
23479.054
21238.284
19167.753
17245.756
15453.344
13773.872
12192.618
10696.477
9273.6918
7913.6347
6606.6185
5343.7353
4116.7234
2917.7831
1739.657
575.07921
49940.929
48850.304
11568.402
32790.335
67519.903
49553.53
50378.639
79993.941
76074.587
109747.89
173663.67
102239.6
-51215.501
227155.11
385599.75
201561.11
181895.75
216413.9
128819.8
-175298.27
-520774.01
-627264.87
-662761.51
-1276764.8
-1521272.5
-1023524.1
-623588.61
-399085.28
-423976.76
-444630.46
-292782.65
131584.38
357454.35
418810.68
418122.93
383717.53
338430.78
293671.06
253582.54
219054.91
189782.77
165095.11
144272.67
126660.6
111699.71
98926.32
87961.148
78495.671
70279.201
63107.725
56814.698
51263.611
46342.057
41957.022
38031.147
34499.757
31308.5
28411.457
25769.628
23349.711
21123.113
19065.147
17154.376
15372.077
13701.79
12128.96
10640.618
9225.1307
7871.9806
6571.5793
5315.1097
4094.3993
2901.7248
1729.918
571.79296
37174.373
49497.635
12698.019
33422.752
66145.104
50027.426
51143.512
77938.141
74932.485
111171.97
169137.48
103643.99
-50794.7
204623.7
360405.61
181349.45
165874.66
210320.02
115311.74
-189449.73
-526041.39
-626320.48
-669054.35
-1251236
-1480279.3
-1015281
-636598.57
-387343.49
-400320.46
-418631.03
-284139.99
123163.97
345532.98
405108.7
404451.37
372490.36
329823.49
287166.68
248645.98
215268.02
186840.97
162780.31
142428.47
125173.97
110488.09
97928.721
87131.976
77800.459
69691.61
62607.415
56385.806
50893.655
46021.128
41677.193
37786.026
34284.156
31118.184
28242.947
25620.052
23216.69
21004.668
18959.631
17060.414
15288.524
13627.697
12063.54
10583.231
9175.2615
7829.2257
6535.637
5285.7713
4071.5279
2885.3224
1720.0167
568.52523
36706.142
48665.177
13778.632
34174.261
64809.699
50367.76
51828.742
75818.829
73409.224
112713.72
164281.15
104370.07
-48685.226
184362.92
338122.87
161987.53
148028.66
210921.37
110263.19
-199059.69
-536731.13
-629451.81
-673893.84
-1212409.8
-1430498.7
-978229.86
-661625.9
-384525.9
-360606.7
-392274.89
-278370.25
113249.91
335314.08
392224.76
391251.44
361443.11
321235.49
280616.51
243643.48
211413.47
183836.76
160410.42
140536.66
123646.56
109241.68
96901.431
86277.428
77083.503
69085.324
62090.972
55942.943
50511.553
45689.604
41388.09
37532.763
34061.389
30921.544
28068.844
25465.524
23079.28
20882.331
18850.664
16963.397
15202.271
13551.224
11996.034
10524.025
9123.8217
7785.1317
6498.5733
5255.5179
4047.9533
2868.393
1709.7733
565.09644
36708.164
47903.237
14860.928
34861.621
63489.363
50580.949
52488.255
73668.585
71402.675
113655.55
159000.15
104824.78
-44871.525
164870.43
316635.79
142596.24
127156.56
215212.4
117164.97
-207881.41
-543086.73
-633641.2
-674658.17
-1166404.4
-1402826.9
-943478.63
-678697.28
-379739.94
-345783.13
-371364.35
-275615.84
102277.99
326984
380308.58
378643.81
350694.08
312767.44
274099.63
238635.51
207537.39
180805.52
158012.89
138618.71
122095.37
107974.04
95855.399
85406.41
76352.098
68466.36
61563.393
55490.277
50120.805
45350.433
41092.206
37273.473
33833.253
30720.112
27890.46
25307.164
22938.436
20756.919
18738.944
16863.917
15113.821
13472.798
11926.8
10463.304
9071.0651
7739.9101
6460.5636
5224.4951
4023.7856
2851.0378
1699.2743
561.58427
36816.172
47086.717
15905.189
35513.03
62159.162
50687.577
53175.254
72526.72
69227.606
113237.51
153068.95
104917.89
-38701.072
143213.04
286333.99
138630.39
107389.66
222036.8
129555.19
-224074.09
-546663.55
-639800.76
-669629.43
-1125474
-1381189.9
-928671.6
-683314.46
-364526.78
-355904.95
-361288.24
-277247.56
90282.942
320734.6
369352.08
366584.27
340224.85
304415.57
267616.96
233623.89
203641.38
177748.48
155588.58
136675.25
120520.86
106685.51
94790.862
84519.096
75606.377
67834.824
61024.762
55027.88
49721.469
45003.666
40789.589
37008.2
33599.789
30513.927
27707.826
25145.002
22794.189
20628.46
18624.497
16762
15023.199
13392.443
11855.862
10401.088
9017.0111
7693.5784
6421.6238
5192.7166
3999.0334
2833.2654
1688.5253
557.99045
36920.152
46275.387
16970.038
36136.951
60820.085
50664.076
54015.274
72278.889
67523.257
111338.71
146256.96
105109.07
-26655.284
127815.85
256107.98
144624.19
95727.856
224422.86
137867.38
-242175.01
-556810.67
-645288.19
-660249.05
-1080144
-1370594.5
-958925.4
-757068.72
-375384.68
-342890.86
-357258.93
-283076.54
76866.634
316520.06
359324.26
355022.81
330014.91
296174.81
261168.75
228609.99
199726.8
174666.69
153138.27
134706.84
118923.39
105376.36
93708.017
83615.632
74846.448
67190.799
60475.146
54555.806
49313.593
44649.346
40480.275
36736.977
33361.027
30303.017
27520.973
24979.067
22646.567
20496.98
18507.349
16657.672
14930.429
13310.181
11783.242
10337.398
8961.6787
7646.1544
6381.7696
5160.196
3973.7073
2815.0841
1677.5317
554.31676
37134.936
45435.002
18056.661
36723.311
59475.173
50560.876
54968.207
72690.484
67048.137
108988.81
140023.54
105940.31
-14750.834
126366.09
242485.34
140652.84
88576.077
224719.92
135414.16
-252592.59
-573848.09
-652759.65
-651888.15
-1019586.9
-1329972
-1096905.6
-877968.97
-504842.69
-341594.47
-368911.36
-302225.43
62002.046
314653.74
350188.91
343908.08
320042.29
288038.97
254754.59
223594.85
195794.75
171561.04
150662.62
132713.92
117303.29
104046.8
92607.017
82696.124
74072.39
66534.344
59914.591
54074.094
48897.209
44287.501
40164.292
36459.832
33116.996
30087.409
27329.926
24809.384
22495.594
20362.505
18387.524
16550.956
14835.534
13226.035
11708.959
10272.253
8905.0869
7597.6553
6341.0168
5126.9469
3947.8185
2796.5027
1666.299
550.56497
37299.676
44702.031
19155.428
37248.199
58143.448
50427.362
55935.1
72887.645
68063.768
106989.21
136551.57
107312.13
-7734.5261
127213.75
230347.65
132805.63
77573.567
222513.79
133764.01
-264935.02
-588235.35
-662230.99
-645761.67
-995961.25
-1324530.8
-1254761.1
-1062473.4
-677222.65
-372940.33
-378560.08
-326298.11
50807.313
315079.59
341686.31
333192.66
310283.31
280000.8
248373.52
218579.12
191846.12
168432.27
148162.15
130696.87
115660.82
102697.01
91487.967
81760.643
73284.25
65865.492
59343.121
53582.763
48472.336
43918.149
39841.658
36176.781
32867.712
29867.122
27134.705
24635.975
22341.291
20225.054
18265.044
16441.873
14738.534
13140.026
11633.036
10205.674
8847.2539
7548.0984
6299.3808
5092.9831
3921.3781
2777.5297
1654.8327
546.73686
37382.327
43872.495
20264.148
37731.728
56815.434
50288.433
56773.837
72608.752
70336.077
106305.21
136792.09
108356.57
576.91982
128688.92
223590.81
125800.46
62957.08
218748.19
131732.9
-283298.28
-606200.4
-669379.93
-635565.78
-999767.43
-1340609
-1471140.1
-1265517.2
-803784.33
-382840.51
-380825.97
-350536.45
30471.959
321845.42
335194.72
322861.34
300709.43
272052.13
242024.13
213563.17
187881.57
165280.96
145637.29
128655.98
113996.14
101327.08
90350.929
80809.22
72482.043
65184.248
58760.739
53081.815
48038.975
43541.294
39512.378
35887.834
32613.186
29642.169
26935.324
24458.854
22183.676
20084.648
18139.928
16330.442
14639.45
13052.173
11555.49
10137.679
8788.1979
7497.5004
6256.8771
5058.318
3894.3975
2758.1741
1643.1385
542.83426
37416.141
43089.459
21392.537
38155.766
55528.752
50139.966
57454.843
71998.048
73296.479
107930
139454.84
108763.76
11153.819
134715.3
222239.74
122098.32
46354.471
212147.33
119716.83
-302017.45
-630052.16
-686602.46
-629715.82
-990413.85
-1353470.4
-1486546.8
-1339732.3
-935537.41
-416836.35
-386495.29
-378581.47
80429.711
330629.74
326315.96
312578.24
291280.64
264184.26
235704.66
208547.06
183901.57
162107.53
143088.34
126591.41
112309.35
99937.055
89195.909
79841.845
71665.747
64490.589
58167.422
52571.229
47597.111
43156.924
39176.447
35592.988
32353.421