/*--------------------------------*- C++ -*----------------------------------*\
| =========                 |                                                 |
| \\      /  F ield         | OpenFOAM: The Open Source CFD Toolbox           |
|  \\    /   O peration     | Version:  2.3.0                                 |
|   \\  /    A nd           | Web:      www.OpenFOAM.org                      |
|    \\/     M anipulation  |                                                 |
\*---------------------------------------------------------------------------*/
FoamFile
{
    version     2.0;
    format      ascii;
    class       surfaceScalarField;
    location    "3e-06";
    object      phi;
}
// * * * * * * * * * * * * * * * * * * * * * * * * * * * * * * * * * * * * * //

dimensions      [0 3 -1 0 0 0 0];

internalField   nonuniform List<scalar> 
14825
(
1.0367567e-09
-2.2995329e-11
1.0545743e-09
-1.7817631e-11
1.0698726e-09
-1.5298234e-11
1.0974826e-09
-2.761e-11
1.1210355e-09
-2.3552955e-11
1.1357055e-09
-1.4669968e-11
1.1505321e-09
-1.482658e-11
1.1746032e-09
-2.4071101e-11
1.2018172e-09
-2.721403e-11
1.2197511e-09
-1.7933859e-11
1.2363343e-09
-1.6583285e-11
1.2566305e-09
-2.0296138e-11
1.276417e-09
-1.9786484e-11
1.2925483e-09
-1.6131294e-11
1.3165629e-09
-2.4014638e-11
1.336126e-09
-1.9563139e-11
1.3573906e-09
-2.126461e-11
1.375801e-09
-1.8410373e-11
1.3942452e-09
-1.8444203e-11
1.4224465e-09
-2.8201296e-11
1.4485835e-09
-2.6136996e-11
1.4760439e-09
-2.7460389e-11
1.4986215e-09
-2.2577635e-11
1.5102025e-09
-1.1580975e-11
1.5139458e-09
-3.743245e-12
1.5201771e-09
-6.2313503e-12
1.5195925e-09
5.8461424e-13
1.5180027e-09
1.5898418e-12
1.5278881e-09
-9.8854812e-12
1.5260619e-09
1.8262617e-12
1.4552688e-09
7.0793026e-11
1.2374064e-09
2.1786244e-10
8.3125615e-10
4.0615026e-10
5.8662173e-10
2.4463442e-10
4.3056093e-10
1.560608e-10
3.2378005e-10
1.0678088e-10
2.4909082e-10
7.4689232e-11
1.9603079e-10
5.3060032e-11
1.5753261e-10
3.849818e-11
1.2893348e-10
2.8599132e-11
1.0719411e-10
2.173937e-11
9.0323551e-11
1.6870554e-11
7.6993431e-11
1.3330121e-11
6.629574e-11
1.0697691e-11
5.75943e-11
8.7014402e-12
5.0432986e-11
7.1613136e-12
4.4478e-11
5.9549864e-12
3.9480618e-11
4.9973816e-12
3.5252519e-11
4.2280987e-12
3.1649131e-11
3.6033882e-12
2.8558046e-11
3.0910849e-12
2.5890914e-11
2.6671319e-12
2.357757e-11
2.3133435e-12
2.156181e-11
2.0157605e-12
1.9798219e-11
1.763591e-12
1.8249852e-11
1.5483665e-12
1.6886435e-11
1.3634172e-12
1.5683027e-11
1.2034075e-12
1.461896e-11
1.0640671e-12
1.3677038e-11
9.4192196e-13
1.2842888e-11
8.3414953e-13
1.2104466e-11
7.3842212e-13
1.1451645e-11
6.5282093e-13
1.08759e-11
5.7574499e-13
1.0370043e-11
5.0585653e-13
9.9280196e-12
4.4202325e-13
9.5447374e-12
3.8328216e-13
9.2159316e-12
3.288057e-13
8.9380607e-12
2.778709e-13
8.7082156e-12
2.2984503e-13
8.5240596e-12
1.8415593e-13
8.3837761e-12
1.4028351e-13
8.286036e-12
9.7740006e-14
8.230123e-12
5.5913017e-14
1.4697346e-14
2.8685e-09
-8.9529372e-11
2.9213217e-09
-7.0639396e-11
2.9692114e-09
-6.3187888e-11
3.0482302e-09
-1.0662881e-10
3.116185e-09
-9.1507712e-11
3.161421e-09
-5.9906006e-11
3.2071221e-09
-6.0527664e-11
3.2769361e-09
-9.3885144e-11
3.3572307e-09
-1.0750865e-10
3.4099387e-09
-7.0641868e-11
3.459406e-09
-6.6050507e-11
3.5193496e-09
-8.0239776e-11
3.582557e-09
-8.2993892e-11
3.6324558e-09
-6.6030072e-11
3.6983438e-09
-8.99026e-11
3.7600128e-09
-8.1232152e-11
3.8271884e-09
-8.8440263e-11
3.8823122e-09
-7.3534187e-11
3.9350194e-09
-7.1151358e-11
4.0188052e-09
-1.1198711e-10
4.101859e-09
-1.0919083e-10
4.1810707e-09
-1.0667202e-10
4.240635e-09
-8.2141972e-11
4.2844512e-09
-5.5397164e-11
4.2997059e-09
-1.8997945e-11
4.3160194e-09
-2.2544914e-11
4.3170981e-09
-4.9400855e-13
4.3309959e-09
-1.230801e-11
4.3469793e-09
-2.5868824e-11
4.3186671e-09
3.0138442e-11
4.193837e-09
1.9562309e-10
3.5953741e-09
8.1632531e-10
2.4899453e-09
1.5115791e-09
1.7021355e-09
1.0324443e-09
1.2355728e-09
6.226235e-10
9.2858027e-10
4.1377338e-10
7.1511451e-10
2.8815499e-10
5.6347331e-10
2.0470124e-10
4.5337318e-10
1.485983e-10
3.715161e-10
1.1045621e-10
3.0924069e-10
8.4014779e-11
2.6087297e-10
6.5238268e-11
2.2262567e-10
5.1577428e-11
1.9190848e-10
4.141488e-11
1.6690541e-10
3.3704511e-11
1.4631363e-10
2.7753094e-11
1.2917915e-10
2.308946e-11
1.1479077e-10
1.9385768e-11
1.0260969e-10
1.6409171e-11
9.2222133e-11
1.399095e-11
8.3306205e-11
1.2007013e-11
7.5608818e-11
1.0364519e-11
6.8928899e-11
8.9932616e-12
6.3105329e-11
7.839331e-12
5.8007882e-11
6.861037e-12
5.3530595e-11
6.025653e-12
4.9586618e-11
5.3073942e-12
4.6104399e-11
4.6856266e-12
4.3024637e-11
4.1438282e-12
4.0298006e-11
3.6685526e-12
3.7883286e-11
3.2488693e-12
3.5745948e-11
2.8757596e-12
3.3856985e-11
2.5417841e-12
3.2191999e-11
2.2407313e-12
3.0730449e-11
1.9674062e-12
2.9455064e-11
1.7174077e-12
2.8351359e-11
1.4869876e-12
2.7407244e-11
1.2729205e-12
2.6612732e-11
1.0723826e-12
2.5959679e-11
8.8289742e-13
2.5441616e-11
7.0221903e-13
2.5053599e-11
5.2830016e-13
2.4792139e-11
3.5920008e-13
2.465528e-11
1.9277219e-13
2.6497936e-14
4.3732594e-09
-1.9467927e-10
4.4616828e-09
-1.5906278e-10
4.5444844e-09
-1.4598946e-10
4.6700278e-09
-2.3217227e-10
4.779732e-09
-2.0121187e-10
4.8564852e-09
-1.366592e-10
4.932256e-09
-1.3629844e-10
5.0515691e-09
-2.1319828e-10
5.1752558e-09
-2.3119533e-10
5.2626017e-09
-1.5798783e-10
5.3482944e-09
-1.517432e-10
5.4239003e-09
-1.5584564e-10
5.5259872e-09
-1.8508082e-10
5.6397517e-09
-1.7979459e-10
5.7486177e-09
-1.9876861e-10
5.8280155e-09
-1.6062994e-10
5.9224961e-09
-1.8292084e-10
6.0149546e-09
-1.6599265e-10
6.0993071e-09
-1.5550383e-10
6.2156691e-09
-2.2834911e-10
6.4127811e-09
-3.0630285e-10
6.5638231e-09
-2.5771401e-10
6.6515512e-09
-1.6987004e-10
6.7036218e-09
-1.0746778e-10
6.7401486e-09
-5.5524767e-11
6.795433e-09
-7.7829356e-11
6.7885488e-09
6.3902417e-12
6.8019713e-09
-2.5730554e-11
6.7516856e-09
2.4416905e-11
6.6168615e-09
1.6496252e-10
6.3996838e-09
4.1280083e-10
5.455735e-09
1.7602741e-09
3.8662517e-09
3.1010624e-09
2.6623445e-09
2.2363515e-09
1.9490334e-09
1.3359345e-09
1.4695666e-09
8.9324019e-10
1.1339147e-09
6.2380693e-10
8.9503217e-10
4.4358376e-10
7.2136465e-10
3.2226582e-10
5.9207086e-10
2.3975e-10
4.93573e-10
1.8251264e-10
4.1697506e-10
1.4183621e-10
3.5633398e-10
1.1221851e-10
3.0758008e-10
9.0168781e-11
2.6785655e-10
7.3428038e-11
2.3511144e-10
6.0498204e-11
2.0784062e-10
5.036028e-11
1.8492166e-10
4.2304721e-11
1.6550358e-10
3.5827252e-11
1.4893228e-10
3.0562254e-11
1.3469861e-10
2.6240682e-11
1.2240199e-10
2.2661138e-11
1.11724e-10
1.9671255e-11
1.0240934e-10
1.7153985e-11
9.4251609e-11
1.501877e-11
8.7082769e-11
1.3194492e-11
8.0765067e-11
1.1625096e-11
7.5184991e-11
1.0265701e-11
7.0248461e-11
9.0803575e-12
6.5877224e-11
8.0397898e-12
6.2005903e-11
7.1201892e-12
5.8579765e-11
6.3018979e-12
5.5552858e-11
5.5686905e-12
5.288658e-11
4.9070087e-12
5.0548482e-11
4.3055035e-12
4.851134e-11
3.7545501e-12
4.6752387e-11
3.24594e-12
4.5252708e-11
2.7725999e-12
4.3996766e-11
2.328324e-12
4.2972004e-11
1.9076592e-12
4.216858e-11
1.5056431e-12
4.1579136e-11
1.1177439e-12
4.1198699e-11
7.3963685e-13
4.1024733e-11
3.6673845e-13
-7.9337774e-15
5.598392e-09
-3.3660054e-10
5.7244488e-09
-2.8511957e-10
5.8305198e-09
-2.5206052e-10
6.0001343e-09
-4.0178671e-10
6.1714517e-09
-3.7252926e-10
6.2610566e-09
-2.2626409e-10
6.3584543e-09
-2.3369621e-10
6.5618926e-09
-4.1663654e-10
6.6880664e-09
-3.5736915e-10
6.804441e-09
-2.7436239e-10
6.9748757e-09
-3.2217792e-10
7.0766778e-09
-2.5764773e-10
7.1864478e-09
-2.9485086e-10
7.3474559e-09
-3.408027e-10
7.4993927e-09
-3.5070536e-10
7.5708706e-09
-2.321079e-10
7.7177084e-09
-3.2975856e-10
7.9489881e-09
-3.9727241e-10
8.0979002e-09
-3.0441589e-10
8.1551344e-09
-2.8558335e-10
8.311171e-09
-4.623394e-10
8.6432558e-09
-5.8979887e-10
8.8128505e-09
-3.3946474e-10
8.8841815e-09
-1.7879876e-10
8.9711598e-09
-1.4250303e-10
9.0453265e-09
-1.5199604e-10
9.0937037e-09
-4.198703e-11
9.0627994e-09
5.173822e-12
9.0769382e-09
1.0278112e-11
9.0193003e-09
2.2260036e-10
8.593307e-09
8.3879411e-10
6.9450337e-09
3.4085474e-09
4.8436455e-09
5.2024507e-09
3.4606218e-09
3.6193752e-09
2.5750431e-09
2.2215133e-09
1.9503732e-09
1.5179101e-09
1.5083338e-09
1.0658463e-09
1.1929971e-09
7.5892042e-10
9.6339037e-10
5.5187257e-10
7.9216122e-10
4.1097915e-10
6.6149589e-10
3.1317796e-10
5.5972386e-10
2.4360825e-10
4.7903989e-10
1.9290248e-10
4.1409028e-10
1.5511839e-10
3.611104e-10
1.2640792e-10
3.1739193e-10
1.0421668e-10
2.8094681e-10
8.6805394e-11
2.502897e-10
7.2961835e-11
2.2429319e-10
6.1823756e-11
2.0208994e-10
5.276551e-11
1.830042e-10
4.5326418e-11
1.6650393e-10
3.9161405e-11
1.5216591e-10
3.4009276e-11
1.3965064e-10
2.9669261e-11
1.2868344e-10
2.5985964e-11
1.1904066e-10
2.2837277e-11
1.1053884e-10
2.0126916e-11
1.0302679e-10
1.7777745e-11
9.6379195e-11
1.5727953e-11
9.049181e-11
1.3927174e-11
8.5277576e-11
1.2334423e-11
8.0663635e-11
1.0915838e-11
7.6588872e-11
9.6434526e-12
7.3002005e-11
8.4938753e-12
6.9859997e-11
7.4475114e-12
6.7126823e-11
6.4877234e-12
6.477246e-11
5.6003028e-12
6.2772069e-11
4.77299e-12
6.110539e-11
3.9950026e-12
5.9756199e-11
3.2568505e-12
5.8711973e-11
2.5498685e-12
5.7963591e-11
1.8661258e-12
5.7505209e-11
1.1980188e-12
5.7334277e-11
5.3767101e-13
-1.2837067e-13
6.5899351e-09
-5.2076437e-10
6.7315337e-09
-4.2671809e-10
6.8667512e-09
-3.8727809e-10
7.0982626e-09
-6.332981e-10
7.2863199e-09
-5.6058651e-10
7.3897772e-09
-3.2972142e-10
7.5621444e-09
-4.0606343e-10
7.7708456e-09
-6.2533771e-10
7.9563635e-09
-5.4288711e-10
8.1553307e-09
-4.7332953e-10
8.2653296e-09
-4.3217685e-10
8.4409195e-09
-4.3323762e-10
8.6770061e-09
-5.3093751e-10
8.7528871e-09
-4.1668365e-10
8.9817012e-09
-5.7951949e-10
9.2273297e-09
-4.7773633e-10
9.2961737e-09
-3.9860257e-10
9.4027379e-09
-5.0383663e-10
9.716722e-09
-6.1840002e-10
1.0001727e-08
-5.7058867e-10
1.0132712e-08
-5.933236e-10
1.0265875e-08
-7.229627e-10
1.0534682e-08
-6.0827136e-10
1.0752342e-08
-3.9645917e-10
1.0906014e-08
-2.9617477e-10
1.1088186e-08
-3.3416791e-10
1.1147126e-08
-1.0092711e-10
1.1180437e-08
-2.8136707e-11
1.1143698e-08
4.7016585e-11
1.1023916e-08
3.4238251e-10
1.0024864e-08
1.8378457e-09
7.8176406e-09
5.6157713e-09
5.6578996e-09
7.3621917e-09
4.1548745e-09
5.1224002e-09
3.1254942e-09
3.2508935e-09
2.3754987e-09
2.2679057e-09
1.8413397e-09
1.6000053e-09
1.4596705e-09
1.1405896e-09
1.1813031e-09
8.3023996e-10
9.7329836e-10
6.1898393e-10
8.142532e-10
4.7222311e-10
6.9015123e-10
3.6771021e-10
5.916055e-10
2.9144821e-10
5.1216398e-10
2.3455991e-10
4.4727999e-10
1.9129191e-10
3.9367619e-10
1.5782048e-10
3.489427e-10
1.3153888e-10
3.1127634e-10
1.1062819e-10
2.7930672e-10
9.3793379e-11
2.5197832e-10
8.0093909e-11
2.2846801e-10
6.8836728e-11
2.081271e-10
5.9502314e-11
1.9043918e-10
5.1697197e-11
1.749897e-10
4.5118735e-11
1.614431e-10
3.9532571e-11
1.4952594e-10
3.4754428e-11
1.3901391e-10
3.0638946e-11
1.2972206e-10
2.7069593e-11
1.2149707e-10
2.3952949e-11
1.142114e-10
2.1212836e-11
1.0775859e-10
1.8787238e-11
1.0204955e-10
1.6624874e-11
9.700964e-11
1.4683363e-11
9.2576287e-11
1.2927228e-11
8.8697075e-11
1.1326723e-11
8.5328237e-11
9.8565617e-12
8.2433419e-11
8.4951202e-12
7.9982694e-11
7.2237149e-12
7.7951823e-11
6.0258733e-12
7.6321599e-11
4.887074e-12
7.5077456e-11
3.7940113e-12
7.4209096e-11
2.7344855e-12
7.3710366e-11
1.6967487e-12
7.3579247e-11
6.6878972e-13
-3.7090922e-13
7.3782747e-09
-7.4919246e-10
7.5343701e-09
-5.8281348e-10
7.6802476e-09
-5.3315559e-10
7.9741249e-09
-9.2717549e-10
8.2092967e-09
-7.957583e-10
8.3201652e-09
-4.4058983e-10
8.501866e-09
-5.8776431e-10
8.7890141e-09
-9.124858e-10
9.0216456e-09
-7.7551856e-10
9.2150032e-09
-6.6668718e-10
9.3699371e-09
-5.8711073e-10
9.6246515e-09
-6.8795197e-10
9.8015435e-09
-7.0782954e-10
1.0012761e-08
-6.279013e-10
1.0287634e-08
-8.5439187e-10
1.0394383e-08
-5.8448617e-10
1.0679844e-08
-6.8406325e-10
1.0931677e-08
-7.556696e-10
1.1066381e-08
-7.5310382e-10
1.1495688e-08
-9.9989567e-10
1.1706792e-08
-8.044275e-10
1.1757971e-08
-7.7414224e-10
1.2186106e-08
-1.0364064e-09
1.2353471e-08
-5.6382387e-10
1.2472402e-08
-4.1510582e-10
1.2717448e-08
-5.7921377e-10
1.2963072e-08
-3.4655083e-10
1.293037e-08
4.5649661e-12
1.2968231e-08
9.1554955e-12
1.2562549e-08
7.4806499e-10
1.0885132e-08
3.5152624e-09
8.3732821e-09
8.127621e-09
6.2915215e-09
9.4439523e-09
4.7459789e-09
6.6679429e-09
3.6063438e-09
4.3905286e-09
2.7491645e-09
3.125085e-09
2.135971e-09
2.2131988e-09
1.6973896e-09
1.579171e-09
1.3769506e-09
1.150679e-09
1.1369648e-09
8.5896969e-10
9.5304905e-10
6.5613885e-10
8.0924583e-10
5.1151344e-10
6.9485023e-10
4.0584381e-10
6.0248591e-10
3.2692424e-10
5.2694154e-10
2.6683627e-10
4.6445209e-10
2.2030993e-10
4.1224354e-10
1.8374743e-10
3.6823668e-10
1.5463505e-10
3.3084899e-10
1.3118107e-10
2.9886001e-10
1.1208289e-10
2.7131689e-10
9.6379852e-11
2.4746795e-10
8.3351253e-11
2.2671426e-10
7.2450881e-11
2.0857468e-10
6.3258312e-11
1.9265945e-10
5.5447807e-11
1.7865081e-10
4.876306e-11
1.6628796e-10
4.3001801e-11
1.5535579e-10
3.8001756e-11
1.4567596e-10
3.3632783e-11
1.3710012e-10
2.9788675e-11
1.2950443e-10
2.6382923e-11
1.2278537e-10
2.3343938e-11
1.1685621e-10
2.0612515e-11
1.1164439e-10
1.8139045e-11
1.0708922e-10
1.5881898e-11
1.0314013e-10
1.3805645e-11
9.9755312e-11
1.1879942e-11
9.6900488e-11
1.0078539e-11
9.454813e-11
8.3782311e-12
9.2676669e-11
6.7585345e-12
9.1270067e-11
5.2006122e-12
9.0317386e-11
3.6871671e-12
8.9812657e-11
2.2014772e-12
8.9754911e-11
7.265354e-13
-7.685357e-13
7.9833328e-09
-1.0142888e-09
8.1851741e-09
-7.8465478e-10
8.3249136e-09
-6.7289509e-10
8.6345688e-09
-1.2368307e-09
8.9548787e-09
-1.1160682e-09
9.1041981e-09
-5.8990922e-10
9.2763055e-09
-7.5987167e-10
9.602014e-09
-1.2381943e-09
9.8829469e-09
-1.0564514e-09
1.0089368e-08
-8.7310863e-10
1.0296628e-08
-7.9437048e-10
1.0564691e-08
-9.5601522e-10
1.0744675e-08
-8.8781272e-10
1.1096188e-08
-9.7941513e-10
1.1330051e-08
-1.0882548e-09
1.1479787e-08
-7.3422147e-10
1.1756601e-08
-9.6087781e-10
1.1966495e-08
-9.6556397e-10
1.2400209e-08
-1.1868169e-09
1.269843e-08
-1.2981171e-09
1.3020042e-08
-1.126039e-09
1.3332827e-08
-1.086928e-09
1.3467275e-08
-1.1708541e-09
1.3897077e-08
-9.9362612e-10
1.3866634e-08
-3.8466227e-10
1.3875408e-08
-5.8798847e-10
1.4356881e-08
-8.2802341e-10
1.4650663e-08
-2.8921671e-10
1.429854e-08
3.6127846e-10
1.4012892e-08
1.0337131e-09
1.2401155e-08
5.1269995e-09
9.6793469e-09
1.0849429e-08
7.0860062e-09
1.2037293e-08
5.2944825e-09
8.4594666e-09
4.0293339e-09
5.6556771e-09
3.0759357e-09
4.0784833e-09
2.3952559e-09
2.8938786e-09
1.9084523e-09
2.0659747e-09
1.5521273e-09
1.507004e-09
1.2845837e-09
1.1265133e-09
1.0790279e-09
8.6169457e-10
9.1793992e-10
6.7260146e-10
7.8954199e-10
5.3424174e-10
6.8569459e-10
4.3077165e-10
6.006303e-10
3.5190056e-10
5.301714e-10
2.9076883e-10
4.7123287e-10
2.4268596e-10
4.2149798e-10
2.0436994e-10
3.7920048e-10
1.7347857e-10
3.4297627e-10
1.4830709e-10
3.1175901e-10
1.2759711e-10
2.8470657e-10
1.1040369e-10
2.611473e-10
9.6010152e-11
2.4054117e-10
8.3864446e-11
2.2245037e-10
7.3538597e-11
2.0651782e-10
6.4695614e-11
1.9245021e-10
5.7069411e-11
1.8000559e-10
5.0446368e-11
1.689833e-10
4.4655074e-11
1.5921644e-10
3.9555538e-11
1.5056569e-10
3.5033667e-11
1.4291466e-10
3.0994967e-11
1.3616594e-10
2.7361235e-11
1.3023811e-10
2.406688e-11
1.2506319e-10
2.1056813e-11
1.2058474e-10
1.8284096e-11
1.1675622e-10
1.5708462e-11
1.1353972e-10
1.3295038e-11
1.1090503e-10
1.1012915e-11
1.088288e-10
8.8347693e-12
1.0729403e-10
6.7353849e-12
1.0628962e-10
4.691571e-12
1.0581026e-10
2.6808352e-12
1.0585636e-10
6.8044425e-13
-1.3512262e-12
8.4147925e-09
-1.2923744e-09
8.6523726e-09
-1.0222348e-09
8.8581456e-09
-8.7866814e-10
9.1563066e-09
-1.5349917e-09
9.5268926e-09
-1.4866542e-09
9.7277737e-09
-7.9079034e-10
9.8865297e-09
-9.1862763e-10
1.0276212e-08
-1.6278766e-09
1.0631373e-08
-1.4116128e-09
1.0774862e-08
-1.0165975e-09
1.0994104e-08
-1.0136126e-09
1.1319226e-08
-1.2811371e-09
1.1641902e-08
-1.2104882e-09
1.1952829e-08
-1.2903426e-09
1.226031e-08
-1.3957359e-09
1.2527706e-08
-1.0016172e-09
1.2725086e-08
-1.1582575e-09
1.3096211e-08
-1.3366892e-09
1.3472535e-08
-1.5631408e-09
1.3762734e-08
-1.5883161e-09
1.4141682e-08
-1.5049876e-09
1.4316167e-08
-1.2614128e-09
1.4708311e-08
-1.5629984e-09
1.5032407e-08
-1.3177222e-09
1.5478946e-08
-8.3120096e-10
1.5589481e-08
-6.9852332e-10
1.5351416e-08
-5.8995877e-10
1.5957805e-08
-8.9560503e-10
1.5921056e-08
3.9802687e-10
1.4319319e-08
2.6354501e-09
1.2397723e-08
7.0485958e-09
1.0033387e-08
1.3213764e-08
7.5092598e-09
1.456142e-08
5.7178162e-09
1.025091e-08
4.3911002e-09
6.9823931e-09
3.3590543e-09
5.1105292e-09
2.6220526e-09
3.6308803e-09
2.0950745e-09
2.5929528e-09
1.7085531e-09
1.8935254e-09
1.4175068e-09
1.4175596e-09
1.1932686e-09
1.0859327e-09
1.0171068e-09
8.487633e-10
8.763966e-10
6.7495194e-10
7.6238296e-10
5.4478528e-10
6.6884176e-10
4.4544176e-10
5.9125127e-10
3.6835932e-10
5.2626416e-10
3.0767308e-10
4.7136135e-10
2.5927274e-10
4.2461888e-10
2.2022104e-10
3.8454851e-10
1.8837747e-10
3.4998524e-10
1.6216038e-10
3.2000796e-10
1.4038097e-10
2.9388123e-10
1.2213688e-10
2.710132e-10
1.0673248e-10
2.5092367e-10
9.3628126e-11
2.3322069e-10
8.2398589e-11
2.1758218e-10
7.270792e-11
2.0374234e-10
6.4286209e-11
1.9148065e-10
5.6916762e-11
1.8061372e-10
5.0422468e-11
1.7098849e-10
4.465889e-11
1.6247715e-10
3.9506305e-11
1.5497283e-10
3.4865555e-11
1.4838631e-10
3.0653396e-11
1.4264328e-10
2.6799844e-11
1.3768217e-10
2.3245206e-11
1.3345245e-10
1.9938184e-11
1.2991318e-10
1.6834301e-11
1.2703206e-10
1.3894036e-11
1.2478443e-10
1.10824e-11
1.2315283e-10
8.3669893e-12
1.2212643e-10
5.7179684e-12
1.2170096e-10
3.1063004e-12
1.2187867e-10
5.0274357e-13
-2.1461155e-12
8.7308852e-09
-1.5955516e-09
8.9463033e-09
-1.2376529e-09
9.2495889e-09
-1.1819538e-09
9.5725889e-09
-1.8579916e-09
9.8987164e-09
-1.8127817e-09
1.0201297e-08
-1.0933712e-09
1.0382536e-08
-1.0998663e-09
1.0750403e-08
-1.9957436e-09
1.1197238e-08
-1.858448e-09
1.1423515e-08
-1.2428745e-09
1.1626149e-08
-1.2162462e-09
1.1948112e-08
-1.6031003e-09
1.2287907e-08
-1.5502836e-09
1.2634276e-08
-1.6367112e-09
1.2950267e-08
-1.7117268e-09
1.3267986e-08
-1.3193361e-09
1.3609384e-08
-1.4996557e-09
1.3949546e-08
-1.6768515e-09
1.4361147e-08
-1.9747413e-09
1.4925388e-08
-2.1525577e-09
1.5238058e-08
-1.8176569e-09
1.5364567e-08
-1.3879226e-09
1.5616124e-08
-1.8145555e-09
1.598148e-08
-1.6830774e-09
1.6511496e-08
-1.3612175e-09
1.6941766e-08
-1.128793e-09
1.6995286e-08
-6.4347914e-10
1.6665283e-08
-5.6560175e-10
1.6811792e-08
2.5151813e-10
1.4955735e-08
4.4915071e-09
1.2809048e-08
9.1952825e-09
1.066395e-08
1.5358862e-08
7.9638606e-09
1.726151e-08
6.090641e-09
1.212413e-08
4.7051994e-09
8.3678348e-09
3.6028722e-09
6.2128563e-09
2.8191661e-09
4.4145864e-09
2.2593753e-09
3.1527435e-09
1.8478599e-09
2.3050408e-09
1.5370076e-09
1.7284119e-09
1.2967811e-09
1.3261592e-09
1.1075599e-09
1.0379844e-09
9.5607811e-10
8.2643376e-10
8.330993e-10
6.6776409e-10
7.3203291e-10
5.4650816e-10
6.4807566e-10
4.5231656e-10
5.7766214e-10
3.780866e-10
5.1810305e-10
3.1883184e-10
4.6734034e-10
2.7098374e-10
4.2377941e-10
2.3193839e-10
3.8617016e-10
1.9976963e-10
3.5352293e-10
1.7302819e-10
3.2504664e-10
1.5061317e-10
3.0010406e-10
1.3167506e-10
2.7817771e-10
1.1555447e-10
2.5884494e-10
1.0173136e-10
2.4175822e-10
8.9794641e-11
2.2663063e-10
7.9413798e-11
2.1322408e-10
7.0323312e-11
2.0134054e-10
6.2306001e-11
1.908148e-10
5.5184628e-11
1.8150894e-10
4.8812163e-11
1.7330776e-10
4.3066737e-11
1.6611522e-10
3.7845937e-11
1.5985147e-10
3.3063589e-11
1.5445058e-10
2.8646096e-11
1.4985865e-10
2.4530112e-11
1.460323e-10
2.0660651e-11
1.4293761e-10
1.6988723e-11
1.4054912e-10
1.3470899e-11
1.3884929e-10
1.0066818e-11
1.3782798e-10
6.7392706e-12
1.3748236e-10
3.4519229e-12
1.3781666e-10
1.684435e-13
-3.1777102e-12
8.9574857e-09
-1.9422573e-09
9.1927696e-09
-1.4729367e-09
9.4669753e-09
-1.4561594e-09
9.8711433e-09
-2.2621597e-09
1.0202451e-08
-2.1440889e-09
1.0511669e-08
-1.4025895e-09
1.0784271e-08
-1.3724681e-09
1.1107014e-08
-2.3184869e-09
1.1584708e-08
-2.336142e-09
1.1922903e-08
-1.5810695e-09
1.2115655e-08
-1.4089984e-09
1.2445012e-08
-1.9324572e-09
1.2815328e-08
-1.9205994e-09
1.3217933e-08
-2.0393164e-09
1.3549981e-08
-2.0437746e-09
1.386025e-08
-1.6296053e-09
1.4222704e-08
-1.8621097e-09
1.4663227e-08
-2.1173744e-09
1.511161e-08
-2.4231243e-09
1.5716808e-08
-2.7577555e-09
1.616084e-08
-2.2616889e-09
1.6417134e-08
-1.6442169e-09
1.6656499e-08
-2.0539207e-09
1.693664e-08
-1.9632185e-09
1.7450343e-08
-1.8749206e-09
1.7821991e-08
-1.5004401e-09
1.7948412e-08
-7.6990053e-10
1.8292988e-08
-9.101782e-10
1.7786894e-08
7.576123e-10
1.6947038e-08
5.3313636e-09
1.3515836e-08
1.2626484e-08
8.9961702e-09
1.9878528e-08
7.6475143e-09
1.8610166e-08
6.305587e-09
1.3466057e-08
4.9679776e-09
9.7054441e-09
3.8102938e-09
7.3705401e-09
2.9891723e-09
5.2357079e-09
2.4033538e-09
3.7385621e-09
1.9715829e-09
2.7368117e-09
1.6442774e-09
2.0557174e-09
1.3905051e-09
1.5799315e-09
1.1900532e-09
1.2384363e-09
1.0292001e-09
9.8728694e-10
8.9834888e-10
7.9861526e-10
7.9062403e-10
6.5423301e-10
7.0099707e-10
5.4194351e-10
6.2572458e-10
4.5335909e-10
5.6197608e-10
3.8258034e-10
5.0758094e-10
3.2537888e-10
4.6085432e-10
2.7866501e-10
4.2047333e-10
2.4015063e-10
3.8538922e-10
2.0811229e-10
3.5476274e-10
1.8123965e-10
3.2791709e-10
1.5852071e-10
3.0430223e-10
1.3916933e-10
2.8346853e-10
1.2256505e-10
2.6504607e-10
1.082171e-10
2.4872931e-10
9.5730555e-11
2.3426464e-10
8.4787981e-11
2.2144112e-10
7.5129521e-11
2.1008278e-10
6.6542962e-11
2.0004283e-10
5.8852113e-11
1.9119875e-10
5.191082e-11
1.8344855e-10
4.5596134e-11
1.7670763e-10
3.9804507e-11
1.7090633e-10
3.4447399e-11
1.6598797e-10
2.9448472e-11
1.6190723e-10
2.474139e-11
1.5862906e-10
2.0266892e-11
1.5612757e-10
1.597238e-11
1.5438559e-10
1.18088e-11
1.5339399e-10
7.7308686e-12
1.531517e-10
3.6942142e-12
1.5366517e-10
-3.450253e-13
-4.4680272e-12
9.0705616e-09
-2.3099105e-09
9.3686922e-09
-1.7710674e-09
9.5967816e-09
-1.6842489e-09
1.0038454e-08
-2.7038321e-09
1.0502621e-08
-2.6082557e-09
1.0732498e-08
-1.6324665e-09
1.1000154e-08
-1.6401239e-09
1.1357471e-08
-2.6758039e-09
1.1817125e-08
-2.795796e-09
1.2288373e-08
-2.0523173e-09
1.250252e-08
-1.623146e-09
1.2795956e-08
-2.2258928e-09
1.3244233e-08
-2.3688767e-09
1.3750372e-08
-2.545455e-09
1.4035526e-08
-2.328929e-09
1.4307529e-08
-1.9016079e-09
1.4739537e-08
-2.2941181e-09
1.516986e-08
-2.5476975e-09
1.5724456e-08
-2.97772e-09
1.6375042e-08
-3.4083416e-09
1.6906391e-08
-2.7930383e-09
1.7168663e-08
-1.9064883e-09
1.7427646e-08
-2.3129041e-09
1.7937268e-08
-2.4728397e-09
1.8676597e-08
-2.6142497e-09
1.8880417e-08
-1.7042604e-09
1.8839054e-08
-7.2853767e-10
1.8968132e-08
-1.0392565e-09
1.9358829e-08
3.6691557e-10
1.8689374e-08
6.0008183e-09
1.6243317e-08
1.5072542e-08
1.1983215e-08
2.413863e-08
8.1375466e-09
2.2455834e-08
6.6333468e-09
1.4970257e-08
5.216812e-09
1.1121979e-08
3.9869657e-09
8.6003864e-09
3.1346246e-09
6.0880489e-09
2.5288898e-09
4.3442969e-09
2.081156e-09
3.1845455e-09
1.7404229e-09
2.3964505e-09
1.4753106e-09
1.8450439e-09
1.2652823e-09
1.4484646e-09
1.0963271e-09
1.1562422e-09
9.5859578e-10
9.3634655e-10
8.4500051e-10
7.6782829e-10
7.5033833e-10
6.3660569e-10
6.7072386e-10
5.3297355e-10
6.0321168e-10
4.5009252e-10
5.4553801e-10
3.8305254e-10
4.9594239e-10
3.2826064e-10
4.5304025e-10
2.8305277e-10
4.1573242e-10
2.4542012e-10
3.8313815e-10
2.1383392e-10
3.5454646e-10
1.871124e-10
3.2937895e-10
1.6433684e-10
3.0716244e-10
1.4478156e-10
2.8750739e-10
1.2787214e-10
2.7009192e-10
1.1314603e-10
2.5464876e-10
1.0023113e-10
2.4095562e-10
8.8822667e-11
2.2882708e-10
7.8671496e-11
2.1810856e-10
6.9570631e-11
2.0867116e-10
6.1348218e-11
2.0040776e-10
5.3859539e-11
1.9322966e-10
4.69826e-11
1.8706409e-10
4.061297e-11
1.8185211e-10
3.4660445e-11
1.7754695e-10
2.9046557e-11
1.7411281e-10
2.370103e-11
1.7152379e-10
1.8561398e-11
1.6976337e-10
1.3569219e-11
1.6882376e-10
8.6704729e-12
1.68706e-10
3.8119755e-12
1.6941897e-10
-1.0579885e-12
-6.036718e-12
9.1320194e-09
-2.7230919e-09
9.4186884e-09
-2.0577364e-09
9.633626e-09
-1.8991864e-09
1.005569e-08
-3.1258966e-09
1.0685968e-08
-3.2385331e-09
1.0942523e-08
-1.8890215e-09
1.1114964e-08
-1.8125647e-09
1.1554736e-08
-3.1155766e-09
1.2013067e-08
-3.2541269e-09
1.252911e-08
-2.5683597e-09
1.2848784e-08
-1.9428207e-09
1.3072e-08
-2.4491081e-09
1.3510804e-08
-2.8076809e-09
1.4144012e-08
-3.1786632e-09
1.4535598e-08
-2.7205148e-09
1.4687597e-08
-2.0536066e-09
1.5188643e-08
-2.7951647e-09
1.5644196e-08
-3.0032506e-09
1.6152572e-08
-3.4860961e-09
1.6926089e-08
-4.1818584e-09
1.7514062e-08
-3.3810112e-09
1.782404e-08
-2.216466e-09
1.8072328e-08
-2.5611928e-09
1.86326e-08
-3.0331112e-09
1.9501699e-08
-3.4833486e-09
2.0247041e-08
-2.4496029e-09
2.0069984e-08
-5.5148064e-10
1.9701893e-08
-6.7116554e-10
1.9775312e-08
2.93497e-10
1.9965403e-08
5.8107276e-09
2.0033052e-08
1.5004892e-08
1.9535278e-08
2.4636404e-08
1.3965823e-08
2.8025289e-08
7.8974659e-09
2.1038614e-08
5.5318877e-09
1.3487557e-08
4.1387341e-09
9.99354e-09
3.257778e-09
6.9690051e-09
2.6377252e-09
4.9643497e-09
2.1779101e-09
3.6443605e-09
1.8264675e-09
2.7478931e-09
1.5519989e-09
2.1195125e-09
1.3338864e-09
1.6665771e-09
1.1579771e-09
1.3321516e-09
1.014265e-09
1.0800586e-09
8.9551482e-10
8.8657846e-10
7.9639437e-10
7.3572614e-10
7.1290863e-10
6.1645929e-10
6.4202081e-10
5.2098034e-10
5.8139149e-10
4.4368187e-10
5.2919776e-10
3.8045437e-10
4.8400349e-10
3.2824704e-10
4.4466687e-10
2.8475673e-10
4.1027179e-10
2.48229e-10
3.8007786e-10
2.1730632e-10
3.534822e-10
1.909325e-10
3.299912e-10
1.6827256e-10
3.0919823e-10
1.4866512e-10
2.9076709e-10
1.3157716e-10
2.7441859e-10
1.1657963e-10
2.5992048e-10
1.0332077e-10
2.470791e-10
9.151288e-11
2.3573306e-10
8.0916667e-11
2.2574794e-10
7.1333333e-11
2.170122e-10
6.2595288e-11
2.0943368e-10
5.4561118e-11
2.0293702e-10
4.710962e-11
1.9746154e-10
4.013593e-11
1.9295937e-10
3.3548722e-11
1.8939441e-10
2.7265994e-11
1.8674104e-10
2.1214767e-11
1.8498373e-10
1.532653e-11
1.8411629e-10
9.5379057e-12
1.8414206e-10
3.7862079e-12
1.8507268e-10
-1.9886067e-12
-7.901244e-12
9.1009898e-09
-3.1527313e-09
9.4673219e-09
-2.4240686e-09
9.6407672e-09
-2.0726317e-09
1.0045501e-08
-3.5306308e-09
1.0695495e-08
-3.8885269e-09
1.109739e-08
-2.290916e-09
1.1208054e-08
-1.9232291e-09
1.1684824e-08
-3.5923465e-09
1.2225121e-08
-3.7944235e-09
1.2644414e-08
-2.9876534e-09
1.3067153e-08
-2.3655589e-09
1.3267535e-08
-2.6494901e-09
1.3776372e-08
-3.3165184e-09
1.4504857e-08
-3.9071479e-09
1.4832165e-08
-3.0478231e-09
1.5032876e-08
-2.2543179e-09
1.5484922e-08
-3.2472099e-09
1.6147056e-08
-3.6653854e-09
1.6667834e-08
-4.0068739e-09
1.7288165e-08
-4.8021895e-09
1.796692e-08
-4.0597658e-09
1.8340483e-08
-2.5900295e-09
1.8647372e-08
-2.8680812e-09
1.9259281e-08
-3.6450202e-09
2.0204249e-08
-4.4283164e-09
2.1097471e-08
-3.3428249e-09
2.1391292e-08
-8.4530196e-10
2.11496e-08
-4.2947401e-10
2.0466711e-08
9.7638619e-10
2.0665486e-08
5.6119534e-09
2.1005565e-08
1.4664812e-08
2.0431515e-08
2.5210454e-08
1.6705169e-08
3.1751636e-08
1.0064931e-08
2.7678851e-08
5.8262459e-09
1.7726243e-08
4.2562052e-09
1.1563581e-08
3.3598921e-09
7.8653182e-09
2.731445e-09
5.5927968e-09
2.2630747e-09
4.1127309e-09
1.9033527e-09
3.1076151e-09
1.6213055e-09
2.4015596e-09
1.3964511e-09
1.8914315e-09
1.2146236e-09
1.513979e-09
1.0657447e-09
1.2289376e-09
9.4248863e-10
1.0098345e-09
8.3943414e-10
8.3878062e-10
7.5250548e-10
7.0338795e-10
6.785956e-10
5.9489023e-10
6.1530515e-10
5.0697231e-10
5.607607e-10
4.3499882e-10
5.1348364e-10
3.7552409e-10
4.7229657e-10
3.259438e-10
4.3625353e-10
2.8427204e-10
4.0458916e-10
2.4897069e-10
3.7667954e-10
2.1884211e-10
3.5201345e-10
1.9293865e-10
3.3016946e-10
1.7050911e-10
3.1079897e-10
1.5094765e-10
2.9361236e-10
1.3376623e-10
2.7836875e-10
1.1856439e-10
2.6486728e-10
1.0501435e-10
2.5294069e-10
9.284325e-11
2.424498e-10
8.1824225e-11
2.3327928e-10
7.1765806e-11
2.2533412e-10
6.2506275e-11
2.1853687e-10
5.3906866e-11
2.1282548e-10
4.5847322e-11
2.0815143e-10
3.822277e-11
2.0447859e-10
3.0938833e-11
2.0178197e-10
2.391139e-11
2.0004727e-10
1.7061229e-11
1.9927015e-10
1.0315027e-11
1.9945656e-10
3.5997931e-12
2.0062092e-10
-3.1529624e-12
-1.007699e-11
8.9690259e-09
-3.5502517e-09
9.4380748e-09
-2.8931175e-09
9.6809031e-09
-2.3154599e-09
9.9660622e-09
-3.81579e-09
1.0598565e-08
-4.5210301e-09
1.109586e-08
-2.7882104e-09
1.13189e-08
-2.1462699e-09
1.1767452e-08
-4.0408976e-09
1.2366847e-08
-4.3938187e-09
1.2707985e-08
-3.3287912e-09
1.3161202e-08
-2.8187767e-09
1.3499456e-08
-2.9877433e-09
1.4012852e-08
-3.8299145e-09
1.4787051e-08
-4.6813474e-09
1.50201e-08
-3.2808721e-09
1.5195892e-08
-2.4301095e-09
1.5842274e-08
-3.8935926e-09
1.6588424e-08
-4.4115351e-09
1.7182141e-08
-4.6005906e-09
1.7724606e-08
-5.3446549e-09
1.8135467e-08
-4.4706264e-09
1.8517908e-08
-2.9724708e-09
1.9201589e-08
-3.5517618e-09
1.9842426e-08
-4.2858574e-09
2.0840518e-08
-5.4264088e-09
2.1829277e-08
-4.3315836e-09
2.2209743e-08
-1.225768e-09
2.2294679e-08
-5.1441039e-10
2.2253325e-08
1.0177408e-09
2.1371997e-08
6.4932815e-09
2.1077559e-08
1.495925e-08
2.0577765e-08
2.5710248e-08
1.6767934e-08
3.5561467e-08
1.0315416e-08
3.413137e-08
5.8394497e-09
2.2202209e-08
4.3300656e-09
1.3072965e-08
3.4424445e-09
8.7529393e-09
2.8115556e-09
6.2236857e-09
2.3377842e-09
4.5865023e-09
1.9719415e-09
3.4734577e-09
1.6839028e-09
2.6895984e-09
1.4535108e-09
2.1218235e-09
1.2666988e-09
1.700791e-09
1.1133887e-09
1.3822476e-09
9.8621489e-10
1.1370083e-09
8.7970246e-10
9.4529305e-10
7.8972054e-10
7.9336986e-10
7.1311073e-10
6.7150004e-10
6.4742789e-10
5.7265515e-10
5.9075869e-10
4.9166802e-10
5.4159025e-10
4.2469253e-10
4.9871597e-10
3.6881808e-10
4.6116505e-10
3.2182296e-10
4.2815105e-10
2.819847e-10
3.9903225e-10
2.4796091e-10
3.7328237e-10
2.1868853e-10
3.5046723e-10
1.9332424e-10
3.3022753e-10
1.7118735e-10
3.1226469e-10
1.5172907e-10
2.9633029e-10
1.3449879e-10
2.8221731e-10
1.1912733e-10
2.6975341e-10
1.0530714e-10
2.5879536e-10
9.2782279e-11
2.4922466e-10
8.1336505e-11
2.4094393e-10
7.0786999e-11
2.3387408e-10
6.0976714e-11