/*--------------------------------*- C++ -*----------------------------------*\
| =========                 |                                                 |
| \\      /  F ield         | OpenFOAM: The Open Source CFD Toolbox           |
|  \\    /   O peration     | Version:  2.3.0                                 |
|   \\  /    A nd           | Web:      www.OpenFOAM.org                      |
|    \\/     M anipulation  |                                                 |
\*---------------------------------------------------------------------------*/
FoamFile
{
    version     2.0;
    format      ascii;
    class       volScalarField;
    location    "0.008";
    object      alpha.water;
}
// * * * * * * * * * * * * * * * * * * * * * * * * * * * * * * * * * * * * * //

dimensions      [0 0 0 0 0 0 0];

internalField   nonuniform List<scalar> 
725
(
1
1
1
1
1
1
1
1
1
1.00001
1
1
1
1
1.00003
1
1
1
1.00001
1
1
1
1
1.00003
0.97835
0.999996
1
0.975936
0.955488
0.954926
0.879581
1
1.00001
0.999995
0.999968
0.999932
0.999892
0.999845
0.999769
0.999652
0.999517
0.999392
0.999323
0.999299
0.999303
0.999347
0.999461
0.999586
0.999671
0.999731
0.999777
0.999838
0.999883
0.999905
0.999878
0.999812
0.999778
0.99981
0.999871
0.999918
0.999953
0.999966
0.908573
0.826267
0.826225
0.826183
0.92157
0.999752
0.999735
0.999734
1
1
0.939381
0.621086
0.904118
0.859804
1
0.99996
0.999996
0.999992
0.99997
0.999934
0.999892
0.999848
0.999791
0.999808
0.999897
0.999803
0.999794
0.99976
0.99973
0.99971
0.999695
0.999671
0.999661
0.999634
0.999606
0.999619
0.999664
0.999729
0.999757
0.99972
0.999663
0.999664
0.999726
0.999866
0.999966
0.938213
0.826234
0.826183
0.826142
0.913512
0.999768
0.999765
0.99984
1
0.711391
0.31266
0.314617
0.743717
0.854128
0.999865
0.999965
0.999933
0.999936
0.999938
0.999941
0.99994
0.999916
0.999849
0.999762
0.999625
0.999271
0.999266
0.999365
0.999429
0.999609
0.999881
0.999814
0.999824
0.99977
0.999747
0.999765
0.999711
0.999619
0.99958
0.99958
0.999597
0.999607
0.999584
0.999737
0.999966
0.961344
0.827551
0.826142
0.826092
0.935365
0.999805
0.9998
0.999887
0.809253
0.00581056
0.0438546
0.454771
0.718493
0.836686
0.992227
0.999963
0.999932
0.999931
0.999946
0.99995
0.99997
1.00001
1.00002
1.00002
1.00011
1
0.998851
0.998651
0.998907
0.999589
0.999702
0.999794
1.00006
0.999423
0.996135
0.997146
0.997832
0.999823
0.999872
0.999959
0.999904
0.999747
0.999339
0.9996
0.999965
0.989882
0.838503
0.826092
0.826059
0.961873
0.999805
0.999806
0.99982
5.45146e-05
6.52798e-05
7.09139e-05
0.192265
0.65645
0.757171
0.957348
0.999843
0.999736
0.99988
0.999982
0.999973
0.999947
0.999917
0.99991
0.999919
0.999951
1.00002
1.00001
0.999243
0.99888
0.999042
0.999054
0.999227
1
0.996693
0.990958
0.993049
0.997426
0.999821
0.99981
0.999804
0.999861
1.0001
0.999384
0.999064
0.999886
0.999883
0.8654
0.826059
0.825991
0.986891
0.999735
0.999689
0.999738
5.41363e-05
6.72666e-05
7.09782e-05
0.13208
0.632963
0.87262
0.880637
0.989483
0.999704
0.997777
0.998832
0.999618
0.999815
0.99985
0.99985
0.999843
0.99982
0.999735
0.999671
0.998939
0.999075
0.999058
0.994334
0.994862
0.999594
0.995741
0.98013
0.982394
0.997588
0.999489
0.999565
0.999612
0.99979
0.999796
0.999235
0.998366
0.998995
0.99988
0.909702
0.825998
0.825991
0.991516
0.999734
0.999632
0.999629
3.75341e-05
5.85208e-05
6.50819e-05
0.130933
0.620499
0.871126
0.955579
0.983161
0.995603
0.997102
0.998745
0.999416
0.999731
0.999825
0.999845
0.999836
0.999796
0.999929
0.999672
0.999684
0.995308
0.992616
0.992527
0.993988
0.998161
0.99513
0.975756
0.970518
0.99662
0.999648
0.999621
0.99965
0.999817
0.999717
0.999076
0.998314
0.998851
0.999878
0.926607
0.833181
0.836763
0.996044
0.999736
0.999704
0.999698
3.49933e-05
9.29072e-05
7.18481e-05
0.104948
0.609731
0.888847
0.997046
0.984901
0.997026
0.9971
0.998414
0.999415
0.999768
0.999839
0.999864
0.999845
0.999805
0.999718
0.999617
0.999323
0.997465
0.995137
0.99395
0.995291
0.997172
0.965501
0.966738
0.970174
0.997341
0.999619
0.999644
0.999661
0.999996
0.999808
0.998805
0.998086
0.998878
0.999878
0.922141
0.903203
0.970371
0.999554
0.999725
0.999758
0.999758
4.72654e-05
5.13469e-05
8.31576e-05
0.0142104
0.542789
0.973769
0.997882
0.98735
0.998223
0.997412
0.997897
0.999006
0.999538
0.999758
0.999843
0.999858
0.999823
0.999753
0.99965
0.999384
0.999584
0.999384
0.999325
0.996712
0.99065
0.924909
0.946923
0.985686
0.999674
0.999649
0.999725
0.999742
0.999861
0.999749
0.998956
0.998159
0.998719
0.999877
0.923526
0.941504
0.997683
0.999802
0.999773
0.999797
0.999807
1.31882e-07
1.78222e-05
0.000201464
0.000722192
0.593089
0.978983
0.998971
0.991162
0.998558
0.998069
0.997921
0.99892
0.999447
0.999725
0.999842
0.99987
0.999838
0.999768
0.999666
0.999776
0.999558
0.999518
0.999632
0.998088
0.961157
0.92462
0.924582
0.986269
0.999873
0.999784
0.999859
0.999862
0.999885
0.999833
0.999261
0.998414
0.997324
0.999813
0.942523
0.958468
0.99631
0.999797
0.999756
0.999816
0.999835
1
1
1
1.00005
1
1
1
1
1.00003
1
1
1
1
1
1
1
1
1
1
1.00001
1
1
1
1
1
0.0309308
0.000204657
0.00101745
0.00265792
0.380994
0.926191
0.999872
0.999804
0.999985
0.999073
0.997936
0.998875
0.999851
0.999996
0.999973
0.999946
0.999895
0.999818
0.999724
0.99967
0.999624
0.999763
0.999978
0.990742
0.928784
0.924592
0.924584
0.984774
0.999921
0.999922
0.999925
0.999944
0.999954
0.999975
1.00002
1
0.99408
0.993562
0.995624
0.998211
0.999063
0.999674
0.999851
0.999827
0.999842
0.839573
0.0297013
0.00292346
0.149691
0.354283
0.929969
1
1
1.00004
0.999723
0.999123
0.999473
0.999843
0.99972
0.99973
0.999767
0.999778
0.999767
0.99975
0.999699
0.999681
0.999859
1
0.976412
0.924592
0.924587
0.92458
0.979384
0.99992
0.999921
0.999936
0.999962
0.999992
1.00003
1.00006
1.00001
0.993679
0.991849
0.991854
0.995023
0.999989
1.00003
0.99989
0.999844
0.999824
1
0.442185
0.0135175
0.0578829
0.573546
0.969066
0.999998
0.999991
0.999984
0.999872
1.00003
0.999589
0.9946
0.993691
0.996221
0.996766
0.997775
0.997279
0.997279
0.998616
0.999964
0.999995
1
0.939699
0.924591
0.924583
0.92458
0.979879
0.999896
0.999846
0.99985
0.99982
0.999771
0.999728
0.999808
0.999924
0.998058
0.992809
0.993192
0.997311
0.999915
0.999848
0.999814
0.99979
0.999772
1
1
0.309971
0.104339
0.68402
0.979049
0.998222
1.00002
1.0002
1.00024
1.00006
0.989365
0.984524
0.984522
0.987448
0.999066
0.999179
0.999062
0.99921
0.999581
0.99986
1
0.98786
0.924889
0.924583
0.924579
0.924571
0.982976
0.999942
0.999942
0.999864
0.999816
0.999783
0.999764
0.999734
0.999841
0.999764
0.999583
0.999705
0.999769
0.99981
0.999808
0.999799
0.999781
0.999763
1
0.993626
0.809014
0.786353
0.939544
0.975129
0.997922
0.999075
0.997896
0.997665
0.987197
0.984326
0.984929
0.994712
0.9998
1.00007
1.00006
1.00005
1.00003
0.999989
1
1.00001
0.955895
0.924597
0.924589
0.924583
0.940516
0.996266
0.999747
0.999695
0.999683
0.999664
0.999659
0.999673
0.999721
0.999747
0.99975
0.999749
0.999769
0.999797
0.999832
0.999867
0.999892
0.999901
0.999901
)
;

boundaryField
{
    AirInlet
    {
        type            fixedValue;
        value           uniform 0;
    }
    WaterInlet
    {
        type            fixedValue;
        value           uniform 1;
    }
    ChannelWall
    {
        type            zeroGradient;
    }
    Outlet
    {
        type            inletOutlet;
        inletValue      uniform 0;
        value           nonuniform List<scalar> 
15
(
0.999734
0.99984
0.999887
0.99982
0.999738
0.999629
0.999698
0.999758
0.999807
0.999835
0.999842
0.999824
0.999772
0.999763
0.999901
)
;
    }
    FrontAndBack
    {
        type            empty;
    }
}


// ************************************************************************* //
