/*--------------------------------*- C++ -*----------------------------------*\
| =========                 |                                                 |
| \\      /  F ield         | OpenFOAM: The Open Source CFD Toolbox           |
|  \\    /   O peration     | Version:  2.3.0                                 |
|   \\  /    A nd           | Web:      www.OpenFOAM.org                      |
|    \\/     M anipulation  |                                                 |
\*---------------------------------------------------------------------------*/
FoamFile
{
    version     2.0;
    format      ascii;
    class       volScalarField;
    location    "0.008";
    object      p_rgh;
}
// * * * * * * * * * * * * * * * * * * * * * * * * * * * * * * * * * * * * * //

dimensions      [1 -1 -2 0 0 0 0];

internalField   nonuniform List<scalar> 
725
(
731.444
687.783
675.293
659.078
676.43
725.847
688.11
676.845
661.718
687.793
723.227
688.074
677.744
664.548
701.206
723.695
687.466
678.31
668.323
714.332
726.912
686.284
678.485
672.271
756.221
574.95
580.139
-468.882
610.42
576.259
203.26
182.958
114.999
59.3008
49.0766
45.8755
44.7529
44.7876
44.2802
43.3042
42.0819
40.8107
39.5391
38.214
36.8112
35.3814
33.8886
32.3326
30.7743
29.2717
27.8848
26.5557
25.2092
23.8262
22.41
21.0097
19.6275
18.2544
16.8431
15.4243
13.9878
12.5278
11.0528
9.57047
8.08552
6.60097
5.11897
3.64221
2.17216
0.713525
583.466
661.242
-929.38
-740.087
-186.366
76.5555
186.03
99.5667
54.1064
51.7973
48.1304
45.2998
44.6399
43.9435
42.8557
41.5683
40.2551
38.9753
37.6746
36.3154
34.9457
33.5256
32.0497
30.5657
29.1197
27.7688
26.4656
25.1411
23.7808
22.3807
20.9901
19.6112
18.2398
16.8315
15.4163
13.9824
12.5247
11.0514
9.57044
8.08629
6.60212
5.12023
3.64353
2.17547
0.721119
597.772
872.917
-731.717
697.499
633.417
292.851
85.2118
34.044
72.1446
48.8169
48.1124
46.0037
44.8977
44.1006
42.9907
41.6548
40.3365
39.0028
37.6844
36.3098
34.9427
33.5219
32.0454
30.5619
29.1114
27.7689
26.4706
25.1427
23.7815
22.3772
20.9883
19.61
18.2403
16.828
15.4151
13.9824
12.5245
11.0514
9.57062
8.0866
6.60242
5.12034
3.6433
2.17412
0.718669
633.764
1218.51
-19.5232
635.187
746.39
753.039
183.945
104.711
44.4143
42.257
47.6861
46.2322
45.4253
44.2794
43.2403
41.7985
40.3805
39.0246
37.6845
36.2906
34.9428
33.5311
32.0872
30.6613
29.2974
27.9079
26.5307
25.1699
23.7968
22.3775
20.9896
19.6149
18.2498
16.829
15.4202
13.9885
12.5283
11.0535
9.57206
8.08753
6.60275
5.11986
3.64165
2.17105
0.71743
649.196
1731.52
1123.83
575.768
736.874
766.593
167.993
426.054
49.2395
32.681
48.4895
46.9312
45.9176
45.0927
43.499
41.9001
40.4716
39.0693
37.7045
36.2956
34.9962
33.5539
32.0926
30.6497
29.2297
27.8611
26.5246
25.1823
23.8255
22.3878
21.0032
19.6317
18.274
16.8325
15.4344
14.0038
12.5401
11.0634
9.58085
8.09502
6.60863
5.12372
3.64281
2.16393
0.703686
644.27
1627.41
-247.447
718.493
750.504
759.065
490.912
469.523
47.3397
20.8964
49.09
47.0266
46.321
45.2656
43.8186
41.9638
40.5113
39.0756
37.7054
36.2841
34.9949
33.5783
32.0995
30.6783
29.3056
27.9298
26.5651
25.1936
23.8362
22.3684
21.004
19.6398
18.3032
16.8299
15.4512
14.0207
12.5545
11.0775
9.59531
8.10952
6.6227
5.13651
3.65415
2.16577
0.687793
-76.2289
1840.04
2335.22
948.871
747.931
743.282
752.888
614.557
38.5618
14.8861
49.1052
47.0998
46.4353
45.2844
43.7981
41.9977
40.4929
39.067
37.7885
36.4885
35.3091
34.1476
32.2263
30.6653
29.2578
27.8871
26.5389
25.1791
23.8322
22.3594
21.004
19.6444
18.314
16.8302
15.4583
14.0301
12.5665
11.0938
9.61643
8.13476
6.65083
5.16597
3.68355
2.1908
0.687762
7164.75
3466.66
437.727
771.036
740.361
758.051
763.926
51.8507
13.0275
8.71819
48.8189
47.2012
46.5746
45.3468
43.864
42.2502
40.7398
39.2498
37.8787
36.3575
34.9001
33.6642
32.1909
30.6539
29.252
27.8837
26.5377
25.1773
23.8327
22.3514
21.0025
19.6488
18.3236
16.8308
15.4703
14.0757
12.6524
11.2008
9.72952
8.24522
6.7534
5.25778
3.76334
2.25853
0.742835
2309.47
-471.586
712.355
724.966
771.127
766.067
679.687
-166.197
-16.0609
3.31967
48.3719
47.348
46.7186
45.4116
43.8967
42.2128
40.6977
39.2199
37.8579
36.3509
34.9107
33.6148
32.13
30.6384
29.24
27.8776
26.5375
25.1786
23.8347
22.3447
21.0017
19.6551
18.3394
16.9721
15.5715
14.1434
12.6905
11.2154
9.72565
8.22649
6.72327
5.21961
3.72019
2.21273
0.700093
1391.34
-66.8299
833.515
718.405
776.64
769.636
678.143
-156.649
-44.4587
0.363409
47.7685
47.5748
46.8486
45.4734
43.9433
42.2317
40.7056
39.2253
37.87
36.354
34.9239
33.6289
32.1223
30.6287
29.2307
27.8754
26.5408
25.1835
23.8357
22.3389
21.0003
19.6591
18.3632
16.8972
15.4394
13.989
12.5522
11.097
9.62305
8.13772
6.64738
5.15601
3.6681
2.17388
0.694572
1155.57
1110.04
1114.6
1107.65
1061.31
1152.51
1110.9
1114.77
1101.54
1059.29
1152.13
1111.08
1114.36
1092.37
1053.49
1154.78
1110.77
1113.64
1086.81
1049.72
1160.42
1110.14
1112.73
1081.84
1058.14
1577.08
446.1
1466
705.773
770.937
773.178
781.227
90.1667
-97.5168
-3.40071
45.8041
48.3634
47.1723
45.6325
44.0374
42.2807
40.7719
39.3035
37.9249
36.4509
35.0167
33.5945
32.1003
30.6089
29.2112
27.8744
26.5527
25.2006
23.8399
22.3552
21.0159
19.6761
18.2568
16.866
15.4186
13.963
12.5135
11.0519
9.57711
8.09469
6.60962
5.1251
3.64408
2.1649
0.709254
1374.45
471.942
733.42
750.837
769.267
773.362
776.354
371.161
-6.77455
12.7862
45.8986
49.6128
47.8196
46.0372
44.2774
42.9034
41.2067
39.5648
37.8991
36.2981
34.8058
33.4018
32.1996
30.9366
29.683
28.4147
27.0825
25.8067
24.3804
22.7141
21.2407
19.7576
18.2568
16.8498
15.4084
13.9538
12.5002
11.0375
9.56428
8.08444
6.60222
5.12079
3.64337
2.17301
0.722625
1198.07
545.053
480.031
763.067
771.391
772.431
773.704
704.445
42.5157
28.9818
46.4113
48.8856
47.8437
46.1316
44.4488
42.8802
41.218
39.5652
37.9497
36.5515
35.1537
33.8613
32.6222
31.2408
29.8312
28.3582
26.7817
25.1596
23.6767
22.5336
21.1987
19.7468
18.262
16.8382
15.3985
13.9467
12.4928
11.0309
9.55964
8.08178
6.60119
5.12123
3.6454
2.17687
0.723896
1114.66
627.322
584.031
762.28
771.886
772.339
773.23
732.953
-0.252759
30.1203
45.8677
49.038
48.1659
46.4753
44.6701
43.3135
41.7107
40.0119
38.2637
36.598
34.9096
33.2572
31.9217
30.9018
29.743
28.334
26.7787
25.1802
23.7089
22.5091
21.1848
19.7449
18.2661
16.8351
15.3967
13.9467
12.4928
11.031
9.56004
8.08237
6.60183
5.12195
3.64629
2.17861
0.726584
1075.34
662.514
782.521
758.417
772.101
772.418
773.143
768.615
-18.8115
27.4783
45.3593
49.4848
48.258
46.4093
44.9369
43.712
42.2997
40.7012
39.0193
37.3479
35.6024
33.8814
32.4708
31.367
30.1112
28.5974
26.9473
25.2806
23.7814
22.5651
21.222
19.7625
18.2725
16.837
15.3985
13.949
12.495
11.0329
9.56115
8.08276
6.60175
5.12159
3.64579
2.17634
0.71942
)
;

boundaryField
{
    AirInlet
    {
        type            fixedFluxPressure;
        gradient        nonuniform List<scalar> 5(-1.81584e+09 -4.68515e+08 2.57434e+09 1.05905e+09 -3.43902e+08);
        value           nonuniform List<scalar> 5(-17514.1 -4761.38 32908.2 12900 -2047.67);
    }
    WaterInlet
    {
        type            fixedFluxPressure;
        gradient        nonuniform List<scalar> 10(-0.0378414 -19.1728 0.0107474 -11.2161 -0.810729 0.0540463 -2.19084 -0.444618 -1.72964 -0.0738563);
        value           nonuniform List<scalar> 10(731.444 725.847 723.227 723.695 726.912 1155.57 1152.51 1152.13 1154.78 1160.42);
    }
    ChannelWall
    {
        type            fixedFluxPressure;
        gradient        uniform 0;
        value           nonuniform List<scalar> 
110
(
726.912
686.284
678.485
672.271
756.221
1155.57
1110.04
1114.6
1107.65
1061.31
1160.42
1110.14
1112.73
1081.84
1058.14
1075.34
662.514
782.521
758.417
772.101
772.418
773.143
768.615
-18.8115
27.4783
45.3593
49.4848
48.258
46.4093
44.9369
43.712
42.2997
40.7012
39.0193
37.3479
35.6024
33.8814
32.4708
31.367
30.1112
28.5974
26.9473
25.2806
23.7814
22.5651
21.222
19.7625
18.2725
16.837
15.3985
13.949
12.495
11.0329
9.56115
8.08276
6.60175
5.12159
3.64579
2.17634
0.71942
731.444
687.783
675.293
659.078
676.43
574.95
580.139
-468.882
610.42
576.259
203.26
182.958
114.999
59.3008
49.0766
45.8755
44.7529
44.7876
44.2802
43.3042
42.0819
40.8107
39.5391
38.214
36.8112
35.3814
33.8886
32.3326
30.7743
29.2717
27.8848
26.5557
25.2092
23.8262
22.41
21.0097
19.6275
18.2544
16.8431
15.4243
13.9878
12.5278
11.0528
9.57047
8.08552
6.60097
5.11897
3.64221
2.17216
0.713525
)
;
    }
    Outlet
    {
        type            totalPressure;
        rho             rho;
        psi             none;
        gamma           1;
        p0              uniform 0;
        value           uniform 0;
    }
    FrontAndBack
    {
        type            empty;
    }
}


// ************************************************************************* //
