/*--------------------------------*- C++ -*----------------------------------*\
| =========                 |                                                 |
| \\      /  F ield         | OpenFOAM: The Open Source CFD Toolbox           |
|  \\    /   O peration     | Version:  2.3.0                                 |
|   \\  /    A nd           | Web:      www.OpenFOAM.org                      |
|    \\/     M anipulation  |                                                 |
\*---------------------------------------------------------------------------*/
FoamFile
{
    version     2.0;
    format      ascii;
    class       volScalarField;
    location    "0.008";
    object      p_rgh;
}
// * * * * * * * * * * * * * * * * * * * * * * * * * * * * * * * * * * * * * //

dimensions      [1 -1 -2 0 0 0 0];

internalField   nonuniform List<scalar> 
725
(
1560.31
1380.84
1330.33
1302.41
1268.62
1532.27
1383.44
1332.53
1304.17
1269.21
1517.76
1385.16
1333.66
1305.73
1271.14
1515.63
1381.88
1332.63
1307.46
1276.77
1524.64
1376.46
1330.01
1314.49
1335.22
1267.07
1201.22
909.807
1446.45
467.933
349.65
224.168
309.912
275.597
254.622
242.075
233.768
228.529
223.436
217.469
211.422
205.698
200.118
193.255
185.454
173.914
166.339
171.091
171.494
165.193
153.175
127.677
99.5387
94.4839
92.1474
88.245
85.1818
83.1709
80.8675
77.6185
73.7941
69.1638
130.579
180.266
190.76
162.9
89.8844
19.1791
11.6696
6.54789
1261.34
1144.94
757.703
370.354
99.8332
371.121
157.638
305.032
272.971
252.419
241.744
233.568
228.17
222.94
216.765
210.274
204.272
199.441
194.964
187.193
175.093
165.242
170.943
172.395
164.279
152.113
126.485
96.8552
94.5974
92.3242
88.2299
85.4345
83.7808
80.2598
76.6919
73.8247
72.9209
71.1791
165.932
191.12
176.821
103.875
10.436
9.35693
5.97735
1280.09
1220.74
1124.38
1626.2
322.065
335.699
95.732
296.717
269.317
248.272
240.621
233.335
228.257
222.809
216.505
210.159
203.841
199.344
192.756
185.046
172.237
161.766
173.964
176.73
163.854
151.891
124.291
89.8458
95.8991
94.1916
89.754
86.6052
84.6035
80.8971
76.9345
74.6151
75.894
59.4444
157.505
194.855
168.703
70.403
11.1758
9.47213
6.38649
1395.67
1887.83
1762.92
1140.92
536.841
404.443
-5.49296
256.097
260
243.179
238.785
232.915
229.128
223.647
217.444
211.884
207.274
199.993
196.042
189.852
170.948
156.261
175.247
183.437
165.718
152.707
122.569
77.1475
103.088
95.4725
90.0811
89.1348
85.3802
80.5323
78.3067
76.1704
80.9644
70.4393
129.601
206.416
164.054
62.2631
9.07348
8.6053
5.44808
1905.48
1905.71
1946.19
1384.66
625.764
814.45
-1.40754
176.775
240.862
240.931
236.552
232.027
230.458
223.042
215.828
210.747
205.948
201.551
197.446
185.166
166.621
145.48
178.469
194.702
165.564
162.983
121.775
57.7686
109.038
96.9726
89.7053
88.1322
85.8194
84.4476
78.7276
76.5906
85.5756
85.0457
51.4584
232.803
186.666
52.1441
-7.36425
5.69
4.86619
1906.76
1900.56
1946.15
1786.7
694.58
1208.97
404.391
166.017
213.059
235.363
237.724
231.198
232.21
222.828
215.05
210.525
205.596
201.717
197.286
186.838
162.562
132.376
186.93
220.609
160.298
161.351
136.933
45.0976
109.317
99.7682
102.643
95.9416
88.5226
83.9074
79.0067
76.7767
85.7851
96.9352
102.087
240.184
216.914
12.9569
-12.8056
5.10546
4.11574
1907.08
1899.83
1945.35
1893.51
658.747
1166.84
325.332
238.679
270.454
238.496
237.277
230.934
232.929
222.799
214.921
210.65
206.308
208.812
197.788
198.438
291.034
350.783
256.247
254.212
156.796
158.954
141.645
358.953
125.086
100.042
100.85
94.7313
88.2352
85.243
79.0476
76.5329
86.642
100.27
239.133
175.048
108.688
-8.90445
-13.8493
5.0584
3.69194
1907.06
1900.64
1948.71
1702.58
484.492
1105.42
370.191
196.738
223.252
237.917
236.385
230.64
233.615
222.77
214.675
210.225
205.884
201.936
199.288
197.543
213.439
256.566
204.799
218.883
155.946
158.396
146.713
359.779
115.917
101.535
101.064
94.6463
95.1473
83.5254
86.9631
84.7337
87.2071
98.5187
246.216
105.804
19.5598
-37.7966
-13.0813
4.87435
3.30887
1906.5
1899.73
1951.42
1808.54
768.493
1543.89
379.513
155.062
206.819
228.453
236.616
230.681
234.614
223.352
214.291
210.103
205.756
201.059
198.674
197.482
209.769
249.797
206.108
242.16
156.753
189.374
172.122
272.622
109.978
102.926
101.366
94.6097
90.1373
84.1495
82.0155
81.0116
85.2426
101.887
224.648
94.9452
46.9769
-32.9011
-12.3978
4.64655
2.952
1906.32
1902.4
1948.74
1956.95
601.282
1655.87
378.777
159.443
207.039
228.678
235.998
231.244
237.936
224.499
213.998
210.004
205.683
200.899
198.796
195.426
209.009
244.923
207.475
281.75
155.222
198.817
218.208
273.99
118.59
103.596
101.534
94.6439
89.627
83.2745
80.3971
79.8681
80.0909
105.563
111.846
83.0644
24.5525
-28.3538
-11.2853
4.41013
2.63199
2136.39
1987.92
1937.09
1912.34
1866.28
2127.5
1993.76
1941.18
1914.99
1859.01
2129.84
1997.82
1945.18
1924
1894.33
2144.53
1996.75
1945.76
1927.07
1886.11
2172.63
1994.4
1944.3
1928.96
1892.35
1960.9
1897.89
1929.44
1789.42
235.62
7.46945
287.023
175.328
202.66
228.664
235.246
231.471
224.587
215.113
212.708
209.978
205.782
201.971
199.64
197.723
209.646
231.753
207.271
155.486
181.705
204.031
227.606
206.934
129.076
107.172
101.947
94.8122
86.9849
82.854
79.9494
78.8779
77.6302
62.6029
61.9783
59.9532
74.1049
-15.936
-8.48814
3.84152
1.87671
1843.51
1891.97
1932.97
1603.24
479.605
9.64507
207.037
169.162
208.306
229.909
231.935
234.107
227.838
212.218
209.607
207.892
204.313
202.255
200.76
199.346
207.742
219.849
203.908
152.046
202.268
207.261
217.056
200.104
134.152
109.832
101.897
95.1275
88.002
83.256
79.7263
76.2804
80.4599
78.7019
63.5048
55.2425
68.2215
5.0673
-2.20901
3.22256
0.528637
1926.81
1623.1
1875.6
1839.6
-460.799
158.327
257.065
195.698
215.008
231.784
238.837
237.384
231.508
212.671
214.508
225.709
216.779
223.018
223.144
207.077
207.255
213.271
202.329
174.001
200.617
208.451
219.151
175.25
132.553
110.273
101.276
94.4381
87.7208
81.8719
77.0173
75.196
63.9142
69.0722
64.3614
53.7645
60.8155
17.0207
2.47546
2.68208
0.0600818
1912.67
1627.42
1307.41
1561.49
-355.909
288.582
317.947
224.142
223.586
235.153
239.7
244.288
247.611
290.224
275.318
209.359
209.003
208.112
205.655
202.187
206.714
208.041
181.355
212.838
203.924
207.791
212.253
168.634
134.444
112.035
101.445
94.546
88.0963
82.1242
77.3212
74.6496
63.5645
62.5978
56.6265
49.2705
56.3655
24.0207
5.18346
1.86707
-0.482441
1990.58
1771.27
2376.78
2777.64
539.207
388.913
348.678
242.765
234.288
243.396
288.034
273.669
244.372
238.768
247.137
217.332
214.561
212.247
208.67
204.188
207.49
204.587
257.752
230.67
205.647
204.686
213.046
204.676
138.795
112.893
102.23
95.2061
88.8067
82.8331
77.9883
74.9453
64.6907
64.294
57.7264
50.1959
55.4212
24.3862
4.94764
1.19671
-0.504745
)
;

boundaryField
{
    AirInlet
    {
        type            fixedFluxPressure;
        gradient        nonuniform List<scalar> 5(-1560.03 64952.1 -41473.9 282372 -35.528);
        value           nonuniform List<scalar> 5(1906.74 1907.72 1906.65 1909.32 1906.32);
    }
    WaterInlet
    {
        type            fixedFluxPressure;
        gradient        nonuniform List<scalar> 10(-0.000558872 -0.0276582 -0.769918 -0.467134 0.313758 0.0109061 -17.0263 -5.86152 -0.689778 -19.9883);
        value           nonuniform List<scalar> 10(1560.31 1532.27 1517.76 1515.63 1524.64 2136.39 2127.5 2129.84 2144.53 2172.63);
    }
    ChannelWall
    {
        type            fixedFluxPressure;
        gradient        uniform 0;
        value           nonuniform List<scalar> 
110
(
1524.64
1376.46
1330.01
1314.49
1335.22
2136.39
1987.92
1937.09
1912.34
1866.28
2172.63
1994.4
1944.3
1928.96
1892.35
1990.58
1771.27
2376.78
2777.64
539.207
388.913
348.678
242.765
234.288
243.396
288.034
273.669
244.372
238.768
247.137
217.332
214.561
212.247
208.67
204.188
207.49
204.587
257.752
230.67
205.647
204.686
213.046
204.676
138.795
112.893
102.23
95.2061
88.8067
82.8331
77.9883
74.9453
64.6907
64.294
57.7264
50.1959
55.4212
24.3862
4.94764
1.19671
-0.504745
1560.31
1380.84
1330.33
1302.41
1268.62
1267.07
1201.22
909.807
1446.45
467.933
349.65
224.168
309.912
275.597
254.622
242.075
233.768
228.529
223.436
217.469
211.422
205.698
200.118
193.255
185.454
173.914
166.339
171.091
171.494
165.193
153.175
127.677
99.5387
94.4839
92.1474
88.245
85.1818
83.1709
80.8675
77.6185
73.7941
69.1638
130.579
180.266
190.76
162.9
89.8844
19.1791
11.6696
6.54789
)
;
    }
    Outlet
    {
        type            totalPressure;
        rho             rho;
        psi             none;
        gamma           1;
        p0              uniform 0;
        value           uniform 0;
    }
    FrontAndBack
    {
        type            empty;
    }
}


// ************************************************************************* //
