/*--------------------------------*- C++ -*----------------------------------*\
| =========                 |                                                 |
| \\      /  F ield         | OpenFOAM: The Open Source CFD Toolbox           |
|  \\    /   O peration     | Version:  2.3.0                                 |
|   \\  /    A nd           | Web:      www.OpenFOAM.org                      |
|    \\/     M anipulation  |                                                 |
\*---------------------------------------------------------------------------*/
FoamFile
{
    version     2.0;
    format      ascii;
    class       surfaceScalarField;
    location    "0.008";
    object      phi;
}
// * * * * * * * * * * * * * * * * * * * * * * * * * * * * * * * * * * * * * //

dimensions      [0 3 -1 0 0 0 0];

internalField   nonuniform List<scalar> 
1380
(
3.13382e-13
1.86618e-13
2.73022e-13
4.03599e-14
2.68249e-13
4.7727e-15
1.30277e-13
1.37972e-13
-1.00997e-13
2.31274e-13
5.98644e-13
8.79735e-14
6.10564e-13
2.84394e-14
5.83679e-13
3.16577e-14
3.41271e-13
3.8038e-13
-1.98232e-13
4.38507e-13
6.82498e-13
-9.45247e-14
7.2721e-13
-1.62726e-14
7.13065e-13
4.58027e-14
6.13542e-13
4.79903e-13
-5.00068e-13
9.15378e-13
5.97694e-13
-1.92219e-13
6.14208e-13
-3.27861e-14
6.21669e-13
3.83421e-14
7.44941e-13
3.56632e-13
-3.55602e-13
6.00474e-13
3.07781e-13
2.74995e-13
3.13337e-13
6.69969e-13
3.14367e-13
-9.8773e-13
1.219e-12
-2.99083e-12
2.0031e-12
-9.40481e-12
6.41398e-12
-4.63985e-12
-4.76497e-12
-1.12208e-12
-3.51777e-12
1.7503e-13
-1.29711e-12
1.61032e-12
-1.43529e-12
1.74101e-12
-1.3069e-13
1.04557e-12
6.95439e-13
4.57835e-13
5.87737e-13
2.21411e-13
2.36424e-13
1.62158e-13
5.92525e-14
1.56596e-13
5.56217e-15
1.5462e-13
1.97599e-15
1.49301e-13
5.31865e-15
1.42986e-13
6.31567e-15
1.39171e-13
3.81446e-15
1.38693e-13
4.78207e-16
1.39927e-13
-1.23373e-15
1.41603e-13
-1.67622e-15
1.44009e-13
-2.40604e-15
1.45922e-13
-1.91325e-15
1.45967e-13
-4.48368e-17
1.44162e-13
1.80525e-15
1.41447e-13
2.71539e-15
1.40139e-13
1.30805e-15
1.40596e-13
-4.57411e-16
1.41731e-13
-1.13465e-15
1.42527e-13
-7.96581e-16
1.42309e-13
2.18835e-16
1.41979e-13
3.30034e-16
1.42149e-13
-1.7036e-16
1.43142e-13
-9.92713e-16
1.43833e-13
-6.91545e-16
1.44572e-13
-7.38241e-16
1.4527e-13
-6.98618e-16
1.45727e-13
-4.57133e-16
1.45944e-13
-2.17434e-16
1.45999e-13
-5.41739e-17
1.45945e-13
5.3345e-17
1.4581e-13
1.34954e-16
1.456e-13
2.10108e-16
1.45327e-13
2.72996e-16
1.45112e-13
2.14947e-16
3.52051e-16
-1.57249e-12
3.23e-12
-3.29788e-12
3.7285e-12
-6.95004e-12
1.00661e-11
-6.85697e-12
-4.85803e-12
-3.53845e-12
-6.83629e-12
2.63048e-13
-5.09861e-12
2.77501e-12
-3.94725e-12
2.97241e-12
-3.28095e-13
2.25686e-12
1.41099e-12
1.24416e-12
1.60043e-12
6.55851e-13
8.24736e-13
4.6813e-13
2.46974e-13
4.32334e-13
4.13581e-14
4.17346e-13
1.69637e-14
3.99289e-13
2.33754e-14
3.81756e-13
2.38482e-14
3.71036e-13
1.45352e-14
3.68267e-13
3.24648e-15
3.69807e-13
-2.77394e-15
3.72973e-13
-4.84156e-15
3.77776e-13
-7.20894e-15
3.81761e-13
-5.89732e-15
3.82076e-13
-3.60181e-16
3.78682e-13
5.19986e-15
3.73642e-13
7.75494e-15
3.71142e-13
3.80811e-15
3.72051e-13
-1.36683e-15
3.7447e-13
-3.55284e-15
3.76252e-13
-2.57895e-15
3.76042e-13
4.29425e-16
3.75484e-13
8.88031e-16
3.75935e-13
-6.21966e-16
3.77913e-13
-2.96997e-15
3.79474e-13
-2.25265e-15
3.8101e-13
-2.27484e-15
3.8241e-13
-2.09843e-15
3.83318e-13
-1.36567e-15
3.83733e-13
-6.32672e-16
3.83814e-13
-1.35437e-16
3.83682e-13
1.85729e-16
3.83395e-13
4.21551e-16
3.82972e-13
6.33192e-16
3.82423e-13
8.21631e-16
3.81731e-13
9.07535e-16
7.04234e-16
-5.68615e-13
4.71399e-12
-8.44084e-13
4.00397e-12
5.89804e-12
3.32401e-12
2.99769e-12
-1.95768e-12
-1.26387e-12
-2.57473e-12
6.93528e-13
-7.05601e-12
1.17133e-12
-4.42505e-12
1.76226e-12
-9.19026e-13
2.24451e-12
9.28744e-13
1.58221e-12
2.26273e-12
9.65582e-13
1.44137e-12
7.05384e-13
5.07171e-13
6.43633e-13
1.03109e-13
6.1823e-13
4.23674e-14
5.93403e-13
4.82019e-14
5.69164e-13
4.80871e-14
5.54889e-13
2.88106e-14
5.49933e-13
8.20231e-15
5.51031e-13
-3.87206e-15
5.54259e-13
-8.06921e-15
5.59985e-13
-1.29345e-14
5.6511e-13
-1.1023e-14
5.65785e-13
-1.03418e-15
5.62048e-13
8.93633e-15
5.56218e-13
1.35855e-14
5.53281e-13
6.74456e-15
5.54268e-13
-2.35374e-15
5.5725e-13
-6.53403e-15
5.59642e-13
-4.97181e-15
5.59376e-13
6.96079e-16
5.58545e-13
1.7191e-15
5.5896e-13
-1.03708e-15
5.61345e-13
-5.35473e-15
5.6306e-13
-3.96853e-15
5.64693e-13
-3.90794e-15
5.66155e-13
-3.55969e-15
5.67046e-13
-2.25675e-15
5.67389e-13
-9.76652e-16
5.67397e-13
-1.42863e-16
5.67219e-13
3.63393e-16
5.66922e-13
7.18187e-16
5.6652e-13
1.03548e-15
5.66003e-13
1.33875e-15
5.65341e-13
1.5691e-15
1.0723e-15
-1.14726e-12
6.46172e-12
3.19553e-12
-3.38819e-13
1.46069e-11
-8.08733e-12
1.02061e-11
2.44304e-12
1.66256e-12
5.96886e-12
8.83727e-13
-6.27718e-12
-6.99873e-13
-2.84145e-12
1.03863e-12
-2.65752e-12
2.02634e-12
-5.89672e-14
1.68465e-12
2.60442e-12
1.13816e-12
1.98786e-12
8.60249e-13
7.85082e-13
7.8258e-13
1.80778e-13
7.50055e-13
7.48924e-14
7.25903e-13
7.23543e-14
7.02008e-13
7.19818e-14
6.87107e-13
4.37111e-14
6.82224e-13
1.30853e-14
6.8277e-13
-4.41787e-15
6.85062e-13
-1.03608e-14
6.9068e-13
-1.85529e-14
6.96316e-13
-1.66585e-14
6.97211e-13
-1.92897e-15
6.93785e-13
1.23621e-14
6.89781e-13
1.75894e-14
6.86563e-13
9.96287e-15
6.86931e-13
-2.72246e-15
6.90023e-13
-9.62535e-15
6.92847e-13
-7.79566e-15
6.92342e-13
1.20087e-15
6.91079e-13
2.98229e-15
6.91134e-13
-1.09227e-15
6.93538e-13
-7.7585e-15
6.94667e-13
-5.09769e-15
6.9571e-13
-4.95156e-15
6.96612e-13
-4.46089e-15
6.97001e-13
-2.64674e-15
6.96981e-13
-9.55769e-16
6.96795e-13
4.30792e-17
6.96589e-13
5.68516e-16
6.96409e-13
8.98534e-16
6.96252e-13
1.19258e-15
6.96088e-13
1.50202e-15
6.95796e-13
1.86108e-15
1.23989e-15
-2.96122e-14
6.8057e-12
4.79354e-12
-5.16198e-12
-6.58796e-12
3.29418e-12
-3.76112e-12
-3.83794e-13
-4.39246e-12
6.6002e-12
3.97285e-12
-1.46425e-11
-1.26148e-12
2.39288e-12
9.02952e-13
-4.82196e-12
2.03168e-12
-1.1877e-12
1.65291e-12
2.98319e-12
1.17606e-12
2.46471e-12
9.29612e-13
1.03153e-12
8.46481e-13
2.6391e-13
8.16241e-13
1.05132e-13
7.95839e-13
9.27561e-14
7.77147e-13
9.06741e-14
7.66561e-13
5.4297e-14
7.63805e-13
1.58417e-14
7.64624e-13
-5.23739e-15
7.65799e-13
-1.15358e-14
7.69098e-13
-2.18507e-14
7.73946e-13
-2.15075e-14
7.74643e-13
-2.62608e-15
7.71598e-13
1.54075e-14
7.68316e-13
2.08715e-14
7.67123e-13
1.11558e-14
7.68625e-13
-4.22433e-15
7.722e-13
-1.31999e-14
7.75634e-13
-1.12306e-14
7.74815e-13
2.02038e-15
7.73071e-13
4.72604e-15
7.72564e-13
-5.85114e-16
7.74568e-13
-9.76226e-15
7.74391e-13
-4.92065e-15
7.74199e-13
-4.76026e-15
7.73895e-13
-4.1562e-15
7.733e-13
-2.05242e-15
7.72631e-13
-2.86899e-16
7.72134e-13
5.40265e-16
7.71905e-13
7.97863e-16
7.71938e-13
8.653e-16
7.72208e-13
9.22581e-16
7.72734e-13
9.76443e-16
7.7337e-13
1.22433e-15
1.07919e-15
5.75618e-13
6.43008e-12
2.63706e-12
-7.22342e-12
5.75788e-12
1.73351e-13
2.98614e-12
2.38794e-12
-6.1286e-13
1.01992e-11
2.59477e-13
-1.55148e-11
-4.91315e-13
3.14367e-12
3.01621e-13
-5.61489e-12
4.59142e-13
-1.34522e-12
3.32768e-13
3.10956e-12
2.36987e-13
2.56049e-12
2.02711e-13
1.06581e-12
1.86699e-13
2.79923e-13
1.80868e-13
1.10963e-13
1.7804e-13
9.55837e-14
1.7568e-13
9.30348e-14
1.74266e-13
5.57103e-14
1.73913e-13
1.61952e-14
1.74018e-13
-5.34269e-15
1.74089e-13
-1.16068e-14
1.74732e-13
-2.2493e-14
1.75877e-13
-2.26531e-14
1.76286e-13
-3.03491e-15
1.75717e-13
1.5976e-14
1.75018e-13
2.15708e-14
1.74717e-13
1.14574e-14
1.74996e-13
-4.5041e-15
1.75804e-13
-1.4007e-14
1.76543e-13
-1.19697e-14
1.76461e-13
2.10217e-15
1.76029e-13
5.15835e-15
1.7592e-13
-4.76637e-16
1.761e-13
-9.94196e-15
1.75931e-13
-4.75147e-15
1.75586e-13
-4.41612e-15
1.75258e-13
-3.82744e-15
1.74934e-13
-1.72872e-15
1.74666e-13
-1.8952e-17
1.74499e-13
7.06744e-16
1.74444e-13
8.5294e-16
1.74489e-13
8.20643e-16
1.74627e-13
7.84611e-16
1.74853e-13
7.50398e-16
1.75202e-13
8.75411e-16
8.80037e-16
5.99146e-13
6.03094e-12
2.78528e-12
-9.40955e-12
1.3701e-11
-1.07424e-11
3.67379e-12
1.24151e-11
-1.539e-13
1.40269e-11
-2.71833e-12
-1.29504e-11
-1.59715e-15
4.26932e-13
3.74179e-13
-5.99067e-12
4.04737e-13
-1.37578e-12
3.10609e-13
3.20369e-12
2.26276e-13
2.64483e-12
1.99794e-13
1.09229e-12
1.85217e-13
2.945e-13
1.80138e-13
1.16041e-13
1.77895e-13
9.78265e-14
1.76018e-13
9.49121e-14
1.75059e-13
5.66694e-14
1.7487e-13
1.6384e-14
1.74979e-13
-5.45127e-15
1.74995e-13
-1.16231e-14
1.75516e-13
-2.30136e-14
1.76793e-13
-2.39306e-14
1.7723e-13
-3.47218e-15
1.76734e-13
1.64721e-14
1.7609e-13
2.22152e-14
1.75793e-13
1.17542e-14
1.7603e-13
-4.741e-15
1.76804e-13
-1.47811e-14
1.77535e-13
-1.27008e-14
1.77455e-13
2.1826e-15
1.77015e-13
5.59826e-15
1.7689e-13
-3.51742e-16
1.77002e-13
-1.00544e-14
1.76751e-13
-4.49984e-15
1.76303e-13
-3.96802e-15
1.75873e-13
-3.39774e-15
1.75473e-13
-1.32873e-15
1.75159e-13
2.94509e-16
1.74972e-13
8.94094e-16
1.74915e-13
9.09563e-16
1.74974e-13
7.61885e-16
1.7514e-13
6.1876e-16
1.75405e-13
4.85439e-16
1.75847e-13
4.33413e-16
6.10344e-16
-2.97488e-14
6.26068e-12
2.22227e-12
-1.16616e-11
-6.17133e-13
-7.90295e-12
5.40796e-13
1.12572e-11
1.31099e-12
1.32567e-11
-1.82171e-12
-9.81769e-12
6.01772e-13
-1.99655e-12
1.57557e-13
-5.54645e-12
3.14911e-13
-1.53313e-12
2.78492e-13
3.24011e-12
2.14045e-13
2.70927e-12
1.95728e-13
1.1106e-12
1.83027e-13
3.072e-13
1.78735e-13
1.20334e-13
1.77518e-13
9.90434e-14
1.76425e-13
9.60051e-14
1.75726e-13
5.73685e-14
1.75544e-13
1.6566e-14
1.75618e-13
-5.52464e-15
1.75542e-13
-1.15473e-14
1.75875e-13
-2.33465e-14
1.76982e-13
-2.50379e-14
1.77555e-13
-4.0457e-15
1.77179e-13
1.68481e-14
1.76612e-13
2.27825e-14
1.76335e-13
1.20317e-14
1.76535e-13
-4.94107e-15
1.77266e-13
-1.55122e-14
1.77986e-13
-1.34213e-14
1.77896e-13
2.27271e-15
1.77453e-13
6.04172e-15
1.77304e-13
-2.02548e-16
1.77347e-13
-1.00975e-14
1.77006e-13
-4.159e-15
1.76458e-13
-3.4206e-15
1.75918e-13
-2.85698e-15
1.75436e-13
-8.4679e-16
1.75081e-13
6.49028e-16
1.74881e-13
1.0944e-15
1.74831e-13
9.60025e-16
1.7491e-13
6.82514e-16
1.75107e-13
4.21454e-16
1.75414e-13
1.79107e-16
1.75876e-13
-2.86283e-17
1.49791e-16
8.6608e-13
5.5946e-12
4.09153e-13
-1.12046e-11
-2.14894e-12
-5.34486e-12
1.9421e-12
7.16617e-12
2.3738e-12
1.2825e-11
5.40954e-13
-7.98485e-12
8.02811e-13
-2.2584e-12
1.80573e-14
-4.7617e-12
2.11792e-13
-1.72687e-12
2.4035e-13
3.21155e-12
1.99956e-13
2.74967e-12
1.90559e-13
1.12e-12
1.8013e-13
3.17629e-13
1.76761e-13
1.23703e-13
1.76491e-13
9.93135e-14
1.76167e-13
9.63294e-14
1.75815e-13
5.77199e-14
1.75676e-13
1.6705e-14
1.75691e-13
-5.53969e-15
1.75509e-13
-1.13652e-14
1.75688e-13
-2.35254e-14
1.76671e-13
-2.60208e-14
1.77303e-13
-4.67815e-15
1.77061e-13
1.70904e-14
1.76587e-13
2.32564e-14
1.76337e-13
1.22822e-14
1.765e-13
-5.10396e-15
1.77182e-13
-1.61945e-14
1.77886e-13
-1.41255e-14
1.77786e-13
2.37254e-15
1.77343e-13
6.48451e-15
1.77167e-13
-2.56765e-17
1.77137e-13
-1.00684e-14
1.76712e-13
-3.73316e-15
1.76077e-13
-2.78588e-15
1.75526e-13
-2.30571e-15
1.75113e-13
-4.3406e-16
1.74845e-13
9.17225e-16
1.74717e-13
1.22197e-15
1.74719e-13
9.57766e-16
1.74831e-13
5.70638e-16
1.75043e-13
2.10274e-16
1.75344e-13
-1.22017e-16
1.7582e-13
-5.05206e-16
-1.43349e-16
9.76851e-13
4.81775e-12
-1.52599e-13
-1.00752e-11
1.78528e-12
-7.28274e-12
3.36158e-12
5.58988e-12
2.84922e-12
1.33373e-11
8.50038e-13
-5.98567e-12
1.27106e-13
-1.53547e-12
-3.19859e-14
-4.60261e-12
1.27198e-13
-1.88605e-12
1.99198e-13
3.13955e-12
1.84882e-13
2.76398e-12
1.84322e-13
1.12056e-12
1.76572e-13
3.25379e-13
1.74194e-13
1.2608e-13
1.74836e-13
9.86719e-14
1.75268e-13
9.58974e-14
1.75307e-13
5.76809e-14
1.75231e-13
1.67812e-14
1.75202e-13
-5.511e-15
1.74919e-13
-1.1082e-14
1.74936e-13
-2.35424e-14
1.75832e-13
-2.69174e-14
1.7649e-13
-5.33625e-15
1.76383e-13
1.7198e-14
1.76014e-13
2.36256e-14
1.75795e-13
1.25006e-14
1.75921e-13
-5.22992e-15
1.76545e-13
-1.68185e-14
1.77237e-13
-1.48175e-14
1.7712e-13
2.48997e-15
1.76672e-13
6.93186e-15
1.76501e-13
1.45353e-16
1.7635e-13
-9.91686e-15
1.75954e-13
-3.33774e-15
1.75404e-13
-2.23514e-15
1.749e-13
-1.80175e-15
1.74533e-13
-6.7038e-17
1.74311e-13
1.13859e-15
1.74216e-13
1.31713e-15
1.7423e-13
9.43702e-16
1.74335e-13
4.65641e-16
1.74523e-13
2.21386e-17
1.74789e-13
-3.87285e-16
1.75174e-13
-8.90851e-16
-3.65522e-16
3.034e-13
1.966e-13
2.62277e-13
4.11226e-14
2.36481e-13
2.5796e-14
3.07495e-13
-7.10134e-14
-1.5257e-13
4.60064e-13
5.94593e-13
1.02008e-13
6.03174e-13
3.25413e-14
5.56315e-13
7.26547e-14
5.58774e-13
-7.34725e-14
2.3829e-13
1.67914e-13
6.83796e-13
-8.17876e-14
7.26976e-13
-1.06397e-14
7.29245e-13
7.03859e-14
6.98645e-13
-4.28721e-14
3.13543e-13
6.23392e-13
6.02208e-13
-1.83996e-13
6.22451e-13
-3.08823e-14
6.47682e-13
4.51549e-14
5.95582e-13
9.2278e-15
1.77204e-13
7.31921e-13
3.16004e-13
2.85122e-13
3.30277e-13
3.39505e-13
5.16709e-13
3.19844e-12
2.07938e-12
-2.14566e-12
-4.73109e-12
-3.69836e-12
-5.73004e-12
1.10072e-11
-9.11567e-12
9.51208e-12
1.48325e-11
1.80364e-12
1.72278e-12
7.40206e-13
-4.7204e-13
-1.65953e-13
-3.69645e-12
-8.11861e-14
-1.97082e-12
3.70201e-13
2.68816e-12
6.5022e-13
2.48396e-12
7.40361e-13
1.03042e-12
7.41848e-13
3.23892e-13
7.44782e-13
1.23147e-13
7.59359e-13
8.40953e-14
7.69434e-13
8.58216e-14
7.75168e-13
5.19476e-14
7.7598e-13
1.59687e-14
7.75147e-13
-4.67792e-15
7.72765e-13
-8.69984e-15
7.7068e-13
-2.14571e-14
7.73283e-13
-2.95212e-14
7.77343e-13
-9.39629e-15
7.78228e-13
1.6313e-14
7.78056e-13
2.37974e-14
7.77539e-13
1.30174e-14
7.77683e-13
-5.37382e-15
7.79303e-13
-1.84384e-14
7.83279e-13
-1.87928e-14
7.82006e-13
3.76261e-15
7.798e-13
9.13835e-15
7.78494e-13
1.45037e-15
7.76311e-13
-7.73302e-15
7.75432e-13
-2.45883e-15
7.73774e-13
-5.77886e-16
7.72158e-13
-1.84968e-16
7.71185e-13
9.05814e-16
7.7076e-13
1.56393e-15
7.7069e-13
1.38667e-15
7.70862e-13
7.71724e-16
7.71221e-13
1.06612e-16
7.71745e-13
-5.01159e-16
7.72452e-13
-1.09491e-15
7.73203e-13
-1.6411e-15
-6.86233e-16
7.06951e-13
1.54034e-12
1.53757e-13
-4.17789e-12
1.66152e-13
-5.74243e-12
-5.84427e-13
-8.3651e-12
2.44779e-12
1.18003e-11
5.32277e-13
3.63828e-12
1.86165e-12
-1.80142e-12
-5.94587e-13
-1.24021e-12
-1.16457e-12
-1.40084e-12
-3.25025e-13
1.84862e-12
3.03375e-13
1.85556e-12
5.47829e-13
7.85965e-13
6.12086e-13
2.59636e-13
6.4056e-13
9.46724e-14
6.65331e-13
5.93245e-14
6.89662e-13
6.14908e-14
7.03733e-13
3.78767e-14
7.06306e-13
1.33956e-14
7.0524e-13
-3.61176e-15
7.02663e-13
-6.12338e-15
6.97979e-13
-1.67729e-14
6.93676e-13
-2.52185e-14
6.97378e-13
-1.30979e-14
7.02319e-13
1.1372e-14
7.06066e-13
2.00496e-14
7.07171e-13
1.19126e-14
7.04292e-13
-2.49517e-15
7.03771e-13
-1.79176e-14
7.03685e-13
-1.87061e-14
7.00748e-13
6.69983e-15
7.00897e-13
8.98886e-15
7.00204e-13
2.14327e-15
6.9723e-13
-4.75934e-15
6.96318e-13
-1.54645e-15
6.95623e-13
1.17433e-16
6.9499e-13
4.47524e-16
6.94826e-13
1.07066e-15
6.95019e-13
1.37027e-15
6.95313e-13
1.09301e-15
6.95562e-13
5.22658e-16
6.95734e-13
-6.48635e-17
6.95832e-13
-5.99219e-16
6.95834e-13
-1.09717e-15
6.95647e-13
-1.45385e-15
-6.77235e-16
1.1925e-12
9.71233e-13
1.34509e-14
-2.99884e-12
2.62633e-12
-8.35531e-12
-3.23389e-12
-2.50487e-12
-6.40726e-13
9.20708e-12
7.20728e-13
2.27683e-12
2.30727e-12
-3.38796e-12
-8.42131e-14
1.15127e-12
-1.25733e-12
-2.27722e-13
-6.7117e-13
1.26247e-12
4.71562e-14
1.13724e-12
3.59363e-13
4.73759e-13
4.58939e-13
1.6006e-13
5.01696e-13
5.19147e-14
5.3371e-13
2.73112e-14
5.62053e-13
3.31477e-14
5.79659e-13
2.02699e-14
5.85819e-13
7.23613e-15
5.83696e-13
-1.48897e-15
5.80621e-13
-3.04823e-15
5.73435e-13
-9.587e-15
5.65918e-13
-1.77015e-14
5.6396e-13
-1.11401e-14
5.66852e-13
8.47973e-15
5.73005e-13
1.38966e-14
5.76959e-13
7.95867e-15
5.75887e-13
-1.42346e-15
5.6933e-13
-1.13608e-14
5.62082e-13
-1.14579e-14
5.64651e-13
4.13136e-15
5.67544e-13
6.09518e-15
5.68047e-13
1.64076e-15
5.65771e-13
-2.48375e-15
5.64938e-13
-7.13601e-16
5.64783e-13
2.72222e-16
5.64787e-13
4.44301e-16
5.65112e-13
7.45261e-16
5.65631e-13
8.51574e-16
5.66085e-13
6.39246e-16
5.66333e-13
2.74288e-16
5.66359e-13
-9.01768e-17
5.66179e-13
-4.19075e-16
5.65791e-13
-7.09199e-16
5.65214e-13
-8.76357e-16
-4.61701e-16
1.02846e-12
6.74694e-13
-7.63045e-13
-1.20734e-12
-3.11915e-12
-5.99921e-12
-6.12607e-12
5.02046e-13
-1.17125e-12
4.25226e-12
4.19438e-13
6.86144e-13
-1.12262e-12
-1.8459e-12
-9.20186e-13
9.4884e-13
-1.50122e-12
3.53314e-13
-8.04163e-13
5.65407e-13
-1.05382e-13
4.38457e-13
1.94199e-13
1.74177e-13
2.97638e-13
5.6621e-14
3.36618e-13
1.2934e-14
3.56993e-13
6.93635e-15
3.80767e-13
9.37382e-15
3.94807e-13
6.22972e-15
3.99896e-13
2.14747e-15
3.98775e-13
-3.67761e-16
3.96327e-13
-6.00129e-16
3.89852e-13
-3.11239e-15
3.78763e-13
-6.61293e-15
3.72074e-13
-4.45139e-15
3.77325e-13
3.22944e-15
3.85956e-13
5.26534e-15
3.91033e-13
2.88109e-15
3.90121e-13
-5.11088e-16
3.82979e-13
-4.21937e-15
3.75845e-13
-4.32348e-15
3.78279e-13
1.69766e-15
3.82103e-13
2.27076e-15
3.83146e-13
5.97784e-16
3.8155e-13
-8.87808e-16
3.81016e-13
-1.80022e-16
3.81143e-13
1.45349e-16
3.81411e-13
1.76779e-16
3.81886e-13
2.70043e-16
3.82444e-13
2.94309e-16
3.82871e-13
2.12258e-16
3.83061e-13
8.42899e-17
3.8301e-13
-3.95859e-17
3.82743e-13
-1.52063e-16
3.82276e-13
-2.41685e-16
3.81631e-13
-2.31243e-16
-2.47799e-16
1.1914e-12
-1.59362e-14
-6.01515e-12
-5.5131e-12
-1.26085e-12
-5.74701e-13
-2.4206e-12
-1.47175e-12
-1.11844e-12
-5.53034e-13
-1.14577e-13
5.96001e-14
1.16221e-13
1.29155e-13
1.36091e-13
1.45465e-13
1.51695e-13
1.53842e-13
1.53475e-13
1.52874e-13
1.49762e-13
1.43149e-13
1.38697e-13
1.41927e-13
1.47192e-13
1.50073e-13
1.49562e-13
1.45343e-13
1.41019e-13
1.42717e-13
1.44988e-13
1.45585e-13
1.44698e-13
1.44518e-13
1.44663e-13
1.4484e-13
1.4511e-13
1.45404e-13
1.45617e-13
1.45701e-13
1.45661e-13
1.45509e-13
1.45268e-13
1.45037e-13
)
;

boundaryField
{
    AirInlet
    {
        type            calculated;
        value           nonuniform List<scalar> 5(-2e-13 -2e-13 -2e-13 -2e-13 -2e-13);
    }
    WaterInlet
    {
        type            calculated;
        value           nonuniform List<scalar> 10(-5e-13 -5e-13 -5e-13 -5e-13 -5e-13 -5e-13 -5e-13 -5e-13 -5e-13 -5e-13);
    }
    ChannelWall
    {
        type            calculated;
        value           uniform 0;
    }
    Outlet
    {
        type            calculated;
        value           nonuniform List<scalar> 
15
(
1.4476e-13
3.81378e-13
5.64973e-13
6.95629e-13
7.73531e-13
1.75401e-13
1.76117e-13
1.76336e-13
1.76113e-13
1.75397e-13
7.73523e-13
6.95638e-13
5.64998e-13
3.81417e-13
1.44789e-13
)
;
    }
    FrontAndBack
    {
        type            empty;
        value           nonuniform 0();
    }
}


// ************************************************************************* //
