/*--------------------------------*- C++ -*----------------------------------*\
| =========                 |                                                 |
| \\      /  F ield         | OpenFOAM: The Open Source CFD Toolbox           |
|  \\    /   O peration     | Version:  2.3.0                                 |
|   \\  /    A nd           | Web:      www.OpenFOAM.org                      |
|    \\/     M anipulation  |                                                 |
\*---------------------------------------------------------------------------*/
FoamFile
{
    version     2.0;
    format      ascii;
    class       surfaceScalarField;
    location    "0.008";
    object      phi;
}
// * * * * * * * * * * * * * * * * * * * * * * * * * * * * * * * * * * * * * //

dimensions      [0 3 -1 0 0 0 0];

internalField   nonuniform List<scalar> 
1380
(
1.32585e-12
6.74155e-13
1.12597e-12
1.99874e-13
1.10788e-12
1.80881e-14
1.21249e-12
-1.04608e-13
-2.01671e-13
1.41416e-12
2.41159e-12
2.62567e-13
2.50877e-12
1.02695e-13
2.56872e-12
-4.18673e-14
2.6943e-12
-2.30188e-13
-4.95204e-13
2.98784e-12
2.67887e-12
-4.16301e-13
2.93085e-12
-1.49284e-13
3.01246e-12
-1.2348e-13
3.09173e-12
-3.09459e-13
-5.9567e-13
3.1922e-12
2.34871e-12
-7.65008e-13
2.41076e-12
-2.11337e-13
2.39097e-12
-1.03692e-13
2.35401e-12
-2.72499e-13
-1.02384e-12
2.78218e-12
1.23499e-12
1.02365e-12
9.19963e-13
6.47465e-13
-3.76376e-13
2.08503e-12
-6.70865e-13
1.92197e-12
1.63061e-13
2.62677e-12
-7.04799e-13
7.06424e-12
-4.43748e-12
1.17209e-12
5.89216e-12
-1.34475e-12
2.51684e-12
-7.13148e-13
-6.31601e-13
3.4589e-13
-1.05904e-12
6.57938e-13
-3.12047e-13
6.61202e-13
-3.26397e-15
6.03188e-13
5.80144e-14
5.62652e-13
4.05351e-14
5.75718e-13
-1.30655e-14
6.03978e-13
-2.826e-14
6.07374e-13
-3.39543e-15
5.93295e-13
1.40784e-14
5.83562e-13
9.73313e-15
5.92417e-13
-8.8551e-15
6.1238e-13
-1.99629e-14
5.97049e-13
1.53313e-14
5.05128e-13
9.19205e-14
4.22339e-13
8.27895e-14
4.56404e-13
-3.40653e-14
5.31619e-13
-7.52145e-14
7.31398e-13
-1.99779e-13
9.40955e-13
-2.09557e-13
9.39311e-13
1.64335e-15
7.0968e-13
2.29631e-13
5.51291e-13
1.58388e-13
4.90403e-13
6.08879e-14
4.68523e-13
2.18806e-14
4.5877e-13
9.75222e-15
4.62068e-13
-3.2975e-15
4.8241e-13
-2.0342e-14
5.73091e-13
-9.06804e-14
9.53814e-13
-3.80723e-13
1.82779e-12
-8.73981e-13
1.75751e-12
7.02889e-14
1.13083e-12
6.26678e-13
1.26724e-12
-1.36409e-13
1.07904e-12
1.88196e-13
6.49187e-13
4.29853e-13
3.38626e-13
3.10561e-13
3.36985e-13
1.64097e-15
-5.42631e-14
4.24323e-12
-1.92626e-12
7.0453e-12
-2.639e-12
9.5823e-12
-3.2418e-12
6.15814e-12
-1.01331e-12
9.88932e-13
1.10614e-11
-2.00894e-12
5.51471e-12
1.66936e-13
-2.80748e-12
1.24186e-12
-2.13396e-12
1.51462e-12
-5.84806e-13
1.53623e-12
-2.4873e-14
1.47668e-12
1.1757e-13
1.42229e-12
9.49225e-14
1.45295e-12
-4.37242e-14
1.51513e-12
-9.04396e-14
1.53672e-12
-2.49847e-14
1.51398e-12
3.68188e-14
1.48437e-12
3.93383e-14
1.50501e-12
-2.94999e-14
1.55191e-12
-6.68561e-14
1.51538e-12
5.1856e-14
1.35698e-12
2.50328e-13
1.19268e-12
2.47088e-13
1.22883e-12
-7.0215e-14
1.36052e-12
-2.06906e-13
1.69848e-12
-5.37744e-13
2.05434e-12
-5.65414e-13
2.07921e-12
-2.32231e-14
1.70866e-12
6.00178e-13
1.42502e-12
4.42027e-13
1.30144e-12
1.84464e-13
1.25978e-12
6.35427e-14
1.24871e-12
2.08257e-14
1.25519e-12
-9.7775e-15
1.26507e-12
-3.02238e-14
1.35258e-12
-1.7819e-13
1.69188e-12
-7.20019e-13
2.24414e-12
-1.42624e-12
1.79444e-12
5.19984e-13
1.81846e-12
6.02656e-13
2.22752e-12
-5.45467e-13
1.40648e-12
1.00923e-12
8.13923e-13
1.02241e-12
7.97401e-13
3.27084e-13
9.4519e-13
-1.46148e-13
-1.67039e-13
4.41967e-12
-3.15374e-12
5.77926e-12
-3.99859e-12
-3.7171e-12
6.25456e-12
-4.05407e-12
-6.76342e-13
-5.52208e-13
7.5595e-12
-1.80268e-14
4.98053e-12
2.02542e-12
-4.85092e-12
2.58815e-12
-2.6967e-12
2.29275e-12
-2.89411e-13
2.23227e-12
3.56094e-14
2.21625e-12
1.33591e-13
2.14811e-12
1.63064e-13
2.14917e-12
-4.47833e-14
2.19872e-12
-1.39995e-13
2.22747e-12
-5.37303e-14
2.21827e-12
4.60125e-14
2.19303e-12
6.45804e-14
2.22899e-12
-6.54583e-14
2.25434e-12
-9.22022e-14
2.22081e-12
8.53802e-14
2.00674e-12
4.64399e-13
1.76135e-12
4.92477e-13
1.77004e-12
-7.88998e-14
1.89807e-12
-3.3494e-13
2.22167e-12
-8.61344e-13
2.62533e-12
-9.69078e-13
2.64813e-12
-4.60218e-14
2.19589e-12
1.05242e-12
1.95028e-12
6.87636e-13
1.88174e-12
2.53003e-13
1.86755e-12
7.77292e-14
1.86752e-12
2.08616e-14
1.8815e-12
-2.37648e-14
1.87831e-12
-2.70266e-14
1.86779e-12
-1.67673e-13
1.92091e-12
-7.73139e-13
2.075e-12
-1.58034e-12
1.59916e-12
9.95821e-13
1.86317e-12
3.38652e-13
2.46687e-12
-1.14917e-12
1.75278e-12
1.72333e-12
9.85911e-13
1.78928e-12
1.19317e-12
1.19828e-13
1.52007e-12
-4.73049e-13
-3.17043e-13
2.65607e-12
-3.02763e-12
-3.56343e-12
2.2209e-12
-9.16389e-12
1.1855e-11
-6.9004e-13
-9.15019e-12
-8.4469e-13
7.71415e-12
1.84384e-12
2.292e-12
3.78075e-12
-6.78784e-12
3.72412e-12
-2.64006e-12
2.82015e-12
6.14559e-13
2.7078e-12
1.4796e-13
2.79642e-12
4.497e-14
2.74537e-12
2.14118e-13
2.69823e-12
2.36036e-15
2.69071e-12
-1.32479e-13
2.69502e-12
-5.80405e-14
2.69419e-12
4.68476e-14
2.67582e-12
8.2945e-14
2.68841e-12
-7.80514e-14
2.72197e-12
-1.25761e-13
2.72281e-12
8.45464e-14
2.47889e-12
7.08313e-13
2.11061e-12
8.60758e-13
2.10266e-12
-7.09498e-14
2.1585e-12
-3.90782e-13
2.34458e-12
-1.04742e-12
2.74916e-12
-1.37366e-12
2.70537e-12
-2.23903e-15
2.11467e-12
1.64313e-12
2.15972e-12
6.4259e-13
2.23652e-12
1.762e-13
2.29333e-12
2.09146e-14
2.33404e-12
-1.98499e-14
2.34566e-12
-3.53772e-14
2.31622e-12
2.41147e-15
2.21607e-12
-6.7528e-14
1.96475e-12
-5.21816e-13
1.68149e-12
-1.29708e-12
1.52491e-12
1.1524e-12
1.73537e-12
1.28192e-13
2.08929e-12
-1.50309e-12
1.42764e-12
2.38498e-12
1.04434e-12
2.17258e-12
1.58248e-12
-4.18315e-13
2.02945e-12
-9.20019e-13
-4.62685e-13
-5.69642e-12
2.29242e-12
-1.76245e-11
1.41489e-11
-4.70006e-12
-1.06937e-12
-5.84664e-12
-8.00361e-12
-2.53277e-12
4.40027e-12
3.4223e-12
-3.66307e-12
5.59375e-12
-8.95929e-12
4.80773e-12
-1.85404e-12
3.16758e-12
2.2547e-12
2.94075e-12
3.7479e-13
3.10979e-12
-1.24071e-13
3.09481e-12
2.291e-13
3.04645e-12
5.07127e-14
2.98998e-12
-7.60081e-14
2.9525e-12
-2.05574e-14
2.93182e-12
6.75255e-14
2.89524e-12
1.1953e-13
2.8502e-12
-3.30148e-14
2.90584e-12
-1.814e-13
2.9565e-12
3.38901e-14
2.75867e-12
9.06134e-13
2.26675e-12
1.35268e-12
2.25443e-12
-5.8627e-14
2.2655e-12
-4.01851e-13
2.12568e-12
-9.07598e-13
2.46495e-12
-1.71293e-12
2.28563e-12
1.77077e-13
1.68457e-12
2.24419e-12
2.13916e-12
1.88001e-13
2.46146e-12
-1.46097e-13
2.58031e-12
-9.79336e-14
2.62775e-12
-6.72889e-14
2.64627e-12
-5.39001e-14
2.6171e-12
3.1578e-14
2.48573e-12
6.38471e-14
2.01385e-12
-4.99342e-14
1.41345e-12
-6.9668e-13
1.44896e-12
1.11689e-12
1.80397e-12
-2.26818e-13
1.05415e-12
-7.53274e-13
1.14225e-13
3.3249e-12
1.20387e-12
1.08293e-12
2.07111e-12
-1.28555e-12
2.47562e-12
-1.32453e-12
-5.68034e-13
-2.07528e-12
4.52769e-12
2.60995e-12
9.46369e-12
9.92471e-13
5.48113e-13
-2.18187e-12
-4.82927e-12
3.26311e-13
1.89209e-12
1.20795e-12
-4.54471e-12
1.06878e-12
-8.82012e-12
8.96654e-13
-1.68191e-12
6.80895e-13
2.47046e-12
6.61796e-13
3.93888e-13
6.84365e-13
-1.46639e-13
6.84493e-13
2.28972e-13
6.80901e-13
5.43045e-14
6.73032e-13
-6.81392e-14
6.62064e-13
-9.58896e-15
6.52891e-13
7.66985e-14
6.4115e-13
1.31271e-13
6.29264e-13
-2.1129e-14
6.26155e-13
-1.78291e-13
6.3675e-13
2.32958e-14
6.19706e-13
9.23178e-13
5.32208e-13
1.44018e-12
4.79338e-13
-5.7571e-15
4.87756e-13
-4.10269e-13
4.47071e-13
-8.66914e-13
3.90881e-13
-1.65674e-12
3.49146e-13
2.18811e-13
2.69034e-13
2.3243e-12
4.3437e-13
2.26641e-14
5.61628e-13
-2.73354e-13
5.98971e-13
-1.35277e-13
6.05508e-13
-7.38261e-14
6.11272e-13
-5.96643e-14
6.15869e-13
2.69815e-14
5.81233e-13
9.84822e-14
4.69115e-13
6.21841e-14
3.27377e-13
-5.54942e-13
3.43678e-13
1.10059e-12
5.03831e-13
-3.86971e-13
1.54766e-13
-4.04209e-13
-4.76918e-14
3.52736e-12
3.92123e-13
6.43118e-13
5.53574e-13
-1.447e-12
5.97802e-13
-1.36875e-12
-5.81181e-13
-1.99409e-12
6.68178e-12
3.31237e-12
4.15724e-12
1.077e-11
-6.90947e-12
9.03004e-13
5.03768e-12
5.97171e-13
2.19792e-12
1.16442e-12
-5.11196e-12
9.15875e-13
-8.57157e-12
7.62245e-13
-1.52828e-12
6.72628e-13
2.56008e-12
6.61356e-13
4.05161e-13
6.77005e-13
-1.62288e-13
6.77962e-13
2.28015e-13
6.78901e-13
5.3365e-14
6.73113e-13
-6.23507e-14
6.61307e-13
2.21683e-15
6.51083e-13
8.6922e-14
6.37341e-13
1.45013e-13
6.24788e-13
-8.57562e-15
6.15809e-13
-1.69312e-13
6.17366e-13
2.17389e-14
6.25107e-13
9.15438e-13
5.61605e-13
1.50368e-12
4.63545e-13
9.23029e-14
4.69102e-13
-4.15826e-13
4.50278e-13
-8.48091e-13
3.89235e-13
-1.59569e-12
2.91631e-13
3.16415e-13
1.91754e-13
2.42418e-12
4.56155e-13
-2.41737e-13
5.71678e-13
-3.88877e-13
6.05969e-13
-1.69568e-13
6.13248e-13
-8.11051e-14
6.18054e-13
-6.447e-14
6.27793e-13
1.72419e-14
5.92498e-13
1.33777e-13
4.79252e-13
1.7543e-13
3.56385e-13
-4.32075e-13
3.34563e-13
1.12242e-12
3.53107e-13
-4.05515e-13
1.74269e-13
-2.25371e-13
1.06291e-13
3.59534e-12
4.55172e-13
2.94238e-13
5.85719e-13
-1.57755e-12
6.13425e-13
-1.39646e-12
-5.89987e-13
-1.71761e-12
8.5594e-12
3.89322e-12
-1.45359e-12
9.18654e-12
-1.22028e-11
4.05279e-13
1.38189e-11
9.68027e-13
1.63518e-12
1.1955e-12
-5.33943e-12
8.80731e-13
-8.2568e-12
6.6291e-13
-1.31046e-12
6.5987e-13
2.56312e-12
6.57218e-13
4.07813e-13
6.66109e-13
-1.7118e-13
6.66453e-13
2.2767e-13
6.73311e-13
4.65078e-14
6.7039e-13
-5.94302e-14
6.57336e-13
1.52715e-14
6.45658e-13
9.85992e-14
6.33372e-13
1.57299e-13
6.18521e-13
6.27568e-15
6.05437e-13
-1.56228e-13
6.0035e-13
2.68254e-14
5.86784e-13
9.29004e-13
5.49009e-13
1.54146e-12
4.6621e-13
1.75102e-13
4.79385e-13
-4.29001e-13
4.56585e-13
-8.2529e-13
3.85798e-13
-1.52491e-12
2.86551e-13
4.15663e-13
3.44998e-13
2.36573e-12
4.97373e-13
-3.94112e-13
5.84094e-13
-4.75598e-13
6.11184e-13
-1.96659e-13
6.18816e-13
-8.8737e-14
6.22042e-13
-6.76961e-14
6.33427e-13
5.85704e-15
6.0698e-13
1.60225e-13
4.88155e-13
2.94255e-13
3.83524e-13
-3.27445e-13
5.34062e-13
9.71878e-13
4.73363e-13
-3.44817e-13
2.25453e-13
2.25394e-14
2.88259e-13
3.53253e-12
5.36788e-13
4.57093e-14
6.16119e-13
-1.65688e-12
6.26813e-13
-1.40715e-12
-5.94255e-13
-1.35702e-12
1.00764e-11
2.74794e-12
-5.55856e-12
5.25932e-12
-1.47142e-11
-1.40351e-12
2.04818e-11
1.62211e-12
-1.39045e-12
1.37182e-12
-5.08914e-12
8.35077e-13
-7.72006e-12
6.43486e-13
-1.11887e-12
6.49603e-13
2.557e-12
6.60142e-13
3.97274e-13
6.49616e-13
-1.60653e-13
6.50296e-13
2.2699e-13
6.6387e-13
3.29343e-14
6.63847e-13
-5.9407e-14
6.50562e-13
2.85569e-14
6.3794e-13
1.1122e-13
6.26391e-13
1.68849e-13
6.10398e-13
2.22683e-14
5.91669e-13
-1.37499e-13
5.75737e-13
4.27584e-14
5.62944e-13
9.41797e-13
5.32101e-13
1.5723e-12
4.43027e-13
2.64176e-13
4.72176e-13
-4.5815e-13
4.70398e-13
-8.23513e-13
3.92532e-13
-1.44704e-12
3.91695e-13
4.165e-13
5.19491e-13
2.23793e-12
5.61702e-13
-4.36323e-13
5.95774e-13
-5.09669e-13
6.14485e-13
-2.1537e-13
6.19707e-13
-9.39591e-14
6.2351e-13
-7.14997e-14
6.31114e-13
-1.7464e-15
6.02288e-13
1.89051e-13
5.04963e-13
3.91581e-13
4.23088e-13
-2.4557e-13
5.15737e-13
8.79229e-13
4.55151e-13
-2.84231e-13
3.13557e-13
1.64133e-13
4.27394e-13
3.4187e-12
6.10441e-13
-1.37338e-13
6.43469e-13
-1.68991e-12
6.37815e-13
-1.4015e-12
-5.93869e-13
-7.63104e-13
1.09995e-11
1.38956e-12
-7.71122e-12
2.86957e-12
-1.61942e-11
-4.52784e-12
2.78792e-11
2.47006e-12
-8.38835e-12
1.41206e-12
-4.03114e-12
7.75913e-13
-7.08391e-12
5.78342e-13
-9.21298e-13
6.47502e-13
2.48785e-12
6.57446e-13
3.8733e-13
6.26679e-13
-1.29886e-13
6.30277e-13
2.23391e-13
6.51839e-13
1.13721e-14
6.55394e-13
-6.29614e-14
6.40641e-13
4.331e-14
6.27444e-13
1.24417e-13
6.1586e-13
1.80433e-13
5.98576e-13
3.95519e-14
5.77006e-13
-1.15929e-13
5.55752e-13
6.40125e-14
5.41369e-13
9.56179e-13
5.1963e-13
1.59404e-12
4.32856e-13
3.50951e-13
4.15656e-13
-4.4095e-13
5.69769e-13
-9.77626e-13
3.626e-13
-1.23987e-12
5.46369e-13
2.32731e-13
6.23136e-13
2.16117e-12
5.93273e-13
-4.06461e-13
6.04491e-13
-5.20886e-13
6.16007e-13
-2.26886e-13
6.1905e-13
-9.70018e-14
6.2172e-13
-7.41698e-14
6.24298e-13
-4.3244e-15
5.99904e-13
2.13445e-13
5.18451e-13
4.73034e-13
4.52833e-13
-1.79952e-13
4.62277e-13
8.69785e-13
4.51975e-13
-2.73929e-13
4.11792e-13
2.04315e-13
5.09338e-13
3.32115e-12
6.60656e-13
-2.88656e-13
6.66253e-13
-1.69551e-12
6.46485e-13
-1.38173e-12
-5.88619e-13
1.23961e-12
7.60387e-13
1.04813e-12
1.91484e-13
1.00856e-12
3.95708e-14
1.05332e-12
-4.47601e-14
1.70671e-13
8.82649e-13
2.3525e-12
4.07889e-13
2.43312e-12
1.10861e-13
2.4762e-12
-3.50401e-15
2.73097e-12
-2.99532e-13
-7.08177e-13
3.60982e-12
2.67829e-12
-2.70396e-13
2.92753e-12
-1.38382e-13
2.99614e-12
-7.21172e-14
2.96648e-12
-2.69876e-13
-3.6328e-13
2.62159e-12
2.40763e-12
-6.7803e-13
2.48627e-12
-2.17015e-13
2.4875e-12
-7.33525e-14
2.38751e-12
-1.6988e-13
-2.30491e-13
2.25472e-12
1.32197e-12
1.10496e-12
1.0316e-12
8.61723e-13
6.31232e-13
1.0084e-11
1.79819e-12
-4.39598e-12
6.76876e-12
2.4952e-12
-2.30854e-11
-2.70963e-12
3.3084e-11
1.08074e-12
-1.21787e-11
3.49732e-12
-6.44771e-12
2.57736e-12
-6.16395e-12
1.92302e-12
-2.66959e-13
2.81381e-12
1.59705e-12
2.86739e-12
3.33752e-13
2.605e-12
1.325e-13
2.67682e-12
1.51567e-13
2.81285e-12
-1.24655e-13
2.79108e-12
-4.11908e-14
2.72032e-12
1.14072e-13
2.65982e-12
1.84915e-13
2.61149e-12
2.2876e-13
2.5265e-12
1.24539e-13
2.42784e-12
-1.72654e-14
2.28102e-12
2.10829e-13
2.21019e-12
1.02701e-12
2.21158e-12
1.59265e-12
2.15515e-12
4.0738e-13
2.23897e-12
-5.24771e-13
1.96826e-12
-7.06915e-13
1.06408e-12
-3.35687e-13
8.66723e-13
4.30087e-13
2.40741e-12
6.20482e-13
2.68905e-12
-6.88101e-13
2.75241e-12
-5.84248e-13
2.7659e-12
-2.40372e-13
2.76571e-12
-9.68146e-14
2.73223e-12
-4.06937e-14
2.71281e-12
1.50955e-14
2.65129e-12
2.74966e-13
2.51399e-12
6.10336e-13
2.33799e-12
-3.94787e-15
2.50734e-12
7.00431e-13
2.03246e-12
2.00952e-13
1.72902e-12
5.07754e-13
2.91452e-12
2.13565e-12
3.27244e-12
-6.46571e-13
3.18684e-12
-1.60991e-12
2.97798e-12
-1.17288e-12
-5.02449e-13
3.41406e-12
1.99394e-12
1.90548e-12
8.27734e-12
-1.82054e-11
-2.97449e-12
-1.20408e-12
1.60827e-11
-4.13604e-12
-9.24676e-12
1.21724e-12
-1.1801e-11
1.72871e-12
-6.67542e-12
1.72843e-12
-2.66685e-13
2.32212e-12
1.00337e-12
2.20732e-12
4.48547e-13
2.00171e-12
3.38115e-13
2.15049e-12
2.79022e-15
2.35756e-12
-3.31733e-13
2.29615e-12
2.02265e-14
2.19826e-12
2.11962e-13
2.17334e-12
2.09829e-13
2.1757e-12
2.26401e-13
2.14586e-12
1.54379e-13
2.09111e-12
3.7484e-14
2.02662e-12
2.75325e-13
2.05801e-12
9.95622e-13
2.05876e-12
1.5919e-12
2.13473e-12
3.31406e-13
2.55447e-12
-9.4451e-13
2.16575e-12
-3.18194e-13
1.37276e-12
4.57303e-13
1.26638e-12
5.3647e-13
2.14584e-12
-2.58978e-13
2.47167e-12
-1.01394e-12
2.53575e-12
-6.48331e-13
2.52411e-12
-2.28731e-13
2.50243e-12
-7.51307e-14
2.4646e-12
-2.86284e-15
2.45561e-12
2.40785e-14
2.49954e-12
2.31043e-13
2.66214e-12
4.47739e-13
2.64158e-12
1.66048e-14
2.76967e-12
5.72346e-13
2.68448e-12
2.86135e-13
2.74624e-12
4.46002e-13
3.5649e-12
1.31699e-12
3.52169e-12
-6.03367e-13
3.15178e-12
-1.23999e-12
2.81083e-12
-8.31927e-13
-3.50394e-13
4.09071e-12
5.24821e-13
8.4317e-12
3.93635e-12
-5.01019e-12
1.04674e-11
4.07529e-13
1.0665e-11
4.00635e-12
-1.28456e-11
2.59865e-12
-1.03933e-11
9.95435e-13
-5.07221e-12
1.00387e-12
-2.75119e-13
1.3606e-12
6.46633e-13
1.31935e-12
4.89804e-13
1.31612e-12
3.41341e-13
1.48411e-12
-1.65196e-13
1.61535e-12
-4.62973e-13
1.44478e-12
1.90794e-13
1.34464e-12
3.12097e-13
1.48555e-12
6.89192e-14
1.6044e-12
1.07554e-13
1.65689e-12
1.01895e-13
1.63538e-12
5.89917e-14
1.73066e-12
1.80041e-13
1.92552e-12
8.0076e-13
2.07402e-12
1.4434e-12
2.10648e-12
2.98942e-13
2.16028e-12
-9.98311e-13
2.15241e-12
-3.10318e-13
1.84119e-12
7.68515e-13
1.5181e-12
8.59561e-13
2.11497e-12
-8.55844e-13
2.21062e-12
-1.10959e-12
2.12093e-12
-5.58636e-13
2.05997e-12
-1.67776e-13
2.02611e-12
-4.12727e-14
2.01948e-12
3.77511e-15
2.02756e-12
1.59991e-14
2.12464e-12
1.33958e-13
2.32812e-12
2.44261e-13
2.31714e-12
2.75894e-14
2.50098e-12
3.88502e-13
2.55218e-12
2.34935e-13
2.80205e-12
1.96132e-13
3.45048e-12
6.68555e-13
3.24004e-12
-3.9293e-13
2.73792e-12
-7.37873e-13
2.35581e-12
-4.49812e-13
-1.84836e-13
4.26331e-12
-1.48377e-12
8.91373e-12
-7.14069e-13
1.09988e-11
8.38231e-12
1.23523e-11
9.31153e-12
7.58668e-12
-8.07999e-12
2.76276e-12
-5.56938e-12
1.92308e-13
-2.50175e-12
1.26698e-13
-2.09509e-13
4.93036e-13
2.80296e-13
6.47222e-13
3.35618e-13
7.74973e-13
2.13588e-13
7.55217e-13
-1.45439e-13
4.28315e-13
-1.36071e-13
4.64304e-13
1.54805e-13
7.10377e-13
6.60235e-14
9.18096e-13
-1.388e-13
1.02931e-12
-3.65794e-15
1.10196e-12
2.92391e-14
1.13664e-12
2.43131e-14
1.24878e-12
6.7906e-14
1.64919e-12
4.00343e-13
2.22456e-12
8.68035e-13
2.28646e-12
2.37047e-13
2.07214e-12
-7.83993e-13
1.94029e-12
-1.7847e-13
2.15153e-12
5.57272e-13
2.1391e-12
8.71991e-13
2.20229e-12
-9.19026e-13
1.77934e-12
-6.8664e-13
1.49338e-12
-2.72675e-13
1.39321e-12
-6.76076e-14
1.36704e-12
-1.51093e-14
1.37058e-12
2.37637e-16
1.38549e-12
1.08779e-15
1.47797e-12
4.1485e-14
1.63826e-12
8.39668e-14
1.66681e-12
-9.59266e-16
1.90896e-12
1.46355e-13
2.06972e-12
7.41684e-14
2.2212e-12
4.46525e-14
2.64456e-12
2.45194e-13
2.40406e-12
-1.52424e-13
1.92799e-12
-2.61805e-13
1.61479e-12
-1.36611e-13
-5.43763e-14
-8.52543e-13
-1.56661e-12
6.8157e-12
1.61272e-11
8.04723e-12
2.47786e-12
-2.38929e-14
-2.33401e-13
4.68938e-14
3.82512e-13
5.96099e-13
4.5066e-13
3.1459e-13
4.69395e-13
5.35418e-13
3.96618e-13
3.9296e-13
4.22199e-13
4.46512e-13
5.14418e-13
9.14762e-13
1.7828e-12
2.01984e-12
1.23585e-12
1.05738e-12
1.61465e-12
2.48664e-12
1.56762e-12
8.80978e-13
6.08303e-13
5.40695e-13
5.25586e-13
5.25823e-13
5.26912e-13
5.68397e-13
6.52364e-13
6.51404e-13
7.97759e-13
8.71928e-13
9.16581e-13
1.16178e-12
1.00935e-12
7.47546e-13
6.10935e-13
)
;

boundaryField
{
    AirInlet
    {
        type            calculated;
        value           nonuniform List<scalar> 5(-1.6e-13 -1.6e-13 -1.6e-13 -1.6e-13 -1.6e-13);
    }
    WaterInlet
    {
        type            calculated;
        value           nonuniform List<scalar> 10(-2e-12 -2e-12 -2e-12 -2e-12 -2e-12 -2e-12 -2e-12 -2e-12 -2e-12 -2e-12);
    }
    ChannelWall
    {
        type            calculated;
        value           uniform 0;
    }
    Outlet
    {
        type            calculated;
        value           nonuniform List<scalar> 
15
(
3.91248e-13
1.05797e-12
1.67007e-12
2.17509e-12
2.58097e-12
6.1095e-13
6.22231e-13
6.31081e-13
6.37429e-13
6.41235e-13
2.89181e-12
2.65878e-12
2.19025e-12
1.48433e-12
5.56559e-13
)
;
    }
    FrontAndBack
    {
        type            empty;
        value           nonuniform 0();
    }
}


// ************************************************************************* //
