/*--------------------------------*- C++ -*----------------------------------*\
| =========                 |                                                 |
| \\      /  F ield         | OpenFOAM: The Open Source CFD Toolbox           |
|  \\    /   O peration     | Version:  2.3.0                                 |
|   \\  /    A nd           | Web:      www.OpenFOAM.org                      |
|    \\/     M anipulation  |                                                 |
\*---------------------------------------------------------------------------*/
FoamFile
{
    version     2.0;
    format      ascii;
    class       volVectorField;
    location    "0.008";
    object      U;
}
// * * * * * * * * * * * * * * * * * * * * * * * * * * * * * * * * * * * * * //

dimensions      [0 1 -1 0 0 0 0];

internalField   nonuniform List<vector> 
725
(
(0.218 0.0253903 -1.8406e-30)
(0.198297 0.0093176 3.34849e-31)
(0.16059 0.00193972 1.87716e-31)
(0.146587 -0.000741824 0)
(0.141115 -0.00108792 -5.84887e-32)
(0.38085 0.0529355 -8.63055e-30)
(0.40849 0.0366765 1.60921e-30)
(0.368621 0.021667 8.90342e-31)
(0.33495 0.0105008 0)
(0.314031 -0.00120464 -4.84001e-31)
(0.418066 0.0378309 -3.70779e-30)
(0.467612 0.0452097 3.79722e-31)
(0.433431 0.0388058 6.27993e-31)
(0.389551 0.024888 0)
(0.359084 0.0105323 6.66403e-31)
(0.376633 0.0166713 5.48658e-30)
(0.394286 0.0418396 3.10039e-32)
(0.350578 0.0426115 -4.9423e-32)
(0.305906 0.0273681 0)
(0.291975 -0.00526284 -7.3951e-30)
(0.21064 0.0105741 6.90563e-30)
(0.18064 0.0278705 -4.89567e-31)
(0.142215 0.0248147 -2.82104e-31)
(0.105184 0.0132296 1.11931e-30)
(0.051179 -0.0208021 -9.0751e-30)
(0.195415 -0.00983223 0)
(0.251193 0.0391518 0)
(0.0870786 0.0229561 0)
(0.677482 -0.170414 0)
(0.596531 0.0971434 0)
(-0.243124 0.0438655 0)
(-0.119271 0.00275992 0)
(-0.00944148 -0.0211067 0)
(0.0725301 -0.00439101 0)
(0.0769715 0.000877232 0)
(0.0706852 0.0013676 0)
(0.0639357 0.000893444 0)
(0.0627095 3.14479e-05 0)
(0.0659168 -0.000239931 0)
(0.0678723 9.94029e-05 0)
(0.0669288 0.000199872 0)
(0.0650901 1.90113e-05 0)
(0.0646709 -2.27224e-05 0)
(0.0677766 -0.000253478 0)
(0.0684219 7.2606e-05 0)
(0.0614082 0.00148262 0)
(0.0498611 0.00140371 0)
(0.0479161 -0.000768467 0)
(0.0524969 -0.00102475 0)
(0.0683126 -0.00316304 0)
(0.094876 -0.00316245 0)
(0.108873 0.000536314 0)
(0.0936958 0.00433234 0)
(0.0686209 0.00204066 0)
(0.0561875 0.000453386 0)
(0.052708 0.000200493 0)
(0.0514066 0.000146321 0)
(0.0510322 -0.000110827 0)
(0.0517273 -0.000451395 0)
(0.0553325 -0.00158355 0)
(0.0736967 -0.00705702 0)
(0.158203 -0.0204084 0)
(0.219541 -0.000967803 0)
(0.149244 0.0160997 0)
(0.129982 -0.0022297 0)
(0.142634 0.000608514 0)
(0.091154 0.00689864 0)
(0.0479888 0.00687246 0)
(0.0345284 0.000704908 0)
(0.0432673 -0.000806664 0)
(0.386247 -0.0664995 0)
(0.588352 -0.0342287 0)
(0.997606 -0.1215 0)
(0.902108 -0.270124 0)
(0.655096 0.403128 0)
(-0.439122 0.212214 0)
(-0.0261902 -0.0831979 0)
(0.0792638 -0.0835149 0)
(0.165891 -0.0269441 0)
(0.174806 -0.00136458 0)
(0.16886 0.00466472 0)
(0.159578 0.00318951 0)
(0.158307 -0.0015166 0)
(0.165403 -0.00274209 0)
(0.170824 -0.000400801 0)
(0.170179 0.00135273 0)
(0.166119 0.00108552 0)
(0.164743 -0.000813775 0)
(0.171442 -0.00209617 0)
(0.173289 0.00163734 0)
(0.160252 0.00806629 0)
(0.138079 0.00742032 0)
(0.132429 -0.00296018 0)
(0.139718 -0.00704123 0)
(0.166576 -0.0179794 0)
(0.211468 -0.0184473 0)
(0.238249 -0.0001974 0)
(0.215521 0.0202464 0)
(0.171342 0.0145596 0)
(0.147635 0.00585192 0)
(0.140995 0.00214157 0)
(0.139269 0.000833154 0)
(0.13905 -0.000278606 0)
(0.139166 -0.00152614 0)
(0.141581 -0.00796355 0)
(0.160806 -0.0313818 0)
(0.22689 -0.0639021 0)
(0.244262 0.0107907 0)
(0.177827 0.0381885 0)
(0.238028 -0.0131144 0)
(0.227706 0.0250699 0)
(0.103736 0.0361077 0)
(0.0799174 0.0198021 0)
(0.0954633 -0.000794973 0)
(0.117335 -0.00478754 0)
(0.384292 -0.138295 0)
(0.641282 -0.202923 0)
(0.345939 -0.0872569 0)
(-0.955029 0.225884 0)
(0.168003 0.563246 0)
(-0.302975 0.284729 0)
(0.266863 -0.171453 0)
(0.269922 -0.121671 0)
(0.262517 -0.0286694 0)
(0.250232 -0.00107832 0)
(0.250111 0.00704826 0)
(0.242326 0.00628768 0)
(0.236838 -0.00304183 0)
(0.241281 -0.00633473 0)
(0.246973 -0.00204292 0)
(0.247905 0.00225524 0)
(0.244792 0.00268796 0)
(0.244119 -0.00245936 0)
(0.250443 -0.00401217 0)
(0.252603 0.00357752 0)
(0.236825 0.0175436 0)
(0.205305 0.017512 0)
(0.193299 -0.00431514 0)
(0.199719 -0.0143624 0)
(0.224271 -0.0359626 0)
(0.272197 -0.0382344 0)
(0.303168 -0.00220625 0)
(0.274277 0.0405501 0)
(0.225637 0.0295512 0)
(0.208906 0.0123559 0)
(0.207395 0.00415217 0)
(0.207807 0.00143054 0)
(0.208625 -0.000766151 0)
(0.208719 -0.00164243 0)
(0.207334 -0.00977081 0)
(0.208454 -0.0406914 0)
(0.226822 -0.0801443 0)
(0.213256 0.0374436 0)
(0.161038 0.0256557 0)
(0.269133 -0.0428095 0)
(0.264385 0.0649188 0)
(0.107329 0.0747758 0)
(0.118587 0.0172236 0)
(0.154349 -0.0128761 0)
(0.185348 -0.0116102 0)
(0.278614 -0.132326 0)
(0.150999 -0.0984794 0)
(-1.09835 0.422619 0)
(-0.294197 -0.347752 0)
(0.0432489 0.356393 0)
(-0.150472 0.277646 0)
(0.473677 -0.290256 0)
(0.447915 -0.133803 0)
(0.334105 -7.01963e-05 0)
(0.295925 0.00413362 0)
(0.310352 0.00671749 0)
(0.310911 0.0101415 0)
(0.301066 -0.00165978 0)
(0.298227 -0.00772221 0)
(0.299406 -0.00337019 0)
(0.300005 0.00220958 0)
(0.298537 0.00365192 0)
(0.29692 -0.00411162 0)
(0.300665 -0.00535578 0)
(0.306476 0.00477905 0)
(0.29307 0.0294971 0)
(0.251329 0.0332254 0)
(0.230455 -0.00328493 0)
(0.234993 -0.0195561 0)
(0.244322 -0.0505367 0)
(0.284703 -0.0602087 0)
(0.313873 -0.00261981 0)
(0.268495 0.066931 0)
(0.227065 0.0369816 0)
(0.242305 0.0137456 0)
(0.253485 0.00347595 0)
(0.257978 0.000394179 0)
(0.26045 -0.00143937 0)
(0.259667 -0.000956032 0)
(0.254546 -0.00658896 0)
(0.236693 -0.0349285 0)
(0.201389 -0.0759166 0)
(0.173374 0.0542671 0)
(0.162344 0.0131748 0)
(0.246248 -0.0706154 0)
(0.2136 0.100181 0)
(0.0727788 0.108182 0)
(0.158965 -0.00344168 0)
(0.20895 -0.0344483 0)
(0.241479 -0.0196721 0)
(0.0135007 -0.108416 0)
(-2.10015 0.624639 0)
(-0.561018 0.221416 0)
(-0.823747 -0.605101 0)
(-0.512807 0.379525 0)
(0.0438277 -0.0647285 0)
(0.634981 -0.453872 0)
(0.653601 -0.135563 0)
(0.38474 0.0691529 0)
(0.314564 0.0124838 0)
(0.341291 -0.00278933 0)
(0.349709 0.0112131 0)
(0.340683 0.00185526 0)
(0.334294 -0.00505019 0)
(0.329802 -0.0022835 0)
(0.32707 0.00250535 0)
(0.32427 0.00476539 0)
(0.318757 -0.00308636 0)
(0.31831 -0.00845076 0)
(0.327609 0.0029489 0)
(0.323968 0.041982 0)
(0.277411 0.0562998 0)
(0.245924 -0.00558211 0)
(0.251989 -0.0193443 0)
(0.241133 -0.0506328 0)
(0.253928 -0.0848276 0)
(0.273307 0.0013939 0)
(0.211365 0.0999371 0)
(0.197433 0.0280712 0)
(0.260246 0.00427966 0)
(0.284882 -0.00110872 0)
(0.290984 -0.00234073 0)
(0.292979 -0.00216767 0)
(0.293359 0.00142928 0)
(0.289374 -0.000363115 0)
(0.259016 -0.0155017 0)
(0.188187 -0.0503746 0)
(0.128681 0.0604881 0)
(0.203321 -0.00206177 0)
(0.179399 -0.0714911 0)
(0.0190012 0.15002 0)
(0.0130017 0.0900316 0)
(0.21109 -0.0446451 0)
(0.261504 -0.0595224 0)
(0.28653 -0.0267453 0)
(-0.210479 0.166093 0)
(-2.11207 0.593589 0)
(3.78036 0.0263547 0)
(-1.56777 -0.340835 0)
(-0.368444 0.162115 0)
(0.661772 -0.208681 0)
(0.528826 -0.445409 0)
(0.545759 -0.0864078 0)
(0.357695 0.118966 0)
(0.32221 0.019356 0)
(0.338671 -0.00685144 0)
(0.344744 0.0114439 0)
(0.34083 0.0026908 0)
(0.339276 -0.00357939 0)
(0.333648 -0.000768242 0)
(0.328662 0.00358747 0)
(0.324116 0.00626141 0)
(0.317148 -0.00137566 0)
(0.312346 -0.00903402 0)
(0.314686 0.00137746 0)
(0.321167 0.0458178 0)
(0.293027 0.069962 0)
(0.24607 -0.00192571 0)
(0.237378 -0.0202785 0)
(0.239006 -0.0443153 0)
(0.210619 -0.0842959 0)
(0.194985 0.00961287 0)
(0.130386 0.114655 0)
(0.159139 0.00632601 0)
(0.266762 -0.0104345 0)
(0.295347 -0.00586244 0)
(0.302685 -0.00352386 0)
(0.303442 -0.00284628 0)
(0.307537 0.00150071 0)
(0.308037 0.00409073 0)
(0.272744 0.000250628 0)
(0.196995 -0.0311988 0)
(0.123854 0.0560592 0)
(0.259566 -0.0162105 0)
(0.181954 -0.0283803 0)
(-0.0568897 0.172696 0)
(0.0740398 0.04276 0)
(0.264127 -0.0686918 0)
(0.291854 -0.0675392 0)
(0.305336 -0.028794 0)
(-0.244563 0.280165 0)
(-1.93617 0.364141 0)
(8.1807 -0.117251 0)
(-0.22425 -0.0180418 0)
(0.157916 0.0923734 0)
(0.682158 -0.248584 0)
(0.450937 -0.434755 0)
(0.461457 -0.0779861 0)
(0.329325 0.127489 0)
(0.326767 0.0202639 0)
(0.335793 -0.00788161 0)
(0.340159 0.0114391 0)
(0.338741 0.00276201 0)
(0.33947 -0.00322393 0)
(0.333665 -0.000194131 0)
(0.327858 0.00407074 0)
(0.322661 0.00690216 0)
(0.315374 -0.000754202 0)
(0.309026 -0.00877085 0)
(0.306953 0.00104195 0)
(0.315951 0.0460253 0)
(0.302944 0.0738069 0)
(0.249794 0.00194616 0)
(0.226736 -0.0206073 0)
(0.24021 -0.0426927 0)
(0.209443 -0.0817081 0)
(0.174005 0.0137786 0)
(0.0923223 0.119326 0)
(0.149424 -0.00553847 0)
(0.272423 -0.0167204 0)
(0.299195 -0.00766307 0)
(0.306467 -0.00389044 0)
(0.306781 -0.00310024 0)
(0.311954 0.00114091 0)
(0.314496 0.00581451 0)
(0.277921 0.00598305 0)
(0.201917 -0.0244288 0)
(0.130863 0.0557228 0)
(0.233053 -0.0202789 0)
(0.140093 -0.0153977 0)
(-0.00797839 0.178865 0)
(0.151031 0.0229398 0)
(0.284523 -0.0761309 0)
(0.301865 -0.0693677 0)
(0.311012 -0.0293344 0)
(-0.220704 0.389992 0)
(-1.70658 0.0500719 0)
(7.45086 -0.427687 0)
(-0.197391 0.454698 0)
(0.427411 0.0894552 0)
(0.709374 -0.265801 0)
(0.444095 -0.422306 0)
(0.400517 -0.0703708 0)
(0.311501 0.129411 0)
(0.330124 0.0204476 0)
(0.330708 -0.00851328 0)
(0.332944 0.0114008 0)
(0.334561 0.00257116 0)
(0.338031 -0.00301291 0)
(0.332221 0.000428353 0)
(0.325377 0.00462318 0)
(0.320234 0.0075553 0)
(0.313188 -7.26334e-05 0)
(0.305545 -0.00820587 0)
(0.299298 0.00109291 0)
(0.299548 0.0461046 0)
(0.293087 0.0763546 0)
(0.248602 0.00667534 0)
(0.224583 -0.0211491 0)
(0.249014 -0.0415252 0)
(0.209595 -0.0784283 0)
(0.1657 0.0190241 0)
(0.134805 0.120618 0)
(0.211353 -0.0165862 0)
(0.281548 -0.0221138 0)
(0.302065 -0.00924214 0)
(0.309115 -0.00425732 0)
(0.309115 -0.00331768 0)
(0.314329 0.000574539 0)
(0.319091 0.007377 0)
(0.283328 0.0118471 0)
(0.209413 -0.0186752 0)
(0.194471 0.05252 0)
(0.308095 -0.019096 0)
(0.166517 -0.00414831 0)
(0.0633803 0.179145 0)
(0.231009 0.00780205 0)
(0.305589 -0.0813374 0)
(0.310783 -0.0703039 0)
(0.315454 -0.0296638 0)
(-0.162123 0.497945 0)
(-1.40055 -0.208611 0)
(4.57549 -0.70865 0)
(-0.848017 0.899855 0)
(0.634394 0.0511556 0)
(0.876981 -0.256403 0)
(0.487694 -0.400167 0)
(0.347682 -0.0614302 0)
(0.314633 0.128924 0)
(0.334517 0.0202394 0)
(0.325657 -0.00847746 0)
(0.323057 0.0113706 0)
(0.328321 0.00205762 0)
(0.334725 -0.00295956 0)
(0.329159 0.00109298 0)
(0.321539 0.0052325 0)
(0.316506 0.00815372 0)
(0.309745 0.000689982 0)
(0.300615 -0.00739149 0)
(0.290127 0.00164153 0)
(0.285452 0.0466943 0)
(0.282296 0.0779966 0)
(0.240565 0.0111389 0)
(0.211942 -0.0221066 0)
(0.256273 -0.0414452 0)
(0.213096 -0.0743637 0)
(0.181379 0.021005 0)
(0.219778 0.116417 0)
(0.27971 -0.0213889 0)
(0.292185 -0.0250638 0)
(0.304115 -0.0103954 0)
(0.310048 -0.00457762 0)
(0.309836 -0.00350989 0)
(0.313877 6.3074e-05 0)
(0.316573 0.00877582 0)
(0.2857 0.0173154 0)
(0.219284 -0.0141957 0)
(0.209592 0.0464729 0)
(0.295989 -0.0162753 0)
(0.172245 0.00518768 0)
(0.131349 0.17473 0)
(0.292432 -0.0028758 0)
(0.32526 -0.0839698 0)
(0.318609 -0.0703886 0)
(0.318643 -0.0297653 0)
(-0.0652777 0.548012 0)
(-0.961149 -0.325511 0)
(2.72685 -0.851035 0)
(-2.31844 1.03866 0)
(0.750916 -0.224071 0)
(1.04017 -0.232788 0)
(0.516553 -0.369281 0)
(0.288155 -0.0510952 0)
(0.309767 0.126793 0)
(0.337097 0.0197385 0)
(0.317927 -0.00746831 0)
(0.310869 0.0112609 0)
(0.320689 0.00119283 0)
(0.330003 -0.00302822 0)
(0.324643 0.0017772 0)
(0.316276 0.00588473 0)
(0.311165 0.00874014 0)
(0.304489 0.00153747 0)
(0.294318 -0.00636941 0)
(0.281247 0.00261904 0)
(0.274735 0.047423 0)
(0.272307 0.0791974 0)
(0.233764 0.015454 0)
(0.198401 -0.0225113 0)
(0.270017 -0.0445931 0)
(0.226636 -0.0679194 0)
(0.20045 0.016583 0)
(0.291474 0.109996 0)
(0.319633 -0.0213504 0)
(0.299944 -0.0259814 0)
(0.305547 -0.0111361 0)
(0.310041 -0.00480325 0)
(0.309473 -0.00364936 0)
(0.311721 -0.000206729 0)
(0.312511 0.0100919 0)
(0.287508 0.0218223 0)
(0.230518 -0.0104609 0)
(0.211074 0.0431263 0)
(0.275165 -0.0139873 0)
(0.187958 0.00965709 0)
(0.18596 0.16885 0)
(0.328825 -0.0109194 0)
(0.341587 -0.0850224 0)
(0.325192 -0.0697789 0)
(0.320551 -0.0296345 0)
(0.210773 -0.0106917 0)
(0.182493 -0.0286422 2.29107e-32)
(0.147963 -0.0271194 3.47227e-31)
(0.133804 -0.0238451 -1.1344e-32)
(0.102043 0.000510099 0)
(0.37658 -0.0170045 0)
(0.39612 -0.043752 0)
(0.354692 -0.0488305 0)
(0.331216 -0.0562718 9.10873e-31)
(0.3531 -0.0647641 0)
(0.417765 -0.0382293 0)
(0.46801 -0.0474084 0)
(0.429607 -0.0453591 0)
(0.391582 -0.0561255 9.8099e-31)
(0.30316 -0.0675524 0)
(0.380404 -0.0531993 0)
(0.407845 -0.0381226 0)
(0.359784 -0.0257071 0)
(0.329029 -0.0308457 -2.17558e-31)
(0.224927 -0.0206746 0)
(0.217636 -0.025467 0)
(0.197509 -0.00961941 0)
(0.152849 -0.00329737 0)
(0.139167 -0.00449543 -5.4565e-32)
(0.0438953 -0.00852628 0)
(0.206241 0.144337 0)
(0.652841 -0.0739881 0)
(0.833725 -1.09257 0)
(-1.19607 2.45687 0)
(0.00758387 -0.608142 0)
(0.347182 -0.221606 0)
(0.40599 -0.327028 0)
(0.141281 -0.0207068 0)
(0.29025 0.107622 0)
(0.335736 0.0163419 0)
(0.296749 -0.00220821 0)
(0.286394 0.0104939 0)
(0.304989 -0.00161828 0)
(0.315383 -0.00280128 0)
(0.307534 0.00367788 0)
(0.297728 0.00781269 0)
(0.292714 0.0104635 0)
(0.286977 0.00419271 0)
(0.275153 -0.00321173 0)
(0.258771 0.00648813 0)
(0.253412 0.0500601 0)
(0.248017 0.080089 0)
(0.232018 0.0229922 0)
(0.240737 -0.0207493 0)
(0.261599 -0.04698 0)
(0.162213 -0.0436202 0)
(0.0534649 0.00792735 0)
(0.181381 0.0771573 0)
(0.298563 -0.022235 0)
(0.308932 -0.0265984 0)
(0.307397 -0.0122055 0)
(0.307572 -0.00520351 0)
(0.305145 -0.00343807 0)
(0.302574 -0.000206121 0)
(0.300236 0.013166 0)
(0.292543 0.0311838 0)
(0.265102 -0.00245381 0)
(0.258889 0.0380755 0)
(0.281979 -0.000569602 0)
(0.182924 0.0222774 0)
(0.223908 0.139485 0)
(0.381302 -0.0285143 0)
(0.373156 -0.0852659 0)
(0.336956 -0.0659182 0)
(0.321272 -0.0283875 0)
(0.38886 0.0813779 0)
(0.593046 0.313013 0)
(-1.50639 -0.5942 0)
(-0.248334 1.2341 0)
(-0.401037 -0.548714 0)
(-0.0758228 -0.469709 0)
(0.239399 -0.333683 0)
(0.12115 -0.0122126 0)
(0.252023 0.0591571 0)
(0.261934 0.0185888 0)
(0.224149 0.0146233 0)
(0.224448 0.00556265 0)
(0.251821 -0.0113133 0)
(0.263937 -0.00177348 0)
(0.250364 0.00710788 0)
(0.240175 0.0106376 0)
(0.241249 0.0124491 0)
(0.242246 0.0079234 0)
(0.234816 0.0012831 0)
(0.225247 0.0134095 0)
(0.230939 0.0523152 0)
(0.22967 0.0811544 0)
(0.224078 0.0185389 0)
(0.25941 -0.0362198 0)
(0.288067 -0.0223652 0)
(0.199074 0.00834442 0)
(0.113762 0.0252945 0)
(0.185403 -0.0023069 0)
(0.266443 -0.0480077 0)
(0.284888 -0.0325211 0)
(0.283099 -0.0123308 0)
(0.278952 -0.00445942 0)
(0.275617 -0.00080309 0)
(0.272813 0.00141244 0)
(0.273219 0.0136714 0)
(0.289594 0.0289294 0)
(0.295466 0.00142804 0)
(0.294903 0.0316861 0)
(0.310615 0.0166406 0)
(0.289943 0.026632 0)
(0.338845 0.0814 0)
(0.42038 -0.0336972 0)
(0.380367 -0.0729665 0)
(0.325352 -0.0515612 0)
(0.29546 -0.0218729 0)
(0.317132 0.0873198 0)
(0.672868 0.32776 0)
(0.354312 0.385262 0)
(-0.724898 0.57177 0)
(0.723346 -0.641251 0)
(0.351442 -0.599456 0)
(0.147095 -0.300137 0)
(0.0629118 -0.0105287 0)
(0.153582 0.0408774 0)
(0.149166 0.0256052 0)
(0.140733 0.0195708 0)
(0.15526 -0.00517197 0)
(0.17339 -0.0245263 0)
(0.173151 0.00440173 0)
(0.153595 0.0166106 0)
(0.153792 0.00999973 0)
(0.171829 0.009482 0)
(0.183804 0.00711033 0)
(0.181959 0.00297075 0)
(0.18271 0.0125907 0)
(0.204345 0.0472334 0)
(0.2233 0.0796517 0)
(0.233287 0.0154637 0)
(0.237075 -0.0536694 0)
(0.246987 -0.0138939 0)
(0.222973 0.0367164 0)
(0.170091 0.0355524 0)
(0.201146 -0.032028 0)
(0.243313 -0.0583735 0)
(0.242678 -0.0330134 0)
(0.232619 -0.0106669 0)
(0.226056 -0.00291098 0)
(0.224302 0.000408649 0)
(0.22367 0.00121502 0)
(0.227517 0.00948314 0)
(0.249901 0.017205 0)
(0.258146 0.00120344 0)
(0.264246 0.0248092 0)
(0.282601 0.0142351 0)
(0.29064 0.0163833 0)
(0.350511 0.0466434 0)
(0.390157 -0.0261333 0)
(0.337141 -0.0495858 0)
(0.277502 -0.0318681 0)
(0.243432 -0.0131212 0)
(0.337841 -0.0474256 0)
(0.626055 0.0224257 0)
(1.19043 0.450353 0)
(1.2588 0.544987 0)
(1.45619 -0.523712 0)
(0.469302 -0.424382 0)
(0.0563221 -0.188797 0)
(-0.0256622 -0.0142185 0)
(0.0556752 0.0242408 0)
(0.0604967 0.024599 0)
(0.0801763 0.0157563 0)
(0.0922136 -0.0103973 0)
(0.063732 -0.0160878 0)
(0.0419261 0.0122173 0)
(0.0639622 0.0102255 0)
(0.0904882 -0.00467628 0)
(0.108626 0.000861386 0)
(0.120323 0.00294997 0)
(0.122952 0.00230663 0)
(0.127173 0.00666411 0)
(0.156344 0.0331189 0)
(0.216491 0.0649002 0)
(0.264924 0.0152963 0)
(0.245663 -0.0511635 0)
(0.213251 -0.0146155 0)
(0.223259 0.0400817 0)
(0.242744 0.0528491 0)
(0.257098 -0.0537939 0)
(0.215253 -0.0523155 0)
(0.176636 -0.0225757 0)
(0.158629 -0.0058423 0)
(0.152249 -0.0012564 0)
(0.151797 0.000105647 0)
(0.151949 0.000344371 0)
(0.156782 0.00414544 0)
(0.174895 0.00745513 0)
(0.181845 0.000828911 0)
(0.196296 0.0134519 0)
(0.222252 0.00753769 0)
(0.234141 0.00484114 0)
(0.276619 0.0206709 0)
(0.292551 -0.0142702 0)
(0.242015 -0.0237955 0)
(0.192382 -0.0131099 0)
(0.165012 -0.00518003 0)
(0.135135 -0.0660619 0)
(-0.420046 -0.0623219 0)
(0.217875 0.285648 0)
(1.42154 0.276248 0)
(1.55311 -0.125209 0)
(0.508366 -0.112943 0)
(0.0384156 -0.0534854 0)
(-0.0504794 -0.00655467 0)
(-0.00416797 0.00501322 0)
(0.0178867 0.00784215 0)
(0.0606 0.00452136 0)
(0.0636813 -0.00341171 0)
(0.0384577 -0.00026392 0)
(0.0390731 0.00417822 0)
(0.0590086 -0.00167944 0)
(0.0526033 -0.00623464 0)
(0.0419897 -0.00102018 0)
(0.0456535 0.000275402 0)
(0.0473726 0.000296246 0)
(0.0495438 0.000539924 0)
(0.0696341 0.00727929 0)
(0.150352 0.0199287 0)
(0.230632 0.00593752 0)
(0.184327 -0.0189852 0)
(0.111097 -0.00333449 0)
(0.138191 0.0125816 0)
(0.250751 0.0240304 0)
(0.245012 -0.0238246 0)
(0.126505 -0.0133133 0)
(0.07624 -0.00432218 0)
(0.0623769 -0.000904513 0)
(0.058716 -0.000226805 0)
(0.0583301 -5.05719e-05 0)
(0.0579168 -0.00018423 0)
(0.0599443 0.000414738 0)
(0.0687527 0.00129 0)
(0.0709087 -0.000863768 0)
(0.0793821 0.00231471 0)
(0.0939423 0.000264667 0)
(0.096739 -0.000287789 0)
(0.118908 0.00502448 0)
(0.126281 -0.00301033 0)
(0.097196 -0.00389433 0)
(0.0734123 -0.00124336 0)
(0.0619093 -0.00053258 0)
)
;

boundaryField
{
    AirInlet
    {
        type            fixedValue;
        value           uniform (0.08 0 0);
    }
    WaterInlet
    {
        type            fixedValue;
        value           uniform (0.4 0 0);
    }
    ChannelWall
    {
        type            fixedValue;
        value           uniform (0 0 0);
    }
    Outlet
    {
        type            pressureInletOutletVelocity;
        value           nonuniform List<vector> 
15
(
(0.0432673 -0.000806664 0)
(0.117335 -0.00478754 0)
(0.185348 -0.0116102 0)
(0.241479 -0.0196721 0)
(0.28653 -0.0267453 0)
(0.305336 -0.028794 0)
(0.311012 -0.0293344 0)
(0.315454 -0.0296638 0)
(0.318643 -0.0297653 0)
(0.320551 -0.0296345 0)
(0.321272 -0.0283875 0)
(0.29546 -0.0218729 0)
(0.243432 -0.0131212 0)
(0.165012 -0.00518003 0)
(0.0619093 -0.00053258 0)
)
;
    }
    FrontAndBack
    {
        type            empty;
    }
}


// ************************************************************************* //
