/*--------------------------------*- C++ -*----------------------------------*\
| =========                 |                                                 |
| \\      /  F ield         | OpenFOAM: The Open Source CFD Toolbox           |
|  \\    /   O peration     | Version:  2.3.0                                 |
|   \\  /    A nd           | Web:      www.OpenFOAM.org                      |
|    \\/     M anipulation  |                                                 |
\*---------------------------------------------------------------------------*/
FoamFile
{
    version     2.0;
    format      ascii;
    class       volScalarField;
    location    "0.032";
    object      p;
}
// * * * * * * * * * * * * * * * * * * * * * * * * * * * * * * * * * * * * * //

dimensions      [1 -1 -2 0 0 0 0];

internalField   nonuniform List<scalar> 
725
(
470.228
428.568
416.618
396.411
355.807
464.641
429.085
417.03
400.653
356.478
462.145
429.134
417.902
406.126
333.119
462.707
428.553
418.865
415.78
258.406
465.991
427.361
420.485
427.023
299.065
1033.64
261.097
154.186
98.8519
89.475
74.9285
49.0573
-32.4669
15.0746
24.664
22.3293
22.0261
16.6427
-34.5476
47.2841
53.9921
57.0648
56.2886
53.9718
52.4505
51.0002
50.6727
50.4804
49.4917
48.38
47.127
45.2974
43.245
41.202
39.1598
36.9999
34.4299
31.1944
27.6603
12.6784
17.1852
-38.2598
-60.6939
-109.346
-375.056
-22.1632
-0.564521
-0.832317
1.30376
-0.0349884
1163.92
215.363
82.3878
82.4578
82.297
70.8532
57.0958
15.1776
19.7965
22.9859
22.1736
21.5506
20.1781
48.4984
56.6489
56.3596
57.8683
55.7729
52.9856
51.3502
49.7622
49.3653
49.1424
48.2194
47.1506
46.1178
44.5341
42.6559
40.7178
38.7196
36.5842
34.0633
30.9495
27.6044
13.2664
21.0128
-33.6315
-48.7619
-80.7162
-263.579
-27.4469
-0.702241
-1.17623
0.390526
-0.0639647
1473.43
22.6052
47.9809
71.5076
76.0891
67.0156
70.8472
96.3765
36.5613
21.5411
22.0926
21.6908
12.636
52.3958
72.3103
60.2848
59.7564
56.1857
53.0594
51.8163
50.8836
50.7027
49.4449
48.2525
47.0981
46.1075
44.4763
42.5694
40.6437
38.672
36.5934
34.183
31.2929
28.5079
14.9378
28.2082
-33.2273
-35.4023
-37.5723
-215.424
-55.9761
0.190734
-1.15553
0.201273
-0.175947
1744.56
-322.334
58.9261
39.9959
71.7943
62.4591
70.2915
103.46
35.7591
21.0431
21.9619
22.4349
0.751825
6.13694
82.5885
63.9259
61.7173
56.4581
52.6862
52.3534
52.1182
51.5931
50.4668
48.4914
47.031
46.2994
44.5727
42.5618
40.6166
38.6734
36.681
34.4399
31.8725
29.6947
17.3608
37.1612
-40.8926
-22.5431
32.1263
177.017
16.9644
-1.91071
-1.52431
0.544495
-0.321448
2554.7
-1026.07
-113.096
-11.8256
72.6953
57.3561
49.6014
-10.3704
16.9347
21.8958
22.0489
24.627
-12.6534
-119.534
97.7823
65.5577
63.0296
56.1171
52.1883
53.3185
58.094
56.1716
52.4776
53.6129
47.9789
46.7357
44.7326
42.5617
40.5939
38.6943
36.8246
34.7956
32.6334
30.9176
21.7584
46.1979
-59.5194
-8.12833
81.3447
520.159
394.755
-6.03565
-2.81498
-0.0732037
-0.392844
3382.37
-1266.43
-117.068
-26.1664
88.7293
60.1865
36.3777
-88.7903
2.94864
22.3438
20.0562
18.7969
63.1488
380.212
136.243
54.2818
63.7776
55.5009
57.7742
53.0863
55.7769
56.2549
53.7416
52.8923
52.422
48.1619
46.0127
43.4631
41.0932
38.943
37.0414
35.0718
33.1219
31.4547
24.9577
59.8819
75.1884
0.388749
76.8011
281.129
25.0938
-2.01826
-4.93102
1.97498
-0.218879
3770.2
-1080.92
-295.114
-34.8738
94.3975
59.3611
33.162
-111.129
1.07199
22.353
17.6632
16.9029
265.55
434.049
140.98
56.4954
66.252
56.1505
60.2479
54.3856
56.2316
57.1768
53.3722
52.7533
51.1989
48.2844
46.6919
44.5084
42.2651
39.9298
37.7016
35.5106
33.5341
31.5059
26.1184
64.4257
71.0385
45.7167
71.8918
188.561
-0.961646
2.01212
-6.29537
3.91996
-0.169537
4139.49
-503.367
-354.8
-48.5011
98.4384
59.1109
32.2277
-105.594
-5.44916
21.7522
16.922
18.6953
132.53
417.445
141.413
59.513
68.3389
56.7103
74.2466
53.0342
56.0253
57.1495
54.3718
53.2409
50.902
48.116
46.4061
44.0821
41.8741
39.7314
37.7586
35.7574
33.887
31.3819
31.2446
66.5246
111.446
34.5555
68.3702
76.7702
-207.363
8.23234
5.46807
3.69942
0.278346
4307.3
-512.113
-384.114
-64.145
99.9132
59.6124
35.3854
-97.5063
-0.0374417
21.1122
15.0825
21.9593
62.6077
260.179
144.084
62.7927
67.9808
56.0887
61.245
55.2875
58.8404
57.3329
53.1817
52.8065
50.6606
47.744
45.7427
43.3234
41.0681
38.9157
37.0376
35.2618
33.8092
31.2869
32.7966
73.5676
106.35
30.8652
69.4969
-9.17656
-442.856
11.9422
5.33762
2.46499
0.575855
4225.04
-385.996
-350.851
-77.0968
96.8571
58.7698
41.18
-92.4499
-3.02784
21.1401
14.4844
23.5647
62.1245
152.568
142.055
64.5281
61.4257
55.8602
58.2109
53.6109
59.2178
58.7055
52.7153
52.4768
50.3666
47.6043
45.5573
43.1763
40.9487
38.8321
36.9932
35.2779
33.9947
31.6212
32.0562
78.6828
102.472
31.1913
71.9225
13.4005
-72.7082
9.34637
7.68831
2.35424
0.458111
469.452
447.259
412.977
489.074
794.376
465.821
448.033
406.467
462.583
530.406
464.618
447.191
396.619
441.595
600.5
466.52
445.551
384.735
411.719
266.62
471.515
444.153
376.832
395.82
330.901
2708.64
-48.8411
-250.325
-103.962
79.2977
63.437
57.6506
-53.311
-1.88048
22.1761
15.1886
24.6551
-2.35438
30.4629
133.098
65.2632
64.2978
55.7064
53.2435
54.4352
59.9791
50.3944
53.7955
52.3351
49.408
47.3778
45.3669
43.1321
40.9497
38.9053
37.1477
35.6215
34.6377
32.9834
37.4161
28.8457
112.024
45.7918
86.7146
197.807
148.03
-6.54159
4.91227
2.02484
0.716267
1902.65
280.779
27.9418
31.8031
88.6116
78.3285
92.5084
38.5803
17.9552
22.6508
23.8131
24.0146
13.6582
22.0566
107.639
48.2234
56.6762
53.7353
51.9043
50.8652
50.6142
49.8651
50.5145
48.8701
48.7205
47.0857
45.1601
43.0506
40.9563
39.0104
37.3878
36.1287
35.69
35.2231
41.7941
32.8798
108.822
54.8022
115.845
277.164
297.457
-5.83021
2.56029
1.59128
0.659618
1278.22
266.518
6.43882
76.4736
100.907
95.4234
127.822
136.371
29.6232
22.5935
25.0296
23.9279
24.2674
22.9723
69.7433
24.8406
48.3465
51.1667
51.5101
51.0929
51.2984
49.0887
48.4361
48.3065
48.1155
46.7527
44.9517
42.9383
40.9234
39.0621
37.5559
36.5193
36.5491
37.1114
45.3151
38.809
100.274
67.313
103.433
111.549
-15.2146
0.186481
2.45586
1.38694
0.654479
1279.57
372.912
46.5978
105.567
111.243
107.811
149.566
228.304
63.0142
21.9097
25.3613
24.3876
28.2007
-180.145
16.8347
15.6439
43.8842
49.1542
50.3389
49.6589
48.586
47.8624
48.1602
48.0991
47.8424
46.5809
44.8237
42.8367
40.8476
39.0322
37.6065
36.7296
37.0565
38.244
47.5371
42.7841
98.9605
69.0441
87.7254
42.2168
-12.3965
2.30841
2.39632
1.27497
0.656136
944.685
399.702
102.452
127.6
116.344
117.738
160.903
275.489
85.3906
19.9889
25.4526
24.4995
27.2411
-215.629
-13.7485
8.42871
42.51
48.5351
50.5578
50.3993
49.6781
49.2652
49.4741
49.2255
48.7744
47.3137
45.3806
43.2952
41.2709
39.4393
37.9966
37.1472
37.6044
38.9409
49.7765
44.418
99.4533
66.6427
78.3919
22.1085
-12.689
3.83291
2.45345
1.22805
0.735109
)
;

boundaryField
{
    AirInlet
    {
        type            calculated;
        value           nonuniform List<scalar> 5(3582.19 3924.24 4312.81 4373.66 4328.38);
    }
    WaterInlet
    {
        type            calculated;
        value           nonuniform List<scalar> 10(470.23 464.647 462.155 462.721 466.009 469.434 465.806 464.608 466.514 471.513);
    }
    ChannelWall
    {
        type            calculated;
        value           nonuniform List<scalar> 
110
(
465.965
427.331
420.451
426.985
299.026
469.478
447.289
413.011
489.112
794.416
471.489
444.122
376.797
395.781
330.866
944.663
399.672
102.41
127.556
116.3
117.693
160.859
275.445
85.3788
19.9888
25.4525
24.4994
27.2406
-215.661
-13.7927
8.38457
42.4658
48.491
50.5137
50.3551
49.634
49.221
49.43
49.1813
48.7303
47.2695
45.3365
43.251
41.2267
39.3952
37.9524
37.103
37.5603
38.8968
49.7324
44.3739
99.4092
66.5986
78.3477
22.0672
-12.7027
3.83286
2.4534
1.228
0.735063
470.255
428.598
416.652
396.449
355.849
1033.67
261.132
154.23
98.8961
89.5191
74.9727
49.1014
-32.4314
15.0802
24.6641
22.3294
22.0262
16.6458
-34.5123
47.3282
54.0363
57.109
56.3327
54.0159
52.4946
51.0444
50.7169
50.5245
49.5359
48.4241
47.1711
45.3416
43.2891
41.2461
39.204
37.0441
34.474
31.2385
27.7044
12.7226
17.2293
-38.2157
-60.6498
-109.302
-375.017
-22.1598
-0.564475
-0.832255
1.30382
-0.0349411
)
;
    }
    Outlet
    {
        type            calculated;
        value           nonuniform List<scalar> 
15
(
-0.000386246
-0.000133167
-0.00022403
-0.000319846
-0.000493727
-0.0224776
-0.0219284
-0.0177872
-0.00744354
-0.00371363
-0.00159017
-0.000715644
-0.000803607
-0.000890187
-0.000967496
)
;
    }
    FrontAndBack
    {
        type            empty;
    }
}


// ************************************************************************* //
