/*--------------------------------*- C++ -*----------------------------------*\
| =========                 |                                                 |
| \\      /  F ield         | OpenFOAM: The Open Source CFD Toolbox           |
|  \\    /   O peration     | Version:  2.3.0                                 |
|   \\  /    A nd           | Web:      www.OpenFOAM.org                      |
|    \\/     M anipulation  |                                                 |
\*---------------------------------------------------------------------------*/
FoamFile
{
    version     2.0;
    format      ascii;
    class       volScalarField;
    location    "0.032";
    object      p;
}
// * * * * * * * * * * * * * * * * * * * * * * * * * * * * * * * * * * * * * //

dimensions      [1 -1 -2 0 0 0 0];

internalField   nonuniform List<scalar> 
725
(
2553.58
2381.02
2330.82
2312.07
2302.91
2526.69
2382.92
2331.87
2311.9
2296.4
2511.88
2383.32
2329.88
2305.6
2279.38
2509.41
2379.06
2324.83
2295.4
2254.36
2517.52
2373.09
2318.81
2285.53
2201.93
2312.77
2148.88
2257.3
1184.22
961.857
467.558
469.722
547.659
630.352
687.014
721.898
629.126
434.649
354.925
316.619
303.688
300.356
298.423
296.397
290.504
277.358
276.111
262.162
244.11
252.167
207.207
176.129
163.751
199.222
241.079
208.838
199.139
187.516
140.502
76.9478
45.833
36.0078
32.6513
31.1057
27.9301
22.9982
17.8222
12.5298
5.2742
-3.29654
2295.66
2256.09
1593.44
1218.44
1076.38
488.041
471.874
550.906
641.737
641.588
686.201
634
393.964
338.927
312.779
298.826
298.024
296.467
293.743
288.764
281.503
281.181
265.135
246.799
252.976
205.294
175.311
167.208
162.171
191.826
207.659
202.051
196.409
127.03
72.8747
42.9358
31.849
30.1151
29.4724
26.6351
21.7595
16.6098
11.6942
4.38971
-3.71176
2268.45
1864.22
1842.61
1189.45
658.161
372.903
515.049
580.058
663.396
660.574
726.534
632.829
387.585
326.493
309.883
296.886
297.906
296.453
289.844
288.427
276.254
272.878
259.979
244.397
259.224
198.253
172.711
168.799
167.891
171.112
207.777
204.21
204.27
108.069
70.4875
40.0391
30.3873
29.6717
29.615
26.7413
21.6436
16.5717
12.3836
3.64941
-4.3825
2237.75
1948.95
1969.63
1785.08
799.832
453.322
546.181
588.805
688.762
589.236
773.946
622.355
381.048
317.561
305.336
295.231
299.788
297.9
290.502
287.131
275.696
277.806
253.996
237.653
269.007
181.908
168.169
169.179
166.94
178.541
188.553
204.39
197.105
122.696
67.5915
35.1153
28.948
29.8855
30.5289
27.0771
21.3706
16.5003
12.3497
0.97997
-5.13319
2056.15
2016.44
2014.98
1596.99
982.085
568.02
705.554
583.881
662.004
555.989
893.36
620.164
351.96
301.57
299.079
292.15
302.623
298.881
290.967
285.427
276.302
282.99
240.144
233.109
281.587
163.29
163.293
168.286
163.342
173.948
149.488
154.554
107.999
109.165
73.7818
25.9354
29.0988
31.0746
32.3912
28.1299
21.8243
17.2184
13.8342
-3.29447
-5.62922
1986.76
2018.06
2015.59
1616.32
1038.17
594.845
717.095
680.274
642.298
562.252
1337.09
575.034
336.712
306.584
296.577
289.229
306.686
301.129
291.84
285.275
273.227
291.358
416.388
265.632
341.645
152.638
160.036
169.626
160.747
166.697
159.919
156.933
100.196
119.638
72.0755
45.3611
29.512
31.549
34.3634
28.8725
21.3443
17.1884
6.14866
27.1827
-6.37638
1980.82
2013.09
2009.97
1346.74
1011.52
657.201
724.211
659.05
631.479
1992.97
1381.55
555.048
247.306
309.388
295.541
288.294
322.384
309.49
346.548
289.199
271.396
293.185
428.006
268.283
443.299
181.552
159.167
206.683
177.784
164.766
163.004
142.759
70.0512
126.549
79.9946
34.6896
28.9883
31.8324
35.2967
29.7335
21.2123
17.3223
14.1749
29.1682
3.62575
1958.13
2011.86
1998.22
1490.57
1160.89
869.389
741.742
669.623
622.96
1039.85
1382.9
536.36
201.987
319.454
293.994
353.405
327.302
324.199
269.802
289.409
270.552
298.864
415.955
265.818
444.096
196.397
159.394
157.672
168.128
163.646
108.717
143.088
60.7366
96.5871
79.0562
37.0454
81.1718
55.9845
59.8811
31.5273
30.0158
21.4366
14.27
24.8536
3.45935
1956.88
2013.96
1974.54
1466.67
685.988
526.747
713.541
662.755
624.822
3027.32
3094.2
511.399
288.931
394.584
364.774
303.876
279.689
275.47
270.304
272.366
294.353
301.439
415.38
263.482
310.625
174.233
160.202
158.9
165.961
163.542
174.479
131.495
62.6927
109.067
83.0785
31.5323
69.7765
50.5264
37.4576
30.9532
25.6777
20.3012
12.893
22.9595
13.5649
2009.6
2017.08
1951.42
1365.49
689.349
502.889
690.743
651.983
638.09
1670.63
246.812
462.641
247.817
315.115
307.898
302.89
280.651
275.594
270.681
271.791
274.214
292.952
411.165
261.787
347.673
195.971
161.499
159.506
164.477
161.754
120.302
147.091
79.0341
137.982
104.527
37.8936
66.4689
50.4188
37.6713
30.758
25.364
19.8411
8.35723
21.2513
2.20279
1252.29
1108.57
1056.45
1044.74
1063.34
1243.96
1113.98
1058.22
1028.74
928.512
1246.21
1117.83
1062.56
1045.24
979.296
1260.82
1117.09
1063.43
1050.13
982.193
1287.6
1115.06
1061.95
1050.53
980.67
2056.66
1932.54
1899.02
1207.08
832.11
474.894
528.453
601.292
395.477
610.861
428.864
295.365
353.902
309.408
306.191
300.302
282.463
276.494
271.612
270.68
272.532
230.527
277.244
255.889
202.227
180.169
164.786
160.111
160.455
153.778
130.006
150.089
90.1289
162.296
143.594
60.2727
68.4741
51.5284
38.8515
31.4286
25.1708
19.3566
11.5376
17.1297
2.56437
1281.03
1430.23
979.104
1029.3
710.527
501.269
692.836
546.753
381.089
186.645
74.3313
284.369
342.994
310.21
303.737
297.708
284.493
277.404
272.032
268.479
265.983
237.749
217.889
269.417
221.434
174.788
161.294
157.884
156.07
149.723
131.539
128.459
144.566
157.476
172.823
79.5401
67.0605
52.2088
41.186
32.4008
25.1127
19.521
14.5879
15.5092
3.25059
1061.55
1145.6
1032.2
898.594
664.721
514.418
552.469
464.484
378.591
231.726
118.042
255.163
311.352
302.312
299.028
294.825
285.261
277.903
271.914
267.381
269.857
239.356
235.776
261.052
183.638
177.983
163.56
156.49
153.057
146.169
128.286
121.727
158.398
156.698
162.86
76.8067
69.8021
54.2928
41.2254
32.4185
24.2549
19.1957
15.8841
12.1305
0.241807
1034.34
951.108
631.997
686.825
776.9
528.572
612.959
481.143
371.815
256.885
155.129
233.955
294.87
297.749
300.374
296.326
286.508
278.369
271.754
267.429
266.195
249.305
241.287
243.772
166.629
168.851
163.809
155.787
151.697
143.835
122.867
146.119
158.816
154.82
154.782
86.8814
73.9874
53.853
41.4097
33.1142
23.9928
19.2968
14.9141
12.8963
20.8648
1040.76
1006.76
1057.6
700.724
927.539
492.086
600.785
481.687
384.039
315.896
224.353
242.913
290.858
295.738
297.027
294.364
288.484
280.034
272.819
264.448
304.067
294.925
242.336
311.96
262.452
178.841
165.058
156.555
152.131
142.581
118.638
214.22
163.233
152.524
145.256
112.034
72.3461
85.6572
87.8368
76.7466
39.8007
34.9769
29.2642
9.31419
13.3928
)
;

boundaryField
{
    AirInlet
    {
        type            calculated;
        value           nonuniform List<scalar> 5(1986.76 1995.68 1833.94 2073.39 2009.55);
    }
    WaterInlet
    {
        type            calculated;
        value           nonuniform List<scalar> 10(2553.59 2526.7 2511.89 2509.43 2517.54 1252.27 1243.94 1246.2 1260.82 1287.59);
    }
    ChannelWall
    {
        type            calculated;
        value           nonuniform List<scalar> 
110
(
2517.5
2373.06
2318.78
2285.49
2201.89
1252.32
1108.6
1056.48
1044.77
1063.38
1287.57
1115.03
1061.91
1050.49
980.627
1040.72
1006.72
1057.56
700.681
927.5
492.043
600.741
481.643
383.994
315.852
224.309
242.868
290.814
295.694
296.983
294.32
288.44
279.99
272.775
264.404
304.024
294.884
242.295
311.917
262.407
178.797
165.014
156.511
152.087
142.537
118.594
214.179
163.192
152.483
145.215
111.99
72.3021
85.6135
87.7932
76.703
39.7568
34.933
29.2203
9.27027
13.3489
2553.61
2381.05
2330.85
2312.11
2302.95
2312.82
2148.92
2257.33
1184.23
961.871
467.594
469.767
547.703
630.396
687.056
721.936
629.164
434.691
354.969
316.663
303.732
300.4
298.467
296.441
290.548
277.402
276.155
262.206
244.154
252.211
207.251
176.173
163.795
199.265
241.12
208.88
199.181
187.557
140.546
76.9919
45.8771
36.0519
32.6954
31.1498
27.9742
23.0424
17.8663
12.5739
5.31832
-3.25242
)
;
    }
    Outlet
    {
        type            calculated;
        value           nonuniform List<scalar> 
15
(
-0.0441185
-0.132372
-0.220667
-0.30895
-0.397254
-0.450992
-0.470371
-0.489969
-0.509822
-0.529266
-0.582573
-0.669902
-0.757822
-0.843061
-0.932582
)
;
    }
    FrontAndBack
    {
        type            empty;
    }
}


// ************************************************************************* //
