/*--------------------------------*- C++ -*----------------------------------*\
| =========                 |                                                 |
| \\      /  F ield         | OpenFOAM: The Open Source CFD Toolbox           |
|  \\    /   O peration     | Version:  2.3.0                                 |
|   \\  /    A nd           | Web:      www.OpenFOAM.org                      |
|    \\/     M anipulation  |                                                 |
\*---------------------------------------------------------------------------*/
FoamFile
{
    version     2.0;
    format      ascii;
    class       volScalarField;
    location    "0.032";
    object      p_rgh;
}
// * * * * * * * * * * * * * * * * * * * * * * * * * * * * * * * * * * * * * //

dimensions      [1 -1 -2 0 0 0 0];

internalField   nonuniform List<scalar> 
725
(
470.255
428.598
416.652
396.449
355.849
464.72
429.176
417.133
400.768
356.605
462.278
429.287
418.074
406.317
333.33
462.892
428.766
419.106
416.048
258.7
466.229
427.635
420.794
427.368
299.42
1033.67
261.132
154.23
98.8961
89.5191
74.9727
49.1014
-32.4314
15.0802
24.6641
22.3294
22.0262
16.6458
-34.5123
47.3282
54.0363
57.109
56.3327
54.0159
52.4946
51.0444
50.7169
50.5245
49.5359
48.4241
47.1711
45.3416
43.2891
41.2461
39.204
37.0441
34.474
31.2385
27.7044
12.7226
17.2293
-38.2157
-60.6498
-109.302
-375.017
-22.1598
-0.564475
-0.832255
1.30382
-0.0349411
1164.01
215.468
82.5203
82.5902
82.4294
70.9856
57.2282
15.2848
19.8145
22.9863
22.1739
21.5509
20.19
48.6064
56.7813
56.492
58.0007
55.9053
53.118
51.4826
49.8946
49.4977
49.2748
48.3518
47.283
46.2502
44.6665
42.7883
40.8502
38.852
36.7166
34.1957
31.0819
27.7368
13.3988
21.1453
-33.4991
-48.6295
-80.5838
-263.46
-27.434
-0.702101
-1.17607
0.390686
-0.0638315
1473.58
22.7809
48.1986
71.7283
76.3099
67.2363
71.0679
96.5579
36.5946
21.5417
22.0931
21.6914
12.6533
52.5725
72.531
60.5055
59.9771
56.4064
53.2801
52.037
51.1042
50.9233
49.6655
48.4731
47.3186
46.3281
44.697
42.79
40.8644
38.8927
36.8141
34.4037
31.5136
28.7286
15.1585
28.4289
-33.0066
-35.1816
-37.3516
-215.218
-55.9505
0.190967
-1.15529
0.201512
-0.175723
1744.77
-322.074
59.235
40.305
72.1033
62.7682
70.6005
103.718
35.8077
21.0439
21.9627
22.4356
0.781362
6.38885
82.8975
64.2349
62.0263
56.767
52.9952
52.6622
52.427
51.9018
50.7755
48.8
47.3396
46.608
44.8814
42.8706
40.9255
38.9823
36.99
34.7489
32.1814
30.0036
17.6698
37.4702
-40.5835
-22.2341
32.4353
177.312
17.0144
-1.91037
-1.52399
0.544818
-0.321128
2554.89
-1025.75
-112.7
-11.4283
73.0926
57.7534
49.9987
-10.0387
16.9923
21.8969
22.0499
24.628
-12.6192
-119.238
98.1796
65.955
63.4268
56.5143
52.5855
53.7157
58.4913
56.5688
52.8743
54.0094
48.3754
47.1323
45.1293
42.9586
40.9909
39.0914
37.2217
35.1928
33.0305
31.3148
22.1557
46.5952
-59.1222
-7.73159
81.742
520.551
394.881
-6.03499
-2.81453
-0.0727468
-0.392434
3382.43
-1266.12
-116.639
-25.7152
89.1805
60.6377
36.829
-88.4158
3.01473
22.3452
20.0574
18.7982
63.1968
380.558
136.694
54.7328
64.2286
55.952
58.2253
53.5374
56.2279
56.7058
54.1921
53.3427
52.8722
48.6122
46.4632
43.9137
41.5439
39.3939
37.4924
35.5228
33.573
31.9058
25.4089
60.3332
75.6384
0.839378
77.2524
281.558
25.2105
-2.0166
-4.9303
1.97604
-0.218403
3770.21
-1080.67
-294.66
-34.403
94.8683
59.8319
33.6329
-110.735
1.14033
22.3544
17.6646
16.9044
265.612
434.407
141.45
56.9659
66.7227
56.6212
60.7186
54.8563
56.7022
57.6472
53.8424
53.2233
51.6688
48.7543
47.1619
44.9786
42.7354
40.4002
38.1722
35.9813
34.0048
31.9767
26.5891
64.8966
71.5081
46.1874
72.3626
189
-0.833311
2.01308
-6.29433
3.9211
-0.169039
4139.49
-503.139
-354.332
-48.0107
98.9289
59.6013
32.7182
-105.184
-5.37484
21.7534
16.9235
18.6969
132.588
417.807
141.903
60.0032
68.8292
57.2006
74.7371
53.5245
56.5155
57.6396
54.8616
53.7305
51.3914
48.6055
46.8957
44.5719
42.364
40.2215
38.2488
36.2476
34.3773
31.8723
31.7348
67.0137
111.936
35.0456
68.8607
77.2254
-207.253
8.2332
5.46931
3.70061
0.278862
4307.3
-511.878
-383.62
-63.6349
100.423
60.1225
35.8956
-97.0762
0.0426877
21.1135
15.0843
21.9608
62.6606
260.569
144.594
63.3026
68.4908
56.5986
61.7549
55.7974
59.3502
57.8425
53.6911
53.3157
51.1696
48.2531
46.2519
43.8328
41.5777
39.4254
37.5474
35.7716
34.3192
31.7969
33.3064
74.0731
106.859
31.3737
70.007
-8.70122
-442.736
11.9429
5.3389
2.46555
0.576392
4225.05
-385.748
-350.343
-76.5671
97.3868
59.2995
41.7097
-91.9975
-2.94424
21.1414
14.4863
23.5659
62.1717
152.961
142.585
65.0576
61.9552
56.3898
58.7405
54.1404
59.7472
59.2346
53.2442
53.0055
50.8952
48.133
46.0861
43.7053
41.478
39.3614
37.5227
35.8074
34.5243
32.1508
32.5857
79.2078
102.999
31.7183
72.4523
13.8916
-72.5922
9.34709
7.68908
2.35481
0.458685
470.194
447.966
413.649
489.711
794.949
466.616
448.801
407.207
463.296
531.065
465.466
448.019
397.428
442.385
601.27
467.421
446.441
385.613
412.585
267.405
472.47
445.103
377.778
396.762
331.675
2708.69
-48.5301
-249.741
-103.378
79.8813
64.0206
58.2343
-52.7992
-1.78201
22.1774
15.1906
24.6564
-2.30745
30.9285
133.681
65.8469
64.8814
56.29
53.8271
55.0189
60.563
50.9777
54.378
52.9176
49.9906
47.9605
45.9498
43.7152
41.5329
39.4887
37.7312
36.205
35.2212
33.567
37.9997
29.4248
112.602
46.3717
87.2983
198.356
148.249
-6.54092
4.9129
2.02547
0.71689
1902.81
281.124
28.6138
32.4751
89.2836
79.0005
93.1804
39.1976
18.0847
22.6523
23.8147
24.0161
13.681
22.5486
108.311
48.8953
57.3481
54.4071
52.5761
51.5369
51.2858
50.5362
51.1853
49.5409
49.3914
47.7569
45.8315
43.7221
41.6279
39.6822
38.0596
36.8006
36.3619
35.895
42.4659
33.5512
109.488
55.4729
116.517
277.8
297.682
-5.82948
2.56101
1.592
0.660333
1278.51
266.965
7.18006
77.2339
101.667
96.1837
128.582
137.099
29.7886
22.5952
25.0313
23.9296
24.3083
23.5477
70.5036
25.6008
49.1066
51.9268
52.2701
51.8528
52.0581
49.8482
49.1956
49.066
48.8751
47.5125
45.7117
43.6984
41.6836
39.8222
38.3161
37.2795
37.3093
37.8716
46.0753
39.5692
101.034
68.0731
104.194
112.258
-14.9615
0.187297
2.45668
1.38775
0.655282
1279.9
373.41
47.4211
106.416
112.092
108.66
150.415
229.135
63.2254
21.9116
25.3632
24.3895
28.2127
-179.56
17.6832
16.4924
44.7326
50.0026
51.1873
50.5071
49.4342
48.7106
49.0084
48.9474
48.6907
47.4293
45.6721
43.6852
41.6961
39.8806
38.455
37.5781
37.905
39.0925
48.3856
43.6326
99.809
69.8927
88.574
43.0081
-12.1281
2.30935
2.39722
1.27587
0.657026
945.157
400.329
103.336
128.537
117.281
118.675
161.84
276.417
85.6405
19.991
25.4547
24.5017
27.2525
-214.963
-12.8117
9.36536
43.4467
49.4719
51.4946
51.3361
50.6149
50.202
50.4109
50.1623
49.7113
48.2505
46.3175
44.2321
42.2078
40.3762
38.9335
38.084
38.5413
39.8778
50.7134
45.3549
100.39
67.5796
79.3287
22.9849
-12.3987
3.83397
2.45444
1.22903
0.736076
)
;

boundaryField
{
    AirInlet
    {
        type            fixedFluxPressure;
        gradient        nonuniform List<scalar> 5(1.99755e+07 1.54027e+07 1.73316e+07 6.63572e+06 1.0333e+07);
        value           nonuniform List<scalar> 5(3582.19 3924.24 4312.81 4373.66 4328.38);
    }
    WaterInlet
    {
        type            fixedFluxPressure;
        gradient        nonuniform List<scalar> 10(3.00794e-06 -11.5023 -1.26001 -3.71599 -4.34206 0.0303031 -10.5279 -0.208696 -5.5806 -1.03539);
        value           nonuniform List<scalar> 10(470.255 464.72 462.278 462.892 466.229 470.194 466.616 465.466 467.421 472.47);
    }
    ChannelWall
    {
        type            fixedFluxPressure;
        gradient        uniform 0;
        value           nonuniform List<scalar> 
110
(
466.229
427.635
420.794
427.368
299.42
470.194
447.966
413.649
489.711
794.949
472.47
445.103
377.778
396.762
331.675
945.157
400.329
103.336
128.537
117.281
118.675
161.84
276.417
85.6405
19.991
25.4547
24.5017
27.2525
-214.963
-12.8117
9.36536
43.4467
49.4719
51.4946
51.3361
50.6149
50.202
50.4109
50.1623
49.7113
48.2505
46.3175
44.2321
42.2078
40.3762
38.9335
38.084
38.5413
39.8778
50.7134
45.3549
100.39
67.5796
79.3287
22.9849
-12.3987
3.83397
2.45444
1.22903
0.736076
470.255
428.598
416.652
396.449
355.849
1033.67
261.132
154.23
98.8961
89.5191
74.9727
49.1014
-32.4314
15.0802
24.6641
22.3294
22.0262
16.6458
-34.5123
47.3282
54.0363
57.109
56.3327
54.0159
52.4946
51.0444
50.7169
50.5245
49.5359
48.4241
47.1711
45.3416
43.2891
41.2461
39.204
37.0441
34.474
31.2385
27.7044
12.7226
17.2293
-38.2157
-60.6498
-109.302
-375.017
-22.1598
-0.564475
-0.832255
1.30382
-0.0349411
)
;
    }
    Outlet
    {
        type            totalPressure;
        rho             rho;
        psi             none;
        gamma           1;
        p0              uniform 0;
        value           nonuniform List<scalar> 
15
(
-0.000342101
0
0
0
-8.40678e-05
-0.0220263
-0.0214575
-0.0172967
-0.00693342
-0.00318389
-0.00100648
0
0
0
0
)
;
    }
    FrontAndBack
    {
        type            empty;
    }
}


// ************************************************************************* //
