/*--------------------------------*- C++ -*----------------------------------*\
| =========                 |                                                 |
| \\      /  F ield         | OpenFOAM: The Open Source CFD Toolbox           |
|  \\    /   O peration     | Version:  2.3.0                                 |
|   \\  /    A nd           | Web:      www.OpenFOAM.org                      |
|    \\/     M anipulation  |                                                 |
\*---------------------------------------------------------------------------*/
FoamFile
{
    version     2.0;
    format      ascii;
    class       volScalarField;
    location    "0.032";
    object      p_rgh;
}
// * * * * * * * * * * * * * * * * * * * * * * * * * * * * * * * * * * * * * //

dimensions      [1 -1 -2 0 0 0 0];

internalField   nonuniform List<scalar> 
725
(
2553.61
2381.05
2330.85
2312.11
2302.95
2526.77
2383.01
2331.97
2312.02
2296.53
2512.02
2383.47
2330.05
2305.79
2279.59
2509.6
2379.28
2325.07
2295.66
2254.66
2517.76
2373.37
2319.12
2285.88
2202.31
2312.82
2148.92
2257.33
1184.23
961.871
467.594
469.767
547.703
630.396
687.056
721.936
629.164
434.691
354.969
316.663
303.732
300.4
298.467
296.441
290.548
277.402
276.155
262.206
244.154
252.211
207.251
176.173
163.795
199.265
241.12
208.88
199.181
187.557
140.546
76.9919
45.8771
36.0519
32.6954
31.1498
27.9742
23.0424
17.8663
12.5739
5.31832
-3.25242
2295.79
2256.22
1593.51
1218.45
1076.41
488.145
472.006
551.038
641.87
641.718
686.317
634.115
394.086
339.059
312.911
298.958
298.156
296.6
293.876
288.896
281.635
281.314
265.267
246.931
253.108
205.426
175.443
167.34
162.303
191.951
207.783
202.175
196.534
127.159
73.0071
43.0681
31.9813
30.2474
29.6047
26.7675
21.8918
16.7422
11.8266
4.5221
-3.57939
2268.67
1864.39
1842.62
1189.48
658.241
373.1
515.269
580.279
663.616
660.793
726.727
633.021
387.787
326.714
310.104
297.107
298.127
296.674
290.064
288.648
276.474
273.098
260.199
244.617
259.445
198.474
172.931
169.02
168.112
171.328
207.984
204.418
204.478
108.286
70.7082
40.2598
30.6079
29.8923
29.8357
26.962
21.8643
16.7924
12.6043
3.87011
-4.16184
2238.06
1949
1969.63
1785.09
799.924
453.601
546.49
589.114
689.071
589.542
774.216
622.624
381.328
317.869
305.645
295.54
300.097
298.209
290.811
287.44
276.005
278.115
254.305
237.962
269.316
182.217
168.478
169.488
167.249
178.85
188.849
204.68
197.396
123
67.9005
35.4243
29.257
30.1944
30.8378
27.386
21.6795
16.8093
12.6586
1.28893
-4.82424
2056.24
2016.44
2014.98
1597.02
982.349
568.406
705.938
584.276
662.401
556.385
893.708
620.51
352.323
301.967
299.476
292.547
303.02
299.278
291.364
285.824
276.699
283.387
240.539
233.505
281.982
163.686
163.691
168.683
163.74
174.345
149.881
154.944
108.391
109.56
74.1783
26.3327
29.4961
31.4719
32.7884
28.5271
22.2215
17.6156
14.2314
-2.89721
-5.23196
1986.76
2018.06
2015.59
1616.36
1038.47
595.284
717.533
680.719
642.749
562.665
1337.48
575.426
337.124
307.034
297.028
289.68
307.137
301.579
292.291
285.726
273.678
291.81
416.816
266.06
342.076
153.087
160.487
170.077
161.197
167.148
160.37
157.384
100.647
120.089
72.5266
45.812
29.9627
31.9997
34.814
29.3233
21.7952
17.6394
6.59975
27.6335
-5.92539
1980.82
2013.09
2009.97
1346.82
1011.84
657.664
724.673
659.517
631.949
1993.38
1381.96
555.457
247.742
309.858
296.012
288.764
322.853
309.959
347.018
289.67
271.866
293.656
428.452
268.73
443.746
182.019
159.638
207.153
178.253
165.237
163.475
143.229
70.5218
127.02
80.4653
35.1603
29.4588
32.3023
35.7667
30.2037
21.6827
17.7928
14.6457
29.6386
4.09612
1958.13
2011.86
1998.22
1490.7
1161.22
869.877
742.23
670.111
623.449
1040.3
1383.35
536.787
202.455
319.944
294.484
353.894
327.79
324.688
270.292
289.898
271.042
299.354
416.42
266.283
444.561
196.883
159.884
158.162
168.617
164.135
109.207
143.577
61.2267
97.0771
79.5465
37.5358
81.661
56.4737
60.3704
32.0171
30.5057
21.9266
14.7601
25.3439
3.94931
1956.88
2013.96
1974.55
1466.81
686.356
527.244
714.048
663.263
625.33
3027.83
3094.69
511.842
289.434
395.091
365.283
304.386
280.198
275.979
270.814
272.875
294.862
301.949
415.863
263.965
311.111
174.74
160.712
159.41
166.469
164.051
174.987
132.004
63.2006
109.556
83.5816
32.0423
70.2854
51.0352
37.9668
31.4626
26.1872
20.8109
13.4027
23.4693
14.0748
2009.6
2017.08
1951.43
1365.69
689.751
503.392
691.27
652.51
638.615
1671.14
247.275
463.103
248.339
315.644
308.427
303.42
281.18
276.123
271.21
272.32
274.743
293.481
411.667
262.289
348.186
196.498
162.029
160.036
165.005
162.281
120.83
147.621
79.5556
138.473
105.035
38.421
66.9983
50.9479
38.2005
31.2874
25.8934
20.3705
8.88667
21.7807
2.73205
1253.03
1109.27
1057.12
1045.37
1063.92
1244.75
1114.75
1058.96
1029.46
929.197
1247.05
1118.66
1063.37
1046.03
980.066
1261.72
1117.98
1064.31
1051
983.048
1288.55
1116.01
1062.89
1051.47
981.609
2056.68
1932.55
1899.04
1207.36
832.578
475.452
529.014
601.855
396.06
611.387
429.374
295.929
354.484
309.991
306.775
300.885
283.046
277.077
272.196
271.263
273.116
231.103
277.807
256.442
202.781
180.749
165.37
160.694
161.039
154.361
130.59
150.673
90.6926
162.837
144.139
60.8468
69.0577
52.112
39.4351
32.0122
25.7544
19.9402
12.1212
17.7134
3.14694
1281.46
1430.45
979.405
1029.75
711.094
501.917
693.468
547.405
381.761
187.291
74.9523
285.026
343.666
310.882
304.409
298.379
285.165
278.076
272.704
269.15
266.655
238.405
218.525
270.054
222.071
175.455
161.966
158.556
156.742
150.395
132.211
129.127
145.191
158.099
173.446
80.1963
67.7324
52.8807
41.8579
33.0727
25.7846
20.1929
15.2599
16.1812
3.92049
1062.31
1146.12
1032.54
899.17
665.386
515.152
553.201
465.241
379.351
232.46
118.778
255.914
312.112
303.072
299.788
295.585
286.021
278.663
272.674
268.141
270.617
240.092
236.497
261.772
184.364
178.739
164.32
157.25
153.818
146.929
129.046
122.462
159.102
157.403
163.565
77.5522
70.5623
55.0531
41.9856
33.1786
25.015
19.9558
16.6444
12.8908
0.999628
1035.19
951.949
632.768
687.654
777.686
529.391
613.807
481.991
372.663
257.71
155.963
234.801
295.718
298.597
301.222
297.174
287.356
279.218
272.603
268.277
267.043
250.116
242.092
244.576
167.457
169.699
164.657
156.636
152.545
144.683
123.715
146.921
159.602
155.606
155.568
87.709
74.8358
54.7011
42.2571
33.9614
24.8405
20.1452
15.7613
13.7396
21.7079
1041.7
1007.7
1058.54
701.638
928.358
493.001
601.722
482.623
384.975
316.832
225.29
243.849
291.794
296.674
297.964
295.301
289.421
280.971
273.756
265.385
304.983
295.813
243.224
312.871
263.388
179.778
165.995
157.492
153.068
143.518
119.569
215.089
164.101
153.393
146.13
112.961
73.2804
86.5838
88.7626
77.6728
40.732
35.9085
30.1957
10.2462
14.3254
)
;

boundaryField
{
    AirInlet
    {
        type            fixedFluxPressure;
        gradient        nonuniform List<scalar> 5(-11.9699 1.48606e+06 -1.2419e+07 1.16518e+07 -4273.97);
        value           nonuniform List<scalar> 5(1986.76 1995.68 1833.94 2073.4 2009.55);
    }
    WaterInlet
    {
        type            fixedFluxPressure;
        gradient        nonuniform List<scalar> 10(-0.00133718 -0.800562 -0.637313 -0.0699496 -0.0523158 -0.000653737 -0.124234 -0.662895 -0.641441 -3.57771);
        value           nonuniform List<scalar> 10(2553.61 2526.77 2512.02 2509.6 2517.76 1253.03 1244.75 1247.05 1261.72 1288.55);
    }
    ChannelWall
    {
        type            fixedFluxPressure;
        gradient        uniform 0;
        value           nonuniform List<scalar> 
110
(
2517.76
2373.37
2319.12
2285.88
2202.31
1253.03
1109.27
1057.12
1045.37
1063.92
1288.55
1116.01
1062.89
1051.47
981.609
1041.7
1007.7
1058.54
701.638
928.358
493.001
601.722
482.623
384.975
316.832
225.29
243.849
291.794
296.674
297.964
295.301
289.421
280.971
273.756
265.385
304.983
295.813
243.224
312.871
263.388
179.778
165.995
157.492
153.068
143.518
119.569
215.089
164.101
153.393
146.13
112.961
73.2804
86.5838
88.7626
77.6728
40.732
35.9085
30.1957
10.2462
14.3254
2553.61
2381.05
2330.85
2312.11
2302.95
2312.82
2148.92
2257.33
1184.23
961.871
467.594
469.767
547.703
630.396
687.056
721.936
629.164
434.691
354.969
316.663
303.732
300.4
298.467
296.441
290.548
277.402
276.155
262.206
244.154
252.211
207.251
176.173
163.795
199.265
241.12
208.88
199.181
187.557
140.546
76.9919
45.8771
36.0519
32.6954
31.1498
27.9742
23.0424
17.8663
12.5739
5.31832
-3.25242
)
;
    }
    Outlet
    {
        type            totalPressure;
        rho             rho;
        psi             none;
        gamma           1;
        p0              uniform 0;
        value           uniform 0;
    }
    FrontAndBack
    {
        type            empty;
    }
}


// ************************************************************************* //
