/*--------------------------------*- C++ -*----------------------------------*\
| =========                 |                                                 |
| \\      /  F ield         | OpenFOAM: The Open Source CFD Toolbox           |
|  \\    /   O peration     | Version:  2.3.0                                 |
|   \\  /    A nd           | Web:      www.OpenFOAM.org                      |
|    \\/     M anipulation  |                                                 |
\*---------------------------------------------------------------------------*/
FoamFile
{
    version     2.0;
    format      ascii;
    class       surfaceScalarField;
    location    "0.032";
    object      phi;
}
// * * * * * * * * * * * * * * * * * * * * * * * * * * * * * * * * * * * * * //

dimensions      [0 3 -1 0 0 0 0];

internalField   nonuniform List<scalar> 
1380
(
1.32164e-12
6.78361e-13
1.09122e-12
2.30421e-13
9.713e-13
1.19918e-13
7.2203e-13
2.4927e-13
9.56282e-13
-2.34251e-13
2.40392e-12
2.74441e-13
2.47004e-12
1.64302e-13
2.40959e-12
1.80368e-13
2.1435e-12
5.15363e-13
1.69852e-12
1.40125e-12
2.67553e-12
-4.0109e-13
2.92475e-12
-8.49167e-14
2.98182e-12
1.23295e-13
2.95431e-12
5.42877e-13
1.95529e-12
2.69754e-12
2.35397e-12
-7.5506e-13
2.44503e-12
-1.75975e-13
2.52511e-12
4.32123e-14
2.76205e-12
3.05935e-13
1.4149e-12
3.30244e-12
1.24494e-12
1.06896e-12
1.11218e-12
1.41811e-12
2.83301e-12
-2.18312e-12
1.94887e-12
-3.92274e-12
1.73962e-12
1.3445e-12
-5.26724e-12
6.52667e-12
-5.18217e-12
3.17348e-12
3.35319e-12
1.29927e-12
1.87421e-12
4.83456e-13
8.15814e-13
6.77347e-13
-1.93891e-13
2.10076e-12
-1.42342e-12
3.53249e-12
-1.43173e-12
2.97268e-12
5.59811e-13
3.54722e-12
-5.74537e-13
2.37127e-12
1.17595e-12
1.07907e-12
1.29219e-12
5.03005e-13
5.76069e-13
3.91024e-13
1.11981e-13
4.15051e-13
-2.40272e-14
4.37678e-13
-2.26263e-14
5.12463e-13
-7.47853e-14
5.01461e-13
1.10016e-14
3.467e-13
1.54762e-13
6.02521e-13
-2.55821e-13
8.40231e-13
-2.37709e-13
8.50464e-13
-1.02335e-14
1.16037e-12
-3.0991e-13
1.06926e-12
9.11173e-14
9.58646e-13
1.10611e-13
1.27262e-12
-3.13972e-13
1.95332e-12
-6.80702e-13
1.19631e-12
7.57011e-13
7.72653e-13
4.23657e-13
9.81297e-13
-2.08643e-13
1.80999e-12
-8.28694e-13
1.34223e-12
4.67757e-13
8.40907e-13
5.01327e-13
5.11743e-13
3.29164e-13
4.0834e-13
1.03403e-13
4.09911e-13
-1.57113e-15
4.47411e-13
-3.74992e-14
4.75352e-13
-2.79415e-14
4.82725e-13
-7.37241e-15
4.87467e-13
-4.74208e-15
4.99489e-13
-1.20218e-14
4.78238e-13
2.12507e-14
9.17653e-14
7.26709e-13
2.62342e-12
3.87437e-12
-1.40804e-12
1.60776e-11
-1.74704e-11
8.53149e-12
2.36391e-12
2.09915e-12
9.78553e-12
1.92594e-12
2.04742e-12
1.89368e-12
8.48069e-13
1.66149e-12
3.82964e-14
2.26948e-12
-2.0314e-12
2.34072e-12
-1.50297e-12
3.452e-12
-5.51463e-13
3.55906e-12
-6.81602e-13
2.95294e-12
1.78208e-12
2.00232e-12
2.24281e-12
1.35126e-12
1.22713e-12
1.17945e-12
2.83789e-13
1.21171e-12
-5.62791e-14
1.25862e-12
-6.95462e-14
1.34991e-12
-1.66067e-13
1.35164e-12
9.26985e-15
1.02825e-12
4.78145e-13
1.45916e-12
-6.86729e-13
1.90577e-12
-6.84319e-13
2.01675e-12
-1.21212e-13
2.49248e-12
-7.85642e-13
2.26786e-12
3.15743e-13
1.94301e-12
4.35458e-13
1.90917e-12
-2.80132e-13
1.84345e-12
-6.14982e-13
1.82279e-12
7.77669e-13
1.45564e-12
7.90809e-13
1.34451e-12
-9.75175e-14
1.59211e-12
-1.07629e-12
1.89353e-12
1.66335e-13
1.67506e-12
7.19792e-13
1.31602e-12
6.88206e-13
1.1455e-12
2.73927e-13
1.14986e-12
-5.93199e-15
1.21868e-12
-1.06319e-13
1.26909e-12
-7.83553e-14
1.28116e-12
-1.94423e-14
1.28265e-12
-6.23281e-15
1.3038e-12
-3.31664e-14
1.24988e-12
7.51691e-14
2.39011e-13
3.43968e-12
1.88128e-12
9.74124e-12
-7.7096e-12
9.08766e-12
-1.68169e-11
-2.62008e-12
1.40716e-11
1.71595e-12
5.4495e-12
4.47095e-12
-7.07575e-13
3.76093e-12
1.55809e-12
2.48952e-12
1.30971e-12
1.53805e-12
-1.07993e-12
6.2586e-13
-5.90785e-13
2.36941e-12
-2.29502e-12
2.90643e-12
-1.21862e-12
2.73627e-12
1.95225e-12
2.31662e-12
2.66246e-12
1.94558e-12
1.59817e-12
1.8207e-12
4.08667e-13
1.86422e-12
-9.97991e-14
1.93704e-12
-1.42362e-13
2.01226e-12
-2.41295e-13
2.01903e-12
2.506e-15
1.64825e-12
8.48927e-13
2.1177e-12
-1.15619e-12
2.72873e-12
-1.29535e-12
2.72364e-12
-1.16123e-13
3.27137e-12
-1.33337e-12
2.8828e-12
7.04312e-13
2.41297e-12
9.05289e-13
2.1095e-12
2.3335e-14
1.84179e-12
-3.47266e-13
1.93847e-12
6.80983e-13
1.79513e-12
9.34149e-13
1.39775e-12
2.99866e-13
1.08296e-12
-7.61492e-13
1.92918e-12
-6.79893e-13
2.13603e-12
5.12948e-13
1.91433e-12
9.09902e-13
1.74135e-12
4.46911e-13
1.73912e-12
-3.70403e-15
1.82243e-12
-1.89635e-13
1.88975e-12
-1.45666e-13
1.90743e-12
-3.71287e-14
1.90835e-12
-7.15423e-15
1.94517e-12
-6.99825e-14
1.86025e-12
1.60088e-13
4.15235e-13
5.15546e-12
2.82641e-14
1.2114e-11
-1.46681e-11
4.28236e-12
-8.98526e-12
2.51886e-12
1.58351e-11
1.23319e-12
6.73518e-12
3.62006e-12
-3.09445e-12
3.33231e-12
1.84583e-12
2.25735e-12
2.38467e-12
4.12002e-13
7.65418e-13
-1.57972e-12
1.40094e-12
1.28261e-12
-5.15734e-12
2.58359e-12
-2.51961e-12
2.66708e-12
1.86875e-12
2.5128e-12
2.81674e-12
2.32585e-12
1.78512e-12
2.26471e-12
4.69812e-13
2.31242e-12
-1.47514e-13
2.3754e-12
-2.0534e-13
2.43915e-12
-3.05046e-13
2.40829e-12
3.33621e-14
2.02814e-12
1.22908e-12
2.72875e-12
-1.8568e-12
3.33501e-12
-1.90161e-12
2.93708e-12
2.81812e-13
3.56288e-12
-1.95917e-12
2.99463e-12
1.27256e-12
2.55473e-12
1.34519e-12
2.26525e-12
3.12816e-13
2.08774e-12
-1.6975e-13
2.19017e-12
5.78552e-13
2.16886e-12
9.55463e-13
1.93749e-12
5.31231e-13
1.42615e-12
-2.50149e-13
2.12942e-12
-1.38316e-12
2.48754e-12
1.5483e-13
2.32334e-12
1.0741e-12
2.16965e-12
6.00606e-13
2.15873e-12
7.21397e-15
2.24864e-12
-2.79544e-13
2.32998e-12
-2.27004e-13
2.35759e-12
-6.47458e-14
2.37136e-12
-2.09263e-14
2.43327e-12
-1.31883e-13
2.29923e-12
2.94127e-13
6.00667e-13
6.52679e-12
-3.66551e-12
-5.82305e-12
-2.31826e-12
-1.99149e-11
5.1066e-12
-2.7927e-12
-1.28707e-12
1.37935e-12
2.56313e-12
1.27123e-12
-2.98633e-12
1.17973e-12
1.93733e-12
1.89724e-12
1.66717e-12
1.46455e-12
1.19811e-12
4.3157e-13
2.43392e-12
2.57903e-12
-7.3048e-12
1.75056e-12
-1.69113e-12
1.35845e-12
2.26086e-12
2.22559e-12
1.9496e-12
2.49516e-12
1.51555e-12
2.56448e-12
4.0049e-13
2.56597e-12
-1.49002e-13
2.58941e-12
-2.28776e-13
2.62492e-12
-3.4056e-13
2.52303e-12
1.35249e-13
2.0918e-12
1.66031e-12
3.04243e-12
-2.80743e-12
3.56962e-12
-2.42879e-12
2.58714e-12
1.26429e-12
3.20219e-12
-2.57422e-12
2.72447e-12
1.75029e-12
2.53194e-12
1.53771e-12
2.40452e-12
4.40229e-13
2.17022e-12
6.45516e-14
2.0035e-12
7.45278e-13
2.32558e-12
6.33378e-13
2.80449e-12
5.23279e-14
2.50658e-12
4.77517e-14
2.54128e-12
-1.41786e-12
2.82561e-12
-1.29501e-13
2.58762e-12
1.31209e-12
2.45813e-12
7.30092e-13
2.42807e-12
3.72798e-14
2.49975e-12
-3.51231e-13
2.57828e-12
-3.05532e-13
2.61747e-12
-1.03933e-13
2.6269e-12
-3.03536e-14
2.70639e-12
-2.11382e-13
2.59314e-12
4.07379e-13
7.32255e-13
-3.18383e-13
-3.18713e-12
-3.88247e-13
-2.2484e-12
-2.12595e-13
4.93095e-12
3.86028e-13
-1.8857e-12
1.02951e-12
1.91965e-12
1.05412e-12
-3.01094e-12
6.14292e-13
2.37715e-12
5.7687e-13
1.70459e-12
4.54541e-13
1.32044e-12
5.33339e-13
2.35512e-12
8.10714e-13
-7.58218e-12
4.92638e-13
-1.37306e-12
2.3863e-13
2.51486e-12
4.64806e-13
1.72342e-12
5.74229e-13
1.40613e-12
6.01238e-13
3.73481e-13
5.86458e-13
-1.34222e-13
5.70148e-13
-2.12466e-13
5.76277e-13
-3.46689e-13
5.27379e-13
1.84147e-13
4.66725e-13
1.72096e-12
6.00493e-13
-2.9412e-12
6.97879e-13
-2.52618e-12
4.04185e-13
1.55798e-12
4.29999e-13
-2.60003e-12
5.41886e-13
1.6384e-12
5.58354e-13
1.52125e-12
5.54029e-13
4.44554e-13
4.86999e-13
1.31582e-13
4.56096e-13
7.76181e-13
5.25312e-13
5.64162e-13
6.3217e-13
-5.45303e-14
6.2083e-13
5.90916e-14
6.30455e-13
-1.42748e-12
6.32067e-13
-1.31114e-13
6.04985e-13
1.33917e-12
5.7114e-13
7.63937e-13
5.63765e-13
4.46546e-14
5.69445e-13
-3.56912e-13
5.81346e-13
-3.17432e-13
5.93234e-13
-1.15821e-13
5.95048e-13
-3.21666e-14
5.8072e-13
-1.97055e-13
6.06009e-13
3.8209e-13
7.32665e-13
-9.0434e-13
-2.12279e-12
-4.10734e-13
-2.74201e-12
1.43671e-12
3.08351e-12
-7.32403e-13
2.83414e-13
1.39802e-12
-2.10769e-13
1.31186e-12
-2.92479e-12
7.78164e-13
2.91086e-12
5.56917e-13
1.92584e-12
7.30228e-13
1.14712e-12
4.12547e-13
2.6728e-12
7.25259e-13
-7.89489e-12
5.29851e-13
-1.17765e-12
3.20282e-13
2.72443e-12
4.60273e-13
1.58343e-12
5.86607e-13
1.27979e-12
6.14355e-13
3.45733e-13
5.93214e-13
-1.13081e-13
5.61753e-13
-1.81004e-13
5.70055e-13
-3.54991e-13
5.15539e-13
2.38663e-13
4.4185e-13
1.79465e-12
6.21644e-13
-3.12099e-12
6.21277e-13
-2.52581e-12
3.26636e-13
1.85262e-12
2.52724e-13
-2.52612e-12
4.95276e-13
1.39585e-12
5.5655e-13
1.45997e-12
5.67559e-13
4.33545e-13
4.79668e-13
2.19472e-13
4.61781e-13
7.94068e-13
5.16243e-13
5.097e-13
6.3027e-13
-1.68557e-13
6.32152e-13
5.721e-14
6.29898e-13
-1.42523e-12
6.30778e-13
-1.31993e-13
5.9706e-13
1.37289e-12
5.78115e-13
7.82883e-13
5.72532e-13
5.02377e-14
5.73228e-13
-3.57607e-13
5.827e-13
-3.26904e-13
5.95445e-13
-1.28566e-13
5.92409e-13
-2.91305e-14
5.8258e-13
-1.87226e-13
6.12477e-13
3.52193e-13
7.18201e-13
-1.7617e-12
-2.01088e-13
-4.171e-13
-4.0866e-12
6.74581e-14
2.59895e-12
-7.32493e-13
1.08336e-12
1.68596e-12
-2.62922e-12
1.37469e-12
-2.61352e-12
8.7488e-13
3.41067e-12
4.71216e-13
2.3295e-12
-7.89654e-14
1.69731e-12
-4.54191e-14
2.63925e-12
6.16296e-13
-8.55661e-12
4.40012e-13
-1.00136e-12
3.19865e-13
2.84458e-12
4.63525e-13
1.43977e-12
5.99581e-13
1.14374e-12
6.33398e-13
3.11916e-13
5.96751e-13
-7.64342e-14
5.67412e-13
-1.51666e-13
5.64119e-13
-3.51697e-13
4.97976e-13
3.04806e-13
4.24058e-13
1.86857e-12
4.50758e-13
-3.14769e-12
5.45195e-13
-2.62025e-12
3.25032e-13
2.07278e-12
1.44835e-13
-2.34593e-12
4.8004e-13
1.06065e-12
5.45841e-13
1.39417e-12
5.47102e-13
4.32285e-13
4.91721e-13
2.74853e-13
4.60058e-13
8.25731e-13
5.0322e-13
4.66538e-13
6.1356e-13
-2.78897e-13
6.23788e-13
4.69822e-14
6.23048e-13
-1.42449e-12
6.1422e-13
-1.23166e-13
5.77597e-13
1.40951e-12
5.87783e-13
7.72697e-13
5.81836e-13
5.61848e-14
5.73146e-13
-3.48917e-13
5.83157e-13
-3.36916e-13
5.9479e-13
-1.40199e-13
5.93015e-13
-2.73548e-14
5.81621e-13
-1.75833e-13
6.18651e-13
3.15164e-13
6.95936e-13
-1.47293e-12
1.43184e-12
-5.25347e-13
-5.03418e-12
7.87833e-15
2.06573e-12
-2.69926e-13
1.36117e-12
1.01577e-12
-3.91491e-12
1.2339e-12
-2.83165e-12
8.75769e-13
3.76879e-12
3.1036e-13
2.89491e-12
-6.78129e-13
2.68579e-12
-4.70731e-13
2.43186e-12
5.10903e-13
-9.53824e-12
2.99838e-13
-7.90301e-13
2.61224e-13
2.8832e-12
4.4363e-13
1.25736e-12
6.04719e-13
9.82648e-13
6.35783e-13
2.80853e-13
6.05151e-13
-4.58024e-14
5.76924e-13
-1.23439e-13
5.57747e-13
-3.32521e-13
4.88577e-13
3.73976e-13
4.00711e-13
1.95644e-12
3.78725e-13
-3.1257e-12
4.57367e-13
-2.69889e-12
3.70529e-13
2.15962e-12
3.92541e-13
-2.36794e-12
4.89547e-13
9.6364e-13
5.34331e-13
1.34939e-12
5.37061e-13
4.29554e-13
4.98894e-13
3.1302e-13
4.48019e-13
8.76607e-13
4.88108e-13
4.26448e-13
5.92294e-13
-3.83083e-13
6.19203e-13
2.00733e-14
6.05127e-13
-1.41041e-12
5.80099e-13
-9.81384e-14
5.60677e-13
1.42893e-12
5.88821e-13
7.44553e-13
5.96748e-13
4.82573e-14
5.88942e-13
-3.4111e-13
5.90038e-13
-3.38012e-13
6.00072e-13
-1.50234e-13
5.94168e-13
-2.14508e-14
5.80786e-13
-1.62451e-13
6.17007e-13
2.78943e-13
6.62906e-13
-7.96612e-13
2.38845e-12
-1.17332e-12
-4.65747e-12
-6.53325e-13
1.54573e-12
1.02337e-13
6.05506e-13
4.94001e-13
-4.30657e-12
8.0612e-13
-3.14377e-12
8.08934e-13
3.76598e-12
2.32595e-13
3.47125e-12
-5.11511e-13
3.4299e-12
-1.0519e-13
2.02553e-12
2.8782e-13
-9.93125e-12
5.10459e-13
-1.01294e-12
2.70756e-13
3.1229e-12
4.59846e-13
1.06827e-12
5.95318e-13
8.47177e-13
6.3589e-13
2.40281e-13
6.08781e-13
-1.86938e-14
5.81388e-13
-9.6045e-14
5.53064e-13
-3.04197e-13
4.88621e-13
4.38419e-13
3.94202e-13
2.05085e-12
2.96061e-13
-3.02756e-12
3.90971e-13
-2.7938e-12
3.90283e-13
2.16031e-12
5.19116e-13
-2.49677e-12
4.97781e-13
9.84975e-13
5.19536e-13
1.32763e-12
5.28887e-13
4.20203e-13
4.88266e-13
3.53641e-13
4.57979e-13
9.06893e-13
4.73789e-13
4.10639e-13
5.47005e-13
-4.56299e-13
6.19231e-13
-5.21529e-14
5.77352e-13
-1.36853e-12
5.27881e-13
-4.86671e-14
5.34701e-13
1.42211e-12
5.89894e-13
6.89361e-13
6.07496e-13
3.06552e-14
5.99173e-13
-3.32788e-13
5.96195e-13
-3.35034e-13
6.02621e-13
-1.5666e-13
5.98102e-13
-1.6932e-14
5.79439e-13
-1.43787e-13
6.19289e-13
2.39093e-13
6.33185e-13
1.24131e-12
7.58692e-13
1.04651e-12
1.94799e-13
9.67061e-13
7.94477e-14
8.54678e-13
1.12383e-13
5.76042e-14
7.97074e-13
2.35243e-12
4.06267e-13
2.43938e-12
1.07841e-13
2.53666e-12
-1.78296e-14
3.10022e-12
-4.5118e-13
-1.99403e-12
5.15186e-12
2.6765e-12
-2.70237e-13
2.92969e-12
-1.45341e-13
3.01894e-12
-1.0708e-13
2.96408e-12
-3.9632e-13
-1.51395e-12
2.48399e-12
2.40662e-12
-6.76859e-13
2.48459e-12
-2.23307e-13
2.47333e-12
-9.58184e-14
2.26902e-12
-1.92013e-13
-6.60855e-13
1.41593e-12
1.32314e-12
1.09983e-12
1.00402e-12
8.12002e-13
1.51147e-13
3.20643e-12
-2.09085e-14
-1.80336e-12
3.52321e-13
2.73505e-12
-2.99268e-12
2.40435e-12
9.36198e-13
-5.08807e-13
-1.39341e-12
7.53846e-13
-4.40643e-12
1.89172e-12
2.6281e-12
1.31632e-12
4.04665e-12
1.67043e-12
3.07579e-12
3.17287e-12
5.23093e-13
-2.03661e-13
-6.55472e-12
-2.67499e-13
-9.491e-13
1.41898e-12
1.43642e-12
2.15884e-12
3.28412e-13
2.68287e-12
3.23149e-13
2.79823e-12
1.24926e-13
2.74774e-12
3.17937e-14
2.6334e-12
1.82915e-14
2.43256e-12
-1.03355e-13
2.18816e-12
6.82824e-13
2.03975e-12
2.19926e-12
7.00544e-13
-1.68835e-12
1.02574e-12
-3.119e-12
1.71685e-12
1.4692e-12
1.27145e-12
-2.05137e-12
1.55397e-12
7.02458e-13
2.11376e-12
7.67841e-13
2.26367e-12
2.70294e-13
2.14981e-12
4.67495e-13
2.11675e-12
9.39952e-13
1.92428e-12
6.03107e-13
2.11738e-12
-6.49396e-13
3.00687e-12
-9.41638e-13
2.05741e-12
-4.19071e-13
1.46511e-12
5.43628e-13
2.17056e-12
7.16662e-13
2.66782e-12
1.92103e-13
2.81914e-12
-1.20665e-13
2.7724e-12
-2.86054e-13
2.7279e-12
-2.90528e-13
2.71568e-12
-1.44444e-13
2.70801e-12
-9.2605e-15
2.58429e-12
-2.0066e-14
2.7488e-12
7.45867e-14
5.08142e-13
2.98916e-12
2.14179e-12
5.42582e-13
2.7989e-12
-2.40893e-13
-2.20921e-12
2.57864e-12
-1.88334e-12
1.69819e-12
-5.12962e-13
1.39549e-13
-2.84778e-12
4.69092e-13
2.29856e-12
2.15105e-12
2.36469e-12
3.17973e-12
2.04711e-12
4.02144e-12
-3.18615e-13
1.47085e-12
-4.00413e-12
1.30344e-12
-7.81694e-13
1.97365e-12
7.66215e-13
2.28997e-12
1.20864e-14
2.48675e-12
1.26368e-13
2.53131e-12
8.03669e-14
2.51142e-12
5.1683e-14
2.45824e-12
7.14711e-14
2.26092e-12
9.39693e-14
2.16206e-12
7.81685e-13
2.67902e-12
1.68229e-12
1.75794e-12
-7.67271e-13
8.07441e-13
-2.16849e-12
7.04053e-13
1.57259e-12
-1.72864e-14
-1.33003e-12
1.04806e-12
-3.62889e-13
1.92338e-12
-1.07482e-13
2.15028e-12
4.33972e-14
2.14153e-12
4.76243e-13
2.14872e-12
9.32762e-13
2.04383e-12
7.07997e-13
2.18908e-12
-7.94642e-13
2.13737e-12
-8.89925e-13
1.62903e-12
8.92666e-14
1.08306e-12
1.0896e-12
1.86669e-12
-6.6972e-14
2.48624e-12
-4.27444e-13
2.65743e-12
-2.91854e-13
2.61487e-12
-2.43499e-13
2.55506e-12
-2.30717e-13
2.50227e-12
-9.16548e-14
2.48453e-12
8.48522e-15
2.40327e-12
6.11911e-14
2.47076e-12
7.09532e-15
3.74595e-13
2.9651e-12
1.66068e-12
2.99834e-12
2.76566e-12
6.2898e-13
1.60153e-13
2.34114e-12
-3.59549e-12
1.85712e-12
-2.89492e-14
5.13276e-13
-1.50394e-12
1.41947e-12
1.39236e-12
2.67832e-12
1.10585e-12
3.82626e-12
8.99161e-13
3.61197e-12
-1.04325e-13
1.56703e-12
-1.95918e-12
1.40817e-12
-6.22833e-13
1.90895e-12
2.65431e-13
2.00634e-12
-8.5305e-14
2.06496e-12
6.77513e-14
2.08654e-12
5.87836e-14
2.08326e-12
5.49641e-14
2.08039e-12
7.43373e-14
1.97795e-12
1.96411e-13
1.94966e-12
8.09977e-13
2.24071e-12
1.39124e-12
2.30721e-12
-8.33775e-13
1.10425e-12
-9.65534e-13
1.05779e-12
1.61905e-12
8.67805e-13
-1.14005e-12
1.48349e-12
-9.78572e-13
1.802e-12
-4.2599e-13
1.87838e-12
-3.2989e-14
1.97043e-12
3.84197e-13
2.08996e-12
8.13225e-13
1.9915e-12
8.06463e-13
2.07384e-12
-8.76985e-13
1.82905e-12
-6.45134e-13
1.59579e-12
3.22529e-13
1.67522e-12
1.01017e-12
2.02014e-12
-4.11889e-13
2.25874e-12
-6.66042e-13
2.27634e-12
-3.09454e-13
2.19863e-12
-1.65792e-13
2.13084e-12
-1.62924e-13
2.05822e-12
-1.90406e-14
2.02648e-12
4.02314e-14
2.01523e-12
7.24397e-14
2.1274e-12
-1.05076e-13
3.17771e-13
2.6808e-12
3.9581e-13
4.84647e-12
5.99991e-13
3.95168e-12
1.05494e-12
1.93103e-12
-1.57484e-12
3.19642e-12
-1.29434e-12
1.2679e-12
4.24582e-13
1.62308e-12
1.03718e-12
2.4223e-12
3.06635e-13
3.32881e-12
-7.34809e-15
2.78065e-12
4.43833e-13
1.36561e-12
-5.44146e-13
1.13293e-12
-3.90149e-13
1.3859e-12
1.24548e-14
1.36694e-12
-6.63368e-14
1.40985e-12
2.48344e-14
1.45474e-12
1.38983e-14
1.48118e-12
2.85236e-14
1.51838e-12
3.71362e-14
1.56806e-12
1.46732e-13
1.79872e-12
5.79314e-13
2.20968e-12
9.80287e-13
2.15152e-12
-7.75618e-13
1.45308e-12
-2.67091e-13
1.9434e-12
1.12873e-12
1.60407e-12
-8.00723e-13
1.46473e-12
-8.3923e-13
1.33712e-12
-2.98377e-13
1.31965e-12
-1.55185e-14
1.51364e-12
1.90203e-13
1.86765e-12
4.59218e-13
1.97087e-12
7.03242e-13
1.72013e-12
-6.26241e-13
1.48524e-12
-4.1025e-13
1.54616e-12
2.61614e-13
1.75957e-12
7.96753e-13
2.00528e-12
-6.57604e-13
1.76124e-12
-4.21997e-13
1.61281e-12
-1.6103e-13
1.50951e-12
-6.24889e-14
1.45149e-12
-1.04903e-13
1.38863e-12
4.38242e-14
1.37563e-12
5.32255e-14
1.39066e-12
5.74149e-14
1.37233e-12
-8.67497e-14
9.99466e-14
5.46957e-13
1.14695e-12
2.20189e-12
6.27051e-13
-6.67286e-13
-2.42704e-13
7.94475e-13
1.10111e-12
1.09376e-12
1.5376e-12
9.93449e-13
6.033e-13
6.15755e-13
5.49418e-13
5.74252e-13
5.88151e-13
6.16674e-13
6.53811e-13
8.00543e-13
1.37986e-12
2.36014e-12
1.58453e-12
1.31744e-12
2.44616e-12
1.64544e-12
8.06212e-13
5.07835e-13
4.92317e-13
6.8252e-13
1.14174e-12
1.84498e-12
1.21874e-12
8.08489e-13
1.0701e-12
1.86686e-12
1.20925e-12
7.87256e-13
6.26226e-13
5.63737e-13
4.58833e-13
5.02657e-13
5.55883e-13
6.13297e-13
5.26548e-13
)
;

boundaryField
{
    AirInlet
    {
        type            calculated;
        value           nonuniform List<scalar> 5(-1.6e-13 -1.6e-13 -1.6e-13 -1.6e-13 -1.6e-13);
    }
    WaterInlet
    {
        type            calculated;
        value           nonuniform List<scalar> 10(-2e-12 -2e-12 -2e-12 -2e-12 -2e-12 -2e-12 -2e-12 -2e-12 -2e-12 -2e-12);
    }
    ChannelWall
    {
        type            calculated;
        value           uniform 0;
    }
    Outlet
    {
        type            calculated;
        value           nonuniform List<scalar> 
15
(
3.86473e-13
1.10263e-12
1.68403e-12
2.11379e-12
2.46156e-12
6.056e-13
6.2694e-13
6.40916e-13
6.50038e-13
6.4901e-13
2.87384e-12
2.60431e-12
2.18422e-12
1.59015e-12
6.26494e-13
)
;
    }
    FrontAndBack
    {
        type            empty;
        value           nonuniform 0();
    }
}


// ************************************************************************* //
