/*--------------------------------*- C++ -*----------------------------------*\
| =========                 |                                                 |
| \\      /  F ield         | OpenFOAM: The Open Source CFD Toolbox           |
|  \\    /   O peration     | Version:  2.3.0                                 |
|   \\  /    A nd           | Web:      www.OpenFOAM.org                      |
|    \\/     M anipulation  |                                                 |
\*---------------------------------------------------------------------------*/
FoamFile
{
    version     2.0;
    format      ascii;
    class       volVectorField;
    location    "0.032";
    object      U;
}
// * * * * * * * * * * * * * * * * * * * * * * * * * * * * * * * * * * * * * //

dimensions      [0 1 -1 0 0 0 0];

internalField   nonuniform List<vector> 
725
(
(0.0468813 0.00669021 -4.53285e-31)
(0.0526638 0.00158907 9.1262e-32)
(0.0464872 -0.00144742 6.14969e-32)
(0.0622411 -0.00314679 0)
(0.0707656 -0.00961548 4.01465e-31)
(0.090072 0.0135902 -2.04016e-30)
(0.107607 0.00659149 3.59587e-31)
(0.0944613 -0.00248784 3.97489e-31)
(0.108135 -0.00372082 0)
(0.0881926 -0.0144776 8.82347e-30)
(0.10243 0.00936449 -3.54344e-31)
(0.123006 0.00982998 6.53023e-32)
(0.107334 -0.0020656 6.63546e-31)
(0.108682 -0.00149819 0)
(0.09772 -0.0561836 1.79337e-29)
(0.0903154 0.0030125 2.95264e-30)
(0.102374 0.0101942 4.516e-32)
(0.0844633 -0.00268953 1.23754e-30)
(0.0617375 -0.00993568 0)
(0.00888512 -0.129192 5.349e-29)
(0.0462933 0.00167328 2.92803e-30)
(0.0455268 0.00648503 -1.46522e-31)
(0.029086 4.20876e-06 4.71082e-31)
(-0.0248788 -0.0170663 4.2692e-30)
(-0.137882 -0.124755 2.41588e-29)
(0.216734 -0.0360078 0)
(0.0745019 0.0469743 0)
(-0.0861391 0.0228149 0)
(-0.0428325 -0.00448296 0)
(0.0020768 -0.00801694 0)
(0.0608073 -0.00823306 0)
(0.130769 -0.0113144 0)
(0.14613 -0.0317105 0)
(0.316805 -0.0613423 0)
(0.478964 -0.0288448 0)
(0.258076 0.026602 0)
(0.035372 0.0262046 0)
(0.0214496 0.0190597 0)
(0.0373268 0.000743917 0)
(0.0288673 -0.000362307 0)
(0.0309909 0.0013126 0)
(0.0230267 0.000694576 0)
(0.0223563 0.00038837 0)
(0.0205596 0.000503224 0)
(0.0183971 0.000273475 0)
(0.0158872 0.000431172 0)
(0.01367 0.000114945 0)
(0.013596 -0.000119862 0)
(0.0138751 7.74835e-07 0)
(0.0142872 -0.000107138 0)
(0.015722 -0.000196847 0)
(0.0170547 -8.8304e-05 0)
(0.0175558 -7.3506e-06 0)
(0.0176223 -1.53594e-06 0)
(0.0176918 -2.84804e-05 0)
(0.0180559 -9.97535e-05 0)
(0.0185825 -0.000140297 0)
(0.020006 -0.000326795 0)
(0.0244149 -0.000878214 0)
(0.0180296 7.24542e-05 0)
(0.0396583 -0.00399585 0)
(0.0127689 0.00743754 0)
(-0.0463333 -3.56631e-05 0)
(0.0301754 -0.013873 0)
(0.0817472 -0.00672099 0)
(0.0947688 0.0438834 0)
(-0.105366 -0.0169016 0)
(-0.232419 0.0420604 0)
(-0.183311 -0.0335692 0)
(-0.0336143 -0.00288095 0)
(0.301641 -0.0411389 0)
(0.0072329 0.190657 0)
(-0.183391 -0.00238051 0)
(-0.0793972 -0.0380658 0)
(-0.00429574 -0.044625 0)
(0.0810641 -0.0483022 0)
(0.183304 -0.0409967 0)
(0.185218 -0.0906498 0)
(0.42363 -0.115812 0)
(0.616553 0.0822651 0)
(0.416697 0.12763 0)
(0.282777 0.0557126 0)
(0.0287767 0.0443527 0)
(0.0497399 -0.0159479 0)
(0.0548353 -0.00571821 0)
(0.0619351 0.0058003 0)
(0.0489742 0.00310601 0)
(0.0494665 0.000830984 0)
(0.0486406 0.00169003 0)
(0.046289 0.0014443 0)
(0.0426345 0.00228995 0)
(0.0388914 0.000932636 0)
(0.0381561 -0.000416951 0)
(0.0379338 -9.12502e-05 0)
(0.0382592 -0.000746468 0)
(0.0407419 -0.00131468 0)
(0.0433804 -0.00077402 0)
(0.0445609 -0.000211346 0)
(0.0448404 -4.57334e-05 0)
(0.0449844 -0.000136758 0)
(0.045486 -0.000383608 0)
(0.0459528 -0.000645008 0)
(0.0478068 -0.00132127 0)
(0.0518303 -0.00204016 0)
(0.0389563 0.000412227 0)
(0.0662642 -0.00336908 0)
(-0.0115182 0.0453479 0)
(-0.110582 -0.00303872 0)
(0.0210793 -0.0682975 0)
(0.110183 -0.0335742 0)
(0.115869 0.18174 0)
(-0.209226 -0.0141529 0)
(-0.38787 0.114493 0)
(-0.198942 -0.161804 0)
(0.0496024 -0.0378657 0)
(0.554241 -0.162143 0)
(0.408542 0.392212 0)
(-0.032846 0.0176263 0)
(-0.0385738 -0.0581755 0)
(0.018625 -0.0766413 0)
(0.0739724 -0.0835273 0)
(0.158869 -0.0719199 0)
(0.171137 -0.161996 0)
(0.425096 -0.154459 0)
(0.39212 0.0329414 0)
(0.380761 0.191043 0)
(0.503722 0.120697 0)
(0.192353 0.133696 0)
(0.0837873 -0.00420503 0)
(0.0805274 -0.00870726 0)
(0.085416 0.0105235 0)
(0.0683419 0.0051043 0)
(0.0681784 0.000613343 0)
(0.0681998 0.00233631 0)
(0.0671287 0.00218659 0)
(0.0652377 0.00408193 0)
(0.0627592 0.00203476 0)
(0.0614829 4.15792e-05 0)
(0.0598117 0.000225556 0)
(0.058656 -0.00112594 0)
(0.0601539 -0.00267005 0)
(0.0626548 -0.00172339 0)
(0.063884 -0.000558871 0)
(0.0642762 -0.000143876 0)
(0.06455 -0.000248409 0)
(0.0651342 -0.000602868 0)
(0.0653866 -0.000960748 0)
(0.0668474 -0.00176078 0)
(0.0696331 -0.00199625 0)
(0.0507195 0.00350694 0)
(0.0876803 0.00582626 0)
(-0.0207132 0.0972852 0)
(-0.127151 -0.0119256 0)
(0.0278322 -0.135798 0)
(0.131454 -0.113464 0)
(0.376336 0.154057 0)
(0.668888 0.192259 0)
(-0.299369 0.233002 0)
(-0.160783 -0.317297 0)
(0.0986504 -0.074132 0)
(0.495778 -0.425608 0)
(0.471509 0.610249 0)
(-0.0930456 0.206664 0)
(0.0373489 -0.0917786 0)
(0.0614978 -0.0977886 0)
(0.0643529 -0.0997559 0)
(0.0972018 -0.0949504 0)
(0.112144 -0.23709 0)
(0.333208 -0.16793 0)
(0.296649 -0.0137431 0)
(0.254287 0.199127 0)
(0.676555 -0.0132061 0)
(0.503422 0.268452 0)
(0.157147 0.0876309 0)
(0.0973378 -0.00974154 0)
(0.0996703 0.0148499 0)
(0.0811171 0.00740479 0)
(0.0787709 0.000813265 0)
(0.0780291 0.00273439 0)
(0.0784429 0.00188085 0)
(0.0793372 0.00485721 0)
(0.0799879 0.0025318 0)
(0.0806876 0.000596808 0)
(0.0794051 0.00143551 0)
(0.0758338 -0.00116417 0)
(0.073985 -0.00358547 0)
(0.0748668 -0.0024027 0)
(0.0755729 -0.000853452 0)
(0.0760791 -0.000316331 0)
(0.0767121 -0.000452744 0)
(0.0776462 -0.000861073 0)
(0.0779995 -0.0011906 0)
(0.0793599 -0.00191982 0)
(0.0819913 -0.00112181 0)
(0.0591955 0.00524587 0)
(0.119034 0.0132332 0)
(0.00160081 0.155263 0)
(-0.104143 -0.0242771 0)
(0.0367034 -0.191619 0)
(0.0775692 -0.163565 0)
(0.198379 0.105211 0)
(0.595962 0.406661 0)
(-0.14531 0.389096 0)
(-0.149608 -0.462819 0)
(0.109055 -0.101666 0)
(-0.0643672 -0.624499 0)
(0.0504822 0.836554 0)
(0.130983 0.112923 0)
(0.211717 -0.140908 0)
(0.130425 -0.0959234 0)
(0.0675807 -0.0912838 0)
(0.0516929 -0.109131 0)
(0.0439827 -0.287615 0)
(0.179306 -0.140675 0)
(0.229686 -4.50083e-05 0)
(-0.203226 0.312927 0)
(-1.57192 0.0528376 0)
(-0.16709 0.14481 0)
(0.142281 0.122916 0)
(0.0741762 0.00129456 0)
(0.108385 0.0259447 0)
(0.0874603 0.00988769 0)
(0.0835137 0.00170488 0)
(0.0822563 0.00416346 0)
(0.0840412 0.000277884 0)
(0.0871611 0.00392556 0)
(0.0923016 0.000464126 0)
(0.0941903 -0.000265905 0)
(0.0945882 0.00259716 0)
(0.0900885 0.00238293 0)
(0.0826342 -0.00293713 0)
(0.0798976 -0.00230624 0)
(0.0796186 -0.000950629 0)
(0.0804312 -0.000608212 0)
(0.0817663 -0.000859161 0)
(0.0833862 -0.00131138 0)
(0.0842223 -0.00148202 0)
(0.0862147 -0.00211111 0)
(0.0888351 -4.0223e-05 0)
(0.068969 0.0026053 0)
(0.143164 0.00438497 0)
(0.0529066 0.216626 0)
(-0.0110241 -0.0379435 0)
(0.0918022 -0.22573 0)
(0.107103 -0.259035 0)
(0.314925 -0.198456 0)
(0.336491 0.283375 0)
(0.135209 0.628423 0)
(-0.213107 -0.507667 0)
(-0.00591038 -0.128032 0)
(-1.07706 -0.78493 0)
(-0.122883 0.867018 0)
(0.705419 0.0544458 0)
(0.535208 -0.0913391 0)
(0.170283 -0.0457124 0)
(0.0739082 -0.0679558 0)
(0.00213383 -0.101661 0)
(0.0115046 -0.305581 0)
(0.218651 -0.200216 0)
(0.731961 0.0602942 0)
(-0.304583 0.495813 0)
(-0.179719 0.11157 0)
(-0.345578 -0.110688 0)
(0.0512988 0.0353471 0)
(-0.0720274 0.00389728 0)
(0.102225 0.0197167 0)
(0.0848895 0.0113962 0)
(0.0813845 0.00248402 0)
(0.0829761 0.00365942 0)
(0.0877659 -0.000639397 0)
(0.0896611 0.0028778 0)
(0.0953384 -0.00054493 0)
(0.0930238 -7.90627e-05 0)
(0.0925208 0.00270678 0)
(0.0917243 0.00447233 0)
(0.0837756 -0.00125292 0)
(0.0780589 -0.00150978 0)
(0.0772438 -0.000998297 0)
(0.0785803 -0.00104741 0)
(0.08064 -0.00141889 0)
(0.0828669 -0.00180514 0)
(0.0841794 -0.00201514 0)
(0.0870847 -0.00258518 0)
(0.0889213 -0.000162883 0)
(0.084993 0.000743322 0)
(0.109148 -0.00115907 0)
(0.0899141 0.23216 0)
(0.113826 -0.041059 0)
(0.143697 -0.228525 0)
(0.0199905 -0.243183 0)
(-0.531187 -0.0658864 0)
(-2.13399 0.399429 0)
(0.23146 0.720744 0)
(-0.265768 -0.485663 0)
(-0.242526 -0.135125 0)
(-2.59601 -0.645687 0)
(-0.35779 0.797 0)
(0.967852 -0.0161926 0)
(0.632354 -0.0562996 0)
(0.176484 -0.0196739 0)
(0.0770171 -0.0583693 0)
(-0.00920957 -0.0979985 0)
(0.0146077 -0.322489 0)
(0.200096 -0.245008 0)
(0.824704 0.10569 0)
(-0.320268 0.541661 0)
(1.27212 0.0972224 0)
(-0.116028 -0.0472822 0)
(0.0201422 0.0240266 0)
(-0.11105 -0.00412578 0)
(0.101481 0.0104667 0)
(0.0838804 0.0119739 0)
(0.0808636 0.00270442 0)
(0.083218 0.00321342 0)
(0.0888595 -0.000921587 0)
(0.09063 0.00249261 0)
(0.0958886 -0.000698057 0)
(0.0914612 0.00018331 0)
(0.090638 0.00268771 0)
(0.0916773 0.00489915 0)
(0.0839234 -0.000516276 0)
(0.0771384 -0.00115704 0)
(0.0760994 -0.00102339 0)
(0.0775844 -0.0012347 0)
(0.0798928 -0.00165142 0)
(0.0823311 -0.00199921 0)
(0.0838163 -0.00223931 0)
(0.0870403 -0.00280154 0)
(0.0885365 -0.000413554 0)
(0.0932974 0.000482131 0)
(0.09822 -0.00199131 0)
(0.10502 0.230034 0)
(0.154219 -0.0429732 0)
(0.15895 -0.224117 0)
(0.0277631 -0.207062 0)
(-0.492276 0.120989 0)
(-2.45767 0.125981 0)
(0.323723 0.715056 0)
(-0.272185 -0.452111 0)
(-0.338149 -0.146437 0)
(-5.27733 -0.350118 0)
(-0.490726 0.496509 0)
(1.28258 -0.0676017 0)
(0.675694 -0.00272565 0)
(0.171483 0.0103043 0)
(0.0806699 -0.0487159 0)
(0.00273481 -0.0949822 0)
(0.0511765 -0.338204 0)
(0.142994 -0.268324 0)
(0.240912 0.134623 0)
(-0.377336 0.579203 0)
(0.513587 -0.0413957 0)
(-0.197528 0.0542673 0)
(0.12881 0.0291601 0)
(-0.0241481 -0.0117728 0)
(0.103842 0.00288389 0)
(0.0845314 0.0126856 0)
(0.0810106 0.00290054 0)
(0.0834168 0.0026739 0)
(0.0893422 -0.00121271 0)
(0.0906891 0.00214816 0)
(0.094886 -0.00067041 0)
(0.0890536 0.000532594 0)
(0.0887609 0.00256242 0)
(0.0915218 0.00514124 0)
(0.0850279 0.000229162 0)
(0.0784567 -0.000768548 0)
(0.0771612 -0.00103375 0)
(0.0782519 -0.00140951 0)
(0.0800891 -0.00187147 0)
(0.082146 -0.00218576 0)
(0.0834803 -0.00248154 0)
(0.0869327 -0.00302542 0)
(0.0878684 -0.00114016 0)
(0.105388 0.000410059 0)
(0.0923314 -0.0025573 0)
(0.115195 0.225367 0)
(0.177 -0.0445914 0)
(0.157255 -0.216007 0)
(0.0416313 -0.186398 0)
(-0.280362 0.230622 0)
(0.711243 0.0340084 0)
(0.434204 0.684746 0)
(-0.0666343 -0.415969 0)
(-0.200865 -0.152121 0)
(-7.3424 0.10226 0)
(0.0232328 -0.094533 0)
(1.33076 -0.121685 0)
(0.615698 0.0607762 0)
(0.15998 0.039476 0)
(0.0846022 -0.040268 0)
(0.0254164 -0.0948378 0)
(0.087343 -0.348261 0)
(0.122834 -0.24338 0)
(-0.394949 0.145926 0)
(-0.379139 0.633366 0)
(-0.899423 -0.0790221 0)
(-0.0365011 0.0558748 0)
(0.388719 0.0222317 0)
(0.124641 -0.00384108 0)
(0.107555 0.00227033 0)
(0.0850267 0.0136137 0)
(0.0813561 0.00311512 0)
(0.083508 0.00212858 0)
(0.0892886 -0.00151879 0)
(0.0913889 0.00179219 0)
(0.0959788 -0.000532094 0)
(0.0893521 0.000941269 0)
(0.0883165 0.0023734 0)
(0.0914045 0.00527557 0)
(0.0861361 0.000858648 0)
(0.0804147 -0.000396361 0)
(0.0791995 -0.00101906 0)
(0.0800163 -0.00154201 0)
(0.0814403 -0.0020477 0)
(0.0830653 -0.00233887 0)
(0.0840109 -0.00270912 0)
(0.0872185 -0.00320447 0)
(0.0866577 -0.00239726 0)
(0.11811 0.000160057 0)
(0.0875091 -0.00249187 0)
(0.117024 0.219662 0)
(0.186615 -0.0456951 0)
(0.150288 -0.204676 0)
(0.0435405 -0.185646 0)
(-0.189147 -0.0020305 0)
(4.39079 0.21346 0)
(0.425911 0.683933 0)
(0.0923731 -0.384195 0)
(-0.104715 -0.145115 0)
(-3.6812 0.375431 0)
(0.00216862 -0.578265 0)
(0.900256 -0.147687 0)
(0.475573 0.111027 0)
(0.147187 0.0618187 0)
(0.0878279 -0.0329012 0)
(0.0322616 -0.0961541 0)
(0.0738554 -0.354833 0)
(0.0898657 -0.203426 0)
(-0.307251 0.150066 0)
(-0.332277 0.684742 0)
(-1.71916 -0.114993 0)
(0.472085 -0.0980833 0)
(0.549266 0.0259641 0)
(0.178582 0.0174652 0)
(0.108638 0.00588466 0)
(0.0851409 0.0145562 0)
(0.0817949 0.00333771 0)
(0.0835869 0.00164447 0)
(0.0878983 -0.00177126 0)
(0.089615 0.00137632 0)
(0.095004 -0.000462516 0)
(0.0897331 0.00137285 0)
(0.0884463 0.0022246 0)
(0.091127 0.00536513 0)
(0.0868407 0.00137269 0)
(0.0819729 -7.61802e-05 0)
(0.0808499 -0.000991695 0)
(0.0814056 -0.00163686 0)
(0.0824384 -0.00217756 0)
(0.08366 -0.00244857 0)
(0.0842461 -0.00289206 0)
(0.0871463 -0.00330773 0)
(0.0851048 -0.00390931 0)
(0.129898 -0.00113165 0)
(0.0826623 -0.000383805 0)
(0.111698 0.21304 0)
(0.18826 -0.0464271 0)
(0.148866 -0.192902 0)
(0.0212907 -0.18993 0)
(-0.118836 -0.335056 0)
(4.25609 0.457036 0)
(0.412155 0.724985 0)
(0.194197 -0.353559 0)
(-0.0847613 -0.131899 0)
(0.0418587 -0.000413402 0)
(0.0561217 -0.00840941 -3.75847e-31)
(-0.0124865 0.0112614 -1.66278e-30)
(-0.0508602 0.0127046 -4.01473e-30)
(-0.0340761 0.0583724 0)
(0.0826356 -0.00147635 0)
(0.124333 -0.0111304 0)
(0.0188634 0.0256149 0)
(0.0839348 0.0214963 -4.79248e-30)
(-0.0825508 0.18028 0)
(0.0938374 -0.00802067 0)
(0.151492 -0.010349 0)
(0.0468379 0.0255523 0)
(0.209834 0.00387838 -5.6201e-30)
(0.171835 0.105667 0)
(0.0822122 -0.0127904 0)
(0.137127 -0.00684769 0)
(0.0357874 0.0183616 0)
(0.262022 -0.0335736 2.91084e-30)
(0.0486704 -0.0189562 0)
(0.0423223 -0.00692826 0)
(0.0731346 -0.000495581 0)
(0.00906145 0.00462324 0)
(0.202149 -0.0103985 1.30255e-30)
(-0.173539 -0.00110577 0)
(-0.313696 0.535265 0)
(-0.429521 -0.684648 0)
(-0.243489 -0.180613 0)
(0.102499 0.141851 0)
(0.10117 0.086516 0)
(0.0933877 -0.013376 0)
(0.0255561 -0.0946279 0)
(0.00209802 -0.354215 0)
(-0.0597109 -0.138471 0)
(0.0723768 0.138181 0)
(-0.0872357 0.73887 0)
(0.224279 -0.229796 0)
(0.702735 -0.312069 0)
(0.36312 0.124872 0)
(0.106206 0.0732366 0)
(0.100426 0.0134811 0)
(0.0831754 0.0155595 0)
(0.0835609 0.00411998 0)
(0.082838 0.000672011 0)
(0.0835459 -0.00215709 0)
(0.0842967 0.000409372 0)
(0.0884096 -0.000549139 0)
(0.0878684 0.00203712 0)
(0.0881669 0.00195068 0)
(0.089496 0.00550306 0)
(0.0875609 0.00252208 0)
(0.0848982 0.000641455 0)
(0.0840372 -0.000885021 0)
(0.0839491 -0.00179624 0)
(0.0839986 -0.00239837 0)
(0.0841955 -0.00263231 0)
(0.083869 -0.00323176 0)
(0.085769 -0.0034297 0)
(0.0798757 -0.00728575 0)
(0.103936 -0.00389893 0)
(0.0353176 0.00858357 0)
(0.0978284 0.191362 0)
(0.179713 -0.0471459 0)
(0.14512 -0.165398 0)
(-0.0225875 -0.173427 0)
(0.00937918 -0.152455 0)
(-1.37573 0.346127 0)
(0.169406 0.706578 0)
(0.334101 -0.268873 0)
(-0.0106613 -0.0918839 0)
(0.207392 0.472854 0)
(0.165128 -0.429344 0)
(-0.202491 -0.363052 0)
(0.0049476 0.0051313 0)
(0.0613249 0.0540513 0)
(0.0941856 0.0112987 0)
(0.0340141 -0.0646921 0)
(-0.045275 -0.29404 0)
(-0.306167 -0.207349 0)
(-0.136922 0.125491 0)
(0.0706765 0.622503 0)
(0.307643 -0.258279 0)
(-0.264965 -0.129131 0)
(0.0476815 0.234301 0)
(0.0430424 0.0726444 0)
(0.0849884 0.0134887 0)
(0.0736202 0.0122095 0)
(0.0760525 0.0047923 0)
(0.0755821 0.00123053 0)
(0.0738757 -0.00120115 0)
(0.0738589 -0.00081595 0)
(0.0773416 -0.00228597 0)
(0.0784466 0.00128332 0)
(0.0780641 0.00229963 0)
(0.0791765 0.00497976 0)
(0.0806112 0.00291532 0)
(0.0806399 0.000946622 0)
(0.0803308 -0.000612757 0)
(0.079682 -0.00154457 0)
(0.0787603 -0.00210951 0)
(0.0778805 -0.00238279 0)
(0.0765854 -0.00291648 0)
(0.0770553 -0.0028664 0)
(0.0700354 -0.00492172 0)
(0.0780685 0.00511866 0)
(0.0211436 0.0170848 0)
(0.109962 0.136443 0)
(0.208188 -0.0401574 0)
(0.153078 -0.118471 0)
(-0.0719981 -0.127403 0)
(-0.104041 0.0649669 0)
(-0.878667 0.16463 0)
(0.0523341 0.442111 0)
(0.343204 -0.195224 0)
(0.132476 -0.0155247 0)
(0.465631 0.279623 0)
(0.316511 -0.251094 0)
(-0.0466904 -0.295713 0)
(-0.00867193 -0.0386224 0)
(0.0200915 0.0253348 0)
(0.0713157 0.0159049 0)
(0.0392278 -0.0361384 0)
(-0.0552933 -0.185312 0)
(-0.393747 -0.200357 0)
(-0.397985 0.0368625 0)
(0.0190542 0.426349 0)
(0.290869 -0.120326 0)
(-0.257119 -0.0741611 0)
(-0.047833 0.114514 0)
(-0.0133573 0.0504722 0)
(0.0569153 0.0140767 0)
(0.0555452 0.00963105 0)
(0.0619151 0.00410383 0)
(0.0632959 0.00133464 0)
(0.0631038 -0.000567412 0)
(0.0629071 -0.00172217 0)
(0.0617438 -0.0018454 0)
(0.0599491 0.00127502 0)
(0.0606412 0.00226462 0)
(0.0634883 0.00351553 0)
(0.066627 0.00218789 0)
(0.068007 0.000730106 0)
(0.0680398 -0.000397437 0)
(0.0671636 -0.00107792 0)
(0.0657684 -0.001516 0)
(0.0642495 -0.00180136 0)
(0.0622758 -0.00231179 0)
(0.0616623 -0.00223103 0)
(0.0561697 -0.00271026 0)
(0.0630513 0.0079366 0)
(0.0360269 0.0148548 0)
(0.125096 0.0772337 0)
(0.196993 -0.0349518 0)
(0.149523 -0.0773946 0)
(-0.000536127 -0.062694 0)
(0.0155823 0.300255 0)
(0.0558436 -0.100481 0)
(0.230175 0.160731 0)
(0.352304 -0.148449 0)
(0.211017 0.00368023 0)
(0.545636 0.300313 0)
(0.487272 -0.147408 0)
(0.0329864 -0.199165 0)
(-0.0225238 -0.0266914 0)
(-0.02748 0.00831166 0)
(0.0281221 0.00667497 0)
(0.0137047 -0.0142467 0)
(-0.0416713 -0.0803717 0)
(-0.289732 -0.145837 0)
(-0.422696 0.0182198 0)
(-0.110988 0.223524 0)
(0.138069 -0.0512893 0)
(-0.193196 -0.0161805 0)
(-0.0038921 0.0189899 0)
(-0.0108457 0.0163021 0)
(0.0315014 0.00645748 0)
(0.0320318 0.00567624 0)
(0.0392446 0.00289616 0)
(0.0411884 0.00104262 0)
(0.0410286 -0.000270887 0)
(0.0392029 -0.00110612 0)
(0.0370894 -0.000201578 0)
(0.0369886 0.000990901 0)
(0.0391301 0.00123255 0)
(0.0424477 0.00169974 0)
(0.0457225 0.00103633 0)
(0.0473088 0.000320014 0)
(0.0474119 -0.000210119 0)
(0.0465451 -0.000540776 0)
(0.0451098 -0.000793774 0)
(0.0433899 -0.00101982 0)
(0.0410345 -0.00147308 0)
(0.03942 -0.00162627 0)
(0.0345894 -0.00193185 0)
(0.0425271 0.00396898 0)
(0.0370733 0.00656613 0)
(0.114463 0.0321446 0)
(0.148163 -0.0227125 0)
(0.097638 -0.0398249 0)
(-0.0438902 -0.0289897 0)
(-0.0704353 0.281375 0)
(0.161272 -0.059292 0)
(0.374214 0.0313156 0)
(0.328372 -0.0894257 0)
(0.223244 0.00873872 0)
(0.218611 0.171737 0)
(0.597237 -0.0318936 0)
(0.0553792 -0.0585201 0)
(-0.0356922 -0.0096101 0)
(-0.0430151 0.000134776 0)
(-0.0161005 -0.00249642 0)
(-0.0349018 -0.00437407 0)
(-0.0471028 -0.013806 0)
(-0.169642 -0.0563972 0)
(-0.480338 -0.0391722 0)
(-0.172344 0.0480147 0)
(-0.0313209 -0.0233195 0)
(-0.125813 0.0129398 0)
(-0.0211508 0.0298802 0)
(-0.0349004 0.00802897 0)
(-0.00120074 0.00323055 0)
(0.00245378 0.00185845 0)
(0.0104751 0.000997245 0)
(0.0132719 0.000464127 0)
(0.0141002 0.000116315 0)
(0.013263 -0.000123598 0)
(0.0122776 -7.64422e-05 0)
(0.0127463 0.000182261 0)
(0.0141969 0.000171552 0)
(0.0160596 0.00027581 0)
(0.0177985 0.00014088 0)
(0.0185791 3.33258e-05 0)
(0.0185813 -3.71561e-05 0)
(0.0180864 -8.4823e-05 0)
(0.0172487 -0.000137197 0)
(0.016142 -0.000188185 0)
(0.0144055 -0.000357244 0)
(0.0125894 -0.00044115 0)
(0.00804832 -0.000930618 0)
(0.0112808 -0.000114503 0)
(0.00463174 -0.00102891 0)
(0.0447685 0.00559631 0)
(0.0522191 -0.0063048 0)
(0.019687 -0.00674062 0)
(-0.0660561 -0.000679812 0)
(-0.078132 0.124044 0)
(0.506014 -0.0989229 0)
(0.300518 0.00757936 0)
(0.190287 -0.0196083 0)
(0.143739 0.00748852 0)
)
;

boundaryField
{
    AirInlet
    {
        type            fixedValue;
        value           uniform (0.1 0 0);
    }
    WaterInlet
    {
        type            fixedValue;
        value           uniform (0.1 0 0);
    }
    ChannelWall
    {
        type            fixedValue;
        value           uniform (0 0 0);
    }
    Outlet
    {
        type            pressureInletOutletVelocity;
        value           nonuniform List<vector> 
15
(
(-0.036246 -0 0)
(0.0496024 -0.0378657 0)
(0.0986504 -0.074132 0)
(0.109055 -0.101666 0)
(-0.0223247 -0 0)
(-0.238387 -0 0)
(-0.203985 -0 0)
(-0.214648 -0 0)
(-0.100857 -0 0)
(-0.0904618 -0 0)
(-0.0333268 -0 0)
(0.132476 -0.0155247 0)
(0.211017 0.00368023 0)
(0.223244 0.00873872 0)
(0.143739 0.00748852 0)
)
;
    }
    FrontAndBack
    {
        type            empty;
    }
}


// ************************************************************************* //
