/*--------------------------------*- C++ -*----------------------------------*\
| =========                 |                                                 |
| \\      /  F ield         | OpenFOAM: The Open Source CFD Toolbox           |
|  \\    /   O peration     | Version:  2.3.0                                 |
|   \\  /    A nd           | Web:      www.OpenFOAM.org                      |
|    \\/     M anipulation  |                                                 |
\*---------------------------------------------------------------------------*/
FoamFile
{
    version     2.0;
    format      ascii;
    class       volVectorField;
    location    "0.032";
    object      U;
}
// * * * * * * * * * * * * * * * * * * * * * * * * * * * * * * * * * * * * * //

dimensions      [0 1 -1 0 0 0 0];

internalField   nonuniform List<vector> 
725
(
(0.21669 0.0248667 -2.42203e-30)
(0.195726 0.00995972 4.03977e-31)
(0.151457 0.00413223 1.67065e-31)
(0.116761 0.00634662 0)
(0.0566867 0.0219775 4.18278e-31)
(0.379194 0.0525639 -1.1729e-29)
(0.405688 0.0391382 1.72237e-30)
(0.357193 0.0299652 2.09962e-31)
(0.302564 0.038106 0)
(0.217283 0.0836356 4.60665e-30)
(0.416662 0.0383996 -5.40664e-30)
(0.466791 0.0487757 1.38816e-31)
(0.430128 0.0510342 -1.38193e-30)
(0.38514 0.0667576 0)
(0.328907 0.131025 5.45401e-30)
(0.375629 0.0175877 6.84233e-30)
(0.395996 0.0448753 -4.2298e-31)
(0.358241 0.0547675 -3.34038e-30)
(0.33611 0.0707966 0)
(0.336072 0.139249 1.55125e-29)
(0.210222 0.0110332 8.76165e-30)
(0.183235 0.0290946 -9.62384e-31)
(0.154299 0.0304358 -1.36427e-30)
(0.161448 0.0377034 -1.77741e-30)
(0.178416 0.0729411 9.69561e-30)
(-0.0957368 0.0491112 0)
(-0.524556 0.0424861 0)
(-0.128558 -0.153291 0)
(0.539024 -0.192454 0)
(0.587414 0.00930182 0)
(0.222478 0.0346346 0)
(0.0666775 0.0170929 0)
(0.0349298 -0.00734455 0)
(0.142808 -0.0369127 0)
(0.326278 -0.0364295 0)
(0.365694 0.0243142 0)
(0.376931 -0.0153091 0)
(0.350055 0.0266943 0)
(0.185793 0.0258899 0)
(0.072977 0.0093594 0)
(0.04443 0.00134997 0)
(0.0443578 -0.000478501 0)
(0.046915 -0.000194025 0)
(0.0517075 -0.00118149 0)
(0.0643478 -3.69784e-05 0)
(0.0404136 0.00238219 0)
(0.0431506 -0.00436521 0)
(0.0855761 -0.00199251 0)
(0.0944589 0.00173732 0)
(0.113401 -0.00697525 0)
(0.126479 0.00147979 0)
(0.107592 0.00123788 0)
(0.116365 -0.00816966 0)
(0.191683 -0.019595 0)
(0.191211 0.0193464 0)
(0.0996485 0.00782161 0)
(0.0807146 -0.00591814 0)
(0.163982 -0.0210138 0)
(0.193508 0.0143126 0)
(0.119995 0.0102669 0)
(0.0704726 0.00586308 0)
(0.0484672 0.00158436 0)
(0.0445126 3.54945e-05 0)
(0.0476347 -0.000562827 0)
(0.0516205 -0.000420651 0)
(0.0533362 -8.53569e-05 0)
(0.0540875 -0.000134611 0)
(0.0544601 -0.000206051 0)
(0.0570934 0.000133206 0)
(0.0434917 0.00172623 0)
(0.100015 0.133956 0)
(0.0107827 0.0823635 0)
(1.0938 -0.517383 0)
(1.77255 -0.28069 0)
(0.482702 0.382671 0)
(0.142036 0.142578 0)
(0.223075 0.0514067 0)
(0.178397 -0.0173695 0)
(0.211577 -0.105029 0)
(0.246465 -0.0879194 0)
(0.324434 0.00975564 0)
(0.405625 -0.0335229 0)
(0.392015 0.0768978 0)
(0.268783 0.0954144 0)
(0.169732 0.0476738 0)
(0.133588 0.00980145 0)
(0.131938 -0.00205156 0)
(0.136394 -0.00213908 0)
(0.141862 -0.00597662 0)
(0.165588 0.000961158 0)
(0.122002 0.0146244 0)
(0.118518 -0.0237834 0)
(0.195123 -0.021129 0)
(0.222844 -0.00269803 0)
(0.255253 -0.0265445 0)
(0.270557 0.00934317 0)
(0.230422 0.0108324 0)
(0.207685 -0.0204206 0)
(0.209652 -0.0390455 0)
(0.215632 0.0445402 0)
(0.179853 0.0335364 0)
(0.145939 -0.0127922 0)
(0.154079 -0.0552349 0)
(0.206335 0.0245571 0)
(0.203812 0.0373734 0)
(0.163949 0.0269256 0)
(0.13277 0.00913114 0)
(0.125448 -0.000297076 0)
(0.131478 -0.00340804 0)
(0.139074 -0.00243801 0)
(0.142053 -0.000618261 0)
(0.142844 -0.000341209 0)
(0.142884 -0.0010631 0)
(0.146606 0.00227047 0)
(0.123078 0.00801895 0)
(0.270238 0.117252 0)
(0.588437 -0.220521 0)
(1.53729 -0.892612 0)
(-0.0417713 0.446918 0)
(-0.153196 0.40312 0)
(0.431041 0.0336188 0)
(0.531898 0.0515069 0)
(0.330737 0.0252023 0)
(0.227571 -0.0912306 0)
(0.0663628 -0.0622083 0)
(0.133835 -0.0519547 0)
(0.328243 -0.0339921 0)
(0.33634 0.102154 0)
(0.277033 0.127826 0)
(0.228397 0.0727322 0)
(0.204296 0.017947 0)
(0.203782 -0.00375198 0)
(0.210819 -0.00527704 0)
(0.215124 -0.0103114 0)
(0.241401 0.000182945 0)
(0.193867 0.0326796 0)
(0.183935 -0.0439836 0)
(0.27994 -0.0476301 0)
(0.310009 -0.008733 0)
(0.336045 -0.0532272 0)
(0.350646 0.024799 0)
(0.294125 0.0327309 0)
(0.24705 -0.00763286 0)
(0.213884 -0.024651 0)
(0.213114 0.0388262 0)
(0.214468 0.0447074 0)
(0.175864 0.00398523 0)
(0.116079 -0.0497886 0)
(0.160596 -0.0099719 0)
(0.238084 0.0354424 0)
(0.22999 0.0417273 0)
(0.200308 0.0180252 0)
(0.190554 -0.000416584 0)
(0.197288 -0.00734162 0)
(0.207257 -0.00536153 0)
(0.211619 -0.00126924 0)
(0.212461 -0.000253636 0)
(0.213463 -0.00241705 0)
(0.216883 0.00557856 0)
(0.187714 0.016011 0)
(0.406175 0.0613549 0)
(0.827516 -0.434403 0)
(1.15935 -0.798148 0)
(0.319759 0.876225 0)
(0.105196 0.304575 0)
(0.273818 -0.0961922 0)
(0.461009 0.0896667 0)
(0.310412 0.114899 0)
(0.209004 0.00113508 0)
(-0.171753 0.0152375 0)
(-0.0552953 -0.201102 0)
(0.25734 -0.100221 0)
(0.316114 0.0934055 0)
(0.288972 0.14225 0)
(0.265112 0.0883909 0)
(0.251698 0.0230437 0)
(0.253742 -0.00619404 0)
(0.260777 -0.00897498 0)
(0.262949 -0.0139171 0)
(0.287341 0.0002506 0)
(0.233719 0.0519223 0)
(0.232921 -0.0715872 0)
(0.359385 -0.0779639 0)
(0.359391 -0.00151629 0)
(0.351979 -0.0844293 0)
(0.376333 0.0482342 0)
(0.309161 0.0573299 0)
(0.264909 0.00992107 0)
(0.236425 -0.0126862 0)
(0.237251 0.0303371 0)
(0.246721 0.0489518 0)
(0.230865 0.0277896 0)
(0.174136 -0.0243541 0)
(0.18246 -0.0577715 0)
(0.263917 0.0161248 0)
(0.275439 0.0505065 0)
(0.248418 0.0260669 0)
(0.237335 -0.000122363 0)
(0.243615 -0.0118979 0)
(0.255153 -0.00921189 0)
(0.26129 -0.0023454 0)
(0.263361 -0.000553132 0)
(0.266547 -0.00459634 0)
(0.268431 0.0113336 0)
(0.235416 0.0252147 0)
(0.477365 -0.0475367 0)
(0.561777 -0.487089 0)
(-2.6372 0.0593436 0)
(-0.385613 0.305185 0)
(-0.0400758 0.22116 0)
(0.230675 -0.173754 0)
(0.12156 0.0969587 0)
(0.171098 0.0934098 0)
(0.244603 0.058922 0)
(-0.0254658 0.11132 0)
(0.191398 -0.337025 0)
(0.253913 -0.121512 0)
(0.149793 0.096974 0)
(0.19497 0.122773 0)
(0.267423 0.0877608 0)
(0.284428 0.023061 0)
(0.286197 -0.0086666 0)
(0.285966 -0.0123976 0)
(0.285495 -0.0161773 0)
(0.304267 0.00230904 0)
(0.241066 0.0728951 0)
(0.248718 -0.118405 0)
(0.399093 -0.112792 0)
(0.365095 0.0318717 0)
(0.278932 -0.116384 0)
(0.351777 0.0828833 0)
(0.290885 0.0760013 0)
(0.275403 0.0209925 0)
(0.254295 -0.00484796 0)
(0.226069 0.032091 0)
(0.233594 0.0414226 0)
(0.290333 0.018119 0)
(0.30242 -0.00064436 0)
(0.274993 -0.0718398 0)
(0.300057 -0.00333608 0)
(0.305982 0.0597986 0)
(0.279552 0.0333285 0)
(0.268593 0.000856619 0)
(0.272006 -0.0164935 0)
(0.28223 -0.0136919 0)
(0.289199 -0.00398163 0)
(0.293447 -0.00141937 0)
(0.295025 -0.0100728 0)
(0.297449 0.0200142 0)
(0.273966 0.0356883 0)
(0.0795544 -0.163074 0)
(-0.15788 -0.131371 0)
(-0.126423 0.255038 0)
(-0.0738032 -0.101132 0)
(0.223691 0.125636 0)
(0.776238 -0.151994 0)
(0.32174 0.105958 0)
(0.286036 0.0828418 0)
(0.288475 0.0624361 0)
(0.184306 0.119864 0)
(0.348487 -0.367053 0)
(0.402287 -0.077136 0)
(0.112393 0.119351 0)
(0.167364 0.0918729 0)
(0.272507 0.0733691 0)
(0.302725 0.0193903 0)
(0.299812 -0.00717141 0)
(0.286226 -0.0111119 0)
(0.283124 -0.0172279 0)
(0.294063 0.00789685 0)
(0.230541 0.0845006 0)
(0.239507 -0.143961 0)
(0.367715 -0.124299 0)
(0.305398 0.0702098 0)
(0.12866 -0.130105 0)
(0.277729 0.0856775 0)
(0.27369 0.076927 0)
(0.285957 0.0221748 0)
(0.265084 0.00487975 0)
(0.224148 0.0379117 0)
(0.231087 0.0300066 0)
(0.29816 -5.63671e-05 0)
(0.324963 0.00279915 0)
(0.305061 -0.0711544 0)
(0.320245 -0.0066123 0)
(0.312645 0.0661438 0)
(0.290486 0.0375328 0)
(0.282694 0.00205099 0)
(0.281616 -0.0177599 0)
(0.287448 -0.0155949 0)
(0.29352 -0.00549365 0)
(0.30074 -0.00159361 0)
(0.290842 -0.0101871 0)
(0.296 0.0198001 0)
(0.303727 0.0368133 0)
(-0.34189 -0.153967 0)
(-0.373127 -0.112221 0)
(0.842847 0.188532 0)
(-0.621464 -0.0229556 0)
(0.284491 0.0488799 0)
(0.936153 -0.145592 0)
(0.432131 0.128876 0)
(0.335644 0.0886845 0)
(0.32581 0.0584832 0)
(0.224206 0.127035 0)
(0.274189 -0.382579 0)
(0.419769 -0.0632347 0)
(0.133058 0.130921 0)
(0.187493 0.0825985 0)
(0.275721 0.067206 0)
(0.310893 0.01799 0)
(0.305071 -0.00624367 0)
(0.285157 -0.00991334 0)
(0.28071 -0.0176381 0)
(0.288047 0.0104627 0)
(0.22502 0.0879312 0)
(0.239944 -0.152323 0)
(0.345516 -0.126436 0)
(0.273764 0.0856092 0)
(0.0602848 -0.128462 0)
(0.216581 0.0767145 0)
(0.266156 0.074885 0)
(0.289961 0.02199 0)
(0.267484 0.00884741 0)
(0.224035 0.0392711 0)
(0.229725 0.0267155 0)
(0.294384 -0.0057206 0)
(0.327456 0.0030898 0)
(0.309537 -0.0712957 0)
(0.320019 -0.00677113 0)
(0.308249 0.0679044 0)
(0.290196 0.0388198 0)
(0.288194 0.00242109 0)
(0.28474 -0.0179254 0)
(0.288249 -0.0161524 0)
(0.294122 -0.00610677 0)
(0.301533 -0.00154277 0)
(0.289981 -0.00968464 0)
(0.295533 0.0185107 0)
(0.313903 0.036408 0)
(-0.626848 -0.074671 0)
(-0.600588 -0.176671 0)
(0.279534 0.133529 0)
(-0.734103 0.0358977 0)
(0.388984 -0.0738106 0)
(0.967328 -0.136929 0)
(0.513148 0.157904 0)
(0.363896 0.104285 0)
(0.0867728 0.0680057 0)
(-0.141413 0.135576 0)
(0.128909 -0.41215 0)
(0.386654 -0.0530267 0)
(0.111559 0.139604 0)
(0.191954 0.075667 0)
(0.277958 0.0607333 0)
(0.320496 0.0164798 0)
(0.310864 -0.00475251 0)
(0.28749 -0.00836552 0)
(0.281875 -0.0177836 0)
(0.279851 0.0135132 0)
(0.218854 0.0915103 0)
(0.201269 -0.157679 0)
(0.266451 -0.128492 0)
(0.2487 0.099258 0)
(0.0457121 -0.121631 0)
(0.171236 0.0619768 0)
(0.258847 0.0713152 0)
(0.282703 0.0216776 0)
(0.265972 0.0124434 0)
(0.227184 0.0405541 0)
(0.226809 0.0241707 0)
(0.284074 -0.0113304 0)
(0.321436 0.00291265 0)
(0.309255 -0.0714589 0)
(0.31219 -0.00660069 0)
(0.296895 0.0697401 0)
(0.287862 0.0391382 0)
(0.294771 0.00274386 0)
(0.287693 -0.0177107 0)
(0.288018 -0.0166442 0)
(0.293882 -0.0067365 0)
(0.301665 -0.00142432 0)
(0.289903 -0.00912912 0)
(0.294466 0.0167674 0)
(0.320985 0.0354527 0)
(-0.556198 0.0279652 0)
(-0.508643 -0.227314 0)
(0.0372067 0.121757 0)
(-0.447506 0.0602387 0)
(0.272703 -0.173982 0)
(0.693885 -0.136139 0)
(0.525808 0.181442 0)
(0.367711 0.13035 0)
(-0.140939 0.108946 0)
(-0.434709 0.12263 0)
(0.0533196 -0.457823 0)
(0.310571 -0.0456379 0)
(0.0687106 0.144918 0)
(0.172262 0.0674049 0)
(0.273128 0.0532874 0)
(0.322943 0.014819 0)
(0.313397 -0.00299984 0)
(0.292294 -0.00687074 0)
(0.284411 -0.0172409 0)
(0.272625 0.0169355 0)
(0.216525 0.0956386 0)
(0.185232 -0.158176 0)
(0.20026 -0.132607 0)
(0.240164 0.107467 0)
(0.146132 -0.117723 0)
(0.236015 0.0494977 0)
(0.257799 0.0682522 0)
(0.275626 0.021545 0)
(0.265102 0.0148468 0)
(0.227981 0.04255 0)
(0.222475 0.0220651 0)
(0.270251 -0.0167042 0)
(0.314376 0.00224859 0)
(0.309575 -0.0713934 0)
(0.295244 -0.00592934 0)
(0.280838 0.0713017 0)
(0.285155 0.0382471 0)
(0.300963 0.00271183 0)
(0.295837 -0.0172733 0)
(0.293348 -0.0169198 0)
(0.296745 -0.0072981 0)
(0.303135 -0.00122278 0)
(0.290437 -0.00850703 0)
(0.292289 0.0148755 0)
(0.324626 0.0340403 0)
(-0.307596 0.125514 0)
(-0.593051 -0.259075 0)
(-0.420188 0.104096 0)
(-0.16116 0.0437888 0)
(0.155733 -0.21434 0)
(0.374247 -0.148666 0)
(0.450855 0.191661 0)
(0.345431 0.159302 0)
(-0.145335 0.15288 0)
(-0.280539 0.113268 0)
(0.114659 -0.492916 0)
(0.255991 -0.0437937 0)
(0.136904 0.149721 0)
(0.185536 0.0583033 0)
(0.275468 0.0456298 0)
(0.320795 0.0130262 0)
(0.313756 -0.0015305 0)
(0.295303 -0.00545034 0)
(0.285993 -0.0160465 0)
(0.267321 0.0203455 0)
(0.219878 0.100102 0)
(0.174663 -0.154901 0)
(0.133735 -0.137955 0)
(0.235748 0.109107 0)
(0.193902 -0.121386 0)
(0.270719 0.0461168 0)
(0.252494 0.0669394 0)
(0.269483 0.0213468 0)
(0.261138 0.0167632 0)
(0.228838 0.0445925 0)
(0.222788 0.0208179 0)
(0.251648 -0.0212194 0)
(0.303856 -0.000213173 0)
(0.309392 -0.0695517 0)
(0.268387 -0.00424168 0)
(0.257969 0.0714787 0)
(0.281406 0.036211 0)
(0.305321 0.00209897 0)
(0.302002 -0.0168463 0)
(0.297453 -0.0168848 0)
(0.298828 -0.00771045 0)
(0.304174 -0.000966603 0)
(0.291857 -0.00765739 0)
(0.291483 0.0129003 0)
(0.324843 0.0324324 0)
(0.210147 -0.0109428 0)
(0.182019 -0.028418 -6.60179e-32)
(0.146843 -0.0257751 -1.67769e-31)
(0.112445 -0.0120824 -3.67211e-30)
(0.0969024 0.014099 0)
(0.375769 -0.0173658 0)
(0.395706 -0.0435998 0)
(0.358109 -0.0483293 0)
(0.362834 -0.0587994 4.97939e-31)
(0.418115 -0.106418 0)
(0.416899 -0.0381722 0)
(0.467095 -0.0475991 0)
(0.429515 -0.0469803 0)
(0.407937 -0.067655 2.63622e-30)
(0.24958 -0.132813 0)
(0.379426 -0.0524411 0)
(0.406619 -0.0384917 0)
(0.358579 -0.0274432 0)
(0.33261 -0.0346408 -3.16349e-31)
(0.164995 -0.0633372 0)
(0.216778 -0.0248459 0)
(0.196369 -0.00982979 0)
(0.151344 -0.00398571 0)
(0.139189 -0.00490037 5.87419e-32)
(0.0216465 -0.0151362 0)
(0.323932 -0.0288828 0)
(-0.0849155 -0.0227306 0)
(0.0876449 -0.0948742 0)
(0.405965 0.0741263 0)
(0.0257815 -0.180418 0)
(-0.0786165 -0.192381 0)
(0.229035 0.17831 0)
(0.220685 0.216233 0)
(0.0724018 0.213748 0)
(0.335232 0.0708132 0)
(0.188654 -0.439489 0)
(-0.158469 -0.0345267 0)
(0.0688222 0.135247 0)
(0.210018 0.0328025 0)
(0.28045 0.0261271 0)
(0.313732 0.00819423 0)
(0.310143 0.00116801 0)
(0.298163 -0.00142804 0)
(0.287209 -0.0112969 0)
(0.252572 0.0292418 0)
(0.238873 0.111602 0)
(0.181266 -0.125527 0)
(0.0101949 -0.152062 0)
(0.217879 0.097157 0)
(0.131878 -0.124983 0)
(0.140978 0.0601854 0)
(0.204409 0.0626743 0)
(0.255049 0.0196143 0)
(0.253378 0.0217423 0)
(0.22938 0.0479248 0)
(0.219317 0.0222511 0)
(0.21842 -0.0302602 0)
(0.296228 -0.022529 0)
(0.303445 -0.0501904 0)
(0.176865 0.00846161 0)
(0.184608 0.063358 0)
(0.271885 0.0268849 0)
(0.313644 -0.000790103 0)
(0.313053 -0.01555 0)
(0.304433 -0.0161939 0)
(0.3015 -0.00830482 0)
(0.30289 -0.0005891 0)
(0.294087 -0.00412528 0)
(0.289058 0.00676662 0)
(0.31953 0.0280574 0)
(0.58781 0.0737387 0)
(0.215256 0.0475891 0)
(-0.171224 -0.139283 0)
(0.201072 0.00304343 0)
(0.305775 -0.0261003 0)
(0.0226841 -0.195494 0)
(0.0129761 0.133898 0)
(0.132711 0.177663 0)
(0.283068 0.134757 0)
(0.470015 -0.00586507 0)
(0.321045 -0.25646 0)
(0.0840293 -0.0563818 0)
(0.176625 0.0388398 0)
(0.249698 0.00208271 0)
(0.269936 0.00775253 0)
(0.282189 0.00428813 0)
(0.280817 0.00239363 0)
(0.276448 0.00279908 0)
(0.270504 0.000325719 0)
(0.228797 0.0376557 0)
(0.269536 0.101939 0)
(0.296632 -0.050039 0)
(0.10048 -0.136116 0)
(0.106719 0.0706657 0)
(0.00429082 -0.0800161 0)
(0.00961485 0.00864734 0)
(0.181988 0.0122513 0)
(0.23784 0.00630274 0)
(0.243324 0.0245582 0)
(0.234828 0.0479296 0)
(0.230223 0.0330858 0)
(0.233426 -0.0372422 0)
(0.249423 -0.0534756 0)
(0.218958 -0.00316365 0)
(0.125406 0.0451914 0)
(0.148372 0.0124287 0)
(0.247431 -0.00900664 0)
(0.294692 -0.0112561 0)
(0.296055 -0.0133528 0)
(0.286377 -0.0131063 0)
(0.28036 -0.00624409 0)
(0.276772 -0.000251955 0)
(0.272146 0.00166579 0)
(0.265557 0.00245538 0)
(0.289168 0.0217178 0)
(0.353709 0.112956 0)
(0.392245 0.17369 0)
(0.0649592 -0.044585 0)
(0.177163 -0.184307 0)
(0.268075 0.00884697 0)
(0.103636 -0.115158 0)
(0.0399675 0.0880361 0)
(0.240222 0.0819082 0)
(0.373407 0.0674513 0)
(0.467195 -0.0198102 0)
(0.286482 -0.148217 0)
(0.113858 -0.0308523 0)
(0.185456 0.0261561 0)
(0.224531 -0.00219335 0)
(0.226905 0.00394986 0)
(0.231459 0.00357643 0)
(0.231907 0.00300415 0)
(0.231381 0.00412177 0)
(0.232379 0.00873458 0)
(0.201094 0.0421089 0)
(0.232154 0.0770718 0)
(0.29414 -0.0376493 0)
(0.181006 -0.0751532 0)
(0.090855 0.0792885 0)
(0.108224 -0.0616614 0)
(0.121167 -0.0431427 0)
(0.187588 -0.0205955 0)
(0.206621 -0.00190772 0)
(0.213601 0.0225056 0)
(0.225049 0.0457085 0)
(0.229271 0.0386478 0)
(0.227551 -0.0442634 0)
(0.21836 -0.0399232 0)
(0.191843 0.0141205 0)
(0.168828 0.056082 0)
(0.204341 -0.015525 0)
(0.242495 -0.0318962 0)
(0.256029 -0.0174792 0)
(0.250093 -0.0107543 0)
(0.239623 -0.00990349 0)
(0.232511 -0.00298074 0)
(0.225759 0.00113455 0)
(0.225597 0.00389989 0)
(0.225231 -0.00229733 0)
(0.243026 0.017653 0)
(0.196253 0.0526317 0)
(0.420785 0.0900286 0)
(0.547955 0.058791 0)
(0.295619 -0.127166 0)
(0.256857 -0.0345591 0)
(0.283558 -0.0108942 0)
(0.0737392 0.0595069 0)
(0.246353 0.0270845 0)
(0.32144 0.0111989 0)
(0.379593 0.0127802 0)
(0.233115 -0.0544581 0)
(0.103336 -0.0275388 0)
(0.141611 0.00229522 0)
(0.155947 -0.00561527 0)
(0.152916 0.00213301 0)
(0.159167 0.00189687 0)
(0.163256 0.00233738 0)
(0.165774 0.00331744 0)
(0.172917 0.0111891 0)
(0.173248 0.0411905 0)
(0.227168 0.0636085 0)
(0.276908 -0.0452056 0)
(0.18348 -0.0262942 0)
(0.163778 0.0760728 0)
(0.222789 -0.0524137 0)
(0.171571 -0.0569013 0)
(0.149537 -0.0232614 0)
(0.142952 -0.00152438 0)
(0.15304 0.0161933 0)
(0.186218 0.0359336 0)
(0.221305 0.0437441 0)
(0.215759 -0.0413869 0)
(0.169288 -0.0291539 0)
(0.160458 0.0183994 0)
(0.184303 0.0505643 0)
(0.218488 -0.0336098 0)
(0.209127 -0.0327028 0)
(0.187586 -0.0133273 0)
(0.173532 -0.0059714 0)
(0.16295 -0.0070881 0)
(0.157208 0.00147024 0)
(0.152045 0.00334662 0)
(0.155939 0.00367594 0)
(0.148133 -0.00618645 0)
(0.17485 0.010266 0)
(0.0269726 -0.00257213 0)
(0.0696196 -0.013153 0)
(0.232494 0.0265459 0)
(0.183155 -0.0365929 0)
(-0.041726 -0.0481084 0)
(-0.0650763 0.0353859 0)
(0.0120795 0.031043 0)
(0.13834 0.00176511 0)
(0.10554 -0.00950879 0)
(0.159405 0.0182607 0)
(0.151146 -0.00766711 0)
(0.0795968 -0.00816941 0)
(0.066963 -0.00028157 0)
(0.0639813 -0.00151381 0)
(0.0611203 0.000602713 0)
(0.0646773 -0.000102999 0)
(0.066873 0.000483293 0)
(0.0694457 0.000576558 0)
(0.0776908 0.00302689 0)
(0.109673 0.0130041 0)
(0.22474 0.024456 0)
(0.241185 -0.0194691 0)
(0.134393 -0.00250762 0)
(0.209424 0.0285572 0)
(0.258342 -0.0202374 0)
(0.134301 -0.0189113 0)
(0.0613123 -0.00471116 0)
(0.0512424 0.000262574 0)
(0.0609259 0.00375672 0)
(0.096314 0.00932002 0)
(0.179399 0.0191524 0)
(0.18633 -0.014804 0)
(0.10141 -0.00817642 0)
(0.0910389 0.00597551 0)
(0.17676 0.0204331 0)
(0.185223 -0.019714 0)
(0.105593 -0.00897682 0)
(0.0754533 -0.0025101 0)
(0.0658987 -0.000825452 0)
(0.0554351 -0.0023684 0)
(0.0522669 0.00191711 0)
(0.0578961 0.00134314 0)
(0.0678294 0.00141322 0)
(0.060087 -0.00259141 0)
(0.0684237 0.00167718 0)
)
;

boundaryField
{
    AirInlet
    {
        type            fixedValue;
        value           uniform (0.08 0 0);
    }
    WaterInlet
    {
        type            fixedValue;
        value           uniform (0.4 0 0);
    }
    ChannelWall
    {
        type            fixedValue;
        value           uniform (0 0 0);
    }
    Outlet
    {
        type            pressureInletOutletVelocity;
        value           nonuniform List<vector> 
15
(
(0.0434917 0.00172623 0)
(0.123078 0.00801895 0)
(0.187714 0.016011 0)
(0.235416 0.0252147 0)
(0.273966 0.0356883 0)
(0.303727 0.0368133 0)
(0.313903 0.036408 0)
(0.320985 0.0354527 0)
(0.324626 0.0340403 0)
(0.324843 0.0324324 0)
(0.31953 0.0280574 0)
(0.289168 0.0217178 0)
(0.243026 0.017653 0)
(0.17485 0.010266 0)
(0.0684237 0.00167718 0)
)
;
    }
    FrontAndBack
    {
        type            empty;
    }
}


// ************************************************************************* //
