/*--------------------------------*- C++ -*----------------------------------*\
| =========                 |                                                 |
| \\      /  F ield         | OpenFOAM: The Open Source CFD Toolbox           |
|  \\    /   O peration     | Version:  2.3.0                                 |
|   \\  /    A nd           | Web:      www.OpenFOAM.org                      |
|    \\/     M anipulation  |                                                 |
\*---------------------------------------------------------------------------*/
FoamFile
{
    version     2.0;
    format      ascii;
    class       volScalarField;
    location    "3";
    object      alpha.water;
}
// * * * * * * * * * * * * * * * * * * * * * * * * * * * * * * * * * * * * * //

dimensions      [0 0 0 0 0 0 0];

internalField   nonuniform List<scalar> 
2268
(
1
1
1
1
1
1
0.999999
0.999999
0.999999
1
0.999999
0.999998
0.999997
0.999999
1
1
1
0.986605
0.980568
0.992556
0.997293
0.997293
0.996064
1
1
1
1
1
0.999997
0.999997
0.999999
0.999998
0.999998
0.999997
0.999997
0.999997
0.999999
1
1
0.98749
0.980568
0.980559
0.98055
0.992028
0.997153
0.996062
1
1
1
1
0.999999
0.999997
0.999999
0.999999
0.999996
0.999996
0.999997
0.999999
0.999999
1
1
1
0.994787
0.980688
0.98055
0.98055
0.98055
0.993089
0.998068
1
1
1
0.999999
0.999999
0.999999
1
0.999998
0.999996
0.999998
1
1
1
1
1
0.999999
1
0.996727
0.988709
0.989775
0.994874
0.997808
0.999945
1
1
1
0.999999
0.999999
0.999999
1
0.999999
0.999999
0.999999
0.999999
1
1
1
0.999999
0.999998
1
1
0.999955
0.999992
0.999997
0.999996
0.999996
1
1
1
1
1
1
1
0.999999
0.999998
0.999998
0.999999
1
1
1
0.999999
0.999999
1
1
1
1
1
0.999998
0.999997
1
1
1
1
1
1
1
0.999999
0.999998
0.999998
0.999999
1
1
1
0.999999
1
1
1
1
1
1
0.999998
0.999997
0.999998
0.999998
0.999999
0.999999
1
1
1
0.999999
0.999999
0.999999
0.999999
1
1
1
1
1
1
1
1
1
1
0.999999
1
0.951515
0.961198
0.981065
0.985348
0.984248
0.983566
0.99086
0.984276
0.9432
0.9432
0.974506
0.994442
0.979989
0.974754
0.974795
0.989737
0.992303
0.983613
0.983613
0.96204
0.998366
0.99838
0.998397
0.99838
0.998236
0.998191
0.996944
0.944739
0.943328
0.989268
0.994467
0.993605
0.989803
0.993299
0.994587
0.994596
0.994552
0.991908
0.947217
0.990721
0.998397
0.998408
0.998353
0.998302
0.998294
0.998093
0.98745
0.970776
0.994651
0.994625
0.99451
0.994562
0.994578
0.994593
0.9946
0.994616
0.994601
0.947204
0.974098
0.998384
0.998445
0.996636
0.99478
0.997685
0.998151
0.998151
0.99717
0.995112
0.99474
0.993939
0.986839
0.992913
0.994581
0.994593
0.994593
0.994527
0.947203
0.98318
0.998343
0.998482
0.997125
0.994476
0.997712
0.998151
0.985394
0.928094
0.934541
0.919422
0.902265
0.898298
0.930057
0.982471
0.994581
0.994594
0.993846
0.947203
0.994682
0.998297
0.998493
0.998032
0.994814
0.9977
0.972597
0.913399
0.91032
0.907767
0.905776
0.895277
0.89531
0.895375
0.938699
0.994578
0.994574
0.993865
0.983661
0.997838
0.998419
0.998509
0.997477
0.994852
0.995897
0.96789
0.913469
0.913793
0.951945
0.958442
0.895233
0.895274
0.89531
0.920619
0.994542
0.994573
0.994503
0.999936
0.998741
0.998716
0.998628
0.993901
0.987549
0.988287
0.991932
0.973656
0.962724
0.992599
0.989233
0.913117
0.89531
0.895814
0.967486
0.994376
0.994563
0.99449
0.999964
0.999973
0.999983
0.99999
0.999994
0.999997
0.999999
0.999998
0.999999
1
1
1
1
1
1
1
1
1
1
1
1
1
1
0.99961
0.99967
0.999767
0.999837
0.999888
0.999924
0.999946
0.999963
0.999981
0.999964
0.999151
0.999571
0.996632
0.990182
0.982407
0.974575
0.967622
0.961947
0.957817
0.959684
0.969945
0.982698
0.988327
0.745736
0.772703
0.796617
0.807161
0.806571
0.793504
0.766748
0.729402
0.682441
0.627384
0.561934
0.499173
0.453146
0.414018
0.383563
0.364071
0.355014
0.352986
0.354488
0.350232
0.342431
0.339531
0.342094
0.0520342
0.0730364
0.0919971
0.101648
0.099556
0.0901083
0.074311
0.0520001
0.029838
0.011166
0.0111716
0.0104859
0.00594726
0.00372222
0.00396728
0.00416808
0.00377892
0.00372702
0.00370604
0.00657492
0.0107377
0.0120702
0.0113554
0.00377496
0.00365681
0.00377496
0.00390349
0.00433028
0.0048287
0.00699928
0.0121318
0.0169656
0.0184427
0.0184285
0.0161422
0.00347763
0.00346667
0.00367132
0.00388375
0.00348926
0.0034358
0.00343407
0.00643345
0.0108065
0.0126096
0.0119518
0.00595949
0.00355797
0.00601953
0.0133011
0.0138527
0.0138492
0.0139341
0.0146156
0.0150762
0.0165444
0.0116962
0.0048903
0.00346667
0.00346707
0.00616773
0.00670669
0.00344464
0.00343409
0.0034358
0.0105596
0.0115655
0.010019
0.0119636
0.00137938
0.00255917
0.00156643
0.00133814
0.00337345
0.00136968
0.000544348
0.000747507
0.000836477
0.00129013
0.00300133
0.0054436
0.00667284
0.00678222
0.00683152
0.00682645
0.00681894
0.00402404
0.00388379
0.00551508
0.0031557
0.000424546
0.00147654
0.000375441
0.000371979
0.000206917
0.00012047
5.73578e-05
5.01728e-05
4.91359e-05
4.66466e-05
4.27433e-05
3.77922e-05
0.00165131
0.00456461
0.00451048
0.00248519
0.00201528
0.00295869
0.00372854
0.00241853
0.00138209
0.000108197
1.57711e-06
8.94953e-07
1.8962e-06
0.000545636
0.00048445
0.000960767
0.00146472
0.00113267
0.000237734
4.8807e-05
4.96574e-05
4.15479e-05
3.54498e-05
3.32847e-05
2.37071e-05
2.37071e-05
1.51527e-05
1.93759e-06
1.78248e-06
2.27956e-05
9.14983e-05
7.75848e-06
1.58009e-06
2.21693e-07
2.11324e-07
6.98685e-07
0.000878533
0.0016897
0.00169064
0.0016839
0.00126101
0.000190481
4.77587e-05
4.63038e-05
4.50155e-05
4.65382e-05
0.000140482
0.000244415
0.000237924
4.74513e-05
1.72e-06
1.47377e-06
1.78251e-06
3.21617e-06
2.29054e-05
6.28318e-06
1.54052e-07
1.42837e-07
1.99274e-07
0.000476624
0.00155199
0.00163594
0.000406141
2.54984e-06
1.55033e-05
7.15189e-05
6.03043e-05
0.000113274
0.000249428
0.000249594
0.000245115
0.000244419
0.00024131
3.45127e-05
8.57328e-07
6.32731e-06
4.5779e-05
5.03975e-05
3.25305e-05
1.40205e-07
1.19163e-07
1.25822e-07
0.000181184
0.000500913
6.83658e-05
5.14643e-09
2.80611e-09
6.17893e-05
0.000320375
0.000320711
0.000320549
0.000262418
1.61505e-05
3.05776e-05
0.000119703
7.75069e-05
1.39672e-08
1.23563e-07
2.16486e-05
5.04388e-05
5.04631e-05
5.03975e-05
1.86983e-05
8.79545e-08
8.47879e-08
5.70237e-05
3.98728e-05
4.96966e-09
3.28347e-09
6.45413e-10
1.46232e-10
1.79569e-10
1.79569e-10
1.75183e-10
1.75183e-10
1.75294e-10
1.77442e-10
1.85601e-10
2.35297e-10
6.37333e-10
4.25198e-09
3.95159e-07
1.95993e-05
5.04459e-05
4.98492e-05
4.16548e-05
8.1718e-08
7.15074e-08
3.78556e-06
1.75854e-08
5.29261e-09
8.07229e-08
2.14596e-07
5.20587e-08
1.79856e-10
1.81552e-10
2.12384e-10
1.92043e-10
1.84901e-10
1.80775e-10
1.82551e-10
1.89721e-10
2.11877e-10
2.66236e-10
5.42305e-09
1.92527e-07
4.12213e-06
1.31737e-05
1.72676e-05
6.64958e-06
7.15097e-08
1.01816e-07
2.63775e-08
2.10881e-08
1.19211e-07
2.26818e-07
1.68506e-07
1.83722e-10
2.22028e-10
6.20176e-10
3.91315e-10
2.42377e-10
2.15596e-10
2.04242e-10
2.10208e-10
2.16665e-10
2.29467e-10
3.33432e-10
3.49036e-10
3.62911e-10
1.09332e-09
2.6034e-08
6.1569e-07
6.28786e-07
3.32117e-08
2.25597e-08
2.17841e-08
3.76447e-08
8.91307e-08
9.08328e-08
1.1834e-08
2.39848e-10
8.5383e-10
6.99994e-10
3.99052e-10
2.80102e-10
2.4254e-10
2.21949e-10
2.31152e-10
2.57603e-10
2.72345e-10
2.63336e-10
2.67541e-10
3.63506e-10
6.72779e-09
1.50882e-07
2.78807e-07
4.24023e-08
4.51033e-08
2.17217e-08
8.15624e-09
2.38117e-09
3.26856e-09
8.03061e-09
5.4836e-09
1.68862e-09
8.04583e-10
5.25901e-10
3.52147e-10
2.6432e-10
2.12998e-10
1.72842e-10
1.49229e-10
1.41991e-10
1.2018e-10
1.15348e-10
9.1686e-09
7.52075e-08
1.00567e-07
4.0017e-08
1.75991e-08
4.14766e-08
2.94886e-08
9.68291e-09
1.58396e-09
1.57816e-09
1.57359e-09
1.74552e-09
1.74631e-09
1.26154e-09
7.52565e-10
4.47871e-10
3.05563e-10
2.41992e-10
1.92468e-10
1.56754e-10
1.31622e-10
1.17388e-10
1.07535e-10
8.96733e-11
4.60907e-09
3.76664e-08
4.58847e-08
5.20672e-09
1.48475e-08
2.70329e-08
1.29529e-08
2.30414e-09
1.5745e-09
1.57207e-09
1.58544e-09
1.58123e-09
1.43611e-09
1.0104e-09
5.88481e-10
3.47255e-10
2.67396e-10
2.11364e-10
1.69457e-10
1.37362e-10
1.14037e-10
9.78761e-11
8.65497e-11
8.69095e-11
8.76662e-11
3.26516e-10
4.3888e-09
4.19723e-09
1.33938e-08
1.12835e-08
4.08063e-09
1.57209e-09
1.54351e-09
1.59008e-09
1.58989e-09
1.49016e-09
1.16235e-09
7.47459e-10
3.969e-10
2.94296e-10
2.28244e-10
1.79272e-10
1.41222e-10
1.1262e-10
9.23665e-11
8.35329e-11
1.24915e-10
1.11835e-10
7.23424e-11
4.19389e-09
4.00744e-09
4.91889e-09
6.09184e-09
3.73326e-09
1.74111e-09
1.51975e-09
1.55362e-09
1.55226e-09
1.47641e-09
1.22478e-09
8.38409e-10
4.46093e-10
3.19011e-10
2.42388e-10
1.86922e-10
1.4349e-10
1.09707e-10
8.4378e-11
6.5825e-11
7.47729e-11
1.27245e-10
9.96159e-11
3.7072e-09
3.49591e-09
1.77988e-09
2.34726e-09
2.32141e-09
1.70638e-09
1.50366e-09
1.50897e-09
1.49032e-09
1.40531e-09
1.17829e-09
8.52259e-10
4.75374e-10
3.33125e-10
2.50264e-10
1.9115e-10
1.44394e-10
1.07126e-10
7.85071e-11
5.75763e-11
4.54151e-11
3.37918e-11
3.80798e-11
4.15966e-08
1.69684e-09
1.53897e-09
1.50012e-09
1.51713e-09
1.46856e-09
1.44264e-09
1.43142e-09
1.39691e-09
1.30466e-09
1.11699e-09
8.53932e-10
5.3673e-10
3.14441e-10
2.41193e-10
1.88078e-10
1.4163e-10
1.03002e-10
7.28873e-11
5.07611e-11
3.54773e-11
2.54476e-11
1.8832e-11
4.95999e-08
3.08818e-08
8.11769e-09
1.13983e-09
1.04314e-09
1.16882e-09
1.29676e-09
1.2788e-09
1.21603e-09
1.14724e-09
1.06204e-09
9.16235e-10
6.11017e-10
3.01471e-10
2.36575e-10
1.82328e-10
1.35312e-10
9.62995e-11
6.61106e-11
4.41942e-11
2.91006e-11
1.91078e-11
1.26243e-11
4.96002e-08
4.96007e-08
2.59951e-08
1.72517e-09
9.85961e-10
1.02869e-09
1.0809e-09
1.10824e-09
1.11393e-09
1.09396e-09
1.04052e-09
9.23155e-10
6.53085e-10
3.0756e-10
2.26529e-10
1.68371e-10
1.22226e-10
8.5144e-11
5.69543e-11
3.68533e-11
2.32801e-11
1.44844e-11
8.93882e-12
1.5413e-08
2.14815e-08
1.2314e-08
1.28187e-09
9.68283e-10
9.66483e-10
9.6932e-10
1.03586e-09
1.05482e-09
1.0443e-09
9.9934e-10
8.94778e-10
6.54819e-10
3.05543e-10
2.12686e-10
1.50014e-10
1.04655e-10
7.04958e-11
4.56219e-11
2.84944e-11
1.73069e-11
1.03001e-11
6.04382e-12
2.14152e-09
1.35988e-09
9.9418e-10
9.67321e-10
9.65966e-10
9.65969e-10
9.661e-10
9.69196e-10
9.67998e-10
9.44158e-10
8.91772e-10
7.90578e-10
5.85722e-10
2.77176e-10
1.851e-10
1.24052e-10
8.23236e-11
5.29031e-11
3.27302e-11
1.95559e-11
1.13542e-11
6.44725e-12
3.60014e-12
1.01357e-05
2.44647e-06
7.23181e-06
1.22144e-05
4.56215e-06
5.32659e-08
8.33566e-10
6.86896e-10
6.81623e-10
6.78306e-10
6.47965e-10
5.70795e-10
4.10181e-10
1.91902e-10
1.33228e-10
8.8226e-11
5.6035e-11
3.41557e-11
2.00388e-11
1.13638e-11
6.26164e-12
3.37061e-12
1.78109e-12
2.28959e-05
2.31382e-05
2.35085e-05
2.35107e-05
2.30763e-05
2.33837e-06
1.92843e-09
2.98158e-10
2.24358e-10
3.42911e-10
3.17275e-10
2.495e-10
1.76579e-10
1.2218e-10
8.1148e-11
5.15988e-11
3.13133e-11
1.81492e-11
1.00844e-11
5.40038e-12
2.80343e-12
1.41845e-12
7.02899e-13
1.5389e-05
2.35085e-05
2.35107e-05
2.35085e-05
1.43464e-05
7.13877e-07
7.1943e-10
1.70803e-10
1.45365e-10
1.92453e-10
1.7251e-10
1.37646e-10
1.00391e-10
6.82275e-11
4.33896e-11
2.60557e-11
1.48169e-11
8.01898e-12
4.15422e-12
2.07198e-12
1.0004e-12
4.69895e-13
2.15664e-13
4.08169e-07
9.31091e-06
1.197e-05
6.3063e-06
5.79738e-07
6.51841e-08
3.52453e-09
1.43612e-10
1.3713e-10
1.33714e-10
1.08791e-10
8.03607e-11
5.47089e-11
3.45091e-11
2.01884e-11
1.11318e-11
5.81253e-12
2.89069e-12
1.37691e-12
6.31344e-13
2.79928e-13
1.20507e-13
5.05614e-14
2.08765e-10
2.57478e-09
5.33623e-09
1.95126e-09
3.78305e-10
1.02567e-10
1.79551e-09
8.23433e-10
1.89129e-10
1.16474e-10
7.16948e-11
4.43705e-11
2.65058e-11
1.49144e-11
7.82769e-12
3.89698e-12
1.8448e-12
8.33549e-13
3.60987e-13
1.50428e-13
6.05295e-14
2.35946e-14
8.94317e-15
4.24502e-11
9.242e-11
1.35691e-10
8.99864e-11
4.66756e-11
6.00757e-11
1.71585e-10
2.33353e-10
1.14525e-10
6.11838e-11
3.42576e-11
1.91342e-11
1.02736e-11
5.16372e-12
2.43286e-12
1.08833e-12
4.63846e-13
1.88826e-13
7.36387e-14
2.75944e-14
9.96415e-15
3.47777e-15
1.18342e-15
3.70776e-11
4.31943e-11
7.44803e-11
5.18635e-11
3.74915e-11
6.03962e-11
5.74645e-11
6.34699e-11
3.95087e-11
2.25186e-11
1.23249e-11
6.42833e-12
3.14019e-12
1.41098e-12
5.97177e-13
2.39133e-13
9.10828e-14
3.31002e-14
1.15046e-14
3.8336e-15
1.22796e-15
3.8052e-16
1.20922e-16
3.35287e-11
8.10468e-11
7.61379e-11
5.37529e-11
3.34021e-11
2.73993e-11
2.28744e-11
1.86766e-11
1.20061e-11
6.84291e-12
3.58273e-12
1.72875e-12
7.61163e-13
3.05123e-13
1.15111e-13
4.09526e-14
1.38068e-14
4.42798e-15
1.3544e-15
3.96024e-16
1.11184e-16
3.11997e-17
1.39307e-17
1.63982e-11
3.31017e-11
3.0356e-11
2.10254e-11
1.44768e-11
1.05026e-11
7.67838e-12
5.36065e-12
3.26291e-12
1.76376e-12
8.58436e-13
3.75926e-13
1.46402e-13
5.22305e-14
1.73748e-14
5.42709e-15
1.59904e-15
4.46098e-16
1.1818e-16
2.98305e-17
7.3359e-18
2.47869e-18
4.33255e-18
5.32509e-12
1.03921e-11
9.53187e-12
6.85354e-12
4.76487e-12
3.25455e-12
2.17191e-12
1.36462e-12
7.67789e-13
3.83815e-13
1.70167e-13
6.6341e-14
2.26825e-14
7.10064e-15
2.05521e-15
5.54963e-16
1.40494e-16
3.34583e-17
7.51963e-18
1.61113e-18
3.95303e-19
4.54721e-19
2.04675e-18
1.16417e-12
2.50278e-12
2.37705e-12
1.78992e-12
1.24167e-12
8.17245e-13
5.1146e-13
2.96519e-13
1.53986e-13
7.04913e-14
2.8099e-14
9.58861e-15
2.86986e-15
7.75961e-16
1.92118e-16
4.39727e-17
9.3488e-18
1.85193e-18
3.434e-19
6.31699e-20
3.26343e-20
1.3843e-19
7.82027e-19
1.67983e-13
4.37698e-13
4.59427e-13
3.69786e-13
2.60813e-13
1.68613e-13
1.00836e-13
5.48313e-14
2.64219e-14
1.10579e-14
3.93931e-15
1.17451e-15
3.03941e-16
6.98173e-17
1.44812e-17
2.73676e-18
4.7307e-19
7.50425e-20
1.10444e-20
2.09674e-21
4.70244e-21
3.10075e-20
2.0096e-19
1.62059e-14
5.4877e-14
6.65989e-14
6.04494e-14
4.4899e-14
2.90874e-14
1.68845e-14
8.73537e-15
3.94435e-15
1.51886e-15
4.85766e-16
1.27118e-16
2.81503e-17
5.3923e-18
9.11236e-19
1.36649e-19
1.82304e-20
2.17558e-21
2.38455e-22
6.89235e-23
4.29906e-22
3.62161e-21
2.85502e-20
1.00161e-15
5.12528e-15
7.68482e-15
7.9509e-15
6.44299e-15
4.25453e-15
2.4331e-15
1.21861e-15
5.24399e-16
1.89074e-16
5.5414e-17
1.29059e-17
2.44121e-18
3.82017e-19
5.02523e-20
5.53845e-21
5.13433e-22
4.06063e-23
2.83804e-24
9.02565e-25
1.02591e-23
1.28327e-22
1.46658e-21
4.18274e-17
3.9113e-16
7.45015e-16
8.62298e-16
7.58294e-16
5.21704e-16
3.01585e-16
1.506e-16
6.35177e-17
2.21167e-17
6.1829e-18
1.33635e-18
2.22167e-19
2.79656e-20
2.54446e-21
1.62755e-22
7.43368e-24
2.55765e-25
7.0563e-27
2.11702e-28
1.78458e-27
6.04568e-26
1.90059e-24
1
1
1
1
0.971298
0.96048
0.959562
0.962276
0.342661
0.345009
0.346355
0.345351
0.00642126
0.00316516
0.00306067
0.00349678
0.00595399
0.0026522
0.0027431
0.00304128
0.00954249
0.00257701
0.0026549
0.00312038
0.00426369
0.0022729
0.00348405
0.00490165
6.31768e-06
0.000592698
0.00159227
0.00199272
2.75988e-06
8.46514e-06
3.00813e-05
4.86823e-05
1.15596e-05
3.90539e-05
5.34623e-05
7.69879e-05
3.37397e-06
3.95933e-05
6.98717e-05
7.46533e-05
1.72221e-07
2.47625e-05
5.20699e-05
2.29189e-05
7.15062e-08
1.49928e-06
1.60663e-05
2.5092e-05
5.12462e-08
1.63648e-09
5.33945e-07
7.90875e-06
2.45372e-07
9.35919e-10
8.2891e-10
7.34002e-10
4.59482e-08
8.68877e-10
8.29217e-10
6.83555e-10
2.9467e-09
1.22461e-08
1.33457e-08
6.01219e-09
2.63663e-09
2.10404e-09
6.16124e-10
4.52219e-11
9.82068e-09
1.24843e-08
3.84425e-09
4.53751e-11
5.78177e-11
5.76504e-11
5.19005e-11
9.71438e-11
8.00042e-11
6.19203e-11
4.79394e-11
3.47677e-11
3.85449e-11
3.68788e-11
3.30925e-11
2.80047e-11
1.62007e-11
1.39907e-11
1.20771e-11
1.03683e-11
1.01549e-11
8.1993e-12
6.64857e-12
5.40769e-12
6.88108e-12
5.29647e-12
4.08392e-12
3.15764e-12
4.50568e-12
3.35155e-12
2.49246e-12
1.85592e-12
2.6018e-12
1.87416e-12
1.34819e-12
9.70084e-13
1.24293e-12
8.63769e-13
5.98913e-13
4.15025e-13
4.70434e-13
3.13196e-13
2.07815e-13
1.37676e-13
1.37133e-13
8.66179e-14
5.44541e-14
3.41436e-14
3.02242e-14
1.79178e-14
1.05608e-14
6.21169e-15
4.97727e-15
2.74854e-15
1.51805e-15
8.54607e-16
6.14091e-16
3.24502e-16
1.85156e-16
1.27875e-16
6.51149e-17
4.38687e-17
4.1851e-17
5.30042e-17
1.30122e-17
1.67282e-17
2.46877e-17
3.79859e-17
6.45356e-18
1.00723e-17
1.58706e-17
2.51422e-17
3.27905e-18
5.24779e-18
8.4193e-18
1.37594e-17
1.27254e-18
2.06858e-18
3.43504e-18
6.10889e-18
3.32138e-19
5.61096e-19
1.04189e-18
2.36107e-18
4.9141e-20
9.72587e-20
2.57741e-19
9.50438e-19
3.18438e-21
1.16211e-20
5.74831e-20
3.69766e-19
2.44608e-23
3.38109e-22
4.62761e-21
8.63946e-20
1
0.999995
0.999985
0.999965
0.978628
0.932826
0.955458
0.992978
0.993026
0.992949
0.992791
0.992599
0.992145
0.97684
0.979959
0.983887
0.990197
0.994319
0.994122
0.962809
0.933747
0.905146
0.882032
0.843136
0.732606
0.65076
0.682125
0.760881
0.782779
0.80037
0.83734
0.870926
0.882721
0.884133
0.856701
0.799471
0.75698
0.734859
0.336641
0.302373
0.274957
0.26466
0.328276
0.43162
0.479756
0.478671
0.441689
0.4105
0.381222
0.346261
0.315961
0.286347
0.24061
0.193762
0.17699
0.200298
0.237665
0.00387087
0.00433413
0.00475839
0.00467829
0.00436519
0.00523151
0.00410473
0.000120677
8.37349e-05
6.22188e-05
4.65415e-05
2.85133e-05
1.75198e-05
1.57045e-05
1.55517e-05
1.55513e-05
1.55513e-05
1.55513e-05
1.55511e-05
0.00362446
0.0040745
0.0044969
0.00443411
0.00426684
0.00427063
0.00518394
0.00485731
0.00364781
0.00172872
0.000817222
0.000863219
0.000542405
6.67848e-05
1.57043e-05
1.55557e-05
1.55513e-05
1.55513e-05
1.55665e-05
0.00535265
0.00535896
0.00522871
0.00439051
0.0061056
0.00632416
0.00607596
0.00475914
0.00292287
0.00163701
0.000512966
0.000396141
0.000558879
0.00035354
8.33951e-05
1.67864e-05
1.55557e-05
2.23755e-05
0.000136002
0.00487118
0.00446494
0.0032183
0.00263072
0.00221562
0.00084539
1.5322e-05
1.28672e-05
1.24878e-05
1.24685e-05
1.24681e-05
1.24685e-05
4.10551e-05
0.000272921
0.0002728
0.000102772
1.56087e-05
2.18715e-05
0.000211001
0.000764915
0.000342841
8.07088e-05
4.18392e-05
2.75066e-05
2.73974e-05
2.70985e-05
5.52602e-05
2.88702e-05
1.24746e-05
1.24685e-05
1.24682e-05
6.06623e-05
0.000126181
7.3952e-05
2.46608e-05
1.56983e-05
1.57364e-05
0.000210832
3.40507e-05
2.62073e-05
2.26894e-05
2.80494e-05
3.62781e-05
6.53851e-05
9.06522e-05
9.06522e-05
4.79406e-05
1.26329e-05
1.24746e-05
1.44076e-05
2.56724e-05
1.61215e-05
1.61215e-05
1.59282e-05
1.57593e-05
0.000100441
0.00020966
5.33614e-05
3.56833e-05
2.18201e-05
3.29607e-05
6.63655e-05
8.18777e-05
9.06522e-05
6.78797e-05
1.90673e-05
2.41092e-05
8.15627e-05
0.000128949
0.000150785
0.000146298
0.000100931
9.34138e-05
0.000157987
0.000158024
7.74973e-05
2.89687e-05
1.87323e-06
1.75709e-06
1.67692e-06
8.0318e-07
5.78944e-07
3.31185e-06
3.52463e-06
3.00541e-05
0.000145346
0.000151202
0.000151202
0.000151202
0.000150785
0.000150092
8.97859e-05
3.5307e-05
3.39482e-05
3.04066e-05
3.05712e-06
2.80488e-06
4.12342e-06
5.43473e-07
5.43473e-07
5.61214e-07
1.72541e-06
4.59707e-06
3.57255e-05
8.40004e-05
0.000140227
0.000149346
8.69477e-05
1.41526e-05
1.69886e-05
1.81632e-05
2.28645e-05
4.05089e-05
5.71234e-05
2.5092e-05
2.4026e-05
1.98277e-05
5.95448e-06
5.43474e-07
3.84313e-06
2.14261e-05
2.14814e-05
1.28394e-05
1.20682e-07
1.21299e-07
1.21219e-07
1.22493e-07
3.06411e-06
4.37617e-05
5.72923e-05
5.73052e-05
5.72923e-05
5.72014e-05
1.88162e-05
2.36736e-05
2.342e-05
2.13262e-05
3.1225e-06
5.56522e-09
1.20853e-06
3.60329e-06
3.57054e-07
1.4043e-07
1.47881e-07
1.22352e-07
1.08811e-07
1.523e-08
1.24142e-05
4.23245e-05
4.35877e-05
2.47737e-05
2.57694e-05
6.50137e-08
8.75145e-06
2.30221e-05
2.14453e-05
4.76729e-06
5.58485e-09
5.5645e-09
6.00156e-09
8.70257e-09
5.07191e-07
9.12714e-07
9.10646e-07
2.55626e-07
1.32502e-08
2.45216e-09
2.4521e-09
2.6179e-09
7.87427e-09
9.31974e-07
3.43346e-11
3.31136e-11
4.75833e-07
3.44356e-06
9.67598e-07
2.96807e-09
1.4403e-07
4.74297e-07
4.9421e-07
4.68855e-07
8.61357e-07
9.05611e-07
9.02072e-07
3.99348e-07
2.45213e-09
2.26881e-09
3.63565e-09
5.55951e-06
3.38855e-05
3.2055e-11
3.20531e-11
3.20533e-11
3.2173e-11
3.7279e-11
2.06581e-10
4.32545e-07
1.04981e-06
1.05062e-06
9.34816e-07
1.00101e-07
9.87387e-08
1.03259e-07
2.6616e-08
3.07077e-09
1.27875e-09
1.46204e-09
9.12237e-06
3.3999e-05
4.68882e-11
3.81491e-11
3.21625e-11
3.55163e-11
3.76139e-11
4.61642e-11
1.63215e-08
6.22178e-07
1.05144e-06
1.05144e-06
9.50718e-07
3.32593e-08
1.01936e-09
1.02028e-09
1.03849e-09
1.14513e-09
7.97072e-11
4.10912e-06
3.3999e-05
6.59298e-11
3.88774e-11
3.03823e-11
2.91119e-11
3.65773e-11
5.61536e-11
4.50861e-11
2.52806e-11
3.43701e-07
1.05144e-06
1.04912e-06
7.24797e-07
1.01962e-09
3.93154e-09
1.03274e-08
2.4583e-09
7.38251e-11
4.05069e-07
3.39971e-05
4.95809e-11
3.20832e-11
2.52482e-11
2.33427e-11
3.15429e-11
7.56141e-11
1.45164e-10
2.0283e-11
2.04319e-11
1.0807e-07
6.23813e-07
1.58005e-07
5.85625e-08
7.39011e-08
9.00788e-08
1.18952e-08
5.47894e-11
5.24836e-11
3.39576e-05
2.60201e-11
1.96649e-11
1.64855e-11
1.52083e-11
1.49731e-11
1.58496e-11
1.58424e-11
1.95227e-11
1.95736e-11
1.9594e-11
1.96308e-11
1.9673e-11
3.47047e-08
9.67932e-08
9.67932e-08
2.0523e-08
5.45531e-11
5.17946e-11
3.37986e-05
1.80075e-11
1.19295e-11
9.13164e-12
8.33954e-12
8.71803e-12
1.01433e-11
1.28159e-11
1.67483e-11
2.11422e-11
2.26391e-11
2.35545e-11
2.40691e-11
2.37e-11
6.22941e-08
5.99215e-08
9.64967e-09
5.42686e-11
5.11669e-11
2.54014e-05
7.27958e-12
5.12188e-12
3.92304e-12
3.57945e-12
3.97505e-12
5.15733e-12
7.33105e-12
1.06525e-11
1.46888e-11
1.87452e-11
2.15035e-11
2.34478e-11
2.36998e-11
2.3509e-11
2.35227e-11
2.36076e-11
7.1979e-11
5.1083e-11
9.24824e-07
3.52096e-12
2.2994e-12
1.58949e-12
1.31355e-12
1.45449e-12
2.09756e-12
3.43524e-12
5.65449e-12
8.7704e-12
1.22885e-11
1.5826e-11
1.90549e-11
2.21237e-11
2.35089e-11
2.79469e-11
3.58018e-11
5.2433e-11
5.10828e-11
5.10835e-11
1.88682e-12
1.13026e-12
6.93656e-13
4.83127e-13
4.73774e-13
7.18183e-13
1.35569e-12
2.56794e-12
4.47011e-12
7.03977e-12
1.0177e-11
1.38374e-11
1.81352e-11
2.34859e-11
3.31721e-11
5.22515e-11
6.25958e-11
5.28212e-11
5.35125e-11
1.03554e-12
5.78113e-13
3.24424e-13
1.94703e-13
1.58512e-13
2.32203e-13
4.88251e-13
1.0511e-12
2.06335e-12
3.65816e-12
5.98113e-12
9.23414e-12
1.38013e-11
2.04676e-11
3.26877e-11
5.52221e-11
6.82562e-11
5.32307e-11
5.43329e-11
5.09092e-13
2.67308e-13
1.40737e-13
7.8088e-14
5.80554e-14
8.41559e-14
1.90647e-13
4.50752e-13
9.78128e-13
1.93094e-12
3.53488e-12
6.13066e-12
1.02998e-11
1.70372e-11
3.01314e-11
5.38327e-11
7.04622e-11
5.37184e-11
4.05387e-11
2.04095e-13
1.00674e-13
5.05346e-14
2.85424e-14
2.5384e-14
4.42231e-14
1.04533e-13
2.51204e-13
5.66644e-13
1.18905e-12
2.34337e-12
4.40059e-12
8.00076e-12
1.42612e-11
2.74278e-11
5.52142e-11
6.01499e-11
5.52846e-11
4.37818e-06
6.28578e-14
2.91294e-14
1.48482e-14
1.143e-14
1.77228e-14
3.9245e-14
9.13986e-14
2.07134e-13
4.50077e-13
9.36342e-13
1.87087e-12
3.61236e-12
6.79857e-12
1.26026e-11
2.58454e-11
5.6288e-11
5.63468e-11
2.62403e-09
1.37753e-05
1.43717e-14
6.63249e-15
4.98621e-15
8.68414e-15
2.09488e-14
4.97946e-14
1.10898e-13
2.33766e-13
4.73478e-13
9.31937e-13
1.79557e-12
3.40633e-12
6.39775e-12
1.1982e-11
2.57394e-11
5.8923e-11
5.66856e-11
9.29975e-08
1.37753e-05
2.53449e-15
1.86292e-15
4.05081e-15
1.1867e-14
3.18079e-14
7.54843e-14
1.61745e-13
3.21106e-13
6.05632e-13
1.10896e-12
2.0047e-12
3.62449e-12
6.6058e-12
1.2221e-11
2.71806e-11
6.31267e-11
5.71822e-11
5.23912e-07
1.37692e-05
5.54364e-16
1.5184e-15
5.84337e-15
1.92384e-14
5.3096e-14
1.25999e-13
2.64101e-13
5.02268e-13
8.91117e-13
1.51667e-12
2.54255e-12
4.29975e-12
7.44312e-12
1.33403e-11
3.06622e-11
6.96296e-11
5.76779e-11
8.69611e-07
1.37558e-05
3.77894e-16
2.07682e-15
9.19757e-15
3.20178e-14
9.12542e-14
2.19957e-13
4.59905e-13
8.54693e-13
1.45038e-12
2.31717e-12
3.6046e-12
5.65261e-12
9.14619e-12
1.5599e-11
3.69609e-11
8.08748e-11
5.82745e-11
1.81103e-07
1.37392e-05
4.31424e-16
2.92238e-15
1.40589e-14
5.18181e-14
1.54827e-13
3.86507e-13
8.2269e-13
1.52393e-12
2.51934e-12
3.83619e-12
5.59213e-12
8.14749e-12
1.22437e-11
1.95603e-11
4.43843e-11
9.8723e-11
6.17492e-11
6.39924e-11
8.68364e-06
4.97518e-16
3.84766e-15
1.9965e-14
7.90059e-14
2.53097e-13
6.68986e-13
1.4779e-12
2.77617e-12
4.54377e-12
6.6951e-12
9.26967e-12
1.26959e-11
1.77541e-11
2.63721e-11
4.21795e-11
1.40877e-10
1.22073e-10
6.11041e-10
4.34955e-08
5.31025e-16
4.54165e-15
2.56117e-14
1.11572e-13
3.94582e-13
1.12886e-12
2.63038e-12
5.07877e-12
8.34009e-12
1.20583e-11
1.61063e-11
2.10777e-11
2.78685e-11
3.89608e-11
7.68017e-11
9.99115e-11
3.13697e-10
1.1315e-07
3.48881e-08
4.98241e-16
4.64349e-15
2.91546e-14
1.44664e-13
5.82998e-13
1.83466e-12
4.55486e-12
9.12357e-12
1.5201e-11
2.18594e-11
2.86437e-11
3.65899e-11
4.72264e-11
6.45829e-11
1.12929e-10
2.69391e-10
2.69472e-10
6.10985e-08
1.64602e-08
3.88172e-16
3.99982e-15
2.91135e-14
1.70471e-13
8.04619e-13
2.79948e-12
7.43558e-12
1.55421e-11
2.65371e-11
3.84635e-11
5.02125e-11
6.39705e-11
8.38728e-11
1.19275e-10
2.18029e-10
5.36655e-10
7.54173e-10
9.88593e-10
1.68148e-09
2.36581e-16
2.84476e-15
2.52415e-14
1.7872e-13
1.00626e-12
3.84653e-12
1.09594e-11
2.40419e-11
4.25787e-11
6.31921e-11
8.34536e-11
1.07361e-10
1.45706e-10
2.26321e-10
4.50471e-10
7.74208e-10
7.59428e-10
5.60062e-10
1.14285e-09
1.06106e-16
1.63821e-15
1.85033e-14
1.58738e-13
1.07711e-12
4.46622e-12
1.37599e-11
3.19363e-11
5.97606e-11
9.3118e-11
1.27041e-10
1.66898e-10
2.24697e-10
3.57591e-10
5.74512e-10
6.33334e-10
5.58621e-10
5.58559e-10
6.45997e-10
3.19752e-17
7.10702e-16
1.03187e-14
1.05446e-13
8.76836e-13
3.90099e-12
1.3223e-11
3.27286e-11
6.62751e-11
1.1259e-10
1.63415e-10
2.26865e-10
2.88696e-10
3.5235e-10
1.0517e-09
6.36539e-10
3.2342e-08
5.5924e-10
6.16238e-10
5.10746e-18
1.77561e-16
3.24729e-15
3.82033e-14
4.05432e-13
1.92455e-12
7.33484e-12
1.93693e-11
4.32634e-11
8.36645e-11
1.33212e-10
2.03405e-10
2.81415e-10
3.25958e-10
3.26113e-10
4.12393e-08
1.5483e-07
1.54658e-07
3.76101e-08
)
;

boundaryField
{
    leftWall
    {
        type            zeroGradient;
    }
    rightWall
    {
        type            zeroGradient;
    }
    lowerWall
    {
        type            zeroGradient;
    }
    atmosphere
    {
        type            inletOutlet;
        inletValue      uniform 0;
        value           nonuniform List<scalar> 
46
(
0
0
0
0
0
5.21704e-16
3.01585e-16
1.506e-16
6.35177e-17
2.21167e-17
6.1829e-18
1.33635e-18
2.22167e-19
0
0
0
0
0
0
0
0
0
0
0
0
0
0
0
0
0
0
0
0
0
0
0
0
1.33212e-10
2.03405e-10
2.81415e-10
3.25958e-10
3.26113e-10
4.12393e-08
1.5483e-07
1.54658e-07
3.76101e-08
)
;
    }
    defaultFaces
    {
        type            empty;
    }
}


// ************************************************************************* //
