/*--------------------------------*- C++ -*----------------------------------*\
| =========                 |                                                 |
| \\      /  F ield         | OpenFOAM: The Open Source CFD Toolbox           |
|  \\    /   O peration     | Version:  2.3.0                                 |
|   \\  /    A nd           | Web:      www.OpenFOAM.org                      |
|    \\/     M anipulation  |                                                 |
\*---------------------------------------------------------------------------*/
FoamFile
{
    version     2.0;
    format      ascii;
    class       volScalarField;
    location    "3";
    object      k;
}
// * * * * * * * * * * * * * * * * * * * * * * * * * * * * * * * * * * * * * //

dimensions      [0 2 -2 0 0 0 0];

internalField   nonuniform List<scalar> 
2268
(
0.00117604
0.00324619
0.00490303
0.00618811
0.00721724
0.00805271
0.00873503
0.00929431
0.00975364
0.0101293
0.0104308
0.010664
0.0108303
0.0109177
0.0109158
0.0107989
0.0104632
0.0099096
0.00914806
0.00812805
0.00668632
0.00467712
0.00202628
0.00272249
0.00747393
0.0108431
0.0134927
0.0156366
0.0173912
0.0188334
0.0200212
0.0209997
0.0218014
0.0224451
0.022937
0.0232759
0.023448
0.0234271
0.0231507
0.0224712
0.0213509
0.0198094
0.0177223
0.0147481
0.0105464
0.0044862
0.004066
0.010207
0.0143609
0.0176135
0.0202508
0.0224115
0.0241871
0.025648
0.0268487
0.0278291
0.0286128
0.0292092
0.0296145
0.0298111
0.0297653
0.0294083
0.0286132
0.0273208
0.0254923
0.0229537
0.0193495
0.0141997
0.00602354
0.00529327
0.0126187
0.0173169
0.0209504
0.0238865
0.0262852
0.0282506
0.0298624
0.0311828
0.0322568
0.0331119
0.0337602
0.0341962
0.0343995
0.0343331
0.0339275
0.0330726
0.0316935
0.0297156
0.0269429
0.0229929
0.0172181
0.00727532
0.00644566
0.0149334
0.0201127
0.024044
0.0271909
0.0297429
0.0318205
0.0335151
0.0348971
0.0360167
0.0369051
0.0375775
0.0380256
0.0382275
0.0381444
0.0377086
0.0368204
0.0353962
0.0333414
0.0304512
0.0263164
0.0200892
0.00840548
0.00756819
0.0172275
0.0228793
0.027074
0.0303818
0.0330315
0.0351666
0.0368944
0.0382953
0.0394258
0.0403214
0.0409997
0.0414495
0.0416463
0.0415504
0.041097
0.0401942
0.0387547
0.0366751
0.0337541
0.0295737
0.0230972
0.00962971
0.00870712
0.0195508
0.0256836
0.0301257
0.0335592
0.036262
0.0384086
0.0401272
0.041511
0.0426241
0.0435064
0.0441786
0.0446241
0.0448148
0.0447102
0.0442494
0.0433475
0.0419171
0.0398548
0.0369771
0.032895
0.0264868
0.01153
0.00992116
0.021949
0.028572
0.0332499
0.0367774
0.0394912
0.0416055
0.0432751
0.0446091
0.0456799
0.0465321
0.0471902
0.0476286
0.0478136
0.0477042
0.0472448
0.0463582
0.0449587
0.0429486
0.0401765
0.0363327
0.0304654
0.0164251
0.00242767
0.00587744
0.00784028
0.00868929
0.00891807
0.0087286
0.00842259
0.00790797
0.00685116
0.00606578
0.00614118
0.00570123
0.00515706
0.00506061
0.00523167
0.00533117
0.00489469
0.00374409
0.00207772
0.00463481
0.0125155
0.016551
0.0184995
0.019191
0.0190985
0.0185613
0.017482
0.015443
0.0139288
0.0137367
0.0128254
0.0116342
0.0110851
0.0111077
0.0108715
0.00979276
0.0075373
0.00376344
0.00585073
0.0161668
0.0210685
0.023433
0.0243203
0.0242872
0.0236518
0.0223849
0.0204387
0.0188647
0.0181917
0.0171102
0.0158351
0.0150306
0.0146604
0.0140821
0.0126973
0.00989006
0.00497235
0.00718174
0.0192158
0.0245965
0.0271127
0.0280595
0.0280436
0.0273772
0.0260766
0.0242821
0.0227496
0.0217652
0.0205661
0.0192348
0.0182032
0.0175146
0.0166924
0.015114
0.0119749
0.00602716
0.00879916
0.0222434
0.0278161
0.0303186
0.0312415
0.0312092
0.0305414
0.0292798
0.0276363
0.0261631
0.0249965
0.0237135
0.0223333
0.0211113
0.0201309
0.0190712
0.0173091
0.0139347
0.00699609
0.010748
0.0254664
0.0309303
0.0332985
0.0341402
0.0340726
0.0334226
0.0322401
0.0307472
0.0293376
0.0280658
0.0267234
0.0253034
0.0239234
0.0226531
0.0213167
0.0193336
0.0157641
0.00793568
0.0135945
0.0289703
0.0340009
0.0361501
0.0368703
0.0367664
0.036151
0.0350753
0.0337388
0.0323912
0.0310475
0.0296531
0.0282021
0.026685
0.0251286
0.0234623
0.0212062
0.0174271
0.00892805
0.0194906
0.032666
0.0370186
0.0389056
0.0394985
0.0393671
0.038808
0.0378635
0.0366822
0.0353844
0.0339763
0.0325207
0.0310271
0.0293742
0.0275396
0.0255232
0.0229635
0.0189429
0.00986259
0.0114575
0.0254679
0.0329884
0.0380889
0.0417648
0.0444682
0.0464947
0.048053
0.0492828
0.0502712
0.0510703
0.0517007
0.0521263
0.0523024
0.0521888
0.0517434
0.0509031
0.0495846
0.0477011
0.0451659
0.0418424
0.037347
0.0302613
0.0139026
0.0307475
0.0396089
0.0452474
0.0489666
0.0514482
0.0531589
0.0544108
0.0553876
0.0561864
0.056859
0.0574089
0.0577914
0.0579266
0.0577824
0.0573647
0.0566393
0.0555036
0.0538506
0.0516777
0.0490739
0.0460654
0.0426963
0.0166518
0.0364503
0.0470252
0.05316
0.0566784
0.0586474
0.0598184
0.0606329
0.0612911
0.0618607
0.0623699
0.0628247
0.0631859
0.0632609
0.0630331
0.0626486
0.0621374
0.0613066
0.0599041
0.0579835
0.0559215
0.0538417
0.0519021
0.0201866
0.042447
0.0553385
0.06181
0.0647425
0.0657931
0.0662059
0.0665471
0.0669278
0.0673032
0.0676329
0.0679531
0.0684012
0.0684046
0.0679317
0.06754
0.0674132
0.0671206
0.065926
0.0639028
0.0622123
0.060675
0.0593369
0.0253007
0.0492897
0.0643912
0.0703097
0.0722687
0.0720972
0.071695
0.0716942
0.0720281
0.0724542
0.0726442
0.0726524
0.072823
0.0727463
0.072149
0.0716892
0.0717354
0.0720334
0.0708197
0.0689809
0.0676814
0.0662901
0.0650076
0.031007
0.0600465
0.0728224
0.0768223
0.077641
0.076813
0.07593
0.0757614
0.076144
0.0766791
0.0769351
0.0768068
0.0768026
0.0765192
0.0758127
0.0751293
0.0748388
0.0746165
0.0738349
0.0728042
0.0716397
0.0703565
0.0686742
0.0366929
0.0661445
0.0783231
0.0811422
0.0809488
0.0799423
0.0790007
0.078958
0.0794607
0.0797775
0.0794595
0.0793338
0.0793793
0.0788241
0.0780561
0.0774145
0.07728
0.0772576
0.0770399
0.0763923
0.0752807
0.0742854
0.071966
0.0413765
0.071926
0.0835488
0.0843313
0.0826002
0.0815077
0.0808938
0.0808909
0.0809479
0.080805
0.080446
0.0802876
0.0801593
0.079713
0.0791311
0.0786302
0.0786936
0.0793858
0.0799938
0.0793826
0.0774769
0.0752159
0.0729016
0.0447559
0.0744563
0.083868
0.0843193
0.0826862
0.0815747
0.0811356
0.0809134
0.0806837
0.0806502
0.0805434
0.08005
0.0796227
0.0794023
0.0790942
0.0787719
0.0787839
0.079573
0.0801488
0.079169
0.0768194
0.0745422
0.0725279
0.0449812
0.0740348
0.0814923
0.0826638
0.0818353
0.0805889
0.0799363
0.0797271
0.0796665
0.0796778
0.0794094
0.0787449
0.0781009
0.0778275
0.0776695
0.0775452
0.0775264
0.077859
0.077885
0.0768167
0.0750429
0.0733152
0.0716371
0.0434275
0.0740338
0.0804969
0.0818779
0.0808634
0.078933
0.0780207
0.0777651
0.0776428
0.0774194
0.0770074
0.0764306
0.0758731
0.0755837
0.0754706
0.0753995
0.0753545
0.0753605
0.075092
0.0742218
0.0729426
0.0715679
0.0700856
0.0415725
0.0758665
0.0813664
0.0810267
0.0788101
0.0767631
0.0757448
0.0753056
0.0750198
0.0746902
0.0743002
0.0738762
0.0735149
0.0733384
0.0732826
0.0732239
0.0731117
0.0729158
0.0725016
0.0717547
0.0707421
0.0695516
0.0681799
0.0402081
0.0760358
0.0801499
0.0782813
0.0758923
0.0741931
0.0732312
0.0726994
0.072328
0.0720033
0.0717136
0.0714728
0.0713393
0.0713262
0.0713381
0.0712689
0.0710764
0.0707418
0.0702282
0.0695068
0.0685944
0.0674966
0.0662041
0.0382541
0.0714921
0.0754027
0.0740864
0.0724005
0.0712294
0.0705288
0.0700993
0.0697949
0.069567
0.0694121
0.0693439
0.0693892
0.0694985
0.069555
0.0694699
0.0692234
0.0688079
0.0682291
0.0674921
0.0666028
0.0655537
0.0643387
0.035181
0.0647049
0.0693395
0.0690534
0.0683496
0.0678449
0.0675633
0.0673995
0.0672924
0.067236
0.0672426
0.0673303
0.0674995
0.0676814
0.0677682
0.0676869
0.0674223
0.0669847
0.066388
0.0656494
0.0647775
0.0637729
0.0626444
0.0311642
0.0568713
0.0627369
0.0635968
0.063791
0.0640063
0.0642286
0.0644316
0.0646071
0.0647775
0.0649707
0.0652067
0.0654757
0.0657154
0.0658402
0.0657925
0.0655578
0.0651472
0.0645829
0.063883
0.0630604
0.0621265
0.0611027
0.0270109
0.0478548
0.0556811
0.0578331
0.0588995
0.0597657
0.0605084
0.0611164
0.0616154
0.0620449
0.0624427
0.0628313
0.063203
0.0635122
0.0636979
0.0637168
0.0635556
0.0632225
0.0627365
0.0621181
0.061386
0.0605597
0.0596673
0.0229643
0.0394231
0.0483061
0.0518997
0.0538226
0.0552674
0.0564987
0.0575028
0.0583284
0.0590243
0.0596335
0.0601822
0.0606702
0.06107
0.0613423
0.0614571
0.061403
0.0611853
0.0608191
0.0603241
0.0597213
0.0590343
0.0582924
0.0190834
0.0326331
0.0415123
0.0461185
0.0487967
0.0507546
0.0523749
0.0537391
0.0548651
0.0558117
0.0566249
0.0573347
0.0579495
0.0584572
0.0588358
0.0590664
0.0591408
0.0590621
0.0588422
0.0584983
0.0580509
0.0575239
0.056945
0.0155825
0.0276568
0.0360014
0.0410627
0.0442233
0.0465246
0.0484096
0.0500232
0.0514008
0.0525637
0.0535583
0.0544188
0.0551606
0.0557832
0.0562769
0.0566319
0.0568433
0.0569132
0.0568508
0.0566701
0.0563896
0.0560309
0.0556178
0.0127496
0.0242491
0.0319398
0.0369984
0.0403487
0.0428251
0.0448547
0.0466005
0.0481247
0.0494458
0.0505856
0.0515759
0.0524347
0.0531676
0.0537742
0.0542514
0.054597
0.054813
0.0549062
0.0548876
0.0547723
0.0545784
0.0543253
0.010736
0.0219482
0.029026
0.0338499
0.0371914
0.039718
0.0418045
0.0436109
0.045201
0.0466081
0.0478475
0.0489343
0.0498872
0.0507163
0.0514252
0.0520143
0.0524835
0.0528344
0.053072
0.0532043
0.053243
0.0532019
0.0530961
0.00942073
0.0202631
0.0268123
0.0313544
0.0346125
0.0371354
0.0392397
0.041071
0.0426921
0.0441366
0.0454288
0.0465823
0.0476067
0.0485133
0.0493081
0.0499935
0.0505702
0.0510396
0.0514048
0.0516711
0.0518467
0.0519415
0.0519662
0.0085503
0.0188668
0.0249774
0.0292765
0.0324521
0.0349673
0.0370869
0.0389372
0.0405786
0.0420466
0.0433671
0.0445606
0.0456381
0.0466061
0.0474716
0.0482377
0.0489056
0.0494761
0.0499504
0.0503318
0.0506251
0.0508366
0.0509732
0.00792306
0.0176409
0.023388
0.0274941
0.0306075
0.033127
0.035273
0.0371507
0.038816
0.040307
0.0416528
0.0428762
0.0439938
0.0450125
0.0459377
0.0467725
0.047518
0.0481741
0.048741
0.0492196
0.0496121
0.0499219
0.0501527
0.00743307
0.0165805
0.0220227
0.025971
0.029036
0.031568
0.0337492
0.0356625
0.037359
0.0388787
0.0402539
0.0415098
0.0426645
0.0437298
0.0447091
0.0456056
0.0464195
0.0471503
0.0477966
0.0483578
0.048834
0.0492262
0.0495357
0.00703909
0.0157059
0.0208878
0.0247001
0.0277251
0.0302711
0.0324883
0.0344394
0.0361713
0.0377258
0.0391375
0.040433
0.0416311
0.0427443
0.0437781
0.0447343
0.0456128
0.0464117
0.047129
0.0477625
0.0483107
0.0487729
0.0491485
0.00673256
0.0150361
0.0199753
0.0236668
0.0266641
0.0292245
0.0314718
0.0334564
0.0352248
0.0368196
0.038276
0.0396202
0.0408708
0.0420396
0.0431331
0.0441523
0.0450961
0.0459618
0.0467461
0.0474458
0.0480583
0.0485816
0.0490139
0.00650448
0.0145348
0.0192609
0.0228516
0.0258297
0.0284059
0.0306757
0.0326892
0.0344954
0.036137
0.0376475
0.0390516
0.0403663
0.0416021
0.0427647
0.0438543
0.0448686
0.0458038
0.0466555
0.0474195
0.0480923
0.0486709
0.0491533
0.00631846
0.0141092
0.0187038
0.0222296
0.0251948
0.0277823
0.0300696
0.0321127
0.0339627
0.0356604
0.0372367
0.0387138
0.0401065
0.0414234
0.0426682
0.0438398
0.044934
0.0459455
0.0468686
0.0476981
0.0484301
0.0490612
0.0495891
0.00616053
0.0137568
0.01829
0.0217807
0.024734
0.0273241
0.0296293
0.031709
0.0336128
0.0353786
0.0370345
0.0385999
0.0400872
0.0415025
0.0428468
0.044116
0.0453034
0.0464014
0.0474031
0.0483022
0.0490944
0.0497766
0.0503471
0.00605664
0.0135562
0.0180331
0.0214909
0.0244279
0.0270182
0.0293462
0.0314712
0.0334396
0.0352865
0.0370374
0.0387093
0.0403118
0.0418475
0.0433133
0.0447004
0.0459984
0.0471969
0.0482867
0.0492611
0.0501157
0.0508484
0.0514589
0.00600894
0.0134905
0.0179206
0.0213468
0.024269
0.026864
0.0292206
0.0313982
0.033441
0.0353823
0.0372459
0.0390467
0.0407909
0.0424762
0.0440923
0.045624
0.0470551
0.048371
0.0495604
0.050616
0.0515348
0.0523166
0.0529634
0.00600736
0.01352
0.0179319
0.0213413
0.0242571
0.0268627
0.0292524
0.0314878
0.033614
0.0356644
0.0376627
0.0396219
0.0415439
0.0434186
0.0452244
0.046936
0.0485283
0.0499811
0.0512814
0.0524229
0.0534052
0.0542321
0.0549092
0.00604631
0.0136365
0.0180668
0.0214813
0.0244
0.0270178
0.0294398
0.0317347
0.0339521
0.036129
0.0382909
0.04045
0.0426019
0.0447228
0.0467737
0.0487114
0.0504983
0.0521082
0.0535278
0.0547548
0.0557947
0.0566575
0.0573548
0.00612388
0.0138616
0.018374
0.0218235
0.024742
0.0273532
0.0297887
0.0321334
0.0344459
0.0367695
0.0391344
0.0415533
0.044013
0.0464653
0.0488393
0.0510628
0.053081
0.0548634
0.0564019
0.057704
0.0587859
0.0596675
0.0603685
0.00625413
0.0143356
0.019093
0.0226072
0.0254573
0.0279654
0.0303374
0.0326882
0.0350848
0.0375752
0.0401966
0.0429651
0.045853
0.0487694
0.0515781
0.0541589
0.0564392
0.0583938
0.060032
0.061381
0.0624749
0.0633474
0.0640281
0.00657241
0.0157522
0.0211468
0.0246462
0.0270945
0.0291428
0.0312027
0.0334274
0.0358595
0.0385298
0.0414787
0.0447325
0.0482455
0.0518427
0.0552416
0.0582503
0.0607951
0.062885
0.0645694
0.0659105
0.0669672
0.0677899
0.0684186
0.0078808
0.0206728
0.0272338
0.0301086
0.0310717
0.0315858
0.0326472
0.0344147
0.0367579
0.0396012
0.0429677
0.0469127
0.0513869
0.0560487
0.0602388
0.0636988
0.0664339
0.0685512
0.0701765
0.0714204
0.0723702
0.073091
0.0736301
0.0135432
0.0341174
0.0415605
0.0425163
0.0400932
0.0366668
0.0351123
0.0357289
0.0377432
0.0407191
0.0446032
0.0495349
0.0555533
0.0620494
0.0672215
0.0709871
0.0736759
0.0756032
0.0770005
0.0780257
0.0787841
0.0793458
0.0797573
0.0311652
0.0589436
0.0645823
0.0631006
0.0570801
0.0466025
0.0390561
0.0373486
0.0387029
0.0417341
0.0461971
0.0524406
0.0609432
0.0711149
0.07714
0.0806337
0.0827809
0.0841809
0.0851364
0.0858102
0.0862953
0.0866475
0.086901
0.0856238
0.0916495
0.0903479
0.0881134
0.0831182
0.0667858
0.0441866
0.0388476
0.0393778
0.0423868
0.0473133
0.0548568
0.0667442
0.0859768
0.0910451
0.0928801
0.093758
0.0942664
0.0945947
0.0948199
0.0949793
0.0950936
0.0951748
0.0223704
0.0188684
0.0187622
0.0225018
0.0405449
0.039596
0.0394849
0.0402815
0.0508701
0.0503606
0.050054
0.0499756
0.0586927
0.0584046
0.058
0.0574302
0.0643666
0.0637742
0.0630122
0.0621668
0.0674813
0.0667336
0.0660829
0.0654183
0.0701769
0.0693798
0.0688103
0.0680289
0.0711505
0.0703782
0.0697062
0.0688871
0.0710952
0.0702752
0.0694353
0.0685578
0.0703177
0.0694402
0.0685323
0.0676414
0.0688299
0.0679757
0.0670978
0.066247
0.0669925
0.0661937
0.0653824
0.0645946
0.0650951
0.0643611
0.0636231
0.0629012
0.0633208
0.0626546
0.0619866
0.0613263
0.0617254
0.0611284
0.0605292
0.0599317
0.0602896
0.0597646
0.0592378
0.0587084
0.0589703
0.0585208
0.0580682
0.0576099
0.0577164
0.057344
0.0569671
0.0565817
0.056492
0.0561971
0.0558954
0.0555828
0.0552853
0.0550652
0.054836
0.0545935
0.0541058
0.0539556
0.0537938
0.0536165
0.0529789
0.0528917
0.0527904
0.0526717
0.0519386
0.0519067
0.0518586
0.0517915
0.0510223
0.0510381
0.0510359
0.0510134
0.0502663
0.0503225
0.0503592
0.0503748
0.0497031
0.049793
0.0498625
0.04991
0.0493607
0.049479
0.0495757
0.04965
0.049264
0.0494061
0.0495257
0.0496222
0.0494361
0.0495985
0.0497374
0.0498525
0.0499007
0.0500806
0.050236
0.0503667
0.0506844
0.0508795
0.0510488
0.0511925
0.0518188
0.0520269
0.0522079
0.052362
0.0533425
0.0535612
0.0537511
0.0539129
0.0553026
0.0555283
0.0557238
0.0558899
0.057755
0.0579831
0.0581796
0.058346
0.060765
0.0609891
0.0611809
0.0613422
0.0644066
0.0646185
0.0647983
0.0649484
0.0687616
0.0689515
0.0691112
0.0692431
0.0739185
0.0740761
0.0742073
0.0743145
0.0799731
0.0800894
0.0801851
0.0802622
0.0870313
0.0871005
0.0871566
0.0872011
0.0952157
0.095237
0.0952539
0.0952671
0.0324148
0.0384741
0.0416025
0.0430876
0.0435058
0.0433683
0.0429487
0.042239
0.0412712
0.0400153
0.0385004
0.0369108
0.0352767
0.0333764
0.0311343
0.0285139
0.0254072
0.0208668
0.0107258
0.0424616
0.0452974
0.047328
0.0484071
0.0486926
0.048716
0.0486754
0.0483477
0.047575
0.0462676
0.0444854
0.0424887
0.040403
0.0380185
0.0352234
0.03203
0.0283544
0.0230333
0.0112756
0.0501919
0.051353
0.0526186
0.0533886
0.0536452
0.0540823
0.054659
0.0547773
0.0541108
0.0525662
0.050279
0.0476493
0.0449553
0.0420468
0.0387377
0.0351145
0.0310359
0.0247942
0.01111
0.056575
0.0567421
0.0574788
0.0579782
0.0582707
0.0592792
0.0607506
0.0614834
0.060941
0.0591232
0.0560174
0.0524407
0.0490654
0.0455904
0.0417661
0.037877
0.0336366
0.0267332
0.0116338
0.0608263
0.060456
0.0607296
0.0607983
0.0610224
0.0620503
0.0635299
0.0641177
0.0631912
0.0610047
0.0579104
0.0541415
0.0504091
0.0468613
0.0435249
0.0400879
0.0352673
0.0272187
0.0118428
0.0639991
0.0629606
0.0626839
0.0626329
0.0626606
0.0627254
0.0627263
0.062143
0.0607708
0.0588839
0.0567916
0.0541082
0.0505566
0.0467487
0.0432273
0.0395562
0.0344777
0.0265061
0.0117009
0.0663934
0.0648989
0.0643249
0.0642898
0.0641478
0.0636155
0.0627704
0.0612674
0.0592359
0.0570782
0.0550391
0.0526433
0.0492451
0.0452728
0.0415469
0.037788
0.0329688
0.0259719
0.0117006
0.0674196
0.0660056
0.0654807
0.0655088
0.0651176
0.0640679
0.0625093
0.0602438
0.0575933
0.0550236
0.0527537
0.0502559
0.0469364
0.0431262
0.0394299
0.0356648
0.0311984
0.0250732
0.012132
0.0672225
0.0659729
0.0653806
0.0650558
0.0642356
0.0627372
0.060711
0.0581697
0.0553416
0.0526173
0.050145
0.0474713
0.0441944
0.0405581
0.0369711
0.0334142
0.0294154
0.0237178
0.0118311
0.0663189
0.0650203
0.0641508
0.0633405
0.0621298
0.0603941
0.058202
0.0556258
0.0528499
0.0501251
0.0474997
0.044671
0.0414308
0.0379235
0.0343923
0.0309534
0.0271413
0.0213762
0.00990855
0.0649759
0.0635957
0.0624522
0.0612566
0.0597574
0.0578851
0.0556604
0.053154
0.0505021
0.0478263
0.0451052
0.0421737
0.0389328
0.0354395
0.0318197
0.0282287
0.024144
0.018105
0.00744608
0.0633957
0.0619586
0.0606226
0.0591939
0.0575398
0.0556239
0.0534487
0.0510641
0.0485472
0.0459293
0.0431663
0.0401718
0.0368879
0.0333153
0.0295136
0.0256055
0.0211823
0.0151065
0.00617009
0.0617785
0.0603271
0.0588985
0.0573737
0.0556785
0.0537936
0.0517118
0.049455
0.0470524
0.0445013
0.0417581
0.038762
0.0354655
0.0318578
0.0279811
0.0238924
0.0193661
0.0137584
0.0060099
0.0602794
0.0588563
0.0574172
0.0558913
0.0542315
0.0524178
0.0504403
0.0483013
0.0460035
0.0435349
0.0408642
0.0379488
0.0347512
0.0312576
0.0274862
0.0234594
0.019065
0.0138341
0.0065051
0.0589688
0.0576157
0.0562239
0.0547523
0.0531662
0.0514434
0.0495731
0.0475485
0.0453611
0.042998
0.04044
0.0376599
0.0346314
0.0313396
0.0277849
0.0239598
0.0197585
0.0146977
0.0071981
0.057842
0.0565902
0.0552839
0.0538989
0.0524072
0.0507867
0.0490265
0.047117
0.0450468
0.0428047
0.0403785
0.0377514
0.0349053
0.031826
0.0285032
0.0249068
0.0208984
0.0159024
0.00789686
0.0568479
0.0557198
0.0545238
0.0532445
0.0518592
0.0503482
0.0487003
0.0469058
0.0449541
0.0428355
0.0405416
0.0380613
0.0353817
0.0324906
0.0293713
0.0259771
0.0221429
0.0172333
0.00856548
0.0559298
0.0549385
0.0538661
0.0527024
0.05143
0.0500318
0.0484969
0.0468157
0.044979
0.0429786
0.0408079
0.0384589
0.0359224
0.0331874
0.0302328
0.0270007
0.0233103
0.0185022
0.00918542
0.0550426
0.0541934
0.0532501
0.0522064
0.0510489
0.0497637
0.0483401
0.0467689
0.0450419
0.0431521
0.0410938
0.0388612
0.0364473
0.033841
0.0310161
0.0279057
0.024317
0.0195902
0.00976311
0.0541626
0.0534544
0.0526406
0.0517168
0.0506733
0.0494988
0.0481833
0.0467181
0.0450955
0.0433093
0.0413547
0.0392273
0.0369209
0.0344232
0.0316998
0.0286759
0.0251462
0.0204145
0.0103385
0.0532889
0.0527158
0.0520272
0.0512201
0.0502874
0.0492197
0.0480081
0.0466444
0.0451216
0.0434339
0.0415764
0.0395458
0.0373363
0.0349338
0.0323019
0.0293518
0.0258525
0.021057
0.0107983
0.0524387
0.0519912
0.0514203
0.050724
0.0498966
0.0489306
0.047818
0.0465513
0.0451239
0.0435307
0.0417674
0.0398303
0.0377126
0.0353974
0.0328431
0.0299491
0.0264593
0.0215694
0.0111405
0.0516427
0.0513086
0.0508457
0.0502519
0.049523
0.0486525
0.0476334
0.0464588
0.0451227
0.04362
0.0419468
0.0400982
0.0380656
0.0358287
0.0333394
0.0304854
0.0269872
0.021982
0.0113398
0.0509381
0.0507036
0.0503371
0.0498363
0.0491974
0.0484149
0.0474826
0.0463941
0.0451437
0.0437263
0.0421372
0.0403705
0.0384149
0.0362458
0.0338085
0.0309787
0.0274539
0.0223169
0.011397
0.0503622
0.0502136
0.0499312
0.0495126
0.0489542
0.0482511
0.0473976
0.0463876
0.0452155
0.0438759
0.0423632
0.0406694
0.0387805
0.0366673
0.0342678
0.0314464
0.0278791
0.0226041
0.0113851
0.0499505
0.0498745
0.049664
0.0493164
0.0488283
0.0481949
0.0474109
0.0464704
0.0453674
0.0440959
0.042649
0.0410167
0.0391818
0.0371104
0.0347336
0.0319052
0.0282838
0.0228727
0.0113564
0.0497347
0.0497193
0.0495691
0.0492815
0.0488531
0.0482791
0.0475544
0.0466727
0.0456278
0.0444127
0.0430188
0.0414341
0.0396378
0.0375919
0.0352212
0.0323707
0.0286861
0.0231451
0.011337
0.0497438
0.0497782
0.0496776
0.0494395
0.0490602
0.0485351
0.0478587
0.0470245
0.0460253
0.0448529
0.0434971
0.0419434
0.0401681
0.038129
0.0357461
0.0328578
0.0291017
0.023439
0.0113619
0.0500045
0.0500795
0.050019
0.0498205
0.0494803
0.0489937
0.0483545
0.0475557
0.0465888
0.0454442
0.0441098
0.0425687
0.0407945
0.0387416
0.0363264
0.0333834
0.0295467
0.0237714
0.0114812
0.0505438
0.0506514
0.0506223
0.0504544
0.050144
0.0496859
0.0490732
0.0482976
0.0473493
0.0462168
0.0448858
0.0433373
0.0415424
0.0394533
0.0369843
0.0339686
0.0300401
0.0241545
0.0116815
0.0513901
0.0515231
0.051518
0.0513728
0.0510837
0.050645
0.0500486
0.0492846
0.0483411
0.0472045
0.0458581
0.0442808
0.042442
0.0402926
0.0377466
0.034638
0.0306026
0.024594
0.0119059
0.0525756
0.0527276
0.0527395
0.05261
0.0523351
0.0519079
0.0513188
0.0505556
0.0496038
0.0484466
0.0470649
0.0454358
0.0435279
0.0412923
0.0386438
0.0354188
0.0312545
0.0250968
0.0121477
0.0541378
0.0543024
0.0543253
0.0542055
0.0539388
0.0535168
0.0529276
0.0521559
0.0511831
0.0499886
0.0485504
0.0468442
0.0448393
0.0424883
0.039708
0.0363381
0.0320172
0.0256776
0.0124209
0.0561208
0.0562915
0.0563196
0.0562048
0.055942
0.055521
0.0549266
0.0541388
0.0531333
0.0518842
0.0503654
0.0485524
0.0464153
0.0439104
0.0409612
0.0374113
0.0328985
0.0263363
0.012729
0.0585763
0.058746
0.0587742
0.0586609
0.0584
0.0579785
0.0573767
0.0565677
0.0555191
0.0541961
0.0525672
0.0506072
0.048291
0.0455857
0.0424238
0.0386538
0.0339094
0.0270748
0.0130388
0.0615642
0.0617255
0.0617493
0.0616357
0.0613771
0.0609571
0.0603499
0.0595189
0.0584183
0.0569991
0.0552204
0.0530559
0.0504971
0.0475303
0.0441021
0.0400667
0.0350502
0.0278972
0.0133504
0.0651532
0.0652984
0.0653142
0.0652007
0.0649482
0.0645367
0.063932
0.063084
0.0619262
0.0603836
0.058396
0.0559418
0.0530486
0.0497385
0.0459796
0.0416308
0.0363059
0.0288032
0.01371
0.0694214
0.0695433
0.0695492
0.0694385
0.0692001
0.0688096
0.0682239
0.0673745
0.0661621
0.0644637
0.0621763
0.0592948
0.0559288
0.0521667
0.0480033
0.0432964
0.0376385
0.029773
0.014113
0.0744575
0.0745506
0.0745467
0.0744446
0.0742322
0.0738823
0.0733435
0.0725256
0.0712797
0.0693905
0.0666498
0.0631073
0.0590617
0.0547102
0.050068
0.0449721
0.0389775
0.0307619
0.014544
0.0803635
0.0804251
0.0804141
0.0803289
0.0801581
0.0798749
0.0794248
0.0786986
0.0774802
0.075374
0.071874
0.0672707
0.0622598
0.0571737
0.0520014
0.0465167
0.0402136
0.0316951
0.0149812
0.0872584
0.0872899
0.0872773
0.087219
0.0871069
0.0869203
0.0866132
0.0860763
0.0850309
0.0827481
0.0776819
0.071399
0.0651357
0.0592413
0.0535607
0.0477432
0.0412009
0.0324656
0.0153918
0.0952837
0.0952917
0.0952856
0.0952648
0.0952264
0.0951626
0.0950539
0.0948408
0.0942961
0.0923426
0.0829109
0.0744475
0.0670015
0.0604821
0.0544608
0.0484439
0.0417728
0.032933
0.0156888
)
;

boundaryField
{
    leftWall
    {
        type            kqRWallFunction;
        value           nonuniform List<scalar> 
50
(
0.00117604
0.00272249
0.004066
0.00529327
0.00644566
0.00756819
0.00870712
0.00992116
0.0114575
0.0139026
0.0166518
0.0201866
0.0253007
0.031007
0.0366929
0.0413765
0.0447559
0.0449812
0.0434275
0.0415725
0.0402081
0.0382541
0.035181
0.0311642
0.0270109
0.0229643
0.0190834
0.0155825
0.0127496
0.010736
0.00942073
0.0085503
0.00792306
0.00743307
0.00703909
0.00673256
0.00650448
0.00631846
0.00616053
0.00605664
0.00600894
0.00600736
0.00604631
0.00612388
0.00625413
0.00657241
0.0078808
0.0135432
0.0311652
0.0856238
)
;
    }
    rightWall
    {
        type            kqRWallFunction;
        value           nonuniform List<scalar> 
50
(
0.00207772
0.00376344
0.00497235
0.00602716
0.00699609
0.00793568
0.00892805
0.00986259
0.0107258
0.0112756
0.01111
0.0116338
0.0118428
0.0117009
0.0117006
0.012132
0.0118311
0.00990855
0.00744608
0.00617009
0.0060099
0.0065051
0.0071981
0.00789686
0.00856548
0.00918542
0.00976311
0.0103385
0.0107983
0.0111405
0.0113398
0.011397
0.0113851
0.0113564
0.011337
0.0113619
0.0114812
0.0116815
0.0119059
0.0121477
0.0124209
0.012729
0.0130388
0.0133504
0.01371
0.014113
0.014544
0.0149812
0.0153918
0.0156888
)
;
    }
    lowerWall
    {
        type            kqRWallFunction;
        value           nonuniform List<scalar> 
62
(
0.00117604
0.00324619
0.00490303
0.00618811
0.00721724
0.00805271
0.00873503
0.00929431
0.00975364
0.0101293
0.0104308
0.010664
0.0108303
0.0109177
0.0109158
0.0107989
0.0104632
0.0099096
0.00914806
0.00812805
0.00668632
0.00467712
0.00202628
0.00202628
0.0044862
0.00602354
0.00727532
0.00840548
0.00962971
0.01153
0.0164251
0.0223704
0.0188684
0.0187622
0.0225018
0.00242767
0.00463481
0.00585073
0.00718174
0.00879916
0.010748
0.0135945
0.0194906
0.00242767
0.00587744
0.00784028
0.00868929
0.00891807
0.0087286
0.00842259
0.00790797
0.00685116
0.00606578
0.00614118
0.00570123
0.00515706
0.00506061
0.00523167
0.00533117
0.00489469
0.00374409
0.00207772
)
;
    }
    atmosphere
    {
        type            inletOutlet;
        inletValue      uniform 0.1;
        value           nonuniform List<scalar> 
46
(
0.1
0.1
0.1
0.1
0.1
0.1
0.0441866
0.0388476
0.0393778
0.0423868
0.0473133
0.0548568
0.0667442
0.1
0.1
0.1
0.1
0.1
0.1
0.1
0.1
0.1
0.1
0.1
0.1
0.1
0.1
0.1
0.1
0.1
0.1
0.1
0.1
0.1
0.1
0.1
0.1
0.0829109
0.0744475
0.0670015
0.0604821
0.0544608
0.0484439
0.0417728
0.032933
0.0156888
)
;
    }
    defaultFaces
    {
        type            empty;
    }
}


// ************************************************************************* //
