/*--------------------------------*- C++ -*----------------------------------*\
| =========                 |                                                 |
| \\      /  F ield         | OpenFOAM: The Open Source CFD Toolbox           |
|  \\    /   O peration     | Version:  2.3.0                                 |
|   \\  /    A nd           | Web:      www.OpenFOAM.org                      |
|    \\/     M anipulation  |                                                 |
\*---------------------------------------------------------------------------*/
FoamFile
{
    version     2.0;
    format      ascii;
    class       volScalarField;
    location    "3";
    object      nut;
}
// * * * * * * * * * * * * * * * * * * * * * * * * * * * * * * * * * * * * * //

dimensions      [0 2 -1 0 0 0 0];

internalField   nonuniform List<scalar> 
2268
(
3.16439e-05
3.8766e-05
4.75378e-05
5.32543e-05
5.73563e-05
6.04405e-05
6.28188e-05
6.46789e-05
6.61417e-05
6.72872e-05
6.81661e-05
6.88237e-05
6.92786e-05
6.94884e-05
6.94195e-05
6.89885e-05
6.79748e-05
6.6146e-05
6.35383e-05
5.99035e-05
5.43806e-05
4.54979e-05
2.96771e-05
7.49547e-05
0.000343047
0.000474456
0.000545874
0.000590232
0.000620199
0.000641556
0.000657268
0.000668926
0.000677375
0.000683059
0.000686033
0.000686394
0.000684336
0.000679465
0.000670171
0.000650798
0.000619989
0.000582631
0.000534698
0.000459416
0.000334711
9.43286e-05
9.13864e-05
0.000573882
0.000885885
0.00106555
0.00117628
0.0012487
0.00129819
0.00133303
0.00135776
0.00137483
0.0013855
0.00139031
0.00138921
0.00138207
0.00136784
0.00134358
0.00130154
0.00123849
0.00115627
0.0010442
0.000874844
0.000600317
0.000109845
0.000104044
0.000726961
0.00118891
0.00147507
0.00165818
0.00177971
0.00186276
0.00192062
0.00196107
0.00198856
0.00200556
0.00201329
0.00201165
0.00200009
0.00197688
0.0019381
0.00187586
0.00178455
0.00166037
0.00148692
0.00122725
0.000809342
0.000121229
0.000114612
0.000840225
0.00141779
0.00179604
0.00204766
0.00221884
0.00233729
0.00242011
0.00247787
0.00251704
0.00254142
0.00255308
0.00255193
0.00253712
0.00250641
0.00245527
0.00237585
0.00226044
0.00209997
0.00187251
0.00153147
0.000982516
0.000130757
0.000124026
0.000929365
0.00159664
0.002052
0.00236522
0.00258361
0.00273715
0.0028454
0.00292115
0.00297265
0.00300505
0.00302134
0.00302155
0.00300468
0.00296817
0.00290716
0.0028138
0.00267869
0.00248863
0.00221654
0.00180562
0.00113825
0.000140247
0.00013289
0.00100159
0.00173997
0.00225983
0.00262748
0.00288953
0.00307672
0.00321002
0.00330382
0.00336787
0.00340861
0.00343002
0.00343231
0.00341446
0.00337379
0.0033054
0.00320143
0.00305131
0.00283899
0.00253325
0.00206749
0.0012946
0.000153219
0.000141667
0.00106181
0.00185754
0.00243168
0.0028472
0.00314911
0.00336799
0.00352547
0.00363699
0.00371351
0.00376264
0.00378949
0.00379444
0.00377656
0.00373327
0.00365982
0.00354854
0.00338826
0.00316138
0.00283462
0.00233584
0.00148364
0.000181307
3.28595e-05
5.10931e-05
5.89298e-05
6.19151e-05
6.26304e-05
6.19826e-05
6.10253e-05
5.91818e-05
5.50932e-05
5.21281e-05
5.2409e-05
5.0429e-05
4.81139e-05
4.7792e-05
4.85474e-05
4.89131e-05
4.6779e-05
4.08486e-05
4.26488e-05
0.000106976
0.00041974
0.000542132
0.000591595
0.000606642
0.000605384
0.000594962
0.000572896
0.00050558
0.000476183
0.000503951
0.000479572
0.000425688
0.000402521
0.000423961
0.000433821
0.000394171
0.00028613
9.61407e-05
0.000120216
0.000729317
0.00102602
0.00115574
0.00120057
0.00120196
0.00117944
0.00113727
0.00105059
0.00100604
0.00102387
0.000978352
0.000889501
0.000839971
0.000848891
0.000831218
0.00071557
0.000460309
0.00011043
0.000132944
0.000947617
0.00141657
0.00163509
0.00171895
0.0017303
0.00170413
0.00165277
0.00156638
0.00151242
0.00150495
0.001442
0.00133351
0.00125605
0.00122806
0.00116262
0.000971682
0.000599795
0.000121515
0.000146837
0.00111957
0.0017421
0.00204484
0.00217
0.00219598
0.00217291
0.00212056
0.00203945
0.00197824
0.00194551
0.00186719
0.00174563
0.00164155
0.0015685
0.00145036
0.0011944
0.000731889
0.000130876
0.000161962
0.00127971
0.00203065
0.0024055
0.00256814
0.0026104
0.00259439
0.00254561
0.00247041
0.00240309
0.00234864
0.00225609
0.00212357
0.00199488
0.00187692
0.00170685
0.0013933
0.000856344
0.000139381
0.000181713
0.00145119
0.00230446
0.00273381
0.00292524
0.00298342
0.00297601
0.00293271
0.00286275
0.00278985
0.00271713
0.00261104
0.0024678
0.002316
0.00215608
0.00193587
0.00156799
0.000961755
0.000147924
0.000217563
0.00165302
0.00258119
0.00304101
0.00325154
0.00332291
0.00332391
0.00328625
0.00322026
0.00314186
0.00305368
0.00293455
0.00278005
0.00260589
0.00240714
0.00214018
0.00172101
0.00104969
0.000155388
0.000151834
0.00114374
0.00201186
0.00265619
0.00313588
0.00349343
0.00375852
0.00395283
0.00409253
0.00418973
0.00425345
0.00428962
0.00429962
0.00428308
0.00423785
0.00415982
0.00404194
0.00387306
0.00363525
0.00329676
0.00279724
0.00202861
0.000930237
0.000166686
0.00122842
0.00216996
0.00288852
0.00343656
0.00385451
0.0041716
0.0044089
0.0045822
0.00470398
0.00478452
0.00483062
0.00484621
0.004832
0.00478719
0.00470967
0.00459446
0.00443242
0.00420915
0.00390271
0.00348027
0.00289887
0.00215529
0.000181707
0.00127948
0.00230567
0.00309483
0.00369733
0.00416065
0.00451836
0.00479108
0.00499248
0.0051341
0.00522707
0.00528049
0.00530112
0.00529026
0.00524848
0.00517687
0.00507343
0.0049315
0.00474095
0.00448994
0.00416876
0.0037697
0.00331959
0.000198961
0.00127702
0.00244068
0.00330694
0.00395167
0.00444474
0.00483235
0.0051338
0.00535739
0.00551253
0.00561164
0.00566719
0.00569132
0.00568367
0.00564498
0.00558166
0.00549521
0.00538023
0.00522797
0.0050345
0.00480709
0.00454536
0.00427176
0.000219979
0.00124924
0.00260467
0.00352918
0.00420667
0.00471804
0.00512878
0.00545444
0.00569491
0.00585817
0.00595611
0.00600653
0.00602654
0.00602134
0.00598851
0.00593388
0.00586143
0.0057718
0.00565309
0.00551892
0.00537115
0.00520057
0.00501945
0.0002414
0.00154953
0.00281983
0.00372634
0.0044203
0.00496568
0.00540045
0.00574421
0.00599435
0.00616096
0.00625851
0.00630649
0.00632329
0.00631832
0.00629194
0.00624319
0.00617539
0.00609552
0.00601224
0.005936
0.00584353
0.00572887
0.00559569
0.000261697
0.00169722
0.00295651
0.00386578
0.00459171
0.00517558
0.00564122
0.00600196
0.00625511
0.00641668
0.00650811
0.00655757
0.00657797
0.00657312
0.00655133
0.00650964
0.00645215
0.00638818
0.00633307
0.00628749
0.00622555
0.00614604
0.0060449
0.000273526
0.00180884
0.00308827
0.00400168
0.00473803
0.00536195
0.00585467
0.00621631
0.00646054
0.00661464
0.00670653
0.00676107
0.00678493
0.00678456
0.00676809
0.00673329
0.00668536
0.00663845
0.00660504
0.00657153
0.00651745
0.00644629
0.00637756
0.000285773
0.00188724
0.00321482
0.00416666
0.00492872
0.00554899
0.00602973
0.00637543
0.00660691
0.00675882
0.00685654
0.00691269
0.00694159
0.0069493
0.00693957
0.00691187
0.0068702
0.00683272
0.00680581
0.00677591
0.0067317
0.00668268
0.00664115
0.000287244
0.00191475
0.00329063
0.00430558
0.00508996
0.00569185
0.00614808
0.0064767
0.00670238
0.0068553
0.00695605
0.00701743
0.00705182
0.00706722
0.00706407
0.00704533
0.00701369
0.00698303
0.00695924
0.00693693
0.00691212
0.00688711
0.00686466
0.00028392
0.00192523
0.00332225
0.00437687
0.00516569
0.005749
0.00619001
0.00651022
0.00673593
0.00689339
0.00700214
0.00707544
0.00712157
0.00714718
0.00715437
0.00714716
0.00713008
0.00711172
0.00709738
0.00708611
0.0070749
0.00706294
0.00704978
0.000279666
0.00193973
0.00331348
0.0043462
0.00511942
0.00570321
0.00614524
0.00647122
0.00670797
0.00687973
0.00700484
0.00709531
0.00715857
0.00720019
0.00722323
0.0072314
0.00723072
0.00722701
0.00722401
0.00722204
0.00721903
0.00721337
0.00720399
0.000278239
0.00193022
0.00322375
0.00420693
0.00497217
0.00556425
0.00601836
0.00636243
0.00662189
0.00681825
0.00696751
0.00708088
0.00716609
0.00722818
0.00727057
0.00729686
0.00731293
0.00732363
0.0073318
0.00733799
0.00734096
0.00733922
0.0073318
0.000273582
0.00183906
0.0030492
0.00399126
0.00474537
0.00534544
0.00581903
0.00619094
0.00648261
0.00671179
0.006892
0.00703351
0.00714413
0.00722905
0.00729218
0.00733777
0.00737055
0.00739529
0.00741453
0.00742893
0.00743788
0.00744032
0.00743541
0.000264083
0.0016919
0.00281198
0.00370303
0.00444548
0.00505626
0.00555621
0.00596373
0.0062948
0.00656297
0.00677928
0.00695295
0.00709154
0.00720071
0.00728528
0.00735016
0.00740012
0.007439
0.00746968
0.00749314
0.00750919
0.0075172
0.00751644
0.000249757
0.00148969
0.0025176
0.00335501
0.00408043
0.00470738
0.00523991
0.00568893
0.00606438
0.00637568
0.0066315
0.00684001
0.00700851
0.00714329
0.00725012
0.00733459
0.00740178
0.00745565
0.00749872
0.0075324
0.00755704
0.00757234
0.00757769
0.00023232
0.00120697
0.00217157
0.00296255
0.0036729
0.00431536
0.00488407
0.00537772
0.00580002
0.00615637
0.00645334
0.00669809
0.00689784
0.00705948
0.00718961
0.00729446
0.00737946
0.00744884
0.00750544
0.00755086
0.00758571
0.00760996
0.00762298
0.000214598
0.000963582
0.00180029
0.00255253
0.00325045
0.00390485
0.00450845
0.00504583
0.00551413
0.00591491
0.00625264
0.00653367
0.00676517
0.0069545
0.00710889
0.00723504
0.00733876
0.00742456
0.00749561
0.00755384
0.00760018
0.00763478
0.00765718
0.00019599
0.000796103
0.00150465
0.0021839
0.00285011
0.00350878
0.00413834
0.00471359
0.00522309
0.00566466
0.0060405
0.00635616
0.0066187
0.00683572
0.00701479
0.00716292
0.00728616
0.00738927
0.00747572
0.00754775
0.00760658
0.00765261
0.00768549
0.000177061
0.000698971
0.00130845
0.0019202
0.00254173
0.0031773
0.00380726
0.00440365
0.00494584
0.0054216
0.00583027
0.00617698
0.00646843
0.00671201
0.00691532
0.00708545
0.00722854
0.00734948
0.00745194
0.0075384
0.00761033
0.00766834
0.00771224
0.000159593
0.000658458
0.00120389
0.00176137
0.00233992
0.00294435
0.00355805
0.00415354
0.00470689
0.00520267
0.00563571
0.00600817
0.00632515
0.00659286
0.00681892
0.00701024
0.0071728
0.00731148
0.00743
0.00753098
0.00761607
0.00768607
0.00774097
0.00014574
0.000657952
0.00116931
0.00168963
0.00223415
0.00280798
0.00339767
0.00397891
0.00452828
0.00502964
0.00547509
0.00586392
0.00619957
0.00648739
0.00673362
0.00694443
0.00712535
0.00728099
0.00741498
0.00752998
0.00762773
0.00770916
0.00777447
0.000136113
0.000680129
0.00118136
0.00168189
0.00220388
0.00275278
0.00331774
0.00387848
0.00441448
0.00491056
0.0053583
0.00575516
0.00610289
0.00640546
0.00666782
0.00689512
0.00709214
0.00726301
0.0074111
0.00753893
0.00764827
0.00774012
0.00781482
0.000129599
0.000710469
0.0012212
0.00171751
0.00222804
0.00275926
0.00330272
0.00384211
0.00436062
0.00484531
0.00528842
0.00568674
0.00604066
0.00635292
0.00662719
0.0068675
0.00707777
0.00726152
0.00742169
0.0075606
0.00767994
0.00778075
0.00786348
0.00012484
0.000740454
0.00127595
0.00178075
0.00228912
0.00280962
0.00333639
0.00385673
0.00435753
0.00482857
0.00526338
0.0056589
0.00601467
0.00633235
0.0066146
0.00686438
0.00708476
0.0072786
0.00744837
0.00759615
0.00772349
0.00783144
0.00792053
0.000121039
0.000767491
0.00133782
0.00186062
0.00237419
0.00289004
0.00340514
0.00391008
0.00439518
0.00485289
0.00527824
0.00566868
0.00602348
0.00634333
0.00663016
0.00688608
0.00711337
0.00731429
0.00749092
0.00764504
0.00777808
0.00789108
0.00798466
0.000117906
0.000792889
0.00140324
0.00195042
0.00247485
0.00299102
0.00349892
0.00399224
0.00446446
0.00491044
0.00532669
0.0057112
0.00606322
0.00638295
0.00667156
0.00693056
0.00716166
0.00736664
0.00754724
0.00770503
0.00784133
0.00795717
0.00805325
0.000115436
0.000820839
0.0014713
0.00204657
0.00258618
0.0031063
0.00361036
0.00409527
0.0045574
0.00499368
0.00540182
0.00578035
0.00612856
0.00644641
0.00673446
0.00699384
0.00722585
0.00743196
0.00761368
0.00777245
0.00790956
0.00802605
0.00812268
0.000113607
0.000851419
0.00154128
0.0021464
0.00270369
0.00323038
0.003733
0.00421207
0.00466661
0.00509519
0.00549643
0.00586926
0.00621303
0.00652757
0.00681312
0.00707048
0.00730076
0.00750528
0.00768545
0.0078427
0.00797832
0.00809342
0.00818884
0.00011211
0.000875432
0.00160849
0.00224514
0.00282132
0.00335633
0.00385967
0.00433541
0.00478476
0.00520756
0.00560313
0.00597068
0.00630965
0.00661975
0.00690111
0.00715435
0.00738056
0.00758106
0.00775734
0.00791086
0.00804302
0.00815499
0.00824771
0.0001108
0.000890588
0.00166793
0.00233658
0.00293189
0.00347646
0.00398296
0.00445804
0.00490462
0.00532356
0.0057147
0.00607752
0.00641147
0.00671627
0.00699201
0.00723936
0.00745953
0.00765401
0.00782448
0.00797254
0.00809971
0.00820725
0.0082962
0.000109935
0.000907725
0.00171964
0.00241591
0.00302931
0.0035846
0.0040966
0.00457361
0.00501977
0.00543673
0.00582476
0.0061835
0.00651243
0.0068113
0.00708029
0.00732033
0.00753294
0.00771993
0.00788323
0.00802467
0.00814587
0.00824821
0.00833276
0.000109559
0.000925579
0.00176233
0.00248043
0.00311033
0.00367705
0.00419633
0.00467745
0.00512533
0.00554216
0.00592846
0.00628392
0.00660802
0.00690057
0.00716202
0.00739378
0.00759786
0.0077765
0.00793195
0.00806624
0.0081811
0.00827795
0.0083579
0.000109566
0.000939257
0.00179436
0.00252989
0.00317444
0.00375257
0.00428023
0.00476714
0.00521862
0.00563708
0.00602308
0.0063762
0.00669586
0.00698197
0.00723551
0.00745857
0.00765379
0.00782394
0.00797157
0.00809882
0.0082075
0.00829901
0.00837447
0.000109903
0.000949127
0.00181753
0.00256696
0.00322411
0.00381285
0.00434914
0.00484283
0.00529937
0.00572106
0.00610822
0.00646012
0.006776
0.00705598
0.00730179
0.00751641
0.00770326
0.00786555
0.00800602
0.00812685
0.00822981
0.0083163
0.00838746
0.000110593
0.000958757
0.00183882
0.00259991
0.00326694
0.00386383
0.00440724
0.00490741
0.00536963
0.00579578
0.00618556
0.00653765
0.00685093
0.00712583
0.00736495
0.00757237
0.00775223
0.00790798
0.00804234
0.00815747
0.00825511
0.00833673
0.00840356
0.000111934
0.000978971
0.00187792
0.0026505
0.00332167
0.00391904
0.00446338
0.0049665
0.00543326
0.00586433
0.0062582
0.0066125
0.00692549
0.00719774
0.00743272
0.00763549
0.00781056
0.00796132
0.0080904
0.00820002
0.0082921
0.00836836
0.00843027
0.000115934
0.00104369
0.00198813
0.00277519
0.00343359
0.00400749
0.00453384
0.00502887
0.00549525
0.00593026
0.00632969
0.00668942
0.00700671
0.00728166
0.00751773
0.0077199
0.00789247
0.00803885
0.00816208
0.00826493
0.00834994
0.00841931
0.00847492
0.000131441
0.00122759
0.00229728
0.00311312
0.00371014
0.00418992
0.00464678
0.00510647
0.00556066
0.00599614
0.0064025
0.00677282
0.00710351
0.00739313
0.0076402
0.00784632
0.0080164
0.00815584
0.00826962
0.00836206
0.00843671
0.00849646
0.00854359
0.000177282
0.00162218
0.00302694
0.00392821
0.00437201
0.00458318
0.00484412
0.00521161
0.00563196
0.00606128
0.00647533
0.00686376
0.00722588
0.00755874
0.00783282
0.00804294
0.00820314
0.0083267
0.008423
0.00849852
0.00855786
0.00860432
0.00864033
0.00025878
0.00227799
0.00436058
0.00545066
0.00569449
0.00537353
0.00516448
0.00534487
0.00570361
0.00611876
0.00653963
0.0069541
0.00738093
0.00783575
0.00814785
0.00834174
0.00846959
0.00855979
0.00862628
0.00867649
0.00871489
0.00874433
0.00876678
0.000417306
0.00366433
0.00669802
0.00770161
0.00775935
0.00689831
0.0055621
0.00546624
0.00575516
0.00615451
0.00657871
0.00701801
0.00754735
0.00838275
0.00865628
0.00876199
0.00881632
0.00885051
0.00887439
0.00889189
0.00890502
0.00891494
0.00892241
0.000211237
0.000193543
0.000192251
0.000210539
0.00162056
0.00153452
0.00153129
0.00161708
0.00304895
0.00295905
0.00294653
0.00301688
0.00411594
0.00405044
0.00402851
0.00405538
0.00490299
0.00484131
0.00480766
0.0048082
0.0054936
0.00543754
0.0054053
0.00539899
0.0059646
0.00592293
0.0058984
0.00588786
0.00632571
0.00629958
0.00628227
0.00627188
0.00661265
0.00659739
0.00658437
0.00657391
0.00684758
0.00683648
0.00682502
0.00681385
0.00703749
0.00702837
0.00701765
0.00700574
0.00719336
0.00718486
0.00717414
0.00716128
0.00732175
0.00731332
0.00730235
0.00728866
0.00742633
0.00741823
0.00740729
0.00739326
0.00750949
0.00750249
0.0074924
0.00747886
0.00757423
0.00756915
0.0075607
0.00754863
0.00762422
0.00762199
0.00761631
0.0076069
0.00766449
0.00766601
0.00766398
0.00765812
0.00769973
0.00770553
0.00770769
0.00770595
0.00773378
0.00774413
0.00775072
0.00775335
0.0077698
0.00778468
0.00779572
0.0078027
0.00781023
0.00782947
0.00784476
0.00785591
0.00785688
0.00788015
0.00789932
0.00791428
0.00791093
0.00793763
0.00796013
0.00797834
0.00797224
0.00800166
0.0080268
0.00804758
0.00803937
0.00807071
0.00809773
0.00812036
0.00810967
0.00814211
0.00817023
0.00819398
0.00817955
0.00821232
0.00824079
0.00826496
0.00824503
0.00827741
0.0083056
0.00832959
0.00830231
0.00833375
0.00836114
0.00838448
0.00834855
0.00837866
0.0084049
0.00842728
0.0083825
0.00841107
0.00843597
0.00845721
0.00840492
0.0084319
0.00845541
0.00847548
0.00841882
0.00844424
0.0084664
0.00848532
0.00842922
0.00845311
0.00847393
0.00849172
0.00844262
0.00846491
0.00848433
0.00850091
0.0084662
0.00848664
0.0085044
0.00851955
0.00850687
0.00852496
0.00854062
0.00855394
0.00857033
0.00858538
0.00859836
0.00860936
0.00866048
0.00867175
0.00868142
0.00868958
0.00877916
0.00878605
0.00879193
0.00879687
0.00892648
0.00892873
0.00893064
0.00893224
0.0010643
0.00223485
0.00304586
0.00350199
0.00372639
0.00381276
0.00382481
0.00379403
0.00373108
0.00364368
0.00353462
0.00339576
0.003222
0.00301315
0.0027598
0.00241955
0.00192184
0.00115825
0.000161927
0.00221995
0.00305519
0.00368386
0.0040755
0.00428394
0.00437294
0.00439233
0.00436694
0.00430359
0.00420446
0.0040717
0.00390479
0.00370017
0.00344678
0.00313086
0.00271363
0.00212851
0.00126287
0.000165465
0.00330151
0.00383029
0.00428424
0.00459513
0.00477401
0.00485944
0.00488209
0.00485592
0.00478372
0.00466659
0.00450909
0.00431309
0.00407507
0.00378367
0.00341757
0.00293926
0.00228301
0.0013271
0.000164247
0.00418543
0.00450578
0.00481977
0.00505418
0.00520207
0.00528228
0.00530824
0.00527905
0.00519317
0.00505522
0.00486868
0.0046399
0.00436933
0.0040431
0.00363373
0.00310554
0.00239208
0.00137139
0.000168957
0.00486608
0.00505792
0.00526898
0.00544027
0.00556203
0.00563262
0.00565163
0.00560381
0.0054897
0.00532177
0.00511136
0.00485937
0.00456243
0.00420955
0.00377736
0.00322011
0.00245435
0.0013492
0.000170009
0.00542461
0.00553192
0.00566476
0.00578469
0.00587335
0.00591253
0.00589282
0.00580723
0.00566019
0.00546807
0.00524353
0.00497935
0.0046555
0.00426657
0.00380256
0.00321939
0.00243063
0.00130994
0.00016888
0.00589162
0.00594569
0.00602402
0.00610109
0.00615087
0.00615019
0.00609134
0.00596681
0.0057813
0.00555212
0.00529347
0.00500037
0.0046488
0.00422813
0.00373571
0.00313709
0.00236073
0.00131503
0.000169101
0.00626704
0.00629104
0.00633197
0.00637152
0.00637935
0.00633435
0.00623246
0.00606676
0.00584177
0.00557372
0.00527705
0.0049478
0.00456616
0.0041209
0.00360831
0.00300367
0.0022577
0.00128299
0.000172387
0.00656258
0.00656407
0.00657237
0.00657129
0.0065367
0.00645093
0.00630948
0.00610884
0.00585104
0.00555012
0.00521853
0.00485205
0.00443653
0.00396327
0.00343409
0.00284023
0.00213963
0.00122759
0.000170645
0.00679656
0.00677703
0.00675451
0.00671574
0.00664358
0.00652346
0.00634931
0.00611881
0.00583456
0.00550668
0.00514255
0.00473927
0.00428803
0.00378496
0.00323691
0.00264823
0.00198826
0.00114524
0.000156542
0.00698374
0.00694734
0.00689955
0.00682994
0.00672628
0.0065772
0.00637667
0.00612279
0.00581776
0.00546704
0.00507371
0.00463563
0.00414763
0.00360911
0.00303044
0.00242479
0.00176913
0.000990949
0.000135259
0.00713548
0.00708639
0.00701953
0.00692669
0.00679885
0.00662754
0.00640764
0.00613722
0.00581692
0.0054481
0.00503105
0.0045635
0.00404253
0.00346978
0.00285645
0.00222048
0.00155707
0.00082884
0.000123328
0.00726013
0.00720231
0.00712232
0.00701353
0.00686904
0.00668264
0.00645028
0.00616966
0.00583984
0.00545995
0.00502827
0.00454237
0.00400115
0.00340823
0.00277382
0.00211472
0.00143965
0.000747022
0.000121619
0.00736339
0.00730064
0.00721293
0.00709469
0.00694053
0.00674606
0.00650781
0.00622327
0.0058906
0.0055079
0.00507278
0.00458316
0.00403912
0.0034446
0.00280706
0.00213768
0.00144612
0.000743104
0.000126284
0.0074493
0.00738497
0.00729428
0.00717258
0.0070155
0.00681945
0.00658153
0.00629929
0.00597054
0.00559299
0.00516428
0.00468273
0.00414863
0.00356471
0.00293449
0.00226012
0.00154218
0.000790479
0.000132785
0.00752132
0.00745923
0.00737016
0.00725017
0.00709558
0.00690337
0.00667105
0.00639634
0.006077
0.00571067
0.00529505
0.00482845
0.00431036
0.00374104
0.00311917
0.00243878
0.00168904
0.000870273
0.000139266
0.00758394
0.00752737
0.00744361
0.00732929
0.00718128
0.00699696
0.00677414
0.00651066
0.00620431
0.0058527
0.0054534
0.00500417
0.00450302
0.00394723
0.00333079
0.00264121
0.00185883
0.000972304
0.000145298
0.00764108
0.00759244
0.00751662
0.00741072
0.00727205
0.00709828
0.00688735
0.00663718
0.00634552
0.00600983
0.00562729
0.00519476
0.00470843
0.00416253
0.00354687
0.00284407
0.00202843
0.00107825
0.000150671
0.00769581
0.00765664
0.00759038
0.00749454
0.00736676
0.0072049
0.00700693
0.00677074
0.00649394
0.0061737
0.0058066
0.00538838
0.00491329
0.00437267
0.00375248
0.00303141
0.00217971
0.00117266
0.000155537
0.00775058
0.00772157
0.0076656
0.0075805
0.00746415
0.0073145
0.0071295
0.00690694
0.00664415
0.00633787
0.00598392
0.00557686
0.00510906
0.00456909
0.00393883
0.00319362
0.00230117
0.00123524
0.000160144
0.0078073
0.00778845
0.00774274
0.00766829
0.00756312
0.00742523
0.00725249
0.00704247
0.0067922
0.00649789
0.00615444
0.00575522
0.00529089
0.00474777
0.00410587
0.0033373
0.00240594
0.00128382
0.00016365
0.00786748
0.00785816
0.00782211
0.00775762
0.00766283
0.00753571
0.00737401
0.00717507
0.00693553
0.00665107
0.00631589
0.00592215
0.00545897
0.00491088
0.00425603
0.00346431
0.00249707
0.00132448
0.000166104
0.0079321
0.00793132
0.00790393
0.00784835
0.0077628
0.00764519
0.00749314
0.00730371
0.00707318
0.00679666
0.00646764
0.00607726
0.00561332
0.00505889
0.00439054
0.00357654
0.00257656
0.00135928
0.000167311
0.00800149
0.00800799
0.00798801
0.00794007
0.00786242
0.00775294
0.00760906
0.00742758
0.00720439
0.00693409
0.00660947
0.00622077
0.00575469
0.00519305
0.00451116
0.00367606
0.00264638
0.00139012
0.000167494
0.00807499
0.00808735
0.00807339
0.00803173
0.00796062
0.00785786
0.00772073
0.00754576
0.00732847
0.00706295
0.00674137
0.00635316
0.00588408
0.00531489
0.00461986
0.00376513
0.00270867
0.00141849
0.000167354
0.00815085
0.0081676
0.00815827
0.00812155
0.00805567
0.00795837
0.00782674
0.00765707
0.00744452
0.00718273
0.00686328
0.00647489
0.0060025
0.00542596
0.00471864
0.00384592
0.00276535
0.00144516
0.000167182
0.00822638
0.00824608
0.00824007
0.00820707
0.00814529
0.00805238
0.00792527
0.00776001
0.00755142
0.00729273
0.00697498
0.00658627
0.00611081
0.00552764
0.00480928
0.00392036
0.00281798
0.00147058
0.00016712
0.00829819
0.00831954
0.00831573
0.00828544
0.00822687
0.00813755
0.00801429
0.00785288
0.00764786
0.00739207
0.00707609
0.00668744
0.00620965
0.00562103
0.00489325
0.00399005
0.00286779
0.00149498
0.000167428
0.0083627
0.00838465
0.00838212
0.00835379
0.0082978
0.00821159
0.00809181
0.00793406
0.0077326
0.00747993
0.00716618
0.00677839
0.00629946
0.00570695
0.00497164
0.00405617
0.00291564
0.00151818
0.000168448
0.00841676
0.0084385
0.00843662
0.00840977
0.00835601
0.0082727
0.00815635
0.00800236
0.00780475
0.0075557
0.00724499
0.00685916
0.00638055
0.00578595
0.00504517
0.0041195
0.00296223
0.00154056
0.000169999
0.00845825
0.00847928
0.00847769
0.00845207
0.00840044
0.00832005
0.00820728
0.00805736
0.00786409
0.00761937
0.00731264
0.00693001
0.00645325
0.00585842
0.00511424
0.00418045
0.00300823
0.00156335
0.000171658
0.00848664
0.00850672
0.00850528
0.00848086
0.00843142
0.00835413
0.00824525
0.00809983
0.00791147
0.00767181
0.00736998
0.0069917
0.0065182
0.00592479
0.00517908
0.00423917
0.00305391
0.00158708
0.000173416
0.0085033
0.0085224
0.00852112
0.008498
0.00845094
0.00837704
0.00827241
0.00813195
0.00794902
0.00771503
0.00741882
0.00704575
0.00657654
0.00598576
0.00523994
0.00429549
0.00309886
0.00161138
0.000175382
0.00851157
0.00852972
0.0085287
0.00850705
0.00846263
0.00839245
0.00829248
0.0081574
0.00798033
0.00775241
0.00746218
0.00709466
0.00663019
0.00604272
0.00529757
0.00434943
0.00314241
0.00163526
0.000177586
0.00851642
0.00853366
0.00853298
0.00851298
0.0084715
0.00840545
0.00831059
0.00818133
0.00801042
0.00778866
0.00750428
0.00714208
0.00668222
0.00609795
0.00535346
0.00440176
0.00318479
0.00165889
0.000179731
0.00852393
0.00854015
0.00853985
0.00852169
0.0084835
0.00842209
0.00833295
0.00821005
0.0080456
0.00782981
0.00755054
0.00719266
0.00673626
0.00615413
0.00540941
0.00445348
0.00322639
0.00168257
0.000181814
0.00854056
0.00855547
0.00855549
0.00853936
0.00850494
0.00844891
0.00836641
0.00825076
0.00809322
0.00788298
0.00760731
0.00725151
0.00679606
0.00621381
0.00546699
0.00450539
0.00326731
0.00170571
0.000184148
0.0085724
0.00858555
0.00858574
0.00857189
0.00854188
0.00849231
0.00841791
0.00831109
0.00816149
0.00795624
0.00768132
0.00732347
0.00686458
0.00627844
0.00552671
0.00455745
0.00330727
0.00172813
0.000186703
0.00862456
0.00863538
0.00863562
0.00862434
0.00859959
0.00855799
0.00849397
0.00839879
0.00825943
0.00805857
0.00777872
0.00741176
0.00694255
0.0063472
0.00558703
0.00460805
0.00334492
0.00174904
0.000189382
0.00870083
0.00870881
0.00870899
0.00870064
0.00868213
0.0086504
0.00859998
0.00852119
0.0083971
0.00820067
0.00790249
0.00751469
0.00702608
0.00641551
0.00564363
0.00465359
0.00337763
0.00176684
0.000192058
0.00880366
0.00880846
0.00880853
0.00880343
0.00879206
0.00877219
0.00873939
0.00868443
0.00858667
0.00839976
0.00804508
0.00761897
0.0071031
0.00647387
0.00568927
0.00468878
0.00340188
0.00177945
0.000194554
0.00893443
0.00893596
0.00893596
0.00893427
0.00893051
0.00892386
0.00891245
0.00889139
0.00884455
0.00870616
0.0081698
0.00769151
0.00715187
0.00650867
0.00571525
0.00470807
0.0034145
0.00178514
0.000196369
)
;

boundaryField
{
    leftWall
    {
        type            nutkWallFunction;
        Cmu             0.09;
        kappa           0.41;
        E               9.8;
        value           nonuniform List<scalar> 
50
(
5.9209e-06
8.93957e-06
1.08299e-05
1.22699e-05
1.34611e-05
1.45125e-05
1.54942e-05
1.64653e-05
1.76041e-05
1.92545e-05
2.09361e-05
2.32606e-05
2.74299e-05
3.00121e-05
3.29664e-05
3.39731e-05
3.58513e-05
3.63537e-05
3.51377e-05
3.34095e-05
3.21494e-05
3.08584e-05
2.9264e-05
2.70903e-05
2.46691e-05
2.2097e-05
1.93753e-05
1.66347e-05
1.4147e-05
1.218e-05
1.0779e-05
9.78915e-06
9.03949e-06
8.42956e-06
7.92237e-06
7.61501e-06
7.42798e-06
7.1009e-06
6.73381e-06
6.58244e-06
6.51432e-06
6.51205e-06
6.56771e-06
6.67795e-06
6.86127e-06
7.30023e-06
8.9873e-06
1.48731e-05
2.70906e-05
4.92476e-05
)
;
    }
    rightWall
    {
        type            nutkWallFunction;
        Cmu             0.09;
        kappa           0.41;
        E               9.8;
        value           nonuniform List<scalar> 
50
(
8.68599e-06
1.15363e-05
1.31554e-05
1.4397e-05
1.54351e-05
1.63682e-05
1.72896e-05
1.81067e-05
1.88243e-05
1.92719e-05
1.91946e-05
1.573e-05
1.5953e-05
1.66924e-05
1.71413e-05
1.75864e-05
1.72698e-05
1.42989e-05
1.08001e-05
9.17925e-06
8.9328e-06
9.40956e-06
1.0185e-05
1.14419e-05
1.2314e-05
1.30875e-05
1.3782e-05
1.44505e-05
1.49686e-05
1.52777e-05
1.52864e-05
1.53405e-05
1.53275e-05
1.52964e-05
1.52752e-05
1.53407e-05
1.55508e-05
1.57661e-05
1.60047e-05
1.6259e-05
1.65428e-05
1.68164e-05
1.70567e-05
1.73681e-05
1.77223e-05
1.81131e-05
1.85243e-05
1.89342e-05
1.93131e-05
1.95839e-05
)
;
    }
    lowerWall
    {
        type            nutkWallFunction;
        Cmu             0.09;
        kappa           0.41;
        E               9.8;
        value           nonuniform List<scalar> 
62
(
2.65904e-06
4.62674e-06
5.71228e-06
6.41793e-06
6.92571e-06
7.30888e-06
7.60564e-06
7.83937e-06
8.02554e-06
8.17418e-06
8.29129e-06
8.38058e-06
8.44358e-06
8.47648e-06
8.47577e-06
8.4317e-06
8.30376e-06
8.08767e-06
7.77908e-06
7.34233e-06
6.66921e-06
5.57789e-06
3.60453e-06
3.60453e-06
1.13472e-05
1.30397e-05
1.4247e-05
1.52415e-05
1.62384e-05
1.76557e-05
2.07965e-05
2.4092e-05
2.22764e-05
2.22186e-05
2.4157e-05
3.97162e-06
1.2728e-05
1.41988e-05
1.56255e-05
1.7174e-05
1.88433e-05
2.10036e-05
2.47926e-05
3.97162e-06
6.2555e-06
7.21368e-06
7.5862e-06
7.68307e-06
7.60294e-06
7.47144e-06
7.24418e-06
6.75009e-06
6.35455e-06
6.39371e-06
6.16121e-06
5.85931e-06
5.80396e-06
5.90172e-06
5.95776e-06
5.70737e-06
4.98029e-06
3.6537e-06
)
;
    }
    atmosphere
    {
        type            calculated;
        value           nonuniform List<scalar> 
46
(
0.009
0.009
0.009
0.009
0.009
0.009
0.0055621
0.00546624
0.00575516
0.00615451
0.00657871
0.00701801
0.00754735
0.009
0.009
0.009
0.009
0.009
0.009
0.009
0.009
0.009
0.009
0.009
0.009
0.009
0.009
0.009
0.009
0.009
0.009
0.009
0.009
0.009
0.009
0.009
0.009
0.0081698
0.00769151
0.00715187
0.00650867
0.00571525
0.00470807
0.0034145
0.00178514
0.000196369
)
;
    }
    defaultFaces
    {
        type            empty;
    }
}


// ************************************************************************* //
