/*--------------------------------*- C++ -*----------------------------------*\
| =========                 |                                                 |
| \\      /  F ield         | OpenFOAM: The Open Source CFD Toolbox           |
|  \\    /   O peration     | Version:  2.3.0                                 |
|   \\  /    A nd           | Web:      www.OpenFOAM.org                      |
|    \\/     M anipulation  |                                                 |
\*---------------------------------------------------------------------------*/
FoamFile
{
    version     2.0;
    format      ascii;
    class       volScalarField;
    location    "3";
    object      p;
}
// * * * * * * * * * * * * * * * * * * * * * * * * * * * * * * * * * * * * * //

dimensions      [1 -1 -2 0 0 0 0];

internalField   nonuniform List<scalar> 
2268
(
794.231
795.068
795.147
794.206
792.367
789.761
786.499
782.705
778.513
774.065
769.499
764.945
760.515
756.292
752.322
748.632
745.121
741.962
739.899
739.008
739.22
740.306
742.158
735.024
735.668
735.726
734.828
733.079
730.567
727.387
723.661
719.524
715.119
710.588
706.066
701.666
697.469
693.518
689.857
686.78
684.261
682.425
681.217
680.986
681.993
683.949
675.778
676.294
676.313
675.429
673.76
671.346
668.255
664.6
660.516
656.151
651.654
647.167
642.806
638.654
634.771
631.262
628.633
626.685
624.93
623.763
623.334
623.778
625.53
616.556
617.099
617.165
616.3
614.681
612.325
609.283
605.657
601.584
597.219
592.723
588.248
583.915
579.812
576.017
572.648
570.154
568.484
566.952
565.722
565.072
565.304
566.801
557.394
558.05
558.253
557.455
555.877
553.548
550.51
546.864
542.754
538.343
533.807
529.309
524.978
520.907
517.179
513.902
511.39
509.646
508.235
507.019
506.29
506.563
507.856
498.324
499.139
499.531
498.844
497.316
494.996
491.929
488.221
484.026
479.523
474.903
470.346
465.988
461.918
458.222
454.996
452.454
450.584
449.092
447.908
447.285
447.738
448.773
439.357
440.374
440.985
440.438
438.967
436.643
433.52
429.712
425.392
420.753
416.012
411.367
406.958
402.864
399.168
395.961
393.388
391.422
389.861
388.688
388.158
388.763
389.512
380.442
381.688
382.536
382.15
380.732
378.391
375.192
371.264
366.799
362.013
357.146
352.416
347.96
343.835
340.113
336.901
334.295
332.246
330.596
329.36
328.787
329.159
329.702
712.729
713.819
713.951
712.209
709.292
706.049
702.831
699.215
695.335
693.293
692.455
691.393
689.782
687.702
686.75
688.614
691.942
693.607
692.694
656.252
655.71
655.124
653.303
650.6
647.664
644.694
641.506
640.22
638.351
635.368
633.777
632.666
630.278
628.28
629.028
631.947
633.982
633.862
599.794
597.768
596.518
594.464
591.833
589.147
586.526
583.794
583.659
582.088
577.827
575.929
574.75
572.192
569.481
569.566
572.045
574.005
574.613
543.784
541.347
538.706
536.146
533.427
530.81
528.446
525.927
525.437
524.024
519.709
517.693
516.022
513.304
510.385
510.313
512.49
514.019
515.131
487.809
485.191
481.233
478.115
475.238
472.596
470.352
467.87
466.751
465.829
462.991
461.383
459.434
456.729
452.889
451.56
453.213
454.102
455.611
431.874
428.287
423.658
420.163
417.077
414.254
412.223
410.615
410.756
410.897
409.054
407.724
405.388
402.454
397.908
394.567
394.307
394.412
396.187
374.887
370.387
365.851
362.256
358.891
355.695
353.962
354.07
356.153
355.945
353.678
352.426
351.079
348.046
343.584
339.225
335.792
335.077
336.922
316.734
312.065
308.024
304.56
300.876
296.871
295.359
296.693
299.131
299.22
296.628
295.422
295.866
293.283
288.889
282.699
277.481
276.139
277.862
288.338
289.932
291.158
291.058
289.719
287.336
284.01
279.883
275.179
270.148
265.069
260.206
255.667
251.446
247.618
244.352
241.713
239.582
237.78
236.349
235.491
234.983
233.986
163.403
165.834
167.778
168.166
167.01
164.589
161.003
156.4
151.036
145.209
139.234
133.499
128.423
123.903
120.004
117.008
114.929
113.468
112.183
110.853
109.769
109.22
109.224
54.4132
57.2807
59.3664
60.2223
59.6199
57.9416
55.3518
51.9583
48.0425
43.9383
40.1119
36.2854
32.7774
30.1306
28.2626
26.9628
26.104
25.6769
25.5458
25.5629
25.4431
25.1853
25.0306
4.35409
5.44857
6.28055
6.91604
6.96339
6.54447
5.95408
5.35707
4.79034
4.23377
3.84917
3.15712
2.08707
1.80417
1.86097
1.83013
1.60364
1.45334
1.5916
2.2663
2.87044
2.96506
2.58606
0.587406
0.470698
0.514156
0.799803
1.01369
1.13962
1.33375
1.67009
1.99825
2.12502
1.82452
1.35823
1.09723
1.02217
1.02737
0.971357
0.833354
0.753998
0.81139
1.09031
1.286
1.27617
1.03969
-0.210858
-0.294199
-0.253469
-0.0739641
0.0678048
-0.0275458
-0.102126
-0.0896941
-0.0320766
0.0755454
0.119703
0.189722
0.363338
0.350884
0.313336
0.27105
0.205449
0.10437
0.0486707
0.0506301
-0.0446611
-0.201304
-0.179662
-0.83582
-0.849177
-0.888909
-0.957013
-0.985952
-1.1092
-1.17988
-1.19671
-1.17544
-1.09147
-0.861224
-0.598546
-0.478704
-0.521283
-0.601151
-0.584928
-0.558367
-0.660619
-0.781847
-0.928606
-1.02357
-1.08026
-1.08335
-1.07783
-1.1113
-1.1229
-1.16126
-1.2526
-1.32082
-1.3552
-1.37314
-1.37399
-1.35984
-1.31793
-1.23822
-1.23189
-1.27534
-1.28515
-1.25988
-1.24664
-1.26538
-1.31346
-1.35329
-1.33919
-1.32106
-1.33448
-1.25884
-1.28266
-1.31493
-1.36413
-1.43077
-1.48254
-1.50264
-1.51231
-1.51613
-1.52176
-1.54048
-1.55793
-1.55372
-1.5416
-1.53793
-1.54156
-1.54174
-1.52379
-1.50311
-1.48858
-1.48321
-1.47714
-1.48198
-1.49771
-1.52751
-1.56843
-1.62552
-1.65996
-1.66236
-1.65562
-1.65458
-1.65359
-1.65597
-1.66459
-1.66704
-1.66334
-1.66028
-1.66238
-1.6613
-1.65452
-1.64183
-1.62866
-1.62213
-1.6178
-1.6133
-1.61475
-1.75969
-1.79539
-1.82357
-1.85052
-1.85027
-1.82605
-1.80699
-1.79903
-1.79659
-1.80041
-1.81015
-1.81252
-1.80661
-1.79896
-1.79509
-1.79015
-1.78258
-1.77212
-1.76249
-1.75549
-1.75057
-1.74711
-1.74706
-1.96024
-1.9964
-2.0063
-1.99656
-1.98486
-1.97112
-1.95921
-1.95174
-1.94966
-1.95165
-1.95267
-1.95082
-1.94563
-1.93764
-1.9273
-1.91943
-1.91243
-1.90451
-1.89608
-1.88872
-1.8831
-1.88006
-1.87901
-2.10624
-2.12601
-2.12475
-2.12016
-2.11286
-2.10566
-2.10245
-2.09784
-2.09303
-2.08742
-2.08021
-2.07616
-2.07191
-2.06405
-2.05462
-2.0471
-2.04094
-2.03489
-2.02826
-2.02175
-2.01589
-2.01197
-2.00995
-2.23215
-2.24359
-2.24407
-2.24175
-2.23659
-2.23066
-2.22547
-2.22032
-2.21517
-2.20979
-2.20429
-2.19936
-2.19398
-2.18727
-2.17997
-2.17334
-2.16752
-2.16241
-2.15754
-2.15238
-2.14725
-2.14266
-2.13988
-2.35705
-2.3657
-2.36553
-2.36326
-2.35882
-2.35359
-2.3484
-2.34319
-2.33803
-2.33283
-2.32757
-2.32246
-2.31707
-2.31107
-2.30483
-2.29896
-2.29361
-2.28873
-2.28419
-2.27989
-2.2757
-2.27182
-2.26887
-2.48161
-2.48967
-2.48728
-2.48442
-2.48015
-2.47529
-2.47033
-2.46536
-2.46042
-2.45548
-2.4505
-2.44554
-2.44042
-2.43501
-2.42953
-2.42429
-2.41941
-2.41489
-2.41068
-2.40672
-2.40303
-2.39975
-2.39707
-2.60335
-2.60986
-2.60708
-2.60429
-2.60032
-2.59588
-2.59135
-2.58682
-2.5823
-2.57777
-2.57319
-2.56857
-2.56384
-2.55898
-2.55411
-2.54942
-2.54498
-2.54084
-2.53697
-2.53337
-2.53006
-2.52713
-2.52465
-2.72189
-2.72601
-2.72481
-2.72257
-2.71927
-2.71552
-2.71165
-2.70774
-2.70379
-2.69977
-2.69568
-2.6915
-2.68723
-2.68288
-2.67855
-2.67434
-2.67032
-2.66653
-2.66299
-2.6597
-2.6567
-2.65403
-2.6517
-2.83971
-2.84098
-2.84096
-2.83972
-2.83742
-2.83459
-2.83153
-2.82835
-2.82505
-2.82161
-2.81803
-2.81433
-2.81053
-2.80667
-2.80281
-2.79903
-2.79539
-2.79194
-2.78869
-2.78568
-2.78292
-2.78045
-2.77827
-2.95862
-2.95739
-2.95733
-2.95686
-2.95554
-2.95362
-2.95138
-2.94892
-2.94626
-2.94339
-2.94033
-2.9371
-2.93375
-2.93032
-2.92688
-2.92348
-2.92019
-2.91705
-2.91408
-2.91131
-2.90877
-2.90648
-2.90443
-3.07874
-3.07619
-3.0753
-3.07499
-3.07429
-3.0731
-3.07155
-3.06971
-3.06761
-3.06525
-3.06266
-3.05987
-3.05693
-3.05389
-3.05082
-3.04777
-3.04479
-3.04193
-3.03922
-3.03668
-3.03433
-3.03222
-3.03031
-3.19951
-3.19668
-3.19505
-3.1945
-3.19405
-3.19332
-3.19226
-3.1909
-3.18924
-3.1873
-3.18511
-3.1827
-3.18012
-3.17744
-3.1747
-3.17196
-3.16927
-3.16667
-3.1642
-3.16187
-3.15972
-3.15778
-3.15602
-3.32057
-3.31797
-3.31606
-3.31525
-3.31483
-3.31432
-3.31357
-3.31253
-3.3112
-3.3096
-3.30773
-3.30565
-3.30339
-3.30102
-3.29858
-3.29612
-3.2937
-3.29135
-3.28911
-3.287
-3.28504
-3.28326
-3.28165
-3.44193
-3.4397
-3.43785
-3.43689
-3.43642
-3.436
-3.43542
-3.4346
-3.43351
-3.43216
-3.43056
-3.42875
-3.42677
-3.42468
-3.42251
-3.42032
-3.41815
-3.41604
-3.41402
-3.41211
-3.41034
-3.40874
-3.40729
-3.56366
-3.56178
-3.56008
-3.55908
-3.55858
-3.55821
-3.55774
-3.55706
-3.55614
-3.55498
-3.5536
-3.55202
-3.55029
-3.54844
-3.54653
-3.54459
-3.54266
-3.54078
-3.53898
-3.53727
-3.53568
-3.53424
-3.53295
-3.68574
-3.68413
-3.6826
-3.68161
-3.68112
-3.68083
-3.68044
-3.67985
-3.67906
-3.67805
-3.67684
-3.67546
-3.67395
-3.67233
-3.67065
-3.66895
-3.66725
-3.66559
-3.66399
-3.66247
-3.66106
-3.65979
-3.65864
-3.80811
-3.80676
-3.8053
-3.8043
-3.80395
-3.80382
-3.8035
-3.80298
-3.80226
-3.80136
-3.80029
-3.79908
-3.79775
-3.79634
-3.79488
-3.79339
-3.79191
-3.79045
-3.78905
-3.78772
-3.78648
-3.78535
-3.78434
-3.9313
-3.9299
-3.92859
-3.9277
-3.92729
-3.92729
-3.92699
-3.92644
-3.92574
-3.92491
-3.92394
-3.92287
-3.92171
-3.92048
-3.91921
-3.91792
-3.91663
-3.91537
-3.91416
-3.913
-3.91191
-3.91093
-3.91004
-4.05606
-4.05459
-4.05341
-4.05255
-4.05193
-4.05152
-4.05092
-4.05024
-4.04949
-4.04868
-4.04778
-4.04682
-4.0458
-4.04473
-4.04363
-4.04252
-4.04142
-4.04034
-4.03929
-4.03829
-4.03735
-4.03649
-4.03572
-4.18155
-4.18034
-4.1792
-4.1783
-4.17739
-4.17614
-4.17511
-4.17426
-4.17344
-4.17263
-4.17179
-4.17091
-4.17001
-4.16908
-4.16814
-4.16719
-4.16625
-4.16533
-4.16443
-4.16358
-4.16277
-4.16203
-4.16137
-4.30586
-4.30518
-4.30424
-4.30319
-4.30189
-4.30044
-4.29929
-4.29836
-4.29751
-4.29671
-4.29592
-4.29513
-4.29433
-4.29353
-4.29272
-4.29192
-4.29112
-4.29034
-4.28958
-4.28885
-4.28816
-4.28754
-4.28696
-4.42933
-4.42876
-4.42794
-4.42687
-4.42564
-4.42443
-4.42338
-4.42247
-4.42165
-4.42089
-4.42016
-4.41945
-4.41875
-4.41805
-4.41737
-4.41669
-4.41602
-4.41537
-4.41473
-4.41412
-4.41353
-4.413
-4.41251
-4.55277
-4.55209
-4.55125
-4.55033
-4.54933
-4.54834
-4.54743
-4.5466
-4.54585
-4.54515
-4.54448
-4.54385
-4.54323
-4.54264
-4.54206
-4.5415
-4.54095
-4.54041
-4.53988
-4.53937
-4.53887
-4.53843
-4.53802
-4.67627
-4.67557
-4.67474
-4.67392
-4.6731
-4.67228
-4.67151
-4.67079
-4.67012
-4.66948
-4.66888
-4.66831
-4.66778
-4.66728
-4.6668
-4.66634
-4.66589
-4.66545
-4.66502
-4.6646
-4.66419
-4.66382
-4.66348
-4.79989
-4.79917
-4.79837
-4.79764
-4.79696
-4.7963
-4.79567
-4.79505
-4.79445
-4.79388
-4.79334
-4.79284
-4.79237
-4.79195
-4.79157
-4.79121
-4.79085
-4.79051
-4.79016
-4.78982
-4.78949
-4.78919
-4.78891
-4.92361
-4.92288
-4.92211
-4.92146
-4.92092
-4.92042
-4.91991
-4.91939
-4.91887
-4.91835
-4.91786
-4.9174
-4.91699
-4.91665
-4.91636
-4.91609
-4.91583
-4.91557
-4.91531
-4.91505
-4.91478
-4.91454
-4.91432
-5.04745
-5.04669
-5.04593
-5.04537
-5.04498
-5.04464
-5.04426
-5.04383
-5.04336
-5.04288
-5.04241
-5.04198
-5.04162
-5.04136
-5.04117
-5.041
-5.04084
-5.04066
-5.04047
-5.04027
-5.04007
-5.03988
-5.03971
-5.17139
-5.17058
-5.16979
-5.16932
-5.16912
-5.16898
-5.16873
-5.16837
-5.16793
-5.16746
-5.16699
-5.16656
-5.16622
-5.16605
-5.16599
-5.16594
-5.16587
-5.16577
-5.16565
-5.1655
-5.16535
-5.16521
-5.16508
-5.29542
-5.29451
-5.29369
-5.29334
-5.2934
-5.29352
-5.29338
-5.29304
-5.29259
-5.29209
-5.29158
-5.2911
-5.29073
-5.2907
-5.29084
-5.29093
-5.29095
-5.29092
-5.29085
-5.29075
-5.29064
-5.29053
-5.29043
-5.41952
-5.41852
-5.41772
-5.41761
-5.41809
-5.41857
-5.41837
-5.4179
-5.41734
-5.41674
-5.41611
-5.41546
-5.41488
-5.41514
-5.4157
-5.416
-5.41611
-5.41612
-5.41608
-5.41602
-5.41593
-5.41585
-5.41577
-5.54364
-5.54302
-5.54226
-5.54245
-5.54372
-5.54462
-5.54389
-5.54302
-5.5422
-5.54139
-5.54051
-5.53949
-5.53821
-5.53897
-5.54053
-5.54118
-5.54136
-5.54138
-5.54135
-5.54129
-5.54122
-5.54115
-5.54108
-5.66697
-5.66866
-5.66734
-5.66765
-5.66997
-5.67016
-5.66885
-5.6678
-5.66698
-5.66622
-5.66534
-5.66407
-5.66242
-5.66266
-5.66533
-5.66625
-5.66649
-5.66654
-5.66654
-5.66652
-5.66649
-5.66646
-5.66644
227.811
226.958
226.57
225.865
107.785
107.248
107.035
106.594
24.6228
24.4047
24.2737
24.0963
1.92425
1.5259
1.26413
1.15118
0.742714
0.604273
0.516294
0.465455
-0.159987
-0.160485
-0.148302
-0.160284
-1.009
-0.946821
-0.891157
-0.866854
-1.34762
-1.34257
-1.32706
-1.32387
-1.4882
-1.49585
-1.50187
-1.50233
-1.61741
-1.61972
-1.62188
-1.623
-1.74877
-1.75024
-1.75157
-1.75261
-1.87973
-1.88055
-1.88089
-1.88116
-2.00968
-2.00984
-2.00978
-2.0091
-2.13884
-2.13843
-2.13808
-2.13758
-2.2674
-2.2666
-2.26588
-2.26522
-2.39542
-2.39436
-2.39335
-2.3924
-2.52294
-2.52172
-2.5205
-2.51937
-2.64996
-2.64866
-2.64731
-2.64609
-2.77654
-2.7752
-2.7738
-2.77256
-2.90274
-2.90141
-2.90003
-2.89882
-3.02869
-3.02741
-3.02608
-3.02494
-3.15449
-3.15329
-3.15204
-3.15098
-3.28025
-3.27912
-3.27796
-3.27699
-3.406
-3.40497
-3.40389
-3.403
-3.53179
-3.53084
-3.52984
-3.52901
-3.6576
-3.65673
-3.6558
-3.65503
-3.78341
-3.78262
-3.78176
-3.78104
-3.90922
-3.90849
-3.9077
-3.90703
-4.03499
-4.03433
-4.0336
-4.03298
-4.16072
-4.16012
-4.15945
-4.15888
-4.28639
-4.28586
-4.28524
-4.28472
-4.41201
-4.41153
-4.41098
-4.41051
-4.53758
-4.53716
-4.53667
-4.53625
-4.66311
-4.66274
-4.6623
-4.66193
-4.7886
-4.78828
-4.7879
-4.78758
-4.91406
-4.91378
-4.91346
-4.91319
-5.03949
-5.03926
-5.03899
-5.03876
-5.1649
-5.16472
-5.16449
-5.16431
-5.2903
-5.29015
-5.28997
-5.28982
-5.41567
-5.41556
-5.41543
-5.41532
-5.54101
-5.54093
-5.54084
-5.54077
-5.6664
-5.66637
-5.66634
-5.66631
225.413
221.221
217.645
214.508
211.488
207.724
204.866
205.196
207.31
207.108
204.957
204.112
204.573
202.439
198.282
192.068
186.568
184.542
185.59
105.242
101.633
98.5731
96.9369
98.4793
100.679
100.515
99.3368
97.7303
95.5429
92.8755
90.2817
87.9172
85.261
81.3059
76.8509
73.9395
74.0758
75.8311
23.4982
21.9863
20.7703
20.4509
23.1605
27.3622
29.1287
28.268
26.0411
23.8548
21.7915
19.5846
17.5732
15.726
13.5208
11.5418
11.1358
12.5192
14.2286
1.1386
1.23078
1.28717
1.26545
1.06236
0.752108
0.548901
0.272642
-0.0185783
-0.390418
-0.629853
-0.696908
-0.741628
-0.798108
-0.802688
-0.763778
-0.729677
-0.730962
-0.770679
0.433329
0.377065
0.30237
0.222299
0.182195
0.0964907
0.00275262
-0.140854
-0.375509
-0.596012
-0.733442
-0.79096
-0.824042
-0.858559
-0.883857
-0.894774
-0.896204
-0.894083
-0.88985
-0.209006
-0.293558
-0.406613
-0.491917
-0.556143
-0.654722
-0.755036
-0.835871
-0.920252
-0.970546
-1.00006
-1.01547
-1.01869
-1.01824
-1.02384
-1.02873
-1.02832
-1.02507
-1.02034
-0.91896
-0.98041
-1.04079
-1.07852
-1.13552
-1.18854
-1.22098
-1.22574
-1.21656
-1.2017
-1.18445
-1.18135
-1.18278
-1.1769
-1.17155
-1.16961
-1.16618
-1.16437
-1.16116
-1.34727
-1.35989
-1.35995
-1.35833
-1.3563
-1.34563
-1.34132
-1.34294
-1.33943
-1.33074
-1.32056
-1.31646
-1.31752
-1.31989
-1.31715
-1.31028
-1.3051
-1.30388
-1.30511
-1.49722
-1.49242
-1.48643
-1.48234
-1.47984
-1.47662
-1.47441
-1.47337
-1.46868
-1.46
-1.45128
-1.44713
-1.44793
-1.44947
-1.44755
-1.44376
-1.44103
-1.44283
-1.44882
-1.62362
-1.6215
-1.61783
-1.61524
-1.61407
-1.61249
-1.61047
-1.60715
-1.59994
-1.59066
-1.58463
-1.58221
-1.58266
-1.58302
-1.58196
-1.58078
-1.58064
-1.58385
-1.58873
-1.753
-1.75036
-1.74739
-1.74594
-1.74558
-1.74433
-1.74212
-1.73846
-1.73292
-1.72741
-1.7243
-1.72378
-1.72499
-1.72518
-1.72226
-1.72012
-1.71967
-1.71956
-1.72079
-1.87995
-1.877
-1.87467
-1.87341
-1.87269
-1.87145
-1.86963
-1.86783
-1.86683
-1.86736
-1.86643
-1.86539
-1.86429
-1.86188
-1.85755
-1.85299
-1.85021
-1.85018
-1.85196
-2.00748
-2.00488
-2.00259
-2.00103
-2.00033
-1.99947
-1.9984
-1.99757
-1.99796
-1.99912
-1.99969
-1.99851
-1.99525
-1.99123
-1.98786
-1.98452
-1.98303
-1.98388
-1.98581
-2.13639
-2.13395
-2.13146
-2.12947
-2.12843
-2.12765
-2.12713
-2.12648
-2.12601
-2.12584
-2.12551
-2.12434
-2.12225
-2.12018
-2.11916
-2.11801
-2.1173
-2.11755
-2.11847
-2.26418
-2.2624
-2.26041
-2.25842
-2.25667
-2.25542
-2.25458
-2.25385
-2.2532
-2.25276
-2.25218
-2.25119
-2.24983
-2.24867
-2.2484
-2.24851
-2.24821
-2.24777
-2.2474
-2.39107
-2.38956
-2.38813
-2.38639
-2.38444
-2.38298
-2.38196
-2.38113
-2.38044
-2.37989
-2.37931
-2.37854
-2.37764
-2.37697
-2.37682
-2.37693
-2.377
-2.37705
-2.37622
-2.51786
-2.51622
-2.51472
-2.5132
-2.5116
-2.51028
-2.50927
-2.50844
-2.50775
-2.50716
-2.50661
-2.50605
-2.5055
-2.50516
-2.50521
-2.50554
-2.50604
-2.5068
-2.50608
-2.64449
-2.64285
-2.64136
-2.63993
-2.63856
-2.6374
-2.63647
-2.63571
-2.63506
-2.63449
-2.63399
-2.63358
-2.63328
-2.6332
-2.63343
-2.63396
-2.63472
-2.63593
-2.63509
-2.77097
-2.76938
-2.76795
-2.76663
-2.76542
-2.76438
-2.76353
-2.76284
-2.76228
-2.7618
-2.76139
-2.7611
-2.76096
-2.76104
-2.7614
-2.76203
-2.76281
-2.76401
-2.76326
-2.89731
-2.89582
-2.89448
-2.89327
-2.89218
-2.89126
-2.89049
-2.88986
-2.88937
-2.88899
-2.8887
-2.88852
-2.88848
-2.88865
-2.88908
-2.88974
-2.89054
-2.89126
-2.89071
-3.02355
-3.02218
-3.02095
-3.01984
-3.01887
-3.01804
-3.01735
-3.0168
-3.01637
-3.01606
-3.01586
-3.01575
-3.0158
-3.01602
-3.01645
-3.01708
-3.01782
-3.01825
-3.01778
-3.14971
-3.14848
-3.14736
-3.14636
-3.14548
-3.14475
-3.14414
-3.14366
-3.14329
-3.14304
-3.14288
-3.14284
-3.14292
-3.14314
-3.14351
-3.14404
-3.14462
-3.14481
-3.14455
-3.27584
-3.27473
-3.27373
-3.27282
-3.27205
-3.27139
-3.27086
-3.27044
-3.27012
-3.26991
-3.26979
-3.26977
-3.26984
-3.27
-3.27026
-3.27059
-3.27088
-3.27063
-3.27003
-3.40196
-3.40097
-3.40006
-3.39925
-3.39856
-3.39798
-3.39751
-3.39714
-3.39687
-3.39668
-3.39658
-3.39654
-3.39657
-3.39664
-3.39674
-3.39681
-3.39668
-3.39588
-3.39456
-3.52806
-3.52718
-3.52637
-3.52564
-3.52502
-3.5245
-3.52409
-3.52376
-3.52352
-3.52335
-3.52324
-3.52318
-3.52314
-3.5231
-3.52302
-3.52281
-3.52227
-3.52106
-3.51944
-3.65416
-3.65336
-3.65264
-3.65198
-3.65142
-3.65096
-3.65059
-3.6503
-3.65008
-3.64991
-3.64979
-3.64969
-3.64958
-3.64943
-3.64917
-3.6487
-3.64781
-3.6463
-3.64455
-3.78024
-3.77952
-3.77887
-3.77827
-3.77777
-3.77736
-3.77702
-3.77675
-3.77654
-3.77637
-3.77623
-3.7761
-3.77593
-3.77567
-3.77526
-3.77458
-3.7734
-3.77164
-3.76974
-3.90629
-3.90564
-3.90505
-3.90452
-3.90406
-3.90368
-3.90337
-3.90312
-3.90292
-3.90275
-3.9026
-3.90243
-3.9022
-3.90187
-3.90136
-3.90052
-3.89915
-3.89723
-3.89512
-4.0323
-4.03172
-4.03119
-4.0307
-4.03029
-4.02994
-4.02966
-4.02942
-4.02923
-4.02906
-4.02889
-4.0287
-4.02844
-4.02807
-4.0275
-4.0266
-4.02518
-4.02324
-4.02114
-4.15825
-4.15774
-4.15727
-4.15683
-4.15645
-4.15614
-4.15588
-4.15566
-4.15547
-4.1553
-4.15513
-4.15492
-4.15465
-4.15427
-4.15369
-4.15281
-4.15144
-4.14956
-4.14765
-4.28416
-4.28371
-4.28328
-4.28289
-4.28255
-4.28227
-4.28203
-4.28183
-4.28165
-4.28149
-4.28132
-4.28112
-4.28085
-4.28047
-4.27992
-4.2791
-4.27782
-4.27601
-4.27412
-4.41001
-4.40961
-4.40924
-4.40889
-4.40859
-4.40834
-4.40812
-4.40794
-4.40778
-4.40763
-4.40747
-4.40728
-4.40702
-4.40666
-4.40616
-4.40542
-4.40427
-4.40254
-4.40064
-4.53581
-4.53546
-4.53514
-4.53484
-4.53457
-4.53435
-4.53416
-4.534
-4.53387
-4.53373
-4.53359
-4.5334
-4.53316
-4.53284
-4.53239
-4.53174
-4.53073
-4.52912
-4.52733
-4.66155
-4.66126
-4.66098
-4.66072
-4.66049
-4.6603
-4.66015
-4.66002
-4.6599
-4.65979
-4.65966
-4.6595
-4.65927
-4.65897
-4.65856
-4.65799
-4.65709
-4.65559
-4.654
-4.78725
-4.78701
-4.78677
-4.78655
-4.78636
-4.7862
-4.78608
-4.78598
-4.7859
-4.78582
-4.78571
-4.78556
-4.78534
-4.78506
-4.78467
-4.78413
-4.78327
-4.78179
-4.7802
-4.91291
-4.9127
-4.91251
-4.91232
-4.91217
-4.91205
-4.91196
-4.9119
-4.91186
-4.91181
-4.91173
-4.91159
-4.91137
-4.91109
-4.91071
-4.91017
-4.90931
-4.90783
-4.90617
-5.03853
-5.03836
-5.0382
-5.03805
-5.03793
-5.03785
-5.0378
-5.03778
-5.03778
-5.03778
-5.03773
-5.03759
-5.03737
-5.03707
-5.0367
-5.03617
-5.03532
-5.03391
-5.03236
-5.16412
-5.16398
-5.16385
-5.16374
-5.16365
-5.16359
-5.16358
-5.16361
-5.16367
-5.16373
-5.16372
-5.16358
-5.16333
-5.16303
-5.16265
-5.16216
-5.16137
-5.16009
-5.15869
-5.28967
-5.28956
-5.28946
-5.28937
-5.28931
-5.28929
-5.28931
-5.28939
-5.28952
-5.28969
-5.28975
-5.28959
-5.28929
-5.28895
-5.28859
-5.28815
-5.28747
-5.28635
-5.28512
-5.4152
-5.41511
-5.41503
-5.41496
-5.41492
-5.41491
-5.41496
-5.41508
-5.41532
-5.41573
-5.416
-5.41574
-5.41531
-5.4149
-5.41453
-5.41416
-5.41363
-5.41271
-5.41167
-5.54069
-5.54062
-5.54056
-5.54051
-5.54048
-5.54048
-5.54054
-5.54068
-5.54109
-5.54209
-5.54275
-5.54209
-5.54142
-5.54088
-5.54047
-5.54017
-5.53984
-5.53917
-5.53838
-5.66627
-5.66624
-5.66621
-5.66618
-5.66616
-5.66615
-5.66619
-5.6663
-5.66677
-5.66833
-5.66862
-5.66769
-5.66711
-5.66663
-5.66629
-5.66618
-5.66621
-5.66588
-5.66526
)
;

boundaryField
{
    leftWall
    {
        type            calculated;
        value           nonuniform List<scalar> 
50
(
794.231
735.024
675.778
616.556
557.394
498.324
439.357
380.442
288.338
163.403
54.4132
4.35409
0.587406
-0.210858
-0.83582
-1.07783
-1.25884
-1.49771
-1.75969
-1.96024
-2.10624
-2.23215
-2.35705
-2.48161
-2.60335
-2.72189
-2.83971
-2.95862
-3.07874
-3.19951
-3.32057
-3.44193
-3.56366
-3.68574
-3.80811
-3.9313
-4.05606
-4.18155
-4.30586
-4.42933
-4.55277
-4.67627
-4.79989
-4.92361
-5.04745
-5.17139
-5.29542
-5.41952
-5.54364
-5.66697
)
;
    }
    rightWall
    {
        type            calculated;
        value           nonuniform List<scalar> 
50
(
692.694
633.862
574.613
515.131
455.611
396.187
336.922
277.862
185.59
75.8311
14.2286
-0.770679
-0.88985
-1.02034
-1.16116
-1.30511
-1.44882
-1.58873
-1.72079
-1.85196
-1.98581
-2.11847
-2.2474
-2.37622
-2.50608
-2.63509
-2.76326
-2.89071
-3.01778
-3.14455
-3.27003
-3.39456
-3.51944
-3.64455
-3.76974
-3.89512
-4.02114
-4.14765
-4.27412
-4.40064
-4.52733
-4.654
-4.7802
-4.90617
-5.03236
-5.15869
-5.28512
-5.41167
-5.53838
-5.66526
)
;
    }
    lowerWall
    {
        type            calculated;
        value           nonuniform List<scalar> 
62
(
823.661
824.497
824.576
823.635
821.797
819.191
815.928
812.134
807.943
803.494
798.928
794.374
789.945
785.722
781.752
778.061
774.551
770.998
768.757
768.218
768.569
769.656
771.472
742.158
683.949
625.53
566.801
507.856
448.773
389.512
329.702
290.408
289.555
289.168
288.462
712.729
656.252
599.794
543.784
487.809
431.874
374.887
316.734
740.732
742.107
742.823
741.208
738.258
734.995
731.992
728.182
723.094
721.053
721.135
720.659
718.623
716.389
715.439
717.742
721.145
722.554
721.641
)
;
    }
    atmosphere
    {
        type            calculated;
        value           nonuniform List<scalar> 
46
(
-5.72921
-5.72921
-5.7291
-5.72906
-5.72904
-5.72904
-5.72904
-5.72904
-5.72904
-5.72904
-5.72904
-5.72904
-5.72904
-5.72904
-5.72904
-5.72905
-5.72906
-5.72907
-5.72909
-5.7291
-5.72912
-5.72913
-5.72914
-5.72915
-5.72915
-5.72915
-5.72914
-5.72914
-5.72913
-5.72912
-5.72911
-5.72909
-5.72908
-5.72907
-5.72906
-5.72905
-5.72904
-5.72904
-5.72904
-5.72904
-5.72904
-5.72904
-5.72928
-5.72993
-5.72993
-5.72926
)
;
    }
    defaultFaces
    {
        type            empty;
    }
}


// ************************************************************************* //
