/*--------------------------------*- C++ -*----------------------------------*\
| =========                 |                                                 |
| \\      /  F ield         | OpenFOAM: The Open Source CFD Toolbox           |
|  \\    /   O peration     | Version:  2.3.0                                 |
|   \\  /    A nd           | Web:      www.OpenFOAM.org                      |
|    \\/     M anipulation  |                                                 |
\*---------------------------------------------------------------------------*/
FoamFile
{
    version     2.0;
    format      ascii;
    class       volScalarField;
    location    "3";
    object      p_rgh;
}
// * * * * * * * * * * * * * * * * * * * * * * * * * * * * * * * * * * * * * //

dimensions      [1 -1 -2 0 0 0 0];

internalField   nonuniform List<scalar> 
2268
(
823.661
824.497
824.576
823.635
821.797
819.191
815.928
812.134
807.943
803.494
798.928
794.374
789.945
785.722
781.752
778.061
774.551
770.998
768.757
768.218
768.569
769.656
771.472
823.312
823.956
824.014
823.117
821.367
818.854
815.675
811.949
807.812
803.406
798.876
794.354
789.954
785.757
781.807
778.145
773.965
770.835
768.999
767.79
768.571
770.03
771.89
822.925
823.441
823.46
822.575
820.907
818.493
815.402
811.747
807.663
803.297
798.8
794.314
789.953
785.801
781.918
778.409
775.013
770.993
769.218
768.051
767.621
769.909
772.393
822.562
823.105
823.17
822.305
820.686
818.331
815.288
811.662
807.589
803.224
798.729
794.254
789.92
785.818
782.022
778.653
776.159
773.816
770.634
769.623
770.022
770.858
772.795
822.258
822.915
823.117
822.319
820.741
818.412
815.374
811.729
807.618
803.207
798.671
794.173
789.843
785.771
782.043
778.766
776.254
774.51
773.087
771.881
771.153
771.426
772.719
822.047
822.862
823.254
822.567
821.039
818.719
815.652
811.944
807.749
803.245
798.625
794.069
789.711
785.641
781.945
778.719
776.177
774.307
772.815
771.631
771.008
771.46
772.495
821.939
822.955
823.567
823.02
821.549
819.225
816.102
812.293
807.972
803.334
798.594
793.948
789.539
785.446
781.749
778.543
775.969
774.003
772.443
771.27
770.74
771.344
772.092
821.881
823.127
823.976
823.59
822.172
819.831
816.633
812.704
808.239
803.453
798.586
793.856
789.401
785.275
781.554
778.342
775.736
773.686
772.036
770.8
770.227
770.599
771.142
740.732
742.107
742.823
741.208
738.258
734.995
731.992
728.182
723.094
721.053
721.135
720.659
718.623
716.389
715.439
717.742
721.145
722.554
721.641
741.192
743.854
743.269
741.45
738.745
735.796
732.823
729.524
723.634
721.641
722.709
721.577
720.39
717.666
715.977
716.839
719.759
721.79
721.436
739.182
743.551
743.429
741.377
738.737
736.044
733.422
730.66
728.961
724.939
724.188
722.285
721.089
718.539
715.831
715.918
718.398
720.361
720.966
738.924
742.022
744.379
741.831
738.741
735.741
733.975
731.552
731.062
729.447
724.709
722.616
720.78
716.601
714.933
715.203
717.383
718.912
720.01
738.703
745.604
745.659
742.578
739.341
735.998
734.611
732.245
727.75
711.667
710.535
704.927
698.438
694.683
699.246
711.786
716.643
717.536
718.847
738.522
750.29
746.83
743.398
740.163
736.299
735.202
725.476
706.472
705.618
702.949
700.975
695.243
692.32
687.796
698.465
716.276
716.38
717.926
751.224
752.143
747.829
744.268
740.508
736.309
734.976
724.379
705.663
705.578
717.893
719.125
693.618
690.601
686.153
691.468
716.288
715.584
717.403
758.146
752.95
748.898
745.396
739.627
732.821
731.634
734.575
728.954
724.222
734.804
732.114
698.991
688.555
684.383
709.801
716.441
715.181
716.873
821.786
823.385
824.616
824.52
823.183
820.801
817.477
813.349
808.645
803.614
798.536
793.673
789.134
784.913
781.085
777.819
775.18
773.05
771.247
769.816
768.958
768.45
767.453
821.808
824.278
826.286
826.72
825.598
823.201
819.63
815.037
809.685
803.847
797.337
791.879
784.869
776.105
767.09
758.94
752.286
747.091
743.088
742.986
748.654
756.497
760.205
639.163
663.147
683.959
693.072
692.007
680.096
656.555
623.917
583.227
536.009
480.93
427.958
388.407
355.121
329.404
312.841
304.89
302.875
303.919
300.604
294.375
291.846
293.699
52.5175
72.685
90.736
100.136
98.2834
89.2846
74.348
53.4896
32.7966
15.2831
14.9036
13.5888
8.39708
6.09353
6.37287
6.52439
5.94449
5.74706
5.86625
9.14631
13.5309
14.8356
13.8074
5.52199
5.2832
5.44873
5.86717
6.52203
7.16292
9.59973
15.239
20.5615
22.2145
21.8993
19.0708
5.72461
5.63822
5.85486
6.01833
5.47274
5.33815
5.39375
8.77167
13.4857
15.3388
14.4226
7.85134
4.98637
7.87827
16.4919
17.2725
17.1732
17.1969
17.9987
18.5899
20.398
14.8266
7.0135
5.53816
5.52616
8.61673
9.19872
5.35475
5.24145
5.18773
13.4411
14.5109
12.5629
14.837
2.21904
3.71977
2.40601
2.04492
4.628
1.93321
0.803338
1.04723
1.18269
1.84885
4.27517
7.67213
9.36951
9.46731
9.45072
9.46042
9.47735
5.78826
5.48705
7.43381
4.31093
0.749215
2.09621
0.860779
0.822434
0.578356
0.418242
0.238013
0.159673
0.123829
0.102382
0.0960413
0.103213
2.41763
6.6005
6.53058
3.63468
2.96304
4.31702
5.41453
3.55074
2.04293
0.208922
0.0728601
0.0900339
0.0780145
1.11291
0.995263
1.69342
2.41703
1.84119
0.417045
0.107224
0.0988662
0.0826095
0.0676294
0.0455832
0.0134522
0.017662
0.016663
6.78025e-05
-0.00379993
0.0282385
0.151549
0.0438152
0.0488652
0.0521504
0.0582102
0.0541118
1.61961
2.93517
2.89582
2.82753
2.09172
0.313784
0.0838066
0.0824402
0.0812902
0.0814298
0.228627
0.398553
0.391493
0.0786417
0.000685849
0.00135759
0.00865471
0.0237257
0.0695479
0.0485068
0.0426749
0.0471551
0.0458001
0.875837
2.75819
2.87975
0.659293
-0.060307
-0.0129832
0.10599
0.0939468
0.190859
0.429886
0.420447
0.410089
0.414751
0.416864
0.0518834
-0.00320844
0.0141181
0.094941
0.112816
0.0879454
0.0350898
0.0385129
0.0385732
0.296192
0.870301
0.0347985
-0.0859414
-0.0742501
0.0574232
0.5629
0.571003
0.572774
0.459834
-0.0112342
0.0181533
0.193449
0.120902
-0.0166701
-0.00858257
0.0395009
0.102369
0.110851
0.118084
0.0631924
0.0307158
0.0317635
0.0455346
-0.0091119
-0.0889435
-0.0843476
-0.0770583
-0.0698589
-0.0666454
-0.0620381
-0.0572306
-0.0516139
-0.0444047
-0.0403618
-0.036105
-0.0282483
-0.0188123
-0.0112877
-0.00433913
0.0407677
0.110137
0.115431
0.104623
0.0240006
0.0260007
-0.062981
-0.08256
-0.0830618
-0.0805755
-0.0751298
-0.0695512
-0.0644718
-0.0593248
-0.0541773
-0.048791
-0.0432927
-0.0383669
-0.0329879
-0.0262778
-0.018974
-0.0123409
-0.00651595
-0.000993942
0.0123532
0.037054
0.0510239
0.0326903
0.021272
-0.0706234
-0.0794539
-0.0792876
-0.0767978
-0.0721141
-0.0670171
-0.0622078
-0.0569962
-0.0518355
-0.046635
-0.0413804
-0.0362734
-0.0308772
-0.0248768
-0.0186366
-0.0127688
-0.007418
-0.00253814
0.00199711
0.00630687
0.0105461
0.0157773
0.0187541
-0.0701429
-0.078229
-0.0758419
-0.0729432
-0.0685538
-0.0636832
-0.0589177
-0.0539715
-0.049034
-0.0440959
-0.0391141
-0.0341563
-0.0290322
-0.0236264
-0.0181403
-0.0129013
-0.00802086
-0.00350402
0.000710163
0.00467023
0.00837597
0.0120029
0.0149859
-0.0666613
-0.0731661
-0.0704453
-0.0676941
-0.0637368
-0.0592885
-0.0547477
-0.0502235
-0.0457151
-0.0411836
-0.0366042
-0.0319867
-0.0272586
-0.0223997
-0.0175328
-0.0128367
-0.00840197
-0.00425695
-0.000390294
0.00323461
0.0067079
0.0097012
0.0120282
-0.060069
-0.0641281
-0.0629605
-0.0607669
-0.0574894
-0.053739
-0.0498727
-0.0459627
-0.04201
-0.0379952
-0.0338999
-0.0297242
-0.0254539
-0.02111
-0.0167777
-0.0125656
-0.00854636
-0.00475816
-0.00121548
0.00207298
0.0050897
0.00784718
0.010194
-0.0527258
-0.0539711
-0.0539182
-0.0527126
-0.0504499
-0.0476158
-0.0445592
-0.0413792
-0.0380743
-0.034634
-0.0310587
-0.0273625
-0.0235627
-0.0196979
-0.0158368
-0.012057
-0.00841959
-0.00496611
-0.00172233
0.00129311
0.00405253
0.00651489
0.00869946
-0.0464392
-0.045213
-0.0451268
-0.0446663
-0.0433618
-0.0414516
-0.0392114
-0.0367534
-0.0340905
-0.0312212
-0.0281596
-0.0249354
-0.0215856
-0.0181579
-0.0147145
-0.0113197
-0.00802888
-0.00488438
-0.00191643
0.000852841
0.00339714
0.00567984
0.00772874
-0.0413722
-0.0388167
-0.0379314
-0.0376155
-0.0369202
-0.0357376
-0.0341876
-0.03235
-0.0302463
-0.0278869
-0.0252943
-0.0225059
-0.0195678
-0.0165328
-0.0134603
-0.0104095
-0.0074326
-0.00457205
-0.00185973
0.000681074
0.00302512
0.00513776
0.0070477
-0.0369461
-0.0341138
-0.032491
-0.0319436
-0.0314931
-0.0307606
-0.0297023
-0.0283382
-0.0266804
-0.0247423
-0.0225501
-0.0201429
-0.0175693
-0.0148834
-0.0121427
-0.00940272
-0.00671356
-0.00411695
-0.00164508
0.000678517
0.00282929
0.00477265
0.00653558
-0.0326896
-0.0302163
-0.0283097
-0.0275026
-0.0270786
-0.0265691
-0.0258153
-0.0247789
-0.0234528
-0.0218453
-0.0199813
-0.0178986
-0.0156441
-0.0132694
-0.0108283
-0.00837354
-0.00595231
-0.00360487
-0.00136277
0.000750712
0.00271158
0.00448456
0.00609336
-0.0288229
-0.0266533
-0.0248773
-0.023946
-0.0234754
-0.0230577
-0.0224769
-0.0216551
-0.020567
-0.0192134
-0.0176147
-0.0158057
-0.0138299
-0.0117345
-0.00956783
-0.00737863
-0.00521061
-0.00310153
-0.00108149
0.00082694
0.00260045
0.0042031
0.00565526
-0.0253499
-0.0234644
-0.0218573
-0.0209429
-0.0204419
-0.0200739
-0.0195978
-0.0189172
-0.0179993
-0.0168403
-0.015457
-0.0138804
-0.0121495
-0.0103065
-0.00839352
-0.00645372
-0.00452654
-0.00264647
-0.000841533
0.000867003
0.0024569
0.00389214
0.00519027
-0.0223565
-0.0207256
-0.0192213
-0.0182706
-0.0177904
-0.0174951
-0.0171032
-0.0165205
-0.0157248
-0.0147152
-0.0135072
-0.0121285
-0.0106138
-0.00899935
-0.0073208
-0.00561494
-0.00391621
-0.00225532
-0.000657502
0.000857869
0.0022702
0.00354415
0.00469504
-0.0195818
-0.0182296
-0.0167686
-0.0157713
-0.0154232
-0.015288
-0.0149742
-0.0144495
-0.0137318
-0.0128311
-0.0117628
-0.0105515
-0.00922624
-0.0078174
-0.00635374
-0.0048653
-0.00338111
-0.00192757
-0.000526631
0.00080487
0.00204846
0.0031701
0.00418341
0.0220477
-0.00661558
0.0134019
0.0337748
0.00426713
-0.0133646
-0.0132627
-0.0127197
-0.0120213
-0.0111844
-0.0102202
-0.0091465
-0.00798505
-0.00675864
-0.00548919
-0.00420001
-0.00291434
-0.00165391
-0.000436952
0.00072258
0.00180863
0.00278888
0.00367556
0.0752327
0.0776823
0.0803574
0.0812227
0.0800982
-0.00317182
-0.011996
-0.0113211
-0.0105778
-0.00976046
-0.00886728
-0.00790406
-0.00688204
-0.00581534
-0.00471929
-0.00361014
-0.00250535
-0.00142185
-0.000373968
0.000627364
0.00156855
0.0024193
0.00319054
0.0465796
0.0815596
0.0827123
0.0836071
0.0463998
-0.00905933
-0.0110018
-0.0101466
-0.00933508
-0.00851817
-0.00767696
-0.00680475
-0.0059025
-0.00497599
-0.00403357
-0.00308534
-0.00214327
-0.00121962
-0.000324874
0.000532959
0.00134261
0.00207591
0.00274264
-0.0148034
0.0240217
0.036358
0.0131369
-0.0101019
-0.0108551
-0.00997489
-0.00905157
-0.00820916
-0.00740643
-0.00661679
-0.00582649
-0.00503002
-0.00422724
-0.00342086
-0.00261568
-0.00181875
-0.00103797
-0.000280332
0.000448773
0.00114013
0.00176769
0.00234022
-0.0148319
-0.0142557
-0.0134207
-0.0123613
-0.011138
-0.00993131
-0.00887156
-0.00796654
-0.00715245
-0.00639059
-0.00566043
-0.00494857
-0.00424798
-0.00355565
-0.00287028
-0.00219226
-0.00152429
-0.00087045
-0.000234689
0.000379727
0.000965268
0.001498
0.0019857
-0.0130738
-0.0123946
-0.0115549
-0.0106335
-0.00964281
-0.00864781
-0.00773478
-0.00691085
-0.00615785
-0.00545557
-0.00479046
-0.00415396
-0.00354102
-0.0029482
-0.00237138
-0.00180708
-0.00125405
-0.000713038
-0.000185548
0.000326772
0.000817692
0.00126532
0.00167644
-0.0113863
-0.01068
-0.00985568
-0.00903136
-0.00820865
-0.00739559
-0.00662528
-0.00590475
-0.00522982
-0.00459437
-0.00399435
-0.00342792
-0.00289433
-0.00239181
-0.00191401
-0.00145307
-0.00100379
-0.000564013
-0.000133353
0.000287626
0.00069363
0.00106468
0.00140651
-0.00980457
-0.00908478
-0.00828813
-0.00755408
-0.00687615
-0.00622227
-0.00558636
-0.00496937
-0.0043736
-0.00380259
-0.00326135
-0.002756
-0.00229229
-0.00187295
-0.00148859
-0.00112466
-0.000771413
-0.000424121
-8.11023e-05
0.00025759
0.000587175
0.000889374
0.00116879
-0.00833605
-0.00760486
-0.00683353
-0.00618668
-0.00564798
-0.00514583
-0.00463792
-0.0041178
-0.00359299
-0.00307578
-0.0025804
-0.00212233
-0.00171686
-0.00137665
-0.00108624
-0.000818414
-0.000557502
-0.000296679
-3.38961e-05
0.000230508
0.000491647
0.000732598
0.000956612
-0.00697878
-0.00622139
-0.00545938
-0.0048978
-0.00451155
-0.00417405
-0.00379335
-0.00335976
-0.00289047
-0.00240892
-0.00193954
-0.00150904
-0.00114667
-0.000886536
-0.000699785
-0.000533959
-0.000365749
-0.000187423
1.77034e-06
0.000199823
0.00040076
0.000588521
0.000764672
-0.00572811
-0.00491156
-0.00412939
-0.00365635
-0.00345718
-0.00331994
-0.00306888
-0.00270547
-0.0022682
-0.00179684
-0.00132638
-0.000896171
-0.000555746
-0.000386561
-0.000327687
-0.000276809
-0.000204174
-0.000104369
1.88828e-05
0.000159719
0.000309731
0.000453087
0.000589381
-0.00455886
-0.00365044
-0.00283252
-0.00248415
-0.00253916
-0.00266224
-0.00251639
-0.00217739
-0.00173008
-0.00123132
-0.000719852
-0.000241011
0.000124799
0.000157642
2.20102e-05
-6.69221e-05
-9.02372e-05
-5.94428e-05
1.02341e-05
0.000106123
0.000216306
0.000324971
0.000429712
-0.00346936
-0.00246256
-0.00166303
-0.00155501
-0.00203508
-0.00251833
-0.00231264
-0.00184482
-0.00128783
-0.000686348
-5.26797e-05
0.000598269
0.001174
0.00091691
0.000357029
5.80532e-05
-5.32367e-05
-6.74857e-05
-3.00112e-05
3.78927e-05
0.000121398
0.000205755
0.000287199
-0.00239326
-0.00176733
-0.00101196
-0.00119825
-0.00247547
-0.00337114
-0.0026441
-0.00177016
-0.000952109
-0.000139057
0.000738117
0.00175977
0.00304164
0.00228053
0.000715481
6.61038e-05
-0.000110985
-0.000130873
-9.73937e-05
-3.91779e-05
2.95989e-05
9.81613e-05
0.000164908
-0.00052678
-0.00222036
-0.00089241
-0.00120485
-0.003532
-0.00371347
-0.00240551
-0.00135899
-0.000539216
0.000222578
0.00110428
0.00236962
0.00401786
0.00378473
0.00110937
0.000196674
-4.25852e-05
-9.48829e-05
-9.44278e-05
-7.44603e-05
-4.77773e-05
-2.03716e-05
7.06611e-06
761.278
760.425
760.038
759.332
747.561
739.906
739.088
740.433
293.735
295.355
296.278
295.315
8.66472
5.30936
4.9527
5.2358
7.92868
4.3788
4.38474
4.64198
12.0523
3.98386
4.08626
4.61343
5.74744
3.25474
4.86473
6.70831
0.0711077
0.902029
2.32535
2.89254
0.0510543
0.0521585
0.0792819
0.107348
0.0619772
0.105269
0.127008
0.164903
0.0426602
0.10579
0.158469
0.165957
0.0312078
0.0773212
0.129098
0.0731956
0.0262678
0.0290096
0.0586937
0.0777302
0.0222631
0.022574
0.0240649
0.0404941
0.0193462
0.0195945
0.0203104
0.02097
0.0160714
0.0170229
0.0180419
0.0189894
0.0136498
0.0148894
0.0161175
0.0172214
0.0118183
0.013124
0.0144672
0.0156847
0.0104571
0.011808
0.0131784
0.0144113
0.00941869
0.0107502
0.0121308
0.0133416
0.00866622
0.00994859
0.0112728
0.0124144
0.0080573
0.00926688
0.0105121
0.0115696
0.00750027
0.00862477
0.00978361
0.0107567
0.00693858
0.00797439
0.00904852
0.00994491
0.00634944
0.00729893
0.00829464
0.00912445
0.00573517
0.00660348
0.00752763
0.00829963
0.00511265
0.00590556
0.00676337
0.00748327
0.00450303
0.00522575
0.00602037
0.00669091
0.0039251
0.00458194
0.005315
0.00593679
0.0033925
0.00398695
0.00465924
0.00523162
0.0029127
0.00344768
0.00405951
0.00458136
0.00248704
0.00296498
0.00351664
0.00398714
0.00211176
0.00253487
0.00302697
0.00344614
0.00178016
0.00215061
0.00258444
0.00295331
0.0014849
0.00180508
0.00218261
0.00250301
0.00121964
0.00149221
0.00181578
0.00209
0.000979501
0.00120729
0.00147939
0.0017098
0.000761057
0.000946889
0.00116989
0.00135877
0.000563294
0.000709696
0.000885694
0.00103514
0.000385641
0.000493908
0.000624592
0.000737436
0.000241084
0.000317046
0.000404905
0.000479548
4.06802e-05
7.2129e-05
0.000107245
0.000137137
758.88
754.685
751.104
747.956
733.565
705.392
714.595
734.921
737.06
736.817
734.582
733.635
733.854
723.564
721.068
716.948
714.811
714.981
715.925
739.431
716.7
694.821
677.975
653.924
583.394
529.375
548.836
599.051
611.272
620.18
641.913
661.648
666.753
663.727
641.221
600.653
572.829
560.029
287.897
259.55
236.866
228.482
281.008
366.136
405.596
403.886
372.699
346.089
321.1
291.516
265.777
240.74
202.72
164.055
150.515
170.151
201.121
5.56296
6.07584
6.51751
6.42306
5.93563
6.41211
5.18563
1.29128
0.966515
0.575136
0.321464
0.238037
0.183333
0.125204
0.120486
0.159396
0.193497
0.192211
0.152494
5.2124
5.62113
5.98287
5.83791
5.62499
5.5432
6.3931
5.91201
4.42769
2.22436
1.14517
1.13517
0.770622
0.244689
0.166614
0.155543
0.154109
0.15623
0.160479
7.1503
7.07306
6.80914
5.75297
7.67529
7.82986
7.44207
5.83598
3.62468
2.08501
0.753537
0.602807
0.788085
0.550698
0.232196
0.150156
0.149141
0.160285
0.29663
6.6171
6.03431
4.37405
3.58225
2.99253
1.18102
0.0833138
0.0754116
0.0840975
0.0989384
0.11619
0.119288
0.15454
0.457991
0.463178
0.24692
0.13849
0.148336
0.394264
1.13988
0.532804
0.163551
0.110429
0.092273
0.102789
0.106675
0.144716
0.111057
0.096656
0.106825
0.110933
0.177747
0.267658
0.196833
0.134278
0.126841
0.128107
0.401655
0.0900208
0.0827937
0.0833836
0.0956964
0.110812
0.158672
0.199627
0.200667
0.139855
0.0943983
0.102875
0.109985
0.126464
0.110271
0.112195
0.11569
0.118158
0.246222
0.407711
0.1251
0.0978974
0.0785819
0.0996455
0.15622
0.183528
0.2001
0.165652
0.0918991
0.109543
0.210867
0.291873
0.327644
0.319845
0.245659
0.23437
0.341606
0.338461
0.200023
0.0840822
0.0383918
0.0411601
0.0424644
0.0412665
0.0421155
0.0491952
0.0532431
0.106098
0.317243
0.330799
0.331318
0.330105
0.329177
0.330857
0.225433
0.128715
0.126407
0.118853
0.0364931
0.0389564
0.0438048
0.0382364
0.038959
0.0402236
0.0442725
0.0515553
0.111963
0.203576
0.311829
0.330273
0.212277
0.0757401
0.0854807
0.0922865
0.104034
0.137746
0.167675
0.0793485
0.0797859
0.0735372
0.0468773
0.0365729
0.0441425
0.0809739
0.0819175
0.0639568
0.0369301
0.0363628
0.0375339
0.0408028
0.0508028
0.13694
0.167802
0.169321
0.168436
0.166328
0.0652307
0.0781533
0.0800996
0.0775617
0.0393095
0.0333609
0.0364732
0.0422915
0.0357586
0.0354581
0.0358004
0.0369247
0.0389764
0.0408515
0.0686384
0.134362
0.137791
0.0969234
0.0981567
0.0221576
0.0437818
0.0783625
0.0767447
0.0404097
0.0307827
0.0316251
0.0323505
0.0330072
0.0345917
0.0360947
0.0370836
0.0369472
0.0375458
0.0377955
0.0376892
0.0379842
0.0384403
0.0409207
0.0203185
0.021829
0.024399
0.0332937
0.0292754
0.0284161
0.029776
0.0313984
0.032133
0.0326242
0.0341499
0.0350309
0.0359215
0.0353812
0.0345713
0.0344596
0.0343909
0.0477237
0.116791
0.0187215
0.0203549
0.021858
0.0233803
0.0249767
0.0263007
0.028404
0.0307954
0.0314957
0.0317872
0.0302197
0.0307798
0.0313391
0.0314864
0.0313817
0.031043
0.0305478
0.0528958
0.116653
0.0172812
0.0189273
0.0204175
0.0218462
0.0232117
0.0243747
0.0253473
0.0277185
0.0295149
0.0300804
0.0303078
0.0282834
0.0284932
0.0285784
0.0283438
0.0278156
0.0270522
0.0367738
0.117093
0.0159982
0.0175897
0.0190161
0.0203376
0.0215487
0.0225864
0.023437
0.0241241
0.0256503
0.0281003
0.0284961
0.0278886
0.0260126
0.0259393
0.0255959
0.0249503
0.0241602
0.0240834
0.118368
0.0148519
0.016345
0.0176803
0.0188948
0.0199795
0.0209081
0.0216766
0.0222985
0.0227905
0.0234832
0.0252752
0.0241078
0.0238583
0.0237259
0.02335
0.0224589
0.0216191
0.0208997
0.120244
0.0138101
0.01518
0.0164089
0.0175175
0.0184909
0.0193198
0.0200056
0.0205572
0.0209848
0.0212957
0.0214982
0.0216027
0.0216663
0.0216311
0.0212037
0.0203406
0.0195386
0.0191118
0.122135
0.0128375
0.0140754
0.015192
0.0161966
0.0170684
0.0178054
0.018412
0.0188949
0.0192612
0.0195169
0.0196682
0.0197148
0.0196365
0.0196121
0.0192309
0.0185464
0.0179277
0.0177386
0.0982515
0.0119024
0.0130118
0.0140178
0.0149229
0.0157014
0.0163544
0.016888
0.0173085
0.017622
0.0178348
0.017953
0.0179799
0.0179108
0.0177438
0.0174851
0.0171535
0.0168672
0.0171159
0.0207563
0.0109834
0.0119752
0.0128781
0.0136909
0.0143852
0.0149634
0.0154328
0.0158002
0.0160723
0.0162566
0.0163619
0.0163972
0.016371
0.0162978
0.0162017
0.0161326
0.0162591
0.0170619
0.0183862
0.0100723
0.0109601
0.0117699
0.0124999
0.0131201
0.0136337
0.0140491
0.0143739
0.0146162
0.0147856
0.014894
0.0149568
0.0149932
0.0150322
0.0151171
0.0153278
0.015863
0.0170798
0.018697
0.00917083
0.00996776
0.0106952
0.011352
0.0119084
0.0123679
0.0127395
0.0130319
0.0132546
0.0134193
0.0135412
0.013641
0.0137468
0.0138994
0.0141586
0.0146287
0.0155187
0.0170321
0.0187789
0.00828736
0.00900406
0.00965861
0.0102515
0.0107535
0.0111681
0.011505
0.0117735
0.0119841
0.0121503
0.0122899
0.0124277
0.0125986
0.0128517
0.0132602
0.0139468
0.0151264
0.0168821
0.0187819
0.00743304
0.00807738
0.00866682
0.00920317
0.00965831
0.0100355
0.0103444
0.0105947
0.0107975
0.0109672
0.0111234
0.0112937
0.0115163
0.0118455
0.0123614
0.013196
0.0145648
0.016489
0.0357139
0.00661881
0.00719623
0.00772628
0.00821157
0.00862514
0.00896984
0.00925489
0.00948978
0.00968563
0.00985736
0.0100254
0.0102179
0.0104737
0.0108473
0.0114176
0.0123123
0.0137331
0.0156872
0.0733557
0.00585343
0.00636768
0.00684229
0.00728005
0.00765521
0.0079699
0.00823254
0.00845206
0.00863937
0.00880933
0.00898214
0.00918512
0.00945529
0.00984302
0.0104196
0.0112992
0.012668
0.0149307
0.0737668
0.00514227
0.00559618
0.0060181
0.00641046
0.00674861
0.00703375
0.00727332
0.00747557
0.00765105
0.00781419
0.00798442
0.0081872
0.00845601
0.00883507
0.00938533
0.010206
0.0114786
0.0155425
0.074189
0.00448699
0.0048832
0.00525466
0.00560294
0.00590433
0.00615905
0.00637353
0.0065554
0.00671482
0.00686584
0.0070269
0.00722125
0.00747797
0.00783394
0.00833867
0.00907536
0.0102232
0.0157921
0.0745194
0.00388601
0.00422761
0.00455086
0.0048561
0.00512049
0.00534331
0.00553001
0.00568773
0.00582648
0.00596026
0.00610694
0.00628782
0.00652741
0.00685467
0.00730708
0.00795251
0.00896046
0.0113912
0.074675
0.00333566
0.00362645
0.00390408
0.00416745
0.00439463
0.00458401
0.00474009
0.00486962
0.00498282
0.0050944
0.0052228
0.0053886
0.00561214
0.00591463
0.00632422
0.00689714
0.00779582
0.00929206
0.0513505
0.00283132
0.00307576
0.00331078
0.0035338
0.00372397
0.00387875
0.00400156
0.00409868
0.00418087
0.00426477
0.00437165
0.0045236
0.00473734
0.00502606
0.0054128
0.00595292
0.00681473
0.00829153
0.0100852
0.00236825
0.00257118
0.00276698
0.00295174
0.00310577
0.00322547
0.00331274
0.00337297
0.00341739
0.00346619
0.00354752
0.00368891
0.00390214
0.00418912
0.0045698
0.0051035
0.00597082
0.00800347
0.00927276
0.001942
0.00210837
0.00226867
0.0024179
0.00253761
0.00262274
0.0026729
0.00269136
0.00268884
0.00269092
0.00274082
0.00287796
0.00310197
0.00339588
0.00377536
0.00430114
0.00515016
0.00686474
0.00819335
0.0015488
0.00168351
0.00181236
0.00192959
0.00201799
0.00207055
0.00208332
0.00205526
0.00199338
0.00192991
0.00194023
0.00208313
0.00233253
0.00263906
0.0030137
0.00351162
0.00429999
0.00558419
0.00698824
0.00118696
0.00129515
0.00139705
0.00148682
0.00154864
0.00157303
0.00155109
0.00147427
0.00133783
0.001173
0.00110513
0.00127021
0.0015732
0.00190615
0.00227163
0.0027145
0.00339296
0.0045135
0.0057457
0.000857618
0.000944602
0.00102457
0.00109269
0.00113491
0.00113928
0.00109085
0.000969875
0.00073483
0.000321719
5.10157e-05
0.000310685
0.000746227
0.00115754
0.00152958
0.00189838
0.00242419
0.00334703
0.00438886
0.000558085
0.000624515
0.000686844
0.000739428
0.000770993
0.000768557
0.000712096
0.000568782
0.000161303
-0.000839914
-0.00150046
-0.000842208
-0.000173379
0.00036726
0.000787212
0.00108158
0.00158959
0.00207764
0.00287306
0.000168518
0.00020293
0.000237225
0.000267222
0.000287548
0.000289387
0.000256669
0.000139705
-0.000323486
-0.00188633
-0.00217308
-0.00124976
-0.000664947
-0.000185364
0.000150137
0.000499371
0.00111394
0.00144124
0.00139224
)
;

boundaryField
{
    leftWall
    {
        type            fixedFluxPressure;
        gradient        uniform 0;
        value           nonuniform List<scalar> 
50
(
823.661
823.312
822.925
822.562
822.258
822.047
821.939
821.881
821.786
821.808
639.163
52.5175
5.52199
7.85134
2.21904
0.860779
1.11291
1.61961
0.875837
0.296192
0.0455346
-0.062981
-0.0706234
-0.0701429
-0.0666613
-0.060069
-0.0527258
-0.0464392
-0.0413722
-0.0369461
-0.0326896
-0.0288229
-0.0253499
-0.0223565
-0.0195818
0.0220477
0.0752327
0.0465796
-0.0148034
-0.0148319
-0.0130738
-0.0113863
-0.00980457
-0.00833605
-0.00697878
-0.00572811
-0.00455886
-0.00346936
-0.00239326
-0.00052678
)
;
    }
    rightWall
    {
        type            fixedFluxPressure;
        gradient        uniform 0;
        value           nonuniform List<scalar> 
50
(
721.641
721.436
720.966
720.01
718.847
717.926
717.403
716.873
715.925
560.029
201.121
0.152494
0.160479
0.29663
0.394264
0.401655
0.407711
0.200023
0.118853
0.167675
0.166328
0.0981567
0.0409207
0.116791
0.116653
0.117093
0.118368
0.120244
0.122135
0.0982515
0.0207563
0.0183862
0.018697
0.0187789
0.0187819
0.0357139
0.0733557
0.0737668
0.074189
0.0745194
0.074675
0.0513505
0.0100852
0.00927276
0.00819335
0.00698824
0.0057457
0.00438886
0.00287306
0.00139224
)
;
    }
    lowerWall
    {
        type            fixedFluxPressure;
        gradient        uniform 0;
        value           nonuniform List<scalar> 
62
(
823.661
824.497
824.576
823.635
821.797
819.191
815.928
812.134
807.943
803.494
798.928
794.374
789.945
785.722
781.752
778.061
774.551
770.998
768.757
768.218
768.569
769.656
771.472
771.472
771.89
772.393
772.795
772.719
772.495
772.092
771.142
761.278
760.425
760.038
759.332
740.732
741.192
739.182
738.924
738.703
738.522
751.224
758.146
740.732
742.107
742.823
741.208
738.258
734.995
731.992
728.182
723.094
721.053
721.135
720.659
718.623
716.389
715.439
717.742
721.145
722.554
721.641
)
;
    }
    atmosphere
    {
        type            totalPressure;
        rho             rho;
        psi             none;
        gamma           1;
        p0              uniform 0;
        value           nonuniform List<scalar> 
46
(
-0.000171806
-0.000167529
-5.58164e-05
-1.57761e-05
-2.91197e-06
-5.49977e-10
0
0
0
0
0
0
0
-1.21894e-07
-2.38213e-06
-9.23557e-06
-1.98024e-05
-3.29667e-05
-4.77007e-05
-6.29673e-05
-7.77431e-05
-9.09987e-05
-0.000101622
-0.000106306
-0.000107689
-0.000107107
-0.000104653
-9.84624e-05
-8.84925e-05
-7.78281e-05
-6.65816e-05
-5.48824e-05
-4.29607e-05
-3.12319e-05
-2.03182e-05
-1.11936e-05
-3.69172e-06
0
0
0
0
0
0
0
0
0
)
;
    }
    defaultFaces
    {
        type            empty;
    }
}


// ************************************************************************* //
