/*--------------------------------*- C++ -*----------------------------------*\
| =========                 |                                                 |
| \\      /  F ield         | OpenFOAM: The Open Source CFD Toolbox           |
|  \\    /   O peration     | Version:  2.3.0                                 |
|   \\  /    A nd           | Web:      www.OpenFOAM.org                      |
|    \\/     M anipulation  |                                                 |
\*---------------------------------------------------------------------------*/
FoamFile
{
    version     2.0;
    format      ascii;
    class       surfaceScalarField;
    location    "3";
    object      phi;
}
// * * * * * * * * * * * * * * * * * * * * * * * * * * * * * * * * * * * * * //

dimensions      [0 3 -1 0 0 0 0];

internalField   nonuniform List<scalar> 
4432
(
1.22855e-06
-1.22855e-06
2.63657e-06
-1.40804e-06
3.82253e-06
-1.18596e-06
4.74987e-06
-9.27332e-07
5.46781e-06
-7.1794e-07
6.01715e-06
-5.49352e-07
6.42789e-06
-4.10762e-07
6.72254e-06
-2.94638e-07
6.91789e-06
-1.95347e-07
7.02796e-06
-1.10106e-07
7.0666e-06
-3.86198e-08
7.04779e-06
1.8805e-08
6.98791e-06
5.98706e-08
6.91258e-06
7.53209e-08
6.85949e-06
5.30852e-08
6.85671e-06
2.76882e-09
6.62224e-06
2.34461e-07
6.02399e-06
5.98269e-07
5.19421e-06
8.29774e-07
4.29733e-06
8.96875e-07
3.18761e-06
1.10972e-06
1.68314e-06
1.50446e-06
1.68315e-06
1.33019e-06
-2.55874e-06
2.50662e-06
-2.58447e-06
3.51592e-06
-2.19527e-06
4.36567e-06
-1.77708e-06
5.05413e-06
-1.40641e-06
5.59548e-06
-1.09069e-06
6.00915e-06
-8.24458e-07
6.31333e-06
-5.9883e-07
6.52272e-06
-4.04721e-07
6.64885e-06
-2.36257e-07
6.70116e-06
-9.09318e-08
6.68707e-06
3.28848e-08
6.61385e-06
1.33081e-07
6.48855e-06
2.00614e-07
6.31771e-06
2.23919e-07
6.0882e-06
2.32282e-07
5.77775e-06
5.44897e-07
5.30743e-06
1.0686e-06
4.71298e-06
1.4242e-06
3.94297e-06
1.66686e-06
3.00908e-06
2.04362e-06
1.88558e-06
2.628e-06
3.56873e-06
1.33886e-06
-3.8976e-06
2.4069e-06
-3.65252e-06
3.32556e-06
-3.11394e-06
4.12298e-06
-2.5745e-06
4.78705e-06
-2.07049e-06
5.32032e-06
-1.62394e-06
5.73466e-06
-1.23882e-06
6.04375e-06
-9.07926e-07
6.25908e-06
-6.20034e-07
6.38889e-06
-3.6608e-07
6.43889e-06
-1.40919e-07
6.41228e-06
5.95049e-08
6.31087e-06
2.34495e-07
6.13402e-06
3.77436e-07
5.87579e-06
4.82138e-07
5.51574e-06
5.92327e-07
5.11998e-06
9.4063e-07
4.68525e-06
1.50332e-06
4.14208e-06
1.96737e-06
3.48378e-06
2.32516e-06
2.70219e-06
2.82522e-06
1.74912e-06
3.58108e-06
5.31785e-06
1.26971e-06
-5.16731e-06
2.30213e-06
-4.68496e-06
3.19102e-06
-4.00283e-06
3.96813e-06
-3.3516e-06
4.62425e-06
-2.72661e-06
5.15867e-06
-2.15835e-06
5.57898e-06
-1.65913e-06
5.89505e-06
-1.22397e-06
6.11491e-06
-8.39896e-07
6.24352e-06
-4.94705e-07
6.28345e-06
-1.80859e-07
6.23506e-06
1.07886e-07
6.0969e-06
3.72632e-07
5.86525e-06
6.09074e-07
5.53343e-06
8.13966e-07
5.09899e-06
1.02678e-06
4.62878e-06
1.41083e-06
4.17229e-06
1.9598e-06
3.66079e-06
2.47887e-06
3.05688e-06
2.92908e-06
2.37231e-06
3.50978e-06
1.51423e-06
4.43915e-06
6.83207e-06
1.18113e-06
-6.34845e-06
2.21042e-06
-5.71425e-06
3.10664e-06
-4.89904e-06
3.89026e-06
-4.13522e-06
4.55579e-06
-3.39213e-06
5.10281e-06
-2.70536e-06
5.53658e-06
-2.09292e-06
5.86357e-06
-1.55097e-06
6.08829e-06
-1.06462e-06
6.21231e-06
-6.1873e-07
6.23555e-06
-2.04112e-07
6.15664e-06
1.86793e-07
5.9732e-06
5.56073e-07
5.682e-06
9.00285e-07
5.28184e-06
1.21414e-06
4.78592e-06
1.52272e-06
4.25877e-06
1.93798e-06
3.75077e-06
2.46781e-06
3.23107e-06
2.99857e-06
2.647e-06
3.51314e-06
1.99131e-06
4.16545e-06
1.2143e-06
5.21618e-06
8.04636e-06
1.10994e-06
-7.4584e-06
2.15514e-06
-6.75943e-06
3.08e-06
-5.82388e-06
3.89007e-06
-4.94529e-06
4.58072e-06
-4.08279e-06
5.15211e-06
-3.27676e-06
5.60761e-06
-2.54841e-06
5.95029e-06
-1.89366e-06
6.18086e-06
-1.29518e-06
6.29743e-06
-7.35288e-07
6.29776e-06
-2.04442e-07
6.17996e-06
3.04594e-07
5.94277e-06
7.9327e-07
5.58581e-06
1.25726e-06
5.11531e-06
1.68463e-06
4.55635e-06
2.08168e-06
3.97217e-06
2.52215e-06
3.41168e-06
3.02831e-06
2.85702e-06
3.55324e-06
2.26524e-06
4.10492e-06
1.62247e-06
4.80822e-06
8.97336e-07
5.94132e-06
8.94369e-06
1.07486e-06
-8.53325e-06
2.14725e-06
-7.83181e-06
3.11177e-06
-6.78841e-06
3.96227e-06
-5.79579e-06
4.69124e-06
-4.81175e-06
5.29809e-06
-3.88361e-06
5.78373e-06
-3.03402e-06
6.1473e-06
-2.25722e-06
6.38531e-06
-1.53318e-06
6.49226e-06
-8.42254e-07
6.46433e-06
-1.76517e-07
6.30039e-06
4.68527e-07
6.00205e-06
1.0916e-06
5.57331e-06
1.68599e-06
5.02801e-06
2.22992e-06
4.40136e-06
2.70833e-06
3.75647e-06
3.16704e-06
3.14122e-06
3.64356e-06
2.54856e-06
4.14591e-06
1.94738e-06
4.7061e-06
1.32294e-06
5.43266e-06
6.20509e-07
6.64376e-06
9.56421e-06
1.07337e-06
-9.60661e-06
2.17846e-06
-8.93689e-06
3.18791e-06
-7.79784e-06
4.08638e-06
-6.69427e-06
4.86281e-06
-5.58817e-06
5.51414e-06
-4.53496e-06
6.0376e-06
-3.55749e-06
6.42742e-06
-2.64706e-06
6.67541e-06
-1.78116e-06
6.77227e-06
-9.39126e-07
6.71307e-06
-1.17315e-07
6.49862e-06
6.8298e-07
6.13481e-06
1.45542e-06
5.63101e-06
2.18979e-06
5.00831e-06
2.85261e-06
4.31074e-06
3.40591e-06
3.60364e-06
3.87414e-06
2.93662e-06
4.31058e-06
2.31283e-06
4.76969e-06
1.71697e-06
5.30196e-06
1.14998e-06
5.99966e-06
6.14408e-07
7.17933e-06
1.01786e-05
-2.97808e-06
2.97808e-06
-1.50279e-06
-1.47529e-06
3.00085e-07
-1.80286e-06
1.51272e-06
-1.21265e-06
2.13702e-06
-6.24292e-07
2.17449e-06
-3.74598e-08
2.07547e-06
9.90112e-08
1.90044e-06
1.7505e-07
-3.56614e-07
2.25704e-06
-3.36477e-06
3.00816e-06
-4.25274e-06
8.87965e-07
-5.37675e-06
1.12401e-06
-7.807e-06
2.43025e-06
-1.03829e-05
2.57588e-06
-1.12573e-05
8.74375e-07
-9.69414e-06
-1.56313e-06
-6.4567e-06
-3.23744e-06
-2.63812e-06
-3.81859e-06
-2.6381e-06
-1.56978e-06
4.54787e-06
-6.9197e-07
-2.35312e-06
7.2557e-08
-2.56737e-06
5.75051e-07
-1.71514e-06
7.36774e-07
-7.86021e-07
5.28177e-07
1.71157e-07
7.08347e-08
5.56342e-07
-6.27654e-07
8.73554e-07
-1.67359e-06
3.30297e-06
-2.9856e-06
4.32017e-06
-4.01813e-06
1.92049e-06
-5.15873e-06
2.2646e-06
-6.82285e-06
4.09439e-06
-8.32194e-06
4.07496e-06
-8.79921e-06
1.35163e-06
-8.05001e-06
-2.31233e-06
-6.19274e-06
-5.09469e-06
-3.46081e-06
-6.55057e-06
-6.09888e-06
-3.8047e-07
4.92836e-06
-3.21881e-07
-2.41171e-06
-1.9968e-07
-2.68957e-06
-1.47594e-07
-1.76721e-06
-2.82196e-07
-6.51427e-07
-6.85514e-07
5.74486e-07
-1.25508e-06
1.1259e-06
-2.01393e-06
1.6324e-06
-2.55033e-06
3.83936e-06
-3.01011e-06
4.77995e-06
-3.746e-06
2.65637e-06
-4.42047e-06
2.93906e-06
-5.28438e-06
4.95829e-06
-6.16697e-06
4.95755e-06
-6.66195e-06
1.84661e-06
-6.344e-06
-2.63028e-06
-5.16883e-06
-6.26984e-06
-3.26902e-06
-8.45039e-06
-9.36788e-06
3.16762e-07
4.6116e-06
-1.69236e-07
-1.92571e-06
-5.50851e-07
-2.30796e-06
-8.32714e-07
-1.48535e-06
-1.18086e-06
-3.03287e-07
-1.72454e-06
1.11817e-06
-2.34915e-06
1.7505e-06
-2.96816e-06
2.25141e-06
-3.2418e-06
4.11299e-06
-3.30399e-06
4.84215e-06
-3.62286e-06
2.97524e-06
-3.841e-06
3.15719e-06
-4.10202e-06
5.21933e-06
-4.4479e-06
5.30344e-06
-4.77006e-06
2.16877e-06
-4.57998e-06
-2.82035e-06
-3.76529e-06
-7.08453e-06
-2.48927e-06
-9.72642e-06
-1.18571e-05
5.67769e-07
4.04384e-06
-2.50393e-07
-1.10753e-06
-9.99197e-07
-1.55917e-06
-1.52471e-06
-9.59831e-07
-2.02673e-06
1.9872e-07
-2.6658e-06
1.75725e-06
-3.30454e-06
2.38924e-06
-3.77924e-06
2.72611e-06
-3.87341e-06
4.20716e-06
-3.67585e-06
4.64459e-06
-3.60249e-06
2.90189e-06
-3.39015e-06
2.94484e-06
-3.14515e-06
4.97433e-06
-2.93423e-06
5.09252e-06
-2.94196e-06
2.17651e-06
-2.78572e-06
-2.9766e-06
-2.2028e-06
-7.66744e-06
-1.45626e-06
-1.0473e-05
-1.33134e-05
5.2943e-07
3.5144e-06
-5.83639e-07
5.55172e-09
-1.54048e-06
-6.02333e-07
-2.2243e-06
-2.76005e-07
-2.83006e-06
8.04473e-07
-3.52778e-06
2.45498e-06
-4.18522e-06
3.04668e-06
-4.5438e-06
3.0847e-06
-4.43403e-06
4.0974e-06
-3.98199e-06
4.19255e-06
-3.60468e-06
2.52458e-06
-3.04177e-06
2.38193e-06
-2.37641e-06
4.30896e-06
-1.67268e-06
4.38879e-06
-1.25794e-06
1.76177e-06
-1.01092e-06
-3.22362e-06
-6.6099e-07
-8.01736e-06
-3.45816e-07
-1.07882e-05
-1.36592e-05
5.07208e-08
3.46367e-06
-1.11239e-06
1.16867e-06
-2.14303e-06
4.28303e-07
-2.9156e-06
4.9657e-07
-3.56989e-06
1.45877e-06
-4.2943e-06
3.17938e-06
-4.95398e-06
3.70637e-06
-5.19566e-06
3.32638e-06
-4.80972e-06
3.71146e-06
-4.14207e-06
3.52491e-06
-3.5762e-06
1.95871e-06
-2.84005e-06
1.64579e-06
-1.78843e-06
3.25734e-06
-6.94152e-07
3.29452e-06
1.18894e-07
9.48718e-07
6.05759e-07
-3.71049e-06
7.14342e-07
-8.12594e-06
6.51987e-07
-1.07258e-05
-1.30072e-05
-6.63085e-07
4.12674e-06
-1.70651e-06
2.21209e-06
-2.75306e-06
1.47486e-06
-3.58232e-06
1.32582e-06
-4.23271e-06
2.10915e-06
-4.92477e-06
3.87145e-06
-5.50657e-06
4.28817e-06
-5.60536e-06
3.42517e-06
-5.01898e-06
3.12509e-06
-4.1621e-06
2.66802e-06
-3.47783e-06
1.27444e-06
-2.66612e-06
8.34073e-07
-1.32455e-06
1.91577e-06
6.06829e-08
1.90929e-06
1.23724e-06
-2.27837e-07
1.85242e-06
-4.32566e-06
1.7972e-06
-8.07072e-06
1.43203e-06
-1.03606e-05
-1.15752e-05
2.22831e-06
-1.18349e-05
4.7157e-06
-1.14243e-05
7.05162e-06
-1.01338e-05
9.1382e-06
-8.78083e-06
1.09595e-05
-7.40951e-06
1.25081e-05
-6.08352e-06
1.37617e-05
-4.81111e-06
1.46891e-05
-3.57448e-06
1.52574e-05
-2.34938e-06
1.54336e-05
-1.11538e-06
1.52032e-05
1.13163e-07
1.4578e-05
1.30814e-06
1.35892e-05
2.44428e-06
1.22756e-05
3.50337e-06
1.07023e-05
4.42583e-06
8.98999e-06
5.11826e-06
7.292e-06
5.57213e-06
5.73081e-06
5.87177e-06
4.34373e-06
6.15678e-06
3.16033e-06
6.48537e-06
2.34396e-06
6.81604e-06
2.42081e-06
7.10249e-06
7.09364e-06
5.5058e-06
1.91822e-06
-1.37531e-05
4.45581e-06
-1.39619e-05
6.93594e-06
-1.26139e-05
9.2013e-06
-1.10462e-05
1.12114e-05
-9.41957e-06
1.29478e-05
-7.81996e-06
1.43649e-05
-6.22826e-06
1.54137e-05
-4.62325e-06
1.60462e-05
-2.98182e-06
1.62187e-05
-1.28797e-06
1.59153e-05
4.16627e-07
1.51116e-05
2.11185e-06
1.38902e-05
3.66567e-06
1.23284e-05
5.06517e-06
1.05231e-05
6.23104e-06
8.61454e-06
7.02687e-06
6.75296e-06
7.43371e-06
5.08737e-06
7.53736e-06
3.72231e-06
7.52184e-06
2.6973e-06
7.51038e-06
2.08219e-06
7.43115e-06
1.95355e-06
7.23113e-06
6.95521e-06
2.09198e-06
1.86029e-06
-1.56134e-05
3.70979e-06
-1.58114e-05
5.98438e-06
-1.48885e-05
8.32045e-06
-1.33823e-05
1.04706e-05
-1.15697e-05
1.2349e-05
-9.69835e-06
1.38942e-05
-7.77344e-06
1.50567e-05
-5.7857e-06
1.5811e-05
-3.73617e-06
1.60655e-05
-1.5425e-06
1.59419e-05
5.40276e-07
1.52216e-05
2.83209e-06
1.38162e-05
5.07104e-06
1.20634e-05
6.81795e-06
1.02133e-05
8.08115e-06
8.32131e-06
8.91885e-06
6.36995e-06
9.38507e-06
4.50575e-06
9.40156e-06
3.00014e-06
9.02746e-06
2.18702e-06
8.3235e-06
2.00471e-06
7.61347e-06
2.11225e-06
7.12359e-06
7.06339e-06
2.00408e-06
3.21608e-06
-1.88295e-05
2.00461e-06
-1.45998e-05
3.42878e-06
-1.63126e-05
6.08334e-06
-1.60368e-05
8.70622e-06
-1.41927e-05
1.07541e-05
-1.17462e-05
1.22901e-05
-9.30948e-06
1.34919e-05
-6.98747e-06
1.44597e-05
-4.70399e-06
1.4828e-05
-1.91075e-06
1.53575e-05
1.08177e-08
1.54769e-05
2.71258e-06
1.2947e-05
7.60097e-06
1.07323e-05
9.03261e-06
9.45118e-06
9.3623e-06
8.47614e-06
9.89389e-06
6.64075e-06
1.12204e-05
4.02173e-06
1.20205e-05
1.01646e-06
1.20327e-05
4.79385e-07
8.86055e-06
1.95419e-06
6.13868e-06
3.94009e-06
5.13774e-06
5.14336e-06
5.86016e-06
9.90565e-06
-2.87351e-05
3.11156e-07
-5.00585e-06
-3.04466e-06
-1.29571e-05
5.8165e-07
-1.9663e-05
4.57537e-06
-1.81865e-05
6.17637e-06
-1.33472e-05
6.28423e-06
-9.41727e-06
6.85756e-06
-7.56096e-06
8.32549e-06
-6.17188e-06
1.12415e-05
-4.82677e-06
1.32058e-05
-1.95351e-06
1.41272e-05
1.79118e-06
1.13958e-05
1.03324e-05
8.97406e-06
1.14543e-05
9.78815e-06
8.54815e-06
1.13714e-05
8.31064e-06
8.87412e-06
1.37177e-05
3.00296e-06
1.78916e-05
-2.82441e-06
1.78601e-05
-2.87158e-07
6.32341e-06
3.81167e-06
2.03979e-06
7.23721e-06
1.71219e-06
1.10063e-06
1.128e-05
-5.94453e-08
-2.86755e-05
-4.28401e-06
-7.8068e-07
-6.67318e-06
-1.0568e-05
-3.22618e-06
-2.311e-05
1.11352e-06
-2.2526e-05
2.86708e-06
-1.51008e-05
2.81276e-06
-9.36302e-06
2.47503e-06
-7.22339e-06
1.909e-06
-5.60596e-06
1.90471e-06
-4.82263e-06
1.41569e-06
-1.46457e-06
4.52816e-07
2.754e-06
3.52874e-06
7.25636e-06
5.28434e-06
9.69854e-06
6.50613e-06
7.32631e-06
7.99332e-06
6.82338e-06
9.68214e-06
1.20287e-05
7.75539e-06
1.98183e-05
6.01951e-06
1.95959e-05
6.25173e-06
6.09134e-06
6.32387e-06
1.96773e-06
3.9013e-06
4.13471e-06
2.21731e-06
2.78444e-06
-6.37361e-06
-2.23021e-05
-7.31014e-07
-6.42359e-06
1.44319e-06
-1.27427e-05
2.60521e-07
-2.1927e-05
1.75637e-06
-2.40226e-05
1.46627e-06
-1.48105e-05
1.41948e-08
-7.91099e-06
-2.05678e-06
-5.15224e-06
-5.40013e-06
-2.26246e-06
-1.01641e-05
-5.87059e-08
-1.11783e-05
-4.5036e-07
-7.48272e-06
-9.41634e-07
-2.70338e-06
2.47695e-06
5.87417e-07
6.40775e-06
1.80466e-06
6.10907e-06
3.39096e-06
5.23703e-06
6.95099e-06
8.46861e-06
9.9695e-06
1.67999e-05
1.21427e-05
1.74228e-05
1.09125e-05
7.32155e-06
7.96564e-06
4.91473e-06
1.50981e-06
1.05907e-05
7.72042e-06
-3.99324e-06
-8.98395e-06
-1.33179e-05
-5.53483e-06
-9.87273e-06
7.86436e-07
-1.90639e-05
4.36626e-06
-2.55063e-05
2.39999e-06
-2.20568e-05
-1.04771e-06
-1.13631e-05
-4.8621e-06
-4.09702e-06
-9.15417e-06
-8.60391e-07
-1.28444e-05
1.42733e-06
-1.52499e-05
2.34663e-06
-1.44201e-05
-1.28019e-06
-1.10456e-05
-4.31627e-06
-7.08202e-06
-1.48671e-06
-4.08745e-06
3.41315e-06
-2.68862e-06
4.71027e-06
-1.3098e-06
3.85817e-06
1.2588e-06
5.89993e-06
6.1486e-06
1.19101e-05
1.04203e-05
1.31511e-05
7.2743e-06
1.04675e-05
2.0389e-06
1.015e-05
-5.23184e-07
1.31527e-05
1.09861e-05
-3.78858e-06
-1.64583e-05
3.14053e-06
-1.27437e-05
-1.35872e-05
-8.47611e-06
-2.33317e-05
-7.06374e-06
-2.6919e-05
-7.52834e-06
-2.1592e-05
-1.07977e-05
-8.0937e-06
-1.41318e-05
-7.62874e-07
-1.66849e-05
1.69242e-06
-1.76963e-05
2.43842e-06
-1.65303e-05
1.18056e-06
-1.54092e-05
-2.40143e-06
-1.50695e-05
-4.65622e-06
-1.33034e-05
-3.25288e-06
-1.01519e-05
2.6164e-07
-8.00972e-06
2.56824e-06
-7.63206e-06
3.48046e-06
-7.30988e-06
5.57762e-06
-4.48948e-06
9.08978e-06
-2.52749e-06
1.11894e-05
-3.14418e-06
1.10847e-05
-4.83314e-06
1.18393e-05
-4.65232e-06
1.29718e-05
1.08879e-05
-4.55412e-06
-1.76579e-05
2.07985e-05
-1.68273e-05
-1.44177e-05
-1.51468e-05
-2.50124e-05
-1.74506e-05
-2.46158e-05
-2.13079e-05
-1.77345e-05
-2.37975e-05
-5.60459e-06
-2.46045e-05
4.40022e-08
-2.47386e-05
1.82646e-06
-2.38809e-05
1.58069e-06
-2.24624e-05
-2.38031e-07
-2.20596e-05
-2.80444e-06
-2.17856e-05
-4.93031e-06
-2.05062e-05
-4.53217e-06
-1.84802e-05
-1.76431e-06
-1.73534e-05
1.4415e-06
-1.71003e-05
3.22739e-06
-1.65415e-05
5.01879e-06
-1.47184e-05
7.26666e-06
-1.25144e-05
8.98547e-06
-1.14457e-05
1.0016e-05
-1.06837e-05
1.10777e-05
-9.16056e-06
1.14491e-05
9.66395e-06
-7.93633e-06
-1.29287e-05
3.37272e-05
-1.66172e-05
-1.07291e-05
-1.98797e-05
-2.17495e-05
-2.6071e-05
-1.84241e-05
-3.25449e-05
-1.12607e-05
-3.39169e-05
-4.23269e-06
-3.25193e-05
-1.35351e-06
-3.064e-05
-5.27047e-08
-2.85475e-05
-5.11936e-07
-2.68064e-05
-1.97928e-06
-2.64735e-05
-3.13746e-06
-2.66625e-05
-4.74106e-06
-2.62659e-05
-4.92847e-06
-2.51631e-05
-2.86689e-06
-2.41837e-05
4.62015e-07
-2.3496e-05
2.53952e-06
-2.25961e-05
4.11918e-06
-2.08989e-05
5.56963e-06
-1.88727e-05
6.95973e-06
-1.6956e-05
8.0994e-06
-1.50456e-05
9.16727e-06
-1.29719e-05
9.3755e-06
7.95043e-06
-1.12581e-05
-6.81629e-06
4.05432e-05
-1.54844e-05
-2.06124e-06
-2.55929e-05
-1.16407e-05
-3.28828e-05
-1.11346e-05
-3.66719e-05
-7.47164e-06
-3.70083e-05
-3.89607e-06
-3.55934e-05
-2.76831e-06
-3.35252e-05
-2.12086e-06
-3.15557e-05
-2.48155e-06
-3.02257e-05
-3.30927e-06
-2.9669e-05
-3.6941e-06
-2.96816e-05
-4.72822e-06
-2.96685e-05
-4.94149e-06
-2.92648e-05
-3.27058e-06
-2.81578e-05
-6.451e-07
-2.69801e-05
1.3617e-06
-2.5714e-05
2.85316e-06
-2.41621e-05
4.01786e-06
-2.22622e-05
5.06008e-06
-2.01957e-05
6.03296e-06
-1.79083e-05
6.87984e-06
-1.56831e-05
7.15019e-06
6.06348e-06
-1.37962e-05
-6.0256e-06
4.65692e-05
-1.78036e-05
9.71718e-06
-2.73673e-05
-2.07719e-06
-3.33863e-05
-5.11558e-06
-3.60379e-05
-4.81977e-06
-3.60976e-05
-3.83635e-06
-3.53764e-05
-3.48959e-06
-3.40295e-05
-3.46777e-06
-3.27202e-05
-3.79091e-06
-3.17973e-05
-4.23207e-06
-3.09115e-05
-4.57972e-06
-3.06177e-05
-5.02173e-06
-3.06686e-05
-4.89064e-06
-3.03045e-05
-3.63484e-06
-2.92466e-05
-1.70313e-06
-2.79449e-05
6.01554e-08
-2.6554e-05
1.46254e-06
-2.50645e-05
2.52866e-06
-2.33742e-05
3.36992e-06
-2.14833e-05
4.14209e-06
-1.93427e-05
4.73942e-06
-1.71543e-05
4.962e-06
4.18124e-06
-1.52719e-05
-6.19989e-06
5.27694e-05
-1.67124e-05
2.023e-05
-2.50088e-05
6.21918e-06
-3.01308e-05
6.51739e-09
-3.25316e-05
-2.419e-06
-3.30717e-05
-3.29632e-06
-3.2735e-05
-3.82633e-06
-3.19786e-05
-4.22405e-06
-3.11514e-05
-4.61799e-06
-3.04203e-05
-4.96309e-06
-2.98171e-05
-5.18281e-06
-2.9523e-05
-5.3159e-06
-2.93961e-05
-5.01762e-06
-2.90078e-05
-4.02295e-06
-2.81491e-05
-2.56172e-06
-2.69834e-05
-1.10533e-06
-2.56602e-05
1.39412e-07
-2.42546e-05
1.12305e-06
-2.27767e-05
1.89185e-06
-2.11316e-05
2.49692e-06
-1.93131e-05
2.92099e-06
-1.73464e-05
2.99525e-06
2.42398e-06
-1.5589e-05
-4.61752e-06
5.73873e-05
-1.33597e-05
2.8972e-05
-2.02342e-05
1.30937e-05
-2.47174e-05
4.48971e-06
-2.71203e-05
-1.62215e-08
-2.80686e-05
-2.34803e-06
-2.82227e-05
-3.67215e-06
-2.79728e-05
-4.47391e-06
-2.75844e-05
-5.00639e-06
-2.71971e-05
-5.3503e-06
-2.68698e-05
-5.51007e-06
-2.66889e-05
-5.49703e-06
-2.65581e-05
-5.1486e-06
-2.62327e-05
-4.3484e-06
-2.55697e-05
-3.22471e-06
-2.46283e-05
-2.0465e-06
-2.35084e-05
-9.80411e-07
-2.22829e-05
-1.02396e-07
-2.09736e-05
5.82442e-07
-1.95635e-05
1.08678e-06
-1.80256e-05
1.38312e-06
-1.6396e-05
1.36572e-06
8.96448e-07
-1.48685e-05
-1.51497e-06
5.89021e-05
-8.403e-06
3.58596e-05
-1.40449e-05
1.87356e-05
-1.80221e-05
8.46659e-06
-2.04727e-05
2.43449e-06
-2.17944e-05
-1.02609e-06
-2.2428e-05
-3.0386e-06
-2.26711e-05
-4.23092e-06
-2.27283e-05
-4.94939e-06
-2.27184e-05
-5.36025e-06
-2.2697e-05
-5.5316e-06
-2.27061e-05
-5.48807e-06
-2.26852e-05
-5.16939e-06
-2.24957e-05
-4.53771e-06
-2.20459e-05
-3.67437e-06
-2.13536e-05
-2.73865e-06
-2.04776e-05
-1.85635e-06
-1.94761e-05
-1.10382e-06
-1.83804e-05
-5.13342e-07
-1.71947e-05
-9.89638e-08
-1.59192e-05
1.07676e-07
-1.45986e-05
4.51484e-08
-3.51768e-07
-1.33504e-05
3.38812e-06
5.55134e-05
-1.93201e-06
4.11798e-05
-6.8987e-06
2.3702e-05
-1.05995e-05
1.21672e-05
-1.3169e-05
5.00404e-06
-1.48612e-05
6.65873e-07
-1.5959e-05
-1.94104e-06
-1.668e-05
-3.51034e-06
-1.71781e-05
-4.45149e-06
-1.75493e-05
-4.98919e-06
-1.78438e-05
-5.23729e-06
-1.80849e-05
-5.24694e-06
-1.82377e-05
-5.01628e-06
-1.82259e-05
-4.54907e-06
-1.79952e-05
-3.90491e-06
-1.75484e-05
-3.18534e-06
-1.69212e-05
-2.48379e-06
-1.61565e-05
-1.86866e-06
-1.52877e-05
-1.38225e-06
-1.4334e-05
-1.05268e-06
-1.33152e-05
-9.10992e-07
-1.22746e-05
-9.95481e-07
-1.33343e-06
-1.12929e-05
7.18861e-06
4.83248e-05
4.53429e-06
4.38342e-05
4.64239e-07
2.77715e-05
-3.06335e-06
1.56948e-05
-5.80455e-06
7.74498e-06
-7.85331e-06
2.71424e-06
-9.38158e-06
-4.13091e-07
-1.05405e-05
-2.35165e-06
-1.14455e-05
-3.54654e-06
-1.21733e-05
-4.26154e-06
-1.27675e-05
-4.64303e-06
-1.32468e-05
-4.76759e-06
-1.35948e-05
-4.66802e-06
-1.37728e-05
-4.37095e-06
-1.37514e-05
-3.92634e-06
-1.35316e-05
-3.40534e-06
-1.31371e-05
-2.87862e-06
-1.26011e-05
-2.40479e-06
-1.19558e-05
-2.02747e-06
-1.12287e-05
-1.77964e-06
-1.04493e-05
-1.69029e-06
-9.65945e-06
-1.78528e-06
-2.07394e-06
-8.91899e-06
9.07748e-06
3.92476e-05
9.73397e-06
4.31773e-05
6.93776e-06
3.05675e-05
3.75412e-06
1.88785e-05
9.56284e-07
1.05424e-05
-1.34693e-06
5.01719e-06
-3.20959e-06
1.44952e-06
-4.72093e-06
-8.40256e-07
-5.95976e-06
-2.30765e-06
-6.98527e-06
-3.23604e-06
-7.83484e-06
-3.7935e-06
-8.52658e-06
-4.07588e-06
-9.05743e-06
-4.13718e-06
-9.41105e-06
-4.01745e-06
-9.57498e-06
-3.76265e-06
-9.55275e-06
-3.42778e-06
-9.36298e-06
-3.06848e-06
-9.03321e-06
-2.73448e-06
-8.59376e-06
-2.46674e-06
-8.07504e-06
-2.29817e-06
-7.5099e-06
-2.25533e-06
-6.9381e-06
-2.35708e-06
-2.60494e-06
-6.40718e-06
8.7041e-06
3.05434e-05
1.20597e-05
3.98211e-05
1.11997e-05
3.14276e-05
8.91594e-06
2.11621e-05
6.42213e-06
1.30359e-05
4.12077e-06
7.31844e-06
2.11341e-06
3.45687e-06
3.97851e-07
8.7529e-07
-1.05786e-06
-8.51984e-07
-2.2886e-06
-2.00533e-06
-3.32199e-06
-2.76014e-06
-4.17444e-06
-3.22345e-06
-4.85017e-06
-3.46149e-06
-5.34569e-06
-3.52204e-06
-5.65903e-06
-3.44943e-06
-5.79705e-06
-3.28978e-06
-5.77648e-06
-3.08895e-06
-5.62138e-06
-2.88939e-06
-5.35981e-06
-2.72809e-06
-5.02199e-06
-2.63585e-06
-4.64061e-06
-2.63666e-06
-4.25213e-06
-2.74558e-06
-2.96124e-06
-3.89586e-06
6.77547e-06
2.37674e-05
1.16186e-05
3.4978e-05
1.27816e-05
3.02646e-05
1.18627e-05
2.20807e-05
1.01119e-05
1.47865e-05
8.15615e-06
9.27417e-06
6.2668e-06
5.34613e-06
4.5475e-06
2.59444e-06
3.02859e-06
6.66809e-07
1.71059e-06
-6.87353e-07
5.84251e-07
-1.63377e-06
-3.59534e-07
-2.27965e-06
-1.12576e-06
-2.69528e-06
-1.71656e-06
-2.93129e-06
-2.13551e-06
-3.03052e-06
-2.39156e-06
-3.03368e-06
-2.50033e-06
-2.98002e-06
-2.48325e-06
-2.90628e-06
-2.36581e-06
-2.84539e-06
-2.17622e-06
-2.82537e-06
-1.94493e-06
-2.86791e-06
-1.70452e-06
-2.98597e-06
-3.1777e-06
-1.488e-06
4.56659e-06
1.92006e-05
9.70602e-06
2.98389e-05
1.23361e-05
2.76344e-05
1.27998e-05
2.16169e-05
1.20218e-05
1.55645e-05
1.06723e-05
1.06237e-05
9.13481e-06
6.88365e-06
7.60653e-06
4.12265e-06
6.18176e-06
2.09153e-06
4.9016e-06
5.92838e-07
3.78106e-06
-5.13202e-07
2.82373e-06
-1.32234e-06
2.02923e-06
-1.90083e-06
1.39556e-06
-2.29767e-06
9.18066e-07
-2.55301e-06
5.8775e-07
-2.70326e-06
3.90549e-07
-2.78267e-06
3.07695e-07
-2.82331e-06
3.16722e-07
-2.85436e-06
3.92436e-07
-2.90107e-06
5.07689e-07
-2.98316e-06
6.34155e-07
-3.11239e-06
-3.28752e-06
7.44097e-07
2.95977e-06
1.62412e-05
7.65429e-06
2.51447e-05
1.09614e-05
2.43274e-05
1.24338e-05
2.01446e-05
1.25588e-05
1.54398e-05
1.18893e-05
1.12934e-05
1.08267e-05
7.94632e-06
9.61955e-06
5.3299e-06
8.40896e-06
3.30218e-06
7.27071e-06
1.73118e-06
6.24325e-06
5.14317e-07
5.34465e-06
-4.23729e-07
4.5823e-06
-1.13848e-06
3.95767e-06
-1.67298e-06
3.46786e-06
-2.06309e-06
3.10563e-06
-2.34087e-06
2.85932e-06
-2.53623e-06
2.71328e-06
-2.67721e-06
2.64849e-06
-2.78959e-06
2.6434e-06
-2.89603e-06
2.67474e-06
-3.01452e-06
2.71853e-06
-3.15611e-06
-3.32051e-06
2.75167e-06
2.10421e-06
1.41375e-05
6.10716e-06
2.11417e-05
9.47857e-06
2.09563e-05
1.14836e-05
1.81399e-05
1.22594e-05
1.46641e-05
1.21782e-05
1.13746e-05
1.15906e-05
8.53408e-06
1.07494e-05
6.17118e-06
9.81598e-06
4.23568e-06
8.88627e-06
2.66099e-06
8.01471e-06
1.38595e-06
7.23098e-06
3.60058e-07
6.55019e-06
-4.57597e-07
5.97854e-06
-1.10118e-06
5.51633e-06
-1.60069e-06
5.15915e-06
-1.98354e-06
4.89845e-06
-2.27545e-06
4.72202e-06
-2.50079e-06
4.61459e-06
-2.68223e-06
4.55851e-06
-2.84e-06
4.53457e-06
-2.99056e-06
4.523e-06
-3.14442e-06
-3.3022e-06
4.50486e-06
1.74727e-06
1.23902e-05
5.10542e-06
1.77835e-05
8.23136e-06
1.78308e-05
1.04056e-05
1.59657e-05
1.15566e-05
1.35131e-05
1.18948e-05
1.10364e-05
1.17003e-05
8.72857e-06
1.12022e-05
6.66927e-06
1.05571e-05
4.88075e-06
9.86413e-06
3.35399e-06
9.1834e-06
2.06674e-06
8.55043e-06
9.93094e-07
7.98553e-06
1.07419e-07
7.49913e-06
-6.1462e-07
7.09497e-06
-1.19638e-06
6.77189e-06
-1.66037e-06
6.5247e-06
-2.02824e-06
6.34476e-06
-2.32089e-06
6.22059e-06
-2.55811e-06
6.13845e-06
-2.75786e-06
6.08309e-06
-2.93514e-06
6.03869e-06
-3.09992e-06
-3.25351e-06
5.99011e-06
1.60507e-06
1.0785e-05
4.4453e-06
1.49436e-05
7.23858e-06
1.50378e-05
9.38418e-06
1.382e-05
1.06993e-05
1.21979e-05
1.12868e-05
1.04489e-05
1.13771e-05
8.63823e-06
1.11667e-05
6.87956e-06
1.07899e-05
5.25748e-06
1.03343e-05
3.80962e-06
9.85599e-06
2.54509e-06
9.39066e-06
1.45849e-06
8.9606e-06
5.3757e-07
8.57911e-06
-2.33017e-07
8.25293e-06
-8.70122e-07
7.984e-06
-1.39142e-06
7.7704e-06
-1.81466e-06
7.60695e-06
-2.15749e-06
7.48577e-06
-2.43696e-06
7.39682e-06
-2.6689e-06
7.32857e-06
-2.86684e-06
7.26883e-06
-3.04015e-06
-3.19054e-06
7.20586e-06
1.508e-06
9.27697e-06
3.90358e-06
1.25485e-05
6.37777e-06
1.25635e-05
8.42232e-06
1.17755e-05
9.76699e-06
1.08534e-05
1.04741e-05
9.74191e-06
1.07617e-05
8.35067e-06
1.07869e-05
6.85431e-06
1.06501e-05
5.39422e-06
1.04187e-05
4.04105e-06
1.01391e-05
2.82478e-06
9.84342e-06
1.75421e-06
9.55393e-06
8.27122e-07
9.28545e-06
3.5511e-08
9.04712e-06
-6.3178e-07
8.84359e-06
-1.18791e-06
8.67589e-06
-1.647e-06
8.54198e-06
-2.0236e-06
8.43725e-06
-2.33224e-06
8.35503e-06
-2.58667e-06
8.28713e-06
-2.79894e-06
8.22462e-06
-2.97768e-06
-3.12478e-06
8.15876e-06
1.24331e-06
8.03394e-06
3.3973e-06
1.03947e-05
5.56086e-06
1.03998e-05
7.36667e-06
9.96986e-06
8.70198e-06
9.51815e-06
9.47557e-06
8.96836e-06
9.9295e-06
7.89676e-06
1.01659e-05
6.61788e-06
1.02479e-05
5.31225e-06
1.02233e-05
4.06563e-06
1.01294e-05
2.91873e-06
9.99478e-06
1.88889e-06
9.84102e-06
9.8087e-07
9.684e-06
1.92488e-07
9.53472e-06
-4.82555e-07
9.40008e-06
-1.05333e-06
9.28362e-06
-1.53056e-06
9.18598e-06
-1.92597e-06
9.10541e-06
-2.25166e-06
9.03817e-06
-2.51943e-06
8.979e-06
-2.7398e-06
8.92183e-06
-2.92058e-06
-3.06359e-06
8.86053e-06
8.74321e-07
7.15985e-06
2.84499e-06
8.42373e-06
4.68771e-06
8.55692e-06
6.22158e-06
8.43598e-06
7.43045e-06
8.30922e-06
8.31392e-06
8.08484e-06
8.95609e-06
7.25453e-06
9.398e-06
6.17594e-06
9.68015e-06
5.03009e-06
9.84032e-06
3.90545e-06
9.91133e-06
2.84771e-06
9.92037e-06
1.87979e-06
9.88916e-06
1.01199e-06
9.83438e-06
2.47163e-07
9.7684e-06
-4.16653e-07
9.69981e-06
-9.84793e-07
9.63412e-06
-1.46488e-06
9.57416e-06
-1.86599e-06
9.52053e-06
-2.19801e-06
9.47199e-06
-2.47087e-06
9.42578e-06
-2.69364e-06
9.37826e-06
-2.87312e-06
-3.01092e-06
9.3255e-06
7.84481e-07
6.37525e-06
2.33183e-06
6.87589e-06
3.83702e-06
7.05159e-06
5.09642e-06
7.1764e-06
6.15827e-06
7.24722e-06
7.16846e-06
7.07455e-06
7.98094e-06
6.44201e-06
8.59518e-06
5.56169e-06
9.04053e-06
4.58475e-06
9.35031e-06
3.59565e-06
9.5557e-06
2.64226e-06
9.68334e-06
1.75206e-06
9.75488e-06
9.40343e-07
9.78734e-06
2.14611e-07
9.7937e-06
-4.23063e-07
9.78355e-06
-9.74651e-07
9.7637e-06
-1.44499e-06
9.73862e-06
-1.84085e-06
9.71078e-06
-2.17014e-06
9.68098e-06
-2.44107e-06
9.64856e-06
-2.66126e-06
9.61189e-06
-2.83652e-06
-2.968e-06
9.5689e-06
1.00154e-06
5.37333e-06
2.05459e-06
5.8226e-06
3.15318e-06
5.9529e-06
4.19264e-06
6.13676e-06
5.22778e-06
6.21201e-06
6.26132e-06
6.04102e-06
7.14803e-06
5.55535e-06
7.85814e-06
4.85165e-06
8.40546e-06
4.03748e-06
8.81603e-06
3.18508e-06
9.11697e-06
2.34129e-06
9.33247e-06
1.53649e-06
9.48271e-06
7.90048e-07
9.58374e-06
1.13546e-07
9.64811e-06
-4.8743e-07
9.68552e-06
-1.01203e-06
9.7034e-06
-1.46281e-06
9.70729e-06
-1.8447e-06
9.70109e-06
-2.16394e-06
9.68725e-06
-2.42725e-06
9.66683e-06
-2.6409e-06
9.63986e-06
-2.8096e-06
-2.93393e-06
9.60575e-06
1.01318e-06
4.35989e-06
1.8796e-06
4.95634e-06
2.7494e-06
5.08309e-06
3.68686e-06
5.19933e-06
4.66971e-06
5.2293e-06
5.63675e-06
5.07416e-06
6.50296e-06
4.6893e-06
7.22845e-06
4.12629e-06
7.81345e-06
3.45255e-06
8.2739e-06
2.72465e-06
8.63006e-06
1.98512e-06
8.90153e-06
1.265e-06
9.10521e-06
5.86354e-07
9.25481e-06
-3.60422e-08
9.36127e-06
-5.93855e-07
9.43349e-06
-1.08421e-06
9.47889e-06
-1.5082e-06
9.50367e-06
-1.86949e-06
9.51282e-06
-2.17313e-06
9.5101e-06
-2.42459e-06
9.498e-06
-2.62887e-06
9.47789e-06
-2.78953e-06
-2.9064e-06
9.45036e-06
8.9774e-07
3.46224e-06
1.75223e-06
4.10219e-06
2.5877e-06
4.24774e-06
3.45294e-06
4.33434e-06
4.34252e-06
4.34e-06
5.2136e-06
4.2033e-06
6.00801e-06
3.89506e-06
6.69495e-06
3.43946e-06
7.26851e-06
2.87904e-06
7.73661e-06
2.25657e-06
8.11273e-06
1.60899e-06
8.41122e-06
9.66504e-07
8.64478e-06
3.52813e-07
8.8236e-06
-2.1484e-07
8.95601e-06
-7.26257e-07
9.04945e-06
-1.17767e-06
9.11094e-06
-1.56973e-06
9.14709e-06
-1.9057e-06
9.16379e-06
-2.18992e-06
9.16599e-06
-2.42686e-06
9.15732e-06
-2.62026e-06
9.14024e-06
-2.77244e-06
-2.88228e-06
9.11618e-06
8.56847e-07
2.60571e-06
1.70948e-06
3.24981e-06
2.52828e-06
3.42916e-06
3.33758e-06
3.52535e-06
4.13715e-06
3.54067e-06
4.90434e-06
3.43625e-06
5.6076e-06
3.19188e-06
6.22736e-06
2.81973e-06
6.7579e-06
2.3485e-06
7.20311e-06
1.81136e-06
7.57167e-06
1.24044e-06
7.87336e-06
6.64837e-07
8.11651e-06
1.09695e-07
8.30703e-06
-4.05343e-07
8.44987e-06
-8.69113e-07
8.55065e-06
-1.2785e-06
8.616e-06
-1.63516e-06
8.65303e-06
-1.94282e-06
8.66864e-06
-2.20562e-06
8.66882e-06
-2.42708e-06
8.65819e-06
-2.60964e-06
8.63994e-06
-2.75414e-06
-2.85831e-06
8.61606e-06
8.55391e-07
1.75057e-06
1.71098e-06
2.39427e-06
2.51391e-06
2.62644e-06
3.27186e-06
2.76757e-06
3.98666e-06
2.82593e-06
4.65246e-06
2.77045e-06
5.25873e-06
2.58558e-06
5.79748e-06
2.28096e-06
6.26629e-06
1.87969e-06
6.66802e-06
1.40965e-06
7.00877e-06
8.99739e-07
7.29504e-06
3.78613e-07
7.53114e-06
-1.26366e-07
7.71794e-06
-5.92114e-07
7.85632e-06
-1.00751e-06
7.95029e-06
-1.37252e-06
8.00662e-06
-1.69156e-06
8.03351e-06
-1.96977e-06
8.03906e-06
-2.21122e-06
8.0303e-06
-2.41831e-06
8.01253e-06
-2.59183e-06
7.98932e-06
-2.73087e-06
-2.83167e-06
7.96275e-06
8.62833e-07
8.87752e-07
1.72725e-06
1.52982e-06
2.51855e-06
1.83523e-06
3.22914e-06
2.05696e-06
3.86253e-06
2.19246e-06
4.42876e-06
2.20413e-06
4.936e-06
2.07828e-06
5.38694e-06
1.83e-06
5.783e-06
1.48364e-06
6.12742e-06
1.06527e-06
6.42538e-06
6.01838e-07
6.6817e-06
1.22357e-07
6.89724e-06
-3.41863e-07
7.06642e-06
-7.61267e-07
7.1854e-06
-1.12649e-06
7.25762e-06
-1.44476e-06
7.29146e-06
-1.72542e-06
7.29711e-06
-1.97541e-06
7.28419e-06
-2.19827e-06
7.26051e-06
-2.39457e-06
7.23157e-06
-2.56284e-06
7.20076e-06
-2.70002e-06
-2.80066e-06
7.16976e-06
8.72693e-07
1.4939e-08
1.75601e-06
6.46559e-07
2.54333e-06
1.04789e-06
3.20887e-06
1.39132e-06
3.75858e-06
1.64265e-06
4.22185e-06
1.74079e-06
4.62759e-06
1.67251e-06
4.9872e-06
1.47039e-06
5.30403e-06
1.16683e-06
5.58131e-06
7.8801e-07
5.82448e-06
3.58706e-07
6.03852e-06
-9.16542e-08
6.2219e-06
-5.25236e-07
6.35979e-06
-8.99151e-07
6.44288e-06
-1.20958e-06
6.47697e-06
-1.47884e-06
6.47456e-06
-1.72297e-06
6.44891e-06
-1.9497e-06
6.41102e-06
-2.16032e-06
6.36875e-06
-2.35223e-06
6.32689e-06
-2.52094e-06
6.28787e-06
-2.66099e-06
-2.76519e-06
6.25235e-06
8.98571e-07
-8.8369e-07
1.81401e-06
-2.68686e-07
2.59911e-06
2.62797e-07
3.2144e-06
7.75995e-07
3.67117e-06
1.18589e-06