/*--------------------------------*- C++ -*----------------------------------*\
| =========                 |                                                 |
| \\      /  F ield         | OpenFOAM: The Open Source CFD Toolbox           |
|  \\    /   O peration     | Version:  2.3.0                                 |
|   \\  /    A nd           | Web:      www.OpenFOAM.org                      |
|    \\/     M anipulation  |                                                 |
\*---------------------------------------------------------------------------*/
FoamFile
{
    version     2.0;
    format      ascii;
    class       volVectorField;
    location    "3";
    object      U;
}
// * * * * * * * * * * * * * * * * * * * * * * * * * * * * * * * * * * * * * //

dimensions      [0 1 -1 0 0 0 0];

internalField   nonuniform List<vector> 
2268
(
(0.00774042 -0.00419266 0)
(0.0232117 -0.0054227 0)
(0.0372994 -0.00442027 0)
(0.0492713 -0.00330118 0)
(0.0586218 -0.00247398 0)
(0.0657716 -0.00185139 0)
(0.0711869 -0.00135873 0)
(0.0751664 -0.000954849 0)
(0.0779283 -0.000617307 0)
(0.0796417 -0.000338161 0)
(0.0804713 -0.000113425 0)
(0.0805723 6.03237e-05 0)
(0.0801025 0.000145553 0)
(0.0793102 0.000109247 0)
(0.0785014 -0.000115559 0)
(0.078247 -0.00060684 0)
(0.0773707 0.000372605 0)
(0.0728654 0.00204683 0)
(0.064408 0.00303742 0)
(0.0544108 0.0030863 0)
(0.043411 0.00383265 0)
(0.0296596 0.00574848 0)
(0.0143212 0.00613904 0)
(0.00909246 -0.0105536 0)
(0.0228894 -0.0113742 0)
(0.0346777 -0.00966668 0)
(0.0453781 -0.00771594 0)
(0.0541557 -0.00603271 0)
(0.061117 -0.00463722 0)
(0.066511 -0.00348042 0)
(0.0705609 -0.00251063 0)
(0.073457 -0.00168367 0)
(0.0753458 -0.000973951 0)
(0.0763463 -0.000371866 0)
(0.0765539 0.000127413 0)
(0.0760516 0.000497974 0)
(0.0749094 0.000698351 0)
(0.0731894 0.000662745 0)
(0.0709049 0.000539028 0)
(0.0680289 0.00208946 0)
(0.0637395 0.00469284 0)
(0.0575352 0.00639741 0)
(0.049677 0.0073207 0)
(0.0400731 0.00900888 0)
(0.0289673 0.011746 0)
(0.0185231 0.014579 0)
(0.00927557 -0.0175491 0)
(0.0222484 -0.0168557 0)
(0.0329375 -0.0143739 0)
(0.0428603 -0.0117958 0)
(0.0512223 -0.00942084 0)
(0.0580218 -0.00734744 0)
(0.0633872 -0.00557821 0)
(0.0674779 -0.00407062 0)
(0.0704433 -0.00276935 0)
(0.0723951 -0.00163367 0)
(0.0734127 -0.00064202 0)
(0.0735457 0.000222216 0)
(0.0728197 0.00094922 0)
(0.0712392 0.00150037 0)
(0.068761 0.00183318 0)
(0.065191 0.00216617 0)
(0.0608567 0.00395988 0)
(0.0561705 0.00691302 0)
(0.0506533 0.00918142 0)
(0.0438203 0.0108425 0)
(0.0354862 0.0132294 0)
(0.0260853 0.016831 0)
(0.0172624 0.0238793 0)
(0.00861862 -0.0246337 0)
(0.0211957 -0.0224802 0)
(0.0315533 -0.0191638 0)
(0.0411808 -0.0159576 0)
(0.0493869 -0.0129147 0)
(0.056161 -0.0101776 0)
(0.061578 -0.00779369 0)
(0.0657521 -0.00573214 0)
(0.0687923 -0.00392828 0)
(0.0707717 -0.00232447 0)
(0.0717329 -0.000885832 0)
(0.0716913 0.000416272 0)
(0.0706375 0.00158382 0)
(0.0685405 0.00258973 0)
(0.0653352 0.00341541 0)
(0.0608696 0.00429161 0)
(0.0555736 0.00627208 0)
(0.0503047 0.00928033 0)
(0.0448946 0.0119642 0)
(0.0385774 0.0141809 0)
(0.031068 0.0171107 0)
(0.0227998 0.0216728 0)
(0.0144577 0.032947 0)
(0.00772314 -0.031222 0)
(0.0200958 -0.0280472 0)
(0.0305596 -0.0239735 0)
(0.0402484 -0.0201548 0)
(0.0485425 -0.0164671 0)
(0.0554487 -0.0130844 0)
(0.0610234 -0.0100903 0)
(0.0653464 -0.00746261 0)
(0.0684869 -0.00512695 0)
(0.0704763 -0.00300945 0)
(0.0713222 -0.00106388 0)
(0.0710148 0.00074858 0)
(0.0695287 0.00243841 0)
(0.0668281 0.00398741 0)
(0.0628748 0.00537851 0)
(0.0576443 0.006791 0)
(0.0516273 0.00895042 0)
(0.0457065 0.0118698 0)
(0.0399602 0.0147281 0)
(0.033719 0.0173667 0)
(0.026525 0.0207273 0)
(0.018853 0.0261243 0)
(0.0108494 0.0405693 0)
(0.00697318 -0.0373214 0)
(0.0193019 -0.0336122 0)
(0.0301052 -0.0288687 0)
(0.0400985 -0.0244368 0)
(0.0486845 -0.0201077 0)
(0.0558771 -0.0160845 0)
(0.0617236 -0.0124753 0)
(0.0662712 -0.00926005 0)
(0.0695457 -0.00635225 0)
(0.0715343 -0.0036628 0)
(0.0722108 -0.00113905 0)
(0.0715499 0.001262 0)
(0.06953 0.00355291 0)
(0.0661351 0.00571555 0)
(0.0613779 0.00770816 0)
(0.0553696 0.00961917 0)
(0.0486616 0.0119351 0)
(0.0420854 0.0147393 0)
(0.0358196 0.0176148 0)
(0.0293418 0.0205338 0)
(0.0222127 0.0242492 0)
(0.014958 0.0302888 0)
(0.00681185 0.0464772 0)
(0.00660127 -0.0430174 0)
(0.0189995 -0.0392487 0)
(0.0302405 -0.0339126 0)
(0.0406938 -0.028871 0)
(0.0497329 -0.0238945 0)
(0.0573515 -0.0192238 0)
(0.0635826 -0.014981 0)
(0.0684339 -0.0111406 0)
(0.0718822 -0.00760147 0)
(0.0738663 -0.00426175 0)
(0.0743282 -0.00107074 0)
(0.0732378 0.0020075 0)
(0.0705954 0.00497849 0)
(0.0664259 0.00781515 0)
(0.0608049 0.0104294 0)
(0.053967 0.0127984 0)
(0.0465265 0.0152337 0)
(0.0392728 0.0178975 0)
(0.0324462 0.0206998 0)
(0.0256789 0.0237544 0)
(0.0186421 0.0277027 0)
(0.0118553 0.0342708 0)
(0.00299342 0.0515157 0)
(0.00664627 -0.0488715 0)
(0.019158 -0.0451718 0)
(0.0308449 -0.0392742 0)
(0.0418237 -0.0336183 0)
(0.0514216 -0.0279833 0)
(0.0595741 -0.0226448 0)
(0.0662874 -0.0177273 0)
(0.0715184 -0.0131925 0)
(0.0751867 -0.00892393 0)
(0.0771779 -0.00481103 0)
(0.077404 -0.000817494 0)
(0.0758401 0.00306654 0)
(0.0725217 0.00682346 0)
(0.0675307 0.0104086 0)
(0.0610141 0.0136714 0)
(0.0533152 0.0164677 0)
(0.0451139 0.0189785 0)
(0.0371904 0.0214497 0)
(0.0298507 0.0240638 0)
(0.0228913 0.0270528 0)
(0.0162201 0.0309533 0)
(0.0102754 0.0374334 0)
(0.00425321 0.054102 0)
(-0.0360688 0.00851252 0)
(-0.0267879 -0.00745874 0)
(-0.00503403 -0.0083018 0)
(0.011127 -0.00563679 0)
(0.0216235 -0.00320431 0)
(0.0258764 -0.000695005 0)
(0.0248992 -0.000132864 0)
(0.0234433 -0.000581233 0)
(0.0156789 0.00851856 0)
(-0.0236499 0.0124119 0)
(-0.0479399 0.00267049 0)
(-0.0497769 0.00419869 0)
(-0.0722171 0.00965515 0)
(-0.109851 0.00937414 0)
(-0.131347 0.00154665 0)
(-0.122541 -0.00784807 0)
(-0.0923101 -0.0137846 0)
(-0.0525063 -0.0145041 0)
(-0.0145861 -0.00741756 0)
(-0.0257859 0.0195617 0)
(-0.0117865 -0.0100066 0)
(-0.00272207 -0.0117551 0)
(0.00426204 -0.0079657 0)
(0.00836195 -0.00394813 0)
(0.00824975 0.000118734 0)
(0.00398304 0.00150522 0)
(-0.00287266 0.00283402 0)
(-0.00984768 0.0148614 0)
(-0.0280436 0.0196099 0)
(-0.0418696 0.00759501 0)
(-0.0493608 0.00896777 0)
(-0.0666678 0.0174341 0)
(-0.0905777 0.017749 0)
(-0.101904 0.00574673 0)
(-0.0983899 -0.0101569 0)
(-0.0824445 -0.0217723 0)
(-0.0572386 -0.0266548 0)
(-0.0252591 -0.0208411 0)
(-0.00719625 0.0240118 0)
(-0.00369995 -0.0117456 0)
(-0.00282537 -0.0131526 0)
(-0.00180303 -0.00876345 0)
(-0.00179694 -0.00369421 0)
(-0.00471142 0.00170157 0)
(-0.0108426 0.00407639 0)
(-0.0189411 0.00631723 0)
(-0.0253009 0.0176833 0)
(-0.032089 0.0224947 0)
(-0.0392526 0.011644 0)
(-0.0453993 0.0131712 0)
(-0.054384 0.0226469 0)
(-0.0669266 0.0225446 0)
(-0.0755915 0.0079767 0)
(-0.076286 -0.012167 0)
(-0.0667953 -0.0280168 0)
(-0.0504766 -0.0372571 0)
(-0.0247892 -0.0384782 0)
(0.00525519 0.0238228 0)
(0.000479101 -0.0107607 0)
(-0.00449286 -0.0124201 0)
(-0.00803808 -0.00812839 0)
(-0.0110545 -0.00247559 0)
(-0.0159752 0.00400823 0)
(-0.0232483 0.00696539 0)
(-0.0310307 0.00956942 0)
(-0.0358567 0.0194939 0)
(-0.0374331 0.0235854 0)
(-0.0397492 0.0140824 0)
(-0.0423259 0.0152623 0)
(-0.0448123 0.025206 0)
(-0.0491388 0.0253885 0)
(-0.0537584 0.010036 0)
(-0.054879 -0.0132568 0)
(-0.0483658 -0.0327395 0)
(-0.0376907 -0.0449634 0)
(-0.0181103 -0.0530299 0)
(0.0104898 0.0209689 0)
(0.0012823 -0.00757355 0)
(-0.00785325 -0.00963801 0)
(-0.0147843 -0.00613849 0)
(-0.0200111 -0.000382956 0)
(-0.0263366 0.00690122 0)
(-0.0343488 0.0100367 0)
(-0.0414588 0.0122081 0)
(-0.0445908 0.0204442 0)
(-0.0431992 0.0233258 0)
(-0.0416437 0.0146385 0)
(-0.0401311 0.0152123 0)
(-0.0371517 0.0252729 0)
(-0.0344936 0.0257965 0)
(-0.0337911 0.0109954 0)
(-0.0335187 -0.0139563 0)
(-0.0286706 -0.0361286 0)
(-0.0223124 -0.0497382 0)
(-0.00896013 -0.0626843 0)
(0.0111615 0.017782 0)
(-0.00110232 -0.00281773 0)
(-0.0129548 -0.00543341 0)
(-0.0220219 -0.00316275 0)
(-0.028735 0.00234654 0)
(-0.0359609 0.0102023 0)
(-0.0445273 0.013238 0)
(-0.0511835 0.0142729 0)
(-0.0524323 0.0204595 0)
(-0.0481837 0.0217572 0)
(-0.043369 0.0134689 0)
(-0.0384869 0.0132303 0)
(-0.0311523 0.0230342 0)
(-0.0227479 0.0235561 0)
(-0.0163317 0.0100733 0)
(-0.0129604 -0.0148519 0)
(-0.00913976 -0.0383237 0)
(-0.0066693 -0.0521232 0)
(0.000784902 -0.0670286 0)
(0.00619016 0.0161025 0)
(-0.00638013 0.00263074 0)
(-0.0192773 -0.000548175 0)
(-0.029484 0.000405383 0)
(-0.0370652 0.00543912 0)
(-0.0446708 0.0137421 0)
(-0.0534423 0.0165175 0)
(-0.0595687 0.0157682 0)
(-0.0585176 0.0191945 0)
(-0.0511799 0.0189429 0)
(-0.0440145 0.0110696 0)
(-0.0374283 0.00998646 0)
(-0.0270073 0.0187353 0)
(-0.0138787 0.019142 0)
(-0.00245838 0.00705667 0)
(0.00502676 -0.01667 0)
(0.00842778 -0.0393686 0)
(0.0075747 -0.0526861 0)
(0.00981956 -0.0657704 0)
(-0.00529839 0.0181263 0)
(-0.0130366 0.00819932 0)
(-0.0258714 0.00466594 0)
(-0.036806 0.00445068 0)
(-0.0449369 0.00869333 0)
(-0.0522499 0.0172077 0)
(-0.060267 0.019581 0)
(-0.0651636 0.0165702 0)
(-0.06205 0.0166496 0)
(-0.0524419 0.0150323 0)
(-0.0435335 0.00793231 0)
(-0.0359799 0.00608938 0)
(-0.0235921 0.012557 0)
(-0.00703641 0.0126934 0)
(0.00842752 0.00189064 0)
(0.0190706 -0.0194612 0)
(0.022161 -0.0394071 0)
(0.0189948 -0.0514338 0)
(0.016913 -0.0599216 0)
(0.00671279 -0.0589492 0)
(0.0193914 -0.055246 0)
(0.0318333 -0.0484618 0)
(0.0436954 -0.041793 0)
(0.054245 -0.0351028 0)
(0.0633192 -0.0286757 0)
(0.0708679 -0.0226067 0)
(0.0767597 -0.0168294 0)
(0.0808204 -0.0112076 0)
(0.0828525 -0.00562514 0)
(0.082725 -8.86087e-05 0)
(0.0804243 0.00533197 0)
(0.0760461 0.0105373 0)
(0.069787 0.0154377 0)
(0.0619212 0.0197657 0)
(0.0529361 0.0231827 0)
(0.0436045 0.0257232 0)
(0.0347344 0.0277586 0)
(0.0267615 0.0298196 0)
(0.0197757 0.0322401 0)
(0.0142544 0.0352093 0)
(0.0113803 0.0393991 0)
(0.0193062 0.0446197 0)
(0.00592254 -0.0696695 0)
(0.0176896 -0.0689535 0)
(0.0307826 -0.0617647 0)
(0.0434976 -0.05386 0)
(0.055068 -0.0457282 0)
(0.0651918 -0.0377412 0)
(0.0737098 -0.0299113 0)
(0.0803856 -0.0221663 0)
(0.084958 -0.0143904 0)
(0.0871552 -0.00649197 0)
(0.0868192 0.00135453 0)
(0.0838668 0.00897378 0)
(0.0783531 0.016051 0)
(0.0707091 0.0224513 0)
(0.0615249 0.0278615 0)
(0.0514253 0.0317878 0)
(0.0411504 0.0341649 0)
(0.0315119 0.0354222 0)
(0.0231955 0.0363125 0)
(0.0166425 0.0371871 0)
(0.0121935 0.0377652 0)
(0.0101245 0.0376682 0)
(0.0123344 0.0361607 0)
(0.00996024 -0.0722603 0)
(0.0142452 -0.0778441 0)
(0.025781 -0.0716174 0)
(0.0383549 -0.0630376 0)
(0.0506617 -0.0538419 0)
(0.0616259 -0.0447528 0)
(0.0708565 -0.0356544 0)
(0.0781613 -0.0264154 0)
(0.0833299 -0.0169823 0)
(0.086093 -0.00722587 0)
(0.0865119 0.00238677 0)
(0.0844116 0.0119131 0)
(0.0786027 0.0207299 0)
(0.0697289 0.0286413 0)
(0.059867 0.0353329 0)
(0.0498367 0.0397591 0)
(0.0394791 0.0417446 0)
(0.0290034 0.0418733 0)
(0.0195108 0.0414859 0)
(0.012994 0.0412786 0)
(0.0105108 0.0406414 0)
(0.010711 0.0393935 0)
(0.0125639 0.0379935 0)
(0.0358696 -0.0918437 0)
(0.00819148 -0.0851377 0)
(0.0125746 -0.0815779 0)
(0.0248915 -0.074062 0)
(0.0400313 -0.0637793 0)
(0.0528537 -0.0532337 0)
(0.0622665 -0.0425558 0)
(0.0695456 -0.0314725 0)
(0.0753142 -0.0200996 0)
(0.07927 -0.00771859 0)
(0.081604 0.0026878 0)
(0.0836342 0.0141982 0)
(0.0772337 0.0264755 0)
(0.0636408 0.0350021 0)
(0.0538501 0.0417706 0)
(0.0482709 0.0462904 0)
(0.0410415 0.0486969 0)
(0.0288137 0.0487343 0)
(0.0126189 0.0479181 0)
(0.00215317 0.0452038 0)
(0.00551425 0.0409847 0)
(0.0152697 0.0379518 0)
(0.0277467 0.0365296 0)
(0.0620979 -0.125905 0)
(0.0188326 -0.0671114 0)
(-0.0147603 -0.0861621 0)
(-0.00889616 -0.0980834 0)
(0.0151785 -0.0877629 0)
(0.0310516 -0.0696103 0)
(0.0343683 -0.0541773 0)
(0.0354849 -0.0433074 0)
(0.0406171 -0.0323202 0)
(0.0517583 -0.0187751 0)
(0.065009 -0.00496387 0)
(0.0714648 0.0169088 0)
(0.0728484 0.0605219 0)
(0.0549343 0.0702239 0)
(0.0488031 0.0613001 0)
(0.0572043 0.060839 0)
(0.0573637 0.080333 0)
(0.0333908 0.0924416 0)
(-0.0060336 0.0915582 0)
(-0.011114 0.0448134 0)
(0.0101697 0.0212545 0)
(0.0296574 0.0162972 0)
(0.0480735 0.014198 0)
(-0.0133373 -0.176278 0)
(0.000315497 -0.00746028 0)
(-0.035655 -0.0680838 0)
(-0.0254114 -0.118348 0)
(-0.00466933 -0.115054 0)
(0.0124712 -0.0830718 0)
(0.0165045 -0.0563591 0)
(0.0148208 -0.0432125 0)
(0.0119172 -0.0346421 0)
(0.00999912 -0.0251817 0)
(0.00888946 -0.00793776 0)
(0.00451127 0.0138258 0)
(0.00771936 0.0513304 0)
(0.0237456 0.0589493 0)
(0.0313137 0.0434021 0)
(0.038519 0.0423432 0)
(0.0498294 0.0715225 0)
(0.0492261 0.106702 0)
(0.0352841 0.102989 0)
(0.0322978 0.0347591 0)
(0.0340634 0.00818812 0)
(0.0284999 0.0077275 0)
(0.0169496 0.0072413 0)
(-0.0635065 -0.13238 0)
(-0.00985588 -0.00430489 0)
(0.0043223 -0.0531915 0)
(0.00607639 -0.120924 0)
(0.00339536 -0.123942 0)
(0.00909348 -0.0823597 0)
(0.00548493 -0.0490752 0)
(-0.0041535 -0.0373203 0)
(-0.0193988 -0.0273176 0)
(-0.0426007 -0.020695 0)
(-0.0596252 -0.00784718 0)
(-0.0526122 0.00367067 0)
(-0.0284446 0.0257174 0)
(-0.00457914 0.041553 0)
(0.00818763 0.0360399 0)
(0.0137883 0.033535 0)
(0.0266333 0.0566316 0)
(0.0455932 0.0983481 0)
(0.0613537 0.0984286 0)
(0.0651974 0.0364572 0)
(0.0523359 0.0149439 0)
(0.0295477 0.0308088 0)
(-0.013502 0.0190798 0)
(-0.0798836 -0.0976967 0)
(-0.0394113 -0.0457432 0)
(-0.00520709 -0.0827883 0)
(0.0176636 -0.131938 0)
(0.0165795 -0.131538 0)
(0.00666349 -0.0730766 0)
(-0.0145171 -0.0325615 0)
(-0.0375744 -0.0155291 0)
(-0.0600678 0.0011895 0)
(-0.0799628 0.0102695 0)
(-0.0808528 -0.00311865 0)
(-0.068571 -0.0105538 0)
(-0.0507084 0.00584179 0)
(-0.0293133 0.028843 0)
(-0.015163 0.0294974 0)
(-0.0105947 0.0245647 0)
(-0.00293072 0.0413989 0)
(0.0172395 0.0802863 0)
(0.0459403 0.0887855 0)
(0.0592492 0.0462878 0)
(0.0251524 0.0381545 0)
(0.00299188 0.0740375 0)
(-0.0135217 0.0542331 0)
(-0.108166 -0.0231338 0)
(-0.0799969 -0.0746039 0)
(-0.0528292 -0.122734 0)
(-0.0399977 -0.143947 0)
(-0.0397839 -0.118791 0)
(-0.0461484 -0.0523274 0)
(-0.0663749 -0.010833 0)
(-0.0837271 0.00555729 0)
(-0.0936572 0.014836 0)
(-0.0938569 0.0145477 0)
(-0.0863828 -0.00828605 0)
(-0.082005 -0.0266271 0)
(-0.0778086 -0.0143866 0)
(-0.0624083 0.010619 0)
(-0.0467692 0.0203263 0)
(-0.0411191 0.0184871 0)
(-0.0430354 0.0287729 0)
(-0.0330375 0.0574285 0)
(-0.0134812 0.0654813 0)
(-0.0129821 0.0597241 0)
(-0.0228822 0.0652648 0)
(-0.026429 0.0764427 0)
(-0.0251431 0.0638386 0)
(-0.108886 0.0530802 0)
(-0.0958993 -0.0774498 0)
(-0.0824272 -0.13197 0)
(-0.0852315 -0.140303 0)
(-0.104204 -0.107032 0)
(-0.121603 -0.0369826 0)
(-0.131544 0.00068765 0)
(-0.133632 0.0123528 0)
(-0.13129 0.012826 0)
(-0.124502 0.00303962 0)
(-0.118859 -0.0153702 0)
(-0.117825 -0.0298724 0)
(-0.114659 -0.0258405 0)
(-0.104926 -0.0074592 0)
(-0.0949779 0.00926372 0)
(-0.0918964 0.0169763 0)
(-0.0916766 0.026058 0)
(-0.0846945 0.0410891 0)
(-0.0717728 0.0525189 0)
(-0.0635414 0.0584389 0)
(-0.0598084 0.0641684 0)
(-0.0535532 0.0673125 0)
(-0.0455881 0.0564861 0)
(-0.0840417 0.138762 0)
(-0.0799425 -0.0688522 0)
(-0.0955504 -0.126954 0)
(-0.121396 -0.121222 0)
(-0.160585 -0.0813454 0)
(-0.182298 -0.0252648 0)
(-0.180098 -0.0021029 0)
(-0.170157 0.00570458 0)
(-0.158644 0.00290468 0)
(-0.147955 -0.00623627 0)
(-0.142046 -0.0159424 0)
(-0.142401 -0.0261965 0)
(-0.142636 -0.0261862 0)
(-0.138428 -0.0130899 0)
(-0.132268 0.00509083 0)
(-0.127861 0.0160683 0)
(-0.12438 0.0249186 0)
(-0.117372 0.0342248 0)
(-0.106637 0.0428891 0)
(-0.0960348 0.0495588 0)
(-0.0860618 0.0554262 0)
(-0.0750568 0.0565374 0)
(-0.0644106 0.047793 0)
(-0.0474295 0.205808 0)
(-0.0526187 -0.038612 0)
(-0.109839 -0.0980865 0)
(-0.16082 -0.0810162 0)
(-0.191372 -0.0480841 0)
(-0.20121 -0.0205112 0)
(-0.196021 -0.0108412 0)
(-0.185753 -0.00621359 0)
(-0.174341 -0.00831781 0)
(-0.165116 -0.0140052 0)
(-0.159782 -0.0181494 0)
(-0.158819 -0.0254635 0)
(-0.159644 -0.0267536 0)
(-0.158735 -0.0167551 0)
(-0.154434 -0.000493493 0)
(-0.148132 0.010893 0)
(-0.141784 0.0191743 0)
(-0.13424 0.0259276 0)
(-0.124778 0.0323195 0)
(-0.114092 0.0381278 0)
(-0.102443 0.0433256 0)
(-0.0899244 0.0445872 0)
(-0.078427 0.0378734 0)
(-0.0289949 0.2457 0)
(-0.0560358 0.0169461 0)
(-0.125306 -0.036905 0)
(-0.16754 -0.0419591 0)
(-0.189956 -0.031974 0)
(-0.195796 -0.020872 0)
(-0.193 -0.0173491 0)
(-0.186511 -0.0155093 0)
(-0.178861 -0.0173484 0)
(-0.172569 -0.0208133 0)
(-0.167712 -0.0224682 0)
(-0.164733 -0.0261592 0)
(-0.16463 -0.0264896 0)
(-0.164226 -0.0187502 0)
(-0.160304 -0.0063823 0)
(-0.153735 0.00385105 0)
(-0.14646 0.0116984 0)
(-0.138731 0.0175868 0)
(-0.130194 0.0225398 0)
(-0.120607 0.0271641 0)
(-0.109753 0.0310796 0)
(-0.0978 0.0324398 0)
(-0.0864299 0.0275513 0)
(-0.0224814 0.271073 0)
(-0.0574907 0.081162 0)
(-0.116374 0.0128659 0)
(-0.151681 -0.0127626 0)
(-0.171008 -0.0193004 0)
(-0.177746 -0.0196233 0)
(-0.177429 -0.020616 0)
(-0.173974 -0.0216828 0)
(-0.169337 -0.0235143 0)
(-0.165024 -0.0254687 0)
(-0.161344 -0.0266136 0)
(-0.158912 -0.0279511 0)
(-0.158176 -0.0267464 0)
(-0.157224 -0.0207584 0)
(-0.15388 -0.0116955 0)
(-0.148234 -0.00304291 0)
(-0.14143 0.00411476 0)
(-0.134087 0.00962565 0)
(-0.126386 0.0139522 0)
(-0.118039 0.0176096 0)
(-0.108712 0.0203257 0)
(-0.0983038 0.0211093 0)
(-0.0879892 0.0175702 0)
(-0.0149529 0.29814 0)
(-0.0445926 0.133602 0)
(-0.0937025 0.0533154 0)
(-0.123435 0.0127359 0)
(-0.141339 -0.00663201 0)
(-0.1495 -0.0157111 0)
(-0.151801 -0.0208878 0)
(-0.151131 -0.0241588 0)
(-0.14915 -0.0265867 0)
(-0.146946 -0.0283322 0)
(-0.144936 -0.0292247 0)
(-0.14357 -0.0293814 0)
(-0.142976 -0.0275396 0)
(-0.142027 -0.0227443 0)
(-0.139425 -0.0158761 0)
(-0.135006 -0.00881646 0)
(-0.129362 -0.00257275 0)
(-0.123003 0.00246007 0)
(-0.116208 0.00635898 0)
(-0.108946 0.00932858 0)
(-0.101018 0.0112193 0)
(-0.0923426 0.0113792 0)
(-0.083649 0.00861352 0)
(-0.000798693 0.319523 0)
(-0.0205193 0.175561 0)
(-0.0631527 0.0867891 0)
(-0.0880866 0.0353069 0)
(-0.104997 0.00635954 0)
(-0.114567 -0.00959336 0)
(-0.11935 -0.0187191 0)
(-0.121381 -0.0241238 0)
(-0.12198 -0.0274504 0)
(-0.121995 -0.0294002 0)
(-0.121845 -0.030206 0)
(-0.121821 -0.0299348 0)
(-0.12193 -0.0280522 0)
(-0.121531 -0.0242021 0)
(-0.119867 -0.0189094 0)
(-0.116748 -0.013245 0)
(-0.112459 -0.00799117 0)
(-0.107359 -0.00357385 0)
(-0.101709 -0.000126827 0)
(-0.0955855 0.00233209 0)
(-0.0889564 0.00364616 0)
(-0.0818808 0.00341185 0)
(-0.0748554 0.00110464 0)
(0.0165942 0.316206 0)
(0.00934885 0.211735 0)
(-0.0263545 0.115406 0)
(-0.0483563 0.055915 0)
(-0.0650293 0.0198725 0)
(-0.0761582 -0.00143925 0)
(-0.083331 -0.0140157 0)
(-0.0879697 -0.021486 0)
(-0.0910791 -0.0259244 0)
(-0.0933168 -0.0284151 0)
(-0.0950527 -0.0294682 0)
(-0.0964954 -0.0292886 0)
(-0.0976309 -0.0277458 0)
(-0.0981052 -0.0247773 0)
(-0.0974927 -0.0207441 0)
(-0.0956477 -0.0163061 0)
(-0.092711 -0.0120407 0)
(-0.0889231 -0.00834274 0)
(-0.0845044 -0.00542822 0)
(-0.0795887 -0.00342712 0)
(-0.0742572 -0.00250715 0)
(-0.0686541 -0.00292197 0)
(-0.0631598 -0.00488837 0)
(0.0316967 0.2857 0)
(0.0383309 0.235097 0)
(0.0129627 0.140627 0)
(-0.00786004 0.075607 0)
(-0.0247193 0.0343074 0)
(-0.0374296 0.00875571 0)
(-0.046833 -0.00683855 0)
(-0.053866 -0.0163283 0)
(-0.0592782 -0.0220662 0)
(-0.0635798 -0.0253931 0)
(-0.0670847 -0.0270278 0)
(-0.0699626 -0.0273256 0)
(-0.0722221 -0.0263904 0)
(-0.0736848 -0.0243187 0)
(-0.0741276 -0.0213968 0)
(-0.0734642 -0.0180689 0)
(-0.0717763 -0.0147651 0)
(-0.0692343 -0.0118272 0)
(-0.0660246 -0.00949372 0)
(-0.0623042 -0.00793811 0)
(-0.0582154 -0.00732317 0)
(-0.0539457 -0.00781322 0)
(-0.0498133 -0.00949137 0)
(0.0385952 0.237459 0)
(0.0580116 0.239778 0)
(0.0460533 0.160335 0)
(0.0285248 0.0944045 0)
(0.0120954 0.0496172 0)
(-0.00165407 0.0207512 0)
(-0.0127528 0.00251217 0)
(-0.0216939 -0.008959 0)
(-0.0289784 -0.0161475 0)
(-0.0349894 -0.0205559 0)
(-0.0399831 -0.0230499 0)
(-0.0441087 -0.0241074 0)
(-0.0474046 -0.023976 0)
(-0.0498013 -0.0228441 0)
(-0.0511989 -0.0209664 0)
(-0.0515652 -0.0186717 0)
(-0.0509652 -0.0162924 0)
(-0.0495319 -0.0141185 0)
(-0.0474273 -0.0123804 0)
(-0.0448132 -0.0112595 0)
(-0.0418565 -0.0109061 0)
(-0.0387589 -0.011436 0)
(-0.0358013 -0.0128712 0)
(0.034372 0.185772 0)
(0.0628893 0.226545 0)
(0.0650828 0.17035 0)
(0.05474 0.109871 0)
(0.0411284 0.0644919 0)
(0.02796 0.0336044 0)
(0.0163313 0.0132681 0)
(0.00636807 -1.6126e-05 0)
(-0.00209123 -0.00869234 0)
(-0.00925417 -0.0143228 0)
(-0.0152991 -0.0178568 0)
(-0.0203462 -0.0198549 0)
(-0.0244483 -0.0206527 0)
(-0.0275978 -0.0204939 0)
(-0.0297674 -0.0196211 0)
(-0.0309641 -0.0183015 0)
(-0.0312524 -0.0168035 0)
(-0.0307463 -0.0153736 0)
(-0.0295895 -0.0142223 0)
(-0.0279379 -0.0135228 0)
(-0.0259612 -0.0134111 0)
(-0.0238572 -0.013976 0)
(-0.0218782 -0.0152152 0)
(0.0230582 0.142875 0)
(0.0550176 0.202302 0)
(0.0687201 0.16875 0)
(0.0677143 0.118671 0)
(0.0595438 0.0763519 0)
(0.0490709 0.0454916 0)
(0.0385232 0.0241186 0)
(0.0287629 0.00952113 0)
(0.0200616 -0.000455512 0)
(0.0124604 -0.00728107 0)
(0.00591635 -0.0119004 0)
(0.000370711 -0.0149076 0)
(-0.00421444 -0.0166816 0)
(-0.00785402 -0.0174944 0)
(-0.0105572 -0.0175827 0)
(-0.0123534 -0.0171784 0)
(-0.0133084 -0.0165084 0)
(-0.0135236 -0.0157843 0)
(-0.0131271 -0.0151945 0)
(-0.0122628 -0.0148976 0)
(-0.01109 -0.0150167 0)
(-0.00979328 -0.0156255 0)
(-0.00859792 -0.0167145 0)
(0.0120875 0.113146 0)
(0.0418796 0.174287 0)
(0.0621821 0.157381 0)
(0.0694544 0.119454 0)
(0.0676821 0.0831804 0)
(0.0613399 0.0545941 0)
(0.0532355 0.0335893 0)
(0.044832 0.0184953 0)
(0.0368293 0.00767074 0)
(0.0295403 -0.000117334 0)
(0.0230895 -0.00571226 0)
(0.017513 -0.0096758 0)
(0.0128131 -0.012387 0)
(0.00898384 -0.01412 0)
(0.0060098 -0.0151013 0)
(0.00385632 -0.0155385 0)
(0.00246177 -0.0156287 0)
(0.00173705 -0.0155564 0)
(0.00157032 -0.0154886 0)
(0.001834 -0.0155688 0)
(0.00238515 -0.0159084 0)
(0.00305841 -0.0165732 0)
(0.0036554 -0.0175548 0)
(0.00559472 0.0940513 0)
(0.0301963 0.147336 0)
(0.0523159 0.140396 0)
(0.0647646 0.113545 0)
(0.068388 0.0846373 0)
(0.0663326 0.05998 0)
(0.0612763 0.0406628 0)
(0.0549433 0.0259813 0)
(0.0483233 0.0148981 0)
(0.0419522 0.00651956 0)
(0.0361072 0.000182353 0)
(0.0309237 -0.00458333 0)
(0.0264613 -0.00811354 0)
(0.0227397 -0.0106614 0)
(0.0197549 -0.0124342 0)
(0.0174801 -0.0136173 0)
(0.0158645 -0.0143831 0)
(0.014834 -0.0148934 0)
(0.0142948 -0.0152959 0)
(0.0141385 -0.0157196 0)
(0.0142426 -0.0162658 0)
(0.0144628 -0.0169959 0)
(0.0146286 -0.017906 0)
(0.00322881 0.0811763 0)
(0.0225839 0.123847 0)
(0.0434513 0.121833 0)
(0.0579388 0.103591 0)
(0.0650382 0.0818167 0)
(0.0664369 0.0617987 0)
(0.0642538 0.0450389 0)
(0.0601565 0.0315094 0)
(0.0552343 0.0207245 0)
(0.0501423 0.0121581 0)
(0.0452571 0.00536899 0)
(0.0407874 1.55315e-05 0)
(0.0368442 -0.00416497 0)
(0.0334789 -0.00738352 0)
(0.0307067 -0.00981927 0)
(0.0285157 -0.0116331 0)
(0.0268708 -0.0129749 0)
(0.0257154 -0.0139856 0)
(0.0249751 -0.0147958 0)
(0.0245622 -0.0155208 0)
(0.0243758 -0.0162534 0)
(0.0242937 -0.0170518 0)
(0.0241723 -0.017917 0)
(0.0030015 0.0711693 0)
(0.0184434 0.10418 0)
(0.0368438 0.104134 0)
(0.0513266 0.0919832 0)
(0.0601237 0.0763014 0)
(0.0637944 0.0608726 0)
(0.0638453 0.0470115 0)
(0.0617385 0.0350603 0)
(0.0585098 0.0249697 0)
(0.05482 0.0165503 0)
(0.051074 0.00958488 0)
(0.0475135 0.00387093 0)
(0.0442793 -0.000769851 0)
(0.041449 -0.00449496 0)
(0.0390571 -0.0074488 0)
(0.0371093 -0.00976591 0)
(0.0355876 -0.011574 0)
(0.0344542 -0.0129948 0)
(0.0336545 -0.0141426 0)
(0.0331214 -0.0151204 0)
(0.0327756 -0.0160128 0)
(0.0325162 -0.0168753 0)
(0.0322252 -0.0177133 0)
(0.00337563 0.0622483 0)
(0.016173 0.0876802 0)
(0.0320325 0.088189 0)
(0.0456003 0.0801847 0)
(0.0549082 0.0694515 0)
(0.0597892 0.0581947 0)
(0.0613263 0.0471612 0)
(0.060792 0.0368943 0)
(0.059076 0.0276888 0)
(0.0567518 0.0196365 0)
(0.0541874 0.0127141 0)
(0.051618 0.00684458 0)
(0.049192 0.00192959 0)
(0.0470009 -0.00213583 0)
(0.0450961 -0.00545934 0)
(0.0434987 -0.00814888 0)
(0.0422081 -0.0103105 0)
(0.0412044 -0.0120478 0)
(0.0404522 -0.01346 0)
(0.0399038 -0.0146381 0)
(0.0395004 -0.0156589 0)
(0.0391609 -0.016575 0)
(0.0387908 -0.0173946 0)
(0.00366771 0.0537544 0)
(0.014436 0.0736608 0)
(0.0280785 0.07401 0)
(0.0404717 0.0687857 0)
(0.0496402 0.0621352 0)
(0.0549965 0.0546038 0)
(0.0574278 0.0460641 0)
(0.0581001 0.0373397 0)
(0.0576932 0.0290383 0)
(0.0566328 0.0214672 0)
(0.0552107 0.0147457 0)
(0.0536314 0.00889146 0)
(0.0520367 0.00387006 0)
(0.0505231 -0.000379027 0)
(0.049154 -0.00393002 0)
(0.0479643 -0.00686552 0)
(0.0469684 -0.00927112 0)
(0.046163 -0.0112333 0)
(0.0455298 -0.0128371 0)
(0.0450391 -0.0141622 0)
(0.0446503 -0.0152775 0)
(0.0443006 -0.0162318 0)
(0.0439163 -0.0170349 0)
(0.00295376 0.046297 0)
(0.0123715 0.0613761 0)
(0.0244277 0.0614874 0)
(0.0352635 0.0583274 0)
(0.0437539 0.054816 0)
(0.0493053 0.0505599 0)
(0.052442 0.0440466 0)
(0.0541752 0.0366118 0)
(0.0549536 0.0291586 0)
(0.0550525 0.0221302 0)
(0.0546914 0.0157296 0)
(0.0540447 0.0100336 0)
(0.0532457 0.00505236 0)
(0.0523936 0.000760323 0)
(0.0515598 -0.00288863 0)
(0.0507909 -0.00595387 0)
(0.0501141 -0.00850207 0)
(0.0495398 -0.0106037 0)
(0.049065 -0.0123305 0)
(0.0486753 -0.013751 0)
(0.0483464 -0.0149263 0)
(0.0480314 -0.0159008 0)
(0.0476748 -0.0166846 0)
(0.00137065 0.0406991 0)
(0.00996206 0.0502735 0)
(0.0205517 0.050643 0)
(0.0296767 0.0492818 0)
(0.0370404 0.0479659 0)
(0.0426111 0.046073 0)
(0.0466475 0.0410821 0)
(0.0494922 0.0347555 0)
(0.0513828 0.0281385 0)
(0.0525238 0.021725 0)
(0.0531047 0.0157557 0)
(0.0532871 0.0103424 0)
(0.0532021 0.00552759 0)
(0.052952 0.00131385 0)
(0.0526141 -0.00232044 0)
(0.0522436 -0.00541362 0)
(0.0518776 -0.00801479 0)
(0.0515378 -0.0101797 0)
(0.0512332 -0.0119673 0)
(0.0509626 -0.013436 0)
(0.0507153 -0.0146387 0)
(0.0504585 -0.0156148 0)
(0.050152 -0.0163737 0)
(0.00149408 0.0363276 0)
(0.00841985 0.0408593 0)
(0.0168138 0.0416276 0)
(0.0241676 0.0418068 0)
(0.0303962 0.0418549 0)
(0.0359934 0.0409391 0)
(0.0409027 0.0370884 0)
(0.0447184 0.0318323 0)
(0.0475252 0.0261087 0)
(0.0495099 0.0203992 0)
(0.0508546 0.0149617 0)
(0.0517167 0.00993434 0)
(0.0522258 0.00538755 0)
(0.0524851 0.00134989 0)
(0.0525745 -0.00217768 0)
(0.0525535 -0.00521429 0)
(0.0524655 -0.00779297 0)
(0.05234 -0.00995596 0)
(0.0521957 -0.0117508 0)
(0.0520418 -0.0132263 0)
(0.051879 -0.0144272 0)
(0.0516864 -0.0153877 0)
(0.0514365 -0.0161153 0)
(0.00333345 0.0316174 0)
(0.00822179 0.0339138 0)
(0.0140224 0.0347363 0)
(0.0197519 0.0356849 0)
(0.0253426 0.0361923 0)
(0.0309657 0.0353652 0)
(0.0361948 0.0323922 0)
(0.0404904 0.0281559 0)
(0.04384 0.0233458 0)
(0.0463758 0.0183875 0)
(0.0482515 0.0135409 0)
(0.0496084 0.0089649 0)
(0.0505662 0.00475465 0)
(0.0512217 0.000962667 0)
(0.0516511 -0.00238949 0)
(0.0519131 -0.00530395 0)
(0.0520528 -0.00779985 0)
(0.0521047 -0.00990794 0)
(0.0520942 -0.0116659 0)
(0.0520389 -0.0131136 0)
(0.0519488 -0.0142884 0)
(0.051813 -0.0152187 0)
(0.0516145 -0.0159096 0)
(0.00376426 0.0262423 0)
(0.00786766 0.0288682 0)
(0.0123647 0.0295942 0)
(0.0172386 0.0304427 0)
(0.0224311 0.0307575 0)
(0.0277493 0.0298952 0)
(0.0327466 0.0275729 0)
(0.0370365 0.0241968 0)
(0.0405407 0.0202159 0)
(0.0433216 0.0159749 0)
(0.0454865 0.0117168 0)
(0.0471466 0.0076094 0)
(0.0484015 0.00376627 0)
(0.0493333 0.000259547 0)
(0.0500077 -0.00287209 0)
(0.0504765 -0.00561737 0)
(0.0507831 -0.00798495 0)
(0.0509639 -0.00999699 0)
(0.051049 -0.0116833 0)
(0.0510629 -0.0130765 0)
(0.0510229 -0.0142067 0)
(0.0509269 -0.0150964 0)
(0.0507661 -0.015747 0)
(0.00329327 0.0210557 0)
(0.00730159 0.0243826 0)
(0.0116214 0.0251084 0)
(0.0161711 0.0256357 0)
(0.0209286 0.0257031 0)
(0.0257196 0.0248983 0)
(0.0302432 0.0230482 0)
(0.0342388 0.0203345 0)
(0.0376179 0.0170383 0)
(0.0403978 0.0134219 0)
(0.0426442 0.00969928 0)
(0.0444362 0.0060362 0)
(0.0458487 0.002557 0)
(0.0469432 -0.000651334 0)
(0.0477683 -0.00353773 0)
(0.048365 -0.00608265 0)
(0.0487717 -0.00828926 0)
(0.0490252 -0.010175 0)
(0.0491597 -0.0117645 0)
(0.0492055 -0.0130843 0)
(0.0491862 -0.014158 0)
(0.049107 -0.0150016 0)
(0.0489657 -0.015612 0)
(0.00313067 0.0163344 0)
(0.00709079 0.0198303 0)
(0.0113981 0.0206795 0)
(0.0157403 0.0211277 0)
(0.0200884 0.0211433 0)
(0.0243328 0.0204736 0)
(0.028312 0.018992 0)
(0.0318776 0.0167832 0)
(0.0349643 0.0140279 0)
(0.0375733 0.010925 0)
(0.0397439 0.0076589 0)
(0.0415298 0.00438883 0)
(0.0429821 0.00124623 0)
(0.0441388 -0.00166978 0)
(0.0450268 -0.00430059 0)
(0.0456727 -0.00662543 0)
(0.0461093 -0.00864849 0)
(0.0463745 -0.0103873 0)
(0.046507 -0.0118641 0)
(0.046543 -0.0131005 0)
(0.0465117 -0.0141134 0)
(0.0464239 -0.0149117 0)
(0.0462824 -0.0154866 0)
(0.00315102 0.0117128 0)
(0.00711001 0.0152165 0)
(0.0114047 0.0163034 0)
(0.0155663 0.0169012 0)
(0.0195342 0.0170613 0)
(0.0232559 0.0166103 0)
(0.0266838 0.0154548 0)
(0.0297638 0.0136454 0)
(0.032467 0.0113133 0)
(0.0347963 0.00861825 0)
(0.0367794 0.0057226 0)
(0.0384537 0.00278092 0)
(0.0398515 -6.67565e-05 0)
(0.0409854 -0.00270716 0)
(0.0418554 -0.00507899 0)
(0.042472 -0.00717026 0)
(0.0428652 -0.00899468 0)
(0.0430774 -0.0105751 0)
(0.0431542 -0.0119335 0)
(0.0431379 -0.0130865 0)
(0.0430626 -0.0140433 0)
(0.0429428 -0.0148042 0)
(0.0427837 -0.0153534 0)
(0.00318913 0.00706065 0)
(0.00720061 0.0105747 0)
(0.0115005 0.0120053 0)
(0.0155056 0.0129416 0)
(0.0191145 0.0134244 0)
(0.0223293 0.0132855 0)
(0.0252075 0.0124479 0)
(0.0277783 0.0109689 0)
(0.0300486 0.00896902 0)
(0.0320296 0.0065904 0)
(0.0337456 0.00398254 0)
(0.0352277 0.00130005 0)
(0.0364961 -0.00130158 0)
(0.0375352 -0.00368533 0)
(0.0383096 -0.00579357 0)
(0.0388149 -0.00763926 0)
(0.0390868 -0.00925644 0)
(0.0391792 -0.0106776 0)
(0.0391479 -0.0119242 0)
(0.0390414 -0.0130058 0)
(0.0388959 -0.0139214 0)
(0.0387269 -0.0146608 0)
(0.0385393 -0.0151994 0)
(0.00321852 0.00238383 0)
(0.00734003 0.00587762 0)
(0.0116917 0.0077587 0)
(0.0155631 0.00923082 0)
(0.0188095 0.0102264 0)
(0.0215008 0.0105014 0)