/*--------------------------------*- C++ -*----------------------------------*\
| =========                 |                                                 |
| \\      /  F ield         | OpenFOAM: The Open Source CFD Toolbox           |
|  \\    /   O peration     | Version:  2.3.0                                 |
|   \\  /    A nd           | Web:      www.OpenFOAM.org                      |
|    \\/     M anipulation  |                                                 |
\*---------------------------------------------------------------------------*/
FoamFile
{
    version     2.0;
    format      ascii;
    class       volScalarField;
    location    "2.4";
    object      alpha.water;
}
// * * * * * * * * * * * * * * * * * * * * * * * * * * * * * * * * * * * * * //

dimensions      [0 0 0 0 0 0 0];

internalField   nonuniform List<scalar> 
2268
(
0.997218
0.997218
0.987943
0.980374
0.985614
0.998648
1
1
1
0.999999
0.999849
0.993898
0.990647
0.990647
0.994478
0.999872
0.999872
0.999751
0.999639
0.999786
0.999802
0.999802
0.999801
0.980372
0.959922
0.921768
0.979274
0.999999
0.999994
1
1
1
1
0.999996
0.997358
0.991108
0.990679
0.991849
0.999797
0.999873
0.999614
0.999252
0.999339
0.999802
0.999802
0.999802
0.947921
0.89088
0.891475
0.952787
1
1
1
1
0.999991
0.999992
0.999981
0.999992
0.999484
0.992428
0.991443
0.994731
0.999873
0.999873
0.999562
0.999311
0.999665
0.999802
0.999802
0.89088
0.89088
0.89088
0.941901
1
1
1
0.999955
0.999916
0.999978
0.999993
0.999994
0.999995
0.999923
0.998138
0.998761
0.999873
0.999873
0.999869
0.999683
0.999662
0.998953
0.999802
0.938095
0.92579
0.92098
0.922629
0.999712
1
1
0.999975
0.997121
0.980559
0.984448
0.999963
0.999996
0.999996
0.999996
0.999996
0.999824
0.999869
0.999688
0.996327
0.976067
0.965603
0.993421
0.993048
0.99067
0.951709
0.920052
0.949674
1
0.999998
0.999812
0.966196
0.911831
0.914192
0.999951
0.999968
0.999908
0.999996
0.999996
0.996592
0.986216
0.970969
0.952238
0.950597
0.950549
0.989162
0.992607
0.992471
0.984258
0.929259
0.930579
0.991825
0.999968
0.995946
0.922473
0.911755
0.925487
0.997074
0.99848
0.999898
0.999936
0.999996
0.994456
0.957045
0.950665
0.950597
0.950541
0.950549
0.98181
0.992438
0.992468
0.992421
0.976167
0.9333
0.960641
0.99993
0.999405
0.960027
0.911962
0.995992
0.994348
0.997867
0.999901
0.999867
0.99999
0.995771
0.952027
0.950688
0.953117
0.962366
0.964154
0.972921
0.977136
0.98376
0.950927
0.984509
0.999026
0.999024
0.998298
0.999026
0.999111
0.999118
0.999119
0.999119
0.999119
0.941978
0.880112
0.880048
0.897885
0.954837
0.96845
0.936048
0.941982
0.950102
0.999007
0.999026
0.994901
0.99332
0.994031
0.994748
0.99819
0.999118
0.999119
0.999119
0.927578
0.880012
0.880025
0.880041
0.910942
0.96845
0.936048
0.936057
0.981597
0.999012
0.999018
0.996066
0.994386
0.990414
0.984192
0.983699
0.995236
0.999116
0.983593
0.882898
0.880025
0.880041
0.880041
0.880041
0.95391
0.936057
0.956854
0.999021
0.999015
0.999012
0.999012
0.999008
0.998978
0.996324
0.969216
0.977872
0.998863
0.987033
0.880305
0.880171
0.910227
0.896733
0.880081
0.911484
0.936269
0.99256
0.999017
0.999015
0.999013
0.99901
0.998978
0.998959
0.998925
0.974123
0.934617
0.979564
0.984445
0.880325
0.880305
0.945069
0.976606
0.880387
0.936479
0.936822
0.963501
0.999006
0.998373
0.999012
0.998972
0.992061
0.996453
0.998912
0.987761
0.931155
0.926613
0.924684
0.892399
0.890217
0.968465
0.982994
0.962901
0.982873
0.978369
0.950443
0.993078
0.998485
0.998941
0.990635
0.984089
0.99453
0.998878
0.997276
0.942552
0.940418
0.970274
0.979608
0.982644
0.982995
0.983006
0.982996
0.983012
0.994129
0.954285
0.981928
0.993819
0.975088
0.959953
0.984938
0.997691
0.998786
0.998062
0.983117
0.982542
0.982616
0.982872
0.982995
0.983002
0.983002
0.983012
0.983012
0.992435
0.992435
0.968185
0.982815
0.992449
0.98046
0.99992
0.99984
0.989523
0.961532
0.996168
0.996286
0.999685
0.999906
0.999911
0.999958
0.99937
0.983043
0.972008
0.98619
0.986344
0.986336
0.986264
0.992435
0.992435
0.939634
0.996294
0.997815
0.997815
0.98942
0.982947
0.989084
0.995998
0.997065
0.998894
0.999721
0.9999
0.999907
0.99847
0.989352
0.972598
0.962922
0.960425
0.96238
0.946381
0.863651
0.926422
0.88508
0.858337
0.956936
0.97118
0.983509
0.990657
0.990699
0.99057
0.959135
0.862392
0.900605
0.96881
0.981285
0.981674
0.924557
0.711991
0.496684
0.394519
0.370351
0.371135
0.327401
0.29569
0.575651
0.370316
0.447291
0.599159
0.759837
0.911615
0.981636
0.977702
0.615314
0.240669
0.147911
0.211023
0.300466
0.352052
0.307614
0.17501
0.0715582
0.0183059
0.00103507
0.00100867
0.000985263
0.0146525
0.0187014
0.078792
0.00508026
0.00815303
0.0176961
0.0706511
0.219374
0.341903
0.326929
0.0537551
0.000641295
0.000643969
0.000651282
0.000655303
0.000668441
0.000697749
0.00681205
0.0253233
0.00104259
0.00101141
0.000985295
0.000976421
0.000956258
0.000936555
0.00390373
0.000770596
0.000331596
0.000522702
0.000655727
0.00070268
0.00225433
0.000498737
0.000878588
0.00066563
0.000650818
0.000657812
0.000668783
0.000684526
0.000697213
0.000711562
0.00076029
0.00157003
0.00238693
0.00146196
0.00100444
0.00109955
0.00137466
0.000719871
0.000264775
0.000204975
0.000584837
0.000904373
0.000761053
0.000164677
0.00028429
0.00119363
0.00143006
0.00143047
0.00143006
0.00107139
0.000701898
0.000802967
0.000751092
0.000925323
0.00202417
0.00251764
0.00262229
0.00294002
0.00371252
0.00371714
0.000161621
0.000138579
0.00017041
0.0005664
0.000906295
0.000281084
2.91008e-05
0.00085277
0.00140749
0.00143045
0.00106508
0.000594939
0.00104677
0.00150594
0.0015703
0.00164788
0.00176713
0.00184678
0.00165772
0.000982296
0.00101941
0.00105913
0.00330477
0.000141482
0.000116942
0.00015353
0.000695969
0.000841729
1.01543e-05
2.22507e-05
0.000119015
0.000105969
2.0311e-05
9.62913e-06
9.5592e-06
9.55799e-06
8.84443e-05
0.000356055
0.000669604
0.00112349
0.00119191
0.000651278
0.000857502
0.000925982
0.00104941
0.00109293
0.000118471
0.000108116
0.000303818
0.000675771
0.000533174
8.89027e-06
8.94105e-06
8.73819e-06
9.1463e-06
9.56916e-06
9.56232e-06
9.54091e-06
9.5595e-06
9.53441e-06
9.53441e-06
1.01725e-05
2.20678e-05
4.52249e-05
7.91031e-05
0.0015674
0.0026148
0.0011958
0.00108486
0.000108116
0.000104796
0.000310296
0.000653262
0.000335221
8.81496e-06
8.85191e-06
8.79404e-06
8.99865e-06
1.25378e-05
1.4886e-05
9.89398e-06
9.55198e-06
9.56489e-06
9.57073e-06
0.000135903
0.000263838
8.46185e-05
0.000101357
0.00149177
0.00509521
0.00487188
0.00113971
0.000104639
0.000104229
0.000150066
0.000638855
0.000177469
8.84569e-06
8.85135e-06
8.84664e-06
1.00991e-05
2.0951e-05
2.09608e-05
2.09816e-05
9.65898e-06
9.57449e-06
9.61135e-06
0.000405443
0.000407828
0.000161561
0.000117355
0.000489147
0.00528055
0.00526042
0.00484167
0.000479984
0.000103858
9.04511e-05
0.00039476
8.6641e-05
8.73647e-06
8.83803e-06
8.85028e-06
8.8306e-06
1.83599e-05
2.10027e-05
2.09816e-05
1.53914e-05
9.5517e-06
9.69255e-06
0.000233665
0.000407828
0.000319129
0.000124964
0.000360417
0.00517116
0.00541374
0.00568025
0.00101863
0.000228269
6.38899e-05
2.79118e-05
1.62742e-05
8.79419e-06
8.83565e-06
8.83958e-06
8.83863e-06
9.84288e-06
2.09439e-05
2.10022e-05
1.74412e-05
9.64808e-06
1.00899e-05
0.000114822
0.000270015
0.000399045
0.000954778
0.00221964
0.00332685
0.00235371
0.00114904
0.00101863
0.00101863
0.000178312
1.47364e-05
8.93714e-06
8.82006e-06
8.84615e-06
8.83887e-06
8.83302e-06
1.05247e-05
2.05866e-05
2.09246e-05
1.16371e-05
1.01308e-05
3.92008e-05
0.000293001
0.000158607
0.000161227
0.00286973
0.0028895
0.000129261
2.968e-05
3.35205e-05
0.000897571
0.000990124
0.00042093
1.69264e-05
9.25959e-06
8.31982e-06
8.79343e-06
8.83308e-06
8.83055e-06
1.52462e-05
1.97645e-05
1.75927e-05
1.11035e-05
1.07758e-05
0.000195681
0.000295271
0.000153883
0.000236533
0.00282611
0.00242786
9.79989e-05
2.40191e-05
2.95493e-05
0.00023191
0.000960624
0.000823004
9.58343e-05
1.13089e-05
9.05067e-06
8.59553e-06
8.88879e-06
8.81705e-06
9.60729e-06
1.87357e-05
9.77736e-06
1.05e-05
1.08695e-05
0.000288483
0.000295271
0.000144855
0.000814424
0.00119753
4.17698e-05
2.40192e-05
2.17736e-05
9.30148e-05
0.00025354
0.00040318
0.00135263
0.000635425
2.75764e-05
1.03244e-05
8.45426e-06
8.65835e-06
8.87968e-06
9.51989e-06
9.33424e-06
9.44462e-06
9.56404e-06
0.000140206
0.000416988
0.000176351
0.000151394
0.000843483
6.02575e-05
0.000533865
0.000230625
2.04179e-05
4.14255e-05
0.0025432
0.00285597
0.00207689
0.00122792
0.000475361
2.0627e-05
1.08832e-05
9.38463e-06
9.13947e-06
9.36105e-06
9.44462e-06
9.67958e-06
9.96421e-06
0.000403326
0.000416312
0.00017197
3.65157e-06
0.00012804
5.63502e-05
0.000665242
0.000500342
2.01693e-05
2.04182e-05
0.0029113
0.0029113
0.00289325
0.00239407
0.000534571
2.47797e-05
1.47336e-05
1.13728e-05
9.91468e-06
1.73797e-05
1.08984e-05
1.01542e-05
0.000364166
0.000440757
0.000228562
1.88202e-06
2.91588e-06
2.83721e-06
4.03707e-05
0.000472476
0.00043952
2.02854e-05
2.0429e-05
0.0029113
0.00276207
0.00283445
0.00133197
0.000146849
5.49727e-05
3.4011e-05
0.000344719
0.000579958
0.000338253
0.000313306
0.000564928
0.000557579
0.000230778
9.79649e-07
1.04936e-06
3.1777e-06
2.76169e-06
6.42199e-07
7.67734e-08
9.02268e-05
2.04279e-05
2.04429e-05
0.00269152
0.000373435
0.000381675
0.000325951
0.000209142
0.000710616
0.00143562
0.00153462
0.00152054
0.00150641
0.00124224
0.000220193
1.50965e-05
9.79904e-07
9.79649e-07
9.79904e-07
2.88725e-06
2.87993e-06
5.7008e-07
6.0007e-08
1.04269e-06
8.32203e-05
2.05157e-05
0.000688736
0.000374832
0.000372962
0.000558908
0.00151295
0.00153343
0.00153466
0.00153462
0.00150743
0.000761287
0.000176199
2.09417e-06
1.79989e-06
1.75384e-06
2.75532e-06
6.0267e-06
3.71907e-06
7.56684e-07
6.0736e-08
6.07354e-08
3.71424e-06
0.000135198
0.000103313
0.00223136
0.000373804
0.00040076
0.000727655
0.000390802
0.000476264
0.00102575
0.000603669
0.000144482
2.59595e-05
1.87151e-05
1.86433e-05
8.57223e-06
1.85929e-06
1.096e-05
1.59035e-05
1.58894e-05
9.93746e-06
8.54789e-08
6.07356e-08
7.36595e-08
0.000111399
0.000128759
0.00244046
0.000450296
0.000358736
0.000727655
3.95959e-05
1.3995e-05
2.86177e-05
4.52398e-06
4.03878e-06
2.64562e-05
2.63431e-05
1.02961e-05
9.43434e-06
1.03445e-05
7.67931e-06
1.35868e-05
1.59035e-05
1.58977e-05
1.06882e-05
3.14444e-07
1.25961e-07
6.55155e-06
4.94164e-05
0.00244046
0.000359457
0.000348317
0.000725396
9.73633e-06
6.53966e-06
4.57948e-06
3.54506e-06
3.4581e-06
5.53168e-06
6.0288e-06
6.56857e-06
1.36851e-05
1.34863e-05
3.31295e-06
4.12031e-06
1.58977e-05
1.58918e-05
1.57011e-05
1.32459e-06
1.64191e-07
1.6031e-07
2.86925e-07
0.00243615
0.000348371
0.000350945
0.000561961
8.85612e-06
1.21673e-05
2.28756e-05
3.4591e-06
3.43483e-06
3.45014e-06
3.48877e-06
6.36272e-06
1.36851e-05
1.22533e-05
3.30571e-06
1.1836e-05
1.12178e-05
1.58918e-05
1.57141e-05
4.91126e-06
1.62315e-07
1.14969e-07
1.20124e-07
0.0024345
0.000504292
0.000377286
0.000359455
8.07544e-06
3.05303e-05
4.91521e-05
9.7571e-06
3.44271e-06
3.43477e-06
3.44707e-06
3.8437e-06
1.15974e-05
3.85383e-06
3.34431e-06
1.20166e-05
3.7037e-06
5.12818e-06
1.38093e-05
5.27496e-06
1.15285e-07
1.07607e-07
1.0757e-07
0.0024296
0.00211799
0.000266614
0.000256342
7.77573e-06
3.29988e-05
4.93655e-05
4.50057e-05
3.43483e-06
3.75819e-06
1.24533e-05
4.48528e-06
6.61477e-06
4.46844e-06
3.48838e-06
1.15247e-05
4.99192e-06
1.45581e-06
2.39357e-06
1.70909e-06
1.1371e-07
1.07576e-07
1.07603e-07
0.00237158
0.00131685
0.000275466
0.000370988
7.81961e-06
1.21406e-05
4.93309e-05
3.68531e-05
3.43963e-06
1.14118e-05
5.73944e-05
6.59214e-06
5.72178e-05
1.17263e-05
1.44937e-05
6.47821e-06
1.28488e-05
3.11631e-06
3.79327e-07
1.22017e-07
1.24635e-07
8.37628e-07
6.50691e-06
0.000269131
0.000279083
0.00028817
0.000655203
7.81961e-06
8.29214e-06
3.72085e-05
9.4957e-06
3.44443e-06
7.08446e-06
3.75611e-05
0.000217073
0.00117634
0.000675092
4.4017e-05
5.65444e-06
1.28941e-05
1.29611e-05
7.6771e-06
8.70577e-06
8.84387e-06
1.23365e-05
1.25126e-05
0.000269135
0.00026914
0.000275122
0.000816881
0.000607637
3.34858e-05
4.10318e-06
3.58222e-06
3.51697e-06
3.58908e-06
3.73739e-06
0.00128332
0.00156322
0.00151919
0.000103064
2.64454e-06
1.19526e-05
1.29724e-05
1.29724e-05
1.29724e-05
1.2932e-05
1.08686e-05
7.19566e-06
0.000293669
0.000712728
0.000730565
0.00162212
0.00121002
0.000145205
4.11306e-06
3.61407e-06
3.58908e-06
3.61406e-06
0.000675587
0.00156322
0.00156322
0.00142842
0.00010073
3.63148e-08
1.29987e-06
1.10837e-05
6.81607e-06
4.41127e-06
4.95624e-06
1.12395e-06
5.90737e-08
0.000690707
0.00201447
0.00201899
0.00201875
0.00173044
0.000500288
4.29146e-06
3.65012e-06
3.61338e-06
0.000263498
0.00154626
0.00155474
0.00156322
0.000444768
8.90233e-07
7.71865e-09
2.02343e-11
2.40177e-11
3.9157e-09
5.31069e-10
1.24544e-09
5.64815e-10
1.71935e-10
0.000576509
0.000702738
0.00198887
0.00201893
0.000669722
0.000691732
7.8152e-05
4.31095e-06
5.76299e-05
0.00154216
0.00154421
0.00148512
0.000192669
1.07787e-08
9.19493e-08
2.1101e-11
2.02322e-11
2.10797e-11
2.52184e-11
3.98085e-11
2.74747e-11
1.84451e-11
1.45786e-11
5.39946e-05
5.01966e-07
0.000278869
0.000890062
4.17805e-05
0.000228217
4.34679e-05
5.1053e-06
0.00146722
0.00154196
0.00143108
6.3042e-12
9.34687e-11
1.69348e-10
1.66501e-10
3.22761e-10
3.21839e-10
6.26796e-11
6.10083e-11
4.20417e-11
8.15848e-12
8.5855e-12
8.43563e-12
1.1203e-06
4.47336e-07
5.01743e-07
8.99849e-05
3.49647e-05
3.47588e-05
4.1402e-05
0.00131757
0.00146594
0.00138769
6.99294e-13
2.32923e-12
1.69906e-10
1.07965e-11
4.47605e-11
7.20008e-10
2.07194e-09
1.5739e-10
9.15946e-11
7.55478e-11
7.49674e-12
7.82038e-12
6.6869e-12
1.57829e-07
1.5783e-07
7.67589e-05
0.000220206
3.47503e-05
5.70466e-05
0.000914396
0.00131864
0.00119705
6.65951e-13
2.2996e-13
2.32921e-12
5.03682e-12
9.12362e-12
3.43399e-11
1.04166e-09
3.65866e-09
3.95322e-10
9.05691e-11
9.59659e-11
3.14464e-12
3.52619e-12
2.71978e-12
2.17247e-07
6.19442e-07
0.000120477
0.000292997
0.000252345
0.00143144
0.00143027
0.000886417
1.5116e-06
1.72087e-06
1.91517e-13
2.26258e-12
5.16888e-12
1.03781e-11
2.57448e-11
1.14116e-09
3.69624e-09
4.96346e-10
5.08975e-11
5.39682e-11
1.50682e-12
1.45953e-12
8.91764e-13
5.42284e-07
6.89781e-06
1.031e-05
0.000828861
0.00191909
0.00191909
0.000398735
4.07028e-07
1.40885e-06
7.0665e-06
1.91516e-13
1.08137e-12
4.12081e-12
4.85978e-12
8.3752e-12
4.36497e-10
3.25215e-09
2.53616e-10
1.59949e-11
2.2226e-11
5.83154e-13
4.05334e-13
1.69379e-13
4.78152e-07
4.58123e-06
1.50227e-06
0.000240291
0.000447663
0.001216
3.70363e-16
3.98455e-07
1.74811e-06
6.12037e-07
7.68517e-14
5.4283e-13
1.89129e-12
1.97646e-12
2.93182e-12
5.00157e-11
5.41638e-10
5.11162e-11
1.36958e-12
9.9384e-13
1.61163e-13
5.63408e-14
1.88866e-14
1.34904e-30
1.00173e-35
1.48663e-06
1.81346e-07
4.36962e-14
6.49794e-05
2.1641e-26
1.4152e-23
1.74173e-17
2.22693e-20
7.68488e-14
1.71714e-13
6.63004e-15
7.7286e-16
1.83499e-14
1.19687e-14
2.82953e-16
6.86372e-14
8.65164e-14
1.06469e-13
1.65824e-14
3.38692e-15
1.41343e-15
0.993312
0.994132
0.994132
0.994132
0.763922
0.773933
0.821088
0.825742
0.264134
0.230124
0.202835
0.185955
0.00987546
0.00095651
0.00031966
0.000253391
0.000950875
0.00275315
0.00418798
0.00283819
0.000921007
0.000913174
0.000873987
0.00181358
0.00360036
0.0011289
0.000742075
0.000708826
0.00449159
0.00448139
0.00199196
0.000664028
0.00243841
0.00546078
0.00562075
0.00145313
0.00111787
0.00449631
0.00581353
0.005476
0.00119223
0.00562508
0.00588111
0.00588716
0.00585276
0.00588111
0.00589165
0.00588617
0.00585427
0.00587689
0.00588617
0.0058885
0.0013772
0.00554802
0.00587726
0.00588713
3.36574e-05
0.0021542
0.00579302
0.00527234
0.000824235
0.00303535
0.00302778
0.00032584
0.000811442
0.000780591
8.14689e-05
4.63935e-05
8.18732e-05
2.70661e-05
2.77926e-05
2.99472e-05
2.09039e-05
1.93456e-05
2.10022e-05
2.43476e-05
2.07674e-05
2.05138e-05
2.03299e-05
2.18508e-05
2.05347e-05
2.05694e-05
2.06476e-05
2.24876e-05
2.053e-05
2.0475e-05
2.05664e-05
2.07169e-05
6.69365e-05
3.48749e-05
2.07016e-05
2.24248e-05
0.000128759
0.000126453
0.000116534
0.000113339
8.47133e-05
0.000120037
0.000102673
7.57702e-05
2.81383e-06
1.10632e-05
8.41722e-06
3.94436e-06
1.49457e-07
1.92333e-07
7.63501e-07
8.52598e-07
1.20881e-07
1.49528e-07
6.48547e-06
4.84067e-06
1.62238e-07
8.81353e-06
1.26263e-05
1.23354e-05
1.2235e-05
1.26302e-05
1.26055e-05
1.1637e-05
1.25126e-05
1.25714e-05
7.41233e-06
1.45546e-06
5.35664e-06
2.10046e-06
2.55629e-07
1.89545e-09
3.89533e-09
1.54618e-09
3.48326e-10
7.46189e-11
1.16506e-10
5.04959e-11
1.71931e-11
1.67685e-11
1.76868e-11
1.0592e-11
6.93455e-12
1.25461e-11
1.38199e-11
1.03981e-11
4.58195e-12
4.26645e-12
4.02061e-12
1.96795e-12
1.00551e-12
9.20552e-13
1.29149e-12
5.7309e-13
2.52171e-13
1.80271e-13
3.52498e-13
1.42784e-13
5.59607e-14
3.73266e-14
5.95191e-14
2.27509e-14
8.34721e-15
5.66959e-15
6.79736e-15
2.63601e-15
8.91264e-16
5.21763e-16
6.19011e-16
2.42295e-16
6.6942e-17
2.6353e-17
0.994132
0.989103
0.989324
0.938137
0.884489
0.932784
0.990096
0.997224
0.975468
0.920898
0.923272
0.933073
0.926719
0.893249
0.828302
0.739131
0.661343
0.617424
0.586593
0.808082
0.775478
0.732598
0.694524
0.663898
0.626695
0.627649
0.640328
0.619051
0.530963
0.412053
0.315433
0.2419
0.176337
0.104097
0.0487736
0.0223991
0.0137328
0.00994275
0.168196
0.141176
0.0999496
0.0571566
0.0244924
0.0075205
0.00768982
0.000119929
0.0222647
0.0487772
0.0661934
0.0670193
0.050515
0.0138112
0.00142364
0.00159098
0.001201
0.000601559
0.000566037
0.000195453
0.000135079
0.00012293
0.000121092
0.000119859
0.000119769
0.000119859
0.000119769
0.000119978
0.000121558
0.000130096
0.000158377
0.00020953
0.000290118
0.00121142
0.0025866
0.00224629
0.000541953
0.000529389
0.00144109
0.00168021
0.00063879
0.00012293
0.000643799
0.00108891
0.000661229
0.000119979
0.000121583
0.000227151
0.000689063
0.00103277
0.00173495
0.00191393
0.00194355
0.00265423
0.00265445
0.000533062
0.000523234
0.00210796
0.00210386
0.00113426
0.00100764
0.00110548
0.00110548
0.000746042
0.000362652
0.000751427
0.00059523
3.33103e-05
3.92803e-05
0.000465584
0.000832747
0.000812014
0.0020443
0.00265423
0.000853241
0.000521766
0.00158102
0.00210731
0.00106691
0.000451426
0.000908066
0.00035182
0.000129582
0.000425725
0.000425993
1.78718e-05
2.38272e-05
8.01658e-05
0.000600446
0.000800707
0.000572958
0.000574085
0.00168369
0.00211653
0.000521766
0.000516813
0.00140316
0.000545988
2.72175e-05
4.28858e-05
1.75449e-05
1.55687e-05
4.62472e-05
1.6926e-05
1.70952e-05
1.78665e-05
0.000119506
0.000473868
0.000693526
0.000571796
0.000574906
0.000758851
0.00210573
0.00201977
0.000380532
0.000976451
3.79311e-05
2.27602e-05
1.79112e-05
1.55842e-05
1.47562e-05
1.52717e-05
1.63084e-05
1.67215e-05
2.37296e-05
3.75615e-05
4.87757e-05
0.000327904
0.000686744
0.000703335
0.00116512
0.00177813
0.00113516
0.000348362
7.99452e-05
2.72144e-05
2.66446e-05
5.57675e-05
1.47837e-05
1.47516e-05
1.47515e-05
3.84347e-05
0.000153659
0.000327811
0.000311494
7.18751e-05
9.00186e-05
0.000561037
0.00070258
0.000453414
0.00041859
0.000422076
0.00145733
3.32257e-05
3.02239e-05
5.50271e-05
7.33081e-05
1.74643e-05
1.47516e-05
0.000175235
0.000436021
0.000476366
0.000476626
0.000476572
0.000389507
0.000107091
9.85103e-05
0.000669401
0.000672382
0.00041906
0.000418296
0.00345311
4.11496e-05
3.54176e-05
9.67319e-05
3.0288e-05
1.83296e-05
0.000296596
0.000485422
0.000486013
0.000479898
0.000439473
0.000476598
0.000469803
0.000270775
8.5082e-05
0.000444269
0.000700159
0.000501982
0.000953946
0.00493821
8.6275e-05
4.83322e-05
0.000103062
3.65169e-05
0.000312614
0.000482488
0.000485551
0.000322436
0.000102735
8.66816e-06
0.000120231
0.000459713
0.000463605
0.00012126
1.43574e-05
0.000703669
0.00124711
0.00124711
0.00378296
5.85292e-05
5.30038e-05
8.77373e-05
0.000385171
0.000431037
0.000370425
6.5117e-05
1.26189e-05
8.66816e-06
6.71883e-06
6.7982e-06
4.60263e-05
0.000386918
0.000126196
1.19075e-05
0.000235963
0.00124711
0.00124711
0.000469083
6.63834e-05
5.85975e-05
0.000130079
0.000384077
0.000335558
2.58073e-05
2.19324e-05
2.22994e-05
7.51487e-05
6.16751e-05
1.18621e-05
2.52253e-06
1.33867e-05
5.3235e-05
1.15176e-05
5.4691e-07
0.000882171
0.00124711
6.7633e-05
7.18154e-05
7.34156e-05
0.000371459
0.000365159
3.0373e-05
2.80902e-05
3.41057e-05
0.00015075
0.000154533
0.000154336
6.59132e-05
8.89515e-07
5.1325e-07
1.30518e-06
3.15493e-06
3.61364e-07
5.13535e-05
0.00124707
5.57475e-05
6.80593e-05
0.000239716
0.000369222
0.00014214
3.05807e-05
3.03958e-05
0.000154861
0.000154767
0.000154905
0.000155353
4.40269e-05
3.88907e-07
3.53531e-07
3.5032e-07
3.51215e-07
3.42034e-07
8.5679e-05
0.00122427
4.17169e-05
0.000136832
0.00030191
0.000301095
3.07296e-05
3.04695e-05
0.000113406
0.000154721
0.000154894
0.000143587
1.78199e-05
3.93637e-07
3.60739e-07
3.45662e-07
3.44083e-07
3.42034e-07
3.40383e-07
0.000108544
0.00122197
3.36084e-05
0.000153423
0.000298492
0.000184064
3.04891e-05
3.16232e-05
0.000154543
0.000154539
0.000152171
1.55983e-05
8.90445e-06
3.80953e-07
3.46346e-07
3.44636e-07
3.43046e-07
3.42264e-07
3.41279e-07
0.000121684
0.00120638
2.73189e-05
0.000228399
0.000295002
7.27562e-05
3.06861e-05
8.49328e-05
0.000152187
0.00015455
1.34455e-05
7.2974e-05
0.000180256
1.6341e-05
3.47878e-07
3.43547e-07
3.43047e-07
3.42527e-07
3.42366e-07
0.000311104
0.000928861
0.000101601
0.00024239
0.000245642
3.34033e-05
2.88593e-05
0.000143214
0.00014943
4.71451e-05
6.20935e-08
0.000191042
0.000211926
0.000126085
9.01332e-07
3.43691e-07
3.43114e-07
3.42872e-07
3.42527e-07
0.000449561
0.000741266
0.000161224
0.000234389
0.000116323
4.53526e-06
2.62744e-05
0.0001345
6.67616e-05
2.801e-08
4.92791e-08
0.000207668
0.000211926
0.000196392
2.09059e-05
3.44595e-07
3.4341e-07
3.43114e-07
3.47145e-07
0.00047622
0.000396257
0.000100902
7.30059e-05
1.17768e-05
3.5721e-06
3.28225e-05
3.52965e-05
6.2406e-09
2.25648e-09
2.59522e-08
9.77352e-05
0.0001115
0.000132563
0.000111483
3.4358e-07
3.41207e-07
3.43386e-07
3.43636e-07
0.000434721
0.000397071
0.000109249
8.12366e-05
8.40911e-06
2.6908e-06
2.14923e-06
6.57919e-09
2.18242e-09
2.17943e-09
8.56047e-08
2.6803e-05
0.000302597
0.00024068
0.000207864
0.000133207
3.41087e-07
3.41256e-07
3.43748e-07
0.000111276
0.000877374
0.000107392
8.03338e-05
8.6186e-06
1.61084e-06
9.86237e-09
2.91032e-09
2.18974e-09
2.18989e-09
1.27338e-09
0.000189572
0.000718244
0.000687946
0.000204789
0.000206949
5.64149e-05
3.45031e-07
3.44122e-07
1.67948e-06
0.00108973
1.2741e-05
1.15906e-05
3.9622e-06
3.36539e-08
2.14097e-08
1.63581e-08
1.51317e-08
1.92455e-09
-1.37756e-09
0.000343057
0.000718244
0.000718244
0.000224035
5.06295e-05
7.0304e-05
7.27181e-07
3.45455e-07
3.47578e-07
0.00108161
1.99204e-07
4.49905e-08
1.1314e-07
6.24493e-08
1.12383e-07
2.99533e-07
1.40546e-07
1.73105e-09
3.10505e-10
0.000268513
0.000718244
0.000715869
0.000584712
2.76922e-05
3.59354e-05
3.48855e-07
3.47578e-07
0.000188187
0.00116474
9.9982e-08
2.52667e-08
1.89056e-08
2.2885e-08
4.43029e-07
5.0163e-07
2.23804e-07
3.19852e-10
2.06601e-10
3.0333e-05
0.000636686
0.000712677
0.000720168
1.60181e-05
3.74942e-07
3.63756e-07
3.48855e-07
0.00102179
0.00117444
1.23656e-06
3.52131e-09
1.41961e-09
4.25846e-07
5.0685e-07
4.99315e-07
6.821e-08
2.07091e-10
1.62109e-10
1.61794e-10
4.35377e-06
0.000623046
0.00073817
0.000736894
0.000296312
0.00036191
0.000964679
0.00117446
0.001175
3.78118e-07
1.08948e-09
8.12235e-10
3.81347e-07
4.61733e-07
8.49324e-08
2.44204e-10
1.67423e-10
1.64755e-10
1.61793e-10
1.68474e-10
1.86726e-05
0.000529259
0.00115629
0.0011569
0.00116744
0.00117391
0.001175
0.001175
1.85852e-08
1.27009e-10
7.36741e-10
9.26743e-09
4.21967e-09
5.14387e-09
4.36205e-09
7.86633e-10
1.67002e-10
7.57485e-10
1.74176e-07
2.69716e-08
2.68519e-08
0.00018424
0.00116207
0.00116207
0.00116744
0.0010982
0.000558855
8.93913e-10
3.22717e-11
4.95025e-11
1.154e-08
2.00441e-08
1.70732e-08
2.74839e-09
1.675e-10
1.66815e-10
1.59999e-10
2.67902e-09
2.27049e-08
2.69699e-08
7.66497e-05
0.000489391
0.00114444
0.000874942
0.000217127
0.00020821
3.20057e-11
2.49291e-11
7.13876e-10
1.56801e-08
1.92816e-08
6.08542e-09
2.80917e-10
1.80796e-10
1.64512e-10
1.07164e-10
1.40945e-08
2.83346e-08
2.69701e-08
3.55479e-08
0.000270373
0.00046468
0.000141494
0.00015214
0.000339414
2.6403e-11
2.44504e-11
2.06097e-09
4.11382e-09
5.83605e-10
4.43746e-10
3.57463e-10
1.84389e-10
1.75215e-10
-2.4865e-11
1.08972e-06
4.50293e-06
5.10012e-07
7.17403e-07
5.08719e-06
6.30623e-05
7.33977e-05
0.000343625
0.000341754
1.57896e-11
1.01755e-10
4.85746e-10
7.28228e-11
2.90518e-10
6.78312e-10
3.35786e-10
1.87377e-10
1.9534e-10
1.18935e-05
0.000239072
0.000302061
2.31072e-05
8.46357e-07
1.16788e-06
1.89236e-06
7.60154e-05
0.000353754
5.49853e-05
8.34315e-12
3.44237e-11
1.04333e-11
2.84747e-11
3.40576e-10
5.60355e-10
2.24694e-10
7.87279e-10
5.67952e-10
7.03709e-05
0.000446637
0.000446596
0.000124128
1.16783e-06
1.49268e-06
1.49273e-06
0.000103767
0.000353754
1.14816e-08
1.58779e-12
3.81221e-12
2.54766e-12
1.47949e-11
6.73228e-11
9.86277e-11
6.68448e-11
7.58995e-11
6.26825e-09
9.0981e-05
0.000446509
0.000446639
0.000423534
1.64799e-06
1.49273e-06
6.75556e-05
0.000220844
0.000353746
1.14816e-08
2.55888e-13
5.68962e-13
1.08113e-12
3.04261e-12
7.47953e-12
1.91496e-11
1.9737e-11
3.41678e-11
1.96387e-09
2.79433e-06
0.000251633
0.000446474
0.000446104
0.000415069
0.000258352
0.000115118
5.47004e-05
5.2873e-05
1.14907e-08
5.76586e-14
1.74061e-13
4.65881e-13
1.02115e-12
1.88897e-12
6.55229e-12
7.29919e-12
1.61377e-11
8.30171e-10
4.17074e-08
5.52856e-05
0.000434701
0.000444959
0.000443792
0.000136974
3.66931e-05
3.0319e-07
2.20454e-08
1.9812e-08
1.0718e-14
4.33005e-14
1.51237e-13
4.20952e-13
9.74802e-13
2.54654e-12
1.10501e-11
1.16176e-11
2.83924e-11
6.73308e-10
1.21405e-08
1.87966e-05
8.48554e-05
6.6287e-05
1.5528e-06
1.52924e-07
2.83186e-08
2.01895e-08
2.0108e-08
1.13064e-15
5.9084e-15
2.61916e-14
9.206e-14
2.68393e-13
7.73358e-13
3.28074e-12
1.08882e-11
1.21173e-11
3.33906e-11
1.66011e-08
1.05041e-07
2.73814e-08
1.03029e-07
4.98428e-08
2.87231e-08
2.45677e-08
6.10995e-08
1.1092e-08
5.36761e-17
3.15076e-16
1.74022e-15
8.1134e-15
2.96792e-14
1.00273e-13
5.52926e-13
4.43913e-12
1.51259e-11
1.64153e-11
1.08831e-10
3.49452e-10
4.65805e-09
4.59375e-08
3.29432e-08
2.4726e-08
2.4443e-08
2.40676e-08
5.99641e-10
)
;

boundaryField
{
    leftWall
    {
        type            zeroGradient;
    }
    rightWall
    {
        type            zeroGradient;
    }
    lowerWall
    {
        type            zeroGradient;
    }
    atmosphere
    {
        type            inletOutlet;
        inletValue      uniform 0;
        value           nonuniform List<scalar> 
46
(
0
0
0
1.81346e-07
0
6.49794e-05
0
0
0
0
0
0
0
0
0
0
0
6.86372e-14
8.65164e-14
1.06469e-13
1.65824e-14
3.38692e-15
1.41343e-15
6.19011e-16
2.42295e-16
6.6942e-17
2.6353e-17
5.36761e-17
3.15076e-16
1.74022e-15
8.1134e-15
2.96792e-14
1.00273e-13
5.52926e-13
4.43913e-12
1.51259e-11
1.64153e-11
1.08831e-10
3.49452e-10
4.65805e-09
4.59375e-08
3.29432e-08
2.4726e-08
2.4443e-08
0
0
)
;
    }
    defaultFaces
    {
        type            empty;
    }
}


// ************************************************************************* //
