/*--------------------------------*- C++ -*----------------------------------*\
| =========                 |                                                 |
| \\      /  F ield         | OpenFOAM: The Open Source CFD Toolbox           |
|  \\    /   O peration     | Version:  2.3.0                                 |
|   \\  /    A nd           | Web:      www.OpenFOAM.org                      |
|    \\/     M anipulation  |                                                 |
\*---------------------------------------------------------------------------*/
FoamFile
{
    version     2.0;
    format      ascii;
    class       volScalarField;
    location    "2.4";
    object      p;
}
// * * * * * * * * * * * * * * * * * * * * * * * * * * * * * * * * * * * * * //

dimensions      [1 -1 -2 0 0 0 0];

internalField   nonuniform List<scalar> 
2268
(
941.47
935.032
930.718
929.76
927.166
917.12
906.081
895.83
888.238
885
882.1
871.725
855.864
839.06
823.347
809.657
797.253
785.059
772.208
758.077
747.318
743.254
745.184
883.675
876.422
873.1
871.727
868.792
859.069
847.549
835.197
825.997
823.929
822.564
812.893
797.519
780.915
764.524
750.012
738.012
725.904
713.281
698.772
687.257
682.6
685.717
829.498
821.807
817.085
812.728
809.185
800.126
788.095
774.104
764.404
762.965
762.706
753.657
738.479
722.232
705.669
690.991
678.843
666.154
653.806
638.775
626.542
621.861
626.229
778.856
768.742
761.436
754.252
749.145
740.583
728.403
713.588
703.002
701.666
701.786
692.811
677.681
662.32
646.466
632.203
619.781
606.309
592.834
577.986
565.208
560.651
566.879
725.927
712.729
704.174
696.696
689.009
681.039
669.198
654.057
642.644
641.299
639.971
630.233
615.438
601.505
587.115
573.777
560.637
545.945
531.53
516.293
502.49
497.605
505.588
667.21
651.423
644.384
639.879
630.13
621.78
610.739
596.065
585.168
584.678
581.003
567.231
552.805
540.015
527.781
515.687
501.899
485.656
470.726
454.542
438.577
432.363
442.012
602.574
585.514
582.28
583.373
574.082
563.15
553.274
540.115
532.108
531.043
524.321
505.6
490.892
478.766
468.448
457.712
443.464
426.46
411.318
393.83
375.211
367.644
377.761
535.983
519.101
518.788
525.823
519.457
506.436
496.619
484.862
480.777
479.029
467.743
445.962
429.716
417.905
409.144
399.093
384.824
369.256
353.489
334.208
313.816
305.716
316.667
655.381
643.911
650.395
643.49
637.251
661.004
684.517
674.193
641.812
605.584
583.972
578.268
575.609
567.17
553.952
538.884
529.146
524.785
532.59
596.189
580.265
590.577
578.993
569.616
594.676
617.944
608.857
578.375
542.579
521.222
516.735
514.652
509.876
500.317
485.092
475.434
466.938
474.347
542.566
528.971
528.25
509.29
500.099
525.922
548.712
541.399
513.763
479.337
459.196
455.879
453.168
450.161
442.468
429.297
421.782
415.117
418.058
492.492
480.617
467.736
442.287
433.07
458.831
480.471
474.483
449.295
417.078
397.844
395.89
393.466
391.178
384.761
374.125
367.981
362.277
364.834
442.72
430.902
409.718
381.37
372.574
397.048
415.293
410
386.902
356.584
338.881
337.355
335.523
334.469
329.123
318.393
310.776
306.652
309.369
390.628
378.179
353.766
326.939
319.063
339.166
353.173
348.356
327.835
298.759
282.882
282.526
281.045
280.243
274.247
261.047
250.592
247.209
248.767
335.771
325.595
301.466
277.993
270.048
282.934
292.921
289.006
272.207
244.076
229.554
229.194
226.708
224.418
217.08
201.793
189.32
184.596
184.524
280.142
274.116
254.412
233.233
221.811
227.583
233.601
231.183
218.937
192.974
179.294
176.274
172.101
166.634
156.181
140.608
126.923
120.571
118.943
433.881
420.923
423.408
433.247
430.735
420.258
412.085
406.736
403.109
397.943
380.463
355.08
334.682
322.967
315.536
306.262
293.581
279.551
262.339
240.069
218.287
210.006
219.369
303.834
302.853
309.614
310.885
310.411
307.471
305.243
304.23
300.637
288.552
261.227
229.707
208.392
200.268
195.087
183.8
167.477
149.456
130.155
112.795
100.985
98.3054
99.1842
180.881
179.507
182.646
182.007
185.036
184.034
181.13
178.773
168.531
143.997
112.767
95.7198
91.4547
93.9982
91.9234
77.8789
55.4524
35.1312
26.5592
25.2151
25.41
24.8067
22.5625
72.2139
42.2086
39.3783
46.7014
61.8108
66.4853
72.3868
73.0763
45.8822
17.2715
9.56866
13.2663
18.7777
22.2523
19.1891
11.8091
5.82441
2.31241
2.0329
1.94453
2.01184
2.69828
2.85692
8.10594
4.41783
2.04239
1.59443
4.32335
12.7661
20.1276
17.7377
1.9874
0.191179
-0.0829122
-0.157969
-0.18262
-0.138407
-0.323888
-0.683813
1.30375
1.57013
1.6082
1.59978
1.62557
1.62779
1.70749
0.870943
0.358573
-0.0945153
-0.281101
-0.428133
-0.694593
-1.06121
-1.35258
-1.04015
-0.642738
-0.525618
-0.525821
-0.489046
-0.426565
-0.401195
-0.384363
-0.0546575
0.570672
1.01982
1.18184
1.23471
1.25112
1.26921
-0.0400092
-0.331675
-0.442844
-0.543335
-0.747759
-1.06551
-1.33075
-1.39026
-1.23948
-1.06956
-1.00465
-0.96286
-0.888854
-0.787997
-0.63653
-0.358941
-0.0433812
0.2314
0.442965
0.659631
0.731352
0.718625
0.755891
-0.427453
-0.617083
-0.708483
-0.847756
-1.05708
-1.34102
-1.55175
-1.68885
-1.72873
-1.6952
-1.62847
-1.5033
-1.35526
-1.18304
-0.982289
-0.715578
-0.432307
-0.22166
-0.0952144
0.104997
0.206382
0.241012
0.247901
-0.714357
-0.934703
-1.00694
-1.1706
-1.38634
-1.60598
-1.78985
-1.95697
-2.05795
-2.08156
-2.02367
-1.89651
-1.73098
-1.53706
-1.32008
-1.07413
-0.83444
-0.680169
-0.585162
-0.341135
-0.117436
-0.0296275
-0.0811058
-0.882027
-1.25761
-1.30264
-1.49142
-1.69129
-1.86979
-2.05043
-2.238
-2.37714
-2.42997
-2.39018
-2.26425
-2.05931
-1.80854
-1.56484
-1.3305
-1.11541
-0.972037
-0.909055
-0.796908
-0.486831
-0.295427
-0.313625
-0.914891
-1.43319
-1.57629
-1.78976
-1.95951
-2.13902
-2.35451
-2.58512
-2.77372
-2.86363
-2.83859
-2.69537
-2.44329
-2.12155
-1.82348
-1.56586
-1.3405
-1.20585
-1.17082
-1.19588
-0.985781
-0.729097
-0.64045
-0.823682
-1.37042
-1.77009
-2.03921
-2.19132
-2.38317
-2.64148
-2.90482
-3.11223
-3.20763
-3.18307
-3.03905
-2.77657
-2.41919
-2.07996
-1.80437
-1.57756
-1.45844
-1.42419
-1.48243
-1.47691
-1.36481
-1.29176
-0.775244
-1.23874
-1.79838
-2.17703
-2.37628
-2.57936
-2.85038
-3.11385
-3.30998
-3.39572
-3.36703
-3.23042
-2.9837
-2.63434
-2.28138
-2.00415
-1.79468
-1.68628
-1.63658
-1.69354
-1.91306
-2.12954
-2.22984
-0.922667
-1.25993
-1.77373
-2.2045
-2.48625
-2.71669
-2.97258
-3.20624
-3.37019
-3.43765
-3.40646
-3.28191
-3.05839
-2.73447
-2.3967
-2.13782
-1.97463
-1.89507
-1.83639
-1.99166
-2.43988
-2.77989
-2.98597
-1.20076
-1.38199
-1.75525
-2.15418
-2.49696
-2.77064
-3.00815
-3.20321
-3.33193
-3.37849
-3.3462
-3.2322
-3.0265
-2.73129
-2.42905
-2.20668
-2.09112
-2.05197
-2.06395
-2.40094
-2.87115
-3.15815
-3.34088
-1.41102
-1.45259
-1.71257
-2.06996
-2.42607
-2.71908
-2.94579
-3.11585
-3.22217
-3.25705
-3.22215
-3.11336
-2.91899
-2.65929
-2.41466
-2.24731
-2.16936
-2.15436
-2.26387
-2.65375
-3.02279
-3.32214
-3.53445
-1.53297
-1.47217
-1.63019
-2.01287
-2.36396
-2.61238
-2.80041
-2.94941
-3.04748
-3.08194
-3.04588
-2.93704
-2.75716
-2.55325
-2.39582
-2.30527
-2.2588
-2.25594
-2.40038
-2.69508
-3.0126
-3.28078
-3.49699
-1.65728
-1.56078
-1.64917
-2.10799
-2.415
-2.54862
-2.64329
-2.7487
-2.836
-2.87237
-2.83134
-2.72572
-2.58364
-2.45557
-2.39101
-2.37835
-2.36452
-2.36931
-2.44133
-2.58709
-2.87628
-3.05739
-3.18954
-1.91887
-1.90136
-2.07781
-2.3996
-2.57753
-2.55787
-2.53009
-2.56649
-2.62507
-2.64974
-2.627
-2.55137
-2.47284
-2.43256
-2.44199
-2.47024
-2.47962
-2.47394
-2.47267
-2.53211
-2.68873
-2.79704
-2.8899
-2.35016
-2.57202
-2.99114
-3.06729
-2.91227
-2.65523
-2.50666
-2.48377
-2.5312
-2.56736
-2.55594
-2.5098
-2.47884
-2.4991
-2.53853
-2.57384
-2.58997
-2.57538
-2.55356
-2.55798
-2.59266
-2.6491
-2.72354
-2.89381
-3.48167
-3.90622
-3.72879
-3.18986
-2.78506
-2.57234
-2.52596
-2.58321
-2.6397
-2.63704
-2.61948
-2.61167
-2.62324
-2.64837
-2.68206
-2.70175
-2.68502
-2.6548
-2.6316
-2.61125
-2.63109
-2.69949
-3.29336
-3.77592
-3.91244
-3.72765
-3.28527
-2.96585
-2.79329
-2.78757
-2.83197
-2.84749
-2.81376
-2.77151
-2.74833
-2.7548
-2.77366
-2.79767
-2.8067
-2.7966
-2.77093
-2.73399
-2.70121
-2.70663
-2.76836
-3.34057
-3.61298
-3.64658
-3.5659
-3.31985
-3.22684
-3.16868
-3.14927
-3.13385
-3.09029
-3.01044
-2.93183
-2.89318
-2.88969
-2.90428
-2.92195
-2.92858
-2.92226
-2.9097
-2.88142
-2.85491
-2.8513
-2.8987
-3.27359
-3.45572
-3.4875
-3.47042
-3.47002
-3.44117
-3.44065
-3.4156
-3.35737
-3.27275
-3.17634
-3.09774
-3.05453
-3.04263
-3.05169
-3.06387
-3.07139
-3.07111
-3.06772
-3.05289
-3.0347
-3.03813
-3.06947
-3.36948
-3.5022
-3.53081
-3.54182
-3.57053
-3.56451
-3.5754
-3.56148
-3.51412
-3.44306
-3.36078
-3.2881
-3.23851
-3.21599
-3.21586
-3.22475
-3.23638
-3.24387
-3.24499
-3.2363
-3.2233
-3.22931
-3.24921
-3.53818
-3.60956
-3.6158
-3.61529
-3.61932
-3.63993
-3.67503
-3.69884
-3.68977
-3.64266
-3.57272
-3.49857
-3.43827
-3.4032
-3.3926
-3.39964
-3.41699
-3.43256
-3.43667
-3.42744
-3.41131
-3.40806
-3.41687
-3.69261
-3.6996
-3.69784
-3.66936
-3.67987
-3.72997
-3.80513
-3.86908
-3.88883
-3.85845
-3.79596
-3.71801
-3.6426
-3.59188
-3.57085
-3.57474
-3.59672
-3.61965
-3.62814
-3.61773
-3.59372
-3.5768
-3.57272
-3.82529
-3.79252
-3.79059
-3.74197
-3.76367
-3.84329
-3.95405
-4.04994
-4.09255
-4.07807
-4.02071
-3.93479
-3.83715
-3.76519
-3.73388
-3.73302
-3.75719
-3.7871
-3.80211
-3.79293
-3.76324
-3.7352
-3.72017
-3.93883
-3.92493
-3.88779
-3.83182
-3.86031
-3.96523
-4.10151
-4.22107
-4.28122
-4.28102
-4.22776
-4.1335
-4.00833
-3.90507
-3.86531
-3.86509
-3.88964
-3.92532
-3.94859
-3.94282
-3.91347
-3.88102
-3.85971
-4.03703
-4.0394
-4.00297
-3.95097
-3.95103
-4.08072
-4.23359
-4.36521
-4.43263
-4.4423
-4.39889
-4.3028
-4.14398
-4.00475
-3.96491
-3.97234
-4.00162
-4.04118
-4.0672
-4.06833
-4.04514
-4.01558
-3.99451
-4.13628
-4.13964
-4.13537
-4.10342
-4.04275
-4.1979
-4.34983
-4.46521
-4.52977
-4.54629
-4.51885
-4.43263
-4.28182
-4.11058
-4.06611
-4.08188
-4.11332
-4.15108
-4.17593
-4.18052
-4.16617
-4.14492
-4.12848
-4.21574
-4.21604
-4.21963
-4.24709
-4.19195
-4.34412
-4.4541
-4.52249
-4.56613
-4.58692
-4.57532
-4.54047
-4.43548
-4.30278
-4.24011
-4.22885
-4.25059
-4.27591
-4.29285
-4.29641
-4.28761
-4.27437
-4.26376
-4.36494
-4.36004
-4.34866
-4.45114
-4.47049
-4.53713
-4.56438
-4.5581
-4.56679
-4.58583
-4.61104
-4.6463
-4.63314
-4.58431
-4.48824
-4.41712
-4.41702
-4.42111
-4.42553
-4.42389
-4.41678
-4.40819
-4.40166
-4.60032
-4.64026
-4.60631
-4.78028
-4.86046
-4.7888
-4.68934
-4.60176
-4.57326
-4.59044
-4.68342
-4.77549
-4.84774
-4.82781
-4.70393
-4.61873
-4.5926
-4.57871
-4.56967
-4.56199
-4.55427
-4.54744
-4.54271
-4.87419
-4.94727
-4.87583
-5.07672
-5.17438
-4.99636
-4.79984
-4.66853
-4.61487
-4.68887
-4.81176
-4.91303
-4.97775
-4.94074
-4.84969
-4.78303
-4.74942
-4.72886
-4.71501
-4.70464
-4.69629
-4.68979
-4.68532
-5.0033
-5.03433
-5.01946
-5.16821
-5.21501
-5.07652
-4.8802
-4.76394
-4.77333
-4.86711
-4.96666
-5.03053
-5.04097
-5.01066
-4.95931
-4.91999
-4.89161
-4.87167
-4.85723
-4.84639
-4.83811
-4.83186
-4.82746
-5.07339
-5.08041
-5.07602
-5.1499
-5.1493
-5.05287
-4.9557
-4.91913
-4.98173
-5.05866
-5.10918
-5.11715
-5.11337
-5.09405
-5.06907
-5.04568
-5.02525
-5.0088
-4.996
-4.98605
-4.97839
-4.97263
-4.96851
-5.17064
-5.15886
-5.15071
-5.16715
-5.15452
-5.07718
-5.04834
-5.11515
-5.17756
-5.2184
-5.22094
-5.22021
-5.21361
-5.20101
-5.18574
-5.17007
-5.15532
-5.14254
-5.13207
-5.12368
-5.11711
-5.11212
-5.1085
-5.2876
-5.26423
-5.26339
-5.27221
-5.2656
-5.20649
-5.23627
-5.32948
-5.34216
-5.34305
-5.33547
-5.33127
-5.32484
-5.3158
-5.30518
-5.29422
-5.28379
-5.27428
-5.26625
-5.25969
-5.25447
-5.25046
-5.2475
-5.4133
-5.40842
-5.40883
-5.44501
-5.46791
-5.42879
-5.44748
-5.49657
-5.46636
-5.45747
-5.4497
-5.4452
-5.43939
-5.43278
-5.42564
-5.41832
-5.41123
-5.40477
-5.39918
-5.39453
-5.39078
-5.38787
-5.3857
-5.54542
-5.55499
-5.54109
-5.61214
-5.6055
-5.66183
-5.58828
-5.59869
-5.57218
-5.5708
-5.56407
-5.56002
-5.55561
-5.55121
-5.5468
-5.54241
-5.53824
-5.53457
-5.53132
-5.52858
-5.52636
-5.5246
-5.52328
-5.68237
-5.68812
-5.67397
-5.70806
-5.72886
-5.85816
-5.69165
-5.70892
-5.68875
-5.68434
-5.67913
-5.67573
-5.67293
-5.67058
-5.66861
-5.66687
-5.66538
-5.66417
-5.66315
-5.66227
-5.66155
-5.66097
-5.66053
209.201
205.317
201.478
196.72
92.4515
88.2112
84.364
81.324
20.2636
18.0357
15.2007
13.4057
2.28275
2.07687
1.87788
1.77497
1.72123
1.68508
1.56744
1.44197
1.25232
1.22744
1.19621
1.09713
0.84071
0.825926
0.748702
0.666367
0.319885
0.361281
0.366945
0.367588
-0.0664541
0.0249105
0.094051
0.113871
-0.329107
-0.304384
-0.212774
-0.173993
-0.663419
-0.689132
-0.594739
-0.504319
-1.29284
-1.28195
-1.20474
-1.12146
-2.20421
-2.14901
-2.07847
-2.0065
-3.0603
-3.10619
-3.20392
-3.23064
-3.42125
-3.50487
-3.65051
-3.82362
-3.62827
-3.69725
-3.79443
-3.75844
-3.56255
-3.55501
-3.52286
-3.49596
-3.24749
-3.2638
-3.26791
-3.28367
-2.96578
-3.02418
-3.08539
-3.1517
-2.83519
-2.92543
-3.02089
-3.11882
-2.82939
-2.93039
-3.03596
-3.14123
-2.88876
-2.98127
-3.07824
-3.17569
-2.98563
-3.05573
-3.1306
-3.20731
-3.11891
-3.16127
-3.20803
-3.25632
-3.27705
-3.29937
-3.32285
-3.34637
-3.43252
-3.44403
-3.45474
-3.46576
-3.57845
-3.58331
-3.58821
-3.59396
-3.71844
-3.71899
-3.72062
-3.72354
-3.85334
-3.85147
-3.85142
-3.85288
-3.98686
-3.98421
-3.98358
-3.98442
-4.12198
-4.11965
-4.11898
-4.11947
-4.25944
-4.25789
-4.2574
-4.25776
-4.39914
-4.39825
-4.39802
-4.39835
-4.54089
-4.54019
-4.53994
-4.54007
-4.68343
-4.6826
-4.68213
-4.682
-4.82546
-4.82451
-4.82388
-4.82354
-4.96656
-4.96559
-4.96489
-4.96445
-5.10672
-5.10582
-5.10513
-5.10466
-5.24601
-5.24524
-5.24464
-5.2442
-5.38458
-5.38399
-5.38353
-5.38318
-5.52259
-5.52223
-5.52194
-5.52171
-5.66029
-5.66016
-5.66006
-5.65998
192.946
195.648
184.964
163.271
146.765
141.611
141.439
141.458
137.389
121.387
108.005
97.6486
90.755
81.3209
69.2885
56.5347
47.2036
42.728
40.3568
78.5415
73.7112
62.3631
52.1577
46.4262
41.4677
40.6264
40.8838
42.0923
39.3474
35.4201
31.0921
23.5308
14.7987
8.09977
5.07507
3.43032
2.54915
2.26199
12.3523
10.6349
7.47492
4.91947
3.11025
2.07681
2.1655
1.42459
1.79063
3.49778
4.93303
5.09983
3.47545
1.12079
1.41951
1.85029
1.62767
1.40606
1.46773
1.76412
1.53799
1.20839
1.26192
1.37283
1.33015
1.28515
1.12844
0.797726
0.623973
0.625854
0.590242
0.326134
0.340534
0.859374
1.23867
1.11035
0.974066
1.11085
1.37727
1.16632
0.930111
1.04383
1.12501
0.987341
0.905182
0.738813
0.508999
0.388326
0.33961
0.284563
0.201437
0.311989
0.525265
0.805259
0.614822
0.600715
0.740036
0.90939
0.783026
0.592121
0.74938
0.71982
0.547317
0.437039
0.325505
0.183438
0.0682153
0.0253088
0.000495941
-0.00458764
0.0756981
0.203701
0.270373
0.248284
0.375625
0.454466
0.6028
0.521059
0.357643
0.371712
0.246951
0.114327
-0.011353
-0.146743
-0.246078
-0.270165
-0.262669
-0.244337
-0.197136
-0.107539
-0.001568
0.0331949
0.0394943
0.150903
0.233273
0.34211
0.251406
0.110236
0.0656304
-0.0658132
-0.177223
-0.304763
-0.430311
-0.488431
-0.495886
-0.484793
-0.454105
-0.402449
-0.309858
-0.19627
-0.168374
-0.207421
-0.212386
-0.0236529
0.096089
-0.0201599
-0.117008
-0.180127
-0.295356
-0.401437
-0.510964
-0.604697
-0.652626
-0.663642
-0.647221
-0.605227
-0.549984
-0.481331
-0.399594
-0.38117
-0.435104
-0.468502
-0.273618
-0.129173
-0.270667
-0.346773
-0.43147
-0.536929
-0.623861
-0.701556
-0.768468
-0.811733
-0.826441
-0.808552
-0.753579
-0.674789
-0.62374
-0.590711
-0.554329
-0.562106
-0.538133
-0.443301
-0.425308
-0.583738
-0.628401
-0.711611
-0.798407
-0.85966
-0.908491
-0.958206
-0.999822
-1.01357
-0.994409
-0.931038
-0.837325
-0.764399
-0.76142
-0.737184
-0.708238
-0.677554
-0.605792
-1.03709
-1.04368
-0.986637
-1.03227
-1.07974
-1.11152
-1.14616
-1.18645
-1.21528
-1.22188
-1.20108
-1.14343
-1.04547
-0.954143
-0.92951
-0.957432
-0.926072
-0.88929
-0.825716
-1.92915
-1.65071
-1.41567
-1.3885
-1.37325
-1.38416
-1.40826
-1.42839
-1.43352
-1.42626
-1.4037
-1.36347
-1.28991
-1.19634
-1.1529
-1.17897
-1.18269
-1.13057
-1.09158
-3.04169
-2.27423
-1.8749
-1.75035
-1.67959
-1.66636
-1.66431
-1.654
-1.63966
-1.62478
-1.60742
-1.58334
-1.53908
-1.4718
-1.41644
-1.41147
-1.46158
-1.43953
-1.36613
-3.56816
-2.70521
-2.2789
-2.07911
-1.97385
-1.93136
-1.89483
-1.86533
-1.85056
-1.84862
-1.84485
-1.82668
-1.78459
-1.7306
-1.6752
-1.6524
-1.68162
-1.71399
-1.60848
-3.52072
-2.92369
-2.59272
-2.38888
-2.26399
-2.18179
-2.12003
-2.08686
-2.08579
-2.10078
-2.10982
-2.09398
-2.04386
-1.97561
-1.91235
-1.87106
-1.86157
-1.89496
-1.81541
-3.37536
-3.05499
-2.8531
-2.6786
-2.54908
-2.42249
-2.34592
-2.31371
-2.31972
-2.33827
-2.35261
-2.33923
-2.29099
-2.21605
-2.13716
-2.07599
-2.0361
-2.03411
-2.00689
-3.27632
-3.19513
-3.1064
-2.94836
-2.79023
-2.65318
-2.56087
-2.52117
-2.51751
-2.52334
-2.52986
-2.52379
-2.48983
-2.42699
-2.34584
-2.27195
-2.21551
-2.19453
-2.18856
-3.24933
-3.33554
-3.32378
-3.17789
-2.99352
-2.8444
-2.74597
-2.69404
-2.67811
-2.66522
-2.66233
-2.6634
-2.64771
-2.60467
-2.53395
-2.45847
-2.39691
-2.35748
-2.37281
-3.27048
-3.43327
-3.46379
-3.32454
-3.14371
-2.99156
-2.89347
-2.83934
-2.81544
-2.79246
-2.78387
-2.78572
-2.78315
-2.75792
-2.703
-2.63467
-2.58064
-2.52796
-2.55526
-3.30384
-3.47823
-3.51803
-3.39699
-3.23205
-3.09746
-3.01287
-2.96663
-2.9396
-2.92057
-2.91163
-2.91051
-2.91239
-2.89614
-2.8565
-2.79903
-2.75793
-2.71019
-2.72676
-3.32842
-3.4755
-3.5057
-3.41048
-3.27691
-3.17606
-3.11524
-3.0798
-3.05651
-3.04655
-3.04729
-3.04894
-3.04253
-3.02734
-2.99849
-2.95159
-2.92073
-2.88934
-2.8805
-3.32959
-3.44086
-3.45894
-3.39708
-3.30983
-3.24789
-3.2081
-3.18295
-3.16258
-3.1564
-3.17376
-3.19045
-3.1747
-3.15339
-3.13097
-3.09306
-3.06746
-3.06344
-3.03226
-3.33582
-3.41152
-3.43041
-3.40492
-3.36204
-3.32775
-3.30184
-3.28239
-3.26266
-3.25083
-3.28372
-3.31991
-3.31777
-3.28822
-3.25587
-3.22437
-3.20001
-3.21802
-3.16542
-3.38772
-3.43731
-3.46035
-3.45699
-3.44037
-3.42247
-3.40513
-3.38885
-3.3709
-3.36462
-3.40097
-3.44386
-3.46014
-3.44461
-3.38418
-3.34744
-3.32139
-3.3336
-3.28369
-3.48747
-3.51932
-3.53856
-3.54309
-3.53917
-3.53097
-3.52077
-3.51059
-3.49953
-3.5126
-3.53888
-3.5651
-3.5766
-3.56425
-3.50925
-3.45998
-3.43372
-3.43343
-3.39461
-3.60612
-3.62652
-3.6419
-3.65023
-3.65132
-3.64962
-3.64636
-3.64398
-3.6421
-3.67314
-3.68985
-3.68655
-3.67217
-3.63437
-3.59274
-3.55039
-3.53727
-3.53131
-3.48593
-3.73064
-3.7441
-3.75663
-3.76568
-3.77082
-3.77404
-3.77679
-3.78103
-3.78924
-3.81573
-3.83978
-3.8165
-3.76505
-3.68571
-3.64239
-3.62998
-3.63858
-3.6567
-3.58919
-3.85742
-3.8674
-3.87827
-3.88767
-3.89505
-3.90165
-3.9086
-3.91682
-3.92807
-3.94622
-3.97028
-3.95641
-3.89781
-3.80106
-3.74798
-3.78489
-3.82676
-3.85633
-3.75989
-3.98749
-3.99561
-4.00527
-4.01452
-4.02298
-4.03147
-4.04068
-4.05072
-4.06205
-4.07437
-4.08879
-4.09117
-4.06104
-4.01187
-3.99246
-4.10645
-4.14421
-4.11791
-3.96632
-4.1217
-4.12855
-4.13691
-4.14544
-4.15395
-4.16294
-4.17294
-4.18368
-4.19509
-4.20672
-4.21786
-4.22411
-4.21954
-4.20957
-4.2044
-4.30396
-4.35765
-4.2823
-4.15863
-4.25961
-4.26517
-4.27197
-4.27928
-4.2871
-4.29581
-4.30575
-4.31666
-4.32859
-4.3421
-4.35674
-4.37255
-4.36996
-4.35338
-4.3409
-4.36806
-4.44532
-4.40769
-4.33214
-4.39978
-4.40392
-4.40917
-4.4152
-4.42205
-4.43003
-4.43938
-4.45013
-4.46291
-4.47982
-4.50148
-4.53087
-4.54122
-4.51922
-4.50196
-4.49585
-4.56148
-4.56443
-4.52131
-4.54093
-4.5438
-4.54775
-4.5526
-4.5584
-4.56543
-4.57397
-4.58432
-4.59788
-4.61724
-4.64718
-4.6978
-4.72747
-4.70206
-4.67752
-4.66048
-4.70979
-4.72445
-4.71339
-4.68231
-4.68416
-4.68708
-4.6909
-4.69571
-4.70178
-4.70951
-4.71947
-4.73354
-4.75236
-4.79621
-4.88358
-4.92239
-4.89026
-4.84847
-4.82683
-4.86275
-4.87395
-4.86814
-4.82343
-4.82455
-4.82665
-4.82963
-4.83354
-4.83871
-4.84571
-4.85567
-4.86957
-4.88777
-4.95057
-5.07222
-5.10205
-5.06474
-5.01169
-4.98823
-4.99214
-5.00369
-4.98958
-4.96408
-4.96468
-4.96616
-4.96844
-4.97155
-4.97581
-4.98187
-4.99098
-5.00384
-5.02647
-5.1008
-5.22244
-5.25865
-5.21514
-5.15959
-5.1402
-5.10273
-5.11205
-5.10181
-5.10417
-5.10442
-5.10544
-5.10711
-5.10947
-5.11277
-5.11749
-5.12491
-5.13519
-5.15714
-5.22487
-5.33406
-5.38784
-5.35213
-5.30469
-5.27098
-5.20718
-5.20955
-5.21521
-5.24372
-5.24376
-5.24441
-5.24558
-5.24723
-5.24949
-5.25271
-5.25756
-5.26421
-5.27933
-5.32581
-5.40205
-5.45748
-5.44904
-5.40699
-5.35948
-5.31013
-5.31466
-5.32713
-5.38277
-5.38272
-5.38311
-5.38385
-5.38489
-5.38619
-5.38792
-5.3904
-5.39386
-5.40257
-5.42692
-5.46709
-5.49498
-5.49673
-5.46838
-5.43661
-5.42081
-5.43644
-5.43922
-5.52144
-5.52138
-5.52157
-5.52197
-5.52252
-5.52313
-5.52371
-5.52463
-5.52644
-5.53084
-5.54152
-5.55657
-5.5655
-5.56159
-5.55019
-5.54146
-5.54086
-5.55514
-5.5541
-5.65988
-5.65985
-5.6599
-5.66
-5.66016
-5.66026
-5.66019
-5.65992
-5.66002
-5.66158
-5.66442
-5.66672
-5.6671
-5.66689
-5.66808
-5.66895
-5.66755
-5.67019
-5.67219
)
;

boundaryField
{
    leftWall
    {
        type            calculated;
        value           nonuniform List<scalar> 
50
(
941.47
883.675
829.498
778.856
725.927
667.21
602.574
535.983
433.881
303.834
180.881
72.2139
8.10594
0.870943
-0.0400092
-0.427453
-0.714357
-0.882027
-0.914891
-0.823682
-0.775244
-0.922667
-1.20076
-1.41102
-1.53297
-1.65728
-1.91887
-2.35016
-2.89381
-3.29336
-3.34057
-3.27359
-3.36948
-3.53818
-3.69261
-3.82529
-3.93883
-4.03703
-4.13628
-4.21574
-4.36494
-4.60032
-4.87419
-5.0033
-5.07339
-5.17064
-5.2876
-5.4133
-5.54542
-5.68237
)
;
    }
    rightWall
    {
        type            calculated;
        value           nonuniform List<scalar> 
50
(
532.59
474.347
418.058
364.834
309.369
248.767
184.524
118.943
40.3568
2.26199
1.46773
1.11085
0.740036
0.454466
0.233273
-0.0236529
-0.273618
-0.443301
-0.605792
-0.825716
-1.09158
-1.36613
-1.60848
-1.81541
-2.00689
-2.18856
-2.37281
-2.55526
-2.72676
-2.8805
-3.03226
-3.16542
-3.28369
-3.39461
-3.48593
-3.58919
-3.75989
-3.96632
-4.15863
-4.33214
-4.52131
-4.71339
-4.86814
-4.98958
-5.10181
-5.21521
-5.32713
-5.43922
-5.5541
-5.67219
)
;
    }
    lowerWall
    {
        type            calculated;
        value           nonuniform List<scalar> 
62
(
970.817
964.38
959.793
958.612
956.172
946.51
935.51
925.26
917.667
914.429
911.525
900.975
885.018
868.214
852.614
839.083
826.679
814.481
801.627
787.5
776.741
772.677
774.608
745.184
685.717
626.229
566.879
505.588
442.012
377.761
316.667
271.38
267.548
263.708
258.95
655.381
596.189
542.566
492.492
442.72
390.628
335.771
280.142
684.138
672.863
678.382
672.464
666.652
690.404
713.896
703.594
671.215
634.987
613.376
607.671
605.013
594.893
579.857
564.787
555.573
552.887
561.092
)
;
    }
    atmosphere
    {
        type            calculated;
        value           nonuniform List<scalar> 
46
(
-5.75119
-5.74899
-5.72971
-5.73008
-5.75869
-6.10094
-5.78598
-5.77069
-5.74987
-5.74276
-5.73719
-5.73418
-5.7321
-5.73062
-5.72981
-5.72932
-5.72909
-5.72904
-5.72904
-5.72904
-5.72904
-5.72904
-5.72904
-5.72904
-5.72904
-5.72904
-5.72904
-5.72904
-5.72904
-5.72904
-5.72904
-5.72904
-5.72904
-5.72904
-5.72904
-5.72904
-5.72904
-5.72904
-5.72904
-5.72907
-5.7293
-5.72923
-5.72918
-5.72918
-5.73006
-5.73383
)
;
    }
    defaultFaces
    {
        type            empty;
    }
}


// ************************************************************************* //
