/*--------------------------------*- C++ -*----------------------------------*\
| =========                 |                                                 |
| \\      /  F ield         | OpenFOAM: The Open Source CFD Toolbox           |
|  \\    /   O peration     | Version:  2.3.0                                 |
|   \\  /    A nd           | Web:      www.OpenFOAM.org                      |
|    \\/     M anipulation  |                                                 |
\*---------------------------------------------------------------------------*/
FoamFile
{
    version     2.0;
    format      ascii;
    class       volScalarField;
    location    "2.4";
    object      p_rgh;
}
// * * * * * * * * * * * * * * * * * * * * * * * * * * * * * * * * * * * * * //

dimensions      [1 -1 -2 0 0 0 0];

internalField   nonuniform List<scalar> 
2268
(
970.817
964.38
959.793
958.612
956.172
946.51
935.51
925.26
917.667
914.429
911.525
900.975
885.018
868.214
852.614
839.083
826.679
814.481
801.627
787.5
776.741
772.677
774.608
970.232
961.175
954.488
958.187
957.08
947.357
935.837
923.485
914.285
912.217
910.852
900.948
885.022
868.381
852.094
838.282
826.289
814.158
801.503
787.002
775.527
770.871
773.988
968.989
952.913
948.279
952.934
956.332
947.273
935.241
921.251
911.55
910.111
909.85
900.802
885.55
868.266
851.558
837.363
825.972
813.282
800.888
785.821
773.639
768.978
773.347
962.404
952.291
944.985
948.301
955.151
946.588
934.409
919.584
908.991
907.667
907.79
898.816
883.685
868.31
852.088
837.953
825.76
812.288
798.812
783.926
771.144
766.441
772.844
974.411
957.958
948.13
941.088
953.797
945.903
934.062
918.915
906.747
901.02
900.721
895.088
880.301
866.368
851.979
838.64
825.455
810.775
796.312
780.185
761.021
753.368
768.711
988.685
972.129
952.489
937.747
937.578
945.503
934.461
919.728
897.959
879.887
876.976
890.938
876.517
863.708
851.502
839.409
824.52
804.921
785.061
762.819
746.324
740.094
762.23
982.33
965.219
958.845
938.918
930.131
942.607
935.844
921.147
885.059
879.898
878.424
887.064
872.893
861.309
851.005
840.292
823.927
792.625
775.044
757.531
738.889
731.326
753.39
974.089
957.22
956.886
956.753
931.483
930.519
938.029
926.04
904.589
881.645
907.415
884.91
870.216
859.302
850.525
840.529
824.399
789.54
773.182
754.973
738.659
731.349
746.166
684.138
672.863
678.382
672.464
666.652
690.404
713.896
703.594
671.215
634.987
613.376
607.671
605.013
594.893
579.857
564.787
555.573
552.887
561.092
678.837
663.436
674.464
667.194
657.818
682.514
705.643
696.618
666.2
630.707
609.432
604.945
602.862
591.777
578.022
562.799
553.142
547.371
559.852
680.312
666.718
672.692
656.291
647.102
672.49
695.033
687.137
658.586
624.088
605.642
602.895
597.903
580.094
571.978
558.81
551.295
544.63
558.43
685.338
677.743
673.54
648.09
638.873
664.633
686.272
680.278
654.544
616.748
599.296
601.661
596.802
572.55
566.105
561.655
552.734
543.603
552.623
690.721
693.798
674.322
645.974
637.177
661.65
679.887
674.589
651.482
614.601
586.445
596.811
596.272
567.668
562.316
568.723
569.451
539.867
557.426
693.919
690.098
677.167
650.136
642.466
662.557
674.328
670.932
651.206
618.523
584.341
582.515
580.411
569.168
562.466
574.572
568.815
558.935
566.951
710.085
689.236
681.402
659.996
652.225
661.937
669.422
669.497
654.36
625.617
590.178
589.004
597.929
599.206
593.029
577.876
565.407
560.679
560.613
718.994
695.396
687.883
671.947
652.265
651.363
668.399
671.606
659.842
633.559
613.289
610.016
605.875
600.521
590.122
574.553
560.867
554.519
552.892
963.317
950.359
939.92
957.555
960.178
943.311
945.51
940.118
930.993
910.909
911.887
886.568
867.981
856.384
848.956
839.707
826.712
803.981
780.888
766.176
744.476
736.191
745.515
957.518
956.537
928.555
967.108
967.635
964.694
956.943
951.671
952.116
944.581
917.958
887.641
866.87
858.864
853.688
841.455
819.132
790.088
764.419
745.417
734.893
721.685
668.127
907.121
873.372
855.57
932.14
946.323
954.977
957.67
955.345
945.003
895.853
788.866
801.743
850.887
863.199
861.429
802.657
613.777
424.855
336.28
316.011
316.819
281.969
254.893
595.896
379.417
446.491
591.732
752.76
895.27
964.76
961.877
605.583
236.742
144.802
205.814
292.552
342.874
299.455
171.652
71.7185
19.8458
3.88194
3.76959
3.81565
16.9139
20.7495
90.5489
10.701
11.5004
20.9125
78.355
240.46
374.42
356.558
58.562
1.88802
1.61669
1.54919
1.52869
1.58648
1.43128
7.38871
28.5023
3.68159
3.68744
3.65205
3.66866
3.65005
3.70939
6.552
2.41058
1.44901
1.48377
1.49082
1.27875
2.70938
0.384539
1.13694
1.28769
1.38765
1.39555
1.44503
1.52575
1.56581
1.59926
1.98541
3.54864
4.944
4.03464
3.55757
3.68415
4.02089
2.16847
1.29276
1.10485
1.49185
1.6975
1.19582
0.165222
0.259214
1.57701
2.05035
2.11578
2.15704
1.77074
1.39742
1.67859
1.88961
2.42877
4.11375
4.95861
5.30957
5.78906
6.76772
6.81091
1.21001
0.987923
0.941355
1.3598
1.62919
0.464695
-0.100936
0.922037
1.66343
1.72931
1.28143
0.744454
1.52887
2.34779
2.63918
3.01515
3.46638
3.78921
3.64938
2.89831
3.05196
3.14254
6.31222
1.03763
0.779649
0.763519
1.43168
1.43946
-0.0553822
-0.220711
-0.239439
-0.360425
-0.515392
-0.473882
-0.346827
-0.181298
0.133596
0.760953
1.48772
2.42344
2.68264
1.94859
2.50886
2.83757
3.11465
3.12991
0.974683
0.581921
0.861475
1.2896
0.853228
-0.194825
-0.375382
-0.563291
-0.701748
-0.75388
-0.7141
-0.588205
-0.383239
-0.13251
0.111188
0.346588
0.58141
0.763189
0.88236
3.46293
5.51019
3.3481
3.14589
1.06336
0.539142
0.76257
1.16083
0.423808
-0.33789
-0.553313
-0.784021
-0.972257
-1.05586
-1.02662
-0.892308
-0.640837
-0.319079
-0.0210008
0.461948
0.915497
0.730494
0.795379
3.2503
9.88758
9.74593
3.17778
1.28665
0.739131
0.426951
1.09078
0.0580262
-0.455679
-0.713982
-0.977325
-1.18235
-1.25703
-1.23245
-1.08839
-0.847523
-0.490308
-0.151007
0.8801
1.11146
0.760536
0.71041
1.36181
10.5127
10.5863
9.86011
2.23673
1.00828
0.421374
0.661625
-0.164274
-0.525791
-0.796605
-1.06005
-1.25622
-1.32258
-1.28851
-1.15195
-0.916596
-0.579111
-0.225869
0.506876
1.07054
0.998557
0.653371
1.07527
10.6397
10.9165
11.3583
3.43738
1.39386
0.525198
0.016753
-0.290124
-0.536713
-0.792513
-1.02616
-1.19011
-1.25541
-1.20025
-1.07557
-0.859737
-0.552644
-0.21392
0.271063
0.769282
1.1274
2.38582
4.96117
6.90324
4.46239
1.65562
3.41188
3.23065
0.938187
0.165664
-0.190358
-0.464309
-0.701758
-0.896836
-1.02557
-1.06826
-1.01299
-0.898223
-0.713733
-0.421964
-0.0533332
0.748694
0.557314
0.60245
6.77644
6.4846
-0.289735
-0.804176
-0.978131
3.16259
3.34398
1.71283
0.382197
0.00762294
-0.28765
-0.513223
-0.683182
-0.789512
-0.808939
-0.763149
-0.659595
-0.48086
-0.221942
0.468118
0.875371
0.612726
0.826828
6.95554
5.60629
-0.37533
-0.852894
-1.05188
1.59127
3.49867
2.99192
0.766558
0.201272
-0.052862
-0.242048
-0.39031
-0.48856
-0.521019
-0.46182
-0.37568
-0.193971
0.0108738
0.871789
0.979537
0.644847
2.34442
3.17078
-0.052658
-0.415153
-0.68903
-0.724712
1.67869
2.17309
4.60938
2.24346
0.3201
0.140607
0.0409678
-0.0638984
-0.150609
-0.185278
-0.14475
-0.0388278
0.103566
0.579027
1.37958
0.752366
0.69983
2.53538
0.380675
1.49429
0.398751
-0.341327
-0.41761
7.94881
8.83714
6.49158
3.80612
1.53293
0.286529
0.287184
0.246606
0.187342
0.163294
0.186267
0.262546
0.341874
1.47734
1.50407
0.795528
0.317513
0.669511
0.471186
2.10702
1.49128
0.046079
-0.0460882
9.0317
8.80984
8.33822
6.80981
1.55509
0.329026
0.448372
0.461479
0.409803
0.39537
0.387927
0.431904
1.49277
1.69533
1.03857
0.343801
0.330672
0.345035
0.476051
1.72874
1.59818
0.322078
0.248059
8.97736
7.93669
7.73177
3.35018
0.293082
0.419101
0.568213
1.55738
2.21392
1.42402
1.35099
2.13206
2.11756
1.11438
0.39196
0.358485
0.345252
0.360721
0.38451
0.405993
0.699881
0.46825
0.399894
8.37275
0.566462
0.455975
0.464709
0.538045
2.44182
4.90495
5.22344
5.13455
5.0744
4.27352
1.08671
0.461915
0.410849
0.391992
0.367975
0.364971
0.375054
0.393425
0.428752
0.464632
0.718847
0.459012
2.2093
0.905884
0.866143
1.55756
4.93713
5.09739
5.1596
5.17887
5.10499
2.69787
0.856022
0.362791
0.40048
0.403819
0.392513
0.38559
0.371381
0.367973
0.378245
0.406525
0.445035
0.880499
0.728375
7.74724
1.23172
1.29185
2.42348
1.27537
1.59561
3.46961
2.05557
0.548188
0.228703
0.300414
0.378762
0.387639
0.376651
0.398622
0.40329
0.395726
0.375709
0.345514
0.360259
0.378489
0.75463
0.78248
8.79469
1.62755
1.27532
2.56828
0.107558
0.0230931
0.0638858
-0.00735774
0.0382942
0.188585
0.270469
0.286424
0.332974
0.358708
0.34942
0.361409
0.357966
0.350454
0.330922
0.302949
0.315284
0.331979
0.463597
9.05641
1.36926
1.32226
2.70275
0.0796404
0.0473322
0.00506131
-0.022539
-0.0137824
0.0409183
0.112676
0.188796
0.275147
0.309482
0.282853
0.278771
0.304522
0.288934
0.284123
0.240735
0.252624
0.255859
0.247511
9.31611
1.40742
1.41891
2.24604
0.142173
0.104601
0.0699706
-0.0674647
-0.08731
-0.0568628
0.00576662
0.0945954
0.197715
0.243023
0.230187
0.258578
0.23426
0.229021
0.219857
0.189387
0.195417
0.21216
0.216256
9.60686
2.09288
1.59824
1.57715
0.181621
0.189797
0.151845
-0.0980704
-0.165374
-0.15092
-0.0935179
-0.0060441
0.121909
0.163599
0.192913
0.227682
0.171011
0.146671
0.165601
0.141414
0.150926
0.178936
0.193973
9.90323
8.65982
1.22688
1.2414
0.209977
0.20683
0.136586
-0.000559872
-0.228449
-0.226939
-0.138596
-0.0764904
0.0572749
0.151876
0.187677
0.220327
0.169413
0.11947
0.0999813
0.102989
0.125905
0.158329
0.179636
9.99271
5.60273
1.30706
1.75642
0.245606
0.133896
0.135737
-0.0477902
-0.254211
-0.230719
0.00397374
-0.111273
0.258156
0.208137
0.259492
0.21872
0.215935
0.135891
0.0984893
0.0962899
0.119492
0.152017
0.196672
1.30625
1.34554
1.38875
2.99343
0.280059
0.126934
0.0989122
-0.135219
-0.225704
-0.226633
-0.0686005
0.786833
5.04811
3.07151
0.411805
0.231649
0.231239
0.193764
0.14627
0.146091
0.161027
0.197243
0.214443
1.38567
1.38538
1.40818
3.76992
2.90228
0.218051
-0.0215073
-0.0921951
-0.13612
-0.156591
-0.144338
5.53358
6.87297
6.81149
0.628911
0.197305
0.216621
0.1958
0.17886
0.175294
0.18392
0.188057
0.182471
1.50658
3.41198
3.50425
7.44509
5.55682
0.66109
-0.00603007
-0.00201321
-0.0108234
-0.0297509
2.99254
6.98285
6.99601
6.43348
0.508275
0.122741
0.128567
0.168845
0.145072
0.135812
0.145388
0.136601
0.138304
3.28342
9.41249
9.46753
9.29243
7.86865
2.20753
-0.00445268
0.0801388
0.108462
1.30241
7.1874
7.13484
7.10211
1.90979
-0.0348983
0.0461921
0.0722897
0.0861729
0.0952381
0.102895
0.110625
0.117444
0.122179
2.67465
3.20562
9.43158
9.37452
2.82051
3.10386
0.364219
0.142185
0.450989
7.4809
7.36783
6.98376
0.734307
-0.150609
-0.0591683
0.00705121
0.0406628
0.061221
0.0750693
0.0854382
0.0937895
0.100293
0.104762
0.177112
-0.116591
1.26516
4.11759
-0.0945733
0.959378
0.248516
0.176402
7.34653
7.61975
6.97574
-0.115252
-0.125693
-0.0953844
-0.0440318
-0.00471476
0.0236694
0.0436062
0.0580462
0.06889
0.07717
0.0834146
0.0878131
-0.0272818
-0.0376862
-0.0330256
0.343678
0.0672322
0.162622
0.293249
6.75587
7.44036
6.96941
-0.0687057
-0.0766828
-0.0728954
-0.0535759
-0.0285968
-0.00521042
0.0152271
0.0316679
0.0444709
0.0544242
0.0620777
0.0678386
0.0719568
-0.00416433
0.00762084
0.411067
1.13488
0.190475
0.38287
4.83606
6.85534
6.16546
-0.0527386
-0.0552721
-0.0545408
-0.0479432
-0.0353451
-0.0200749
-0.0043982
0.0103684
0.0231227
0.0335967
0.0419821
0.0485502
0.053548
0.0571664
0.00440519
0.0298991
0.664263
1.56731
1.35905
7.65034
7.61439
4.6466
-0.0433083
-0.0430916
-0.0446072
-0.0404142
-0.03398
-0.0249367
-0.0143245
-0.00335706
0.00708868
0.0165802
0.0246072
0.0311702
0.0363876
0.0404041
0.043355
0.00569138
0.0449558
0.0630122
4.45572
10.3316
10.3708
2.12599
-0.0783113
-0.042686
-0.00318458
-0.0336447
-0.0291453
-0.023338
-0.0167313
-0.00958451
-0.00226258
0.00484511
0.0112878
0.0168718
0.0215262
0.0252721
0.0281852
0.0303551
-0.00152395
0.0116159
0.00847195
1.25929
2.41388
6.61085
-0.0470305
-0.0552321
-0.021253
-0.02616
-0.0228171
-0.0187707
-0.0143649
-0.00996595
-0.00555228
-0.00116049
0.00300673
0.00667946
0.00992918
0.0126643
0.0148924
0.0166443
0.0179639
-0.0159225
-0.0216812
0.000890477
-0.0405859
-0.0624206
0.176119
-0.0252085
-0.0424747
-0.022312
-0.0178955
-0.0126911
-0.00928603
-0.00648383
-0.00413715
-0.00216403
-0.000429364
0.00106681
0.00227516
0.00329573
0.00417118
0.00489598
0.00547484
0.0059171
739.104
735.658
731.818
727.06
595.773
598.12
625.301
625.324
227.884
199.023
174.819
159.806
12.1601
3.85456
3.07723
2.91414
3.73793
5.5639
6.92876
5.40867
3.47855
3.44459
3.36797
4.35721
6.74587
3.55933
2.98568
2.86067
8.05575
8.08279
4.58229
2.71265
5.20784
9.93397
10.2484
3.87726
3.18516
8.81322
11.0895
10.5685
3.24849
11.1293
11.6804
11.7816
11.7889
11.8539
11.9512
12.0241
11.7378
11.839
11.9284
12.0051
2.07385
11.0321
11.6451
11.6397
-1.05819
3.70131
11.8664
10.5041
0.768672
6.02621
5.9108
-0.562116
1.03026
0.959626
-0.779831
-0.841817
-0.368009
-0.530052
-0.532231
-0.542261
-0.120612
-0.183353
-0.239947
-0.296943
0.137395
0.0464154
-0.049584
-0.143092
0.270278
0.169379
0.0640534
-0.035639
0.338655
0.245976
0.14929
0.0523173
0.521965
0.346561
0.22514
0.154095
0.733036
0.682819
0.602234
0.543054
0.560516
0.663046
0.57819
0.459582
0.241113
0.259785
0.239392
0.212001
0.210642
0.205947
0.203205
0.197789
0.195753
0.195318
0.218458
0.209107
0.186232
0.223004
0.238443
0.235809
0.228142
0.232439
0.232966
0.228101
0.220935
0.223526
0.202085
0.176072
0.178683
0.165875
0.158222
0.156751
0.140568
0.141449
0.141676
0.141346
0.123994
0.124694
0.124951
0.124814
0.106649
0.107481
0.107947
0.108078
0.0898134
0.0907658
0.091395
0.0917314
0.0739125
0.0748796
0.0755762
0.0760243
0.0589453
0.0598496
0.0605316
0.0610095
0.0448469
0.0456193
0.0462176
0.0466569
0.0314756
0.0320636
0.0325259
0.0328758
0.0186555
0.0190212
0.0193131
0.0195371
0.00615284
0.00627854
0.00637968
0.0064593
723.286
723.308
712.742
663.769
618.673
639.256
669.627
673.446
657.782
612.698
600.582
595.448
585.168
557.897
511.252
450.976
400.189
372.307
353.505
610.921
584.636
545.074
509.815
483.932
454.493
454.28
462.88
450.088
389.381
307.211
239.307
183.36
131.488
77.2546
37.8269
18.8277
12.244
9.46301
144.845
121.97
86.5265
50.4611
23.0735
8.74976
8.97104
2.30236
20.0093
42.4777
57.5511
58.3646
43.8162
12.7199
3.31818
3.88
3.352
2.66098
2.69483
2.85067
2.56971
2.22908
2.28094
2.39073
2.34797
2.30305
2.14626
1.81573
1.64342
1.65305
1.64312
1.42547
1.51305
2.86856
4.49673
4.05935
2.37529
2.50066
3.90046
3.93657
2.62436
2.20509
2.82444
3.14666
2.62262
1.89702
1.66886
1.65727
2.0858
2.38588
3.02825
3.32373
3.5676
4.58188
4.39167
2.18573
2.31489
4.51044
4.37933
3.06535
3.07595
3.15972
2.98722
2.4606
1.905
2.21324
1.9171
1.22333
1.20543
1.69413
2.19969
2.30368
3.79769
4.48206
2.52336
2.21826
3.91644
4.51011
3.0115
2.23568
2.69695
1.85047
1.43958
1.68424
1.58525
1.0374
1.05254
1.14318
1.85808
2.20468
2.01837
2.05458
3.48489
4.15179
2.18752
2.47983
3.63747
2.28904
1.51379
1.40442
1.25732
1.12699
1.04465
0.945237
0.93802
0.950199
1.12404
1.67478
2.07675
2.01889
2.05116
2.27119
4.1632
4.23086
2.21465
3.01224
1.47618
1.3898
1.26713
1.15748
1.04669
0.953745
0.907406
0.897024
0.924191
0.987396
1.05984
1.55653
2.18854
2.23241
2.88662
3.79326
3.00217
2.10882
1.52214
1.35858
1.27294
1.21578
1.06088
0.983128
0.916216
0.912231
1.08863
1.39536
1.42327
1.10464
1.18578
2.00002
2.27116
1.85013
1.81634
1.91695
3.95943
1.26094
1.21092
1.17195
1.11776
0.956902
0.903233
1.13976
1.56329
1.6215
1.64113
1.7044
1.64282
1.21202
1.1997
2.24219
2.27645
1.85531
1.9257
7.46446
0.945468
0.991571
1.06296
0.888682
0.83407
1.33056
1.65068
1.62298
1.6047
1.54835
1.67685
1.76185
1.47329
1.14349
1.80115
2.32092
1.97945
2.90568
10.1498
0.56055
0.718425
0.856901
0.736817
1.28743
1.60881
1.5949
1.25804
0.81848
0.64973
0.916857
1.68084
1.78232
1.12952
0.886027
2.28421
3.44157
3.48055
7.2861
0.0131218
0.400523
0.600061
1.31292
1.42517
1.29638
0.64757
0.548583
0.554925
0.568077
0.592337
0.721281
1.52449
1.01699
0.775233
1.20882
3.41377
3.48717
-0.210625
-0.267404
0.141117
0.504171
1.18954
1.12121
0.450307
0.470947
0.486564
0.609205
0.582203
0.4866
0.507362
0.586165
0.73257
0.660092
0.605815
2.587
3.52599
-0.946405
-0.339305
-0.00447799
0.917342
1.02705
0.302764
0.359025
0.406686
0.688746
0.682871
0.673353
0.476186
0.369671
0.437007
0.502175
0.547921
0.550685
0.640133
3.60014
-0.697514
-0.345949
0.290927
0.793602
0.34769
0.191581
0.26768
0.615293
0.609045
0.590845
0.577641
0.308918
0.246578
0.321424
0.40031
0.461477
0.501342
0.71958
3.63206
-0.503612
-0.169504
0.358181
0.514061
-0.0467389
0.0896116
0.402466
0.552027
0.556142
0.520247
0.179302
0.139027
0.1729
0.235707
0.316848
0.390735
0.447168
0.755871
3.72258
-0.368787
-0.121414
0.294244
0.121547
-0.121661
0.0306169
0.47127
0.523198
0.532525
0.165173
0.14943
0.124625
0.140225
0.183257
0.253975
0.329453
0.391012
0.768277
3.77295
-0.278838
0.143361
0.306605
-0.200707
-0.14227
0.167698
0.461448
0.522448
0.135838
0.332007
0.652702
0.173984
0.130023
0.155242
0.210159
0.278492
0.33252
1.28929
3.05919
0.0418027
0.294612
0.264681
-0.258281
-0.107126
0.374456
0.477904
0.213786
0.0979479
0.696473
0.768779
0.509426
0.127698
0.142262
0.1819
0.239364
0.280463
1.69128
2.55983
0.343501
0.427579
0.0243624
-0.233594
-0.0313448
0.411429
0.258237
0.0828453
0.106196
0.772105
0.784822
0.73409
0.186072
0.1363
0.165152
0.212043
0.242916
1.77778
1.53398
0.289567
0.0866673
-0.132509
-0.0976003
0.0857251
0.155787
0.0796644
0.1048
0.125254
0.452357
0.480207
0.532694
0.479204
0.135482
0.1579
0.195812
0.221416
1.65213
1.55965
0.449611
0.2784
0.0112012
0.0171985
0.0582283
0.0852157
0.111113
0.130556
0.150569
0.253499
1.16093
0.913638
0.803889
0.578897
0.158233
0.189731
0.2141
0.574317
3.23895
0.530005
0.384777
0.108245
0.0868432
0.0978045
0.115674
0.133016
0.149293
0.167245
0.843578
2.67587
2.52589
0.801842
0.825005
0.353356
0.191914
0.217966
0.21047
4.1062
0.222492
0.186423
0.139274
0.120361
0.124242
0.132424
0.142614
0.15275
0.163794
1.4062
2.75299
2.72677
0.906625
0.284365
0.411373
0.206008
0.230877
0.231171
4.22707
0.183154
0.162178
0.147054
0.138531
0.137629
0.140039
0.142694
0.14455
0.146423
1.13164
2.81704
2.81135
2.32934
0.258961
0.331793
0.239457
0.252573
0.969447
4.71081
0.183473
0.16972
0.157162
0.148128
0.14463
0.141644
0.137806
0.132689
0.12448
0.21659
2.56326
2.88364
2.96439
0.290636
0.272795
0.28516
0.276503
4.252
4.91638
0.186481
0.171526
0.160649
0.152961
0.145908
0.139283
0.130585
0.122094
0.110848
0.0926907
0.0862041
2.59641
3.11952
3.21113
1.48651
1.71428
4.10452
4.92141
5.02002
0.178188
0.168503
0.158844
0.15117
0.143052
0.132994
0.12343
0.113386
0.102056
0.0897356
0.0753182
0.150616
2.30476
4.96233
4.98427
4.91416
4.90329
4.93414
5.08573
0.167683
0.160757
0.1524
0.143903
0.135366
0.126386
0.116379
0.105624
0.0942115
0.0825894
0.0721888
0.0653114
0.0698766
0.869201
5.06437
4.96481
4.93414
4.7128
2.52538
0.15489
0.149328
0.142533
0.135266
0.127486
0.118763
0.108763
0.09784
0.0859103
0.0723949
0.0577666
0.0420476
0.0446552
0.399148
2.23185
5.09351
3.82774
0.964358
1.00058
0.139909
0.13577
0.130526
0.124567
0.117726
0.10969
0.10031
0.08956
0.0767783
0.0598743
0.038272
0.00894684
-0.00140168
0.0206331
1.26391
2.15123
0.619908
0.665237
1.55767
0.123954
0.12109
0.117146
0.112308
0.106488
0.099457
0.090914
0.0805713
0.0670111
0.0476421
0.0227858
-0.0119291
-0.0602083
-0.0338269
0.0110715
0.298286
0.297142
1.54181
1.54414
0.107775
0.105917
0.103004
0.0991766
0.0943768
0.0883072
0.0805719
0.0706147
0.0565385
0.0946358
1.1379
1.35195
-0.0217316
-0.0961311
-0.0528006
-0.0276886
0.291083
1.60895
0.185064
0.0918409
0.090727
0.0886213
0.0856456
0.0817352
0.076567
0.0695691
0.0596087
0.0457067
0.373049
2.15785
2.036
0.422741
-0.143733
-0.0890872
-0.0656228
0.432672
1.64865
-0.074244
0.076388
0.0757951
0.0743074
0.072034
0.06892
0.0646598
0.0585959
0.0494863
0.0366575
0.472129
2.18804
2.06705
1.9145
-0.166367
-0.111608
0.240442
1.04978
1.70968
-0.0612826
0.0614902
0.0612401
0.0602296
0.0585548
0.0561922
0.0528968
0.04817
0.0407592
0.030486
0.0229454
1.23935
2.13564
2.07995
1.9555
1.1942
0.488756
0.240768
0.228969
-0.0494853
0.0471425
0.0470959
0.0464474
0.0452831
0.0436315
0.0413695
0.0381513
0.0333005
0.0266519
0.0117523
0.257267
2.18645
2.18524
2.18751
0.607853
0.12532
-0.0176731
-0.0236799
-0.0361685
0.0332817
0.0333289
0.0329474
0.0322064
0.0311682
0.0298671
0.0281333
0.0256527
0.0221977
0.0134858
-0.0107999
0.0506674
0.380198
0.277975
-0.0439202
-0.0197317
-0.00460789
-0.020277
-0.0230563
0.0198059
0.0198707
0.0196786
0.0192802
0.0187297
0.0181199
0.0175349
0.016617
0.0148129
0.0104126
-0.000176988
-0.0147407
-0.0241022
-0.019771
-0.00866389
-5.4866e-05
0.000525848
-0.0135488
-0.0127949
0.00655835
0.00659257
0.00654299
0.0064391
0.00628102
0.00617839
0.00625374
0.00652467
0.0064197
0.00486401
0.00202074
-0.000271749
-0.00062811
-0.000190924
-0.00145253
-0.00237119
-0.00097026
-0.00360929
-0.00574175
)
;

boundaryField
{
    leftWall
    {
        type            fixedFluxPressure;
        gradient        uniform 0;
        value           nonuniform List<scalar> 
50
(
970.817
970.232
968.989
962.404
974.411
988.685
982.33
974.089
963.317
957.518
907.121
595.896
90.5489
6.552
2.16847
1.21001
1.03763
0.974683
1.06336
1.28665
2.23673
3.43738
3.41188
3.16259
1.59127
1.67869
7.94881
9.0317
8.97736
8.37275
2.2093
7.74724
8.79469
9.05641
9.31611
9.60686
9.90323
9.99271
1.30625
1.38567
1.50658
3.28342
2.67465
0.177112
-0.0272818
-0.00416433
0.00440519
0.00569138
-0.00152395
-0.0159225
)
;
    }
    rightWall
    {
        type            fixedFluxPressure;
        gradient        uniform 0;
        value           nonuniform List<scalar> 
50
(
561.092
559.852
558.43
552.623
557.426
566.951
560.613
552.892
353.505
9.46301
2.69483
2.50066
2.31489
2.21826
2.18752
4.23086
3.00217
1.91695
1.9257
2.90568
3.48055
3.48717
3.52599
3.60014
3.63206
3.72258
3.77295
3.05919
2.55983
1.53398
1.55965
3.23895
4.1062
4.22707
4.71081
4.91638
5.02002
5.08573
2.52538
1.00058
1.55767
1.54414
0.185064
-0.074244
-0.0612826
-0.0494853
-0.0361685
-0.0230563
-0.0127949
-0.00574175
)
;
    }
    lowerWall
    {
        type            fixedFluxPressure;
        gradient        uniform 0;
        value           nonuniform List<scalar> 
62
(
970.817
964.38
959.793
958.612
956.172
946.51
935.51
925.26
917.667
914.429
911.525
900.975
885.018
868.214
852.614
839.083
826.679
814.481
801.627
787.5
776.741
772.677
774.608
774.608
773.988
773.347
772.844
768.711
762.23
753.39
746.166
739.104
735.658
731.818
727.06
684.138
678.837
680.312
685.338
690.721
693.919
710.085
718.994
684.138
672.863
678.382
672.464
666.652
690.404
713.896
703.594
671.215
634.987
613.376
607.671
605.013
594.893
579.857
564.787
555.573
552.887
561.092
)
;
    }
    atmosphere
    {
        type            totalPressure;
        rho             rho;
        psi             none;
        gamma           1;
        p0              uniform 0;
        value           nonuniform List<scalar> 
46
(
-0.0221487
-0.0199482
-0.000672315
0
-0.0296471
0
-0.0569388
-0.0416481
-0.0208326
-0.0137249
-0.00815333
-0.00513954
-0.00306392
-0.00157825
-0.000773601
-0.000279958
-4.65771e-05
0
0
0
0
0
0
0
0
0
0
0
0
0
0
0
0
0
0
0
0
0
0
0
0
0
0
0
-0.00102185
-0.00479173
)
;
    }
    defaultFaces
    {
        type            empty;
    }
}


// ************************************************************************* //
