/*--------------------------------*- C++ -*----------------------------------*\
| =========                 |                                                 |
| \\      /  F ield         | OpenFOAM: The Open Source CFD Toolbox           |
|  \\    /   O peration     | Version:  2.3.0                                 |
|   \\  /    A nd           | Web:      www.OpenFOAM.org                      |
|    \\/     M anipulation  |                                                 |
\*---------------------------------------------------------------------------*/
FoamFile
{
    version     2.0;
    format      ascii;
    class       volVectorField;
    location    "2.4";
    object      U;
}
// * * * * * * * * * * * * * * * * * * * * * * * * * * * * * * * * * * * * * //

dimensions      [0 1 -1 0 0 0 0];

internalField   nonuniform List<vector> 
2268
(
(0.0291082 -0.0171803 0)
(0.0193437 0.00522221 0)
(-0.048343 0.0161514 0)
(-0.0881452 0.0156463 0)
(-0.151115 0.00610949 0)
(-0.16926 -0.000950621 0)
(-0.186641 0.00878012 0)
(-0.249255 0.0204223 0)
(-0.309945 0.0152991 0)
(-0.306903 -0.00505016 0)
(-0.24053 -0.0199314 0)
(-0.171768 -0.0195814 0)
(-0.122504 -0.0126433 0)
(-0.10209 -0.00315009 0)
(-0.111582 0.00581665 0)
(-0.126576 0.00429459 0)
(-0.110468 -0.00506752 0)
(-0.0768328 -0.00819388 0)
(-0.0579152 -0.0030698 0)
(-0.0626342 0.00342346 0)
(-0.0709575 0.00289299 0)
(-0.0564846 -0.00617937 0)
(-0.020652 -0.0132389 0)
(-0.0189586 -0.0124435 0)
(-0.0342328 0.0301383 0)
(-0.0930483 0.037362 0)
(-0.144121 0.0420627 0)
(-0.213841 0.0257326 0)
(-0.263342 0.018792 0)
(-0.311941 0.0329845 0)
(-0.357522 0.0361528 0)
(-0.35152 0.0109913 0)
(-0.293042 -0.0278626 0)
(-0.226269 -0.048778 0)
(-0.167782 -0.0404222 0)
(-0.13612 -0.0195673 0)
(-0.130347 -0.000802844 0)
(-0.13478 0.0067697 0)
(-0.119102 -0.00374654 0)
(-0.0812591 -0.0186605 0)
(-0.0519783 -0.0183159 0)
(-0.0411698 -0.00707543 0)
(-0.0419889 0.0040529 0)
(-0.0352931 -0.00108562 0)
(-0.0151479 -0.0188747 0)
(0.000948159 -0.0293843 0)
(-0.0509749 0.0088577 0)
(-0.0873237 0.0525928 0)
(-0.127612 0.0619723 0)
(-0.149498 0.0720534 0)
(-0.209849 0.0521134 0)
(-0.268964 0.0425066 0)
(-0.305574 0.048802 0)
(-0.329435 0.0368217 0)
(-0.30825 -0.00593814 0)
(-0.252707 -0.0566161 0)
(-0.176324 -0.0807322 0)
(-0.116777 -0.0614602 0)
(-0.0927365 -0.0275744 0)
(-0.0865325 -0.00422166 0)
(-0.0817868 0.00108821 0)
(-0.0616509 -0.0170613 0)
(-0.0268519 -0.0341275 0)
(-0.000295306 -0.0277745 0)
(0.00848802 -0.0117352 0)
(0.00931018 0.000472887 0)
(0.0347954 -0.00615841 0)
(0.0484569 -0.0185595 0)
(0.0299153 -0.020239 0)
(-0.0773005 0.0505663 0)
(-0.134968 0.0738591 0)
(-0.153117 0.0689291 0)
(-0.140381 0.0900091 0)
(-0.191004 0.0788819 0)
(-0.248658 0.0622148 0)
(-0.268164 0.0595471 0)
(-0.286201 0.037247 0)
(-0.267812 -0.0204886 0)
(-0.203733 -0.0892489 0)
(-0.117709 -0.11876 0)
(-0.0670725 -0.0839803 0)
(-0.0426812 -0.0338275 0)
(-0.0380141 -0.00811667 0)
(-0.034536 -0.00543945 0)
(-0.0145343 -0.0265987 0)
(0.0159831 -0.0472611 0)
(0.0389051 -0.0373251 0)
(0.0568089 -0.0162499 0)
(0.0624383 -0.00847716 0)
(0.110984 -0.0149245 0)
(0.104901 -0.00710716 0)
(0.0542484 0.00637555 0)
(-0.0931452 0.101652 0)
(-0.166611 0.0929773 0)
(-0.17545 0.0607807 0)
(-0.143738 0.0918602 0)
(-0.174474 0.103222 0)
(-0.227698 0.0775746 0)
(-0.235012 0.0648365 0)
(-0.24644 0.0348533 0)
(-0.222366 -0.0393085 0)
(-0.146571 -0.124768 0)
(-0.0708421 -0.15355 0)
(-0.0471239 -0.103957 0)
(-0.01711 -0.0431017 0)
(-0.00250656 -0.0103205 0)
(-0.00197001 -0.00931705 0)
(0.00659412 -0.0382288 0)
(0.0277938 -0.060562 0)
(0.0435662 -0.0469352 0)
(0.073038 -0.024572 0)
(0.10402 -0.0251312 0)
(0.149223 -0.0253993 0)
(0.133407 0.0137868 0)
(0.0658348 0.0464946 0)
(-0.0925965 0.159272 0)
(-0.176176 0.118099 0)
(-0.1989 0.0566228 0)
(-0.169297 0.0847082 0)
(-0.165856 0.120183 0)
(-0.207137 0.0899113 0)
(-0.207796 0.064219 0)
(-0.205558 0.0286988 0)
(-0.170798 -0.0591357 0)
(-0.0896151 -0.156319 0)
(-0.057163 -0.174 0)
(-0.0567303 -0.114177 0)
(-0.0243418 -0.0541218 0)
(-0.00152276 -0.0173184 0)
(0.0115717 -0.00946061 0)
(0.0106242 -0.0395321 0)
(0.0142496 -0.0652044 0)
(0.0279912 -0.0560509 0)
(0.0656882 -0.0462728 0)
(0.111217 -0.0524486 0)
(0.127633 -0.0339307 0)
(0.106385 0.0379553 0)
(0.0584461 0.0836042 0)
(-0.0772914 0.216275 0)
(-0.155004 0.154126 0)
(-0.191965 0.0624083 0)
(-0.18851 0.0707077 0)
(-0.165547 0.125677 0)
(-0.177491 0.100391 0)
(-0.179853 0.0584619 0)
(-0.164135 0.0161123 0)
(-0.115802 -0.0848925 0)
(-0.0431103 -0.177335 0)
(-0.0805176 -0.175252 0)
(-0.0829447 -0.118112 0)
(-0.0498251 -0.0651142 0)
(-0.0243235 -0.026754 0)
(-0.00360514 -0.0139465 0)
(-0.0048548 -0.0385868 0)
(-0.00749237 -0.0692754 0)
(0.00491076 -0.0717843 0)
(0.0304429 -0.0690712 0)
(0.0449239 -0.0622144 0)
(0.0395801 -0.0227143 0)
(0.024566 0.0597995 0)
(0.0383475 0.114278 0)
(-0.0520588 0.26239 0)
(-0.103339 0.183379 0)
(-0.131721 0.0755106 0)
(-0.14884 0.0603644 0)
(-0.148305 0.11338 0)
(-0.126219 0.105722 0)
(-0.134794 0.0463684 0)
(-0.115306 -0.00832923 0)
(-0.0578944 -0.108327 0)
(-0.0334012 -0.176333 0)
(-0.123351 -0.15942 0)
(-0.11775 -0.121252 0)
(-0.0827227 -0.0772282 0)
(-0.0542708 -0.0339051 0)
(-0.0328552 -0.0174171 0)
(-0.0289428 -0.0408908 0)
(-0.0387098 -0.0731179 0)
(-0.051456 -0.0715497 0)
(-0.0604681 -0.0632782 0)
(-0.0691641 -0.054833 0)
(-0.0592354 -0.0166667 0)
(-0.0390474 0.0573779 0)
(0.0143421 0.125234 0)
(0.0548294 -0.0344906 0)
(0.135291 -0.00991395 0)
(0.0769339 0.0184613 0)
(-0.172979 0.0425022 0)
(-0.269974 0.0111866 0)
(-0.166468 -0.0331921 0)
(-0.0103611 -0.0475082 0)
(0.165644 -0.0413061 0)
(0.309514 -0.0273859 0)
(0.400332 -0.00725038 0)
(0.404309 0.00848445 0)
(0.354025 0.0134998 0)
(0.290659 0.0172103 0)
(0.204877 0.0229605 0)
(0.0777595 0.0248926 0)
(-0.01905 0.0179966 0)
(-0.067095 0.00843069 0)
(-0.0927934 0.00295319 0)
(-0.0398913 -0.0228536 0)
(0.0209548 -0.068259 0)
(0.0602161 0.0136391 0)
(-0.0480024 0.0923551 0)
(-0.271292 0.0927532 0)
(-0.23433 0.00444629 0)
(-0.121873 -0.0880082 0)
(0.0130623 -0.120697 0)
(0.156582 -0.106748 0)
(0.281626 -0.0750048 0)
(0.368638 -0.0282219 0)
(0.404839 0.011193 0)
(0.387183 0.0268196 0)
(0.361509 0.0422498 0)
(0.282922 0.0691199 0)
(0.104386 0.074205 0)
(0.0274756 0.0442301 0)
(0.00869193 0.0154371 0)
(-0.0407019 -0.00360643 0)
(0.00113295 -0.0474588 0)
(-0.0316754 -0.0618005 0)
(-0.0668161 0.0466126 0)
(-0.160697 0.146995 0)
(-0.249731 0.109806 0)
(-0.145379 -0.0268832 0)
(-0.0376624 -0.143535 0)
(0.0579896 -0.175896 0)
(0.149078 -0.156662 0)
(0.237535 -0.116249 0)
(0.315158 -0.0489791 0)
(0.34506 0.00950306 0)
(0.315968 0.031631 0)
(0.30324 0.0600354 0)
(0.252297 0.1149 0)
(0.112471 0.118217 0)
(0.110514 0.0591366 0)
(0.144249 0.0330798 0)
(0.0686336 0.0193877 0)
(0.0395731 -0.0376463 0)
(-0.059284 -0.0285114 0)
(-0.143572 0.082499 0)
(-0.19109 0.162903 0)
(-0.170611 0.0906791 0)
(-0.0378918 -0.0711618 0)
(0.0808971 -0.181907 0)
(0.117276 -0.204163 0)
(0.147466 -0.182311 0)
(0.18861 -0.146519 0)
(0.25462 -0.0663485 0)
(0.287889 0.0132911 0)
(0.248819 0.0406596 0)
(0.231547 0.0740064 0)
(0.201781 0.14741 0)
(0.1362 0.141759 0)
(0.160645 0.0479739 0)
(0.191646 0.0252458 0)
(0.138237 0.0490983 0)
(0.0625269 -0.000626937 0)
(-0.0551381 0.0140475 0)
(-0.154418 0.104493 0)
(-0.15223 0.146527 0)
(-0.0597635 0.0486002 0)
(0.113033 -0.11852 0)
(0.185414 -0.200728 0)
(0.162668 -0.207226 0)
(0.142127 -0.185197 0)
(0.137512 -0.162587 0)
(0.183368 -0.0828857 0)
(0.229359 0.0143252 0)
(0.196566 0.0501915 0)
(0.172367 0.0843243 0)
(0.159325 0.159358 0)
(0.166071 0.140508 0)
(0.181225 0.0417169 0)
(0.165783 0.0302264 0)
(0.134935 0.0793907 0)
(0.0665334 0.0385485 0)
(-0.0218348 0.0518343 0)
(-0.110415 0.115133 0)
(-0.0661854 0.112752 0)
(0.0894404 -0.0133184 0)
(0.235761 -0.153114 0)
(0.245588 -0.200484 0)
(0.170885 -0.189735 0)
(0.122747 -0.171584 0)
(0.0847387 -0.163841 0)
(0.0985047 -0.0968178 0)
(0.157658 0.0121859 0)
(0.147125 0.0574147 0)
(0.130003 0.0910435 0)
(0.137056 0.151578 0)
(0.184309 0.128014 0)
(0.184586 0.0527877 0)
(0.130985 0.0480622 0)
(0.102155 0.0990554 0)
(0.060509 0.0751854 0)
(0.0139784 0.0685919 0)
(-0.0361337 0.116297 0)
(0.0491613 0.0640926 0)
(0.217573 -0.0719288 0)
(0.295457 -0.171108 0)
(0.239233 -0.178698 0)
(0.14345 -0.16117 0)
(0.0952201 -0.149725 0)
(0.0352877 -0.15114 0)
(0.005651 -0.106821 0)
(0.0813652 0.000641114 0)
(0.0940134 0.0532736 0)
(0.097629 0.0890647 0)
(0.128019 0.129781 0)
(0.179558 0.112167 0)
(0.166089 0.0637839 0)
(0.103072 0.0671783 0)
(0.0703006 0.112165 0)
(0.0494687 0.107958 0)
(0.0177939 0.0721798 0)
(0.039093 0.105817 0)
(0.162989 0.0106762 0)
(0.27092 -0.106472 0)
(0.268343 -0.155448 0)
(0.180057 -0.140815 0)
(0.107925 -0.134532 0)
(0.0743646 -0.125409 0)
(0.00551267 -0.124508 0)
(-0.0694213 -0.104594 0)
(-0.0128578 -0.0178105 0)
(0.0263063 0.0463468 0)
(0.0615509 0.0829998 0)
(0.108041 0.114538 0)
(0.14232 0.111436 0)
(0.112322 0.0882249 0)
(0.0569033 0.0899164 0)
(0.0327424 0.116279 0)
(0.0313475 0.120341 0)
(-0.00847813 0.304733 0)
(-0.0143762 0.233785 0)
(-0.0303053 0.115381 0)
(-0.0653403 0.063541 0)
(-0.098354 0.0962392 0)
(-0.0650905 0.108172 0)
(-0.0565327 0.0575777 0)
(-0.0301271 -0.00933427 0)
(-0.0307749 -0.10132 0)
(-0.116804 -0.12242 0)
(-0.21018 -0.123369 0)
(-0.201803 -0.129605 0)
(-0.170685 -0.10087 0)
(-0.135394 -0.0569721 0)
(-0.106061 -0.03882 0)
(-0.108853 -0.0467226 0)
(-0.153025 -0.0449423 0)
(-0.199836 -0.0341502 0)
(-0.221854 -0.0516847 0)
(-0.220621 -0.0714785 0)
(-0.195899 -0.0482939 0)
(-0.137029 0.0106988 0)
(-0.0478599 0.050647 0)
(0.0214563 0.252818 0)
(0.0528759 0.214524 0)
(-0.0451402 0.144396 0)
(-0.105019 0.12462 0)
(-0.113916 0.114259 0)
(-0.0834545 0.0812314 0)
(-0.0674556 0.0146202 0)
(-0.0785387 -0.0236893 0)
(-0.176265 -0.00800403 0)
(-0.305321 -0.00585274 0)
(-0.358139 -0.0883734 0)
(-0.366369 -0.147064 0)
(-0.341051 -0.132931 0)
(-0.309628 -0.0883787 0)
(-0.297656 -0.0410453 0)
(-0.319394 0.00222433 0)
(-0.35337 0.0145952 0)
(-0.374527 -0.0160921 0)
(-0.393991 -0.0662085 0)
(-0.405547 -0.0909466 0)
(-0.401231 -0.0739757 0)
(-0.381312 -0.0261008 0)
(-0.354753 0.016709 0)
(-0.0533363 0.230514 0)
(-0.151249 0.281215 0)
(-0.288792 0.226664 0)
(-0.299977 0.142474 0)
(-0.281276 0.077135 0)
(-0.26045 0.0325496 0)
(-0.267276 0.0359777 0)
(-0.318994 0.0771136 0)
(-0.42067 0.0972321 0)
(-0.523045 0.0267553 0)
(-0.574024 -0.101008 0)
(-0.557392 -0.168601 0)
(-0.492428 -0.144146 0)
(-0.430937 -0.0804168 0)
(-0.3938 -0.0224376 0)
(-0.392273 0.0096156 0)
(-0.405686 0.00657212 0)
(-0.43159 -0.00994099 0)
(-0.447084 -0.0431682 0)
(-0.433686 -0.0704565 0)
(-0.41669 -0.0583705 0)
(-0.41499 -0.0211197 0)
(-0.392186 -0.0109127 0)
(-0.282187 0.396322 0)
(-0.47665 0.388841 0)
(-0.613751 0.211297 0)
(-0.59238 0.0842178 0)
(-0.52795 0.0445807 0)
(-0.471562 0.0582594 0)
(-0.455693 0.110766 0)
(-0.487202 0.165713 0)
(-0.563636 0.179415 0)
(-0.658587 0.0853986 0)
(-0.723399 -0.0892331 0)
(-0.682005 -0.23664 0)
(-0.578216 -0.234774 0)
(-0.434603 -0.168663 0)
(-0.280539 -0.090659 0)
(-0.13654 0.0118318 0)
(-0.117019 0.0449048 0)
(-0.108001 0.0406361 0)
(-0.135451 -0.000309956 0)
(-0.232704 -0.0948283 0)
(-0.200306 -0.102788 0)
(-0.0856249 -0.086677 0)
(0.0727198 -0.0541501 0)
(-0.437794 0.797671 0)
(-0.609976 0.607423 0)
(-0.745619 0.260621 0)
(-0.809179 0.0488294 0)
(-0.758622 -0.0629834 0)
(-0.628581 -0.0328054 0)
(-0.546254 0.0997269 0)
(-0.515811 0.194434 0)
(-0.505582 0.253899 0)
(-0.561033 0.213308 0)
(-0.543833 0.0362391 0)
(-0.719426 -0.278894 0)
(-0.785349 -0.388048 0)
(-0.712441 -0.420468 0)
(-0.594212 -0.391995 0)
(-0.349663 -0.211137 0)
(0.0516245 -0.0345121 0)
(-0.4447 0.187525 0)
(-0.358667 0.0255559 0)
(-0.189347 -0.0959197 0)
(-0.124683 -0.117416 0)
(-0.0263386 -0.301647 0)
(0.0817403 -0.393815 0)
(-0.349522 1.48209 0)
(-0.466391 0.948902 0)
(-0.470516 0.555571 0)
(-0.449077 0.208634 0)
(-0.496313 -0.0742085 0)
(-0.682186 -0.157432 0)
(-0.758201 -0.0438385 0)
(-0.804024 0.0971842 0)
(-0.780486 0.315105 0)
(-0.77775 0.356909 0)
(-0.713558 0.0456294 0)
(-0.752555 -0.0853403 0)
(-0.826874 -0.233282 0)
(-0.892615 -0.395673 0)
(-0.967608 -0.461587 0)
(-1.00298 -0.291061 0)
(-0.884004 0.099756 0)
(-0.620655 0.0851588 0)
(-0.310744 -0.268341 0)
(-0.17908 -0.271686 0)
(-0.0795462 -0.284518 0)
(-0.0016308 -0.357404 0)
(0.099578 -0.414194 0)
(-0.228848 1.72101 0)
(-0.231254 1.00015 0)
(-0.3431 0.514682 0)
(-0.4288 0.191602 0)
(-0.604139 0.0925774 0)
(-0.821609 0.116391 0)
(-1.01964 0.126939 0)
(-1.06517 0.131149 0)
(-0.963996 0.120794 0)
(-0.841801 0.0651757 0)
(-0.785984 -0.0221782 0)
(-0.770723 -0.0871232 0)
(-0.74504 -0.196979 0)
(-0.732275 -0.318089 0)
(-0.726868 -0.406288 0)
(-0.680321 -0.407982 0)
(-0.542239 -0.301171 0)
(-0.279123 -0.244581 0)
(-0.0440478 -0.372079 0)
(0.0185734 -0.292561 0)
(0.0935962 -0.32081 0)
(0.105112 -0.411338 0)
(0.103297 -0.545963 0)
(-0.157242 1.82238 0)
(-0.104815 1.02815 0)
(-0.291232 0.575677 0)
(-0.377999 0.322774 0)
(-0.524063 0.256042 0)
(-0.69995 0.306321 0)
(-0.853476 0.265021 0)
(-0.884224 0.159896 0)
(-0.86729 0.0719431 0)
(-0.874081 0.0122813 0)
(-0.879032 -0.0523387 0)
(-0.827218 -0.153136 0)
(-0.729742 -0.301506 0)
(-0.63028 -0.416318 0)
(-0.54575 -0.466453 0)
(-0.44173 -0.461686 0)
(-0.291665 -0.457426 0)
(-0.132525 -0.490161 0)
(-0.0937715 -0.529048 0)
(-0.00290578 -0.434641 0)
(0.194485 -0.365031 0)
(0.296081 -0.334601 0)
(0.226963 -0.472472 0)
(-0.105112 1.89623 0)
(-0.0380673 1.11742 0)
(-0.274325 0.701419 0)
(-0.332967 0.433655 0)
(-0.445797 0.370328 0)
(-0.560283 0.453014 0)
(-0.697748 0.370946 0)
(-0.806147 0.250893 0)
(-0.931264 0.179851 0)
(-1.0186 0.119096 0)
(-1.00378 -0.0149042 0)
(-0.912193 -0.194413 0)
(-0.776445 -0.38324 0)
(-0.624842 -0.515955 0)
(-0.477511 -0.568329 0)
(-0.319104 -0.583606 0)
(-0.16042 -0.569815 0)
(-0.0616305 -0.536116 0)
(-0.0854588 -0.521565 0)
(-0.0826164 -0.599779 0)
(0.0875547 -0.620196 0)
(0.290897 -0.448947 0)
(0.369146 -0.375656 0)
(-0.026152 1.92453 0)
(0.0519476 1.28389 0)
(-0.266118 0.794795 0)
(-0.296572 0.510749 0)
(-0.403473 0.476301 0)
(-0.503318 0.580601 0)
(-0.652213 0.497263 0)
(-0.809543 0.381083 0)
(-0.938511 0.249516 0)
(-0.970657 0.0667323 0)
(-0.927473 -0.152083 0)
(-0.838473 -0.37451 0)
(-0.705548 -0.574346 0)
(-0.539952 -0.706678 0)
(-0.363449 -0.748142 0)
(-0.1646 -0.763116 0)
(0.0158194 -0.715743 0)
(0.118834 -0.548972 0)
(0.0964666 -0.434113 0)
(0.0976804 -0.64921 0)
(0.161155 -0.772445 0)
(0.25026 -0.637012 0)
(0.376445 -0.417444 0)
(0.0968872 1.80957 0)
(0.238716 1.55178 0)
(-0.139916 0.920266 0)
(-0.216333 0.601543 0)
(-0.32307 0.584763 0)
(-0.421517 0.692683 0)
(-0.533637 0.626935 0)
(-0.647223 0.497458 0)
(-0.71519 0.310388 0)
(-0.710817 0.0640592 0)
(-0.669451 -0.212255 0)
(-0.594233 -0.488539 0)
(-0.483493 -0.740256 0)
(-0.331981 -0.915022 0)
(-0.169869 -0.96233 0)
(0.0349327 -0.956666 0)
(0.17863 -0.868278 0)
(0.253987 -0.653419 0)
(0.316973 -0.431751 0)
(0.331133 -0.629437 0)
(0.322272 -0.787279 0)
(0.337325 -0.714505 0)
(0.384034 -0.520595 0)
(0.246705 1.48017 0)
(0.516701 1.74825 0)
(0.239789 1.20305 0)
(-0.0144875 0.742268 0)
(-0.135511 0.67073 0)
(-0.218262 0.763572 0)
(-0.262384 0.712035 0)
(-0.303377 0.561956 0)
(-0.306375 0.331421 0)
(-0.269427 0.0502437 0)
(-0.233112 -0.241721 0)
(-0.188427 -0.53751 0)
(-0.125958 -0.830537 0)
(-0.024635 -1.06051 0)
(0.0809275 -1.13738 0)
(0.23369 -1.09208 0)
(0.31766 -0.953904 0)
(0.333327 -0.743075 0)
(0.410805 -0.519757 0)
(0.470246 -0.602789 0)
(0.451309 -0.77567 0)
(0.437947 -0.726703 0)
(0.445174 -0.562689 0)
(0.299118 0.90582 0)
(0.738407 1.66484 0)
(0.706374 1.49548 0)
(0.393137 1.00642 0)
(0.189869 0.773522 0)
(0.0903162 0.774955 0)
(0.0945649 0.730241 0)
(0.11359 0.573942 0)
(0.150382 0.328313 0)
(0.193065 0.0386425 0)
(0.220836 -0.249407 0)
(0.236967 -0.546132 0)
(0.265021 -0.864144 0)
(0.315389 -1.13298 0)
(0.357375 -1.23675 0)
(0.412259 -1.1609 0)
(0.422403 -0.976409 0)
(0.376982 -0.742126 0)
(0.390486 -0.603377 0)
(0.471112 -0.637508 0)
(0.482982 -0.756724 0)
(0.494995 -0.721538 0)
(0.49349 -0.56714 0)
(0.173316 0.336895 0)
(0.745683 1.29889 0)
(1.00394 1.57305 0)
(0.866929 1.29799 0)
(0.636706 0.977937 0)
(0.483333 0.810455 0)
(0.462701 0.698219 0)
(0.497776 0.530666 0)
(0.545217 0.290757 0)
(0.583909 0.0124933 0)
(0.601595 -0.263218 0)
(0.599998 -0.549328 0)
(0.611899 -0.87248 0)
(0.627931 -1.15379 0)
(0.606917 -1.25263 0)
(0.56402 -1.14521 0)
(0.496974 -0.933948 0)
(0.394167 -0.678104 0)
(0.343124 -0.643738 0)
(0.397984 -0.702182 0)
(0.471105 -0.779671 0)
(0.534474 -0.727783 0)
(0.534777 -0.562207 0)
(0.0503441 -0.041061 0)
(0.556564 0.83327 0)
(1.00619 1.38346 0)
(1.14324 1.41309 0)
(1.05173 1.18109 0)
(0.912988 0.925798 0)
(0.842582 0.706335 0)
(0.841193 0.487143 0)
(0.868422 0.241819 0)
(0.89303 -0.0178247 0)
(0.896095 -0.273778 0)
(0.890377 -0.551453 0)
(0.900518 -0.87172 0)
(0.88658 -1.13146 0)
(0.796597 -1.18836 0)
(0.668242 -1.04076 0)
(0.531201 -0.808291 0)
(0.393992 -0.540505 0)
(0.289001 -0.642844 0)
(0.327019 -0.789921 0)
(0.488805 -0.893838 0)
(0.595133 -0.8087 0)
(0.558814 -0.540398 0)
(0.0253885 -0.226599 0)
(0.3508 0.355448 0)
(0.831388 0.983476 0)
(1.18179 1.26706 0)
(1.29466 1.23562 0)
(1.26093 1.03046 0)
(1.19822 0.768645 0)
(1.16354 0.499863 0)
(1.1546 0.234132 0)
(1.14846 -0.0211176 0)
(1.1358 -0.271659 0)
(1.13518 -0.551982 0)
(1.13855 -0.855851 0)
(1.07597 -1.05688 0)
(0.90727 -1.04665 0)
(0.714468 -0.877643 0)
(0.538999 -0.642647 0)
(0.373273 -0.395184 0)
(0.23692 -0.618781 0)
(0.263678 -0.894595 0)
(0.405303 -1.00452 0)
(0.372452 -0.816827 0)
(0.255135 -0.437525 0)
(-0.100896 -0.376531 0)
(0.1979 -0.0368959 0)
(0.658424 0.5652 0)
(1.07925 0.957335 0)
(1.33648 1.11029 0)
(1.42371 1.02845 0)
(1.42519 0.806233 0)
(1.40592 0.533206 0)
(1.38733 0.257833 0)
(1.36658 -0.00154393 0)
(1.3517 -0.260543 0)
(1.34781 -0.540475 0)
(1.30843 -0.797985 0)
(1.16313 -0.910376 0)
(0.92467 -0.840154 0)
(0.704627 -0.682033 0)
(0.529628 -0.449972 0)
(0.306685 -0.25978 0)
(0.224477 -0.56346 0)
(0.178762 -0.958901 0)
(0.176649 -0.970958 0)
(-0.0266542 -0.606695 0)
(-0.284546 -0.0319379 0)
(-0.0479281 -0.341559 0)
(0.149286 -0.465037 0)
(0.505057 0.0939256 0)
(0.921619 0.603073 0)
(1.22958 0.891088 0)
(1.38935 0.926078 0)
(1.46688 0.776253 0)
(1.50728 0.537369 0)
(1.52721 0.275822 0)
(1.52843 0.0176775 0)
(1.51449 -0.236273 0)
(1.4728 -0.485692 0)
(1.3449 -0.662305 0)
(1.10004 -0.683662 0)
(0.825403 -0.592201 0)
(0.620784 -0.474863 0)
(0.470028 -0.218305 0)
(0.240388 -0.150408 0)
(0.216709 -0.494317 0)
(0.00748504 -0.834143 0)
(-0.0781381 -0.755709 0)
(-0.367522 -0.308887 0)
(-0.640265 0.283018 0)
(0.0851305 -0.422437 0)
(0.286915 -0.675759 0)
(0.500893 -0.321395 0)
(0.807849 0.322103 0)
(1.0516 0.683699 0)
(1.1994 0.772371 0)
(1.31648 0.676297 0)
(1.41914 0.48357 0)
(1.49301 0.25973 0)
(1.52861 0.0344226 0)
(1.50965 -0.184409 0)
(1.40015 -0.362967 0)
(1.17722 -0.440412 0)
(0.891257 -0.412609 0)
(0.658113 -0.365357 0)
(0.503649 -0.307558 0)
(0.414842 -0.0765515 0)
(0.30578 -0.0169499 0)
(0.15423 -0.343199 0)
(-0.082486 -0.676919 0)
(-0.221462 -0.516524 0)
(-0.491977 -0.0596393 0)
(-0.726289 0.535181 0)
(0.163127 -0.650733 0)
(0.361937 -0.911033 0)
(0.450431 -0.565707 0)
(0.602196 0.0388655 0)
(0.761211 0.513898 0)
(0.861046 0.616357 0)
(0.990781 0.515746 0)
(1.14133 0.33526 0)
(1.26441 0.148035 0)
(1.31062 -0.00689341 0)
(1.24946 -0.126932 0)
(1.07193 -0.179263 0)
(0.819652 -0.175007 0)
(0.618725 -0.179329 0)
(0.474001 -0.203398 0)
(0.369589 -0.205161 0)
(0.33349 -0.0147183 0)
(0.292868 0.106038 0)
(0.163233 -0.143141 0)
(-0.0888116 -0.492045 0)
(-0.264913 -0.310184 0)
(-0.458334 0.145353 0)
(-0.612563 0.685396 0)
(0.177821 -0.982086 0)
(0.325475 -1.06616 0)
(0.231663 -0.552235 0)
(0.237723 0.0371394 0)
(0.250901 0.440945 0)
(0.348458 0.494751 0)
(0.521821 0.365141 0)
(0.683981 0.197765 0)
(0.791162 0.0922043 0)
(0.822619 0.0467191 0)
(0.754365 0.0378338 0)
(0.626498 0.0357331 0)
(0.501128 -0.0140406 0)
(0.388554 -0.0597754 0)
(0.29792 -0.109989 0)
(0.247301 -0.153114 0)
(0.253449 0.00465767 0)
(0.254232 0.16058 0)
(0.224998 0.044959 0)
(-0.00714045 -0.258458 0)
(-0.258941 -0.164975 0)
(-0.346133 0.279015 0)
(-0.402854 0.736195 0)
(0.0984692 -1.21925 0)
(0.087687 -0.95447 0)
(-0.229377 -0.321323 0)
(-0.278069 0.1914 0)
(-0.254967 0.37171 0)
(0.0144617 0.288299 0)
(0.241049 0.144048 0)
(0.386179 0.0500929 0)
(0.435496 0.0296682 0)
(0.418365 0.0616788 0)
(0.353734 0.0906182 0)
(0.250039 0.111107 0)
(0.149874 0.0850928 0)
(0.133049 0.0118353 0)
(0.166518 -0.0826172 0)
(0.167781 -0.136512 0)
(0.175212 -0.0083534 0)
(0.20937 0.149719 0)
(0.220053 0.124573 0)
(0.129552 0.00303678 0)
(-0.169814 -0.0149435 0)
(-0.202099 0.328638 0)
(-0.181603 0.700101 0)
(0.0116726 -1.21619 0)
(-0.185167 -0.581803 0)
(-0.48638 -0.0953568 0)
(-0.408576 0.15445 0)
(-0.138736 0.0725934 0)
(0.114547 -0.0121422 0)
(0.209792 -0.0157111 0)
(0.191185 0.0421415 0)
(0.0954886 0.101076 0)
(-0.0182224 0.170773 0)
(-0.124219 0.217943 0)
(-0.155442 0.191471 0)
(-0.088898 0.0628178 0)
(0.0141214 -0.0585493 0)
(0.0941079 -0.126915 0)
(0.146484 -0.13382 0)
(0.166146 -0.0382493 0)
(0.202994 0.0946285 0)
(0.232618 0.142816 0)
(0.195274 0.128724 0)
(0.0117046 0.14404 0)
(-0.0852752 0.316551 0)
(-0.00633383 0.600537 0)
(-0.024559 -1.08064 0)
(-0.235294 -0.330675 0)
(-0.358705 -0.126102 0)
(-0.17993 -0.146718 0)
(0.0377543 -0.265786 0)
(-0.0301619 -0.0258068 0)
(-0.131517 0.0812058 0)
(-0.244428 0.19021 0)
(-0.398123 0.26788 0)
(-0.473034 0.283075 0)
(-0.441503 0.206645 0)
(-0.328321 0.0671914 0)
(-0.193857 -0.0736431 0)
(-0.0708044 -0.173218 0)
(0.0346025 -0.221535 0)
(0.123842 -0.197583 0)
(0.199959 -0.0847913 0)
(0.254961 0.0611554 0)
(0.284485 0.166945 0)
(0.256255 0.22252 0)
(0.15476 0.265698 0)
(0.0446552 0.330945 0)
(0.0999498 0.494165 0)
(-0.0443816 -1.01652 0)
(-0.115279 -0.238089 0)
(-0.181719 -0.2344 0)
(-0.0470699 -0.342744 0)
(-0.126077 -0.087871 0)
(-0.314458 0.119105 0)
(-0.470516 0.23016 0)
(-0.607486 0.330242 0)
(-0.668797 0.323932 0)
(-0.621375 0.220391 0)
(-0.507333 0.0685809 0)
(-0.374434 -0.082686 0)
(-0.242395 -0.211742 0)
(-0.116037 -0.300312 0)
(-0.00615501 -0.331796 0)
(0.0941812 -0.298768 0)
(0.187605 -0.178514 0)
(0.271307 -0.00300478 0)
(0.324262 0.164456 0)
(0.315103 0.281352 0)
(0.253669 0.348394 0)
(0.169274 0.37963 0)
(0.17462 0.437241 0)
(-0.073901 -0.96436 0)
(-0.0533865 -0.139034 0)
(-0.143611 -0.197088 0)
(-0.131989 -0.255641 0)
(-0.290793 0.0891635 0)
(-0.465203 0.272179 0)
(-0.607884 0.365873 0)
(-0.68752 0.381722 0)
(-0.671698 0.281347 0)
(-0.590582 0.119479 0)
(-0.487142 -0.0509599 0)
(-0.372655 -0.212257 0)
(-0.251111 -0.342136 0)
(-0.137965 -0.418551 0)
(-0.03827 -0.437765 0)
(0.0565563 -0.404345 0)
(0.14817 -0.273503 0)
(0.231881 -0.0805691 0)
(0.303227 0.128931 0)
(0.328774 0.300001 0)
(0.302532 0.397432 0)
(0.248687 0.424398 0)
(0.230574 0.424934 0)
(-0.098065 -0.906927 0)
(-0.0329383 -0.0945361 0)
(-0.128033 -0.129653 0)
(-0.144313 -0.163609 0)
(-0.320785 0.251292 0)
(-0.459722 0.400471 0)
(-0.56066 0.450246 0)
(-0.594727 0.390712 0)
(-0.563189 0.231276 0)
(-0.502445 0.0387074 0)
(-0.425427 -0.152716 0)
(-0.332996 -0.325267 0)
(-0.230481 -0.455238 0)
(-0.134366 -0.518761 0)
(-0.0555377 -0.527821 0)
(0.0129875 -0.494493 0)
(0.0835278 -0.358769 0)
(0.153999 -0.156762 0)
(0.227423 0.0744841 0)
(0.280239 0.283552 0)
(0.290505 0.413744 0)
(0.269905 0.451807 0)
(0.255623 0.43193 0)
(-0.113383 -0.833288 0)
(-0.0375347 -0.136245 0)
(-0.110446 -0.0404019 0)
(-0.118286 -0.0939096 0)
(-0.249951 0.376624 0)
(-0.343458 0.494802 0)
(-0.412227 0.501927 0)
(-0.430322 0.394854 0)
(-0.411602 0.203123 0)
(-0.376073 -0.0140406 0)
(-0.321815 -0.228305 0)
(-0.253868 -0.41336 0)
(-0.165694 -0.550614 0)
(-0.0874664 -0.597748 0)
(-0.0391513 -0.584544 0)
(-0.0158508 -0.543574 0)
(0.0146314 -0.413589 0)
(0.0575577 -0.215264 0)
(0.11747 0.0192268 0)
(0.180689 0.244158 0)
(0.219347 0.397579 0)
(0.232693 0.453384 0)
(0.238946 0.434275 0)
(-0.125093 -0.736837 0)
(-0.0702045 -0.104074 0)
(-0.148794 0.0246751 0)
(-0.0862884 -0.0700365 0)
(-0.113833 0.442274 0)
(-0.164182 0.557478 0)
(-0.213257 0.540301 0)
(-0.2324 0.406614 0)
(-0.226452 0.190473 0)
(-0.205438 -0.0497723 0)
(-0.167671 -0.278968 0)
(-0.12216 -0.477126 0)
(-0.0385148 -0.631368 0)
(0.018139 -0.650084 0)
(0.0268605 -0.591008 0)
(-0.0103285 -0.53948 0)
(-0.0366753 -0.424987 0)
(-0.03324 -0.241494 0)
(-0.00374837 -0.0222457 0)
(0.0539953 0.198281 0)
(0.108148 0.358448 0)
(0.149082 0.426371 0)
(0.180594 0.41547 0)
(-0.146511 -0.622405 0)
(-0.107234 -0.107891 0)
(-0.189158 0.0191321 0)
(-0.0696564 -0.176006 0)
(0.0325018 0.441432 0)
(0.0511787 0.60438 0)
(0.00903641 0.576073 0)
(-0.0155878 0.425147 0)
(-0.0171687 0.191234 0)
(0.000587479 -0.0640425 0)
(0.0246657 -0.305963 0)
(0.0662468 -0.533374 0)
(0.165879 -0.701498 0)
(0.185403 -0.669493 0)
(0.139053 -0.53433 0)
(0.0340313 -0.469335 0)
(-0.0561134 -0.382952 0)
(-0.101997 -0.231601 0)
(-0.104463 -0.0424651 0)
(-0.067705 0.154654 0)
(-0.0139712 0.305206 0)
(0.0456042 0.375092 0)
(0.0983731 0.372302 0)
(-0.175805 -0.48537 0)
(-0.145502 -0.0678179 0)
(-0.168638 0.0011111 0)
(-0.0232376 -0.302878 0)
(0.102988 0.273451 0)
(0.25214 0.606507 0)
(0.233432 0.620441 0)
(0.193789 0.452833 0)
(0.187243 0.198601 0)
(0.204701 -0.0736263 0)
(0.223342 -0.332865 0)
(0.311817 -0.602896 0)
(0.415846 -0.74106 0)
(0.382571 -0.645738 0)
(0.261141 -0.410362 0)
(0.0901189 -0.331685 0)
(-0.0515487 -0.291832 0)
(-0.138158 -0.185446 0)
(-0.170072 -0.0381954 0)
(-0.155314 0.117539 0)
(-0.108951 0.244004 0)
(-0.0451577 0.309975 0)
(0.016356 0.315607 0)
(-0.186534 -0.331824 0)
(-0.11365 -0.0994759 0)
(-0.0288317 -0.0814483 0)
(0.109557 -0.381283 0)
(0.107184 0.0559568 0)
(0.343321 0.530565 0)
(0.38968 0.645757 0)
(0.350133 0.485546 0)
(0.33676 0.202311 0)
(0.339936 -0.0949964 0)
(0.406739 -0.403494 0)
(0.525891 -0.681045 0)
(0.570268 -0.749684 0)
(0.500267 -0.576095 0)
(0.318899 -0.24833 0)
(0.105742 -0.155005 0)
(-0.0434014 -0.171845 0)
(-0.146376 -0.115673 0)
(-0.193444 -0.0167917 0)
(-0.193966 0.0940816 0)
(-0.158182 0.188392 0)
(-0.10049 0.243196 0)
(-0.038609 0.253682 0)
(-0.174095 -0.18192 0)
(-0.0644089 -0.232108 0)
(0.0935692 -0.28178 0)
(0.253712 -0.352801 0)
(0.20483 -0.100978 0)
(0.31858 0.386454 0)
(0.400174 0.61548 0)
(0.388858 0.497251 0)
(0.378132 0.205838 0)
(0.394951 -0.129962 0)
(0.527418 -0.515826 0)
(0.61638 -0.745905 0)
(0.58604 -0.722914 0)
(0.455969 -0.452972 0)
(0.230443 -0.0617412 0)
(0.0462067 0.0148445 0)
(-0.0485125 -0.0586948 0)
(-0.135902 -0.0445553 0)
(-0.176975 0.0113683 0)
(-0.1819 0.0793305 0)
(-0.15492 0.140475 0)
(-0.106245 0.178805 0)
(-0.0496676 0.188134 0)
(-0.141532 -0.0825282 0)
(-0.0570981 -0.364646 0)
(0.0518768 -0.481811 0)
(0.195446 -0.444658 0)
(0.220502 -0.110049 0)
(0.213001 0.349635 0)
(0.264524 0.580558 0)
(0.290031 0.477524 0)
(0.288032 0.193795 0)
(0.415451 -0.258038 0)
(0.571765 -0.630025 0)
(0.582579 -0.743209 0)
(0.445672 -0.59382 0)
(0.226925 -0.234383 0)
(-0.00525601 0.148617 0)
(-0.0476631 0.101239 0)
(-0.0740054 0.0123512 0)
(-0.115838 0.00689064 0)
(-0.135061 0.031216 0)
(-0.134414 0.0668242 0)
(-0.112841 0.101867 0)
(-0.0765748 0.12711 0)
(-0.0355273 0.13762 0)
(-0.0836063 -0.0179117 0)
(0.0103352 -0.414307 0)
(0.0103483 -0.581986 0)
(0.0445783 -0.493089 0)
(0.0288403 -0.0988607 0)
(0.00428652 0.351462 0)
(0.0437403 0.548377 0)
(0.079918 0.442492 0)
(0.193043 0.0573008 0)
(0.461039 -0.450389 0)
(0.543923 -0.674338 0)
(0.416162 -0.61391 0)
(0.140369 -0.342142 0)
(-0.118204 0.0758136 0)
(-0.147091 0.186081 0)
(-0.0937244 0.0869514 0)
(-0.0876714 0.0325956 0)
(-0.095881 0.0261842 0)
(-0.0975699 0.0376917 0)
(-0.0906635 0.0583764 0)
(-0.0739903 0.0803362 0)
(-0.0505103 0.0981149 0)
(-0.0241844 0.107875 0)
(0.0381236 -0.00175268 0)
(0.136621 -0.365935 0)
(0.0175798 -0.528626 0)
(-0.140098 -0.414993 0)
(-0.232541 0.032005 0)
(-0.237627 0.350789 0)
(-0.189867 0.509112 0)
(-0.0801893 0.302488 0)
(0.327706 -0.272918 0)
(0.485966 -0.571237 0)
(0.395046 -0.570888 0)
(0.110149 -0.350938 0)
(-0.183701 -0.0181546 0)
(-0.211406 0.109218 0)
(-0.151128 0.100334 0)
(-0.0955804 0.0450681 0)
(-0.0805407 0.0243604 0)
(-0.0767127 0.0238516 0)
(-0.0716849 0.0332808 0)
(-0.064682 0.0483719 0)
(-0.0531228 0.0653276 0)
(-0.0375378 0.0794821 0)
(-0.0189129 0.086904 0)
(0.0502364 -0.206187 0)
(0.137174 -0.32011 0)
(-0.0309661 -0.388925 0)
(-0.297766 -0.244996 0)
(-0.413513 0.141953 0)
(-0.406989 0.344976 0)
(-0.246489 0.33755 0)
(0.188941 -0.122582 0)
(0.410401 -0.45113 0)
(0.355843 -0.501594 0)
(0.0961817 -0.309224 0)
(-0.189598 -0.0416986 0)
(-0.198491 0.00595043 0)
(-0.160152 0.0304196 0)
(-0.102233 0.0262508 0)
(-0.0749075 0.015818 0)
(-0.0629061 0.0130373 0)
(-0.0588277 0.0185427 0)
(-0.0545698 0.0291176 0)
(-0.0497535 0.0418923 0)
(-0.0416215 0.0548659 0)
(-0.0298964 0.0651567 0)
(-0.0158705 0.0705758 0)
(0.0256053 -0.247782 0)
(0.0390539 -0.2592 0)
(-0.137371 -0.188714 0)
(-0.377868 -0.0395622 0)
(-0.453726 0.194024 0)
(-0.286888 0.104458 0)
(0.0701614 -0.0871137 0)
(0.322938 -0.345145 0)
(0.292739 -0.419766 0)
(0.0663697 -0.259877 0)
(-0.174304 -0.0343183 0)
(-0.158958 -0.0440482 0)
(-0.127863 -0.04242 0)
(-0.0944045 -0.0187492 0)
(-0.0692521 -0.00338317 0)
(-0.0550065 0.0012017 0)
(-0.047749 0.00632887 0)
(-0.0451211 0.0147018 0)
(-0.0424162 0.0258013 0)
(-0.0386712 0.036885 0)
(-0.0322346 0.0466787 0)
(-0.0232084 0.0541728 0)
(-0.0130308 0.0585527 0)
(0.0403821 -0.264466 0)
(-0.0264887 -0.162053 0)
(-0.140928 0.00439187 0)
(-0.357538 0.0568625 0)
(-0.275157 0.0662598 0)
(-0.000640901 -0.2164 0)
(0.121787 -0.329791 0)
(0.204605 -0.337873 0)
(-0.0267248 -0.209556 0)
(-0.157914 -0.0456487 0)
(-0.127497 -0.0691408 0)
(-0.0959096 -0.0815443 0)
(-0.0797253 -0.0631967 0)
(-0.0678061 -0.0323017 0)
(-0.052964 -0.0175066 0)
(-0.0431066 -0.00780259 0)
(-0.0376141 0.00212959 0)
(-0.0347835 0.0121614 0)
(-0.0322209 0.0227492 0)
(-0.0283897 0.0322944 0)
(-0.0231899 0.0401279 0)
(-0.0167801 0.0462281 0)
(-0.00976839 0.0500812 0)
(0.0383824 -0.251598 0)
(-0.0661012 -0.119912 0)
(0.0559855 0.11356 0)
(-0.175791 0.0867748 0)
(-0.0952943 -0.0780018 0)