/*--------------------------------*- C++ -*----------------------------------*\
| =========                 |                                                 |
| \\      /  F ield         | OpenFOAM: The Open Source CFD Toolbox           |
|  \\    /   O peration     | Version:  2.3.0                                 |
|   \\  /    A nd           | Web:      www.OpenFOAM.org                      |
|    \\/     M anipulation  |                                                 |
\*---------------------------------------------------------------------------*/
FoamFile
{
    version     2.0;
    format      ascii;
    class       volScalarField;
    location    "2.1";
    object      alpha.water;
}
// * * * * * * * * * * * * * * * * * * * * * * * * * * * * * * * * * * * * * //

dimensions      [0 0 0 0 0 0 0];

internalField   nonuniform List<scalar> 
2268
(
1
1
1
1
1
1
1
1
1
1
1
1
0.999999
0.999997
0.999997
0.999999
0.999999
0.999764
0.988297
0.980432
0.994736
0.994792
0.990121
1
1
1
1
1
1
1
1
1
1
0.999999
0.999997
0.999997
0.999997
0.999997
0.999999
1
0.999252
0.978738
0.978595
0.993805
0.997346
0.994321
1
1
1
1
1
1
1
1
0.999999
0.999999
0.999998
0.999998
0.999999
0.999999
0.999999
1
1
0.999994
0.982878
0.978595
0.979133
0.998488
0.999926
1
1
1
1
1
1
1
1
0.999999
0.999999
0.999999
0.999999
1
1
0.999999
1
1
1
0.998139
0.978595
0.978599
0.993901
0.999934
1
1
1
1
1
1
1
1
0.999999
0.999999
1
1
1
1
1
1
1
1
1
0.98748
0.981528
0.995043
0.999971
1
1
1
1
1
1
0.999999
0.999999
0.999999
1
1
1
1
1
1
1
1
1
1
0.999889
0.999041
0.999721
0.999973
1
1
1
1
1
1
1
1
1
1
1
1
1
1
1
1
1
0.999999
0.999998
0.999999
0.999999
0.999989
0.999992
1
1
1
1
1
1
1
1
0.999999
1
1
1
1
1
1
1
1
1
0.999999
0.999999
0.999999
0.999999
0.999999
0.973699
0.951972
0.939085
0.93925
0.939564
0.932679
0.922923
0.920249
0.918893
0.966141
0.995251
0.995251
0.995251
0.984059
0.921076
0.935026
0.964311
0.964312
0.964312
0.973699
0.955363
0.976289
0.996353
0.996353
0.994632
0.983666
0.950191
0.915415
0.912289
0.921709
0.989418
0.995104
0.984931
0.90529
0.905268
0.938211
0.964284
0.964312
0.960801
0.961228
0.996362
0.996353
0.996353
0.996353
0.996352
0.996352
0.984258
0.913048
0.91277
0.938804
0.994994
0.984784
0.905219
0.905317
0.905449
0.939853
0.964218
0.96098
0.982778
0.996356
0.996353
0.99634
0.996347
0.99634
0.996348
0.996342
0.959083
0.913302
0.958101
0.99504
0.991263
0.919073
0.905601
0.90557
0.905874
0.943399
0.992451
0.996307
0.996364
0.996344
0.996117
0.996116
0.996116
0.996306
0.996328
0.978124
0.988364
0.99504
0.995052
0.99504
0.978127
0.905722
0.905817
0.949464
0.958204
0.996344
0.996367
0.99637
0.996364
0.996336
0.996235
0.996162
0.996341
0.996074
0.982723
0.97048
0.995052
0.995054
0.995052
0.993273
0.916703
0.909926
0.979923
0.986472
0.990614
0.995893
0.996373
0.996358
0.996355
0.996359
0.996379
0.996391
0.994947
0.869964
0.700456
0.878785
0.995052
0.995054
0.995035
0.990317
0.969102
0.986332
0.988078
0.995121
0.995938
0.996355
0.996352
0.996348
0.996353
0.996358
0.996356
0.993255
0.791668
0.678712
0.678033
0.89613
0.995037
0.995037
0.99501
0.992089
0.989815
0.989162
1
1
1
1
1
1
0.999999
0.999996
0.999993
0.999992
0.999991
0.999991
0.999992
0.999992
0.999993
0.999993
0.999994
0.999996
0.999999
1
1
1
1
0.749777
0.745294
0.740223
0.736879
0.738853
0.749417
0.767328
0.790983
0.815897
0.840198
0.863441
0.885217
0.903996
0.919218
0.931565
0.941532
0.947277
0.946097
0.941967
0.933929
0.918873
0.891161
0.845015
0.0457164
0.0480263
0.0499482
0.051179
0.0543746
0.0593183
0.0674443
0.0786683
0.0945971
0.114882
0.136527
0.157359
0.177192
0.195949
0.213324
0.225618
0.23221
0.232217
0.226516
0.211382
0.183295
0.135885
0.0772612
0.00272614
0.00248036
0.00216677
0.00182723
0.00154898
0.00140786
0.00138233
0.00133334
0.0013294
0.00135254
0.00127176
0.00107008
0.000820332
0.000512585
0.000329806
0.000328671
0.000329806
0.000329806
0.000603953
0.00125087
0.00193443
0.00248427
0.00275934
0.00299678
0.00249024
0.00359127
0.00771389
0.00789881
0.00789928
0.00751051
0.00145217
0.00617123
0.0122203
0.0133053
0.0133484
0.0133819
0.0133484
0.0130859
0.00251792
0.000795693
0.016517
0.0211951
0.0212667
0.0190457
0.00645876
0.0202036
0.000885048
0.000503977
0.000388662
8.65868e-07
9.96828e-06
0.000375259
0.00321065
0.00538268
0.00519011
0.00300114
0.00306114
0.00394959
0.0063078
0.00952316
0.00417055
0.00119615
0.000748748
0.00751198
0.0155885
0.0140775
0.0123022
0.0276387
0.0276954
1.70148e-06
1.05153e-06
8.6587e-07
8.65868e-07
7.77474e-07
5.45857e-07
5.45857e-07
1.24745e-06
4.32253e-07
4.35251e-07
4.32245e-07
9.28906e-07
7.7016e-06
8.38155e-05
0.00163321
0.000291948
0.00084297
0.000873451
2.90888e-05
8.07803e-06
1.31691e-05
0.000567575
0.0182665
8.07712e-08
7.27988e-08
1.41469e-06
3.38864e-06
3.38676e-06
9.46438e-07
3.02412e-06
1.16742e-05
6.9644e-06
2.50684e-07
8.57151e-07
0.000167005
0.00182564
0.00222439
0.00110381
0.000252121
0.000237591
0.00048427
0.000556004
7.1853e-06
5.7083e-06
7.10789e-06
1.1502e-05
4.29923e-09
1.76983e-08
2.89514e-06
3.79759e-06
3.00888e-06
7.34132e-07
1.54763e-05
1.67792e-05
1.28981e-05
3.77322e-08
5.62416e-07
0.000368498
0.00205683
0.00222439
0.00222439
0.000506293
0.000192432
0.000459065
0.00101365
0.000424272
5.35458e-06
5.71e-06
7.24391e-06
1.6658e-09
2.05853e-08
5.49692e-07
2.28167e-06
4.39109e-07
7.18519e-07
4.91028e-06
1.18771e-05
2.39988e-06
3.49537e-09
1.58419e-06
6.97778e-06
1.20028e-05
0.00147085
0.0021787
0.00148892
0.000160208
0.000375864
0.00101365
0.000876562
5.50516e-06
5.34662e-06
8.44225e-06
1.66428e-09
3.4758e-09
1.03044e-09
1.19447e-08
2.15478e-09
8.88322e-08
3.49065e-09
2.07255e-07
1.60119e-09
5.76846e-10
4.75818e-08
9.76373e-09
4.95347e-08
5.18056e-05
0.000594264
0.000817197
0.00013971
0.000248903
0.00101365
0.000907142
8.7062e-05
5.79351e-06
4.03043e-05
2.72979e-08
5.7384e-10
6.32225e-10
1.14377e-09
1.8482e-09
1.9289e-09
1.62069e-09
7.53021e-10
5.15791e-10
4.98962e-10
8.60985e-10
4.56544e-09
1.43706e-08
7.5398e-09
2.54916e-07
3.55638e-06
4.91348e-05
0.000231645
0.000517352
0.000170667
5.14566e-05
2.5395e-05
0.00010555
5.48795e-08
5.72126e-10
1.70092e-09
2.04473e-09
2.16714e-09
2.01427e-09
1.55181e-09
5.29955e-10
4.75685e-10
4.74389e-10
2.43877e-09
1.76013e-08
1.87509e-08
7.07171e-10
6.70516e-09
9.26006e-08
1.18078e-05
8.38052e-05
5.39221e-05
1.12745e-07
4.02229e-07
8.41118e-06
0.000107506
5.55122e-08
5.7216e-10
1.7192e-09
2.28429e-09
2.29776e-09
2.28844e-09
1.78656e-09
7.27414e-10
4.73715e-10
4.51289e-10
2.41025e-09
8.85722e-09
7.22065e-09
2.13375e-10
7.92391e-10
1.11372e-08
2.22152e-06
5.99158e-06
4.50837e-08
5.56406e-09
2.73241e-08
2.14258e-07
6.30311e-05
5.59805e-08
5.73535e-10
1.28868e-09
1.62319e-09
2.05107e-09
2.15134e-09
1.75519e-09
8.40373e-10
4.32543e-10
3.80749e-10
7.63292e-10
6.18446e-10
2.57751e-10
1.50526e-10
1.55286e-10
8.73073e-09
8.49023e-08
1.00337e-08
2.01563e-09
6.49262e-10
7.02329e-09
2.73175e-08
3.59513e-05
5.7109e-08
1.25497e-08
1.08302e-09
1.07175e-09
1.29702e-09
1.45349e-09
1.44136e-09
1.09122e-09
5.01942e-10
2.98011e-10
2.22947e-10
1.6531e-10
1.50108e-10
1.47147e-10
1.2023e-10
3.47371e-10
3.77394e-10
5.47924e-10
1.8478e-10
2.85269e-10
6.47585e-10
1.20402e-06
2.62673e-05
5.71087e-08
3.4929e-08
6.21481e-09
1.06473e-09
1.06679e-09
1.05743e-09
1.02592e-09
9.61801e-10
6.81703e-10
3.32691e-10
2.20256e-10
1.70801e-10
1.49881e-10
1.40556e-10
1.175e-10
1.15872e-10
1.02348e-10
1.20075e-10
8.44968e-11
2.54589e-10
2.76795e-10
8.64083e-07
1.37468e-05
2.41756e-08
2.18172e-08
1.56983e-08
1.06515e-09
1.06568e-09
1.13265e-09
8.31198e-10
7.12826e-10
6.41384e-10
3.91975e-10
2.53906e-10
1.70845e-10
1.3367e-10
1.19073e-10
1.07426e-10
1.13476e-10
8.71084e-11
8.41051e-11
7.69216e-11
7.15282e-11
2.16416e-08
8.85684e-07
4.18353e-07
4.98329e-09
5.28707e-09
6.22104e-09
1.26169e-09
1.39244e-09
1.42095e-09
1.00754e-09
6.38177e-10
4.9429e-10
3.71757e-10
2.56387e-10
1.74146e-10
1.26747e-10
1.01966e-10
8.87173e-11
8.36977e-11
8.42997e-11
1.10372e-10
7.31819e-11
7.12796e-11
3.11948e-08
3.28011e-07
1.32377e-09
1.43629e-09
1.21988e-09
1.07561e-09
1.06734e-09
1.27058e-09
1.46097e-09
1.34493e-09
7.56917e-10
4.56072e-10
3.26404e-10
2.34181e-10
1.68216e-10
1.23066e-10
9.28094e-11
7.35206e-11
6.20166e-11
5.77105e-11
6.82428e-11
5.98614e-11
4.62892e-10
1.2071e-08
1.44069e-10
4.78148e-11
1.56953e-05
2.57113e-05
6.70314e-06
1.04144e-09
1.03582e-09
1.14823e-09
1.33762e-09
9.67637e-10
4.95433e-10
3.05902e-10
2.04162e-10
1.47948e-10
1.09775e-10
8.22524e-11
6.15726e-11
4.65683e-11
3.74347e-11
3.56408e-11
3.67656e-11
2.18893e-10
1.04713e-10
2.37002e-11
3.00244e-11
3.24682e-05
3.26482e-05
3.22501e-05
2.35846e-06
9.27923e-10
9.28209e-10
9.64436e-10
8.60618e-10
5.66393e-10
3.04417e-10
1.86319e-10
1.28888e-10
9.0082e-11
6.53976e-11
4.72036e-11
3.31848e-11
2.45445e-11
1.97268e-11
1.78406e-11
4.19258e-11
1.66441e-11
1.70734e-11
1.63181e-11
3.26482e-05
3.25614e-05
3.12241e-05
4.09023e-06
3.46938e-08
1.96094e-08
8.37155e-10
8.40097e-10
5.32452e-10
2.79807e-10
1.60375e-10
1.07634e-10
6.88198e-11
4.61032e-11
3.19499e-11
2.23698e-11
1.61102e-11
1.19677e-11
9.31058e-12
1.04107e-11
7.99141e-12
6.32971e-12
5.16786e-12
6.66988e-06
2.03636e-05
6.62978e-06
2.00055e-06
8.88734e-08
1.30351e-08
5.04784e-10
8.02548e-10
5.3707e-10
2.79906e-10
1.45861e-10
8.29666e-11
5.00781e-11
3.2156e-11
2.15327e-11
1.47659e-11
1.03111e-11
7.29765e-12
5.23443e-12
4.00091e-12
2.94615e-12
2.19044e-12
1.74564e-12
1.91776e-08
2.1108e-07
1.26747e-08
3.21319e-08
3.61832e-08
4.04487e-09
4.2854e-10
4.61937e-10
3.04894e-10
1.74709e-10
1.01663e-10
5.91112e-11
3.55792e-11
2.23167e-11
1.44577e-11
9.5564e-12
6.38962e-12
4.30021e-12
2.90735e-12
1.98306e-12
1.35442e-12
9.31704e-13
6.64291e-13
1.13155e-09
2.47922e-09
7.20377e-10
2.08306e-10
1.58651e-10
2.33839e-10
2.1719e-10
1.83684e-10
1.40551e-10
9.29964e-11
5.68502e-11
3.46067e-11
2.13568e-11
1.33944e-11
8.49773e-12
5.42354e-12
3.46926e-12
2.22029e-12
1.42124e-12
9.10756e-13
5.84575e-13
3.76397e-13
2.44885e-13
8.48388e-11
1.5099e-10
7.5198e-11
5.30176e-11
5.9821e-11
9.88287e-11
1.10576e-10
8.92394e-11
6.37595e-11
4.19122e-11
2.66295e-11
1.67354e-11
1.04728e-11
6.52692e-12
4.04576e-12
2.49243e-12
1.52623e-12
9.29734e-13
5.64172e-13
3.41618e-13
2.0677e-13
1.25313e-13
7.6308e-14
2.18299e-11
2.80181e-11
2.83353e-11
4.25961e-11
5.31398e-11
5.3478e-11
4.61547e-11
3.50792e-11
2.44221e-11
1.61144e-11
1.03218e-11
6.48649e-12
4.01314e-12
2.44631e-12
1.47001e-12
8.71633e-13
5.10747e-13
2.96319e-13
1.7061e-13
9.77285e-14
5.58375e-14
3.19522e-14
1.85414e-14
1.63233e-11
1.79312e-11
2.52297e-11
2.25538e-11
2.16636e-11
1.93144e-11
1.54345e-11
1.12133e-11
7.61013e-12
4.93404e-12
3.09963e-12
1.90044e-12
1.14091e-12
6.71724e-13
3.88237e-13
2.2054e-13
1.23335e-13
6.80654e-14
3.71607e-14
2.01321e-14
1.08783e-14
5.96375e-15
3.56801e-15
3.00223e-12
6.57341e-12
6.51651e-12
6.50501e-12
6.10021e-12
5.14115e-12
3.90518e-12
2.72817e-12
1.79138e-12
1.12407e-12
6.81558e-13
4.01979e-13
2.31446e-13
1.30317e-13
7.18666e-14
3.88703e-14
2.06533e-14
1.08044e-14
5.58131e-15
2.86245e-15
1.49153e-15
8.88266e-16
8.62835e-16
3.554e-13
1.06612e-12
1.25959e-12
1.3216e-12
1.21334e-12
9.83136e-13
7.17732e-13
4.82906e-13
3.05267e-13
1.83936e-13
1.06694e-13
5.99617e-14
3.27792e-14
1.74813e-14
9.11764e-15
4.66254e-15
2.34268e-15
1.15925e-15
5.68569e-16
2.85511e-16
1.77465e-16
2.25478e-16
5.58509e-16
3.41579e-14
1.29696e-13
1.74779e-13
1.87391e-13
1.68749e-13
1.32535e-13
9.34991e-14
6.06571e-14
3.6842e-14
2.12192e-14
1.1695e-14
6.21046e-15
3.19395e-15
1.59962e-15
7.84056e-16
3.7795e-16
1.79874e-16
8.55049e-17
4.21794e-17
2.87423e-17
4.99954e-17
1.58586e-16
5.37408e-16
2.74359e-15
1.19555e-14
1.72848e-14
1.85436e-14
1.63514e-14
1.24873e-14
8.53509e-15
5.34241e-15
3.11253e-15
1.70668e-15
8.88089e-16
4.42451e-16
2.12748e-16
9.97059e-17
4.60446e-17
2.1164e-17
9.78274e-18
4.71538e-18
3.66769e-18
8.79364e-18
3.4177e-17
1.34664e-16
5.00937e-16
1.94522e-16
8.5894e-16
1.24438e-15
1.30345e-15
1.11689e-15
8.28503e-16
5.48611e-16
3.31103e-16
1.84542e-16
9.58932e-17
4.69384e-17
2.18699e-17
9.84943e-18
4.35675e-18
1.94482e-18
8.62263e-19
4.03489e-19
3.61461e-19
1.14249e-18
5.28109e-18
2.40321e-17
1.0299e-16
4.14635e-16
1.28838e-17
5.15687e-17
6.95261e-17
6.87152e-17
5.63053e-17
4.02821e-17
2.5736e-17
1.49252e-17
7.92525e-18
3.89016e-18
1.78752e-18
7.81244e-19
3.35079e-19
1.44232e-19
6.06948e-20
2.70506e-20
2.61785e-20
1.00721e-19
5.46465e-19
2.89004e-18
1.43308e-17
6.65478e-17
2.90681e-16
8.19852e-19
2.85763e-18
3.38434e-18
3.04141e-18
2.32839e-18
1.57661e-18
9.60332e-19
5.27866e-19
2.647e-19
1.22096e-19
5.27581e-20
2.20018e-20
9.07608e-21
3.57908e-21
1.47487e-21
1.34013e-21
5.50316e-21
3.44719e-20
2.15262e-19
1.25732e-18
6.82128e-18
3.4559e-17
1.6483e-16
5.01308e-20
1.56602e-19
1.61551e-19
1.29851e-19
9.10785e-20
5.72366e-20
3.23467e-20
1.64819e-20
7.64804e-21
3.28324e-21
1.33823e-21
5.15476e-22
1.87457e-22
6.9526e-23
5.11935e-23
1.78308e-22
1.17207e-21
8.69457e-21
6.17487e-20
4.0352e-19
2.42909e-18
1.3602e-17
7.1667e-17
2.90953e-21
8.61627e-21
7.9092e-21
5.7626e-21
3.69363e-21
2.11325e-21
1.08034e-21
4.9541e-22
2.08227e-22
7.99409e-23
2.82568e-23
9.30917e-24
3.05253e-24
1.72126e-24
4.18187e-24
2.00226e-23
1.55673e-22
1.38488e-21
1.14852e-20
8.61831e-20
5.89594e-19
3.72634e-18
2.20732e-17
1.66092e-22
4.55631e-22
3.8535e-22
2.60756e-22
1.53502e-22
7.88779e-23
3.54968e-23
1.40915e-23
4.98687e-24
1.59194e-24
4.65122e-25
1.3212e-25
5.90888e-26
1.01733e-25
3.04641e-25
1.11542e-24
1.00828e-23
1.12948e-22
1.14575e-21
1.03214e-20
8.35885e-20
6.18084e-19
4.24181e-18
1.01073e-23
2.15162e-23
1.76421e-23
1.12207e-23
6.09865e-24
2.77762e-24
1.06465e-24
3.48288e-25
9.90321e-26
2.49754e-26
5.92094e-27
2.17341e-27
3.03741e-27
6.98486e-27
1.34385e-26
2.485e-26
2.12007e-25
3.16759e-24
4.25964e-23
5.00602e-22
5.20678e-21
4.86634e-20
4.15748e-19
6.13881e-25
8.53832e-25
7.26564e-25
4.64312e-25
2.33885e-25
9.24112e-26
2.88339e-26
7.26498e-27
1.52413e-27
2.82388e-28
8.09819e-29
1.14204e-28
2.23028e-28
3.66976e-28
3.65291e-28
2.35774e-28
5.69537e-28
1.1956e-26
2.53213e-25
4.63464e-24
7.41459e-23
1.05101e-21
1.33833e-20
3.45733e-26
2.32445e-26
2.53985e-26
1.74572e-26
8.18488e-27
2.74399e-27
6.53554e-28
1.11208e-28
1.4138e-29
2.3948e-30
3.91717e-30
8.66595e-30
1.27349e-29
1.29428e-29
5.14465e-30
1.11572e-30
1.64772e-31
7.46048e-32
3.25854e-30
1.6223e-28
7.08237e-27
2.7596e-25
9.75781e-24
0.999033
0.996278
0.99118
0.983121
0.790735
0.726643
0.639007
0.551643
0.00841412
0.00431727
0.0032467
0.00320617
0.00481953
0.00516101
0.00320746
0.00320617
0.0276903
0.0244865
0.00321771
0.00320746
0.0276676
0.0278007
0.0205266
0.00321788
0.0279886
0.0278933
0.02771
0.0269776
0.000381016
0.000407917
0.00384356
0.0143415
8.18571e-06
5.88066e-05
0.000379136
0.00108606
4.76617e-06
1.12656e-06
1.73639e-06
1.60359e-06
9.85771e-06
6.37009e-07
1.01175e-07
1.77716e-07
8.78763e-05
1.01188e-07
4.67314e-08
1.01182e-07
0.000113498
3.96219e-05
2.5192e-08
3.13002e-07
0.000118965
5.57791e-05
8.75258e-09
4.47144e-08
0.000118885
4.16236e-05
1.25026e-09
8.75915e-09
3.18557e-05
1.06752e-06
3.28869e-10
1.07099e-09
2.0395e-08
3.31464e-10
1.48327e-10
9.884e-11
1.54143e-08
1.30486e-10
1.0583e-10
7.42059e-11
2.762e-10
8.11404e-11
9.92525e-11
7.13566e-11
4.57767e-11
7.30716e-11
6.50624e-11
6.61227e-11
4.01498e-11
3.8538e-11
4.2965e-11
4.86947e-11
1.54326e-11
1.73852e-11
2.08374e-11
2.50175e-11
5.12444e-12
5.75831e-12
6.85802e-12
8.39701e-12
1.63271e-12
1.65078e-12
1.7935e-12
2.08046e-12
5.69807e-13
5.08433e-13
4.79423e-13
4.8559e-13
1.96896e-13
1.6109e-13
1.36119e-13
1.21064e-13
5.88229e-14
4.57616e-14
3.63308e-14
2.99551e-14
1.39797e-14
1.07535e-14
8.57591e-15
7.25473e-15
2.86727e-15
2.51058e-15
2.45042e-15
2.6684e-15
9.70087e-16
1.20647e-15
1.59331e-15
2.16552e-15
7.94134e-16
1.13921e-15
1.63361e-15
2.33152e-15
7.96692e-16
1.17496e-15
1.72254e-15
2.50976e-15
7.55156e-16
1.13321e-15
1.6938e-15
2.52412e-15
6.34661e-16
9.69294e-16
1.48035e-15
2.26804e-15
4.51731e-16
7.03085e-16
1.10208e-15
1.7542e-15
2.60286e-16
4.14496e-16
6.74518e-16
1.14284e-15
1.15319e-16
1.89965e-16
3.30177e-16
6.26097e-16
3.64689e-17
6.3998e-17
1.26545e-16
2.90501e-16
7.3757e-18
1.49465e-17
3.7665e-17
1.12774e-16
8.36119e-19
2.37401e-18
8.54995e-18
3.45382e-17
4.48144e-20
2.29524e-19
1.20071e-18
7.23706e-18
1.86034e-22
2.66006e-21
3.75268e-20
7.27267e-19
0.952841
0.928001
0.951741
0.975175
0.990438
0.98971
0.979031
0.992626
0.992446
0.913068
0.69539
0.678012
0.678012
0.770453
0.841054
0.867496
0.94429
0.98597
0.987936
0.366633
0.295652
0.457286
0.650836
0.791358
0.828406
0.808617
0.895545
0.945873
0.944138
0.923062
0.718449
0.678198
0.677991
0.679769
0.738076
0.967431
0.985738
0.985252
0.00336182
0.00325221
0.0163732
0.0805728
0.19767
0.329238
0.430612
0.54547
0.719207
0.86675
0.897711
0.893248
0.848982
0.788758
0.891282
0.960743
0.977391
0.985003
0.983797
0.00320689
0.00328805
0.004141
0.00476699
0.00602578
0.00712896
0.0306333
0.0535854
0.0916053
0.277746
0.526649
0.668359
0.711796
0.738793
0.758273
0.758887
0.779517
0.87548
0.959997
0.00321771
0.00327656
0.00344668
0.00377442
0.0047994
0.00609292
0.00717888
0.00854765
0.00991345
0.0112258
0.0380501
0.170508
0.263476
0.305173
0.321655
0.316027
0.301022
0.446471
0.516743
0.00326838
0.00326755
0.00330901
0.00349927
0.00563904
0.0163283
0.0184937
0.0134076
0.0123562
0.0123924
0.0123197
0.0121818
0.0579747
0.127728
0.174865
0.182768
0.147619
0.113642
0.0584742
0.0197713
0.00575449
0.0135888
0.029311
0.0307893
0.0309741
0.0310727
0.0311694
0.0311694
0.0311667
0.0228199
0.0118535
0.0102134
0.0245923
0.0291936
0.0378684
0.0498591
0.027168
0.00113645
0.0225992
0.0247492
0.0259511
0.0263952
0.022417
0.0208207
0.0194898
0.0190247
0.0220794
0.0246964
0.024409
0.0175608
0.000301539
2.87376e-05
2.85748e-05
2.8698e-05
2.9469e-05
5.63522e-05
0.00099335
0.00407886
0.00719423
0.00685864
0.00187693
0.000791465
0.000443848
0.000262235
0.000171907
0.0001386
3.51719e-05
0.00325147
0.0056249
2.8833e-05
2.86375e-05
2.85318e-05
2.86296e-05
2.87109e-05
2.95302e-05
3.35263e-05
2.98532e-06
5.60733e-06
1.79165e-05
0.000156138
0.000175131
0.000151741
0.000113325
8.56159e-05
7.50557e-05
3.32067e-05
3.06057e-05
3.09338e-05
0.000235048
3.12974e-05
2.84579e-05
2.85206e-05
2.88164e-05
7.23023e-05
7.16253e-05
3.05897e-07
6.2009e-07
8.68329e-06
0.00021969
0.000284205
0.000284264
0.000282997
0.000283133
0.000283481
0.000188088
2.92641e-05
3.30171e-05
0.000155661
3.36528e-05
2.81219e-05
2.84481e-05
0.000104869
0.000155966
0.000156056
1.95403e-07
3.12552e-07
1.89893e-06
0.000158062
0.000284412
0.00028436
0.000284264
0.000284214
0.000283873
0.000282861
2.86741e-05
1.88e-05
1.8487e-05
2.71723e-05
2.7928e-05
8.14045e-05
0.000156358
0.000156207
0.000155933
4.81649e-07
3.77527e-07
3.77487e-07
1.7848e-06
0.00011581
0.000284306
0.000284214
0.000245023
0.000224481
0.000204426
4.35148e-05
2.41009e-05
1.582e-05
1.81086e-05
5.4389e-05
0.000156415
0.000156401
0.00015636
0.000152353
7.25961e-06
1.57307e-05
9.50773e-06
3.75073e-06
3.78202e-06
8.78916e-05
0.000165157
1.20229e-07
1.3898e-07
0.000105528
0.000172046
0.000159878
1.131e-05
4.72301e-06
8.68077e-05
0.000155831
0.000156358
0.000141664
2.64355e-05
1.20066e-05
2.851e-05
2.85131e-05
1.02095e-05
5.9078e-06
1.05253e-07
1.06101e-07
1.05259e-07
1.32354e-06
7.8762e-05
0.000172058
0.000170222
8.87879e-05
1.84311e-07
1.40306e-05
0.0001136
0.000155392
1.38637e-05
2.89348e-06
1.04843e-05
2.85129e-05
2.85138e-05
2.85137e-05
1.53953e-05
5.9993e-07
1.05255e-07
4.72619e-07
1.74124e-06
3.05594e-06
4.71875e-05
6.97575e-05
2.33606e-05
1.81157e-07
7.31535e-06
5.36344e-05
3.7394e-05
2.40523e-06
3.19425e-06
2.18e-06
2.47093e-05
2.85137e-05
2.85138e-05
2.85137e-05
2.11333e-05
3.18473e-07
3.78663e-08
3.81373e-08
3.78654e-08
3.81604e-08
3.8568e-08
3.85681e-08
1.82318e-07
1.6971e-05
1.43354e-05
9.20413e-09
2.68362e-06
4.91071e-05
9.15003e-11
5.8976e-06
2.83898e-05
2.85137e-05
2.85138e-05
2.85124e-05
6.68686e-06
3.82348e-08
3.78676e-08
5.23347e-08
4.53799e-08
3.84641e-08
3.93235e-08
8.25337e-07
2.30789e-06
4.12115e-10
2.06924e-10
6.77255e-06
6.01131e-05
5.67777e-11
3.4932e-10
4.8132e-06
2.38268e-05
2.85124e-05
2.85092e-05
8.30582e-06
5.59661e-08
9.49072e-08
7.63589e-07
8.38326e-07
1.00707e-07
4.26595e-08
2.4056e-08
4.52093e-10
2.79509e-10
2.02434e-10
6.6147e-06
6.01131e-05
5.06097e-11
4.16703e-11
1.06426e-10
4.22452e-11
3.99013e-06
6.3732e-06
3.43604e-06
9.18806e-08
1.38675e-07
1.05955e-06
1.16823e-06
1.1577e-06
1.5346e-07
1.12845e-09
1.06708e-09
1.42135e-09
1.91497e-10
5.34977e-06
6.009e-05
4.93361e-11
3.59898e-11
3.50441e-11
3.93528e-11
2.5622e-11
2.56073e-11
2.56073e-11
6.6899e-08
6.508e-07
1.16712e-06
1.16863e-06
1.16712e-06
3.54987e-07
1.47303e-09
1.55627e-09
1.57931e-09
1.76334e-10
5.43374e-06
5.98599e-05
3.36473e-11
3.30871e-11
3.17085e-11
2.72249e-11
2.74952e-11
2.97218e-11
2.68628e-11
2.62674e-11
2.2571e-07
8.87016e-07
9.77414e-07
2.80796e-07
3.35482e-08
2.28976e-09
2.59362e-09
9.66751e-10
1.66798e-10
6.382e-06
5.9663e-05
1.36468e-11
1.74652e-11
1.97276e-11
2.14275e-11
2.40986e-11
2.89931e-11
3.46762e-11
3.661e-11
3.64884e-11
2.15303e-07
7.99734e-07
4.1737e-07
5.81592e-08
3.58238e-08
5.06636e-09
2.46841e-10
1.60597e-10
3.62829e-06
5.92023e-05
3.64248e-12
5.73553e-12
8.81592e-12
1.28021e-11
1.76526e-11
2.33682e-11
2.90636e-11
3.79644e-11
3.66617e-11
3.09458e-11
6.73866e-08
2.7523e-07
2.90291e-07
1.83432e-07
1.56961e-08
1.62682e-10
1.47609e-10
1.61073e-10
5.09117e-05
7.4878e-13
1.34777e-12
2.73893e-12
5.22888e-12
9.43994e-12
1.58479e-11
2.27439e-11
2.88447e-11
3.48241e-11
3.09457e-11
3.04455e-11
7.3965e-09
8.31569e-08
9.17561e-08
3.69267e-08
1.81782e-10
1.1989e-10
1.46154e-10
2.9013e-05
1.41412e-13
2.60298e-13
6.69704e-13
1.6815e-12
3.89297e-12
7.90904e-12
1.29808e-11
1.81643e-11
2.30168e-11
2.80963e-11
3.21696e-11
3.21756e-11
3.23259e-11
3.26426e-11
7.00966e-10
1.20019e-09
1.02347e-10
1.19408e-10
4.09362e-05
2.88016e-14
5.14613e-14
1.54185e-13
4.87634e-13
1.38428e-12
3.29601e-12
6.22063e-12
9.85091e-12
1.41186e-11
2.03556e-11
2.85896e-11
3.50497e-11
4.28208e-11
4.74026e-11
4.78723e-11
9.77937e-11
9.8958e-11
3.42044e-06
4.5195e-05
8.60666e-15
1.79863e-14
5.207e-14
1.68071e-13
5.14239e-13
1.35052e-12
2.88027e-12
5.18271e-12
8.45112e-12
1.36478e-11
2.09007e-11
3.21918e-11
5.01378e-11
6.66451e-11
1.26887e-10
1.19805e-10
1.00607e-10
9.50071e-06
4.5195e-05
5.77385e-15
1.46333e-14
3.79318e-14
1.01322e-13
2.73189e-13
6.94893e-13
1.55865e-12
3.06976e-12
5.53349e-12
9.65257e-12
1.59392e-11
2.57796e-11
4.1041e-11
6.36272e-11
1.14344e-10
1.11382e-10
1.01829e-10
9.87464e-06
4.5195e-05
6.18925e-15
1.65979e-14
4.15529e-14
9.96183e-14
2.33525e-13
5.32478e-13
1.14715e-12
2.29214e-12
4.29402e-12
7.72671e-12
1.32634e-11
2.20666e-11
3.57891e-11
5.68823e-11
1.20598e-10
1.18755e-10
1.03255e-10
3.4366e-06
4.5176e-05
7.44401e-15
2.08315e-14
5.21818e-14
1.20193e-13
2.61928e-13
5.48745e-13
1.10543e-12
2.12857e-12
3.92683e-12
7.00637e-12
1.20781e-11
2.03083e-11
3.33502e-11
5.33947e-11
1.42654e-10
1.84497e-10
1.06226e-10
1.08999e-10
4.48145e-05
9.40287e-15
2.86835e-14
7.31524e-14
1.64248e-13
3.39117e-13
6.64195e-13
1.25232e-12
2.28315e-12
4.03926e-12
6.97748e-12
1.18196e-11
1.99144e-11
3.30026e-11
5.32491e-11
1.58357e-10
3.02312e-10
1.10322e-10
1.16263e-10
2.61341e-05
1.23198e-14
4.34185e-14
1.14959e-13
2.54197e-13
5.01393e-13
9.217e-13
1.62191e-12
2.76889e-12
4.62144e-12
7.6035e-12
1.25154e-11
2.11318e-11
3.49155e-11
5.8983e-11
2.41421e-10
3.02582e-10
1.15604e-10
2.62689e-06
1.87474e-05
1.58656e-14
6.62832e-14
1.88468e-13
4.23315e-13
8.2136e-13
1.44791e-12
2.40076e-12
3.83099e-12
5.97533e-12
9.24386e-12
1.46422e-11
2.43646e-11
3.87227e-11
6.83894e-11
3.30422e-10
3.9498e-10
1.2257e-10
1.30035e-05
3.03686e-05
1.86146e-14
9.15594e-14
2.88686e-13
6.89657e-13
1.3755e-12
2.4161e-12
3.87354e-12
5.84988e-12
8.56181e-12
1.24569e-11
1.88518e-11
2.99921e-11
4.42539e-11
7.90797e-11
5.01408e-10
5.92489e-10
1.30989e-10
8.7116e-06
3.03686e-05
1.88531e-14
1.05874e-13
3.80164e-13
1.01726e-12
2.1978e-12
4.02122e-12
6.44982e-12
9.41936e-12
1.31051e-11
1.82057e-11
2.66141e-11
4.01088e-11
5.46027e-11
1.00234e-10
7.61807e-10
7.95798e-10
1.43944e-10
2.45648e-06
9.80193e-06
1.56294e-14
9.80884e-14
4.16253e-13
1.32088e-12
3.28236e-12
6.57609e-12
1.10138e-11
1.6066e-11
2.15819e-11
2.88854e-11
4.15904e-11
6.19327e-11
8.20752e-11
1.90361e-10
1.04336e-09
1.27628e-09
5.21277e-10
4.14161e-10
5.83168e-10
9.93939e-15
7.11298e-14
3.73118e-13
1.48389e-12
4.47129e-12
1.02706e-11
1.86539e-11
2.81308e-11
3.74093e-11
4.81839e-11
6.86551e-11
1.09104e-10
1.65323e-10
5.9649e-10
1.32508e-09
1.38753e-09
7.27403e-10
3.8579e-10
1.39378e-09
4.52171e-15
3.93906e-14
2.62785e-13
1.35957e-12
5.22484e-12
1.40577e-11
2.84033e-11
4.56174e-11
6.22014e-11
7.84635e-11
1.07914e-10
1.83069e-10
4.45485e-10
9.77561e-10
1.22031e-09
1.18481e-09
4.72764e-10
3.81571e-10
3.1934e-09
1.40512e-15
1.68066e-14
1.51635e-13
1.02351e-12
5.08315e-12
1.59254e-11
3.62006e-11
6.35287e-11
9.07055e-11
1.17122e-10
1.60422e-10
2.52938e-10
5.5251e-10
9.04766e-10
9.00854e-10
4.91392e-10
3.79344e-10
3.8006e-10
3.1024e-09
2.82143e-16
5.42392e-15
6.89485e-14
6.18211e-13
3.95174e-12
1.42165e-11
3.7578e-11
7.51348e-11
1.2167e-10
1.60324e-10
2.15006e-10
3.24111e-10
3.82571e-10
5.83924e-10
7.82076e-09
4.99581e-10
6.09809e-07
1.60154e-08
3.17055e-09
3.07367e-17
1.08643e-15
1.96498e-14
2.2303e-13
2.24712e-12
9.56137e-12
3.27707e-11
7.46012e-11
1.44284e-10
2.38812e-10
3.1174e-10
4.13827e-10
4.50226e-10
4.50697e-10
4.53067e-10
4.4372e-07
1.31225e-06
1.31225e-06
2.01087e-07
)
;

boundaryField
{
    leftWall
    {
        type            zeroGradient;
    }
    rightWall
    {
        type            zeroGradient;
    }
    lowerWall
    {
        type            zeroGradient;
    }
    atmosphere
    {
        type            inletOutlet;
        inletValue      uniform 0;
        value           nonuniform List<scalar> 
46
(
3.45733e-26
0
0
0
0
0
0
0
0
0
0
0
0
0
0
0
0
0
0
0
0
0
0
0
0
0
0
0
0
0
0
0
0
0
0
0
2.38812e-10
3.1174e-10
4.13827e-10
4.50226e-10
4.50697e-10
4.53067e-10
4.4372e-07
1.31225e-06
1.31225e-06
2.01087e-07
)
;
    }
    defaultFaces
    {
        type            empty;
    }
}


// ************************************************************************* //
