/*--------------------------------*- C++ -*----------------------------------*\
| =========                 |                                                 |
| \\      /  F ield         | OpenFOAM: The Open Source CFD Toolbox           |
|  \\    /   O peration     | Version:  2.3.0                                 |
|   \\  /    A nd           | Web:      www.OpenFOAM.org                      |
|    \\/     M anipulation  |                                                 |
\*---------------------------------------------------------------------------*/
FoamFile
{
    version     2.0;
    format      ascii;
    class       volScalarField;
    location    "2.1";
    object      k;
}
// * * * * * * * * * * * * * * * * * * * * * * * * * * * * * * * * * * * * * //

dimensions      [0 2 -2 0 0 0 0];

internalField   nonuniform List<scalar> 
2268
(
0.00194003
0.00426462
0.00622828
0.00783135
0.00919188
0.0103934
0.0114836
0.0124923
0.0134462
0.014372
0.0153003
0.0162555
0.0172501
0.0182714
0.0192686
0.0201604
0.0208305
0.0210354
0.0204161
0.0189144
0.0161543
0.0115929
0.00489776
0.00367056
0.0096086
0.0138092
0.0172514
0.0202274
0.0228799
0.0252982
0.027547
0.029685
0.0317714
0.0338665
0.0360219
0.0382652
0.0405776
0.0428676
0.0449462
0.0465348
0.0471838
0.0462083
0.0433765
0.0379501
0.0280296
0.0116231
0.00486054
0.012603
0.0177976
0.0221046
0.0258629
0.0292333
0.0323215
0.035209
0.0379711
0.0406843
0.0434253
0.0462605
0.0492275
0.052309
0.0554
0.0582767
0.060591
0.0618372
0.061299
0.0583884
0.0520644
0.0400542
0.0171518
0.00585007
0.0149034
0.0208014
0.0257028
0.0300027
0.0338811
0.0374529
0.040812
0.0440467
0.0472475
0.0505055
0.0539013
0.0574842
0.0612407
0.0650627
0.0687054
0.0717667
0.0737097
0.0738016
0.0712688
0.0648942
0.0519553
0.0231331
0.00674408
0.0168841
0.0233799
0.0287652
0.0335051
0.0377995
0.0417752
0.0455372
0.0491861
0.0528262
0.0565643
0.0604978
0.0646889
0.0691332
0.0737252
0.0781992
0.0821056
0.0848691
0.0857585
0.0839223
0.0780101
0.0646627
0.0303817
0.00759343
0.0186804
0.0257284
0.0315421
0.0366678
0.0413261
0.045662
0.0497915
0.053828
0.0578905
0.0621034
0.0665845
0.0714123
0.0765966
0.0820353
0.0874408
0.0923197
0.0960261
0.0978617
0.0969881
0.0920262
0.079038
0.0391444
0.00838833
0.0203721
0.0279419
0.0341507
0.0396263
0.0446158
0.0492842
0.0537609
0.0581729
0.0626553
0.0673523
0.072406
0.0779171
0.0839106
0.0902894
0.0967396
0.102708
0.107484
0.110375
0.110663
0.107132
0.0957331
0.0518175
0.00913173
0.0220139
0.0300781
0.036656
0.0424543
0.0477512
0.0527313
0.057543
0.0623261
0.0672331
0.0724312
0.0780896
0.0843393
0.0912184
0.0986372
0.106248
0.113414
0.119349
0.123361
0.124907
0.123179
0.11519
0.0787316
0.00783943
0.0149104
0.0212643
0.0244671
0.0248677
0.0245346
0.0243271
0.0240888
0.0228616
0.0198732
0.0164809
0.0133324
0.010737
0.00864118
0.00677204
0.00604937
0.00571179
0.00549421
0.00435238
0.0143804
0.0299616
0.0438008
0.0507739
0.0528196
0.0528519
0.0523616
0.0512226
0.0483141
0.042956
0.0361036
0.0301494
0.0249966
0.0203697
0.0158349
0.0136702
0.0126006
0.0110758
0.00706388
0.0169083
0.0379036
0.0543771
0.0634458
0.0666178
0.0669592
0.0662168
0.0644215
0.0605971
0.0543281
0.0467109
0.0397231
0.0334199
0.0275856
0.0221578
0.019089
0.0173028
0.0149857
0.00906004
0.0176998
0.0434368
0.0621514
0.0729072
0.0769182
0.0773566
0.0762273
0.073743
0.0691188
0.0622256
0.0541946
0.0466708
0.0397589
0.0332682
0.0274212
0.0237565
0.021545
0.0186634
0.0108601
0.0186513
0.0486147
0.0693627
0.0816171
0.086127
0.0863321
0.0845985
0.0813125
0.0758877
0.0684595
0.0601287
0.0522908
0.0450172
0.0381867
0.0321909
0.0281998
0.0256952
0.0222331
0.0125288
0.0223996
0.0549365
0.0776357
0.0908515
0.0951482
0.0946264
0.092017
0.0878018
0.0815412
0.0736352
0.0651401
0.0571318
0.0496555
0.0426882
0.0366862
0.0325347
0.0297737
0.0256485
0.0140925
0.0334524
0.0653089
0.0884777
0.101271
0.104275
0.102439
0.0986789
0.0934309
0.0863323
0.0780202
0.0695157
0.0614963
0.0539566
0.0469778
0.0410222
0.0367586
0.0336924
0.0288476
0.0155492
0.0607348
0.0825424
0.102894
0.112677
0.113182
0.109623
0.104556
0.0982286
0.0903424
0.0817251
0.0733994
0.0655678
0.0580969
0.0511809
0.0452722
0.0408474
0.0373651
0.0317613
0.0168678
0.0102576
0.024565
0.0333615
0.0404763
0.0467403
0.0524826
0.0579171
0.0632301
0.0685834
0.0741589
0.080164
0.0868159
0.0942998
0.102672
0.111858
0.121448
0.130632
0.138442
0.144239
0.147755
0.148888
0.146977
0.137091
0.0117765
0.0281637
0.037815
0.0455405
0.0523367
0.0586092
0.0646113
0.0705768
0.076704
0.0832169
0.0903938
0.0985351
0.107906
0.118588
0.130539
0.14326
0.155484
0.165645
0.173172
0.178282
0.181606
0.18351
0.183069
0.0142283
0.032225
0.0425717
0.0507301
0.0579036
0.0646073
0.0711127
0.0777059
0.0845918
0.0920318
0.100403
0.110107
0.121475
0.134585
0.149504
0.165866
0.181561
0.193518
0.2016
0.206796
0.210706
0.214036
0.215453
0.0165803
0.0367739
0.0474872
0.0558846
0.0633887
0.0705011
0.0774435
0.0846605
0.0922175
0.100502
0.110034
0.1213
0.134604
0.14995
0.16774
0.188801
0.209177
0.221283
0.228011
0.231713
0.235429
0.239895
0.238493
0.0188106
0.039606
0.0506294
0.0595832
0.0676483
0.0752255
0.0826009
0.0903371
0.0986437
0.107684
0.118372
0.131054
0.14576
0.162557
0.183232
0.211
0.23096
0.235668
0.23771
0.239068
0.241557
0.242723
0.234671
0.017817
0.0391907
0.0515806
0.0620121
0.0708609
0.0785253
0.0862886
0.0945019
0.103276
0.113284
0.12497
0.138519
0.153702
0.170725
0.191302
0.21426
0.229964
0.234551
0.235352
0.235398
0.234072
0.229811
0.221492
0.0165002
0.038052
0.0513348
0.06254
0.0720233
0.0803545
0.0887085
0.0974928
0.10714
0.117983
0.130218
0.143984
0.158784
0.174843
0.193465
0.210375
0.222472
0.230337
0.232911
0.232658
0.228774
0.222545
0.213769
0.0163322
0.0378307
0.0514921
0.062606
0.0723063
0.0812318
0.0902935
0.0997871
0.110104
0.121223
0.133253
0.146286
0.160195
0.175246
0.191712
0.205727
0.214919
0.222022
0.224048
0.224081
0.220996
0.217152
0.211911
0.0172191
0.0392653
0.052867
0.0636547
0.0731333
0.0820522
0.0911128
0.100723
0.11096
0.121808
0.13344
0.146138
0.159494
0.173069
0.186803
0.198373
0.205797
0.21104
0.211822
0.211613
0.20971
0.206815
0.2048
0.0186075
0.0417068
0.0550546
0.0653879
0.0744179
0.0829289
0.0914885
0.100492
0.110095
0.120326
0.131498
0.144154
0.157487
0.169525
0.180668
0.189885
0.195824
0.199481
0.199971
0.199535
0.197752
0.19451
0.191237
0.0200044
0.0442464
0.0573237
0.0672007
0.0757289
0.0836929
0.0915958
0.0998054
0.108557
0.11797
0.128354
0.140114
0.152878
0.164437
0.173916
0.181186
0.185726
0.188143
0.188589
0.188184
0.186423
0.183042
0.179112
0.0213096
0.0463165
0.0591611
0.0686279
0.0766889
0.0841268
0.0914103
0.0988858
0.106788
0.115297
0.124625
0.134948
0.146013
0.156696
0.165486
0.171742
0.175429
0.177229
0.177821
0.177591
0.175887
0.172679
0.168692
0.0224844
0.0477409
0.0603279
0.0694255
0.0770742
0.0840544
0.0908081
0.0976468
0.104798
0.112428
0.120655
0.129519
0.1388
0.14784
0.155657
0.161394
0.164888
0.166733
0.167567
0.167438
0.165875
0.162969
0.159214
0.0232289
0.0484755
0.0607793
0.0695245
0.0767982
0.0833772
0.08968
0.0959858
0.102492
0.109329
0.116555
0.124145
0.131909
0.139426
0.146075
0.151249
0.154705
0.156718
0.157684
0.157606
0.156269
0.153742
0.150387
0.023524
0.0484967
0.0604924
0.0689077
0.075844
0.0820714
0.087987
0.0938404
0.0997968
0.105952
0.112332
0.118885
0.125456
0.13176
0.137398
0.141968
0.145239
0.147277
0.148278
0.148275
0.147187
0.145076
0.142202
0.0233807
0.0478207
0.0594824
0.067593
0.0742309
0.080151
0.0857312
0.0911966
0.0966857
0.10227
0.107958
0.113694
0.119349
0.124722
0.129545
0.133544
0.13653
0.138478
0.139475
0.139559
0.13872
0.137017
0.134635
0.0228195
0.046485
0.0577875
0.0656198
0.0719979
0.0776524
0.0829427
0.0880745
0.0931673
0.0982772
0.103404
0.108496
0.113448
0.118109
0.12229
0.125796
0.128483
0.1303
0.131281
0.131459
0.130855
0.129526
0.127609
0.0218714
0.0445481
0.0554669
0.0630442
0.0691979
0.0746249
0.0796663
0.0845127
0.0892701
0.0939853
0.0986557
0.103236
0.10764
0.111752
0.115432
0.118539
0.120963
0.122657
0.123627
0.123904
0.123519
0.122531
0.12104
0.0205884
0.0420929
0.052601
0.0599391
0.0658965
0.0711287
0.0759581
0.0805623
0.0850373
0.0894243
0.0937212
0.0978901
0.101863
0.105548
0.108841
0.111637
0.113856
0.115452
0.11643
0.116815
0.116641
0.115962
0.114852
0.0190471
0.03923
0.0492915
0.0563941
0.0621735
0.0672373
0.0718874
0.0762883
0.0805278
0.0846434
0.0886351
0.092473
0.0961041
0.0994579
0.102455
0.105017
0.10708
0.108616
0.109626
0.11013
0.110162
0.109765
0.108997
0.0173424
0.0360891
0.0456573
0.0525149
0.0581263
0.0630426
0.0675417
0.071774
0.0758195
0.079713
0.0834576
0.0870308
0.0903927
0.0934919
0.0962621
0.0986483
0.100608
0.102119
0.103184
0.103817
0.104046
0.103909
0.103448
0.0155811
0.0327406
0.04181
0.0484218
0.053873
0.058659
0.063031
0.0671245
0.0710118
0.0747259
0.0782743
0.0816383
0.0847884
0.087686
0.0902871
0.0925515
0.0944492
0.0959651
0.0970993
0.0978645
0.0982828
0.0983831
0.0981983
0.0138126
0.0292821
0.0378687
0.0442496
0.0495519
0.0542235
0.0584885
0.0624679
0.0662267
0.0697959
0.0731836
0.0763806
0.0793664
0.0821138
0.0845929
0.086776
0.0886425
0.0901817
0.0913937
0.092288
0.092881
0.0931948
0.0932538
0.0120349
0.0258333
0.0339914
0.0401602
0.0453293
0.0498988
0.0540699
0.0579515
0.0616026
0.0650526
0.0683118
0.0713769
0.0742357
0.0768704
0.0792615
0.0813909
0.0832448
0.084816
0.0861047
0.0871173
0.0878657
0.0883659
0.0886358
0.0103694
0.0226939
0.030409
0.0363563
0.0413942
0.0458671
0.0499515
0.0537449
0.0573013
0.0606495
0.0638015
0.0667589
0.0695157
0.072062
0.074386
0.0764764
0.0783247
0.0799265
0.0812817
0.0823948
0.083274
0.0839302
0.0843762
0.00899026
0.0201558
0.0273848
0.03308
0.0379659
0.0423303
0.0463222
0.050026
0.0534906
0.0567433
0.059798
0.0626595
0.0653269
0.0677961
0.0700608
0.0721151
0.0739543
0.0755759
0.0769802
0.0781699
0.0791506
0.0799295
0.0805153
0.0080228
0.0183506
0.0251147
0.0305356
0.0352423
0.0394753
0.0433573
0.0469593
0.050324
0.0534768
0.0564324
0.0591982
0.061777
0.0641685
0.066371
0.068382
0.0701998
0.0718235
0.0732534
0.0744917
0.0755416
0.0764078
0.0770961
0.00748254
0.0172816
0.0236679
0.0288298
0.0333473
0.0374307
0.0411839
0.0446669
0.047917
0.0509578
0.0538043
0.0564656
0.0589473
0.0612519
0.0633808
0.0653343
0.0671126
0.0687159
0.0701451
0.0714015
0.0724874
0.0734054
0.0741588
0.00730468
0.0168752
0.0230126
0.0279686
0.0323134
0.0362456
0.0398599
0.0432104
0.0463313
0.0492456
0.051969
0.0545125
0.0568834
0.059087
0.0611266
0.0630045
0.0647224
0.0662815
0.0676829
0.0689278
0.0700173
0.0709529
0.0717361
0.00740637
0.017035
0.0230651
0.0278913
0.032103
0.035901
0.0393796
0.0425926
0.0455748
0.0483506
0.0509377
0.0533493
0.055595
0.057682
0.0596156
0.0613996
0.0630366
0.0645288
0.0658773
0.0670833
0.0681472
0.0690694
0.0698502
0.00772323
0.0176731
0.0237354
0.028518
0.0326493
0.0363431
0.0397
0.0427786
0.0456184
0.0482478
0.0506882
0.0529559
0.0550632
0.0570196
0.0588321
0.0605056
0.0620439
0.0634494
0.0647236
0.0658673
0.0668808
0.0677636
0.0685149
0.00821841
0.0187315
0.0249596
0.029786
0.033894
0.0375179
0.0407711
0.0437223
0.046419
0.0488967
0.0511823
0.0532963
0.0552544
0.0570685
0.0587473
0.060297
0.061722
0.0630253
0.0642084
0.065272
0.0662158
0.0670384
0.0677379
0.00888135
0.0201934
0.0267175
0.0316722
0.0358101
0.0393947
0.042559
0.0453868
0.0479383
0.0502584
0.0523813
0.0543329
0.0561326
0.0577948
0.0593301
0.0607458
0.0620465
0.0632355
0.0643146
0.0652842
0.0661433
0.06689
0.067521
0.00972553
0.0220878
0.0290395
0.034201
0.0384119
0.0419762
0.0450554
0.0477557
0.0501535
0.0523062
0.0542566
0.0560364
0.057669
0.0591714
0.0605554
0.0618284
0.0629961
0.0640622
0.0650283
0.0658945
0.0666593
0.0673196
0.0678712
0.010788
0.0244924
0.0320098
0.0374464
0.0417552
0.0452984
0.0482793
0.0508339
0.0530601
0.0550295
0.0567939
0.0583912
0.0598481
0.0611829
0.0624075
0.0635315
0.0645609
0.0654989
0.066347
0.0671046
0.0677695
0.0683379
0.0688041
0.012133
0.0275442
0.0357739
0.0415339
0.0459345
0.0494261
0.0522709
0.0546447
0.05667
0.0584332
0.0599947
0.0613971
0.0626678
0.0638263
0.0648868
0.0658584
0.0667467
0.0675543
0.0682822
0.0689294
0.069493
0.0699682
0.0703482
0.0138644
0.0314652
0.0405565
0.046644
0.0510779
0.0544433
0.0570842
0.0592229
0.0610072
0.062536
0.0638748
0.0650664
0.0661411
0.0671188
0.0680125
0.0688303
0.0695767
0.0702539
0.0708622
0.0714001
0.0718641
0.0722486
0.0725459
0.0161561
0.0366209
0.0466916
0.053014
0.057334
0.0604395
0.0627751
0.064608
0.0661035
0.0673654
0.0684599
0.0694302
0.0703037
0.0710979
0.0718239
0.0724879
0.0730936
0.0736422
0.0741334
0.0745652
0.0749339
0.0752335
0.0754554
0.0193403
0.0436492
0.0546617
0.0609177
0.0648405
0.0674841
0.0693841
0.0708315
0.0719916
0.0729613
0.0737997
0.0745427
0.0752127
0.0758232
0.0763823
0.0768944
0.0773617
0.0777846
0.0781623
0.0784925
0.0787717
0.078994
0.0791508
0.0242585
0.0537347
0.0650819
0.0705695
0.0736479
0.0755852
0.0769249
0.077926
0.0787226
0.0793888
0.0799672
0.080483
0.0809511
0.0813802
0.081775
0.0821379
0.0824697
0.0827701
0.0830379
0.0832713
0.083467
0.0836199
0.0837227
0.0337164
0.0690676
0.0784181
0.0819078
0.0836387
0.0846797
0.0853942
0.085933
0.0863684
0.0867389
0.087066
0.0873622
0.0876345
0.0878866
0.0881205
0.0883367
0.0885351
0.0887151
0.0888757
0.0890154
0.089132
0.0892222
0.0892804
0.0554954
0.0911571
0.0935788
0.0941309
0.0944169
0.0946218
0.0947846
0.0949205
0.0950386
0.0951445
0.0952418
0.0953325
0.0954179
0.0954982
0.0955737
0.0956441
0.0957091
0.0957683
0.0958213
0.0958675
0.0959062
0.095936
0.0959551
0.111904
0.0994001
0.0935912
0.0917997
0.179134
0.175294
0.171247
0.167555
0.212122
0.207877
0.203192
0.199241
0.228318
0.220074
0.212906
0.207253
0.222393
0.214742
0.20799
0.202197
0.21239
0.206809
0.201847
0.197446
0.206639
0.202287
0.198153
0.194335
0.20587
0.201376
0.196611
0.192364
0.200145
0.196257
0.192257
0.188509
0.187938
0.185414
0.182589
0.179604
0.17583
0.173578
0.171126
0.168478
0.165372
0.163136
0.16075
0.158197
0.156059
0.153943
0.151704
0.149326
0.147543
0.145638
0.14363
0.141503
0.139729
0.138067
0.136315
0.134459
0.132546
0.131128
0.129627
0.128034
0.125889
0.124705
0.123441
0.122095
0.119659
0.118693
0.117654
0.116539
0.113781
0.113017
0.112186
0.111286
0.108204
0.107626
0.106986
0.106284
0.102906
0.102495
0.102027
0.101504
0.0978788
0.0976172
0.0973039
0.0969387
0.09313
0.0930002
0.0928223
0.0925964
0.0886802
0.0886643
0.0886034
0.0884974
0.0845613
0.0846409
0.0846782
0.0846731
0.0808127
0.0809692
0.0810858
0.0811622
0.0774773
0.0776918
0.0778686
0.0780075
0.0745959
0.0748497
0.0750679
0.0752505
0.0722024
0.0724777
0.0727195
0.0729276
0.0703216
0.070602
0.0708509
0.0710681
0.0689705
0.0692419
0.0694834
0.0696947
0.0681605
0.0684112
0.0686332
0.0688265
0.0678978
0.068119
0.0683125
0.0684782
0.0681934
0.0683791
0.068538
0.0686696
0.0690672
0.0692143
0.0693353
0.0694294
0.0705515
0.0706599
0.0707426
0.0707991
0.0726929
0.0727652
0.0728127
0.0728347
0.0755532
0.0755948
0.0756132
0.0756074
0.0792093
0.0792277
0.0792257
0.0792021
0.0837533
0.0837574
0.083745
0.0837155
0.0892938
0.0892918
0.089279
0.089255
0.0959585
0.0959567
0.095951
0.0959417
0.10343
0.117158
0.128203
0.130382
0.12605
0.119524
0.112369
0.104309
0.0953647
0.0865213
0.0787529
0.0715579
0.0644386
0.0577172
0.0518415
0.0469781
0.0423694
0.0351909
0.0180593
0.162848
0.160889
0.156713
0.148383
0.138401
0.128424
0.118987
0.109604
0.100125
0.0914605
0.0844374
0.0783386
0.0722171
0.0660081
0.0600511
0.0541877
0.0476165
0.0386598
0.0192949
0.193873
0.185953
0.175801
0.161605
0.147262
0.13436
0.123211
0.113309
0.103975
0.0956745
0.0892487
0.0840293
0.0788714
0.073289
0.0669817
0.059546
0.05102
0.0402831
0.0193413
0.198714
0.188796
0.182772
0.170365
0.153906
0.138786
0.126345
0.116403
0.107446
0.0994746
0.0934497
0.088527
0.0837503
0.0784783
0.0716867
0.0628375
0.0525434
0.0401103
0.0187594
0.194536
0.186956
0.180427
0.168705
0.153461
0.139272
0.127214
0.117563
0.109792
0.103188
0.0976495
0.0924027
0.0869649
0.0812268
0.0739727
0.0645731
0.0534846
0.0400791
0.0185146
0.191497
0.184583
0.177014
0.165293
0.151537
0.138575
0.127514
0.118548
0.111397
0.105896
0.101904
0.0973538
0.0901869
0.0823344
0.0737869
0.064501
0.0546159
0.0412313
0.0193548
0.189421
0.183413
0.173697
0.161104
0.148565
0.136817
0.126767
0.1186
0.112146
0.107199
0.103705
0.100529
0.0952451
0.0843486
0.0732052
0.0627745
0.0534413
0.0407504
0.019387
0.186995
0.17963
0.169393
0.157381
0.145704
0.134912
0.125609
0.117902
0.111677
0.106964
0.103777
0.100948
0.0963324
0.0876378
0.0742193
0.061594
0.0502429
0.0359113
0.0152489
0.182952
0.174284
0.164344
0.153706
0.143047
0.132957
0.12426
0.116857
0.110475
0.105507
0.102128
0.0993669
0.0944544
0.0872066
0.0753813
0.0614273
0.0474393
0.0318605
0.0140299
0.174666
0.166501
0.157185
0.147764
0.138605
0.1298
0.121855
0.114691
0.108276
0.103175
0.099731
0.0967022
0.0921849
0.0843547
0.0743116
0.0618815
0.0478891
0.0321662
0.014161
0.163993
0.156442
0.148075
0.139561
0.131562
0.124144
0.117207
0.110661
0.104722
0.0997956
0.0960406
0.0926523
0.0876329
0.0806594
0.0721054
0.0611147
0.0478876
0.0326071
0.0141367
0.153796
0.146822
0.139325
0.131785
0.124696
0.118174
0.112015
0.106102
0.100657
0.0958755
0.091694
0.0876762
0.0828406
0.0768241
0.0694544
0.0597039
0.0474074
0.0325953
0.0139011
0.145196
0.138807
0.132097
0.125365
0.118923
0.11289
0.107185
0.101722
0.0966058
0.0918832
0.0874918
0.0831287
0.0783949
0.072957
0.0663854
0.0575445
0.0459838
0.0318047
0.0136158
0.137791
0.132072
0.126091
0.120064
0.114205
0.108595
0.103215
0.0980271
0.0930462
0.0882724
0.0836879
0.079124
0.0743683
0.0691769
0.063066
0.0548941
0.0440491
0.0306442
0.0133427
0.131201
0.126169
0.120887
0.11553
0.110255
0.105109
0.100061
0.0950779
0.0901649
0.0853195
0.0805279
0.0757509
0.0708956
0.0657481
0.0598501
0.0522148
0.0422156
0.029665
0.0133844
0.125216
0.120841
0.11623
0.111517
0.106811
0.10214
0.0974635
0.0927137
0.0879105
0.0830616
0.0781538
0.0731896
0.0681645
0.0629607
0.0571646
0.0500405
0.0409541
0.0294305
0.0139088
0.119698
0.115957
0.111976
0.107869
0.103707
0.0995027
0.0952125
0.0907601
0.0861396
0.0813793
0.0764776
0.0714444
0.0663117
0.0610395
0.0553426
0.0487182
0.040586
0.0301262
0.0147041
0.114543
0.111401
0.108013
0.104473
0.10083
0.0970806
0.0931789
0.0890565
0.0846948
0.0801101
0.0753196
0.0703479
0.0652355
0.0599866
0.0544476
0.0482966
0.0410297
0.0315291
0.0156327
0.109664
0.107079
0.104244
0.101235
0.0980816
0.0947714
0.0912549
0.0874767
0.0834154
0.0790801
0.0744916
0.0696819
0.0647025
0.0595923
0.0542861
0.0485531
0.0419518
0.0332505
0.0166019
0.105003
0.102924
0.100596
0.0980758
0.0953807
0.0924887
0.0893507
0.0859217
0.0821824
0.078138
0.0738112
0.0692416
0.0644883
0.0596034
0.0545593
0.0491732
0.0430162
0.0348064
0.0175887
0.100531
0.0989047
0.0970313
0.0949504
0.0926749
0.0901743
0.087403
0.0843222
0.0809146
0.0771853
0.0731586
0.0688784
0.0644051
0.0597899
0.0550132
0.0499074
0.0440326
0.0360324
0.0184093
0.0962393
0.0950114
0.0935402
0.0918513
0.0899508
0.087809
0.0853849
0.0826435
0.0795691
0.0761667
0.0724616
0.0684977
0.0643307
0.0600019
0.0554846
0.0506073
0.0449092
0.0369728
0.018999
0.0921364
0.0912545
0.0901342
0.0887898
0.0872212
0.0854049
0.0833031
0.0808852
0.0781369
0.0750629
0.0716871
0.0680496
0.0641967
0.0601555
0.0558846
0.0512002
0.0456167
0.0376661
0.0193987
0.0882435
0.0876577
0.0868393
0.0857942
0.0845182
0.0829927
0.0811855
0.0790701
0.0766334
0.0738795
0.0708289
0.0675146
0.0639711
0.0602089
0.0561699
0.0516544
0.0461516
0.0381492
0.0196448
0.0845925
0.084255
0.0836917
0.082903
0.0818821
0.0806127
0.0790707
0.0772326
0.0750871
0.0726364
0.0698965
0.0668918
0.0636433
0.0601446
0.0563209
0.0519562
0.046517
0.0384485
0.0197448
0.0812225
0.0810873
0.0807343
0.0801602
0.0793569
0.0783101
0.0770015
0.0754121
0.0735314
0.0713597
0.0689076
0.06619
0.0632143
0.0599581
0.0563303
0.0521
0.0467156
0.038586
0.0197372
0.0781762
0.0781987
0.0780123
0.0776117
0.0769883
0.0761296
0.0750206
0.0736478
0.0720007
0.0700777
0.0678835
0.0654236
0.0626927
0.0596532
0.0561997
0.0520888
0.0467573
0.0385948
0.0196889
0.075496
0.0756329
0.0755705
0.0753026
0.0748207
0.0741138
0.0731696
0.071977
0.0705282
0.0688184
0.0668469
0.0646104
0.0620918
0.0592406
0.0559389
0.051934
0.0466603
0.0385061
0.0196007
0.0732196
0.0734296
0.0734502
0.0732746
0.0728951
0.0723021
0.0714853
0.0704352
0.069145
0.0676091
0.0658212
0.0637703
0.0614293
0.0587366
0.0555644
0.0516536
0.0464408
0.0383276
0.0194718
0.0713785
0.0716231
0.0716876
0.0715653
0.0712491
0.0707307
0.0700017
0.069054
0.0678808
0.0664759
0.06483
0.0629249
0.0607254
0.0581615
0.0550974
0.0512691
0.0461135
0.0380496
0.0193196
0.069998
0.0702423
0.0703146
0.0702083
0.0699168
0.0694332
0.0687509
0.0678631
0.0667637
0.0654453
0.0638969
0.0620963
0.0600018
0.0575367
0.0545597
0.0508026
0.0456982
0.0376744
0.0191345
0.0691015
0.0693141
0.0693612
0.0692359
0.0689317
0.068443
0.0677648
0.0668923
0.0658208
0.064543
0.0630463
0.0613071
0.0592799
0.0568832
0.0539718
0.0502741
0.0452178
0.0372264
0.0188697
0.0687086
0.068865
0.0688587
0.0686827
0.0683304
0.0677968
0.0670786
0.066174
0.065081
0.0637947
0.062303
0.0605808
0.0585816
0.0562218
0.0533524
0.0496999
0.0446888
0.036732
0.0185124
0.0688438
0.0689259
0.0688445
0.0685907
0.0681573
0.0675395
0.0667354
0.0657473
0.0645783
0.0632292
0.0616915
0.0599415
0.0579311
0.0555748
0.0527231
0.0490989
0.0441276
0.0362266
0.0181676
0.0695413
0.0695381
0.069367
0.0690154
0.0684723
0.0677322
0.066794
0.0656645
0.0643563
0.0628809
0.0612394
0.0594126
0.0573524
0.0549701
0.0521123
0.0485022
0.043567
0.0357433
0.0179016
0.070848
0.0707575
0.0704919
0.0700318
0.0693591
0.0684622
0.0673394
0.0660018
0.0644758
0.0627943
0.0609783
0.0590186
0.0568678
0.0544326
0.051554
0.04795
0.0430464
0.0352913
0.0176354
0.0728267
0.0726575
0.0723055
0.0717412
0.0709337
0.0698569
0.0685009
0.0668767
0.0650292
0.0630307
0.0609455
0.0587842
0.0564977
0.053983
0.0510715
0.0474734
0.0426042
0.0348939
0.0173433
0.0755551
0.0753289
0.0749159
0.0742741
0.0733533
0.072101
0.0704784
0.0684815
0.0661684
0.0636804
0.0611859
0.0587319
0.0562582
0.0536379
0.0506831
0.047092
0.0422658
0.0346078
0.0171794
0.0791246
0.0788759
0.0784477
0.0777859
0.0768172
0.075449
0.0735798
0.0711439
0.068167
0.0648828
0.0617495
0.0588761
0.0561564
0.0534068
0.0504026
0.0468235
0.0420548
0.0344669
0.0171727
0.0836355
0.0834092
0.0830296
0.0824382
0.0815456
0.0802169
0.0782578
0.0754334
0.0715689
0.0668467
0.0626736
0.0592076
0.0561818
0.0532874
0.0502343
0.0466763
0.0419841
0.034491
0.0173117
0.0891953
0.0890373
0.0887759
0.0883645
0.0877231
0.0867096
0.0850609
0.0822894
0.0775565
0.0697832
0.0639001
0.059655
0.056291
0.0532568
0.0501642
0.0466348
0.0420262
0.0346448
0.0175851
0.0959199
0.0958649
0.0957753
0.0956339
0.0954089
0.0950334
0.0943444
0.0928586
0.0888017
0.0732863
0.0650279
0.0600219
0.0563947
0.0532677
0.0501547
0.0466489
0.0420766
0.0346955
0.0177225
)
;

boundaryField
{
    leftWall
    {
        type            kqRWallFunction;
        value           nonuniform List<scalar> 
50
(
0.00194003
0.00367056
0.00486054
0.00585007
0.00674408
0.00759343
0.00838833
0.00913173
0.0102576
0.0117765
0.0142283
0.0165803
0.0188106
0.017817
0.0165002
0.0163322
0.0172191
0.0186075
0.0200044
0.0213096
0.0224844
0.0232289
0.023524
0.0233807
0.0228195
0.0218714
0.0205884
0.0190471
0.0173424
0.0155811
0.0138126
0.0120349
0.0103694
0.00899026
0.0080228
0.00748254
0.00730468
0.00740637
0.00772323
0.00821841
0.00888135
0.00972553
0.010788
0.012133
0.0138644
0.0161561
0.0193403
0.0242585
0.0337164
0.0554954
)
;
    }
    rightWall
    {
        type            kqRWallFunction;
        value           nonuniform List<scalar> 
50
(
0.00435238
0.00706388
0.00906004
0.0108601
0.0125288
0.0140925
0.0155492
0.0168678
0.0180593
0.0192949
0.0193413
0.0187594
0.0185146
0.0193548
0.019387
0.0152489
0.0140299
0.014161
0.0141367
0.0139011
0.0136158
0.0133427
0.0133844
0.0139088
0.0147041
0.0156327
0.0166019
0.0175887
0.0184093
0.018999
0.0193987
0.0196448
0.0197448
0.0197372
0.0196889
0.0196007
0.0194718
0.0193196
0.0191345
0.0188697
0.0185124
0.0181676
0.0179016
0.0176354
0.0173433
0.0171794
0.0171727
0.0173117
0.0175851
0.0177225
)
;
    }
    lowerWall
    {
        type            kqRWallFunction;
        value           nonuniform List<scalar> 
62
(
0.00194003
0.00426462
0.00622828
0.00783135
0.00919188
0.0103934
0.0114836
0.0124923
0.0134462
0.014372
0.0153003
0.0162555
0.0172501
0.0182714
0.0192686
0.0201604
0.0208305
0.0210354
0.0204161
0.0189144
0.0161543
0.0115929
0.00489776
0.00489776
0.0116231
0.0171518
0.0231331
0.0303817
0.0391444
0.0518175
0.0787316
0.111904
0.0994001
0.0935912
0.0917997
0.00783943
0.0143804
0.0169083
0.0176998
0.0186513
0.0223996
0.0334524
0.0607348
0.00783943
0.0149104
0.0212643
0.0244671
0.0248677
0.0245346
0.0243271
0.0240888
0.0228616
0.0198732
0.0164809
0.0133324
0.010737
0.00864118
0.00677204
0.00604937
0.00571179
0.00549421
0.00435238
)
;
    }
    atmosphere
    {
        type            inletOutlet;
        inletValue      uniform 0.1;
        value           nonuniform List<scalar> 
46
(
0.0554954
0.1
0.1
0.1
0.1
0.1
0.1
0.1
0.1
0.1
0.1
0.1
0.1
0.1
0.1
0.1
0.1
0.1
0.1
0.1
0.1
0.1
0.1
0.1
0.1
0.1
0.1
0.1
0.1
0.1
0.1
0.1
0.1
0.1
0.1
0.1
0.0732863
0.0650279
0.0600219
0.0563947
0.0532677
0.0501547
0.0466489
0.0420766
0.0346955
0.0177225
)
;
    }
    defaultFaces
    {
        type            empty;
    }
}


// ************************************************************************* //
