/*--------------------------------*- C++ -*----------------------------------*\
| =========                 |                                                 |
| \\      /  F ield         | OpenFOAM: The Open Source CFD Toolbox           |
|  \\    /   O peration     | Version:  2.3.0                                 |
|   \\  /    A nd           | Web:      www.OpenFOAM.org                      |
|    \\/     M anipulation  |                                                 |
\*---------------------------------------------------------------------------*/
FoamFile
{
    version     2.0;
    format      ascii;
    class       volScalarField;
    location    "2.1";
    object      nut;
}
// * * * * * * * * * * * * * * * * * * * * * * * * * * * * * * * * * * * * * //

dimensions      [0 2 -1 0 0 0 0];

internalField   nonuniform List<scalar> 
2268
(
3.98328e-05
4.32794e-05
5.22342e-05
5.85702e-05
6.35167e-05
6.7621e-05
7.11772e-05
7.4355e-05
7.72791e-05
8.00559e-05
8.27829e-05
8.55281e-05
8.83145e-05
9.10935e-05
9.37187e-05
9.594e-05
9.76109e-05
9.81457e-05
9.67475e-05
9.32141e-05
8.62711e-05
7.31528e-05
4.70331e-05
8.54712e-05
0.00033151
0.000454898
0.000536357
0.000599636
0.000652159
0.000697681
0.000738563
0.000776554
0.000813093
0.000849288
0.000885759
0.000922428
0.000958364
0.000991469
0.0010175
0.00103237
0.0010307
0.000999167
0.000949069
0.00087039
0.000653583
0.000154176
9.83644e-05
0.000563043
0.000826277
0.00100719
0.00114854
0.00126625
0.00136854
0.00146063
0.00154632
0.00162859
0.0017095
0.00178983
0.00186875
0.00194378
0.00201052
0.00206189
0.00208937
0.00208239
0.00202051
0.00189546
0.00165551
0.00112597
0.000187112
0.000107796
0.000722218
0.00111256
0.00138822
0.00160505
0.00178651
0.0019447
0.00208725
0.00221955
0.00234543
0.00246713
0.00258488
0.00269684
0.00279932
0.00288707
0.00295239
0.00298411
0.00296756
0.00287521
0.00267209
0.00227011
0.0014784
0.000216765
0.000115494
0.000836168
0.00133721
0.0016988
0.00198534
0.00222615
0.00243669
0.00262643
0.00280168
0.0029664
0.00312224
0.00326848
0.0034023
0.00351987
0.00361677
0.00368649
0.00371752
0.00369151
0.00357381
0.00330664
0.00277152
0.00175866
0.000247484
0.000122322
0.00092233
0.00151928
0.00195746
0.00230722
0.00260212
0.00286067
0.00309356
0.00330732
0.00350537
0.00368828
0.00385423
0.004
0.00412279
0.00422053
0.00428944
0.0043195
0.00428877
0.0041569
0.00384903
0.00321893
0.00201971
0.000279589
0.000128575
0.000993274
0.00167268
0.00217832
0.00258451
0.00292825
0.00323026
0.00350196
0.00374953
0.00397533
0.0041786
0.00435659
0.00450646
0.00462761
0.0047216
0.00478835
0.00481994
0.00479304
0.00466165
0.00434059
0.00365951
0.00230372
0.00031995
0.000134237
0.00105727
0.00180736
0.00237191
0.00282794
0.00321538
0.00355626
0.00386245
0.00413919
0.00438742
0.00460504
0.00478881
0.00493712
0.00505259
0.00514126
0.00520729
0.00524509
0.00523092
0.00511544
0.00481005
0.00413478
0.00268382
0.000390626
5.80628e-05
7.93793e-05
9.41266e-05
0.00010112
0.000102358
0.000102101
0.000101858
0.000101383
9.85804e-05
9.13891e-05
8.28081e-05
7.40148e-05
6.6913e-05
6.03113e-05
5.37242e-05
5.13629e-05
5.06806e-05
5.03141e-05
6.26201e-05
0.000185184
0.000466579
0.000703665
0.000821598
0.000883674
0.000916477
0.000932905
0.000932202
0.000900368
0.000824493
0.000687628
0.000596325
0.000538265
0.000480839
0.000395626
0.000375704
0.000386891
0.000318961
0.000132986
0.000201335
0.000763587
0.00115757
0.00141987
0.00158501
0.00168437
0.0017404
0.00175415
0.00170215
0.00156192
0.00133389
0.00115045
0.00101623
0.000895107
0.000767036
0.000722485
0.00069075
0.000506292
0.000149975
0.00020636
0.000916127
0.0014282
0.00183026
0.0021073
0.00228192
0.00238151
0.00241276
0.0023522
0.00217596
0.00189805
0.00164806
0.00144851
0.00127478
0.00111964
0.00104287
0.000955022
0.000665954
0.000163588
0.000208448
0.000963898
0.00158459
0.00212265
0.00251088
0.00275894
0.00289837
0.00294577
0.00288343
0.00269122
0.002389
0.00209701
0.00184961
0.00163657
0.00145947
0.0013468
0.0011998
0.000815201
0.000175068
0.00022269
0.000954665
0.00169131
0.00236058
0.00284782
0.00315757
0.00332795
0.00338808
0.00332703
0.00313044
0.00282163
0.00250742
0.00222886
0.00198757
0.00178892
0.00163708
0.0014284
0.000952252
0.000184936
0.000262979
0.000961066
0.00181373
0.00259579
0.00315717
0.0035072
0.00369616
0.00376452
0.003706
0.00351155
0.00320747
0.00288646
0.00259047
0.00232897
0.0021073
0.00191272
0.00163921
0.0010748
0.000193326
0.000347511
0.00106231
0.00202659
0.00286708
0.00345992
0.003824
0.0040201
0.00409214
0.00403659
0.00384794
0.00355554
0.00323842
0.00293487
0.00265848
0.00241224
0.00217157
0.00183147
0.00118182
0.00020012
0.000142546
0.00115339
0.00199951
0.00264401
0.00316863
0.00361681
0.0040114
0.00436443
0.00467922
0.00495433
0.0051859
0.0053709
0.00551103
0.00561535
0.0056975
0.00576815
0.00582489
0.00584338
0.00577327
0.00553353
0.00498658
0.00390606
0.00210027
0.000153268
0.00129033
0.00223549
0.00295931
0.00355349
0.00406495
0.00451573
0.00491558
0.00526487
0.0055591
0.00579362
0.00596826
0.00609128
0.00618174
0.00626315
0.00635423
0.00645547
0.00653994
0.0065579
0.00645135
0.0061478
0.00555622
0.00460189
0.00016902
0.0014217
0.00246266
0.00324787
0.00389337
0.00445254
0.00494553
0.00537875
0.00574918
0.0060502
0.00627882
0.00644023
0.00654951
0.00663348
0.00672327
0.00684609
0.0070034
0.0071572
0.00725201
0.00724698
0.00710925
0.00680856
0.00633313
0.000182529
0.00156893
0.00269245
0.00351987
0.00420277
0.00479798
0.00532142
0.00577804
0.00615944
0.00645939
0.00667887
0.00683045
0.00693449
0.00701827
0.00711872
0.00728158
0.00750749
0.00771925
0.00786054
0.00790507
0.00784394
0.00766346
0.00732669
0.000195477
0.00164783
0.00283723
0.00372552
0.00445868
0.00509196
0.00564114
0.00611132
0.00649996
0.00679469
0.0070062
0.00715353
0.00725948
0.00734644
0.00745566
0.007665
0.00793831
0.00816592
0.0083168
0.00836873
0.00832125
0.00817284
0.00788622
0.000191839
0.00160763
0.00283438
0.00381181
0.00461584
0.00529664
0.00588341
0.00637723
0.0067744
0.00707149
0.00728148
0.00742916
0.00753738
0.00762953
0.00775293
0.00795589
0.00821657
0.00846558
0.00863648
0.0087048
0.0086636
0.00852766
0.0082948
0.000183665
0.00151749
0.00275497
0.00379957
0.00467526
0.0054199
0.00605919
0.006587
0.00700131
0.00730483
0.00751548
0.00766591
0.00778
0.00787862
0.0080123
0.00818184
0.00840963
0.00867491
0.00886927
0.00896427
0.00895076
0.00885145
0.00866956
0.00018029
0.00142691
0.00268499
0.00377426
0.00471039
0.00551455
0.00620124
0.00676095
0.00719308
0.00750316
0.00771526
0.00786753
0.00798958
0.00809988
0.00823243
0.0083813
0.00857241
0.0088087
0.00899247
0.00910497
0.00912669
0.00909105
0.00897908
0.000182725
0.00142845
0.00270741
0.00382273
0.00478756
0.00561849
0.00632567
0.00690425
0.00734639
0.00766263
0.00788146
0.00804288
0.00817496
0.00829039
0.00841131
0.00853816
0.00869315
0.0088878
0.00905307
0.00916317
0.00920453
0.00919901
0.00915368
0.000188889
0.00150184
0.00281507
0.0039441
0.00491428
0.00574599
0.0064494
0.00702408
0.00746577
0.00778507
0.00801147
0.00818518
0.00832813
0.00844665
0.0085555
0.00866188
0.00878356
0.00894102
0.00908908
0.00919221
0.00923432
0.00923157
0.00919191
0.000195691
0.00160216
0.00296224
0.00410376
0.00506935
0.00588781
0.00657389
0.00713228
0.00756481
0.00788258
0.00811205
0.00828773
0.00843571
0.0085585
0.00866186
0.00875385
0.00885074
0.00897787
0.00910857
0.00920339
0.00924292
0.00924011
0.00920443
0.000201713
0.00168768
0.00310314
0.00426233
0.00522346
0.00602551
0.00669018
0.00722844
0.00764718
0.00795964
0.0081878
0.00835953
0.00850022
0.00862198
0.00872348
0.00880761
0.00889197
0.00899884
0.00911326
0.00919864
0.00923644
0.00923657
0.00920764
0.000207648
0.00174427
0.00321035
0.00439106
0.00535163
0.00613993
0.00678492
0.00730377
0.00770893
0.00801463
0.00823971
0.00840675
0.00853782
0.00864815
0.00874309
0.00882512
0.00890662
0.00900216
0.00910133
0.00917612
0.00921311
0.00921756
0.009196
0.000211613
0.00178054
0.00328347
0.00448089
0.0054413
0.00621865
0.00684772
0.00735096
0.00774474
0.00804442
0.00826701
0.00843146
0.00855667
0.00865803
0.00874506
0.0088239
0.00890292
0.00898897
0.00907356
0.00913837
0.00917417
0.00918264
0.00916796
0.000213486
0.00179659
0.00332056
0.00452759
0.00548674
0.00625554
0.00687277
0.00736464
0.00775035
0.00804628
0.00826845
0.00843344
0.00855761
0.00865544
0.00873793
0.00881301
0.00888716
0.00896323
0.00903495
0.00909094
0.00912464
0.00913589
0.00912682
0.000213355
0.00179299
0.0033217
0.00453005
0.00548574
0.00624763
0.00685672
0.00734154
0.00772306
0.00801836
0.00824291
0.00841165
0.00853899
0.00863807
0.00871975
0.00879226
0.00886124
0.00892838
0.00898967
0.00903817
0.00906926
0.00908199
0.00907707
0.000211305
0.00177087
0.00328839
0.00448941
0.00543867
0.00619453
0.00679859
0.00728036
0.00766166
0.00795981
0.00818976
0.00836524
0.00849912
0.00860314
0.00868736
0.00875964
0.00882521
0.0088859
0.00893967
0.00898245
0.00901114
0.00902465
0.00902283
0.000207412
0.00173182
0.00322323
0.00440841
0.00534784
0.00609786
0.00669931
0.00718153
0.00756632
0.00787075
0.00810911
0.00829411
0.00843732
0.00854923
0.00863897
0.00871382
0.00877882
0.00883627
0.00888571
0.00892501
0.00895227
0.00896654
0.00896739
0.000201791
0.00167784
0.0031298
0.00429113
0.00521712
0.00596091
0.00656146
0.00704702
0.00743858
0.00775245
0.0080021
0.0081992
0.00835422
0.0084766
0.00857456
0.00865485
0.00872239
0.00878
0.0088283
0.0088666
0.00889395
0.00890976
0.00891362
0.00019466
0.0016118
0.00301284
0.00414297
0.00505183
0.0057885
0.00638926
0.0068804
0.00728146
0.00760758
0.00787115
0.00808278
0.00825194
0.00838712
0.0084958
0.00858426
0.0086574
0.00871838
0.00876863
0.00880846
0.00883772
0.00885625
0.0088638
0.000186294
0.00153766
0.00287799
0.00397029
0.00485849
0.005587
0.00618863
0.00668706
0.00709984
0.00744058
0.00772038
0.00794873
0.00813412
0.00828426
0.00840591
0.00850513
0.00858668
0.00865393
0.0087089
0.00875264
0.00878564
0.00880814
0.00882014
0.000177245
0.00145212
0.00272831
0.00377922
0.00464458
0.00536432
0.00596743
0.0064745
0.00690074
0.00725796
0.00755592
0.00780275
0.00800611
0.00817301
0.0083098
0.00842206
0.00851444
0.00859043
0.00865247
0.00870215
0.00874046
0.00876804
0.00878515
0.000167636
0.00135572
0.00256641
0.00357616
0.00441867
0.00513019
0.00573571
0.00625259
0.00669353
0.00706847
0.00738565
0.00765231
0.00787514
0.00806044
0.00821402
0.00834112
0.00844619
0.00853283
0.00860374
0.00866091
0.00870574
0.00873918
0.00876178
0.000157263
0.00125221
0.00240165
0.00337287
0.00419439
0.00489869
0.00550725
0.00603442
0.00649052
0.00688365
0.00722065
0.00750773
0.00775071
0.00795522
0.00812652
0.0082695
0.00838843
0.00848691
0.00856782
0.00863344
0.00868546
0.00872515
0.00875325
0.000146598
0.0011607
0.00225066
0.00318531
0.00398819
0.00468668
0.00529875
0.00583604
0.0063068
0.00671749
0.00707369
0.00738063
0.00764336
0.00786682
0.0080558
0.00821479
0.00834786
0.00845855
0.00854985
0.0086242
0.00868355
0.00872936
0.0087626
0.000136747
0.00109675
0.0021322
0.00303329
0.00381937
0.00451277
0.00512795
0.00567414
0.00615781
0.00658408
0.00695749
0.0072824
0.00756316
0.00780412
0.00800959
0.00818368
0.00833022
0.00845264
0.00855395
0.00863668
0.00870292
0.00875429
0.00879193
0.000128983
0.00106123
0.00205776
0.0029323
0.00370448
0.00439321
0.00501024
0.00556297
0.00605653
0.00649506
0.0068823
0.00722193
0.00751772
0.00777352
0.00799317
0.00818043
0.00833885
0.00847172
0.00858197
0.00867214
0.00874439
0.00880044
0.00884152
0.000124087
0.00104933
0.0020284
0.00288841
0.00365193
0.00433709
0.00495453
0.00551079
0.00601036
0.00645681
0.00685342
0.00720344
0.00751021
0.00777716
0.00800775
0.0082054
0.00837338
0.00851479
0.0086324
0.0087287
0.00880583
0.00886551
0.00890903
0.000122077
0.00105567
0.00203853
0.00289803
0.00365988
0.00434365
0.00496059
0.00551753
0.00601905
0.00646874
0.00686978
0.00722527
0.00753831
0.00781208
0.00804975
0.00825444
0.00842916
0.00857678
0.00869988
0.00880083
0.00888164
0.00894399
0.00898915
0.000122486
0.00107661
0.00207963
0.00295093
0.00371825
0.00440359
0.00502001
0.00557549
0.00607544
0.00652396
0.00692457
0.00728051
0.00759494
0.00787093
0.0081115
0.00831958
0.00849796
0.00864924
0.00877583
0.00887988
0.00896326
0.00902752
0.00907384
0.000124756
0.00110952
0.00214324
0.00303508
0.00381381
0.00450388
0.00512046
0.00567321
0.00616881
0.00661232
0.00700801
0.00735962
0.0076706
0.00794418
0.00818339
0.00839104
0.00856979
0.00872204
0.00885
0.0089556
0.00904048
0.00910601
0.00915324
0.000128467
0.00115239
0.00222327
0.00314118
0.00393575
0.00463335
0.00525105
0.00580025
0.00628919
0.00672428
0.00711087
0.00745356
0.00775638
0.00802293
0.00825642
0.00845972
0.0086354
0.00878572
0.00891267
0.00901798
0.00910314
0.0091693
0.00921734
0.000133391
0.00120431
0.00231723
0.0032653
0.0040792
0.00478659
0.00540604
0.00595069
0.00643056
0.00685375
0.00722705
0.00755624
0.00784619
0.00810107
0.00832445
0.00851934
0.00868831
0.00883357
0.00895697
0.00906007
0.00914412
0.00921008
0.00925864
0.000139474
0.0012657
0.00242651
0.00340934
0.00424602
0.00496492
0.00558596
0.00612416
0.00659175
0.00699896
0.00735441
0.00766531
0.0079376
0.00817618
0.00838505
0.00856747
0.0087261
0.0088631
0.00898021
0.0090788
0.00915995
0.00922443
0.00927276
0.000146815
0.00133849
0.00255603
0.00358036
0.00444395
0.00517549
0.00579654
0.00632481
0.0067755
0.00716159
0.00749396
0.00778149
0.00803129
0.00824906
0.00843925
0.00860536
0.00875012
0.00887565
0.00898358
0.00907515
0.00915126
0.00921252
0.00925932
0.000155647
0.00142617
0.00271405
0.00379009
0.0046856
0.00542966
0.00604685
0.00655926
0.00698642
0.00734491
0.00764824
0.00790708
0.00812973
0.00832254
0.0084903
0.00863668
0.00876441
0.00887554
0.00897158
0.00905363
0.00912244
0.00917849
0.00922204
0.000166361
0.00153414
0.00291307
0.00405557
0.00498821
0.00574177
0.0063473
0.0068344
0.0072289
0.00755184
0.00781959
0.0080445
0.00823573
0.00840005
0.0085424
0.00866637
0.00877461
0.00886902
0.00895094
0.00902133
0.00908079
0.00912967
0.00916813
0.000179603
0.00167092
0.00317329
0.00440247
0.00537481
0.0061283
0.00670782
0.00715532
0.00750515
0.00778334
0.0080088
0.00819499
0.00835142
0.00848475
0.00859971
0.00869963
0.00878686
0.00886308
0.00892942
0.00898665
0.00903523
0.0090754
0.00910721
0.000196558
0.00185213
0.00353274
0.00487303
0.00587685
0.0066068
0.00713531
0.00752285
0.00781348
0.00803733
0.00821453
0.00835843
0.00847796
0.0085791
0.00866594
0.00874129
0.00880707
0.00886461
0.00891479
0.00895819
0.00899512
0.00902569
0.00904988
0.000219955
0.00211783
0.00407676
0.00554151
0.00653543
0.00719155
0.00762962
0.00793137
0.00814751
0.00830871
0.00843353
0.00853345
0.00861569
0.00868493
0.00874423
0.00879563
0.00884052
0.00887983
0.00891416
0.00894389
0.00896917
0.00899005
0.00900643
0.000255977
0.00262878
0.00503088
0.00654171
0.00739581
0.00788356
0.00817735
0.00836626
0.00849575
0.00858972
0.00866132
0.00871812
0.00876466
0.00880379
0.00883729
0.00886637
0.00889179
0.00891409
0.00893358
0.00895046
0.0089648
0.00897656
0.00898566
0.000302402
0.00428857
0.00703923
0.008059
0.00845869
0.00864316
0.00874238
0.00880266
0.00884286
0.00887171
0.00889361
0.00891101
0.00892532
0.0089374
0.0089478
0.00895686
0.00896482
0.00897182
0.00897795
0.00898326
0.00898777
0.00899144
0.00899423
0.000464359
0.000435916
0.000420684
0.00041338
0.00365106
0.00337492
0.00322508
0.00315211
0.00588968
0.00561544
0.0053813
0.00519127
0.00697058
0.00672527
0.00648157
0.0062534
0.0075746
0.00735759
0.0071296
0.00689711
0.0080389
0.00785475
0.00765574
0.00744654
0.00846062
0.00830555
0.0081338
0.00795122
0.0088182
0.00869095
0.00854512
0.00839142
0.00903992
0.00894507
0.00883585
0.00871885
0.00911868
0.00905773
0.00898473
0.00890241
0.00914881
0.00910398
0.00905013
0.00898844
0.00916292
0.0091269
0.00908335
0.00903308
0.00916026
0.00913119
0.00909554
0.00905396
0.00913982
0.00911654
0.0090875
0.00905316
0.00910474
0.00908605
0.00906235
0.0090339
0.00905969
0.0090446
0.00902516
0.00900148
0.00900924
0.00899714
0.00898125
0.0089616
0.00895726
0.00894787
0.00893513
0.00891902
0.00890694
0.00890013
0.00889032
0.00887745
0.00886074
0.00885649
0.00884949
0.00883966
0.0088209
0.00881924
0.00881497
0.00880801
0.00878987
0.00879076
0.00878912
0.00878485
0.00877043
0.00877376
0.00877455
0.0087727
0.00876558
0.00877112
0.00877402
0.00877421
0.00877813
0.00878549
0.00879007
0.00879179
0.00880996
0.00881866
0.00882436
0.00882704
0.00886126
0.00887075
0.00887702
0.00888006
0.00892974
0.00893954
0.0089459
0.00894881
0.00901031
0.00902012
0.00902627
0.00902876
0.00909525
0.00910502
0.00911093
0.00911301
0.009175
0.0091849
0.00919085
0.00919286
0.00923975
0.00925011
0.00925652
0.00925896
0.00928186
0.00929294
0.00930016
0.00930351
0.00929663
0.00930844
0.00931663
0.00932118
0.00928322
0.00929547
0.00930444
0.00931009
0.00924493
0.00925699
0.0092662
0.00927252
0.00918877
0.00919983
0.00920851
0.00921475
0.00912442
0.00913371
0.00914107
0.00914644
0.00906291
0.00906989
0.00907537
0.0090793
0.00901507
0.00901961
0.00902306
0.00902538
0.00899028
0.00899262
0.00899429
0.00899527
0.00899558
0.00899622
0.00899663
0.00899681
0.000971447
0.00175256
0.00261941
0.00337612
0.00393723
0.0042834
0.00447641
0.00454169
0.00448878
0.00431784
0.00405458
0.0037536
0.00344723
0.00315122
0.00286348
0.00254635
0.00209278
0.00130793
0.000205348
0.00326852
0.00342654
0.0037598
0.00419483
0.00456249
0.00482207
0.00498153
0.00504098
0.00499053
0.00483794
0.00460391
0.00431928
0.00401303
0.00369527
0.00335703
0.00294962
0.00235128
0.0014159
0.000210272
0.00495546
0.00468078
0.00472028
0.00491775
0.00512664
0.00529635
0.00541392
0.00546425
0.00541663
0.00527282
0.00505269
0.0047768
0.00446345
0.00411937
0.00372431
0.00321765
0.0024898
0.00143622
0.000210618
0.00588888
0.00550429
0.00545431
0.00553499
0.00562813
0.00572118
0.00579701
0.00583155
0.00578273
0.00563581
0.00540928
0.00511944
0.00478125
0.00439739
0.00393623
0.00334207
0.00252212
0.00139728
0.00020918
0.00654469
0.00617627
0.00604985
0.00604515
0.00607068
0.00611056
0.00614718
0.00615371
0.00609481
0.00594386
0.00569698
0.00536846
0.0049774
0.00453577
0.00401017
0.00335879
0.00251975
0.00140975
0.000211889
0.00713531
0.00678581
0.00660129
0.00651956
0.00648981
0.00649219
0.00649132
0.00646085
0.00637496
0.00620845
0.00594497
0.00557823
0.00511719
0.00459881
0.00399562
0.00329248
0.00248497
0.00145209
0.000224759
0.00768131
0.00736009
0.00712656
0.00698391
0.00690364
0.00686118
0.00681917
0.00674957
0.00662882
0.00643219
0.00614361
0.00575216
0.00525754
0.00466788
0.00397748
0.00319101
0.00234888
0.00136887
0.000223612
0.00815817
0.00785357
0.00760501
0.00742869
0.00730531
0.00721525
0.00712681
0.00701171
0.00684646
0.00660928
0.00628963
0.00587964
0.00537175
0.00476946
0.00402943
0.00317204
0.00222068
0.00119728
0.00018961
0.00852689
0.00824983
0.00800844
0.00781875
0.00766574
0.00753427
0.00740131
0.00723993
0.00702619
0.0067392
0.00637861
0.00594516
0.00542939
0.00485205
0.00413451
0.00326261
0.00225082
0.00111381
0.000185537
0.00875732
0.00852888
0.00830844
0.00811718
0.00795106
0.00779266
0.00762244
0.00741891
0.00716127
0.00683256
0.00643413
0.00596894
0.0054572
0.00488846
0.00421959
0.00340048
0.00241734
0.00125912
0.000187705
0.00887581
0.00869132
0.00850261
0.00832401
0.00815443
0.00798022
0.00778098
0.00753921
0.00724224
0.00688115
0.00645623
0.00597578
0.00545049
0.00489089
0.00425543
0.00348654
0.00254238
0.00137571
0.000188185
0.00894003
0.00878787
0.00862677
0.00846406
0.00829451
0.00810527
0.00788086
0.00760821
0.0072795
0.00689015
0.00644174
0.00594592
0.00541538
0.0048565
0.004235
0.00349642
0.00259444
0.00145187
0.000187912
0.0089764
0.00884745
0.00870653
0.00855449
0.00838299
0.00818111
0.00793655
0.00763932
0.00728505
0.00687177
0.00640434
0.00589481
0.00535539
0.00479002
0.00417076
0.00344735
0.00256684
0.00144901
0.000187853
0.00898851
0.00887754
0.00875112
0.00860644
0.00843394
0.00822345
0.00796439
0.00764925
0.00727567
0.0068446
0.00636281
0.00584036
0.00528853
0.00471249
0.00408945
0.0033711
0.00249759
0.00139346
0.000186004
0.00897984
0.00888336
0.00876847
0.00863027
0.00845889
0.00824475
0.00797804
0.00765318
0.00726921
0.00682804
0.0063361
0.00580366
0.00524247
0.00465533
0.00402431
0.00330389
0.00242605
0.00131529
0.000185829
0.00895608
0.00887173
0.00876687
0.00863541
0.00846787
0.008255
0.00798817
0.00766218
0.00727729
0.00683552
0.00634211
0.00580632
0.00523945
0.00464549
0.00400576
0.00327723
0.00238202
0.00126526
0.000188961
0.00892342
0.00884949
0.00875398
0.00863021
0.00846925
0.00826224
0.00800159
0.00768288
0.00730565
0.00687256
0.00638766
0.00585842
0.00529408
0.00469724
0.00405018
0.00331074
0.00240232
0.00127764
0.000193869
0.00888711
0.00882249
0.00873606
0.00862097
0.00846889
0.00827153
0.00802207
0.00771676
0.00735497
0.00693826
0.00647007
0.00595615
0.00540222
0.00480766
0.00415525
0.00340549
0.00248876
0.00134538
0.000199666
0.00885119
0.00879516
0.00871759
0.00861186
0.00847027
0.00828516
0.00805037
0.00776251
0.00742077
0.00702603
0.00658043
0.00608704
0.0055481
0.00495994
0.00430452
0.00354216
0.00261052
0.00144377
0.000205631
0.00881864
0.00877067
0.00870168
0.00860555
0.00847516
0.00830364
0.00808536
0.00781706
0.00749758
0.00712704
0.00670618
0.00623573
0.00571437
0.00513444
0.00447503
0.00369576
0.00273592
0.00152912
0.000211566
0.00879189
0.00875143
0.00869056
0.0086038
0.00848451
0.00832673
0.0081253
0.00787691
0.00757995
0.00723361
0.00683725
0.00638922
0.00588479
0.00531224
0.00464726
0.00384774
0.00285215
0.00159212
0.000215749
0.00877323
0.00873958
0.00868608
0.00860787
0.00849903
0.00835422
0.00816873
0.00793919
0.00766341
0.00733965
0.00696575
0.00653779
0.0060479
0.0054807
0.00480868
0.00398772
0.00295507
0.00164238
0.00021856
0.00876506
0.00873728
0.00869009
0.00861924
0.00851964
0.00838624
0.00821487
0.00800206
0.00774504
0.00744108
0.00708654
0.00667536
0.00619692
0.00563277
0.00495274
0.00411096
0.0030437
0.00168345
0.000220384
0.00876983
0.00874673
0.00870447
0.00863942
0.00854721
0.00842325
0.0082636
0.00806473
0.00782334
0.00753575
0.00719691
0.00679887
0.00632867
0.00576546
0.00507698
0.004216
0.00311807
0.00171647
0.000221363
0.00878978
0.00876991
0.00873095
0.00866984
0.00858284
0.00846594
0.00831522
0.00812712
0.00789787
0.00762291
0.00729594
0.00690738
0.00644241
0.0058783
0.00518131
0.00430323
0.00317902
0.00174243
0.000221508
0.00882637
0.00880814
0.00877071
0.00871153
0.00862745
0.00851492
0.00837021
0.00818958
0.00796886
0.00770275
0.00738386
0.00700131
0.00653882
0.00597233
0.00526706
0.00437415
0.00322813
0.00176285
0.000221196
0.0088797
0.00886155
0.00882392
0.00876473
0.00868131
0.00857052
0.00842891
0.00825249
0.00803678
0.00777586
0.00746149
0.00708177
0.00661936
0.0060493
0.00533617
0.00443073
0.00326717
0.00177893
0.000220814
0.00894792
0.00892855
0.00888929
0.00882844
0.00874372
0.00863236
0.00849108
0.00831594
0.008102
0.00784295
0.00752988
0.00715017
0.0066858
0.00611124
0.00539077
0.00447495
0.0032977
0.00179181
0.000220235
0.00902687
0.00900553
0.00896376
0.00890015
0.00881274
0.00869903
0.00855591
0.00837947
0.00816463
0.00790457
0.00759005
0.00720797
0.00673992
0.00616014
0.00543282
0.00450849
0.00332075
0.00180166
0.00021946
0.00911015
0.00908682
0.00904244
0.00897579
0.00888512
0.00876809
0.00862171
0.00844214
0.00822425
0.00796101
0.00764283
0.00725648
0.0067834
0.00619783
0.00546405
0.00453268
0.00333688
0.00180761
0.00021856
0.00918968
0.00916518
0.00911899
0.00904998
0.00895644
0.00883612
0.00868607
0.00850246
0.00828018
0.00801222
0.00768888
0.00729685
0.00681773
0.00622593
0.005486
0.00454868
0.0033467
0.00180947
0.000217434
0.00925644
0.00923244
0.00918616
0.00911643
0.0090215
0.00889902
0.00874598
0.00855851
0.00833149
0.00805803
0.00772863
0.0073301
0.00684426
0.00624595
0.00550011
0.00455772
0.00335124
0.0018085
0.00021579
0.00930264
0.00928087
0.00923675
0.00916872
0.00907478
0.00895234
0.00879815
0.00860813
0.0083771
0.00809827
0.00776249
0.00735707
0.00686427
0.00625935
0.00550787
0.00456124
0.00335196
0.00180658
0.000213648
0.00932261
0.00930458
0.00926471
0.00920107
0.00911111
0.00899178
0.00883933
0.00864921
0.00841595
0.00813281
0.00779107
0.00737873
0.00687889
0.00626754
0.00551077
0.00456065
0.00335002
0.0018045
0.000211682
0.00931392
0.00930043
0.00926632
0.00920932
0.00912639
0.00901366
0.00886663
0.00867988
0.00844723
0.00816169
0.00781503
0.00739621
0.00688943
0.00627174
0.00551007
0.00455702
0.00334573
0.00180118
0.000210154
0.00927814
0.00926896
0.00924108
0.00919202
0.00911838
0.00901558
0.00887799
0.00869888
0.00847061
0.00818535
0.00783527
0.00741068
0.00689726
0.00627336
0.00550687
0.00455108
0.00333938
0.00179627
0.00020856
0.009221
0.00921495
0.00919257
0.00915138
0.00908792
0.00899734
0.00887279
0.00870589
0.00848656
0.0082048
0.00785303
0.0074234
0.00690368
0.00627376
0.00550258
0.00454401
0.00333181
0.0017905
0.000206708
0.00915201
0.00914739
0.00912892
0.0090943
0.0090403
0.00896227
0.00885299
0.00870232
0.00849684
0.00822193
0.00786992
0.00743569
0.00690984
0.00627415
0.00549858
0.00453749
0.00332468
0.0017844
0.000205652
0.00908317
0.00907856
0.00906249
0.00903281
0.0089866
0.0089197
0.00882557
0.00869303
0.00850539
0.00823951
0.00788773
0.00744868
0.00691659
0.00627539
0.00549601
0.00453312
0.00332024
0.00178048
0.000205695
0.00902725
0.00902229
0.0090083
0.0089832
0.00894423
0.00888742
0.00880664
0.00869105
0.0085206
0.00826055
0.00790732
0.0074626
0.00692407
0.00627774
0.00549532
0.00453168
0.00331971
0.00178024
0.000206674
0.00899566
0.00899133
0.00898091
0.00896263
0.00893396
0.00889099
0.00882697
0.00872872
0.00856559
0.00828563
0.00792608
0.00747561
0.00693122
0.00628061
0.00549611
0.00453278
0.00332268
0.00178312
0.000208513
0.00899668
0.00899479
0.00899067
0.00898354
0.0089722
0.00895451
0.00892585
0.00887177
0.00873077
0.00830682
0.00793586
0.00748334
0.00693576
0.00628268
0.00549719
0.00453489
0.00332713
0.00178598
0.000209671
)
;

boundaryField
{
    leftWall
    {
        type            nutkWallFunction;
        Cmu             0.09;
        kappa           0.41;
        E               9.8;
        value           nonuniform List<scalar> 
50
(
7.58487e-06
1.03153e-05
1.17857e-05
1.28617e-05
1.37499e-05
1.45351e-05
1.5227e-05
1.58419e-05
1.67226e-05
1.78358e-05
1.98105e-05
2.21403e-05
2.36545e-05
2.18655e-05
1.73988e-05
1.72495e-05
1.79552e-05
1.90205e-05
2.00476e-05
2.09714e-05
2.17757e-05
2.2273e-05
2.24676e-05
2.23733e-05
2.20006e-05
2.13589e-05
2.04651e-05
1.93484e-05
1.81817e-05
1.6903e-05
1.53915e-05
1.35304e-05
1.17999e-05
1.02959e-05
9.16043e-06
8.49198e-06
8.2659e-06
8.39554e-06
8.79308e-06
9.39609e-06
1.01717e-05
1.11129e-05
1.22333e-05
1.35648e-05
1.51602e-05
1.71061e-05
1.95646e-05
2.29455e-05
2.84881e-05
3.85383e-05
)
;
    }
    rightWall
    {
        type            nutkWallFunction;
        Cmu             0.09;
        kappa           0.41;
        E               9.8;
        value           nonuniform List<scalar> 
50
(
1.23566e-05
1.55051e-05
1.74083e-05
1.89341e-05
2.02273e-05
2.1355e-05
2.23454e-05
2.31987e-05
2.39387e-05
2.46783e-05
2.47056e-05
2.43618e-05
2.4239e-05
2.51018e-05
2.61554e-05
2.27321e-05
1.83052e-05
1.87149e-05
1.92417e-05
1.90176e-05
1.87227e-05
1.75787e-05
1.74261e-05
1.79427e-05
1.90627e-05
1.9995e-05
2.08533e-05
2.16983e-05
2.23794e-05
2.28579e-05
2.31753e-05
2.3314e-05
2.32379e-05
2.33174e-05
2.33092e-05
2.32393e-05
2.31367e-05
2.3015e-05
2.28639e-05
2.25146e-05
2.21671e-05
2.19692e-05
2.17474e-05
2.13663e-05
2.10398e-05
2.08991e-05
2.08935e-05
2.10127e-05
2.12459e-05
2.13639e-05
)
;
    }
    lowerWall
    {
        type            nutkWallFunction;
        Cmu             0.09;
        kappa           0.41;
        E               9.8;
        value           nonuniform List<scalar> 
62
(
3.5204e-06
5.3228e-06
6.4386e-06
7.20961e-06
7.79716e-06
8.27686e-06
8.68602e-06
9.04573e-06
9.37129e-06
9.67524e-06
9.96921e-06
1.02615e-05
1.0556e-05
1.08486e-05
1.11258e-05
1.13669e-05
1.15442e-05
1.15978e-05
1.14351e-05
1.10284e-05
1.02311e-05
8.72584e-06
5.70917e-06
5.70917e-06
1.77218e-05
2.12161e-05
2.43494e-05
2.7595e-05
3.09913e-05
3.52311e-05
4.26407e-05
5.02872e-05
4.76455e-05
4.63565e-05
4.59506e-05
7.21331e-06
2.15554e-05
2.32251e-05
2.37191e-05
2.42962e-05
2.6428e-05
3.17588e-05
4.16999e-05
7.21331e-06
9.84726e-06
1.16579e-05
1.24562e-05
1.25518e-05
1.24724e-05
1.24227e-05
1.23653e-05
1.2064e-05
1.12902e-05
1.03291e-05
9.33318e-06
8.4083e-06
7.56565e-06
6.71146e-06
6.346e-06
6.1669e-06
6.04834e-06
5.37815e-06
)
;
    }
    atmosphere
    {
        type            calculated;
        value           nonuniform List<scalar> 
46
(
0.000302402
0.009
0.009
0.009
0.009
0.009
0.009
0.009
0.009
0.009
0.009
0.009
0.009
0.009
0.009
0.009
0.009
0.009
0.009
0.009
0.009
0.009
0.009
0.009
0.009
0.009
0.009
0.009
0.009
0.009
0.009
0.009
0.009
0.009
0.009
0.009
0.00830682
0.00793586
0.00748334
0.00693576
0.00628268
0.00549719
0.00453489
0.00332713
0.00178598
0.000209671
)
;
    }
    defaultFaces
    {
        type            empty;
    }
}


// ************************************************************************* //
