/*--------------------------------*- C++ -*----------------------------------*\
| =========                 |                                                 |
| \\      /  F ield         | OpenFOAM: The Open Source CFD Toolbox           |
|  \\    /   O peration     | Version:  2.3.0                                 |
|   \\  /    A nd           | Web:      www.OpenFOAM.org                      |
|    \\/     M anipulation  |                                                 |
\*---------------------------------------------------------------------------*/
FoamFile
{
    version     2.0;
    format      ascii;
    class       volScalarField;
    location    "2.1";
    object      p;
}
// * * * * * * * * * * * * * * * * * * * * * * * * * * * * * * * * * * * * * //

dimensions      [1 -1 -2 0 0 0 0];

internalField   nonuniform List<scalar> 
2268
(
671.313
671.012
671.485
672.577
674.113
676.047
678.329
680.897
683.668
686.549
689.443
692.26
694.92
697.363
699.554
701.474
703.177
704.755
706.115
708.077
710.891
713.656
715.306
612.562
612.185
612.548
613.577
615.082
616.997
619.272
621.841
624.623
627.522
630.438
633.277
635.961
638.434
640.682
642.737
644.65
646.662
649.262
651.427
652.797
654.128
655.954
553.681
553.415
553.691
554.625
556.056
557.926
560.176
562.74
565.532
568.455
571.404
574.28
577
579.516
581.83
583.997
586.111
588.478
591.93
594.084
594.569
594.453
596.694
494.682
494.599
494.81
495.656
497.01
498.83
501.06
503.627
506.443
509.406
512.404
515.332
518.1
520.661
523.018
525.234
527.419
529.828
533.217
535.473
535.754
534.972
537.808
435.594
435.671
435.856
436.624
437.904
439.681
441.905
444.495
447.358
450.383
453.45
456.447
459.276
461.881
464.261
466.46
468.577
470.77
473.539
475.783
476.045
475.788
479.396
376.41
376.608
376.79
377.486
378.701
380.445
382.683
385.319
388.255
391.367
394.529
397.618
400.522
403.178
405.57
407.706
409.653
411.489
413.532
415.171
415.227
416.193
421.299
317.132
317.416
317.596
318.229
319.382
321.105
323.376
326.081
329.112
332.334
335.611
338.809
341.8
344.512
346.911
348.953
350.651
352.022
353.261
353.895
353.211
355.317
362.959
257.763
258.089
258.281
258.841
259.941
261.662
263.994
266.787
269.928
273.261
276.646
279.937
282.999
285.754
288.153
290.068
291.428
292.198
292.502
291.939
289.929
290.882
302.942
668.452
665.248
679.818
699.685
718.281
734.602
748.644
759.775
767.882
776.017
788.487
806.196
824.526
839.164
848.281
857.346
869.083
883.042
891.122
610.722
606.401
619.734
639.501
658.696
675.727
690.465
702.52
711.801
719.651
732.1
749.626
768.181
783.722
795.735
803.367
811.349
823.323
832.505
551.021
546.926
560.46
579.415
598.599
615.889
630.937
643.744
654.536
664.715
677.798
694.635
712.033
728.315
743.005
750.398
756.56
764.999
774.38
490.424
487.027
502.476
521.338
540.16
557.334
572.33
585.107
596.296
608.013
622.175
638.844
655.5
672.43
689.347
697.076
703.098
709.845
717.82
429.375
427.841
445.127
464.486
482.808
499.717
514.73
527.749
538.878
550.095
564.101
581.027
598.396
615.905
633.982
643.544
649.972
655.009
662.29
367.625
370.108
388.799
408.252
425.905
442.537
457.709
471.303
482.515
491.933
502.809
520.99
540.795
559.013
577.088
589.75
597.12
600.137
606.873
304.227
314.016
333.395
352.217
369.12
385.543
401.046
415.671
427.956
438.612
450.02
463.598
482.848
501.99
519.868
534.292
543.141
545.563
551.794
237.678
256.124
276.916
295.325
312.165
328.6
344.544
360.815
375.67
392.491
405.881
414.998
427.246
444.904
462.539
477.101
488.229
491.845
497.793
164.813
165.087
165.226
165.659
166.686
168.479
170.994
174.027
177.445
181.026
184.615
188.057
191.208
194.015
196.422
198.148
198.939
198.644
197.323
194.736
190.265
184.704
178.395
53.3421
53.5908
53.8334
54.2154
54.9642
56.2962
58.3111
60.7085
63.6297
66.7579
69.8266
72.6754
75.2115
77.4683
79.4655
80.8365
81.3531
80.6019
78.5624
75.4301
70.5825
63.712
55.7188
3.09528
3.17231
3.42774
3.7554
4.09898
4.49469
5.03516
5.74536
6.90053
8.26717
9.585
10.7946
11.8696
12.6946
13.1971
13.603
14.5095
15.1648
14.9176
13.9053
12.3522
10.9555
8.60062
-0.0945661
-0.125987
-0.0169354
0.210507
0.353976
0.442764
0.493503
0.510258
0.807631
1.13944
1.35633
1.52775
1.63935
1.51605
1.06392
0.635095
1.40062
2.6655
3.36734
3.66958
4.09018
5.50141
7.05666
-0.58341
-0.60877
-0.569138
-0.450959
-0.360023
-0.276718
-0.144755
0.0190935
0.102796
0.258499
0.451455
0.663693
0.908539
0.987543
0.684142
0.533103
0.772315
1.44257
2.6481
3.31936
3.99137
4.97547
5.30417
-0.955793
-0.962238
-0.979517
-1.00889
-1.00274
-0.970264
-0.874554
-0.712281
-0.739179
-0.798265
-0.756419
-0.636271
-0.446634
-0.286628
-0.30733
-0.221776
-0.216844
-0.193097
0.314563
0.537407
0.854727
1.89674
2.57025
-1.13958
-1.13516
-1.13781
-1.14011
-1.13911
-1.14049
-1.15816
-1.16876
-1.15836
-1.12399
-1.0875
-1.02487
-0.934428
-0.856981
-0.760608
-0.708885
-0.747023
-0.82644
-0.812284
-0.794755
-0.762301
-0.710491
0.0396168
-1.2689
-1.26629
-1.26661
-1.2684
-1.26936
-1.2718
-1.27689
-1.27626
-1.27057
-1.25453
-1.22903
-1.18591
-1.12193
-1.05495
-1.00332
-0.975776
-1.0133
-1.05141
-1.04729
-1.04471
-1.06045
-1.08688
-1.1294
-1.40051
-1.39809
-1.39762
-1.39881
-1.40025
-1.40236
-1.40525
-1.40523
-1.4017
-1.39263
-1.38311
-1.38064
-1.37224
-1.32296
-1.25218
-1.20459
-1.22327
-1.2434
-1.22751
-1.21644
-1.2389
-1.28027
-1.32052
-1.53312
-1.53145
-1.53082
-1.53151
-1.53275
-1.53462
-1.53724
-1.53834
-1.53752
-1.53526
-1.53718
-1.5529
-1.57889
-1.56716
-1.52587
-1.46941
-1.45509
-1.45693
-1.43865
-1.42006
-1.42722
-1.44924
-1.47469
-1.66565
-1.66498
-1.66463
-1.66513
-1.66619
-1.66786
-1.67011
-1.672
-1.67309
-1.67487
-1.68041
-1.69299
-1.71082
-1.7325
-1.73853
-1.71326
-1.67433
-1.66022
-1.6482
-1.63856
-1.62456
-1.6245
-1.63567
-1.79772
-1.79812
-1.79832
-1.79886
-1.79986
-1.80136
-1.80332
-1.80542
-1.80766
-1.8109
-1.81676
-1.82678
-1.84055
-1.85573
-1.867
-1.8651
-1.84318
-1.83346
-1.83474
-1.82756
-1.80492
-1.79431
-1.79653
-1.92931
-1.93063
-1.93154
-1.9323
-1.93329
-1.93468
-1.93648
-1.93862
-1.94119
-1.94468
-1.9499
-1.95757
-1.96737
-1.97747
-1.98388
-1.98273
-1.97734
-1.97796
-1.98037
-1.97003
-1.95631
-1.94974
-1.95157
-2.06048
-2.06257
-2.06414
-2.06517
-2.06621
-2.06751
-2.06917
-2.07119
-2.07371
-2.07699
-2.08139
-2.08715
-2.09397
-2.10072
-2.1053
-2.10599
-2.10505
-2.10685
-2.10683
-2.10121
-2.09495
-2.09354
-2.09787
-2.19138
-2.19401
-2.19606
-2.19734
-2.19843
-2.19967
-2.20118
-2.20303
-2.20532
-2.20822
-2.21187
-2.2163
-2.22124
-2.22601
-2.22963
-2.23133
-2.232
-2.23332
-2.23372
-2.23191
-2.23034
-2.2319
-2.23749
-2.32213
-2.32502
-2.32734
-2.32878
-2.32991
-2.3311
-2.33249
-2.33415
-2.33618
-2.33868
-2.34171
-2.34523
-2.34901
-2.35267
-2.3557
-2.35781
-2.35932
-2.3609
-2.3621
-2.3626
-2.36378
-2.36711
-2.37333
-2.45276
-2.45562
-2.45798
-2.45952
-2.4607
-2.46187
-2.46316
-2.46468
-2.46649
-2.46864
-2.47119
-2.47406
-2.47712
-2.48012
-2.48282
-2.48509
-2.48709
-2.4891
-2.49103
-2.49295
-2.49563
-2.4999
-2.50629
-2.5832
-2.58579
-2.58801
-2.5896
-2.59086
-2.59205
-2.59331
-2.59473
-2.59637
-2.59828
-2.60047
-2.6029
-2.60548
-2.60808
-2.61056
-2.6129
-2.61517
-2.61752
-2.61999
-2.62273
-2.62618
-2.63079
-2.63687
-2.71331
-2.71542
-2.71742
-2.71911
-2.7205
-2.72176
-2.72301
-2.72438
-2.72592
-2.72766
-2.72961
-2.73175
-2.73402
-2.73635
-2.73867
-2.741
-2.74339
-2.74595
-2.74874
-2.7519
-2.75568
-2.76033
-2.76596
-2.84295
-2.84439
-2.84631
-2.84821
-2.84976
-2.85108
-2.85234
-2.85367
-2.85514
-2.85677
-2.85857
-2.86053
-2.8626
-2.86475
-2.86696
-2.86924
-2.87166
-2.87429
-2.8772
-2.88052
-2.88439
-2.88893
-2.89424
-2.9731
-2.97408
-2.97533
-2.97732
-2.97887
-2.98015
-2.98136
-2.98263
-2.98403
-2.98558
-2.98727
-2.98911
-2.99106
-2.9931
-2.99522
-2.99745
-2.99985
-3.00247
-3.00539
-3.0087
-3.0125
-3.01684
-3.02183
-3.10469
-3.10532
-3.10554
-3.10691
-3.10801
-3.10904
-3.1101
-3.11128
-3.11259
-3.11405
-3.11566
-3.11741
-3.11928
-3.12124
-3.12331
-3.12549
-3.12784
-3.13041
-3.13326
-3.13648
-3.14012
-3.14422
-3.14887
-3.23689
-3.23679
-3.23665
-3.23662
-3.237
-3.23767
-3.23855
-3.2396
-3.24082
-3.2422
-3.24374
-3.24541
-3.24721
-3.24912
-3.25113
-3.25327
-3.25556
-3.25806
-3.26082
-3.2639
-3.26735
-3.27118
-3.27548
-3.36722
-3.36685
-3.36619
-3.36552
-3.36548
-3.36591
-3.36665
-3.36761
-3.36877
-3.37008
-3.37155
-3.37316
-3.37489
-3.37674
-3.3787
-3.38078
-3.38302
-3.38544
-3.38809
-3.39102
-3.39426
-3.39783
-3.40179
-3.49538
-3.49478
-3.49383
-3.49335
-3.49334
-3.49373
-3.49443
-3.49535
-3.49647
-3.49774
-3.49916
-3.50071
-3.50238
-3.50417
-3.50607
-3.5081
-3.51027
-3.5126
-3.51514
-3.51791
-3.52095
-3.52427
-3.52791
-3.62301
-3.62196
-3.62109
-3.62076
-3.62085
-3.62128
-3.62198
-3.6229
-3.624
-3.62525
-3.62663
-3.62814
-3.62976
-3.63149
-3.63333
-3.63529
-3.63738
-3.63963
-3.64205
-3.64467
-3.64752
-3.6506
-3.65396
-3.7507
-3.74949
-3.74856
-3.7482
-3.74831
-3.74874
-3.74944
-3.75035
-3.75143
-3.75266
-3.75402
-3.75549
-3.75707
-3.75875
-3.76053
-3.76242
-3.76444
-3.76659
-3.76889
-3.77137
-3.77404
-3.77691
-3.78
-3.87844
-3.87719
-3.87619
-3.87577
-3.87583
-3.87623
-3.8769
-3.87778
-3.87884
-3.88005
-3.88138
-3.88281
-3.88435
-3.88597
-3.8877
-3.88952
-3.89146
-3.89351
-3.8957
-3.89804
-3.90055
-3.90321
-3.90606
-4.00618
-4.00496
-4.00393
-4.00345
-4.00344
-4.00379
-4.00441
-4.00526
-4.00628
-4.00745
-4.00873
-4.01013
-4.01161
-4.01319
-4.01485
-4.0166
-4.01846
-4.02041
-4.02249
-4.02469
-4.02704
-4.02951
-4.03213
-4.13393
-4.13275
-4.13173
-4.13121
-4.13115
-4.13144
-4.132
-4.13279
-4.13376
-4.13487
-4.13611
-4.13745
-4.13887
-4.14039
-4.14198
-4.14366
-4.14542
-4.14728
-4.14923
-4.1513
-4.15349
-4.15577
-4.15818
-4.26165
-4.26054
-4.25955
-4.25902
-4.25892
-4.25915
-4.25966
-4.26038
-4.26129
-4.26234
-4.26351
-4.26478
-4.26613
-4.26757
-4.26908
-4.27067
-4.27234
-4.27409
-4.27592
-4.27785
-4.27988
-4.28199
-4.28419
-4.38935
-4.38832
-4.38737
-4.38684
-4.38672
-4.38691
-4.38735
-4.38802
-4.38885
-4.38983
-4.39093
-4.39212
-4.39339
-4.39474
-4.39616
-4.39765
-4.3992
-4.40083
-4.40254
-4.40432
-4.40619
-4.40812
-4.41012
-4.51701
-4.51606
-4.51518
-4.51466
-4.51452
-4.51467
-4.51507
-4.51567
-4.51644
-4.51734
-4.51836
-4.51946
-4.52064
-4.52188
-4.5232
-4.52457
-4.52601
-4.52751
-4.52907
-4.53071
-4.53241
-4.53417
-4.53598
-4.64463
-4.64377
-4.64294
-4.64245
-4.64231
-4.64244
-4.6428
-4.64334
-4.64404
-4.64486
-4.64578
-4.64679
-4.64786
-4.649
-4.65019
-4.65144
-4.65275
-4.65411
-4.65553
-4.65701
-4.65855
-4.66013
-4.66175
-4.77219
-4.77142
-4.77067
-4.77022
-4.77008
-4.77019
-4.77051
-4.77101
-4.77164
-4.77238
-4.7732
-4.7741
-4.77506
-4.77608
-4.77715
-4.77827
-4.77943
-4.78065
-4.78192
-4.78324
-4.78461
-4.78601
-4.78745
-4.89969
-4.89902
-4.89835
-4.89794
-4.89782
-4.89793
-4.89822
-4.89866
-4.89922
-4.89987
-4.9006
-4.90139
-4.90224
-4.90313
-4.90406
-4.90504
-4.90607
-4.90713
-4.90824
-4.9094
-4.9106
-4.91183
-4.91309
-5.02714
-5.02658
-5.026
-5.02564
-5.02554
-5.02564
-5.02591
-5.0263
-5.02679
-5.02735
-5.02798
-5.02865
-5.02937
-5.03013
-5.03093
-5.03177
-5.03265
-5.03356
-5.03452
-5.03551
-5.03654
-5.03759
-5.03867
-5.15456
-5.1541
-5.15362
-5.15331
-5.15324
-5.15334
-5.15358
-5.15392
-5.15433
-5.1548
-5.15532
-5.15588
-5.15647
-5.1571
-5.15777
-5.15846
-5.15919
-5.15995
-5.16075
-5.16157
-5.16243
-5.16331
-5.1642
-5.28193
-5.28161
-5.28123
-5.28097
-5.28092
-5.28101
-5.28122
-5.28149
-5.28182
-5.2822
-5.28261
-5.28305
-5.28352
-5.28402
-5.28455
-5.2851
-5.28569
-5.2863
-5.28693
-5.28759
-5.28828
-5.28899
-5.28971
-5.40933
-5.40915
-5.40885
-5.4086
-5.40853
-5.40861
-5.40877
-5.40898
-5.40923
-5.4095
-5.40981
-5.41014
-5.41049
-5.41086
-5.41126
-5.41168
-5.41212
-5.41258
-5.41307
-5.41357
-5.41409
-5.41462
-5.41517
-5.53685
-5.53672
-5.53647
-5.53614
-5.53604
-5.5361
-5.53621
-5.53636
-5.53653
-5.53672
-5.53692
-5.53715
-5.53739
-5.53764
-5.53791
-5.5382
-5.53851
-5.53882
-5.53916
-5.53951
-5.53987
-5.54023
-5.54061
-5.66472
-5.66475
-5.66467
-5.66437
-5.66431
-5.66433
-5.66439
-5.66445
-5.66452
-5.6646
-5.66469
-5.66479
-5.66489
-5.665
-5.66512
-5.66524
-5.66538
-5.66552
-5.66566
-5.66581
-5.66597
-5.66612
-5.66628
160.542
155.382
153.629
151.897
48.5392
46.2456
44.2708
41.6132
6.174
5.93396
6.49383
7.05055
6.87868
6.38779
6.16492
6.18798
5.04921
5.14949
5.50132
5.62936
3.11894
3.65387
4.33221
4.77289
0.64969
0.726631
1.01867
1.80681
-1.13105
-1.17915
-1.22251
-1.02509
-1.3125
-1.30058
-1.31887
-1.39262
-1.48046
-1.48121
-1.48602
-1.50873
-1.64739
-1.65746
-1.66967
-1.68384
-1.80584
-1.81528
-1.82652
-1.83878
-1.95853
-1.96601
-1.9751
-1.98446
-2.10323
-2.1102
-2.11762
-2.12483
-2.24368
-2.25013
-2.25616
-2.26196
-2.38054
-2.38573
-2.39096
-2.3962
-2.51252
-2.51734
-2.52261
-2.52774
-2.64263
-2.64736
-2.65253
-2.65746
-2.77156
-2.77614
-2.78112
-2.7858
-2.89956
-2.90392
-2.90865
-2.91308
-3.02682
-3.0309
-3.03535
-3.03952
-3.15349
-3.15728
-3.16143
-3.16534
-3.27972
-3.28319
-3.28703
-3.29068
-3.40564
-3.4088
-3.41231
-3.4157
-3.5314
-3.53425
-3.53743
-3.54053
-3.6571
-3.65965
-3.6625
-3.66531
-3.78283
-3.78509
-3.78762
-3.79013
-3.9086
-3.9106
-3.91283
-3.91504
-4.03442
-4.03618
-4.03813
-4.04005
-4.16024
-4.1618
-4.1635
-4.16517
-4.28604
-4.28741
-4.2889
-4.29036
-4.41179
-4.413
-4.41431
-4.41557
-4.53747
-4.53855
-4.53969
-4.5408
-4.66308
-4.66403
-4.66504
-4.66601
-4.78862
-4.78946
-4.79035
-4.79119
-4.9141
-4.91483
-4.9156
-4.91633
-5.03954
-5.04016
-5.04081
-5.04144
-5.16493
-5.16545
-5.16599
-5.16651
-5.29029
-5.2907
-5.29114
-5.29156
-5.41562
-5.41593
-5.41626
-5.41658
-5.54089
-5.54111
-5.54133
-5.54155
-5.66638
-5.66647
-5.66655
-5.66664
148.282
156.919
179.591
202.034
221.419
238.861
256.056
275.174
294.799
316.938
337.059
347.723
356.877
368.586
382.054
394.32
404.943
409.503
415.334
36.8946
38.8927
54.892
76.8639
98.8724
118.714
137.416
158.111
181.746
209.086
236.463
254.721
267.452
276.826
287.17
294.515
298.605
302.7
307.224
7.83669
9.03195
10.5682
15.4576
24.2051
34.7586
46.2152
58.5979
75.6882
99.4837
126.55
152.278
168.665
180.283
188.917
192.91
193.969
200.532
203.397
6.31472
6.58164
6.87067
7.36848
8.27102
9.54484
11.5367
13.9238
17.3396
26.6509
41.0608
58.5613
74.1865
86.581
92.8129
95.0311
97.5081
104.849
106.766
5.77193
5.98981
6.18819
6.4701
6.92805
7.55116
7.98916
8.3283
8.53826
8.12405
8.46251
13.1881
20.7816
29.4796
35.043
36.3654
35.2707
35.4449
34.3896
5.11311
5.323
5.56553
5.80907
5.92685
5.97376
6.09061
6.20838
6.15862
5.9373
5.36855
4.07738
4.30882
7.78922
10.5968
11.1985
9.71368
5.91527
2.69745
2.98997
3.77514
3.78317
3.54059
3.32986
3.04229
2.97523
3.07107
3.13578
3.00723
2.57509
1.74653
0.249843
0.110304
0.206585
0.500752
0.868617
-0.249759
-1.07219
-0.312844
0.505153
0.41617
-0.0399983
-0.194844
-0.228233
-0.270371
-0.297283
-0.226956
-0.148462
-0.096943
-0.520056
-1.1761
-1.47553
-1.5659
-1.62279
-1.64
-1.54562
-1.44257
-1.47683
-1.45271
-1.4651
-1.52788
-1.50065
-1.48107
-1.49053
-1.52196
-1.56522
-1.58858
-1.52124
-1.51843
-1.58458
-1.64863
-1.66835
-1.67363
-1.66398
-1.64892
-1.63614
-1.59454
-1.69499
-1.71404
-1.65523
-1.61721
-1.60738
-1.6159
-1.63715
-1.66504
-1.69378
-1.74168
-1.7984
-1.77304
-1.78052
-1.79047
-1.79472
-1.78944
-1.7797
-1.76738
-1.70986
-1.74264
-1.76253
-1.76852
-1.76448
-1.76528
-1.77433
-1.79048
-1.81186
-1.83573
-1.86483
-1.88909
-1.89583
-1.90269
-1.90944
-1.91258
-1.91097
-1.90654
-1.8995
-1.8584
-1.88077
-1.89953
-1.91538
-1.92142
-1.92397
-1.9326
-1.94735
-1.96346
-1.97808
-1.99414
-2.00938
-2.0187
-2.02441
-2.02849
-2.03114
-2.03454
-2.03519
-2.03217
-1.99931
-2.01753
-2.03468
-2.05229
-2.06594
-2.07396
-2.08335
-2.09803
-2.10933
-2.11583
-2.11934
-2.12951
-2.13973
-2.14676
-2.15042
-2.15428
-2.15942
-2.16247
-2.16409
-2.13565
-2.1499
-2.16481
-2.18051
-2.19688
-2.21221
-2.22378
-2.23356
-2.24124
-2.24577
-2.2468
-2.25371
-2.26254
-2.2704
-2.2762
-2.28045
-2.28421
-2.28858
-2.28988
-2.27049
-2.28191
-2.29447
-2.30792
-2.32221
-2.3374
-2.34961
-2.35629
-2.36403
-2.37278
-2.37858
-2.38385
-2.38834
-2.39388
-2.40077
-2.40583
-2.4085
-2.40951
-2.4085
-2.40372
-2.41363
-2.42431
-2.43548
-2.44731
-2.45925
-2.47014
-2.47858
-2.48702
-2.49685
-2.50549
-2.51098
-2.51353
-2.51608
-2.5215
-2.52781
-2.52983
-2.52696
-2.52523
-2.53491
-2.54422
-2.55348
-2.56318
-2.57297
-2.58278
-2.59246
-2.60085
-2.60898
-2.61734
-2.62533
-2.63104
-2.63389
-2.63699
-2.64169
-2.64684
-2.6476
-2.64605
-2.6435
-2.66423
-2.67315
-2.68196
-2.69049
-2.69908
-2.70749
-2.71567
-2.72334
-2.73072
-2.73794
-2.74453
-2.74976
-2.75359
-2.75736
-2.7618
-2.76527
-2.76628
-2.76645
-2.76399
-2.79216
-2.8003
-2.80892
-2.81718
-2.82507
-2.83252
-2.83934
-2.84597
-2.85255
-2.8589
-2.86473
-2.86966
-2.87374
-2.87758
-2.88135
-2.88432
-2.88585
-2.8868
-2.8845
-2.91904
-2.92641
-2.93423
-2.94223
-2.94974
-2.9566
-2.96259
-2.96847
-2.97441
-2.98015
-2.98544
-2.99008
-2.99412
-2.99779
-3.00115
-3.00383
-3.00544
-3.0062
-3.00443
-3.04513
-3.05187
-3.05889
-3.06602
-3.07294
-3.07939
-3.08522
-3.0908
-3.09631
-3.1016
-3.10648
-3.11085
-3.11469
-3.11813
-3.12115
-3.12352
-3.12493
-3.12521
-3.12345
-3.17062
-3.17686
-3.18329
-3.18979
-3.19613
-3.20215
-3.20777
-3.21315
-3.21835
-3.22327
-3.2278
-3.23188
-3.23547
-3.23863
-3.2413
-3.24332
-3.2444
-3.24418
-3.24209
-3.29565
-3.30149
-3.30745
-3.3135
-3.31942
-3.3251
-3.33047
-3.33561
-3.34052
-3.34515
-3.34938
-3.35315
-3.35646
-3.3593
-3.36159
-3.3632
-3.36386
-3.36315
-3.36077
-3.42036
-3.42583
-3.43142
-3.4371
-3.44269
-3.44809
-3.45325
-3.45816
-3.46281
-3.46715
-3.47111
-3.4746
-3.47761
-3.48009
-3.48196
-3.48308
-3.48317
-3.48185
-3.47946
-3.54487
-3.54999
-3.55523
-3.56057
-3.56588
-3.57103
-3.57596
-3.58066
-3.58507
-3.58916
-3.59285
-3.59608
-3.59879
-3.6009
-3.60233
-3.60291
-3.60232
-3.60019
-3.5972
-3.66929
-3.67405
-3.67894
-3.68394
-3.68894
-3.69383
-3.69854
-3.70301
-3.7072
-3.71105
-3.71449
-3.71745
-3.71987
-3.72164
-3.72265
-3.72273
-3.72153
-3.71865
-3.7148
-3.79373
-3.79811
-3.80262
-3.80726
-3.81193
-3.81653
-3.82097
-3.8252
-3.82915
-3.83275
-3.83594
-3.83865
-3.84079
-3.84226
-3.84294
-3.84264
-3.841
-3.83767
-3.83368
-3.91826
-3.92224
-3.92636
-3.93061
-3.93491
-3.93917
-3.9433
-3.94725
-3.95092
-3.95427
-3.95721
-3.95967
-3.96156
-3.96279
-3.96323
-3.9627
-3.96086
-3.95736
-3.95323
-4.04291
-4.04649
-4.05021
-4.05407
-4.05797
-4.06185
-4.06563
-4.06925
-4.07263
-4.0757
-4.07837
-4.08059
-4.08226
-4.08329
-4.08357
-4.08293
-4.08107
-4.07765
-4.07322
-4.16768
-4.17088
-4.17421
-4.17766
-4.18116
-4.18465
-4.18806
-4.19133
-4.19438
-4.19715
-4.19955
-4.20152
-4.20298
-4.20384
-4.204
-4.20332
-4.2015
-4.19815
-4.19361
-4.29255
-4.2954
-4.29837
-4.30143
-4.30453
-4.30763
-4.31066
-4.31357
-4.31629
-4.31874
-4.32087
-4.3226
-4.32385
-4.32454
-4.32459
-4.32386
-4.32202
-4.31867
-4.31456
-4.4175
-4.42003
-4.42265
-4.42536
-4.4281
-4.43082
-4.43349
-4.43605
-4.43843
-4.44058
-4.44243
-4.44391
-4.44496
-4.44549
-4.44542
-4.4446
-4.44266
-4.43917
-4.43544
-4.54248
-4.54473
-4.54705
-4.54943
-4.55183
-4.55422
-4.55655
-4.55879
-4.56086
-4.56272
-4.56429
-4.56553
-4.56638
-4.56676
-4.56659
-4.56568
-4.56362
-4.5598
-4.55578
-4.66749
-4.66948
-4.67152
-4.67362
-4.67572
-4.67781
-4.67985
-4.68179
-4.68359
-4.68517
-4.68649
-4.6875
-4.68816
-4.68841
-4.68816
-4.68725
-4.68527
-4.68156
-4.67724
-4.79249
-4.79424
-4.79604
-4.79788
-4.79972
-4.80155
-4.80334
-4.80505
-4.80661
-4.80796
-4.80903
-4.80981
-4.81029
-4.81042
-4.81013
-4.80929
-4.80754
-4.80432
-4.80032
-4.91746
-4.919
-4.92057
-4.92218
-4.9238
-4.92541
-4.927
-4.92852
-4.92991
-4.93106
-4.93189
-4.93244
-4.93273
-4.93274
-4.9324
-4.93159
-4.92993
-4.92688
-4.92327
-5.04241
-5.04374
-5.0451
-5.0465
-5.04791
-5.04934
-5.05077
-5.05218
-5.05347
-5.05446
-5.05505
-5.05536
-5.05544
-5.05531
-5.05489
-5.05405
-5.05233
-5.0491
-5.04536
-5.16733
-5.16845
-5.16961
-5.17079
-5.17201
-5.17328
-5.1746
-5.17596
-5.17728
-5.17818
-5.17848
-5.1785
-5.17836
-5.17808
-5.1776
-5.17674
-5.17497
-5.1716
-5.16774
-5.29222
-5.29313
-5.29407
-5.29504
-5.29606
-5.29716
-5.29839
-5.2998
-5.30139
-5.30235
-5.30222
-5.30184
-5.30143
-5.30099
-5.3005
-5.29974
-5.29808
-5.29476
-5.29088
-5.41708
-5.41777
-5.41848
-5.41922
-5.42001
-5.42091
-5.42204
-5.4237
-5.42629
-5.42779
-5.42662
-5.42547
-5.42463
-5.42399
-5.4235
-5.42296
-5.42165
-5.4186
-5.41478
-5.54191
-5.54237
-5.54284
-5.54331
-5.54382
-5.54444
-5.54544
-5.54766
-5.55292
-5.55557
-5.552
-5.54945
-5.54793
-5.54693
-5.54638
-5.54615
-5.54546
-5.54306
-5.53963
-5.66679
-5.66695
-5.66711
-5.66728
-5.66748
-5.6678
-5.66859
-5.67114
-5.67891
-5.67942
-5.67446
-5.67164
-5.67009
-5.66909
-5.66859
-5.66928
-5.67037
-5.66882
-5.66516
)
;

boundaryField
{
    leftWall
    {
        type            calculated;
        value           nonuniform List<scalar> 
50
(
671.313
612.562
553.681
494.682
435.594
376.41
317.132
257.763
164.813
53.3421
3.09528
-0.0945661
-0.58341
-0.955793
-1.13958
-1.2689
-1.40051
-1.53312
-1.66565
-1.79772
-1.92931
-2.06048
-2.19138
-2.32213
-2.45276
-2.5832
-2.71331
-2.84295
-2.9731
-3.10469
-3.23689
-3.36722
-3.49538
-3.62301
-3.7507
-3.87844
-4.00618
-4.13393
-4.26165
-4.38935
-4.51701
-4.64463
-4.77219
-4.89969
-5.02714
-5.15456
-5.28193
-5.40933
-5.53685
-5.66472
)
;
    }
    rightWall
    {
        type            calculated;
        value           nonuniform List<scalar> 
50
(
891.122
832.505
774.38
717.82
662.29
606.873
551.794
497.793
415.334
307.224
203.397
106.766
34.3896
2.69745
-1.07219
-1.44257
-1.63614
-1.76738
-1.8995
-2.03217
-2.16409
-2.28988
-2.4085
-2.52523
-2.6435
-2.76399
-2.8845
-3.00443
-3.12345
-3.24209
-3.36077
-3.47946
-3.5972
-3.7148
-3.83368
-3.95323
-4.07322
-4.19361
-4.31456
-4.43544
-4.55578
-4.67724
-4.80032
-4.92327
-5.04536
-5.16774
-5.29088
-5.41478
-5.53963
-5.66516
)
;
    }
    lowerWall
    {
        type            calculated;
        value           nonuniform List<scalar> 
62
(
700.743
700.442
700.915
702.006
703.543
705.476
707.758
710.326
713.098
715.979
718.873
721.689
724.349
726.793
728.984
730.903
732.606
734.177
735.2
736.931
740.165
742.932
744.445
715.306
655.954
596.694
537.808
479.396
421.299
362.959
302.942
223.078
217.747
215.675
213.439
668.452
610.722
551.021
490.424
429.375
367.625
304.227
237.678
697.108
693.266
707.457
727.328
745.934
762.053
775.807
786.86
794.927
804.451
817.777
835.486
853.816
868.125
875.39
884.865
897.463
911.422
919.502
)
;
    }
    atmosphere
    {
        type            calculated;
        value           nonuniform List<scalar> 
46
(
-5.72904
-5.72905
-5.72906
-5.72906
-5.72905
-5.72905
-5.72905
-5.72905
-5.72906
-5.72906
-5.72907
-5.72908
-5.72909
-5.7291
-5.72912
-5.72914
-5.72917
-5.72919
-5.72921
-5.72924
-5.72926
-5.72928
-5.72929
-5.7293
-5.7293
-5.7293
-5.72929
-5.72927
-5.72924
-5.72921
-5.72917
-5.72913
-5.72911
-5.72908
-5.72907
-5.72905
-5.72904
-5.72904
-5.72904
-5.72904
-5.72904
-5.72904
-5.73158
-5.73655
-5.73655
-5.73019
)
;
    }
    defaultFaces
    {
        type            empty;
    }
}


// ************************************************************************* //
