/*--------------------------------*- C++ -*----------------------------------*\
| =========                 |                                                 |
| \\      /  F ield         | OpenFOAM: The Open Source CFD Toolbox           |
|  \\    /   O peration     | Version:  2.3.0                                 |
|   \\  /    A nd           | Web:      www.OpenFOAM.org                      |
|    \\/     M anipulation  |                                                 |
\*---------------------------------------------------------------------------*/
FoamFile
{
    version     2.0;
    format      ascii;
    class       volScalarField;
    location    "2.1";
    object      p_rgh;
}
// * * * * * * * * * * * * * * * * * * * * * * * * * * * * * * * * * * * * * //

dimensions      [1 -1 -2 0 0 0 0];

internalField   nonuniform List<scalar> 
2268
(
700.743
700.442
700.915
702.006
703.543
705.476
707.758
710.326
713.098
715.979
718.873
721.689
724.349
726.793
728.984
730.903
732.606
734.177
735.2
736.931
740.165
742.932
744.445
700.85
700.473
700.836
701.865
703.37
705.286
707.56
710.129
712.911
715.81
718.726
721.565
724.248
726.722
728.97
731.025
732.938
734.884
735.675
737.828
740.538
742.182
743.742
700.828
700.562
700.838
701.772
703.203
705.073
707.323
709.886
712.679
715.602
718.55
721.426
724.146
726.663
728.976
731.144
733.258
735.624
736.56
738.084
738.648
741.377
743.83
700.688
700.605
700.816
701.661
703.016
704.836
707.065
709.632
712.449
715.412
718.409
721.337
724.105
726.666
729.024
731.24
733.425
735.833
738.839
737.074
737.355
739.722
743.8
700.458
700.535
700.72
701.488
702.769
704.546
706.769
709.359
712.222
715.247
718.314
721.312
724.14
726.746
729.126
731.325
733.441
735.634
738.403
737.334
736.022
739.341
744.252
700.133
700.331
700.513
701.209
702.423
704.168
706.405
709.042
711.977
715.09
718.252
721.341
724.245
726.901
729.293
731.429
733.376
735.212
737.255
738.859
738.64
739.826
745.014
699.713
699.997
700.177
700.81
701.964
703.686
705.958
708.662
711.694
714.916
718.192
721.39
724.381
727.093
729.493
731.535
733.233
734.604
735.841
736.477
735.793
737.894
745.538
699.204
699.53
699.722
700.281
701.382
703.103
705.434
708.227
711.368
714.701
718.086
721.378
724.439
727.195
729.593
731.509
732.869
733.638
733.943
733.379
731.369
732.322
744.383
697.108
693.266
707.457
727.328
745.934
762.053
775.807
786.86
794.927
804.451
817.777
835.486
853.816
868.125
875.39
884.865
897.463
911.422
919.502
696.69
690.752
705.931
727.467
746.662
763.542
777.312
786.415
792.629
800.203
813.483
836.98
856.037
870.681
875.67
883.3
894.187
908.461
917.645
692.406
688.373
707.072
726.026
745.21
762.499
777.548
790.354
799.369
799.079
812.122
832.786
858.444
873.225
876.219
883.627
889.808
903.304
916.267
688.4
689.488
707.732
726.593
745.412
762.588
777.582
790.361
801.549
805.598
810.338
836.227
860.485
876.638
878.698
883.654
889.67
896.479
912.178
692.242
691.728
709.029
728.382
746.644
763.554
778.567
791.636
802.771
809.171
825.887
844.578
861.951
879.457
893.059
883.462
889.915
906.502
916.096
690.165
692.656
711.348
730.799
748.443
765.042
780.19
793.843
804.968
810.068
816.985
843.113
862.918
881.136
898.636
886.535
891.714
917.367
926.221
683.222
695.028
714.59
733.407
750.309
766.733
782.244
796.874
808.607
771.494
718.116
799.851
863.538
882.682
900.552
913.173
913.914
922.921
929.82
676.967
695.773
716.748
735.157
751.994
768.432
784.378
800.649
814.136
742.057
705.633
714.451
822.88
884.156
901.791
916.34
926.181
928.794
934.454
698.28
698.554
698.693
699.126
700.153
701.946
704.461
707.492
710.909
714.489
718.077
721.52
724.67
727.478
729.885
731.611
732.403
732.109
730.789
728.203
723.732
718.171
711.862
547.356
544.655
541.561
539.743
541.79
550.073
563.874
581.837
601.151
620.269
638.632
655.809
670.702
682.975
693.097
701.026
705.323
703.795
699.038
690.617
675.862
650.757
612.4
39.6784
41.5642
43.3246
44.6161
47.462
51.7291
58.6328
68.1322
81.7607
99.0122
117.279
134.802
151.408
166.921
181.029
191.062
197.131
197.791
193.079
180.217
156.669
118.147
69.8856
3.2902
3.03558
2.85985
2.77894
2.66972
2.63035
2.6579
2.63017
2.92397
3.27679
3.42031
3.40859
3.29338
2.8906
2.27248
1.84263
2.60919
3.87406
4.82486
5.71459
6.75597
8.66653
10.4716
3.54714
2.99842
4.17565
8.55336
8.83536
8.91915
8.64943
2.55374
7.51322
13.9189
15.2329
15.4896
15.7691
15.8135
15.2389
4.16889
2.62868
19.5424
25.5813
26.3266
24.7039
12.683
27.213
1.22878
0.780948
0.630103
0.151555
0.168243
0.623831
4.00371
6.68181
6.43187
3.83734
3.94867
5.0979
8.019
11.9033
5.68277
2.32314
1.80985
9.66733
19.5298
18.0026
16.2635
35.0695
35.8087
0.147242
0.150822
0.147937
0.145638
0.146519
0.144843
0.127179
0.117478
0.126824
0.161204
0.197693
0.26096
0.360091
0.535218
2.62
0.95042
1.61944
1.57914
0.509682
0.500246
0.539234
1.30254
24.7666
0.141046
0.143644
0.14521
0.146202
0.14524
0.139357
0.137196
0.150013
0.149069
0.155649
0.182009
0.459132
2.85918
3.48775
1.96114
0.789145
0.731155
1.04047
1.14562
0.375236
0.357415
0.33296
0.296629
0.134524
0.136959
0.141843
0.142034
0.139387
0.133789
0.153503
0.155519
0.153105
0.142454
0.152779
0.719475
3.31691
3.62314
3.69391
1.10683
0.606846
0.995595
1.86193
0.969201
0.304335
0.263508
0.225608
0.127096
0.128805
0.130305
0.132497
0.128192
0.126787
0.131126
0.141579
0.126679
0.124967
0.125665
0.11889
0.10124
2.53255
3.74784
2.66027
0.470838
0.826681
1.90276
1.69399
0.242125
0.219847
0.199535
0.119763
0.120443
0.120782
0.120306
0.119224
0.117707
0.115309
0.113786
0.112323
0.11054
0.105082
0.0924377
0.0746765
0.145313
1.10682
1.52972
0.360275
0.569142
1.94519
1.76485
0.316134
0.171244
0.221635
0.112936
0.11249
0.112292
0.111751
0.110755
0.109254
0.107289
0.105189
0.102944
0.0997031
0.0938447
0.0838344
0.0700867
0.0548952
0.0440889
0.0522913
0.161209
0.519291
1.06333
0.408802
0.2039
0.164766
0.315543
0.106608
0.105175
0.104262
0.103505
0.102513
0.101126
0.0993243
0.0971867
0.094612
0.0911211
0.0859068
0.078269
0.0684718
0.0583298
0.0519382
0.053257
0.082474
0.228281
0.1651
0.0659958
0.0803088
0.103172
0.302869
0.100637
0.0984306
0.0968621
0.0958277
0.0947937
0.0934897
0.0918343
0.0898038
0.0872875
0.0840115
0.0796155
0.073863
0.0670419
0.060275
0.0556953
0.0550264
0.060746
0.0670768
0.0542629
0.0597931
0.0661064
0.067914
0.199195
0.0949352
0.0921859
0.0901304
0.0888512
0.0877654
0.086529
0.0850175
0.0831647
0.0808711
0.0779747
0.0743208
0.0698875
0.0649555
0.0601791
0.0565613
0.0548847
0.0543796
0.0528918
0.0524712
0.0542838
0.0558633
0.0543521
0.130811
0.0893903
0.0863999
0.0840521
0.0826063
0.0814735
0.080288
0.078903
0.0772356
0.0752015
0.0727034
0.069673
0.0661549
0.0623726
0.058719
0.0556821
0.0535794
0.0520672
0.0504853
0.0492871
0.0487807
0.0476046
0.0471753
0.101335
0.0839638
0.0810461
0.0786152
0.077065
0.0758816
0.0747159
0.0734188
0.0719023
0.0700952
0.0679359
0.065394
0.0625165
0.0594592
0.0564586
0.053759
0.0514873
0.0494885
0.0474806
0.0455505
0.0436275
0.0409496
0.0388642
0.0651231
0.0786377
0.0760459
0.0738107
0.0721763
0.0709139
0.0697241
0.0684655
0.067047
0.0654051
0.0634968
0.0613078
0.058873
0.0562911
0.0536981
0.0512131
0.0488785
0.046607
0.0442549
0.041783
0.0390431
0.0356565
0.033341
0.0260205
0.0736703
0.0715658
0.069567
0.0678653
0.0664736
0.0652172
0.0639574
0.0625907
0.061054
0.0593132
0.0573596
0.0552174
0.0529466
0.0506219
0.0482956
0.0459687
0.0435755
0.0410211
0.0382317
0.0350708
0.0313731
0.0275528
0.0210134
0.0692133
0.0677755
0.0658561
0.0639516
0.0624081
0.0610881
0.059824
0.0584917
0.0570257
0.0553949
0.0535923
0.051635
0.0495611
0.0474119
0.0452059
0.0429236
0.0405063
0.0378772
0.0349587
0.0316407
0.0278063
0.0232329
0.0179194
0.111877
0.141292
0.0823636
0.0600376
0.058487
0.0572115
0.0560002
0.0547256
0.0533281
0.0517827
0.0500848
0.0482476
0.0462972
0.0442584
0.0421359
0.0399045
0.0375121
0.034892
0.0319706
0.0286584
0.0248608
0.0205149
0.0155255
0.160438
0.160385
0.1589
0.0630924
0.0545438
0.0535179
0.0524511
0.051278
0.0499659
0.048503
0.046891
0.0451421
0.0432761
0.0413098
0.0392453
0.0370607
0.0347124
0.0321431
0.0292874
0.0260712
0.0224299
0.0183281
0.013682
0.158083
0.157903
0.153654
0.0645608
0.0508617
0.0501379
0.0492
0.0481477
0.0469261
0.0455429
0.0440078
0.0423339
0.0405373
0.0386309
0.0366169
0.0344789
0.0321829
0.0296827
0.0269235
0.0238444
0.0203976
0.0165627
0.0122639
0.0684648
0.115521
0.0693539
0.0542421
0.0477639
0.0470713
0.0462912
0.0453295
0.0441777
0.0428592
0.0413898
0.0397829
0.0380514
0.0362044
0.0342438
0.0321581
0.0299224
0.0275012
0.0248512
0.0219237
0.0186815
0.0151134
0.0111511
0.042827
0.0441067
0.0443472
0.0449009
0.0449226
0.044417
0.0437108
0.0427851
0.0416703
0.0403944
0.0389749
0.0374245
0.0357525
0.033965
0.0320626
0.0300369
0.02787
0.0255354
0.0230001
0.0202257
0.0171837
0.0138688
0.0102217
0.0403205
0.0413744
0.0422397
0.0425711
0.0424766
0.0420511
0.0413529
0.0404337
0.0393344
0.0380832
0.0366986
0.0351925
0.0335721
0.031841
0.0299986
0.0280382
0.0259464
0.0237033
0.0212841
0.0186592
0.0158069
0.012727
0.00936962
0.0378229
0.0390333
0.0399698
0.0403209
0.0402179
0.0397858
0.03909
0.0381787
0.0370921
0.0358601
0.0345028
0.033033
0.0314573
0.0297783
0.0279949
0.0261016
0.0240877
0.0219383
0.0196344
0.0171538
0.0144801
0.0116174
0.00852552
0.0352811
0.0365304
0.0375298
0.0379505
0.0378928
0.0374926
0.0368242
0.0359377
0.0348749
0.0336683
0.0323409
0.0309068
0.0293738
0.0277452
0.0260204
0.024195
0.0222606
0.0202056
0.018016
0.0156748
0.0131702
0.0105097
0.00766234
0.0327298
0.0339588
0.0349849
0.0354672
0.0354692
0.0351222
0.0345015
0.0336581
0.0326351
0.0314672
0.0301793
0.0287878
0.0273024
0.0257277
0.0240647
0.0223103
0.0204582
0.0184998
0.0164245
0.0142197
0.0118772
0.00940747
0.00678754
0.0301833
0.0313626
0.0323816
0.0329012
0.0329573
0.0326684
0.0321056
0.0313184
0.0303495
0.0292344
0.0279993
0.0266622
0.0252344
0.0237225
0.0221289
0.0204525
0.0186888
0.0168317
0.0148735
0.012805
0.0106209
0.00833399
0.00592838
0.0276515
0.0287639
0.0297527
0.0302869
0.0303844
0.0301492
0.0296458
0.0289208
0.0280157
0.0269651
0.0257953
0.0245254
0.0231679
0.0217309
0.0202183
0.0186303
0.0169645
0.0152166
0.0133812
0.0114518
0.00942545
0.00731687
0.00511592
0.0251465
0.0261805
0.027124
0.0276557
0.0277813
0.0275911
0.0271431
0.026481
0.0256441
0.0246656
0.0235713
0.0223804
0.0211062
0.0197574
0.0183388
0.0168516
0.0152949
0.0136659
0.011961
0.0101757
0.00830907
0.00637683
0.00437338
0.0226797
0.0236278
0.0245155
0.0250321
0.0251735
0.0250183
0.0246192
0.0240174
0.0232498
0.0223479
0.0213367
0.0202348
0.0190555
0.0178075
0.0164956
0.0151217
0.0136853
0.0121852
0.010619
0.00898382
0.0072798
0.00552334
0.00371186
0.0202606
0.0211179
0.0219415
0.0224323
0.0225783
0.0224481
0.0220908
0.0215453
0.0208466
0.0200245
0.0191023
0.0180978
0.0170235
0.015887
0.0146928
0.0134426
0.0121367
0.0107744
0.00935444
0.00787477
0.00633659
0.00475595
0.00313208
0.0178949
0.0186583
0.01941
0.019865
0.020005
0.0198905
0.0195679
0.0190752
0.0184453
0.0177058
0.0168782
0.0159783
0.0150168
0.0140002
0.012932
0.0118139
0.0106464
0.00942911
0.00816125
0.00684168
0.00547205
0.00406743
0.00262786
0.0155842
0.0162506
0.0169224
0.0173326
0.017457
0.0173498
0.0170566
0.0166143
0.0160541
0.0154007
0.0146727
0.0138831
0.0130402
0.0121494
0.0112132
0.0102331
0.00920942
0.00814207
0.00703059
0.00587434
0.00467519
0.00344664
0.00218893
0.0133255
0.0138892
0.0144724
0.0148309
0.0149325
0.0148269
0.0145601
0.0141686
0.0136805
0.013117
0.0124928
0.0118174
0.0110972
0.0103358
0.00953523
0.0086965
0.00781987
0.0069053
0.00595254
0.00496136
0.00393358
0.00288085
0.00180329
0.0111092
0.0115602
0.0120461
0.0123501
0.0124264
0.0123215
0.0120828
0.0117456
0.011334
0.0108643
0.0103469
0.00978825
0.00919243
0.00856194
0.00789825
0.00720199
0.00647331
0.0057122
0.00491861
0.00409258
0.00323595
0.00235838
0.00145974
0.00892948
0.00924433
0.00962621
0.00988512
0.00994352
0.00984584
0.00964266
0.00936656
0.0090364
0.00866331
0.00825382
0.00781179
0.00733962
0.00683893
0.0063107
0.00575535
0.00517295
0.00456356
0.00392734
0.00326468
0.00257751
0.0018735
0.00115182
0.00672814
0.0069086
0.0071991
0.00745664
0.00752141
0.00744371
0.00728488
0.00707546
0.00682856
0.00655096
0.00624644
0.00591712
0.00556433
0.00518901
0.00479179
0.00437293
0.00393251
0.00347066
0.00298775
0.00248451
0.00196292
0.00142883
0.000879974
0.00440051
0.00453317
0.00477324
0.00510958
0.00520331
0.00515069
0.00503688
0.00489128
0.00472202
0.00453284
0.00432578
0.00410185
0.00386157
0.00360534
0.00333343
0.00304588
0.0027427
0.00242405
0.00209038
0.00174262
0.00138256
0.00101484
0.000642319
0.00172261
0.0016959
0.00177628
0.00206776
0.0021329
0.00210788
0.00205544
0.00199137
0.00191869
0.0018384
0.00175077
0.00165568
0.00155299
0.00144266
0.00132472
0.00119924
0.00106641
0.000926651
0.000780671
0.000629498
0.000474434
0.000317932
0.000164998
693.493
686.866
682.395
676.369
569.504
525.037
465.398
405.254
13.5467
10.0985
9.82009
10.3451
12.1646
11.9838
9.9868
10.0087
34.6934
31.4835
9.86015
9.97758
36.3252
37.0143
29.2672
9.65954
37.8535
37.8081
37.8649
37.7131
0.815404
0.805198
5.60066
20.5836
0.235071
0.324625
0.797551
1.80787
0.187663
0.180877
0.177073
0.154151
0.155607
0.129086
0.115927
0.101888
0.272491
0.0955169
0.0841734
0.0720235
0.308098
0.150376
0.0607484
0.0519793
0.314593
0.171211
0.0433926
0.036266
0.31403
0.13112
0.0300321
0.0242519
0.107589
0.0282267
0.0204248
0.0151874
0.0241104
0.0192382
0.0139658
0.0088386
0.0191842
0.0144149
0.00924167
0.00431596
0.0154058
0.0108276
0.00584886
0.00116647
0.0126008
0.00824326
0.0035146
-0.000912457
0.0105423
0.00645291
0.0020061
-0.00216321
0.00906525
0.00527363
0.00112712
-0.00278529
0.0080301
0.00455188
0.00071781
-0.00293514
0.00729967
0.0041391
0.000626251
-0.00275862
0.00673711
0.00388971
0.000704456
-0.00239856
0.00622713
0.0036819
0.000825992
-0.00198142
0.00569609
0.00343629
0.000903157
-0.00160186
0.00511607
0.00311926
0.000891869
-0.00131567
0.0044959
0.00273519
0.000787187
-0.00114029
0.00386593
0.00231286
0.00061214
-0.00106261
0.00326112
0.00188883
0.000401876
-0.00105265
0.00270839
0.00149348
0.000189253
-0.00107734
0.0022221
0.00114548
-1.85018e-06
-0.00110849
0.00180623
0.000853613
-0.000156055
-0.00112447
0.00145815
0.000620219
-0.000264515
-0.0011102
0.00117059
0.000442149
-0.00032516
-0.00105822
0.000933523
0.000311731
-0.000342311
-0.00096857
0.000736498
0.000219501
-0.000323748
-0.000846135
0.00057246
0.000158444
-0.00027601
-0.000695878
0.000435033
0.000120155
-0.000207161
-0.000523003
0.00035382
0.00014284
-8.14024e-05
-0.000302502
5.89138e-05
-2.2576e-05
-0.000111131
-0.000200286
656.616
652.016
687.34
722.271
749.79
766.844
778.348
804.712
824.24
804.076
708.189
709.592
718.746
779.72
830.813
857.172
908.721
935.494
942.372
278.799
234.091
356.446
505.774
620.247
664.466
670.147
748.04
804.792
830.991
844.499
728.121
714.367
723.604
735.118
780.83
935.836
951.977
956.181
11.2531
12.3625
24.1735
79.3358
179.779
293.36
384.2
486.524
639.663
778.996
830.306
852.54
834.263
798.722
887.64
946.025
960.121
972.644
974.564
10.1361
10.4767
11.5403
12.6066
14.6523
16.928
40.2651
63.4959
101.439
279.792
520.241
666.435
721.507
758.418
782.341
785.117
806.329
900.818
979.488
10.1308
10.4094
10.7836
11.4041
12.9211
14.8807
16.4407
18.1941
19.8152
20.757
48.8105
190.394
294.042
345.822
368.415
363.923
347.324
497.778
569.328
10.0582
10.2672
10.5577
11.0216
13.6179
26.046
28.6709
22.8976
21.63
21.4506
20.7976
19.3467
72.6192
156.893
214.298
224.055
181.858
138.705
71.5864
29.6481
12.4448
22.507
42.4415
44.1279
44.0775
44.1371
44.357
44.4217
44.2896
33.1456
18.2433
14.6419
32.9554
38.9568
50.3838
66.14
35.9009
1.6709
32.9261
36.7723
38.376
38.5453
32.7875
30.5059
28.5892
27.9073
32.2799
36.0443
35.691
25.6227
0.658426
-0.0252253
-0.115826
-0.172544
-0.188665
-0.0564228
1.36631
6.31308
11.1146
10.5876
2.88539
1.24808
0.734594
0.446624
0.276676
0.182348
0.000377733
4.99987
8.64231
-0.00534547
-0.0696941
-0.0895705
-0.0947055
-0.0849266
-0.0686143
-0.0497054
0.070629
-0.0254728
-0.0241098
0.263951
0.333473
0.304504
0.23227
0.165063
0.119663
0.0215129
-0.0306985
-0.0868776
0.277015
-0.0683976
-0.0830554
-0.0871956
-0.0814243
0.000436403
0.0116354
0.0760971
0.0438824
0.0383709
0.408738
0.527848
0.527152
0.515843
0.49994
0.47918
0.285159
-0.0272229
-0.0447923
0.167227
-0.0572534
-0.0738647
-0.0764265
0.0614938
0.157055
0.164254
0.0525829
0.0304354
0.0147019
0.296916
0.532048
0.529391
0.520579
0.505738
0.488971
0.472424
-0.0288068
-0.0628917
-0.0728038
-0.0619361
-0.0645759
0.0348456
0.174508
0.173568
0.176066
0.0374699
0.0190406
0.00188974
-0.0128577
0.205395
0.54005
0.530479
0.436089
0.383012
0.335725
0.00495614
-0.0446948
-0.0717589
-0.0741342
-0.00399966
0.199635
0.194465
0.191333
0.181556
0.0410163
0.0450514
0.0167074
-0.0114124
-0.0277194
0.138533
0.29376
-0.0723016
-0.0799411
0.143046
0.285617
0.252431
-0.0771274
-0.0992112
0.0722016
0.216957
0.214341
0.178242
-0.0718128
0.0431192
0.0693948
0.0568441
0.00158483
-0.0225256
-0.0509738
-0.0631787
-0.0698601
-0.0748206
0.0932951
0.300579
0.291114
0.100636
-0.107267
-0.0825327
0.139814
0.232591
-0.0916524
-0.115705
0.0329179
0.0664421
0.0557625
0.0445977
0.00116575
-0.0464187
-0.0585
-0.0660527
-0.0714444
-0.0781062
0.0195728
0.0684446
-0.0458743
-0.104262
-0.0924974
0.0127744
-0.0283653
-0.109784
-0.106146
0.00719173
0.0549727
0.0553513
0.0456516
0.0358654
0.00735029
-0.0550709
-0.0641735
-0.0723074
-0.080669
-0.0886546
-0.0943631
-0.0972132
-0.0999435
-0.0621085
-0.0739376
-0.110996
-0.102667
0.017524
-0.00245438
0.00431018
0.0553096
0.0471052
0.0385196
0.0301048
-0.0361196
-0.0614666
-0.0688421
-0.0760231
-0.0826342
-0.0878809
-0.0917087
-0.09339
-0.093891
-0.103497
-0.104502
-0.086669
0.0576314
-0.00518881
-0.013334
-0.00855427
0.0361242
0.0412865
0.0338254
-0.0292436
-0.0588457
-0.0653125
-0.0698104
-0.0754285
-0.082412
-0.0866488
-0.0905408
-0.0943848
-0.0973458
-0.0988789
-0.0814171
0.0698296
-0.00688056
-0.0142492
-0.0220624
-0.0300659
-0.025965
-0.0258932
-0.0404297
-0.0560431
-0.0618392
-0.0649058
-0.069883
-0.0745519
-0.0815068
-0.0856258
-0.0889872
-0.0916664
-0.0932795
-0.0784765
0.0825471
-0.00777374
-0.0145165
-0.021535
-0.0286597
-0.0355828
-0.0420296
-0.0478615
-0.053242
-0.0569816
-0.0607023
-0.0655809
-0.0699557
-0.0762579
-0.0807646
-0.0837827
-0.0861564
-0.0875757
-0.0713677
0.0955445
-0.00806555
-0.0143082
-0.0207331
-0.0272368
-0.0335781
-0.0395946
-0.0452158
-0.050593
-0.0550807
-0.0579186
-0.0621633
-0.0684431
-0.072816
-0.0760656
-0.0787365
-0.0807639
-0.0818498
-0.0614637
0.108959
-0.00790394
-0.0137389
-0.0197081
-0.02575
-0.0316722
-0.0373489
-0.0427281
-0.0478649
-0.0527764
-0.0566931
-0.0590036
-0.0640332
-0.0685224
-0.0714318
-0.0738273
-0.0754526
-0.0761097
-0.063483
0.12142
-0.00741709
-0.0128918
-0.0184836
-0.0241578
-0.0297518
-0.0351521
-0.0403054
-0.0452137
-0.0498637
-0.0542063
-0.0579368
-0.0607248
-0.0636782
-0.066524
-0.0689668
-0.0701377
-0.0702267
-0.0689039
0.107066
-0.0067303
-0.0118538
-0.0170954
-0.0224383
-0.0277393
-0.0328898
-0.037827
-0.0425204
-0.0469361
-0.0510228
-0.0547155
-0.0579204
-0.0603591
-0.0624439
-0.0640634
-0.0647705
-0.0641868
-0.0620574
0.043489
-0.00596125
-0.0107201
-0.0156057
-0.0206121
-0.0256125
-0.0305027
-0.0352109
-0.0396841
-0.0438731
-0.0477204
-0.0511604
-0.054123
-0.0565349
-0.0583072
-0.059321
-0.0593965
-0.0581963
-0.0553209
0.0983447
-0.00520827
-0.00958389
-0.014094
-0.0187387
-0.0234069
-0.0280013
-0.0324452
-0.0366721
-0.0406202
-0.0442253
-0.0474181
-0.0501241
-0.0522618
-0.0537345
-0.054418
-0.0541175
-0.0524756
-0.0361968
0.125891
-0.00454051
-0.00852125
-0.0126388
-0.0168953
-0.0211948
-0.0254498
-0.0295844
-0.0335261
-0.037205
-0.040551
-0.0434919
-0.0459507
-0.047843
-0.0490705
-0.0495125
-0.048984
-0.0471377
-0.00649732
0.137188
-0.00399278
-0.00757975
-0.011299
-0.015152
-0.019056
-0.0229359
-0.0267208
-0.0303388
-0.0337172
-0.0367825
-0.0394608
-0.0416764
-0.0433458
-0.0443749
-0.044653
-0.0440191
-0.0421571
0.0011072
0.148055
-0.00356784
-0.00677581
-0.0101058
-0.0135559
-0.0170554
-0.020542
-0.0239529
-0.0272204
-0.0302736
-0.0330391
-0.0354448
-0.0374163
-0.0388751
-0.0397332
-0.039891
-0.0392092
-0.0373867
-0.0197422
0.158425
-0.00324616
-0.00610098
-0.00906324
-0.0121271
-0.0152321
-0.0183277
-0.0213603
-0.0242683
-0.0269853
-0.0294417
-0.0315678
-0.0332934
-0.0345454
-0.0352418
-0.0352894
-0.034552
-0.0327209
-0.0293672
0.166771
-0.00299798
-0.0055317
-0.00815622
-0.0108621
-0.0135977
-0.0163227
-0.0189915
-0.0215494
-0.023935
-0.0260834
-0.0279302
-0.0294111
-0.0304582
-0.0309945
-0.0309265
-0.0300991
-0.0281664
-0.0246699
0.0943119
-0.00279247
-0.00503788
-0.0073578
-0.00974021
-0.0121412
-0.0145281
-0.0168623
-0.0190953
-0.0211697
-0.0230233
-0.0245979
-0.0258394
-0.0266879
-0.0270714
-0.0268956
-0.0259859
-0.0239257
-0.00819707
0.0689347
-0.00260221
-0.00458895
-0.00663596
-0.00873042
-0.0108347
-0.0129228
-0.0149618
-0.0169077
-0.0187043
-0.0202868
-0.0216024
-0.0226125
-0.0232725
-0.0235218
-0.0232741
-0.0223651
-0.0203832
0.0439273
0.129173
-0.00240543
-0.0041577
-0.00595908
-0.00779759
-0.00964208
-0.0114725
-0.0132613
-0.014968
-0.0165323
-0.0178755
-0.0189461
-0.0197308
-0.0202083
-0.0203366
-0.0200464
-0.0192048
-0.0174551
0.0274452
0.135088
-0.00218774
-0.00372296
-0.00529928
-0.00690738
-0.00852398
-0.0101361
-0.0117223
-0.0132462
-0.0146384
-0.015781
-0.0166137
-0.017169
-0.0174585
-0.0174603
-0.0171172
-0.016307
-0.0146585
0.000456049
0.0401367
-0.00194231
-0.00327018
-0.00463363
-0.00602814
-0.00744062
-0.00886777
-0.010299
-0.0117051
-0.0130045
-0.0139928
-0.0145802
-0.0148877
-0.0149729
-0.0148343
-0.0144164
-0.0135728
-0.0118555
-0.00862733
-0.00488357
-0.00166766
-0.00278986
-0.00394336
-0.00513029
-0.00634963
-0.00761403
-0.00893166
-0.010294
-0.0116135
-0.0125107
-0.0128141
-0.0128368
-0.0126948
-0.0124086
-0.011928
-0.0110718
-0.00930057
-0.00593729
-0.00206474
-0.00136355
-0.00227471
-0.00321233
-0.00418447
-0.00520348
-0.0063023
-0.0075304
-0.00894214
-0.0105305
-0.0114926
-0.011357
-0.0109825
-0.0105652
-0.0101294
-0.00963232
-0.00887464
-0.00722159
-0.00389962
-5.71511e-07
-0.00102803
-0.00171892
-0.00242817
-0.00316648
-0.00395497
-0.0048534
-0.00598693
-0.00764132
-0.0102395
-0.011739
-0.0105643
-0.00941711
-0.00857324
-0.00793311
-0.00744053
-0.0069061
-0.00558947
-0.00254189
0.00128966
-0.000659277
-0.00112276
-0.00158698
-0.00206208
-0.00257008
-0.00318675
-0.00419065
-0.00640731
-0.0116667
-0.0143237
-0.0107461
-0.00820237
-0.00667492
-0.00568297
-0.00508765
-0.00489871
-0.000835877
-0.00171971
0.00163448
-0.000342907
-0.000509238
-0.000671086
-0.000839698
-0.00103898
-0.0013574
-0.00215018
-0.00470096
-0.0124626
-0.0129735
-0.00801471
-0.00519532
-0.00364925
-0.00264567
-0.00214174
-0.000326284
0.00350148
0.0050483
0.00241919
)
;

boundaryField
{
    leftWall
    {
        type            fixedFluxPressure;
        gradient        uniform 0;
        value           nonuniform List<scalar> 
50
(
700.743
700.85
700.828
700.688
700.458
700.133
699.713
699.204
698.28
547.356
39.6784
3.2902
3.54714
1.22878
0.147242
0.141046
0.134524
0.127096
0.119763
0.112936
0.106608
0.100637
0.0949352
0.0893903
0.0839638
0.0786377
0.0736703
0.0692133
0.111877
0.160438
0.158083
0.0684648
0.042827
0.0403205
0.0378229
0.0352811
0.0327298
0.0301833
0.0276515
0.0251465
0.0226797
0.0202606
0.0178949
0.0155842
0.0133255
0.0111092
0.00892948
0.00672814
0.00440051
0.00172261
)
;
    }
    rightWall
    {
        type            fixedFluxPressure;
        gradient        uniform 0;
        value           nonuniform List<scalar> 
50
(
919.502
917.645
916.267
912.178
916.096
926.221
929.82
934.454
942.372
956.181
974.564
979.488
569.328
71.5864
1.6709
1.36631
-0.0497054
0.0116354
0.164254
0.176066
0.181556
-0.0718128
-0.115705
-0.106146
0.017524
0.0576314
0.0698296
0.0825471
0.0955445
0.108959
0.12142
0.107066
0.043489
0.0983447
0.125891
0.137188
0.148055
0.158425
0.166771
0.0943119
0.0689347
0.129173
0.135088
0.0401367
-0.00488357
-0.00206474
-5.71511e-07
0.00128966
0.00163448
0.00241919
)
;
    }
    lowerWall
    {
        type            fixedFluxPressure;
        gradient        uniform 0;
        value           nonuniform List<scalar> 
62
(
700.743
700.442
700.915
702.006
703.543
705.476
707.758
710.326
713.098
715.979
718.873
721.689
724.349
726.793
728.984
730.903
732.606
734.177
735.2
736.931
740.165
742.932
744.445
744.445
743.742
743.83
743.8
744.252
745.014
745.538
744.383
693.493
686.866
682.395
676.369
697.108
696.69
692.406
688.4
692.242
690.165
683.222
676.967
697.108
693.266
707.457
727.328
745.934
762.053
775.807
786.86
794.927
804.451
817.777
835.486
853.816
868.125
875.39
884.865
897.463
911.422
919.502
)
;
    }
    atmosphere
    {
        type            totalPressure;
        rho             rho;
        psi             none;
        gamma           1;
        p0              uniform 0;
        value           nonuniform List<scalar> 
46
(
0
-9.68454e-06
-1.66871e-05
-1.57705e-05
-1.41867e-05
-1.31305e-05
-1.29996e-05
-1.40265e-05
-1.6477e-05
-2.07003e-05
-2.71184e-05
-3.61646e-05
-4.81932e-05
-6.3385e-05
-8.16707e-05
-0.000102689
-0.000125787
-0.000150073
-0.0001745
-0.000197978
-0.000219481
-0.000238139
-0.000253321
-0.000260616
-0.000261668
-0.00025806
-0.000250303
-0.000232999
-0.000200904
-0.000165018
-0.000128507
-9.44683e-05
-6.55912e-05
-4.24996e-05
-2.59037e-05
-8.01901e-06
0
0
0
0
0
0
0
0
0
0
)
;
    }
    defaultFaces
    {
        type            empty;
    }
}


// ************************************************************************* //
