/*--------------------------------*- C++ -*----------------------------------*\
| =========                 |                                                 |
| \\      /  F ield         | OpenFOAM: The Open Source CFD Toolbox           |
|  \\    /   O peration     | Version:  2.3.0                                 |
|   \\  /    A nd           | Web:      www.OpenFOAM.org                      |
|    \\/     M anipulation  |                                                 |
\*---------------------------------------------------------------------------*/
FoamFile
{
    version     2.0;
    format      ascii;
    class       volScalarField;
    location    "0.095";
    object      T;
}
// * * * * * * * * * * * * * * * * * * * * * * * * * * * * * * * * * * * * * //

dimensions      [0 0 0 1 0 0 0];

internalField   nonuniform List<scalar> 
12225
(
1.00702
1.00235
1.00097
1.00057
1.00029
1.0001
1.00001
0.999957
0.999927
0.999907
0.99989
0.999868
0.999821
0.999709
0.99943
0.998745
0.997022
0.992751
0.99388
0.995662
0.997505
0.998595
0.999122
0.9994
0.999575
0.999689
0.999763
0.999811
0.999839
0.999846
0.99982
0.999724
0.999465
0.998815
0.997224
0.993344
1.00047
1.00054
1.00043
1.00038
1.00027
1.00015
1.00007
1.00002
0.999985
0.999961
0.99994
0.999915
0.999868
0.999761
0.999509
0.99891
0.997528
0.994461
1.00033
0.999923
0.999616
0.999668
0.999738
0.999771
0.999797
0.999822
0.999841
0.999855
0.999863
0.999858
0.999827
0.99974
0.999521
0.999006
0.997864
0.995513
1.00018
1
0.999776
0.999808
0.999867
0.999886
0.999893
0.999898
0.999902
0.999903
0.999901
0.999889
0.999857
0.999776
0.999583
0.99915
0.998242
0.996503
1.00003
0.999994
0.999833
0.999822
0.999856
0.999871
0.999878
0.999884
0.999889
0.999893
0.999893
0.999884
0.999857
0.999789
0.99963
0.999283
0.99859
0.997341
1.00001
1.00003
0.999913
0.999874
0.999883
0.999891
0.999895
0.999898
0.999902
0.999904
0.999903
0.999895
0.999872
0.999815
0.999687
0.99942
0.998909
0.998034
1
1.00003
0.999948
0.999903
0.9999
0.999903
0.999905
0.999906
0.999908
0.99991
0.999909
0.999902
0.999883
0.999835
0.999732
0.999525
0.999138
0.9985
1
1.00003
0.99997
0.999929
0.999919
0.999917
0.999916
0.999916
0.999917
0.999918
0.999916
0.99991
0.999894
0.999854
0.999772
0.999609
0.999316
0.998843
0.999998
1.00002
0.999986
0.999952
0.999938
0.999932
0.999929
0.999927
0.999927
0.999926
0.999924
0.999919
0.999906
0.999874
0.999811
0.99969
0.999476
0.99914
0.999998
1.00002
0.999996
0.99997
0.999956
0.999948
0.999943
0.99994
0.999939
0.999937
0.999933
0.999928
0.999918
0.999896
0.999849
0.999762
0.999615
0.999388
0.999998
1.00001
1
0.999983
0.999972
0.999964
0.999958
0.999954
0.99995
0.999948
0.999945
0.999941
0.999933
0.999916
0.999884
0.999826
0.999728
0.999584
0.999998
1.00001
1.00001
0.999993
0.999984
0.999977
0.999972
0.999967
0.999963
0.99996
0.999958
0.999952
0.999947
0.999935
0.999914
0.999877
0.999817
0.999731
0.999998
1.00001
1.00001
1
0.999993
0.999986
0.999982
0.999979
0.999975
0.999972
0.999969
0.999966
0.99996
0.999953
0.999939
0.999917
0.999883
0.999836
0.999998
1.00001
1.00001
1
0.999998
0.999995
0.999991
0.999988
0.999985
0.999982
0.99998
0.999977
0.999973
0.999968
0.999959
0.999947
0.999929
0.999905
0.999999
1.00001
1.00001
1
1
1
0.999997
0.999994
0.999992
0.99999
0.999989
0.999988
0.999984
0.99998
0.999975
0.999967
0.999958
0.999948
0.999998
1.00001
1.00001
1
1
1
1
0.999999
0.999997
0.999996
0.999994
0.999992
0.99999
0.999989
0.999986
0.999981
0.999975
0.999971
0.999999
1
1.00001
1.00001
1.00001
1.00001
1
0.999999
0.999998
0.999998
0.999997
0.999996
0.999994
0.999991
0.999987
0.999984
0.999982
0.999981
0.999999
1.00001
1.00001
1.00001
1.00001
1.00001
1
0.999999
0.999996
0.999995
0.999993
0.999991
0.999989
0.999988
0.999987
0.999983
0.99998
0.999981
0.999998
1.00001
1.00001
1.00001
1
1
1
0.999996
0.999992
0.999989
0.999988
0.999986
0.999984
0.999983
0.999981
0.999979
0.999977
0.999979
0.999997
1.00001
1.00001
1.00001
1
0.999995
0.999992
0.999987
0.999983
0.99998
0.999977
0.999975
0.999973
0.999972
0.999971
0.999969
0.999967
0.999968
0.999997
1.00001
1.00002
1.00001
0.999995
0.999987
0.999982
0.999976
0.999973
0.99997
0.999967
0.999966
0.999966
0.999964
0.999963
0.999963
0.99996
0.999961
0.999996
1.00003
1.00002
0.999994
0.999975
0.999966
0.999959
0.999954
0.999952
0.99995
0.999949
0.999948
0.999948
0.999949
0.999948
0.999948
0.999948
0.99995
0.999994
1.00005
1.00003
0.999984
0.999963
0.999957
0.999953
0.99995
0.999949
0.999948
0.999947
0.999947
0.999948
0.999948
0.999948
0.999948
0.999948
0.999949
0.999986
1.00005
0.999974
0.999913
0.9999
0.9999
0.9999
0.999902
0.999905
0.999908
0.999911
0.999914
0.999918
0.999921
0.999925
0.999927
0.999928
0.999931
1.00011
1.00014
0.999977
0.99993
0.999954
0.99997
0.999971
0.999969
0.999965
0.999962
0.999959
0.999954
0.999952
0.99995
0.999949
0.999948
0.999947
0.999947
1.00029
1.00004
0.999634
0.999556
0.999609
0.999662
0.999706
0.999746
0.999781
0.999809
0.999832
0.99985
0.999865
0.999878
0.999888
0.999897
0.999905
0.999908
1.00089
1.00118
1.00097
1.00079
1.00062
1.00045
1.00031
1.00022
1.00015
1.0001
1.00006
1.00003
1.00001
0.999992
0.999981
0.999974
0.99997
0.999957
0.993498
0.994872
0.996789
0.998012
0.998681
0.999064
0.999313
0.999485
0.999605
0.99969
0.99975
0.999794
0.999827
0.999852
0.999872
0.999888
0.999905
0.999901
1.00657
1.00291
1.00132
1.00082
1.00049
1.00027
1.00014
1.00007
1.00002
0.99999
0.999968
0.999954
0.999944
0.999937
0.999933
0.999931
0.999938
0.999912
0.787929
0.78793
0.787887
0.787838
0.787793
0.787742
0.787689
0.787634
0.787571
0.787507
0.787446
0.787384
0.787322
0.787261
0.787201
0.787142
0.787087
0.787035
0.786988
0.786946
0.786911
0.786884
0.786865
0.786856
0.786857
0.786871
0.786896
0.786936
0.78699
0.787059
0.787144
0.787247
0.787367
0.787505
0.787663
0.78784
0.788037
0.788256
0.788495
0.788755
0.789038
0.789342
0.789668
0.790016
0.790385
0.790777
0.79119
0.791624
0.792079
0.792556
0.793052
0.793568
0.794104
0.794658
0.795229
0.795818
0.796422
0.797043
0.797677
0.798325
0.798986
0.799659
0.800343
0.801037
0.80174
0.80245
0.803169
0.803893
0.804623
0.805358
0.806097
0.806838
0.807582
0.808328
0.809074
0.809821
0.810567
0.811312
0.812055
0.812796
0.813535
0.81427
0.815001
0.815728
0.81645
0.817168
0.817879
0.818585
0.819285
0.819977
0.820663
0.821342
0.822013
0.822676
0.82333
0.823976
0.824614
0.825242
0.825862
0.826471
0.827071
0.827662
0.828243
0.828815
0.829376
0.829927
0.830468
0.830998
0.831519
0.83203
0.83253
0.833021
0.833501
0.83397
0.83443
0.834879
0.835317
0.835745
0.836163
0.836569
0.836965
0.83735
0.837724
0.838086
0.838438
0.838778
0.839107
0.839425
0.839731
0.840025
0.840307
0.840577
0.840835
0.84108
0.841314
0.841535
0.841743
0.841938
0.842121
0.842291
0.842447
0.842591
0.84272
0.842837
0.842939
0.843028
0.843103
0.843164
0.843212
0.843246
0.843265
0.84327
0.843261
0.843238
0.843201
0.84315
0.843084
0.843005
0.84291
0.842804
0.842679
0.842541
0.842399
0.84221
0.842005
0.841787
0.841527
0.841256
0.840975
0.840683
0.840379
0.840064
0.839738
0.8394
0.839053
0.838691
0.838343
0.837907
0.837785
0.836049
0.788525
0.788508
0.788498
0.788483
0.788462
0.788436
0.788406
0.78837
0.788324
0.788271
0.788212
0.78815
0.788086
0.788021
0.787956
0.787892
0.787831
0.787773
0.78772
0.787672
0.787631
0.787597
0.787573
0.787558
0.787554
0.787561
0.787582
0.787616
0.787664
0.787728
0.787809
0.787906
0.788021
0.788155
0.788307
0.788479
0.788672
0.788885
0.789119
0.789375
0.789652
0.789951
0.790272
0.790615
0.79098
0.791366
0.791774
0.792204
0.792655
0.793126
0.793617
0.794128
0.794658
0.795207
0.795773
0.796356
0.796955
0.79757
0.798199
0.798842
0.799498
0.800165
0.800843
0.801532
0.802229
0.802935
0.803647
0.804367
0.805091
0.805821
0.806554
0.80729
0.808029
0.808769
0.80951
0.810251
0.810991
0.811731
0.812469
0.813204
0.813937
0.814666
0.815391
0.816113
0.816829
0.81754
0.818246
0.818945
0.819639
0.820325
0.821004
0.821676
0.82234
0.822996
0.823643
0.824281
0.824911
0.825532
0.826143
0.826745
0.827337
0.82792
0.828493
0.829056
0.829609
0.830152
0.830685
0.831207
0.831719
0.832221
0.832713
0.833195
0.833666
0.834127
0.834577
0.835017
0.835446
0.835865
0.836273
0.83667
0.837056
0.837431
0.837795
0.838148
0.83849
0.83882
0.839138
0.839446
0.839741
0.840025
0.840297
0.840556
0.840804
0.841039
0.841262
0.841472
0.841669
0.841854
0.842026
0.842185
0.84233
0.842463
0.842581
0.842687
0.842778
0.842856
0.84292
0.84297
0.843006
0.843028
0.843035
0.843029
0.843008
0.842972
0.842923
0.842858
0.842779
0.842686
0.842577
0.842455
0.842314
0.84216
0.842001
0.841807
0.841609
0.841409
0.841182
0.840941
0.840686
0.840418
0.840137
0.839844
0.839538
0.839221
0.838896
0.838558
0.838231
0.837844
0.837665
0.836489
0.789759
0.78969
0.789656
0.789632
0.789606
0.789572
0.78953
0.789481
0.789424
0.789362
0.789295
0.789225
0.789153
0.789081
0.789009
0.788938
0.788871
0.788807
0.788748
0.788694
0.788648
0.788609
0.788579
0.788559
0.78855
0.788552
0.788567
0.788596
0.788639
0.788698
0.788772
0.788864
0.788973
0.7891
0.789246
0.789412
0.789598
0.789804
0.790031
0.790279
0.790549
0.79084
0.791153
0.791488
0.791845
0.792223
0.792623
0.793044
0.793486
0.793949
0.794431
0.794934
0.795455
0.795995
0.796553
0.797127
0.797718
0.798324
0.798945
0.79958
0.800227
0.800887
0.801557
0.802238
0.802928
0.803626
0.804332
0.805044
0.805762
0.806485
0.807212
0.807942
0.808675
0.80941
0.810145
0.810881
0.811617
0.812352
0.813086
0.813818
0.814547
0.815273
0.815996
0.816714
0.817428
0.818137
0.818841
0.819539
0.820231
0.820916
0.821595
0.822266
0.822929
0.823585
0.824233
0.824871
0.825502
0.826123
0.826735
0.827338
0.827931
0.828515
0.829089
0.829653
0.830207
0.830751
0.831285
0.831809
0.832323
0.832826
0.833319
0.833802
0.834275
0.834737
0.835188
0.835629
0.83606
0.83648
0.836889
0.837286
0.837674
0.838049
0.838414
0.838768
0.83911
0.83944
0.839759
0.840067
0.840362
0.840646
0.840918
0.841177
0.841423
0.841658
0.84188
0.842089
0.842285
0.842468
0.842638
0.842795
0.842939
0.843069
0.843185
0.843288
0.843377
0.843451
0.843512
0.843558
0.843591
0.843609
0.843612
0.843601
0.843576
0.843535
0.843481
0.843411
0.843326
0.843227
0.843111
0.842983
0.842839
0.842681
0.842512
0.842319
0.84212
0.841918
0.841696
0.84146
0.841209
0.840945
0.840667
0.840376
0.840073
0.839758
0.839433
0.839096
0.838766
0.83838
0.838147
0.837279
0.791554
0.791443
0.791389
0.791354
0.791316
0.791267
0.791211
0.791148
0.79108
0.791007
0.79093
0.790851
0.79077
0.790689
0.790609
0.79053
0.790454
0.790381
0.790314
0.790252
0.790197
0.790149
0.790111
0.790082
0.790063
0.790057
0.790063
0.790082
0.790115
0.790164
0.790228
0.790309
0.790408
0.790524
0.79066
0.790814
0.790988
0.791183
0.791398
0.791633
0.791891
0.792169
0.792469
0.792791
0.793135
0.7935
0.793886
0.794293
0.794721
0.79517
0.795639
0.796128
0.796635
0.797161
0.797705
0.798266
0.798843
0.799436
0.800043
0.800665
0.8013
0.801946
0.802604
0.803273
0.803951
0.804638
0.805332
0.806034
0.806741
0.807454
0.808171
0.808892
0.809616
0.810342
0.811069
0.811798
0.812527
0.813255
0.813982
0.814708
0.815432
0.816154
0.816872
0.817587
0.818297
0.819004
0.819706
0.820402
0.821093
0.821778
0.822456
0.823128
0.823792
0.824449
0.825098
0.825739
0.826372
0.826996
0.827611
0.828217
0.828814
0.829402
0.82998
0.830549
0.831108
0.831656
0.832195
0.832724
0.833243
0.833751
0.83425
0.834738
0.835216
0.835683
0.83614
0.836587
0.837023
0.837448
0.837862
0.838265
0.838658
0.839039
0.839408
0.839767
0.840114
0.840449
0.840773
0.841084
0.841384
0.841672
0.841947
0.84221
0.84246
0.842698
0.842923
0.843135
0.843334
0.843519
0.843691
0.84385
0.843995
0.844127
0.844244
0.844347
0.844437
0.844512
0.844572
0.844618
0.84465
0.844667
0.844669
0.844657
0.84463
0.844587
0.84453
0.844458
0.84437
0.844269
0.844152
0.844021
0.843873
0.843712
0.843538
0.843345
0.843143
0.842933
0.842706
0.842464
0.842209
0.84194
0.841658
0.841362
0.841054
0.840733
0.840402
0.840057
0.839714
0.839318
0.839048
0.838337
0.793894
0.79376
0.793691
0.793647
0.793598
0.793538
0.79347
0.793395
0.793314
0.793229
0.793141
0.79305
0.792957
0.792864
0.792772
0.792682
0.792594
0.79251
0.792431
0.792358
0.792291
0.792232
0.792181
0.79214
0.79211
0.792091
0.792085
0.792091
0.792112
0.792147
0.792198
0.792265
0.79235
0.792452
0.792572
0.792712
0.792871
0.793049
0.793248
0.793468
0.793709
0.79397
0.794254
0.794558
0.794884
0.795231
0.795599
0.795989
0.796399
0.79683
0.79728
0.79775
0.79824
0.798747
0.799273
0.799816
0.800375
0.80095
0.80154
0.802145
0.802762
0.803392
0.804034
0.804686
0.805348
0.80602
0.806699
0.807386
0.808079
0.808778
0.809482
0.810191
0.810902
0.811617
0.812333
0.813051
0.81377
0.814489
0.815208
0.815926
0.816642
0.817357
0.818069
0.818778
0.819484
0.820187
0.820885
0.821578
0.822267
0.822951
0.823628
0.8243
0.824964
0.825623
0.826273
0.826917
0.827552
0.828179
0.828797
0.829408
0.830009
0.830601
0.831184
0.831757
0.832321
0.832875
0.83342
0.833955
0.834479
0.834994
0.835499
0.835993
0.836478
0.836951
0.837415
0.837868
0.83831
0.838742
0.839162
0.839572
0.839971
0.840358
0.840734
0.841098
0.841451
0.841792
0.842121
0.842439
0.842744
0.843036
0.843316
0.843584
0.843838
0.84408
0.844309
0.844524
0.844726
0.844915
0.84509
0.845251
0.845398
0.845531
0.845649
0.845754
0.845844
0.845919
0.84598
0.846025
0.846057
0.846073
0.846074
0.84606
0.846031
0.845985
0.845926
0.845852
0.845762
0.845657
0.845536
0.845401
0.84525
0.845084
0.844905
0.844709
0.844502
0.844283
0.84405
0.843802
0.843541
0.843265
0.842976
0.842674
0.842359
0.842031
0.841691
0.841336
0.840981
0.840574
0.840287
0.839642
0.796803
0.796658
0.796579
0.796526
0.796467
0.796396
0.796316
0.796229
0.796135
0.796037
0.795935
0.79583
0.795724
0.795617
0.795512
0.795407
0.795306
0.795208
0.795114
0.795026
0.794945
0.794871
0.794806
0.79475
0.794705
0.79467
0.794648
0.794639
0.794643
0.794662
0.794696
0.794746
0.794813
0.794897
0.794999
0.79512
0.795259
0.795419
0.795598
0.795798
0.796018
0.796259
0.796521
0.796804
0.797108
0.797433
0.79778
0.798147
0.798535
0.798943
0.799371
0.799819
0.800285
0.800771
0.801274
0.801794
0.802332
0.802885
0.803453
0.804036
0.804632
0.805241
0.805862
0.806495
0.807137
0.807789
0.80845
0.809118
0.809794
0.810476
0.811163
0.811855
0.812551
0.813251
0.813953
0.814657
0.815363
0.81607
0.816777
0.817484
0.818191
0.818896
0.8196
0.820301
0.821001
0.821697
0.82239
0.823079
0.823764
0.824445
0.82512
0.82579
0.826454
0.827112
0.827764
0.828409
0.829046
0.829675
0.830296
0.83091
0.831515
0.832112
0.832699
0.833277
0.833846
0.834406
0.834956
0.835497
0.836027
0.836548
0.837059
0.83756
0.838051
0.838532
0.839002
0.839461
0.83991
0.840349
0.840777
0.841193
0.841598
0.841992
0.842375
0.842745
0.843104
0.843452
0.843787
0.844109
0.84442
0.844718
0.845003
0.845275
0.845534
0.84578
0.846013
0.846232
0.846437
0.846628
0.846806
0.846969
0.847118
0.847252
0.847372
0.847477
0.847568
0.847643
0.847703
0.847748
0.847778
0.847793
0.847791
0.847775
0.847744
0.847697
0.847634
0.847556
0.847462
0.847353
0.847227
0.847087
0.846931
0.84676
0.846575
0.846374
0.84616
0.845934
0.845693
0.845438
0.845169
0.844887
0.84459
0.84428
0.843957
0.843621
0.843273
0.842908
0.84254
0.842124
0.841824
0.841197
0.800299
0.800154
0.80007
0.800008
0.79994
0.799858
0.799766
0.799666
0.799559
0.799446
0.799329
0.79921
0.799088
0.798966
0.798844
0.798723
0.798605
0.79849
0.79838
0.798275
0.798177
0.798085
0.798002
0.797929
0.797865
0.797812
0.797771
0.797742
0.797727
0.797726
0.797739
0.797769
0.797815
0.797877
0.797958
0.798056
0.798173
0.798309
0.798465
0.79864
0.798836
0.799053
0.79929
0.799547
0.799826
0.800126
0.800446
0.800787
0.801148
0.80153
0.801931
0.802352
0.802792
0.803251
0.803727
0.804222
0.804732
0.805259
0.805802
0.806359
0.80693
0.807514
0.80811
0.808718
0.809337
0.809966
0.810603
0.81125
0.811904
0.812564
0.813231
0.813904
0.814581
0.815262
0.815946
0.816633
0.817323
0.818014
0.818707
0.8194
0.820093
0.820787
0.821479
0.82217
0.82286
0.823548
0.824233
0.824916
0.825595
0.826271
0.826942
0.827609
0.828271
0.828927
0.829578
0.830223
0.83086
0.831491
0.832114
0.832731
0.833338
0.833938
0.834529
0.835111
0.835685
0.836249
0.836805
0.837351
0.837887
0.838414
0.838931
0.839438
0.839935
0.840422
0.840899
0.841365
0.841821
0.842266
0.8427
0.843123
0.843535
0.843935
0.844324
0.844701
0.845067
0.84542
0.845761
0.846089
0.846405
0.846708
0.846998
0.847275
0.847539
0.847789
0.848025
0.848247
0.848456
0.84865
0.84883
0.848995
0.849145
0.849281
0.849402
0.849507
0.849597
0.849673
0.849732
0.849775
0.849803
0.849817
0.849813
0.849794
0.849759
0.849708
0.849641
0.849559
0.84946
0.849345
0.849215
0.849068
0.848907
0.848729
0.848537
0.84833
0.848109
0.847874
0.847626
0.847363
0.847086
0.846795
0.84649
0.846171
0.84584
0.845494
0.845136
0.84476
0.844382
0.843955
0.843644
0.843012
0.804425
0.804281
0.804192
0.804121
0.804042
0.803948
0.803844
0.803729
0.803608
0.803479
0.803346
0.80321
0.803071
0.802931
0.80279
0.802651
0.802514
0.80238
0.80225
0.802126
0.802007
0.801895
0.801792
0.801697
0.801612
0.801537
0.801474
0.801423
0.801385
0.80136
0.80135
0.801356
0.801377
0.801415
0.801469
0.801542
0.801633
0.801742
0.801871
0.802019
0.802187
0.802374
0.802583
0.802811
0.803061
0.80333
0.803621
0.803931
0.804262
0.804613
0.804984
0.805374
0.805783
0.806211
0.806657
0.80712
0.807601
0.808097
0.80861
0.809137
0.809678
0.810233
0.810801
0.81138
0.811971
0.812572
0.813183
0.813803
0.814431
0.815066
0.815709
0.816357
0.817011
0.81767
0.818333
0.818999
0.819669
0.820341
0.821015
0.821691
0.822368
0.823045
0.823723
0.824401
0.825078
0.825754
0.826429
0.827102
0.827772
0.82844
0.829105
0.829766
0.830423
0.831076
0.831724
0.832367
0.833003
0.833633
0.834256
0.834873
0.835482
0.836083
0.836677
0.837262
0.837838
0.838406
0.838965
0.839515
0.840056
0.840588
0.84111
0.841623
0.842125
0.842618
0.8431
0.843572
0.844034
0.844485
0.844925
0.845354
0.845772
0.846179
0.846574
0.846957
0.847328
0.847686
0.848033
0.848366
0.848687
0.848995
0.84929
0.849571
0.849839
0.850092
0.850332
0.850558
0.850769
0.850965
0.851147
0.851314
0.851466
0.851602
0.851723
0.851828
0.851918
0.851992
0.852051
0.852092
0.852119
0.852129
0.852122
0.852099
0.852061
0.852005
0.851934
0.851846
0.851741
0.851621
0.851484
0.851331
0.851163
0.850978
0.850779
0.850564
0.850335
0.850091
0.849834
0.849562
0.849276
0.848975
0.848661
0.848334
0.847992
0.847637
0.847268
0.846881
0.846492
0.846053
0.845731
0.845084
0.809211
0.809069
0.808973
0.808891
0.8088
0.808694
0.808575
0.808445
0.808307
0.808162
0.808011
0.807856
0.807697
0.807537
0.807376
0.807216
0.807057
0.806902
0.806749
0.806602
0.80646
0.806325
0.806198
0.806079
0.805969
0.805869
0.805781
0.805704
0.80564
0.805589
0.805552
0.80553
0.805523
0.805532
0.805558
0.805601
0.805662
0.805741
0.805839
0.805956
0.806092
0.806248
0.806424
0.80662
0.806836
0.807072
0.807328
0.807605
0.807901
0.808218
0.808554
0.808909
0.809284
0.809676
0.810087
0.810516
0.810962
0.811424
0.811901
0.812394
0.812902
0.813423
0.813957
0.814504
0.815063
0.815632
0.816212
0.816801
0.817399
0.818005
0.818618
0.819238
0.819865
0.820497
0.821134
0.821775
0.82242
0.823069
0.823721
0.824375
0.825032
0.82569
0.826349
0.827009
0.82767
0.82833
0.828991
0.829651
0.830309
0.830966
0.831621
0.832274
0.832923
0.833569
0.834211
0.834848
0.83548
0.836107
0.836728
0.837343
0.83795
0.838551
0.839144
0.83973
0.840307
0.840876
0.841438
0.84199
0.842534
0.843068
0.843594
0.84411
0.844616
0.845113
0.8456
0.846076
0.846542
0.846998
0.847443
0.847877
0.8483
0.848711
0.849111
0.849499
0.849875
0.850238
0.850589
0.850927
0.851253
0.851564
0.851863
0.852148
0.852419
0.852675
0.852918
0.853146
0.853359
0.853557
0.85374
0.853908
0.85406
0.854197
0.854318
0.854423
0.854512
0.854585
0.854641
0.85468
0.854703
0.85471
0.8547
0.854673
0.85463
0.854569
0.854492
0.854399
0.854288
0.854161
0.854017
0.853857
0.853681
0.853489
0.853281
0.853058
0.852819
0.852567
0.8523
0.852018
0.851722
0.851412
0.851088
0.85075
0.850398
0.850032
0.849653
0.849255
0.848853
0.848404
0.848068
0.847404
0.814687
0.814547
0.814444
0.81435
0.814245
0.814124
0.813989
0.813843
0.813687
0.813522
0.813351
0.813175
0.812995
0.812812
0.812628
0.812444
0.812261
0.81208
0.811903
0.81173
0.811562
0.8114
0.811245
0.811099
0.810961
0.810833
0.810716
0.81061
0.810516
0.810435
0.810368
0.810315
0.810277
0.810254
0.810248
0.810258
0.810286
0.810331
0.810395
0.810477
0.810578
0.810698
0.810838
0.810997
0.811176
0.811375
0.811594
0.811833
0.812091
0.812369
0.812667
0.812984
0.813319
0.813673
0.814045
0.814434
0.814841
0.815264
0.815703
0.816157
0.816627
0.81711
0.817607
0.818116
0.818638
0.81917
0.819714
0.820268
0.820831
0.821403
0.821983
0.82257
0.823164
0.823765
0.824371
0.824983
0.825599
0.82622
0.826845
0.827473
0.828104
0.828738
0.829374
0.830012
0.830652
0.831293
0.831935
0.832577
0.833219
0.833861
0.834502
0.835141
0.835779
0.836414
0.837046
0.837675
0.838299
0.838919
0.839534
0.840143
0.840746
0.841343
0.841933
0.842516
0.843092
0.84366
0.84422
0.844772
0.845315
0.84585
0.846377
0.846894
0.847402
0.847901
0.848389
0.848869
0.849337
0.849796
0.850244
0.850681
0.851107
0.851521
0.851924
0.852316
0.852695
0.853061
0.853415
0.853757
0.854085
0.8544
0.854701
0.854988
0.855261
0.855519
0.855763
0.855993
0.856208
0.856407
0.856591
0.856758
0.856911
0.857047
0.857167
0.85727
0.857357
0.857428
0.857481
0.857518
0.857538
0.85754
0.857526
0.857494
0.857446
0.85738
0.857296
0.857196
0.857079
0.856945
0.856794
0.856626
0.856441
0.85624
0.856024
0.855791
0.855543
0.855281
0.855004
0.854712
0.854405
0.854085
0.85375
0.853401
0.853039
0.852662
0.852271
0.851862
0.851449
0.850988
0.850639
0.849957
0.82089
0.820751
0.820639
0.820531
0.82041
0.820272
0.820119
0.819954
0.819777
0.819591
0.819398
0.819198
0.818993
0.818785
0.818574
0.818363
0.818153
0.817944
0.817738
0.817535
0.817337
0.817146
0.81696
0.816783
0.816614
0.816454
0.816305
0.816166
0.81604
0.815925
0.815824
0.815737
0.815664
0.815606
0.815564
0.815538
0.815529
0.815537
0.815563
0.815607
0.81567
0.815751
0.815851
0.81597
0.816109
0.816267
0.816445
0.816642
0.816858
0.817094
0.817349
0.817623
0.817915
0.818226
0.818555
0.818901
0.819264
0.819644
0.82004
0.820452
0.820878
0.821318
0.821773
0.82224
0.82272
0.823212
0.823714
0.824228
0.824751
0.825284
0.825825
0.826374
0.826931
0.827495
0.828066
0.828643
0.829225
0.829813
0.830405
0.831002
0.831603
0.832207
0.832815
0.833426
0.83404
0.834656
0.835274
0.835894
0.836515
0.837137
0.837759
0.838381
0.839002
0.839621
0.840239
0.840854
0.841466
0.842075
0.84268
0.843279
0.843873
0.844462
0.845045
0.845621
0.846191
0.846754
0.847309
0.847858
0.848398
0.84893
0.849454
0.849969
0.850476
0.850973
0.851462
0.85194
0.852409
0.852868
0.853316
0.853754
0.85418
0.854596
0.855
0.855392
0.855773
0.85614
0.856495
0.856838
0.857167
0.857483
0.857785
0.858073
0.858347
0.858607
0.858851
0.859081
0.859295
0.859494
0.859677
0.859844
0.859995
0.860129
0.860247
0.860349
0.860433
0.8605
0.860551
0.860583
0.860599
0.860597
0.860577
0.86054
0.860486
0.860414
0.860324
0.860217
0.860092
0.85995
0.859791
0.859614
0.859421
0.859211
0.858985
0.858743
0.858486
0.858213
0.857925
0.857622
0.857305
0.856974
0.856628
0.856268
0.855895
0.855506
0.855104
0.854684
0.85426
0.853787
0.853425
0.852727
0.827856
0.827716
0.827594
0.82747
0.827331
0.827174
0.827
0.826813
0.826613
0.826402
0.826182
0.825955
0.825722
0.825485
0.825245
0.825003
0.824761
0.82452
0.824281
0.824045
0.823814
0.823588
0.823369
0.823156
0.822952
0.822757
0.822572
0.822397
0.822234
0.822083
0.821944
0.821819
0.821708
0.821612
0.821531
0.821465
0.821416
0.821384
0.821369
0.821371
0.821392
0.82143
0.821487
0.821563
0.821658
0.821772
0.821904
0.822056
0.822227
0.822417
0.822625
0.822852
0.823098
0.823361
0.823643
0.823941
0.824257
0.824589
0.824937
0.825301
0.82568
0.826073
0.82648
0.8269
0.827333
0.827779
0.828235
0.828703
0.829181
0.829669
0.830166
0.830672
0.831187
0.831709
0.832238
0.832774
0.833317
0.833865
0.83442
0.83498
0.835545
0.836114
0.836688
0.837266
0.837848
0.838434
0.839023
0.839614
0.840208
0.840804
0.841402
0.842
0.842599
0.843198
0.843795
0.844391
0.844986
0.845579
0.846167
0.846752
0.847333
0.847909
0.848479
0.849045
0.849604
0.850157
0.850704
0.851244
0.851777
0.852302
0.852819
0.853329
0.85383
0.854323
0.854807
0.855282
0.855747
0.856202
0.856648
0.857083
0.857508
0.857921
0.858324
0.858714
0.859093
0.85946
0.859814
0.860155
0.860483
0.860798
0.861099
0.861386
0.861659
0.861917
0.86216
0.862388
0.862601
0.862797
0.862978
0.863143
0.863291
0.863423
0.863538
0.863636
0.863717
0.86378
0.863826
0.863854
0.863864
0.863857
0.863832
0.863789
0.863728
0.863649
0.863552
0.863437
0.863304
0.863154
0.862986
0.862801
0.862599
0.862379
0.862144
0.861892
0.861624
0.86134
0.861041
0.860728
0.8604
0.860057
0.8597
0.859329
0.858944
0.858545
0.858131
0.8577
0.857264
0.85678
0.856406
0.855694
0.835628
0.835485
0.83535
0.835207
0.835048
0.834868
0.83467
0.834457
0.834229
0.833989
0.833739
0.83348
0.833214
0.832943
0.832668
0.832391
0.832113
0.831835
0.831559
0.831286
0.831017
0.830753
0.830495
0.830244
0.830001
0.829766
0.829541
0.829327
0.829123
0.828931
0.828752
0.828586
0.828433
0.828294
0.828171
0.828063
0.82797
0.827894
0.827835
0.827792
0.827767
0.82776
0.827771
0.8278
0.827847
0.827913
0.827997
0.8281
0.828221
0.828361
0.828519
0.828695
0.82889
0.829102
0.829331
0.829578
0.829841
0.830121
0.830417
0.830728
0.831054
0.831395
0.831749
0.832117
0.832498
0.832892
0.833297
0.833713
0.834141
0.834578
0.835026
0.835483
0.835948
0.836422
0.836904
0.837394
0.83789
0.838394
0.838904
0.839421
0.839944
0.840472
0.841006
0.841545
0.842089
0.842637
0.84319
0.843747
0.844308
0.844872
0.845439
0.846008
0.846578
0.847149
0.84772
0.848292
0.848864
0.849433
0.85
0.850564
0.851125
0.851682
0.852235
0.852784
0.853328
0.853866
0.854399
0.854925
0.855446
0.855959
0.856466
0.856965
0.857457
0.85794
0.858415
0.858882
0.85934
0.859788
0.860227
0.860656
0.861075
0.861483
0.86188
0.862266
0.86264
0.863003
0.863353
0.86369
0.864014
0.864326
0.864623
0.864906
0.865176
0.86543
0.86567
0.865894
0.866103
0.866297
0.866474
0.866634
0.866779
0.866906
0.867017
0.86711
0.867186
0.867244
0.867284
0.867307
0.867311
0.867298
0.867266
0.867216
0.867148
0.867061
0.866957
0.866834
0.866693
0.866534
0.866357
0.866163
0.865951
0.865721
0.865476
0.865213
0.864935
0.86464
0.864331
0.864006
0.863667
0.863312
0.862944
0.862562
0.862166
0.861755
0.861331
0.860889
0.860442
0.859948
0.859561
0.858837
0.844252
0.844102
0.843951
0.843787
0.843602
0.843396
0.843169
0.842924
0.842663
0.842388
0.842102
0.841805
0.8415
0.841189
0.840874
0.840555
0.840236
0.839916
0.839597
0.839282
0.83897
0.838662
0.838361
0.838067
0.83778
0.837502
0.837234
0.836975
0.836727
0.836491
0.836267
0.836056
0.835858
0.835675
0.835505
0.835351
0.835211
0.835088
0.834981
0.83489
0.834817
0.83476
0.834721
0.8347
0.834696
0.83471
0.834742
0.834792
0.83486
0.834946
0.83505
0.835171
0.83531
0.835466
0.835639
0.835829
0.836036
0.836258
0.836496
0.83675
0.837018
0.837301
0.837598
0.837908
0.838231
0.838567
0.838915
0.839275
0.839645
0.840026
0.840418
0.840819
0.84123
0.841649
0.842078
0.842514
0.842959
0.843411
0.84387
0.844337
0.844811
0.845291
0.845778
0.846271
0.84677
0.847275
0.847785
0.848301
0.848821
0.849346
0.849875
0.850407
0.850941
0.851478
0.852017
0.852558
0.853099
0.853638
0.854177
0.854714
0.855249
0.855781
0.85631
0.856836
0.857358
0.857875
0.858388
0.858896
0.859398
0.859894
0.860384
0.860868
0.861345
0.861814
0.862276
0.86273
0.863176
0.863613
0.864041
0.86446
0.864868
0.865267
0.865655
0.866033
0.866399
0.866753
0.867096
0.867426
0.867743
0.868048
0.868338
0.868616
0.868879
0.869127
0.869361
0.86958
0.869783
0.86997
0.870141
0.870296
0.870435
0.870557
0.870661
0.870748
0.870817
0.870869
0.870903
0.870919
0.870916
0.870896
0.870856
0.870799
0.870723
0.870628
0.870515
0.870384
0.870234
0.870066
0.86988
0.869676
0.869454
0.869215
0.868958
0.868686
0.868396
0.868091
0.86777
0.867434
0.867084
0.866718
0.866339
0.865945
0.865538
0.865116
0.864681
0.864229
0.863771
0.863267
0.862869
0.862135
0.853776
0.853616
0.853445
0.853255
0.853041
0.852801
0.852538
0.852254
0.851952
0.851635
0.851304
0.850961
0.85061
0.850252
0.849888
0.849521
0.849153
0.848784
0.848417
0.848053
0.847692
0.847337
0.846987
0.846644
0.84631
0.845984
0.845667
0.84536
0.845064
0.84478
0.844508
0.844248
0.844002
0.843769
0.84355
0.843346
0.843156
0.842982
0.842824
0.842682
0.842556
0.842447
0.842354
0.842279
0.84222
0.842179
0.842155
0.842148
0.842159
0.842186
0.842231
0.842294
0.842372
0.842468
0.84258
0.842709
0.842853
0.843013
0.843189
0.843379
0.843584
0.843804
0.844037
0.844283
0.844543
0.844815
0.8451
0.845396
0.845703
0.846022
0.846351
0.84669
0.847039
0.847398
0.847766
0.848142
0.848528
0.848921
0.849323
0.849733
0.850151
0.850576
0.851008
0.851448
0.851895
0.852349
0.85281
0.853276
0.853749
0.854228
0.854711
0.855197
0.855689
0.856186
0.856685
0.857186
0.857688
0.858191
0.858694
0.859197
0.859699
0.860199
0.860698
0.861194
0.861687
0.862178
0.862664
0.863147
0.863625
0.864098
0.864566
0.865028
0.865485
0.865935
0.866378
0.866814
0.867242
0.867663
0.868075
0.868479
0.868873
0.869258
0.869633
0.869997
0.870351
0.870694
0.871025
0.871344
0.871651
0.871946
0.872227
0.872495
0.872749
0.872988
0.873213
0.873423
0.873618
0.873798
0.873961
0.874108
0.874238
0.874352
0.874449
0.874528
0.87459
0.874634
0.874659
0.874667
0.874657
0.874628
0.87458
0.874514
0.874429
0.874326
0.874204
0.874063
0.873904
0.873727
0.873531
0.873317
0.873085
0.872836
0.872569
0.872285
0.871985
0.871669
0.871337
0.87099
0.870628
0.870252
0.869861
0.869456
0.869038
0.868606
0.86816
0.867698
0.86723
0.866718
0.866307
0.865568
0.864258
0.864083
0.863887
0.863665
0.863413
0.863131
0.862821
0.862488
0.862135
0.861763
0.861377
0.860978
0.86057
0.860154
0.859733
0.859309
0.858884
0.858459
0.858036
0.857616
0.8572
0.85679
0.856386
0.85599
0.855602
0.855223
0.854853
0.854494
0.854146
0.853809
0.853485
0.853173
0.852873
0.852588
0.852316
0.852058
0.851815
0.851587
0.851374
0.851176
0.850995
0.850829
0.850679
0.850545
0.850428
0.850327
0.850243
0.850175
0.850124
0.850089
0.850071
0.850069
0.850083
0.850113
0.85016
0.850221
0.850298
0.850391
0.850498
0.85062
0.850756
0.850906
0.851069
0.851246
0.851436
0.851638