/*--------------------------------*- C++ -*----------------------------------*\
| =========                 |                                                 |
| \\      /  F ield         | OpenFOAM: The Open Source CFD Toolbox           |
|  \\    /   O peration     | Version:  2.3.0                                 |
|   \\  /    A nd           | Web:      www.OpenFOAM.org                      |
|    \\/     M anipulation  |                                                 |
\*---------------------------------------------------------------------------*/
FoamFile
{
    version     2.0;
    format      ascii;
    class       volScalarField;
    location    "10";
    object      p;
}
// * * * * * * * * * * * * * * * * * * * * * * * * * * * * * * * * * * * * * //

dimensions      [0 2 -2 0 0 0 0];

internalField   nonuniform List<scalar> 
1720
(
0.000675579
0.000674274
0.000402544
0.000229323
0.0002191
0.000283732
0.00033372
0.000339464
0.000312837
0.000273592
0.000231856
0.000186666
0.000133942
6.97221e-05
-2.77696e-06
-8.02046e-05
-0.000168009
-0.000254266
-0.000333896
-0.000405132
-0.00046514
-0.000510809
-0.000542837
-0.000563449
-0.000581337
-0.000603147
-0.000703886
-0.00114019
-0.00201729
-0.0028816
-0.00354509
-0.00398605
-0.00422675
-0.00427765
-0.00414308
-0.00384803
-0.00344344
-0.00299079
-0.00253897
-0.00212895
-0.00178941
-0.00156312
-0.00149699
-0.00160973
-0.00191338
-0.0023882
-0.00304693
-0.00377302
-0.00454367
-0.00533341
-0.00609249
-0.0067635
-0.00728207
-0.00760243
-0.00766027
-0.00742893
-0.00682608
-0.00583418
-0.00431205
-0.00226391
0.00212088
0.00186733
0.00107008
0.00068297
0.000712592
0.000883764
0.000996234
0.000999497
0.000926909
0.000821775
0.000705209
0.000573569
0.000416096
0.000225561
3.1121e-06
-0.00024451
-0.000508794
-0.000771827
-0.00101952
-0.00123994
-0.00142361
-0.00156302
-0.00166057
-0.00172812
-0.00178473
-0.00185591
-0.00197274
-0.00214312
-0.00226016
-0.00225373
-0.00211239
-0.00185561
-0.00151616
-0.00112267
-0.000699136
-0.000270458
0.000143365
0.000521481
0.000844608
0.00109426
0.00118215
0.00117894
0.00111372
0.00107275
0.00103903
0.00101193
0.00094646
0.000870646
0.000695641
0.000555873
0.00049442
0.000507229
0.000577705
0.000700885
0.000860289
0.00102329
0.00116298
0.00121804
0.00109638
0.000591729
0.00371082
0.00292125
0.00163704
0.00115739
0.00126724
0.00152158
0.00166687
0.00165708
0.00154536
0.00138619
0.00120429
0.000989778
0.000728176
0.000406331
2.55514e-05
-0.000404233
-0.000864244
-0.00132733
-0.00176435
-0.00214904
-0.00246186
-0.00269317
-0.00285048
-0.00295707
-0.00303828
-0.00311514
-0.00319267
-0.003253
-0.00328687
-0.00327194
-0.00318008
-0.00299738
-0.00273644
-0.00242683
-0.00207647
-0.00170125
-0.00133911
-0.00101187
-0.000733072
-0.000481119
-0.000214665
1.30719e-05
8.98783e-05
-3.82491e-05
-0.000320872
-0.000741365
-0.00121013
-0.00171959
-0.00195397
-0.00220254
-0.00242245
-0.00256238
-0.002597
-0.00254055
-0.00239436
-0.0021728
-0.00189174
-0.0015536
-0.00117618
-0.000696021
0.00502185
0.00393574
0.0022271
0.00166318
0.00186083
0.00218512
0.00234851
0.00232282
0.00218085
0.00198067
0.00174496
0.00145354
0.00108869
0.000629888
8.06363e-05
-0.000550188
-0.00123812
-0.0019418
-0.00260806
-0.00318452
-0.00363135
-0.00393961
-0.004135
-0.00426105
-0.00435295
-0.00442663
-0.00447811
-0.00449427
-0.00445428
-0.0043369
-0.00411466
-0.00376892
-0.00330613
-0.00274598
-0.00211552
-0.00144174
-0.000758261
-9.88617e-05
0.000490752
0.000952701
0.00115797
0.00120006
0.00116888
0.00103449
0.000802079
0.00048619
0.000166214
-0.000211845
-0.000643316
-0.00124295
-0.00164963
-0.00190348
-0.00200734
-0.00197584
-0.00182122
-0.00156951
-0.00123755
-0.000862971
-0.000468215
-0.000183709
0.00635538
0.00490019
0.00280019
0.00216992
0.00246703
0.00286129
0.00304271
0.00300771
0.00284868
0.00262356
0.00234838
0.00198861
0.0015229
0.000918412
0.000185297
-0.000674538
-0.0016304
-0.00263197
-0.00359476
-0.00441448
-0.0050066
-0.00536372
-0.00555646
-0.00567258
-0.00576457
-0.00583964
-0.00587873
-0.00585472
-0.00574326
-0.00550913
-0.00512894
-0.00459294
-0.00391682
-0.00313221
-0.00228829
-0.0014414
-0.000641979
4.84706e-05
0.000602265
0.00099873
0.00139019
0.00156281
0.00152392
0.00130815
0.000932043
0.000410352
-0.000216368
-0.000862679
-0.00154285
-0.00190926
-0.00224339
-0.00244043
-0.00247152
-0.00234706
-0.0020888
-0.00174119
-0.00133438
-0.000924803
-0.000543685
-0.000277921
0.00766512
0.00578703
0.00334044
0.00267192
0.00307955
0.00354773
0.00375414
0.00372379
0.00356578
0.00333656
0.00303908
0.00262452
0.00206174
0.00130097
0.000357769
-0.000780418
-0.00205371
-0.00342132
-0.00476714
-0.00589731
-0.00665038
-0.00702536
-0.0071663
-0.00723347
-0.00730882
-0.00738465
-0.00742257
-0.00737855
-0.00720256
-0.00685508
-0.00631299
-0.00557727
-0.00467497
-0.00365869
-0.00258991
-0.00153121
-0.000532461
0.000369529
0.00113867
0.00175076
0.00214825
0.00230245
0.00221361
0.00189929
0.00138649
0.000716049
-4.97711e-05
-0.000849039
-0.00163767
-0.00224039
-0.00278589
-0.00307571
-0.00314788
-0.00301536
-0.00269149
-0.00224941
-0.00174967
-0.00125594
-0.000797358
-0.000415557
0.0089236
0.00659964
0.00385256
0.00318293
0.003703
0.00424162
0.00447983
0.00447398
0.00434286
0.00413876
0.00384273
0.00339639
0.00274364
0.00182382
0.000627095
-0.000884737
-0.00257668
-0.00439774
-0.00619554
-0.00765349
-0.00851544
-0.00888607
-0.0089624
-0.00896357
-0.0090015
-0.00906345
-0.00910143
-0.00906234
-0.00885046
-0.00840644
-0.00770711
-0.00676265
-0.00561234
-0.00432474
-0.00297591
-0.0016353
-0.000368561
0.000754705
0.00167507
0.00231772
0.00283048
0.00301258
0.00289714
0.00250713
0.00187024
0.0010259
3.66865e-05
-0.00102721
-0.00208195
-0.00302922
-0.00361649
-0.0039658
-0.00402631
-0.00385434
-0.00346834
-0.00290138
-0.00224814
-0.0015929
-0.000975393
-0.000457019
0.0101012
0.00732229
0.00431997
0.00371938
0.00435175
0.00493984
0.00521207
0.00525464
0.00518579
0.00504587
0.00479011
0.00434769
0.00362206
0.00255414
0.00105093
-0.000976048
-0.00338637
-0.00591608
-0.00816097
-0.00972735
-0.0105157
-0.0107298
-0.0106984
-0.0106669
-0.0107113
-0.0107964
-0.0108867
-0.0108774
-0.0106648
-0.0101565
-0.00931975
-0.00817257
-0.00676634
-0.00517894
-0.00351314
-0.00187252
-0.000347128
0.000990862
0.00210092
0.00299364
0.00341575
0.00357886
0.00343548
0.00299421
0.00227954
0.00132156
0.000177154
-0.00107743
-0.00233352
-0.00346817
-0.00435125
-0.00490449
-0.00506947
-0.00485298
-0.00435575
-0.00365841
-0.00282592
-0.00196773
-0.00117122
-0.000522792
0.0111938
0.00801117
0.00460149
0.0042776
0.00504234
0.00564171
0.00594781
0.0060626
0.00609512
0.00606539
0.00591203
0.00552957
0.00478318
0.00358286
0.00171994
-0.000982198
-0.0046219
-0.00896335
-0.0117616
-0.0128398
-0.0127906
-0.012278
-0.0118736
-0.0119357
-0.0120165
-0.0121113
-0.0122863
-0.0124121
-0.0123042
-0.0118397
-0.0109661
-0.00969242
-0.00809046
-0.00627012
-0.0043502
-0.00246119
-0.000728316
0.000753595
0.00193329
0.00279458
0.00330301
0.00348542
0.00336899
0.00296783
0.00229577
0.00136145
0.000199539
-0.00113291
-0.00253019
-0.00385089
-0.00494769
-0.00570898
-0.00604094
-0.0059045
-0.00534522
-0.00449839
-0.00347688
-0.00241297
-0.00143999
-0.000635905
0.0121812
0.00861691
0.00491404
0.00476692
0.00566026
0.00631573
0.0066782
0.00688652
0.00705367
0.00718477
0.00721333
0.00698559
0.00634812
0.00504383
0.00284172
-0.00105444
-0.00586861
-0.0148404
-0.0189117
-0.0192361
-0.017052
-0.0144169
-0.0125146
-0.0126866
-0.0126516
-0.0127039
-0.0130087
-0.0132349
-0.0132598
-0.0129479
-0.0121995
-0.010987
-0.00937222
-0.00748667
-0.00549603
-0.00356673
-0.00183209
-0.00037415
0.000774453
0.00161763
0.00217366
0.00237566
0.00233773
0.00207075
0.00157085
0.000819637
-0.000165714
-0.0013766
-0.00276239
-0.00416869
-0.00541084
-0.00633869
-0.00682074
-0.00679267
-0.00626633
-0.00534922
-0.00417614
-0.00291834
-0.00176133
-0.00076726
0.0130497
0.00913624
0.00523439
0.00518072
0.00619303
0.00693414
0.00737443
0.00769557
0.00802065
0.00836438
0.00864885
0.00871899
0.00839195
0.00724363
0.00502596
-0.00191523
-0.00731612
-0.0142307
-0.01307
-0.0127682
-0.0123653
-0.0125231
-0.0127935
-0.0131501
-0.0133374
-0.0132188
-0.0126875
-0.011702
-0.0103111
-0.00864434
-0.00687259
-0.00516388
-0.00364197
-0.00237821
-0.00137885
-0.000613335
-0.000114825
0.000214896
0.00037891
0.000360773
0.000145497
-0.000282046
-0.000955216
-0.0019332
-0.0031127
-0.00444112
-0.0057285
-0.00675496
-0.00736469
-0.00745342
-0.00699923
-0.00607599
-0.00481793
-0.00340654
-0.00207368
-0.000873132
0.0137777
0.00956306
0.00551283
0.00552571
0.00664326
0.00747364
0.00800034
0.00844282
0.00893805
0.00952776
0.010122
0.0106405
0.0108126
0.0103652
0.00839226
0.00289479
-0.0122401
-0.0121368
-0.0123644
-0.0126585
-0.0128641
-0.0128561
-0.0125353
-0.011855
-0.0108476
-0.0096125
-0.00831011
-0.0070761
-0.00598933
-0.00507605
-0.00430267
-0.0035514
-0.00307387
-0.00255611
-0.00211026
-0.00179188
-0.00164932
-0.00173327
-0.00208754
-0.002695
-0.00354853
-0.00467905
-0.00587179
-0.00692231
-0.00760548
-0.00779745
-0.00743766
-0.00656407
-0.00529256
-0.00379051
-0.00231495
-0.00092208
0.0143441
0.0098897
0.00573311
0.00579896
0.00700321
0.0079089
0.00851759
0.00907144
0.0097352
0.0105616
0.011495
0.0124863
0.0133147
0.0138607
0.0124541
0.0091282
-0.0117131
-0.011504
-0.0116681
-0.0118604
-0.0120437
-0.0121076
-0.0119827
-0.0116338
-0.0110981
-0.0104426
-0.00978904
-0.00919043
-0.00867669
-0.00818878
-0.00768001
-0.00716071
-0.00638059
-0.00556036
-0.00474241
-0.00402509
-0.0034802
-0.00316438
-0.0031245
-0.00340739
-0.00400297
-0.00479172
-0.00577623
-0.00678146
-0.00749922
-0.00777712
-0.0075188
-0.00673564
-0.00551676
-0.00400532
-0.00242116
-0.000889501
0.0147324
0.0101118
0.00588669
0.00599135
0.00725666
0.00821716
0.00888941
0.00953043
0.0103307
0.0113499
0.0125803
0.0139756
0.0154508
0.0167741
0.017083
-0.0108587
-0.0108945
-0.0110223
-0.011172
-0.0112841
-0.0113191
-0.0112807
-0.0112164
-0.011155
-0.0111735
-0.0112593
-0.0113427
-0.0113059
-0.0110186
-0.0104452
-0.00947993
-0.00831306
-0.00707968
-0.00593517
-0.00499143
-0.00430658
-0.00391115
-0.00382914
-0.00412985
-0.00469181
-0.005439
-0.0062944
-0.00701172
-0.00735176
-0.00720438
-0.00654333
-0.00543355
-0.00400367
-0.00240534
-0.00082098
0.0149311
0.0102259
0.00596755
0.00609363
0.00739037
0.00838114
0.00908821
0.00977979
0.0106554
0.0117885
0.0131866
0.0148427
0.0167228
0.018681
0.0201476
-0.0101465
-0.0101777
-0.0102589
-0.0103781
-0.0105211
-0.010688
-0.01093
-0.0112955
-0.0118359
-0.0124809
-0.0131776
-0.0137656
-0.0140333
-0.013863
-0.013192
-0.0120319
-0.0105313
-0.0088941
-0.00733883
-0.00602562
-0.00501266
-0.00432098
-0.00394866
-0.00390086
-0.00425614
-0.00482649
-0.00551599
-0.00615606
-0.00654323
-0.00650938
-0.00598727
-0.00503867
-0.00376278
-0.00228624
-0.000766519
0.0149345
0.0102299
0.00597245
0.00609981
0.00739815
0.00839072
0.00910015
0.00979471
0.0106741
0.0118116
0.0132152
0.014878
0.0167665
0.0187368
0.0202194
-0.0095798
-0.00959381
-0.00963004
-0.00971617
-0.00988461
-0.0101939
-0.0106983
-0.0114308
-0.0124308
-0.0135671
-0.0146915
-0.015592
-0.0160582
-0.015968
-0.0152389
-0.0139114
-0.0121413
-0.0101669
-0.0082576
-0.00662428
-0.00531313
-0.00436585
-0.00378622
-0.00348876
-0.00357206
-0.00395729
-0.00448595
-0.00503116
-0.0054151
-0.00545705
-0.00511232
-0.00436609
-0.0033049
-0.00203843
-0.000684564
0.0147424
0.0101238
0.00590117
0.0060096
0.0072796
0.00824545
0.0089247
0.00957444
0.0103857
0.011418
0.0126646
0.0140798
0.0155802
0.0169345
0.0172885
-0.00919594
-0.00912519
-0.00912292
-0.00920003
-0.00941142
-0.00983033
-0.0105131
-0.0114977
-0.0127732
-0.0142021
-0.0155747
-0.0166591
-0.0172557
-0.0172082
-0.0164439
-0.0149988
-0.0130399
-0.0108258
-0.00866551
-0.00679468
-0.00527426
-0.00414687
-0.00337508
-0.00293566
-0.00280066
-0.00295601
-0.00331589
-0.00376238
-0.00410575
-0.00422617
-0.00402688
-0.0034904
-0.00267818
-0.00167795
-0.000564981
0.0143602
0.00990914
0.00575656
0.00582859
0.0070402
0.00795462
0.00857458
0.0091426
0.00982397
0.0106715
0.0116312
0.0126547
0.0135243
0.0141218
0.0127866
0.0095409
-0.00879513
-0.00882861
-0.00869788
-0.00866817
-0.00874762
-0.00900302
-0.00950537
-0.0103088
-0.0114366
-0.0128406
-0.0143731
-0.0158216
-0.0169697
-0.0176015
-0.0175632
-0.0167606
-0.0152302
-0.0131589
-0.0108275
-0.00854941
-0.0065734
-0.00496716
-0.00375025
-0.00286186
-0.00229243
-0.00199765
-0.00195792
-0.00214305
-0.0024544
-0.00276757
-0.0029122
-0.00284352
-0.00250959
-0.00195373
-0.00124049
-0.000414409
0.0137991
0.00958916
0.00554428
0.00556555
0.00669253
0.00753472
0.00807635
0.00853787
0.00905639
0.00967451
0.0103036
0.010866
0.0110933
0.0107177
0.0088302
0.00345374
-0.00876622
-0.00855169
-0.008315
-0.00824245
-0.00833258
-0.00862903
-0.00918904
-0.0100542
-0.0112256
-0.0126355
-0.0141385
-0.0155435
-0.0166502
-0.0172495
-0.0171567
-0.0162855
-0.0146929
-0.0125861
-0.0102619
-0.00803991
-0.00609971
-0.00450688
-0.00326835
-0.00233734
-0.00168205
-0.00126202
-0.00106361
-0.00107937
-0.00125125
-0.00148259
-0.00165737
-0.00168273
-0.00152335
-0.00120461
-0.00077012
-0.000246198
0.0130753
0.00916789
0.00527251
0.00522901
0.00625251
0.00700783
0.00746601
0.00781003
0.00816312
0.00854112
0.00886748
0.00899079
0.0087306
0.00767038
0.00556289
-0.00119838
-0.00639909
-0.0130838
-0.00977881
-0.00922327
-0.00874954
-0.00836585
-0.00802824
-0.00789712
-0.00798789
-0.00831559
-0.00891006
-0.00979239
-0.0109441
-0.0122827
-0.0136795
-0.0149647
-0.0159541
-0.0164124
-0.0161666
-0.0151812
-0.0135588
-0.0115178
-0.00933803
-0.00726581
-0.00547205
-0.00399225
-0.00280478
-0.00187589
-0.00117177
-0.00066204
-0.0003363
-0.000201819
-0.000240518
-0.000382321
-0.000537785
-0.000618905
-0.000612889
-0.000497225
-0.00031342
-7.81731e-05
0.0122098
0.00865276
0.00495721
0.00482146
0.00572744
0.00639879
0.00678118
0.00701512
0.00721369
0.00738319
0.00745864
0.00728981
0.00672723
0.00551846
0.00344361
-0.000288765
-0.00489054
-0.0135404
-0.0172338
-0.0171462
-0.0145388
-0.0114731
-0.00928145
-0.00914663
-0.00876772
-0.00826363
-0.00789254
-0.00776684
-0.00786231
-0.00818836
-0.0087876
-0.00964616
-0.0107234
-0.011917
-0.0131459
-0.0141999
-0.0149429
-0.0151706
-0.0147169
-0.01362
-0.0120487
-0.0101906
-0.0082588
-0.00643999
-0.00483836
-0.00349023
-0.00238476
-0.00149366
-0.000784104
-0.000226203
0.000189767
0.000449429
0.000540653
0.000490733
0.000367055
0.000241501
0.00015328
0.000112243
9.05086e-05
7.45797e-05
0.011224
0.00804969
0.00464786
0.0043361
0.00511431
0.00573045
0.00605753
0.00619947
0.00626539
0.00627625
0.00617242
0.00585112
0.00518271
0.00407914
0.00234071
-0.000204235
-0.00364419
-0.00772274
-0.0101933
-0.010922
-0.0105157
-0.0096505
-0.00891738
-0.00864245
-0.00837103
-0.00803741
-0.00778488
-0.00771607
-0.00782677
-0.0081586
-0.00875102
-0.00955264
-0.0104923
-0.0114963
-0.0124093
-0.0131609
-0.0135295
-0.0134152
-0.0128294
-0.0118289
-0.0104668
-0.00887596
-0.00724548
-0.00569946
-0.00430731
-0.00309663
-0.00206877
-0.00121339
-0.000514539
5.4254e-05
0.000514709
0.000860487
0.00106551
0.00111864
0.00104948
0.00091271
0.000756436
0.000595663
0.000413595
0.000200288
0.0101313
0.00736162
0.00436753
0.00377969
0.00442547
0.00503026
0.0053236
0.0053936
0.00535864
0.00525959
0.00505352
0.00467174
0.00402202
0.00304805
0.00166121
-0.000219647
-0.00245386
-0.00476419
-0.0067507
-0.00803683
-0.00853735
-0.00845719
-0.00814215
-0.00784503
-0.00763647
-0.00748552
-0.00739968
-0.00743656
-0.00761343
-0.00795421
-0.00847187
-0.00911721
-0.00984178
-0.0105612
-0.0111785
-0.0116076
-0.0117388
-0.0115258
-0.0110025
-0.0101471
-0.00899246
-0.00768989
-0.00636389
-0.00508492
-0.00389861
-0.00283097
-0.00189042
-0.00107272
-0.000377595
0.000198863
0.000674101
0.00105954
0.00134206
0.00149153
0.00149578
0.00138496
0.00119703
0.000951227
0.000647402
0.000298869
0.0089524
0.00663804
0.00389924
0.00324229
0.00377536
0.00432984
0.00458838
0.00460893
0.0045107
0.00434599
0.00409749
0.00370872
0.00312667
0.00229399
0.00120196
-0.000182527
-0.00172396
-0.00337004
-0.00496716
-0.00620432
-0.00685037
-0.00700552
-0.00687722
-0.00669578
-0.00659027
-0.00656972
-0.00661764
-0.0067477
-0.00697409
-0.00731979
-0.0077349
-0.00827454
-0.0088377
-0.0093548
-0.00977085
-0.0100317
-0.010086
-0.00989915
-0.00943681
-0.00867917
-0.00771796
-0.0066631
-0.00558894
-0.0045428
-0.00355492
-0.00263996
-0.00180894
-0.00105939
-0.000389361
0.000195128
0.000691311
0.00109881
0.0014181
0.00163438
0.00170818
0.00165796
0.00147718
0.00118984
0.000783943
0.000390942
0.00769172
0.0058224
0.00338405
0.00272764
0.00314756
0.00363006
0.00385506
0.00384895
0.00372143
0.0035285
0.00327444
0.00291194
0.00241219
0.00172777
0.000875282
-0.000156173
-0.00130571
-0.00253411
-0.00372517
-0.0046909
-0.0052776
-0.0054921
-0.00549259
-0.00545286
-0.00546823
-0.00554968
-0.00568725
-0.00588803
-0.00615124
-0.00646965
-0.00689351
-0.0073487
-0.00779184
-0.00818734
-0.00849798
-0.00868348
-0.00871468
-0.00854125
-0.00813026
-0.00751672
-0.00673789
-0.00585842
-0.00495145
-0.00406599
-0.00322461
-0.00243279
-0.00170564
-0.00104886
-0.000456323
7.7764e-05
0.000559348
0.000983602
0.00133997
0.0016105
0.00174641
0.00174923
0.00161155
0.00132554
0.00088373
0.000457415
0.00637825
0.00493116
0.00283897
0.00221974
0.00252776
0.00293421
0.00313163
0.0031178
0.00298556
0.00279228
0.00255471
0.0022396
0.00182722
0.00128644
0.000628175
-0.000145213
-0.00100264
-0.00189485
-0.00273907
-0.00343362
-0.00390143
-0.00414592
-0.00424686
-0.00430149
-0.00438491
-0.00452774
-0.00472608
-0.0049732
-0.00527879
-0.00564759
-0.00605056
-0.00644772
-0.00681778
-0.00714392
-0.0074042
-0.00756768
-0.00759662
-0.00746226
-0.00716608
-0.00672373
-0.00612223
-0.00540177
-0.00462441
-0.00382409
-0.00304386
-0.00230854
-0.00162627
-0.00100653
-0.000452878
3.20572e-05
0.0004505
0.000812148
0.00112118
0.00136973
0.00156367
0.0016298
0.00156222
0.00134256
0.000959174
0.000431871
0.00503988
0.00396101
0.00225939
0.00170509
0.00191177
0.00224562
0.00242169
0.00241323
0.00229329
0.00211931
0.00191412
0.00165855
0.00133601
0.000927296
0.000436359
-0.000127831
-0.00074069
-0.00136151
-0.00193914
-0.00242363
-0.00278026
-0.00300772
-0.00314071
-0.00323263
-0.00334312
-0.003513
-0.00377688
-0.00410084
-0.00443342
-0.00484213
-0.00526722
-0.0056572
-0.0060094
-0.00631852
-0.00656707
-0.00673186
-0.00679442
-0.00673883
-0.00656635
-0.00627323
-0.00584935
-0.00531755
-0.00470076
-0.00401988
-0.00330891
-0.00261892
-0.00194566
-0.00129639
-0.000683928
-0.000124077
0.000364929
0.000763786
0.00105933
0.00119466
0.00134963
0.00141809
0.00138395
0.0012098
0.00091384
0.000376523
0.00372299
0.0029395
0.00166098
0.00118935
0.00130627
0.00156727
0.00172139
0.00172416
0.00162886
0.00148927
0.00132985
0.00114148
0.000910334
0.000624311
0.000285016
-9.73569e-05
-0.000504102
-0.00090914
-0.00128462
-0.00160504
-0.00185405
-0.00202448
-0.00213691
-0.0022193
-0.00233117
-0.00249217
-0.00278462
-0.00329379
-0.00388591
-0.00437516
-0.0048307
-0.00525643
-0.00562708
-0.00592622
-0.00614162
-0.00625991
-0.00627122
-0.00617604
-0.00595509
-0.00564037
-0.00531437
-0.00494281
-0.0045265
-0.00409371
-0.00365207
-0.00317994
-0.00270742
-0.00222942
-0.00174362
-0.00125604
-0.000758242
-0.000234969
0.000166169
0.000721158
0.0010224
0.00110392
0.00108682
0.000949031
0.00072454
0.000284867
0.00212979
0.00187771
0.00108378
0.000702835
0.000737556
0.000912561
0.00102992
0.00104068
0.000978282
0.000885324
0.000782581
0.000666784
0.000527705
0.000358635
0.00015948
-5.99674e-05
-0.000290115
-0.000518705
-0.000731045
-0.000912774
-0.00105563
-0.00114923
-0.00120298
-0.00122675
-0.00129206
-0.00145263
-0.00174318
-0.00187107
-0.00205304
-0.0022605
-0.00235817
-0.00236932
-0.00234968
-0.002311
-0.00223911
-0.00212206
-0.0019523
-0.00172938
-0.00145921
-0.0011482
-0.000795773
-0.000427304
-6.54327e-05
0.00026877
0.000553784
0.000767436
0.000906905
0.000971779
0.000973098
0.000938841
0.000886283
0.000855205
0.000926273
0.000828717
0.000735294
0.000733545
0.000729372
0.00063374
0.000486392
0.000196479
0.000679146
0.000677569
0.000406735
0.000236033
0.000227981
0.000293825
0.000345219
0.000353363
0.000330265
0.000295239
0.000258084
0.000218473
0.000171384
0.000115741
4.91701e-05
-2.22903e-05
-9.50528e-05
-0.000169111
-0.000237865
-0.000296606
-0.00034147
-0.000366629
-0.000367507
-0.000322998
-0.000232192
-0.000212148
-0.00129345
-0.00306159
-0.00480479
-0.00639364
-0.00792338
-0.00943905
-0.0109302
-0.0123654
-0.0137031
-0.0149004
-0.0159081
-0.0166793
-0.017173
-0.0173522
-0.0172028
-0.0167247
-0.0159211
-0.014817
-0.0134518
-0.0118703
-0.0101274
-0.00830104
-0.00645858
-0.00466436
-0.00300804
-0.00156597
-0.000315595
0.000459318
0.000231578
0.000188709
0.00022051
0.000201245
0.000159029
6.43283e-05
)
;

boundaryField
{
    upstream
    {
        type            fixedValue;
        value           uniform 0;
    }
    downstream
    {
        type            fixedValue;
        value           uniform 0;
    }
    upANDdown
    {
        type            fixedValue;
        value           uniform 0;
    }
    frontAndBack
    {
        type            empty;
    }
    cylinder
    {
        type            zeroGradient;
    }
}


// ************************************************************************* //
