/*--------------------------------*- C++ -*----------------------------------*\
| =========                 |                                                 |
| \\      /  F ield         | OpenFOAM: The Open Source CFD Toolbox           |
|  \\    /   O peration     | Version:  2.3.0                                 |
|   \\  /    A nd           | Web:      www.OpenFOAM.org                      |
|    \\/     M anipulation  |                                                 |
\*---------------------------------------------------------------------------*/
FoamFile
{
    version     2.0;
    format      ascii;
    class       surfaceScalarField;
    location    "10";
    object      phi;
}
// * * * * * * * * * * * * * * * * * * * * * * * * * * * * * * * * * * * * * //

dimensions      [0 3 -1 0 0 0 0];

internalField   nonuniform List<scalar> 
3330
(
1.99244e-07
-3.61157e-09
1.99162e-07
-1.10107e-08
1.98509e-07
-1.50555e-08
1.97891e-07
-1.73796e-08
1.9759e-07
-1.97065e-08
1.97429e-07
-2.25362e-08
1.97262e-07
-2.58782e-08
1.97055e-07
-2.93418e-08
1.96856e-07
-3.27038e-08
1.96698e-07
-3.5741e-08
1.96608e-07
-3.8489e-08
1.96616e-07
-4.08621e-08
1.96721e-07
-4.2862e-08
1.96987e-07
-4.43277e-08
1.97368e-07
-4.52195e-08
1.9791e-07
-4.52736e-08
1.98585e-07
-4.46957e-08
1.9939e-07
-4.32086e-08
2.00276e-07
-4.09185e-08
2.01189e-07
-3.77997e-08
2.02051e-07
-3.40681e-08
2.02851e-07
-2.97738e-08
2.03524e-07
-2.5223e-08
2.04109e-07
-2.04239e-08
2.04555e-07
-1.56477e-08
2.04917e-07
-1.07565e-08
2.05573e-07
-6.11448e-09
2.0943e-07
-1.68765e-09
2.1107e-07
2.19318e-09
2.11772e-07
4.7604e-09
2.11645e-07
6.83855e-09
2.1079e-07
8.39135e-09
2.09444e-07
9.33322e-09
2.07858e-07
9.66689e-09
2.06233e-07
9.45427e-09
2.04741e-07
8.76648e-09
2.03582e-07
7.67474e-09
2.02962e-07
6.28513e-09
2.02953e-07
4.82343e-09
2.03521e-07
3.47306e-09
2.04739e-07
2.1809e-09
2.06784e-07
9.26499e-10
2.09381e-07
2.49435e-10
2.12393e-07
4.87961e-11
2.15447e-07
5.81471e-10
2.18306e-07
1.67387e-09
2.20504e-07
3.5776e-09
2.22269e-07
5.3758e-09
2.23249e-07
7.60373e-09
2.2336e-07
9.94666e-09
2.22344e-07
1.24838e-08
2.203e-07
1.4755e-08
2.17082e-07
1.68837e-08
2.12927e-07
1.8409e-08
2.07795e-07
1.94875e-08
2.01783e-07
1.99343e-08
1.94854e-07
1.97302e-08
1.86414e-07
1.9394e-08
1.75747e-07
1.85995e-08
1.8808e-08
1.98526e-07
-5.83047e-09
1.98002e-07
-1.04874e-08
1.9677e-07
-1.38231e-08
1.95862e-07
-1.64719e-08
1.95414e-07
-1.92585e-08
1.95193e-07
-2.23149e-08
1.95067e-07
-2.57524e-08
1.9491e-07
-2.91845e-08
1.94803e-07
-3.2597e-08
1.94779e-07
-3.57165e-08
1.94948e-07
-3.8658e-08
1.95329e-07
-4.12435e-08
1.95964e-07
-4.34966e-08
1.9689e-07
-4.52543e-08
1.98039e-07
-4.63678e-08
1.99519e-07
-4.67536e-08
2.01122e-07
-4.62987e-08
2.02827e-07
-4.49142e-08
2.04564e-07
-4.26556e-08
2.06197e-07
-3.94318e-08
2.07583e-07
-3.54549e-08
2.0871e-07
-3.09002e-08
2.09567e-07
-2.60802e-08
2.10252e-07
-2.11095e-08
2.10716e-07
-1.61114e-08
2.11227e-07
-1.12672e-08
2.11623e-07
-6.51089e-09
2.11882e-07
-1.94601e-09
2.11917e-07
2.15829e-09
2.11188e-07
5.48892e-09
2.10049e-07
7.97787e-09
2.08643e-07
9.79744e-09
2.07083e-07
1.08928e-08
2.05529e-07
1.1221e-08
2.04098e-07
1.08852e-08
2.02949e-07
9.91514e-09
2.02177e-07
8.44685e-09
2.01869e-07
6.5933e-09
2.02272e-07
4.42007e-09
2.03828e-07
1.91762e-09
2.05738e-07
2.7035e-10
2.0806e-07
-1.39469e-09
2.10596e-07
-2.28653e-09
2.13364e-07
-2.71949e-09
2.16397e-07
-2.45164e-09
2.19514e-07
-1.44312e-09
2.22594e-07
4.97919e-10
2.25215e-07
2.75467e-09
2.26638e-07
6.18086e-09
2.27099e-07
9.48556e-09
2.26507e-07
1.30756e-08
2.24976e-07
1.62857e-08
2.22445e-07
1.94146e-08
2.19145e-07
2.17094e-08
2.15061e-07
2.35717e-08
2.10485e-07
2.45098e-08
2.05492e-07
2.47237e-08
2.00508e-07
2.43774e-08
1.96151e-07
2.29574e-08
2.07819e-08
1.94454e-07
-6.2489e-09
1.94028e-07
-1.00618e-08
1.93757e-07
-1.35521e-08
1.93291e-07
-1.6006e-08
1.92861e-07
-1.88282e-08
1.92605e-07
-2.20589e-08
1.9251e-07
-2.56572e-08
1.92422e-07
-2.90967e-08
1.92486e-07
-3.26606e-08
1.92664e-07
-3.58954e-08
1.93169e-07
-3.91627e-08
1.93966e-07
-4.20403e-08
1.95158e-07
-4.46888e-08
1.96718e-07
-4.68138e-08
1.98699e-07
-4.8349e-08
2.00991e-07
-4.90462e-08
2.03548e-07
-4.8855e-08
2.06194e-07
-4.75609e-08
2.08719e-07
-4.51807e-08
2.10975e-07
-4.16869e-08
2.12797e-07
-3.72769e-08
2.14185e-07
-3.22891e-08
2.15152e-07
-2.70469e-08
2.15875e-07
-2.18328e-08
2.16428e-07
-1.6664e-08
2.16715e-07
-1.15537e-08
2.16724e-07
-6.5205e-09
2.16511e-07
-1.73245e-09
2.15958e-07
2.71053e-09
2.15006e-07
6.4415e-09
2.13633e-07
9.35124e-09
2.12001e-07
1.14291e-08
2.10258e-07
1.26354e-08
2.08532e-07
1.29473e-08
2.06981e-07
1.24363e-08
2.05841e-07
1.10554e-08
2.0532e-07
8.96798e-09
2.05487e-07
6.42547e-09
2.06108e-07
3.79944e-09
2.06689e-07
1.3369e-09
2.0857e-07
-1.61044e-09
2.11638e-07
-4.46351e-09
2.15567e-07
-6.21545e-09
2.20018e-07
-7.16977e-09
2.24536e-07
-6.96973e-09
2.2864e-07
-5.54788e-09
2.31532e-07
-2.3936e-09
2.33343e-07
9.43211e-10
2.3513e-07
4.39437e-09
2.3586e-07
8.75529e-09
2.35446e-07
1.34896e-08
2.33732e-07
1.79997e-08
2.30903e-07
2.22442e-08
2.27027e-07
2.5585e-08
2.22317e-07
2.82821e-08
2.17046e-07
2.97804e-08
2.11076e-07
3.06937e-08
2.05166e-07
3.02871e-08
1.98072e-07
3.00519e-08
2.85355e-08
1.92044e-07
-6.37989e-09
1.91818e-07
-9.83584e-09
1.91147e-07
-1.28808e-08
1.90747e-07
-1.56057e-08
1.90339e-07
-1.84209e-08
1.90033e-07
-2.17524e-08
1.89921e-07
-2.55458e-08
1.89836e-07
-2.90113e-08
1.9001e-07
-3.28347e-08
1.90315e-07
-3.62006e-08
1.91132e-07
-3.99798e-08
1.92231e-07
-4.3139e-08
1.94007e-07
-4.64645e-08
1.96201e-07
-4.90078e-08
1.99011e-07
-5.1159e-08
2.02375e-07
-5.24105e-08
2.06028e-07
-5.25075e-08
2.09704e-07
-5.12367e-08
2.13189e-07
-4.86664e-08
2.16099e-07
-4.45972e-08
2.18335e-07
-3.95124e-08
2.19966e-07
-3.392e-08
2.2117e-07
-2.82507e-08
2.22e-07
-2.26634e-08
2.22482e-07
-1.71454e-08
2.22633e-07
-1.17051e-08
2.22398e-07
-6.28591e-09
2.21723e-07
-1.05647e-09
2.20616e-07
3.81715e-09
2.18982e-07
8.0758e-09
2.16821e-07
1.15115e-08
2.1425e-07
1.4e-08
2.11403e-07
1.54829e-08
2.08469e-07
1.5881e-08
2.05632e-07
1.52737e-08
2.0313e-07
1.35573e-08
2.01155e-07
1.09434e-08
2.00058e-07
7.52219e-09
2.00408e-07
3.44899e-09
2.02651e-07
-9.06118e-10
2.05453e-07
-4.4117e-09
2.08882e-07
-7.89268e-09
2.13103e-07
-1.04362e-08
2.17909e-07
-1.19765e-08
2.231e-07
-1.216e-08
2.28576e-07
-1.10246e-08
2.34435e-07
-8.25227e-09
2.39842e-07
-4.46414e-09
2.43483e-07
7.5361e-10
2.45052e-07
7.18683e-09
2.44802e-07
1.3739e-08
2.42937e-07
1.98652e-08
2.39483e-07
2.56977e-08
2.34824e-07
3.0244e-08
2.29092e-07
3.40148e-08
2.22825e-07
3.60466e-08
2.15906e-07
3.76126e-08
2.08808e-07
3.73857e-08
2.01511e-07
3.73486e-08
3.43742e-08
1.89687e-07
-6.32009e-09
1.8946e-07
-9.60869e-09
1.88735e-07
-1.2156e-08
1.88289e-07
-1.51599e-08
1.87802e-07
-1.79334e-08
1.87396e-07
-2.13466e-08
1.87191e-07
-2.53403e-08
1.87029e-07
-2.88495e-08
1.87213e-07
-3.30191e-08
1.87563e-07
-3.65501e-08
1.88596e-07
-4.10126e-08
1.89966e-07
-4.45096e-08
1.92351e-07
-4.88495e-08
1.95194e-07
-5.1851e-08
1.99056e-07
-5.50211e-08
2.03523e-07
-5.68768e-08
2.08553e-07
-5.75382e-08
2.1376e-07
-5.64428e-08
2.1846e-07
-5.33671e-08
2.22034e-07
-4.81711e-08
2.246e-07
-4.20779e-08
2.26507e-07
-3.5827e-08
2.27954e-07
-2.96982e-08
2.28939e-07
-2.36483e-08
2.29354e-07
-1.756e-08
2.29158e-07
-1.15097e-08
2.28414e-07
-5.54206e-09
2.2713e-07
2.28399e-10
2.25208e-07
5.73825e-09
2.2259e-07
1.06938e-08
2.19312e-07
1.47896e-08
2.15475e-07
1.78377e-08
2.11294e-07
1.96632e-08
2.07143e-07
2.00322e-08
2.03375e-07
1.9042e-08
2.0031e-07
1.66221e-08
1.98262e-07
1.29918e-08
1.97303e-07
8.48127e-09
1.97124e-07
3.62719e-09
1.97906e-07
-1.68725e-09
2.00439e-07
-6.94555e-09
2.04175e-07
-1.16287e-08
2.09101e-07
-1.53613e-08
2.15031e-07
-1.79073e-08
2.21604e-07
-1.87329e-08
2.28472e-07
-1.78921e-08
2.35035e-07
-1.48149e-08
2.405e-07
-9.92926e-09
2.44251e-07
-2.99823e-09
2.47236e-07
4.20191e-09
2.48171e-07
1.28047e-08
2.471e-07
2.09361e-08
2.43968e-07
2.88291e-08
2.39141e-07
3.50711e-08
2.32915e-07
4.02412e-08
2.25945e-07
4.30166e-08
2.18556e-07
4.50015e-08
2.11275e-07
4.46667e-08
2.04251e-07
4.43724e-08
4.09013e-08
1.87416e-07
-6.12385e-09
1.8707e-07
-9.26315e-09
1.86379e-07
-1.14644e-08
1.85774e-07
-1.45547e-08
1.85158e-07
-1.73175e-08
1.84639e-07
-2.08275e-08
1.84236e-07
-2.49377e-08
1.83926e-07
-2.85398e-08
1.83977e-07
-3.30696e-08
1.84292e-07
-3.68655e-08
1.85441e-07
-4.21618e-08
1.87028e-07
-4.60957e-08
1.90086e-07
-5.1908e-08
1.93592e-07
-5.53569e-08
1.98853e-07
-6.02818e-08
2.04417e-07
-6.24414e-08
2.11252e-07
-6.43731e-08
2.18511e-07
-6.37012e-08
2.24706e-07
-5.95624e-08
2.29196e-07
-5.26609e-08
2.32373e-07
-4.52554e-08
2.3404e-07
-3.7494e-08
2.34675e-07
-3.03333e-08
2.34682e-07
-2.36545e-08
2.34127e-07
-1.70049e-08
2.33128e-07
-1.05106e-08
2.31713e-07
-4.12754e-09
2.29688e-07
2.25306e-09
2.26848e-07
8.57845e-09
2.23168e-07
1.43741e-08
2.187e-07
1.92579e-08
2.13593e-07
2.29442e-08
2.08179e-07
2.50776e-08
2.02783e-07
2.54283e-08
1.97762e-07
2.40624e-08
1.9337e-07
2.10146e-08
1.89819e-07
1.65425e-08
1.87265e-07
1.10356e-08
1.86105e-07
4.78676e-09
1.86316e-07
-1.89808e-09
1.88055e-07
-8.68434e-09
1.91228e-07
-1.48013e-08
1.95764e-07
-1.98979e-08
2.01655e-07
-2.37981e-08
2.0871e-07
-2.57877e-08
2.16619e-07
-2.58014e-08
2.24994e-07
-2.31901e-08
2.33411e-07
-1.83457e-08
2.41085e-07
-1.06727e-08
2.4648e-07
-1.19298e-09
2.49347e-07
9.93747e-09
2.5005e-07
2.02332e-08
2.48479e-07
3.04005e-08
2.44593e-07
3.89571e-08
2.38667e-07
4.61671e-08
2.3141e-07
5.02743e-08
2.23365e-07
5.30461e-08
2.15384e-07
5.26476e-08
2.07412e-07
5.23445e-08
4.86034e-08
1.85215e-07
-5.78576e-09
1.84671e-07
-8.71916e-09
1.83972e-07
-1.07647e-08
1.83153e-07
-1.37357e-08
1.8241e-07
-1.65746e-08
1.8176e-07
-2.0178e-08
1.81038e-07
-2.42154e-08
1.80496e-07
-2.7998e-08
1.80198e-07
-3.2772e-08
1.80437e-07
-3.7104e-08
1.81418e-07
-4.31432e-08
1.83275e-07
-4.79529e-08
1.86731e-07
-5.53633e-08
1.91224e-07
-5.98507e-08
1.98559e-07
-6.76167e-08
2.0547e-07
-6.93521e-08
2.14516e-07
-7.34187e-08
2.24324e-07
-7.35095e-08
2.31883e-07
-6.71219e-08
2.36074e-07
-5.6852e-08
2.37914e-07
-4.70945e-08
2.37625e-07
-3.72056e-08
2.3683e-07
-2.9538e-08
2.35952e-07
-2.27768e-08
2.34378e-07
-1.54308e-08
2.32241e-07
-8.37302e-09
2.2991e-07
-1.79731e-09
2.26849e-07
5.31422e-09
2.22985e-07
1.2443e-08
2.18245e-07
1.91138e-08
2.12608e-07
2.48945e-08
2.06248e-07
2.93043e-08
1.99453e-07
3.18726e-08
1.92499e-07
3.23829e-08
1.85721e-07
3.08403e-08
1.7946e-07
2.7275e-08
1.74042e-07
2.19608e-08
1.69718e-07
1.53601e-08
1.66451e-07
8.05339e-09
1.63995e-07
5.57935e-10
1.63271e-07
-7.96064e-09
1.64342e-07
-1.58722e-08
1.67597e-07
-2.31525e-08
1.73265e-07
-2.94665e-08
1.81252e-07
-3.37745e-08
1.9114e-07
-3.56898e-08
2.02227e-07
-3.42764e-08
2.13743e-07
-2.98622e-08
2.2484e-07
-2.17692e-08
2.347e-07
-1.10534e-08
2.41995e-07
2.64207e-09
2.45845e-07
1.63834e-08
2.46504e-07
2.97417e-08
2.44619e-07
4.08425e-08
2.40251e-07
5.05345e-08
2.33933e-07
5.65928e-08
2.26134e-07
6.08452e-08
2.17788e-07
6.09938e-08
2.09158e-07
6.09744e-08
5.6529e-08
1.83225e-07
-5.39017e-09
1.82506e-07
-7.99951e-09
1.81261e-07
-9.52048e-09
1.80338e-07
-1.28122e-08
1.79632e-07
-1.58694e-08
1.78767e-07
-1.93127e-08
1.77601e-07
-2.30494e-08
1.76686e-07
-2.70827e-08
1.7586e-07
-3.19456e-08
1.75816e-07
-3.70603e-08
1.76332e-07
-4.3659e-08
1.78391e-07
-5.00126e-08
1.8182e-07
-5.87918e-08
1.87693e-07
-6.57233e-08
1.97047e-07
-7.69713e-08
2.08039e-07
-8.03438e-08
2.19959e-07
-8.53387e-08
2.3106e-07
-8.46107e-08
2.36746e-07
-7.2808e-08
2.37748e-07
-5.78535e-08
2.36357e-07
-4.57041e-08
2.32984e-07
-3.3833e-08
2.28981e-07
-2.55341e-08
2.25351e-07
-1.91475e-08
2.21016e-07
-1.10959e-08
2.16985e-07
-4.34159e-09
2.13165e-07
2.02219e-09
2.09281e-07
9.19869e-09
2.05162e-07
1.65623e-08
2.00338e-07
2.39376e-08
1.94509e-07
3.07239e-08
1.87649e-07
3.61638e-08
1.79883e-07
3.96389e-08
1.71495e-07
4.07709e-08
1.62906e-07
3.94287e-08
1.54412e-07
3.57692e-08
1.46097e-07
3.02756e-08
1.38029e-07
2.34284e-08
1.30593e-07
1.54894e-08
1.24608e-07
6.5427e-09
1.20723e-07
-4.07574e-09
1.20167e-07
-1.53162e-08
1.2331e-07
-2.62948e-08
1.30109e-07
-3.62661e-08
1.40181e-07
-4.38463e-08
1.52892e-07
-4.84012e-08
1.67283e-07
-4.86672e-08
1.82336e-07
-4.49146e-08
1.97154e-07
-3.65877e-08
2.11178e-07
-2.50772e-08
2.23643e-07
-9.82299e-09
2.33005e-07
7.02162e-09
2.38087e-07
2.46598e-08
2.39245e-07
3.9684e-08
2.37007e-07
5.27728e-08
2.32257e-07
6.13423e-08
2.25457e-07
6.76452e-08
2.17487e-07
6.89644e-08
2.09139e-07
6.93225e-08
6.4422e-08
1.81313e-07
-4.88172e-09
1.80002e-07
-6.68797e-09
1.80274e-07
-9.79304e-09
1.78996e-07
-1.15339e-08
1.7722e-07
-1.40934e-08
1.75671e-07
-1.77634e-08
1.74007e-07
-2.1386e-08
1.72555e-07
-2.56303e-08
1.71e-07
-3.03906e-08
1.70259e-07
-3.63195e-08
1.69942e-07
-4.33419e-08
1.71706e-07
-5.17761e-08
1.74753e-07
-6.18396e-08
1.81811e-07
-7.27804e-08
1.9332e-07
-8.84804e-08
2.1034e-07
-9.73644e-08
2.28489e-07
-1.03487e-07
2.32032e-07
-8.81546e-08
2.29057e-07
-6.98321e-08
2.20567e-07
-4.93641e-08
2.10162e-07
-3.52992e-08
1.97512e-07
-2.11825e-08
1.88373e-07
-1.63957e-08
1.78566e-07
-9.33998e-09
1.70664e-07
-3.19378e-09
1.65799e-07
5.23213e-10
1.62698e-07
5.12313e-09
1.60916e-07
1.09806e-08
1.59384e-07
1.80947e-08
1.5708e-07
2.62419e-08
1.53296e-07
3.45076e-08
1.477e-07
4.17597e-08
1.40313e-07
4.70257e-08
1.31312e-07
4.97719e-08
1.20856e-07
4.98853e-08
1.09239e-07
4.73862e-08
9.71191e-08
4.23951e-08
8.56509e-08
3.48967e-08
7.6169e-08
2.49714e-08
7.00798e-08
1.26319e-08
6.78565e-08
-1.8525e-09
6.98298e-08
-1.72895e-08
7.57809e-08
-3.22458e-08
8.52668e-08
-4.5752e-08
9.78496e-08
-5.6429e-08
1.13034e-07
-6.35852e-08
1.30169e-07
-6.58022e-08
1.48236e-07
-6.29818e-08
1.66021e-07
-5.43729e-08
1.82667e-07
-4.17235e-08
1.97848e-07
-2.50033e-08
2.11152e-07
-6.28226e-09
2.21087e-07
1.47249e-08
2.26901e-07
3.38692e-08
2.28304e-07
5.13705e-08
2.26002e-07
6.36441e-08
2.21017e-07
7.26301e-08
2.14255e-07
7.57268e-08
2.06782e-07
7.67955e-08
7.20799e-08
1.79617e-07
-4.30758e-09
1.78611e-07
-5.68157e-09
1.77645e-07
-8.82663e-09
1.7636e-07
-1.02497e-08
1.74595e-07
-1.23283e-08
1.72593e-07
-1.57615e-08
1.70347e-07
-1.91396e-08
1.68113e-07
-2.33963e-08
1.65684e-07
-2.79616e-08
1.6373e-07
-3.43656e-08
1.62049e-07
-4.16611e-08
1.62237e-07
-5.19634e-08
1.64543e-07
-6.41459e-08
1.71543e-07
-7.97809e-08
1.89227e-07
-1.06164e-07
2.03567e-07
-1.11705e-07
2.13103e-07
-1.13023e-07
2.7951e-07
-1.54561e-07
2.09677e-07
1.60313e-07
1.25014e-07
1.03832e-07
7.46827e-08
1.27532e-08
6.85212e-08
-3.17839e-09
6.83281e-08
-3.00075e-09
7.22275e-08
-3.37613e-09
7.72265e-08
1.24142e-10
8.23233e-08
5.88375e-09
8.61502e-08
1.42679e-08
8.81197e-08
2.42724e-08
8.7727e-08
3.49002e-08
8.46129e-08
4.48739e-08
7.867e-08
5.29686e-08
7.02312e-08
5.82106e-08
5.99919e-08
6.01246e-08
4.89726e-08
5.84055e-08
3.83352e-08
5.30325e-08
2.94256e-08
4.38062e-08
2.36021e-08
3.07949e-08
2.17394e-08
1.44946e-08
2.34279e-08
-3.54101e-09
2.85291e-08
-2.23907e-08
3.68817e-08
-4.05984e-08
4.79426e-08
-5.68129e-08
6.14445e-08
-6.9931e-08
7.72715e-08
-7.94121e-08
9.53962e-08
-8.39269e-08
1.15104e-07
-8.26899e-08
1.35016e-07
-7.42847e-08
1.53953e-07
-6.06602e-08
1.71009e-07
-4.20594e-08
1.8607e-07
-2.13432e-08
1.98565e-07
2.22977e-09
2.07704e-07
2.473e-08
2.12932e-07
4.61424e-08
2.14091e-07
6.24855e-08
2.11927e-07
7.4794e-08
2.07172e-07
8.04821e-08
2.01255e-07
8.27116e-08
7.89019e-08
1.78069e-07
-3.62271e-09
1.77059e-07
-4.67197e-09
1.75646e-07
-7.41372e-09
1.74056e-07
-8.65913e-09
1.72107e-07
-1.03796e-08
1.69667e-07
-1.3322e-08
1.66849e-07
-1.63217e-08
1.63687e-07
-2.02337e-08
1.60213e-07
-2.44874e-08
1.56592e-07
-3.07445e-08
1.52938e-07
-3.80077e-08
1.50103e-07
-4.91285e-08
1.48897e-07
-6.29399e-08
1.51986e-07
-8.28702e-08
1.69296e-07
-1.23474e-07
2.67584e-07
-2.09992e-07
1.54561e-07
1.27532e-08
9.57482e-09
1.40155e-08
-7.44146e-09
2.00526e-08
-9.41318e-09
2.50005e-08
-4.82374e-09
2.82641e-08
2.62012e-09
3.01401e-08
1.2392e-08
3.04372e-08
2.39753e-08
2.89755e-08
3.63619e-08
2.56398e-08
4.82096e-08
2.04355e-08
5.81728e-08
1.35179e-08
6.51283e-08
5.41966e-09
6.82229e-08
-2.92255e-09
6.67478e-08
-9.89974e-09
6.00097e-08
-1.41328e-08
4.80392e-08
-1.46904e-08
3.13526e-08
-1.11989e-08
1.10031e-08
-4.64148e-09
-1.00984e-08
4.4567e-09
-3.14888e-08
1.51284e-08
-5.12701e-08
2.67638e-08
-6.84483e-08
3.91935e-08
-8.23607e-08
5.25104e-08
-9.2729e-08
6.76516e-08
-9.90681e-08
8.56374e-08
-1.00676e-07
1.05886e-07
-9.45333e-08
1.25832e-07
-8.06059e-08
1.44335e-07
-6.05632e-08
1.60581e-07
-3.75888e-08
1.74729e-07
-1.19186e-08
1.85832e-07
1.36274e-08
1.93762e-07
3.82125e-08
1.97908e-07
5.83393e-08
1.98655e-07
7.40467e-08
1.96254e-07
8.28837e-08
1.92276e-07
8.66898e-08
8.43259e-08
1.76748e-07
-2.82574e-09
1.75676e-07
-3.5997e-09
1.74029e-07
-5.76729e-09
1.72125e-07
-6.75475e-09
1.69896e-07
-8.15047e-09
1.67032e-07
-1.04584e-08
1.63632e-07
-1.29218e-08
1.59564e-07
-1.61652e-08
1.54897e-07
-1.98205e-08
1.49468e-07
-2.53149e-08
1.43231e-07
-3.17714e-08
1.364e-07
-4.22969e-08
1.28191e-07
-5.47311e-08
1.20798e-07
-7.54775e-08
1.07484e-07
-1.1016e-07
-1.02508e-07
-1.20141e-09
-6.24003e-09
-9.07969e-10
-9.70662e-09
-1.88786e-09
-3.84384e-09
-3.31279e-09
4.04507e-09
-5.40149e-09
1.44807e-08
-8.28309e-09
2.68569e-08
-1.20761e-08
4.01549e-08
-1.6988e-08
5.31215e-08
-2.28776e-08
6.40625e-08
-2.87112e-08
7.09619e-08
-3.40623e-08
7.35739e-08
-3.77767e-08
7.04622e-08
-3.89553e-08
6.11883e-08
-3.69921e-08
4.60761e-08
-3.17994e-08
2.61599e-08
-2.36686e-08
2.87226e-09
-1.36409e-08
-2.01261e-08
-2.18786e-09
-4.29418e-08
9.84189e-09
-6.32998e-08
2.17586e-08
-8.0365e-08
3.32995e-08
-9.39016e-08
4.44287e-08
-1.03858e-07
5.53779e-08
-1.10017e-07
6.71963e-08
-1.12494e-07
8.25694e-08
-1.09906e-07
1.00913e-07
-9.89498e-08
1.19304e-07
-7.89538e-08
1.36026e-07
-5.43103e-08
1.50776e-07
-2.66688e-08
1.63087e-07
1.31627e-09
1.72755e-07
2.85447e-08
1.7911e-07
5.19838e-08
1.8239e-07
7.07669e-08
1.82385e-07
8.28883e-08
1.80394e-07
8.86817e-08
8.79018e-08
1.75716e-07
-1.93868e-09
1.74571e-07
-2.45422e-09
1.72754e-07
-3.95049e-09
1.70629e-07
-4.62999e-09
1.68104e-07
-5.62521e-09
1.64865e-07
-7.21924e-09
1.60921e-07
-8.97819e-09
1.56049e-07
-1.12932e-08
1.50228e-07
-1.39999e-08
1.43026e-07
-1.81128e-08
1.34289e-07
-2.30342e-08
1.23491e-07
-3.14993e-08
1.09603e-07
-4.08432e-08
9.45799e-08
-6.04539e-08
1.02508e-07
-1.18088e-07
-6.24003e-09
-7.96247e-09
-7.98415e-09
-1.33664e-08
1.56013e-09
-1.91114e-08
9.79e-09
-2.50996e-08
2.04689e-08
-3.12645e-08
3.30217e-08
-3.7422e-08
4.63125e-08
-4.28514e-08
5.85509e-08
-4.69757e-08
6.81868e-08
-4.9382e-08
7.33682e-08
-5.04811e-08
7.4673e-08
-4.96406e-08
6.96217e-08
-4.65039e-08
5.80516e-08
-4.07289e-08
4.03011e-08
-3.15869e-08
1.70179e-08
-2.07974e-08
-7.91723e-09
-8.06212e-09
-3.28614e-08
5.10174e-09
-5.61057e-08
1.76665e-08
-7.58646e-08
2.88816e-08
-9.15801e-08
3.84668e-08
-1.03487e-07
4.672e-08
-1.12112e-07
5.43876e-08
-1.17685e-07
6.1745e-08
-1.19851e-07
7.00824e-08
-1.18244e-07
8.22868e-08
-1.11154e-07
9.79356e-08
-9.46027e-08
1.13642e-07
-7.00166e-08
1.28188e-07
-4.12147e-08
1.40838e-07
-1.13342e-08
1.51429e-07
1.79541e-08
1.5933e-07
4.40827e-08
1.64502e-07
6.55951e-08
1.66666e-07
8.07239e-08
1.66408e-07
8.89403e-08
8.98076e-08
1.75006e-07
-9.88434e-10
1.73801e-07
-1.24926e-09
1.71863e-07
-2.01258e-09
1.69594e-07
-2.3604e-09
1.66846e-07
-2.8775e-09
1.63319e-07
-3.69249e-09
1.58958e-07
-4.61625e-09
1.53477e-07
-5.81278e-09
1.46753e-07
-7.27608e-09
1.38063e-07
-9.42278e-09
1.27234e-07
-1.22052e-08
1.12499e-07
-1.67639e-08
9.41661e-08
-2.25103e-08
6.85325e-08
-3.48204e-08
-4.95554e-08
-8.40154e-09
4.17373e-10
-1.66813e-08
9.83994e-09
-2.46745e-08
1.77832e-08
-3.18402e-08
2.76346e-08
-3.79167e-08
3.90983e-08
-4.26377e-08
5.10335e-08
-4.60526e-08
6.19657e-08
-4.80029e-08
7.01371e-08
-4.8924e-08
7.42893e-08
-4.83675e-08
7.41166e-08
-4.54346e-08
6.66887e-08
-3.91934e-08
5.18104e-08
-2.92426e-08
3.03503e-08
-1.69322e-08
4.70746e-09
-3.79151e-09
-2.10579e-08
9.8916e-09
-4.65445e-08
2.32919e-08
-6.95059e-08
3.56248e-08
-8.81975e-08
4.58158e-08
-1.01771e-07
5.32333e-08
-1.10904e-07
5.79256e-08
-1.16804e-07
6.09375e-08
-1.20697e-07
6.3748e-08
-1.22662e-07
6.73163e-08
-1.21812e-07
7.27507e-08
-1.16589e-07
8.23262e-08
-1.04178e-07
9.50541e-08
-8.27446e-08
1.08145e-07
-5.43052e-08
1.2028e-07
-2.34693e-08
1.31036e-07
7.1983e-09
1.39797e-07
3.53208e-08
1.46337e-07
5.90551e-08
1.5039e-07
7.66718e-08
1.51845e-07
8.74851e-08
9.05386e-08
1.74642e-07
-5.41861e-12
1.73405e-07
-1.15454e-11
1.71403e-07
-1.08768e-11
1.69054e-07
-1.13679e-11
1.66192e-07
-1.51808e-11
1.62516e-07
-1.66964e-11
1.57918e-07
-1.85108e-11
1.52125e-07
-1.97952e-11
1.44871e-07
-2.23722e-11
1.35475e-07
-2.65855e-11
1.23298e-07
-2.83338e-11
1.06572e-07
-3.76602e-11
8.41031e-08
-4.13944e-11
4.93548e-08
-7.21257e-11
-2.00601e-10
-7.00505e-09
7.42243e-09
-1.57762e-08
1.86111e-08
-2.38549e-08
2.58618e-08
-3.05804e-08
3.43602e-08
-3.57859e-08
4.43037e-08
-3.93329e-08
5.45805e-08
-4.12873e-08
6.39201e-08
-4.15816e-08
7.04314e-08
-4.03172e-08
7.30248e-08
-3.60235e-08
6.98229e-08
-2.80218e-08
5.86871e-08
-1.66797e-08
4.04683e-08
-3.88188e-09
1.75525e-08
8.6468e-09
-7.82121e-09
2.15803e-08
-3.39914e-08
3.43376e-08
-5.93018e-08
4.65348e-08
-8.17031e-08
5.76192e-08
-9.92818e-08
6.66662e-08
-1.10818e-07
7.27862e-08
-1.17024e-07
7.54131e-08
-1.19431e-07
7.45994e-08
-1.19883e-07
7.19092e-08
-1.19972e-07
7.02219e-08
-1.20125e-07
7.06891e-08
-1.17056e-07
7.40952e-08
-1.07584e-07
8.15485e-08
-9.01979e-08
9.1883e-08
-6.46397e-08
1.02576e-07
-3.41628e-08
1.12723e-07
-2.94857e-09
1.21727e-07
2.63169e-08
1.29113e-07
5.16695e-08
1.34553e-07
7.12315e-08
1.37634e-07
8.44045e-08
9.01253e-08
1.74636e-07
9.77978e-10
1.73398e-07
1.22677e-09
1.71396e-07
1.9915e-09
1.69046e-07
2.33803e-09
1.66183e-07
2.84793e-09
1.62506e-07
3.66079e-09
1.57907e-07
4.57998e-09
1.52112e-07
5.7755e-09
1.44858e-07
7.23134e-09
1.35457e-07
9.3741e-09
1.23286e-07
1.21426e-08
1.06555e-07
1.66939e-08
8.41252e-08
2.23883e-08
4.93804e-08
3.46726e-08
4.91798e-08
-5.49253e-09
1.29149e-08
-1.20694e-08
2.5188e-08
-1.82856e-08
3.2078e-08
-2.3275e-08
3.93496e-08
-2.66499e-08
4.76786e-08
-2.80619e-08
5.59925e-08
-2.71161e-08
6.29744e-08
-2.387e-08
6.71853e-08
-1.77165e-08
6.68714e-08
-8.09718e-09
6.02036e-08
3.87121e-09
4.67187e-08
1.63876e-08
2.79518e-08
2.85919e-08
5.34827e-09
4.03415e-08
-1.95709e-08
5.16567e-08
-4.53066e-08
6.23212e-08
-6.99663e-08
7.20468e-08
-9.14287e-08
8.04816e-08
-1.07717e-07
8.71386e-08
-1.17475e-07
9.13708e-08
-1.21256e-07
9.31831e-08
-1.21243e-07
9.164e-08
-1.1834e-07
8.58595e-08
-1.14191e-07
7.8498e-08
-1.12763e-07
7.33554e-08
-1.11913e-07
7.19698e-08
-1.06199e-07
7.41668e-08
-9.23949e-08
8.02306e-08
-7.07035e-08
8.86758e-08
-4.2608e-08
9.75091e-08
-1.17818e-08
1.06167e-07
1.76588e-08
1.13916e-07
4.39211e-08
1.20242e-07
6.49051e-08
1.24595e-07
8.00518e-08
8.86226e-08
1.74989e-07
1.92929e-09
1.73782e-07
2.43347e-09
1.71842e-07
3.93124e-09
1.69571e-07
4.60903e-09
1.66821e-07
5.59817e-09
1.6329e-07
7.19217e-09
1.58926e-07
8.94349e-09
1.53435e-07
1.12664e-08
1.46714e-07
1.39526e-08
1.38009e-07
1.80793e-08
1.27189e-07
2.29621e-08
1.12425e-07
3.14583e-08
9.41168e-08
4.06964e-08
6.84351e-08
6.03543e-08
1.17615e-07
-4.59225e-09
1.75072e-08
-6.61582e-09
2.72115e-08
-8.76568e-09
3.42278e-08
-9.75228e-09
4.03362e-08
-9.06497e-09
4.69913e-08
-6.36435e-09
5.32919e-08
-1.38092e-09
5.79909e-08
6.18159e-09
5.96227e-08
1.63372e-08
5.67158e-08
2.84294e-08
4.81113e-08
4.10553e-08
3.40929e-08
5.31895e-08
1.58176e-08
6.46016e-08
-6.06387e-09
7.51718e-08
-3.0141e-08
8.5019e-08
-5.51538e-08
9.3927e-08
-7.88743e-08
1.01332e-07
-9.88333e-08
1.06628e-07
-1.13013e-07
1.09598e-07
-1.20445e-07
1.10423e-07
-1.22082e-07
1.09852e-07
-1.20672e-07
1.06842e-07
-1.1533e-07
1.00428e-07
-1.07777e-07
9.07513e-08
-1.03086e-07
8.07002e-08
-1.01862e-07
7.40421e-08
-9.95405e-08
7.20035e-08
-9.03563e-08
7.38285e-08
-7.25286e-08
7.90646e-08
-4.78441e-08
8.63096e-08
-1.90268e-08
9.40764e-08
9.89192e-09
1.01708e-07
3.62895e-08
1.08413e-07
5.82005e-08
1.13619e-07
7.48455e-08
8.6265e-08
1.75688e-07
2.81803e-09
1.74539e-07
3.5817e-09
1.7272e-07
5.75093e-09
1.70591e-07
6.73745e-09
1.68063e-07
8.1268e-09
1.64816e-07
1.04387e-08
1.60869e-07
1.28907e-08
1.55986e-07
1.6149e-08
1.50162e-07
1.97767e-08
1.4294e-07
2.53014e-08
1.34202e-07
3.17004e-08
1.23384e-07
4.22762e-08
1.09486e-07
5.45945e-08
9.44503e-08
7.53898e-08
1.02151e-07
1.09915e-07
1.02151e-07
-4.41188e-09
4.41185e-09
-1.73459e-09
1.48299e-08
4.65584e-10
2.50113e-08
3.42608e-09
3.12673e-08
7.24933e-09
3.65129e-08
1.25497e-08
4.1691e-08
1.96612e-08
4.61804e-08
2.87086e-08
4.89435e-08
3.96149e-08
4.87165e-08
5.20825e-08
4.42481e-08
6.52558e-08
3.4938e-08
7.80549e-08
2.12938e-08
8.97656e-08
4.10696e-09
1.00635e-07
-1.69329e-08
1.10658e-07
-4.01646e-08
1.19735e-07
-6.42305e-08
1.27235e-07
-8.63748e-08
1.32355e-07
-1.03953e-07
1.34531e-07
-1.15189e-07
1.33905e-07
-1.19819e-07
1.3126e-07
-1.19437e-07
1.2632e-07
-1.15731e-07
1.20248e-07
-1.09258e-07
1.13581e-07
-1.01111e-07
1.04046e-07
-9.35502e-08
9.18651e-08
-8.96816e-08
8.05912e-08
-8.82666e-08
7.38187e-08
-8.35839e-08
7.20967e-08
-7.08066e-08
7.42872e-08
-5.00347e-08
7.93338e-08
-2.40733e-08
8.58962e-08
3.32947e-09
9.29619e-08
2.92238e-08
9.95737e-08
5.15887e-08
1.05205e-07
6.9214e-08
8.33304e-08
1.76711e-07
3.61711e-09
1.75635e-07
4.65766e-09
1.73984e-07
7.40131e-09
1.72073e-07
8.64877e-09
1.69841e-07
1.03586e-08
1.66969e-07
1.3311e-08
1.63564e-07
1.62959e-08
1.59485e-07
2.02278e-08
1.54805e-07
2.44568e-08
1.49365e-07
3.07413e-08
1.43105e-07
3.79602e-08
1.3627e-07
4.91113e-08
1.27999e-07
6.28658e-08
1.20636e-07
8.27523e-08
1.07189e-07
1.23362e-07
2.09339e-07
-1.2443e-09
5.65614e-09
1.60598e-09
1.19796e-08
8.24739e-09
1.83699e-08
1.62351e-08
2.32796e-08
2.48624e-08
2.78856e-08
3.44438e-08
3.21096e-08
4.52631e-08
3.53611e-08
5.73732e-08
3.68334e-08
7.05956e-08
3.5494e-08
8.44885e-08
3.03552e-08
9.83009e-08
2.11255e-08
1.11274e-07
8.32108e-09
1.23515e-07
-8.13441e-09
1.347e-07
-2.81182e-08
1.44979e-07
-5.04433e-08
1.5338e-07
-7.26319e-08
1.58859e-07
-9.1854e-08
1.60792e-07
-1.05885e-07
1.59353e-07
-1.13751e-07
1.55376e-07
-1.15841e-07
1.49229e-07
-1.13291e-07
1.41133e-07
-1.07635e-07
1.32811e-07
-1.00937e-07
1.24893e-07
-9.31931e-08
1.15954e-07
-8.46105e-08
1.04183e-07
-7.79113e-08
9.08738e-08
-7.4957e-08
7.99153e-08
-7.26253e-08
7.41502e-08
-6.50415e-08
7.34331e-08
-4.93175e-08
7.63107e-08
-2.6951e-08
8.14209e-08
-1.78067e-09
8.75795e-08
2.30652e-08
9.37574e-08
4.54108e-08
9.958e-08
6.33914e-08
8.00196e-08
1.78024e-07
4.30449e-09
1.7701e-07
5.67174e-09
1.75592e-07
8.81899e-09
1.73995e-07
1.02462e-08
1.72041e-07
1.23121e-08
1.69593e-07
1.57591e-08
1.66767e-07
1.91217e-08
1.63593e-07
2.3402e-08
1.60105e-07
2.79448e-08
1.56472e-07
3.43748e-08
1.52785e-07
4.16468e-08
1.49941e-07
5.1955e-08
1.48676e-07
6.41308e-08
1.51732e-07
7.96965e-08
1.68907e-07
1.06187e-07
2.66714e-07
1.11532e-07
1.53872e-07
1.12842e-07
1.53872e-07
9.76701e-09
-9.76703e-09
4.67384e-09
5.09315e-09
6.69135e-09
3.63861e-09
1.26143e-08
6.05659e-09
2.1835e-08
9.14924e-09
3.21546e-08
1.296e-08
4.32691e-08
1.6771e-08
5.54915e-08
1.98871e-08
6.87671e-08
2.20855e-08
8.29467e-08
2.26538e-08
9.78126e-08
2.06281e-08
1.1302e-07
1.51479e-08
1.28049e-07
6.09667e-09
1.42235e-07
-5.86529e-09
1.5571e-07
-2.16098e-08
1.68227e-07
-4.0635e-08
1.78559e-07
-6.07752e-08
1.85176e-07
-7.92489e-08
1.87286e-07
-9.39635e-08
1.85095e-07
-1.03694e-07
1.79379e-07
-1.08035e-07
1.71321e-07
-1.07783e-07
1.62328e-07
-1.04298e-07
1.53142e-07
-9.84496e-08
1.43648e-07
-9.14424e-08
1.34601e-07
-8.4146e-08
1.25945e-07
-7.5955e-08
1.15724e-07
-6.76895e-08
1.02882e-07
-6.21155e-08
8.97825e-08
-5.95257e-08
8.02602e-08
-5.55192e-08
7.6139e-08
-4.51963e-08
7.6741e-08
-2.7553e-08
8.0252e-08
-5.29169e-09
8.53638e-08
1.79534e-08
9.09459e-08
3.98287e-08
9.67471e-08
5.75901e-08
7.65501e-08
1.79567e-07
4.88167e-09
1.78556e-07
6.683e-09
1.77584e-07
9.79071e-09
1.76296e-07
1.15344e-08
1.74521e-07
1.40867e-08
1.72514e-07
1.77662e-08
1.70254e-07
2.13818e-08
1.68014e-07
2.56422e-08
1.65562e-07
3.03962e-08
1.636e-07
3.63375e-08
1.61886e-07
4.33606e-08
1.62052e-07
5.17888e-08
1.64314e-07
6.18684e-08
1.71227e-07
7.27841e-08
1.88865e-07
8.85488e-08
2.02962e-07
9.74349e-08
2.12285e-07
1.03519e-07
2.78003e-07
8.8154e-08
2.07962e-07
7.00417e-08
1.5804e-07
4.99221e-08
1.21586e-07
3.64535e-08
9.86491e-08
2.2937e-08
6.96175e-08
1.92645e-08
6.17266e-08
1.29841e-08
5.81506e-08
7.21462e-09
5.8851e-08
5.35611e-09
6.25899e-08
5.41031e-09
6.95323e-08
6.01762e-09
7.88904e-08
7.41286e-09
9.00227e-08
8.75488e-09
1.02693e-07
9.41553e-09
1.1676e-07
8.58664e-09
1.32023e-07
5.36462e-09
1.4772e-07
-5.48263e-10
1.62917e-07
-9.10058e-09
1.78061e-07
-2.10095e-08
1.92498e-07
-3.60468e-08
2.04244e-07
-5.23808e-08
2.11162e-07
-6.76935e-08
2.12663e-07
-8.07501e-08
2.09393e-07
-9.06932e-08
2.02547e-07
-9.68479e-08
1.93454e-07
-9.89419e-08
1.83235e-07
-9.75641e-08
1.72682e-07
-9.37448e-08
1.62498e-07
-8.82658e-08
1.52657e-07
-8.1601e-08
1.43185e-07
-7.4674e-08
1.34522e-07
-6.7292e-08
1.25805e-07
-5.89729e-08
1.14909e-07
-5.12191e-08
1.01838e-07
-4.64548e-08
8.98019e-08
-4.34832e-08
8.22136e-08
-3.7608e-08
7.99565e-08
-2.52959e-08
8.1782e-08
-7.11715e-09
8.58463e-08
1.3889e-08
9.07431e-08
3.4932e-08
9.6379e-08
5.19542e-08
7.29853e-08
1.8126e-07
5.3938e-09
1.79945e-07
7.99845e-09
1.8021e-07
9.52499e-09
1.7893e-07
1.28143e-08
1.77143e-07
1.5874e-08
1.75591e-07
1.93185e-08
1.7391e-07
2.30627e-08
1.72455e-07
2.70974e-08
1.70875e-07
3.19757e-08
1.70126e-07
3.70865e-08
1.6978e-07
4.37074e-08
1.71514e-07
5.00547e-08
1.74519e-07
5.88633e-08
1.81488e-07
6.58148e-08
1.92923e-07
7.71134e-08
2.09877e-07
8.04809e-08
2.27809e-07
8.55871e-08
2.3103e-07
8.49331e-08
2.2761e-07
7.34613e-08
2.1864e-07
5.8893e-08
2.07855e-07
4.72379e-08
1.94757e-07
3.60348e-08
1.85269e-07
2.87527e-08
1.74674e-07
2.35796e-08
1.65042e-07
1.68464e-08
1.58416e-07
1.19818e-08
1.54299e-07
9.52715e-09
1.52921e-07
7.39594e-09
1.54184e-07
6.14983e-09
1.58135e-07
4.80404e-09
1.64901e-07
2.64985e-09
1.74185e-07
-6.97206e-10
1.85223e-07
-5.67399e-09
1.97246e-07
-1.25709e-08
2.09621e-07
-2.14755e-08
2.20976e-07
-3.23652e-08