/*--------------------------------*- C++ -*----------------------------------*\
| =========                 |                                                 |
| \\      /  F ield         | OpenFOAM: The Open Source CFD Toolbox           |
|  \\    /   O peration     | Version:  2.3.0                                 |
|   \\  /    A nd           | Web:      www.OpenFOAM.org                      |
|    \\/     M anipulation  |                                                 |
\*---------------------------------------------------------------------------*/
FoamFile
{
    version     2.0;
    format      ascii;
    class       volScalarField;
    location    "1.8";
    object      p;
}
// * * * * * * * * * * * * * * * * * * * * * * * * * * * * * * * * * * * * * //

dimensions      [1 -1 -2 0 0 0 0];

internalField   nonuniform List<scalar> 
2268
(
679.661
669.685
660.79
651.254
633.112
626.001
651.019
655.922
649.782
646.001
640.663
636.998
636.552
637.831
639.473
641.473
641.356
637.794
634.995
634.944
637.187
641.287
644.308
622.322
611.008
606.908
604.396
585.111
572.847
590.924
596.294
589.131
586.464
581.469
577.522
577.011
578.545
580.624
583.56
583.407
578.784
574.861
575.097
577.258
581.01
584.761
567.279
556.4
561.149
558.406
536.449
521.633
527.61
536.185
530.095
527.912
522.165
517.366
516.603
518.665
521.156
524.225
525.324
521.507
517.067
516.225
517.77
521.008
525.189
514.8
506.654
511.703
504.116
481.639
470.563
469.698
477.813
472.436
469.401
462.478
456.591
455.67
458.362
461.247
465.108
466.953
464.341
459.248
457.449
458.196
461.28
466.172
463.971
457.04
451.947
442.199
424.391
419.505
419.757
422.088
416.533
411.107
402.591
395.946
394.673
397.218
400.593
405.812
408.978
408.247
401.746
398.741
399
402.008
407.864
413.061
401.789
385.437
380.346
370.966
367.66
373.287
368.177
360.892
352.633
342.838
335.834
333.327
334.114
338.252
346.681
352.072
353.898
343.686
337.852
337.342
342.179
349.593
360.171
344.32
319.105
320.637
319.173
317.914
323.018
313.582
304.287
293.92
283.585
276.207
271.294
269.92
274.775
286.897
295.789
300.417
284.781
274.11
273.95
282.086
292.756
306.848
288.883
258.068
264.604
267.47
265.844
267.353
257.489
246.807
235.639
225.616
215.613
208.748
206.764
213.108
227.683
241.737
248.567
227.93
211.389
211.954
222.747
239.046
604.17
596.526
571.687
541.796
551.273
599.431
658.467
714.017
767.019
820.893
870.663
914.087
951.137
980.576
1004.73
1025.23
1050.9
1064.16
1074.4
547.71
538.83
510.039
475.124
482.633
536.448
598.256
655.537
710.179
765.553
815.875
858.171
894.098
926.434
951.383
973.317
1001.96
1011.81
1021.28
492.502
482.491
448.48
410.955
416.91
471.361
533.902
592.633
650.109
708.228
761.904
804.829
839.61
870.919
896.782
921.146
950.879
962.247
970.833
436.486
428.126
391.945
352.302
354.959
404.324
465.405
524.59
586.658
650.228
706.546
749.309
783.401
813.268
839.078
865.348
897.953
912.688
922.994
380.574
373.938
340.149
301.046
296.151
332.089
385.509
446.898
520.404
594.058
651.611
692.875
725.319
752.611
777.144
804.256
840.392
861.384
877.691
324.977
320.054
289.315
252.985
238.246
246.405
278.293
349.982
449.169
541.601
600.064
637.61
666.794
691.517
713.553
740.074
778.589
807.297
832.784
273.662
267.917
237.761
206.494
181.616
156.36
164.188
235.605
371.731
489.208
549.738
584.274
611.103
631.689
650.754
675.322
715.833
753.175
786.155
203.98
208.269
182.47
156.574
129.06
107.818
128.74
184.58
313.938
435.863
497.734
532.476
556.003
570.668
587.064
609.809
652.153
698.059
736.59
224.918
207.979
178.85
178.818
189.351
186.624
178.869
167.673
155.458
143.964
136.204
127.171
121.941
117.594
119.911
136.811
155.029
163.151
148.667
121.712
120.259
132.381
148.044
121.644
112.35
86.3731
64.0041
53.557
58.6046
65.4449
62.2899
54.4569
51.6042
49.6979
41.2452
27.0905
19.7717
23.7072
37.8684
57.6273
69.3656
63.314
31.7585
17.5037
24.3045
37.2533
54.7204
43.3124
22.3283
5.78992
3.72024
5.99684
9.65281
10.5865
11.0199
10.6936
9.92888
6.70418
4.43726
4.24957
3.91856
3.21865
3.51466
8.65662
10.857
5.35462
3.02101
9.09892
8.26096
7.03278
2.39949
2.1381
2.13825
2.19184
2.38618
2.38042
2.40281
2.43602
2.65204
2.47626
2.1479
2.68205
2.96341
2.91251
2.74771
2.60196
3.38627
5.3877
5.73901
4.83034
4.53411
4.69851
1.76105
1.6433
1.6318
1.86639
2.10775
2.12407
2.0936
2.09751
2.17268
2.27318
2.43802
2.47099
2.37922
2.29714
2.26316
2.25417
2.40383
3.54214
6.05707
5.75585
4.98383
4.7302
4.78009
1.51008
1.49622
1.50058
1.59389
1.7867
1.78913
1.76299
1.8015
1.89054
2.01123
2.1739
2.24766
2.14739
1.98313
1.96619
2.03514
2.19725
2.70745
5.19835
5.46078
4.72838
4.54875
4.52766
1.38715
1.36257
1.37425
1.43824
1.51395
1.43727
1.36954
1.42237
1.56045
1.7484
1.93065
2.02365
1.99947
1.88328
1.86204
1.87671
1.85834
1.82478
2.68965
4.16237
3.8996
4.07218
4.1701
1.21298
1.21427
1.22885
1.28421
1.22914
1.04206
0.956992
1.03594
1.20966
1.45993
1.73195
1.91073
1.96882
1.92755
1.86429
1.68002
0.955172
-0.163678
-0.728605
0.579026
2.28251
3.03915
3.27802
1.01454
1.00818
1.03542
1.06915
0.940894
0.684095
0.61699
0.708511
0.904662
1.21391
1.58637
1.88204
2.01424
1.98974
1.76539
1.02025
-0.285659
-2.02986
-4.00424
-2.76169
0.124851
1.13332
1.3273
0.833897
0.838206
0.824002
0.806516
0.664563
0.424565
0.367558
0.444284
0.660437
1.0284
1.48699
1.84954
1.98302
1.83914
1.08879
-0.272923
-1.14675
-2.34399
-3.55906
-3.25641
-1.24053
-0.554313
-0.42344
0.591802
0.586503
0.554024
0.534551
0.425207
0.241364
0.182648
0.240049
0.459412
0.852606
1.34076
1.71006
1.71897
0.959923
-0.520952
-1.20038
-1.56055
-2.02882
-2.57782
-2.50673
-1.69744
-1.45983
-1.32395
0.228117
0.194663
0.216314
0.261142
0.226543
0.130025
0.0729541
0.0900101
0.240159
0.581368
1.04546
1.30699
0.696513
-0.693946
-1.21996
-1.41257
-1.63058
-1.89518
-2.03445
-1.90738
-1.68826
-1.84086
-1.75636
-0.171993
-0.277982
-0.113306
0.00607717
0.0528077
0.0511688
0.00919752
-0.0620915
-0.100456
0.10562
0.436035
0.307932
-0.843852
-1.31251
-1.40636
-1.53358
-1.6634
-1.74413
-1.75443
-1.70939
-1.7162
-1.89235
-1.7165
-0.446591
-0.55596
-0.354573
-0.213479
-0.125453
-0.0750328
-0.0922207
-0.2847
-0.61848
-0.790282
-0.611975
-0.827245
-1.46351
-1.57493
-1.60137
-1.63171
-1.62707
-1.60054
-1.59943
-1.68524
-1.95603
-1.9936
-2.15888
-0.561888
-0.605542
-0.509221
-0.419251
-0.343717
-0.276653
-0.281973
-0.587655
-1.30937
-2.1159
-2.02568
-1.78548
-1.73757
-1.80397
-1.80359
-1.75407
-1.64299
-1.53932
-1.55749
-1.77499
-2.08503
-2.22048
-2.25324
-0.645833
-0.681853
-0.657167
-0.629762
-0.590767
-0.551605
-0.575583
-0.919557
-1.93182
-3.21719
-3.6437
-3.05329
-2.27801
-2.03611
-2.06651
-2.06734
-1.93067
-1.69054
-1.63433
-1.82631
-2.06039
-2.21467
-2.3228
-0.801642
-0.844732
-0.853384
-0.857233
-0.846487
-0.842756
-0.905792
-1.21659
-2.16398
-3.55432
-4.3566
-3.92383
-3.20532
-2.57539
-2.49966
-2.62228
-2.6311
-2.39632
-2.10754
-2.07858
-2.25589
-2.37222
-2.42992
-1.0373
-1.07715
-1.08962
-1.09716
-1.08917
-1.10282
-1.17849
-1.45658
-2.14798
-3.25293
-3.97991
-4.05598
-3.80765
-3.58569
-3.50234
-3.61907
-3.66164
-3.56569
-3.3029
-3.03743
-2.84601
-2.57108
-2.51114
-1.29287
-1.32997
-1.34068
-1.34011
-1.33525
-1.36497
-1.45056
-1.65869
-2.09392
-2.84249
-3.53507
-3.85707
-3.90608
-4.02411
-4.22247
-4.43871
-4.5885
-4.39657
-4.04022
-3.73166
-3.40161
-2.92309
-2.707
-1.55053
-1.58329
-1.60136
-1.59942
-1.62663
-1.68772
-1.76758
-1.89917
-2.17793
-2.66123
-3.21178
-3.62575
-3.87141
-4.10079
-4.36389
-4.64283
-4.78217
-4.58556
-4.28316
-4.04897
-3.69035
-3.2659
-3.00328
-1.80585
-1.82836
-1.85527
-1.8842
-1.94841
-2.00833
-2.07619
-2.17885
-2.36629
-2.67457
-3.08344
-3.46171
-3.74423
-3.97871
-4.20382
-4.39938
-4.47012
-4.36883
-4.1613
-3.91594
-3.63631
-3.35755
-3.14053
-2.05362
-2.06024
-2.08855
-2.15396
-2.21967
-2.24555
-2.31212
-2.41245
-2.56169
-2.78365
-3.08123
-3.38715
-3.63638
-3.81715
-3.96668
-4.08513
-4.12721
-4.06329
-3.91716
-3.72245
-3.51177
-3.30717
-3.13583
-2.2975
-2.30244
-2.31526
-2.37502
-2.41763
-2.45466
-2.51747
-2.61228
-2.74787
-2.93589
-3.15741
-3.38611
-3.58121
-3.72409
-3.82885
-3.89893
-3.91538
-3.85907
-3.73902
-3.57927
-3.40366
-3.23709
-3.09988
-2.53925
-2.55677
-2.55509
-2.59
-2.62886
-2.67457
-2.73547
-2.81982
-2.93414
-3.09847
-3.27104
-3.44589
-3.59461
-3.71027
-3.79452
-3.84441
-3.84522
-3.78528
-3.67182
-3.52512
-3.36709
-3.2173
-3.08998
-2.77271
-2.7952
-2.79833
-2.8304
-2.87046
-2.91736
-2.97379
-3.04689
-3.14477
-3.26987
-3.40575
-3.54179
-3.66461
-3.7672
-3.84285
-3.88311
-3.87514
-3.80923
-3.69429
-3.55118
-3.40028
-3.25538
-3.12436
-3.00418
-3.0249
-3.04685
-3.08947
-3.13646
-3.1851
-3.23638
-3.29737
-3.37339
-3.46692
-3.57205
-3.68286
-3.79124
-3.88445
-3.95154
-3.98408
-3.97066
-3.89916
-3.78235
-3.64313
-3.50215
-3.37041
-3.24986
-3.23651
-3.26076
-3.30612
-3.36657
-3.42868
-3.48681
-3.53794
-3.58533
-3.63491
-3.69483
-3.76656
-3.84878
-3.93687
-4.02036
-4.08491
-4.11467
-4.09325
-4.01931
-3.90657
-3.77918
-3.65946
-3.55879
-3.47948
-3.46629
-3.50352
-3.5737
-3.65815
-3.74369
-3.82134
-3.88199
-3.91811
-3.93735
-3.95393
-3.98073
-4.02168
-4.07541
-4.13405
-4.18362
-4.20719
-4.18749
-4.12166
-4.02587
-3.92285
-3.83736
-3.7827
-3.76909
-3.70431
-3.75074
-3.83684
-3.94797
-4.06241
-4.16896
-4.25083
-4.28966
-4.28192
-4.24257
-4.20568
-4.19018
-4.19505
-4.21504
-4.23913
-4.25062
-4.23343
-4.18684
-4.11749
-4.04364
-3.99728
-3.98637
-4.02575
-3.92785
-3.98393
-4.07089
-4.20428
-4.34523
-4.48033
-4.58904
-4.64352
-4.62476
-4.53775
-4.43189
-4.34995
-4.30131
-4.27987
-4.27379
-4.26894
-4.25224
-4.21957
-4.18246
-4.14607
-4.12759
-4.14118
-4.195
-4.10778
-4.17908
-4.25499
-4.38936
-4.5422
-4.69241
-4.81621
-4.88298
-4.86386
-4.76623
-4.62372
-4.49026
-4.39897
-4.34792
-4.32275
-4.30915
-4.29585
-4.27756
-4.25828
-4.245
-4.2428
-4.26178
-4.30321
-4.24622
-4.31699
-4.37863
-4.48578
-4.62793
-4.77664
-4.90072
-4.96741
-4.95654
-4.86872
-4.73115
-4.59177
-4.48562
-4.42103
-4.38991
-4.37681
-4.37059
-4.36446
-4.3579
-4.3545
-4.35849
-4.37294
-4.39849
-4.3593
-4.40652
-4.44464
-4.51109
-4.61893
-4.74568
-4.85802
-4.92329
-4.9254
-4.86571
-4.76121
-4.64894
-4.55865
-4.49941
-4.47008
-4.46155
-4.46263
-4.46597
-4.46891
-4.47263
-4.47986
-4.492
-4.50946
-4.4584
-4.48007
-4.49652
-4.53627
-4.6085
-4.70154
-4.79111
-4.85176
-4.87136
-4.84224
-4.77032
-4.68937
-4.62733
-4.58559
-4.56221
-4.55906
-4.5663
-4.57635
-4.58587
-4.5945
-4.60386
-4.61486
-4.62778
-4.55732
-4.57596
-4.60983
-4.65211
-4.69703
-4.74985
-4.80153
-4.85105
-4.88176
-4.87078
-4.82011
-4.75665
-4.70956
-4.68103
-4.6653
-4.6666
-4.67861
-4.69301
-4.70667
-4.71854
-4.72944
-4.74016
-4.75107
-4.68661
-4.70658
-4.76745
-4.81898
-4.85591
-4.88485
-4.90916
-4.92585
-4.9372
-4.93218
-4.89648
-4.84385
-4.80479
-4.78386
-4.77613
-4.78147
-4.79706
-4.81444
-4.83039
-4.84416
-4.85608
-4.86679
-4.87674
-4.83754
-4.84048
-4.87646
-4.92123
-4.9523
-4.96702
-4.98162
-5.00572
-5.02911
-5.02831
-4.99417
-4.944
-4.90525
-4.88999
-4.89049
-4.90158
-4.92029
-4.93974
-4.95696
-4.97163
-4.98406
-4.99475
-5.00416
-4.97977
-4.95756
-4.95705
-4.98338
-5.01283
-5.03639
-5.06305
-5.11016
-5.1681
-5.18257
-5.14099
-5.07049
-5.02161
-5.00651
-5.01145
-5.0273
-5.04859
-5.06922
-5.08692
-5.10174
-5.11413
-5.12457
-5.13348
-5.11413
-5.08543
-5.07201
-5.08758
-5.11464
-5.14181
-5.18209
-5.25847
-5.36359
-5.42107
-5.3648
-5.24363
-5.15937
-5.13472
-5.14126
-5.16113
-5.18359
-5.204
-5.22113
-5.23527
-5.24696
-5.25669
-5.26485
-5.26549
-5.24512
-5.23365
-5.23813
-5.25422
-5.28462
-5.34116
-5.46734
-5.62021
-5.70838
-5.63797
-5.47215
-5.34016
-5.29269
-5.29234
-5.30917
-5.32839
-5.34555
-5.36032
-5.3726
-5.38275
-5.39118
-5.39821
-5.4409
-5.42547
-5.41613
-5.41761
-5.4317
-5.47197
-5.55486
-5.74605
-6.02617
-6.15946
-6.12291
-5.84396
-5.54873
-5.46263
-5.45962
-5.46876
-5.48117
-5.49381
-5.50464
-5.51378
-5.52148
-5.52798
-5.53343
-5.6299
-5.6222
-5.62048
-5.62269
-5.64507
-5.7063
-5.83549
-6.07288
-6.44879
-6.48913
-6.60327
-6.37142
-5.92577
-5.6943
-5.65746
-5.64529
-5.64591
-5.64948
-5.65398
-5.65869
-5.66314
-5.66715
-5.67065
161.55
168.789
171.624
166.399
55.5976
67.7557
76.6455
77.8148
9.24459
10.1445
10.601
10.6983
5.1906
5.54783
5.81974
5.97682
5.04352
5.25695
5.37713
5.43738
4.81452
4.94275
4.95726
4.96862
4.33645
4.4555
4.45577
4.41669
3.42469
3.59356
3.706
3.77267
1.89587
2.31945
2.71778
3.05839
0.56753
1.1881
1.58492
1.92948
-0.46566
-0.0223651
0.187774
0.292264
-1.2675
-0.754392
-0.519522
-0.639122
-2.00665
-2.1897
-2.32802
-2.53367
-2.40233
-2.61033
-2.80144
-2.93467
-2.48072
-2.66381
-2.8251
-2.95535
-2.46282
-2.58244
-2.69567
-2.78096
-2.45862
-2.50233
-2.57188
-2.63575
-2.54589
-2.59484
-2.66571
-2.7342
-2.75363
-2.80711
-2.86552
-2.90339
-2.98131
-2.99737
-3.00609
-3.00289
-3.07277
-3.05274
-3.0361
-3.0206
-3.063
-3.03598
-3.01758
-3.00627
-3.03475
-3.0079
-2.99233
-2.9878
-3.02086
-2.98711
-2.9654
-2.95678
-3.03837
-2.98947
-2.9482
-2.94794
-3.15994
-3.10388
-3.04283
-3.07138
-3.42972
-3.40478
-3.34948
-3.40576
-3.80085
-3.84475
-3.89579
-3.90169
-4.11661
-4.20465
-4.3154
-4.32462
-4.28309
-4.36463
-4.45276
-4.48528
-4.35087
-4.39263
-4.44817
-4.49269
-4.42698
-4.4492
-4.4776
-4.5086
-4.526
-4.5381
-4.55243
-4.56866
-4.63825
-4.64552
-4.65387
-4.66328
-4.75907
-4.76435
-4.7701
-4.7763
-4.88357
-4.88791
-4.89242
-4.89708
-5.01032
-5.01412
-5.01787
-5.02161
-5.13913
-5.14254
-5.14577
-5.14888
-5.26993
-5.27293
-5.27572
-5.27832
-5.40253
-5.40505
-5.40734
-5.40942
-5.53675
-5.53868
-5.54039
-5.5419
-5.67279
-5.67401
-5.67506
-5.67592
139.07
115.399
97.6141
85.4472
89.4442
83.4742
96.7497
151.742
261.262
356.708
409.538
445.847
467.364
474.414
480.973
508.151
551.724
604.317
653.206
66.485
53.8476
46.7868
47.6569
58.0861
62.8299
58.5163
84.4585
160.278
233.886
286.565
325.442
351.433
363.156
373.719
394.461
430.428
478.268
528.47
11.1563
14.7033
23.0165
33.8444
39.3117
37.1888
30.0797
28.7054
42.7747
90.0667
153.972
207.744
243.943
270.193
291.811
313.23
342.636
377.832
415.968
6.11754
6.07269
6.3214
9.60049
9.41478
8.96634
8.82169
10.2875
9.48272
15.5212
51.8805
101.032
145.028
180.738
205.679
227.568
266.578
308.795
334.15
5.47107
5.34626
4.71409
3.33047
2.11385
2.84399
5.05413
5.81066
5.5745
4.57861
9.27979
32.2582
59.1448
83.3656
98.539
103.549
135.764
204.608
262.165
4.98822
4.8264
4.3364
3.67081
3.22
3.38483
4.03843
4.22883
4.05106
3.77175
3.26077
3.99069
11.256
19.2941
21.1882
19.876
33.0718
57.321
137.001
4.44009
4.30705
3.84791
3.28205
3.04
3.16208
3.24006
3.18411
3.27156
3.24239
3.30177
4.26818
5.29951
6.25208
7.35642
7.9802
8.95295
8.46208
33.6555
3.78203
3.78153
3.52188
3.1762
2.96097
2.83365
2.73859
2.67176
2.84756
2.95095
3.00221
3.72074
4.69252
5.43022
5.71893
4.45731
1.26835
-2.89082
3.24005
3.21671
3.36815
3.32999
3.14665
2.95127
2.71422
2.51231
2.4138
2.39514
2.49235
2.51994
2.8575
3.7892
4.45813
3.44432
0.109243
-7.77603
-4.72347
2.04023
2.60364
3.0368
3.18789
3.14071
2.92579
2.62015
2.29282
1.90948
1.61896
1.54527
1.2719
1.00906
1.85561
2.662
1.44217
-2.88416
-7.9259
-2.10501
1.73264
0.834215
1.8847
2.55591
2.75795
2.55334
2.29409
1.84804
1.07174
0.522599
0.269583
0.0959155
0.0255048
0.167829
0.648695
0.942571
0.182946
-1.44783
0.954133
1.44331
-0.88646
-0.490427
0.700678
1.47012
1.60553
1.47154
0.89854
0.128769
-0.272103
-0.291162
-0.229183
-0.166169
-0.130436
-0.138453
0.332528
1.74218
2.43835
1.64772
1.20268
-2.57194
-2.08246
-1.1239
-0.13173
0.308751
0.275863
-0.00976037
-0.440427
-0.634003
-0.540431
-0.459118
-0.408976
-0.347202
-0.335757
-0.171772
1.7477
2.44545
1.3994
1.00699
-3.02426
-2.82535
-2.35639
-1.35809
-0.942448
-0.873711
-0.798138
-0.878899
-0.884038
-0.775719
-0.709028
-0.675912
-0.643546
-0.618887
-0.708299
0.368264
1.73306
1.07637
0.956181
-3.0432
-2.9238
-2.62282
-2.00993
-1.6519
-1.46091
-1.38281
-1.23001
-1.08909
-0.976544
-0.936042
-0.935039
-0.940329
-0.938879
-1.01781
-0.975499
0.293856
0.362154
0.633639
-2.86665
-2.80906
-2.6025
-2.25989
-1.93204
-1.73144
-1.64596
-1.53531
-1.29766
-1.17435
-1.14328
-1.17318
-1.20515
-1.24676
-1.30114
-1.43797
-1.05838
-0.660399
-0.183591
-2.72448
-2.75983
-2.62557
-2.38334
-2.10785
-1.89352
-1.7625
-1.72372
-1.56842
-1.42533
-1.35152
-1.3875
-1.43673
-1.50769
-1.56247
-1.6416
-1.68857
-1.74673
-1.22356
-2.8258
-2.88056
-2.76016
-2.52432
-2.25367
-2.03825
-1.91434
-1.88597
-1.87121
-1.7274
-1.59282
-1.59026
-1.6447
-1.7089
-1.7986
-1.89304
-2.06684
-2.11665
-1.72402
-2.95261
-2.99062
-2.85783
-2.63198
-2.39279
-2.20738
-2.10669
-2.08434
-2.13603
-2.01318
-1.86464
-1.83249
-1.87449
-1.92717
-2.01204
-2.10293
-2.25219
-2.48303
-2.34789
-3.00198
-2.99624
-2.89983
-2.73184
-2.55102
-2.40931
-2.32864
-2.29994
-2.32665
-2.27147
-2.13869
-2.10761
-2.11715
-2.15129
-2.21036
-2.2855
-2.38929
-2.48636
-2.49564
-3.00642
-3.01416
-2.97892
-2.87399
-2.74164
-2.62836
-2.55448
-2.51121
-2.49635
-2.48775
-2.38062
-2.35179
-2.35031
-2.37181
-2.41048
-2.46308
-2.53084
-2.59855
-2.62372
-3.00211
-3.04551
-3.07474
-3.03309
-2.9409
-2.84479
-2.77138
-2.71868
-2.68395
-2.65677
-2.58269
-2.55211
-2.56527
-2.58627
-2.61083
-2.64724
-2.69391
-2.73925
-2.76254
-3.00327
-3.10847
-3.20916
-3.22178
-3.15484
-3.06322
-2.98481
-2.92416
-2.87889
-2.83166
-2.7804
-2.7549
-2.77587
-2.79478
-2.80837
-2.83181
-2.86394
-2.89044
-2.90569
-3.00632
-3.24816
-3.45655
-3.50203
-3.41521
-3.30022
-3.20749
-3.13813
-3.0891
-3.03451
-3.0032
-2.98087
-2.99013
-2.99817
-3.00301
-3.016
-3.03649
-3.05183
-3.0603
-3.11117
-3.60061
-3.82039
-3.79635
-3.67039
-3.53047
-3.43064
-3.36622
-3.31335
-3.2553
-3.23165
-3.20944
-3.2065
-3.19973
-3.19713
-3.20201
-3.21247
-3.21984
-3.2241
-3.3825
-3.86134
-3.99013
-3.93503
-3.81505
-3.6771
-3.5979
-3.56539
-3.53527
-3.49715
-3.48028
-3.45311
-3.43202
-3.40514
-3.39416
-3.39002
-3.39038
-3.39091
-3.392
-3.6847
-4.0043
-4.03592
-3.97088
-3.86723
-3.74305
-3.68103
-3.68645
-3.7296
-3.77196
-3.7634
-3.72974
-3.66601
-3.61587
-3.59144
-3.57633
-3.56724
-3.56254
-3.56056
-4.04573
-4.11914
-4.08229
-4.03005
-3.97665
-3.94526
-3.90405
-3.88557
-3.94163
-4.07705
-4.08237
-4.03805
-3.89197
-3.82402
-3.78184
-3.75668
-3.74057
-3.73219
-3.72718
-4.3585
-4.30049
-4.28842
-4.28964
-4.29226
-4.34437
-4.44602
-4.5379
-4.44375
-4.45297
-4.39499
-4.28615
-4.10371
-4.01631
-3.96111
-3.92864
-3.90856
-3.89737
-3.89009
-4.47408
-4.39597
-4.43976
-4.48909
-4.58038
-4.74248
-5.04552
-5.23824
-5.08948
-4.75696
-4.6054
-4.43643
-4.26852
-4.18333
-4.12678
-4.09207
-4.06982
-4.05678
-4.04848
-4.52442
-4.53331
-4.5429
-4.65739
-4.77489
-4.92331
-5.18535
-5.3416
-5.19756
-4.91271
-4.71307
-4.53433
-4.40401
-4.33087
-4.28008
-4.24635
-4.22375
-4.2101
-4.20185
-4.55958
-4.61863
-4.67506
-4.76781
-4.87883
-4.99957
-5.13109
-5.18923
-5.09438
-4.91698
-4.7582
-4.6216
-4.52857
-4.46751
-4.42349
-4.39238
-4.37086
-4.35764
-4.35014
-4.59925
-4.64891
-4.71062
-4.80464
-4.92046
-5.01124
-5.06202
-5.06996
-5.01398
-4.90787
-4.80269
-4.71296
-4.64643
-4.5967
-4.55932
-4.53178
-4.5123
-4.50014
-4.4937
-4.68088
-4.71161
-4.75736
-4.83317
-4.92803
-4.99708
-5.03195
-5.04244
-5.00919
-4.94183
-4.87075
-4.80947
-4.76005
-4.72046
-4.68959
-4.66615
-4.64922
-4.63846
-4.63315
-4.78782
-4.80798
-4.83592
-4.88277
-4.94244
-4.9952
-5.03437
-5.05874
-5.04437
-5.00149
-4.95305
-4.90925
-4.87205
-4.84105
-4.81616
-4.79682
-4.78259
-4.77337
-4.76914
-4.90539
-4.91888
-4.93578
-4.96168
-4.9943
-5.02639
-5.06424
-5.09787
-5.09841
-5.07375
-5.04237
-5.01152
-4.98386
-4.96001
-4.94037
-4.92482
-4.91318
-4.9055
-4.90228
-5.02797
-5.03766
-5.0487
-5.06349
-5.08184
-5.10353
-5.13293
-5.16218
-5.16891
-5.15658
-5.13727
-5.11611
-5.09602
-5.07811
-5.063
-5.05084
-5.04161
-5.03542
-5.03308
-5.15396
-5.16126
-5.16908
-5.17869
-5.1907
-5.20723
-5.23012
-5.2491
-5.25536
-5.24909
-5.23725
-5.22303
-5.20886
-5.19584
-5.18461
-5.17543
-5.16839
-5.16359
-5.16199
-5.28246
-5.28793
-5.29341
-5.29972
-5.30761
-5.31884
-5.33373
-5.34703
-5.35168
-5.34864
-5.34144
-5.3322
-5.32262
-5.31357
-5.30562
-5.29906
-5.29396
-5.29043
-5.28943
-5.41262
-5.41638
-5.41967
-5.42316
-5.42766
-5.43432
-5.44305
-5.451
-5.45433
-5.45313
-5.44906
-5.44345
-5.43741
-5.43159
-5.4264
-5.42207
-5.41869
-5.4163
-5.41579
-5.54409
-5.54616
-5.54733
-5.54808
-5.5492
-5.55173
-5.55572
-5.55967
-5.56165
-5.56131
-5.55933
-5.55641
-5.55317
-5.55001
-5.54716
-5.54477
-5.54289
-5.5415
-5.54138
-5.67702
-5.6774
-5.67655
-5.67474
-5.67261
-5.67116
-5.67087
-5.67151
-5.67218
-5.67227
-5.67179
-5.67099
-5.67005
-5.66913
-5.66828
-5.66757
-5.667
-5.66655
-5.66665
)
;

boundaryField
{
    leftWall
    {
        type            calculated;
        value           nonuniform List<scalar> 
50
(
679.661
622.322
567.279
514.8
463.971
413.061
360.171
306.848
224.918
121.644
54.7204
7.03278
1.76105
1.51008
1.38715
1.21298
1.01454
0.833897
0.591802
0.228117
-0.171993
-0.446591
-0.561888
-0.645833
-0.801642
-1.0373
-1.29287
-1.55053
-1.80585
-2.05362
-2.2975
-2.53925
-2.77271
-3.00418
-3.23651
-3.46629
-3.70431
-3.92785
-4.10778
-4.24622
-4.3593
-4.4584
-4.55732
-4.68661
-4.83754
-4.97977
-5.11413
-5.26549
-5.4409
-5.6299
)
;
    }
    rightWall
    {
        type            calculated;
        value           nonuniform List<scalar> 
50
(
1074.4
1021.28
970.833
922.994
877.691
832.784
786.155
736.59
653.206
528.47
415.968
334.15
262.165
137.001
33.6555
3.24005
2.04023
1.73264
1.44331
1.20268
1.00699
0.956181
0.633639
-0.183591
-1.22356
-1.72402
-2.34789
-2.49564
-2.62372
-2.76254
-2.90569
-3.0603
-3.2241
-3.392
-3.56056
-3.72718
-3.89009
-4.04848
-4.20185
-4.35014
-4.4937
-4.63315
-4.76914
-4.90228
-5.03308
-5.16199
-5.28943
-5.41579
-5.54138
-5.66665
)
;
    }
    lowerWall
    {
        type            calculated;
        value           nonuniform List<scalar> 
62
(
709.09
699.114
690.219
677.742
657.512
652.276
680.252
685.351
679.211
675.43
670.092
666.427
665.981
667.259
668.902
670.843
670.311
666.727
664.006
664.349
666.592
670.694
673.732
644.308
584.761
525.189
466.172
407.864
349.593
292.756
239.046
221.043
228.247
231.025
226.117
604.17
547.71
492.502
436.486
380.574
324.977
273.662
203.98
633.455
625.811
600.919
569.193
578.573
626.736
685.796
741.367
794.552
848.849
898.913
942.471
979.249
1006.53
1030.68
1051.18
1076.97
1091.14
1101.37
)
;
    }
    atmosphere
    {
        type            calculated;
        value           nonuniform List<scalar> 
46
(
-5.72904
-5.72904
-5.72904
-5.73557
-5.76721
-5.84343
-5.99782
-6.27538
-6.49987
-6.09927
-7.19286
-7.22091
-6.16466
-5.75052
-5.72941
-5.72904
-5.72904
-5.7291
-5.73043
-5.73271
-5.7353
-5.73788
-5.74027
-5.74176
-5.74259
-5.74328
-5.7438
-5.7443
-5.74379
-5.7419
-5.73885
-5.73527
-5.73209
-5.73002
-5.72914
-5.72904
-5.72904
-5.72904
-5.72904
-5.72904
-5.72904
-5.72904
-5.72904
-5.72904
-5.72904
-5.72904
)
;
    }
    defaultFaces
    {
        type            empty;
    }
}


// ************************************************************************* //
