/*--------------------------------*- C++ -*----------------------------------*\
| =========                 |                                                 |
| \\      /  F ield         | OpenFOAM: The Open Source CFD Toolbox           |
|  \\    /   O peration     | Version:  2.3.0                                 |
|   \\  /    A nd           | Web:      www.OpenFOAM.org                      |
|    \\/     M anipulation  |                                                 |
\*---------------------------------------------------------------------------*/
FoamFile
{
    version     2.0;
    format      ascii;
    class       volScalarField;
    location    "1.8";
    object      p_rgh;
}
// * * * * * * * * * * * * * * * * * * * * * * * * * * * * * * * * * * * * * //

dimensions      [1 -1 -2 0 0 0 0];

internalField   nonuniform List<scalar> 
2268
(
709.09
699.114
690.219
677.742
657.512
652.276
680.252
685.351
679.211
675.43
670.092
666.427
665.981
667.259
668.902
670.843
670.311
666.727
664.006
664.349
666.592
670.694
673.732
710.609
698.656
677.482
667.04
647.7
635.377
677.227
684.583
677.419
674.752
669.757
665.81
665.299
666.833
668.892
671.743
671.225
666.314
662.732
663.116
665.189
668.966
673.032
714.131
687.136
668.039
671.701
645.465
625.791
667.902
683.332
677.241
675.059
669.312
664.51
663.747
665.811
668.299
671.248
672.265
668.444
663.995
663.118
664.818
668.066
672.25
714.458
662.388
668.675
708.31
684.491
616.432
621.508
683.819
678.442
675.404
668.461
662.569
661.663
664.367
667.252
671.112
672.546
669.663
663.16
658.429
661.872
666.827
672.007
713.697
657.215
699.392
704.775
686.894
646.843
612.346
686.907
681.398
675.949
667.42
660.774
659.528
662.081
665.456
670.675
673.462
665.42
656.963
653.958
654.217
662.832
672.398
720.096
670.223
706.377
701.31
691.942
671.111
614.559
690.654
684.614
676.331
666.517
659.542
657.044
657.835
661.973
670.402
675.495
669.29
655.661
651.221
657.93
661.285
672.198
731.702
696.397
698.426
699.977
698.741
694.657
685.95
684.778
686.867
676.497
666.15
658.773
653.865
652.497
657.355
669.475
678.339
682.191
665.664
654.437
655.004
663.217
673.905
740.937
707.645
693.436
702.49
705.809
704.404
708.13
693.967
688.246
677.078
667.051
656.997
650.094
648.131
654.533
669.119
683.173
686.285
656.445
650.291
651.538
662.425
678.813
633.455
625.811
600.919
569.193
578.573
626.736
685.796
741.367
794.552
848.849
898.913
942.471
979.249
1006.53
1030.68
1051.18
1076.97
1091.14
1101.37
635.564
625.881
591.745
556.872
567.23
623.883
685.017
740.519
791.361
844.582
894.907
939.768
976.511
1004.29
1029.23
1051.14
1079.78
1089.92
1100.15
638.277
619.36
582.241
547.811
563.911
618.363
680.904
739.635
797.111
851.389
896.294
937.169
971.967
1003.41
1026.5
1050.83
1080.55
1094.37
1102.28
639.728
615.391
579.229
552.937
560.758
610.126
671.208
730.393
792.461
856.031
912.349
950.893
980.543
1012.97
1038.06
1054.15
1079.44
1104.34
1107.91
642.395
626.675
587.186
559.174
560.606
596.673
650.102
711.483
785.008
858.662
916.215
957.479
989.92
1014.61
1039.06
1065.73
1098.19
1119.14
1115.97
646.824
642.723
611.853
575.651
561.158
569.593
601.512
671.908
772.441
865.005
923.469
961.013
978.796
997.692
1025.65
1059.34
1097.25
1116.42
1123.21
655.009
649.263
619.098
587.794
562.78
518.816
455.365
562.826
747.061
871.39
931.941
960.624
972.946
993.5
1012.55
1050.46
1091.22
1096.39
1129.34
643.997
648.279
622.357
595.87
532.091
297.668
230.056
362.734
642.615
876.254
938.687
961.361
973.478
988.116
1004.52
1041.15
1085.33
1094.04
1132.57
749.512
732.563
702.271
700.467
657.07
695.98
712.133
701.073
688.923
673.689
635.395
592.298
548.621
563.762
626.314
669.209
688.491
694.868
645.011
638.17
599.189
606.704
654.92
769.35
760.056
723.752
617.011
509.101
495.533
577.959
549.646
477.326
395.795
353.597
301.667
235.858
168.426
219.603
386.076
577.154
662.01
627.586
426.539
205.848
191.834
290.145
664.928
573.947
282.588
52.3663
20.0982
48.4023
97.4934
103.246
119.256
110.001
117.548
86.8575
12.724
5.15768
4.7902
4.11043
27.1763
93.85
44.5555
9.37312
47.3006
69.6982
45.3937
84.9422
15.4982
3.30924
3.36622
3.29427
3.39775
3.52247
3.88669
3.62865
3.90994
3.72115
3.26651
3.71232
3.96107
3.91837
3.76116
3.63604
4.50007
7.47731
10.2777
9.1919
6.79789
6.84378
3.0792
2.96146
2.95242
3.39721
3.38286
3.20818
3.17117
3.2077
3.4081
3.69982
3.85452
3.58425
3.45623
3.42043
3.40201
3.39843
3.57857
6.34467
10.6786
7.86165
7.00879
7.117
7.30209
3.04198
3.12923
3.32127
3.31799
3.02281
2.99722
2.95757
2.975
3.09422
3.40244
3.5431
3.47545
3.31877
3.26111
3.24358
3.29671
3.50247
12.5135
17.2266
7.75712
6.93488
7.43548
8.21274
3.41836
3.39265
3.36664
2.89282
3.61509
3.03493
2.67763
2.71168
2.85123
3.04402
3.2236
3.3167
3.28848
3.21611
3.19054
3.21458
6.98335
15.1518
16.0337
14.703
6.32393
6.44984
6.54714
3.44215
3.44346
2.80599
2.86632
3.84238
3.49012
2.44208
2.44754
2.62177
2.87279
3.14586
3.32493
3.383
3.3422
3.28027
6.56829
15.5168
14.4807
13.9157
15.2234
5.34676
5.64854
5.96059
3.37328
2.88865
2.75003
3.48176
3.79171
3.48522
2.15354
2.2451
2.44143
2.75106
3.12452
3.42138
3.55397
3.52946
7.39557
15.9472
15.1221
13.7678
11.9407
12.1352
3.07575
4.0511
10.3921
2.87194
2.62139
2.75668
3.89829
3.75384
3.09746
2.02943
2.10616
2.32235
2.6905
3.14948
3.51286
3.64761
7.02991
16.701
15.5929
9.73885
2.42033
0.74062
1.83637
1.77806
2.6672
18.1512
3.83267
2.94619
2.6199
3.86176
3.75
2.98006
1.96984
2.02724
2.24664
2.64024
3.12916
3.50399
7.88941
16.4732
14.8757
3.72867
0.559036
0.107091
0.379255
0.313305
1.29786
2.26661
23.838
3.69623
3.55693
2.41742
3.81923
3.73216
2.36197
1.98546
2.00265
2.15356
2.49713
2.98943
9.50794
15.1136
12.4178
1.3216
0.834027
0.618815
0.377254
0.766771
0.841842
1.32191
2.46379
24.3124
3.51697
3.12294
2.06151
3.04806
2.36112
2.20582
2.13294
1.97926
1.95673
2.24041
9.32909
14.5603
12.0545
1.07942
0.985713
0.858567
0.730409
0.640426
0.633811
0.842587
7.38312
17.4545
13.64
2.31911
1.99586
1.85246
1.95821
2.03629
2.09765
2.11325
1.90815
1.64325
4.87819
14.6469
14.4011
2.28843
0.9641
0.937276
0.908601
0.905125
0.91737
0.98232
5.70109
12.9429
13.0056
0.809477
1.73815
1.69062
1.78343
1.86767
1.94274
2.01027
2.01176
1.7406
1.7182
11.4523
14.2619
13.8485
1.80254
0.882157
0.882802
0.936298
1.05579
1.19935
3.49006
6.306
6.0007
0.664749
0.188283
1.86172
1.72966
1.75448
1.78183
1.82074
1.86006
1.83828
1.58331
1.19568
10.7959
13.4959
14.0863
12.2038
0.797837
0.772724
4.34342
7.07684
4.76281
2.73189
2.2441
0.57178
0.3608
0.251098
2.71384
1.69193
1.6833
1.67945
1.69019
1.69395
1.63197
1.39489
0.803857
3.12522
8.12997
11.5936
14.0064
14.5983
5.74561
4.09499
5.39614
18.236
16.2196
6.47466
7.02781
4.35859
0.325934
2.69696
1.58471
1.57225
1.56471
1.57271
1.55906
1.48344
1.20615
0.527602
-0.484325
-0.887122
-0.480676
2.71585
13.1718
15.1894
15.256
15.5495
18.0644
18.3543
18.6176
18.8069
19.0216
2.04034
2.61839
1.4571
1.44638
1.44696
1.8691
2.29096
1.97723
1.16743
0.75496
0.0381121
-0.578425
-0.852173
-0.925594
-0.251963
4.08888
11.3187
16.1565
15.2584
12.7679
16.8289
18.1722
11.5741
4.00427
2.54344
1.32897
1.31269
1.84695
2.58251
2.51717
2.43253
2.28305
1.44408
0.462367
-0.0705538
-0.511122
-0.79617
-1.05525
-1.34173
-1.25613
-0.339699
-1.18601
-1.3602
-1.13389
-0.613143
-0.353514
0.101549
2.56112
1.20923
1.21961
2.50419
2.43474
1.94574
1.86909
2.11907
1.89299
1.545
0.888874
-0.205678
-0.566746
-0.826235
-1.09085
-1.32498
-1.41556
-1.30369
-1.11444
-0.877737
-0.598723
-0.320115
-0.103142
2.60605
1.15816
1.37394
2.02981
1.19611
0.936583
0.869763
0.878701
0.93546
1.44693
1.14578
0.820792
0.367027
-0.480152
-0.765432
-0.901337
-0.955736
-0.895101
-0.751325
-0.55598
-0.346869
-0.144508
0.0267708
2.54663
1.94798
1.16625
1.01474
0.87418
0.836591
0.773617
0.679125
0.596175
0.451459
0.730097
0.944541
0.70333
0.190484
-0.488577
-0.599979
-0.623179
-0.569737
-0.450659
-0.291342
-0.115854
0.0507936
0.18792
2.48934
1.71648
0.899699
0.82669
0.7878
0.741839
0.680811
0.596414
0.516888
0.404411
0.285005
0.268233
0.378048
0.0584524
-0.356939
-0.426352
-0.430615
-0.371763
-0.258659
-0.112099
0.0458697
0.195648
0.322962
2.43702
0.906899
0.74346
0.711034
0.672182
0.625061
0.567761
0.49466
0.39678
0.271713
0.190749
0.156715
0.181702
0.048677
-0.183646
-0.337416
-0.335517
-0.270343
-0.156035
-0.013013
0.137869
0.282756
0.413783
2.15387
0.642231
0.619782
0.57717
0.53129
0.482903
0.43055
0.369491
0.293514
0.200256
0.105722
0.131102
0.0771623
0.0475339
-0.0682534
-0.123648
-0.222422
-0.233822
-0.118699
0.0202542
0.161196
0.292919
0.413477
0.926134
0.531219
0.48581
0.425372
0.363257
0.305349
0.254388
0.206933
0.157575
0.0983948
0.0301465
-0.0385872
-0.00959803
-0.0316888
-0.0734045
-0.109842
-0.100285
-0.186609
-0.11762
0.00939532
0.12907
0.22974
0.309046
0.513506
0.444119
0.343537
0.259081
0.17356
0.0959424
0.0466769
0.0436565
0.0460832
-0.0173249
-0.0614761
-0.103542
-0.147326
-0.154266
-0.145014
-0.10514
-0.0911098
-0.177269
-0.112014
-0.00904166
0.0763819
0.131026
0.14463
0.846294
0.704963
0.205685
0.094555
-0.0198692
-0.126281
-0.204191
-0.0498676
0.0624028
0.0511299
-0.157786
-0.147343
-0.152216
-0.172235
-0.196271
-0.186268
-0.13117
-0.136759
-0.0752515
-0.000447425
0.0418333
0.0525439
0.013163
0.791847
0.73452
0.169267
-0.0364464
-0.177392
-0.312495
-0.419837
-0.306829
-0.145027
-0.0580118
-0.00857916
-0.181688
-0.133216
-0.111695
-0.104498
-0.0924947
-0.0434291
-0.0108796
0.019492
0.0200611
0.0365513
0.0229338
-0.0308945
0.753809
0.682516
0.413362
-0.0962473
-0.249036
-0.399194
-0.522621
-0.589786
-0.416101
-0.151815
-0.00604764
-0.147525
-0.105356
-0.0523541
-0.0161445
-0.0127522
-0.000576739
0.0378804
0.0537963
0.0472325
0.0465092
0.0275256
-0.0139062
0.443783
0.686053
0.265326
-0.0670924
-0.2094
-0.358115
-0.482225
-0.54892
-0.53804
-0.304498
0.036446
0.193339
-0.0650288
0.00160048
0.0423992
0.055655
0.0441401
0.0500956
0.0582429
0.0623359
0.056142
0.041562
0.0160078
0.329208
0.371975
0.101609
0.0329444
-0.0751269
-0.201873
-0.314219
-0.379487
-0.381604
-0.321789
-0.0378529
0.279487
0.12409
0.0490813
0.0821278
0.101345
0.0973178
0.0737215
0.0707804
0.0670664
0.0599615
0.0477541
0.0302343
0.359405
0.337733
0.441808
1.57943
2.13928
2.04548
1.2328
0.0495276
-0.201578
-0.172776
-0.0735212
0.374976
0.409261
0.100314
0.103321
0.124924
0.121852
0.0914911
0.0790228
0.0703979
0.0611004
0.050047
0.037109
0.652218
1.13779
2.9019
2.98225
2.91659
2.84268
2.791
2.74056
0.479011
-0.0683733
0.00774678
0.398004
0.44397
0.151098
0.124868
0.123519
0.126703
0.101532
0.0834114
0.0715473
0.0606455
0.0499225
0.0390117
0.519437
2.8094
3.06681
2.99928
2.42734
0.79803
0.288103
0.351409
0.53847
0.582009
0.614921
0.608393
0.225021
0.132063
0.13918
0.133808
0.118216
0.100841
0.0848879
0.071126
0.0592024
0.0484844
0.038533
0.262508
0.969903
2.23727
1.67127
0.374483
0.0747153
0.0590316
0.0347817
0.011369
0.0471468
0.647381
0.538666
0.169624
0.15099
0.150019
0.138896
0.120182
0.100729
0.0835141
0.0688522
0.0564165
0.0457153
0.0363065
0.186149
0.211672
0.255419
0.195169
0.157422
0.129227
0.102609
0.0555032
-0.00243109
-0.0169033
0.378667
0.271919
0.202637
0.17042
0.154302
0.138371
0.117073
0.0964482
0.0787552
0.0639348
0.0515332
0.0410942
0.0321892
0.176745
0.205687
0.21924
0.203318
0.176221
0.149046
0.108764
0.0323934
-0.0727353
-0.13021
-0.0512055
1.05571
0.534619
0.160444
0.14982
0.129746
0.107269
0.0868648
0.0697332
0.0555988
0.0438996
0.0341726
0.0260119
0.150562
0.170952
0.182404
0.177952
0.161837
0.131434
0.0748904
-0.0512853
-0.204153
-0.292331
-0.115212
1.47457
1.52868
0.262579
0.124205
0.106905
0.0876666
0.0705063
0.0557317
0.0434592
0.0333022
0.0248731
0.0178434
0.100346
0.115779
0.125123
0.123634
0.109546
0.0692804
-0.0136147
-0.204803
-0.484927
-0.618216
0.0444801
1.29544
1.58724
0.28975
0.081876
0.072491
0.0600811
0.0474384
0.0366088
0.0274704
0.0197648
0.0132718
0.00781795
0.0365417
0.0442382
0.0459659
0.0437493
0.021377
-0.0398535
-0.169047
-0.406437
-0.782352
-0.478444
0.510993
0.770594
0.171539
-0.00660946
0.00935179
0.0211593
0.0205326
0.0169604
0.0124602
0.00775236
0.00330539
-0.00070702
-0.00420631
668.56
675.503
677.855
675.327
458.592
535.475
533.308
491.917
60.6498
64.9947
60.5959
56.713
7.28113
7.56642
7.82412
8.01875
7.39386
7.60417
7.72747
7.80789
8.46631
7.55823
7.61405
7.63065
7.08117
9.51459
9.83779
8.08761
20.3733
24.8424
14.305
8.68086
25.4776
25.8175
25.8676
16.484
26.0236
26.7742
26.9376
27.0678
26.9674
27.3126
27.2814
27.4971
28.0474
28.6825
28.646
15.5029
4.56528
7.00925
11.2702
7.15172
-0.0728462
-0.282896
-0.488358
-0.633009
-0.0404656
-0.225512
-0.387381
-0.515413
0.10925
-0.0112206
-0.124487
-0.209777
0.248912
0.243265
0.270302
0.158162
2.04783
3.51253
4.26269
4.51008
4.38647
4.39471
4.3363
4.00007
-0.0691143
0.0712582
-0.0296963
-0.090647
-0.0353909
-0.0153691
0.00127679
0.0167738
0.0995651
0.126584
0.144985
0.156251
0.253002
0.279861
0.295385
0.299527
0.392086
0.42583
0.447463
0.458627
0.499766
0.548662
0.589965
0.624563
0.503394
0.559441
0.66537
8.11631
0.358809
0.383722
6.72603
15.2837
0.112869
0.307931
11.6091
15.3677
-0.077693
-0.165735
3.72963
8.18219
-0.118985
-0.200519
-0.288654
-0.32117
-0.0615685
-0.103326
-0.158864
-0.203385
-0.0124829
-0.0347018
-0.0631126
-0.0941108
0.0136897
0.00158978
-0.0127411
-0.0289724
0.0266359
0.0193654
0.0110195
0.00160793
0.0310142
0.0257349
0.01998
0.0137839
0.0317093
0.0273636
0.0228529
0.0181915
0.0301465
0.0263519
0.0226001
0.0188636
0.0265307
0.0231291
0.0198938
0.0167894
0.0209318
0.0179271
0.01514
0.012535
0.0135276
0.0110071
0.0087162
0.00663159
0.00449426
0.00257319
0.000860583
-0.000648893
-0.00634968
-0.00756998
-0.00861862
-0.00948028
651.464
602.614
534.514
443.283
250.93
121.549
222.537
558.174
731.718
880.64
940.717
974.405
976.737
978.919
994.893
1032.3
1075.89
1120.67
1131.74
322.799
150.122
83.5529
84.4231
94.7581
103.08
229.977
521.44
743.077
877.308
933.437
977.205
1001.96
994.075
988.423
1035.68
1077.6
1125.44
1171.11
62.1986
106.008
171.055
182.587
188.33
187.939
182.115
98.2265
337.107
737.36
925.593
979.876
1017.06
1034.93
1023.23
1025.96
1084.71
1147.98
1186.08
8.20431
8.16007
30.259
118.54
155.874
142.513
29.2517
12.7784
12.8672
241.388
807.464
994.465
1041.17
1071.18
1095.63
1105.21
1108.16
1201.91
1227.19
7.78141
7.72814
7.10951
5.74519
6.66404
11.6819
7.70459
8.34854
8.12376
7.0467
130.153
626.048
911.607
1046.6
1071.72
1056.85
981.481
1173.52
1278.1
7.66999
7.53354
7.01532
6.34347
6.24125
6.34077
6.88902
7.07942
6.90279
6.63637
6.12472
7.07257
126.773
257.39
250.605
175.399
199.543
547.013
1226.64
7.42991
7.40062
6.81653
6.25165
6.04615
6.72226
6.40372
6.34376
6.43162
6.41528
6.49435
7.53009
8.76791
9.90684
11.1055
22.3566
64.6446
76.856
699.092
8.59302
7.1007
6.75305
6.42164
6.37397
6.66118
6.22709
6.13955
6.31593
6.45696
6.55722
8.1361
8.70349
9.54468
10.1169
10.7018
40.9692
25.9848
54.5591
6.72942
6.88104
6.84288
6.67693
6.4973
6.39827
6.3121
6.36388
11.0417
6.63395
11.6165
26.1961
19.0314
15.6012
30.749
35.2963
45.6012
21.6305
19.9576
10.6208
6.85327
7.65497
6.97774
10.8159
7.29452
7.76389
14.2772
14.8097
13.8681
18.7148
26.7252
42.0405
52.2751
63.96
60.0552
55.3514
45.4673
16.9831
28.1634
26.3408
13.2342
12.0249
14.6328
14.5045
15.4435
15.016
14.7457
12.6025
6.20089
1.81227
6.55466
37.3817
43.1855
54.1903
66.4629
68.6849
17.2236
5.74503
7.37483
13.4318
14.0401
12.2127
14.398
11.6199
7.85217
3.35682
1.62727
1.68275
1.74506
1.78073
4.52589
23.2206
34.6486
59.5331
45.499
18.0396
3.68554
5.62293
12.1059
13.037
11.0729
12.5274
5.39634
1.71293
1.40985
1.49677
1.57734
1.62742
1.68919
1.70063
18.913
39.2529
22.9051
19.3396
18.9472
0.0814492
6.17032
11.3797
12.5799
12.3923
6.12841
7.92855
5.65227
1.31411
1.38691
1.4527
1.48571
1.51807
1.54273
3.56568
40.0858
41.2953
29.6086
19.9997
-0.600771
-0.477949
6.18293
11.7653
4.88053
1.65697
5.19965
6.23212
1.36618
1.31673
1.35145
1.35189
1.34652
1.34797
1.26903
17.0212
44.9891
45.4384
30.4849
-0.293104
-0.209632
0.497911
0.750631
0.542582
0.680272
0.765586
2.80995
1.4394
1.63871
1.29431
1.24
1.20763
1.16838
1.11117
0.974435
42.5786
46.823
47.3329
0.993871
2.47319
0.495427
0.155999
0.429064
0.64323
0.774251
0.813031
4.44988
5.17752
1.79762
1.153
1.10278
1.04048
0.975213
0.896065
13.0814
48.2765
48.7599
4.51822
4.46347
1.53517
0.144348
0.408728
0.623715
0.747576
0.789831
5.33016
5.47396
4.1409
1.14464
1.02185
0.960339
0.908558
0.862149
1.24538
32.7583
50.4629
3.95781
2.80944
0.263441
0.15591
0.394607
0.579683
0.680377
0.702725
3.29699
5.52689
5.63452
1.6836
0.919505
0.867572
0.784466
0.715778
0.743887
2.16832
7.79729
-0.0881446
-0.0819464
0.0135085
0.180824
0.361383
0.50298
0.583621
0.612323
0.58562
5.19621
5.71505
2.18566
0.803966
0.768185
0.712585
0.639437
0.55323
0.456616
0.477951
0.0309968
0.024928
0.0604839
0.164515
0.296287
0.409254
0.483064
0.526256
0.541119
2.56254
5.74057
1.84754
0.69501
0.671398
0.633611
0.579832
0.513317
0.449284
0.419515
0.160644
0.121844
0.0946028
0.133759
0.22383
0.324124
0.393471
0.444004
0.478715
1.58106
4.63189
1.36819
0.602906
0.580512
0.555753
0.519288
0.491362
0.433252
0.401468
0.290504
0.210113
0.11396
0.221307
0.266029
0.276874
0.304854
0.363817
0.408993
1.73059
5.60877
2.1652
0.518094
0.497153
0.483505
0.460072
0.452039
0.423293
0.383161
0.532618
1.05485
1.93682
1.40979
0.38705
0.120931
0.206843
0.2752
0.32408
2.43477
5.81216
3.26604
0.434107
0.419183
0.414282
0.406725
0.405735
0.379129
0.353608
7.53649
11.6743
8.12459
1.07737
-0.10589
0.012568
0.108476
0.172401
0.225189
3.2327
6.01899
3.72446
0.355561
0.345412
0.346013
0.391562
0.347889
0.319629
0.314504
14.6894
14.1402
3.15611
-0.136777
-0.0596888
0.0234964
0.0696567
0.0991127
0.128566
4.19671
6.15442
3.96009
0.264118
0.268604
0.342646
0.344898
0.280024
0.2725
0.271402
15.0048
4.40419
0.274954
0.057859
0.060823
0.332046
0.227364
0.112862
0.0597745
5.64282
6.20057
3.81562
0.190157
0.225426
0.279432
0.249014
0.221756
0.226057
0.228032
15.2614
4.10398
0.677579
2.16806
4.19314
13.5741
12.3686
4.21846
0.194399
5.55224
6.21087
2.74037
0.118529
0.192822
0.216254
0.159643
0.17322
0.1816
0.186612
14.3001
16.0853
12.5292
16.9892
20.3431
20.4809
20.4081
20.3138
12.1848
2.57368
3.65096
0.482771
-0.0065136
0.103878
0.0973605
0.110306
0.13045
0.141832
0.148895
1.54375
17.3904
17.8546
18.652
19.9501
20.7508
20.5492
18.4001
6.15561
-0.0498814
-0.368846
-0.262857
-0.0878239
-0.00848623
0.0373619
0.0720483
0.0944794
0.107824
0.116019
-0.235119
3.22147
10.0794
7.86276
4.59843
6.52093
5.7757
-1.04361
-0.415594
-0.618875
-0.421078
-0.243984
-0.114544
-0.0414638
0.00923277
0.0429593
0.0659367
0.0797174
0.0879672
-0.14509
-0.204131
-0.260561
-0.353313
-0.464122
-0.581167
-0.70822
-0.769565
-0.677967
-0.502143
-0.343467
-0.207045
-0.114061
-0.0530053
-0.00898841
0.0221169
0.0439091
0.0573897
0.0645991
-0.0595579
-0.109219
-0.17093
-0.264695
-0.367073
0.227996
0.711094
-0.530058
-0.474167
-0.36816
-0.263008
-0.173267
-0.106737
-0.0570058
-0.0196264
0.00791123
0.0274416
0.0398213
0.0459904
-0.0159875
-0.0467217
-0.0924682
-0.168251
-0.194272
0.974979
0.94633
-0.377318
-0.344294
-0.276947
-0.205867
-0.144583
-0.0951657
-0.0555761
-0.024703
-0.00125924
0.0156692
0.026429
0.031735
0.00226607
-0.0178917
-0.0458362
-0.0926782
-0.152318
-0.204834
-0.084671
-0.268657
-0.254291
-0.211413
-0.162966
-0.11917
-0.0819662
-0.0509662
-0.026081
-0.0067427
0.00749457
0.0167137
0.0209403
0.00988735
-0.00360095
-0.0205025
-0.0464041
-0.0790076
-0.110986
-0.148969
-0.182594
-0.183139
-0.158476
-0.127096
-0.0962487
-0.0685798
-0.0447295
-0.0250902
-0.00954173
0.0020989
0.0097718
0.0129998
0.0124992
0.00281493
-0.00822958
-0.0230198
-0.0413374
-0.0608622
-0.088936
-0.121514
-0.128445
-0.116109
-0.0968017
-0.0756445
-0.0555471
-0.0376381
-0.022528
-0.0103686
-0.00113729
0.00505124
0.00739472
0.0117028
0.00440329
-0.00341444
-0.0130283
-0.0250343
-0.0412664
-0.0632749
-0.0824338
-0.0896981
-0.0834297
-0.0715807
-0.0573606
-0.043193
-0.0301739
-0.0189411
-0.00977014
-0.00272579
0.00207371
0.00367362
0.00839797
0.00293026
-0.00255098
-0.00886387
-0.016753
-0.0279809
-0.0428718
-0.0561137
-0.0608222
-0.0577764
-0.0505854
-0.0413432
-0.0317588
-0.0227155
-0.0147653
-0.00819633
-0.00309977
0.000428417
0.00142697
0.00343849
-0.000323294
-0.00362071
-0.00710519
-0.0116033
-0.0182648
-0.0269935
-0.034946
-0.0382747
-0.03708
-0.0330083
-0.0273922
-0.0213545
-0.0155362
-0.0103461
-0.00602129
-0.00263534
-0.000245903
0.00026681
-0.00284379
-0.00491079
-0.00608012
-0.0068288
-0.00795648
-0.0104856
-0.0144757
-0.0184252
-0.0203991
-0.0200574
-0.0180818
-0.015162
-0.0119258
-0.0087614
-0.00591086
-0.00352641
-0.00164459
-0.000255155
-0.000130555
-0.0105815
-0.0109543
-0.0101033
-0.00829334
-0.00617203
-0.00471678
-0.00442878
-0.00506904
-0.00573858
-0.00582846
-0.00535182
-0.00454405
-0.00361073
-0.00268311
-0.00183443
-0.00112426
-0.00055629
-0.000103746
-0.000202793
)
;

boundaryField
{
    leftWall
    {
        type            fixedFluxPressure;
        gradient        uniform 0;
        value           nonuniform List<scalar> 
50
(
709.09
710.609
714.131
714.458
713.697
720.096
731.702
740.937
749.512
769.35
664.928
84.9422
3.0792
3.04198
3.41836
3.44215
3.37328
2.87194
3.83267
3.69623
3.51697
2.31911
1.73815
1.86172
2.71384
2.69696
2.61839
2.54344
2.56112
2.60605
2.54663
2.48934
2.43702
2.15387
0.926134
0.513506
0.846294
0.791847
0.753809
0.443783
0.329208
0.359405
0.652218
0.519437
0.262508
0.186149
0.176745
0.150562
0.100346
0.0365417
)
;
    }
    rightWall
    {
        type            fixedFluxPressure;
        gradient        uniform 0;
        value           nonuniform List<scalar> 
50
(
1101.37
1100.15
1102.28
1107.91
1115.97
1123.21
1129.34
1132.57
1131.74
1171.11
1186.08
1227.19
1278.1
1226.64
699.092
54.5591
19.9576
16.9831
17.2236
18.0396
18.9472
19.9997
30.4849
47.3329
48.7599
50.4629
7.79729
0.477951
0.419515
0.401468
0.383161
0.353608
0.314504
0.271402
0.228032
0.186612
0.148895
0.116019
0.0879672
0.0645991
0.0459904
0.031735
0.0209403
0.0129998
0.00739472
0.00367362
0.00142697
0.00026681
-0.000130555
-0.000202793
)
;
    }
    lowerWall
    {
        type            fixedFluxPressure;
        gradient        uniform 0;
        value           nonuniform List<scalar> 
62
(
709.09
699.114
690.219
677.742
657.512
652.276
680.252
685.351
679.211
675.43
670.092
666.427
665.981
667.259
668.902
670.843
670.311
666.727
664.006
664.349
666.592
670.694
673.732
673.732
673.032
672.25
672.007
672.398
672.198
673.905
678.813
668.56
675.503
677.855
675.327
633.455
635.564
638.277
639.728
642.395
646.824
655.009
643.997
633.455
625.811
600.919
569.193
578.573
626.736
685.796
741.367
794.552
848.849
898.913
942.471
979.249
1006.53
1030.68
1051.18
1076.97
1091.14
1101.37
)
;
    }
    atmosphere
    {
        type            totalPressure;
        rho             rho;
        psi             none;
        gamma           1;
        p0              uniform 0;
        value           nonuniform List<scalar> 
46
(
0
0
0
-0.00653322
-0.0381734
-0.114392
-0.268782
-0.546339
-0.770833
-0.0221792
0
0
0
0
0
0
0
-5.64362e-05
-0.0013928
-0.00367106
-0.00625522
-0.00884033
-0.0112308
-0.012717
-0.01355
-0.0142399
-0.0147562
-0.0152565
-0.0147532
-0.0128627
-0.00981301
-0.00623128
-0.00304929
-0.000981427
-0.000104181
0
0
0
0
0
0
0
0
0
0
0
)
;
    }
    defaultFaces
    {
        type            empty;
    }
}


// ************************************************************************* //
