/*--------------------------------*- C++ -*----------------------------------*\
| =========                 |                                                 |
| \\      /  F ield         | OpenFOAM: The Open Source CFD Toolbox           |
|  \\    /   O peration     | Version:  2.3.0                                 |
|   \\  /    A nd           | Web:      www.OpenFOAM.org                      |
|    \\/     M anipulation  |                                                 |
\*---------------------------------------------------------------------------*/
FoamFile
{
    version     2.0;
    format      ascii;
    class       surfaceScalarField;
    location    "1.8";
    object      phi;
}
// * * * * * * * * * * * * * * * * * * * * * * * * * * * * * * * * * * * * * //

dimensions      [0 3 -1 0 0 0 0];

internalField   nonuniform List<scalar> 
4432
(
4.79294e-06
-4.79294e-06
3.12035e-06
1.67259e-06
1.64871e-06
1.47163e-06
6.90597e-06
-5.25725e-06
1.02386e-05
-3.33259e-06
3.09448e-06
7.14408e-06
-6.86279e-06
9.95727e-06
-1.31713e-05
6.30856e-06
-1.57412e-05
2.56988e-06
-1.51034e-05
-6.37834e-07
-1.48102e-05
-2.93218e-07
-1.476e-05
-5.01942e-08
-1.31904e-05
-1.56959e-06
-1.05618e-05
-2.62861e-06
-8.879e-06
-1.68279e-06
-9.49839e-06
6.19393e-07
-1.20566e-05
2.5582e-06
-1.49702e-05
2.9136e-06
-1.53954e-05
4.2525e-07
-1.30372e-05
-2.35825e-06
-9.76825e-06
-3.26895e-06
-5.26464e-06
-4.50362e-06
-5.26464e-06
1.53606e-07
-4.94654e-06
-3.16725e-06
4.99343e-06
-3.22437e-06
1.52876e-06
4.74023e-06
-1.32219e-05
9.40428e-06
-7.99665e-06
3.55248e-06
1.29959e-05
-8.06416e-06
2.15739e-05
-1.4341e-05
1.25854e-05
-1.404e-05
2.2689e-06
-1.39663e-05
-7.11485e-07
-1.55378e-05
1.27828e-06
-1.59163e-05
3.2829e-07
-1.43174e-05
-3.16853e-06
-1.1374e-05
-5.57205e-06
-8.98472e-06
-4.07204e-06
-8.36594e-06
6.16544e-10
-9.54401e-06
3.73627e-06
-9.88706e-06
3.25665e-06
-8.96648e-06
-4.95335e-07
-7.83196e-06
-3.49277e-06
-6.59204e-06
-4.50887e-06
-3.86117e-06
-7.23449e-06
-9.12581e-06
-3.2223e-06
-1.72425e-06
-8.85909e-06
1.06302e-05
-8.21142e-06
8.81073e-07
-1.268e-06
-2.01653e-05
5.13424e-06
-1.43989e-05
3.56378e-06
1.45663e-05
-6.36433e-06
3.1502e-05
-1.09556e-05
1.71767e-05
-1.14835e-05
2.79678e-06
-1.34068e-05
1.21177e-06
-1.57089e-05
3.58037e-06
-1.57373e-05
3.56732e-07
-1.36871e-05
-5.21871e-06
-1.08373e-05
-8.42185e-06
-8.28693e-06
-6.62245e-06
-5.21214e-06
-3.07417e-06
-2.71486e-06
1.23898e-06
-2.19428e-06
2.73607e-06
-3.17328e-06
4.83661e-07
-4.05262e-06
-2.61343e-06
-3.58223e-06
-4.97926e-06
-2.14047e-06
-8.67625e-06
-1.12663e-05
-5.97183e-06
4.24758e-06
-1.25668e-05
1.72252e-05
-1.17142e-05
2.84463e-08
-8.31583e-06
-2.35636e-05
-1.94781e-06
-2.07669e-05
1.53934e-06
1.10792e-05
-4.47712e-06
3.75185e-05
-7.22699e-06
1.99265e-05
-9.56986e-06
5.13965e-06
-1.29006e-05
4.54247e-06
-1.46306e-05
5.31042e-06
-1.3333e-05
-9.40886e-07
-1.01328e-05
-8.41893e-06
-7.49715e-06
-1.10575e-05
-6.87401e-06
-7.24559e-06
-4.87218e-06
-5.07601e-06
-9.0878e-07
-2.72441e-06
-3.94335e-07
2.22163e-06
-3.95032e-06
4.03965e-06
-4.73821e-06
-1.82554e-06
-2.67325e-06
-7.04423e-06
-7.72039e-07
-1.05775e-05
-1.20383e-05
-7.73421e-06
1.19818e-05
-1.35257e-05
2.30166e-05
-1.37226e-05
2.25375e-07
-1.32736e-05
-2.40126e-05
-9.99099e-06
-2.40496e-05
-4.00757e-06
5.09575e-06
-2.78926e-06
3.63002e-05
-4.48879e-06
2.1626e-05
-8.51886e-06
9.16971e-06
-1.21443e-05
8.16794e-06
-1.24828e-05
5.6489e-06
-9.43586e-06
-3.98784e-06
-4.95655e-06
-1.28982e-05
-2.40547e-06
-1.36086e-05
-3.48734e-06
-6.16373e-06
-4.42336e-06
-4.13999e-06
-2.69814e-06
-4.44964e-06
-2.82639e-06
2.34988e-06
-6.63391e-06
7.84716e-06
-6.20634e-06
-2.25312e-06
-2.7665e-06
-1.04841e-05
3.08005e-07
-1.3652e-05
-1.17303e-05
-7.57692e-06
1.95587e-05
-1.11897e-05
2.66294e-05
-1.30995e-05
2.13517e-06
-1.46079e-05
-2.25042e-05
-1.43561e-05
-2.43013e-05
-9.0912e-06
-1.69192e-07
-2.2445e-06
2.94535e-05
-4.13275e-06
2.35143e-05
-8.62599e-06
1.36629e-05
-1.11135e-05
1.06554e-05
-9.38031e-06
3.91575e-06
-4.83421e-06
-8.53394e-06
-1.10893e-06
-1.66235e-05
4.33776e-07
-1.51513e-05
-1.87295e-08
-5.71123e-06
-2.68755e-06
-1.47117e-06
-4.3872e-06
-2.74999e-06
-4.7978e-06
2.76048e-06
-7.39452e-06
1.04439e-05
-6.57877e-06
-3.06887e-06
-3.6439e-06
-1.34189e-05
5.43945e-07
-1.78398e-05
-1.11864e-05
-5.31534e-06
2.4874e-05
-6.93304e-06
2.82471e-05
-8.37355e-06
3.57568e-06
-1.13065e-05
-1.95712e-05
-1.52595e-05
-2.03483e-05
-1.29996e-05
-2.42906e-06
-5.33382e-06
2.17877e-05
-6.33798e-06
2.45184e-05
-9.39615e-06
1.67211e-05
-9.62616e-06
1.08854e-05
-5.86691e-06
1.56495e-07
-1.51507e-06
-1.28858e-05
-1.49693e-06
-1.66417e-05
-1.75438e-06
-1.48938e-05
2.03014e-07
-7.66862e-06
-6.99011e-07
-5.69144e-07
-3.54442e-06
9.5408e-08
-3.9278e-06
3.14386e-06
-4.67729e-06
1.11934e-05
-3.10927e-06
-4.63689e-06
-1.70151e-06
-1.48267e-05
6.77162e-07
-2.02185e-05
-1.05092e-05
-1.85828e-06
2.67323e-05
-1.59843e-06
2.79873e-05
-3.19519e-07
2.29677e-06
-4.36484e-06
-1.55259e-05
-1.24651e-05
-1.22481e-05
-1.58232e-05
9.28993e-07
-9.63969e-06
1.56042e-05
-8.39221e-06
2.3271e-05
-9.1857e-06
1.75146e-05
-7.53608e-06
9.23579e-06
-3.202e-06
-4.17758e-06
-2.27684e-06
-1.38109e-05
-6.72158e-06
-1.21969e-05
-7.86363e-06
-1.37518e-05
-3.42071e-06
-1.21115e-05
-4.94811e-09
-3.98491e-06
6.79026e-07
-5.88566e-07
8.04806e-09
3.81484e-06
2.54267e-06
8.65874e-06
6.97453e-06
-9.06875e-06
7.28368e-06
-1.51358e-05
3.82786e-06
-1.67627e-05
-6.68134e-06
1.77454e-06
-1.77454e-06
-6.16585e-06
7.9404e-06
-2.11749e-05
1.50091e-05
-3.38465e-05
1.26716e-05
-3.405e-05
2.0351e-07
-2.57101e-05
-8.33989e-06
-1.62736e-05
-9.43652e-06
-7.93636e-06
-8.33724e-06
-5.6553e-07
-7.37083e-06
6.74717e-06
-7.31271e-06
1.32824e-05
-6.53524e-06
1.7501e-05
-4.21857e-06
1.6484e-05
1.01698e-06
9.26205e-06
7.22195e-06
4.29394e-07
8.83267e-06
-3.38906e-06
3.81844e-06
-4.732e-06
1.34295e-06
-6.41683e-06
1.68483e-06
-6.41683e-06
-5.93387e-06
4.15932e-06
-1.60507e-05
1.80572e-05
-2.5436e-05
2.43944e-05
-2.60157e-05
1.32513e-05
-2.00072e-05
-5.80507e-06
-1.22753e-05
-1.60717e-05
-5.6893e-06
-1.60225e-05
-1.49992e-06
-1.25266e-05
1.6997e-06
-1.05705e-05
6.07873e-06
-1.16917e-05
1.1883e-05
-1.23396e-05
1.81804e-05
-1.0516e-05
2.38236e-05
-4.62613e-06
2.58817e-05
5.16381e-06
2.0924e-05
1.37904e-05
1.07285e-05
1.40139e-05
1.40519e-06
1.06663e-05
-2.94102e-06
6.03103e-06
-9.35784e-06
-7.39156e-06
1.15509e-05
-1.30462e-05
2.37119e-05
-1.35632e-05
2.49114e-05
-7.7608e-06
7.44893e-06
7.71692e-07
-1.43376e-05
7.71783e-06
-2.30179e-05
1.25608e-05
-2.08655e-05
1.31275e-05
-1.30934e-05
1.16641e-05
-9.10705e-06
1.13402e-05
-1.13678e-05
1.33204e-05
-1.43198e-05
1.62703e-05
-1.34658e-05
2.08249e-05
-9.18079e-06
2.70545e-05
-1.06576e-06
2.91491e-05
1.16958e-05
2.20743e-05
2.10887e-05
1.02661e-05
2.24745e-05
1.6456e-06
1.46515e-05
-7.71224e-06
-4.2144e-06
1.57653e-05
-3.73659e-06
2.3234e-05
1.85029e-06
1.93245e-05
1.05916e-05
-1.29237e-06
1.96856e-05
-2.34316e-05
2.95013e-05
-3.28336e-05
3.34118e-05
-2.4776e-05
2.98548e-05
-9.53637e-06
2.33934e-05
-2.64568e-06
1.92579e-05
-7.23226e-06
1.82416e-05
-1.33035e-05
1.90917e-05
-1.43159e-05
2.17849e-05
-1.1874e-05
2.63928e-05
-5.67369e-06
3.02672e-05
7.82135e-06
2.75547e-05
2.38012e-05
1.74618e-05
3.25674e-05
6.23529e-06
2.5878e-05
-1.47695e-06
6.28035e-07
1.51372e-05
6.28783e-06
1.75743e-05
1.59916e-05
9.62074e-06
2.6547e-05
-1.18478e-05
3.9865e-05
-3.67496e-05
5.10915e-05
-4.406e-05
5.38931e-05
-2.75776e-05
4.71521e-05
-2.79531e-06
3.58403e-05
8.6661e-06
2.71598e-05
1.44825e-06
2.2719e-05
-8.86267e-06
2.17091e-05
-1.33061e-05
2.36321e-05
-1.3797e-05
2.68683e-05
-8.90988e-06
2.98347e-05
4.85495e-06
2.94132e-05
2.42227e-05
2.22031e-05
3.97776e-05
1.02471e-05
3.7834e-05
8.77013e-06
5.08079e-06
1.00565e-05
1.44157e-05
8.23935e-06
2.66944e-05
-2.658e-06
4.19441e-05
-2.70974e-05
5.7179e-05
-5.19845e-05
6.48644e-05
-5.17454e-05
6.37326e-05
-2.64458e-05
5.62552e-05
4.68204e-06
4.41963e-05
2.0725e-05
3.36614e-05
1.19832e-05
2.63424e-05
-1.54363e-06
2.33457e-05
-1.03095e-05
2.47672e-05
-1.52184e-05
2.79192e-05
-1.2062e-05
2.99107e-05
2.86346e-06
2.9599e-05
2.45344e-05
2.43188e-05
4.50578e-05
1.30945e-05
4.90583e-05
2.18646e-05
8.01767e-06
2.0388e-06
2.27336e-05
-6.47663e-06
3.97208e-05
-1.96451e-05
5.50779e-05
-4.24545e-05
6.11987e-05
-5.81054e-05
5.54524e-05
-4.59991e-05
4.79138e-05
-1.89072e-05
4.27937e-05
9.80209e-06
3.83417e-05
2.5177e-05
3.24036e-05
1.79214e-05
2.61387e-05
4.72119e-06
2.31469e-05
-7.31763e-06
2.48836e-05
-1.69551e-05
2.8261e-05
-1.54394e-05
2.98104e-05
1.31403e-06
2.88813e-05
2.54635e-05
2.43448e-05
4.95943e-05
1.44097e-05
5.89935e-05
3.62743e-05
2.38739e-05
-2.18351e-05
4.09328e-05
-2.35355e-05
5.19193e-05
-3.06316e-05
5.33601e-05
-4.38954e-05
3.91607e-05
-4.3906e-05
6.41213e-06
-1.32505e-05
-9.66264e-06
-2.83241e-06
2.92384e-06
-2.78439e-06
1.54783e-05
1.26225e-05
2.07593e-05
1.26403e-05
2.00455e-05
5.43501e-06
2.031e-05
-7.58209e-06
2.33751e-05
-2.00202e-05
2.66975e-05
-1.87618e-05
2.85082e-05
-4.96609e-07
2.78138e-05
2.61579e-05
2.37724e-05
5.36356e-05
1.52685e-05
6.74974e-05
5.15428e-05
1.00051e-05
1.67272e-05
1.79679e-05
2.00245e-05
1.98095e-05
4.55194e-07
1.29637e-05
-8.68015e-06
-5.34119e-06
6.05681e-06
-2.60667e-05
2.16545e-05
-2.78891e-05
1.74266e-05
-2.28099e-05
1.81918e-05
-2.03172e-05
1.50219e-05
-1.45315e-05
3.45004e-06
-9.5569e-06
-9.15217e-06
-2.16679e-05
-1.69999e-06
-3.91276e-05
5.26283e-06
-4.17721e-05
-1.11072e-05
-2.69683e-05
-2.69154e-05
-7.94106e-06
-2.30121e-05
6.31487e-06
-1.48445e-05
1.66251e-05
-6.4954e-06
3.51525e-05
-9.86866e-06
5.15152e-05
-2.54314e-05
5.1168e-05
-1.47887e-05
3.53593e-05
-9.53908e-07
1.27309e-06
2.74048e-05
1.48321e-05
1.89508e-06
2.96454e-05
5.21117e-06
3.89831e-05
-8.88246e-06
4.20492e-05
-1.17462e-05
3.31119e-05
1.4994e-05
1.58578e-05
3.89086e-05
6.24296e-06
2.70415e-05
6.19534e-06
1.82394e-05
4.58644e-06
1.66308e-05
-5.9972e-06
1.40337e-05
-2.36983e-05
8.54895e-06
-4.64017e-05
2.10034e-05
-7.73159e-05
3.6177e-05
-9.51565e-05
6.73338e-06
-7.11146e-05
-5.09574e-05
-3.29619e-05
-6.11649e-05
-1.18833e-06
-4.6618e-05
2.3661e-05
-3.13447e-05
5.11893e-05
-3.7397e-05
6.69406e-05
-4.11828e-05
5.80223e-05
-5.87034e-06
4.47976e-05
1.22708e-05
2.51984e-05
2.08723e-05
7.64962e-06
-5.75454e-06
2.90585e-05
-1.61977e-05
5.70719e-05
-3.68959e-05
6.84362e-05
-2.31105e-05
4.07649e-05
4.26653e-05
2.99265e-05
4.97471e-05
8.87422e-06
4.80938e-05
-4.47632e-05
7.18768e-05
-7.89828e-05
5.08503e-05
-6.23926e-05
-2.5565e-06
-4.89175e-05
-4.92613e-06
-5.82029e-05
3.02889e-05
-0.000120838
9.88122e-05
-0.000176606
6.25015e-05
-0.000181815
-4.57484e-05
-0.000144504
-9.84758e-05
-7.89516e-05
-0.000112171
-4.41079e-05
-6.61884e-05
-8.62943e-05
4.78933e-06
-0.000139245
1.1768e-05
-0.000149121
4.00518e-06
-0.000168491
3.16413e-05
2.72315e-05
-0.000170524
1.98038e-05
-2.55584e-05
1.24553e-05
-8.84912e-06
-3.88512e-05
1.44106e-05
-3.88237e-05
-2.31379e-05
-6.24593e-07
4.46621e-06
2.15179e-05
2.76046e-05
1.98807e-05
4.9731e-05
8.75151e-06
8.3006e-05
-5.20596e-05
0.000111661
-9.60045e-05
4.13884e-05
-0.0001218
2.08692e-05
-0.000161037
6.9526e-05
-0.000177717
0.000115493
-0.000190816
7.55998e-05
-0.00022277
-1.3795e-05
-0.00025853
-6.27157e-05
-0.000283717
-8.6984e-05
-0.000272676
-7.72294e-05
-0.000216571
-5.13158e-05
-0.000222965
1.81625e-05
-0.000249714
3.07545e-05
-0.000253342
3.52686e-05
-4.92266e-06
-0.000221188
-3.03277e-05
4.76932e-06
-6.6123e-05
2.69461e-05
-6.04088e-05
8.69638e-06
-2.90421e-05
-5.45046e-05
1.78772e-05
-4.24531e-05
5.17381e-05
-6.25633e-06
5.87103e-05
4.27588e-05
4.78603e-05
9.3856e-05
2.59513e-05
0.00013357
-4.25982e-05
0.000109938
-0.000103016
8.12866e-05
-0.000126247
9.2757e-05
-0.000132603
0.000121849
-0.000125881
6.88774e-05
-0.000130688
-8.9875e-06
-0.000137632
-5.57726e-05
-0.000139943
-8.46721e-05
-0.000112362
-0.000104811
-8.20443e-05
-8.16334e-05
-0.000101275
3.73936e-05
-0.000128279
5.77587e-05
-0.000138436
4.54253e-05
-9.16447e-07
-0.000142442
-1.65323e-05
2.13016e-05
-1.43787e-05
2.47924e-05
8.3372e-06
-1.40196e-05
1.61013e-05
-6.22688e-05
4.36618e-05
-7.00136e-05
6.77035e-05
-3.02981e-05
7.4631e-05
3.58313e-05
7.41516e-05
9.43354e-05
6.67676e-05
0.000140954
2.20281e-05
0.000154677
-3.51185e-05
0.000138433
-6.29112e-05
0.000120549
-5.40454e-05
0.000112983
-3.89818e-05
5.38136e-05
-2.43713e-05
-2.35983e-05
-1.28033e-05
-6.73406e-05
-2.12845e-06
-9.53471e-05
1.21969e-05
-0.000119136
8.80334e-06
-7.82399e-05
-1.46614e-05
6.08583e-05
-8.15419e-05
0.000124639
-8.93092e-05
5.31924e-05
2.45982e-06
-9.26856e-05
8.51571e-06
1.27859e-05
2.33618e-05
9.94627e-06
2.942e-05
-2.00779e-05
1.75588e-05
-5.04076e-05
3.39656e-05
-8.64205e-05
5.98639e-05
-5.61964e-05
6.69056e-05
2.87895e-05
6.88289e-05
9.24119e-05
6.77155e-05
0.000142068
4.89565e-05
0.000173436
1.42672e-05
0.000173123
-9.30875e-06
0.000144125
-2.70482e-06
0.000106379
1.24642e-05
3.86445e-05
3.33799e-05
-4.45142e-05
5.46925e-05
-8.86532e-05
7.40723e-05
-0.000114727
6.22334e-05
-0.000107297
4.11923e-05
-5.71988e-05
3.89126e-05
6.31381e-05
-6.33235e-05
0.000226875
-0.00012966
0.000119529
1.07248e-05
-0.000137925
9.91037e-06
2.87542e-06
2.29277e-05
-3.07123e-06
9.1101e-06
-6.26042e-06
-7.19944e-07
-4.05777e-05
4.72689e-06
-9.18675e-05
2.85262e-05
-7.99958e-05
3.49285e-05
2.23872e-05
3.74495e-05
8.98907e-05
3.6322e-05
0.000143195
3.05135e-05
0.000179245
1.83635e-05
0.000185273
8.94593e-06
0.000153543
1.65138e-05
9.88107e-05
3.2079e-05
2.30793e-05
4.91247e-05
-6.15599e-05
6.1825e-05
-0.000101354
6.15903e-05
-0.000114492
5.38861e-05
-9.95932e-05
3.02843e-05
-3.3597e-05
-2.62251e-06
9.6045e-05
-8.70708e-05
0.000311324
-0.000142422
0.00017488
-1.14497e-05
-0.000120247
1.21674e-05
-9.29213e-06
8.66711e-06
4.28903e-07
-1.4701e-05
1.71075e-05
-2.11475e-05
-3.41313e-05
-1.98337e-05
-9.31814e-05
-1.1926e-05
-8.79036e-05
-7.41982e-06
1.78808e-05
-1.00852e-05
9.2556e-05
-1.62987e-05
0.000149409
-2.17416e-05
0.000184688
-2.48108e-05
0.000188342
-2.43275e-05
0.00015306
-9.52679e-06
8.40099e-05
2.24692e-05
-8.91671e-06
3.53625e-05
-7.44532e-05
2.62479e-05
-9.22389e-05
1.65365e-05
-0.000104781
1.52452e-06
-8.45813e-05
-3.578e-05
3.70759e-06
-0.000110006
0.00017027
-0.000141243
0.000342561
-0.000128705
0.000162342
-4.22986e-05
-9.78563e-05
2.22521e-05
-3.15444e-05
1.66682e-05
6.01261e-06
-1.97325e-05
5.35081e-05
-3.44015e-05
-1.94624e-05
-4.15195e-05
-8.60635e-05
-4.86174e-05
-8.08056e-05
-5.02827e-05
1.95462e-05
-6.37004e-05
0.000105973
-8.32637e-05
0.000168972
-0.000100518
0.000201943
-0.000103848
0.000191672
-7.90824e-05
0.000128294
-2.57666e-05
3.0694e-05
1.13374e-05
-4.60207e-05
4.20735e-06
-6.73232e-05
-1.43288e-05
-7.37027e-05
-4.25123e-05
-7.65972e-05
-7.46359e-05
-5.24577e-05
-0.000140596
6.96678e-05
-0.000210874
0.000240549
-0.000181322
0.000313009
-0.000117686
9.87061e-05
-6.03734e-05
-9.96108e-05
2.65642e-05
-5.81087e-05
3.28502e-05
-2.73341e-07
-8.98574e-06
9.5344e-05
-3.95526e-05
1.11044e-05
-5.82354e-05
-6.73808e-05
-7.78934e-05
-6.11477e-05
-9.47871e-05
3.644e-05
-0.000127014
0.000138201
-0.000166504
0.000208461
-0.000188341
0.000223781
-0.000159616
0.000162946
-8.33801e-05
5.20584e-05
-2.1158e-05
-3.1528e-05
-1.09675e-05
-5.62112e-05
-2.30785e-05
-5.52122e-05
-4.61421e-05
-5.06391e-05
-8.50132e-05
-3.77261e-05
-0.000152214
1.47428e-05
-0.000221053
0.000138507
-0.000239973
0.000259468
-0.000162061
0.000235097
-8.81897e-05
2.48349e-05
-6.27611e-05
-8.5802e-05
2.5946e-05
-8.40548e-05
3.22996e-05
-6.62696e-06
2.87272e-06
0.000124771
-3.69682e-05
5.09454e-05
-7.0008e-05
-3.43409e-05
-0.000103927
-2.72289e-05
-0.000140627
7.31394e-05
-0.000192512
0.000190086
-0.000235659
0.000251608
-0.00022333
0.000211452
-0.000146341
8.59568e-05
-7.11095e-05
-2.31727e-05
-4.4451e-05
-5.81866e-05
-5.15418e-05
-4.91203e-05
-7.61698e-05
-3.05841e-05
-0.000111265
-1.55443e-05
-0.000159397
1.04061e-05
-0.000219443
7.47886e-05
-0.000249105
0.000168169
-0.000215308
0.000225671
-0.000111752
0.000131541
-6.20097e-05
-2.4907e-05
-3.99147e-05
-8.48561e-05
1.79478e-05
-0.000102003
1.3355e-05
-2.03416e-06
2.85418e-07
0.00013784
-3.47241e-05
8.59549e-05
-7.7567e-05
8.50208e-06
-0.000123326
1.85303e-05
-0.000172107
0.00012192
-0.000224884
0.000242863
-0.000245001
0.000271725
-0.000195965
0.000162416
-0.000131206
2.11975e-05
-0.000100772
-5.36071e-05
-0.000101459
-5.74989e-05
-0.000135378
-1.52017e-05
-0.000166234
2.71579e-07
-0.000190351
8.57248e-06
-0.000218395
3.84507e-05
-0.000239261
9.56547e-05
-0.000225649
0.000154557
-0.000152497
0.000152519
-7.6039e-05
5.50827e-05
-8.37301e-05
-1.72159e-05
1.31906e-05
-0.000136835
-4.95064e-06
-9.70519e-05
-2.1482e-05
1.44971e-05
-2.06039e-05
0.000136962
-4.13971e-05
0.000106748
-8.14901e-05
4.85951e-05
-0.000127716
6.4756e-05
-0.000171651
0.000165855
-0.000208918
0.000280131
-0.000212401
0.000275207
-0.000175632
0.000125648
-0.000158863
4.42849e-06
-0.000160147
-5.23227e-05
-0.000179129
-3.85172e-05
-0.000203283
8.95262e-06
-0.000216317
1.33051e-05
-0.000222871
1.51262e-05
-0.000222899
3.84789e-05
-0.000207296
8.00515e-05
-0.000161449
0.000108711
-9.51155e-05
8.61858e-05
-6.18808e-05
2.18479e-05
-5.81494e-05
-2.09472e-05
3.46758e-05
-7.96345e-05
-2.24397e-05
-7.46121e-05
-4.78584e-05
3.99156e-05
-3.68128e-05
0.000125917
-4.06153e-05
0.00011055
-7.09999e-05
7.89798e-05
-0.000107926
0.000101682
-0.000134852
0.000192781
-0.000156132
0.00030141
-0.000169706
0.000288781
-0.000171851
0.000127792
-0.000186743
1.93208e-05
-0.000207622
-3.1444e-05
-0.000217798
-2.83416e-05
-0.000218108
9.26293e-06
-0.000221156
1.63526e-05
-0.000214713
8.6839e-06
-0.000192712
1.64781e-05
-0.000154099
4.14383e-05
-0.000105283
5.98942e-05
-5.53263e-05
3.62294e-05
-2.14602e-05
-1.20182e-05
-2.31844e-05
-1.92231e-05
2.6456e-05
-1.49646e-05
-2.51723e-05
-4.94398e-05
-5.14064e-05
6.61496e-05
-3.97439e-05
0.000114254
-3.57285e-05
0.000106535
-5.37386e-05
9.69898e-05
-7.30725e-05
0.000121016
-7.38134e-05
0.000193522
-6.91565e-05
0.000296753
-9.31938e-05
0.000312819
-0.000133546
0.000168145
-0.000172529
5.83039e-05
-0.000202097
-1.87666e-06
-0.000212884
-1.75539e-05
-0.000202956
-6.654e-07
-0.000199129
1.25255e-05
-0.000196411
5.96539e-06
-0.000172608
-7.32488e-06
-0.000123188
-7.98131e-06
-6.02958e-05
-2.99815e-06
-1.11718e-05
-1.28946e-05
1.33123e-05
-3.65022e-05
1.90847e-05
-2.49954e-05
1.76692e-05
2.78714e-05
-1.92686e-05
-3.01712e-05
-4.23166e-05
8.91974e-05
-3.57393e-05
0.000107676
-3.14748e-05
0.00010227
-3.60638e-05
0.000101579
-3.4809e-05
0.000119761
-1.17409e-05
0.000170453
2.77666e-05
0.000257246
3.09829e-05
0.000309602
-2.75719e-05
0.0002267
-8.59005e-05
0.000116633
-0.000130738
4.2961e-05
-0.000160062
1.17701e-05
-0.00016615
5.42268e-06
-0.000164704
1.10791e-05
-0.000172389
1.36507e-05
-0.000172121
-7.59261e-06
-0.000151931
-2.81717e-05
-0.000115324
-3.96049e-05
-8.0154e-05
-4.8065e-05
-5.45186e-05
-6.21377e-05
-1.0749e-05
-6.8765e-05
-2.63702e-05
3.32905e-05
-1.44846e-05
-1.56868e-05
-3.22504e-05
0.000106963
-3.29214e-05
0.000108347
-3.00457e-05
9.93946e-05
-1.88292e-05
9.03619e-05
2.40703e-06
9.85245e-05
3.61759e-05
0.000136684
9.53594e-05
0.000198062
0.000147761
0.000257201
0.00013196
0.000242501
6.89912e-05
0.000179601
-3.11802e-06
0.00011507
-6.30805e-05
7.17325e-05
-9.92131e-05
4.15553e-05
-0.000110491
2.23569e-05
-0.000105967
9.12685e-06
-0.000101437
-1.21229e-05
-9.90533e-05
-3.05556e-05
-9.12396e-05
-4.74185e-05
-7.50062e-05
-6.42984e-05
-5.6442e-05
-8.07019e-05
-3.33487e-05
-9.18583e-05
-5.75247e-05
-2.19459e-06
-1.21176e-05
-3.56929e-06
-2.53396e-05
0.000120185
-2.97874e-05
0.000112795
-1.63691e-05
8.59764e-05
4.74457e-06
6.92482e-05
2.64629e-05
7.68061e-05
6.1828e-05
0.000101319
0.000122291
0.0001376
0.000195419
0.000184073
0.000230677
0.000207242
0.000217504
0.000192774
0.000170109
0.000162465
0.000108413
0.000133428
4.58519e-05
0.000104117
-3.94533e-06
7.2154e-05
-3.0621e-05
3.58025e-05
-3.5306e-05
-7.43791e-06
-3.01874e-05
-3.56741e-05
-1.90215e-05
-5.85844e-05
-6.22408e-06
-7.70959e-05
9.86949e-06
-9.67955e-05
2.20168e-05
-0.000104006
-7.47538e-05
3.92461e-05
-1.11159e-05
7.54662e-06
-1.73733e-05
0.000126442
-1.58157e-05
0.000111237
8.92011e-06
6.12407e-05
2.38565e-05
5.43117e-05
3.24237e-05
6.82389e-05
5.61085e-05
7.76346e-05
0.000106804
8.69041e-05
0.000179641
0.000111236
0.000246803
0.00014008
0.000280393
0.000159184
0.000279605
0.000163253
0.000257538
0.000155495
0.000224299
0.000137356
0.000187453
0.000109
0.000153989
6.92668e-05
0.000124318
2.22332e-05
0.000106271
-1.76267e-05
0.000100446
-5.27596e-05
9.78503e-05
-7.45004e-05
9.54496e-05
-9.43947e-05
9.65556e-05
-0.000105111
-0.00010151
0.000123311
-1.10272e-05
1.85738e-05
-6.39615e-06
0.000121811
2.84127e-06
0.000102
1.72824e-05
4.67995e-05
1.98423e-05
5.17518e-05
2.75321e-05
6.0549e-05
4.48061e-05
6.03607e-05
7.79096e-05
5.38006e-05
0.000132064
5.70817e-05
0.000200164
7.19807e-05
0.000259926
9.94219e-05
0.000297818
0.000125361
0.000313346
0.000139967
0.000312972
0.00013773
0.000303169
0.000118803
0.000286055
8.63801e-05
0.000262097
4.61918e-05
0.000238624
5.84531e-06
0.000214952
-2.90867e-05
0.000197023
-5.65717e-05
0.000182748
-8.01196e-05
0.000176539
-9.89026e-05
-0.00010929
0.00018432
-1.19454e-05
3.05191e-05
2.35818e-06
0.000107508
1.03709e-05
9.39871e-05
5.84268e-06
5.13277e-05
3.91514e-06
5.36794e-05
1.6275e-05
4.81891e-05
3.76912e-05
3.89445e-05
6.20353e-05
2.94565e-05
9.51125e-05
2.40046e-05
0.000141859
2.52343e-05
0.000197445
4.38362e-05
0.000249329
7.34765e-05
0.000288611
0.000100685
0.000312895
0.000113446
0.000323303
0.000108395
0.000321843
8.78396e-05
0.000310293
5.77424e-05
0.00029176
2.43773e-05
0.000269837
-7.1636e-06
0.000248202
-3.49368e-05
0.000227066
-5.89834e-05
0.000208687
-8.05235e-05
-9.87419e-05
0.000198138
-1.34133e-05
4.39325e-05
-5.8306e-06
9.9925e-05
-5.12198e-06
9.32785e-05
-2.19991e-05
6.82047e-05
-2.49092e-05
5.65897e-05
-1.50891e-05
3.83691e-05
2.25766e-06
2.15978e-05
2.47102e-05
7.00395e-06
5.30392e-05
-4.32443e-06
8.66945e-05
-8.42092e-06
0.000129823
7.07712e-07
0.000178809
2.44906e-05
0.000225701
5.37925e-05
0.000263435
7.57117e-05
0.000287817
8.40133e-05
0.000297954
7.77028e-05
0.00029495
6.07458e-05
0.000281241
3.80867e-05
0.00026041
1.36666e-05
0.00023577
-1.02962e-05
0.000209968
-3.31815e-05
0.000185865
-5.64209e-05
-7.97994e-05
0.000166923
-1.712e-05
6.10524e-05
-2.45461e-05
0.000107351
-3.32996e-05
0.000102032
-4.80115e-05
8.29167e-05
-5.09655e-05
5.95439e-05
-4.59556e-05
3.33594e-05
-3.41039e-05
9.74622e-06
-1.65627e-05
-1.05373e-05
4.49214e-06
-2.53793e-05
2.99369e-05
-3.38658e-05
6.26147e-05
-3.19702e-05
0.000105552
-1.84465e-05
0.000153202
6.14257e-06
0.000196939
3.19744e-05
0.000230264
5.06882e-05
0.000249756
5.82105e-05
0.000254675
5.58265e-05
0.000246786
4.5976e-05
0.000229326
3.11263e-05
0.000205858
1.31726e-05
0.000179852
-7.17606e-06
0.000153796
-3.03651e-05
-5.64851e-05
0.000130482
-2.38579e-05
8.49104e-05
-4.01972e-05
0.00012369
-5.52169e-05
0.000117052
-6.771e-05
9.541e-05
-7.24556e-05
6.42896e-05
-7.11191e-05
3.20231e-05
-6.32188e-05
1.84602e-06
-4.93415e-05
-2.44146e-05
-3.05849e-05
-4.41359e-05
-8.9822e-06
-5.54687e-05
1.67147e-05
-5.76674e-05
4.87777e-05
-5.05096e-05
8.85849e-05
-3.36647e-05
0.000131036
-1.04765e-05
0.000168016
1.37074e-05
0.000194153
3.20739e-05
0.000206419
4.35608e-05
0.00020514
4.72547e-05
0.000192792
4.34749e-05
0.000172684
3.32804e-05
0.000147829
1.76793e-05
0.000120404
-2.94046e-06
-2.81478e-05
9.20668e-05
-2.92546e-05
0.000114165
-4.79774e-05
0.000142413
-6.6362e-05
0.000135436
-8.05313e-05
0.000109579
-8.98797e-05
7.36381e-05
-9.43502e-05
3.64937e-05
-9.22375e-05
-2.66775e-07
-8.2941e-05
-3.37112e-05
-6.68095e-05
-6.02676e-05
-4.56773e-05
-7.66011e-05
-2.11631e-05
-8.21817e-05
7.39272e-06
-7.90655e-05
4.03765e-05
-6.66485e-05
7.47028e-05
-4.48028e-05
0.000108115
-1.97043e-05
0.000134736
5.4522e-06
0.000150764
2.75332e-05
0.000155063
4.29561e-05
0.000148578
4.99598e-05
0.000133666
4.81923e-05
0.000112581
3.87642e-05
8.61776e-05
2.34627e-05
4.27988e-06
5.37496e-05
-2.90031e-05
0.000143168
-4.76434e-05
0.000161053
-6.79501e-05
0.000155743
-8.53802e-05
0.00012701
-0.000100119
8.83774e-05
-0.000111215
4.75896e-05
-0.00011587
4.38809e-06
-0.000112393
-3.71878e-05
-0.00010027
-7.23915e-05
-8.20018e-05
-9.4869e-05
-6.05747e-05
-0.000103609
-3.75149e-05
-0.000102125
-1.19323e-05
-9.22311e-05
1.62184e-05
-7.29535e-05
4.37094e-05
-4.71954e-05
6.81786e-05
-1.9017e-05
8.57721e-05
9.93981e-06
9.4849e-05
3.38791e-05
9.54308e-05
4.93778e-05
8.86266e-05
5.49965e-05
7.55226e-05
5.18682e-05
5.5727e-05
4.32581e-05
3.36113e-05
2.63953e-05
-2.38366e-05
0.000167005
-4.03864e-05
0.000177603
-6.0163e-05
0.00017552
-7.97226e-05
0.000146569
-9.82377e-05
0.000106893
-0.000114799
6.4151e-05
-0.000126269
1.58578e-05
-0.000129583
-3.38737e-05
-0.000123198
-7.87765e-05
-0.000109257
-0.000108809
-9.18676e-05
-0.000120999
-7.42637e-05
-0.000119729
-5.70675e-05
-0.000109427
-3.87105e-05
-9.13106e-05
-1.86567e-05
-6.72493e-05
1.62024e-06
-3.9294e-05
1.9334e-05
-7.77401e-06
3.27525e-05
2.04606e-05
4.1339e-05
4.07912e-05
4.49936e-05
5.1342e-05
4.33396e-05
5.35223e-05
3.60645e-05
5.05331e-05
4.80644e-05
2.16113e-05
-1.6455e-05
0.00018346
-2.82281e-05
0.000189376
-4.2776e-05
0.000190068
-6.06271e-05
0.00016442
-7.86013e-05
0.000124867
-9.64768e-05
8.20265e-05
-0.000112735
3.21162e-05
-0.000123191
-2.34176e-05
-0.000125883
-7.60847e-05
-0.000119819
-0.000114873
-0.000107184
-0.000133634
-9.33461e-05
-0.000133567
-8.18091e-05
-0.000120964
-7.21258e-05
-0.000100994
-6.19292e-05
-7.7446e-05
-4.97582e-05
-5.14651e-05
-3.44334e-05
-2.30987e-05
-1.76817e-05
3.70914e-06
-1.04245e-06
2.41518e-05
1.19963e-05
3.83033e-05
2.24777e-05
4.30412e-05
3.05699e-05
4.24409e-05
4.18558e-05
3.67786e-05
-7.5341e-06
0.000190994
-1.29821e-05
0.000194824
-1.7875e-05
0.000194961
-2.80361e-05
0.000174581
-3.94917e-05
0.000136323
-5.19285e-05
9.44633e-05
-6.69975e-05
4.71853e-05
-8.3203e-05
-7.21198e-06
-9.72183e-05
-6.20694e-05
-0.000104062
-0.000108029
-0.000101405
-0.000136291
-9.23107e-05
-0.000142662
-8.32127e-05
-0.000130062
-7.7307e-05
-0.0001069
-7.30913e-05
-8.16615e-05
-6.78839e-05
-5.66725e-05
-5.75263e-05
-3.34562e-05
-4.17108e-05
-1.21061e-05
-2.2836e-05
5.27671e-06
-2.87231e-06
1.83396e-05
1.62986e-05
2.38704e-05
3.47458e-05
2.39933e-05
2.22192e-05
5.43823e-05
3.38036e-06
0.000187613
3.63599e-06
0.000194569
9.60025e-06
0.000188996
1.29115e-05
0.00017127
1.21741e-05
0.00013706
8.96021e-06
9.76772e-05
1.84788e-06
5.42976e-05
-1.27285e-05
7.36438e-06
-3.36343e-05
-4.11637e-05
-5.50475e-05
-8.66157e-05
-6.94261e-05
-0.000121913
-7.20627e-05
-0.000140025
-6.73041e-05
-0.000134821
-6.19803e-05
-0.000112223
-5.77884e-05
-8.58533e-05
-5.36533e-05
-6.08077e-05
-4.69882e-05
-4.01213e-05
-3.51277e-05
-2.39663e-05
-1.8899e-05
-1.09524e-05
4.27325e-07
-9.86687e-07
1.98332e-05
4.46462e-06
3.9243e-05
4.58339e-06
1.53505e-06
5.99274e-05
1.52497e-05
0.000172364
1.93528e-05
0.000190466
3.47752e-05
0.000173574
5.4125e-05
0.000151921
6.84269e-05
0.000122758
7.67556e-05
8.93484e-05
7.79495e-05
5.31037e-05
6.94611e-05
1.58526e-05
4.99712e-05
-2.16739e-05
2.14258e-05
-5.80703e-05
-1.07914e-05
-8.96953e-05
-3.33995e-05
-0.000117417
-4.07829e-05
-0.000127438
-3.963e-05
-0.000113376
-3.66121e-05
-8.88711e-05
-3.21379e-05
-6.52822e-05
-2.64878e-05
-4.57713e-05
-1.8485e-05
-3.19691e-05
-7.16332e-06
-2.2274e-05
6.87407e-06
-1.50239e-05
2.2074e-05
-1.07354e-05
3.7609e-05
-1.09515e-05
-1.57902e-05
5.49342e-05
2.08043e-05
0.000151559
3.02953e-05
0.000180975
5.12659e-05
0.000152604
8.14252e-05
0.000121761
0.000109759
9.44241e-05
0.000130752
6.83551e-05
0.00014139
4.24655e-05
0.000140762
1.6481e-05
0.00012586
-6.77257e-06
9.73387e-05
-2.95485e-05
5.86833e-05
-5.104e-05
1.95819e-05
-7.83158e-05
-5.45835e-06
-0.000102398
-1.37602e-05
-0.000105075
-1.5331e-05
-8.73002e-05
-1.42282e-05
-6.63853e-05
-1.08231e-05
-4.9176e-05
-6.02981e-06
-3.67628e-05
1.22585e-06
-2.95296e-05
1.07367e-05
-2.45346e-05
2.18085e-05
-2.18077e-05
3.34868e-05
-2.26302e-05
-2.80022e-05
4.56987e-05
1.83863e-05
0.000133173
3.07788e-05
0.000168582
4.91472e-05
0.000134235
7.53432e-05
9.55652e-05
0.000104384
6.53833e-05
0.000131304
4.14347e-05
0.000151604
2.21661e-05
0.000161731
6.35357e-06
0.000160415
-5.45693e-06
0.000143562
-1.26948e-05
0.000111996
-1.94747e-05
7.07019e-05
-3.70216e-05
3.34692e-05
-6.51649e-05
1.32901e-05
-8.48955e-05
6.09749e-06
-8.01073e-05
2.78653e-06
-6.30749e-05
2.27568e-06
-4.86646e-05
4.04879e-06
-3.85364e-05
7.56281e-06
-3.3044e-05
1.3168e-05
-3.01398e-05
2.01623e-05
-2.8802e-05
2.75056e-05
-2.99735e-05
-3.47396e-05
3.42431e-05
1.83811e-05
0.000114792
3.15127e-05
0.000155451
4.29414e-05
0.000122806
5.79725e-05
8.0534e-05
7.56594e-05
4.76963e-05
9.48284e-05
2.22657e-05
0.000115995
9.99329e-07
0.000134424
-1.20749e-05
0.000144913
-1.59462e-05
0.000144629
-1.24113e-05
0.000130885
-5.73016e-06
0.000102477
-8.6135e-06
6.6661e-05
-2.93494e-05
3.91961e-05
-5.74306e-05
2.6079e-05
-6.69898e-05
1.94588e-05
-5.64552e-05
1.50247e-05
-4.42306e-05
1.31592e-05
-3.66706e-05
1.34048e-05
-3.32891e-05
1.54454e-05
-3.21804e-05
1.87948e-05
-3.21514e-05
2.24286e-05
-3.36071e-05
-3.7463e-05
2.51522e-05
2.59698e-05
8.88225e-05
4.32467e-05
0.000138174
5.33714e-05
0.000112682
6.4043e-05
6.98623e-05
7.88651e-05
3.28741e-05
9.82312e-05
2.89971e-06
0.000119422
-2.01915e-05
0.000136913
-2.95662e-05
0.000145791
-2.4824e-05
0.000145003
-1.16232e-05
0.000136249
3.02343e-06
0.00011678
1.08563e-05
8.80636e-05
-6.334e-07
6.02591e-05
-2.96263e-05
4.22545e-05
-4.89854e-05
3.23911e-05
-4.65908e-05
2.5707e-05
-3.75471e-05
2.11717e-05
-3.21358e-05
1.86189e-05
-3.07363e-05
1.77189e-05
-3.12806e-05
1.80208e-05
-3.24534e-05
1.88209e-05
-3.44072e-05
-3.77055e-05
1.90635e-05
2.5939e-05
6.28835e-05
5.13785e-05
0.000112734
6.88044e-05
9.52556e-05
8.39882e-05
5.46784e-05
0.000102417
1.44457e-05
0.000126562
-2.12461e-05
0.000152714
-4.63434e-05
0.000174562
-5.14143e-05
0.00018252
-3.27814e-05
0.000173373
-2.47614e-06
0.000153453
2.2943e-05
0.000128949
3.53609e-05
0.00010155
2.67655e-05
7.4668e-05
-2.74428e-06
5.40005e-05
-2.83183e-05
4.07228e-05
-3.3313e-05
3.21935e-05
-2.90176e-05
2.63172e-05
-2.62593e-05
2.21225e-05
-2.65414e-05
1.925e-05
-2.84081e-05
1.73971e-05
-3.06005e-05