/*--------------------------------*- C++ -*----------------------------------*\
| =========                 |                                                 |
| \\      /  F ield         | OpenFOAM: The Open Source CFD Toolbox           |
|  \\    /   O peration     | Version:  2.3.0                                 |
|   \\  /    A nd           | Web:      www.OpenFOAM.org                      |
|    \\/     M anipulation  |                                                 |
\*---------------------------------------------------------------------------*/
FoamFile
{
    version     2.0;
    format      ascii;
    class       volVectorField;
    location    "1.8";
    object      U;
}
// * * * * * * * * * * * * * * * * * * * * * * * * * * * * * * * * * * * * * //

dimensions      [0 1 -1 0 0 0 0];

internalField   nonuniform List<vector> 
2268
(
(0.0414711 -0.0206723 0)
(0.0576231 -0.000387692 0)
(0.0108092 0.00862534 0)
(0.0322524 -0.00700206 0)
(0.10896 -0.0101037 0)
(0.101262 0.013893 0)
(-0.00783013 0.0244839 0)
(-0.143283 0.0172269 0)
(-0.17842 0.00775071 0)
(-0.175725 -0.00492475 0)
(-0.17012 -0.00509762 0)
(-0.172456 -0.00171508 0)
(-0.161739 -0.00433562 0)
(-0.134716 -0.006089 0)
(-0.105218 -0.00280455 0)
(-0.0935889 0.00245375 0)
(-0.1188 0.0071345 0)
(-0.164705 0.00750456 0)
(-0.184459 0.000172477 0)
(-0.163761 -0.012319 0)
(-0.13086 -0.015957 0)
(-0.0859075 -0.0183964 0)
(-0.030029 -0.0176944 0)
(0.0174428 -0.0319559 0)
(-0.0162909 0.0177873 0)
(-0.0575904 0.0103833 0)
(-0.00135449 -0.0495552 0)
(0.0928489 -0.0303929 0)
(0.0967635 0.0590757 0)
(0.00710281 0.0838855 0)
(-0.181518 0.0495963 0)
(-0.168412 0.0151301 0)
(-0.14256 -0.00362514 0)
(-0.175888 0.00140154 0)
(-0.185331 0.00115989 0)
(-0.175815 -0.012029 0)
(-0.146581 -0.0216447 0)
(-0.112481 -0.0139616 0)
(-0.0869334 0.00606937 0)
(-0.0993092 0.0218123 0)
(-0.127231 0.0194575 0)
(-0.108048 0.00196691 0)
(-0.0895526 -0.0165694 0)
(-0.086315 -0.0228891 0)
(-0.0611153 -0.0346843 0)
(-0.0216662 -0.0420162 0)
(-0.00963602 -0.0214533 0)
(-0.079215 0.0427279 0)
(-0.109038 0.00916267 0)
(-0.0593027 -0.0941632 0)
(0.0190822 -0.0632564 0)
(0.0822946 0.0713174 0)
(0.0144755 0.141543 0)
(-0.145732 0.0792854 0)
(-0.123815 0.0104131 0)
(-0.129058 -0.00267902 0)
(-0.178087 0.0131436 0)
(-0.187878 0.00247973 0)
(-0.170074 -0.0226984 0)
(-0.137036 -0.0389222 0)
(-0.109119 -0.0306384 0)
(-0.0759785 -0.00656843 0)
(-0.0374149 0.01835 0)
(-0.0302739 0.0192946 0)
(-0.0249793 -0.00563476 0)
(-0.0441216 -0.0174027 0)
(-0.0454356 -0.0229365 0)
(-0.0354359 -0.0427225 0)
(-0.00860276 -0.0587458 0)
(-0.034794 0.00488907 0)
(-0.121184 0.0769369 0)
(-0.139373 0.00181164 0)
(-0.123234 -0.122679 0)
(-0.0845118 -0.0994681 0)
(0.0341908 0.0751611 0)
(0.00177665 0.18962 0)
(-0.0893278 0.104085 0)
(-0.0894389 0.0214536 0)
(-0.124163 0.0160441 0)
(-0.17207 0.0251397 0)
(-0.169653 0.000502241 0)
(-0.134441 -0.0352988 0)
(-0.0903822 -0.0514692 0)
(-0.079517 -0.0398757 0)
(-0.073445 -0.0257843 0)
(-0.0328827 -0.00650131 0)
(0.00939994 0.011742 0)
(-0.0212826 0.0121535 0)
(-0.0652477 -0.0085004 0)
(-0.0412473 -0.0282105 0)
(-0.0190989 -0.0492607 0)
(0.004916 -0.0648898 0)
(-0.0507162 0.0434079 0)
(-0.140456 0.107272 0)
(-0.15345 -0.00333257 0)
(-0.158872 -0.133209 0)
(-0.157368 -0.122809 0)
(-0.0739049 0.0443407 0)
(-0.0168524 0.209458 0)
(-0.0372099 0.116587 0)
(-0.0720777 0.0387607 0)
(-0.122569 0.0349234 0)
(-0.156974 0.0309632 0)
(-0.135456 -0.0113418 0)
(-0.0795073 -0.0560416 0)
(-0.0282932 -0.0643955 0)
(-0.0253227 -0.0344749 0)
(-0.0504489 -0.0280761 0)
(-0.0459412 -0.0247371 0)
(-0.0161064 0.00952632 0)
(-0.0573542 0.0326297 0)
(-0.0890355 -0.00878697 0)
(-0.0517465 -0.0446616 0)
(-0.0113489 -0.0616577 0)
(0.0213225 -0.0616455 0)
(-0.0499079 0.085257 0)
(-0.131742 0.131708 0)
(-0.135394 0.00391851 0)
(-0.1506 -0.131196 0)
(-0.187607 -0.134805 0)
(-0.151715 0.0123462 0)
(-0.0383631 0.183853 0)
(-0.0172748 0.123027 0)
(-0.0770037 0.0628069 0)
(-0.122724 0.0529642 0)
(-0.132662 0.0283461 0)
(-0.0871329 -0.0320122 0)
(-0.0220328 -0.0816772 0)
(-0.0023181 -0.0816726 0)
(0.0133165 -0.0299559 0)
(-0.0128083 -0.0140329 0)
(-0.0452543 -0.021326 0)
(-0.0471768 0.0148053 0)
(-0.0770204 0.0494504 0)
(-0.0867644 -0.0145391 0)
(-0.0622459 -0.0687101 0)
(-0.0182432 -0.0859371 0)
(0.0350218 -0.0641617 0)
(-0.0309073 0.119998 0)
(-0.0984943 0.147483 0)
(-0.081653 0.014313 0)
(-0.0884928 -0.116564 0)
(-0.166903 -0.125329 0)
(-0.19573 -0.00973544 0)
(-0.0821865 0.136856 0)
(-0.0462952 0.127024 0)
(-0.0985356 0.0818676 0)
(-0.119349 0.0595983 0)
(-0.0998124 0.0118828 0)
(-0.0365757 -0.056789 0)
(0.0015473 -0.0959037 0)
(-0.0378278 -0.0873989 0)
(-0.00157729 -0.038341 0)
(0.0099312 -0.00424849 0)
(-0.0249517 -0.00944489 0)
(-0.0442923 0.016241 0)
(-0.0621719 0.0560769 0)
(-0.0428433 -0.0241608 0)
(-0.024277 -0.0817831 0)
(-0.00966445 -0.10865 0)
(0.0302066 -0.0646089 0)
(0.0019426 0.146235 0)
(-0.0492118 0.154414 0)
(-0.0029382 0.0175705 0)
(0.00377047 -0.0916957 0)
(-0.0971036 -0.0868104 0)
(-0.203729 -0.0166882 0)
(-0.140056 0.1018 0)
(-0.0857651 0.137887 0)
(-0.109182 0.100408 0)
(-0.102869 0.0610813 0)
(-0.0632556 -0.00822821 0)
(-0.011761 -0.0808483 0)
(-0.0435123 -0.0828326 0)
(-0.114352 -0.0725646 0)
(-0.0626195 -0.0471937 0)
(-0.00933139 -0.00251513 0)
(0.0112391 0.012702 0)
(0.0109636 0.0244175 0)
(-0.0148237 0.0577065 0)
(0.0661096 -0.033034 0)
(0.10096 -0.0740419 0)
(0.0690714 -0.101211 0)
(0.0311397 -0.0329837 0)
(0.0385252 -0.018307 0)
(0.00736736 0.015402 0)
(-0.162827 0.0413164 0)
(-0.355687 0.0386601 0)
(-0.41498 0.00518305 0)
(-0.332862 -0.0270125 0)
(-0.236983 -0.0299801 0)
(-0.137358 -0.0275762 0)
(-0.0481024 -0.0236221 0)
(0.0371224 -0.0184577 0)
(0.118616 -0.0108043 0)
(0.186368 -0.00146973 0)
(0.214061 0.0145504 0)
(0.162612 0.0293092 0)
(0.0416694 0.022349 0)
(-0.0369828 -0.00902043 0)
(-0.0305973 -0.00467513 0)
(-0.0885303 -0.00126292 0)
(-0.0474325 -0.0203337 0)
(-0.0151379 0.00301754 0)
(-0.1101 0.0665232 0)
(-0.273196 0.0997461 0)
(-0.343385 0.0671258 0)
(-0.251006 -0.00798968 0)
(-0.172973 -0.0634307 0)
(-0.0943816 -0.0663036 0)
(-0.0370047 -0.0556785 0)
(0.000512108 -0.0512963 0)
(0.0416105 -0.0555272 0)
(0.0998413 -0.0537447 0)
(0.169588 -0.0405452 0)
(0.243847 -0.00726252 0)
(0.303387 0.0375206 0)
(0.28127 0.0654738 0)
(0.19153 0.0491773 0)
(0.0799606 0.022705 0)
(-0.0585047 0.0146318 0)
(-0.00140493 -0.046541 0)
(-0.0337527 0.0395022 0)
(-0.122912 0.105477 0)
(-0.194 0.123431 0)
(-0.147689 0.0525726 0)
(-0.0293432 -0.0510548 0)
(0.0561783 -0.0926016 0)
(0.130337 -0.0901052 0)
(0.152557 -0.0652453 0)
(0.142783 -0.0525899 0)
(0.129012 -0.0613321 0)
(0.134899 -0.0693181 0)
(0.165077 -0.0614894 0)
(0.203249 -0.036611 0)
(0.272033 0.00950723 0)
(0.34023 0.0668256 0)
(0.323664 0.0915009 0)
(0.204533 0.081381 0)
(0.0111726 0.0470576 0)
(0.0316729 -0.0489726 0)
(-0.023694 0.067415 0)
(-0.0604654 0.117615 0)
(-0.0385545 0.114355 0)
(0.066763 0.015775 0)
(0.175229 -0.0853866 0)
(0.299352 -0.127451 0)
(0.382868 -0.103242 0)
(0.375866 -0.055123 0)
(0.305264 -0.0335985 0)
(0.238011 -0.051658 0)
(0.206057 -0.0720757 0)
(0.205013 -0.0706768 0)
(0.227553 -0.0525836 0)
(0.266814 -0.0189591 0)
(0.329605 0.0464274 0)
(0.361113 0.111197 0)
(0.287819 0.135983 0)
(0.0944833 0.0974023 0)
(0.0582113 -0.027444 0)
(0.00299952 0.0833269 0)
(0.0169972 0.105855 0)
(0.111306 0.0774133 0)
(0.223592 -0.0239574 0)
(0.382229 -0.138391 0)
(0.542709 -0.181617 0)
(0.627449 -0.120381 0)
(0.600246 -0.0267472 0)
(0.482196 0.0103872 0)
(0.35056 -0.0211831 0)
(0.270112 -0.0584401 0)
(0.241433 -0.0700082 0)
(0.250945 -0.0634629 0)
(0.283974 -0.0362432 0)
(0.32227 0.0289379 0)
(0.358528 0.117106 0)
(0.329308 0.178262 0)
(0.166174 0.156555 0)
(0.0842914 0.0152199 0)
(0.0335847 0.0577591 0)
(0.0962857 0.0633341 0)
(0.212977 0.0218866 0)
(0.373458 -0.0859369 0)
(0.586263 -0.217901 0)
(0.720795 -0.250844 0)
(0.751472 -0.155779 0)
(0.709738 0.00605374 0)
(0.59171 0.0777276 0)
(0.437643 0.0373958 0)
(0.322385 -0.025165 0)
(0.267935 -0.0593126 0)
(0.262786 -0.071227 0)
(0.297406 -0.0504402 0)
(0.331346 0.0176191 0)
(0.350567 0.117198 0)
(0.338631 0.207195 0)
(0.21089 0.213141 0)
(0.107562 0.0756966 0)
(0.0419214 0.062513 0)
(0.158471 0.0294314 0)
(0.336327 -0.0428983 0)
(0.562871 -0.170682 0)
(0.70066 -0.286819 0)
(0.684645 -0.276118 0)
(0.559341 -0.155194 0)
(0.532598 0.0142939 0)
(0.497725 0.104377 0)
(0.402512 0.0787489 0)
(0.316191 0.0127108 0)
(0.265265 -0.0401058 0)
(0.261665 -0.0760783 0)
(0.298971 -0.0658285 0)
(0.336506 0.0110731 0)
(0.342801 0.121748 0)
(0.327845 0.230829 0)
(0.227131 0.263559 0)
(0.121944 0.141655 0)
(0.193625 -0.0586218 0)
(0.380127 -0.0993267 0)
(0.532232 -0.147316 0)
(0.652452 -0.237643 0)
(0.568211 -0.276783 0)
(0.293075 -0.166 0)
(-0.182255 0.00944448 0)
(-0.0499194 0.0545456 0)
(0.166472 0.114567 0)
(0.22272 0.0902053 0)
(0.224331 0.0371902 0)
(0.218304 -0.0256504 0)
(0.241322 -0.087675 0)
(0.281088 -0.0875432 0)
(0.319303 -0.000713144 0)
(0.33027 0.121368 0)
(0.313817 0.249719 0)
(0.232812 0.308259 0)
(0.135056 0.211971 0)
(0.052884 0.135 0)
(0.0469256 0.153925 0)
(0.118637 0.0142654 0)
(0.112937 -0.0570472 0)
(0.0434367 0.0044531 0)
(-0.106015 0.0597584 0)
(-0.178368 0.0608806 0)
(-0.128595 0.0960405 0)
(-0.120577 0.0742878 0)
(-0.0978415 0.0172987 0)
(-0.0459158 -0.0602161 0)
(-0.0609942 -0.0671914 0)
(-0.176864 -0.0207862 0)
(-0.254058 -0.0595113 0)
(-0.191219 -0.0882138 0)
(-0.0853652 -0.0573013 0)
(0.00762408 -0.0387265 0)
(0.0711564 -0.00549833 0)
(0.0937453 0.0162276 0)
(0.251592 -0.07407 0)
(0.315829 -0.0830266 0)
(0.244424 -0.053434 0)
(0.145793 -0.0525164 0)
(0.0567763 0.0368744 0)
(0.109777 0.0789966 0)
(0.189554 -0.00475347 0)
(0.224113 -0.0313509 0)
(0.207793 0.0353328 0)
(0.148635 0.12808 0)
(0.0431865 0.110413 0)
(0.0204424 0.093629 0)
(0.0330387 0.0753291 0)
(0.022789 0.0223445 0)
(-0.0761809 -0.0269917 0)
(-0.181526 0.0496946 0)
(-0.347756 0.055679 0)
(-0.514956 -0.103223 0)
(-0.480767 -0.228279 0)
(-0.27158 -0.183949 0)
(-0.0643235 -0.101038 0)
(0.0532204 -0.0497478 0)
(0.200728 -0.103491 0)
(0.307934 -0.184492 0)
(0.366032 -0.123861 0)
(0.307975 0.0190468 0)
(0.179094 0.0549204 0)
(-0.0120953 0.00035724 0)
(0.0958066 -0.0010295 0)
(0.193126 -0.0733625 0)
(0.316428 -0.113133 0)
(0.326167 0.0684494 0)
(0.214448 0.224025 0)
(0.148395 0.174284 0)
(-0.0628321 0.129179 0)
(-0.444037 0.134087 0)
(-0.369536 0.129667 0)
(-0.274114 0.104749 0)
(-0.252596 0.155802 0)
(-0.428659 0.310546 0)
(-0.822468 0.146931 0)
(-1.06127 -0.36267 0)
(-0.937311 -0.505106 0)
(-0.594858 -0.41112 0)
(-0.218047 -0.277538 0)
(-0.242062 -0.271728 0)
(-0.7732 -0.08894 0)
(-0.660051 0.0874652 0)
(-0.813354 0.166355 0)
(-0.998861 0.242872 0)
(-0.0135974 -0.0508324 0)
(0.149494 -0.14175 0)
(-0.00521998 -0.176715 0)
(-0.366387 -0.0540742 0)
(-0.0235471 0.376434 0)
(0.0533243 0.371076 0)
(0.128609 0.338786 0)
(0.0929739 0.490466 0)
(-0.0401878 0.456031 0)
(-0.40113 -0.137596 0)
(-0.657466 -0.0848347 0)
(-0.785937 0.322062 0)
(-0.81769 0.679855 0)
(-1.04405 0.477868 0)
(-1.07689 -0.138944 0)
(-1.33787 -0.52416 0)
(-1.56484 -0.639336 0)
(-1.47397 -0.306878 0)
(-1.21497 0.161442 0)
(-1.19937 0.101368 0)
(-1.302 0.0515851 0)
(-1.39422 0.168408 0)
(-1.32049 -0.0227288 0)
(-0.0818151 -0.162652 0)
(-0.323849 0.0596554 0)
(-0.42199 0.192244 0)
(-0.168812 -0.26464 0)
(-0.069866 -0.282872 0)
(0.199222 -0.0292855 0)
(0.311237 0.236179 0)
(0.298798 0.536413 0)
(0.228047 0.702348 0)
(0.0134633 0.476627 0)
(-0.423528 0.218929 0)
(-0.6533 0.325888 0)
(-0.745658 0.673613 0)
(-0.717316 0.415607 0)
(-0.644496 -0.0157408 0)
(-0.768811 -0.231826 0)
(-0.886659 -0.461443 0)
(-0.582908 -0.621062 0)
(-0.306207 -0.441043 0)
(-0.687017 0.149379 0)
(-0.581635 0.165555 0)
(-0.71958 0.268019 0)
(-0.79257 0.0105491 0)
(-0.0550468 0.165595 0)
(-0.133209 0.150548 0)
(-0.0415595 -0.0402817 0)
(0.125657 -0.318025 0)
(0.11789 -0.288224 0)
(0.281909 -0.0717666 0)
(0.391556 0.211715 0)
(0.407953 0.497614 0)
(0.393612 0.749689 0)
(0.310761 0.773737 0)
(-0.0324356 0.620675 0)
(-0.314782 0.526243 0)
(-0.394132 0.601598 0)
(-0.267655 0.341964 0)
(-0.145946 -0.0566828 0)
(-0.0895638 -0.318437 0)
(-0.104947 -0.452045 0)
(0.0821384 -0.617433 0)
(0.129633 -0.503917 0)
(0.0220081 0.278379 0)
(-0.286288 0.443544 0)
(-0.486032 0.180583 0)
(-0.46072 -0.0340189 0)
(0.010929 0.12483 0)
(0.0633684 0.145571 0)
(0.179797 -0.0823952 0)
(0.149608 -0.297426 0)
(0.0847867 -0.430962 0)
(0.226902 -0.244939 0)
(0.355734 0.157146 0)
(0.368837 0.483067 0)
(0.3772 0.748278 0)
(0.365061 0.890432 0)
(0.193601 0.866408 0)
(-0.0177893 0.72646 0)
(-0.0798124 0.590267 0)
(0.0294935 0.279665 0)
(0.116355 -0.161091 0)
(0.259385 -0.421091 0)
(0.348831 -0.587027 0)
(0.399134 -0.610525 0)
(0.248645 -0.384613 0)
(0.297702 0.304467 0)
(-0.006245 0.939502 0)
(-0.604016 0.456152 0)
(-0.8008 0.0944438 0)
(0.0104283 0.0259122 0)
(0.103523 -0.0135667 0)
(0.117069 -0.106932 0)
(0.023268 -0.239767 0)
(-0.0351728 -0.473855 0)
(0.060322 -0.383047 0)
(0.197169 0.123787 0)
(0.200787 0.48517 0)
(0.198043 0.755546 0)
(0.209001 0.947311 0)
(0.156131 0.984808 0)
(0.0627435 0.838781 0)
(0.0396758 0.586021 0)
(0.110022 0.206305 0)
(0.256048 -0.274323 0)
(0.305028 -0.516288 0)
(0.304724 -0.63621 0)
(0.313801 -0.590894 0)
(0.202811 -0.292149 0)
(0.138407 0.259743 0)
(-0.121875 1.41823 0)
(-0.835242 0.853072 0)
(-0.791638 0.0286933 0)
(0.0271233 -0.00253348 0)
(0.0871155 -0.0359069 0)
(0.0110882 0.0160285 0)
(-0.126167 -0.206834 0)
(-0.130882 -0.507763 0)
(-0.138467 -0.471603 0)
(-0.0191381 0.114357 0)
(-0.0433956 0.478583 0)
(-0.0682605 0.779319 0)
(-0.090811 0.981022 0)
(-0.104715 1.01634 0)
(-0.126289 0.849621 0)
(-0.111888 0.556931 0)
(0.0379974 0.104604 0)
(0.180461 -0.378228 0)
(0.150748 -0.532105 0)
(0.113083 -0.603982 0)
(0.0652594 -0.523214 0)
(-0.0895673 -0.17677 0)
(-0.294851 0.666677 0)
(-0.656254 1.80169 0)
(-0.939556 0.907621 0)
(-0.586717 -0.209944 0)
(0.0562845 -0.0817045 0)
(0.177018 0.0501698 0)
(0.00401574 0.186174 0)
(-0.179679 -0.167048 0)
(-0.212915 -0.501976 0)
(-0.289421 -0.466332 0)
(-0.259659 0.0808836 0)
(-0.298751 0.512522 0)
(-0.390725 0.839187 0)
(-0.488897 1.0284 0)
(-0.544499 1.04512 0)
(-0.52015 0.840574 0)
(-0.290152 0.373612 0)
(0.0484921 -0.204198 0)
(0.0415641 -0.403508 0)
(-0.00981462 -0.471748 0)
(-0.120379 -0.51023 0)
(-0.338961 -0.354248 0)
(-0.628512 0.258491 0)
(-0.904718 1.23965 0)
(-1.09399 1.89797 0)
(-0.899708 0.772963 0)
(-0.521846 -0.277369 0)
(0.0474944 -0.248125 0)
(0.240132 0.0221553 0)
(0.099598 0.394568 0)
(-0.173792 -0.0498779 0)
(-0.263057 -0.434675 0)
(-0.397123 -0.401174 0)
(-0.466937 0.125299 0)
(-0.577677 0.630562 0)
(-0.788178 0.999054 0)
(-0.986583 1.17529 0)
(-0.991603 1.04737 0)
(-0.658169 0.539432 0)
(-0.207607 -0.0668325 0)
(-0.091446 -0.313493 0)
(-0.0797267 -0.3713 0)
(-0.18079 -0.349404 0)
(-0.258092 -0.326371 0)
(-0.670108 -0.143779 0)
(-1.10233 0.587377 0)
(-1.28515 1.45167 0)
(-1.13592 1.53071 0)
(-0.643389 0.324904 0)
(-0.398666 -0.338293 0)
(0.040997 -0.403087 0)
(0.202194 -0.0311004 0)
(0.167281 0.585405 0)
(-0.124811 0.15666 0)
(-0.277358 -0.288851 0)
(-0.481407 -0.245459 0)
(-0.652219 0.283077 0)
(-0.879712 0.878872 0)
(-1.19624 1.27094 0)
(-1.33051 1.25856 0)
(-1.0154 0.714783 0)
(-0.497845 0.00468384 0)
(-0.296976 -0.293112 0)
(-0.267738 -0.350588 0)
(-0.330354 -0.245114 0)
(-0.428383 -0.182167 0)
(-0.715706 -0.0823921 0)
(-1.06076 0.267636 0)
(-1.32895 0.859422 0)
(-1.31921 1.36627 0)
(-0.921555 1.0371 0)
(-0.341484 -0.109684 0)
(-0.362118 -0.305507 0)
(0.023925 -0.548466 0)
(0.0992508 -0.0766802 0)
(0.103313 0.714354 0)
(-0.105647 0.391568 0)
(-0.272783 -0.0618231 0)
(-0.542989 -0.023609 0)
(-0.777322 0.537021 0)
(-1.08043 1.19314 0)
(-1.36645 1.45154 0)
(-1.25931 1.02684 0)
(-0.795383 0.18272 0)
(-0.569572 -0.271111 0)
(-0.559219 -0.370723 0)
(-0.609998 -0.181544 0)
(-0.782058 -0.0598762 0)
(-0.95554 0.00496663 0)
(-1.10579 0.187329 0)
(-1.25411 0.529146 0)
(-1.30897 0.929378 0)
(-1.09688 1.02115 0)
(-0.523735 0.367511 0)
(-0.337782 -0.0982925 0)
(-0.528893 -0.059188 0)
(-0.0318214 -0.57094 0)
(-0.0666821 0.0371025 0)
(-0.0787506 0.776693 0)
(-0.152935 0.550607 0)
(-0.298948 0.163625 0)
(-0.556593 0.23108 0)
(-0.778533 0.800145 0)
(-1.05438 1.4353 0)
(-1.24183 1.47768 0)
(-1.03833 0.702341 0)
(-0.829667 0.0284703 0)
(-0.837334 -0.316647 0)
(-0.929148 -0.246166 0)
(-1.00619 0.0278868 0)
(-1.13025 0.0620876 0)
(-1.18727 0.0963137 0)
(-1.20768 0.258679 0)
(-1.17794 0.524186 0)
(-1.02992 0.725465 0)
(-0.68612 0.610477 0)
(-0.385644 0.23895 0)
(-0.269651 -0.0596481 0)
(-0.346761 0.178186 0)
(-0.0799115 -0.444904 0)
(-0.223606 0.171563 0)
(-0.221037 0.741242 0)
(-0.172204 0.609568 0)
(-0.270263 0.350774 0)
(-0.47358 0.455235 0)
(-0.622545 0.989036 0)
(-0.78149 1.58203 0)
(-0.956751 1.45722 0)
(-0.926338 0.612337 0)
(-0.920729 0.0120852 0)
(-1.05191 -0.234518 0)
(-1.16608 -0.160292 0)
(-1.17479 0.0730864 0)
(-1.18874 0.0894352 0)
(-1.1921 0.0831216 0)
(-1.1022 0.176086 0)
(-0.934988 0.352838 0)
(-0.704359 0.450699 0)
(-0.440667 0.324448 0)
(-0.200219 0.0391982 0)
(-0.0547867 -0.16216 0)
(-0.0956024 0.168247 0)
(-0.0624677 -0.315738 0)
(-0.250718 0.289689 0)
(-0.267744 0.649347 0)
(-0.159333 0.588599 0)
(-0.221847 0.481658 0)
(-0.336978 0.609783 0)
(-0.38143 1.0599 0)
(-0.331798 1.65133 0)
(-0.456176 1.62191 0)
(-0.657635 0.717944 0)
(-0.807444 0.147497 0)
(-0.999768 -0.13599 0)
(-1.11791 -0.152896 0)
(-1.1307 0.0241595 0)
(-1.08171 0.073063 0)
(-1.08964 0.00252569 0)
(-1.01931 -0.00737565 0)
(-0.807918 0.0765836 0)
(-0.472916 0.178135 0)
(-0.196783 0.0962671 0)
(0.0327681 -0.14893 0)
(0.117283 -0.0463564 0)
(0.121605 0.147316 0)
(-0.0446086 -0.220402 0)
(-0.193941 0.40637 0)
(-0.241212 0.580009 0)
(-0.146255 0.555326 0)
(-0.180476 0.550051 0)
(-0.185555 0.675995 0)
(-0.138459 0.997865 0)
(0.0710208 1.53442 0)
(0.210721 1.77119 0)
(-0.0132598 1.11488 0)
(-0.296841 0.490965 0)
(-0.546721 0.118433 0)
(-0.775187 -0.0375573 0)
(-0.893711 -0.0262679 0)
(-0.880051 0.0733569 0)
(-0.916325 0.0643717 0)
(-0.953563 -0.0811243 0)
(-0.887669 -0.174576 0)
(-0.71725 -0.208796 0)
(-0.499409 -0.24634 0)
(-0.381792 -0.306247 0)
(-0.223103 -0.285886 0)
(0.113455 -0.0080574 0)
(-0.0531425 -0.131392 0)
(-0.127971 0.523199 0)
(-0.203493 0.56807 0)
(-0.157036 0.544004 0)
(-0.143465 0.557842 0)
(-0.0445974 0.634389 0)
(0.0905959 0.864323 0)
(0.344065 1.25007 0)
(0.695706 1.59832 0)
(0.764162 1.38094 0)
(0.567362 0.859298 0)
(0.225549 0.414578 0)
(-0.198145 0.179308 0)
(-0.44763 0.0739586 0)
(-0.607685 0.0254762 0)
(-0.586705 0.0498143 0)
(-0.550967 -0.0204147 0)
(-0.545346 -0.152016 0)
(-0.517708 -0.249957 0)
(-0.449372 -0.322069 0)
(-0.360713 -0.385725 0)
(-0.230206 -0.390731 0)
(-0.105345 -0.243492 0)
(-0.0663995 -0.0528626 0)
(-0.086795 0.615338 0)
(-0.177515 0.595852 0)
(-0.131043 0.525994 0)
(-0.0311058 0.427226 0)
(0.0820669 0.445688 0)
(0.224231 0.618002 0)
(0.474939 0.898847 0)
(0.86357 1.20248 0)
(1.17261 1.27602 0)
(1.24021 1.08577 0)
(1.09692 0.81622 0)
(0.792556 0.582515 0)
(0.398922 0.371453 0)
(0.0646671 0.202274 0)
(-0.109347 0.052855 0)
(-0.216541 -0.10974 0)
(-0.168492 -0.181953 0)
(-0.13876 -0.247645 0)
(-0.0661839 -0.351654 0)
(-0.0131802 -0.4657 0)
(0.134889 -0.540173 0)
(0.128754 -0.336492 0)
(-0.0771154 0.0112144 0)
(-0.0592261 0.673784 0)
(-0.132415 0.606459 0)
(-0.0156405 0.393814 0)
(0.102106 0.302891 0)
(0.1441 0.353611 0)
(0.218975 0.449886 0)
(0.414321 0.577205 0)
(0.749179 0.770381 0)
(1.16024 0.944474 0)
(1.44988 0.994775 0)
(1.54731 0.947025 0)
(1.47662 0.847415 0)
(1.30369 0.710686 0)
(1.09778 0.530005 0)
(0.890499 0.292772 0)
(0.712012 0.0283353 0)
(0.646669 -0.194743 0)
(0.534465 -0.396429 0)
(0.52453 -0.471047 0)
(0.541013 -0.551475 0)
(0.520623 -0.607999 0)
(0.562113 -0.525633 0)
(-0.0901747 0.0702634 0)
(-0.0289343 0.690868 0)
(-0.0363307 0.589325 0)
(0.0729615 0.256302 0)
(0.0963106 0.261531 0)
(0.123667 0.361815 0)
(0.186621 0.38107 0)
(0.305411 0.351074 0)
(0.53934 0.414696 0)
(0.876089 0.544839 0)
(1.24323 0.702052 0)
(1.53138 0.810756 0)
(1.6737 0.847029 0)
(1.69771 0.801102 0)
(1.65716 0.674796 0)
(1.58016 0.477334 0)
(1.47195 0.229145 0)
(1.35168 -0.00471608 0)
(1.22569 -0.188622 0)
(1.09549 -0.344103 0)
(1.02041 -0.490978 0)
(0.966474 -0.571751 0)
(0.960493 -0.601216 0)
(-0.100615 0.132596 0)
(-0.0259552 0.62644 0)
(0.0554198 0.528101 0)
(0.0407811 0.252105 0)
(0.0136429 0.306169 0)
(0.0376042 0.314956 0)
(0.140624 0.283423 0)
(0.264472 0.236816 0)
(0.408226 0.207172 0)
(0.602781 0.234865 0)
(0.899003 0.366797 0)
(1.20869 0.536908 0)
(1.46763 0.668155 0)
(1.63646 0.705527 0)
(1.72039 0.642161 0)
(1.74032 0.496366 0)
(1.70636 0.302678 0)
(1.62631 0.100361 0)
(1.51488 -0.0856198 0)
(1.39205 -0.240885 0)
(1.27698 -0.364827 0)
(1.16928 -0.466525 0)
(1.08675 -0.550301 0)
(-0.099844 0.197662 0)
(-0.0523342 0.538516 0)
(0.0082404 0.488506 0)
(-0.0875469 0.328544 0)
(-0.134845 0.303996 0)
(-0.116269 0.226487 0)
(-0.0390976 0.15522 0)
(0.066507 0.0937732 0)
(0.198509 0.0499818 0)
(0.354213 0.035357 0)
(0.565578 0.110704 0)
(0.824472 0.265622 0)
(1.09567 0.426342 0)
(1.32883 0.522497 0)
(1.49633 0.53049 0)
(1.5871 0.454643 0)
(1.60629 0.323776 0)
(1.56079 0.170152 0)
(1.46448 0.016961 0)
(1.33871 -0.122627 0)
(1.19997 -0.252173 0)
(1.06102 -0.377151 0)
(0.941956 -0.493239 0)
(-0.101663 0.280992 0)
(-0.100091 0.543344 0)
(-0.138809 0.516298 0)
(-0.234798 0.410601 0)
(-0.276589 0.310511 0)
(-0.267959 0.190066 0)
(-0.220635 0.080784 0)
(-0.142761 -0.0136227 0)
(-0.0392308 -0.0840804 0)
(0.0822752 -0.11956 0)
(0.231579 -0.099508 0)
(0.443315 0.00714159 0)
(0.694869 0.161678 0)
(0.947823 0.297065 0)
(1.16012 0.372527 0)
(1.3053 0.376264 0)
(1.37241 0.321919 0)
(1.36341 0.231232 0)
(1.29191 0.123004 0)
(1.17754 0.00877791 0)
(1.04044 -0.108533 0)
(0.895861 -0.231988 0)
(0.760118 -0.365101 0)
(-0.113211 0.390348 0)
(-0.156845 0.618983 0)
(-0.258718 0.587278 0)
(-0.342676 0.480663 0)
(-0.385267 0.329735 0)
(-0.392157 0.173006 0)
(-0.367173 0.0282949 0)
(-0.310096 -0.0941942 0)
(-0.222884 -0.185361 0)
(-0.112283 -0.239563 0)
(0.0142694 -0.248156 0)
(0.164243 -0.205855 0)
(0.358021 -0.0951304 0)
(0.585314 0.0474898 0)
(0.80852 0.168987 0)
(0.986663 0.244153 0)
(1.09505 0.27219 0)
(1.12486 0.256825 0)
(1.08476 0.206026 0)
(0.992751 0.129178 0)
(0.867597 0.0318041 0)
(0.72341 -0.0868218 0)
(0.570454 -0.22655 0)
(-0.121733 0.533948 0)
(-0.196763 0.716583 0)
(-0.315465 0.677458 0)
(-0.403527 0.548283 0)
(-0.46375 0.364187 0)
(-0.501192 0.176345 0)
(-0.508731 -0.00380823 0)
(-0.479403 -0.162369 0)
(-0.410447 -0.28515 0)
(-0.307448 -0.360132 0)
(-0.181608 -0.385236 0)
(-0.0427822 -0.365517 0)
(0.117532 -0.29375 0)
(0.301206 -0.171727 0)
(0.487536 -0.0363382 0)
(0.659192 0.0874555 0)
(0.784481 0.183908 0)
(0.841798 0.241884 0)
(0.833097 0.254526 0)
(0.770553 0.223902 0)
(0.669157 0.156897 0)
(0.539438 0.059289 0)
(0.379231 -0.0613704 0)
(-0.115317 0.69414 0)
(-0.198158 0.818108 0)
(-0.317657 0.781308 0)
(-0.41815 0.630802 0)
(-0.50261 0.42673 0)
(-0.57428 0.214633 0)
(-0.618143 0.000679581 0)
(-0.622831 -0.200004 0)
(-0.579492 -0.364292 0)
(-0.493966 -0.469074 0)
(-0.384358 -0.510902 0)
(-0.266216 -0.503688 0)
(-0.141541 -0.44974 0)
(0.0035418 -0.341153 0)
(0.153652 -0.200248 0)
(0.303627 -0.0510633 0)
(0.429979 0.089042 0)
(0.50473 0.20144 0)
(0.528278 0.26838 0)
(0.506757 0.282566 0)
(0.448265 0.249433 0)
(0.359225 0.183306 0)
(0.227563 0.103329 0)
(-0.0951236 0.839346 0)
(-0.164504 0.914026 0)
(-0.273807 0.892013 0)
(-0.380109 0.731043 0)
(-0.481369 0.516241 0)
(-0.578711 0.287287 0)
(-0.655874 0.0416636 0)
(-0.696571 -0.206402 0)
(-0.68669 -0.419358 0)
(-0.629009 -0.557971 0)
(-0.541025 -0.612541 0)
(-0.44504 -0.606083 0)
(-0.356214 -0.554223 0)
(-0.267031 -0.455425 0)
(-0.164543 -0.320085 0)
(-0.0496844 -0.163802 0)
(0.0708694 0.00227802 0)
(0.156372 0.148563 0)
(0.214084 0.248993 0)
(0.242745 0.293949 0)
(0.243647 0.29058 0)
(0.219638 0.257288 0)
(0.164702 0.223695 0)
(-0.0695235 0.950185 0)
(-0.111984 0.99424 0)
(-0.190363 0.991076 0)
(-0.280995 0.83585 0)
(-0.3767 0.618139 0)
(-0.476345 0.380962 0)
(-0.569633 0.111007 0)
(-0.639832 -0.18179 0)
(-0.672842 -0.445676 0)
(-0.664786 -0.623948 0)
(-0.613909 -0.697455 0)
(-0.537014 -0.687112 0)
(-0.467377 -0.623309 0)
(-0.417343 -0.519852 0)
(-0.369089 -0.389508 0)
(-0.307798 -0.24079 0)
(-0.221159 -0.0781981 0)
(-0.132355 0.0747671 0)
(-0.0422858 0.188565 0)
(0.0349703 0.252881 0)
(0.0963317 0.270037 0)
(0.146102 0.260523 0)
(0.195665 0.255897 0)
(-0.03999 1.02229 0)
(-0.0493459 1.04167 0)
(-0.0814421 1.05074 0)
(-0.124249 0.921753 0)
(-0.185351 0.704737 0)
(-0.251049 0.471264 0)
(-0.323694 0.200077 0)
(-0.404297 -0.108983 0)
(-0.481095 -0.410414 0)
(-0.540386 -0.637079 0)
(-0.560124 -0.754617 0)
(-0.525949 -0.756437 0)
(-0.467595 -0.678209 0)
(-0.430786 -0.558106 0)
(-0.407519 -0.424284 0)
(-0.385255 -0.285845 0)
(-0.340601 -0.146799 0)
(-0.265587 -0.0142675 0)
(-0.168698 0.0926861 0)
(-0.0647449 0.163118 0)
(0.0392929 0.188639 0)
(0.139441 0.189512 0)
(0.255062 0.190337 0)
(0.00145756 1.04236 0)
(0.0211107 1.05536 0)
(0.0302422 1.05023 0)
(0.061818 0.956443 0)
(0.0645797 0.755361 0)
(0.0523043 0.529165 0)
(0.0280997 0.280739 0)
(-0.0156549 0.00673451 0)
(-0.110859 -0.293035 0)
(-0.22656 -0.555016 0)
(-0.338355 -0.732387 0)
(-0.395338 -0.790132 0)
(-0.380079 -0.725178 0)
(-0.348382 -0.593087 0)
(-0.32436 -0.451932 0)
(-0.303039 -0.318567 0)
(-0.274429 -0.20708 0)
(-0.222548 -0.110788 0)
(-0.145844 -0.0261986 0)
(-0.0500018 0.0404733 0)
(0.0573768 0.0751117 0)
(0.160736 0.0798078 0)
(0.273639 0.0697725 0)
(0.0478957 0.98729 0)
(0.0926258 1.05209 0)
(0.13383 0.994876 0)
(0.237774 0.902578 0)
(0.328852 0.737586 0)
(0.389481 0.540103 0)
(0.415822 0.3234 0)
(0.403388 0.0883533 0)
(0.340872 -0.147275 0)
(0.213965 -0.38012 0)
(0.0340038 -0.584711 0)
(-0.13514 -0.724564 0)
(-0.219511 -0.730397 0)
(-0.223427 -0.617855 0)
(-0.210236 -0.477783 0)
(-0.190026 -0.345511 0)
(-0.160052 -0.238046 0)
(-0.122678 -0.16095 0)
(-0.0701431 -0.100725 0)
(-0.00169908 -0.0517883 0)
(0.0787896 -0.021749 0)
(0.162011 -0.0205354 0)
(0.250285 -0.0447522 0)
(0.068076 0.876254 0)
(0.137389 1.01589 0)
(0.203256 0.895912 0)
(0.350911 0.760396 0)
(0.514034 0.615586 0)
(0.649956 0.457332 0)
(0.737801 0.290275 0)
(0.770419 0.120409 0)
(0.736512 -0.0504254 0)
(0.627779 -0.206907 0)
(0.439629 -0.360317 0)
(0.204869 -0.531989 0)
(0.0101472 -0.642715 0)
(-0.0705537 -0.604353 0)
(-0.084471 -0.483036 0)
(-0.0877176 -0.363933 0)
(-0.0715846 -0.263103 0)
(-0.0470108 -0.191712 0)
(-0.0153652 -0.146805 0)
(0.0298318 -0.113189 0)
(0.0872652 -0.0928703 0)
(0.149107 -0.094944 0)
(0.213668 -0.123704 0)
(0.0524877 0.769421 0)
(0.13487 0.9419 0)
(0.202543 0.763532 0)
(0.328196 0.575395 0)
(0.479991 0.431784 0)
(0.632094 0.312595 0)
(0.764028 0.198813 0)
(0.85222 0.0850782 0)
(0.881654 -0.00756431 0)
(0.843442 -0.0816464 0)
(0.7159 -0.160293 0)
(0.499965 -0.292234 0)
(0.263196 -0.454841 0)
(0.0988909 -0.528463 0)
(0.0430937 -0.460153 0)
(0.0190245 -0.355748 0)
(0.00869419 -0.271904 0)
(0.014843 -0.20925 0)
(0.029466 -0.174236 0)
(0.0539333 -0.152861 0)
(0.0889072 -0.141667 0)
(0.128812 -0.147378 0)
(0.167383 -0.176282 0)
(0.0551802 0.67858 0)
(0.134754 0.873504 0)
(0.194383 0.669844 0)
(0.270764 0.438131 0)
(0.358107 0.267084 0)
(0.45406 0.142977 0)
(0.560191 0.0504247 0)
(0.67224 -0.0163048 0)
(0.758082 -0.0572963 0)
(0.79853 -0.0611463 0)
(0.769967 -0.0520161 0)
(0.647888 -0.103144 0)
(0.453833 -0.243717 0)
(0.264077 -0.389068 0)
(0.157299 -0.406854 0)
(0.115875 -0.327615 0)
(0.0872641 -0.255445 0)
(0.0715255 -0.208161 0)
(0.0694485 -0.183431 0)
(0.0760207 -0.172392 0)
(0.0910692 -0.168599 0)
(0.111434 -0.175478 0)
(0.129457 -0.198912 0)
(0.0930728 0.553137 0)
(0.188768 0.808267 0)
(0.255622 0.647513 0)
(0.313526 0.407763 0)
(0.381452 0.214059 0)
(0.470955 0.0669946 0)
(0.584588 -0.0498552 0)
(0.692902 -0.115707 0)
(0.766873 -0.116002 0)
(0.793705 -0.0749402 0)
(0.776257 -0.0131739 0)
(0.698384 0.00777088 0)
(0.556413 -0.0742652 0)
(0.388998 -0.232502 0)
(0.257874 -0.318339 0)
(0.189845 -0.283675 0)
(0.15139 -0.223505 0)
(0.122098 -0.188281 0)
(0.10469 -0.175574 0)
(0.0964006 -0.174108 0)
(0.0950118 -0.177223 0)
(0.0992264 -0.186154 0)
(0.102892 -0.204961 0)
(0.078146 0.393787 0)
(0.21821 0.690948 0)
(0.320193 0.597076 0)
(0.403481 0.374719 0)
(0.497113 0.156896 0)
(0.613002 -0.0327776 0)
(0.746452 -0.167175 0)
(0.884798 -0.204367 0)
(0.980022 -0.142778 0)
(0.978953 -0.0400568 0)
(0.892431 0.0568886 0)
(0.766793 0.115277 0)
(0.619376 0.0707364 0)
(0.46687 -0.0838798 0)
(0.332561 -0.209262 0)
(0.241904 -0.21928 0)
(0.189576 -0.182077 0)
(0.15409 -0.158449 0)
(0.128371 -0.15525 0)
(0.110141 -0.162075 0)
(0.0975254 -0.171437 0)
(0.0898968 -0.183613 0)
(0.0831878 -0.200729 0)
(-0.0165724 0.297422 0)
(0.138765 0.531893 0)
(0.279037 0.452126 0)
(0.410428 0.242545 0)
(0.534961 0.0157256 0)
(0.641476 -0.182 0)
(0.756627 -0.324971 0)
(0.911804 -0.347862 0)
(1.05239 -0.209131 0)
(1.07759 0.0203583 0)
(0.967525 0.200192 0)
(0.804538 0.267143 0)
(0.643348 0.21807 0)
(0.498269 0.0558363 0)
(0.368294 -0.0937382 0)
(0.267537 -0.138251 0)
(0.202588 -0.130051 0)
(0.16154 -0.124107 0)
(0.133152 -0.130165 0)
(0.111345 -0.14321 0)
(0.0940072 -0.157408 0)
(0.0805479 -0.172564 0)
(0.0681936 -0.189406 0)
(-0.0560789 0.292282 0)
(0.0560109 0.372241 0)
(0.22138 0.266421 0)
(0.383915 0.0922483 0)
(0.50063 -0.0857884 0)
(0.581133 -0.273057 0)
(0.670584 -0.459942 0)
(0.835544 -0.506249 0)
(1.0469 -0.297485 0)
(1.12448 0.0407289 0)
(0.993791 0.315117 0)
(0.778514 0.423978 0)
(0.605321 0.377699 0)
(0.476138 0.202054 0)
(0.361124 0.026283 0)
(0.260864 -0.048887 0)
(0.1911 -0.0709018 0)
(0.147505 -0.0869484 0)
(0.119218 -0.104601 0)
(0.0983541 -0.123506 0)
(0.08169 -0.141478 0)
(0.0679949 -0.158825 0)
(0.0550134 -0.175739 0)
(-0.0122278 0.28622 0)
(0.0794285 0.238706 0)
(0.210782 0.108193 0)
(0.319063 -0.0188752 0)
(0.39548 -0.164739 0)
(0.469464 -0.35364 0)
(0.543922 -0.591066 0)
(0.655356 -0.73541 0)
(0.940635 -0.442884 0)
(1.09512 0.160565 0)
(0.940594 0.599725 0)
(0.670872 0.646127 0)
(0.48116 0.48911 0)
(0.374825 0.286194 0)
(0.289465 0.116943 0)