/*--------------------------------*- C++ -*----------------------------------*\
| =========                 |                                                 |
| \\      /  F ield         | OpenFOAM: The Open Source CFD Toolbox           |
|  \\    /   O peration     | Version:  2.3.0                                 |
|   \\  /    A nd           | Web:      www.OpenFOAM.org                      |
|    \\/     M anipulation  |                                                 |
\*---------------------------------------------------------------------------*/
FoamFile
{
    version     2.0;
    format      ascii;
    class       volScalarField;
    location    "8e-06";
    object      alpha.fuel;
}
// * * * * * * * * * * * * * * * * * * * * * * * * * * * * * * * * * * * * * //

dimensions      [0 0 0 0 0 0 0];

internalField   nonuniform List<scalar> 
7500
(
1
1
1
1
1
1
1
1
1
1
1
1
1
1
1
1
1
1
1
1
1
1
1
1
1
1
1
1
1
1
1
1
1
1
1
1
1
1
1
1
1
1
1
1
1
1
1
1
1
1
1
1
1
1
1
1
1
1
1
1
1
1
1
1
1
1
1
1
1
1
1
1
1
1
0.99326362
1
1
1
1
1
1
1
1
1
1
1
1
1
1
1
1
1
1
1
1
1
1
1
1
1
1
1
1
1
1
1
1
1
1
1
1
1
1
1
1
1
1
1
1
1
1
1
1
1
1
1
1
1
1
1
1
1
1
1
1
1
1
1
1
1
1
1
1
1
1
1
1
1
1
0.99549111
1
1
1
1
1
1
1
1
1
1
1
1
1
1
1
1
1
1
1
1
1
1
1
1
1
1
1
1
1
1
1
1
1
1
1
1
1
1
1
1
1
1
1
1
1
1
1
1
1
1
1
1
1
1
1
1
1
1
1
1
1
1
1
1
1
1
1
1
1
1
1
1
1
1
0.99739763
1
1
1
1
1
1
1
1
1
1
1
1
1
1
1
1
1
1
1
1
1
1
1
1
1
1
1
1
1
1
1
1
1
1
1
1
1
1
1
1
1
1
1
1
1
1
1
1
1
1
1
1
1
1
1
1
1
1
1
1
1
1
1
1
1
1
1
1
1
0.99999999
0.99999999
0.99999999
0.99999999
1
0.9984416
1
1
1
1
1
1
1
1
1
1
1
1
1
1
1
1
1
1
1
1
1
1
1
1
1
1
1
1
1
1
1
1
1
1
1
1
1
1
1
1
1
1
1
1
1
1
1
1
1
1
1
1
1
1
1
1
1
1
1
1
1
1
1
1
1
1
1
1
0.99999999
0.99999999
0.99999999
0.99999999
0.99999999
1
0.99885744
1
1
1
1
1
1
1
1
1
1
1
1
1
1
1
1
1
1
1
1
1
1
1
1
1
1
1
1
1
1
1
1
1
1
1
1
1
1
1
1
1
1
1
1
1
1
1
1
1
1
1
1
1
1
1
1
1
1
1
1
1
1
1
1
1
1
1
1
0.99999999
0.99999999
0.99999999
0.99999998
0.99999998
1
0.99915789
1
1
1
1
1
1
1
1
1
1
1
1
1
1
1
1
1
1
1
1
1
1
1
1
1
1
1
1
1
1
1
1
1
1
1
1
1
1
1
1
1
1
1
1
1
1
1
1
1
1
1
1
1
1
1
1
1
1
1
1
1
1
1
1
1
1
1
1
1
1
1
0.99999993
0.99999994
1
0.99950062
1
1
1
1
1
1
1
1
1
1
1
1
1
1
1
1
1
1
1
1
1
1
1
1
1
1
1
1
1
1
1
1
1
1
1
1
1
1
1
1
1
1
1
1
1
1
1
1
1
1
1
1
1
1
1
1
1
1
1
1
1
1
1
1
1
1
1
1
1
1
1
1
1
1
1
1
1
1
1
1
1
1
1
1
1
1
1
1
1
1
1
1
1
1
1
1
1
1
1
1
1
1
1
1
1
1
1
1
1
1
1
1
1
1
1
1
1
1
1
1
1
1
1
1
1
1
1
1
1
1
1
1
1
1
1
1
1
1
1
1
1
1
1
1
1
1
1
0.99445281
0.95995846
0.96357249
1
1
1
1
1
1
1
1
1
1
1
1
1
1
1
1
1
1
1
1
1
1
1
1
1
1
1
1
1
1
1
1
1
1
1
1
1
1
1
1
1
1
1
1
1
1
1
1
1
1
1
1
1
1
1
1
1
1
1
1
1
1
1
0.98651642
0.98361748
0.99368011
0.99983305
0.99549276
0.95863371
0.86958852
0.76562239
0.58497192
0.35182072
0.082362781
0.1396095
1
1
1
1
1
1
1
1
1
1
1
1
1
1
1
1
1
1
1
1
1
1
1
1
1
1
1
1
1
1
1
1
1
1
1
1
1
1
1
1
1
1
1
1
1
1
1
1
1
1
1
1
1
1
0.99339092
0.95385045
0.86853755
0.807251
0.77015565
0.70971762
0.68496501
0.65223377
0.48358078
0.21385441
0.17468576
0.25238193
0.35659364
0.33887584
0.13527773
2.9820609e-09
2.2858531e-09
2.2858531e-09
2.7583579e-09
2.2858542e-09
0.0083594815
1
1
1
1
1
1
1
1
1
1
1
1
1
1
1
1
1
1
1
1
1
1
1
1
1
1
1
1
1
1
1
1
1
1
1
1
1
1
1
1
1
1
0.99345275
0.97338264
0.93033432
0.88083445
0.81775493
0.7358262
0.63014612
0.55292699
0.49731383
0.41766809
0.37969145
0.3650924
0.30499254
0.12890135
5.8363223e-05
2.2858524e-09
2.2858524e-09
2.2858524e-09
2.2858523e-09
2.2858523e-09
2.2858523e-09
2.2858523e-09
2.2858523e-09
2.721874e-09
2.2858526e-09
2.2858526e-09
2.2858526e-09
3.4757181e-09
2.6308256e-09
2.7268879e-09
4.3749579e-09
2.2858542e-09
0.01159951
1
1
1
1
1
1
1
1
1
1
1
1
1
1
1
1
1
1
1
1
1
1
1
1
1
1
1
1
1
1
1
1
1
1
0.98747444
0.96249568
0.91849156
0.81898411
0.70051428
0.60510469
0.51897217
0.39328233
0.27181479
0.15788317
0.047752459
3.3139316e-09
2.7641548e-09
2.7641548e-09
2.7641548e-09
2.7641548e-09
2.7641548e-09
2.7641548e-09
2.7641548e-09
2.7641548e-09
2.7641548e-09
2.7641549e-09
3.1055634e-09
2.9619321e-09
3.1940085e-09
4.037714e-09
4.3622048e-09
4.4926265e-09
3.9741083e-09
3.8964762e-09
3.8327471e-09
3.3458633e-09
2.3051241e-09
2.2859362e-09
6.152569e-09
3.9233528e-09
2.7568544e-07
7.7741237e-07
1.4460328e-07
2.2858643e-09
0.012724487
1
1
1
1
1
1
1
1
1
1
1
1
1
1
1
1
1
1
1
1
1
1
1
1
1
1
1
1
0.97871191
0.92733803
0.80263863
0.64109429
0.49888463
0.35818667
0.22278045
0.12961607
0.012139034
3.7839343e-09
3.6297907e-09
3.6297907e-09
3.6297907e-09
3.6297907e-09
3.6297907e-09
3.6297907e-09
3.6297907e-09
3.6507012e-09
3.7759309e-09
4.6760801e-09
5.240452e-09
5.1396065e-09
5.2945299e-09
5.8688003e-09
5.838615e-09
6.3383662e-09
6.9649497e-09
7.3158785e-09
7.3703894e-09
7.0835605e-09
6.850296e-09
6.3472535e-09
6.3294509e-09
6.9800848e-09
3.1299793e-09
2.7457195e-09
2.3726542e-09
2.335024e-09
1.8912069e-07
4.8461016e-07
6.2651673e-09
0.00011792104
0.00010123076
2.225279e-06
2.586653e-09
2.2858531e-09
0.0040395715
1
1
1
1
1
1
1
1
1
1
1
1
1
1
1
1
1
1
1
1
1
1
1
0.98178247
0.91199812
0.76138286
0.58766599
0.37013717
0.1868717
0.015990182
3.8124514e-09
3.6297712e-09
3.6297712e-09
3.6297713e-09
3.6297713e-09
3.6297714e-09
3.6297717e-09
3.7949331e-09
4.2053868e-09
5.0049023e-09
6.8848956e-09
7.1089761e-09
6.6242317e-09
4.1280251e-09
4.233565e-09
4.1191031e-09
4.7094021e-09
6.3183121e-09
7.1364739e-09
7.3072954e-09
7.4635309e-09
7.6441276e-09
7.7102021e-09
7.5583701e-09
6.6985507e-09
7.3171406e-09
7.5872067e-09
7.0408448e-09
6.315439e-09
5.3854969e-09
3.5030314e-09
1.501497e-08
9.6031451e-08
2.2029667e-09
1.8627571e-09
8.1768523e-07
7.4709247e-07
1.8807008e-09
7.6302852e-05
0.00021000188
7.3584383e-05
2.4734981e-09
2.0406496e-09
0.0023604267
0.00096509274
1
1
1
1
1
1
1
1
1
1
1
1
1
1
1
1
1
1
1
0.96206599
0.84089802
0.63084369
0.40390694
0.2165803
0.0043276989
3.7952069e-09
3.7402289e-09
3.7402289e-09
3.740229e-09
3.7402295e-09
4.0238227e-09
4.0416829e-09
5.1051169e-09
1.3746811e-08
1.6513857e-08
1.4100008e-08
1.0919405e-08
4.3555308e-09
4.234878e-09
6.8721433e-08
1.8729109e-08
7.6170963e-09
7.1431089e-09
0.0038584923
0.0091440454
0.0038755911
5.3118734e-09
6.9368331e-09
7.7597725e-09
7.899687e-09
7.7150881e-09
6.3484866e-09
5.4957639e-09
5.4962675e-09
5.0785411e-09
6.0291195e-09
6.8448724e-09
6.3702152e-09
5.6221135e-09
4.9353987e-09
2.6972302e-09
2.4188749e-09
2.972804e-07
2.6763621e-06
6.5242168e-07
1.7424677e-08
1.6853341e-09
1.6636733e-09
0.00073833385
8.4501074e-05
2.2207487e-09
2.0592039e-09
2.0297647e-09
0.00090855706
0.0016104805
1
1
1
1
1
1
1
1
1
1
1
1
1
1
1
1
0.92367247
0.723403
0.45152633
0.14825744
4.8869574e-09
3.9406696e-09
3.9406696e-09
3.9406696e-09
3.9406717e-09
4.9787748e-09
6.0383911e-09
1.1590124e-08
1.7004498e-08
1.2784431e-08
8.5690153e-09
4.061922e-09
1.1320588e-07
9.2286997e-08
2.8026165e-08
7.1837829e-09
7.1173469e-09
4.8125466e-06
4.8979115e-09
5.312691e-09
5.2824097e-09
0.00095276477
0.0093019788
0.016876902
0.016876901
0.016876901
0.0076700687
7.4696531e-09
7.9908524e-09
7.6139621e-09
7.0847023e-09
6.6792678e-09
4.5083456e-07
1.8504099e-08
5.4469333e-09
4.7920681e-09
5.5378007e-09
4.8641821e-09
4.1424334e-09
4.4335676e-09
1.6567853e-07
4.1644609e-08
1.392254e-09
2.8834545e-05
1.0499065e-05
1.6574297e-09
0.00012431581
0.0011307122
0.00027915599
2.597717e-09
2.3615139e-09
2.1660783e-09
2.1526728e-09
2.1586796e-09
8.2357335e-06
1
1
1
1
1
1
1
1
1
1
1
1
1
0.93515999
0.72182532
0.41275351
0.052722752
4.8111004e-09
4.3710108e-09
4.3710108e-09
6.1357546e-09
7.5110488e-09
8.6334833e-09
1.0986393e-08
1.5252861e-08
1.1948553e-08
1.6700904e-08
2.6962658e-08
3.2457845e-08
2.398067e-08
1.3488343e-08
4.6676699e-09
5.3036656e-09
5.3438579e-09
6.4691332e-07
8.1802726e-07
7.1300069e-09
1.5776155e-05
0.00024378449
0.0008043313
7.0940854e-05
0.010928732
0.018880628
0.0018501102
0.0015329936
0.0043313058
0.00074361669
0.011867185
0.050554939
0.066151278
0.036176378
0.0025404965
2.974621e-09
2.64438e-09
2.9599692e-09
3.2113802e-09
2.8295644e-09
3.1267112e-09
3.1289348e-09
1.5949462e-05
9.8846403e-06
1.9804703e-09
1.6828911e-09
1.948852e-09
1.7496619e-06
1.6339801e-07
6.9594676e-10
0.0011292378
0.00043859007
2.7298724e-09
2.469249e-09
2.2522643e-09
2.0394585e-09
1.8888762e-09
1.771462e-09
1
1
1
1
1
1
1
1
1
1
1
0.86790145
0.53481639
0.10569967
4.2361478e-09
3.5095972e-09
3.5095977e-09
9.2556554e-09
1.2228055e-08
1.1735028e-08
1.318777e-08
1.391855e-08
1.5030564e-08
2.8141717e-08
2.3103611e-08
1.6856005e-08
1.3569061e-08
2.0352955e-08
3.2064423e-08
2.7451982e-08
1.1915158e-08
1.667118e-06
3.7862686e-06
1.4915983e-07
4.7417814e-09
4.061483e-09
4.5216784e-06
3.2716649e-09
0.0002991747
0.010512499
0.010512498
0.0016803206
0.00079613278
8.7973537e-09
8.6374299e-09
9.0427614e-09
8.8937853e-09
0.069180143
0.093040086
0.094298917
0.094298917
0.030989762
2.4449221e-09
2.0603858e-09
0.007092722
0.0060885091
0.00086340672
0.0013494475
0.00095659493
0.00048711919
1.9527131e-09
1.6068427e-09
0.0086726657
0.0047122534
5.8451836e-05
9.3130162e-10
5.9875702e-10
6.8202632e-10
0.0002771888
0.0017733172
0.0003046436
2.3345831e-09
2.0394309e-09
1.7707765e-09
0.075720385
1
1
1
1
1
1
1
1
1
0.84317164
0.45396585
0.0040244066
3.2374042e-09
3.1965679e-09
4.2825683e-09
5.861168e-08
4.2501081e-08
3.3141489e-08
2.062144e-08
1.251921e-08
1.4989192e-08
1.4617931e-08
1.3928638e-08
6.7826081e-09
6.0250579e-09
5.1697951e-09
5.2011203e-09
7.7195907e-09
2.6657247e-08
2.700919e-08
1.1770271e-08
7.0063274e-06
9.4349655e-06
4.6880753e-06
1.1007608e-07
4.7728435e-09
5.2657532e-09
3.2180767e-07
2.515681e-09
0.0015569488
0.0072023744
0.004907853
6.9479136e-08
5.4729562e-07
1.2967835e-06
8.7862852e-09
0.053983442
1.5555331e-09
1.2184868e-09
0.0047782756
0.013562398
0.014556287
0.0014119468
0.0049738163
0.013371875
0.013303419
0.013371874
0.013371874
0.010540067
1.9514158e-09
1.5818017e-09
1.6194618e-09
0.038501268
0.03899763
0.0064964868
5.4518307e-10
2.6866443e-10
2.6917098e-10
2.9255265e-10
0.0051196588
0.025585095
0.030188751
0.013064735
1.8739143e-09
0.070031993
1
1
1
1
1
1
1
0.89319706
0.51071643
0.0049241216
9.8193596e-09
9.7880823e-09
1.1936065e-05
2.6714333e-05
1.8327141e-05
3.3989099e-06
1.7547127e-08
2.1023762e-08
2.5525926e-06
2.2812252e-05
1.491395e-08
1.4727539e-08
1.3930679e-08
3.5952851e-06
7.2062151e-05
8.2916024e-06
4.1986364e-09
8.8994635e-08
2.2971776e-08
1.9670378e-08
4.3578362e-06
9.5423315e-09
8.9866984e-09
4.6895018e-07
5.0935014e-05
3.8448002e-09
2.5778998e-06
2.0595549e-06
3.2215466e-09
3.1832273e-09
2.7241976e-09
0.00014300531
0.0002154475
7.4827369e-06
1.6327886e-09
0.0016039519
0.0022941137
0.00021277354
1.5751801e-09
1.2186636e-09
1.2185974e-09
1.2185974e-09
0.00013004966
2.5442922e-05
9.7554156e-05
8.1396129e-05
0.0037093183
0.0027840945
1.3597014e-09
1.5232044e-09
1.5267761e-09
0.0050359926
0.0081710296
0.03899763
0.009818666
8.0644184e-10
1.0042969e-06
3.40879e-07
5.20442e-10
2.6429056e-10
0.002841606
0.050708935
0.051799259
0.0083205845
9.3051936e-09
1
1
1
1
1
1
0.74313031
0.1084574
1.4977166e-08
1.5038808e-08
0.0001840214
6.8899953e-05
0.0001682498
0.00016816218
8.1940481e-05
1.7974182e-08
1.6570237e-08
1.5570636e-08
2.4336293e-05
0.00029086891
2.8461675e-08
0.00067934786
0.00016349519
1.660976e-05
0.00013563291
2.2139719e-08
3.5799934e-09
2.9960435e-09
2.8467543e-07
1.1007289e-07
2.7448917e-06
0.0048943599
9.8484953e-09
1.0304897e-08
0.00049990722
0.00062770701
0.00013506588
3.6470632e-09
3.2067618e-09
2.7244668e-09
2.7241947e-09
2.7228449e-09
2.2893363e-09
1.9996285e-09
1.6353135e-09
1.9476296e-06
1.5558243e-09
1.2365629e-09
1.2500783e-09
2.4595465e-07
1.5110339e-09
1.2315949e-09
1.5008211e-09
1.5031344e-09
0.0035606647
0.00093110867
9.7513e-10
7.3465043e-10
1.041894e-09
1.462108e-09
1.8375904e-09
1.522343e-09
1.5038111e-09
0.0090456922
0.015061395
0.0010559887
2.0946472e-09
1.3810472e-07
5.4031266e-09
6.204382e-10
8.757457e-10
8.6315944e-10
8.9786391e-10
0.0061441582
0.00060438509
1
1
1
1
0.97345672
0.49364752
1.3575726e-08
1.1243606e-08
1.417453e-08
0.00021070786
0.0012617323
0.0011555267
5.0195525e-05
5.7048038e-09
5.5889107e-09
0.010233069
0.0042421146
1.4714178e-08
1.4097883e-08
0.0002387287
0.0082417631
0.0027522154
4.1917318e-08
8.3653289e-07
2.0610134e-05
1.7886505e-05
2.6847039e-05
3.5698632e-09
4.3281569e-09
7.557208e-09
5.8442193e-09
0.020388399
0.01605106
0.0016650515
0.00011282013
0.00015620514
1.6747698e-05
0.00053314773
0.0041549311
2.1516388e-05
0.0043425853
0.0052624614
0.0022527451
0.00014847011
1.9374598e-09
1.544648e-09
1.5422048e-09
1.6781779e-09
1.5769845e-09
3.9201612e-07
8.681639e-05
4.4624567e-06
1.2191441e-09
0.015440924
0.0065736678
1.3395943e-09
1.0225085e-09
7.3465185e-10
0.00011823041
0.0027723217
0.0024925385
0.00019940815
1.619465e-09
0.00079572725
0.015061396
0.0042095397
1.8455669e-09
1.6292753e-09
1.5632235e-09
2.6435088e-10
0.0014495291
0.0060309442
0.015736289
0.0029941689
5.3932531e-06
1
1
1
0.95651578
0.27280277
1.7004095e-08
1.5383605e-08
1.4917652e-05
0.0013712498
0.001378103
0.00020006465
5.3249813e-09
5.3249348e-09
5.3243148e-09
0.0137499
0.013796107
0.013760493
0.0034486613
1.3092684e-08
1.2072612e-08
0.0094235419
0.0013519157
4.1420269e-08
1.6843328e-05
2.8648719e-09
3.1207057e-09
0.00051643837
0.00057595879
0.0080424037
7.7118374e-09
0.0089180077
0.019018141
0.019302066
0.011040538
2.2374311e-08
2.1778093e-08
2.126295e-08
0.010569258
0.016356934
0.016877248
0.016877248
0.016838591
0.013062387
0.0021042666
0.0044860086
0.00037752695
0.0017351335
0.0084037139
0.0029889603
2.5154041e-09
0.013452208
1.6402148e-09
1.2195194e-09
0.0047164887
0.0048344503
1.7516605e-09
1.3542849e-09
9.7937659e-10
0.00054546363
0.0030765253
0.0030765249
0.0006465192
1.8808461e-09
1.7072811e-09
0.0018955878
0.0021556908
5.3894681e-05
1.4021733e-09
1.2260013e-09
3.1609158e-10
1.6593975e-10
0.042780857
0.053062881
0.023087387
5.2953724e-09
1
1
0.98772472
0.24865387
1.9001361e-08
1.701298e-08
8.3509242e-05
0.00070819206
9.5288044e-09
0.0005253231
1.345804e-08
1.5795381e-08
1.8194288e-08
5.3243902e-09
0.0051991617
9.2503052e-09
9.258473e-09
0.006683378
1.1285815e-08
1.2228955e-08
0.0033152028
0.0068432055
0.00042962255
4.2095151e-05
2.8648715e-09
2.8648735e-09
2.8809544e-09
0.0057442052
0.012950742
0.011694061
0.020395073
7.2323988e-09
6.9740547e-09
0.0021037495
0.0017937769
0.00022481013
0.00018590557
1.8354924e-09
1.8286118e-09
0.0085225744
0.0049569832
6.0468629e-09
5.8801953e-09
6.0759074e-09
0.012719367
0.012785556
0.012770602
0.012763755
0.012532331
0.00015335918
1.054647e-09
0.028305307
0.030568902
0.031408485
0.13895274
0.26155735
0.26825583
0.046009947
8.2767146e-09
2.4021452e-05
0.0022297387
0.00097270953
2.0070242e-09
1.7132508e-09
1.395372e-09
1.2073394e-09
5.7695509e-06
4.1131693e-08
2.9760425e-09
9.6286403e-10
2.0550719e-10
1.659582e-10
0.02186889
0.023344717
0.0022520135
1
1
0.31527604
2.0824635e-08
1.8301063e-08
1.7250571e-08
0.00079794938
9.0740003e-09
8.8245978e-09
1.0384902e-08
2.6909417e-08
4.4988522e-09
6.7680617e-09
7.2895697e-09
7.9532979e-09
8.9244137e-09
9.7413186e-09
0.0063810844
0.0063168225
0.0013376851
4.6110022e-09
0.011420046
0.0043159759
3.6738827e-09
2.8650441e-09
0.00020400666
4.5763066e-05
6.5147791e-09
6.4629652e-09
0.020622103
0.0071726534
8.1291055e-09
7.8405535e-09
7.1868954e-09
0.00030287069
9.3322679e-05
2.3538333e-05
2.805419e-05
1.0739508e-05
5.3711893e-09
4.9701841e-09
2.0667344e-05
0.00030869509
0.00014951653
0.00127209
0.0043099576
0.00010633938
1.7018759e-09
1.5165747e-09
1.3499335e-09
1.0529887e-09
0.0083814057
0.0070462003
0.00010448252
0.0044636399
0.34078232
0.41619958
0.34708362
0.043957421
4.243943e-09
0.00010287354
2.8659941e-05
2.108314e-06
1.444379e-09
1.2466447e-09
9.7377994e-10
1.1389992e-09
5.9218987e-09
1.1826661e-09
5.5626483e-10
3.3890734e-10
6.2616626e-07
0.00022347455
6.8960964e-05
0.00013777675
1
0.63984589
0.023092459
0.00025312665
2.0108596e-08
2.8385901e-05
4.3925062e-05
1.0643329e-08
1.3658988e-08
2.1415321e-08
7.1007691e-08
4.7804852e-09
4.7730686e-09
1.9406245e-06
6.7767111e-09
0.0014507
0.00018067233
0.00012500335
0.0025458827
0.0025424699
6.6808236e-05
0.010247155
0.00059662459
4.0225203e-09
3.4819725e-09
0.00011524692
9.4210415e-06
0.00042056383
0.00053025852
0.019398664
0.0035555468
0.0015319802
0.0050222111
0.00035944742
1.7108096e-08
1.6795217e-08
6.9780298e-05
7.2227523e-05
7.1401153e-05
4.9093897e-09
4.5836499e-09
3.933317e-09
0.0019291302
0.00046954018
0.00014945663
0.00037602422
1.1671537e-08
0.0082820487
0.0072081054
0.00025312886
1.3773003e-09
1.1335602e-09
6.4515712e-10
3.8170822e-10
1.5771234e-10
1.5777005e-10
0.10736082
0.40454062
0.23667975
0.0018567378
4.3033559e-10
2.1338092e-10
2.1338588e-10
7.7539632e-09
2.0874977e-09
2.6444754e-10
1.7309158e-07
2.6521353e-10
4.3391042e-10
5.3680781e-10
3.89947e-10
1.652743e-10
0.036421142
0.018934493
4.1482171e-11
0.96711186
0.078568557
1.5498317e-08
1.2290241e-08
4.7575739e-06
0.00047075971
0.0028364429
0.00070536225
2.3187343e-09
3.445127e-08
8.5368297e-08
5.177542e-09
5.9595927e-09
1.4753199e-09
0.0094037434
0.0094665263
0.0040991808
3.9059755e-09
3.8015005e-09
2.8212745e-09
2.8218497e-09
2.8218928e-09
2.9443755e-09
2.924421e-09
0.00035528651
5.2187135e-05
0.00014362921
0.0020244519
0.0020237787
3.3585493e-09
0.0068870255
0.0079288322
0.0082163977
0.0021712212
1.7144533e-08
0.00023370171
1.0157942e-05
1.4939751e-09
1.4705647e-09
0.00021384982
0.00017773214
1.5536971e-05
6.8449504e-09
7.3716986e-09
7.3815047e-09
0.0023165926
0.0071627369
0.013255337
0.013255337
0.0044237823
0.00027772877
2.0307593e-05
4.8810174e-05
6.462326e-10
4.641846e-10
5.11615e-05
1.348386e-10
0.086239676
0.22187974
0.046139468
6.7856577e-10
6.1376069e-10
2.4283667e-10
1.1423982e-08
2.0230758e-10
9.863616e-06
2.0814016e-05
0.0065687506
0.045356076
0.0013283934
5.0269085e-10
2.8537773e-10
1.210872e-10
0.032131563
0.020736321
0.31806928
1.1627346e-08
1.603879e-08
6.4708198e-07
0.0011276813
0.0030036749
0.0048672151
0.0038522218
2.316702e-09
6.0200775e-08
2.0898604e-07
5.4592409e-09
4.3060074e-09
1.4753279e-09
0.0063980802
0.0003161127
0.00027823349
7.6357349e-05
2.8222313e-09
4.4110705e-09
6.8232983e-09
2.8735217e-09
0.0054686435
0.010184955
0.0054745129
3.8082283e-05
0.0010431942
2.4823983e-09
2.4318383e-09
2.4315747e-09
9.8576031e-07
2.4477404e-09
0.0012603728
0.0032425596
0.0024023384
5.4320361e-05
3.0645473e-09
2.6941572e-09
1.4709329e-09
3.4036753e-05
0.00022482456
2.7872446e-05
7.2890595e-09
0.023600955
0.014913396
0.0028223324
0.011933904
0.0064184099
0.0039772763
0.0071639131
0.0012647355
1.1628207e-09
1.2475177e-09
0.019912826
0.013796772
0.00075800222
3.3418369e-10
1.4971053e-10
0.052381404
0.066551518
0.0036995699
4.2467539e-10
2.5039442e-10
5.1314339e-07
1.0512871e-06
4.4338753e-07
1.1240245e-10
0.19460513
0.30648105
0.26919547
0.02952558
2.8321043e-10
1.210872e-10
0.031296592
0.0099641224
0.10172965
7.5023992e-09
0.0002389728
3.2859444e-07
0.00042059151
0.0027591437
0.0030497084
0.0039297313
0.00067712614
2.0003816e-09
3.7262223e-08
2.7356941e-06
4.6143192e-09
2.5855475e-09
4.0687636e-09
4.069804e-09
0.00081209616
0.00098597877
9.684637e-05
4.7457687e-09
3.8590842e-09
3.0040129e-06
0.011124306
0.011124306
0.011124306
0.00034162279
2.7209664e-09
2.4980016e-09
2.6863728e-07
3.9579276e-05
0.00015456419
2.2898164e-06
3.0841505e-09
0.0059713801
0.0011874922
3.5942256e-09
3.0270144e-09
2.5058028e-09
2.2916141e-09
2.0828387e-09
1.7125523e-09
0.0013427059
0.02296111
0.027490419
0.027490419
0.0061332311
1.2560959e-09
9.0964931e-10
9.0964932e-10
0.0017415437
0.00028715664
9.1615353e-10
0.046824152
0.060249861
0.023836302
4.317946e-10
1.3369552e-10
0.00041585069
0.0082441905
0.014304736
0.0010315493
6.3325684e-10
2.5983063e-09
2.3022565e-09
7.3784826e-08
2.8016996e-10
1.1235075e-10
0.1444883
0.30648105
0.30648105
0.056196571
2.7151019e-10
1.2108733e-10
0.0036058257
0.00081485098
1.5025826e-09
1.8418045e-09
0.00031218773
1.311544e-05
2.2454725e-09
2.24548e-09
2.5043814e-09
8.9117612e-05
3.0758047e-06
2.0008924e-09
3.3918056e-09
0.0001604797
0.00016758603
2.6560885e-05
5.3142657e-09
5.0695139e-09
1.5344786e-06
7.2293748e-05
7.145614e-06
5.3694606e-09
4.5181866e-09
9.3654297e-05
0.0077593161
0.001078159
0.0073272975
0.0022726815
9.3164896e-05
3.055636e-09
2.4315051e-09
0.0016059372
0.00013577668
4.1829193e-09
3.0839437e-09
0.0030503789
7.9760528e-05
3.2701398e-09
2.6323711e-09
2.2297269e-09
2.1861994e-09
1.7125542e-09
1.712552e-09
0.0079312453
0.029122991
0.023052547
0.0077505351
0.0024747152
1.5312112e-09
1.1624188e-09
1.2238495e-09
9.4797842e-10
9.126218e-10
9.1265387e-10
0.013700469
0.0029719815
3.7906238e-10
3.4269919e-10
1.3368208e-10
0.022033261
0.0042624972
8.5552956e-09
2.8766737e-05
7.0653553e-06
2.4758898e-09
2.294199e-09
1.6253339e-09
1.4607574e-09
1.3825677e-10
1.9304301e-10
0.16885243
0.11182385
0.0020072241
3.5059953e-10
1.6220565e-10
1.0730558e-10
0.020275466
1.262533e-08
8.0564085e-08
8.1235939e-08
3.7250738e-05
2.2814949e-09
8.6068941e-09
4.4230545e-09
5.8332329e-09
7.3188645e-09
3.9402717e-06
0.0002409564
2.3287067e-08
0.00018583105
0.00018689567
3.2975587e-09
0.00020806323
1.7040189e-08
1.7701619e-08
1.8879744e-08
0.003513433
0.00048536813
4.2102078e-09
4.054623e-09
3.2312595e-09
2.9983395e-09
0.0076579062
0.00033492624
3.0375999e-09
2.4315508e-09
0.00047452675
0.0019259725
4.0201784e-09
3.5286468e-09
4.048409e-09
4.4733864e-09
7.2654997e-06
0.000106672
2.6237448e-09
0.011979036
0.00069335201
2.0783412e-09
6.9585141e-05
0.020773081
3.3350126e-08
3.3009252e-08
0.0022719168
0.0020656141
4.5828067e-05
0.0035068989
0.00014738335
1.3619267e-09
1.253177e-05
7.7168731e-10
5.4079754e-10
5.3712452e-10
3.3436809e-10
1.3382931e-10
1.3802297e-10
0.024058447
0.0006069103
2.6741666e-09
2.4476857e-09
2.7052658e-09
1.7433591e-09
1.7539845e-09
8.1538888e-10
1.1235321e-10
0.036122403
0.053638235
2.549819e-10
5.9986257e-12
4.0631341e-09
1.4757544e-10
6.0689007e-11
0.063549432
8.3121552e-09
5.8189919e-08
1.2481531e-07
3.9043244e-09
7.3966841e-09
8.2371798e-09
1.1563539e-08
1.3220589e-08
7.8776098e-09
2.9802286e-05
0.00079229739
3.4488057e-05
3.0136434e-09
3.0136377e-09
3.0136415e-09
0.00080805442
0.00018782309
0.00092137621
2.0532278e-05
0.0086434879
0.0096859658
6.0209653e-06
3.5584854e-09
0.0024915347
3.8682142e-09
0.00031674307
9.1105808e-05
3.5856789e-09
3.2547559e-09
3.3394962e-09
0.0046701012
0.064328381
0.005041762
4.3132506e-09
4.3507695e-09
4.8856644e-09
0.0002951379
0.0032680657
0.017723699
0.010639386
0.0078145322
0.0017305842
0.00097069502
8.5505579e-05
0.00056320995
1.2656006e-09
1.0364245e-09
0.0040096173
0.0091727664
0.0034128631
1.0878775e-09
8.1389552e-10
5.8731467e-10
1.0089943e-05
4.8808996e-05
6.4478617e-05
3.453859e-10
4.626725e-10
0.018127895
0.015233927
2.712435e-09
2.4496307e-09
1.7145963e-09
1.0319098e-09
1.0568429e-09
1.1196202e-10
0.0001161821
0.00037840879
1.7376135e-10
2.1879021e-11
9.1201332e-12
1.2923477e-10
5.904284e-11
5.9859256e-11
0.015922047
7.9747322e-09
9.9568879e-09
7.8198531e-09
5.7897015e-09
6.1254954e-09
4.4649124e-09
4.464993e-09
4.4653703e-09
6.2638826e-09
6.1796484e-05
0.00079229857
7.3825098e-05
3.7089635e-09
3.096921e-09
3.0235676e-09
2.8347958e-09
5.6889146e-07
0.0037305112
0.0022658457
4.3655085e-09
0.0096856194
0.0094637607
0.0055974872
0.005946144
0.0019463502
0.00081449603
0.00080502186
0.0012793407
0.0032430296
0.0037843603
0.0012111069
0.16043454
0.020393696
0.0035445788
0.00049591469
0.0001065963
2.1002054e-09
0.0084819577
0.0064539799
0.017734966
0.017703859
0.0063632345
5.5843351e-08
5.5979794e-08
0.0041694248
0.00035246636
1.0601702e-09
0.0089854286
0.0062035273
0.0015150908
0.00093515023
0.0032525635
7.7759318e-10
1.0337049e-09
0.0005224963
0.00035457259
0.012628529
0.0063637891
1.4755694e-08
0.00020165751
1.9008982e-05
1.1489708e-09
9.9498956e-10
6.5692005e-10
6.9670923e-10
1.480837e-10
1.331409e-10
2.5883974e-10
1.5702254e-10
3.4145426e-11
7.7668978e-12
3.9049256e-12
3.3089916e-11
1.3789083e-10
2.6096173e-10
8.1110291e-09
9.0318868e-06
4.0380058e-05
3.8261129e-05
2.8286624e-05
0.00013174006
0.00013179453
4.8601953e-05
1.9629035e-06
0.00015557083
0.00013760129
9.472619e-05
1.032718e-06
3.9102469e-09
3.8486262e-09
3.3153307e-06
3.5615029e-09
2.1239989e-05
4.3452688e-09
4.3349204e-09
0.0035255778
0.0096885908
4.0090948e-05
0.00252573
0.0029389526
0.0029389066
2.4658669e-09
0.0033314465
0.0033771361
0.0031682431
0.0011024136
0.16024541
0.081765053
0.0032466507
0.0044121043
0.0015876852
2.0911387e-09
2.1103714e-09
2.3888673e-09
0.0020736591
9.6372551e-10
9.0647288e-10
0.015379033
0.0029223702
1.7582437e-09
1.4200773e-09
1.1660841e-09
0.0032883281
2.4863205e-09
2.4734223e-09
0.0023181151
0.012529739
0.0054917842
0.0064307036
0.00016899264
0.0072007219
0.033568671
0.033568671
0.0035758691
4.0071319e-09
2.6065211e-06
3.9474836e-07
7.205844e-10
5.2228358e-10
5.4762758e-10
5.5034902e-10
4.6395948e-10
3.3927047e-10
1.080516e-10
3.4824549e-11
6.5447879e-12
1.627709e-12
1.4374506e-11
7.3604176e-11
2.1613593e-10
2.6109136e-09
7.7358607e-05
0.00022455903
0.00022235928
0.00022070001
0.00022111817
2.2742643e-05
1.7903569e-07
3.5417739e-06
4.140472e-09
4.1404556e-09
0.00041321761
1.1544855e-07
1.1069146e-06
7.1186623e-06
1.3422806e-08
0.0015469428
0.0010003777
1.883163e-08
5.0082664e-09
5.0390613e-09
0.0027182715
2.014402e-08
1.995996e-08
0.0014461062
0.00078845708
9.4703026e-06
1.4362908e-09
1.3619471e-09
1.2428478e-09
0.030928364
0.022704138
0.08818401
0.0069935246
0.00032446024
1.7361092e-09
1.7082175e-09
0.00029036717
0.0092417161
0.0044309363
1.3682188e-09
9.0647295e-10
0.0057396344
0.049455972
0.050429964
0.0026592443
0.0015672427
0.00038980959
4.1778141e-05
0.00010502574
1.3858328e-09
1.37505e-09
0.010845364
0.010869432
0.0032949708
0.00066214093
0.012151088
0.031151951
0.005575927
3.8817509e-09
3.7609417e-09
3.8724201e-07
8.9457668e-09
4.4380897e-10
4.4586958e-10
5.5659994e-10
7.5491123e-10
4.2175606e-10
1.7760669e-10
4.3471287e-11
5.2546899e-12
6.162833e-13
4.3623354e-12
2.7521685e-11
9.9096279e-11
2.1203409e-10
5.0481018e-10
2.407683e-05
1.4144529e-09
1.4175189e-09
2.6014093e-05
2.2894175e-08
2.1103777e-08
2.2352461e-07
5.195341e-09
4.1405091e-09
0.00039011088
4.9945369e-07
1.0533351e-05
4.16009e-05
1.1684838e-08
0.0027837827
7.6278493e-05
0.002493805
0.0019948382
2.2999658e-07
1.9260618e-08
1.9101244e-08
1.9101244e-08
1.9313837e-08
0.0011837889
0.0021278513
0.00038604611
0.00052541123
6.4550308e-10
0.086413456
1.8238852e-09
0.087145785
0.014211721
2.1182607e-09
1.7984488e-09
1.8589936e-09
0.0089143052
0.012233257
0.012427139
0.0017356488
1.2172326e-09
8.3275721e-10
0.097058684
0.097238891
0.090513219
0.0058027761
2.1524503e-09
1.9400042e-09
1.7693301e-09
1.8724796e-07
1.3812599e-09
0.005248076
0.00075282337
7.7998796e-10
7.4900073e-10
7.4795073e-10
1.0185517e-09
0.00075804178
2.097794e-05
3.6017281e-09
3.167651e-07
2.2855107e-09
3.1564588e-10
3.4772959e-10
5.3770962e-10
1.2295343e-09
4.3574993e-10
1.0768287e-10
1.5001769e-11
1.3461697e-12
1.3667541e-13
1.0296751e-12
7.4190045e-12
3.2893261e-11
2.1394791e-10
2.8917673e-09
2.8927717e-09
3.1665405e-09
2.6678786e-09
2.1522601e-06
2.3419534e-05
4.0305405e-09
4.1225074e-09
3.6731898e-06
4.2593487e-09
4.2609113e-09
1.5889235e-08
1.3389462e-10
1.333074e-10
0.00060768694
0.00094461289
1.1876622e-06
0.0055076613
0.0056633876
6.1906682e-07
0.00058255878
0.0045189735
0.0045387069
0.00019557399
0.00076089576
0.0021108201
0.0020667293
0.0020279404
8.8144551e-05
8.0788794e-10
1.2632855e-09
0.012384144
0.0069151459
1.8554709e-07
2.0885108e-09
0.0010035932
5.4242064e-10
5.1357515e-10
0.012418008
0.010594923
0.00070506929
7.6433099e-10
0.003419516
0.042367688
0.068758213
0.036902464
7.7007882e-06
4.2799051e-05
8.6892678e-06
1.0491803e-05
1.7513897e-05
9.6702683e-10
7.480623e-10
1.136831e-08
2.8174365e-06
7.4801354e-10
7.4795202e-10
5.0412932e-09
6.6459019e-05
1.7511859e-05
3.9452492e-10
2.2468875e-10
2.2374031e-10
2.3936828e-10
3.3789932e-10
9.2820395e-10
2.3227095e-10
3.2316127e-11
3.0536004e-12
2.1655352e-13
2.319922e-14
1.7964147e-13
1.449135e-12
7.9550975e-12
9.6519629e-11
2.656949e-09
5.0352844e-09
3.0235836e-06
1.9410348e-05
6.1916717e-07
1.3956267e-05
3.9814564e-09
2.6849316e-05
0.00021763944
5.1084371e-09
2.1805236e-06
1.9739318e-08
4.8998927e-09
1.9245625e-08
1.6626973e-09
0.00016263175
0.000150708
4.7488623e-06
0.0054731119
0.00050532477
0.0035290534
0.0016169796
0.00072121394
3.4145911e-07
6.2388574e-10
6.5383616e-10
6.5889772e-10
6.5908557e-10
0.0002619996
0.00015392645
0.045912322
0.0034578226
0.0034585675
0.0034549105
0.00053901116
0.0020732091
0.0001536448
5.2484593e-10
0.0067011998
0.010523246
0.002351623
5.5956471e-10
5.6479924e-10
2.5786267e-10
2.5786267e-10
0.0029157399
0.0064222657
0.00037034656
4.2479043e-05
3.5629508e-08
0.00082307341
0.00018116823
9.4753847e-10
7.4805996e-10
0.0079755039
0.010428213
0.0011379261
1.1196939e-09
6.420622e-05
1.2621473e-05
3.3850509e-10
1.6208729e-10
1.4909453e-10
1.480977e-10
1.5031263e-10
3.2715049e-10
6.4619673e-11
5.638426e-12
4.1756149e-13
2.5415985e-14
3.3274367e-15
2.3558269e-14
2.0455381e-13
1.381084e-12
1.0049117e-10
1.736038e-09
2.8905633e-09
5.5721309e-06
0.00013727146
3.8008497e-09
4.0905525e-09
3.0298489e-09
3.2982383e-09
0.00021603403
3.3696459e-05
8.4449896e-09
8.0199341e-09
4.3195688e-09
1.4988792e-08
6.810585e-10
5.4327766e-05
6.2946542e-06
4.4426876e-09
3.7532966e-09
0.0012754257
0.0089797788
1.947828e-06
2.3018252e-09
1.861809e-09
1.220178e-09
8.190716e-05
1.3429323e-05
1.1310555e-09
8.0793121e-05
5.3821527e-10
0.0716774
0.0064473964
0.0053777869
0.0093962743
0.0053808913
6.5658717e-10
4.8357079e-10
4.8356472e-10
0.00080582355
0.0012412173
1.0635814e-09
0.034935021
0.0051074241
4.9638859e-10
3.8164997e-10
2.578623e-10
0.00086195742
0.00022577624
9.1171435e-09
2.7337326e-06
2.8077415e-06
5.463869e-05
1.0233314e-09
8.6780785e-10
0.00063246475
0.0045261629
0.0013817421
8.4951476e-10
6.6595696e-10
9.1315927e-08
7.3894831e-09
1.5090042e-10
1.0608586e-10
9.2303562e-11
5.4395616e-11
5.6604878e-11
1.0065924e-11
6.5874871e-13
4.6942662e-14
2.7897641e-15
4.3406464e-16
2.3615621e-15
2.0963569e-14
1.7176064e-13
2.6162642e-11
1.7810014e-09
1.1306832e-08
1.4120322e-09
0.00013788094
0.0026176234
2.8597996e-09
2.9829418e-09
0.00053469394
7.2753566e-09
0.00088586537
0.00025645445
5.5457835e-09
4.6714732e-09
5.1961788e-09
6.1738797e-08