/*--------------------------------*- C++ -*----------------------------------*\
| =========                 |                                                 |
| \\      /  F ield         | OpenFOAM: The Open Source CFD Toolbox           |
|  \\    /   O peration     | Version:  2.3.0                                 |
|   \\  /    A nd           | Web:      www.OpenFOAM.org                      |
|    \\/     M anipulation  |                                                 |
\*---------------------------------------------------------------------------*/
FoamFile
{
    version     2.0;
    format      ascii;
    class       volScalarField;
    location    "8e-06";
    object      k;
}
// * * * * * * * * * * * * * * * * * * * * * * * * * * * * * * * * * * * * * //

dimensions      [0 2 -2 0 0 0 0];

internalField   nonuniform List<scalar> 
7500
(
9.9999721e-06
1.000558e-05
1.0019404e-05
1.0023189e-05
1.003227e-05
1.0050912e-05
1.0069091e-05
1.0105268e-05
1.0117956e-05
1.016428e-05
1.0243118e-05
1.0324455e-05
1.035143e-05
1.0375342e-05
1.0391147e-05
1.0423807e-05
1.049964e-05
1.0547041e-05
1.0592965e-05
1.0674292e-05
1.0742149e-05
1.0826035e-05
1.0894892e-05
1.0934972e-05
1.1007861e-05
1.1115155e-05
1.1280599e-05
1.1380725e-05
1.1641889e-05
1.180456e-05
1.1931803e-05
1.2118811e-05
1.2397635e-05
1.2524768e-05
1.2768413e-05
1.3185154e-05
1.3626234e-05
1.4063022e-05
1.4455024e-05
1.5034665e-05
1.5727177e-05
1.6478566e-05
1.6836195e-05
1.7507709e-05
1.8475988e-05
1.9643279e-05
2.0957946e-05
2.1578981e-05
2.2469567e-05
2.331876e-05
2.4224365e-05
2.5229321e-05
2.764319e-05
2.9905082e-05
3.192402e-05
3.3727462e-05
3.7346373e-05
4.2997543e-05
4.6881647e-05
4.9075044e-05
5.1973026e-05
5.7903687e-05
7.5569072e-05
0.00010328563
0.00011359224
0.00012709014
0.00014129839
0.00016266153
0.00021100692
0.00027311433
0.00038010486
0.00061216525
0.0013490189
0.0040237227
0.091459624
1.0000554e-05
1.0005508e-05
1.0007298e-05
1.0015185e-05
1.0033525e-05
1.0041622e-05
1.0055605e-05
1.0072972e-05
1.0093317e-05
1.013753e-05
1.0161427e-05
1.0214974e-05
1.0252157e-05
1.029377e-05
1.0361386e-05
1.0394501e-05
1.0442627e-05
1.0495557e-05
1.0536798e-05
1.0585373e-05
1.0642581e-05
1.0707862e-05
1.0820649e-05
1.0886832e-05
1.0941103e-05
1.1062847e-05
1.1194394e-05
1.1367238e-05
1.1496387e-05
1.1560038e-05
1.1708547e-05
1.1832398e-05
1.1995032e-05
1.2320806e-05
1.2504102e-05
1.2822735e-05
1.351594e-05
1.3874209e-05
1.4850412e-05
1.5641914e-05
1.6890268e-05
1.7860171e-05
1.8602751e-05
1.9573742e-05
2.1057831e-05
2.2487877e-05
2.3785421e-05
2.4580809e-05
2.5799497e-05
2.8551936e-05
3.0952891e-05
3.2927696e-05
3.4566482e-05
3.8040348e-05
4.2855616e-05
4.5983231e-05
5.1102524e-05
6.1469123e-05
7.3821522e-05
8.0181683e-05
8.482639e-05
9.2817927e-05
0.0001151077
0.00016684447
0.00020559092
0.00022969886
0.0002465175
0.0002791912
0.00035198125
0.00053022794
0.00067377288
0.00091691318
0.0014054725
0.0029425257
0.065690329
1.0000214e-05
1.0005728e-05
1.001799e-05
1.0028131e-05
1.0043881e-05
1.0066555e-05
1.0088782e-05
1.010964e-05
1.0122557e-05
1.0161764e-05
1.0195887e-05
1.0241033e-05
1.0273951e-05
1.0337487e-05
1.0448259e-05
1.0521573e-05
1.0633507e-05
1.0696587e-05
1.0780204e-05
1.0898214e-05
1.0981029e-05
1.1109597e-05
1.125068e-05
1.1392093e-05
1.1542762e-05
1.1652303e-05
1.1856018e-05
1.201358e-05
1.2177773e-05
1.2313743e-05
1.2586459e-05
1.284473e-05
1.3115654e-05
1.3608927e-05
1.393352e-05
1.4672447e-05
1.6186896e-05
1.731256e-05
2.0450498e-05
2.2705617e-05
2.589097e-05
2.9235034e-05
3.1740016e-05
3.4885541e-05
3.9277065e-05
4.3957748e-05
4.8620744e-05
5.2077101e-05
5.8346235e-05
6.9810003e-05
7.8840829e-05
8.4979683e-05
9.0453378e-05
0.00010033118
0.0001278894
0.00015152706
0.00017314355
0.00020290128
0.00025474421
0.00029704303
0.00031500713
0.00034507857
0.00043448734
0.00066543186
0.0008164654
0.00088758893
0.0009467384
0.0010237072
0.0012156851
0.001967891
0.0029216078
0.0038869016
0.0043644474
0.0053873594
0.046377235
1.000111e-05
1.0010835e-05
1.0018398e-05
1.0025068e-05
1.0044155e-05
1.0071161e-05
1.0095766e-05
1.0114004e-05
1.0165044e-05
1.0268228e-05
1.0309202e-05
1.0336632e-05
1.0377019e-05
1.0411757e-05
1.0495321e-05
1.0691128e-05
1.117463e-05
1.1749624e-05
1.2050024e-05
1.2128576e-05
1.2306294e-05
1.270637e-05
1.2936585e-05
1.3303498e-05
1.3589533e-05
1.3879732e-05
1.4362315e-05
1.5009961e-05
1.5443633e-05
1.6023708e-05
1.7201777e-05
1.8157943e-05
1.9594455e-05
2.2068409e-05
2.3802502e-05
2.7753438e-05
3.3073496e-05
3.8042939e-05
4.9723355e-05
5.7847838e-05
6.9856174e-05
8.6100452e-05
0.0001004779
0.00012391082
0.00014467467
0.00016023548
0.00019005735
0.000216715
0.0002655999
0.00033291173
0.00037741606
0.00040707391
0.00043333053
0.00048342715
0.00063694151
0.00082374274
0.00098608077
0.001117959
0.0013699227
0.0016342233
0.0017384219
0.001887396
0.0023760294
0.0035949704
0.0042742159
0.0045118162
0.0047805912
0.0050469146
0.0057317816
0.0082737071
0.01302972
0.019738075
0.02071998
0.021840225
0.045631685
1.0001147e-05
1.0016584e-05
1.0033545e-05
1.0048222e-05
1.009431e-05
1.0145191e-05
1.0175082e-05
1.0228925e-05
1.0358527e-05
1.0590931e-05
1.0745534e-05
1.0845719e-05
1.0940615e-05
1.1047004e-05
1.111541e-05
1.1291308e-05
1.1781893e-05
1.2835519e-05
1.3884751e-05
1.551074e-05
1.711331e-05
1.7872965e-05
1.8409e-05
1.9234153e-05
2.0424094e-05
2.1605459e-05
2.356652e-05
2.7796741e-05
3.183986e-05
3.7113713e-05
4.8242085e-05
5.6588854e-05
7.1259126e-05
8.9377485e-05
0.00010251987
0.00013642521
0.00016739487
0.00020281932
0.00027608362
0.00031741038
0.00039671971
0.00053082878
0.00063700826
0.00084011474
0.00099440226
0.001104072
0.0012879604
0.0015547774
0.0019461651
0.0022916899
0.0026043716
0.0027909612
0.0029039785
0.003184934
0.0040805418
0.0055528892
0.0066369447
0.0071764963
0.0082374978
0.0098695135
0.010445419
0.011212265
0.013758817
0.018874184
0.021805453
0.022396673
0.022944517
0.023737319
0.0267845
0.037159791
0.055536548
0.081119188
0.081548261
0.082852988
0.094654075
1.0001602e-05
1.0031098e-05
1.0128533e-05
1.0196012e-05
1.0369865e-05
1.0716852e-05
1.0859131e-05
1.1040106e-05
1.1407508e-05
1.211994e-05
1.2700123e-05
1.3136323e-05
1.3447101e-05
1.3958493e-05
1.4220038e-05
1.4621353e-05
1.5340428e-05
1.6846351e-05
1.8245519e-05
2.0074041e-05
2.3238934e-05
3.0820951e-05
3.7676043e-05
4.4764769e-05
5.8560325e-05
7.0604925e-05
9.1978386e-05
0.00013694601
0.00017333096
0.00022304646
0.00033118115
0.00041921593
0.00055661659
0.00073448499
0.00085592378
0.001174383
0.0014019611
0.0017069605
0.0022971442
0.0025911596
0.0031013195
0.0042933076
0.0051107341
0.0064494763
0.0077685994
0.0085015249
0.0095702713
0.011570112
0.014617444
0.016016352
0.017697139
0.018784276
0.019444338
0.021001566
0.025825009
0.034669115
0.040328697
0.042302008
0.045547943
0.053128267
0.055986979
0.059274439
0.07034439
0.087504011
0.09492115
0.095967665
0.097226865
0.099190387
0.11021256
0.15901779
0.20098999
0.27584363
0.28248504
0.28062193
0.26441502
1.0001389e-05
1.0067066e-05
1.0335109e-05
1.0780825e-05
1.1538574e-05
1.3201282e-05
1.4117588e-05
1.4818165e-05
1.6158827e-05
1.8747393e-05
2.0639732e-05
2.1996808e-05
2.3247554e-05
2.3930304e-05
2.4963283e-05
2.6795751e-05
3.0618808e-05
3.7820795e-05
5.22275e-05
6.2451038e-05
8.176639e-05
0.00011533075
0.00014984384
0.00019909091
0.00030164544
0.0004463152
0.00065796713
0.0011134404
0.001470529
0.0019153577
0.002923926
0.0036897547
0.0046959276
0.006245044
0.0071555214
0.0095507513
0.011092375
0.013453782
0.017340923
0.019197294
0.022314128
0.030402582
0.036725386
0.042696358
0.050708175
0.055486924
0.060968519
0.072012541
0.088781484
0.094362603
0.10100527
0.10532052
0.10813094
0.11482668
0.13669158
0.17340746
0.19589967
0.20132301
0.20976667
0.23314337
0.2428975
0.25302987
0.28989115
0.33056002
0.33781675
0.33518719
0.33826359
0.34613848
0.38419927
0.55140031
0.64030934
0.81871498
0.82783459
0.84393756
0.76898433
1.0036628e-05
1.1193671e-05
1.3532857e-05
1.4847975e-05
1.7533428e-05
2.0708434e-05
2.4363596e-05
2.7503861e-05
3.1686049e-05
3.9032832e-05
4.3915293e-05
4.6943829e-05
5.1160012e-05
5.4432323e-05
6.0710706e-05
7.4086864e-05
9.6892867e-05
0.00014395865
0.00024458116
0.00033938357
0.00051289703
0.00085788907
0.0012441976
0.0016840371
0.0026740148
0.0038121617
0.0053294412
0.0087736445
0.0115089
0.014768086
0.021966818
0.027886667
0.033153339
0.043560569
0.049487084
0.063486196
0.071971784
0.086213047
0.10502896
0.11506385
0.13148279
0.17148769
0.20590365
0.22881064
0.26191356
0.28445058
0.30917588
0.35686758
0.41870656
0.43856026
0.45559563
0.46870313
0.47773911
0.49864641
0.57068123
0.68351158
0.74386019
0.75060673
0.76421367
0.81703656
0.84240716
0.86378164
0.9531967
1.0247394
1.019199
0.97302285
0.97739758
1.0077354
1.143561
1.5665139
1.7573618
2.274804
2.2695893
2.3489768
2.150295
1.0345897e-05
1.4247845e-05
2.3377871e-05
2.7037412e-05
3.6103672e-05
4.4635159e-05
5.3014821e-05
6.6360755e-05
7.3406946e-05
8.5547451e-05
9.8911697e-05
0.0001103182
0.00013151514
0.00016045976
0.00021865486
0.00034361607
0.0005371141
0.00092918336
0.0018102176
0.0026343273
0.0039703514
0.0067447743
0.0099027123
0.012957384
0.020137385
0.02815608
0.037866611
0.059940555
0.077462515
0.0952748
0.135834
0.17031683
0.19401945
0.2440497
0.27384616
0.33883317
0.3738538
0.43916757
0.51082117
0.55064515
0.61863099
0.78540347
0.880305
0.9858763
1.0908561
1.1607803
1.2667788
1.4259206
1.582285
1.6329966
1.6583328
1.6849195
1.6989049
1.7433674
1.9144172
2.2115177
2.3045295
2.2737979
2.289671
2.4309847
2.5178464
2.5661935
2.770141
2.8888441
2.8121143
2.545396
2.530579
2.6255852
3.2098573
3.880565
4.471599
8.4709437
8.2152569
8.4968174
7.1591615
1.1007151e-05
1.4234573e-05
2.4295431e-05
4.8805582e-05
6.722172e-05
0.0001207198
0.00012726605
0.00015171952
0.0001633595
0.00018852793
0.00023968839
0.00031947186
0.00047615081
0.00072761002
0.001218388
0.0023672241
0.0038985823
0.0068895309
0.01343576
0.019766926
0.028315499
0.046672944
0.068403822
0.085381909
0.12595734
0.17060772
0.21768232
0.32675357
0.40915407
0.48250521
0.65583233
0.80501935
0.89585208
1.0834123
1.1999884
1.4319872
1.5525984
1.7876605
2.015951
2.1426314
2.3521559
2.9043177
3.1425831
3.4158917
3.865481
4.0344174
4.2464609
4.7123662
5.0147826
5.0926783
5.1294926
5.1572346
5.1038891
5.1843737
5.566374
6.3635409
6.600487
6.4014164
6.4437842
7.1184488
7.5561069
7.835307
8.5801546
8.7694051
8.123139
6.9491086
6.8408437
7.0251513
9.2860428
11.907842
16.039492
62.653107
73.548819
60.631978
29.733643
1.1130317e-05
1.6079381e-05
2.9457499e-05
6.5554824e-05
8.2039655e-05
0.00014579933
0.00015910643
0.00019580425
0.00027146721
0.00042968944
0.00073475721
0.0013139218
0.0025686401
0.0045073631
0.0081746335
0.017047184
0.027296261
0.047061775
0.084921541
0.12559009
0.16931543
0.2652008
0.38026514
0.45513744
0.63735075
0.83258707
1.0186633
1.4447258
1.7610451
2.0080511
2.6076386
3.0886394
3.4145006
4.020273
4.40294
5.1029351
5.4519625
6.1178794
6.8726464
7.2411438
7.8461625
9.4339366
10.114071
10.83849
12.491059
12.850626
13.137869
14.079014
14.782014
14.605315
14.470044
14.664057
14.406355
15.22912
17.785534
19.823508
21.488665
20.541023
21.59701
26.483897
26.318302
30.046873
32.883591
32.31657
26.545631
24.215985
23.903464
24.754833
38.840986
49.134374
59.058298
90.438241
103.87549
98.201744
57.633485
1.1019877e-05
1.614714e-05
4.4892299e-05
5.7242974e-05
9.2349721e-05
0.00012272585
0.00019833084
0.00038477189
0.00081873674
0.0018004814
0.0038045535
0.0077048389
0.017243614
0.029832536
0.05283828
0.10905183
0.16395952
0.28145806
0.43172151
0.649837
0.83514179
1.2326144
1.7050759
1.9758662
2.6598075
3.3015007
3.9741021
5.3105841
6.3957843
7.1653453
8.9678221
10.270374
11.875997
13.464507
14.792529
16.517677
17.468845
19.134488
22.84386
24.315273
25.934979
30.165343
32.125822
35.005506
41.280356
39.606226
40.373134
45.772529
46.47694
43.154876
41.658659
46.11816
43.685762
69.351157
82.257659
72.889836
83.208578
78.613109
88.262903
114.70728
96.533079
84.324876
78.38663
61.570813
47.207288
40.447981
38.082462
38.555265
55.898137
140.07598
186.00516
169.51145
101.0781
84.328851
55.456837
1.070518e-05
1.7264539e-05
2.8872074e-05
4.988278e-05
0.00011324983
0.00031268259
0.00082165684
0.002112787
0.0049890346
0.011387123
0.024664244
0.048704053
0.1117209
0.17914615
0.2986389
0.58367014
0.82027733
1.3678513
1.823966
2.766223
3.4353078
4.7413965
6.3419982
7.2332714
9.5278641
11.243297
13.93496
17.084094
21.492703
24.204978
28.615839
34.168821
41.815767
45.434732
49.405436
51.864943
55.428782
66.72644
88.703019
89.883501
91.501316
100.98867
111.58645
128.07308
161.35667
123.63028
128.884
177.58882
163.55901
143.2038
136.19021
129.34136
118.0545
218.7601
193.98073
129.32515
181.23669
233.04847
220.32849
183.0606
136.88563
83.055476
64.514664
59.722684
49.006149
42.206505
38.045163
38.36777
61.833257
190.17236
250.30919
241.78347
180.24201
107.02154
60.48696
1.6498823e-05
2.6402464e-05
5.3033404e-05
0.0001477369
0.00047893728
0.0015722428
0.0046217167
0.012418663
0.029490516
0.066024452
0.14623245
0.27028302
0.59907519
0.89733406
1.4300807
2.5731979
3.3988257
5.3017351
6.8235871
9.892451
12.036007
16.268264
21.028979
23.935209
31.738964
37.064545
46.048848
55.443663
76.726704
85.592086
98.699415
134.34679
167.03224
162.17846
169.97792
181.21759
205.79356
328.06386
362.5833
337.95936
349.95364
373.795
439.32657
411.50151
337.36417
219.12625
253.58073
284.79861
250.08221
243.09317
230.03776
142.81672
215.15136
160.9856
106.23593
105.27851
157.51809
226.02233
153.74755
81.014456
67.812269
52.577912
52.995193
51.520556
45.073108
43.720948
40.826024
43.522533
116.47877
219.89388
244.60829
249.95054
186.53482
160.11271
127.30398
1.954247e-05
7.4077453e-05
0.00020586708
0.00080123011
0.0029390473
0.0097227922
0.02771919
0.070972753
0.16005128
0.34204641
0.76033643
1.2843967
2.6193397
3.6997824
5.9081471
9.3181613
11.938874
18.035973
22.878283
31.532822
38.966558
55.496893
67.342725
77.988251
111.25112
129.17255
160.77293
210.35173
326.46504
342.76853
409.76906
670.5639
503.97156
515.88223
673.66812
586.88986
983.0578
995.99383
581.85115
611.58868
558.21758
547.33208
524.98906
330.04331
131.09221
237.08687
238.49216
118.7085
111.94551
99.887805
72.330583
59.044946
87.15394
69.417697
57.55089
60.850475
75.176782
69.329973
55.60052
53.202156
49.475738
49.483897
67.079351
66.06471
53.20578
51.03399
48.982954
64.829244
230.50047
254.10285
226.01573
235.41307
215.64449
162.6946
111.83246
1.0578211e-05
0.00012502721
0.00086517302
0.0045204625
0.017283682
0.054316658
0.14650528
0.35284381
0.75302567
1.5451269
3.30921
5.1424935
9.5958045
13.040097
21.022745
29.477999
38.723058
58.834236
74.1523
99.531062
134.60077
202.26232
229.31921
282.09888
468.6865
522.92464
672.83766
1030.2249
1030.7645
954.70668
1537.8006
1183.8278
482.19213
783.22794
896.2158
753.47864
1224.2151
515.1934
146.9426
129.5868
97.535753
73.778061
83.307129
123.45498
108.17799
111.56378
104.60961
66.604581
57.665459
52.98295
57.284554
47.077209
55.572989
50.531544
54.483783
50.421686
54.289826
59.868856
55.179583
54.44298
53.399999
54.795188
99.970972
98.659759
72.169984
65.286049
62.203817
183.96535
235.21441
272.36152
246.44317
221.70328
243.90408
201.43489
126.62189
8.6024469e-06
0.00047721478
0.0047536524
0.024699582
0.089729349
0.26477941
0.67761079
1.5297758
3.1003311
6.1630911
12.058575
17.74903
31.189029
42.253593
69.138153
90.403796
131.26338
199.31397
253.00851
363.87938
585.62694
817.21683
819.83099
1173.1596
1270.2536
1326.5446
1719.8623
1451.06
714.26407
622.34205
737.69934
173.29075
79.424859
112.11201
134.45717
406.46717
306.2567
75.75791
54.159826
43.232524
46.906514
55.52523
83.502637
117.30618
155.37389
122.85318
79.97507
65.988676
63.073073
59.10763
51.382346
42.270526
48.012151
51.591727
64.721692
55.643869
51.891836
47.512166
54.854516
54.235366
54.721693
57.984843
100.38117
130.0514
104.55047
100.99367
124.52417
263.98098
161.65408
214.70468
281.47032
231.63412
243.14724
247.49607
164.51799
3.7454104e-06
0.003232176
0.027487114
0.12828715
0.42129431
1.1393106
2.7515187
5.7159559
11.450441
21.918086
38.135506
56.720178
98.538477
138.31726
230.4095
303.32327
524.40155
748.71214
995.32272
1449.4971
1697.443
1504.0288
1133.2156
1523.3962
710.42142
814.62125
883.5691
151.0014
72.062193
124.60042
126.63583
32.711037
33.743297
67.453204
129.05252
194.55299
122.20264
68.914982
84.323294
53.295116
47.363821
101.60378
117.37667
116.9528
127.57326
127.7702
104.00883
75.22938
71.86529
62.717213
58.007296
45.394695
56.721516
56.280985
49.294546
61.717262
52.710932
66.916386
57.440957
57.839299
62.413646
67.417814
94.408863
193.93022
152.5145
142.5097
180.44327
248.22679
124.34169
178.40667
292.38169
269.31576
190.14382
177.73659
121.13488
8.2160448e-05
0.018698802
0.14040288
0.58524341
1.7420573
4.3415935
9.8116306
19.279755
40.059702
66.623056
119.6964
187.01398
334.09214
502.53452
856.07074
1165.6639
1663.6163
1673.4204
1870.3743
1812.7176
843.2452
262.84885
229.92602
424.77465
153.08141
175.86356
97.642513
34.452496
36.93541
52.124417
40.708608
22.70404
27.812604
65.649827
59.253668
125.94979
107.21607
70.716721
137.07639
113.83416
97.556167
101.26296
180.49893
136.56259
121.02138
97.654333
76.481535
77.645588
78.313198
78.932972
66.31369
49.757041
49.944128
52.813971
44.967207
67.441437
59.587348
46.481506
47.600184
50.682277
82.641683
84.417359
114.25962
204.829
240.60776
217.12031
218.08358
223.37226
154.53921
160.84307
310.03338
292.74419
217.98319
171.65634
102.56608
0.001286549
0.10078339
0.63911285
2.3467711
6.3206637
14.657637
31.132919
61.512625
128.01585
208.86315
416.04992
702.33965
1283.6594
1502.7492
1913.5861
1977.3338
1606.6098
831.99758
770.05759
645.58389
117.36488
74.516428
56.782891
339.59425
148.43744
83.585842
46.669135
30.479307
39.684389
32.876586
22.908053
21.480101
23.631482
39.62254
51.794865
73.708248
66.944028
71.830833
70.335418
162.80614
110.45252
206.04516
290.01343
144.96184
108.24789
139.55019
106.00168
78.303028
76.946281
86.439838
78.956813
59.299243
55.55669
46.014326
43.648706
46.081265
46.278427
51.177138
47.939481
48.092328
78.195965
105.63029
129.21528
187.21375
344.61374
267.65787
249.76008
174.75818
144.65919
167.32405
375.86058
329.87093
226.91719
201.4668
157.74382
0.011900339
0.48271687
2.577365
8.2982696
20.4271
45.382401
95.483006
198.14528
415.10093
727.38155
1739.1144
1944.8899
1931.4278
1508.1228
799.73651
723.16257
233.07821
146.15815
126.20693
166.65722
49.826072
36.535361
56.644163
146.01734
250.06597
87.137748
36.648272
33.939538
47.389819
35.147578
20.912416
21.365413
29.170193
27.772714
56.307551
57.475854
62.720164
60.780589
40.861878
72.07707
68.958033
101.64566
102.35654
92.207724
88.049693
93.681406
94.298532
72.008153
73.555361
65.365678
57.817732
57.747344
54.808667
46.369966
46.01956
47.773505
47.618603
48.901151
49.246926
56.325988
143.06178
140.60819
182.41117
186.83901
259.54017
178.82146
195.24025
165.14023
339.53796
193.58665
435.48761
388.38206
285.81166
175.50274
151.53767
0.084608788
2.0534608
9.1739801
26.124649
60.464409
135.66036
302.33575
692.03209
1552.9309
1868.4028
2676.4092
1501.5789
455.05447
203.8171
103.67557
120.29587
19.966437
33.343952
60.540698
44.730944
34.877234
39.464064
51.532313
388.2102
170.61981
58.925035
30.903605
32.956819
26.118449
26.965796
20.406195
24.147433
38.93556
36.359222
29.360719
34.546994
50.679483
36.976432
30.637437
80.914788
60.413557
115.03057
100.59601
104.99247
101.81089
110.73677
86.819836
63.032988
66.858429
64.63569
55.807911
56.088636
52.762147
46.756441
48.709922
53.001417
53.628887
50.466344
50.56456
51.340336
79.522628
150.83433
237.21954
205.63671
210.37268
137.99807
81.657255
169.12596
467.21349
171.54119
375.17902
443.91848
386.05651
270.46295
153.04345
0.5019553
7.7579873
29.104254
75.150879
172.04806
418.85544
1086.4789
1973.3958
2404.7191
1939.373
1151.827
207.33215
73.852809
32.32468
26.928068
29.467403
6.3976613
13.929282
42.028146
75.510687
16.437985
38.572646
42.234548
66.305765
65.651374
61.12535
46.313716
28.837803
25.928818
20.291292
23.666957
31.198606
40.958066
45.142711
37.364902
37.806272
44.592773
36.375333
28.300301
59.097055
54.521484
95.026585
149.10323
116.98943
132.32681
117.91968
76.151632
64.435751
65.584085
92.09694
77.131999
57.61238
53.247826
48.92546
56.90917
61.145699
57.386054
52.752749
52.002893
58.779678
185.1626
230.35232
203.60497
185.54832
195.20299
114.33775
43.454594
116.79403
92.063287
107.65213
239.18417
598.75961
422.24646
211.71684
118.32569
2.5864637
26.114559
83.989325
205.49045
503.88303
1479.1381
2112.9298
2079.7583
929.41814
673.74983
247.47538
82.777989
43.822197
18.191282
21.813808
24.103642
6.3181612
7.049163
30.37647
69.393239
14.665655
15.786815
29.008685
61.452065
57.985514
55.295518
29.998436
25.485469
29.984759
23.635243
30.984271
41.551981
40.534018
80.104614
58.223841
35.113288
44.256088
36.399244
28.06511
39.576866
72.386544
56.804909
60.203136
104.75529
136.54295
129.98338
75.576096
71.853089
67.279902
140.82238
133.67661
78.082107
53.791409
50.24699
73.634884
76.095573
68.796793
59.357165
58.844923
66.863372
161.84205
121.93755
103.06706
132.92489
167.53133
108.86721
33.787775
63.903852
74.200895
96.019778
222.60034
836.35073
717.62329
445.25424
140.07536
11.809874
79.164088
226.87602
568.61927
1654.8208
2400.0298
1491.9802
591.79309
206.64231
241.62882
89.874852
70.540568
60.924267
17.118874
15.859988
14.190248
5.5905186
9.5560182
29.332052
62.576778
14.107445
15.051135
22.513098
44.901891
73.374579
40.902553
44.623125
23.690017
33.302856
24.984749
32.990687
47.69215
45.259955
82.909022
67.580109
36.567875
39.725025
33.637551
27.990121
34.420335
38.072321
34.262681
109.82036
99.810499
99.837737
97.335788
67.798442
73.413272
71.406363
98.639453
126.6997
91.796562
57.420993
57.523167
84.363485
82.490265
74.108254
68.277857
68.807444
95.353336
128.83575
110.33681
97.362201
123.58796
151.0121
102.95514
39.007349
79.639839
153.33501
97.881029
221.68471
889.3795
720.80652
623.41224
252.61881
48.72254
217.66177
603.56667
1729.4816
2381.3282
1330.3224
496.55718
147.71451
58.326634
101.08976
82.595007
8.1411406
34.091029
15.841737
12.348274
10.899691
6.9937457
8.3839592
25.615053
17.118503
11.898109
15.474329
21.294634
33.435733
72.267481
41.698616
31.74688
23.275112
32.672193
26.64287
55.549106
68.934233
54.845824
50.961108
92.437191
53.832079
44.794375
33.40255
28.540878
31.937947
31.512276
32.067209
100.71688
101.86526
90.282502
98.897299
70.364942
77.003051
85.626513
70.984423
80.680293
77.549279
57.457217
58.736491
99.894578
96.651924
79.037967
72.524313
72.327028
123.74006
164.94792
131.365
110.58601
116.17454
143.25014
92.378313
61.629777
190.43272
167.46172
115.11502
286.58514
429.96945
821.77094
568.57768
300.38413
175.57363
555.43693
1712.5275
2349.5794
1278.8055
448.93074
98.49628
26.381815
30.285153
45.170505
11.564877
5.6519955
9.2674127
7.1277649
9.2817548
11.371054
8.8093967
13.277432
22.62834
11.233139
11.701535
14.048866
23.894102
28.448383
28.543028
38.753782
31.136538
23.755686
23.606672
32.953486
46.720871
82.615389
59.602981
44.487138
167.72604
117.91667
60.620479
33.735582
27.472567
29.831753
30.893467
31.977501
33.784991
50.061618
62.529353
76.340816
58.365513
72.663059
116.12684
80.264596
67.228009
63.898778
60.482421
66.394419
106.23687
111.16952
98.369703
75.842684
76.494403
140.52381
146.85203
129.64217
126.33635
106.947
119.60105
86.741642
158.37957
229.7362
236.27227
147.70516
135.79337
235.0032
1169.8584
929.43801
290.83825
517.40382
1439.0678
2761.7752
1505.3347
531.99195
85.494996
16.193552
9.5997809
20.510838
22.577143
8.7951417
5.9748866
8.9661576
6.5766886
9.5044744
8.7943563
10.672747
20.020984
16.699816
10.534866
11.460839
13.540316
25.345013
22.923791
15.538206
68.676517
45.033554
23.720003
22.133906
33.523473
37.254844
76.867385
59.454516
45.44991
212.24427
100.91226
51.815743
30.414714
27.261545
30.837041
39.66236
32.352931
30.477118
48.678949
49.818395
47.337356
50.70845
68.886322
155.82877
100.25691
94.125719
67.905337
73.182022
80.766819
150.84183
129.15425
118.98928
95.478427
97.763637
131.10767
127.61762
142.06395
128.8237
111.49323
107.70917
94.15101
241.54831
230.31996
166.19938
120.65573
128.76508
125.4052
1551.2625
1214.8558
548.75565
1484.1672
2985.5232
2221.887
724.87882
131.11098
23.965937
6.612949
6.9248467
13.354802
14.353685
18.448986
6.0569232
11.604426
12.209443
8.7377433
7.6489782
18.919165
22.193027
21.754961
11.830384
11.578605
15.482554
25.013259
19.742243
13.920886
80.225743
49.354528
23.014327
23.396281
29.511036
72.994377
49.46113
49.923098
48.822777
143.34534
53.429431
36.386829
29.309906
28.43755
29.906003
37.60441
33.175125
32.320808
41.969522
42.503991
57.931553
53.29096
73.793593
168.30834
137.56493
110.76582
110.16357
83.954898
100.91563
124.67331
125.36905
162.44284
141.34827
188.67
174.51376
120.67204
94.19425
104.44445
155.04305
116.09273
248.74503
323.46577
239.73468
168.54887
164.93578
83.976902
114.24975
299.85172
1034.3886
596.96496
4213.9957
3291.2256
995.3442
195.24755
32.818415
21.734539
3.9833819
5.5876887
9.8269914
12.225705
27.846252
7.4050099
13.141852
28.779885
8.2939047
9.4629017
17.193972
18.261986
44.827119
12.212518
11.869583
24.299725
24.683327
19.476013
14.020756
26.69432
30.376771
22.425253
28.331934
25.648966
115.92538
45.463973
45.093469
45.747599
70.392105
37.462256
31.420856
29.297095
29.440808
26.543311
33.867978
29.523342
32.435236
41.872619
43.582072
52.635977
51.953375
98.21442
132.78507
150.76157
127.06643
106.13135
144.88159
121.86684
112.45514
128.31746
301.00151
230.56292
266.3376
242.31021
125.92065
120.67565
48.328496
231.87831
343.83565
415.1323
344.48842
302.47542
216.73443
175.17495
68.626407
19.639063
137.41429
682.41382
587.71853
7816.1797
1759.2582
256.39943
40.30276
32.316002
10.42106
3.117856
5.1978514
8.1571039
12.188558
29.399872
9.3499426
16.922864
58.503076
8.9619086
11.181986
15.554769
21.897942
20.134167
12.104187
12.783745
39.283518
21.770573
21.830036
15.267156
34.293238
28.093316
21.941747
40.085414
24.028373
69.387686
38.629895
42.546097
43.319993
50.218282
38.947389
30.143758
30.31999
30.875921
28.353942
32.361202
31.661876
37.200622
49.634743
44.183373
47.806719
50.801077
109.29148
104.67498
135.8435
142.02285
137.50088
116.40008
95.871495
103.40177
133.34244
364.28029
289.95866
267.37732
191.56961
142.19595
119.90775
26.649801
155.54549
385.70312
386.80387
352.51256
258.14184
244.60117
258.11286
67.059468
9.4233434
62.417202
1128.186
798.15608
1467.3423
340.99257
40.991569
14.870107
26.275928
4.0754798
2.8388296
5.1310274
7.3206814
12.363313
24.905285
11.524541
18.230137
72.077054
13.153285
16.534902
21.450885
67.214385
13.316864
11.667707
14.517091
44.834975
20.836167
20.808338
17.073713
55.97174
26.507213
21.443954
49.56877
25.449635
33.353694
37.036617
41.095632
40.432656
33.348939
32.373684
29.887917
32.516773
32.931844
32.257976
29.447193
35.422481
35.81054
87.584729
65.641041
68.041012
69.291569
102.603
102.7387
136.02562
149.82004
165.94546
109.07016
105.79795
111.79194
155.75364
305.71972
315.89551
252.76124
155.89695
178.88857
88.303836
11.173446
56.889727
410.04597
475.73309
474.19372
573.80014
608.42046
303.2164
17.393097
7.8426513
90.349896
1037.2946
807.68528
99.980195
38.975303
12.025069
13.001832
10.426183
2.6944031
2.7002249
5.1109713
6.8065867
12.190601
14.392643
12.124074
17.907049
55.677972
79.631235
27.604386
28.179644
69.258941
20.877732
11.092726
16.201595
34.072831
22.938168
18.605693
20.505983
106.38551
25.788072
21.48439
48.326034
27.841802
30.33031
38.750819
41.608873
37.083537
29.42496
29.313071
33.441726
35.668982
36.022267
29.748397
32.218273
31.410254
39.236633
105.47256
99.701167
76.583328
69.833915
113.97018
103.32772
125.42919
136.52231
152.10348
117.11633
126.63786
130.18437
133.45077
537.59368
459.46022
269.74247
151.30762
117.75115
18.536477
6.4130577
20.164002
224.08847
513.50827
684.75502
687.97903
493.6946
51.868956
3.3605827
1.306017
20.333864
215.97669
1045.2878
4.1545238
6.8617286
11.21869
16.089183
4.2987939
2.0995653
2.5561792
5.0694329
6.780368
11.549046
11.910215
12.22085
17.924181
84.797884
74.395198
24.558922
28.248039
32.746333
19.526843
11.136447
20.792617
32.616204
22.5772
19.173158
25.02573
43.579045
28.373019
21.647518
40.839884
36.284921
40.86762
39.791711
42.085323
36.44146
28.760118
29.99088
36.65014
39.483818
40.228925
32.338096
31.953865
36.153229
41.87549
71.604519
90.413607
77.920114
81.017162
119.55332
106.19636
141.47127
186.57697
184.50353
162.16735
125.75333
152.79194
140.08265
442.37446
405.09962
244.66101
139.11481
63.493546
14.887911
4.1384721
9.1473189
103.31742
413.07804
614.13385
578.97908
165.89781
11.46246
0.94683419
0.8695333
7.9322387
107.45693
920.37424
1.2648946
4.2484737
12.788521
16.516962
3.6128989
1.8179267
2.3756347
5.1614058
6.7990486
11.501931
12.333699
12.267436
11.529424
87.121782
37.71282
19.423069
24.701666
13.386742
10.395138
10.790197
25.689211
37.692407
22.653099
20.699452
26.381742
85.686117
33.725447
21.818008
48.853429
35.409705
31.150069
41.362219
41.53494
35.405656
29.606231
30.902819
36.97933
42.635089
46.201802
34.322466
39.670006
46.505169
42.816877
60.5553
78.711879
77.954302
87.246604
128.67913
103.14032
173.30398
190.56198
158.04503
133.77003
125.31767
190.01751
150.73947
175.20237
245.02407
228.02796
128.92129
45.451556
5.4663264
1.7015403
4.2079763
29.915948
191.19048
341.36592
230.34474
33.323604
2.0379889
0.46694791
0.63543984
2.9940617
37.369695
260.96809
1.1794893
3.9138974
12.530179
11.401903
3.5904331
1.7016903
2.1372659
5.2399883
6.8925653
13.172271
14.871213
12.005759
11.859259
25.62131
18.281532
10.414273
15.55579
9.1283382
9.5703974
10.371276
29.270651
48.192926
30.666577
24.590587
23.085889
141.22933
37.479091
24.29001
52.870281
36.516163
29.888204
45.539028
42.76036
35.156733
35.461898
31.253931
34.780401
51.806945
51.757516
40.524151
46.938044
40.332635
44.586296
56.719799
67.830858
70.177089
70.329932
98.773502
101.8177
126.6175
217.51274
208.85032
134.28203
167.80315
186.95144
161.91636
293.74658
433.53236
236.45722
110.70778
25.29793
3.6264893
1.0785324
1.7021327
9.7330597
50.98425
106.88707
54.088022
5.0777104