/*--------------------------------*- C++ -*----------------------------------*\
| =========                 |                                                 |
| \\      /  F ield         | OpenFOAM: The Open Source CFD Toolbox           |
|  \\    /   O peration     | Version:  2.3.0                                 |
|   \\  /    A nd           | Web:      www.OpenFOAM.org                      |
|    \\/     M anipulation  |                                                 |
\*---------------------------------------------------------------------------*/
FoamFile
{
    version     2.0;
    format      ascii;
    class       volScalarField;
    location    "8e-06";
    object      p;
}
// * * * * * * * * * * * * * * * * * * * * * * * * * * * * * * * * * * * * * //

dimensions      [1 -1 -2 0 0 0 0];

internalField   nonuniform List<scalar> 
7500
(
15068.893
-16399.111
-7800.25
19539.851
12312.947
13374.906
7078.7207
29218.716
-14983.831
25379.89
59225.748
-37738.879
49566.915
56188.174
-30082.105
39893.162
19964.935
11258.219
48217.867
15601.529
30686.139
49622.259
49970.619
36675.224
26705.557
55779.033
68198.787
68936.551
92445.969
116611.13
63708.182
-16344.485
126850.32
159823.68
-91764.409
159286.3
168074.32
-130491.89
208396.61
143484
-80703.915
53174.448
8478.6631
86550.305
124355.61
-35617.488
80204.998
205485.87
35366.107
-66771.579
13448.262
-3139.2653
-116853.93
43399.605
146852.44
-43689.824
24533.041
110749
25363.812
80276.745
86525.908
128031.22
255591.42
68410.986
-118561.44
111748.76
256027.6
258582.07
443991.46
811155.12
416619.55
-31160.19
-113955.17
-31777.061
89092.247
14519.911
-16140.309
-7542.5325
20052.131
10954.202
13856.65
7703.7316
27134.677
-11951.018
23827.667
58464.885
-36072.596
48244.593
57093.719
-31676.314
40929.818
20768.216
10292.971
48687.82
14185.63
32949.97
48888.482
47580.128
38226.189
26137.144
57292.199
69247.333
65783.49
93003.421
116959.01
63721.995
-14867.532
123816.97
158898.22
-88399.802
153818.53
169399.35
-124815.23
204062.4
142335.65
-81880.916
54698.155
13764.98
81162.961
124779.47
-29588.155
80855.691
196691.05
30002.395
-60530.636
13553.84
-1998.8899
-114746.57
43069.107
144088.66
-43428.486
24853.807
109219.17
27164.629
90098.907
96103.022
118495.22
246899.03
60220.796
-125104.47
126799.37
262146.33
244852.88
438443.75
802719.05
406757.06
11912.448
-113628.38
-90909.149
89745.032
14062.989
-15767.19
-9640.4098
23187.28
11440.844
10272.438
11191.315
24688.638
-9902.8447
22727.419
58188.25
-33543.816
43922.259
60779.861
-32831.827
40099.221
21912.575
8616.3743
52211.268
11386.809
33338.33
51815.188
43613.196
38934.765
25166.579
57184.995
74132.303
61547.798
92812.04
116117.39
62450.079
-5900.8057
119022.1
150829.51
-77888.184
149449.11
161058.01
-109690.9
195174.77
139633.86
-78313.929
50810.019
25199.538
73168.748
123127.47
-18527.46
78045.46
187954.77
30613.729
-58865.648
9931.5685
-1290.1116
-112146.49
45491.608
141238.62
-42952.73
25392.678
105649.66
30683.433
98528.704
94702.745
114272.89
235556.24
43704.554
-112942.91
163507.48
255499.09
212588.22
429324.28
793511.68
394665.2
114241.89
-119710.1
-191843.97
90538.473
12652.311
-13314.063
-12187.125
24261.032
13812.896
7212.0337
13348.848
20981.425
-4355.6076
19355.945
55615.508
-25960.428
36746.661
63423.396
-31723.309
38708.599
22889.965
6107.5839
55939.544
9292.8574
33840.41
55122.834
39704.072
39481.574
23755.021
56648.489
79543.002
57319.991
93459.638
114333.74
57349.69
9213.0143
114838.91
137112.04
-61878.098
141272.72
152776.91
-87248.197
182806.6
134914.28
-75236.89
44802.186
33604.575
66178.711
121907.06
1026.2834
77043.542
173432.92
39822.755
-61155.144
-4076.3238
3966.0033
-107642.64
42501.2
136676.04
-38667.036
25649.743
97524.525
39368.679
108286.74
88506.669
116524.15
228019.22
24681.708
-98735.549
178843.68
235325.16
202700.26
426502.54
793542.37
406470.97
148582.44
-142656.83
-295615.7
78889.772
11051.373
-10651.314
-14148.4
24771.345
14932.764
5752.3016
16027.683
15328.416
2297.6581
16939.426
51005.358
-18661.355
32332.046
63763.982
-32744.968
40157.83
24100.764
1915.7612
60116.469
6863.9783
34816.05
59277.003
34672.829
40249.957
23070.615
55636.545
84654.178
53033.169
95391.2
110693.63
51899.518
23335.242
112507.14
122931.32
-47780.667
134845.08
140703.42
-57876.296
168783.46
129830.33
-68256.992
37812.557
41645.688
53577.515
119348.61
17585.797
73894.989
170933.52
53301.183
-67112.102
-18290.123
7787.0662
-102864.14
41428.712
130705.02
-38154.274
24990.516
86014.396
48327.371
119275.08
86994.906
121028.24
224473.79
9875.596
-97562.701
182442.75
241068.2
193606.21
441188.11
813664.18
427149.46
64633.062
-172742.64
-231551.28
61963.924
9420.1163
-8301.5698
-15996.841
26058.42
15890.53
3023.2227
19627.736
10992.339
6049.276
16181.084
48330.061
-14578.379
28881.294
65852.426
-34775.9
40563.332
26227.047
-699.1003
60814.287
6216.4992
37276.785
61058.56
31257.463
40033.275
25052.813
55416.433
86118.665
50827.4
98955.994
104394.82
45512.808
41098.46
106108.08
110128.9
-31939.321
123860.73
132230.94
-33494.805
158828.06
121469.35
-57364.373
40364.297
43645.296
43811.811
110689.73
38152.227
72875.637
159141.44
66585.655
-72345.656
-17898.442
9012.5984
-105839.83
46369.336
125633.09
-36386.574
15533.923
70684.822
54247.817
128192.77
84970.22
136556.3
218201.03
-3990.2488
-86444.031
179800.33
176563.41
204431.58
506792.59
832619.66
459565.69
-9003.5936
-233885.13
-221750.59
37417.352
7576.7735
-6063.6242
-17079.251
26277.067
17740.236
1118.2842
20529.885
9315.8558
9285.5451
13367.552
48050.123
-10408.457
23773.98
67008.91
-33429.278
39127.585
25760.581
895.66896
60374.021
3341.3858
41011.281
63299.075
27296.621
38722.174
28058.688
57504.396
85934.47
47802.803
102137.08
100249.63
40296.954
52659.86
105143.2
95358.946
-17659.746
115984.69
119608.89
-3279.2336
142997.88
112613.04
-48038.338
41498.145
49268.687
35752.073
107292.62
48095.456
74156.403
156924.97
73013.268
-75490.965
-27631.697
1019.6402
-89440.916
56190.954
120032.99
-31748.122
9253.2345
51634.848
54012.39
125872.21
86381.005
152249.84
210186.29
-19065.498
-73315.118
187894.3
149203.79
161546.34
551778.07
830992.56
412210.69
-9882.9283
-192812.27
-290318.72
-2011.3563
5364.9527
-3846.3038
-16824.983
25261.694
18922.329
1034.1474
20680.022
6951.9149
13224.358
10882.911
45937.047
-4205.6111
20528.845
63962.518
-30431.077
39784.983
23277.04
1618.5318
61005.861
2518.3164
40954.065
66589.396
25743.731
34459.041
33642.215
56649.498
86511.377
49900.49
100990.05
92708.847
42138.233
63643.525
97194.297
85053.548
-2815.9201
106105.72
109336.93
22795.203
134656.65
95142.122
-32464.022
40671.558
45370.589
42514.987
102932.12
51109.991
71188.649
165169.75
79006.325
-72492.556
-32345.209
-12488.22
-91113.769
64872.125
119835.38
-25874.15
18179.863
37951.74
51869.077
119446.28
75098.472
160660.46
209026.77
-40432.103
-76397.834
193861.65
152466.3
199345.03
603554.32
784044.73
406245.91
-62884.064
-307975.47
-278819.58
-17466.888
3062.2314
-2103.1839
-15511.437
24087.733
19201.995
680.35145
21988.774
5254.5017
14221.459
11405.364
42561.233
-81.157921
21450.784
59316.017
-28362.571
39738.945
23527.491
2349.1464
56566.585
6829.7177
40896.351
65793.191
26249.628
30408.899
40090.61
56613.545
80420.412
58588.328
103807.71
79283.946
42724.237
79529.343
92221.058
66763.978
11658.001
104539.49
94575.821
47417.096
126422.97
80625.974
-20915.017
45052.437
34887.637
49271.565
108403.52
46086.295
72993.379
166595.08
81559.01
-70106.548
-41486.164
-12736.972
-82089.368
64284.224
112781.6
-19181.706
24900.767
35622.265
62098.565
112648.29
72497.824
154283.57
173993.39
-60660.041
-71218.861
168228.17
148041.74
275855.72
697895.61
799984.08
408539.32
-181764.44
-344779.83
-308385.87
-40533.29
881.85537
-381.82284
-14122.684
22950.519
19889.693
-409.37191
22357.599
6110.3252
13080.686
12166.94
41124.871
1489.9854
22574.146
55479.612
-24570.554
37152.922
22690.476
7794.7851
49599.627
8942.001
44536.589
63102.439
25278.386
28914.013
44732.294
56955.448
76529.49
61105.839
109062.58
72453.558
39103.5
90663.103
92862.743
52114.816
18154.241
101285.87
91672.676
64155.962
120140.42
64772.482
-9831.4677
43508.003
29687.931
55515.806
106038.97
46096.823
82967.339
169353.62
78758.48
-68867.646
-51303.78
-30356.61
-59061.218
82873.758
104899.23
-20183.401
13575.56
31037.95
96427.619
119876.99
62307.41
166375.67
150709.52
-124449.03
-88645.003
136530.12
79934.578
315528.88
779519.98
916949.42
443559.48
-166488.16
-483774.9
-311911.74
-44043.317
-1571.4176
1448.9033
-12281.647
20786.26
21255.451
-372.00422
20779.296
7383.6341
12836.975
11641.491
40764.426
4158.7797
21558.879
50686.824
-18631.37
35397.371
19942.128
12089.833
46678.948
9557.5088
46315.706
61729.666
22173.806
30755.3
49589.59
50538.637
76935.095
70020.733
102784.15
69620.792
45005.514
93728.074
93654.103
38867.978
24853.797
94572.527
87961.05
88145.866
111076.71
51708.374
1954.3536
33271.757
19119.88
77730.468
98553.981
33482.147
98768.879
181639.7
76338.635
-69683.465
-50059.748
-50352.699
-71309.928
100609.14
114041.06
-16480.395
17559.629
15028.53
97895.444
144039.91
77310.089
159684.8
148170.9
-119233.15
-105040.36
111786.07
92620.996
312393.32
778727.32
933218.98
433859.24
-176864.21
-457304.06
-299690.28
-31658.344
-4000.3265
3105.0484
-9839.458
18266.511
21498.952
1424.9345
19701.647
6901.9833
13048.254
11278.238
39426.978
9161.5998
20112.624
44256.301
-12589.959
33473.681
19887.371
13396.8
42978.745
14180.897
45719.258
59238.806
19633.607
32526.638
55661.057
43006.432
73898.808
82691.829
98857.875
60053.499
55042.571
99579.248
90461.627
33165.938
25405.614
90211.599
79255.76
106686.16
112293.88
34475.347
15019.12
25370.888
-820.55113
96702.595
101553.6
25078.244
100683.42
186918.1
84797.844
-63245.852
-60201.046
-52998.642
-61990.456
84841.816
90653.283
863.75057
22858.732
17973.234
95890.44
140310.05
76824.826
164119.75
139756.83
-121460.27
-107392.66
109027.56
110853.64
340548.58
762518.63
914466.17
423603.5
-205582.73
-499903.9
-316155.12
-46341.097
-6373.6878
4482.7528
-7274.6587
16420.08
20712.643
2487.2919
20751.9
6135.9417
12030.733
11474.012
37384.111
14524.362
19811.189
37317.199
-6404
30126.904
20333.615
16287.018
37119.724
20690.159
46774.517
51176.54
20671.301
37508.921
55170.968
37340.846
73511.67
93844.085
93026.708
53122.762
64752.143
104415.62
85072.306
32678.875
30968.244
80311.456
73367.78
117185.91
115013.33
30394.845
14980.47
23875.017
-5251.8943
92773.026
101519.45
29612.836
100695.71
182192.22
80788.253
-64424.532
-61486.418
-49994.819
-65444.396
82694.678
87155.124
731.95985
24136.027
18915.522
100045.17
138838.24
81173.966
165560.15
130566.81
-127687.99
-120899.83
104631.3
99472.387
330515.13
753582.63
882598.48
394072.87
-247004.08
-549146.3
-342835.4
-66041.361
-8509.0202
5548.9084
-5075.8709
15119.116
20394.347
2166.5164
21449.568
7136.087
10473.625
11391.636
35889.447
18472.83
20239.941
31531.674
-1572.3286
28074.068
19982.313
18448.46
31377.878
27402.228
52176.784
38642.011
18669.222
50138.089
53042.702
27493.951
71714.833
107997.06
89317.829
42238.827
71141.002
112405.91
77467.334
32336.598
39611.195
71793.393
77225.32
121029.77
112284.84
29675.217
14204.019
23801.364
-7474.876
91357.391
98254.29
27849.202
110036.6
187289.86
78505.478
-65565.665
-59108.526
-55505.93
-56996.647
78905.303
73776.39
-3272.8372
26555.651
24043.384
96347.057
132659.77
90712.973
167500.17
114546.78
-141298.46
-107104.66
92921.076
81313.111
324767.35
727589.33
848971.82
344494.56
-288505.79
-577200.1
-370657.68
-95000
-10488.344
6534.0736
-3220.2814
13501.713
20906.976
2452.7502
20298.587
8307.8088
9810.5388
10681.687
36360.587
20723.956
19069.201
29390.813
1133.9137
25254.495
22062.512
19899.845
24391.886
32019.407
60507.554
27854.345
15330.493
57352.028
55091.268
26867.733
60798.993
113614.38
91070.625
39267.974
75470.632
109363.77
74744.797
32021.645
39243.549
71267.486
74423.457
127050.47
113158.6
29353.038
13637.88
21908.112
-307.23575
92866.364
89414.536
29744.917
104925.86
181216.69
77324.844
-63384.418
-65869.094
-60446.146
-58421.019
75538.193
58093.83
-7158.7947
25203.049
29449.468
92885.969
129058.65
98840.449
168230.93
103197.58
-156044.38
-133697.44
73742
54347.881
310024.06
725300.99
817686.61
307239.57
-353748.86
-583247.54
-401181.74
-109744.13
-12249.726
7418.5782
-1137.5023
11360.453
20926.12
4459.7321
19147.523
7950.6629
9288.4194
9125.189
39239.902
23996.39
13488.656
29135.324
6500.2167
19535.906
23032.186
23485.931
18685.515
33818.633
65509.108
19844.876
17574.058
57315.789
55328.867
27429.884
61361.005
113972.24
90036.819
36568.965
77320.781
119615.51
73344.458
31487.176
38551.807
70454.479
77395.82
123075.59
112375.01
32821.206
14099.231
14691.493
-3282.6934
88313.724
83079.387
36908.4
106445.2
174781.03
75870.725
-61850.812
-70199.971
-64315.975
-51106.089
67049.138
46236.856
-9995.2033
25990.287
31715.163
86233.644
123497.56
106609.86
170511.21
96537.286
-172674.6
-121643.94
56170.198
17816.213
277894.84
692477.16
717655.78
262331.94
-407693.76
-638324.15
-458488.52
-138342.04
-13711.704
8082.4152
1200.2706
9704.5007
19587.717
6571.2102
19861.298
7153.465
8116.7384
6108.1207
42160.864
31202.564
6983.7211
23990.315
14894.457
16916.206
20113.874
24998.112
16177.235
35854.54
66467.133
19287.499
17901.769
57172.117
55519.107
27564.504
63388.05
116298.87
88891.532
37795.322
72331.669
109064.9
75451.585
30774.768
37431.532
73032
73270.713
108880.59
107483.85
33671.798
15382.687
17671.23
3472.3482
77928.613
70292.954
23970.604
107055.45
174526.78
75387.453
-62673.624
-72454.078
-77687.93
-51704.662
67526.688
36021.21
-13426.522
29625.087
42714.795
77276.996
118581.23
108479.48
162185.45
90275.035
-181491.17
-124494.69
30996.631
-25300.071
214176.81
609060.76
571345.26
184811.45
-431128.98
-661605.12
-481552.19
-147995.28
-14858.531
8325.2987
3269.6858
9143.1082
18106.061
6932.5363
21465.382
7552.3334
6984.3282
2785.8045
41812.562
38496.463
7027.172
14918.987
17494.658
18089.129
20035.423
25621.18
15885.822
35994.428
67618.272
18926.217
18906.874
58164.566
54296.949
26620.489
59795.512
114455.07
87525.8
38017.373
71362.572
99493.271
70502.134
23979.159
40586.976
83005.76
68047.639
91199.74
104371.56
34155.83
9010.698
7443.3998
-5444.5756
69951.376
65194.664
30821.96
106999.54
168406.32
72309.894
-72973.576
-80156.75
-82784.654
-51210.665
48056.33
23734.134
-12689.815
32958.216
44977.097
70224.445
111449.18
112260.38
155279.46
75251.925
-193434.01
-122410.74
14498.942
-59706.723
120245.93
503745.66
442155.46
93742.371
-461143.06
-641498.45
-466972.93
-162632.44
-15738.735
8355.4156
4481.4541
9077.1984
17965.281
6242.7449
21935.495
8698.8426
5945.0361
1626.2291
39724.94
38684.104
11869.141
12565.541
18554.58
18008.272
20085.154
26431.246
16221.36
36224.423
67504.791
17409.277
19288.893
57653.058
53472.514
30638.519
60982.957
108907.96
84353.184
37029.235
67173.14
92538.371
68237.81
20534.196
34501.529
81786.303
58750.813
73765.427
102011.1
36176.407
13541.634
2379.3658
-14911.772
55037.707
64725.817
40066.729
107270.63
135796.45
64947.812
-114819.13
-103985.86
-91204.381
-51297.656
30157.698
12607.362
-7135.5854
33620.539
46050.611
67228.778
108379.1
119384.71
158631.09
72306.613
-203647.8
-119328.62
-11257.557
-80456.901
50067.636
390899.95
357022.39
41113.507
-500988.74
-629697.22
-451465.49
-186262.56
-16483.766
8569.1218
4939.5693
8359.5963
18804.037
6683.1197
20935.11
9660.1274
3396.584
2619.1475
39269.359
39159.575
12313.598
12090.707
19523.81
18722.719
20132.372
25535.87
15294.16
35524.202
68343.895
16600.495
20269.394
59660.408
52618.438
27947.397
58357.177
103720.96
80688.049
36643.607
68132.95
87466.874
62860.993
21799.875
32632.654
81361.812
43728.544
50985.382
78629.362
24059.736
12390.755
174.54637
-15116.542
47360.412
60042.543
44508.968
98868.154
157373.75
52374.308
-122903.28
-118470.98
-103318.55
-64500.584
15222.222
-8683.3729
347.05205
40771.348
49583.372
64773.509
109872.28
133587.4
167178.23
61495.517
-186122.76
-100409.14
-18967.958
-107483.46
15712.122
293238.79
365175.78
-10184.559
-563086.36
-619316.45
-456299.09
-195436.13
-17088.244
9104.4201
5413.0859
6753.8924
18615.073
9220.2925
19268.45
10858.197
-418.94408
4197.3666
38906.668
39707.111
13386.453
12101.278
18411.407
18270.599
20314.089
25924.399
15886.066
34639.815
63110.293
14972.711
15482.586
58982.658
45969.005
22757.124
61566.964
97366.519
76254.003
37198.647
66474.617
84190.434
58349.909
17680.195
24385.534
82275.727
34267.595
44271.601
47231.789
-11419.267
18856.1
-1207.397
-13652.124
49788.987
53244.337
47314.471
94296.256
161916.62
31891.231
-137030.28
-133795.39
-115768.5
-77274.267
-9257.1871
-20166.999
5880.8994
64211.133
53709.491
60281.779
102529.32
142845.56
187104.02
43939.458
-212891.6
-111924.05
-15337.521
-102566.81
23694.663
284228.64
426508.79
-135881.44
-632110.58
-599836.96
-461917.79
-180093.77
-17603.388
9765.9037
6592.0448
5398.8547
16136.984
12446.605
17654.786
11723.291
-1047.9815
5731.4255
39516.128
39206.316
12976.42
12238.188
18655.909
18525.974
20564.945
25137.414
13354.386
31741.044
52306.684
8618.8537
6323.2286
57383.644
43351.887
20486.183
57355.62
86737.389
68723.719
31302.224
65303.701
81274.016
53294.292
21010.501
21988.314
77772.635
42853.762
47622.534
33257.168
-30576.184
3844.2771
-4468.0153
-13470.473
43636.008
45209.06
42161.548
97165.356
145028.91
5033.7208
-150521.15
-141367.65
-127720.64
-88844.27
-22546.588
-24926.102
9346.3869
70075.448
56581.935
57471.554
94670.285
146719.02
204843.73
39237.33
-202609.76
-145056.74
-19596.975
-102622.62
38127.8
278964.35
336096.44
-190119.28
-604604.14
-605240.03
-455407.85
-178338.08
-18068.518
10157.93
8511.1313
5678.0195
12510.655
13980.744
18173.948
12088.263
-1136.6251
4953.1346
39485.949
39481.465
13104.528
12211.413
17693.074
18631.418
20802.934
24534.735
11540.572
27799.541
41532.771
2275.0654
-1147.8188
56129.536
44460.928
22798.81
54642.914
76746.535
63377.925
25763.055
64605.625
74673.826
46454.995
18239.798
15359.971
73456.008
55319.68
54047.669
17100.171
-39549.537
3477.5641
-10614.601
-1041.7188
48519.912
42339.625
38986.465
102843.49
144730.96
-14830.68
-165475.46
-151976.19
-142122.33
-92824.647
-50938.6
-38495.979
10944.641
72642.881
58521.268
50955.756
86005.041
156918.4
226537.24
24479.534
-200355.34
-141665.11
-21304.867
-108821.03
-18030.692
164729.63
146497.36
-246889.1
-512601.08
-583404.13
-475277.9
-177265.92
-18803.323
10046.134
10480.402
7568.0386
10639.893
14154.178
19282.011
11855.488
-1622.7528
4398.8723
39429.376
38594.393
12947.727
12097.994
17304.977
18776.395
20794.613
23119.038
10713.752
25813.968
32366.392
-2900.7954
-4413.7737
54412.756
42444.159
29017.803
53759.215
66239.605
57618.955
21991.596
68147.399
68757.107
37689.312
11730.634
10454.464
73359.112
66179.661
58258.218
-5281.7734
-61584.277
-12421.329
-23878.624
-2721.9081
55003.153
49584.75
40419.361
108220.69
137173.45
-21324.762
-178215.92
-161539.16
-153720.7
-88252.008
-127753.16
-54819.892
12067.863
72597.45
61121.086
42935.657
81934.65
155049.79
221158.06
14916.363
-202146.22
-138093.92
-31522.031
-122778.34
-66038.322
83466.715
85692.424
-362331.36
-383514.64
-568718.41
-339040.92
-161823.77
-20400.641
9579.1988
11538.816
8968.7096
10635.816
14170.811
19108.663
11945.211
-1360.3401
3077.7142
38404.198
36829.313
12730.467
12049.333
16423.834
18648.18
20855.393
21955.761
11079.099
25200.411
27307.946
-9907.1924
-7934.2999
48350.441
38231.811
35017.802
53218.178
58572.164
45279.166
10794.243
71538.588
71321.891
35942.557
9352.7941
6775.6738
76210.467
79683.398
58170.106
-17509.081
-85115.963
-17552.217
-26445.539
5786.2192
56663.392
50622.964
52420.457
99144.854
133128.46
-16648.789
-181117.89
-149397.33
-172881.33
-96846.989
-74425.502
-17781.564
12302.833
68902.265
45808.609
37675.279
74452.99
151440.23
218143.08
11954.432
-197119.1
-140975.79
-44906.269
-143522.77
-92520.219
30066.756
74206.42
-245907.25
-425769.51
-604130.14
-504409.35
-198044.8
-22720.537
9112.7644
10963.874
9483.7663
10616.553
13987.437
19095.985
12014.007
-1109.5097
2118.3017
36741.927
35763.413
12783.007
12120.404
15824.175
18593.256
21020.571
20938.791
12749.699
26060.559
25840.558
-17301.702
-12485.772
44316.207
32703.072
38888.595
54341.132
59669.397
37932.402
-819.88226
70983.548
68376.765
34444.676
7886.1956
6985.2309
80231.096
93581.674
61976.806
-27625.929
-84386.677
-15151.071
-28597.882
14337.182
59012.903
45187.858
58950.35
96836.913
138610.21
-14618.984
-176751.42
-138621.61
-164851.19
-115830.51
8157.2988
-53443.742
-32125.778
-12664.821
-37936.51
29162.808
74072.143
151953.76
215723.29
15820.812
-187880.16
-135031.69
-55084.446
-169137.5
-146668.64
-18998.735
40124.353
-98958.383
-509469.35
-524905.11
-527478.56
-225615.03
-22512.333
8133.8268
9756.6895
9944.291
10597.607
13872.338
18996.121
12087.482
-689.84666
1916.0434
35444.294
34999.07
12770.946
12237.093
15316.779
18652.62
21207.93
20171.082
15132.186
27064.647
25170.979
-24475.372
-16668.512
43343.949
26626.43
39426.494
56819.649
61960.519
30736.265
-2848.4465
75225.109
57629.288
31904.319
8441.9564
9333.6418
85287.457
103230.37
64681.909
-30640.588
-87593.051
-23755.83
-31030.756
18645.39
58817.588
42639.194
64417.029
92838.66
132854.34
-19189.554
-174799.79
-123788.2
-161703.52
-112595.8
21702.719
-65079.812
-66321.96
-72112.326
-89413.582
3586.6203
75796.577
154102.19
202861
20068.226
-168919.29
-115071.1
-65726.901
-194198.11
-181004.82
-69861.901
23164.069
-125659.6
-553530.26
-330845.22
-566131.57
-192079.39
-13436.034
5715.0126
9053.3878
10180.451
10699.42
13822.76
18892.248
12180.722
-376.38191
1944.5617
34018.879
34146.295
12506.978
12334.62
14987.564
18678.404
21495.435
19633.474
16621.072
26915.359
24203.974
-29019.667
-19412.433
44213.772
22634.195
37628.213
58398.634
62326.101
27360.54
-6371.4814
59643.753
39273.294
28787.486
12075.919
12898.22
90533.432
116521.49
65306.743
-36631.516
-86225.746
-21407.357
-32889.515
25889.399
61461.622
41533.079
68517.048
85730.803
126030.97
-17993.05
-174459.11
-111656.04
-162118.74
-113129.4
55222.983
-52513.74
-71757.468
-83757.917
-102759.59
-14920.291
90059.132
156240.24
201585.47
26588.663
-147343.88
-88099.591
-68442.943
-201283.2
-200872.41
-44905.681
36769.155
-114050.76
-385430.04
-362861.91
-726713.02
-214412.41
5087.6996
4701.1209
8911.6408
10159.337
10885.565
13850.423
18824.971
12338.096
-154.30307
1940.1616
32482.257
33495.258
12325.408
12582.636
14692.316
18544.4
21517.81
19075.809
17589.178
26901.671
22497.328
-32465.273
-20459.878
45952.828
20465.575
36153.572
58641.227
60934.528
26790.501
-11612.389
46316.487
20864.284
26435.134
17572.922
15724.382
94372.122
115682.14
65885.194
-45317.224
-85482.884
-23852.101
-45684.023
25921.961
58832.842
46540.422
71891.682
80144.372
134723.74
-9271.8165
-162236.63
-102200.31
-147135.95
-124131.26
-3088.2899
-50380.378
-82136.852
-87707.962
-105523.03
-60214.929
36217.373
137601.71
176167.91
24009.115
-103145.46
-42478.027
-49790.512
-201114.2
-203184.07
-26043.078
54179.27
-26.600594
-170298.8
-441076.46
-577995.48
-287513.19
11175.475
6282.1263
8738.4371
10168.392
11101.42
13841.01
18711.74
12470.693
-24.781203
2084.9489
31200.913
32898.289
12089.205
13026.512
14648.631
18458.186
21442.521
18484.802
18314.227
26859.548
21900.58
-34862.188
-19767.322
48229.962
18387.236
35213.296
57750.396
59477.539
24739.914
-14930.119
36457.654
12621.116
25840.536
25154.555
18311.196
93953.895
114303.9
63861.464
-52441.052
-89418.546
-28897.246
-46555.229
31968.763
59805.633
43593.266
75369.786
82741.621
132416.39
-16152.337
-136872.41
-98492.434
-159843.85
-120289.49
-17593.136
-35483.177
-88710.324
-97426.875
-104539.82
-38061.695
4276.3475
109250.25
127433.87
27733.639
-48554.621
12234.303
-26601.578
-185421.25
-176339.77
84856.203
32777.696
120245.61
-90587.027
-500251.18
-321682.66
-389639.05
2490.0287
7299.784
8675.3708
10170.631
11290.63
13821.89
18619.174
12539.194
-30.58867
2405.8781
30016.412
32322.117
12059.438
13639.411
14890.142
18417.835
20971.079
17767.544
19156.619
27672.763
22066.129
-35970.862
-18013.889
50329.274
15662.285
33544.52
57409.936
59540.86
24128.73
-15187.435
36309.389
14326.902
21645.782
35549.173
20517.355
92385.349
110076.28
58189.183
-60956.306
-91184.176
-33847.948
-58403.807
22627.065
67623.58
46975.39
76670.729
67591.17
126937.78
-25157.113
-115080.14
-100942.27
-174079.19
-112524.05
25261.39
-29490.596
-95748.433
-105636.6
-106224.66
-29683.302
16182.698
106536.41
135584.23
44166.487
-27161.174
34167.583
-11338.077
-170935.45
-135056.1
229936.96
225547.05
221066.67
-30603.72
-517723.56
-494206.44
-490083.68
2582.252
7177.393
8601.6492
10131.428
11428.104
13768.074
18519.811
12592.28
-170.37896
2876.2176
28949.301
31567.473
12514.345
14659.991
15461.147
18173.443
20023.145
16947.369
19631.151
28491.415
22984.325
-36270.784
-15522.924
51287.871
13262.905
31923.647
57758.936
59406.42
23432.424
-12650.153
40843.363
21106.306
18315.646
34127.53
23227.816
89161.861
108651.77
51606.204
-72476.233
-98102.818
-36764.495
-66646.468
25609.398
76921.39
47182.516
76144.54
70163.165
107836.83
-38643.611
-102292.53
-93276.334
-188097.59
-104132.05
54578.692
-25937.98
-113723.64
-113997.95
-96201.725
-39064.452
22340.985
107969.88
134508.57
46417.766
-24476.873
30433.748
-21674.207
-154616.36
-88678.134
190223.54
298642.72
231216.75
3993.884
-388248.44
-525506.94
-474239.67
2955.7442
7572.1657
8583.5705
10037.89
11513.825
13660.113
18400.737
12625.089
-482.77189
3410.347
27957.287
30564.599
13303.812
15899.478
16272.896
17733.306
18914.481
16110.33
19910.731
29011.244
24920.939
-34727.637
-12986.254
50954.228
12947.422
30835.713
56084.997
57037.655
22604.673
-10162.877
39677.069
18702.742
15636.979
32834.542
26749.85
87269.904
106007.83
47627.263
-84067.723
-109509.68
-41799.186
-72104.413
28687.805
78976.076
46375.97
72029.477
51465.991
67515.288
-51316.995
-85464.984
-81982.54
-188092.22
-90157.046
64137.145
-27386.532
-130886.53
-118226.73
-98284.248
-21620.127
26797.982
88090.939
82873.746
39927.786
-18881.148
19680
-44547.556
-165131.62
-88184.372
158990.74
231297.43
199164.15
8998.2209
-289757.91
-481119.74
-290560.76
3480.1128
7853.8683
8560.2959
9903.5671
11545.128
13499.812
18256.664
12624.858
-997.43993
3802.4069
26897.846
29304.884
13918.021
16729.301
16942.623
17400.789
18011.237
15670.468
20462.966
30112.547
27039.357
-31123.818
-9514.7052
49737.299
15143.512
30440.285
51783.247
51818.955
17597.725
-9786.3622
41443.703
-5488.748
4779.9
31356.183
30198.087
86115.124
102883.71
45168.337
-90432.527
-110508.41
-46081.491
-84253.847
19965.803
77541.771
48853.031
66664.622
47113.78
41453.19
-44056.485
-68216.629
-77616.682
-199058.78
-87693.402
77560.203
-40940.096
-162420.59
-121603.66
-75299.747
89.85782
27000.663
76049.778
94974.397
35368.625
-14598.752
7645.872
-62676.427
-158624.5
-75412.069
145900.69
240241.71
178745.64
14276.945
-220103.99
-428504.54
-179848.29
3968.6437
8197.6086
8525.0521
9752.4616
11534.023
13305.137
18089.537
12584.379
-1744.7936
3840.3633
25690.863
27690.287
14089.813
17075.594
16884.421
16644.284
17634.828
15662.086
20978.326
31277.73
29196.211
-25517.277
-3889.3393
47935.293
17951.475
30383.227
47508.488
47994.112
10123.505
-11091.529
43842.075
-21589.626
-5054.2486
34237.204
34149.881
84931.408
100178.44
37043.466
-95001.027
-103973.52
-48388.889
-95354.098
9317.301
84550.391
53394.727
62528.251
30953.796
12480.906
-27819.354
-57340.696
-82989.813
-217619.22
-109770.44
81279.017
-47638.817
-170196.99
-146758.27
-75931.315
-7633.5334
32859.345
65812.136
70539.22
26106.089
-11009.394
524.39321
-64558.997
-140100.13
-54028.161
137929.41
208664
156376.17
21754.641
-163653.24
-342888.57
-131487.43
4473.9398
8326.0396
8566.4871
9626.4027
11504.063
13118.346
17894.008
12498.762
-2728.6576
3389.1339
24391.306
25812.551
14011.427
17078.394
16408.314
15877.039
17866.26
15884.514
21277.021
32272.237
30938.685
-22118.012
1569.0056
46441.952
19753.483
32132.574
46093.703
47413.005
6171.3573
-10113.392
52880.45
39417.747
5352.9628
30318.459
37460.034
82267.718
96325.582
27861.308
-107396.72
-107356.64
-50553.487
-104808.51
5336.4038
96439.788
42680.275
64267.464
24058.398
8525.3722
-22553.945
-59988.295
-97549.054
-242468.11
-124791.47
100312.34
-40041.952
-178796.28
-145811.19
-108054.9
-41710.446
26457.917
52482.81
53802.017
16102.863
-11128.282
-4035.7037
-57274.52
-98474.87
-30075.299
129055.19
184210.62
138182.62
23742.9
-125267.2
-261931.01
-99248.086
4882.2896
8653.4011
8620.438
9550.2261
11459.662
12952.97
17667.727
12355.318
-3852.7802
2461.7259
22942.027
23918.569
14092.806
17023.163
16088.963
15143.798
18462.145
16157.803
21309.103
32700.891
32703.487
-17575.529
6850.6776
44837.667
21196.202
35162.662
47711.711
49084.724
3238.9705
-3748.4978
60636.718
78225.141
9333.7611
12330.896
39675.44
78526.502
91381.781
19775.804
-119995.63
-121577.51
-51198.652
-112245.63
3162.6687
84415.872
21382.577
73241.876
20974.2
7266.3251
-13158.122
-63790.488
-113874.71
-265762.47
-118304.53
104272.88
-40640.472
-183894.99
-158026.72
-91958.616
-43204.251
17124.688
39724.474
36974.431
4332.8633
-13191.33
-7035.2462
-48093.434
-71262.976
-9042.6219
119179.71
162713.96
121954.24
27032.244
-93485.8
-197709.64
-73889.472
5296.7903
8568.4781
8765.5117
9538.5909
11402.331
12806.808
17408.789
12148.116
-4899.5061
1242.3708
21334.823
22306.694
14253.246
16919.114
15933.996
14299.001
18875.32
16700.425
21710.405
32440.298
34482.384
-10066.179
12113.272
43152.621
23544.71
37313.59
50345.285
51957.258
3174.6452
5135.9272
66641.54
86539.89
8576.3512
296.65668
40636.014
74235.862
88594.876
12609.101
-124648.97
-120310.18
-54119.118
-117628.13
3673.2942
67146.811
15998.726
77139.762
12347.358
10062.305
10574.307
-52108.758
-106087.24
-263971.68
-116135.31
99644.138
-60938.229
-189110.33
-146040.83
-79554.568
-32523.069
8930.324
26172.09
18340.705
-9318.1955
-17357.52
-9176.3406
-38248.544
-48855.262
7374.3889
109351.98
143738.63
108169.67
28874.789
-70061.624
-148010.73
-54682.123
5661.9642
8960.1477
8861.523
9580.7096
11337.111
12666.015
17110.64
11873.006
-5450.8127
68.248331
19773.444
20861.826
14433.308
16634.75
15644.584
13287.342
19006.646
17685.676
21827.547
31344.351
35459.046