/*--------------------------------*- C++ -*----------------------------------*\
| =========                 |                                                 |
| \\      /  F ield         | OpenFOAM: The Open Source CFD Toolbox           |
|  \\    /   O peration     | Version:  2.3.0                                 |
|   \\  /    A nd           | Web:      www.OpenFOAM.org                      |
|    \\/     M anipulation  |                                                 |
\*---------------------------------------------------------------------------*/
FoamFile
{
    version     2.0;
    format      ascii;
    class       surfaceScalarField;
    location    "8e-06";
    object      phi;
}
// * * * * * * * * * * * * * * * * * * * * * * * * * * * * * * * * * * * * * //

dimensions      [0 3 -1 0 0 0 0];

internalField   nonuniform List<scalar> 
14825
(
1.0349248e-09
-2.1163435e-11
1.0542655e-09
-1.934074e-11
1.0756181e-09
-2.1352552e-11
1.0944893e-09
-1.887119e-11
1.1161349e-09
-2.1645644e-11
1.1361182e-09
-1.9983283e-11
1.1563497e-09
-2.023145e-11
1.1766725e-09
-2.0322875e-11
1.1954753e-09
-1.8802741e-11
1.2173096e-09
-2.1834287e-11
1.2339548e-09
-1.6645203e-11
1.2552099e-09
-2.1255112e-11
1.275371e-09
-2.0161097e-11
1.2932152e-09
-1.7844221e-11
1.3137458e-09
-2.0530615e-11
1.3315018e-09
-1.7756016e-11
1.3504775e-09
-1.8975662e-11
1.3700904e-09
-1.96129e-11
1.3888985e-09
-1.8808132e-11
1.4062097e-09
-1.7311185e-11
1.4237198e-09
-1.7510126e-11
1.4436266e-09
-1.9906787e-11
1.4607868e-09
-1.7160172e-11
1.4778746e-09
-1.7087844e-11
1.4963282e-09
-1.8453605e-11
1.5111475e-09
-1.4819295e-11
1.5294466e-09
-1.8299077e-11
1.5479795e-09
-1.8532844e-11
1.5615724e-09
-1.3592888e-11
1.5794727e-09
-1.7900348e-11
1.5949284e-09
-1.5455744e-11
1.6086675e-09
-1.3739043e-11
1.6276827e-09
-1.9015168e-11
1.6421949e-09
-1.4512257e-11
1.6529833e-09
-1.0788418e-11
1.6746844e-09
-2.1701102e-11
1.6831665e-09
-8.482041e-12
1.6973752e-09
-1.4208682e-11
1.7170778e-09
-1.9702685e-11
1.7246588e-09
-7.5809381e-12
1.7409247e-09
-1.6265924e-11
1.7506511e-09
-9.7264393e-12
1.7633399e-09
-1.2688787e-11
1.7797261e-09
-1.6386199e-11
1.7881893e-09
-8.4631869e-12
1.8022627e-09
-1.4073399e-11
1.8167671e-09
-1.4504425e-11
1.8277133e-09
-1.0946209e-11
1.8357397e-09
-8.0263939e-12
1.8468697e-09
-1.1129918e-11
1.8554674e-09
-8.5976924e-12
1.863131e-09
-7.6636073e-12
1.8711288e-09
-7.9978728e-12
1.8814963e-09
-1.036744e-11
1.8923895e-09
-1.089325e-11
1.8975532e-09
-5.1637038e-12
1.9079561e-09
-1.0402881e-11
1.9164534e-09
-8.4973156e-12
1.9260493e-09
-9.5958944e-12
1.9359269e-09
-9.8775931e-12
1.9482498e-09
-1.2322877e-11
1.9561858e-09
-7.9360422e-12
1.9668503e-09
-1.066451e-11
1.9791101e-09
-1.2259763e-11
1.9862524e-09
-7.1423042e-12
1.9871299e-09
-8.7745349e-13
2.0002508e-09
-1.3120909e-11
1.9946951e-09
5.5557038e-12
2.0001345e-09
-5.4394674e-12
2.0227857e-09
-2.2651127e-11
2.0267787e-09
-3.9930141e-12
2.0293196e-09
-2.5408978e-12
2.0438278e-09
-1.4508208e-11
2.0400479e-09
3.7798976e-12
1.8135562e-12
2.8640267e-09
-8.3224179e-11
2.9209382e-09
-7.6252227e-11
2.9836496e-09
-8.406395e-11
3.0398452e-09
-7.5066796e-11
3.1030488e-09
-8.4849315e-11
3.1627339e-09
-7.9668302e-11
3.2223672e-09
-7.9864781e-11
3.2829532e-09
-8.0908872e-11
3.339597e-09
-7.5446597e-11
3.4030693e-09
-8.5306588e-11
3.4545366e-09
-6.8112464e-11
3.5173229e-09
-8.4041462e-11
3.5779172e-09
-8.0755332e-11
3.6321576e-09
-7.2084597e-11
3.6927399e-09
-8.1112989e-11
3.7476764e-09
-7.2692507e-11
3.8047504e-09
-7.6049633e-11
3.8639474e-09
-7.8809899e-11
3.9214329e-09
-7.6293677e-11
3.974573e-09
-7.0451217e-11
4.0277699e-09
-7.0707073e-11
4.0879141e-09
-8.0050998e-11
4.1418333e-09
-7.1079358e-11
4.1941581e-09
-6.9412619e-11
4.2499259e-09
-7.4221375e-11
4.2976773e-09
-6.2570754e-11
4.3532921e-09
-7.3913853e-11
4.4104912e-09
-7.5731932e-11
4.4548326e-09
-5.7934305e-11
4.509404e-09
-7.2471776e-11
4.5591675e-09
-6.5219201e-11
4.6038491e-09
-5.8420626e-11
4.6616959e-09
-7.6861968e-11
4.7084922e-09
-6.1308575e-11
4.7464337e-09
-4.8729948e-11
4.8117918e-09
-8.7059149e-11
4.8426848e-09
-3.9375078e-11
4.8898001e-09
-6.1324023e-11
4.9522312e-09
-8.2133723e-11
4.9770452e-09
-3.2394927e-11
5.0341075e-09
-7.3328247e-11
5.0727123e-09
-4.833127e-11
5.1157656e-09
-5.5742034e-11
5.1628164e-09
-6.3436992e-11
5.1948752e-09
-4.0522059e-11
5.2371032e-09
-5.6301381e-11
5.285021e-09
-6.2422191e-11
5.3181452e-09
-4.4070399e-11
5.3581272e-09
-4.8008368e-11
5.4056317e-09
-5.8634423e-11
5.4389575e-09
-4.1923489e-11
5.4685257e-09
-3.7231846e-11
5.493739e-09
-3.321123e-11
5.5317849e-09
-4.8413308e-11
5.5716942e-09
-5.0802548e-11
5.602275e-09
-3.5744537e-11
5.6374014e-09
-4.5529247e-11
5.661557e-09
-3.265291e-11
5.696876e-09
-4.4914896e-11
5.7466594e-09
-5.9660946e-11
5.7668828e-09
-3.2546323e-11
5.771375e-09
-1.2428187e-11
5.8108752e-09
-5.0164763e-11
5.8437731e-09
-4.5157667e-11
5.8837399e-09
-4.7109119e-11
5.9144272e-09
-3.1564767e-11
5.9439979e-09
-4.2691535e-11
5.9407576e-09
8.7959446e-12
5.9624265e-09
-2.7108324e-11
6.0168396e-09
-7.7064224e-11
6.0177177e-09
-4.8711644e-12
6.1110353e-09
-9.5858457e-11
6.1449051e-09
-4.837803e-11
6.1346956e-09
1.3989386e-11
1.3211201e-11
4.3687639e-09
-1.838786e-10
4.4618428e-09
-1.6933108e-10
4.563117e-09
-1.8533815e-10
4.6568255e-09
-1.6877534e-10
4.7585237e-09
-1.8654744e-10
4.8579633e-09
-1.7910795e-10
4.9553478e-09
-1.772493e-10
5.0543199e-09
-1.7988092e-10
5.1504913e-09
-1.7161798e-10
5.2511612e-09
-1.8597653e-10
5.340436e-09
-1.5738723e-10
5.4409277e-09
-1.8453323e-10
5.5422162e-09
-1.8204376e-10
5.6353773e-09
-1.6524575e-10
5.7332539e-09
-1.7898953e-10
5.8287895e-09
-1.6822814e-10
5.9206226e-09
-1.6788271e-10
6.0193102e-09
-1.7749756e-10
6.1178932e-09
-1.7487664e-10
6.2060249e-09
-1.5858289e-10
6.2996426e-09
-1.643248e-10
6.4010223e-09
-1.8143075e-10
6.4942795e-09
-1.6433648e-10
6.5838062e-09
-1.5893938e-10
6.675556e-09
-1.6597115e-10
6.7601004e-09
-1.4711512e-10
6.8535783e-09
-1.6739177e-10
6.9510261e-09
-1.7317973e-10
7.0334134e-09
-1.4032166e-10
7.1262492e-09
-1.6530756e-10
7.2121965e-09
-1.5116645e-10
7.2936731e-09
-1.3989721e-10
7.3927416e-09
-1.7593049e-10
7.4738964e-09
-1.4246338e-10
7.5442635e-09
-1.19097e-10
7.6573996e-09
-2.0019525e-10
7.7162567e-09
-9.8232236e-11
7.7995883e-09
-1.4465563e-10
7.9076198e-09
-1.9016521e-10
7.9596464e-09
-8.4421486e-11
8.0486839e-09
-1.6236578e-10
8.1180758e-09
-1.1772316e-10
8.1933856e-09
-1.3105179e-10
8.2744235e-09
-1.4447489e-10
8.3477267e-09
-1.1382534e-10
8.4283043e-09
-1.3687894e-10
8.5168906e-09
-1.5100852e-10
8.5746288e-09
-1.0180853e-10
8.649812e-09
-1.2319156e-10
8.7372385e-09
-1.4606096e-10
8.8043248e-09
-1.0900984e-10
8.8652788e-09
-9.8185837e-11
8.9135886e-09
-8.1520996e-11
8.9797702e-09
-1.1459495e-10
9.055704e-09
-1.2673635e-10
9.12448e-09
-1.0452046e-10
9.1968727e-09
-1.1792203e-10
9.2408599e-09
-7.6640098e-11
9.3021184e-09
-1.0617341e-10
9.3964083e-09
-1.5395084e-10
9.4400945e-09
-7.6232503e-11
9.4663369e-09
-3.8670555e-11
9.559325e-09
-1.4315288e-10
9.6413995e-09
-1.2723216e-10
9.7104564e-09
-1.1616607e-10
9.7530491e-09
-7.4157402e-11
9.8079144e-09
-9.7556877e-11
9.8131243e-09
3.5860995e-12
9.8489049e-09
-6.2888931e-11
9.9768424e-09
-2.0500173e-10
1.0033149e-08
-6.1177481e-11
1.0232794e-08
-2.9550393e-10
1.017664e-08
7.7759427e-12
1.0219654e-08
-2.9024912e-11
1.034075e-11
5.5930877e-09
-3.2049554e-10
5.7210736e-09
-2.9731701e-10
5.8585221e-09
-3.2278664e-10
5.989061e-09
-2.9931426e-10
6.1267402e-09
-3.2422665e-10
6.2661052e-09
-3.1847297e-10
6.3993698e-09
-3.1051392e-10
6.533522e-09
-3.1403306e-10
6.6708511e-09
-3.0894713e-10
6.8060892e-09
-3.2121455e-10
6.9351032e-09
-2.8640126e-10
7.0724009e-09
-3.218309e-10
7.2152587e-09
-3.2490159e-10
7.3439191e-09
-2.9390615e-10
7.476976e-09
-3.1204642e-10
7.6146297e-09
-3.058819e-10
7.7410168e-09
-2.942698e-10
7.889367e-09
-3.258478e-10
8.0253431e-09
-3.1085271e-10
8.1441749e-09
-2.7741467e-10
8.2814813e-09
-3.016312e-10
8.4204369e-09
-3.2038634e-10
8.5562205e-09
-3.0012013e-10
8.6865641e-09
-2.8928292e-10
8.8139756e-09
-2.9338266e-10
8.941673e-09
-2.7481252e-10
9.0778579e-09
-3.0357671e-10
9.2138379e-09
-3.0915967e-10
9.3351649e-09
-2.6164868e-10
9.4682401e-09
-2.9838273e-10
9.5925319e-09
-2.754583e-10
9.7112714e-09
-2.586367e-10
9.8523581e-09
-3.1701717e-10
9.977285e-09
-2.6739029e-10
1.0076098e-08
-2.1790974e-10
1.0235043e-08
-3.5914025e-10
1.0339198e-08
-2.0238721e-10
1.0456457e-08
-2.6191512e-10
1.0600218e-08
-3.3392591e-10
1.0698248e-08
-1.8245161e-10
1.0826815e-08
-2.9093306e-10
1.0939177e-08
-2.3008521e-10
1.1061374e-08
-2.5324834e-10
1.1182419e-08
-2.6552028e-10
1.1273163e-08
-2.0456938e-10
1.1359064e-08
-2.2277933e-10
1.1500962e-08
-2.9290726e-10
1.1621864e-08
-2.2270975e-10
1.1749707e-08
-2.5103478e-10
1.185716e-08
-2.5351393e-10
1.1957584e-08
-2.0943356e-10
1.208317e-08
-2.2377187e-10
1.2155317e-08
-1.5366826e-10
1.2252807e-08
-2.1208504e-10
1.2375864e-08
-2.4979287e-10
1.2480986e-08
-2.0964268e-10
1.2596127e-08
-2.3306283e-10
1.2681032e-08
-1.6154565e-10
1.276377e-08
-1.8891097e-10
1.2902629e-08
-2.9281021e-10
1.3000858e-08
-1.7446176e-10
1.3044679e-08
-8.2491433e-11
1.3168111e-08
-2.6658463e-10
1.331512e-08
-2.7424115e-10
1.3435052e-08
-2.3609865e-10
1.3486248e-08
-1.2535246e-10
1.3589317e-08
-2.0062657e-10
1.3641306e-08
-4.840298e-11
1.370641e-08
-1.279926e-10
1.3909014e-08
-4.076056e-10
1.3990879e-08
-1.4304226e-10
1.4258881e-08
-5.6350653e-10
1.4114844e-08
1.5181314e-10
1.4285364e-08
-1.9954527e-10
-1.9521263e-11
6.5761099e-09
-4.9083412e-10
6.7369958e-09
-4.5820291e-10
6.9095435e-09
-4.9533439e-10
7.0753347e-09
-4.6510539e-10
7.2447531e-09
-4.9364505e-10
7.4221876e-09
-4.959075e-10
7.5929821e-09
-4.813084e-10
7.759555e-09
-4.8060596e-10
7.937625e-09
-4.8701717e-10
8.1063097e-09
-4.8989919e-10
8.2755006e-09
-4.5559224e-10
8.446988e-09
-4.9331821e-10
8.6291243e-09
-5.0703791e-10
8.795313e-09
-4.6009491e-10
8.9706591e-09
-4.8739247e-10
9.1433991e-09
-4.7862188e-10
9.305102e-09
-4.5597273e-10
9.4970108e-09
-5.1775656e-10
9.6650599e-09
-4.7890185e-10
9.8374437e-09
-4.497985e-10
1.0011891e-08
-4.760783e-10
1.0179051e-08
-4.8754686e-10
1.0359519e-08
-4.8058729e-10
1.0520961e-08
-4.5072518e-10
1.0702161e-08
-4.74583e-10
1.08754e-08
-4.4805107e-10
1.1039244e-08
-4.6742146e-10
1.1226482e-08
-4.9639716e-10
1.1392556e-08
-4.277231e-10
1.1554127e-08
-4.5995317e-10
1.1732591e-08
-4.5392288e-10
1.1896425e-08
-4.2247064e-10
1.2067912e-08
-4.8850342e-10
1.2249259e-08
-4.4873748e-10
1.2391573e-08
-3.6022363e-10
1.257257e-08
-5.4013762e-10
1.271205e-08
-3.4186707e-10
1.2884979e-08
-4.3484429e-10
1.3051235e-08
-5.0018173e-10
1.3183667e-08
-3.1488392e-10
1.3373351e-08
-4.806172e-10
1.3549081e-08
-4.0581526e-10
1.3694626e-08
-3.987926e-10
1.3866076e-08
-4.3697034e-10
1.4042939e-08
-3.8143293e-10
1.4169708e-08
-3.4954844e-10
1.4320159e-08
-4.4335812e-10
1.4460108e-08
-3.6265867e-10
1.4624662e-08
-4.155886e-10
1.4763582e-08
-3.9243448e-10
1.4959971e-08
-4.0582193e-10
1.5136041e-08
-3.9984166e-10
1.5210505e-08
-2.2813297e-10
1.5367597e-08
-3.6917652e-10
1.5534564e-08
-4.1675979e-10
1.5706315e-08
-3.81394e-10
1.5871965e-08
-3.9871269e-10
1.5965852e-08
-2.5543264e-10
1.6103172e-08
-3.2623149e-10
1.6291927e-08
-4.8156473e-10
1.6406582e-08
-2.8911639e-10
1.6539227e-08
-2.1513681e-10
1.6726174e-08
-4.535316e-10
1.6864883e-08
-4.1295014e-10
1.708528e-08
-4.5649601e-10
1.7171878e-08
-2.1195054e-10
1.7197883e-08
-2.266315e-10
1.7239817e-08
-9.0336382e-11
1.7502398e-08
-3.9057427e-10
1.7797311e-08
-7.0251839e-10
1.7912841e-08
-2.5857247e-10
1.8249259e-08
-8.9992368e-10
1.8244673e-08
1.5639892e-10
1.8362187e-08
-3.1705907e-10
-5.133778e-11
7.3508604e-09
-6.9184797e-10
7.5440328e-09
-6.5137524e-10
7.750217e-09
-7.015186e-10
7.9502228e-09
-6.6511122e-10
8.1486275e-09
-6.9204973e-10
8.3625463e-09
-7.0982628e-10
8.5672441e-09
-6.8600622e-10
8.7667052e-09
-6.8006705e-10
8.9839821e-09
-7.0429414e-10
9.1846969e-09
-6.9061401e-10
9.3942443e-09
-6.6513962e-10
9.6002213e-09
-6.9929516e-10
9.8174282e-09
-7.2424481e-10
1.0020847e-08
-6.6351351e-10
1.0235565e-08
-7.0211097e-10
1.0445354e-08
-6.8841084e-10
1.0648974e-08
-6.5959256e-10
1.0875245e-08
-7.4402754e-10
1.1097161e-08
-7.0081807e-10
1.1294397e-08
-6.4703426e-10
1.15062e-08
-6.8788147e-10
1.1736884e-08
-7.1823109e-10
1.1930875e-08
-6.745778e-10
1.214345e-08
-6.6329977e-10
1.2362488e-08
-6.9362104e-10
1.2570367e-08
-6.5593052e-10
1.2800635e-08
-6.9768902e-10
1.2999683e-08
-6.9544522e-10
1.3225466e-08
-6.5350634e-10
1.3441194e-08
-6.7568148e-10
1.364282e-08
-6.5554895e-10
1.3865877e-08
-6.455272e-10
1.4081258e-08
-7.0388461e-10
1.429616e-08
-6.6363989e-10
1.4484839e-08
-5.4890225e-10
1.4728746e-08
-7.8404413e-10
1.4900895e-08
-5.1401672e-10
1.5126704e-08
-6.6065291e-10
1.5363156e-08
-7.3663381e-10
1.5510263e-08
-4.6199096e-10
1.5695134e-08
-6.654885e-10
1.5955659e-08
-6.6634021e-10
1.6132589e-08
-5.7572287e-10
1.632038e-08
-6.2476042e-10
1.6582677e-08
-6.4373042e-10
1.6790405e-08
-5.5727598e-10
1.6957381e-08
-6.1033462e-10
1.7186547e-08
-5.9182414e-10
1.7446418e-08
-6.7545955e-10
1.7587508e-08
-5.3352532e-10
1.7755112e-08
-5.7342606e-10
1.7951948e-08
-5.9667695e-10
1.8150758e-08
-4.269434e-10
1.8330362e-08
-5.4878029e-10
1.8534529e-08
-6.2092642e-10
1.8792581e-08
-6.3944658e-10
1.902684e-08
-6.3297194e-10
1.9160517e-08
-3.8910909e-10
1.9322223e-08
-4.8793745e-10
1.9551338e-08
-7.1068007e-10
1.9752301e-08
-4.900797e-10
1.9910005e-08
-3.7283988e-10
2.0126232e-08
-6.6975954e-10
2.0395276e-08
-6.8199349e-10
2.0575827e-08
-6.3704678e-10
2.0721676e-08
-3.5780042e-10
2.0949311e-08
-4.5426631e-10
2.0970109e-08
-1.1113447e-10
2.1166533e-08
-5.8699834e-10
2.1658827e-08
-1.194812e-09
2.1635813e-08
-2.3555813e-10
2.2020277e-08
-1.2843883e-09
2.2310573e-08
-1.3389693e-10
2.2463365e-08
-4.6985114e-10
-1.0562318e-10
7.9476117e-09
-9.2122318e-10
8.1725188e-09
-8.7628225e-10
8.4119334e-09
-9.409332e-10
8.6430759e-09
-8.9625378e-10
8.8680245e-09
-9.1699835e-10
9.1152596e-09
-9.5706136e-10
9.3520695e-09
-9.2281609e-10
9.5811912e-09
-9.0918873e-10
9.8376191e-09
-9.607221e-10
1.0072522e-08
-9.255171e-10
1.0320736e-08
-9.1335348e-10
1.056235e-08
-9.4090903e-10
1.0810868e-08
-9.7276242e-10
1.105051e-08
-9.031555e-10
1.129971e-08
-9.5131161e-10
1.155977e-08
-9.4847069e-10
1.1787078e-08
-8.8690092e-10
1.2051208e-08
-1.0081569e-09
1.2325574e-08
-9.7518387e-10
1.2546609e-08
-8.6806939e-10
1.2829898e-08
-9.7117111e-10
1.3078732e-08
-9.6706502e-10
1.3326175e-08
-9.2202047e-10
1.3572801e-08
-9.0992592e-10
1.3809169e-08
-9.299886e-10
1.4087093e-08
-9.3385509e-10
1.4321035e-08
-9.3163074e-10
1.4604466e-08
-9.788761e-10
1.4863441e-08
-9.1248123e-10
1.5105914e-08
-9.1815439e-10
1.5392071e-08
-9.4170589e-10
1.5632058e-08
-8.8551421e-10
1.5888543e-08
-9.603698e-10
1.6176361e-08
-9.5145766e-10
1.6382723e-08
-7.5526482e-10
1.6680704e-08
-1.0820255e-09
1.6926819e-08
-7.6013121e-10
1.7177058e-08
-9.1089169e-10
1.7451998e-08
-1.0115745e-09
1.7707538e-08
-7.1753093e-10
1.7911142e-08
-8.6909246e-10
1.8216527e-08
-9.7172525e-10
1.846972e-08
-8.289159e-10
1.8687121e-08
-8.4216106e-10
1.8934875e-08
-8.9148466e-10
1.9197397e-08
-8.1979748e-10
1.9403932e-08
-8.1686931e-10
1.9680567e-08
-8.6845965e-10
2.0006737e-08
-1.0016295e-09
2.0273064e-08
-7.9985226e-10
2.0520082e-08
-8.2044369e-10
2.0724775e-08
-8.0137046e-10
2.0895589e-08
-5.9775704e-10
2.1083813e-08
-7.3700443e-10
2.1354702e-08
-8.9181599e-10
2.1655697e-08
-9.4044112e-10
2.2019026e-08
-9.9630142e-10
2.2232003e-08
-6.0208569e-10
2.2436373e-08
-6.9230721e-10
2.2730491e-08
-1.0047983e-09
2.2982872e-08
-7.4246065e-10
2.3195156e-08
-5.851238e-10
2.3529732e-08
-1.0043356e-09
2.3798808e-08
-9.5106988e-10
2.3940943e-08
-7.7918174e-10
2.4054419e-08
-4.7127578e-10
2.4238315e-08
-6.3816251e-10
2.4536066e-08
-4.0888527e-10
2.483478e-08
-8.8571288e-10
2.54495e-08
-1.809532e-09
2.5829303e-08
-6.1536058e-10
2.6021605e-08
-1.4766905e-09
2.5923681e-08
-3.5973407e-11
2.6421682e-08
-9.6785216e-10
-3.0546774e-10
8.3957925e-09
-1.1803088e-09
8.6503113e-09
-1.130801e-09
8.9166424e-09
-1.2072643e-09
9.1806711e-09
-1.1602824e-09
9.4290707e-09
-1.1653979e-09
9.700237e-09
-1.2282276e-09
9.9707809e-09
-1.19336e-09
1.0232381e-08
-1.1707891e-09
1.0526967e-08
-1.2553083e-09
1.0795103e-08
-1.1936526e-09
1.107797e-08
-1.1962206e-09
1.1355581e-08
-1.2185197e-09
1.164519e-08
-1.2623718e-09
1.1907937e-08
-1.1659026e-09
1.2194869e-08
-1.2382435e-09
1.2509908e-08
-1.2635098e-09
1.2761479e-08
-1.1384716e-09
1.3070207e-08
-1.3168853e-09
1.3372822e-08
-1.2777987e-09
1.3640797e-08
-1.1360444e-09
1.3960052e-08
-1.2904259e-09
1.4245248e-08
-1.2522604e-09
1.454007e-08
-1.2168426e-09
1.4807679e-08
-1.1775353e-09
1.5138928e-08
-1.2612378e-09
1.5412016e-08
-1.2069433e-09
1.5695516e-08
-1.2151302e-09
1.6011944e-08
-1.295304e-09
1.6310446e-08
-1.2109834e-09
1.6619651e-08
-1.2273591e-09
1.6925269e-08
-1.2473244e-09
1.725997e-08
-1.2202152e-09
1.7539813e-08
-1.240213e-09
1.7854946e-08
-1.2665903e-09
1.8169671e-08
-1.0699896e-09
1.8468448e-08
-1.3808023e-09
1.8773361e-08
-1.0650445e-09
1.9106897e-08
-1.2444282e-09
1.9371534e-08
-1.2762116e-09
1.9677383e-08
-1.0233792e-09
1.9986889e-08
-1.1785989e-09
2.0286379e-08
-1.2712155e-09
2.0613787e-08
-1.1563235e-09
2.0925365e-08
-1.1537394e-09
2.121078e-08
-1.1768999e-09
2.1528472e-08
-1.1374894e-09
2.1829433e-08
-1.1178304e-09
2.2086295e-08
-1.1253214e-09
2.2414584e-08
-1.3299186e-09
2.2738741e-08
-1.1240092e-09
2.3025331e-08
-1.1070339e-09
2.3348599e-08
-1.1246384e-09
2.365755e-08
-9.0670762e-10
2.3888599e-08
-9.6805335e-10
2.4137384e-08
-1.140601e-09
2.4445276e-08
-1.2483338e-09
2.4817301e-08
-1.3683261e-09
2.5064053e-08
-8.4883788e-10
2.5410633e-08
-1.0388865e-09
2.5801061e-08
-1.3952271e-09
2.6138711e-08
-1.0801104e-09
2.6378485e-08
-8.2489743e-10
2.6786608e-08
-1.4124584e-09
2.7236424e-08
-1.4008859e-09
2.7492226e-08
-1.0349836e-09
2.7429449e-08
-4.0849933e-10
2.7595481e-08
-8.041948e-10
2.7842969e-08
-6.5637274e-10
2.8327493e-08
-1.3702366e-09
2.8904874e-08
-2.3869138e-09
2.9503238e-08
-1.2137246e-09
3.0002239e-08
-1.975691e-09
3.002896e-08
-6.2694658e-11
3.0298164e-08
-1.237056e-09
-6.0092707e-10
8.7221845e-09
-1.4747853e-09
9.0000374e-09
-1.4086539e-09
9.2826129e-09
-1.4898398e-09
9.5798676e-09
-1.4575372e-09
9.8514728e-09
-1.4370032e-09
1.0144312e-08
-1.5210671e-09
1.045075e-08
-1.4997977e-09
1.0746589e-08
-1.4666278e-09
1.1070017e-08
-1.5787368e-09
1.1382626e-08
-1.5062611e-09
1.1693973e-08
-1.5075674e-09
1.2005047e-08
-1.5295944e-09
1.2332201e-08
-1.5895258e-09
1.2623431e-08
-1.4571323e-09
1.2948462e-08
-1.5632749e-09
1.3299788e-08
-1.6148357e-09
1.3590061e-08
-1.4287446e-09
1.3936522e-08
-1.6633457e-09
1.42648e-08
-1.6060772e-09
1.4598314e-08
-1.4695583e-09
1.4939852e-08
-1.6319637e-09
1.5267155e-08
-1.5795637e-09
1.5588055e-08
-1.5377427e-09
1.5901053e-08
-1.4905336e-09
1.6272362e-08
-1.6325465e-09
1.6598283e-08
-1.5328642e-09
1.6926726e-08
-1.5435728e-09
1.7264023e-08
-1.6326016e-09
1.7636007e-08
-1.5829673e-09
1.7946559e-08
-1.5379109e-09
1.8332054e-08
-1.6328197e-09
1.8712675e-08
-1.6008362e-09
1.903802e-08
-1.5655581e-09
1.9418649e-08
-1.6472188e-09
1.9773623e-08
-1.4249641e-09
2.0152804e-08
-1.7599832e-09
2.0465955e-08
-1.3781956e-09
2.0853421e-08
-1.6318935e-09
2.119668e-08
-1.6194708e-09
2.1507961e-08
-1.33466e-09
2.1871324e-08
-1.5419627e-09
2.226512e-08
-1.6650112e-09
2.2532138e-08
-1.4233419e-09
2.2936248e-08
-1.5578485e-09
2.3322707e-08
-1.5633588e-09
2.3661003e-08
-1.4757858e-09
2.4042319e-08
-1.499146e-09
2.4470947e-08
-1.5539498e-09
2.4799571e-08
-1.6585424e-09
2.5130874e-08
-1.4553129e-09
2.5422673e-08
-1.3988327e-09
2.5774749e-08
-1.4767141e-09
2.6105134e-08
-1.2370926e-09
2.6508528e-08
-1.3714476e-09
2.6829479e-08
-1.4615513e-09
2.7265157e-08
-1.6840123e-09
2.7598254e-08
-1.7014229e-09
2.7868022e-08
-1.1186061e-09
2.8127766e-08
-1.2986308e-09
2.8700572e-08
-1.9680327e-09
2.9163122e-08
-1.5426608e-09
2.9484765e-08
-1.1465398e-09
2.9914261e-08
-1.841955e-09
3.0457925e-08
-1.9445495e-09
3.0879118e-08
-1.4561769e-09
3.0940728e-08
-4.701091e-10
3.0913663e-08
-7.7712957e-10
3.115812e-08
-9.008303e-10
3.1922816e-08
-2.1349323e-09
3.2446856e-08
-2.9109539e-09
3.2970961e-08
-1.7378299e-09
3.3676418e-08
-2.681148e-09
3.3786564e-08
-1.7284062e-10
3.4201578e-08
-1.6520704e-09
-1.0301613e-09
8.9381338e-09
-1.8021391e-09
9.2328259e-09
-1.7033459e-09
9.5324082e-09
-1.7894221e-09
9.8594623e-09
-1.7845913e-09
1.0158774e-08
-1.7363152e-09
1.0480647e-08
-1.8429401e-09
1.0816852e-08
-1.8360026e-09
1.1154651e-08
-1.8044269e-09
1.1488854e-08
-1.9129395e-09
1.1846804e-08
-1.8642109e-09
1.2184233e-08
-1.8449969e-09
1.2527205e-08
-1.872566e-09
1.289556e-08
-1.957881e-09
1.3224599e-08
-1.7861713e-09
1.3581373e-08
-1.9200491e-09
1.3950965e-08
-1.9844278e-09
1.428802e-08
-1.7657987e-09
1.466729e-08
-2.0426159e-09
1.5016335e-08
-1.9551223e-09
1.5408453e-08
-1.861677e-09
1.5767732e-08
-1.9912419e-09
1.6148029e-08
-1.9598606e-09
1.6535412e-08
-1.9251261e-09
1.6868233e-08
-1.8233544e-09
1.7275537e-08
-2.0398511e-09
1.7645769e-08
-1.903096e-09
1.7983906e-08
-1.8817096e-09
1.8428413e-08
-2.0771086e-09
1.8818384e-08
-1.9729379e-09
1.915765e-08
-1.8771768e-09
1.9611601e-08
-2.0867716e-09
2.0037068e-08
-2.0263027e-09
2.0438486e-08
-1.9669763e-09
2.0800795e-08
-2.0095271e-09
2.1276008e-08
-1.9001779e-09
2.1604784e-08
-2.0887584e-09
2.2019102e-08
-1.7925142e-09
2.2450739e-08
-2.0635304e-09
2.2851826e-08
-2.0205578e-09
2.326314e-08
-1.7459737e-09
2.3590876e-08
-1.8696992e-09
2.4105142e-08
-2.1792772e-09
2.4368593e-08
-1.6867922e-09
2.4756423e-08
-1.9456791e-09
2.5312149e-08
-2.1190848e-09
2.5621216e-08
-1.7848529e-09
2.598423e-08
-1.8621596e-09
2.6503982e-08
-2.0737015e-09
2.6870326e-08
-2.0248865e-09
2.7359061e-08
-1.9440479e-09
2.7794529e-08
-1.834301e-09
2.8185071e-08
-1.8672565e-09
2.8479798e-08
-1.5318187e-09
2.8800172e-08
-1.6918218e-09
2.9154944e-08
-1.8163235e-09
2.9664909e-08
-2.1939772e-09
3.0268015e-08
-2.3045288e-09
3.0634061e-08
-1.4846524e-09
3.0841038e-08
-1.5056073e-09
3.1238897e-08
-2.3658922e-09
3.1816819e-08
-2.1205824e-09
3.2323372e-08
-1.6530927e-09
3.2848299e-08
-2.3668827e-09
3.3547436e-08
-2.6436861e-09
3.4015759e-08
-1.9245e-09
3.4247721e-08
-7.0207092e-10
3.4641388e-08
-1.1707965e-09
3.4903624e-08
-1.163067e-09
3.5241213e-08
-2.4725213e-09
3.5916207e-08
-3.5859478e-09
3.6983743e-08
-2.8053658e-09
3.80699e-08
-3.7673045e-09
3.7412337e-08
4.8472228e-10
3.7982316e-08
-2.2220493e-09
-1.8052447e-09
9.0475748e-09
-2.1468055e-09
9.3584622e-09
-2.0142333e-09
9.693736e-09
-2.124696e-09
1.0041288e-08
-2.1321434e-09
1.0379624e-08
-2.0746513e-09
1.0735168e-08
-2.198484e-09
1.1082988e-08
-2.183823e-09
1.1469526e-08
-2.1909647e-09
1.1800026e-08
-2.243439e-09
1.2203101e-08
-2.2672865e-09
1.2569289e-08
-2.2111848e-09
1.2931472e-08
-2.2347489e-09
1.3351241e-08
-2.37765e-09
1.370818e-08
-2.1431104e-09
1.4093095e-08
-2.3049641e-09
1.4483114e-08
-2.3744466e-09
1.4869773e-08
-2.1524577e-09
1.5271994e-08
-2.4448371e-09
1.5647853e-08
-2.3309813e-09
1.6108324e-08
-2.3221475e-09
1.6477049e-08
-2.3599666e-09
1.6909661e-08
-2.3924733e-09
1.7359963e-08
-2.3754282e-09
1.771432e-08
-2.177711e-09
1.8177172e-08
-2.5027028e-09
1.8584507e-08
-2.310431e-09
1.8954601e-08
-2.2518034e-09
1.943334e-08
-2.5558483e-09
1.9903275e-08
-2.4428732e-09
2.0277987e-08
-2.2518885e-09
2.0728549e-08
-2.5373335e-09
2.122261e-08
-2.5203634e-09
2.1669123e-08
-2.4134895e-09
2.207787e-08
-2.4182743e-09
2.256923e-08
-2.3915374e-09
2.2984577e-08
-2.5041061e-09
2.3344299e-08
-2.1522355e-09
2.3844851e-08
-2.5640823e-09
2.436059e-08
-2.5362971e-09
2.4776426e-08
-2.1618099e-09
2.5209142e-08
-2.3024149e-09
2.5628852e-08
-2.5989874e-09
2.6097231e-08
-2.1551714e-09
2.6495604e-08
-2.3440514e-09
2.6985201e-08
-2.6086821e-09
2.7435791e-08
-2.2354432e-09
2.776123e-08
-2.1875981e-09
2.8226831e-08
-2.539303e-09
2.880055e-08
-2.5986049e-09
2.9237947e-08
-2.381445e-09
2.955735e-08
-2.1537049e-09
3.016152e-08
-2.4714256e-09
3.0798867e-08
-2.1691657e-09
3.1040016e-08
-1.9329711e-09
3.1221485e-08
-1.9977924e-09
3.1733533e-08
-2.7060254e-09
3.2452105e-08
-3.0231009e-09
3.3042413e-08
-2.0749603e-09
3.3582612e-08
-2.0458065e-09
3.3990599e-08
-2.7738785e-09
3.4074126e-08
-2.2041099e-09
3.4518883e-08
-2.0978493e-09
3.5872222e-08
-3.7202215e-09
3.6814583e-08
-3.5860477e-09
3.7166561e-08
-2.2764775e-09
3.6461633e-08
2.8568485e-12
3.6806686e-08
-1.5158495e-09
3.6122298e-08
-4.7867947e-10
3.5990102e-08
-2.3403244e-09
4.0873259e-08
-8.469105e-09
5.0203792e-08
-1.2135899e-08
5.7692831e-08
-1.1256343e-08
5.3189172e-08
4.988382e-09
4.6524565e-08
4.4425571e-09
1.0199658e-09
9.0672784e-09
-2.4952459e-09
9.4113022e-09
-2.3582571e-09
9.7839672e-09
-2.497361e-09
1.0149191e-08
-2.497367e-09
1.0525314e-08
-2.4507748e-09
1.0903155e-08
-2.5763244e-09
1.1262752e-08
-2.5434202e-09
1.1685608e-08
-2.6138203e-09
1.2025312e-08
-2.5831438e-09
1.2466423e-08
-2.7083972e-09
1.2859693e-08
-2.604455e-09
1.3239306e-08
-2.6143618e-09
1.3705302e-08
-2.8436459e-09
1.4068838e-08
-2.5066468e-09
1.4501987e-08
-2.7381127e-09
1.4917625e-08
-2.7900843e-09
1.5350367e-08
-2.5851996e-09
1.5781452e-08
-2.8759222e-09
1.6200044e-08
-2.7495737e-09
1.6706806e-08
-2.8289093e-09
1.7096707e-08
-2.7498681e-09
1.7581681e-08
-2.877447e-09
1.8052788e-08
-2.8465356e-09
1.8450017e-08
-2.5749392e-09
1.896263e-08
-3.0153165e-09
1.9422079e-08
-2.7698797e-09
1.9834138e-08
-2.6638626e-09
2.0326276e-08
-3.0479856e-09
2.0834654e-08
-2.9512518e-09
2.1257674e-08
-2.6749087e-09
2.172537e-08
-3.0050294e-09
2.2214125e-08
-3.009118e-09
2.2710497e-08
-2.9098615e-09
2.3134149e-08
-2.8419262e-09
2.3677716e-08
-2.935104e-09
2.4091429e-08
-2.9178198e-09
2.4589671e-08
-2.650477e-09
2.5055259e-08
-3.0296709e-09
2.5540097e-08
-3.021135e-09
2.6097393e-08
-2.7191053e-09
2.6472109e-08
-2.6771313e-09
2.6965031e-08
-3.0919094e-09
2.7488067e-08
-2.6782077e-09
2.7904062e-08
-2.7600462e-09
2.8376035e-08
-3.0806544e-09
2.8858066e-08
-2.7174743e-09
2.9409158e-08
-2.7386906e-09
2.9838402e-08
-2.9685474e-09
3.0511505e-08
-3.2717076e-09
3.0900949e-08
-2.7708888e-09
3.1079568e-08
-2.3323237e-09
3.1789814e-08
-3.1816719e-09
3.2680345e-08
-3.059697e-09
3.2878443e-08
-2.1310685e-09
3.3264566e-08
-2.3839161e-09
3.2652818e-08
-2.0942767e-09
3.4321788e-08
-4.6920711e-09
3.4015797e-08
-1.7689692e-09
3.3705778e-08
-1.7357878e-09
3.5539766e-08
-4.6078666e-09
3.4169627e-08
-8.339708e-10
3.379727e-08
-1.7254922e-09
3.960675e-08
-9.5297014e-09
4.0967606e-08
-4.9469036e-09
3.7951966e-08
7.3916229e-10
3.7145012e-08
8.0981126e-10
3.3389461e-08
2.239701e-09
2.7997491e-08
4.9132912e-09
2.8752204e-08
-3.0950379e-09
4.029143e-08
-2.0008331e-08
5.266793e-08
-2.4512399e-08
6.2815952e-08
-2.1404366e-08
6.2131078e-08
5.6732565e-09
5.4822343e-08
1.1751292e-08
6.3244141e-09
9.0308609e-09
-2.8547565e-09
9.4208274e-09
-2.7482236e-09
9.8028792e-09
-2.8794128e-09
1.0194596e-08
-2.8890834e-09
1.0587784e-08
-2.843963e-09
1.0980215e-08
-2.9687559e-09
1.1372193e-08
-2.9353975e-09
1.1805017e-08
-3.046645e-09
1.2190232e-08
-2.9683584e-09
1.2644822e-08
-3.1629869e-09
1.3059495e-08
-3.0191289e-09
1.3477841e-08
-3.0327072e-09
1.3958576e-08
-3.3243809e-09
1.4350607e-08
-2.8986776e-09
1.4833612e-08
-3.2211176e-09
1.5279488e-08
-3.2359602e-09
1.5750923e-08
-3.0566356e-09
1.6218691e-08
-3.3436893e-09
1.6684833e-08
-3.2157161e-09
1.7185202e-08
-3.3292788e-09
1.7639113e-08
-3.2037791e-09
1.814796e-08
-3.3862934e-09
1.861359e-08
-3.3121653e-09
1.9110932e-08
-3.0722814e-09
1.9626344e-08
-3.5307288e-09
2.00887e-08
-3.2322352e-09
2.0582879e-08
-3.1580423e-09
2.1040673e-08
-3.5057795e-09
2.1574216e-08
-3.484795e-09
2.2025231e-08
-3.1259237e-09
2.2460871e-08
-3.4406693e-09
2.3032565e-08
-3.5808122e-09
2.3445144e-08
-3.3224402e-09
2.3947888e-08
-3.3446701e-09
2.4570485e-08
-3.5577009e-09
2.4924933e-08
-3.2722684e-09
2.5405075e-08
-3.1306183e-09
2.591705e-08
-3.5416467e-09
2.6465836e-08
-3.5699208e-09
2.7128106e-08
-3.3813754e-09
2.7522895e-08
-3.0719199e-09
2.7908212e-08
-3.4772264e-09
2.8288324e-08
-3.0583196e-09
2.8494411e-08
-2.966133e-09
2.899227e-08
-3.5785142e-09
2.834144e-08
-2.0666435e-09
2.820959e-08
-2.6068408e-09
2.9771981e-08
-4.5309388e-09
3.1918377e-08
-5.4181036e-09
3.2564197e-08
-3.4167082e-09
3.0668636e-08
-4.3676319e-10
3.2998274e-08
-5.5113094e-09
3.2015455e-08
-2.0768782e-09
2.80971e-08
1.7872862e-09
3.169955e-08
-5.9863659e-09
3.3971544e-08
-4.3662704e-09
3.3882011e-08
-4.6025385e-09
3.2708052e-08
-5.9500968e-10
2.8870621e-08
2.1016432e-09
2.9857007e-08
-5.5942534e-09
3.1285641e-08
-2.262604e-09
3.2249811e-08
-2.6896624e-09
3.7512963e-08
-1.4792854e-08
4.0130848e-08
-7.5647885e-09
4.0003602e-08
8.664085e-10
3.955078e-08
1.2626337e-09
3.5499165e-08
6.2913159e-09
3.0358094e-08
1.0054362e-08
2.8533535e-08
-1.2704789e-09
3.7618807e-08
-2.9093603e-08
5.0349055e-08
-3.7242647e-08
6.127596e-08
-3.2331271e-08
6.5785252e-08
1.1639644e-09
6.3286411e-08
1.4250133e-08
1.2784155e-08
8.9604373e-09
-3.2436883e-09
9.3709793e-09
-3.1587656e-09
9.7549604e-09
-3.2633939e-09
1.0171844e-08
-3.3059668e-09
1.0575067e-08
-3.2471864e-09
1.0992662e-08
-3.3863506e-09
1.1418332e-08
-3.3610681e-09
1.18602e-08
-3.4885124e-09
1.2293761e-08
-3.4019198e-09
1.2747997e-08
-3.6172225e-09
1.3192373e-08
-3.4635048e-09
1.3657191e-08
-3.4975253e-09
1.4136856e-08
-3.8040462e-09
1.4597231e-08
-3.3590526e-09
1.5103443e-08
-3.7273294e-09
1.5573871e-08
-3.706388e-09
1.6090128e-08
-3.5728926e-09
1.6567734e-08
-3.8212951e-09
1.7063998e-08
-3.7119801e-09
1.7559136e-08
-3.8244175e-09
1.8079658e-08
-3.7243011e-09
1.8569168e-08
-3.8758027e-09
1.9047692e-08
-3.79069e-09
1.9638531e-08
-3.6631198e-09
2.0075827e-08
-3.9680254e-09
2.058085e-08
-3.7372577e-09
2.107382e-08
-3.6510125e-09
2.150337e-08
-3.9353292e-09
2.2065742e-08
-4.0471674e-09
2.2471529e-08
-3.5317108e-09
2.2987285e-08
-3.9564251e-09
2.3496015e-08
-4.0895417e-09
2.3917052e-08
-3.7434773e-09
2.4450329e-08
-3.8779471e-09
2.4926086e-08
-4.0334579e-09
2.4912927e-08
-3.2591093e-09
2.4506827e-08
-2.7245188e-09
2.4940258e-08
-3.9750772e-09
2.5709519e-08
-4.3391825e-09
2.6637704e-08
-4.3095597e-09
2.6548653e-08
-2.9828688e-09
2.664045e-08
-3.5690243e-09
2.608339e-08
-2.5012594e-09
2.4351937e-08
-1.2346801e-09
2.5627507e-08
-4.8540839e-09