/*--------------------------------*- C++ -*----------------------------------*\
| =========                 |                                                 |
| \\      /  F ield         | OpenFOAM: The Open Source CFD Toolbox           |
|  \\    /   O peration     | Version:  2.3.0                                 |
|   \\  /    A nd           | Web:      www.OpenFOAM.org                      |
|    \\/     M anipulation  |                                                 |
\*---------------------------------------------------------------------------*/
FoamFile
{
    version     2.0;
    format      ascii;
    class       volVectorField;
    location    "8e-06";
    object      U;
}
// * * * * * * * * * * * * * * * * * * * * * * * * * * * * * * * * * * * * * //

dimensions      [0 1 -1 0 0 0 0];

internalField   nonuniform List<vector> 
7500
(
(460.22979 -0.0091320837 -2.0053407e-16)
(459.99348 0.049534371 3.6983396e-15)
(459.98633 -0.037539565 2.8266039e-15)
(459.82807 0.0037412444 1.0162276e-15)
(459.76421 -0.010556199 2.9161732e-15)
(459.89684 0.025630023 5.625116e-15)
(460.28632 -0.053123435 2.5101406e-15)
(459.75831 0.038890667 4.6692202e-15)
(460.0943 0.03243176 4.418823e-15)
(460.43253 -0.10056139 1.6501963e-15)
(459.03826 0.12503548 1.5216577e-15)
(460.22393 -0.049555898 -1.0500719e-15)
(459.86885 -0.028924472 1.2223128e-15)
(459.46908 0.035793967 1.1879566e-15)
(460.52651 -0.036234732 1.3951051e-15)
(459.51325 0.052072682 7.4842694e-16)
(459.97919 -0.030498389 1.4845757e-15)
(459.59194 -0.012784032 -1.3223448e-15)
(460.35658 -0.036311729 1.3452566e-15)
(460.04736 0.088308805 3.6147941e-16)
(459.37823 -0.039715757 -1.9017532e-15)
(460.05199 -0.021637412 1.0803394e-15)
(460.02307 -0.00042311084 1.6277377e-15)
(459.76862 0.030330381 -1.2697238e-15)
(460.26164 0.020016115 8.5204377e-16)
(459.83679 -0.052423315 8.6632662e-16)
(459.35193 0.054282345 1.3237834e-15)
(460.34005 -0.08995563 -1.991784e-15)
(459.75396 0.048901037 -8.9312092e-16)
(459.25647 0.034214543 2.9242681e-15)
(459.92737 -0.017406586 -5.6289258e-16)
(460.34298 -0.046281777 8.1227554e-16)
(459.10296 0.044027833 5.0183351e-16)
(459.44132 0.02552011 -1.0425879e-15)
(460.66791 -0.031855265 -9.0257191e-16)
(459.07971 0.018654553 1.0892613e-15)
(459.18058 0.040059035 -1.2156935e-15)
(461.18037 0.042250008 1.0832339e-15)
(458.78923 -0.11688628 5.4118712e-16)
(459.39699 0.074555919 7.9352841e-16)
(460.73978 0.0054356941 1.1644734e-15)
(459.3661 0.077540963 5.9318622e-16)
(460.09157 0.01071729 2.5346829e-15)
(459.81119 -0.09304973 3.2357027e-15)
(459.19557 0.1107387 8.8418778e-16)
(460.58269 -0.029248395 -1.3547579e-15)
(460.22845 -0.1005096 -2.0697595e-15)
(458.71519 -0.019724455 -1.5257179e-15)
(459.65728 0.12180603 1.117236e-15)
(461.17052 -0.011973441 5.6748105e-16)
(459.91732 0.085164651 4.6030422e-16)
(459.44472 0.08923786 2.5626807e-15)
(460.40608 -0.060766349 3.0079205e-16)
(458.98389 -0.026456736 8.7207421e-16)
(458.80691 0.055465385 4.0075776e-16)
(460.3198 0.069853096 -1.6086972e-15)
(459.24785 -0.085221691 6.856096e-16)
(459.17126 0.088211634 6.1236583e-18)
(460.7347 -0.058909386 7.1151442e-16)
(460.85559 -0.039289685 6.6150568e-16)
(460.93554 -0.061225873 8.4100447e-16)
(460.08804 -0.19890814 1.6228982e-15)
(458.14475 -0.23591072 2.0639543e-16)
(460.96212 0.10554894 -1.3220292e-15)
(463.43066 -0.016154198 -1.8674041e-15)
(465.0651 -0.1429343 8.0403479e-16)
(461.28579 0.046120654 -2.3704321e-17)
(463.43312 0.42538353 -5.5283804e-16)
(455.69949 -0.27876425 1.5384382e-15)
(463.71315 -0.39172168 -1.4933872e-15)
(464.31399 -0.078133384 -2.1727769e-15)
(474.23148 0.19746342 1.0676471e-15)
(469.42747 -0.19795347 1.3783526e-15)
(463.66937 0.076812775 4.9850608e-16)
(466.79056 -0.032046292 2.4909612e-15)
(460.20383 -0.041794548 -6.0232022e-16)
(460.0429 0.046535325 5.0611014e-16)
(459.93816 0.0030800164 -3.752368e-16)
(459.84265 0.073048937 5.8809436e-16)
(459.77091 -0.095204005 -3.5660205e-16)
(459.8776 0.0374165 4.3899101e-16)
(460.32445 -0.002014743 3.8064743e-16)
(459.70805 -0.032140336 -8.3958208e-17)
(460.16001 0.037889713 7.4851245e-16)
(460.41583 -0.042856669 -2.5395574e-16)
(459.01112 0.10668663 3.6157321e-16)
(460.27628 -0.10186052 4.4870197e-16)
(459.80843 0.031731237 -3.9749727e-16)
(459.53076 0.010114035 -6.2284149e-16)
(460.51177 -0.031936967 4.0397508e-16)
(459.44557 0.054613285 -1.0495444e-15)
(460.02629 0.005796693 3.4885897e-16)
(459.57812 -0.046174427 2.5868652e-16)
(460.33047 -0.025925662 3.200434e-16)
(460.10659 0.0045866552 4.3020311e-16)
(459.36764 0.10838595 2.6322962e-16)
(459.94161 -0.2057521 1.8298902e-16)
(460.14847 0.10604973 3.7073128e-16)
(459.71928 -0.0036527113 1.2845999e-15)
(460.24744 -0.088868452 -1.5894541e-17)
(459.82843 0.28103267 6.4365893e-17)
(459.34168 -0.27353663 -3.8792088e-16)
(460.23547 0.034389061 -7.149289e-16)
(459.89046 0.16903676 2.0157417e-15)
(459.19247 -0.16023611 7.2286074e-16)
(459.9112 0.050978837 1.870384e-17)
(460.41212 0.16173977 8.8783199e-16)
(459.25103 -0.29163327 -6.371141e-16)
(459.19266 0.078680002 9.3088136e-16)
(460.80658 0.32116478 -7.2749732e-16)
(459.13937 -0.55533893 5.8243982e-16)
(459.083 0.49478142 -4.401965e-16)
(461.07265 -0.16021646 -3.7538699e-16)
(459.11256 -0.19738791 -3.4044931e-16)
(459.37146 0.34682555 4.9861951e-16)
(460.56772 -0.26692964 6.7924048e-16)
(459.48782 0.20594707 -1.8650434e-16)
(460.17331 -0.074783507 1.4876273e-16)
(459.71703 -0.10269576 7.1381984e-16)
(459.17129 0.14260792 -5.6853061e-16)
(460.52274 -0.17774861 -3.6659542e-16)
(460.12025 -0.0023771245 5.3496521e-16)
(459.01847 0.021040936 -9.813191e-16)
(459.64521 -0.021259128 5.3177248e-16)
(460.69026 0.046434572 -2.1192789e-16)
(460.11894 0.051462416 -8.6097494e-16)
(459.91407 0.050544703 -2.4174519e-16)
(460.29107 0.19964672 7.0682032e-16)
(458.59038 -0.046399658 -2.1434749e-17)
(458.6951 -0.20402213 8.3481754e-16)
(460.55734 0.14728977 1.6936524e-17)
(459.7268 0.0019039289 2.9585791e-16)
(459.12485 -0.14176125 -6.3033036e-16)
(459.71866 -0.07011541 3.8343138e-16)
(460.78418 -0.078069444 -5.724031e-16)
(461.77505 -0.19765349 6.3647622e-16)
(460.07616 0.16941879 -4.1498392e-16)
(457.7577 0.099024266 6.4730604e-16)
(461.31038 -0.58034549 -2.8111113e-16)
(463.27094 -0.15859331 -6.883291e-16)
(464.60664 0.57244701 4.1163013e-16)
(460.12413 -0.58998778 -1.1528166e-15)
(465.02671 0.15478271 7.9745688e-16)
(456.56754 0.37648889 2.3885264e-16)
(464.91367 -0.7902207 -1.4725721e-15)
(461.71535 0.11298642 -4.7772162e-16)
(470.55995 -0.30276526 -3.3418006e-16)
(471.03831 -0.56308118 1.6943137e-15)
(467.58689 0.41224278 1.1935078e-17)
(467.43834 0.37963177 2.0250079e-16)
(460.16615 -0.056335983 2.5412069e-17)
(460.08026 0.10776253 -7.7286996e-16)
(459.91628 -0.090264834 1.5215136e-16)
(459.80605 0.16414172 -3.4351974e-17)
(459.79458 -0.14096322 -1.0053174e-16)
(459.86027 -0.019503676 5.9047977e-16)
(460.44854 0.052420049 1.5681267e-16)
(459.51201 -0.071485651 -2.7250493e-16)
(460.3598 0.097857424 4.5195555e-16)
(460.32799 -0.13099006 -4.7405019e-16)
(458.99467 0.24532314 4.2062888e-16)
(460.3955 -0.14160245 -8.9807352e-16)
(459.6341 -0.094787469 -4.3735839e-16)
(459.76878 0.17257171 1.0537039e-16)
(460.34791 -0.1523123 1.2189992e-15)
(459.43563 0.07753199 -1.2192217e-15)
(460.12269 0.019240636 1.2102824e-15)
(459.41814 -0.062119078 -6.9645702e-16)
(460.40709 -0.041480269 7.2996166e-16)
(460.15323 0.11757249 -7.0112654e-16)
(459.33351 -0.015058639 6.0724024e-16)
(459.90717 -0.036938368 -1.6784674e-16)
(460.23081 -0.12051888 1.2189985e-15)
(459.65759 0.097149549 -2.2059174e-16)
(460.25327 -0.0028283726 8.4335679e-17)
(459.74026 -0.040585942 9.0624317e-17)
(459.2878 0.1841832 -7.9260652e-16)
(460.19725 -0.31317206 3.3866524e-16)
(459.93304 0.16841836 -9.0183381e-16)
(459.2935 0.038064031 1.2298177e-15)
(459.90596 0.013053063 -7.5871707e-16)
(460.27319 0.0052295312 8.4742149e-16)
(459.467 -0.083878326 -1.1716813e-15)
(459.27131 0.012288297 6.7827294e-17)
(460.55487 0.14469722 -1.4572461e-17)
(459.29718 -0.22323852 -5.4111181e-16)
(459.31381 0.090417214 9.0594263e-17)
(460.94217 0.19310911 -1.199161e-15)
(459.13961 -0.56986169 8.2031084e-16)
(459.62099 0.5164836 -3.7519665e-16)
(460.51178 -0.2215219 4.6306837e-16)
(459.28813 0.040576728 2.9326662e-16)
(460.11695 0.17184952 -4.9865471e-16)
(459.92617 -0.23822483 -1.7058786e-17)
(459.1208 0.2033826 -7.6273719e-17)
(460.26206 -0.027018387 3.826147e-17)
(459.98328 -0.35724786 2.2451154e-16)
(459.26796 0.17539451 3.3955822e-17)
(459.71764 -0.018614219 -7.0625738e-16)
(460.42771 -0.33161718 -2.4922694e-17)
(460.11375 0.1376611 7.5318018e-16)
(460.11055 0.14118037 3.1198464e-16)
(460.43844 0.18195567 5.1190066e-16)
(458.48866 -0.056746246 -3.1379336e-16)
(458.41128 -0.096442609 5.0279541e-16)
(460.48061 -0.0048724077 4.7148646e-16)
(460.10104 -0.17799538 -7.3276595e-16)
(459.34091 0.3297612 9.138359e-17)
(459.30804 -0.22828097 1.759357e-16)
(460.47655 -0.64773134 5.37361e-16)
(461.75265 0.25383716 -1.2205955e-15)
(459.96568 0.4331429 -4.3644852e-16)
(458.11452 -0.76777892 -4.1297677e-16)
(462.06548 0.16448655 5.5843856e-16)
(462.71705 -0.27581397 2.1000864e-16)
(463.92279 -0.62002504 -4.434212e-16)
(459.75917 0.16211667 -7.5295737e-16)
(466.42872 0.8379593 6.1469334e-16)
(456.42189 -0.53124746 -1.2392205e-16)
(465.04428 -0.84873356 3.309992e-16)
(461.48164 0.3434175 -5.3279363e-16)
(469.72376 -1.5656349 1.3272114e-16)
(470.15133 -0.14048606 1.1149717e-15)
(469.62368 0.43932915 9.1882279e-16)
(468.20409 0.52905113 4.2793863e-16)
(460.23002 -0.081871034 -1.4619174e-16)
(459.97233 0.16196487 1.919579e-16)
(459.99315 -0.13229539 -8.6259844e-16)
(459.74773 0.15351792 -1.8594449e-16)
(459.78138 -0.084244965 -1.2818118e-16)
(459.85476 -0.062265503 -3.3822802e-16)
(460.55158 0.0083316484 -1.6714993e-16)
(459.45146 -0.0040390224 5.5334145e-17)
(460.31553 0.061220918 -9.2585805e-18)
(460.38539 -0.14997754 -4.3316263e-16)
(459.05441 0.27866794 -4.9165307e-16)
(460.34934 -0.10711981 6.7495289e-16)
(459.57587 -0.16611024 3.6440755e-16)
(460.04737 0.15111669 5.9907303e-16)
(459.91863 -0.0086505388 2.4962567e-16)
(459.92574 -0.014457014 -8.0434197e-17)
(459.67113 0.093796838 -6.1706005e-17)
(459.51157 -0.13676748 1.7485591e-16)
(460.6375 -0.050421089 -4.1594912e-16)
(459.8284 0.12068028 -1.195299e-16)
(459.63306 0.11026051 -4.5081668e-17)
(460.01392 -0.30916304 3.6353166e-16)
(459.90813 0.11849241 6.7946137e-17)
(459.87943 0.0023216696 1.2603381e-16)
(460.09287 -0.11700703 4.4522117e-16)
(459.67484 0.39320185 -4.0751136e-17)
(459.19794 -0.34789186 -3.590168e-16)
(460.31595 -0.026623457 2.3119995e-16)
(459.86427 0.22645681 2.7233562e-16)
(459.30991 -0.22824747 -1.4073331e-16)
(460.0323 0.062920159 1.4960814e-16)
(460.10694 0.36881928 1.9750769e-16)
(459.36644 -0.58650688 -3.9147877e-17)
(459.62417 0.17268754 2.882072e-16)
(460.67607 0.55294434 -1.0018833e-16)
(459.03798 -1.0762281 1.5726195e-16)
(459.57065 0.9666367 -1.6517158e-16)
(461.27487 -0.31240626 -2.9242529e-16)
(458.88023 -0.49465918 4.1777428e-16)
(459.42365 0.5701249 -9.0577625e-17)
(460.72373 -0.37474678 4.5998306e-17)
(459.23357 0.25348663 -7.0878643e-17)
(459.64083 -0.14369105 2.0900048e-16)
(460.0156 0.017550754 -2.1891283e-16)
(459.47167 0.16086541 2.3558034e-16)
(459.98015 -0.030415227 -1.7146398e-16)
(459.42183 -0.28303495 3.3123153e-16)
(459.41377 0.084438719 -2.8284644e-16)
(460.0076 -0.044499468 1.1036376e-16)
(460.38271 -0.32965763 2.6942355e-16)
(459.73746 -0.029510196 1.3794437e-16)
(460.2947 0.17653598 -2.7334143e-16)
(460.79875 0.36947387 2.3901172e-16)
(458.15874 -0.076917638 1.2933883e-16)
(458.39621 -0.29406079 -5.1251526e-18)
(460.56814 0.054484873 8.7307689e-17)
(459.63975 -0.11510636 -4.8751717e-16)
(459.79029 0.12771433 2.801785e-16)
(459.56484 0.029939374 1.9144543e-16)
(459.31423 -0.61258156 2.2630863e-16)
(461.73902 -0.046210316 8.6282323e-18)
(460.742 0.54593653 -1.0792494e-16)
(457.34634 -0.35943652 -3.984968e-16)
(462.0691 -1.0110038 2.1036983e-16)
(463.67975 -0.3063926 2.3339897e-16)
(463.77923 0.64523556 1.4194317e-16)
(458.59428 -0.7858841 5.8337815e-17)
(466.39422 0.67013843 1.640676e-16)
(456.9801 0.54494979 -5.0713402e-16)
(465.22611 -1.9877161 3.2408189e-16)
(461.13224 -0.16654811 4.3072639e-16)
(469.5061 -2.5180637 -3.4445086e-18)
(469.8553 1.4700623 1.6899138e-17)
(470.5482 -0.21161487 5.0989501e-16)
(468.31544 0.68865545 -2.6410386e-17)
(460.25777 -0.087040587 -9.063133e-17)
(459.92215 0.16594736 1.3240631e-16)
(459.96465 -0.11647217 9.7553696e-17)
(459.90138 0.16040629 2.0615369e-16)
(459.58981 -0.13034754 -2.6368341e-16)
(459.95075 -0.035899706 2.1486356e-16)
(460.44874 0.011984726 -2.5987828e-16)
(459.72845 -0.031606262 -2.8588304e-16)
(459.91076 0.078904501 -2.2302152e-16)
(460.66522 -0.11796819 2.3403025e-16)
(458.96927 0.23736155 -6.4023486e-16)
(460.46651 -0.051163004 1.0580102e-16)
(459.50162 -0.19718877 -1.2036768e-16)
(460.11561 0.1456132 7.1103927e-17)
(459.60721 -0.044918231 -1.7752627e-17)
(460.66064 0.059605832 -4.6387638e-18)
(458.43706 0.091389712 3.691315e-16)
(460.69552 -0.2303544 5.2893876e-17)
(459.80757 -0.0085697603 7.3149196e-17)
(460.10915 0.24062733 2.6977255e-16)
(460.13537 -0.091744214 4.8591713e-16)
(459.2374 -0.016405934 -6.7354223e-17)
(460.64631 -0.15189677 6.2319443e-17)
(459.67456 0.12097768 -1.6098357e-16)
(459.41268 0.025754495 2.8120073e-18)
(460.63072 -0.048764526 3.2841968e-16)
(458.52082 0.14603492 -1.0998457e-16)
(460.2885 -0.40259863 7.2603025e-18)
(460.10427 0.2091486 -1.1794681e-17)
(459.22042 -0.033437383 -5.2881255e-16)
(459.56796 0.067442584 4.2195721e-16)
(460.78355 0.0069175783 2.5738093e-16)
(459.12573 -0.049808493 4.3924849e-16)
(459.53134 -0.17699944 -3.3475961e-16)
(461.09505 0.427523 -4.6473243e-16)
(459.26325 -0.39948688 -1.9848061e-16)
(458.98639 0.06052974 -3.1607082e-16)
(461.22112 0.50102096 1.5930336e-16)
(459.60385 -0.85133521 -8.0200292e-17)
(458.6764 0.75924416 6.3459819e-17)
(460.19725 -0.3484986 5.1650116e-17)
(460.00622 0.058744875 1.900185e-16)
(459.54698 0.10300444 6.169317e-18)
(459.34219 -0.45016675 3.2309687e-16)
(459.74496 0.4470892 -2.9105596e-16)
(460.52981 0.13587317 2.7672938e-17)
(458.86124 -0.50029166 2.8715623e-16)
(458.80083 0.26351698 4.509991e-16)
(460.65655 -0.18746275 8.3214642e-17)
(460.62471 -0.17618559 -1.3786513e-16)
(459.46063 0.019089927 5.1255391e-16)
(460.23849 -0.17421263 5.1379557e-17)
(461.13517 0.65738046 -4.4975402e-17)
(458.156 -0.091689759 1.0250491e-16)
(458.18441 -0.40736915 1.3429178e-16)
(459.82602 -0.14969677 -1.056271e-16)
(460.57708 -0.27001319 -2.5476596e-16)
(459.92083 0.40837353 3.341465e-16)
(458.5647 0.12928853 -2.3598116e-16)
(459.87575 -0.92152401 6.6563728e-16)
(460.8972 0.16731948 -3.4300969e-16)
(459.72967 0.82717042 2.5443475e-16)
(459.50302 -0.94746319 6.2505825e-17)
(461.69585 -0.62402698 2.8468809e-16)
(462.01734 -0.84507527 2.896591e-17)
(465.68563 0.029023621 8.7492549e-17)
(458.55667 0.60495915 -3.4220254e-17)
(463.81257 0.80764219 -1.182485e-17)
(457.20856 -0.39755164 -2.7684939e-16)
(467.10569 -1.7999593 1.1694928e-16)
(460.02808 -0.023096167 3.6015766e-17)
(469.45786 -4.344712 6.7206473e-16)
(470.64938 2.8306696 -5.7139128e-16)
(470.54267 -0.16067954 8.5911905e-17)
(468.0442 0.83337173 2.343962e-16)
(460.32169 -0.10541664 -1.5063135e-17)
(459.73199 0.20968359 -1.8436429e-16)
(460.10005 -0.13676625 -3.7941815e-17)
(459.96336 0.18150938 1.2681242e-16)
(459.55653 -0.10497996 -2.9984362e-16)
(459.86282 -0.13188371 5.2511174e-16)
(460.42367 0.061068885 -3.707435e-16)
(459.80544 0.024797137 -1.8407255e-17)
(459.71352 -0.059626623 -1.2576681e-16)
(460.72334 0.024664933 4.9030503e-16)
(458.97838 0.17417366 -5.2012417e-16)
(460.56246 -0.076601432 4.414931e-16)
(459.62195 -0.16204168 -2.6922394e-17)
(459.74391 0.17918261 -2.5140983e-16)
(459.73726 -0.099225874 -2.8954657e-18)
(460.75086 0.073461758 3.4126466e-17)
(458.04335 0.20597886 -5.0954412e-17)
(461.50019 -0.3950096 1.3235418e-16)
(458.29444 0.011047155 -2.0737018e-18)
(462.18268 0.21179075 8.0897027e-17)
(457.98974 0.051059698 2.7003144e-16)
(461.02071 -0.24512897 1.428062e-17)
(460.11168 0.038131182 -1.5509585e-17)
(459.06211 0.17588013 4.1971439e-17)
(460.69544 -0.18494756 6.1531457e-17)
(459.30039 0.28685289 -7.6423014e-17)
(459.01724 -0.23475875 2.8546261e-16)
(460.90424 -0.15813538 -4.0731366e-17)
(458.39605 0.16790569 -2.3729929e-17)
(460.66175 -0.11776706 -2.3348317e-16)
(459.10395 -0.073320083 2.1826684e-16)
(460.45297 0.4190713 -2.8826216e-16)
(459.63954 -0.66170869 1.3228774e-16)
(459.70706 0.21397354 -1.0066517e-16)
(460.27142 0.52889341 3.256915e-16)
(459.64197 -1.0063875 1.2457683e-16)
(459.26378 1.137572 -2.3753523e-17)
(460.10582 -0.68772823 5.3937039e-17)
(459.87108 0.0093828084 2.3049148e-16)
(459.71637 0.52452471 -3.1090368e-16)
(459.00711 -0.26711419 8.6059506e-17)
(459.85276 -0.0141726 -2.580591e-16)
(460.75939 -0.0023615494 2.6585411e-16)
(459.08113 -0.050107184 3.3727089e-17)
(459.15295 -0.31839007 3.2814598e-16)
(460.97891 0.64151258 2.5477109e-17)
(459.40961 -0.34480451 1.2889112e-16)
(458.14523 -0.15742648 1.3455985e-16)
(460.47872 -0.25124136 -1.2347375e-16)
(461.42624 0.04815622 1.6044411e-16)
(459.49163 -0.13867633 2.7131235e-16)
(459.82991 -0.14658125 2.4874035e-16)
(460.97304 0.77091015 -3.8619623e-16)
(458.58999 -0.0076919891 3.7135378e-17)
(457.66045 -0.4335383 2.5076463e-16)
(459.57285 -0.41452571 -7.9600061e-17)
(460.6915 -0.5971272 -2.3141417e-17)
(460.22863 0.64700262 1.1721114e-16)
(458.60876 -0.0010924822 2.0230196e-16)
(459.01075 -0.81244334 -1.4559362e-16)
(460.09135 0.19957948 -1.4057656e-16)
(460.9804 0.47453567 9.5879105e-18)
(457.45442 -0.78425046 2.4203291e-16)
(463.25686 -0.51127725 1.2777074e-16)
(463.46572 -1.1243008 -1.3568801e-16)
(461.81181 0.73935978 2.078254e-16)
(459.68658 -0.37467733 -1.7733286e-16)
(465.92192 1.6742289 6.9532941e-17)
(452.18569 -0.61740652 2.8062581e-16)
(467.42106 -2.8637883 -2.1520362e-18)
(464.28692 0.49887469 2.4099214e-16)
(468.34227 -3.7332819 1.6948e-16)
(468.15204 1.3565079 -2.0685027e-16)
(471.2771 -0.34998796 1.6363238e-17)
(468.80723 1.3604975 2.5336369e-16)
(460.3711 -0.09161647 4.9071097e-17)
(459.55263 0.21034335 -2.7439215e-16)
(460.33233 -0.1454077 -2.0210547e-17)
(460.1329 0.15258853 2.772055e-16)
(459.55048 -0.002968224 -9.2157552e-17)
(459.72314 -0.21488964 9.4713829e-17)
(460.22161 0.014703919 -3.9857709e-17)
(459.66898 0.15296419 2.4458765e-17)
(459.48801 -0.16588938 -2.9403933e-16)
(460.81303 0.037319657 2.5728017e-16)
(458.9869 0.20976304 1.0434778e-17)
(460.52497 -0.080137669 7.6128173e-17)
(460.03007 -0.21391795 3.9363841e-16)
(459.27091 0.25028895 -3.8450272e-16)
(459.90311 -0.10121771 4.9577744e-17)
(460.25091 0.011243215 2.9132965e-17)
(459.17 0.21669333 4.4875234e-17)
(460.2777 -0.26541205 5.0308423e-17)
(459.03959 -0.23231458 -2.0459102e-16)
(462.03785 0.39096346 2.4276133e-17)
(457.42723 -0.027109295 3.7139251e-17)
(462.91896 -0.22826542 8.0349373e-17)
(457.66694 0.093984991 6.4383709e-17)
(462.14306 0.049510444 6.3224658e-18)
(457.49849 0.046807122 -1.6023989e-16)
(461.74611 0.097832708 2.259213e-16)
(458.03432 -0.18355966 1.2978072e-16)
(460.35206 -0.13192614 -3.9260352e-16)
(459.68897 0.036309132 -2.2233299e-17)
(459.20042 -0.0060255859 -3.2182357e-16)
(459.57733 0.035538595 3.4918198e-16)
(461.17315 -0.16117358 1.783005e-17)
(458.29167 0.16086246 7.301294e-17)
(460.55536 -0.41464722 8.522262e-17)
(460.2808 0.70975558 -2.5168867e-17)
(458.75239 -0.65986385 -3.7174371e-17)
(460.02788 0.32389708 2.3771563e-16)
(460.40361 0.46981317 2.9263459e-16)
(459.1565 -1.3374974 8.8269619e-17)
(459.95145 1.483618 -5.5997879e-17)
(460.15767 -0.43847373 -3.2398845e-18)
(458.27902 -0.30959126 -1.2804317e-16)
(460.86523 0.37862761 1.2381741e-16)
(460.37641 -0.24884738 3.2646302e-16)
(458.20164 0.04286158 1.0749989e-16)
(460.42356 -0.075089757 2.2894414e-16)
(460.2744 0.26737251 -7.5709113e-17)
(458.36002 -0.0827108 3.3062417e-16)
(459.76413 -0.72483226 1.6278938e-16)
(461.94181 0.23375615 -2.1899552e-16)
(459.92121 -0.13117458 1.2405711e-16)
(459.2719 -0.15838582 7.4000856e-17)
(460.69506 0.91852608 -5.0132235e-17)
(458.45867 0.1224228 2.0472049e-16)
(457.52607 -0.36391985 -1.3868716e-16)
(459.39994 -0.57749409 -2.3324474e-16)
(460.50638 -0.68976807 1.7628083e-16)
(460.1292 0.53691185 -1.4372618e-16)
(458.45176 0.20682668 4.3998181e-17)
(458.50347 -1.1352759 -4.6676577e-17)
(460.29941 0.13524339 -1.6750442e-16)
(459.61004 0.8601289 2.3069896e-16)
(457.41747 -1.0423932 -3.3398722e-16)
(464.10024 -1.2569316 1.7801866e-16)
(462.16134 -0.14298769 -2.5546948e-17)
(463.37968 0.50516166 1.0245116e-16)
(456.48089 0.18631464 -1.8380422e-16)
(464.34123 1.3572587 6.6675721e-17)
(455.35176 -0.98825939 -3.9725089e-17)
(463.03693 -4.6971994 -7.5823002e-17)
(465.4769 0.98687354 -2.1897747e-16)
(471.90752 -3.5249097 3.0162103e-16)
(464.5387 1.7294388 -3.5868688e-16)
(469.03395 -0.90919328 -5.7908204e-17)
(468.98614 1.3555553 2.5951276e-16)
(460.311 -0.095902944 1.1336558e-16)
(459.87047 0.2475906 -2.9665197e-16)
(460.35642 -0.20433792 3.1211118e-16)
(460.32214 0.1586179 -7.2631375e-17)
(459.71529 0.070980239 -4.1008526e-17)
(459.40639 -0.20987642 3.0601315e-17)
(459.67955 -0.0069252717 9.9385023e-17)
(459.58125 0.15681175 -4.580943e-17)
(458.94831 -0.19531594 2.6758006e-16)
(461.05201 0.047598745 2.0223247e-18)
(459.00561 0.14382658 2.4746609e-16)
(460.53961 0.0089234376 -4.7202701e-17)
(460.33665 -0.23625369 1.8565455e-16)
(459.37362 0.22822156 -2.762872e-16)
(459.44946 -0.025141609 2.6487947e-16)
(460.42719 -0.10575602 -1.5352798e-16)
(459.74341 0.32984507 2.6231855e-16)
(459.62769 -0.40156833 -1.5601017e-16)
(459.88839 -0.16119768 2.2765644e-17)
(460.79612 0.40563475 -1.574096e-16)
(459.37832 -0.26147211 2.5830956e-16)
(461.3388 0.013338569 5.6240058e-17)
(459.2955 -0.010401972 2.2883683e-16)
(461.00502 0.23112962 -3.7014462e-16)
(457.67222 -0.049796509 -3.1554066e-17)
(462.77326 -0.027857113 -7.4574649e-17)
(455.85705 0.22442897 1.7918191e-16)
(462.86706 -0.47235852 1.7106574e-16)
(457.04375 0.10254725 2.3779835e-16)
(460.57021 0.091036917 -1.5060726e-16)
(459.17991 -0.26237915 -6.5623206e-17)
(459.97941 0.32511397 1.9871643e-16)
(460.7128 -0.55502029 -1.4455261e-16)
(458.22716 0.10394717 -2.1954941e-18)
(461.54626 0.72157506 -1.3797405e-16)
(459.40179 -1.1477532 -3.5141357e-17)
(459.30906 1.0913197 -2.6918692e-18)
(461.08673 -0.66944629 -1.788609e-16)
(460.14814 0.20392784 6.0269848e-17)
(458.21322 -0.042799868 3.7262956e-16)
(461.09115 0.78506372 -4.1114382e-17)
(459.01978 -0.86395589 1.2175034e-16)
(458.87603 0.20321901 3.5277217e-19)
(461.03185 0.37070085 9.0816795e-17)
(458.88634 -0.47345967 -1.0198414e-16)
(459.07105 0.27014962 -1.802688e-17)
(460.50587 -0.06038623 -3.2730948e-16)
(459.25771 0.14881304 2.6691899e-16)
(459.32098 -0.80523533 -1.5454986e-16)
(461.76893 0.26772142 1.9516495e-16)
(460.38113 0.015758116 -1.3222742e-16)
(459.11331 -0.04525332 6.9430382e-18)
(460.38655 0.67952386 -7.5173433e-17)
(458.41005 0.52871086 2.4825104e-17)
(457.37502 -0.40310308 -6.482815e-17)
(458.96872 -0.68462216 2.0646761e-16)
(459.8308 -0.91280682 -4.095878e-16)
(460.38105 0.81922482 1.4983719e-16)
(457.93603 0.058049714 -1.2446547e-16)
(457.65537 -1.3680371 2.3355568e-16)
(460.37486 -0.084650583 8.2960502e-17)
(459.13336 0.6855456 -2.5033663e-16)
(456.61212 -1.1169875 -9.4324002e-18)
(463.28324 -0.97689443 1.3127745e-16)
(463.82229 -0.61389747 -9.8578281e-17)
(461.71699 1.7827463 -1.7507562e-16)
(454.52741 0.62089009 4.3230336e-17)
(463.10532 1.0885825 -2.3326744e-16)
(453.59666 -1.4328239 -1.1895052e-16)
(466.39465 -5.5808349 1.3344718e-16)
(460.35639 -0.3476555 -1.382036e-16)
(474.20233 -3.6173408 2.1670337e-16)
(465.16059 3.1302578 1.1985606e-16)
(465.36836 -1.0733543 1.4808829e-16)
(467.10807 1.3767498 1.8560494e-16)
(459.88516 -0.12368957 2.4996396e-17)
(461.34446 0.24242517 9.7891821e-17)
(459.47193 -0.1697306 -3.1033214e-17)
(460.7852 0.10137101 1.2947751e-16)
(459.30467 0.17591704 1.1886487e-16)
(459.49569 -0.19010293 -1.0142233e-16)
(458.51658 0.015458112 5.0405943e-17)
(460.22835 0.15942932 7.6109393e-17)
(458.16475 -0.33404976 5.3925229e-17)
(461.32133 0.13993917 2.9542207e-16)
(459.22413 0.020176281 -2.4863111e-16)
(460.4174 0.055588598 1.3136531e-16)
(460.68138 -0.20900232 7.1664852e-17)
(459.6003 0.31272232 1.8219485e-16)
(459.50741 -0.091490713 8.6150668e-17)
(460.6585 -0.21678979 -7.9524685e-17)
(459.72049 0.54961434 1.6405431e-16)
(460.04557 -0.5289062 -2.9023342e-16)
(459.72634 -0.2422097 4.3970706e-16)
(460.39602 0.55627788 -2.277234e-16)
(460.45811 -0.3843311 2.5646474e-16)
(459.88595 -0.047834814 -2.8619185e-16)
(460.77531 0.18463615 2.9383216e-16)
(459.32344 0.23518193 -2.6059021e-16)
(459.61442 -0.14986689 4.838083e-16)
(460.49608 0.21638363 -1.497387e-16)
(458.16666 -0.2058956 -2.1946524e-16)
(460.06412 0.092817239 4.600384e-16)
(458.90582 -0.11700147 -3.4128509e-16)
(460.08039 -0.15683738 2.1020814e-16)
(457.89744 0.13231997 -3.9081793e-16)
(461.79682 -0.30490108 2.9586812e-16)
(459.11131 0.17581388 -5.7843276e-17)
(459.82982 -0.50643138 2.7261282e-16)
(460.73711 0.6728148 -3.8955684e-16)
(460.0491 -0.41340112 4.2839027e-17)
(460.4102 -0.02996168 -2.1761512e-16)
(459.54868 0.47314529 4.0293477e-16)
(460.97396 -1.0644273 -1.7346324e-16)
(458.83213 1.5920581 1.4568646e-16)
(459.30675 -0.83552926 -5.0428975e-17)
(460.11583 0.34113856 -2.2538148e-17)
(459.13864 -0.28087948 8.2273765e-17)
(458.59262 0.065228084 -2.8294229e-17)
(460.05633 0.27210807 -4.3157464e-17)
(459.43556 -0.3206292 1.7455124e-16)
(458.76125 0.20348924 -1.7591657e-16)
(459.8796 -0.13577452 1.7326834e-16)
(459.27393 -0.6879879 -2.0541606e-16)
(460.55756 -0.018355628 1.7113951e-16)
(460.1248 0.32007964 -3.0013146e-16)
(458.73649 0.26278592 4.4401655e-16)
(459.86119 0.75337621 -4.3076649e-16)
(458.27361 0.21667862 2.1045385e-16)
(456.78145 -0.12952346 -2.3216488e-17)
(457.45099 -0.67421163 -8.2685411e-17)
(459.02592 -1.057043 -3.1014829e-18)
(460.15361 1.0676194 -1.7905078e-16)
(457.07752 0.19980842 -3.5742273e-17)
(456.46046 -1.5303435 -1.3658216e-16)
(459.43096 -0.44359456 3.6706685e-16)
(458.34686 0.57314522 -2.329084e-16)
(456.3168 -1.7724069 -1.7490543e-16)
(460.94047 -1.4473222 2.3620987e-16)
(462.75715 0.31516309 -1.6624669e-16)
(461.98267 2.3592317 -9.1435854e-17)
(452.63539 1.0929152 -4.4903496e-17)
(461.1311 1.8310678 5.1051052e-18)
(449.96264 -1.8264954 -1.073639e-16)
(471.38998 -5.4161904 1.4296075e-16)
(455.05144 -1.9870296 4.7108043e-17)
(476.58927 -4.9297139 -1.7848592e-16)
(466.20318 3.2909932 -9.234624e-17)
(464.36527 -1.3949826 4.9139389e-16)
(466.54735 0.59182912 1.3284916e-16)
(458.99383 -0.22863887 -3.3418875e-17)
(463.17017 0.32429612 -1.7552553e-16)
(457.63886 -0.15128014 -2.1632171e-16)
(461.91698 0.11245462 -2.2119501e-16)
(457.75328 0.22191902 2.3597886e-17)
(460.77539 -0.13230892 4.3503539e-18)
(457.17107 -0.069319499 -1.5022101e-16)
(461.52274 0.23136941 2.7874002e-16)
(457.88155 -0.43829988 1.1053104e-17)
(461.02348 0.095378397 -2.6859222e-17)
(460.02065 0.057780331 -2.0083536e-16)
(459.7945 -0.02673521 9.8599219e-17)
(461.25325 -0.19824009 4.6613164e-17)
(459.53215 0.42059085 1.9512241e-16)
(460.63867 -0.072797152 -2.8524159e-19)
(460.03772 -0.37712232 -5.2527221e-17)
(460.01577 0.66869635 7.7865138e-17)
(460.22313 -0.46077567 -4.0494679e-17)
(459.47705 -0.30000598 5.203986e-17)
(459.74643 0.41305061 -4.5517723e-18)
(461.19272 -0.23464346 1.7074427e-18)
(458.13522 -0.079750535 4.0108823e-17)
(461.72154 0.159615 -9.7365782e-18)
(459.16509 0.36742152 5.3646452e-17)
(459.65315 -0.24290442 -2.5072955e-16)
(460.11217 0.2029501 1.5247876e-16)
(459.07072 0.25624833 -9.9826348e-17)
(457.90109 -0.5763433 4.4350031e-16)
(461.72238 0.22476343 -1.9587048e-16)
(457.10709 0.22882961 2.3526153e-16)
(461.05606 -0.70248947 -1.366361e-16)
(458.08766 0.18269373 1.559238e-16)
(462.27182 -0.17315998 -2.9322042e-16)
(457.94399 -0.21722785 3.5313059e-16)
(461.23772 0.49403177 -2.0394093e-16)
(460.98218 -0.91920134 4.0709285e-16)
(457.96775 1.3413909 -4.6486982e-16)
(461.25032 -1.2163994 5.0715546e-16)
(457.96863 0.64414601 -2.103845e-16)
(461.02836 -0.14765576 1.8206733e-16)
(458.13822 0.99332661 4.9695209e-17)
(458.16728 -1.3900063 3.9748663e-17)
(460.92016 1.2845281 1.1858304e-16)
(455.54406 -0.5973696 4.519888e-17)
(458.94657 -0.22491417 -2.0228395e-16)
(460.74358 0.63473833 3.0855576e-16)
(455.86357 -0.13229819 -6.1537263e-17)
(458.43223 -0.40379766 3.486489e-16)
(458.43744 -0.48446426 -1.2338958e-16)
(457.79276 0.0092773896 -2.0573887e-16)
(458.24069 0.12730815 -4.7560844e-16)
(457.15804 -0.083812254 1.9419777e-16)
(458.27873 1.3907368 6.2223184e-17)
(456.281 0.37280835 1.5342763e-16)
(454.35918 -0.048659408 -3.3965415e-16)
(454.85349 -1.2321349 3.9127118e-16)
(455.73525 -1.2452807 -1.5572805e-16)
(457.75822 1.3455091 -2.7837086e-16)
(455.89465 1.0649788 2.2787518e-16)
(453.80167 -2.1718696 2.4212012e-17)
(456.27819 -0.49484518 5.2751392e-17)
(456.18464 0.87763022 -2.2496563e-16)
(453.11239 -2.1112089 -3.0195122e-16)
(458.40069 -2.9875175 4.040622e-16)
(460.74429 -0.68249423 -4.4595181e-16)
(457.8852 3.2612573 2.6733187e-16)
(453.85665 1.7625529 -4.1409343e-16)
(461.73202 1.3237674 2.2818333e-16)
(445.85097 -2.7038394 -1.5215113e-16)
(463.19294 -3.3155009 6.8796338e-17)
(457.0565 -0.97018967 -4.1187608e-17)
(486.4305 -3.7111833 7.4619268e-17)
(471.57171 3.3625245 -6.8802322e-16)
(459.23743 -2.3619293 2.5777542e-16)
(467.05546 0.83836512 -1.4492504e-17)
(458.18989 -0.36595049 4.3612038e-17)
(463.48317 0.43064839 1.9233458e-16)
(456.05607 -0.10826485 6.1074964e-16)
(463.52368 0.066569829 7.4616392e-17)
(455.75105 0.31051391 5.856371e-17)
(463.58117 -0.11484226 1.2254458e-16)
(455.84373 -0.13708392 1.5864764e-16)
(462.98285 0.19850853 1.1307607e-16)
(458.15404 -0.31217042 8.5441025e-17)
(459.95627 -0.089542369 1.6308591e-16)
(461.38276 0.15304022 1.5971942e-16)
(458.78926 -0.043338767 1.2751796e-16)
(461.60533 -0.32914978 9.4206399e-18)
(459.78856 0.49779248 8.52331e-18)
(460.77817 -0.030336689 -9.507667e-18)
(459.77195 -0.33241182 2.3697666e-16)
(459.58775 0.57537937 -1.1717843e-16)
(460.64839 -0.42462195 2.8719184e-17)