/*--------------------------------*- C++ -*----------------------------------*\
| =========                 |                                                 |
| \\      /  F ield         | OpenFOAM: The Open Source CFD Toolbox           |
|  \\    /   O peration     | Version:  2.3.0                                 |
|   \\  /    A nd           | Web:      www.OpenFOAM.org                      |
|    \\/     M anipulation  |                                                 |
\*---------------------------------------------------------------------------*/
FoamFile
{
    version     2.0;
    format      ascii;
    class       volScalarField;
    location    "2.4e-05";
    object      k;
}
// * * * * * * * * * * * * * * * * * * * * * * * * * * * * * * * * * * * * * //

dimensions      [0 2 -2 0 0 0 0];

internalField   nonuniform List<scalar> 
7500
(
9.9983413e-06
9.9985465e-06
1.0006639e-05
1.0007806e-05
1.0008162e-05
1.0010874e-05
1.0013357e-05
1.0015497e-05
1.0020453e-05
1.0025216e-05
1.003488e-05
1.0042485e-05
1.0051399e-05
1.0056076e-05
1.0058033e-05
1.0057556e-05
1.0056513e-05
1.0056057e-05
1.0057177e-05
1.0060422e-05
1.00671e-05
1.0075296e-05
1.0089101e-05
1.0104927e-05
1.0114169e-05
1.0121271e-05
1.0123856e-05
1.0123554e-05
1.0123367e-05
1.0124261e-05
1.0126128e-05
1.0128643e-05
1.0131462e-05
1.0134983e-05
1.0136813e-05
1.0140229e-05
1.0142801e-05
1.0147494e-05
1.0150654e-05
1.0157237e-05
1.0161307e-05
1.0170181e-05
1.0181822e-05
1.0204972e-05
1.0224022e-05
1.0240035e-05
1.0254741e-05
1.0265605e-05
1.0275607e-05
1.0284092e-05
1.0294256e-05
1.0309569e-05
1.0320488e-05
1.0332762e-05
1.0350564e-05
1.0378621e-05
1.0409341e-05
1.0435674e-05
1.0469501e-05
1.050935e-05
1.0546924e-05
1.05824e-05
1.0629565e-05
1.0670723e-05
1.0739122e-05
1.0789805e-05
1.0886599e-05
1.0946289e-05
1.1059151e-05
1.1131543e-05
1.1269144e-05
1.1350693e-05
1.1511237e-05
1.1613018e-05
1.1892974e-05
9.9990187e-06
1.0000767e-05
1.0004698e-05
1.0005821e-05
1.0008018e-05
1.0012376e-05
1.001685e-05
1.0019823e-05
1.002598e-05
1.0028837e-05
1.0034303e-05
1.0037178e-05
1.0042234e-05
1.0046166e-05
1.0050898e-05
1.0056549e-05
1.0061852e-05
1.0070095e-05
1.0077994e-05
1.0091367e-05
1.0100141e-05
1.0114674e-05
1.0121045e-05
1.0129733e-05
1.0132986e-05
1.0135664e-05
1.0137816e-05
1.0139918e-05
1.0142368e-05
1.0144808e-05
1.0147214e-05
1.0149376e-05
1.0151502e-05
1.0153205e-05
1.015505e-05
1.0157239e-05
1.0160714e-05
1.0166241e-05
1.0175954e-05
1.0196022e-05
1.0221419e-05
1.0266025e-05
1.0323359e-05
1.0375346e-05
1.0468537e-05
1.0530127e-05
1.0635097e-05
1.0713592e-05
1.0802701e-05
1.0922963e-05
1.1015712e-05
1.1147538e-05
1.1307593e-05
1.1446322e-05
1.1679857e-05
1.1886693e-05
1.2215552e-05
1.2453766e-05
1.2868955e-05
1.3157174e-05
1.3657079e-05
1.4025927e-05
1.4640303e-05
1.5082409e-05
1.5820925e-05
1.6388621e-05
1.7380982e-05
1.803417e-05
1.9144912e-05
1.9906408e-05
2.1110308e-05
2.1894556e-05
2.325601e-05
2.418703e-05
2.6497447e-05
1.0000281e-05
1.0002723e-05
1.0008527e-05
1.0010764e-05
1.0015955e-05
1.0020844e-05
1.0030505e-05
1.0038571e-05
1.0055499e-05
1.006892e-05
1.0096988e-05
1.011996e-05
1.0164988e-05
1.0204912e-05
1.025797e-05
1.0321224e-05
1.0371497e-05
1.0440377e-05
1.048106e-05
1.0540836e-05
1.0571202e-05
1.0613139e-05
1.0633062e-05
1.065318e-05
1.0665127e-05
1.067311e-05
1.0676366e-05
1.0678804e-05
1.0683443e-05
1.0686642e-05
1.0695601e-05
1.070508e-05
1.0721219e-05
1.0742828e-05
1.0778679e-05
1.0829909e-05
1.090729e-05
1.1029112e-05
1.1191684e-05
1.1462973e-05
1.1754546e-05
1.2173344e-05
1.2799168e-05
1.3330162e-05
1.4239221e-05
1.4996772e-05
1.6277514e-05
1.7422125e-05
1.8545995e-05
2.0436883e-05
2.1916279e-05
2.3925008e-05
2.6457181e-05
2.8607019e-05
3.2188384e-05
3.5162478e-05
3.9873104e-05
4.3290358e-05
4.9032244e-05
5.29747e-05
5.9719094e-05
6.4662696e-05
7.2406997e-05
7.8798792e-05
8.8059045e-05
9.527004e-05
0.00010748836
0.00011566552
0.00012886699
0.00013821254
0.00015140685
0.00016048876
0.00017508332
0.00018560702
0.00021031477
1.0010542e-05
1.0017296e-05
1.0038259e-05
1.0050926e-05
1.008238e-05
1.0107359e-05
1.0166311e-05
1.0211044e-05
1.0314092e-05
1.0392283e-05
1.0566723e-05
1.0701019e-05
1.0963352e-05
1.1221459e-05
1.154598e-05
1.1917132e-05
1.2220605e-05
1.2586588e-05
1.2812932e-05
1.3088514e-05
1.3213163e-05
1.3374581e-05
1.3444322e-05
1.3508571e-05
1.3528179e-05
1.3551727e-05
1.3582621e-05
1.3632423e-05
1.3713108e-05
1.3830567e-05
1.403041e-05
1.4313593e-05
1.4776123e-05
1.5370086e-05
1.637403e-05
1.7518865e-05
1.9065596e-05
2.1592848e-05
2.4194477e-05
2.7735873e-05
3.2587755e-05
3.7425073e-05
4.5814697e-05
5.2721048e-05
6.4354411e-05
7.3879111e-05
8.9869186e-05
0.00010573665
0.00011960694
0.00014380929
0.00016309579
0.00018934314
0.00022071537
0.00024715413
0.00029221385
0.00032661799
0.00038223948
0.00042156544
0.00048658079
0.00053059075
0.00060564382
0.00065818307
0.00074027074
0.00080799469
0.00090470414
0.00097808653
0.001101633
0.001183902
0.0013157475
0.0014057167
0.0015291815
0.0016149735
0.0017477726
0.001844559
0.0020654971
1.0053193e-05
1.0082809e-05
1.0178505e-05
1.0245317e-05
1.0416531e-05
1.0548445e-05
1.0863408e-05
1.1082371e-05
1.1590228e-05
1.1938173e-05
1.2682702e-05
1.3286199e-05
1.4282117e-05
1.543338e-05
1.659886e-05
1.8062878e-05
1.9169079e-05
2.0546204e-05
2.1383228e-05
2.2370482e-05
2.2865117e-05
2.3415793e-05
2.3739439e-05
2.4122833e-05
2.4571482e-05
2.5174346e-05
2.6071022e-05
2.7357072e-05
2.9544623e-05
3.2265581e-05
3.7084421e-05
4.2290859e-05
5.1578713e-05
6.0857157e-05
7.765263e-05
9.3322246e-05
0.0001193154
0.00014886706
0.00018772409
0.00022432231
0.00029226465
0.00034744467
0.000439848
0.00051423796
0.00064780807
0.00074922391
0.0009177545
0.001082766
0.001221794
0.001470395
0.0016556143
0.0019294834
0.0022034177
0.0024581923
0.0028981935
0.0031997795
0.0036919369
0.0040353873
0.0046049483
0.0049782384
0.0056091972
0.0060292929
0.006705214
0.0072199976
0.0080031982
0.0085651929
0.0095187811
0.010143184
0.011152043
0.011801068
0.012700492
0.013312053
0.014244275
0.014914027
0.016423852
1.0178839e-05
1.0297977e-05
1.0686053e-05
1.0997282e-05
1.1740287e-05
1.2295508e-05
1.3522302e-05
1.4299453e-05
1.5956067e-05
1.708644e-05
1.8915808e-05
2.1150526e-05
2.3175402e-05
2.6462853e-05
2.8955982e-05
3.2879684e-05
3.5547302e-05
3.9340733e-05
4.1757604e-05
4.479275e-05
4.7045596e-05
4.9749755e-05
5.3399842e-05
5.7847949e-05
6.5660622e-05
7.5147433e-05
9.2595484e-05
0.00011194207
0.00014776286
0.00018408382
0.00025132167
0.00031515595
0.00043205303
0.00053736882
0.00073165547
0.00089726275
0.0012009907
0.0014457828
0.0018816435
0.0022292769
0.0028501174
0.0033313255
0.0041804448
0.0048064318
0.0059572363
0.0067754274
0.0081742878
0.0094235998
0.010516695
0.012493453
0.013801378
0.015950614
0.017591265
0.019671109
0.022710388
0.024677115
0.027922439
0.030291917
0.033947502
0.036291472
0.040239599
0.042758999
0.046921467
0.049787944
0.054513095
0.057731686
0.06321666
0.066774071
0.072469889
0.075968381
0.080884563
0.08413947
0.089041576
0.09248809
0.10017614
1.0596902e-05
1.127347e-05
1.3025003e-05
1.4220765e-05
1.6648876e-05
1.8289934e-05
2.1466238e-05
2.3167124e-05
2.6658771e-05
2.8858088e-05
3.2502241e-05
3.6090564e-05
3.9946987e-05
4.512825e-05
5.0714827e-05
5.719103e-05
6.5007581e-05
7.2370322e-05
8.3356515e-05
9.416634e-05
0.00011400464
0.00013715131
0.0001812419
0.00023249638
0.00033224748
0.00043938863
0.00064699806
0.0008508453
0.0012402676
0.0015959003
0.0022669466
0.0028478077
0.00392558
0.0048226812
0.0064924918
0.0078141507
0.010262132
0.012100133
0.015444549
0.017920658
0.022357507
0.025554762
0.031371731
0.03539194
0.042861926
0.047803386
0.056601469
0.063546036
0.070633895
0.081963502
0.089000737
0.10105358
0.109024
0.12174565
0.13640962
0.14620735
0.16271094
0.17502861
0.19221973
0.20347268
0.22200118
0.23356716
0.25267716
0.26535055
0.28647174
0.30056642
0.32417518
0.34018
0.36452925
0.37933594
0.4000434
0.41338082
0.43311184
0.44698436
0.47736441
1.1286407e-05
1.6835761e-05
1.9275546e-05
2.5212955e-05
2.7647026e-05
3.3286267e-05
3.6075637e-05
3.8969335e-05
4.4666471e-05
4.831056e-05
5.5809619e-05
6.0823224e-05
7.1028182e-05
7.9015096e-05
9.4801315e-05
0.00011035763
0.00014054945
0.00017742089
0.0002506765
0.00034421456
0.00053410877
0.00075539213
0.0012053919
0.0016803564
0.0026440698
0.0035704956
0.0054110709
0.007043558
0.010222244
0.012868061
0.017932364
0.021951085
0.029480009
0.035292165
0.04615468
0.054181354
0.069143147
0.079641373
0.09897895
0.11233355
0.13651795
0.15292187
0.18304478
0.20271681
0.2396406
0.26280486
0.30536681
0.33345675
0.37161736
0.41737819
0.44735054
0.49907333
0.53290285
0.59068362
0.63861926
0.68585256
0.74683144
0.80143085
0.85638963
0.91137759
0.97338492
1.021254
1.0916265
1.140774
1.217828
1.270019
1.3541019
1.4186043
1.5070915
1.5625435
1.6372181
1.685427
1.7562331
1.8078919
1.9186155
1.1273981e-05
2.002529e-05
2.3307195e-05
3.5556618e-05
3.9544106e-05
5.1965047e-05
5.7432007e-05
6.9744974e-05
8.1096907e-05
8.9485543e-05
0.00010447675
0.00011804984
0.0001442796
0.00017938433
0.00024824749
0.00035540357
0.00057437319
0.00088918731
0.0015500322
0.0023542785
0.0040448998
0.0058155439
0.009507992
0.012993774
0.020183751
0.026402673
0.03890935
0.049008397
0.068877496
0.084027187
0.11328149
0.13468598
0.17497883
0.20399272
0.25816509
0.29593361
0.36636972
0.41305605
0.49971831
0.55615139
0.65924
0.7259706
0.84860652
0.92579017
1.0702866
1.1581883
1.3204692
1.417466
1.5858081
1.712533
1.845625
2.0285434
2.150533
2.3584039
2.4899068
2.7143642
2.8791839
3.0979635
3.2752139
3.5118734
3.7019666
3.9281481
4.1682331
4.3829263
4.6263055
4.8517467
5.1531096
5.4156997
5.7418238
5.9612515
6.2594591
6.468497
6.7729884
7.0097677
7.4918948
1.0328083e-05
1.415043e-05
1.7815797e-05
2.6589e-05
3.8047646e-05
4.9133335e-05
6.9364015e-05
8.3379413e-05
0.0001147534
0.0001400232
0.00019203627
0.00026638936
0.00040943299
0.00067161485
0.0012191005
0.002091522
0.0039662884
0.0064026889
0.011657995
0.017314882
0.029400314
0.04066915
0.064456873
0.084571115
0.12634461
0.15891961
0.22474494
0.27337182
0.36927935
0.43711958
0.56820305
0.65829971
0.82689659
0.94255945
1.1574895
1.30203
1.5693621
1.7409997
2.0597234
2.2614183
2.6322061
2.8678131
3.2967235
3.5654707
4.0630343
4.3703275
4.9298269
5.2751748
5.8889301
6.2611276
6.8970946
7.3524647
7.8853681
8.589585
9.0967545
9.9796195
10.574823
11.516503
12.304692
13.325339
14.274371
15.345663
16.186159
17.258322
18.056813
19.290972
20.386755
21.592097
23.324664
24.573636
26.401012
27.699633
29.58653
30.942248
33.382528
1.342306e-05
2.7807979e-05
3.2611523e-05
4.1748043e-05
4.5701029e-05
5.0206179e-05
6.0242714e-05
8.2403268e-05
0.00013587291
0.00025556914
0.00051961819
0.0010640832
0.0021439022
0.0041793973
0.0086079509
0.014839533
0.02843218
0.043872399
0.077263864
0.10903619
0.17685861
0.23361013
0.35316896
0.44469573
0.63405608
0.76921314
1.0421152
1.2301934
1.5999765
1.8490816
2.3249962
2.6483622
3.2299409
3.6402408
4.3823487
4.8782576
5.7812809
6.3739361
7.4673894
8.1765415
9.4754229
10.311619
11.782889
12.752876
14.583505
15.786562
17.944625
19.313815
21.709698
23.193469
25.762038
27.404249
29.854078
32.673084
35.385017
40.546238
43.88689
48.555047
52.575627
59.17802
64.888415
68.127039
72.140886
77.762741
81.758063
89.939497
95.351655
105.90045
123.31196
131.41895
147.85513
154.4051
165.86586
172.70616
184.5879
1.2279297e-05
2.287642e-05
2.7633363e-05
3.7716946e-05
4.8274732e-05
7.3144533e-05
0.00013508659
0.00029402703
0.00067703741
0.0015551803
0.0034410171
0.0073373258
0.014704576
0.028534035
0.057508696
0.093575075
0.17085973
0.24963462
0.41624912
0.55923675
0.86015558
1.0902378
1.5677426
1.9066339
2.5982215
3.0666279
4.0113945
4.6427875
5.8777973
6.7084109
8.2721189
9.4779585
11.229335
12.975933
15.214128
17.047559
20.285562
22.540318
26.795063
29.555069
34.707615
37.882856
43.59701
47.862429
57.867519
62.925719
73.285674
78.59651
90.6598
96.669025
111.391
117.99859
131.4224
154.52068
172.88185
224.77277
230.12948
245.49769
274.85185
333.09455
341.41025
349.04167
376.3596
422.70898
433.39283
509.54727
526.50038
600.77711
586.9622
599.15968
648.6882
643.36459
656.99948
710.882
706.31858
1.1401013e-05
1.3672136e-05
1.7376365e-05
2.874101e-05
7.063855e-05
0.00021689935
0.00065153445
0.0018007148
0.0045181968
0.010642669
0.023223982
0.048742721
0.092146266
0.17690483
0.31966744
0.49840979
0.84023129
1.1802434
1.8327133
2.368948
3.4488727
4.2334938
5.8177093
6.9193374
9.126494
10.662038
13.76739
15.879605
19.962362
22.92279
28.799913
32.858314
39.959905
46.963303
52.934993
64.119211
76.779516
87.200477
109.2127
119.32995
146.07108
156.26972
192.635
216.17986
300.29148
295.13682
342.38207
366.79683
447.1832
466.90409
580.51015
567.96319
685.4228
697.76985
714.75849
956.01565
823.40794
946.85675
1118.5941
1055.8485
871.02542
855.16462
992.45199
866.07816
855.04209
981.47053
969.06085
759.05565
622.32614
652.25861
470.46858
491.83081
487.44535
478.32397
358.81306
1.1487748e-05
1.5610872e-05
2.9697681e-05
0.00010471383
0.00041215348
0.0014480966
0.0043967949
0.011777129
0.028380722
0.06542044
0.1369276
0.27204224
0.48852099
0.94418438
1.3966397
2.2968318
3.298353
4.8412312
6.6349308
8.6827182
11.88115
14.498423
19.370604
22.989608
30.339806
35.859264
47.298567
54.869831
70.557824
83.186524
110.44872
126.16245
161.63859
181.47448
214.52954
305.64031
338.5702
412.71858
528.46596
553.38821
700.3415
720.49481
869.46253
886.63519
1090.564
953.73219
1013.0114
1040.7997
1057.6576
1143.3756
1001.4255
923.97849
940.9219
782.65141
767.71638
706.99801
519.16929
689.65924
489.69197
322.61193
272.88067
339.58035
310.5503
171.52187
258.65775
192.25695
191.41186
80.726934
63.009636
58.512917
33.948425
41.96847
42.168325
33.592164
21.141637
1.0346029e-05
2.1876967e-05
0.00011629014
0.00064797707
0.0027585021
0.009359655
0.027041664
0.068567841
0.15616615
0.3580305
0.69980701
1.2353741
2.2538878
3.7397695
5.4161037
8.7567821
11.475969
17.118752
21.429905
29.624057
37.68438
49.013363
62.914238
77.768842
108.60909
130.61968
181.90656
208.60029
296.91942
357.73934
501.30609
555.00228
744.43189
802.96548
912.15819
1177.9513
1098.0725
1379.1609
1212.5805
1260.3101
1255.4387
1047.7731
1104.2309
948.92703
620.23388
550.23448
397.59528
350.35063
356.99976
345.04999
143.87457
219.78239
115.27676
94.946459
155.01115
68.676148
74.376036
156.11072
41.683131
16.416575
21.595897
61.040196
28.766329
19.522708
73.755146
36.65022
12.391142
9.2771783
9.3288526
7.5496115
6.074783
9.3419758
10.037384
8.9650152
5.8858471
9.8424111e-06
7.420177e-05
0.00073245146
0.0041363308
0.016823068
0.053347261
0.14475402
0.34642502
0.74034386
1.6704552
2.8874465
5.0095444
8.6913562
12.371764
19.427706
28.125163
37.588752
55.656484
69.921454
99.804356
128.6052
175.79932
224.3777
311.83893
464.81325
567.03403
799.37756
900.40837
1136.1933
1263.7122
1395.2018
1416.1959
1500.6883
1242.9002
1175.7002
1023.9279
805.22512
686.94607
319.77026
407.26209
205.07854
196.24583
219.9619
111.86845
46.13592
45.211685
41.993184
34.72463
39.247015
25.998739
14.90782
19.800013
17.058674
13.879755
35.816258
24.573856
30.687113
63.92484
12.086454
6.2377065
9.6500106
23.146278
13.038254
9.5223584
33.420916
12.440833
7.4336022
5.7665506
5.72768
5.0640335
4.5742349
5.6075992
5.7644804
5.686901
4.8487294
8.988597e-06
0.00048478837
0.0047042587
0.024328753
0.090726063
0.2658159
0.67449347
1.5258213
3.039229
6.4703771
10.296151
18.196333
27.092038
40.738155
65.306093
87.041686
130.42729
186.71893
243.80668
387.5314
517.22879
735.00738
945.66978
1260.609
1353.3298
1587.5415
1579.8494
1540.5277
1297.4312
1180.631
792.94027
783.80197
259.49168
308.72248
202.18025
124.37855
186.48204
70.348464
35.655787
40.471973
17.914075
32.655485
18.367422
21.150332
12.789233
10.65852
9.2362494
10.618958
11.015746
11.57451
11.519696
10.019813
7.7867755
6.7618085
17.546349
18.081182
29.052617
36.068225
9.5065848
6.0033303
7.1851344
14.69111
7.0068203
7.0533621
23.137202
9.6997002
6.4641962
5.3437866
6.2740956
5.3305902
5.0624849
5.0100525
5.3723295
5.6960851
5.0361684
1.6284554e-06
0.0031002667
0.027084215
0.12665563
0.42809769
1.1537307
2.747958
5.7318168
11.024102
21.574159
33.424282
57.606468
84.826012
142.8645
213.15817
301.9082
515.48756
710.19918
977.80479
1374.8219
1463.8586
1683.6619
1550.7144
1459.7932
1062.2057
870.68659
410.86874
511.55413
222.93197
179.84507
88.186336
84.450765
25.687135
38.973346
27.983923
21.642444
56.031418
10.617455
27.458788
16.460265
8.4765737
13.817704
7.2662554
16.453678
11.480669
9.1435361
5.3740003
6.205141
17.84779
12.740724
11.31221
11.087421
10.207498
6.6957101
10.946536
20.239144
33.542968
26.519888
6.9906947
6.2926395
6.6104785
11.150792
8.6489053
8.3105654
11.62452
8.1532286
6.2839677
5.4578346
5.1184147
4.7816582
4.5514276
4.0802904
4.6649634
5.9244579
5.5392429
1.4153749e-05
0.017703606
0.1373272
0.57767981
1.7650411
4.3863115
9.8647026
18.946151
37.390312
65.444369
105.63177
184.84696
290.5475
539.44515
793.68988
1237.2241
1523.1856
1686.8767
1748.9212
1548.2741
1124.49
874.86765
374.94471
253.91493
133.75953
104.65344
38.913308
81.771375
19.303337
23.689507
8.8446924
5.7113184
5.5904824
5.9020538
6.0442851
9.1663262
9.1198764
7.1049586
35.821009
14.146123
10.777465
9.9413363
11.363641
7.9729056
10.72013
10.708157
7.2683412
7.7810995
17.737187
13.424815
8.6183117
9.8300406
10.872693
7.2377135
8.9748522
18.036717
26.395367
20.302378
6.6747633
7.5081646
8.0853378
9.5259537
6.8570437
7.9724254
10.94742
8.5726493
6.2378399
5.3418103
4.6904252
5.2062719
5.1613961
4.525806
4.6670413
5.3747422
5.4833353
0.00058032698
0.093616284
0.62110016
2.3159373
6.3921199
14.775417
30.731073
59.951763
118.32833
202.55395
359.76024
684.15879
1151.943
1617.951
1884.5205
1888.6123
1422.9771
915.15199
542.92166
308.1443
208.93589
155.6744
36.495207
27.379255
13.768328
19.202071
7.1659941
9.6958364
4.7932672
6.7322442
1.5479291
1.4317132
2.0788258
4.5190146
2.9927993
6.527423
4.9696263
7.0742831
31.00523
15.112436
9.0916587
8.1124138
16.583719
7.7863965
11.584557
10.051148
6.4686866
7.2809216
7.6014114
13.107113
9.8231819
8.2094369
7.5365329
6.3535029
11.961337
13.571058
12.461438
15.796178
7.0579088
9.3371496
10.71734
6.7394641
8.5029696
6.5954012
9.168031
5.5966405
4.859426
4.9343011
5.2385601
7.2734964
6.7666206
5.1316284
5.2294088
5.8668696
5.8548946
0.0073094488
0.4459897
2.5026303
8.196305
20.634964
45.260735
92.676055
192.10031
381.42868
728.07785
1428.2327
1830.448
1997.4566
1691.7044
1038.9874
460.23963
204.50534
139.08357
61.751504
55.583725
56.87775
21.535732
7.5297362
4.6605399
4.266279
8.1402102
3.1050216
2.723422
3.3538847
8.1767396
1.3134965
1.2034493
2.1114917
4.5991279
3.412602
7.2209686
6.3809585
9.5836253
30.522616
12.160355
10.135528
6.3179396
7.3306263
7.1555972
15.808719
9.3479424
7.5855484
6.3145585
16.436743
15.231502
11.069837
8.7223871
10.438115
7.3664892
12.471392
10.383041
5.6482617
10.876395
6.6402279
9.5235894
12.454608
7.2089753
16.679362
7.8509122
6.4410134
4.9297189
4.5978269
4.9410067
6.3969771
8.7298529
10.861464
7.2372557
6.4874758
6.4938587
6.0206784
0.057717013
1.8995225
8.9377548
25.867572
61.118646
133.61432
286.46602
671.33699
1447.0104
1839.9006
2117.7134
1643.7047
665.23668
326.21427
140.97627
46.066671
22.861966
29.851806
8.4310918
10.198193
18.144309
28.10808
8.3456882
3.4421607
4.8318597
3.8684824
2.4882403
1.9056736
3.7302189
6.7519774
2.2450203
1.232685
3.6437615
2.4193247
3.9236332
5.9263357
6.6224587
11.949963
35.098052
11.656118
6.2198491
5.7851717
4.8786534
6.0490024
15.957823
9.139073
5.5500863
6.4662814
17.450354
7.5569867
15.164557
9.5178091
9.3563483
7.4830089
11.522614
9.6586528
7.8147883
6.1622265
5.9863831
8.3891791
50.782697
11.858756
17.34232
5.5991183
5.6587544
5.1394158
4.7281122
5.2642583
7.9665186
8.4262861
11.289702
8.9501857
7.6001176
6.6900004
5.8898334
0.36121169
7.2403664
28.554265
74.65409
174.08067
405.29217
999.71689
1819.9153
2298.1574
1683.6553
721.05641
313.76508
81.023169
55.088746
14.768395
3.6961628
3.3184763
8.7943369
3.322795
4.2039769
8.7542049
13.471846
3.2329036
2.8486248
2.6629694
3.146431
2.067371
1.9008953
4.1215984
5.1885397
3.2627583
1.3334182
4.2580755
2.0912086
2.8504019
4.4666944
2.2843512
6.4007576
9.4135951
7.6255348
4.5586849
4.5427775
3.7529454
5.7899959
9.6869426
6.4948066
7.1675769
5.387738
11.546847
5.7554793
5.9537181
8.1120432
8.0480473
7.3886504
10.698983
8.4829668
6.241443
5.7801201
7.3404185
9.3378824
27.063297
16.983173
7.1926795
9.9032686
7.4226802
5.7163172
4.9279975
5.2614375
6.0982938
6.7593926
9.773661
9.7126619
7.8982069
6.0347253
5.8600287
1.9241949
24.802271
83.238263
204.28433
510.20162
1396.9407
1957.3953
1823.9959
894.33032
368.23152
133.7738
32.774944
6.7790243
8.9812688
2.3734486
0.83809292
1.2471134
2.0262508
1.7417263
3.3790028
5.689451
7.8860951
3.630335
1.6920865
2.8722977
7.4634789
1.7230597
1.9793498
4.2497859
4.1002292
3.7224952
1.7535544
2.0071223
1.7353748
2.1526008
4.0098117
2.1961349
3.5461114
4.4510106
7.6015373
4.5841132
3.914809
4.1001076
5.2692538
9.6440585
5.1215795
6.190046
5.1725286
10.489723
5.3739333
4.4302667
7.3520801
8.7983967
6.7357888
8.1626865
7.0447828
6.5231034
6.9256598
7.4518296
15.71108
11.872571
14.4245
10.042882
11.443046
8.871447
6.2665721
4.9506387
4.8051737
5.9181439
6.8446329
8.1033741
7.8770086
6.2556928
5.6366395
5.8950118
8.9886932
77.391382
226.88974
562.49195
1670.2952
2203.6305
1408.2771
486.37203
177.28651
49.703592
14.522818
2.6205739
0.85580843
2.3710026
1.0001667
0.67125434
0.98827969
1.0001991
2.0006999
3.0305125
4.7268609
8.775802
3.5481453
1.7915801
3.3580903
9.868077
1.8387243
2.4985315
4.5382729
3.8397281
4.0496033
2.1958334
1.3342494
1.2919014
1.7092648
3.5085504
2.0201074
1.9577499
3.4087476
8.7327302
4.0536079
4.5306461
4.9435443
3.98847
9.3716232
4.7190303
5.5700138
4.9115771
6.1130328
4.4842338
4.9272512
5.6603888
5.9840293
5.5373787
6.9768039
6.4806959
5.5505736
9.1062034
7.4000232
18.684449
12.539244
11.112053
9.2803581
8.0261605
7.8753767
6.270455
4.6261227
4.4834073
6.2376801
6.8711348
6.0617623
5.2977393
5.3880377
5.5954419
6.1601831
37.695942
222.58856
604.21488
1686.8771
2290.0911
1146.1699
458.77189
111.41532
23.276877
6.0193613
1.551417
0.84910661
0.49504415
0.92913413
0.95407937
0.69223464
0.96376405
0.79067085
1.3115966
2.8979254
4.2962132
5.1615204
3.4062291
2.5866731
4.613114
7.3856697
3.3357482
3.1439958
4.8101524
3.2371664
3.0755056
2.1551651
1.3135035
1.2457615
1.4506086
2.7467657
1.8487196
1.901339
5.5038028
5.8160418
3.1975257
5.405901
4.2654682
4.2644522
3.2202428
4.0032031
5.1619214
4.9339857
4.9177345
4.1588756
6.3762278
5.7940599
5.1350449
6.395933
9.7349064
7.2788573
5.1141025
9.5467355
7.1106282
32.919128
16.875328
10.758606
7.7783864
8.5392212
5.4975897
5.4264194
4.2182866
4.1411105
5.6605859
4.9053853
4.8291943
4.9802735
5.4974225
6.43097
7.3789468
145.32688
600.30039
1688.4277
2219.2617
1093.6092
325.52788
101.45187
13.855004
2.2472283
1.0886885
0.51627885
0.82664119
0.48626499
0.54608147
1.0823855
0.72239287
0.98311547
0.78277929
1.1903921
2.8441745
3.275606
2.0545927
3.5876905
2.6988819
7.0286205
4.3608748
3.5697018
4.6093781
4.9161117
2.91227
2.335161
1.9715307
1.4097083
1.4007394
1.4431742
2.3535238
1.9060293
2.3520251
3.1114337
2.7493375
2.2559611
5.8214964
4.011673
3.4244293
2.7296053
2.9902569
4.5691506
4.7252183
4.4827557
4.0140224
4.6073726
6.6644448
5.0350773
5.1380958
9.0159212
8.289801
5.4521704
5.6450814
8.3997361
13.888343
13.3007
10.478687
6.3652268
5.9782732
5.2886039
4.5538504
3.6914071
4.0246118
5.1086493
4.662112
4.7885286
5.2076334
7.1286371
8.2430211
8.1216199
483.61023
1615.9735
2694.967
1359.0804
368.93249
60.150062
12.725259
1.5408687
0.37833093
0.34157763
0.45325602
0.86815635
0.51360495
0.50064734
1.1631804
0.77485404
0.97511289
0.89572844
1.2141891
2.6433376
2.4821206
1.8316673
3.1425083
2.7124227
5.9364092
3.5962995
4.7710346
21.860708
5.1853833
2.8973264
2.0747116
1.8417311
1.4629853
1.5376708
1.6531484
2.1120654
1.9910889
3.4258067
2.4443693
2.612149
2.2547318
2.664701
2.7581625
2.4996252
2.7749635
3.171802
4.6379593
4.8931512
4.5119165
4.1073557
3.6844437
7.1917262
5.3097785
5.1887475
7.8338932
7.4587616
4.8027882
4.6394783
5.4336643
9.1465779
13.388265
10.14888
6.2811234
6.0087162
5.5829555
3.0871302
2.8687831
3.6751811
5.7412432
4.9287839
5.2465724
6.5915672
9.8052068
9.0611374
8.2746913
1470.1359
3230.6078
2157.2281
551.33201
69.566877
7.4268418
1.5305195
0.50487324
0.25804874
0.20751695
0.44910129
0.85772014
0.52877312
0.61941221
1.2310185
0.78203009
0.95813703
1.3238925
1.2068717
2.3069177
1.770928
1.7794692
2.0968578
2.3370459
2.7370768
2.9822745
4.0874906
34.455055
5.4540373
4.5995525
2.2397352
1.9046918
1.639746
1.3698624
1.7238327
2.1066907
2.0742536
4.2195939
2.1011162
2.5508671
2.3109738
2.5015084
2.5809097
2.7985921
3.0851535
4.0066555
5.0651067
5.4510746
5.2119162
4.2602862
3.8159609
4.4163515
5.1572659
5.0043172
8.7058833
6.8372964
5.2698282
5.0368569
4.6715033
8.759554
15.159643
9.8575115
6.5283618
5.4173824
4.8994538
2.1632235
2.375664
3.6258716
6.8518487
6.108631
6.8952424
9.1381408
10.697346
9.2495582
8.1453575
4243.0129
3440.7355
795.79488
102.93793
7.4304877
1.0133439
0.4750689
0.45545085
0.29633253
0.18860534
0.46058843
0.94377585
0.54113787
0.86311466
1.3630355
0.78252938
0.91863208
1.6543019
1.1849453
2.0419582
1.4887095
1.6853658
2.2849223
1.6460699
1.4192271
2.4316451
3.3775146
18.09032
4.2882572
10.001019
3.2934596
2.2255451
1.7929473
1.3583398
1.4888713
2.1823127
2.0922507
4.5044762
2.2904228
2.0151999
2.3383434
2.5490244
2.3576731
2.7154407
3.1697041
5.4065213
5.6772041
5.4177352
5.9486042
4.028857
3.3573617
3.3066234
3.5683301
5.6790927
6.7141587
5.6939454
7.8289444
5.7654269
6.108731
10.174927
9.8855104
8.5659816
6.607481
5.3601089
4.8099922
1.9253682
2.0400768
3.8077892
7.8224226
7.6824113
8.2265073
9.8495876
10.759003
9.027976
7.6939117
8032.7244
1709.7233
138.98519
11.582306
0.95780364
0.40774808
0.38947314
0.49578559
0.42015373
0.19390942
0.4788105
1.0795026
0.55925759
1.0281082
1.5036463
0.84294214
0.84356916
1.5682707
1.1829566
1.7897864
1.4372868
1.7030535
2.572132
1.5211649
1.3128933
2.1111847
2.7836257
4.1934088
3.5533778
10.957552
4.2254085
2.4977355
1.9237414
1.4455521
1.4853843
2.0493274
2.188269
4.3777791
2.060021
2.0290953
3.1102831
1.8760947
1.8905492
4.9953528
4.0173683
6.5615922
6.5458752
8.2566369
6.7007071
3.9264001
2.6812007
3.1353852
3.0372945
6.2695938
5.164685
4.8826604
10.818463
5.0615243
12.222358
8.2905073
9.0242941
8.2600595
5.3967598
4.6529902
4.2838012
1.5696692
1.8638223
4.229291
8.374625
9.3028129
8.5838108
9.8474455
10.658483
7.9077812
7.5887049
1631.0376
307.48455
14.254677
1.3209267
0.51956777
0.36042533
0.38674777
0.53644236
0.62713361
0.21938612
0.49340785
1.1280709
0.57498692
1.0454988
1.7118758
0.89287602
0.80940468
1.0787778
1.2123418
1.7012379
1.5630624
1.7784944
2.6548165
1.7004362
1.5597997
1.9514242
2.414755
2.883106
3.4822008
6.7981115
4.4845966
2.9083998
2.0678661
1.4794421
1.6878115
1.7679283
2.3556699
5.4451154
2.2556864
2.0702528
3.1889656
1.6908188
1.6980637
3.9613815
4.0340853
6.2355455
5.4208293
8.9587677
6.9389311
4.0898832
2.6172766
3.7058878
3.0681082
4.8999924
4.446006
4.2446383
8.8246184
7.5978308
16.794362
6.4259717
8.0270013
8.1817144
4.6447325
3.8694826
2.6647233
1.4334216
1.7564926
5.2286587
8.721687
10.16571
8.1567154
9.9547678
9.4163599
6.4112029
7.0457853
118.45314
28.047679
1.4199601
0.54576644
0.51715998
0.35761501
0.39483878
0.63716641
0.97993001
0.250284
0.49840283
1.1450458
0.72424999
0.976484
1.946071
0.94550627
0.7852367
0.66600671
1.1517085
1.6127567
2.1158648
1.9054209
2.3920306
2.2859977
1.7421221
1.6162409
2.1394474
3.356433
3.2837342
1.9821058
3.4175622
3.3068232
2.1585168
1.6607887
1.9515451
1.7243796
2.5316837
8.8692753
2.1764614
2.6100513
2.2722944
1.6823832
1.6769118
5.8593423
3.3447067
5.1175506
3.1958517
4.3893451
6.3460151
4.6778874
2.6482086
3.1377017
2.8677806
3.5758733
3.8481108
4.0932641
6.2756247
9.2903223
11.284698
6.4314536
8.1652046
7.9846982
4.6225721
3.3882808
2.5906658
1.3602071
2.033451
7.4647804
9.4810321
10.481531
6.9253328
10.620874
8.6612487
6.1114579
6.4633558
4.8799332
2.096813
0.59558795
0.51009492
0.59734113
0.353666
0.41472658
0.76519043
1.2453658
0.30303049
0.49262402
1.1520474
1.591449
1.0249727
2.2741726
1.0278471
0.76819015
0.49065729
1.1043341
1.6726457
3.4385076
2.0887569
1.6351487
2.282827
1.8098337
1.4030875
1.6594884
3.134123
2.959016
2.7472421
4.7559202
3.9040162
2.1447949
1.7060766
3.0630638
1.8443493
2.4555842
13.077685
3.4219666
3.6834612
2.4697539
1.9038687
1.7617549
4.9880326
2.8134773
3.3492743
2.2504286
3.2607128
5.5493575
4.7211802
2.5740355
2.6674999
2.7782893
2.9948113
4.3499971
4.1618055
5.8921135
8.8943555
7.022616
6.8618149
9.027242
7.6795781
5.0017383
3.5568122
2.5007965
1.2144252
3.0594549
8.349671
9.5929334
9.4199789
6.5391079
11.179876
8.8373389
6.5755331
6.5385874
1.1625013
0.75273947
0.56953742
0.53854703
0.67197982
0.35045958
0.43906778
0.84907813
1.2889156
0.40765586
0.47665616
1.1825326
4.9217483
1.6821675
2.6918977
1.0964123
0.76397056
0.44493767
1.026412
1.7763144
4.2723759
2.4042322
1.4933149
1.3566335
1.5503143
1.3815251
1.7237045
2.4325731
2.5759798
2.1623101
5.0867366
4.503133
2.0615326
1.7328896
7.3008053
2.3961643
2.1415336
11.724693
6.246766
4.8351083
2.8947908
2.1294317
1.8972595
2.4047795
2.4882141
2.7296116
1.8785843
3.1249773
5.2301441
3.3554379
2.5318697
2.9143037
3.3288132
3.1978528
6.5547492
4.0460762
5.5127811
7.6666409
6.3287183
6.6662775
9.375201
7.9921889
5.3948871
4.3483089
2.5087201
1.0316484
4.0307212
8.6998064
9.066086
8.2325074
6.413728
9.6976366
9.0332445
7.8103881
5.7554497
1.0771139
0.7055597
0.58715636
0.5535936
0.71302815
0.34917196
0.46150048
0.87172226
1.2036117
0.6008128
0.47199142
1.3135379
9.6929932
3.4313712
3.126152
1.1259353
0.73513997
0.45573783
1.0117911
1.8628478
4.1761861
2.5881559
1.4630899
1.1256048
1.3761619
1.4179716
1.7156103
1.9243522
2.4533972
1.8480969
6.9483953
4.8848449
1.5485646
1.5432617
7.5909332
2.9732507
1.9490583
3.611601
6.1766385
4.9631
3.6741871
2.2528967
1.9358674
2.5759801
2.4070197
2.6414775
1.8140024
3.9461672
4.3385686
2.6788865
2.622041
3.3976071