/*--------------------------------*- C++ -*----------------------------------*\
| =========                 |                                                 |
| \\      /  F ield         | OpenFOAM: The Open Source CFD Toolbox           |
|  \\    /   O peration     | Version:  2.3.0                                 |
|   \\  /    A nd           | Web:      www.OpenFOAM.org                      |
|    \\/     M anipulation  |                                                 |
\*---------------------------------------------------------------------------*/
FoamFile
{
    version     2.0;
    format      ascii;
    class       volScalarField;
    location    "2.4e-05";
    object      p;
}
// * * * * * * * * * * * * * * * * * * * * * * * * * * * * * * * * * * * * * //

dimensions      [1 -1 -2 0 0 0 0];

internalField   nonuniform List<scalar> 
7500
(
-2332.1274
-24802.808
-11390.877
-931.54091
11877.473
3053.3151
3114.3405
-3622.529
3117.0325
4431.0719
1852.2087
3765.3148
-2516.5179
7403.01
-1643.3581
7210.9769
-5235.608
6152.2081
-2354.3793
5800.6319
372.04401
1441.4226
4451.8156
-1961.0943
6237.6412
-3834.1507
8043.3385
-3329.6514
5382.1216
1496.531
3906.7123
3414.539
3026.9244
3671.3293
6288.2696
3537.685
3136.9611
9442.0814
-1461.5221
11410.386
-1319.9517
8372.1089
7159.6586
-3601.0311
13141.414
-4002.9582
8517.4509
6210.2578
-7150.5109
3524.4828
-1846.4506
14635.7
10276.94
6890.0993
10462.868
10561.646
24065.29
20123.742
30806.535
16450.211
6607.0943
21282.147
24785.282
36278.948
19760.988
17191.052
43315.506
43361.069
33534.806
38949.87
31017.916
10008.906
101.00743
989.12932
5953.6865
-2772.1356
-23469.999
-11581.699
-1459.8401
11400.22
3378.951
3061.8301
-3273.226
2741.0135
4694.429
1752.9236
3678.2132
-2233.6033
6892.0367
-1081.5688
6640.9161
-4695.7539
5550.1726
-1674.0805
5113.9255
1056.8737
794.0935
4678.9994
-1657.4592
5730.8209
-3102.9099
7113.2036
-2480.6904
4671.6367
1964.4609
3643.8644
3711.0575
2873.1877
3620.255
6209.841
3731.6033
3024.142
9427.1471
-1076.2011
10527.251
-82.72423
6850.6568
8206.3847
-3654.6599
12485.824
-2793.6036
7616.7904
5929.7856
-7702.6636
4918.4965
-2018.7465
13442.95
10980.434
6302.1092
11348.984
10859.251
22767.462
21665.605
29775.319
15014.495
9178.4028
22051.17
22532.944
35459.096
21894.687
17742.709
41680.056
43174.838
35024.176
38240.949
29644.586
11090.942
879.71198
842.04624
5817.4999
-4259.2828
-21761.411
-11329.98
-1479.7667
10488.108
3718.8083
2995.9166
-3020.2657
2736.9323
4423.766
2161.3103
3165.433
-1624.4093
6118.0298
-253.43712
5611.1403
-3393.6105
4128.3909
-439.06775
4212.7653
1618.9846
843.04428
3856.4109
-453.03048
4376.5223
-1661.3482
5698.3295
-1384.9998
3881.5097
2423.5285
3327.477
3943.3801
3087.3537
3208.0592
6358.3694
3672.38
3337.5924
8743.7133
6.5867178
8855.5032
1942.027
5430.2577
8130.4688
-2359.5659
10885.615
-985.10606
6814.2617
5197.6934
-7767.4793
5336.8344
-1183.725
12427.177
11081.552
6045.4486
11527.343
11631.36
21777.727
23365.243
27962.127
13135.076
12391.02
22998.235
20433.204
32897.201
24383.373
20282.237
39590.96
42036.049
37094.625
38057.015
27140.143
11996.216
2473.1892
1122.6143
5736.8814
-6464.9137
-19778.128
-10684.15
-1434.4083
9593.3412
3861.8868
2818.3765
-2562.3815
2599.6584
4414.8553
2284.9281
2832.435
-945.31194
5060.619
1063.279
3901.462
-1452.0612
2267.0865
1062.9946
3235.2459
2036.1468
1228.3863
2841.69
750.16159
2925.641
87.211979
3829.5705
238.88595
2668.8057
3021.7543
3179.1691
3767.3649
3685.5855
2747.9471
6335.0015
3783.5057
3721.3443
7655.8765
1496.458
7089.7934
3802.2985
4272.3018
7812.3522
-1080.6901
9476.6809
811.35492
6006.3622
4347.1176
-7604.5803
5553.8266
-107.51182
11368.821
10783.571
6061.5965
11708.67
12596.596
21075.586
24739.62
25300.002
12304.884
15558.143
23581.429
19308.868
28959.685
26498.158
24110.672
37866.421
40869.335
38662.939
37460.394
24599.1
12772.771
4577.6959
2120.7335
5608.1803
-8686.8779
-17839.63
-9928.3376
-1249.3066
8607.3361
3981.3625
2450.639
-1799.0541
2233.8183
4640.9726
2141.1391
2718.944
-306.74667
3879.6739
2582.4385
1970.3173
549.4899
517.87791
2510.8689
2153.6694
2698.6227
1261.2203
2183.2763
1796.5395
1520.0266
1756.949
1977.9731
1921.2414
1516.4624
3470.6614
3161.5709
3567.1398
4077.278
2583.6266
6111.3468
4096.0614
3963.3798
6611.5578
2691.9998
5988.6525
5078.7813
3222.0744
8117.0988
-635.93079
8707.115
2263.4779
4833.473
3706.321
-7356.1324
5774.0202
1260.0683
10107.32
10092.223
6317.3524
12006.58
13597.446
20840.733
25474.361
21543.643
13275.6
18644.18
22651.7
19276.808
25393.564
27757.791
27881.03
36508.755
40506.84
39641.603
35860.381
22932.559
13526.885
6388.6467
3775.4798
5677.4062
-10676.044
-16162.683
-9187.1282
-789.20005
7450.1116
4125.5201
2018.7791
-974.41751
1836.0943
4845.5904
2017.8299
2570.7108
405.8297
2743.0977
3824.859
500.88857
2010.3378
-708.00765
3555.5678
1296.2307
3333.5235
1107.8689
1825.7551
2582.6128
579.74069
2668.2191
841.3404
2999.3026
909.473
3723.747
2946.2247
3732.4192
4110.2711
2641.1663
5790.6539
4533.2949
4029.3126
5969.9837
3156.2176
5436.7313
6121.5021
2199.4501
8910.1715
-603.26594
8118.4272
3636.0855
3466.9981
2701.5194
-6190.5943
5136.4112
2895.9959
9409.4222
8656.5171
7008.4577
12110.332
14640.97
21419.765
25014.001
17367.249
16092.235
21520.759
20022.743
19383.49
23473.043
28635.622
30782.359
35409.891
40949.993
39946.449
33157.572
22333.234
14424.955
7970.5901
6019.7723
5774.4342
-12393.275
-14749.699
-8450.1413
-262.02251
6346.7029
4172.7285
1611.0799
-201.9671
1515.2003
5001.9507
2013.4533
2331.418
1059.1711
1930.0866
4485.9185
-230.34334
2752.2691
-1273.895
3959.5367
971.10842
3612.9942
994.81511
1839.1294
2696.706
578.73423
2584.318
422.34732
3576.5941
645.0114
3868.6335
2713.553
3895.0328
3995.0477
2987.3557
5435.7404
4881.2211
3973.4774
5760.1472
3088.7277
5315.5305
6382.8367
1945.495
9457.9207
-297.13808
7769.7952
4076.2064
2564.2601
1023.4892
-3883.6202
4084.1444
3955.9555
9224.4041
7056.7845
8089.0637
11965.715
16064.179
22129.274
22757.995
14298.294
20368.838
23442.994
16959.386
19441.435
22555.352
29154.938
32878.835
35354.115
42391.286
39054.247
29279.128
22717.554
15219.291
9405.263
8892.8467
5824.0573
-13826.854
-13610.488
-7681.219
161.07144
5438.8248
4129.9971
1218.3227
552.16545
1302.479
5084.0592
2044.1928
2238.3721
1347.8724
1553.4356
4673.4495
-493.0974
3072.1793
-1383.1685
3874.253
1035.9167
3615.8394
944.97937
2125.1074
2372.1309
1057.0221
1964.5698
477.16313
3698.0465
803.66507
3697.1377
2761.8719
3815.3537
3732.5335
3673.9302
5095.0694
5289.043
3503.4421
5781.1213
3052.6286
5467.9661
5617.2701
2653.2886
9599.8418
246.86862
8305.4254
3203.6699
1454.983
-274.1526
-1465.295
3403.4692
4880.748
8030.5397
6331.442
9061.1445
11937.533
18661.45
21270.631
19078.006
13849.802
23961.187
22930.297
14796.843
20501.777
22434.915
29002.021
34191.034
36571.65
44802.874
36723.621
25328.399
24191.559
15681.196
10538.22
11648.996
5714.5078
-15064.234
-12746.641
-6828.0629
501.89014
4626.3348
4122.1482
845.83866
1194.8515
1265.6934
5075.7262
1994.9157
2377.1795
1375.5519
1383.5541
4668.1728
-608.44414
3244.2036
-1237.3563
3517.1959
1336.0345
3257.2502
1267.6401
2220.9193
2232.9868
1404.6383
1088.9198
997.94557
3302.5111
1456.1947
3308.3446
2899.8986
3641.0529
3311.2283
4631.5092
4688.4743
5887.875
2805.0144
5512.7184
3623.9617
5314.6093
4794.2011
3659.749
9020.1163
1756.4146
9019.774
2089.7876
-556.95159
-779.34321
562.79695
2461.7939
6563.1969
5219.8492
6895.2688
9269.778
12758.755
23205.899
17430.796
15441.398
17523.363
25480.211
18903.355
12947.887
22190.255
22981.178
28896.547
35575.047
38818.08
47393.029
32843.056
22251.952
26352.469
16223.526
12476.9
13925.58
5147.0429
-16230.539
-12061.566
-5944.1005
826.35386
3835.9555
4125.4379
560.56422
1641.36
1381.5257
5019.3426
1918.8908
2538.0913
1469.4792
1183.2476
4632.2683
-686.74841
3309.8895
-904.53115
2987.8799
1901.7688
2366.0861
2079.2036
2128.5625
2278.4603
1628.8709
14.832236
1752.5758
2674.2669
2385.4238
2985.8035
2943.8809
3195.0552
3230.2296
5323.0111
4694.918
6344.1645
2026.3922
5380.963
4286.0144
4569.5118
4431.4166
4895.6866
7380.3462
4526.6714
9840.2162
561.9235
-2519.1203
-618.76132
1993.1769
1392.9868
7882.4907
1652.4703
8758.4195
8180.0494
15178.362
28576.782
10341.023
13577.231
24648.981
25605.903
12847.845
11635.456
23175.053
21395.438
28781.921
38048.231
41431.126
49074.019
29047.79
20615.583
27068.097
16931.441
15596.661
15603.974
5050.7394
-17428.408
-11460.883
-5109.2385
1141.894
3125.2248
4031.6483
397.91015
1980.8271
1546.3403
4882.145
1977.1693
2511.3087
1780.5544
878.3457
4577.9809
-619.62282
3146.1059
-409.96354
2394.4028
2608.3654
1196.6079
2897.8984
2350.5983
2338.6323
1559.9315
-772.69947
2256.9449
1959.3938
3595.2905
2745.4638
3035.9524
2007.3485
4119.6715
5057.0437
5288.7061
7286.2139
134.94506
6644.6603
4096.9738
3304.862
4925.9955
5665.5953
5671.9083
7005.5647
11738.042
-1556.0859
-3952.7645
496.78551
2085.153
1484.2522
7359.8343
-1285.5472
10074.818
5723.2668
20178.319
31264.023
2465.2845
14960.955
31016.231
24825.711
8088.6226
11737.986
23638.052
16979.786
27644.97
40521.765
42507.593
46991.247
27515.162
20893.974
24633.985
18512.438
17615.553
15161.297
5434.2159
-18697.404
-10848.541
-4333.515
1384.1661
2573.4085
3837.9711
303.12137
2331.0541
1714.6381
4628.9187
2168.8939
2332.8892
2189.5705
592.48959
4362.8291
-248.04432
2743.6857
83.866803
2019.6816
3032.035
233.36024
3403.1284
2750.7235
2865.0495
767.2369
-941.70541
2457.6391
891.72839
5099.0375
2746.881
2979.1176
366.8471
5640.6549
4154.3825
5725.8181
8890.6667
-2460.27
9059.9033
3117.987
1782.0844
5820.9315
5441.6283
4395.2266
8219.9042
13510.217
-2822.0404
-4570.6413
1097.2929
1398.0784
2644.9954
4248.4876
-1950.3498
8250.7579
4298.0943
24768.864
27424.914
880.16249
18980.483
33195.785
25272.947
7484.9469
11792.65
22440.319
15823.346
27936.205
40514.67
43004.606
43476.088
26957.061
21747.41
22035.429
19134.524
18713.575
14396.182
5027.8399
-19957.522
-10152.743
-3622.0838
1502.5722
2171.8017
3607.233
216.88109
2709.5478
1875.6375
4342.322
2380.794
2133.5032
2519.4133
467.48059
3887.0034
397.70538
2326.2416
320.01283
2107.898
2999.2558
-551.65419
3917.2757
2828.8855
3949.606
-453.03339
-783.62252
2528.1761
-592.27436
6333.6475
3516.7785
2057.5444
-652.31973
6688.1046
2642.6429
6106.661
8975.1336
-3662.7985
11451.713
765.34015
1298.3147
5573.3008
4572.6503
3600.8378
7761.5883
12298.184
-1106.772
-3060.157
585.16416
1290.75
2960.4034
3121.4011
-1370.7413
5605.1855
4502.4262
26324.396
23415.378
-565.31477
17610.228
33918.371
27535.106
8514.4223
13350.245
22138.59
15185.362
29424.994
40352.397
44276.311
46239.6
25616.892
22852.067
22495.357
17418.523
19004.239
14827.79
5144.5436
-21131.163
-9390.0845
-2978.551
1508.6017
1860.599
3361.3955
147.53055
3100.8361
1994.0022
4100.872
2577.0896
2000.7267
2709.0045
462.59919
3256.0579
1122.898
2059.9336
240.80212
2546.9296
2735.9795
-1347.7879
4438.7985
2705.0719
4836.2222
-1509.8682
-453.45316
2287.2449
-2226.4567
6407.8237
5107.28
124.57001
-761.85154
6754.997
819.13233
6102.5636
6585.8475
-2111.8906
12429.522
358.17402
1824.5442
5038.2977
4245.6294
3450.3944
7295.8457
9801.7954
-1266.2003
-1094.1323
1288.3661
1703.316
3549.083
4310.9559
-583.5636
6510.5342
5079.4372
28327.736
22554.701
-1397.0285
20982.02
33716.665
23526.852
7460.0877
16570.936
22266.958
13579.665
30627.748
39602.829
41493.272
45604.904
26798.778
21815.312
21610.3
19193.22
18868.205
14744.05
5229.9379
-22239.664
-8590.7359
-2408.2232
1464.9172
1613.4737
3084.391
102.28429
3542.763
2018.8409
3897.7338
2781.5968
1948.4779
2848.5658
454.71784
2550.9316
1867.4352
1818.5887
38.514582
2957.6097
2298.8836
-1940.2166
4635.2827
2308.1548
4960.659
-2201.8509
12.272079
1649.3405
-3841.4138
5316.0287
6233.5687
772.13966
-129.5742
6654.3415
711.87876
6020.0501
4195.7516
-1232.9053
13395.317
1089.0242
2474.7202
5997.9624
4623.1319
3695.2447
8488.7602
9100.7248
-1706.968
-335.87792
36.995565
1438.2187
2637.0923
2596.7802
-684.62767
4941.3148
3948.4806
28052.335
21237.098
-932.14002
15452.483
31986.795
22041.692
6555.4216
14473.707
22444.226
12706.936
27637.663
38427.863
40027.87
42218.897
25685.062
22569.798
20473.976
16958.007
19332.478
15030.655
5230.2172
-23267.843
-7762.3306
-1932.9191
1441.7079
1434.5328
2773.7079
46.513087
4063.1622
1953.7873
3666.5687
3035.0493
1857.7299
3062.9513
401.88044
1761.4364
2465.1617
1527.5043
-239.38438
3034.28
1379.4512
-2043.5338
4601.5178
1159.1878
4180.7468
-1476.4783
601.3959
1626.1199
-3960.2542
4550.2153
5877.5147
1721.7344
853.36735
7069.222
1594.0843
6839.7331
3702.1046
-871.75355
13200.233
-629.84106
2551.6694
4849.7391
4036.8579
3477.1894
7372.3421
9413.1929
-885.90928
-571.26127
316.86053
1506.0626
3527.4901
3057.3594
-131.02103
4171.1034
3255.6516
26531.189
19553.507
216.2187
14073.611
29012.105
18821.745
4228.1639
14490.537
24159.991
13701.14
26368.119
35982.334
38670.465
36779.784
24115.939
22106.446
19429.23
17961.608
19997.284
15511.585
5294.4979
-24151.833
-6951.2251
-1546.0731
1428.6384
1355.5456
2433.7053
-31.269293
4635.3941
1863.1814
3338.3201
3325.1486
1670.3065
3164.2482
360.98298
991.88171
2227.9269
1450.7758
-679.45877
2518.7191
309.24695
-992.41688
5288.1139
960.99229
3251.684
-840.44269
1376.8482
2055.0959
-3397.5877
5054.0906
5708.1714
1172.0489
825.13046
6254.9197
198.79276
6487.7817
3118.9021
-861.35302
13704.516
-175.93999
2451.5886
4851.883
4210.0993
3844.8323
7232.6142
8745.7923
-936.55736
-1114.4635
-618.41515
550.50425
2186.3052
2217.3676
1517.1471
956.96792
4978.4588
15842.201
15927.537
1271.9911
9920.8271
27421.212
17361.349
1792.751
13300.766
23919.815
15890.414
27398.847
35375.039
38553.352
32742.075
21875.611
22308.704
18793.502
17573.104
20808.267
16043.408
5397.55
-24927.743
-6208.4945
-1228.5617
1365.3531
1423.0976
2012.5456
-29.30651
5089.8896
1951.5572
2794.9363
3472.4774
1592.3183
2468.8273
435.8786
457.46461
889.06216
1734.3603
45.25114
2633.3166
-515.2368
-30.284593
6377.408
1709.9732
3190.7387
-1042.9458
1296.0434
1011.1861
-4780.8815
4940.9031
5652.7854
1482.069
1021.5038
6424.4614
985.88189
6300.2187
3150.1543
-689.88714
13002.796
-904.3694
2239.2597
4926.633
3248.9898
3704.3718
5295.5413
7742.5592
-203.14271
-1710.5093
-1362.1807
573.67395
544.00189
1649.9213
2116.2905
156.98775
1885.4927
5037.7682
15398.573
3934.2937
7078.7844
25147.804
16701.226
572.25815
11539.068
24220.763
15415.744
24950.03
34135.334
37767.825
30756.105
20335.258
21754.118
18588.3
17576.612
20265.125
15877.772
5289.359
-25664.744
-5526.7147
-1013.8001
1261.089
1594.7523
1474.3443
167.04886
5088.4155
2514.0939
1813.1607
3284.2706
1718.1888
937.89997
470.62156
1305.202
632.38014
1783.2294
847.30053
3403.8181
-712.09966
-649.94589
5700.1535
1056.1955
3048.4458
-924.37241
1468.475
1688.48
-3974.5424
5005.9531
5653.3676
942.04321
1040.3604
6231.9698
598.08654
6109.5767
3367.7062
326.09149
11166.688
-991.70954
2597.6484
4927.6107
3234.3157
3512.7748
3526.6244
6325.4867
-236.888
-2268.6951
-2158.3265
1407.8528
353.59757
1008.4142
2109.8857
-456.13391
-3553.6076
4161.927
23554.585
6866.7468
9248.9762
21526.214
17148.857
85.058739
13218.948
25076.921
13682.109
23975.471
36414.25
36697.464
28892.515
19867.98
20848.296
18405.419
18227.615
20123.203
15662.391
5159.5445
-26369.889
-4844.721
-970.26479
1207.7377
1696.4467
973.43018
421.75197
4459.633
3354.1202
603.54675
2651.5519
2497.7808
935.90401
354.97708
2337.8199
996.57832
1625.1521
372.44255
2762.5226
-1175.3058
-572.97217
6291.3698
1452.602
3128.953
-1033.4474
1249.728
1350.7841
-4383.8914
4968.8623
5697.3635
684.45939
732.44974
6122.1528
1144.101
6037.0709
3015.1622
775.62483
10475.369
-1293.1129
3861.041
4318.3205
2179.0524
3286.6472
1503.0644
4925.5392
-924.11915
-2471.9801
-3215.493
2216.6919
1433.0296
412.59902
2094.0476
-1097.6682
-6131.5472
4649.2478
22744.262
8359.3498
13165.711
20556.065
18311.161
983.69499
16259.485
23973.923
14589.465
24383.031
33502.118
34645.982
27113.434
20265.948
19749.837
16913.655
17838.319
20482.232
15449.155
4963.9241
-26989.591
-4093.3146
-1101.6978
1255.8543
1560.291
766.91574
374.617
3462.7563
3509.617
1335.6113
2274.6353
3424.9892
1574.7682
204.36156
1713.6338
515.43041
1521.1957
694.20384
3075.9099
-1156.9578
-901.52198
6030.7779
1220.7789
3065.2914
-961.99048
1237.4205
1773.8532
-4037.9971
4712.3348
5525.2387
479.97106
513.76265
5880.1686
1243.0158
5956.0156
2231.3013
697.95202
10253.977
-1315.5031
3720.0926
3429.0672
1583.3732
3738.5793
1066.6928
3692.2437
-1675.3451
-1626.3556
-3821.7574
2093.2144
2201.3356
-577.94123
1731.3106
-1418.45
-6277.5317
4981.7718
20006.707
8623.7005
17660.909
22282.934
19902.477
2610.3649
18811.58
23828.886
15547.018
24460.785
31349.036
32883.578
25712.737
20267.006
18799.283
16497.458
18000.108
20695.884
14856.732
4593.1935
-27462.73
-3247.1318
-1255.5358
1349.1367
1187.869
849.22607
6.733354
3030.3927
3497.2525
2481.6306
2361.8854
3057.5121
1192.6365
93.292045
1971.3754
573.73785
1500.588
420.89215
2927.5232
-1163.4623
-1256.9959
5754.7682
1174.8283
2921.7179
-1181.8193
956.31828
1429.9045
-4067.3656
4166.4332
5269.0955
233.00283
163.10444
5650.7842
1444.9129
5739.1115
1503.6064
-95.44503
9384.898
-1042.6003
3648.9319
1935.7087
1743.9697
4384.2524
66.418503
2966.6581
-1305.4516
-940.92544
-3902.451
1547.9084
2401.3436
-416.72462
871.97238
-2078.4795
-2741.0845
4065.4563
16725.341
8331.9552
19659.192
22571.414
18456.319
4330.0984
20790.577
24096.709
15930.842
25072.831
30551.926
31705.445
25641.398
19987.934
18425.782
16973.067
18783.06
21208.981
14266.029
4065.438
-27859.433
-2338.5596
-1105.5197
1404.4197
805.87978
777.093
730.12366
3177.0912
3589.1791
2158.7283
2179.4196
3044.3021
1311.2851
56.439806
1853.435
422.17973
1518.2023
467.17579
2985.0026
-1097.4524
-1186.4171
5332.9072
1142.5216
3086.5312
-1409.9206
847.73096
1726.4068
-3884.8254
3256.837
4858.3254
2.8566154
-95.90516
5349.0063
1285.5667
5312.6341
1087.9515
-358.57079
8802.5806
-1120.0522
3700.5413
1517.5094
2206.4546
4729.1934
591.46654
2844.2779
-900.66348
-280.30187
-4554.7906
741.74953
1279.7881
-1122.5187
621.62424
-4109.6721
-2756.6682
117.1058
11848.508
9628.8863
19275.14
22084.466
18692.546
4759.4138
18311.547
23657.236
16718.191
27038.732
29595.625
30567.168
26692.954
20148.712
18495.793
18721.705
19684.481
21645.191
13721.25
3509.7862
-28588.586
-1459.0355
-278.95274
1393.037
752.18334
766.07099
1795.0747
3012.6356
3202.2261
2141.0911
2246.0783
2970.2327
1256.0861
85.361959
1852.4258
350.96138
1579.2144
433.91824
2785.3076
-1236.7946
-944.52081
4876.323
1008.157
3201.5757
-1699.4837
564.11765
1666.1578
-3855.7971
2027.6791
4305.8709
-230.92245
-318.78525
4979.752
996.46212
4929.5622
861.37514
-1144.5128
8242.5088
-222.60605
3774.7295
527.69553
2580.6503
5295.3984
1838.9974
3344.5731
-657.68933
-268.51607
-5711.6422
-359.5231
937.91356
-1282.6115
636.86219
-4744.4135
-4555.4125
-668.11861
6751.0359
13200.446
19223.403
21104.558
18935.871
4625.3295
15700.908
24097.87
17345.63
28213.124
28186.691
28978.834
26956.682
20736.115
18527.937
19553.862
19398.631
21340.331
12842.722
2907.0148
-30370.036
-727.09775
1162.436
1399.6143
1031.2089
751.52809
1592.0865
3061.3916
3281.4784
2126.3747
2211.4191
2906.9105
1267.4216
138.66613
1784.3257
225.04794
1589.8461
477.24861
2763.6899
-1558.1929
-967.63612
4353.0952
722.27187
3190.7207
-1904.7087
293.99913
1700.3406
-3743.2622
476.41151
3768.536
-548.77007
-355.12886
4561.6796
542.71424
4473.4466
-273.8998
-1617.5538
7177.8418
-633.26494
3956.8551
343.73838
2955.4223
5795.6494
2204.2819
3750.0854
-527.39477
-597.09699
-6970.604
-636.13554
1218.6046
-1876.0199
949.07167
-3360.415
-3671.1619
3181.1478
5775.0336
15838.736
18942.447
20761.594
18752.068
3266.5997
12878.328
23975.681
17152.464
28867.524
27523.406
27653.963
27027.512
20767.505
18376.956
19757.739
18341.944
20596.042
11575.966
2185.0187
-32970.646
-424.49679
1999.1983
1629.0916
1090.1725
588.04373
1564.9587
3036.5303
3214.8124
2127.0559
2229.5546
2811.9004
1257.0921
186.09075
1675.4332
97.727786
1562.38
439.51063
2669.6213
-1896.0494
-1268.7372
3826.0633
736.65264
3277.0941
-1955.3141
133.18419
1544.1671
-3824.6436
-1526.3084
3224.505
-503.72693
-204.90165
4263.6507
97.015609
3931.4382
-564.04419
-1655.7888
6629.1391
-562.73972
4037.9254
245.1804
3328.6374
6160.1599
1826.2856
3618.571
-679.26397
-1227.0351
-7983.6454
-1971.7128
1513.3249
-2192.7551
1363.623
-2679.1598
-3254.3063
3914.3522
5607.6762
17389.42
18666.11
20111.053
18519.551
1279.2065
9588.7387
23211.684
16631.735
28528.633
26886.407
26657.524
26910.763
20243.35
18142.025
19718.262
17168.824
19955.798
10383.77
1499.5062
-32772.542
-1531.739
1460.4585
1990.342
1044.0751
556.28601
1520.9944
3021.5421
3198.3143
2130.5474
2221.4059
2708.6783
1251.2971
226.19378
1515.8124
-44.477346
1522.3423
431.98379
2645.799
-2183.0781
-1840.5554
3201.1722
926.06981
3314.6625
-1887.2967
151.76099
1203.9737
-3987.6337
-4034.7461
2586.6956
-450.63628
41.034949
4001.6038
-221.58249
3468.1485
-890.1582
-2010.0843
6228.9764
-390.64533
4056.4969
251.62524
3356.1268
6095.9151
1737.9683
3931.4964
-654.56619
-1671.9403
-8540.1036
-2929.4584
2018.2788
-2582.5996
1512.7188
-2576.0325
-2537.1975
3149.2614
5747.4114
18509.489
18341.614
19403.123
18014.4
99.308622
7274.3737
24055.032
16561.506
27608.434
26299.999
25933.98
26535.356
19101.352
17633.549
19452.795
16149.341
19254.722
9046.2433
726.0987
-23254.301
-4231.3133
941.606
2156.5482
1028.7037
558.3737
1535.891
3013.2568
3180.2408
2134.6343
2207.1429
2594.049
1235.795
255.36384
1333.4899
-189.62241
1482.4992
453.47348
2569.1756
-2474.2246
-2334.7554
2498.3291
1017.6171
3273.1974
-1760.1511
286.35853
719.1862
-4290.6097
-6110.3324
1920.3082
-273.43325
347.66814
3701.6746
-587.14002
3121.3216
-1232.8305
-2198.0219
5744.4094
-723.23428
4012.08
386.16123
3501.9946
5754.1667
1658.8062
4122.6977
-392.54171
-1720.356
-8740.8168
-3545.2292
2439.9294
-2835.458
1788.5271
-2914.6855
-1973.727
3340.5576
6091.7492
18164.728
18152.03
17713.226
17109.23
-1255.4862
4358.7527
23920.245
15979.359
26670.598
25481.619
24837.86
26419.417
18166.606
17188.107
18904.761
15202.783
18585.252
7886.7604
105.19256
-4923.0476
-5331.2096
861.47156
2064.0505
1016.4177
537.50283
1557.1343
3006.0074
3164.2323
2138.3791
2169.5909
2465.3709
1226.5906
279.97323
1157.5781
-333.43138
1398.9615
364.94975
2492.0799
-2673.8536
-2814.1223
1827.8304
1029.8513
3244.2532
-1649.9774
384.50572
366.054
-4152.6023
-6780.1398
1275.0094
17.746723
610.82859
3414.2196
-1092.826
2669.2719
-1034.3708
-2266.408
5453.9213
-386.95522
3945.1826
423.9245
3388.8549
5191.144
1606.7179
4219.4276
-423.44081
-1772.3803
-9190.0266
-4300.118
3369.3759
-2668.532
2008.6095
-2706.0949
-1844.702
3358.5233
6376.5999
18153.866
17782.177
17135.576
17187.488
-2362.7121
1320.1223
23085.49
15042.493
25616.25
24521.248
23667.579
25965.183
16822.947
16744.812
18243.509
14347.962
17991.022
6909.6216
-174.2534
-896.83409
-3801.8802
807.35931
2042.2594
999.15352
537.86434
1577.2363
2997.934
3148.2641
2140.7479
2122.2345
2321.7183
1212.0445
303.10721
1003.1219
-460.5997
1330.663
302.94263
2427.5063
-2840.8731
-3336.36
1340.9916
1176.0862
3201.5258
-1550.7048
395.39136
366.9286
-3569.2648
-6159.434
827.37047
392.09455
847.7959
3185.3867
-1730.5705
2118.9574
-1217.1298
-2024.7461
5016.0286
-622.95396
3898.8722
625.32503
3404.3145
3701.5701
1411.5049
4952.626
-440.14895
-2237.2911
-10425.389
-5238.789
4492.3459
-2921.063
1983.7964
-1969.1355
-1250.7901
2801.5135
6374.1276
18621.235
17556.919
17362.307
17807.163
-1841.0977
51.658586
21789.445
13390.161
24614.093
23624.143
22707.702
25294.222
15114.89
15887.625
17331.109
13367.968
17083.359
5647.6436
-352.24733
-10296.45
-2829.6006
882.25228
2035.3027
972.88127
539.49831
1595.0592
2988.5054
3131.5236
2142.3447
2071.462
2161.4537
1189.0918
327.84856
875.0604
-603.3371
1257.332
243.55847
2366.2639
-2970.8179
-3846.9919
977.38931
1361.3493
3169.5367
-1520.3857
302.9764
703.48397
-2583.9832
-4521.5945
626.49565
881.28419
1111.7074
3016.7739
-2207.034
1512.9365
-1440.1987
-1336.51
4971.2125
-304.22196
3870.9974
698.79926
3158.7526
2370.7419
1077.0129
5011.9664
-589.54854
-2599.8285
-11556.776
-7654.242
5376.1326
-3042.3717
1999.3595
-1692.0921
-733.36966
2495.4363
6049.5398
18214.005
17148.028
16563.015
18146.013
-767.1678
-658.00054
19754.135
11325.808
23704.084
22605.328
21722.572
24501.797
13715.024
15034.981
16243.788
12493.332
16224.095
4547.6053
-587.16242
-10099.545
-3037.7193
912.61887
2028.1601
941.2006
541.42664
1608.7258
2975.2155
3110.9845
2143.2147
2021.1037
1980.1383
1152.2626
355.73577
779.4408
-726.35726
1209.2658
160.44975
2299.9489
-3076.1921
-4326.2736
748.03527
1519.1778
3133.8209
-1562.9052
146.60948
1193.2201
-1815.5211
-2585.8721
705.42632
1422.2024
1478.1183
2899.374
-2403.4292
1157.0626
-1469.6551
-631.33548
4750.4322
-91.677129
3833.9688
746.74997
3232.1103
1339.0878
667.44952
4903.8688
-476.75051
-2663.4962
-12229.245
-8622.4554
5512.2702
-3193.004
2022.276
-2265.6773
-618.18096
2042.383
5291.6529
17972.337
16458.778
15264.026
17514.8
-1885.6728
-2967.1116
17890.956
9928.8081
23256.503
21333.9
21140.827
23744.561
12131.064
14115.063
15513.338
11399.208
15064.916
4005.0246
-367.27973
-9535.2558
-2777.0451
922.05092
2017.1977
903.24091
543.3066
1617.3477
2956.0434
3085.0317
2143.8008
1971.4504
1778.7139
1100.9652
384.83082
714.52544
-846.20099
1144.1017
75.370791
2213.751
-3152.6172
-4762.4311
632.09038
1676.5168
3063.674
-1702.6198
-107.72699
1548.4715
-1286.3045
-854.98002
917.98128
1751.3516
1893.9063
2728.9712
-2764.1864
811.41478
-1387.9555
132.70653
4509.8851
79.297364
3786.6562
754.87867
3326.0843
625.46986
297.84655
4764.7243
-290.8521
-2407.412
-12058.69
-7772.7942
5515.488
-3504.6555
2102.5378
-2561.2152
-424.2575
1269.2513
4125.6974
17882.411
16177.351
14245.134
16213.763
-2457.7765
-5088.3443
16341.712
8481.5086
22723.644
20316.931
20882.666
23287.277
11249.457
13102.285
14635.374
10290.711
13667.731
3232.7269
-4.4500446
-8803.7209
-2602.1376
908.67872
2002.5358
863.71747
544.41606
1617.9738
2926.8991
3051.0713
2144.8774
1922.9633
1568.1835
1036.3938
415.87564
676.01705
-946.49025
1089.1935
-34.390923
2110.6757
-3191.0388
-5146.1893
642.37998
1810.1251
2959.9601
-1885.1241
-385.07171
1775.1999
-773.90413
327.28811
1210.1256
1760.4944
2113.2998
2509.7549
-3306.932
225.54384
-1753.0733
635.96772
4284.8597
233.07129
3725.6176
863.76371
3433.6059
702.91942
-96.794291
4267.0172
-256.65916
-2513.3866
-11912.043
-6035.816
5970.5412
-3765.6991
2168.2201
-2723.4939
-153.94552
39.443369
2683.658
17321.29
15434.304
13132.752
14543.962
-3425.1154
-5115.3578
15552.225
7309.3821
22197.869
19433.681
20372.228
22875.47
10958.367
12968.954
13725.485
9467.0151
12462.673
3040.3066
47.411799
-8073.1102
-2368.4367
891.62949
1976.9928
807.3836
543.63841
1608.081
2881.7742
3004.4037
2146.9045
1874.0082
1381.1739
957.82131
440.01745
664.15381
-1033.7712
1039.3259
-126.85175
1990.3214
-3138.4731
-5390.2238
807.63569
1878.1322
2806.2105
-2082.7379
-627.68739
1978.4397
-421.76355
859.32686
1361.4814
1656.0799
2192.7405
2313.5013
-3501.7594
-239.26361
-2367.6532
880.13221
4057.6334
250.55124
3563.6882
881.78572
3647.1371
1125.4603
-250.4676
3681.7589
-387.61015
-2378.7222
-12069.65
-5131.7722
5960.1643
-3884.0373
2164.9641
-2921.9624
-145.04839
-448.57783
1968.224
16484.972
14838.629
11482.934
12608.065
-5302.6057
-3760.3126
16016.644
7707.3246
21528.288
18916.214
19777.295
21953.433
10915.637
12832.148
13503.283
9152.1679
10822.347
3433.2011
643.27524
-7325.2595
-2219.4914
866.6395
1953.9987
750.43418
539.18012
1584.2461
2814.3011
2937.4889
2145.8424
1818.3506
1300.3986
891.20421
465.55681
697.41768
-1084.6694
1002.2048
-225.54494
1818.601
-2927.2512
-5474.6297
1099.442
1838.8668
2613.6426
-2286.0659
-776.04627
2143.8192
-247.73831
1238.9202
1484.3867
1453.3368
2172.4293
2119.7289
-3333.4293
-318.29955
-2725.3617
1046.8647
3674.0534
133.6876
3631.174
899.83864
3565.2609
1345.7156
-292.31561
3255.0022
-681.6893
-2222.2927
-11191.611
-5027.5748
4618.7952
-3941.6198
2217.0526
-3036.9236
-214.71803
-795.84328
1950.8993
15317.337
14088.308
9837.1102
10751.98
-4290.274
-499.60244
17882.044
9217.7532
20796.497
18462.77
19008.797
20592.093
10936.15
12754.337
13433.308
8865.0923
8446.7167
3198.703
1434.2249
-6632.2988
-1987.6408
829.27242
1927.2636
685.7253
529.3646
1544.2835
2719.902
2845.4704
2135.0091
1748.6892
1367.6236
855.6095
510.033
819.2539
-1106.9297
974.62051
-322.47383
1665.8942
-2604.4193
-5434.2402
1417.8834
1729.9414
2397.7958
-2486.3774
-905.44287
2198.507
-80.638957
1450.8073
1502.8068
1131.529
2122.2443
1960.7915
-2866.6535
-142.64689
-2461.2419
1508.5012
3117.4817
-175.76827
3675.6364
953.87487
3492.965
1421.3489
-233.15715
2765.1073
-512.6401
-1864.7013
-11116.757
-4629.611
4293.868
-4030.028
2108.92
-2828.6841
-358.06092
-1544.3896
2129.7058
13659.552
12997.847
8362.9186
9200.3654
-2862.473
3609.9141
19655.174
10054.503
19875.566
17732.645
18321.739
19599.362
10690.087
12819.801
13216.23
8039.8634
6387.6964
3276.8297
1875.2125
-5950.4976
-1890.1002
786.81867
1894.9426
614.17896
512.66234
1487.624
2601.4636
2735.8847
2112.8178
1670.9178
1540.5563
843.3893
567.37701
1025.1684
-1087.6689
954.92493
-424.3784
1528.3779
-2163.1724
-5273.618
1650.1884
1586.6652
2187.4012
-2598.8863
-968.90771
2290.0625
-31.368625
1507.4538
1335.7303
736.4898
2074.3579
1829.8391
-2274.8465
-12.154088
-1266.191
2503.8352
2755.8378
-386.51609
3717.7162
1117.1273
3697.7002
1517.138
-264.05561
2781.6759
-410.84264
-1262.5215
-10664.347
-3252.0543
4200.6412
-3998.3857
1878.3214
-2269.9858
-393.50781
-2432.9857
2419.3677
11204.15
11316.308
8021.658
8210.5787
-2337.6514
5541.3684
20996.016
10723.651
18861.496
17104.567
17563.848
18455.22
10146.067
12578.521
12737.338
6833.2059
5060.9961
3730.5617
2174.8312
-5349.5959
-1654.0152
729.1461
1857.8413
536.42699
488.75708
1414.8135
2466.7665
2630.2468
2089.5291
1611.2332
1625.5237
799.05061
614.97824
1227.976
-1028.7453
942.00746
-533.50955
1395.3019
-1606.0202
-5132.1162
1759.0278
1416.2562
1982.2931
-2576.0011
-916.86892
2235.087
-163.39355
1526.8018
1119.2238
531.2825
2042.8197
1707.2517
-1844.8323
27.038341
255.58355
3391.028
2603.1262
-335.99278
3693.1456
1355.2444