/*--------------------------------*- C++ -*----------------------------------*\
| =========                 |                                                 |
| \\      /  F ield         | OpenFOAM: The Open Source CFD Toolbox           |
|  \\    /   O peration     | Version:  2.3.0                                 |
|   \\  /    A nd           | Web:      www.OpenFOAM.org                      |
|    \\/     M anipulation  |                                                 |
\*---------------------------------------------------------------------------*/
FoamFile
{
    version     2.0;
    format      ascii;
    class       surfaceScalarField;
    location    "2.4e-05";
    object      phi;
}
// * * * * * * * * * * * * * * * * * * * * * * * * * * * * * * * * * * * * * //

dimensions      [0 3 -1 0 0 0 0];

internalField   nonuniform List<scalar> 
14825
(
1.0346705e-09
-2.090911e-11
1.0541663e-09
-1.9495826e-11
1.0757366e-09
-2.1570343e-11
1.0951001e-09
-1.9363493e-11
1.1165427e-09
-2.1442553e-11
1.1354264e-09
-1.8883748e-11
1.1568683e-09
-2.1441809e-11
1.1754814e-09
-1.8613134e-11
1.1968694e-09
-2.1388016e-11
1.2152193e-09
-1.8349928e-11
1.236255e-09
-2.1035625e-11
1.2545665e-09
-1.8311566e-11
1.2749818e-09
-2.0415293e-11
1.2935824e-09
-1.8600562e-11
1.3130105e-09
-1.9428116e-11
1.3321426e-09
-1.9132142e-11
1.3503795e-09
-1.8236901e-11
1.3701385e-09
-1.9758978e-11
1.3871364e-09
-1.6997886e-11
1.4072946e-09
-2.0158164e-11
1.42341e-09
-1.6115435e-11
1.44342e-09
-2.0010043e-11
1.4593134e-09
-1.5893337e-11
1.4783838e-09
-1.9070433e-11
1.4946928e-09
-1.6308984e-11
1.5124059e-09
-1.7713053e-11
1.5293327e-09
-1.6926839e-11
1.545535e-09
-1.6202293e-11
1.5629056e-09
-1.7370619e-11
1.578019e-09
-1.5113443e-11
1.5952178e-09
-1.7198714e-11
1.6097483e-09
-1.4530554e-11
1.6264288e-09
-1.6680483e-11
1.6407e-09
-1.4271249e-11
1.6566558e-09
-1.5955753e-11
1.6704407e-09
-1.3784869e-11
1.6858975e-09
-1.5456779e-11
1.6993477e-09
-1.3450291e-11
1.7137963e-09
-1.4448581e-11
1.7274165e-09
-1.3620143e-11
1.7402432e-09
-1.2826686e-11
1.7545305e-09
-1.42873e-11
1.7658891e-09
-1.1358643e-11
1.7796142e-09
-1.3725123e-11
1.7911275e-09
-1.1513314e-11
1.8031761e-09
-1.2048585e-11
1.8153763e-09
-1.2200188e-11
1.8262728e-09
-1.0896474e-11
1.8374334e-09
-1.1160654e-11
1.8478377e-09
-1.0404315e-11
1.8585839e-09
-1.0746156e-11
1.8686907e-09
-1.0106789e-11
1.878058e-09
-9.3672991e-12
1.8879411e-09
-9.8831047e-12
1.8963384e-09
-8.3972837e-12
1.9058419e-09
-9.5035347e-12
1.9139644e-09
-8.1225106e-12
1.9218965e-09
-7.9320619e-12
1.9310168e-09
-9.1203359e-12
1.9368972e-09
-5.8803682e-12
1.9442051e-09
-7.3079257e-12
1.9516425e-09
-7.4373681e-12
1.9583647e-09
-6.7222582e-12
1.9639841e-09
-5.6193012e-12
1.968765e-09
-4.7809362e-12
1.9750749e-09
-6.3099177e-12
1.9803663e-09
-5.2914149e-12
1.9847634e-09
-4.3970477e-12
1.9890701e-09
-4.3067738e-12
1.9939419e-09
-4.871767e-12
1.9970041e-09
-3.0621778e-12
1.9998042e-09
-2.8001455e-12
2.0027866e-09
-2.9824037e-12
2.0054866e-09
-2.6999397e-12
-2.3743818e-12
2.8631709e-09
-8.2114086e-11
2.920874e-09
-7.719891e-11
2.9838312e-09
-8.4527533e-11
3.0414245e-09
-7.6956838e-11
3.1043144e-09
-8.4332407e-11
3.1607978e-09
-7.5367208e-11
3.2237663e-09
-8.4410305e-11
3.2796935e-09
-7.4540338e-11
3.3427216e-09
-8.4416049e-11
3.3981394e-09
-7.3767719e-11
3.4603986e-09
-8.3294826e-11
3.5157965e-09
-7.3709511e-11
3.5766541e-09
-8.1272842e-11
3.6328414e-09
-7.4787932e-11
3.6913816e-09
-7.7968331e-11
3.7489791e-09
-7.6729588e-11
3.8046321e-09
-7.3889909e-11
3.863917e-09
-7.9043839e-11
3.9165605e-09
-6.9641404e-11
3.9769033e-09
-8.0500965e-11
4.027465e-09
-6.6677187e-11
4.0873867e-09
-7.993172e-11
4.1375652e-09
-6.607185e-11
4.1951592e-09
-7.666444e-11
4.2463966e-09
-6.7546377e-11
4.3007816e-09
-7.2098081e-11
4.3534444e-09
-6.9589569e-11
4.4042381e-09
-6.6996054e-11
4.4579041e-09
-7.1036623e-11
4.5061218e-09
-6.3331089e-11
4.5593185e-09
-7.0395403e-11
4.6061601e-09
-6.1372152e-11
4.6580334e-09
-6.8553767e-11
4.7042166e-09
-6.0454528e-11
4.7542775e-09
-6.6016591e-11
4.7993442e-09
-5.8851554e-11
4.8480214e-09
-6.4133984e-11
4.8924796e-09
-5.7908499e-11
4.9383326e-09
-6.0301621e-11
4.9831915e-09
-5.847899e-11
5.0255468e-09
-5.5182036e-11
5.0712225e-09
-5.996296e-11
5.1106771e-09
-5.0813262e-11
5.15442e-09
-5.7467979e-11
5.1942664e-09
-5.1359773e-11
5.2341503e-09
-5.1932432e-11
5.2752086e-09
-5.3258561e-11
5.3123623e-09
-4.8050105e-11
5.3505454e-09
-4.934378e-11
5.3871104e-09
-4.6969337e-11
5.4231858e-09
-4.6821538e-11
5.4595947e-09
-4.6515736e-11
5.4924052e-09
-4.2177793e-11
5.527191e-09
-4.4668877e-11
5.5585177e-09
-3.9723973e-11
5.5916638e-09
-4.2649671e-11
5.6223036e-09
-3.8762252e-11
5.6524089e-09
-3.8037364e-11
5.6840784e-09
-4.0789839e-11
5.7083967e-09
-3.0198683e-11
5.7372586e-09
-3.6169851e-11
5.7643898e-09
-3.4568555e-11
5.7905733e-09
-3.2905705e-11
5.8144339e-09
-2.9479903e-11
5.8356181e-09
-2.5965149e-11
5.8606911e-09
-3.1382961e-11
5.8833531e-09
-2.7953366e-11
5.9037272e-09
-2.477115e-11
5.9239853e-09
-2.4564939e-11
5.9446704e-09
-2.5556831e-11
5.9613169e-09
-1.970872e-11
5.9772974e-09
-1.8780636e-11
5.9933689e-09
-1.9053847e-11
6.0089411e-09
-1.8272115e-11
-1.7050642e-11
4.3672431e-09
-1.8124769e-10
4.4621272e-09
-1.7208296e-10
4.563546e-09
-1.8594639e-10
4.6587551e-09
-1.7216597e-10
4.7606243e-09
-1.8620154e-10
4.854539e-09
-1.6928194e-10
4.9567158e-09
-1.8658711e-10
5.0500875e-09
-1.6791198e-10
5.1528314e-09
-1.8716003e-10
5.2456757e-09
-1.6661202e-10
5.3478424e-09
-1.8546154e-10
5.4406175e-09
-1.6648461e-10
5.5414087e-09
-1.8206402e-10
5.6351979e-09
-1.6857708e-10
5.7333672e-09
-1.7613767e-10
5.8289731e-09
-1.7233546e-10
5.9237976e-09
-1.6871444e-10
6.0215364e-09
-1.7678265e-10
6.1129062e-09
-1.6101123e-10
6.2119421e-09
-1.7953681e-10
6.300856e-09
-1.5559112e-10
6.399486e-09
-1.7856166e-10
6.4877356e-09
-1.5432144e-10
6.5839233e-09
-1.7285215e-10
6.6729995e-09
-1.5662264e-10
6.7659308e-09
-1.6502937e-10
6.8561111e-09
-1.5976988e-10
6.9450782e-09
-1.5596312e-10
7.0361684e-09
-1.6212682e-10
7.1221558e-09
-1.4931846e-10
7.2124963e-09
-1.6073593e-10
7.2967729e-09
-1.4564876e-10
7.3854633e-09
-1.5724414e-10
7.4684637e-09
-1.4345496e-10
7.5551804e-09
-1.5273328e-10
7.6365324e-09
-1.4020353e-10
7.7215035e-09
-1.4910513e-10
7.8019713e-09
-1.3837626e-10
7.8832698e-09
-1.4160012e-10
7.9637151e-09
-1.3892434e-10
8.041629e-09
-1.3309588e-10
8.1213834e-09
-1.397174e-10
8.1966159e-09
-1.260457e-10
8.2738189e-09
-1.3467106e-10
8.349355e-09
-1.2689585e-10
8.4226431e-09
-1.2522054e-10
8.498293e-09
-1.2890841e-10
8.5679317e-09
-1.1768881e-10
8.639172e-09
-1.2058404e-10
8.7090241e-09
-1.1682152e-10
8.7761567e-09
-1.1395411e-10
8.8461765e-09
-1.1653556e-10
8.9093656e-09
-1.0536687e-10
8.9760269e-09
-1.1133018e-10
9.0384046e-09
-1.021017e-10
9.1019155e-09
-1.0616056e-10
9.1633409e-09
-1.001876e-10
9.2246248e-09
-9.9321299e-11
9.2843533e-09
-1.0051829e-10
9.3369615e-09
-8.2806956e-11
9.3969479e-09
-9.6156222e-11
9.4510184e-09
-8.8638988e-11
9.504763e-09
-8.6650371e-11
9.5565289e-09
-8.1245773e-11
9.6043394e-09
-7.3775645e-11
9.6561598e-09
-8.3203393e-11
9.7051856e-09
-7.6979115e-11
9.7516947e-09
-7.1280272e-11
9.7986075e-09
-7.1477705e-11
9.8436056e-09
-7.0555008e-11
9.884199e-09
-6.0302089e-11
9.9245797e-09
-5.9161293e-11
9.9633207e-09
-5.7794844e-11
1.0001841e-08
-5.6792959e-11
-5.4655598e-11
5.591097e-09
-3.1587397e-10
5.7220993e-09
-3.0308532e-10
5.8591098e-09
-3.2295687e-10
5.9911715e-09
-3.0422762e-10
6.1294983e-09
-3.2452837e-10
6.2604174e-09
-3.0020107e-10
6.3994659e-09
-3.2563555e-10
6.5301573e-09
-2.9860336e-10
6.6705034e-09
-3.2750613e-10
6.8010287e-09
-2.9713737e-10
6.9413846e-09
-3.2581746e-10
7.0719765e-09
-2.970765e-10
7.2115442e-09
-3.2163171e-10
7.3431898e-09
-3.0022267e-10
7.4807841e-09
-3.1373194e-10
7.6140275e-09
-3.0557886e-10
7.7492631e-09
-3.0395003e-10
7.8842196e-09
-3.1173916e-10
8.0170369e-09
-2.9382858e-10
8.1527659e-09
-3.1526576e-10
8.2837112e-09
-2.8653639e-10
8.4191661e-09
-3.1401655e-10
8.5492045e-09
-2.8435985e-10
8.6831627e-09
-3.0681042e-10
8.8131133e-09
-2.865732e-10
8.9454665e-09
-2.9738256e-10
9.0750464e-09
-2.8934984e-10
9.2048364e-09
-2.8575308e-10
9.3342149e-09
-2.9150535e-10
9.4618953e-09
-2.769988e-10
9.590092e-09
-2.8893269e-10
9.7161325e-09
-2.7168919e-10
9.8427346e-09
-2.8384631e-10
9.96667e-09
-2.6739038e-10
1.0091995e-08
-2.7805845e-10
1.0213796e-08
-2.6200422e-10
1.0337627e-08
-2.7293588e-10
1.0458027e-08
-2.5877631e-10
1.0578495e-08
-2.6206796e-10
1.0698147e-08
-2.5857648e-10
1.0816736e-08
-2.5168487e-10
1.0933562e-08
-2.5654403e-10
1.1051246e-08
-2.4372935e-10
1.1164842e-08
-2.4826713e-10
1.1281988e-08
-2.4404137e-10
1.1392818e-08
-2.3605091e-10
1.150852e-08
-2.4461021e-10
1.1616432e-08
-2.2560065e-10
1.1726539e-08
-2.3069159e-10
1.1835301e-08
-2.2558386e-10
1.1938963e-08
-2.1761566e-10
1.2048463e-08
-2.2603514e-10
1.2148597e-08
-2.0550105e-10
1.2253211e-08
-2.1594415e-10
1.235337e-08
-2.0226129e-10
1.2453591e-08
-2.0638162e-10
1.2553487e-08
-2.0008357e-10
1.2652948e-08
-1.9878178e-10
1.2746028e-08
-1.935981e-10
1.2837009e-08
-1.7378816e-10
1.2934943e-08
-1.9409079e-10
1.3023168e-08
-1.7686355e-10
1.3111533e-08
-1.7501515e-10
1.3199395e-08
-1.6910825e-10
1.3283412e-08
-1.5779276e-10
1.3369059e-08
-1.6884957e-10
1.3452873e-08
-1.6079332e-10
1.3535302e-08
-1.5370922e-10
1.3618041e-08
-1.5421686e-10
1.3695063e-08
-1.4757697e-10
1.3768829e-08
-1.3406868e-10
1.3843012e-08
-1.3334376e-10
1.3913437e-08
-1.282195e-10
1.3985072e-08
-1.2842858e-10
-1.2486795e-10
6.573426e-09
-4.835287e-10
6.7391917e-09
-4.6885099e-10
6.909396e-09
-4.9316116e-10
7.0770648e-09
-4.7189636e-10
7.2496e-09
-4.9706359e-10
7.4165754e-09
-4.671765e-10
7.5904375e-09
-4.9949761e-10
7.7578429e-09
-4.660088e-10
7.933737e-09
-5.0340017e-10
8.1019084e-09
-4.6530878e-10
8.2784937e-09
-5.0240278e-10
8.4473771e-09
-4.6595995e-10
8.6241566e-09
-4.9841117e-10
8.7941962e-09
-4.7026225e-10
8.9704703e-09
-4.9000608e-10
9.1414639e-09
-4.7657244e-10
9.3173122e-09
-4.7979836e-10
9.4890715e-09
-4.8349841e-10
9.6645203e-09
-4.6927744e-10
9.8360645e-09
-4.8680994e-10
1.0011268e-08
-4.6173944e-10
1.0182184e-08
-4.8493333e-10
1.035674e-08
-4.5891505e-10
1.0527551e-08
-4.7762232e-10
1.0701234e-08
-4.6025538e-10
1.0872873e-08
-4.6902235e-10
1.104418e-08
-4.6065689e-10
1.1215885e-08
-4.5745749e-10
1.1385292e-08
-4.6091199e-10
1.1556578e-08
-4.482853e-10
1.1724208e-08
-4.5656223e-10
1.1894434e-08
-4.4191521e-10
1.2060548e-08
-4.4996104e-10
1.222825e-08
-4.3509199e-10
1.2394242e-08
-4.4405025e-10
1.2559502e-08
-4.2726409e-10
1.272463e-08
-4.3806468e-10
1.2888017e-08
-4.2216283e-10
1.3050948e-08
-4.2499918e-10
1.3213558e-08
-4.211865e-10
1.3375964e-08
-4.1409057e-10
1.353389e-08
-4.1447009e-10
1.3697976e-08
-4.0781575e-10
1.3851766e-08
-4.0205701e-10
1.4016185e-08
-4.0846028e-10
1.4168795e-08
-3.8866128e-10
1.4329403e-08
-4.0521755e-10
1.4478689e-08
-3.748869e-10
1.4632795e-08
-3.8479756e-10
1.4785032e-08
-3.778212e-10
1.4932369e-08
-3.6495207e-10
1.5085378e-08
-3.7904393e-10
1.522748e-08
-3.4760384e-10
1.5376028e-08
-3.6449204e-10
1.5519063e-08
-3.4529648e-10
1.5662119e-08
-3.494374e-10
1.5807631e-08
-3.4559583e-10
1.5949074e-08
-3.4022435e-10
1.6082196e-08
-3.2672009e-10
1.6221111e-08
-3.1270285e-10
1.6361079e-08
-3.3405941e-10
1.6490761e-08
-3.065455e-10
1.6621188e-08
-3.0544197e-10
1.6752399e-08
-3.0031945e-10
1.6880645e-08
-2.8603818e-10
1.7005816e-08
-2.9402135e-10
1.7131792e-08
-2.8676906e-10
1.7257976e-08
-2.7989316e-10
1.7384214e-08
-2.8045481e-10
1.7502215e-08
-2.6557827e-10
1.7619001e-08
-2.5085409e-10
1.7735599e-08
-2.4994207e-10
1.7846121e-08
-2.3874131e-10
1.7959181e-08
-2.414887e-10
-2.3643868e-10
7.3478677e-09
-6.8154982e-10
7.5467666e-09
-6.677499e-10
7.7481448e-09
-6.9453938e-10
7.9497815e-09
-6.7353304e-10
8.1546315e-09
-7.0191358e-10
8.356353e-09
-6.6889807e-10
8.5634425e-09
-7.0658711e-10
8.7664333e-09
-6.6899955e-10
8.9763859e-09
-7.1335282e-10
9.1814902e-09
-6.7041302e-10
9.3928562e-09
-7.1376877e-10
9.5999053e-09
-6.7300906e-10
9.8126851e-09
-7.1119097e-10
1.0021379e-08
-6.7895619e-10
1.0235453e-08
-7.0408013e-10
1.0444648e-08
-6.8576719e-10
1.0660392e-08
-6.9554266e-10
1.0869753e-08
-6.9285966e-10
1.1087119e-08
-6.8664322e-10
1.129538e-08
-6.9507087e-10
1.1514535e-08
-6.8089449e-10
1.1721776e-08
-6.9217448e-10
1.1941256e-08
-6.7839431e-10
1.2149298e-08
-6.8566464e-10
1.236778e-08
-6.7873788e-10
1.2578672e-08
-6.7991382e-10
1.2793504e-08
-6.7548902e-10
1.3007091e-08
-6.7104403e-10
1.3218792e-08
-6.7261324e-10
1.3433683e-08
-6.6317639e-10
1.3643435e-08
-6.6631468e-10
1.3858375e-08
-6.5685528e-10
1.4066189e-08
-6.5777514e-10
1.4279737e-08
-6.4863926e-10
1.4488417e-08
-6.527309e-10
1.4700055e-08
-6.3890132e-10
1.4909156e-08
-6.4716596e-10
1.5118574e-08
-6.3158051e-10
1.5326976e-08
-6.3340188e-10
1.5536039e-08
-6.3024915e-10
1.5743594e-08
-6.2164573e-10
1.5947124e-08
-6.1800016e-10
1.6159084e-08
-6.1977607e-10
1.6356968e-08
-5.9994089e-10
1.657109e-08
-6.2258227e-10
1.6769024e-08
-5.8659444e-10
1.6978484e-08
-6.1467782e-10
1.7174624e-08
-5.7102666e-10
1.7378889e-08
-5.8906303e-10
1.7576197e-08
-5.7512932e-10
1.7772276e-08
-5.61031e-10
1.7971134e-08
-5.7790142e-10
1.816129e-08
-5.3776065e-10
1.8359178e-08
-5.6237937e-10
1.8547656e-08
-5.3377487e-10
1.874113e-08
-5.4291125e-10
1.8936847e-08
-5.4131242e-10
1.9122622e-08
-5.2600009e-10
1.9304228e-08
-5.0832573e-10
1.9498699e-08
-5.0717401e-10
1.9682865e-08
-5.1822543e-10
1.9861907e-08
-4.8558739e-10
2.0040666e-08
-4.842008e-10
2.0221499e-08
-4.8115292e-10
2.0399782e-08
-4.643208e-10
2.0572151e-08
-4.6639088e-10
2.0748644e-08
-4.6326163e-10
2.0926243e-08
-4.5749171e-10
2.1100507e-08
-4.5471898e-10
2.1265438e-08
-4.3050942e-10
2.1432419e-08
-4.1783543e-10
2.1598606e-08
-4.1612881e-10
2.1760615e-08
-4.0075006e-10
2.1923598e-08
-4.0447185e-10
-3.9740548e-10
7.9432842e-09
-9.0659748e-10
8.1741469e-09
-8.9861265e-10
8.4044842e-09
-9.2487669e-10
8.6387372e-09
-9.0778602e-10
8.8742541e-09
-9.3743046e-10
9.1095507e-09
-9.0419469e-10
9.3489537e-09
-9.4599009e-10
9.5861511e-09
-9.0619689e-10
9.8297918e-09
-9.5699355e-10
1.0070237e-08
-9.1085805e-10
1.0316183e-08
-9.5971454e-10
1.0560078e-08
-9.1690439e-10
1.0808327e-08
-9.5943965e-10
1.1055056e-08
-9.2568586e-10
1.1305891e-08
-9.5491481e-10
1.155341e-08
-9.3328574e-10
1.1807568e-08
-9.497016e-10
1.20555e-08
-9.4079125e-10
1.2312939e-08
-9.4408265e-10
1.255968e-08
-9.4181162e-10
1.2820813e-08
-9.4202746e-10
1.3066389e-08
-9.3775025e-10
1.3329013e-08
-9.4101855e-10
1.3576089e-08
-9.3274035e-10
1.3838378e-08
-9.4102731e-10
1.4088858e-08
-9.3039313e-10
1.4347981e-08
-9.3461205e-10
1.4603067e-08
-9.2613075e-10
1.4859242e-08
-9.2878803e-10
1.5117009e-08
-9.2094294e-10
1.5372182e-08
-9.2148795e-10
1.5631636e-08
-9.1630964e-10
1.5883971e-08
-9.1010951e-10
1.6145098e-08
-9.0976654e-10
1.6398488e-08
-9.06121e-10
1.6658715e-08
-8.9912839e-10
1.6914078e-08
-9.0252903e-10
1.7171114e-08
-8.8861611e-10
1.742818e-08
-8.9046832e-10
1.7685823e-08
-8.8789222e-10
1.7940753e-08
-8.7657513e-10
1.8194342e-08
-8.715895e-10
1.8453816e-08
-8.7925009e-10
1.8700659e-08
-8.4678409e-10
1.8964129e-08
-8.8605152e-10
1.9210236e-08
-8.3270227e-10
1.9469526e-08
-8.7396714e-10
1.9715369e-08
-8.1687016e-10
1.9974037e-08
-8.4773056e-10
2.021938e-08
-8.2047213e-10
2.047328e-08
-8.1493187e-10
2.071801e-08
-8.226308e-10
2.0961551e-08
-7.8130174e-10
2.1211044e-08
-8.1187284e-10
2.1448244e-08
-7.7097426e-10
2.1700656e-08
-7.9532324e-10
2.19485e-08
-7.8915652e-10
2.21821e-08
-7.5960055e-10
2.2422338e-08
-7.4856344e-10
2.2674729e-08
-7.5956465e-10
2.2906403e-08
-7.4989931e-10
2.3142724e-08
-7.2190906e-10
2.3375981e-08
-7.1745801e-10
2.3610661e-08
-7.1583236e-10
2.3839808e-08
-6.9346831e-10
2.4066677e-08
-6.9325987e-10
2.4300168e-08
-6.9675192e-10
2.4535578e-08
-6.9290177e-10
2.4763747e-08
-6.8288788e-10
2.4987764e-08
-6.5452654e-10
2.5213819e-08
-6.4389086e-10
2.5431958e-08
-6.3426806e-10
2.5650998e-08
-6.1978991e-10
2.5871798e-08
-6.2527203e-10
-6.1447044e-10
8.3855332e-09
-1.1554238e-09
8.6485028e-09
-1.1615823e-09
8.9048109e-09
-1.1811848e-09
9.1719631e-09
-1.1749382e-09
9.4356257e-09
-1.201093e-09
9.704721e-09
-1.17329e-09
9.9746347e-09
-1.2159038e-09
1.0245725e-08
-1.1772873e-09
1.0522035e-08
-1.2333033e-09
1.0796413e-08
-1.1852359e-09
1.1076545e-08
-1.2398469e-09
1.1355199e-08
-1.1955586e-09
1.1638303e-08
-1.2425439e-09
1.1921288e-08
-1.2086701e-09
1.2207527e-08
-1.2411541e-09
1.2492392e-08
-1.2181506e-09
1.2783255e-08
-1.2405649e-09
1.306942e-08
-1.2269561e-09
1.3365221e-08
-1.2398834e-09
1.3650801e-08
-1.2273918e-09
1.395202e-08
-1.2432465e-09
1.423709e-08
-1.2228201e-09
1.4540963e-08
-1.2448914e-09
1.4828881e-08
-1.2206583e-09
1.513368e-08
-1.245827e-09
1.5424806e-08
-1.221519e-09
1.5728333e-08
-1.2381391e-09
1.6025231e-08
-1.2230284e-09
1.6327693e-08
-1.2312498e-09
1.6628131e-08
-1.2213808e-09
1.6931604e-08
-1.2249608e-09
1.7235337e-08
-1.2200433e-09
1.7534905e-08
-1.2096771e-09
1.7844595e-08
-1.2194572e-09
1.8144108e-08
-1.2056333e-09
1.845458e-08
-1.2096009e-09
1.8757148e-08
-1.2050972e-09
1.9062585e-08
-1.1940522e-09
1.9370756e-08
-1.1986394e-09
1.9676222e-08
-1.193359e-09
1.9981276e-08
-1.1816286e-09
2.0287001e-08
-1.1773146e-09
2.0594191e-08
-1.1864404e-09
2.0895715e-08
-1.1483083e-09
2.1208402e-08
-1.1987381e-09
2.1507907e-08
-1.1322077e-09
2.1817298e-08
-1.1833576e-09
2.2116296e-08
-1.1158682e-09
2.2429922e-08
-1.1613563e-09
2.2724924e-08
-1.1154742e-09
2.304015e-08
-1.1301579e-09
2.3331878e-08
-1.1143592e-09
2.3639345e-08
-1.088768e-09
2.3939707e-08
-1.1122351e-09
2.4231972e-08
-1.0632397e-09
2.4547871e-08
-1.1112219e-09
2.4842562e-08
-1.0838473e-09
2.5131314e-08
-1.0483529e-09
2.5438893e-08
-1.0561421e-09
2.5744974e-08
-1.0656461e-09
2.6030264e-08
-1.0351886e-09
2.6327343e-08
-1.0189884e-09
2.6621084e-08
-1.0111994e-09
2.6912863e-08
-1.0076113e-09
2.7196862e-08
-9.774675e-10
2.7485284e-08
-9.8168102e-10
2.7777546e-08
-9.8901416e-10
2.8069667e-08
-9.8502345e-10
2.8351208e-08
-9.6442858e-10
2.8639218e-08
-9.4253664e-10
2.8928241e-08
-9.3291362e-10
2.9205385e-08
-9.1141208e-10
2.9492015e-08
-9.0641955e-10
2.9768833e-08
-9.0209047e-10
-8.9066907e-10
8.7014605e-09
-1.4291762e-09
8.9945688e-09
-1.4546906e-09
9.2752597e-09
-1.4618756e-09
9.5752504e-09
-1.474929e-09
9.86341e-09
-1.4892526e-09
1.0167249e-08
-1.4771288e-09
1.0462879e-08
-1.5115342e-09
1.0769343e-08
-1.4837509e-09
1.1073148e-08
-1.5371083e-09
1.1382678e-08
-1.4947665e-09
1.1692614e-08
-1.5497826e-09
1.2006118e-08
-1.5090626e-09
1.2321197e-08
-1.5576225e-09
1.2639449e-08
-1.5269222e-09
1.295927e-08
-1.5609753e-09
1.3280371e-08
-1.5392513e-09
1.3606551e-08
-1.5667448e-09
1.3929899e-08
-1.5503046e-09
1.4263244e-08
-1.5732286e-09
1.4586894e-08
-1.5510418e-09
1.4927801e-08
-1.5841534e-09
1.5251918e-08
-1.5469371e-09
1.5597422e-08
-1.5903956e-09
1.5926556e-08
-1.5497921e-09
1.6274221e-08
-1.5934924e-09
1.660685e-08
-1.5541473e-09
1.695541e-08
-1.5866996e-09
1.7295117e-08
-1.5627355e-09
1.764437e-08
-1.5805029e-09
1.7988418e-08
-1.5654285e-09
1.8340449e-08
-1.5769915e-09
1.8688515e-08
-1.5681097e-09
1.9036421e-08
-1.5575825e-09
1.9394177e-08
-1.5772135e-09
1.9740727e-08
-1.5521836e-09
2.0101779e-08
-1.5706528e-09
2.0451482e-08
-1.5547997e-09
2.0806238e-08
-1.5488082e-09
2.1166647e-08
-1.559049e-09
2.1518385e-08
-1.5450969e-09
2.1877614e-08
-1.5408575e-09
2.2234386e-08
-1.5340869e-09
2.2590155e-08
-1.542209e-09
2.2950011e-08
-1.5081642e-09
2.3310495e-08
-1.5592225e-09
2.366682e-08
-1.4885321e-09
2.4024455e-08
-1.540993e-09
2.4382827e-08
-1.47424e-09
2.4748887e-08
-1.5274166e-09
2.5098535e-08
-1.4651219e-09
2.547083e-08
-1.5024532e-09
2.5808427e-08
-1.4519558e-09
2.6182916e-08
-1.4632572e-09
2.6526181e-08
-1.4555e-09
2.688686e-08
-1.4239191e-09
2.7259044e-08
-1.4834055e-09
2.7594384e-08
-1.4191874e-09
2.7949328e-08
-1.4032972e-09
2.8317955e-08
-1.4247691e-09
2.8670218e-08
-1.4179092e-09
2.9015158e-08
-1.3801287e-09
2.9368095e-08
-1.3719251e-09
2.9727277e-08
-1.3703808e-09
3.0066063e-08
-1.346398e-09
3.0403772e-08
-1.3151759e-09
3.0760695e-08
-1.3386041e-09
3.110654e-08
-1.3348594e-09
3.1453236e-08
-1.3317195e-09
3.1787365e-08
-1.2985575e-09
3.2140731e-08
-1.2959027e-09
3.2483987e-08
-1.276169e-09
3.2815606e-08
-1.2430313e-09
3.3168948e-08
-1.2597617e-09
3.3504167e-08
-1.2373091e-09
-1.2231028e-09
8.9154961e-09
-1.7338922e-09
9.2293137e-09
-1.7685082e-09
9.5383662e-09
-1.7709282e-09
9.8637478e-09
-1.8003105e-09
1.017714e-08
-1.8026453e-09
1.051124e-08
-1.8112282e-09
1.0830298e-08
-1.830592e-09
1.117097e-08
-1.8244231e-09
1.1497485e-08
-1.8636234e-09
1.1844135e-08
-1.8414167e-09
1.2177731e-08
-1.8833788e-09
1.2529553e-08
-1.8608844e-09
1.2871296e-08
-1.8993657e-09
1.3227632e-08
-1.8832574e-09
1.3577606e-08
-1.9109496e-09
1.3937009e-08
-1.8986543e-09
1.4296031e-08
-1.9257669e-09
1.4658594e-08
-1.9128674e-09
1.5027088e-08
-1.9417232e-09
1.5391351e-08
-1.9153043e-09
1.5769474e-08
-1.9622763e-09
1.6134131e-08
-1.9115939e-09
1.6521069e-08
-1.9773337e-09
1.6890951e-08
-1.9196746e-09
1.7282515e-08
-1.9850564e-09
1.7655302e-08
-1.9269337e-09
1.8049673e-08
-1.9810711e-09
1.8431523e-08
-1.9445851e-09
1.8826666e-08
-1.9756458e-09
1.9215596e-08
-1.9543588e-09
1.9613105e-08
-1.9745006e-09
2.0005748e-08
-1.9607523e-09
2.0402408e-08
-1.9542423e-09
2.0804058e-08
-1.9788642e-09
2.120072e-08
-1.9488452e-09
2.1608163e-08
-1.9780959e-09
2.2005947e-08
-1.9525832e-09
2.2409098e-08
-1.9519595e-09
2.2819844e-08
-1.9697956e-09
2.3215458e-08
-1.9407101e-09
2.3629968e-08
-1.9553676e-09
2.4032957e-08
-1.9370762e-09
2.4436862e-08
-1.9461144e-09
2.4851144e-08
-1.9224455e-09
2.5256496e-08
-1.9645752e-09
2.566621e-08
-1.8982456e-09
2.6065322e-08
-1.9401056e-09
2.6480699e-08
-1.8896162e-09
2.6890171e-08
-1.936889e-09
2.7298207e-08
-1.8731583e-09
2.7713055e-08
-1.9173003e-09
2.8099263e-08
-1.8381641e-09
2.8530058e-08
-1.8940524e-09
2.8900856e-08
-1.8262977e-09
2.9339624e-08
-1.8626878e-09
2.9740685e-08
-1.8844664e-09
3.0112872e-08
-1.7913743e-09
3.0542703e-08
-1.8331279e-09
3.0950249e-08
-1.8323154e-09
3.1339452e-08
-1.8071122e-09
3.1741227e-08
-1.7819031e-09
3.2136349e-08
-1.7670478e-09
3.2566208e-08
-1.800239e-09
3.2930096e-08
-1.7102864e-09
3.3318778e-08
-1.7038579e-09
3.374371e-08
-1.7635357e-09
3.4126879e-08
-1.7180288e-09
3.4525595e-08
-1.7304357e-09
3.4906481e-08
-1.6794434e-09
3.5317076e-08
-1.706498e-09
3.570414e-08
-1.6632331e-09
3.6090768e-08
-1.6296588e-09
3.6494801e-08
-1.663795e-09
3.687884e-08
-1.6213475e-09
-1.601766e-09
9.037817e-09
-2.0688009e-09
9.3647898e-09
-2.0954811e-09
9.7061819e-09
-2.1123202e-09
1.0046482e-08
-2.1406107e-09
1.0391829e-08
-2.147992e-09
1.0745524e-08
-2.1649237e-09
1.1095331e-08
-2.1803987e-09
1.1461166e-08
-2.1902579e-09
1.1816588e-08
-2.2190457e-09
1.2194266e-08
-2.2190947e-09
1.2554887e-08
-2.2440001e-09
1.2942652e-08
-2.2486491e-09
1.3311226e-08
-2.2679394e-09
1.3706144e-08
-2.2781754e-09
1.4084342e-08
-2.2891473e-09
1.4484042e-08
-2.2983546e-09
1.4873045e-08
-2.3147698e-09
1.5277536e-08
-2.3173588e-09
1.5676707e-08
-2.3408935e-09
1.6086544e-08
-2.3251417e-09
1.6494328e-08
-2.3700602e-09
1.6905402e-08
-2.3226684e-09
1.7326167e-08
-2.3980984e-09
1.7741643e-08
-2.3351508e-09
1.8170435e-08
-2.4138482e-09
1.8585743e-08
-2.3422418e-09
1.9022238e-08
-2.4175659e-09
1.9444822e-08
-2.3671691e-09
1.9883411e-08
-2.4142352e-09
2.0317301e-08
-2.3882488e-09
2.0754809e-08
-2.4120088e-09
2.1190071e-08
-2.3960143e-09
2.1635293e-08
-2.3994635e-09
2.2071032e-08
-2.4146037e-09
2.2520136e-08
-2.3979488e-09
2.2963666e-08
-2.4216259e-09
2.3405946e-08
-2.3948637e-09
2.385264e-08
-2.3986536e-09
2.4302006e-08
-2.419161e-09
2.4737337e-08
-2.3760412e-09
2.5198312e-08
-2.4163428e-09
2.5633775e-08
-2.3725387e-09
2.6085435e-08
-2.3977748e-09
2.6529973e-08
-2.3669837e-09
2.6981125e-08
-2.415727e-09
2.7423246e-08
-2.340367e-09
2.785426e-08
-2.3711191e-09
2.8313873e-08
-2.3492294e-09
2.8754179e-08
-2.3771953e-09
2.9215737e-08
-2.3347159e-09
2.9648767e-08
-2.3503301e-09
3.0091607e-08
-2.2810043e-09
3.0548369e-08
-2.3508145e-09
3.0937851e-08
-2.2157797e-09
3.1455696e-08
-2.3805324e-09
3.1848248e-08
-2.2770189e-09
3.2241602e-08
-2.184728e-09
3.2740034e-08
-2.3315597e-09
3.3142982e-08
-2.235264e-09
3.3589241e-08
-2.2533707e-09
3.4041358e-08
-2.23402e-09
3.4470304e-08
-2.1959938e-09
3.5002921e-08
-2.332856e-09
3.5336532e-08
-2.0438982e-09
3.5763141e-08
-2.1304666e-09
3.6262916e-08
-2.2633102e-09
3.663046e-08
-2.0855733e-09
3.70623e-08
-2.1622761e-09
3.7422184e-08
-2.039327e-09
3.7840531e-08
-2.1248451e-09
3.8198976e-08
-2.0216777e-09
3.8517666e-08
-1.948349e-09
3.8903534e-08
-2.0496627e-09
3.9206561e-08
-1.9243749e-09
-1.8903451e-09
9.0736813e-09
-2.4236442e-09
9.4200337e-09
-2.4418335e-09
9.787263e-09
-2.4795496e-09
1.0145176e-08
-2.4985238e-09
1.052128e-08
-2.5240959e-09
1.0892378e-08
-2.5360218e-09
1.1276612e-08
-2.5646324e-09
1.1660634e-08
-2.5742798e-09
1.2052515e-08
-2.6109269e-09
1.2450589e-08
-2.6171686e-09
1.2847704e-08
-2.6411152e-09
1.3259659e-08
-2.6606043e-09
1.3663729e-08
-2.6720093e-09
1.4087156e-08
-2.7016027e-09
1.4499527e-08
-2.7015179e-09
1.4931968e-08
-2.7307958e-09
1.5355224e-08
-2.7380256e-09
1.5794865e-08
-2.7570008e-09
1.6227809e-08
-2.7738367e-09
1.6678725e-08
-2.7760576e-09
1.7115588e-08
-2.806924e-09
1.7572216e-08
-2.7792955e-09
1.802117e-08
-2.8470526e-09
1.8486627e-08
-2.8006084e-09
1.8940554e-08
-2.8677751e-09
1.9404672e-08
-2.8063592e-09
1.9871511e-08
-2.8844055e-09
2.0334311e-08
-2.8299686e-09
2.0806948e-08
-2.8868727e-09
2.1283037e-08
-2.8643375e-09
2.1748409e-08
-2.8773809e-09
2.2219047e-08
-2.866652e-09
2.2703148e-08
-2.8835647e-09
2.3160963e-08
-2.8724185e-09
2.3649192e-08
-2.886178e-09
2.4118501e-08
-2.8909345e-09
2.4583063e-08
-2.8594259e-09
2.5069508e-08
-2.8850991e-09
2.5526353e-08
-2.8760052e-09
2.6006054e-08
-2.8557423e-09
2.6483982e-08
-2.894271e-09
2.6943687e-08
-2.832244e-09
2.7433598e-08
-2.8876859e-09
2.7868726e-08
-2.8021112e-09
2.8371995e-08
-2.9189967e-09
2.878316e-08
-2.7515316e-09
2.9274458e-08
-2.8624169e-09
2.9765778e-08
-2.8405497e-09
3.023295e-08
-2.8443674e-09
3.0756332e-08
-2.8580975e-09
3.1159477e-08
-2.7534754e-09
3.163915e-08
-2.7606771e-09
3.2079258e-08
-2.7909224e-09
3.2289086e-08
-2.4256081e-09
3.2857122e-08
-2.9485681e-09
3.3181123e-08
-2.6010198e-09
3.2969552e-08
-1.9731575e-09
3.2735426e-08
-2.0974331e-09
3.2903149e-08
-2.4029872e-09
3.3485321e-08
-2.8355432e-09
3.354855e-08
-2.2972486e-09
3.3861114e-08
-2.5085575e-09
3.4455359e-08
-2.927101e-09
3.4159958e-08
-1.7484979e-09
3.4141826e-08
-2.1123341e-09
3.4311353e-08
-2.4328378e-09
3.4248168e-08
-2.022388e-09
3.4385892e-08
-2.2999997e-09
3.4189038e-08
-1.842473e-09
3.4078539e-08
-2.0143467e-09
3.4012107e-08
-1.9552451e-09
3.3705903e-08
-1.6421451e-09
3.3679951e-08
-2.0237106e-09
3.352763e-08
-1.772054e-09
-1.6726871e-09
9.0432298e-09
-2.7955236e-09
9.4129173e-09
-2.811521e-09
9.798591e-09
-2.8652233e-09
1.0180839e-08
-2.8807718e-09
1.0577826e-08
-2.921083e-09
1.0973283e-08
-2.9314784e-09
1.1381926e-08
-2.9732755e-09
1.1789305e-08
-2.981659e-09
1.2210215e-08
-3.0318365e-09
1.2630182e-08
-3.0371357e-09
1.3060734e-08
-3.0716668e-09
1.3494352e-08
-3.0942233e-09
1.3935121e-08
-3.1127781e-09
1.4381781e-08
-3.1482629e-09
1.4832005e-08
-3.1517413e-09
1.5290759e-08
-3.1895496e-09
1.5753372e-08
-3.2006387e-09
1.6219491e-08
-3.2231205e-09
1.6692508e-08
-3.2468535e-09
1.7173244e-08
-3.2567937e-09
1.7645579e-08
-3.2792584e-09
1.8133062e-08
-3.2667784e-09
1.8614965e-08
-3.3289564e-09
1.9113999e-08
-3.2996422e-09
1.9591678e-08
-3.3454538e-09
2.0088746e-08
-3.3034275e-09
2.0578415e-08
-3.3740749e-09
2.1064308e-08
-3.3158607e-09
2.1557639e-08
-3.380204e-09
2.2059316e-08
-3.366015e-09
2.2534837e-08
-3.352901e-09
2.3023506e-08
-3.355322e-09
2.353384e-08
-3.3938982e-09
2.399195e-08
-3.3305282e-09
2.4503096e-08
-3.3973238e-09
2.4974924e-08
-3.3627631e-09
2.5415794e-08
-3.300296e-09
2.5961158e-08
-3.4304623e-09
2.6404938e-08
-3.3197859e-09
2.6936819e-08
-3.3876227e-09
2.7391069e-08
-3.3485217e-09
2.7804504e-08
-3.2456786e-09
2.8210947e-08
-3.2941286e-09
2.844954e-08
-3.0407044e-09
2.8648349e-08
-3.1178058e-09
2.8011172e-08
-2.1143545e-09
2.8464575e-08
-3.3158196e-09
2.8838266e-08
-3.2142408e-09
2.8932202e-08
-2.9383034e-09
2.9227299e-08
-3.1531948e-09
2.9138263e-08
-2.6644392e-09
2.9070526e-08
-2.6929399e-09
2.8926929e-08
-2.6473257e-09
2.8264442e-08
-1.7631211e-09
2.8069722e-08
-2.7538481e-09
2.7645232e-08
-2.1765299e-09
2.6607588e-08
-9.3551346e-10
2.5731768e-08
-1.2216133e-09
2.4906258e-08
-1.5774771e-09
2.3800986e-08
-1.730271e-09
2.2719275e-08
-1.2155373e-09
2.1892929e-08
-1.6822117e-09
2.0515073e-08
-1.5492455e-09
1.9102782e-08
-3.3620681e-10
1.7462251e-08
-4.718024e-10
1.6154897e-08
-1.1254844e-09
1.4709775e-08
-5.7726585e-10
1.3971041e-08
-1.5612655e-09
1.3823997e-08
-1.6954296e-09
1.2226838e-08
-4.1718733e-10
1.1943542e-08
-1.671949e-09
1.169778e-08
-1.3963828e-09
1.0270275e-08
-5.9620627e-10
9.9856902e-09
-1.4874689e-09
-2.2108117e-09
8.9628172e-09
-3.1868353e-09
9.3490669e-09
-3.1977707e-09
9.7546244e-09
-3.2707808e-09
1.0156045e-08
-3.2821923e-09
1.0573123e-08
-3.3381614e-09
1.0991276e-08
-3.3496309e-09
1.1420507e-08
-3.4025069e-09
1.1853789e-08
-3.4149405e-09
1.2297697e-08
-3.4757451e-09
1.2744447e-08
-3.4838851e-09
1.3202223e-08
-3.5294429e-09
1.3663168e-08
-3.5551679e-09
1.4134713e-08
-3.5843239e-09
1.4610187e-08
-3.6237369e-09
1.5091743e-08
-3.6332971e-09
1.5580844e-08
-3.6786508e-09
1.6074215e-08
-3.6940098e-09
1.6567379e-08
-3.7162845e-09
1.7068494e-08
-3.7479679e-09
1.7574759e-08
-3.7630585e-09
1.8067208e-08
-3.771708e-09
1.8575658e-08
-3.7752279e-09
1.9072315e-08
-3.8256138e-09
1.9587131e-08
-3.814458e-09
2.0071924e-08
-3.830247e-09
2.0575107e-08
-3.8066101e-09
2.107674e-08
-3.8757079e-09
2.1563387e-08
-3.802508e-09
2.2051977e-08
-3.8687941e-09
2.2562184e-08
-3.8762216e-09
2.3027027e-08
-3.8177445e-09
2.3530142e-08
-3.858437e-09
2.4064358e-08
-3.9281143e-09
2.4396781e-08
-3.6629513e-09
2.4878531e-08
-3.8790735e-09
2.49265e-08
-3.4107324e-09
2.4700512e-08
-3.0743072e-09
2.5089156e-08
-3.8191071e-09
2.5214247e-08
-3.4448765e-09
2.5124039e-08
-3.2974145e-09
2.517056e-08
-3.3950426e-09
2.463239e-08
-2.7075088e-09
2.4267267e-08
-2.9290056e-09