/*--------------------------------*- C++ -*----------------------------------*\
| =========                 |                                                 |
| \\      /  F ield         | OpenFOAM: The Open Source CFD Toolbox           |
|  \\    /   O peration     | Version:  2.3.0                                 |
|   \\  /    A nd           | Web:      www.OpenFOAM.org                      |
|    \\/     M anipulation  |                                                 |
\*---------------------------------------------------------------------------*/
FoamFile
{
    version     2.0;
    format      ascii;
    class       volScalarField;
    location    "9e-06";
    object      alpha.fuel;
}
// * * * * * * * * * * * * * * * * * * * * * * * * * * * * * * * * * * * * * //

dimensions      [0 0 0 0 0 0 0];

internalField   nonuniform List<scalar> 
7500
(
1
1
1
1
1
1
1
1
1
1
1
1
1
1
1
1
1
1
1
1
1
1
1
1
1
1
1
1
1
1
1
1
1
1
1
1
1
1
1
1
1
1
1
1
1
1
1
1
1
1
1
1
1
1
1
1
1
1
1
1
1
1
1
1
1
1
1
1
1
1
1
1
1
1
0.99999998
1
1
1
1
1
1
1
1
1
1
1
1
1
1
1
1
1
1
1
1
1
1
1
1
1
1
1
1
1
1
1
1
1
1
1
1
1
1
1
1
1
1
1
1
1
1
1
1
1
1
1
1
1
1
1
1
1
1
1
1
1
1
1
1
1
1
1
1
1
1
1
1
1
1
0.99999998
1
1
1
1
1
1
1
1
1
1
1
1
1
1
1
1
1
1
1
1
1
1
1
1
1
1
1
1
1
1
1
1
1
1
1
1
1
1
1
1
1
1
1
1
1
1
1
1
1
1
1
1
1
1
1
1
1
1
1
1
1
1
1
1
1
1
1
1
1
1
1
1
1
1
0.99999999
1
1
1
1
1
1
1
1
1
1
1
1
1
1
1
1
1
1
1
1
1
1
1
1
1
1
1
1
1
1
1
1
1
1
1
1
1
1
1
1
1
1
1
1
1
1
1
1
1
1
1
1
1
1
1
1
1
1
1
1
1
1
1
1
1
1
1
1
1
1
1
1
1
1
0.99999999
1
1
1
1
1
1
1
1
1
1
1
1
1
1
1
1
1
1
1
1
1
1
1
1
1
1
1
1
1
1
1
1
1
1
1
1
1
1
1
1
1
1
1
1
1
1
1
1
1
1
1
1
1
1
1
1
1
1
1
1
1
1
1
1
1
1
1
1
1
1
1
1
1
1
0.99999999
1
1
1
1
1
1
1
1
1
1
1
1
1
1
1
1
1
1
1
1
1
1
1
1
1
1
1
1
1
1
1
1
1
1
1
1
1
1
1
1
1
1
1
1
1
1
1
1
1
1
1
1
1
1
1
1
1
1
1
1
1
1
1
1
1
1
1
1
1
1
1
1
1
1
0.99999999
1
1
1
1
1
1
1
1
1
1
1
1
1
1
1
1
1
1
1
1
1
1
1
1
1
1
1
1
1
1
1
1
1
1
1
1
1
1
1
1
1
1
1
1
1
1
1
1
1
1
1
1
1
1
1
1
1
1
1
1
1
1
1
1
1
1
1
1
1
1
1
1
1
1
1
1
1
1
1
1
1
1
1
1
1
1
1
1
1
1
1
1
1
1
1
1
1
1
1
1
1
1
1
1
1
1
1
1
1
1
1
1
1
1
1
1
1
1
1
1
1
1
1
1
1
1
1
1
1
1
1
1
1
1
1
1
1
1
1
1
1
1
1
1
1
1
1
1
1
1
1
1
1
1
1
1
1
1
1
1
1
1
1
1
1
1
1
1
1
1
1
1
1
1
1
1
1
1
1
1
1
1
1
1
1
1
1
1
1
1
1
1
1
1
1
1
1
1
1
1
1
1
1
1
1
1
1
1
1
1
1
1
1
1
1
1
1
1
1
1
1
1
1
1
1
1
1
1
1
1
1
1
1
1
1
1
1
1
1
1
1
1
1
1
1
1
1
1
1
1
1
1
1
1
1
1
1
1
1
1
1
1
1
1
1
1
1
1
1
1
1
1
1
1
1
1
1
1
1
1
1
1
1
1
1
1
1
1
1
1
1
0.9989377
0.98986579
0.98172062
0.97264203
0.97158468
0.96351104
0.88508497
0.80655491
0.82666809
1
1
1
1
1
1
1
1
1
1
1
1
1
1
1
1
1
1
1
1
1
1
1
1
1
1
1
1
1
1
1
1
1
1
1
1
1
1
1
1
1
1
1
1
1
1
1
1
1
1
1
1
1
0.9954526
0.97807146
0.9486048
0.92230065
0.90419771
0.83737573
0.72834886
0.74650106
0.71129281
0.70530085
0.68989166
0.66403497
0.58453995
0.4152442
0.21139687
0.16495715
0.14294812
0.15639459
0.14715986
0.036850956
8.1433277e-10
4.2341636e-10
1
1
1
1
1
1
1
1
1
1
1
1
1
1
1
1
1
1
1
1
1
1
1
1
1
1
1
1
1
1
1
1
1
1
1
1
1
1
1
1
1
0.99672308
0.98808418
0.97042276
0.94104149
0.91056108
0.82764775
0.71919359
0.65452983
0.59781638
0.53969313
0.48437293
0.39059276
0.2957179
0.17734525
0.083325393
0.046271437
0.0052667368
4.6440374e-10
3.6404088e-10
3.6404087e-10
3.6404087e-10
3.6404086e-10
3.6404086e-10
3.6404088e-10
3.6404089e-10
3.6404089e-10
3.6404093e-10
3.6404095e-10
3.6404099e-10
3.6404093e-10
3.6404093e-10
3.6404093e-10
4.0015217e-10
7.207998e-10
1
1
1
1
1
1
1
1
1
1
1
1
1
1
1
1
1
1
1
1
1
1
1
1
1
1
1
1
1
1
1
1
1
1
0.98999591
0.96948752
0.9252813
0.83097147
0.71766558
0.59003129
0.44057061
0.29941348
0.2120424
0.13971803
0.080075045
0.0041023601
2.8281541e-09
2.7641553e-09
2.7641553e-09
2.7641553e-09
2.7641553e-09
2.7641553e-09
2.7641553e-09
2.7641554e-09
2.7641554e-09
2.7641555e-09
2.7641555e-09
2.7641561e-09
2.9838197e-09
3.0239164e-09
3.0834298e-09
3.486256e-09
3.4907402e-09
3.5287712e-09
4.7781421e-09
5.6630405e-09
5.5093543e-09
6.9858459e-09
7.6384456e-09
7.5354757e-09
3.9559007e-10
1.7361617e-07
4.0338626e-10
3.9149466e-10
2.1944204e-06
1
1
1
1
1
1
1
1
1
1
1
1
1
1
1
1
1
1
1
1
1
1
1
1
1
1
1
1
0.98177813
0.92551889
0.80152818
0.65411797
0.49817233
0.37420525
0.24547964
0.15230297
0.023863651
3.6857972e-09
3.2824274e-09
3.263047e-09
3.2624831e-09
3.262483e-09
3.262483e-09
3.262483e-09
3.2624812e-09
3.2624804e-09
3.2668523e-09
3.6530157e-09
3.8497878e-09
3.8997314e-09
3.6679448e-09
3.1710976e-09
3.1626104e-09
8.6688816e-09
8.0242966e-09
7.1675346e-09
6.6148638e-09
6.3954449e-09
6.3875993e-09
6.4397283e-09
6.5208455e-09
6.5452771e-09
6.463682e-09
6.5719224e-09
8.9535902e-09
1.1049533e-08
9.6567317e-09
1.0855188e-08
1.2016492e-08
1.1263667e-08
7.8918319e-09
4.2205948e-10
1.0533832e-05
9.2962386e-05
3.9263613e-05
1
1
1
1
1
1
1
1
1
1
1
1
1
1
1
1
1
1
1
1
1
1
1
0.97695795
0.90141396
0.74943683
0.56450573
0.370367
0.20441699
0.021156461
3.8588388e-09
3.6297741e-09
3.6297741e-09
3.6297741e-09
3.6297742e-09
3.6297743e-09
3.6297748e-09
4.8893532e-09
6.1044052e-09
1.0317692e-08
7.6236652e-09
3.78265e-09
3.2657315e-09
2.7310492e-07
1.0101989e-07
3.282092e-09
6.596338e-06
4.0954351e-09
4.41661e-09
4.2026897e-09
3.652706e-09
7.7213839e-06
6.7809335e-07
8.6319756e-09
7.0269417e-09
7.0006076e-09
6.9916348e-09
6.8110086e-09
6.5906423e-09
6.4936607e-09
6.5496274e-09
6.4560352e-09
6.1328468e-09
6.4485836e-09
9.0556892e-09
2.3298073e-08
1.0046607e-08
1.0029265e-08
1.153268e-08
9.6412403e-09
1.7117937e-09
4.2081576e-10
1.441647e-05
1.3153328e-05
4.7902611e-09
1
1
1
1
1
1
1
1
1
1
1
1
1
1
1
1
1
1
1
0.96623189
0.83930817
0.63237959
0.40166059
0.19339803
4.9640883e-09
3.7402322e-09
3.7402321e-09
3.7402321e-09
3.7402322e-09
3.7402324e-09
5.2888664e-09
6.3300471e-09
6.4305172e-09
9.474046e-09
1.3962906e-08
1.8179939e-08
2.179457e-08
1.8095126e-08
6.0606126e-09
5.0997588e-08
7.4320432e-07
9.9248206e-07
4.0455719e-09
3.3060557e-09
3.2660855e-09
0.00010410933
0.00054653128
0.0023076613
0.010224923
0.01015336
0.0041457414
0.00012341069
4.1305342e-05
5.3168336e-09
4.9352814e-09
4.3954038e-09
4.3954087e-09
5.8185704e-09
6.0135177e-09
5.6454368e-09
5.6842823e-09
5.6959173e-09
5.0637818e-09
4.2577486e-09
3.6827193e-09
8.5358496e-08
9.8833244e-07
9.6549248e-09
9.2221635e-09
1.1033551e-09
5.62734e-10
1.285086e-05
4.529435e-06
1.5657598e-07
0.00053907622
1
1
1
1
1
1
1
1
1
1
1
1
1
1
1
1
0.92888851
0.72785448
0.46606164
0.16781999
4.9510257e-09
3.9406762e-09
3.9406762e-09
3.9406763e-09
4.4428431e-09
6.1887204e-09
7.5100463e-09
7.4700864e-09
1.101333e-08
1.447081e-08
1.4590528e-08
1.4259047e-08
1.2729049e-08
1.3601605e-08
2.0767566e-08
3.7639267e-08
1.6994868e-08
1.606855e-08
5.9017229e-09
2.3884126e-09
2.0624924e-09
8.4728504e-06
1.8186343e-05
3.7557369e-09
3.2660785e-09
4.3753388e-08
2.4440263e-09
0.014516727
0.016841515
0.01687695
0.01407002
1.0136744e-05
1.74658e-09
0.0095173777
0.04823596
0.022228815
0.00037032775
4.8837182e-09
4.7427225e-09
4.9197016e-09
4.6320339e-09
4.7602284e-09
4.3224811e-09
3.5616667e-09
3.7748916e-09
4.0532644e-09
3.571287e-06
0.0002334667
1.2226398e-09
8.427733e-10
5.628073e-10
2.5431709e-06
1.7362887e-09
1.7906771e-09
0.0087027609
1
1
1
1
1
1
1
1
1
1
1
1
1
0.93360147
0.72072816
0.41477692
0.061949726
4.8632407e-09
4.3710218e-09
4.3710218e-09
4.6503085e-09
4.9812717e-09
6.2871337e-09
9.8617133e-09
5.1697202e-09
1.8757206e-08
1.4429296e-08
1.5464277e-08
1.1688217e-08
1.7870335e-08
1.9731211e-08
2.717225e-08
1.4878404e-08
1.4249041e-08
1.4828067e-08
1.4779912e-08
2.0481583e-07
2.3578935e-08
6.1105744e-09
5.1308958e-09
3.3574566e-09
1.9333609e-09
2.8316993e-05
0.00093780959
3.4190492e-05
3.0065787e-09
7.4108389e-07
1.9861243e-09
1.9860757e-09
0.0019192934
0.00041027138
2.171538e-09
1.7453269e-09
0.043331658
0.066132578
0.055804941
0.0050780176
4.5130924e-09
4.3856413e-09
4.1202532e-06
3.4414392e-09
3.1297184e-09
3.129712e-09
3.1297126e-09
3.4101451e-09
1.3578276e-05
1.5499924e-09
0.00031118886
0.0087024034
0.008222175
0.00062454253
1.4372157e-09
1.1846378e-09
1.2499531e-09
0.0070046756
1
1
1
1
1
1
1
1
1
1
1
0.86786531
0.53929764
0.10563954
4.2374865e-09
3.5097696e-09
3.5097708e-09
1.2922495e-08
1.1357577e-08
9.6865089e-09
5.8064071e-09
5.8248892e-09
9.2632936e-09
2.8295849e-08
5.4964946e-06
2.9079006e-07
1.4831381e-08
5.1259336e-08
0.00060084956
1.5174913e-07
1.7543805e-08
3.8826293e-08
1.522783e-08
0.0077375121
0.0056205038
0.00017903351
6.408953e-09
5.6026453e-09
5.5275266e-09
5.0787507e-09
4.678778e-09
3.2804828e-09
1.9331274e-09
0.0053801147
0.01350437
0.0121562
6.2502834e-05
2.3377707e-09
1.9860759e-09
2.2211206e-09
0.00052958684
0.0007255104
2.0152095e-09
1.4275461e-09
1.2848887e-09
0.027126803
0.079843327
0.054818319
0.002716865
0.0017475837
0.0019449445
0.0021687462
0.0011475829
0.00022744709
0.00054385715
8.6881628e-05
1.6706969e-09
1.3798965e-09
0.019561946
0.028745982
0.0053905429
1.3571643e-09
7.1313243e-05
0.00024183645
4.4485564e-10
1
1
1
1
1
1
1
1
1
0.84572241
0.45225878
0.0016601122
3.4843576e-09
3.4674917e-09
4.8777793e-09
1.8371486e-07
1.1205228e-07
6.3305589e-08
1.1548034e-08
1.0690328e-08
0.0012221289
6.543504e-05
1.0262039e-08
6.5052305e-07
2.8924138e-05
4.3863264e-06
4.8431419e-09
7.0345587e-07
0.0024397054
0.00089297649
7.2509e-09
6.2939227e-09
0.0011317634
0.016799009
0.016799009
0.0071180104
7.2470599e-09
2.0420611e-07
2.0120803e-07
4.3758747e-09
3.9288427e-09
3.0898217e-09
1.9332012e-09
0.0012973802
0.010025463
0.0037940972
8.8471085e-05
2.3557142e-09
0.003696724
0.0049361542
0.0062497681
0.011963591
0.010911945
0.0054516481
0.00023387961
2.0144516e-09
0.046891894
0.055693563
0.036576151
7.9242052e-09
0.0062676989
0.013102134
0.013141395
0.013141395
0.0023722835
2.1367905e-09
1.8490095e-09
1.6250357e-09
1.6108412e-09
0.025841527
0.0058643345
6.081875e-10
2.5246129e-06
1.6946469e-10
2.6516404e-07
1
1
1
1
1
1
1
0.89137728
0.50751579
0.0050131722
1.8424143e-08
1.8477703e-08
3.3414328e-05
3.8757802e-05
0.00010980743
3.418109e-05
6.5089835e-08
6.4174927e-08
0.00017360131
0.00089596106
0.0016820474
0.00025811242
1.0668779e-08
1.9765409e-06
1.6840567e-05
5.330988e-09
4.6407459e-09
5.3458273e-09
0.0014545129
0.0023773211
0.00025763892
6.4453038e-09
0.0077342488
0.0045867361
0.0062529644
0.011501056
0.0013893866
1.9227262e-08
1.4593331e-06
1.955711e-06
4.0592038e-09
3.478569e-09
3.1444461e-07
2.7713673e-09
2.3661566e-09
1.8242853e-09
1.8242909e-09
0.00016495707
2.3104112e-09
0.0019109033
0.011963592
0.011963592
0.011754549
0.011963589
0.0066869621
1.8983827e-09
1.4086928e-09
0.012621046
0.003847129
5.8132545e-05
7.4115871e-10
7.3468891e-10
0.00010178289
2.0128031e-05
8.547542e-06
5.3319904e-05
0.00012357484
0.0011090409
1.97671e-09
0.0060349163
0.015573514
3.1150167e-10
1.6750468e-10
1.6643135e-10
2.3857956e-05
1
1
1
1
1
1
0.7372642
0.10494439
1.4963722e-08
1.5022511e-08
6.0676709e-05
0.00013016521
0.00017177015
0.00017150794
0.00017175904
7.5039068e-08
6.5802124e-08
0.00018163849
0.0014937306
0.0013797789
7.8282453e-09
0.0081054169
0.00083812318
3.7794973e-09
4.4196673e-09
2.4222323e-05
3.7530598e-05
0.0005214194
1.5581559e-06
0.0019493377
0.00058624603
0.0020518627
4.2267232e-09
4.002736e-09
4.0027358e-09
0.0011004532
0.0029097234
0.00025167966
3.3204988e-09
1.1059288e-05
6.2862591e-05
0.00016214968
4.2025498e-05
2.3894263e-09
2.1878226e-09
2.2367369e-09
2.2749006e-09
2.0897514e-09
1.7873211e-09
1.6255554e-09
0.0035721631
0.0020209833
1.5191756e-09
0.00099581457
0.0042086121
0.00097046938
1.0533995e-09
7.4741923e-10
0.00014423174
0.0010747699
1.0882041e-09
1.1034363e-09
1.3839589e-09
0.00013408459
0.00012511262
5.5048121e-10
0.0013028236
0.0059641059
0.0052378914
0.0016386235
0.01559412
0.015589505
0.0014737828
3.4332179e-10
5.3662824e-10
1
1
1
1
0.96934313
0.47862036
1.3512981e-08
1.1248726e-08
1.41746e-08
0.00018434944
0.00071958683
0.00071993833
0.00012838601
3.8289754e-09
3.8398613e-09
0.012967222
0.0026477156
1.1667338e-05
0.00015036727
3.6929685e-09
1.0434774e-05
0.0092250516
0.00022961985
3.9540364e-09
0.00042853447
1.388086e-06
4.0313463e-05
0.00078034947
2.5518414e-05
5.331452e-09
0.0019808312
4.1712494e-07
5.1443293e-09
5.1286574e-09
4.7455434e-09
4.0035865e-09
0.0029071402
0.0013305486
2.6442117e-09
2.1067816e-09
8.0258719e-05
0.00096005605
2.1723141e-09
1.9901695e-09
1.9901694e-09
0.0070172644
0.0099186798
0.0035191167
2.1556448e-09
1.7937495e-09
1.5021353e-09
1.1767463e-09
1.4677559e-09
1.1767443e-09
0.00022601183
0.00048609936
7.0657426e-05
4.7962617e-10
2.1849331e-10
0.014563165
0.13324966
0.27266097
0.16359581
0.015516282
8.1624613e-10
4.8421718e-10
1.4937712e-05
0.0025144181
0.0020018458
0.0023747801
0.0098332455
0.0090150713
0.00085572698
0.001594873
0.074028738
1
1
1
0.95939915
0.2674195
1.3888657e-08
1.2267274e-08
1.1563823e-08
0.0012557719
0.0012789743
3.3092112e-09
3.2799896e-09
3.2732618e-09
3.2799843e-09
0.01205521
0.013743221
0.013725117
6.0248667e-09
5.2375379e-09
4.3907992e-09
0.0061867359
0.001805994
0.0054129601
0.0004301875
0.0063313124
2.0999627e-05
1.6460844e-05
5.3280289e-09
5.327436e-09
5.3274113e-09
0.0011290861
0.00015056027
5.6494929e-09
6.0357657e-09
5.1169686e-09
4.0035893e-09
0.0019194524
0.0028404149
0.001535747
6.7113789e-06
3.7751425e-09
3.1599183e-09
0.014224903
0.016017148
0.015532099
0.016172696
0.016172696
0.0055042357
1.6167439e-09
1.1767504e-09
1.1767467e-09
1.5716134e-09
4.4726206e-05
1.1867698e-09
0.0038756201
0.0022559117
4.8107971e-06
4.2399469e-10
2.2793433e-10
1.8393274e-10
0.21403999
0.40220268
0.40220268
0.15293013
8.3448367e-10
4.8424722e-10
1.9180761e-05
3.3338545e-10
3.2496313e-10
3.2878101e-10
5.6647052e-10
5.0040579e-10
2.7535633e-10
0.090092111
0.28502773
1
1
0.98532838
0.25277504
2.0112e-08
1.9030575e-08
1.5220784e-08
9.964404e-05
8.6355755e-09
0.00043244364
4.5969224e-06
3.2779704e-09
3.266585e-09
3.2734015e-09
0.0009422267
0.0031511096
7.3585527e-09
0.00042012394
5.2540018e-09
6.1289305e-05
0.0096624988
0.0002164337
0.0034514068
0.00029863316
0.005465801
0.00084337102
6.7477115e-09
6.0830738e-09
5.5632761e-09
6.2193557e-09
6.9429226e-09
4.2757624e-06
1.0091185e-06
3.4757796e-06
4.900626e-09
4.463315e-09
7.9525311e-05
0.0028404153
0.0028106741
0.0012101323
0.00089129368
4.5023564e-06
0.0040580908
0.0071300814
0.0032873096
1.3387326e-05
2.5988274e-05
1.8861277e-09
1.6105108e-09
0.0049135876
0.0081797157
0.00607672
0.0053109398
1.4898465e-09
0.001890336
0.0025644223
5.2290288e-06
1.9599749e-10
2.0613997e-10
2.0281754e-10
1.8393243e-10
0.01620773
0.31845197
0.25436064
0.0018430221
5.3529457e-10
3.3265996e-10
3.8799846e-10
3.2497225e-10
1.86788e-05
3.3433259e-10
2.7120998e-10
2.7113598e-10
0.067916571
0.18431934
1
1
0.31406259
2.063447e-08
1.8021792e-08
1.5305356e-08
0.00014416788
8.5665071e-09
8.0833499e-09
6.2988731e-09
4.780553e-09
4.665639e-09
2.6715916e-09
4.6342775e-09
5.6637077e-09
6.6871771e-09
7.3033485e-09
0.0066831495
0.0066719678
0.0026886747
0.0017861618
0.00013944483
7.6681828e-09
7.6425201e-09
7.6502154e-09
0.00051906876
3.5162664e-05
6.6229018e-09
6.1267899e-09
0.0023345214
8.0161389e-05
0.00081633438
1.0350297e-06
1.0628607e-06
0.00036399221
0.0014880841
0.00013530262
3.0082691e-05
2.5969383e-09
0.0014104723
0.0014323187
0.00057858737
3.9059009e-09
3.4929334e-09
3.1032829e-09
3.0653045e-09
0.017343694
0.0066787546
0.0083981147
0.0089294622
0.008929462
0.0088331954
0.00017089832
1.0848785e-09
6.5365842e-10
0.0096876074
0.0097792917
0.0039818414
5.033732e-10
3.9393857e-10
3.8311675e-10
1.8733117e-10
0.048794374
0.22384559
0.047846078
7.7538445e-10
1.4897888e-09
8.9873773e-10
3.2509529e-10
3.2554718e-05
3.47876e-05
3.05214e-06
2.7114355e-10
4.5430158e-10
4.1122532e-10
1
0.65121878
0.026012152
0.00029648004
1.2336024e-08
1.5506566e-08
1.8231084e-08
1.5597846e-08
2.3315275e-08
3.021544e-08
2.6797009e-08
6.3712983e-09
2.5768698e-09
7.509104e-07
5.6652345e-09
5.6671107e-09
0.0002668561
0.0066833115
0.0016860579
3.0885688e-09
3.0964461e-09
0.0011944932
6.5287362e-09
6.5088546e-09
1.5190206e-05
0.0011085733
5.1861938e-06
5.0601881e-06
0.00044890027
0.0026271728
0.00054419185
0.00067442928
0.093869203
0.053273269
0.0042007692
0.0054052678
0.00023541814
3.5736111e-09
3.1765492e-09
2.5416711e-09
2.5416708e-09
2.5416713e-09
2.5691572e-05
2.3916894e-06
2.7401139e-09
0.0014844146
0.027465602
0.01445501
0.0012343476
0.00017566299
0.00045110849
8.7536789e-10
1.0957722e-09
9.452952e-10
6.5365923e-10
0.0021936141
0.0062074257
0.0024697602
3.2874283e-06
5.9857948e-10
3.946852e-10
1.8733117e-10
0.012386951
0.12734034
0.067615512
1.0513067e-09
1.2219326e-09
1.0821839e-09
3.3345383e-09
2.3609798e-06
1.344661e-05
2.4210753e-10
0.16935928
0.058228849
5.9606774e-10
0.96879662
0.081200983
1.0017448e-08
6.8595412e-09
1.0509362e-08
0.0046975087
0.0039211459
2.5665898e-09
2.0385625e-08
2.5811057e-08
9.9139249e-09
6.4214153e-09
2.5754622e-09
1.4756548e-09
0.0083023845
0.0085540496
0.0083363083
0.0045212279
5.2795135e-09
4.3927203e-09
7.8932465e-06
0.0061242511
0.0079905643
0.007932408
7.0716332e-05
0.0044148044
0.0021796299
0.001298931
0.001581142
8.4911039e-09
8.445248e-09
8.5872625e-09
0.12754724
0.12979694
0.024434044
1.1268138e-08
1.086856e-08
3.3533657e-07
1.9046186e-07
2.9929934e-09
2.6135054e-09
2.9642464e-09
3.1941246e-09
8.0010299e-06
2.7397684e-09
0.01324413
0.013467863
0.0043178287
1.6910816e-09
1.6445458e-09
1.1872682e-09
1.1702146e-09
0.0013456338
0.00015996522
9.4984643e-10
9.5626682e-10
1.3465255e-09
1.0376124e-09
8.6656053e-10
0.0039928203
0.0019879368
2.3434086e-10
0.028891031
0.05348929
0.0088952122
4.570939e-06
1.5054575e-09
3.7130214e-07
1.261812e-07
3.1186351e-10
1.5124673e-10
0.045330467
0.11745721
0.02496096
0.00089343585
0.31943874
1.1548067e-08
6.0692604e-06
7.0089981e-09
0.0036997716
0.0048668045
0.004864186
2.5664287e-09
5.173637e-09
1.2058528e-08
3.9616781e-09
2.5755864e-09
2.592027e-09
1.4962768e-09
0.00047649662
0.0042893881
0.0015070836
6.8896525e-08
4.581008e-05
0.0040034134
6.2711698e-05
5.8911106e-09
0.0080882152
0.0036480282
6.4736478e-06
0.0020875709
0.002203125
3.7781228e-06
0.00092807395
8.6644183e-09
0.019704169
0.044419375
0.00078209371
0.12565066
0.053151215
1.1539909e-08
1.0886051e-08
1.131182e-08
2.4296853e-07
6.7387649e-05
3.0175399e-09
0.005926853
0.00015425368
8.3230692e-05
2.739086e-09
0.018587093
9.9113027e-06
0.021267627
0.024705149
0.01043566
0.0035309856
0.0055123769
0.0054777879
0.00043408185
1.1684328e-09
1.6400164e-05
1.7122197e-09
0.0056131903
0.028668958
0.029277309
0.012374685
0.0020347783
0.013053234
0.0024259708
5.7038888e-10
8.7154117e-08
9.3694478e-07
1.473818e-06
9.2930669e-08
1.4750311e-10
0.003419063
0.0094533834
0.0047540888
1.1529711e-10
0.0067476633
0.10143428
6.7364859e-09
0.00013009584
4.0709635e-07
3.2961296e-09
0.00038995295
0.0027707059
0.0029728572
2.4342263e-09
4.285084e-09
0.00015619549
0.00010069104
1.0058313e-05
3.3141556e-09
4.0159114e-09
4.7352171e-09
0.00067269804
0.00032223181
3.4854387e-05
0.0052567284
4.1724127e-05
6.9054912e-09
3.170977e-05
7.4501073e-09
7.4467543e-09
8.0686115e-09
0.00072844198
3.4890174e-06
3.4882775e-06
0.00046594537
0.0028025546
0.057574783
0.0023486579
0.0017270445
0.051844471
0.0020662076
1.1278967e-08
9.2200194e-08
1.7512761e-08
0.00028169604
0.0019378066
0.011226962
0.0047968532
1.6384657e-08
0.012099632
0.011948426
9.9114019e-06
0.0013972343
0.009166809
0.010971981
0.011033585
0.010973057
0.001024542
2.6112702e-05
0.00022144677
1.6627914e-05
0.0099206256
0.028472747
0.026596799
0.011805332
0.0010081534
7.8775719e-05
8.5854278e-10
6.484009e-10
4.8622868e-10
5.4248983e-07
5.9867962e-07
5.0037532e-07
2.1589376e-08
1.4015644e-05
0.00017862081
2.834295e-10
1.7408099e-10
3.7586937e-11
7.2399295e-12
1.5029991e-09
1.7999874e-09
0.00012000736
1.7529314e-05
3.2587612e-09
5.0490746e-09
0.00018664675
0.0009579288
6.1740997e-05
9.3733894e-05
0.00067566909
0.00068560691
0.00045597055
2.8061798e-05
3.0171574e-09
3.5133947e-09
4.1683471e-09
3.0936931e-07
4.6192647e-09
0.0032504715
9.8055312e-06
0.0060694799
7.4306929e-09
6.6610831e-09
7.5004699e-09
0.001169344
0.00021938291
0.00064849089
3.0226022e-05
0.0011699702
3.481888e-09
2.9858083e-09
2.9858076e-09
2.985807e-09
0.024090083
0.0032686311
1.1645715e-08
1.219011e-08
0.00012347619
4.3084179e-09
0.0052844491
0.0029009317
0.0028041393
3.7740207e-05
0.0025471316
0.00098804415
0.019354754
1.8175304e-09
1.411263e-09
1.1337018e-09
0.00078493249
1.1654086e-09
1.1336051e-09
0.0013979944
0.0017401542
0.00028637912
4.2996431e-10
0.0025927111
0.00059977568
0.0015297813
0.0076239751
0.0030216919
9.2055583e-10
7.1906263e-10
5.5628697e-10
4.7697177e-10
4.7737276e-10
5.7234648e-10
3.8546831e-10
2.1922763e-10
0.00083802109
0.0034902038
0.00021654762
2.2815238e-10
1.5927035e-10
2.009372e-08
1.6703152e-08
4.2510858e-09
4.2509448e-09
6.167967e-09
8.1287387e-09
9.6888232e-09
1.1354444e-08
3.2053381e-05
0.00017471564
4.5098716e-09
0.00046581383
3.5727782e-09
3.64401e-05
3.016581e-09
3.0165829e-09
3.1305983e-09
3.8543506e-09
4.5173165e-09
3.8148036e-09
0.0026528952
0.009064107
0.00074416658
0.0027581793
0.0030950692
0.0075074152
0.001626628
0.0016212743
5.7347684e-05
3.488262e-09
3.4821038e-09
3.4102192e-08
3.4779432e-09
3.0456848e-09
0.021890347
0.003591079
1.2200712e-08
4.6874411e-05
0.00025988757
2.9004512e-05
1.4012677e-09
1.4000954e-09
1.567676e-09
0.0093286675
0.0018788473
0.00012376782
0.083657938
0.027146412
1.8133483e-09
2.9807235e-08
5.7985982e-09
5.5976743e-09
1.9255451e-09
1.1343086e-09
0.00093160433
0.00071454707
5.5622046e-07
1.4757577e-10
1.4811387e-10
0.0071433484
0.0090423734
0.00030141617
9.0983234e-10
7.52661e-10
5.6883079e-10
4.7661047e-10
5.4302713e-10
4.3898075e-10
5.3738266e-10
1.1261668e-10
0.0055766147
0.01240743
0.0034305299
4.1117437e-10
0.00093860059
1.6524578e-08
1.3706873e-08
1.3674575e-08
4.9341201e-09
6.3309769e-09
9.9702672e-09
5.1881907e-08
1.806088e-07
6.7189799e-09
4.1869908e-09
4.5062944e-09
5.0088546e-09
3.5178707e-09
3.0172032e-09
3.0165854e-09
0.00034014044
3.1953636e-09
3.1088603e-09
1.7108493e-05
2.1814627e-08
0.0039805548
0.0016219335
0.00027260865
0.001988957
0.0044261527
0.0011581867
4.9883951e-09
4.9783895e-09
4.6688024e-09
4.0260492e-09
2.1788343e-05
1.5092705e-08
0.024137631
0.00044929177
0.01564057
0.0072669393
1.263017e-08
0.00017561967
3.3402464e-05
1.2622893e-09
1.6714851e-09
1.7502648e-09
0.0077531175
0.013169264
0.0071574622
8.6425177e-05
0.058160086
0.079512593
0.0062578053
1.4064981e-08
1.8617036e-07
5.7887343e-08
1.471157e-09
1.1343849e-09
3.7021999e-05
1.5603618e-09
1.2910621e-07
3.5597553e-10
1.3406182e-10
1.790167e-10
0.012889078
0.0024321068
1.1154897e-09
9.2621734e-10
5.7883728e-10
4.5069347e-10
5.0690308e-10
3.5051899e-10
1.7090778e-10
1.1264566e-10
0.0012667918
0.010201903
0.0057504321
6.2740733e-10
0.0021043861
1.9610046e-07
1.0937624e-08
8.7966211e-09
6.6249873e-09
7.0974797e-09
5.2517876e-09
1.0981106e-08
1.1263232e-08
1.7465566e-05
5.8183763e-09
9.4713013e-09
5.908184e-09
4.4353409e-09
1.7097906e-08
3.6940727e-09
4.2322322e-09
0.00085165227
0.0031396335
0.002611269
0.0007825902
8.6667574e-09
8.6787763e-09
8.7230058e-09
9.8185299e-09
0.002170151
2.2443751e-05
8.2071e-06
0.0010325078
0.0010134803
0.00030459542
3.7885353e-05
0.010039867
0.052704765
0.011207002
0.0045528802
0.0047374293
0.0007385176
1.0519528e-09
7.6823523e-10
1.0702913e-09
0.0065196071
0.0056555655
0.01287701
0.011049058
0.0024920506
8.6424897e-05
8.6424959e-05
0.050117583
0.022049078
1.3917766e-08
9.7458762e-08
1.9379221e-09
1.6317504e-09
1.3998594e-09
1.3236025e-09
1.5494619e-09
1.7437283e-09
0.00030887099
4.7036942e-05
1.812231e-10
0.016262223
0.0042597649
1.2614854e-09
1.0600385e-09
4.8145801e-10
4.1003508e-10
5.9696872e-10
3.3489879e-10
1.172278e-10
6.7838253e-07
3.4656268e-10
4.7986426e-10
0.00020251539
3.1811022e-05
2.6891774e-13
4.516025e-07
2.3896779e-05
6.0102067e-05
6.3167881e-06
6.9012837e-05
4.5889907e-09
4.8037319e-09
4.9754686e-05
7.2267885e-06
9.2250349e-05
1.6827947e-06
4.6737089e-09
7.0371488e-06
2.3891923e-08
4.8119556e-09
4.1988134e-09
1.1927619e-05
3.3761511e-05
5.6178927e-09
0.0056626959
5.9341265e-05
6.4350508e-05
0.0061215864
9.8571241e-09
1.0007451e-08
0.0025369274
0.0017272549
0.0017027313
0.0016769565
0.0016660449
6.4247589e-10
0.039368779
0.028004611
0.018383009
1.7655148e-08
1.7254354e-08
4.8915041e-05
1.9493727e-05
1.0467135e-09
0.0012258814
0.01039096
0.010370485
0.0067418418
0.00073655343
5.6627718e-09
0.055436814
0.0066377171
0.0037413648
0.0036909618
1.3627788e-08
1.3475271e-08
0.00035629588
0.0024273831
0.00010891176
1.6266317e-05
0.0047466116
0.002000527
0.0022175287
0.0017603927
7.8102727e-05
0.010088568
0.010514394
0.00063069924
5.8043437e-10
4.4209851e-10
3.57186e-10
5.6813901e-10
2.9229378e-10
1.3666944e-10
1.3721452e-10
2.0926035e-10
2.8787417e-10
1.2443936e-10
1.3983066e-11
1.4673106e-11
4.2308798e-07
0.00017918943
0.00019918229
0.00020015821
0.0002134845
0.00019591452
0.00020727104
1.3652768e-05
2.1486453e-05
0.00016359591
2.3865248e-06
0.00019180088
0.00016829402
1.9767401e-07
7.9330442e-06
2.3004425e-06
5.5924644e-09
4.8201729e-05
2.0499144e-06
0.0056635241
0.00015021371
0.010471352
0.010841308
0.0069898944
0.00068402573
1.6168638e-09
0.0012003878
7.4673544e-10
6.2133928e-10
6.2133895e-10
6.2133895e-10
6.2528492e-10
5.8673767e-10
0.020770957
1.7914574e-08
0.00031841394
7.4799262e-07
1.7418115e-06
0.0027309361
0.0059096323
5.5971933e-10
5.1671018e-10
0.0010316794
0.00063982921
0.02103079
0.057638031
0.0099098216
0.0084169338
0.010986843
0.0084795755
0.00033050008
0.00074563292
0.0056298187
0.00030780699
0.0097340824
0.0096017352
0.0070784833
0.00010299863
0.0072365602
2.2318335e-09
2.0121337e-09
0.0021663784
0.00025841054
6.0582659e-10
4.3086e-10
2.8637433e-10
4.3953373e-10
2.3222904e-10
1.0419278e-10
1.84873e-10
1.8635268e-10
1.3136893e-10
1.5643705e-10
3.6275874e-11
2.3120648e-11
3.7263945e-10
2.3802235e-10
2.3981536e-10
2.7715967e-10
1.7892792e-09
0.000199264
9.8457991e-06
1.8421344e-07
4.1939363e-05
0.00010629787
9.0643365e-09
0.00040867895
5.583676e-07
4.2950904e-06
1.2373565e-05
5.0805965e-09
4.9509992e-09
4.5489927e-09
0.00097310402
0.0056635249
5.1210936e-05
0.01038339
0.0061420792
0.010841307
0.0094088262
1.5131324e-09
7.9710977e-10
7.1982277e-10
1.3945519e-09
6.2133895e-10
0.0037995924
0.00089446426
6.2804365e-10
0.040211726
0.01656577
0.013030121
4.6784762e-06
2.5231806e-06
0.037030467
0.0081104234
9.3234452e-10
5.2288685e-10
5.3105983e-10
0.028332977
0.016586175
0.0012095378
2.684864e-10
2.5965275e-10
0.02088022
0.020944662
0.0042269506
4.219972e-09
0.0021121839
0.0034665357
0.0024343537
7.7721358e-10
7.6005531e-10
7.577267e-10
7.4849153e-10
0.0057380729
1.7721639e-09
1.7031082e-09
1.6077514e-09
7.244499e-08
1.0421492e-09
2.6715942e-10
2.5852694e-10
1.4562948e-10
6.5247656e-11
9.3481555e-11
1.1075369e-10
4.3304676e-11
1.1225443e-10
1.2705964e-11
1.2123271e-11
4.2237382e-10
6.7704936e-09
1.3801712e-07
2.0649419e-06
4.4281523e-09
2.5165038e-06
3.4258591e-06
2.9003473e-06
4.2255547e-05
8.8771493e-09
8.8757038e-09
0.00025538783
1.0429322e-05
2.3728153e-10
1.4834405e-10
0.00011368701
4.9614141e-09
4.9882593e-09
0.0037911581
0.0010750988
0.0010805702
0.0039796049
0.00025895124
0.0065490397
5.0528307e-09
0.0020035041
0.00017344297
1.2843524e-09
1.5204466e-09
6.213454e-10
0.0020064699
8.208735e-05
5.3726071e-10
0.048450255
0.051052114
0.0065329973
0.00065118131
0.030055569
0.037030467
0.024198234
5.5151534e-08
5.1518948e-10
0.0012577029
0.011799605
7.2097869e-10
6.5403879e-10
4.5704645e-10
2.5986092e-10
0.010467988
0.0021942329
0.0026857919
0.00020805041
2.671975e-10
0.0034645899
0.00041981837
1.1459907e-09
1.0590393e-05
5.6500576e-06
7.5215723e-10
0.021420494
0.016201479
1.5268676e-09
1.4348124e-09
2.0176e-08
2.8087529e-10
3.7860269e-10
1.0612086e-10
6.257646e-11
3.1552644e-11
4.1984518e-11
4.7030791e-11
9.9490408e-12
4.410345e-11
3.8000202e-12
5.0744366e-12
1.642402e-10
2.3743619e-09
4.1465969e-09
0.00012758278
0.00025127884
4.3915676e-09
2.7038051e-07
3.0457279e-06
5.9662899e-05
9.8808979e-09
8.9344792e-09
8.1869963e-09
7.1869394e-09
7.233387e-09
1.5053219e-10
4.8207888e-06
0.0008079451
0.00043249948
3.769883e-09
3.7406808e-09
0.0022124748
4.46254e-09
0.0026605085
5.6157167e-09
5.052152e-09
0.0031924599
0.00092107386
8.0924918e-07
1.5483622e-09
1.2146542e-09
9.4840472e-10
5.3605326e-10
5.3605159e-10
0.024980579
0.032907684
1.2920934e-09
0.025424895
0.031793237
0.010673027
7.1668044e-10
0.00023871794
2.7135427e-07
0.00020023904
1.2311574e-09
4.8946026e-08
1.3263434e-08
1.0913607e-07
6.7782529e-07
4.9238947e-10
2.602143e-10
2.6021388e-10
2.6021496e-10
2.6219285e-10
0.00099780818
0.00019654214
9.3880882e-10
7.7426167e-10
0.0012977558
0.00019755428
0.0096014526
0.022802102
0.018330929
7.8326603e-10
5.6379868e-10
4.230253e-10
7.2137478e-10
4.3964409e-11
1.6497457e-11
1.0372618e-11
1.5129099e-11
1.4753349e-11
1.6306218e-12
9.9504051e-12
5.0166856e-13
1.5925533e-12
1.684141e-10
2.0163788e-09
6.0942574e-09
2.8815493e-08
0.00034214277
3.942201e-09
5.6527876e-09
6.8683125e-06
3.1809254e-05
1.2044015e-05
1.8481744e-05
7.906117e-07
7.8626401e-09
7.5459569e-09
9.4040092e-10
9.4976087e-10
0.0014683393
9.6241386e-08
4.2651774e-09
3.9687784e-09
3.7406221e-09
3.3986234e-07
0.00025149859
1.8389055e-07
5.2748913e-09
0.0016066641
0.0016556989
7.195778e-05
2.141383e-09
4.2013429e-06
3.7085554e-07
8.3974241e-10
3.2778868e-09
1.1820557e-09
1.1782548e-09
7.9626016e-10
6.707124e-10
6.7040267e-10
6.70383e-10
6.797938e-10
6.7038519e-10
7.6831419e-09
1.3427695e-09
9.6375121e-10
1.2679251e-09
1.2679797e-09
4.3588747e-05
9.3678253e-06
6.8155382e-10
3.7625475e-09
7.295279e-10
4.3380659e-10
1.3783815e-07
2.7094406e-08
0.00017135117
0.00012268652
8.0601555e-10
0.0014215391
0.0036284486
6.3800575e-05
0.020889731
0.0030335199
1.1693076e-09
4.4756065e-10
7.0959069e-10
1.3917102e-09
6.2425023e-11
3.1486796e-12
2.0842706e-12
3.9171372e-12
3.4906509e-12
2.1654716e-13
1.4662865e-12
7.3729751e-14
4.158532e-13
5.7833907e-11
1.8977012e-09
2.9677514e-09
2.2476212e-06
0.00034241514
0.00049425586
1.6518672e-08
2.8904564e-05
0.0002496816
1.6479081e-05
0.00067254088
8.8939008e-09
8.6137884e-09
8.7431621e-09
6.5311503e-07
9.5214545e-10
0.00047758802
1.0023269e-05
2.7133533e-09
4.3129388e-09
3.7634489e-09
4.3177623e-09
4.7710094e-09
4.4401797e-09
1.9384267e-05
2.4353496e-08
2.4116209e-08
3.0923819e-05
9.5540245e-05
4.5679434e-06
1.2614407e-09
9.0430439e-10