/*--------------------------------*- C++ -*----------------------------------*\
| =========                 |                                                 |
| \\      /  F ield         | OpenFOAM: The Open Source CFD Toolbox           |
|  \\    /   O peration     | Version:  2.3.0                                 |
|   \\  /    A nd           | Web:      www.OpenFOAM.org                      |
|    \\/     M anipulation  |                                                 |
\*---------------------------------------------------------------------------*/
FoamFile
{
    version     2.0;
    format      ascii;
    class       volScalarField;
    location    "9e-06";
    object      nuSgs;
}
// * * * * * * * * * * * * * * * * * * * * * * * * * * * * * * * * * * * * * //

dimensions      [0 2 -1 0 0 0 0];

internalField   nonuniform List<scalar> 
7500
(
4.140664e-10
4.1918384e-10
4.2465314e-10
4.2984489e-10
4.3479582e-10
4.3978878e-10
4.4485929e-10
4.5012718e-10
4.5545777e-10
4.6140799e-10
4.660167e-10
4.7093723e-10
4.7632909e-10
4.8134187e-10
4.8654089e-10
4.9154888e-10
4.9622408e-10
5.0107142e-10
5.068332e-10
5.123569e-10
5.1717264e-10
5.2265023e-10
5.2733525e-10
5.3216234e-10
5.3754172e-10
5.4439353e-10
5.4984853e-10
5.5623485e-10
5.6090135e-10
5.6514399e-10
5.7000324e-10
5.7656321e-10
5.8213249e-10
5.8805169e-10
5.9519437e-10
6.0393293e-10
6.1060069e-10
6.1911517e-10
6.2574871e-10
6.4205948e-10
6.5291907e-10
6.6081606e-10
6.7104396e-10
6.8534435e-10
6.9369243e-10
7.0574072e-10
7.1496386e-10
7.2691863e-10
7.3996608e-10
7.6666042e-10
7.8046399e-10
7.9247358e-10
8.1132901e-10
8.3746038e-10
8.6442493e-10
8.9631498e-10
9.3273801e-10
9.5919604e-10
9.7688635e-10
1.0015303e-09
1.0440313e-09
1.1085833e-09
1.1380147e-09
1.1756669e-09
1.2119727e-09
1.2836151e-09
1.4134228e-09
1.5089978e-09
1.5510509e-09
1.6001302e-09
1.6954464e-09
1.8299135e-09
2.2046498e-09
2.3373199e-09
2.6535271e-09
4.5549794e-10
4.6130041e-10
4.6753271e-10
4.732344e-10
4.7926154e-10
4.8473321e-10
4.9024785e-10
4.9603317e-10
5.01506e-10
5.0706708e-10
5.1226023e-10
5.1740346e-10
5.2262212e-10
5.2811084e-10
5.3405768e-10
5.3943098e-10
5.4485302e-10
5.5018562e-10
5.5554013e-10
5.6047555e-10
5.6575114e-10
5.7086835e-10
5.7588298e-10
5.8130995e-10
5.8703595e-10
5.9356155e-10
6.0019118e-10
6.0759286e-10
6.1371553e-10
6.2015171e-10
6.2601018e-10
6.3171662e-10
6.3787681e-10
6.439092e-10
6.5304379e-10
6.6083526e-10
6.7056086e-10
6.7819302e-10
6.8780396e-10
7.0418055e-10
7.1464342e-10
7.2466317e-10
7.3434954e-10
7.4949996e-10
7.6105679e-10
7.7581439e-10
7.8948271e-10
8.0551999e-10
8.3606039e-10
8.6557177e-10
8.9953049e-10
9.2450516e-10
9.6741142e-10
1.0228599e-09
1.0746735e-09
1.1035436e-09
1.1453736e-09
1.1997949e-09
1.2540209e-09
1.3263759e-09
1.3686635e-09
1.4587873e-09
1.5127178e-09
1.5981945e-09
1.6554899e-09
1.7453702e-09
1.8941303e-09
2.1394317e-09
2.2993212e-09
2.3829713e-09
2.4607145e-09
2.5961958e-09
3.0560744e-09
3.3321344e-09
3.8488614e-09
5.011786e-10
5.0799871e-10
5.1549239e-10
5.224577e-10
5.3068971e-10
5.3908295e-10
5.4753752e-10
5.5412368e-10
5.6052856e-10
5.6668504e-10
5.728543e-10
5.7876848e-10
5.8481968e-10
5.9124893e-10
5.9808598e-10
6.0484135e-10
6.1175109e-10
6.1863526e-10
6.2511961e-10
6.3153617e-10
6.3811608e-10
6.4420952e-10
6.5048383e-10
6.56983e-10
6.631559e-10
6.7072659e-10
6.7835107e-10
6.8837726e-10
6.9640641e-10
7.0423584e-10
7.1366156e-10
7.2190294e-10
7.3233037e-10
7.4244494e-10
7.6010157e-10
7.7198074e-10
7.8675392e-10
8.0058869e-10
8.2323512e-10
8.4977493e-10
8.7978955e-10
9.074381e-10
9.2857292e-10
9.6408468e-10
9.9987601e-10
1.0525269e-09
1.1049939e-09
1.1571898e-09
1.2474523e-09
1.3173712e-09
1.4449339e-09
1.5246528e-09
1.6464607e-09
1.8371603e-09
1.9880048e-09
2.0618719e-09
2.1687855e-09
2.339105e-09
2.5478164e-09
2.7591751e-09
2.8275365e-09
3.0140641e-09
3.1276708e-09
3.3555129e-09
3.5140459e-09
3.8851432e-09
4.1740942e-09
4.7774036e-09
5.2380883e-09
5.4027801e-09
5.5928702e-09
5.8781769e-09
6.9042797e-09
7.5900126e-09
8.6368926e-09
5.5160539e-10
5.5982455e-10
5.6757112e-10
5.7538116e-10
5.8581216e-10
6.01331e-10
6.1876727e-10
6.3518037e-10
6.5398845e-10
6.6238028e-10
6.7011908e-10
6.7818632e-10
6.8590479e-10
6.9358264e-10
7.0289587e-10
7.1315158e-10
7.2720124e-10
7.3731683e-10
7.4609779e-10
7.5696628e-10
7.6862854e-10
7.7884068e-10
7.891699e-10
8.0076056e-10
8.1063913e-10
8.2452184e-10
8.3769833e-10
8.5821828e-10
8.7405239e-10
8.9949838e-10
9.2306738e-10
9.5201997e-10
9.8556502e-10
1.0120306e-09
1.0615396e-09
1.1094909e-09
1.1727729e-09
1.2458704e-09
1.377193e-09
1.4956294e-09
1.6740854e-09
1.8276475e-09
1.934199e-09
2.1243567e-09
2.3179869e-09
2.510844e-09
2.7852753e-09
2.9879727e-09
3.2315402e-09
3.4360019e-09
3.8345485e-09
4.1152291e-09
4.5232082e-09
5.1642743e-09
5.631773e-09
5.8762154e-09
6.2223078e-09
6.7761179e-09
7.4712956e-09
8.1267869e-09
8.1968972e-09
8.6227746e-09
8.8924334e-09
9.4509034e-09
9.8795487e-09
1.1009619e-08
1.1756318e-08
1.3370444e-08
1.4452266e-08
1.4871046e-08
1.5333343e-08
1.6060417e-08
1.8414498e-08
2.0003932e-08
2.2106324e-08
5.9764033e-10
6.0619932e-10
6.1503173e-10
6.2369444e-10
6.3304698e-10
6.4498624e-10
6.5987454e-10
6.8320494e-10
7.2215933e-10
7.53888e-10
7.9124095e-10
8.1516851e-10
8.3729791e-10
8.5075032e-10
8.7442559e-10
8.9302085e-10
9.2641792e-10
9.4294381e-10
9.6529006e-10
9.9417186e-10
1.0370589e-09
1.0627923e-09
1.0884612e-09
1.1191203e-09
1.1452626e-09
1.1892374e-09
1.2367796e-09
1.3232424e-09
1.4031316e-09
1.5509284e-09
1.6757076e-09
1.8310043e-09
2.0349704e-09
2.1825967e-09
2.4446904e-09
2.7333711e-09
3.072256e-09
3.4346913e-09
4.0547959e-09
4.5219193e-09
5.3283071e-09
5.9073625e-09
6.3112319e-09
7.0628224e-09
7.7358001e-09
8.3351873e-09
9.3338408e-09
9.9748704e-09
1.0545973e-08
1.1147208e-08
1.2398257e-08
1.3371297e-08
1.4555365e-08
1.6356371e-08
1.7886846e-08
1.8596966e-08
1.9572584e-08
2.1239052e-08
2.318452e-08
2.496246e-08
2.4888797e-08
2.5918186e-08
2.6451659e-08
2.7729958e-08
2.8908937e-08
3.1824792e-08
3.3508586e-08
3.7369067e-08
3.9553608e-08
4.0502156e-08
4.1585706e-08
4.3336887e-08
4.8575667e-08
5.1382521e-08
5.4483818e-08
6.3151053e-10
6.4508603e-10
6.5847395e-10
6.7347567e-10
6.884905e-10
7.0316662e-10
7.2324091e-10
7.4680733e-10
7.7148962e-10
7.9187243e-10
8.2318705e-10
8.8649817e-10
9.4370047e-10
1.010101e-09
1.1341284e-09
1.1875292e-09
1.2891866e-09
1.3228833e-09
1.3645647e-09
1.4332752e-09
1.5512021e-09
1.6361559e-09
1.7221723e-09
1.8633413e-09
1.9910805e-09
2.2250758e-09
2.4826411e-09
2.952167e-09
3.350615e-09
4.045744e-09
4.649999e-09
5.2501451e-09
6.1551096e-09
6.7562823e-09
7.7448246e-09
8.8696062e-09
1.0045404e-08
1.1332932e-08
1.3448895e-08
1.4927499e-08
1.75675e-08
1.9336741e-08
2.0540249e-08
2.2767755e-08
2.4895069e-08
2.656428e-08
2.9373457e-08
3.1249346e-08
3.2656146e-08
3.4151092e-08
3.7473967e-08
4.0430385e-08
4.365617e-08
4.7920761e-08
5.1905388e-08
5.3857723e-08
5.6452132e-08
6.0600276e-08
6.5641849e-08
6.9309863e-08
6.8690854e-08
7.1113762e-08
7.2146609e-08
7.4584879e-08
7.7429092e-08
8.4422598e-08
8.7684047e-08
9.4998378e-08
9.9250423e-08
1.0099571e-07
1.0291189e-07
1.066142e-07
1.1721655e-07
1.2070483e-07
1.2333033e-07
6.5739629e-10
6.9307809e-10
7.0949237e-10
7.2818107e-10
7.5483799e-10
7.9083339e-10
8.4985528e-10
9.2631817e-10
1.0495151e-09
1.1165455e-09
1.2445714e-09
1.2784877e-09
1.3556839e-09
1.4323309e-09
1.5899879e-09
1.6877159e-09
1.8533115e-09
2.001865e-09
2.1540504e-09
2.3787855e-09
2.8051891e-09
3.1809221e-09
3.6019511e-09
4.317846e-09
4.9222432e-09
5.9643486e-09
7.0062801e-09
8.8221631e-09
1.020868e-08
1.2571135e-08
1.4645201e-08
1.6427374e-08
1.9342472e-08
2.1210519e-08
2.4078336e-08
2.761708e-08
3.0701994e-08
3.4525397e-08
4.0446429e-08
4.4339894e-08
5.1321053e-08
5.6171495e-08
5.9143243e-08
6.4536306e-08
7.0136061e-08
7.4228259e-08
8.0701227e-08
8.5236943e-08
8.8421406e-08
9.1817182e-08
9.9691717e-08
1.0655152e-07
1.1422747e-07
1.2179306e-07
1.3113369e-07
1.3577062e-07
1.4169094e-07
1.5108151e-07
1.608177e-07
1.6682392e-07
1.6485313e-07
1.6931795e-07
1.7125767e-07
1.7582201e-07
1.8074839e-07
1.9374336e-07
1.9928656e-07
2.1055173e-07
2.1708883e-07
2.2029508e-07
2.2308879e-07
2.2981974e-07
2.4625722e-07
2.4781429e-07
2.482209e-07
6.8517356e-10
8.0477062e-10
8.122803e-10
8.3674201e-10
8.9696098e-10
9.7656509e-10
1.1007063e-09
1.2407499e-09
1.3701766e-09
1.4408277e-09
1.5959635e-09
1.7871136e-09
2.082077e-09
2.4321385e-09
2.8187755e-09
3.0775669e-09
3.3942461e-09
3.9877311e-09
4.6421848e-09
5.5095079e-09
7.1177378e-09
8.5279133e-09
1.0021935e-08
1.2629235e-08
1.4605784e-08
1.7818378e-08
2.1040018e-08
2.6507888e-08
3.0304049e-08
3.6703533e-08
4.2933779e-08
4.7357795e-08
5.496701e-08
5.9906376e-08
6.7115528e-08
7.6003269e-08
8.3674246e-08
9.3293236e-08
1.0628754e-07
1.1555416e-07
1.3163464e-07
1.4267002e-07
1.4914585e-07
1.6044199e-07
1.7201857e-07
1.8101122e-07
1.9393486e-07
2.025903e-07
2.0879468e-07
2.1557691e-07
2.3100754e-07
2.4360227e-07
2.6030352e-07
2.7127417e-07
2.9037578e-07
2.9948947e-07
3.1185038e-07
3.251211e-07
3.4256631e-07
3.5074707e-07
3.4555924e-07
3.530735e-07
3.5576546e-07
3.6375677e-07
3.7150117e-07
3.9103759e-07
4.002933e-07
4.1500874e-07
4.2117846e-07
4.2732255e-07
4.3223307e-07
4.4397405e-07
4.7171504e-07
4.7048693e-07
4.6282512e-07
7.1476334e-10
9.0604115e-10
9.043107e-10
9.2399323e-10
9.7844637e-10
1.078628e-09
1.224072e-09
1.3784641e-09
1.5063004e-09
1.6193707e-09
1.7481064e-09
2.0040334e-09
2.452861e-09
3.0027238e-09
3.9856882e-09
4.9643961e-09
6.3874906e-09
8.6863452e-09
1.1396309e-08
1.4384148e-08
1.9843401e-08
2.4034025e-08
2.8490355e-08
3.6225095e-08
4.1607425e-08
4.9414163e-08
5.8616834e-08
7.2306989e-08
8.0870086e-08
9.5650835e-08
1.1185307e-07
1.2177909e-07
1.38422e-07
1.4922634e-07
1.6664552e-07
1.832881e-07
1.9987047e-07
2.2477375e-07
2.4331957e-07
2.6632814e-07
2.9876349e-07
3.1853024e-07
3.3063519e-07
3.5164493e-07
3.7093826e-07
3.8796872e-07
4.1187471e-07
4.2780006e-07
4.381049e-07
4.49901e-07
4.7500726e-07
4.9460333e-07
5.2350836e-07
5.415222e-07
5.7669541e-07
5.942015e-07
6.1202703e-07
6.2519464e-07
6.4831552e-07
6.6223651e-07
6.4907952e-07
6.632172e-07
6.6554691e-07
6.8063299e-07
6.9574891e-07
7.2790375e-07
7.484242e-07
7.6708663e-07
7.7599746e-07
7.9006227e-07
7.9823007e-07
8.1789126e-07
9.0635593e-07
9.1127906e-07
9.0165105e-07
7.0257542e-10
7.8010967e-10
8.2549888e-10
8.6005182e-10
9.2468408e-10
1.0340736e-09
1.1972071e-09
1.3714956e-09
1.6622881e-09
2.0094986e-09
2.600561e-09
3.4714602e-09
4.8231384e-09
6.6274102e-09
9.6990974e-09
1.3019684e-08
1.7103462e-08
2.4474887e-08
3.1395908e-08
3.9207885e-08
5.3666317e-08
6.3767387e-08
7.5369618e-08
9.4006438e-08
1.0788836e-07
1.2226421e-07
1.4796863e-07
1.7481854e-07
1.9166049e-07
2.2228473e-07
2.5739006e-07
2.7723044e-07
3.099103e-07
3.3019484e-07
3.6852921e-07
3.9236237e-07
4.252886e-07
4.8184496e-07
5.0789891e-07
5.4864821e-07
6.059302e-07
6.3958696e-07
6.6003726e-07
6.9392862e-07
7.2810357e-07
7.529205e-07
7.9568857e-07
8.2694298e-07
8.4418305e-07
8.6461627e-07
9.0230614e-07
9.3002638e-07
9.7573921e-07
1.008848e-06
1.073974e-06
1.1027156e-06
1.1184841e-06
1.1293112e-06
1.1484705e-06
1.186091e-06
1.1632287e-06
1.1986054e-06
1.2040439e-06
1.2291273e-06
1.2730025e-06
1.3609033e-06
1.4136526e-06
1.4578486e-06
1.4704257e-06
1.501753e-06
1.487239e-06
1.5374145e-06
1.8556055e-06
2.1122506e-06
2.2337794e-06
7.2405038e-10
9.2335728e-10
9.364683e-10
9.4705954e-10
1.0142409e-09
1.1306318e-09
1.3630534e-09
1.8225458e-09
2.6534763e-09
4.0298776e-09
6.0946324e-09
9.1083722e-09
1.361007e-08
1.8723111e-08
2.7641477e-08
3.6166122e-08
4.6291912e-08
6.5509717e-08
8.2084862e-08
1.0059711e-07
1.3391786e-07
1.5461971e-07
1.8311767e-07
2.1783399e-07
2.5085551e-07
2.7744905e-07
3.2775599e-07
3.7725667e-07
4.0920499e-07
4.6781967e-07
5.3005011e-07
5.6697829e-07
6.2860119e-07
6.6455162e-07
7.3442295e-07
7.7892783e-07
8.4330208e-07
9.4377077e-07
9.8717197e-07
1.053909e-06
1.1418117e-06
1.2091141e-06
1.2451549e-06
1.2932874e-06
1.3663824e-06
1.4058043e-06
1.4746829e-06
1.5455352e-06
1.5832195e-06
1.6220782e-06
1.6748516e-06
1.7187894e-06
1.8083186e-06
1.8825009e-06
1.986655e-06
1.9977134e-06
1.9973596e-06
2.0040634e-06
2.0536784e-06
2.1667063e-06
2.1587452e-06
2.2324466e-06
2.3002717e-06
2.3318777e-06
2.6005565e-06
2.7592073e-06
2.824603e-06
2.9437054e-06
2.9445931e-06
2.9214605e-06
2.6858095e-06
2.9586281e-06
3.1887111e-06
5.3066999e-06
6.0053271e-06
7.6805761e-10
1.1811677e-09
1.1394965e-09
1.1674827e-09
1.3581742e-09
1.8156854e-09
2.7157586e-09
4.2588693e-09
6.668034e-09
1.0605561e-08
1.6148565e-08
2.4054664e-08
3.6905335e-08
4.9619087e-08
7.1816522e-08
9.2277229e-08
1.147226e-07
1.58774e-07
1.9136873e-07
2.3330674e-07
2.9436882e-07
3.3469729e-07
3.9689921e-07
4.4944686e-07
5.2341892e-07
5.6993758e-07
6.5538256e-07
7.346896e-07
7.9797779e-07
9.1233719e-07
1.0085158e-06
1.0863209e-06
1.2017342e-06
1.2663349e-06
1.4059804e-06
1.4938976e-06
1.6348594e-06
1.7896067e-06
1.856444e-06
1.9876118e-06
2.112294e-06
2.2791824e-06
2.3613984e-06
2.4564429e-06
2.5940187e-06
2.6672572e-06
2.8622873e-06
3.0021592e-06
3.1557186e-06
3.1751091e-06
3.2354369e-06
3.3410678e-06
3.6147761e-06
3.7571446e-06
3.8025891e-06
3.6399267e-06
3.6752063e-06
3.6908566e-06
3.8731254e-06
4.1162467e-06
4.2488075e-06
4.6134745e-06
4.7441013e-06
4.5876988e-06
5.4450678e-06
5.3264289e-06
5.1194742e-06
5.114415e-06
4.9907182e-06
4.2798286e-06
3.6818384e-06
3.7687609e-06
3.9193679e-06
6.8821095e-06
6.8487475e-06
7.2030964e-10
9.1885525e-10
1.023055e-09
1.2759778e-09
2.0317407e-09
3.5697097e-09
6.4404908e-09
1.0954727e-08
1.7625219e-08
2.8025728e-08
4.231859e-08
6.1451566e-08
9.3635622e-08
1.2167728e-07
1.7030957e-07
2.1295025e-07
2.5896231e-07
3.471014e-07
4.0489724e-07
4.9536471e-07
5.7797864e-07
6.7224012e-07
7.7578327e-07
8.629538e-07
1.002655e-06
1.0830809e-06
1.2363575e-06
1.3436129e-06
1.5138188e-06
1.717593e-06
1.9145677e-06
2.0702242e-06
2.2776864e-06
2.4281474e-06
2.7871199e-06
2.9392331e-06
3.2622202e-06
3.4039707e-06
3.4971075e-06
3.9746252e-06
4.1304946e-06
4.5952091e-06
4.8333525e-06
5.0024985e-06
5.168727e-06
5.3645566e-06
6.0986941e-06
6.5366042e-06
6.5633447e-06
6.2361329e-06
6.8697961e-06
6.6904352e-06
6.4395446e-06
6.6434832e-06
6.0955623e-06
5.4536655e-06
5.5947357e-06
6.3153837e-06
6.656063e-06
6.5747381e-06
6.4353583e-06
6.7707018e-06
7.3448739e-06
7.5740288e-06
6.9906306e-06
6.1006718e-06
5.4501372e-06
4.896611e-06
4.1985534e-06
3.3774014e-06
3.9497696e-06
4.0699739e-06
4.5137548e-06
4.4506499e-06
4.5145423e-06
6.9880903e-10
7.9047697e-10
1.1860176e-09
2.3059216e-09
4.8865378e-09
9.2267505e-09
1.6624137e-08
2.7911486e-08
4.4253412e-08
7.0032749e-08
1.043124e-07
1.4624028e-07
2.1750427e-07
2.7202681e-07
3.6813112e-07
4.4408276e-07
5.369926e-07
6.8623883e-07
7.8706271e-07
9.4745676e-07
1.0679208e-06
1.2721382e-06
1.4261645e-06
1.5853177e-06
1.850577e-06
1.9998608e-06
2.3082245e-06
2.4994048e-06
3.0503305e-06
3.3216117e-06
3.8030433e-06
4.0780011e-06
4.5412026e-06
5.0506229e-06
6.0093851e-06
5.9994636e-06
6.9817367e-06
6.7388979e-06
7.0121331e-06
8.5133877e-06
8.4059158e-06
8.5706184e-06
8.7079966e-06
8.6094844e-06
8.7942586e-06
9.8898356e-06
1.0833394e-05
1.023069e-05
8.3098134e-06
8.2096362e-06
9.0675677e-06
7.8762793e-06
6.9246978e-06
6.2677037e-06
4.3878113e-06
5.0879205e-06
5.8063371e-06
6.6493353e-06
6.2459821e-06
5.9712858e-06
4.8292125e-06
5.2374119e-06
5.8652755e-06
5.9566428e-06
4.3612045e-06
3.5905604e-06
3.2915226e-06
3.0672101e-06
3.2111035e-06
3.2253225e-06
3.4994642e-06
3.6302482e-06
4.0824161e-06
4.2358761e-06
5.233985e-06
7.0913277e-10
1.0245506e-09
2.483166e-09
5.8009873e-09
1.2527891e-08
2.3383499e-08
4.1138116e-08
6.7165704e-08
1.0375709e-07
1.6475773e-07
2.3356751e-07
3.1915928e-07
4.5450641e-07
5.5038643e-07
7.2406512e-07
8.503512e-07
1.0471996e-06
1.2343014e-06
1.4643287e-06
1.70161e-06
1.9371429e-06
2.3501322e-06
2.6263737e-06
2.9312413e-06
3.4879501e-06
3.7953199e-06
4.5875267e-06
4.8364785e-06
6.934805e-06
6.9214757e-06
7.7588156e-06
8.5843479e-06
9.8336358e-06
1.0909628e-05
1.0117824e-05
1.0709429e-05
1.137639e-05
1.0195963e-05
1.2720111e-05
1.1849106e-05
1.0494595e-05
9.1654641e-06
7.6653231e-06
7.9652587e-06
9.3576398e-06
1.0526802e-05
7.6017552e-06
5.8477935e-06
4.3598677e-06
4.925562e-06
5.0328373e-06
4.0770354e-06
3.4036041e-06
3.1570576e-06
2.9223218e-06
3.2106004e-06
3.6241579e-06
3.3467226e-06
3.2451493e-06
3.4787283e-06
3.2985542e-06
3.1293509e-06
3.0584555e-06
3.0686863e-06
3.3093196e-06
3.5179998e-06
3.1989848e-06
3.3104718e-06
3.4470459e-06
3.9157693e-06
3.8997868e-06
3.999053e-06
4.364007e-06
5.5056528e-06
6.4982605e-06
6.6901666e-10
1.9807014e-09
6.2551604e-09
1.4760722e-08
3.0772657e-08
5.5677625e-08
9.5027989e-08
1.5039371e-07
2.2581598e-07
3.5559965e-07
4.7348709e-07
6.5090019e-07
8.5481523e-07
1.0272303e-06
1.3316305e-06
1.5476419e-06
1.8992155e-06
2.1931585e-06
2.7108174e-06
3.0395589e-06
3.6257604e-06
4.5835516e-06
4.9842058e-06
5.7886353e-06
7.158828e-06
7.8219136e-06
9.6210531e-06
9.8561325e-06
1.3158311e-05
1.1790009e-05
1.2111214e-05
1.4440554e-05
1.3894035e-05
1.2187974e-05
8.7192543e-06
1.1077661e-05
8.0072875e-06
9.4311051e-06
1.1597087e-05
6.0086501e-06
4.6585968e-06
3.7428641e-06
3.1450829e-06
3.1867537e-06
3.6888516e-06
4.3182587e-06
3.6951653e-06
3.3062574e-06
3.1435001e-06
2.9694593e-06
3.0363926e-06
3.225812e-06
3.1788634e-06
3.106261e-06
3.135108e-06
3.0618671e-06
3.0845209e-06
3.0237429e-06
3.076951e-06
3.4809811e-06
3.3921455e-06
3.2641262e-06
3.1212982e-06
3.2603635e-06
3.9846546e-06
4.6311985e-06
4.4348645e-06
4.3215014e-06
4.1624895e-06
3.9881124e-06
4.07506e-06
6.6233855e-06
7.3857307e-06
7.8015659e-06
7.1931301e-06
6.45731e-10
4.8272325e-09
1.5505796e-08
3.5475914e-08
7.0733348e-08
1.2355913e-07
2.0491227e-07
3.1297392e-07
4.576655e-07
6.9644087e-07
8.9538545e-07
1.2147213e-06
1.4984562e-06
1.8718554e-06
2.3760526e-06
2.7602398e-06
3.4551367e-06
4.0388284e-06
5.1575005e-06
5.7585351e-06
7.7031777e-06
9.421779e-06
9.6565817e-06
1.1720971e-05
1.2472983e-05
1.2860279e-05
1.3279651e-05
1.4406793e-05
1.1040209e-05
8.7969243e-06
7.2208965e-06
8.1037885e-06
5.9755532e-06
3.8675875e-06
3.2560962e-06
3.7564767e-06
3.6868552e-06
9.0139357e-06
6.1787318e-06
3.3941761e-06
2.9316878e-06
3.3894294e-06
3.1836136e-06
3.5994959e-06
4.8724988e-06
5.08422e-06
3.8608729e-06
3.988097e-06
3.6152635e-06
3.4070561e-06
3.3056402e-06
3.5206603e-06
3.427922e-06
3.4127701e-06
3.5666568e-06
3.2506171e-06
3.0499745e-06
3.3880059e-06
3.3092532e-06
3.4737868e-06
4.4990432e-06
3.9845455e-06
3.5330131e-06
4.2366393e-06
4.5103493e-06
4.962964e-06
4.8369326e-06
4.7596691e-06
4.5180609e-06
4.3904099e-06
5.766614e-06
7.436794e-06
7.7807758e-06
7.5996044e-06
7.4039251e-06
1.2740006e-09
1.1969133e-08
3.6614478e-08
8.0125309e-08
1.5211145e-07
2.5577323e-07
4.1388738e-07
6.053407e-07
8.7287577e-07
1.2615106e-06
1.6021964e-06
2.1309105e-06
2.6503661e-06
3.5129447e-06
4.2109191e-06
5.0652854e-06
6.7909721e-06
7.9737345e-06
1.0434834e-05
1.1513974e-05
1.3879137e-05
1.2956271e-05
1.1216658e-05
1.3158808e-05
1.0803727e-05
8.3452764e-06
9.7623058e-06
9.676108e-06
3.7323776e-06
2.750802e-06
3.2538937e-06
3.3998277e-06
2.5201537e-06
2.0024529e-06
2.122432e-06
2.9592958e-06
3.8400816e-06
8.1064185e-06
5.5081987e-06
2.9871656e-06
2.8558645e-06
3.1697549e-06
3.7799983e-06
3.4816804e-06
3.7510541e-06
3.5854902e-06
3.7706032e-06
3.6758004e-06
3.7599972e-06
4.3967744e-06
4.1817874e-06
3.5284546e-06
3.4106352e-06
3.6263702e-06
3.8537609e-06
3.7126668e-06
3.3019457e-06
3.1735442e-06
3.0832705e-06
3.3375536e-06
4.6455171e-06
4.3581524e-06
3.8921585e-06
4.0372704e-06
4.8031937e-06
5.1285157e-06
4.9946054e-06
5.0382098e-06
5.0225383e-06
4.9525778e-06
6.082109e-06
6.6159032e-06
8.0443264e-06
7.9414749e-06
7.6640764e-06
3.0523789e-10
2.793838e-08
8.1124993e-08
1.6911401e-07
3.055986e-07
4.9516236e-07
7.7305826e-07
1.1022684e-06
1.6126943e-06
2.1652489e-06
2.8387723e-06
3.7870158e-06
4.9293373e-06
6.7522059e-06
7.9323921e-06
1.0219528e-05
1.1671922e-05
1.2736204e-05
1.3767631e-05
1.3818589e-05
1.0479321e-05
5.8900007e-06
4.1070274e-06
5.9159993e-06
4.7217931e-06
3.5653539e-06
4.7334199e-06
3.6165609e-06
2.0423895e-06
1.7536409e-06
2.1379383e-06
1.939522e-06
2.2498667e-06
2.0105467e-06
2.0753354e-06
2.3166382e-06
4.085397e-06
5.1828498e-06
4.2576214e-06
2.8406356e-06
3.0077862e-06
2.8254118e-06
2.9556056e-06
3.3549997e-06
4.358378e-06
4.2539214e-06
3.9030996e-06
3.6651057e-06
3.8076024e-06
3.8529556e-06
3.7937569e-06
3.4847322e-06
3.5038948e-06
3.8679268e-06
3.9575263e-06
4.2270762e-06
3.879581e-06
3.3818788e-06
3.395521e-06
3.8731457e-06
4.0618606e-06
4.0534007e-06
3.8714673e-06
4.3828968e-06
5.2981642e-06
5.0784791e-06
5.1141625e-06
5.7378267e-06
5.8358735e-06
5.3775966e-06
6.2700787e-06
6.6059775e-06
8.7347165e-06
8.1691516e-06
7.731761e-06
5.3952058e-09
6.3576065e-08
1.7029126e-07
3.3500739e-07
5.7634174e-07
9.0134289e-07
1.3603094e-06
1.9491859e-06
2.8469571e-06
3.7793729e-06
5.2773599e-06
7.2840229e-06
9.9041835e-06
1.1296766e-05
1.1922666e-05
1.331633e-05
1.1728316e-05
1.034655e-05
9.2372478e-06
8.883114e-06
3.7307231e-06
2.1176869e-06
2.1508388e-06
3.9956459e-06
3.8697871e-06
2.769697e-06
2.2882471e-06
1.8687048e-06
1.7860804e-06
1.7407294e-06
2.0518117e-06
1.8132071e-06
2.3670652e-06
2.0877774e-06
2.2556028e-06
2.1495272e-06
3.085152e-06
6.7109027e-06
4.3428158e-06
2.8642552e-06
2.7478632e-06
2.6886086e-06
3.581341e-06
3.5331934e-06
3.9438795e-06
4.3165506e-06
4.0497122e-06
3.6379335e-06
3.873036e-06
4.9344176e-06
4.2544243e-06
3.7563376e-06
3.6166471e-06
3.9364301e-06
4.3041039e-06
4.058824e-06
4.157514e-06
3.8686383e-06
4.231228e-06
4.522905e-06
4.4433821e-06
4.2473591e-06
4.0831026e-06
4.2246758e-06
5.0465088e-06
5.1631812e-06
5.2260235e-06
6.5716528e-06
6.6157734e-06
5.9075596e-06
6.2126236e-06
7.4138007e-06
8.3087572e-06
8.0887302e-06
7.948383e-06
1.8071776e-08
1.3651167e-07
3.367688e-07
6.2308636e-07
1.0274327e-06
1.5680679e-06
2.3529291e-06
3.4666738e-06
5.0736645e-06
7.1051946e-06
1.0747309e-05
1.1953548e-05
1.2417505e-05
1.0720419e-05
8.1517654e-06
7.5596362e-06
4.6641607e-06
4.3432191e-06
4.1948849e-06
3.7402806e-06
1.7706888e-06
1.4378934e-06
2.9872224e-06
4.1150971e-06
2.5756766e-06
2.3121643e-06
1.7546397e-06
2.0311848e-06
1.7468281e-06
1.6821414e-06
1.7455459e-06
1.9838304e-06
1.9398083e-06
1.9795778e-06
2.5878065e-06
2.4026596e-06
2.6235074e-06
5.8646986e-06
3.5627867e-06
2.8432756e-06
2.6976855e-06
2.7306013e-06
2.9093711e-06
3.0509049e-06
3.4525812e-06
3.7089205e-06
4.0980988e-06
3.7819022e-06
3.7770867e-06
3.7902195e-06
3.7041997e-06
3.8075098e-06
3.7367242e-06
3.8323072e-06
3.9196786e-06
4.4647361e-06
4.2753113e-06
4.4069438e-06
3.9635553e-06
3.9769962e-06
3.8072473e-06
3.7803242e-06
4.0550644e-06
4.5911229e-06
5.7175032e-06
5.3272359e-06
5.8206683e-06
5.6486019e-06
6.2165828e-06
6.5931077e-06
6.516038e-06
7.5293028e-06
7.4103904e-06
7.8910583e-06
8.3343621e-06
4.9452678e-08
2.773821e-07
6.2708765e-07
1.0933281e-06
1.7567972e-06
2.6689231e-06
4.1645326e-06
6.4156465e-06
9.8065397e-06
1.1237397e-05
1.3513608e-05
1.1190628e-05
6.5602329e-06
3.8621084e-06
2.970603e-06
2.7741823e-06
1.4766405e-06
2.1802778e-06
2.4585211e-06
2.9573318e-06
1.2592794e-06
1.198049e-06
2.8132762e-06
3.1409295e-06
2.1865905e-06
2.1071888e-06
1.547326e-06
1.5979856e-06
1.6893025e-06
1.7622759e-06
1.7037935e-06
2.8092253e-06
2.6937556e-06
2.3663141e-06
2.5755489e-06
2.5813982e-06
2.7455201e-06
4.0115678e-06
3.039667e-06
2.8534574e-06
3.1142512e-06
2.8442544e-06
2.6857929e-06
3.9899358e-06
3.6936941e-06
3.9453726e-06
4.2260414e-06
3.9961042e-06
3.7763777e-06
4.235448e-06
4.4358731e-06
4.0962727e-06
4.1521625e-06
4.1977388e-06
4.0700652e-06
4.0123189e-06
4.0862356e-06
4.2562302e-06
4.6513853e-06
4.291238e-06
3.8591031e-06
4.1894876e-06
4.3446464e-06
5.4801226e-06
5.2797031e-06
5.0677562e-06
5.0294098e-06
5.1055633e-06
5.493846e-06
6.1979004e-06
6.5876785e-06
7.4116152e-06
7.2574736e-06
7.9503055e-06
8.7395289e-06
1.2112971e-07
5.3275775e-07
1.1047417e-06
1.8319112e-06
2.9527739e-06
4.5838916e-06
7.8718093e-06
1.0668798e-05
1.2422914e-05
1.1054689e-05
8.4099308e-06
4.4782436e-06
2.5825589e-06
1.4541921e-06
1.4304771e-06
1.3268697e-06
7.0683137e-07
1.7958276e-06
2.4214844e-06
1.5199645e-06
1.0738468e-06
9.8988175e-07
2.3683108e-06
3.5199044e-06
1.5043071e-06
1.8794048e-06
2.4518664e-06
1.6318366e-06
1.8168532e-06
2.0532704e-06
1.7446175e-06
2.5247741e-06
3.0263387e-06
2.563225e-06
2.3385535e-06
2.5453665e-06
2.6771459e-06
3.0801633e-06
2.8126254e-06
2.7838775e-06
2.9421269e-06
2.872937e-06
2.9819477e-06
4.332622e-06
3.8763669e-06
4.4072839e-06
4.0933771e-06
3.9362006e-06
4.1849012e-06
4.5218202e-06
4.1022259e-06
3.9870384e-06
4.6883628e-06
4.7871884e-06
4.6758584e-06
4.0560603e-06
4.1322958e-06
4.4600449e-06
4.281438e-06
4.148968e-06
4.110105e-06
4.2572171e-06
4.3739484e-06
4.6461754e-06
5.1234614e-06
5.1294284e-06
5.0295414e-06
5.1003404e-06
5.519383e-06
6.8985566e-06
6.9805232e-06
7.4150288e-06
7.4224074e-06
8.4277073e-06
9.4607127e-06
2.7409668e-07
9.683713e-07
1.8592745e-06
2.9835785e-06
5.047812e-06
8.370154e-06
1.0518594e-05
1.0769556e-05
8.1504671e-06
5.7194719e-06
3.3294657e-06
1.4612303e-06
1.3932665e-06
9.6348632e-07
1.1489776e-06
1.0965372e-06
6.0171688e-07
1.4128196e-06
2.2817892e-06
9.6167679e-07
1.0626961e-06
9.8949335e-07
1.9787922e-06
4.0384717e-06
1.4525792e-06
1.9112048e-06
2.7231502e-06
1.6506776e-06
1.8572171e-06
2.3877117e-06
1.8974623e-06
1.9734685e-06
2.6805782e-06
2.2973593e-06
2.4305789e-06
2.4681763e-06
3.3886096e-06
3.1001142e-06
2.6216661e-06
2.6649948e-06
2.6850702e-06
2.6827455e-06
2.9635452e-06
3.8885136e-06
3.8063683e-06
4.3622729e-06
3.1748837e-06
3.65772e-06
4.4434119e-06
3.9543116e-06
3.4674669e-06
3.7507226e-06
4.9629349e-06
5.1766521e-06
5.1327395e-06
4.4127753e-06
4.7116634e-06
4.5692964e-06
4.0047821e-06
3.9291928e-06
4.1912942e-06
4.2134627e-06
4.1446484e-06
4.2826126e-06
5.106019e-06
5.2494569e-06
5.4706888e-06
5.6316094e-06
5.8428681e-06
6.6560709e-06
7.6094923e-06
7.3540377e-06
7.4742971e-06
9.666957e-06
1.0887535e-05
5.8113562e-07
1.6743944e-06
3.0291167e-06
4.8622651e-06
9.0265823e-06
1.0747935e-05
8.5467312e-06
5.642015e-06
4.0262688e-06
3.063905e-06
2.5317297e-06
7.0298032e-07
8.1513872e-07
9.0290987e-07
1.0225405e-06
9.854788e-07
5.9872297e-07
9.3405147e-07
1.5516929e-06
8.6720144e-07
1.1687955e-06
1.0188173e-06
1.6582677e-06
3.5981146e-06
1.4916241e-06
1.8757548e-06
2.9794183e-06
1.739922e-06
1.8088233e-06
2.0835828e-06
2.0572967e-06
1.9909871e-06
2.1265661e-06
2.0417134e-06
2.4276579e-06
2.8381242e-06
3.461031e-06
3.0277461e-06
2.7586812e-06
3.0577011e-06
2.8782231e-06
2.6500619e-06
2.802597e-06
4.259344e-06
4.0052001e-06
3.1873441e-06
2.8956649e-06
3.5163655e-06
4.0876483e-06
3.5744537e-06
3.3865363e-06
3.8696057e-06
5.0988933e-06
5.3316181e-06
5.6173789e-06
5.2379066e-06
4.725355e-06
4.3412237e-06
4.0700685e-06
4.3250114e-06
4.9176036e-06
4.8506346e-06
4.4272558e-06
4.4847375e-06
5.2461719e-06
5.3474713e-06
5.291778e-06
5.4668081e-06
5.9532391e-06
7.7018683e-06
7.5762629e-06
7.5613836e-06
8.0341345e-06
1.2532896e-05
1.334633e-05
1.1673586e-06
2.7663657e-06
4.8898962e-06
8.2913989e-06
1.0233459e-05
8.1085528e-06
4.9400199e-06
3.025136e-06
2.0553339e-06
2.0569895e-06
2.8526486e-06
7.123889e-07
7.4927602e-07
1.2892546e-06
9.4453693e-07
9.3779018e-07
6.6851676e-07
7.6104461e-07
1.1349274e-06
8.6239021e-07
1.1976378e-06
1.2068266e-06
1.4341969e-06
2.5850808e-06
1.4479277e-06
1.6012217e-06
2.5731818e-06
1.7015842e-06
1.824456e-06
1.9826083e-06
2.0793461e-06
1.9598727e-06
2.2448496e-06
2.1730391e-06
2.6519086e-06
3.990139e-06
4.2665157e-06
3.1945949e-06
2.9235869e-06
3.1934698e-06
3.1579361e-06
2.864406e-06
2.8884411e-06
3.001443e-06
3.1718734e-06
2.9166975e-06
3.0703189e-06
3.2303194e-06
3.5878649e-06
3.3865624e-06
3.401896e-06
4.4556091e-06
5.3980956e-06
5.4200782e-06
6.0256092e-06
6.1380943e-06
4.8959225e-06
4.2586664e-06
4.1367696e-06
4.7332373e-06
5.8999374e-06
5.786698e-06
5.1181649e-06
4.9741332e-06
5.7391732e-06
5.5189004e-06
5.9148498e-06
5.8987951e-06
6.9863062e-06
1.0141689e-05
8.7006879e-06
9.3911084e-06
1.0170142e-05
1.3915451e-05
1.5120125e-05
2.2473046e-06
4.3922203e-06
8.109989e-06
9.639691e-06
6.8520671e-06
4.5124022e-06
2.1485001e-06
1.4406637e-06
1.3125617e-06
1.4533437e-06
2.1384614e-06
1.0434718e-06
7.837768e-07
1.6976471e-06
9.5105263e-07
9.0762894e-07
7.1100479e-07
7.4712127e-07
1.0943054e-06
8.6956452e-07
1.2784514e-06
1.5909434e-06
1.3384714e-06
2.0367683e-06
1.4897653e-06
1.4514673e-06
1.7216793e-06
1.6128991e-06
1.8275747e-06
2.0173952e-06
2.062911e-06
2.0328063e-06
2.5585592e-06
2.3925062e-06
3.2637899e-06
4.4038125e-06
5.9411976e-06
4.0517537e-06
2.9934645e-06
3.4927957e-06
3.3052542e-06
2.950545e-06
2.9167377e-06
2.7019086e-06
2.7815668e-06
3.1856384e-06
3.4422963e-06
3.3282504e-06
3.3780864e-06
3.4804277e-06
3.5708061e-06
5.2136715e-06
5.5408639e-06
5.6657862e-06
6.1675922e-06
5.866537e-06
4.7797174e-06
4.5606971e-06
4.7219173e-06
4.9351285e-06
5.6747336e-06
6.1310398e-06
5.9449562e-06
6.1683647e-06
6.0171177e-06
5.8421929e-06
6.0521195e-06
6.4113053e-06
8.2150371e-06
9.1510197e-06
1.1222145e-05
1.2349563e-05
1.0769483e-05
1.4132073e-05
1.5236345e-05
3.8789817e-06
6.9805489e-06
1.009227e-05
7.7336324e-06
3.9151705e-06
2.0216581e-06
8.6189389e-07
8.5222656e-07
1.0109691e-06
1.1060022e-06
1.5536191e-06
1.2580362e-06
8.7329247e-07
1.6967854e-06
9.3572123e-07
7.8507666e-07
7.6113746e-07
8.2665921e-07
1.1665642e-06
9.0197987e-07
1.29649e-06
1.6970853e-06
1.3032922e-06
1.725036e-06
1.4863958e-06
1.7568926e-06
1.7714084e-06
1.781906e-06
1.8386981e-06
1.8179338e-06
1.9812069e-06
2.2013104e-06
2.8054029e-06
2.7184165e-06
3.4304848e-06
4.4499787e-06
4.6695586e-06
4.2337382e-06
2.9139482e-06
3.3266392e-06
3.2346176e-06
2.9855058e-06
2.7540747e-06
2.6944468e-06
2.703074e-06
2.874832e-06
3.7147877e-06
3.3581685e-06
3.463881e-06
3.8023103e-06
3.8451538e-06
5.745327e-06
5.620499e-06
6.0576121e-06
8.8055719e-06
6.6906511e-06
4.9909111e-06
4.8254054e-06
4.7477898e-06
5.0254686e-06
5.7393308e-06
6.8013633e-06
6.500342e-06
6.7679418e-06
6.0448387e-06
6.0162312e-06
5.8553819e-06
7.0540657e-06
1.007657e-05
9.1616524e-06
1.1424103e-05