/*--------------------------------*- C++ -*----------------------------------*\
| =========                 |                                                 |
| \\      /  F ield         | OpenFOAM: The Open Source CFD Toolbox           |
|  \\    /   O peration     | Version:  2.3.0                                 |
|   \\  /    A nd           | Web:      www.OpenFOAM.org                      |
|    \\/     M anipulation  |                                                 |
\*---------------------------------------------------------------------------*/
FoamFile
{
    version     2.0;
    format      ascii;
    class       volScalarField;
    location    "9e-06";
    object      p_rgh;
}
// * * * * * * * * * * * * * * * * * * * * * * * * * * * * * * * * * * * * * //

dimensions      [1 -1 -2 0 0 0 0];

internalField   nonuniform List<scalar> 
7500
(
8754.5349
-26680.89
-3494.1965
20601.605
-8285.8939
17428.221
8379.013
29754.932
-18857.273
12831.452
45455.336
-31900.033
61200.513
-3573.4371
-10854.27
55409.917
-23735.351
4986.3555
32565.253
5308.239
33708.022
20163.714
3663.4335
56465.326
25132.965
39386.981
2761.2639
41155.122
89518.438
42997.125
66790.743
56276.064
85133.118
-27339.807
76429.135
193006.69
-35180.381
-17667.722
143346.51
-9490.4448
-2295.6266
176181.62
-17424.599
-99656.367
57555.327
93374.075
2710.0794
32593.078
109969.37
-7974.0197
77762.287
132605.61
-45450.699
73930.699
21921.793
-161824.07
1870.6172
44707.521
-99782.81
41348.808
16595.749
45403.899
143672.41
110621.01
52370.259
199697.32
-24250.368
-274226.14
176554.59
-22587.258
-252823.54
97104.753
298651.08
144040.86
-52107.334
8012.905
-25527.855
-3231.3972
19587.404
-7512.1292
16630.446
9401.7613
28195.232
-17900.534
14403.97
42252.205
-29716.63
60811.904
-3776.275
-10761.589
54350.307
-21054.704
3058.2497
32563.099
7249.4822
31668.59
20936.5
3685.3478
55800.246
26022.122
37131.453
6178.9362
41726.267
85404.598
44899.417
67158.618
55279.311
85320.375
-25429.214
74879.714
190785.76
-33055.253
-16767.798
141080.18
-8941.1439
-543.72159
171113.46
-14040.981
-95053.317
53943.604
91553.419
8593.5187
29828.483
98301.701
-1266.5715
82399.367
129432.03
-42310.246
74306.319
18478.747
-161242.85
916.87777
44402.259
-98159.673
43920.93
24046.67
41353.57
137199.63
108723.95
47117.824
205909.03
-14692.016
-275750.1
157919.1
-22796.253
-252123.54
115951.62
307737.89
120891.8
-52714.769
6942.0742
-24096.05
-2938.4797
17716.352
-4108.9996
13629.793
10073.622
29269.077
-19987.861
17552.439
39876.671
-27771.225
58051.126
-2733.5025
-6855.8114
47279.552
-16723.885
4199.81
29704.907
9771.8307
30258.23
21224.491
5306.8982
53283.964
25397.631
37174.451
8333.7723
42887.915
81025.647
47543.04
68553.285
51157.399
84548.06
-18411.439
72350.879
184284.44
-28222.723
-13673.094
135293.3
-7920.3332
5553.1112
161473.25
-12619.566
-86440.503
49680.481
87579.408
17079.106
30732.384
83364.742
4305.5252
87006.813
123034.89
-34488.171
75924.236
10993.644
-158229.92
-166.3035
42180.112
-93600.056
42109.849
27961.405
39943.133
129064.74
102496.34
57416.677
217090.41
-18642.506
-263204.54
128094.65
-36610.289
-248146.23
141738.15
323488.86
86094.497
-51948.662
4443.9943
-22201.756
-117.0384
13516.406
-790.17051
12502.343
9564.8596
29227.818
-20947.812
20894.003
35701.599
-23771.94
55516.469
-4327.9989
-1514.4552
41125.108
-13948.123
4898.248
27669.782
12669.668
27998.092
22080.247
7811.1336
50425.431
25052.603
33392.794
14892.041
44192.423
72136.641
52396.585
71787.78
47086.914
78141.093
-4575.3864
71768.934
170634.51
-19525.88
-8440.0199
125971.71
-5247.0669
14613.704
146680.35
-15796.782
-72205.81
47658.031
78918.017
28245.073
35589.063
65890.256
10369.945
90877.017
112104.16
-24267.727
78330.13
1188.9568
-153365.05
-3949.9269
37452.901
-85994.259
39645.012
29134.256
39804.846
126962.95
97906.011
68393.014
213914.91
-26066.886
-241866.97
94790.47
-50840.67
-225038.87
184027.15
320850.32
61894.344
-44343.877
1684.9838
-20557.427
3212.5247
9731.5895
1419.8034
11909.124
10031.19
27929.007
-21287.766
24111.784
30919.859
-19238.631
52965.347
-4473.0861
901.08579
35034.222
-7765.1793
2819.0387
26039.885
16945.745
24465.552
23085.512
11661.319
46395.046
25128.848
31504.441
17449.126
47588.543
63666.837
54509.714
75353.027
43181.213
73307.01
7187.7484
72020.437
156155.96
-11405.093
-1202.75
113954.67
793.34565
25192.356
130821.26
-18467.693
-60376.616
43753.728
69478.616
39939.689
40549.61
54800.49
16619.13
92533.662
105204.55
-12758.107
76957.452
-8632.5826
-147545.99
-8096.7775
28835.908
-79245.593
36772.761
32901.825
44133.716
122693.54
93306.285
86320.588
201101.14
-37061.138
-217580.34
74043.085
-73917.595
-199765.26
171842.33
298461.49
78001.978
-30707.416
-769.33403
-18695.887
5126.1073
7498.4805
3831.1369
9676.255
11327.685
26790.152
-21653.803
27135.309
26570.279
-15193.852
49681.224
-2848.7543
3634.4267
26731.345
-1429.0107
2804.1384
22479.888
21263.298
21976.353
22837.391
16323.414
42639.245
23670.543
31854.968
22493.706
44426.353
60512.11
58277.899
73573.677
40575.624
68384.144
22688.588
68855.933
139991.62
1043.1936
1265.0181
101009.3
11959.038
33492.654
115865.9
-17879.368
-49581.778
36275.659
62738.099
52932.09
37072.833
42282.875
26497.726
96289.496
100311.06
50.135751
75573.245
-19456.112
-139469.81
-19145.642
20069.941
-70709.764
29016.39
34665.359
52506.326
119629.9
89592.268
108772.22
182864.06
-56734.496
-195396.86
54896.935
-78006.12
-166952.02
162608.3
268955.35
89710.931
-11447.222
-3074.9642
-16862.546
6883.7733
5040.8932
6240.8616
8379.8662
11237.17
26023.501
-21114.626
29088.974
23903.843
-12435.276
46032.668
-479.98608
5727.342
20714.798
1761.5356
3910.3035
21025.987
21406.362
22489.633
22620.007
19128.674
40241.713
21395.795
33407.015
27893.342
40246.915
57715.326
63414.237
70565.55
36489.57
64521.547
37138.888
68804.522
118782.85
18208.077
4688.373
80935.045
28571.281
40195.289
98047.516
-13984.324
-37820.945
30115.179
55266.223
61527.187
39803.734
33417.848
30832.147
96758.302
94310.579
20446.686
76542.167
-30712.971
-130185.52
-27366.007
2614.5871
-65536.785
23186.301
32417.98
56703.781
115270.05
88774.659
137964.56
168116.66
-68218.666
-172817.01
34028.764
-102061.74
-168923.78
187180.48
258528.45
95767.904
13069.611
-5190.2182
-15412.66
9019.0096
2840.3899
7101.7413
9109.2246
10283.61
24717.757
-19442.209
28693.603
23810.952
-10024.489
41699.061
2266.4408
6061.662
17356.761
4368.5539
3356.0159
21916.084
20112.78
21730.532
25110.885
20775.568
36801.086
19902.828
35455.958
34421.078
32790.887
57704.157
68356.542
66554.577
34105.961
59296.778
52285.088
67836.34
97989.16
34651.146
9660.9286
61990.232
42454.14
45179.416
82858.563
-11111.795
-27828.204
26436.038
50960.578
63040.83
41606.87
31767.253
38361.36
93233.247
87420.824
35253.816
75329.436
-36464.41
-122876.55
-27971.196
-3371.5932
-64763.74
4327.9664
36961.374
65111.791
106711.24
84469.464
156829.82
154608.36
-55643.449
-146394.59
9513.7058
-114715.06
-159085.51
171187.72
218060.53
119408.9
43161.832
-7048.9947
-14650.807
10885.291
2230.3395
6567.1351
9857.8237
10176.327
22712.398
-16862.37
26902.781
23391.832
-5995.1789
37700.944
4116.8442
5246.9457
15584.996
6711.4196
2307.0119
22890.763
19491.925
21035.407
25657.971
23311.217
34358.768
17292.966
38932.016
37846.652
29399.815
58159.305
69200.223
64598.205
33583.011
54515.027
64213.47
68701.385
77053.258
50478.438
10816.407
49429.762
59030.773
42545.367
69566.784
-6972.29
-20810.871
26048.083
47421.317
63648.462
41376.659
27932.353
45977.48
93446.17
88676.392
45618.952
66900.883
-40219.788
-113866.83
-35203.169
-4839.7064
-48348.29
-7282.331
10953.859
57271.865
104245.76
83639.458
167144.55
128728.09
-39396.183
-97551.149
-10080.735
-133457.67
-135352.59
175041.65
171633.74
136449.99
75427.513
-8598.2242
-13973.064
11833.646
2642.5022
6114.4324
9727.3063
10376.414
20874.229
-14345.313
25934.993
22016.846
-3682.5992
36713.617
5611.1532
2594.9984
14692.688
9288.829
1155.3706
23523.477
18670.088
21405.302
26736.551
21901.61
33567.036
17797.275
40347.014
39153.931
25512.577
66535.581
63873.649
59470.477
38301.128
51956.593
72803.134
67061.733
61465.004
62306.679
7962.0344
41535.933
76525.931
39214.376
55423.66
-4430.4402
-16936.097
29765.39
48493.521
58141.71
39556.77
33549.273
43947.724
84850.957
101976.77
65164.801
52771.268
-51169.174
-103684.22
-49855.261
-11817.762
-24281.506
-16126.338
22835.996
38861.386
78030.171
88928.781
181564.78
107255.73
-77278.083
-51288.127
1853.7788
-157554.92
-128282.44
170482.11
150183.36
164264.59
117638.63
-9906.1511
-12899.19
12102.934
2875.1763
6225.0005
9657.8002
9979.0757
19702.977
-12783.108
25390.559
22738.976
-4212.6094
35388.96
9339.8632
-493.73061
12987.983
11689.144
1056.6929
22923.583
18866.887
21820.153
27208.563
21688.75
30356.972
19657.849
43236.353
36188.411
24637.712
75273.427
59601.89
53248.243
41790.029
51395.698
83046.911
62016.975
49539.59
74350.605
-2360.5286
41563.738
92490.368
32022.138
45648.347
-5594.8386
-13112.64
28616.01
52647.039
62574.081
25668.722
37874.687
53178.864
70607.824
108137.24
89906.584
49418.072
-60289.577
-102049.77
-54838.647
-28559.27
-17779.34
-6505.1671
16414.18
60761.679
58110.752
85284.749
183307.63
93658.866
-82327.645
-31677.982
-5583.4383
-149626.3
-132432.74
82733.806
213860.34
175144.27
116487.49
-11135.359
-11600.997
12267.058
2936.8571
6047.0296
10307.868
9208.98
18866.229
-11202.598
23168.481
25350.957
-3051.9284
31040.327
12097.084
-464.08383
10938.613
12553.528
2288.8889
20978.746
19093.765
25874.538
24167.05
19313.864
32232.856
19671.126
44964.165
30118.789
27447.869
87249.441
48594.276
50165.503
48674.87
45356.217
93220.598
61297.896
37387.092
85321.253
-12632.542
41928.505
107820.59
27105.95
33939.596
-6852.5972
-7605.11
26364.897
50132.567
68320.283
26636.798
35253.225
53705.389
66825.524
104551.7
110828.65
44682.855
-61751.106
-96857.037
-56627.104
-26412.091
-15004.49
-5679.2423
11211.157
60222.155
65604.977
87068.897
177447.51
85704.994
-82457.528
-27558.68
-12730.162
-154173.52
-91740.89
109145.56
179643.81
173602.03
123459.7
-12322.977
-10380.981
12406.271
3498.6924
5196.4928
11205.501
8755.9332
17329.487
-8431.2512
20435.773
25824.379
1215.4479
27899.573
10843.273
454.84303
11597.924
11245.03
4190.113
19520.179
16585.765
33224.219
22343.004
12282.319
35920.413
22665.725
45761.193
20698.769
29369.534
103172.89
37961.369
43084.589
57651.652
42551.308
92741.12
66321.538
36515.142
78788.57
-10914.548
45515.51
104147.2
31279.103
28831.603
-9871.426
-2115.4142
23851.467
49540.589
71283.864
25928.526
34390.16
54553.265
63495.355
105746.48
109227.21
41128.083
-63804.294
-97330.515
-54836.471
-29587.718
-14739.605
-6247.7638
16751.796
62382.031
59454.356
86761.228
179260.42
85671.326
-79371.398
-27671.155
-11097.838
-158074.06
-123219.7
95760.899
166226.76
179823.96
129622.84
-13482.821
-9251.2522
12145.223
4735.2264
4275.5307
11553.819
9195.6304
14874.25
-6021.6048
20214.301
24112.37
4138.0228
27953.488
9296.5293
-1161.8057
13719.919
11226.622
3159.4882
19959.46
15199.577
37341.718
22044.06
6032.4114
39070.285
25718.89
45476.334
13748.494
30207.973
112127.17
32632.367
42983.293
56292.38
47483.692
86569.658
65143.353
44268.414
75902.176
-10096.752
48838.59
102645.08
31333.79
26918.744
-11644.52
-1508.9825
23898.739
44893.644
72408.181
27342.234
33736.409
52468.953
70398.311
106750.99
110257.34
40813.231
-67906.831
-97745.264
-56594.035
-24560.23
-12990.225
-5879.4896
9645.2988
60325.478
63009.303
89335.08
173720.29
79653.605
-82227.567
-25463.487
-22419.203
-171987.17
-73811.766
100677.26
153663.62
182985.63
132441.26
-14589.615
-8019.3717
11308.875
6153.9614
4047.9636
11036.735
10229.761
12928.671
-5828.6005
21424.062
24262.711
4468.7618
27196.87
10406.286
-3327.5516
13287.606
14735.346
1610.2959
15717.184
18973.697
42641.5
15513.159
4053.4211
39718.074
31422.202
41290.42
6481.5216
37616.861
108048.25
32819.669
45063.742
56278.957
48588.334
85311.195
63289.688
45414.847
77134.829
-10592.972
51753.325
103762.73
31783.843
28988.963
-14077.863
-3221.859
23060.762
50673.823
73019.412
25290.722
34029.476
51012.99
64165.792
105851.98
110381.92
40016.046
-73130.195
-98730.717
-60194.485
-33838.787
-13079.234
-3413.3264
8539.4143
57552.344
67029.886
91066.343
164938.92
76723.27
-81926.064
-34538.382
-34434.576
-179505.58
-94246.198
80888.343
135300.82
196613.71
143835.09
-15666.15
-6547.3039
10104.135
7191.5017
4688.558
10193.888
10752.847
12355.961
-6474.7414
20953.541
26634.524
6109.987
23301.91
11819.812
-2689.5057
9596.419
17101.978
5611.7245
7329.2483
19067.121
53176.843
8201.5766
1950.7109
39572.656
33026.102
41361.633
5085.5452
40084.234
105855.77
30866.073
48258.951
54909.052
52715.355
86263.542
62488.177
48716.907
68615.193
-9419.8403
54511.395
97304.583
31517.822
29951.381
-14433.594
-56.431871
20084.88
43243.896
70460.249
23548.057
32102.984
55338.973
72490.695
102189.87
109272.01
38225.976
-81770.291
-101828.53
-63992.913
-35419.444
-14836.823
-5230.0392
6242.8527
55225.303
69408.784
90279.877
162533.99
74174.509
-83200.05
-32823.993
-42944.203
-210262.28
-74388.344
88781.662
115274
204339.95
143963
-16709.051
-4907.0453
8962.1674
7599.882
5668.4516
9943.8671
10432.809
11775.929
-5786.472
19120.374
27988.802
10308.255
19350.389
9948.0227
430.93642
7796.0864
12608.925
11696.094
2746.7028
16352.782
56555.082
7553.7249
1842.2324
39028.487
34524.385
41518.51
4645.9301
41409.719
107530.46
29098.111
48933.501
53928.16
48901.816
83726.587
64032.658
50172.468
63242.914
-7368.4256
56240.673
87898.939
30655.088
30427.704
-21684.814
-2665.543
24570.51
42975.704
65341.011
16248.244
28481.409
48371.493
59340.222
96481.719
107021.94
31056.838
-90153.986
-111782.76
-69449.305
-39338.711
-11105.89
-7083.2809
4732.9316
51396.181
73145.658
88500.349
152822.18
64929.863
-84376.742
-33842.383
-54218.939
-231227.52
-74428.892
77180.445
81426.437
189676.5
124093.47
-17741.033
-3288.7131
8127.9924
7676.7676
6165.7975
10404.891
10601.523
9709.4457
-4388.2507
18329.144
27212.976
14411.639
18255.456
5591.5236
1381.5715
9842.2758
10420.143
13349.175
1997.064
15923.081
58466.907
7930.6011
2115.1861
39008.059
35401.282
41014.381
1769.7674
39441.145
106551.35
28879.674
46586.633
54839.61
50061.622
79083.598
62790.795
51610.787
61925.934
-4114.5569
59305.325
79817.339
29123.838
27990.876
-27756.905
-6961.3026
16155.417
45926.88
70645.229
8969.7339
23896.876
50760.583
60827.4
90922.302
106162.85
19057.029
-91499.065
-134719.41
-79430.124
-41880.481
-19299.808
-7295.0107
6182.978
50791.243
72901.867
84247.401
132095.8
46478.747
-91258.008
-36263.853
-75025.549
-248093.36
-60944.93
77593.945
40617.317
169765.83
94422.913
-18781.103
-1846.4049
7435.7417
8099.329
5906.4627
10344.148
12375.617
6890.5831
-4081.311
18764.266
25550.352
15875.447
19262.69
3934.011
2286.3078
9909.7726
9993.193
14321.77
2443.3447
16199.239
58124.42
6859.9047
2160.9049
37350.846
35436.617
41521.874
4977.293
41997.621
101916.27
27693.916
44045.797
54360.573
48905.95
74051.246
61301.776
55510.913
65260.22
-3722.0333
54482.308
73870.661
27577.133
19952.974
-37007.38
-13137.788
11223.835
55812.912
66853.562
-387.32265
21740.628
48918.588
55847.979
90023.977
106034.67
2970.6792
-110816.49
-146510.48
-109129.27
-48424.169
-23120.935
-9383.0217
6589.7033
62988.158
74120.058
89735.274
131253.09
32167.206
-107153.1
-32139.993
-110150.33
-314539.63
-90279.543
86827.705
6294.6477
98498.75
79127.412
-19787.025
-558.78765
6491.1059
9297.2
5716.382
8851.7249
14486.243
4879.3802
-4844.221
19274.16
24168.417
16979.879
19446.446
3520.6582
3170.6226
10322.919
9999.7173
13740.428
1365.545
15342.962
58707.643
4776.5712
1760.5213
36579.622
36793.102
41222.631
2728.2423
38932.456
93691.64
26458.259
41822.333
55406.432
50040.981
68480.317
61069.388
54250.822
56294.55
-5989.1944
49245.552
67695.956
23522.833
10107.547
-53665.624
-17093.98
5103.5701
55457.151
55597.883
-17312.48
17541.889
48772.489
57243.306
89670.027
101258.43
-5791.1545
-129061.46
-163587.78
-132918.77
-59833.174
-33801.966
-14822.357
1184.1167
62642.212
69752.443
110795.56
161636.39
29954.699
-127870.86
-30744.47
-132416.56
-384298.55
-177235.37
69323.705
-31586.854
38333.039
74317.728
-20669.276
745.52521
4969.3204
10853.588
6630.1266
7232.7928
14691.361
3749.5063
-5925.8727
20481.339
23655.665
18105.202
20294.364
3378.9878
2422.3316
9935.0999
10139.029
13773.115
2679.666
15539.613
55624.436
1937.0026
-171.07266
32662.409
33690.153
41596.492
4018.2575
37534.349
86605.521
24128.675
39030.988
57094.414
48818.952
65526.328
61684.813
50348.404
47195.052
-3288.3752
47283.951
59443.963
19498.231
5010.4925
-60701.478
-17238.001
1822.7183
70903.028
53578.142
-37307.221
16649.033
51944.786
59195.683
90458.068
94032.714
-19235.304
-138091.89
-178255.5
-145549.08
-74373.052
-46576.338
-22939.082
874.79267
65316.233
66207.871
125479.61
174077.58
14096.39
-141676.86
-25504.21
-154690.38
-422431.8
-275909.57
41105.05
-65523.614
-26232.967
67866.604
-21375.95
2248.5371
3017.5415
11647.541
8423.8568
7653.4653
13304.151
3212.181
-6166.9429
21925.842
23766.786
17577.249
20077.437
3276.7441
2818.6819
10374.322
10371.631
12876.408
1276.5907
14599.176
52083.346
-206.75826
-1405.9112
28298.125
26700.173
41821.98
4420.7085
35792.869
82322.824
21035.413
34884.673
58641.303
49439.555
63451.036
60362.353
43195.849
39750.911
2279.7413
53900.558
51736.685
13877.723
1408.2047
-69167.939
-18478.499
2469.2597
76130.545
54700.559
-43453.747
15638.724
54654.744
56921.412
90036.481
89904.716
-32604.789
-143488.11
-192351.55
-156953.89
-89589.074
-54495.945
-27858.904
7321.3232
62808.126
63995.503
146235.51
175421.44
-4.5497167
-154757.79
-27120.464
-175666.43
-494111.22
-355156.84
3824.1242
-76798.573
-55026.018
76704.753
-22007.484
4028.6201
1509.4854
10782.473
9534.4685
9410.1799
13841.429
3172.3439
-6139.6277
21634.826
23663.663
17570.697
20005.361
3034.6247
2073.0161
10548.301
10734.639
12090.061
975.90878
13188.364
48902.331
-2370.4085
-3324.0448
26570.915
19796.52
37309.864
4100.2847
33259.726
77667.604
17188.809
29926.794
59756.596
48735.778
62261.192
61047.048
34396.007
33668.444
3542.0183
62906.1
47632.538
7061.4004
-5581.6184
-78854.075
-16764.735
3560.0049
78142.309
57154
-63153.409
11962.103
55957.107
51340.142
84668.521
80796.143
-39054.826
-148157.59
-208220.9
-168682.26
-99901.471
-55396.117
-34288.972
16766.496
68352.118
53257.47
152396.84
185974.5
2537.8028
-162030.7
-30827.965
-194173.66
-586156.83
-412162.86
-33519.064
-61820.615
-43103.399
110934.42
-22997.181
5931.3621
1692.7855
8728.4754
9404.1956
9700.0229
14981.465
2827.677
-6798.7733
21533.907
23721.447
17060.997
19632.05
2729.2477
2007.3499
10776.411
10639.012
11298.905
1650.601
12153.364
45515.556
-4971.2274
-6382.0471
25133.732
13960.305
35235.629
3777.3332
30197.948
70436.017
12043.03
22136.607
60867.097
47059.07
59200.838
61237.73
29529.924
27763.117
466.00653
74445.424
42572.7
1200.826
-10057.621
-87717.635
-16176.919
3957.1537
72734.255
56042.912
-73442.517
7734.9521
56829.815
42765.497
77792.39
64024.939
-53371.497
-154021.39
-217677.23
-178267.97
-104732.25
-59099.118
-42942.448
-17522.864
53079.145
4279.6656
152519.34
182509.15
-1387.4263
-166833.9
-29682.569
-220056.03
-614855.15
-453777.62
-48486.78
-965.86379
-52617.541
178407.51
-25075.151
7509.8102
3979.7504
7359.2604
9670.5518
9641.3482
14831.237
2952.4047
-6732.5967
20998.829
23626.732
16325.377
19073.874
2395.3873
1346.4075
10647.786
10278.837
10751.326
1882.9157
11556.739
41447.936
-6925.2291
-8114.8256
24335.023
9517.4771
33811.607
4071.6616
28020.503
61975.733
4443.5005
11049.709
61018.778
44726.041
55660.196
61161.192
26790.187
23748.855
657.13103
90472.333
38641.252
-6409.7382
-14393.438
-92623.794
-15861.642
1043.5272
57457.949
50156.876
-77019.806
3489.1751
51747.722
32326.534
66141.15
47494.127
-68854.409
-165345.36
-223378.84
-181463.84
-104498.31
-71251.2
-44505.94
-19217.226
-17278.693
-36195.083
1172.2373
187360.67
-3543.797
-167001.39
-25112.665
-240116.45
-626031.98
-452968.02
-21416.298
106248.84
-338471.99
-54458.532
-28026.717
7964.5765
6321.683
7227.2556
9805.9471
9445.5495
14765.615
3003.1811
-6759.2068
20867.153
23531.986
15702.185
18377.662
1951.1098
720.35136
10631.106
10093.689
10343.322
2308.8322
11089.831
37862.504
-8650.8886
-8132.7248
24128.92
7596.236
32940.406
5497.7884
26739.427
54407.735
-4605.6936
-2574.4612
62881.494
42006.708
52121.006
62205.548
26975.881
12847.419
6948.199
100965.6
33786.091
-11171.798
-17247.572
-97470.432
-15335.76
-2253.2206
62059.376
45070.759
-78293.51
2409.4387
42843.485
23153.147
55274.767
36379.429
-75020.909
-166538.21
-218539.95
-179703.77
-104798.49
-75830.969
-39919.312
-18759.94
-41904.308
-32227.548
-4420.4706
210816.4
645.04881
-162743.76
-18933.223
-224494.61
-617499.44
-421014.11
-2285.6483
210014.03
-201550.91
-55634.794
-28359.012
6046.801
6496.5986
7462.0363
9848.4917
9421.497
14652.087
3057.7859
-6720.3842
20908.188
23423.554
14961.732
17689.113
1617.9371
307.79823
10599.109
10010.306
9862.427
2653.3587
10660.459
35557.257
-10185.963
-7749.349
23451.048
6810.1585
33205.45
7461.2743
27203.579
48691.29
-11825.83
-15006.045
63445.483
35426.675
46133.942
63820.124
28656.481
11260.797
15157.078
108299.81
25802.521
-14392.052
-18073.267
-106788.74
-18240.797
-4017.5183
81978.93
39591.002
-81240.311
5274.8493
44684.065
24635.693
53401.835
32100.506
-84704.945
-156556.94
-192535.86
-162181.5
-101762.54
-80875.108
-46703.575
-24677.591
-40171.004
-49408.142
48926.768
206665.77
5481.7871
-158334.3
-17261.542
-204499.35
-550817.27
-351011.3
27967.65
169656.09
14545.994
-17321.445
-19542.209
2414.0234
6180.4374
7579.4276
9883.5043
9496.652
14553.037
3107.5386
-7010.6523
20626.051
23091.648
13965.915
17206.465
1599.006
642.91647
10654.677
10149.483
9358.7091
2966.1203
9968.6691
33985.137
-11051.137
-7010.2616
22007.697
6469.9276
33476.26
8924.0482
28839.486
44349.95
-18370.672
-24471.676
61030.741
18415.32
30460.693
63916.262
30422.376
12662.147
26534.355
111259.33
19488.375
-17623.177
-22815.11
-114004.91
-19218.77
-6822.8482
71102.319
51156.133
-77265.062
7345.7308
35803.441
18940.35
47965.454
25229.07
-94424.255
-155316.32
-173515.67
-140647.22
-100661.6
-85751.199
-62860.685
-27628.548
-45847.426
-49329.844
79269.329
221457.8
1555.1953
-149455.73
-22689.529
-210111.41
-429928.13
-294435.79
18232.172
28998.222
97949.137
-7596.2279
-1041.3825
962.65584
6185.0962
7433.5709
9948.1065
9565.9904
14459.543
3157.7036
-7586.8531
19828.845
22444.62
12632.956
16815.386
1798.5005
1440.1171
10604.002
10187.279
8886.8558
3022.8114
9060.6788
33029.954
-11662.203
-5044.3412
19806.256
7162.6163
33643.654
10896.192
31666.159
40627.74
-27632.645
-32010.865
73669.128
20233.732
12803.908
59526.142
28815.157
13855.66
40900.89
110289.15
14447.291
-16929.982
-28121.609
-119338.6
-18553.134
-10946.756
73815.754
73043.144
-75197.98
11587.853
40462.99
8484.4238
33710.988
2624.1029
-87867.808
-147000.2
-157675.44
-132507.82
-102946.24
-93770.791
-61441.627
-15470.746
-48364.844
-49633.944
87268.436
226731.89
446.90703
-138898
-38246.759
-187581.47
-356571.91
-238435.11
-144270.02
35921.476
154460.84
18255.512
5111.6743
2361.0485
6197.9865
7473.2967
9874.5259
9593.1784
14320.506
3201.8463
-8214.91
18658.457
21640.998
11023.922
16361.541
2188.176
2411.7391
10529.389
10328.595
8461.7392
2947.6375
8854.5135
32106.922
-12292.811
-2602.8262
17718.862
8328.5363
34094.051
12470.185
34836.971
38177.026
-36820.945
-33800.585
75156.132
23773.119
6976.6276
53488.143
24259.958
13854.905
50538.288
108107.88
8376.5593
-16782.925
-35732.862
-126125.81
-17209.634
-11956.888
69761.905
88308.754
-72341.339
20625.218
47936.943
-4662.1067
19774.566
-24062.741
-76323.617
-133623.05
-150102.6
-121034.74
-110277.77
-109170.31
-63577.592
-1783.5669
-34473.531
-39844.058
77822.302
185877.11
116.90071
-127251.98
-50807.306
-131673.7
-251269.82
-175393.25
-58804.343
38492.363
168259.1
21496.803
-3573.2326
3247.2432
6259.9135
7563.1818
9829.3415
9610.7104
14209.733
3119.5591
-8494.2034
17435.751
20803.313
9729.8333
15916.326
2806.362
3355.8584
10420.904
10571.753
8378.6857
3422.0535
9049.8012
30909.68
-13075.716
-536.23563
15463.982
9562.2946
35103.556
13625.2
36204.177
36213.062
-43303.859
-34239.837
76049.092
24441.902
3797.073
42476.003
20901.881
15351.737
52808.652
103651.66
5082.1365
-14979.685
-39910.292
-138357.28
-12413.293
-13932.358
56403.041
89256.417
-75215.953
28173.541
50715.545
-7797.5014
27418.668
-31969.989
-82684.31
-133614.27
-150969.27
-130414.58
-128089.68
-119066.96
-62868.131
-3366.5567
-24164.22
-28230.909
73853.202
168981.71
-2267.1392
-113579.51
-39503.994
-88646.21
-220183.67
-136518.48
-110343.57
33150.998
170320.09
22287.67
-3393.5258
2979.7805
6261.4345
7590.7678
9747.5594
9582.911
14086.739
3006.2522
-8303.1003
16291.716
19925.81
8764.1998
15518.55
3681.1408
4092.082
10319.381
10584.577
8529.5732
3627.4448
9764.0729
29236.563
-13923.307
1532.7709
13712.046
10850.81
35181.66
13461.128
36577.238
34253.556
-46991.177
-34863.529
78297.311
22765.8
1767.2528
37405.438
19340.647
18323.491
55060.723
97674.628
561.37214
-14557.404
-42478.269
-147239.04
-18798.802
-17024.277
48878.315
66573.71
-86480.797
33630.419
51507.356
-7666.1401
48335.409
-19030.137
-101565.64
-122494.7
-135845.1
-142572.43
-135472.29
-127969.68
-70673.176
-4748.0056
-17314.451
-14751.757
74371.069
147284.12
-3279.1964
-98992.511
-26102.148
-67128.624
-227553.29
-150656.7
-78471.871
42988.4
163066.35
16679.555
-2943.0459
3254.9694
6254.3846
7567.2311
9623.3951
9531.2892
13936.753
2816.6406
-7823.9516
15154.474
18987.593
7978.3426
15127.234
4578.6447
4516.9113
10178.858
10096.027
8497.2887
3957.6777
10486.408
27189.105
-15275.212
3425.4568
12314.74
12707.672
34816.342
13273.007
36836.653
32271.703
-44790.257
-31523.538
74758.019
19922.734
-731.80468
33974.789
20562.134
22785.883
53099.959
90512.097
-4296.0182
-14200.608
-52660.008
-146691.38
-16613.299
-18074.469
45416.697
1457.6285
-93207.737
21303.337
49446.19
-1049.9794
66955.397
-1904.3722
-117193.43
-107398.71
-116351.95
-145464.47
-139517.29
-135655.41
-84837.093
-8236.1225
-6058.4963
-5556.7594
72617.853
124585.34
-2537.4096
-85490.739
-21901.847
-78968.586
-201901.23
-138722.06
-71098.658
298.0849
149790.09
15175.98
-2347.054
3408.5499
6248.9871
7523.1694
9476.7293
9476.0741
13754.743
2535.1351
-7337.5689
13923.112
18008.604
7299.9928
14777.522
5115.3795
4692.0338
9880.7458
9264.4496
8410.2274
4582.7131
11063.029
25221.014
-16369.352
5183.8756
11834.258
15503.689
34676.934
12804.44
37758.897
28824.328
-35875.008
-25950.061
70467.663
13663.45
-7497.2923
32421.378
23273.499
27684.21
51975.183
82958.629
-7722.6968
-12734.237
-60863.592
-135584.35
-8924.4455
-26917.246
51499.374
5222.6615
-75011.743
3913.3214
47540.124
-665.03748
72199.15
4445.3413
-128305.27
-106900.55
-111355.6
-140880.11
-149071.09
-143421.45
-95456.089
-3391.4064
-11906.422
1580.4794
69717.215
107924.06
-1138.8108
-79459.942
-23664.441
-88003.836
-196408.81
-137739.86
-77340.081
6324.9216
138902.02
15964.646
-1784.0435
3648.0289
6249.8653
7480.8424
9331.7498
9425.5829
13538.826
2160.6071
-7134.3429
12498.679
17164.483
6769.0477
14436.492
5363.1065
4791.2657
9399.4129
8503.6599
8309.1439
5388.7604
11646.817
23347.601
-17051.791
6641.626
12672.609
17816.473
34335.101
12738.477
38604.549
26749.486
-24964.678
-18228.307
44148.976
10988.163
-14854.568
32297.839
26597.422
31411.095
49638.023
75435.439
-10852.507
-10251.015
-65977.661
-125617.42
-6559.3608
-30026.916
48832.721
23989.959
-55043.491
4201.2546
38533.103
-434.91775
72459.581
-2598.3436
-132226.84
-119955.63
-118322.9
-141539.78
-165194.33
-158911.4
-122352.7
-12620.661
11861.199
10766.282
62607.567
84665.4
-3491.1658
-66982.659
-23497.829
-91357.259
-178392.69
-131754.45
-69197.994
10816.272
114532.26
22792.592
-1215.0542
3754.5368
6259.623
7462.2527
9208.3729
9379.223
13298.266
1710.3447
-7729.8395
10876.117
16535.25
6353.0614
14067.967
5583.6434
4861.0594
8850.5205
7911.8803
7999.5989
6036.1355
11686.195
21804.67
-17053.059
7925.5904
13239.357
17465.847
33778.646
12895.129
38663.231
28152.357
-13492.988
-8251.8816
31963.094
9737.4829
-17644.426
31664.1
26621.765
34313.656
47490.786
67686.043
-12517.314
-8121.4694
-69665.697
-118643.79
-6801.0221
-30492.803
29390.325
40974.473
-38790.956
12514.726
30432.799
-545.66388
67379.383
-15176.059
-135446.06
-143559.85
-119523.98
-142574.75
-186008.55
-186111.62
-151249.72
-26348.34
17149.189
17469.101
56106.359
69607.31
-8141.0354
-59669.866
-23304.867
-83702.59
-153299.37
-111307.29
-60625.077
15206.067
103741.46
16592.161
-718.76763
4014.2259
6265.7369
7462.8228
9103.6384
9331.4822
13032.213
1195.2336
-8771.4759
9112.019
16065.458
6034.687
13703.358
5717.6307
4706.4456
8288.4976
7507.7964
7474.2876
6568.9654
11595.068
20557.931
-15458.473
10368.746
13563.363
14497.455
32801.736
13482.515
38709.162
29460.136
-6570.8283
2398.5512
34410.139
8573.0563
-17844.968
29327.286
26684.832
37060.455
45667.336
52517.467
-13405.16
-6816.7612
-71727.567
-107490.73
-4010.104
-32481.285
29645.866
48518.078
-32433.545
16783.953
22118.651
-2031.4927
59863.221
-31785.868
-142454.77
-147060.07
-120267.57
-143139.62
-201485.36
-209154.78
-180237.57
-40557.301
18657.205
22404.043
48672.532
52352.999
-14742.205
-53605.721
-23006.103
-75747.78
-125448.39
-90754.394
-52249.707
13013.158
79029.827
12485.322
-212.52451
4057.9824
6292.7922
7486.3757
9007.607
9274.7494
12739.652
629.65989
-9685.5796
7313.0069
15493.43
5851.0352
13393.47
5767.0541
4296.5682
7568.8006
7147.754
7159.0154
7131.0194
11521.794
19557.912
-13722.729
11997.718
15520.042
10249.31
31194.854
13814.343
38059.75
31362.897
-6893.045
13585.387
36666.737
7490.1142
-14689.197
26995.011
27286.329
39517.204
44185.683
30440.821
-14699.805
-6668.04
-76015.102
-99370.619
-8214.5458
-39394.784
36967.68
58696.589
-32781.316
22360.03
21644.706
-2684.048
54807.149
-40735.176
-145166.76
-174162.13
-125070.84
-145717.15
-215369.8
-218866.91
-178341.29
-65511.909
14025.392
23611.488
39422.844
33381.886
-22350.053
-49440.399
-21793.142
-65746.166
-102193.1
-73026.687
-44906.789
15371.745
66321.943
10139.402
263.23454
4391.1249
6319.1363
7527.4286
8900.262
9214.6489
12417.671
0.87958639
-10208.467
5590.7427