/*--------------------------------*- C++ -*----------------------------------*\
| =========                 |                                                 |
| \\      /  F ield         | OpenFOAM: The Open Source CFD Toolbox           |
|  \\    /   O peration     | Version:  2.3.0                                 |
|   \\  /    A nd           | Web:      www.OpenFOAM.org                      |
|    \\/     M anipulation  |                                                 |
\*---------------------------------------------------------------------------*/
FoamFile
{
    version     2.0;
    format      ascii;
    class       surfaceScalarField;
    location    "9e-06";
    object      phi;
}
// * * * * * * * * * * * * * * * * * * * * * * * * * * * * * * * * * * * * * //

dimensions      [0 3 -1 0 0 0 0];

internalField   nonuniform List<scalar> 
14825
(
1.0348163e-09
-2.1054955e-11
1.0545295e-09
-1.9713159e-11
1.0753377e-09
-2.080825e-11
1.0956028e-09
-2.0265027e-11
1.1155452e-09
-1.9942445e-11
1.1366549e-09
-2.1109665e-11
1.155218e-09
-1.8563141e-11
1.1774561e-09
-2.2238114e-11
1.1953872e-09
-1.7931104e-11
1.2165734e-09
-2.1186149e-11
1.2363137e-09
-1.9740358e-11
1.2545722e-09
-1.8258505e-11
1.2758891e-09
-2.1316825e-11
1.2922873e-09
-1.6398227e-11
1.3141456e-09
-2.1858294e-11
1.3316926e-09
-1.754703e-11
1.3505387e-09
-1.8846099e-11
1.3711741e-09
-2.0635425e-11
1.3871811e-09
-1.600698e-11
1.4062104e-09
-1.902929e-11
1.425324e-09
-1.9113631e-11
1.4418275e-09
-1.6503476e-11
1.4602993e-09
-1.8471754e-11
1.4785504e-09
-1.8251119e-11
1.4938681e-09
-1.5317751e-11
1.5132401e-09
-1.9371996e-11
1.5278019e-09
-1.4561749e-11
1.5471188e-09
-1.931692e-11
1.5621019e-09
-1.4983046e-11
1.5783189e-09
-1.6217049e-11
1.5948221e-09
-1.6503223e-11
1.6108441e-09
-1.6022006e-11
1.6266171e-09
-1.5772964e-11
1.6385265e-09
-1.1909414e-11
1.6587252e-09
-2.0198668e-11
1.6707125e-09
-1.1987293e-11
1.6840831e-09
-1.3370608e-11
1.6995817e-09
-1.5498572e-11
1.7146976e-09
-1.5115912e-11
1.7250216e-09
-1.0324031e-11
1.7405547e-09
-1.5533141e-11
1.7550975e-09
-1.4542731e-11
1.7621773e-09
-7.0798182e-12
1.7778573e-09
-1.5680059e-11
1.7911123e-09
-1.3254962e-11
1.8025591e-09
-1.1446754e-11
1.8124124e-09
-9.8533308e-12
1.8291335e-09
-1.6721087e-11
1.8376727e-09
-8.5392338e-12
1.8416705e-09
-3.9977596e-12
1.8569472e-09
-1.5276683e-11
1.8640901e-09
-7.1429001e-12
1.8733238e-09
-9.2337305e-12
1.8867092e-09
-1.3385393e-11
1.8964167e-09
-9.7075e-12
1.9017497e-09
-5.3329886e-12
1.9131309e-09
-1.1381224e-11
1.9199363e-09
-6.8053736e-12
1.9263439e-09
-6.4076214e-12
1.9383756e-09
-1.203169e-11
1.9376403e-09
7.3524978e-13
1.9586174e-09
-2.0977041e-11
1.9576919e-09
9.254353e-13
1.9669738e-09
-9.2818667e-12
1.965788e-09
1.1858495e-12
1.9712991e-09
-5.5111572e-12
1.9791532e-09
-7.8540775e-12
1.9919539e-09
-1.2800682e-11
2.0026603e-09
-1.070642e-11
1.997367e-09
5.2933308e-12
1.9963529e-09
1.0141027e-12
1.9779193e-09
1.8433575e-11
2.0094007e-09
-3.1481429e-11
2.0171712e-09
-7.7704526e-12
1.7881577e-12
2.8638121e-09
-8.2901172e-11
2.9219025e-09
-7.7803542e-11
2.9827331e-09
-8.1638858e-11
3.0429501e-09
-8.0481959e-11
3.1015661e-09
-7.855845e-11
3.1637056e-09
-8.3249165e-11
3.2196323e-09
-7.4489838e-11
3.2846143e-09
-8.7220104e-11
3.3392625e-09
-7.2579338e-11
3.4015416e-09
-8.3465222e-11
3.4603997e-09
-7.8598484e-11
3.5162501e-09
-7.4108926e-11
3.5788742e-09
-8.3940888e-11
3.6294518e-09
-6.6975854e-11
3.6944276e-09
-8.6834065e-11
3.7478776e-09
-7.0997019e-11
3.8052654e-09
-7.6233883e-11
3.8667965e-09
-8.2166598e-11
3.9168089e-09
-6.6019404e-11
3.9742005e-09
-7.6420864e-11
4.0324709e-09
-7.7383977e-11
4.0836832e-09
-6.771581e-11
4.1395774e-09
-7.4365922e-11
4.1963972e-09
-7.5070935e-11
4.2435392e-09
-6.2459717e-11
4.3025077e-09
-7.8340512e-11
4.350126e-09
-6.2180088e-11
4.408299e-09
-7.7489868e-11
4.4550941e-09
-6.1778148e-11
4.5069178e-09
-6.8040797e-11
4.5588807e-09
-6.8466109e-11
4.6087255e-09
-6.5866829e-11
4.6589643e-09
-6.601174e-11
4.6984819e-09
-5.1427054e-11
4.7611272e-09
-8.2843937e-11
4.7998518e-09
-5.0711885e-11
4.8444937e-09
-5.8012473e-11
4.8946837e-09
-6.5688643e-11
4.9422854e-09
-6.2717579e-11
4.9780555e-09
-4.6094125e-11
5.0320927e-09
-6.9570345e-11
5.0795734e-09
-6.2023432e-11
5.1093962e-09
-3.6902603e-11
5.1558691e-09
-6.2152997e-11
5.1994572e-09
-5.6843028e-11
5.2370064e-09
-4.899595e-11
5.2727266e-09
-4.5573532e-11
5.3209124e-09
-6.4906864e-11
5.3591524e-09
-4.6779299e-11
5.3872646e-09
-3.2109934e-11
5.4339674e-09
-6.1979476e-11
5.4597363e-09
-3.2911764e-11
5.4953368e-09
-4.4834248e-11
5.5393215e-09
-5.7370088e-11
5.5755078e-09
-4.5893805e-11
5.6001727e-09
-2.9997905e-11
5.6363589e-09
-4.7567432e-11
5.6652075e-09
-3.565394e-11
5.6929901e-09
-3.4190258e-11
5.7388857e-09
-5.7927292e-11
5.7254929e-09
1.4128064e-11
5.7802089e-09
-7.569306e-11
5.7877712e-09
-6.636897e-12
5.818309e-09
-3.9819607e-11
5.8239362e-09
-4.4414143e-12
5.8685337e-09
-5.0108628e-11
5.8781826e-09
-1.7502981e-11
5.9252364e-09
-5.985449e-11
5.9593728e-09
-4.4842762e-11
5.9470762e-09
1.7589873e-11
5.9602165e-09
-1.2126174e-11
5.9453165e-09
3.3333598e-11
6.0126829e-09
-9.8847818e-11
6.0316745e-09
-2.6762087e-11
-7.0836337e-12
4.3690204e-09
-1.8381203e-10
4.463655e-09
-1.7243817e-10
4.5620895e-09
-1.8007334e-10
4.6608088e-09
-1.7920132e-10
4.7570418e-09
-1.7479138e-10
4.8580478e-09
-1.8425523e-10
4.951526e-09
-1.6796803e-10
5.0567192e-09
-1.9241329e-10
5.1488574e-09
-1.6471756e-10
5.2505011e-09
-1.8510893e-10
5.3472085e-09
-1.7530584e-10
5.4414583e-09
-1.6835871e-10
5.5426693e-09
-1.8515191e-10
5.6307419e-09
-1.5504844e-10
5.7379831e-09
-1.9407524e-10
5.8268924e-09
-1.5990634e-10
5.9241998e-09
-1.7354128e-10
6.0240055e-09
-1.819723e-10
6.1106527e-09
-1.5266666e-10
6.207105e-09
-1.728731e-10
6.3063933e-09
-1.7667227e-10
6.3954236e-09
-1.5674617e-10
6.4907791e-09
-1.6972134e-10
6.5869034e-09
-1.7119529e-10
6.6673892e-09
-1.4294549e-10
6.7669528e-09
-1.7790414e-10
6.8505543e-09
-1.4578154e-10
6.9494902e-09
-1.7642584e-10
7.0308312e-09
-1.4311912e-10
7.1232844e-09
-1.6049398e-10
7.2126064e-09
-1.5778812e-10
7.3005319e-09
-1.5379229e-10
7.3876402e-09
-1.5312009e-10
7.4585348e-09
-1.2232167e-10
7.5658488e-09
-1.9015787e-10
7.6374688e-09
-1.2233187e-10
7.7152481e-09
-1.3579184e-10
7.8068808e-09
-1.5732127e-10
7.8906007e-09
-1.4643752e-10
7.9575864e-09
-1.1307986e-10
8.0514151e-09
-1.6339901e-10
8.1288997e-09
-1.3950809e-10
8.1879896e-09
-9.5992494e-11
8.2691309e-09
-1.4329425e-10
8.354214e-09
-1.4192612e-10
8.4301828e-09
-1.2496476e-10
8.5020919e-09
-1.1748265e-10
8.5804455e-09
-1.432604e-10
8.6484135e-09
-1.147473e-10
8.7127107e-09
-9.6407221e-11
8.7957228e-09
-1.4499155e-10
8.8453637e-09
-8.2552659e-11
8.9161471e-09
-1.1561767e-10
8.9928883e-09
-1.3411131e-10
9.0653428e-09
-1.1834831e-10
9.1187578e-09
-8.3412832e-11
9.1856149e-09
-1.1442458e-10
9.2440008e-09
-9.4039761e-11
9.3001137e-09
-9.0303203e-11
9.3897242e-09
-1.4753784e-10
9.3774103e-09
2.6442025e-11
9.4754939e-09
-1.7377671e-10
9.5085468e-09
-3.9689741e-11
9.5748506e-09
-1.0612343e-10
9.6031479e-09
-3.2738752e-11
9.6882045e-09
-1.3516523e-10
9.6969797e-09
-2.6278179e-11
9.7808593e-09
-1.437341e-10
9.8393336e-09
-1.0331698e-10
9.8634708e-09
-6.5473796e-12
9.8990121e-09
-4.7667407e-11
9.9383125e-09
-5.9668283e-12
9.9902447e-09
-1.5078007e-10
1.0026139e-08
-6.2656342e-11
-4.4390999e-11
5.5938199e-09
-3.2116126e-10
5.7238836e-09
-3.0250178e-10
5.8584631e-09
-3.1465283e-10
5.9917649e-09
-3.1250315e-10
6.1275467e-09
-3.1057315e-10
6.2642895e-09
-3.209981e-10
6.3940576e-09
-2.9773607e-10
6.538816e-09
-3.3717168e-10
6.6659872e-09
-2.9188876e-10
6.807674e-09
-3.2679577e-10
6.9411424e-09
-3.0877421e-10
7.0738726e-09
-3.0108897e-10
7.2137505e-09
-3.2502982e-10
7.3389428e-09
-2.8024069e-10
7.48438e-09
-3.395125e-10
7.6102179e-09
-2.8574419e-10
7.7509111e-09
-3.1423451e-10
7.8900415e-09
-3.2110269e-10
8.0156538e-09
-2.7827897e-10
8.1480195e-09
-3.0523881e-10
8.285484e-09
-3.1413678e-10
8.4169492e-09
-2.882113e-10
8.552479e-09
-3.0525122e-10
8.6897195e-09
-3.0843574e-10
8.8062585e-09
-2.5948446e-10
8.9470012e-09
-3.1864683e-10
9.0744338e-09
-2.7321414e-10
9.2103272e-09
-3.123193e-10
9.3285521e-09
-2.6134399e-10
9.4670194e-09
-2.9896127e-10
9.5923466e-09
-2.8311536e-10
9.7200349e-09
-2.8148058e-10
9.8474565e-09
-2.805417e-10
9.9527928e-09
-2.2765795e-10
1.0100584e-08
-3.3794939e-10
1.0214391e-08
-2.3613889e-10
1.0330048e-08
-2.5144854e-10
1.0463649e-08
-2.9092261e-10
1.0583626e-08
-2.6641432e-10
1.069346e-08
-2.2291404e-10
1.0833555e-08
-3.0349324e-10
1.0948804e-08
-2.5475743e-10
1.1055039e-08
-2.0222725e-10
1.1173912e-08
-2.6216722e-10
1.1281064e-08
-2.4907881e-10
1.1376845e-08
-2.2074548e-10
1.1503732e-08
-2.4437004e-10
1.1632206e-08
-2.7173396e-10
1.1733357e-08
-2.1589807e-10
1.1834884e-08
-1.9793475e-10
1.1954685e-08
-2.6479256e-10
1.2044212e-08
-1.7207911e-10
1.2159294e-08
-2.3070007e-10
1.2274183e-08
-2.4900035e-10
1.2383186e-08
-2.2735138e-10
1.2477023e-08
-1.7724992e-10
1.2583808e-08
-2.2120929e-10
1.2672368e-08
-1.8259995e-10
1.2764188e-08
-1.8212252e-10
1.2912764e-08
-2.9611386e-10
1.2913818e-08
2.5387249e-11
1.3049399e-08
-3.0935772e-10
1.3111632e-08
-1.0192185e-10
1.3222018e-08
-2.1650949e-10
1.3275625e-08
-8.6345993e-11
1.3410654e-08
-2.7019449e-10
1.3451077e-08
-6.6700697e-11
1.3592027e-08
-2.8468494e-10
1.3661688e-08
-1.7297728e-10
1.3730829e-08
-7.5688892e-11
1.3781322e-08
-9.8159759e-11
1.3868267e-08
-9.2912407e-11
1.3913569e-08
-1.9608163e-10
1.4009232e-08
-1.5831936e-10
-1.2126278e-10
6.5763209e-09
-4.9171082e-10
6.7416469e-09
-4.6782779e-10
6.9104369e-09
-4.8344283e-10
7.0744015e-09
-4.7646776e-10
7.2513864e-09
-4.8755805e-10
7.4174103e-09
-4.8702199e-10
7.5879798e-09
-4.6830558e-10
7.7675375e-09
-5.1672944e-10
7.9283169e-09
-4.5266812e-10
8.113075e-09
-5.1155388e-10
8.2767709e-09
-4.7247006e-10
8.4514523e-09
-4.7577043e-10
8.6271541e-09
-5.0073163e-10
8.7904505e-09
-4.4353701e-10
8.9783985e-09
-5.2746056e-10
9.1371954e-09
-4.4454107e-10
9.3187354e-09
-4.9577451e-10
9.4937174e-09
-4.9608467e-10
9.6592733e-09
-4.4383491e-10
9.8340699e-09
-4.8003539e-10
1.0015908e-08
-4.9597466e-10
1.0179756e-08
-4.5205959e-10
1.0349738e-08
-4.7523279e-10
1.0535857e-08
-4.9455481e-10
1.0692028e-08
-4.1565542e-10
1.0871738e-08
-4.983569e-10
1.1045097e-08
-4.4657321e-10
1.1221012e-08
-4.8823456e-10
1.137678e-08
-4.1711148e-10
1.1565383e-08
-4.8756459e-10
1.1731451e-08
-4.4918342e-10
1.1896674e-08
-4.4670394e-10
1.2067054e-08
-4.5092126e-10
1.2220252e-08
-3.8085587e-10
1.2405127e-08
-5.2282494e-10
1.2554089e-08
-3.851008e-10
1.27116e-08
-4.0895915e-10
1.2891093e-08
-4.7041528e-10
1.3034658e-08
-4.0997944e-10
1.3194479e-08
-3.8273585e-10
1.3395988e-08
-5.0500169e-10
1.3546371e-08
-4.0514093e-10
1.369614e-08
-3.5199599e-10
1.3872781e-08
-4.3880829e-10
1.4031361e-08
-4.0765893e-10
1.4171794e-08
-3.6117827e-10
1.4344851e-08
-4.174266e-10
1.4473762e-08
-4.0064545e-10
1.4602684e-08
-3.4481993e-10
1.4752145e-08
-3.4739602e-10
1.4942106e-08
-4.5475357e-10
1.5087367e-08
-3.1733952e-10
1.522747e-08
-3.7080345e-10
1.538423e-08
-4.0576007e-10
1.5564284e-08
-4.0740593e-10
1.5697267e-08
-3.1023278e-10
1.583078e-08
-3.5472171e-10
1.5975348e-08
-3.2716811e-10
1.6113039e-08
-3.1981343e-10
1.6302025e-08
-4.8510047e-10
1.6345244e-08
-1.7831493e-11
1.6533255e-08
-4.9736858e-10
1.6606734e-08
-1.7540053e-10
1.6766879e-08
-3.7665534e-10
1.6896877e-08
-2.1634377e-10
1.7046611e-08
-4.1992852e-10
1.709733e-08
-1.1741987e-10
1.7284491e-08
-4.7184559e-10
1.7410254e-08
-2.9873999e-10
1.7528185e-08
-1.936201e-10
1.7648516e-08
-2.1849036e-10
1.7757189e-08
-2.0158558e-10
1.7907829e-08
-3.4672228e-10
1.8002638e-08
-2.5312789e-10
-2.2451634e-10
7.3502044e-09
-6.9206864e-10
7.5507749e-09
-6.6839826e-10
7.7505319e-09
-6.8319983e-10
7.9455742e-09
-6.7151008e-10
8.1609673e-09
-7.0295116e-10
8.3544241e-09
-6.804788e-10
8.5668905e-09
-6.8077201e-10
8.7721575e-09
-7.2199641e-10
8.975924e-09
-6.564346e-10
9.1917129e-09
-7.273428e-10
9.3909072e-09
-6.7166438e-10
9.6123356e-09
-6.9719883e-10
9.8104813e-09
-6.9887727e-10
1.0024911e-08
-6.579664e-10
1.0243634e-08
-7.4618344e-10
1.0433932e-08
-6.348398e-10
1.0662704e-08
-7.2454658e-10
1.0869978e-08
-7.033579e-10
1.108084e-08
-6.5469767e-10
1.1296544e-08
-6.9573942e-10
1.15094e-08
-7.0883022e-10
1.1723544e-08
-6.662038e-10
1.1934386e-08
-6.8607495e-10
1.2150271e-08
-7.1043998e-10
1.2354192e-08
-6.1957575e-10
1.2576657e-08
-7.2082197e-10
1.2791159e-08
-6.6107571e-10
1.3006135e-08
-7.0321071e-10
1.321165e-08
-6.2262602e-10
1.3444117e-08
-7.2003186e-10
1.3651087e-08
-6.5615303e-10
1.3865825e-08
-6.6144233e-10
1.4072251e-08
-6.57347e-10
1.427281e-08
-5.814149e-10
1.4508037e-08
-7.5805189e-10
1.4697897e-08
-5.7496069e-10
1.4896755e-08
-6.0781674e-10
1.5138949e-08
-7.1261001e-10
1.5319098e-08
-5.9012846e-10
1.5511969e-08
-5.7560655e-10
1.5753284e-08
-7.4631714e-10
1.5948316e-08
-6.0017235e-10
1.6128374e-08
-5.3205407e-10
1.6350011e-08
-6.6044494e-10
1.6572507e-08
-6.3015585e-10
1.6773611e-08
-5.6228193e-10
1.6993251e-08
-6.3706608e-10
1.7192839e-08
-6.0023346e-10
1.7394072e-08
-5.4605329e-10
1.7549022e-08
-5.0234594e-10
1.7748616e-08
-6.543477e-10
1.792938e-08
-4.9810366e-10
1.8162526e-08
-6.0394914e-10
1.8370233e-08
-6.134676e-10
1.8581188e-08
-6.1836087e-10
1.8786724e-08
-5.1576879e-10
1.8984051e-08
-5.5204785e-10
1.9145629e-08
-4.8874616e-10
1.934703e-08
-5.2121516e-10
1.9627263e-08
-7.6533306e-10
1.9647807e-08
-3.8375612e-11
1.9907456e-08
-7.5701796e-10
2.0037953e-08
-3.0589702e-10
2.0194061e-08
-5.3276344e-10
2.0383115e-08
-4.0539811e-10
2.0667758e-08
-7.0457103e-10
2.0752277e-08
-2.0193858e-10
2.096961e-08
-6.8917885e-10
2.115214e-08
-4.8127001e-10
2.1279918e-08
-3.2139841e-10
2.1341957e-08
-2.8052957e-10
2.1542244e-08
-4.0187175e-10
2.1889372e-08
-6.9385121e-10
2.2000851e-08
-3.6460596e-10
-3.4995414e-10
7.9445344e-09
-9.1836654e-10
8.1787397e-09
-9.0260349e-10
8.4095058e-09
-9.1396601e-10
8.6354953e-09
-8.9749955e-10
8.8822732e-09
-9.4972908e-10
9.1092583e-09
-9.0746387e-10
9.353664e-09
-9.2517774e-10
9.5895739e-09
-9.5790629e-10
9.8333467e-09
-9.0020739e-10
1.0073655e-08
-9.6765155e-10
1.0324939e-08
-9.2294793e-10
1.0571388e-08
-9.4364745e-10
1.0810842e-08
-9.3833183e-10
1.1060913e-08
-9.0803762e-10
1.1308295e-08
-9.9356464e-10
1.154412e-08
-8.7066479e-10
1.1789186e-08
-9.6961253e-10
1.2050111e-08
-9.6428376e-10
1.2297472e-08
-9.0205869e-10
1.2554994e-08
-9.5326114e-10
1.28185e-08
-9.7233574e-10
1.3066387e-08
-9.140913e-10
1.3320447e-08
-9.4013474e-10
1.3585407e-08
-9.7540012e-10
1.3814688e-08
-8.4885718e-10
1.4073537e-08
-9.7967044e-10
1.4343818e-08
-9.3135673e-10
1.4596257e-08
-9.556495e-10
1.4848661e-08
-8.7503052e-10
1.513824e-08
-1.0096105e-09
1.5381984e-08
-8.9989743e-10
1.563569e-08
-9.1514798e-10
1.5901245e-08
-9.2290233e-10
1.6139074e-08
-8.1924361e-10
1.6412671e-08
-1.0316491e-09
1.6664671e-08
-8.2696035e-10
1.6897752e-08
-8.4089824e-10
1.7179354e-08
-9.94212e-10
1.7419699e-08
-8.3047265e-10
1.7675975e-08
-8.3188254e-10
1.7956407e-08
-1.0267492e-09
1.8219475e-08
-8.632404e-10
1.8442481e-08
-7.5506078e-10
1.8698677e-08
-9.1664044e-10
1.8949545e-08
-8.8102445e-10
1.9195809e-08
-8.0854548e-10
1.9450301e-08
-8.9155821e-10
1.9707921e-08
-8.5785336e-10
1.9968502e-08
-8.0663415e-10
2.0212648e-08
-7.4649207e-10
2.0494908e-08
-9.3660717e-10
2.0689274e-08
-6.9247023e-10
2.0944506e-08
-8.5918081e-10
2.1155225e-08
-8.2418647e-10
2.1433456e-08
-8.9659269e-10
2.1705406e-08
-7.8771801e-10
2.1971296e-08
-8.179381e-10
2.2239075e-08
-7.5652571e-10
2.2483612e-08
-7.6575137e-10
2.280368e-08
-1.085401e-09
2.2917426e-08
-1.521222e-10
2.3188813e-08
-1.0284051e-09
2.3371657e-08
-4.8874116e-10
2.3608749e-08
-7.6985532e-10
2.3720465e-08
-5.1711427e-10
2.4040365e-08
-1.0244708e-09
2.4266816e-08
-4.2838917e-10
2.4525885e-08
-9.4824801e-10
2.4776254e-08
-7.3163936e-10
2.5074152e-08
-6.192958e-10
2.5205928e-08
-4.1230603e-10
2.5381179e-08
-5.771221e-10
2.5701025e-08
-1.0136974e-09
2.5962169e-08
-6.2575e-10
-5.2034762e-10
8.3859031e-09
-1.1675628e-09
8.6475123e-09
-1.1642126e-09
8.9148426e-09
-1.1812964e-09
9.1662427e-09
-1.1488997e-09
9.4429625e-09
-1.2264489e-09
9.7024665e-09
-1.1669678e-09
9.9731689e-09
-1.1958801e-09
1.0251901e-08
-1.2366379e-09
1.0520294e-08
-1.1686009e-09
1.0803831e-08
-1.2511888e-09
1.1083611e-08
-1.2027276e-09
1.1365118e-08
-1.2251543e-09
1.1650158e-08
-1.2233721e-09
1.1914505e-08
-1.1723848e-09
1.22135e-08
-1.2925592e-09
1.2473026e-08
-1.1301913e-09
1.2760198e-08
-1.2567841e-09
1.3058506e-08
-1.2625921e-09
1.3342083e-08
-1.1856355e-09
1.3647173e-08
-1.2583512e-09
1.3937456e-08
-1.262619e-09
1.4237295e-08
-1.2139298e-09
1.4536483e-08
-1.239323e-09
1.4833984e-08
-1.2729015e-09
1.5134218e-08
-1.1490905e-09
1.5412192e-08
-1.2576442e-09
1.5722055e-08
-1.2412206e-09
1.6017663e-08
-1.2512572e-09
1.6314719e-08
-1.172087e-09
1.6642601e-08
-1.3374915e-09
1.6953499e-08
-1.2107956e-09
1.7233986e-08
-1.1956355e-09
1.7549856e-08
-1.238772e-09
1.7853057e-08
-1.1224443e-09
1.8152396e-08
-1.3309882e-09
1.8448139e-08
-1.1227035e-09
1.8753907e-08
-1.1466666e-09
1.9056657e-08
-1.2969613e-09
1.9340045e-08
-1.1138615e-09
1.9676637e-08
-1.168474e-09
1.9986783e-08
-1.3368951e-09
2.0299751e-08
-1.1762085e-09
2.0614926e-08
-1.070236e-09
2.0912956e-08
-1.2146706e-09
2.1224995e-08
-1.1930633e-09
2.1545303e-08
-1.128853e-09
2.1850027e-08
-1.196283e-09
2.2114905e-08
-1.1227306e-09
2.239505e-08
-1.086779e-09
2.2695925e-08
-1.0473679e-09
2.3006975e-08
-1.2476568e-09
2.3303969e-08
-9.8946409e-10
2.3680747e-08
-1.2359594e-09
2.3920383e-08
-1.063822e-09
2.4235403e-08
-1.2116128e-09
2.4506302e-08
-1.0586165e-09
2.4839746e-08
-1.151383e-09
2.5093857e-08
-1.0106362e-09
2.549802e-08
-1.1699142e-09
2.5907209e-08
-1.49459e-09
2.6034707e-08
-2.7962004e-10
2.6425809e-08
-1.4195072e-09
2.6595852e-08
-6.5878414e-10
2.6953274e-08
-1.127278e-09
2.7191981e-08
-7.5582051e-10
2.7397972e-08
-1.2304619e-09
2.7764392e-08
-7.948093e-10
2.7998637e-08
-1.1824928e-09
2.8226786e-08
-9.5978861e-10
2.8589289e-08
-9.8179937e-10
2.8914267e-08
-7.3728391e-10
2.917818e-08
-8.4103476e-10
2.9655858e-08
-1.4913753e-09
2.9890441e-08
-8.6033287e-10
-7.3277928e-10
8.6986431e-09
-1.4384978e-09
8.9795358e-09
-1.4451053e-09
9.2853415e-09
-1.487102e-09
9.5577624e-09
-1.4213207e-09
9.8665541e-09
-1.5352406e-09
1.0157108e-08
-1.4575221e-09
1.0458636e-08
-1.4974079e-09
1.0771077e-08
-1.5490792e-09
1.1067795e-08
-1.4653186e-09
1.1396449e-08
-1.5798424e-09
1.1692168e-08
-1.4984466e-09
1.2012413e-08
-1.5453994e-09
1.2331088e-08
-1.5420476e-09
1.262522e-08
-1.4665168e-09
1.2956462e-08
-1.623801e-09
1.3269312e-08
-1.4430408e-09
1.3581428e-08
-1.5689001e-09
1.3918083e-08
-1.599248e-09
1.4257864e-08
-1.525416e-09
1.4572524e-08
-1.573011e-09
1.493426e-08
-1.6243551e-09
1.5257637e-08
-1.5373069e-09
1.5595928e-08
-1.5776141e-09
1.5937553e-08
-1.6145263e-09
1.6276145e-08
-1.4876825e-09
1.6605225e-08
-1.5867239e-09
1.6966177e-08
-1.6021728e-09
1.7286908e-08
-1.571988e-09
1.7621155e-08
-1.5063343e-09
1.7998178e-08
-1.7145143e-09
1.8339631e-08
-1.5522486e-09
1.8691055e-08
-1.54706e-09
1.90415e-08
-1.589217e-09
1.9394019e-08
-1.4749632e-09
1.9765888e-08
-1.702857e-09
2.0073223e-08
-1.4300381e-09
2.0450181e-08
-1.5236251e-09
2.0822724e-08
-1.6695043e-09
2.1111194e-08
-1.4023316e-09
2.1527456e-08
-1.584736e-09
2.1888903e-08
-1.6983417e-09
2.2234219e-08
-1.5215244e-09
2.2599578e-08
-1.4355957e-09
2.2968755e-08
-1.5838472e-09
2.3313902e-08
-1.5382107e-09
2.3695576e-08
-1.5105268e-09
2.4072603e-08
-1.5733102e-09
2.4454531e-08
-1.5046584e-09
2.4769107e-08
-1.4013553e-09
2.5096344e-08
-1.3746049e-09
2.5405004e-08
-1.5563169e-09
2.5735804e-08
-1.3202634e-09
2.6150059e-08
-1.6502146e-09
2.6508016e-08
-1.4217788e-09
2.6943499e-08
-1.6470965e-09
2.7295254e-08
-1.4103717e-09
2.7631276e-08
-1.4874042e-09
2.7862303e-08
-1.2416633e-09
2.8252969e-08
-1.56058e-09
2.8840645e-08
-2.0822664e-09
2.9030827e-08
-4.6980163e-10
2.9514187e-08
-1.9028678e-09
2.967759e-08
-8.2218656e-10
3.0128786e-08
-1.5784738e-09
3.0470567e-08
-1.0976018e-09
3.0716196e-08
-1.4760908e-09
3.1124985e-08
-1.203599e-09
3.1423192e-08
-1.4806997e-09
3.1656186e-08
-1.1927822e-09
3.2082014e-08
-1.4076271e-09
3.2434336e-08
-1.0896064e-09
3.2581048e-08
-9.8774598e-10
3.3230987e-08
-2.141315e-09
3.3721288e-08
-1.3506336e-09
-1.0127747e-09
8.9053781e-09
-1.7330959e-09
9.2013512e-09
-1.7410784e-09
9.5418134e-09
-1.8275642e-09
9.8345986e-09
-1.7141058e-09
1.0177348e-08
-1.8779904e-09
1.0497863e-08
-1.7780366e-09
1.0829188e-08
-1.8287332e-09
1.1168846e-08
-1.888737e-09
1.1493067e-08
-1.78954e-09
1.1853764e-08
-1.9405392e-09
1.2170322e-08
-1.8150045e-09
1.2525451e-08
-1.9005279e-09
1.2888443e-08
-1.9050397e-09
1.3208202e-08
-1.7862762e-09
1.3583847e-08
-1.9994453e-09
1.3946216e-08
-1.8054107e-09
1.4271536e-08
-1.8942201e-09
1.4670167e-08
-1.9978783e-09
1.5026498e-08
-1.8817472e-09
1.5380852e-08
-1.9273649e-09
1.5781812e-08
-2.025315e-09
1.614961e-08
-1.9051054e-09
1.653814e-08
-1.9661439e-09
1.6888685e-08
-1.9650708e-09
1.7298893e-08
-1.8978906e-09
1.7643838e-08
-1.9316688e-09
1.804522e-08
-2.0035557e-09
1.84312e-08
-1.9579675e-09
1.8794684e-08
-1.8698182e-09
1.9204884e-08
-2.1247149e-09
1.9609068e-08
-1.956432e-09
2.0004263e-08
-1.9422556e-09
2.0424267e-08
-2.0092205e-09
2.0784891e-08
-1.8355876e-09
2.1219682e-08
-2.1376477e-09
2.1568631e-08
-1.7789873e-09
2.1998003e-08
-1.9529969e-09
2.2437766e-08
-2.1092675e-09
2.2781014e-08
-1.7455789e-09
2.3220938e-08
-2.0246598e-09
2.3646033e-08
-2.123437e-09
2.4064048e-08
-1.9395399e-09
2.4445075e-08
-1.8166221e-09
2.4838969e-08
-1.9777412e-09
2.5271544e-08
-1.9707863e-09
2.5632728e-08
-1.8717101e-09
2.6042549e-08
-1.9831318e-09
2.6520914e-08
-1.9830231e-09
2.6887973e-08
-1.7684144e-09
2.7331222e-08
-1.8178534e-09
2.7732597e-08
-1.9576919e-09
2.8091847e-08
-1.6795135e-09
2.8497054e-08
-2.0554214e-09
2.884663e-08
-1.771355e-09
2.9302374e-08
-2.1028404e-09
2.9777734e-08
-1.885732e-09
3.0269185e-08
-1.9788551e-09
3.049962e-08
-1.472098e-09
3.0851356e-08
-1.9123169e-09
3.1419661e-08
-2.6505709e-09
3.1727925e-08
-7.7806575e-10
3.2282503e-08
-2.4574459e-09
3.2655811e-08
-1.1954949e-09
3.2965084e-08
-1.8877466e-09
3.3390308e-08
-1.5228256e-09
3.3873549e-08
-1.959332e-09
3.4355997e-08
-1.6860465e-09
3.4828818e-08
-1.9535213e-09
3.4876316e-08
-1.24028e-09
3.5586498e-08
-2.1178093e-09
3.6021378e-08
-1.5244862e-09
3.5643194e-08
-6.0956239e-10
3.6182423e-08
-2.6805438e-09
3.7292897e-08
-2.4611072e-09
-1.5051025e-09
9.0213297e-09
-2.0515173e-09
9.3415192e-09
-2.0612679e-09
9.705673e-09
-2.1917181e-09
1.0021992e-08
-2.0304245e-09
1.0396226e-08
-2.2522245e-09
1.0736252e-08
-2.1180625e-09
1.10974e-08
-2.189881e-09
1.1458357e-08
-2.249694e-09
1.1811727e-08
-2.1429103e-09
1.2195986e-08
-2.3247982e-09
1.2546118e-08
-2.1651365e-09
1.2938698e-08
-2.2931078e-09
1.3333184e-08
-2.2995262e-09
1.3695485e-08
-2.1485769e-09
1.4106205e-08
-2.4101648e-09
1.4495757e-08
-2.1949634e-09
1.4866739e-08
-2.2652022e-09
1.5288302e-08
-2.4194407e-09
1.5682553e-08
-2.2759987e-09
1.6079813e-08
-2.3246247e-09
1.6498005e-08
-2.4435071e-09
1.6928072e-08
-2.3351718e-09
1.7324016e-08
-2.3620884e-09
1.7737154e-08
-2.3782083e-09
1.8184818e-08
-2.3455549e-09
1.8570431e-08
-2.317282e-09
1.9002246e-08
-2.4353709e-09
1.94267e-08
-2.3824213e-09
1.9875042e-08
-2.3181599e-09
2.0291055e-08
-2.5407285e-09
2.074426e-08
-2.4096362e-09
2.1175658e-08
-2.3736536e-09
2.1661724e-08
-2.4952875e-09
2.2062571e-08
-2.2364347e-09
2.2517653e-08
-2.5927292e-09
2.2979362e-08
-2.2406965e-09
2.3384546e-08
-2.3581812e-09
2.3830679e-08
-2.5554004e-09
2.4317717e-08
-2.2326168e-09
2.4738324e-08
-2.4452668e-09
2.5178321e-08
-2.5634337e-09
2.5703333e-08
-2.464552e-09
2.6111272e-08
-2.2245614e-09
2.6491547e-08
-2.3580155e-09
2.7035561e-08
-2.5148008e-09
2.7340322e-08
-2.1764706e-09
2.7772208e-08
-2.4150183e-09
2.8386184e-08
-2.5969993e-09
2.8785428e-08
-2.1676576e-09
2.9207433e-08
-2.2398589e-09
2.9636623e-08
-2.386882e-09
3.0048649e-08
-2.0915396e-09
3.0646297e-08
-2.6530691e-09
3.1003526e-08
-2.1285842e-09
3.1419533e-08
-2.5188476e-09
3.2000714e-08
-2.4669125e-09
3.2388287e-08
-2.3664285e-09
3.2765866e-08
-1.8496763e-09
3.336734e-08
-2.5137912e-09
3.3930858e-08
-3.2140885e-09
3.4123048e-08
-9.7025564e-10
3.4602951e-08
-2.9373495e-09
3.536037e-08
-1.952914e-09
3.5609654e-08
-2.1370308e-09
3.6079169e-08
-1.9923397e-09
3.6374929e-08
-2.2550921e-09
3.6636106e-08
-1.9472239e-09
3.7624303e-08
-2.9417187e-09
3.7346943e-08
-9.629198e-10
3.8428867e-08
-3.1997334e-09
3.975231e-08
-2.847929e-09
3.9328837e-08
-1.8608944e-10
3.7421565e-08
-7.7327194e-10
3.8604017e-08
-3.6435589e-09
-4.3089447e-09
9.0589805e-09
-2.3916597e-09
9.4147904e-09
-2.4170778e-09
9.7859924e-09
-2.5629201e-09
1.0136793e-08
-2.3812255e-09
1.0528154e-08
-2.6435855e-09
1.0882978e-08
-2.4728862e-09
1.1280696e-08
-2.5875987e-09
1.1653551e-08
-2.6225493e-09
1.2049598e-08
-2.5389574e-09
1.2449239e-08
-2.7244389e-09
1.2847173e-08
-2.5630703e-09
1.3264342e-08
-2.7102775e-09
1.367672e-08
-2.7119037e-09
1.4095647e-08
-2.567504e-09
1.4510161e-08
-2.8246795e-09
1.4939955e-08
-2.6247574e-09
1.536e-08
-2.6852472e-09
1.5794395e-08
-2.8538355e-09
1.623133e-08
-2.7129334e-09
1.6673627e-08
-2.7669222e-09
1.7109935e-08
-2.8798146e-09
1.7584307e-08
-2.8095438e-09
1.8013305e-08
-2.7910865e-09
1.8459365e-08
-2.824268e-09
1.8968965e-08
-2.8551547e-09
1.9382176e-08
-2.7304936e-09
1.986406e-08
-2.9172545e-09
2.0321346e-08
-2.8397076e-09
2.0805022e-08
-2.8018361e-09
2.1266168e-08
-3.0018743e-09
2.1717462e-08
-2.8609298e-09
2.2205116e-08
-2.8613076e-09
2.271822e-08
-3.0083921e-09
2.3156056e-08
-2.6742701e-09
2.3644702e-08
-3.0813756e-09
2.4152934e-08
-2.7489285e-09
2.4591591e-08
-2.7968384e-09
2.5037885e-08
-3.0016937e-09
2.5539953e-08
-2.7346853e-09
2.5959543e-08
-2.8648565e-09
2.6458028e-08
-3.0619188e-09
2.6997765e-08
-3.0042889e-09
2.7424467e-08
-2.6512638e-09
2.7889774e-08
-2.8233218e-09
2.8457888e-08
-3.0829153e-09
2.8669684e-08
-2.3882668e-09
2.9335384e-08
-3.0807179e-09
2.9978607e-08
-3.2402227e-09
3.0356341e-08
-2.5453908e-09
3.0848381e-08
-2.7318999e-09
3.1252143e-08
-2.790644e-09
3.1562392e-08
-2.401788e-09
3.2381496e-08
-3.4721732e-09
3.2707522e-08
-2.4546107e-09
3.3224987e-08
-3.0363122e-09
3.3661545e-08
-2.9034702e-09
3.3954475e-08
-2.6593586e-09
3.3825625e-08
-1.7208263e-09
3.414796e-08
-2.8361259e-09
3.4342333e-08
-3.4084623e-09
3.4652458e-08
-1.2803799e-09
3.5552722e-08
-3.8376133e-09
3.5308525e-08
-1.7087171e-09
3.3966027e-08
-7.9453351e-10
3.6064594e-08
-4.0909068e-09
3.8563248e-08
-4.753746e-09
3.7547036e-08
-9.3101184e-10
3.9213302e-08
-4.6079847e-09
3.8830377e-08
-5.7999423e-10
4.115495e-08
-5.5243068e-09
3.9155433e-08
-8.4841235e-10
3.6810034e-08
2.1593105e-09
3.1863619e-08
4.1731427e-09
2.6618974e-08
1.6010856e-09
-7.4775815e-09
9.0337524e-09
-2.7540618e-09
9.4171817e-09
-2.800507e-09
9.7940925e-09
-2.9398309e-09
1.018182e-08
-2.7689526e-09
1.0578534e-08
-3.0402994e-09
1.0964032e-08
-2.8583843e-09
1.1392176e-08
-3.0157431e-09
1.1779329e-08
-3.0097018e-09
1.2218196e-08
-2.9778245e-09
1.2628301e-08
-3.1345445e-09
1.3065342e-08
-3.0001114e-09
1.3496199e-08
-3.1411338e-09
1.3937579e-08
-3.1532839e-09
1.4398733e-08
-3.0286585e-09
1.4817277e-08
-3.2432232e-09
1.5310203e-08
-3.1176832e-09
1.5753e-08
-3.1280442e-09
1.6214939e-08
-3.3157741e-09
1.6698053e-08
-3.1960479e-09
1.7157899e-08
-3.2267684e-09
1.7635726e-08
-3.3576414e-09
1.8141323e-08
-3.3151404e-09
1.8599284e-08
-3.2490474e-09
1.9097754e-08
-3.3227387e-09
1.9617544e-08
-3.3749442e-09
2.0091417e-08
-3.204367e-09
2.0569446e-08
-3.395283e-09
2.1050593e-08
-3.3208548e-09
2.1588601e-08
-3.339844e-09
2.1986877e-08
-3.4001507e-09
2.2519154e-08
-3.3932068e-09
2.2990157e-08
-3.3323107e-09
2.3538556e-08
-3.5567908e-09
2.4018294e-08
-3.154008e-09
2.4476016e-08
-3.5390975e-09
2.5029196e-08
-3.3021084e-09
2.5446319e-08
-3.2139621e-09
2.5826725e-08
-3.3820997e-09
2.6438792e-08
-3.3467518e-09
2.6922294e-08
-3.3483584e-09
2.733145e-08
-3.4710748e-09
2.7817439e-08
-3.4902778e-09
2.8185553e-08
-3.0193779e-09
2.8658211e-08
-3.2959795e-09
2.8687946e-08
-3.1126506e-09
2.8093419e-08
-1.7937394e-09
2.9470238e-08
-4.4575377e-09
2.9501836e-08
-3.2718201e-09
2.9303766e-08
-2.3473214e-09
3.0735866e-08
-4.1639995e-09
3.0013192e-08
-2.0679704e-09
3.0038713e-08
-2.4273081e-09
3.1995918e-08
-5.4293791e-09
3.1953421e-08
-2.4121128e-09
3.3456849e-08
-4.5397402e-09
3.4224496e-08
-3.6711173e-09
3.2896933e-08
-1.3317955e-09
3.3137437e-08
-1.9613305e-09
3.3220113e-08
-2.918802e-09
3.1679264e-08
-1.867613e-09
3.0502415e-08
-1.0353086e-10
3.0423998e-08
-3.7591963e-09
3.1238105e-08
-2.5228248e-09
2.8797678e-08
1.6458938e-09
2.936977e-08
-4.6629989e-09
3.3113484e-08
-8.4974605e-09
3.0495812e-08
1.6866604e-09
3.2682101e-08
-6.7942736e-09
3.6223623e-08
-4.1215166e-09
3.8917013e-08
-8.2176968e-09
3.7650583e-08
4.1801771e-10
3.7872819e-08
1.9370748e-09
3.0573067e-08
1.1472895e-08
2.5994176e-08
6.1799766e-09
-1.2597929e-08
8.9584007e-09
-3.140957e-09
9.355249e-09
-3.1973553e-09
9.7488108e-09
-3.3333928e-09
1.0161117e-08
-3.1812587e-09
1.0569631e-08
-3.4488134e-09
1.0992555e-08
-3.2813088e-09
1.1432736e-08
-3.4559232e-09
1.1847155e-08
-3.4241211e-09
1.2309745e-08
-3.4404151e-09
1.2735826e-08
-3.5606247e-09
1.3201677e-08
-3.4659634e-09
1.3655277e-08
-3.5947337e-09
1.4135661e-08
-3.633667e-09
1.4620041e-08
-3.5130391e-09
1.5073966e-08
-3.6971478e-09
1.5610952e-08
-3.6546697e-09
1.6060469e-08
-3.5775606e-09
1.6571545e-08
-3.82685e-09
1.7072928e-08
-3.6974318e-09
1.7537439e-08
-3.6912789e-09
1.8078953e-08
-3.8991559e-09
1.8559897e-08
-3.7960842e-09
1.9066894e-08
-3.7560446e-09
1.9577149e-08
-3.8329934e-09
2.0095013e-08
-3.8928077e-09
2.0599158e-08
-3.7085122e-09
2.1040051e-08
-3.8361763e-09
2.1548608e-08
-3.8294116e-09
2.2099894e-08
-3.8911304e-09
2.243806e-08
-3.7383159e-09
2.302714e-08
-3.9822871e-09
2.3494469e-08
-3.79964e-09
2.4065752e-08
-4.128074e-09
2.4503515e-08
-3.5917709e-09
2.4766592e-08
-3.8021738e-09
2.4898947e-08
-3.4344639e-09
2.5903519e-08
-4.218534e-09
2.5308906e-08
-2.787487e-09
2.5114576e-08
-3.1524216e-09
2.5694127e-08
-3.9279093e-09
2.5393632e-08
-3.17058e-09
2.5577659e-08
-3.6743047e-09
2.5471295e-08
-2.9130135e-09
2.5453783e-08
-3.2784676e-09