/*--------------------------------*- C++ -*----------------------------------*\
| =========                 |                                                 |
| \\      /  F ield         | OpenFOAM: The Open Source CFD Toolbox           |
|  \\    /   O peration     | Version:  2.3.0                                 |
|   \\  /    A nd           | Web:      www.OpenFOAM.org                      |
|    \\/     M anipulation  |                                                 |
\*---------------------------------------------------------------------------*/
FoamFile
{
    version     2.0;
    format      ascii;
    class       volVectorField;
    location    "9e-06";
    object      U;
}
// * * * * * * * * * * * * * * * * * * * * * * * * * * * * * * * * * * * * * //

dimensions      [0 1 -1 0 0 0 0];

internalField   nonuniform List<vector> 
7500
(
(459.68434 -0.012115929 2.5969779e-16)
(460.45645 0.039843228 2.9795303e-15)
(460.09797 -0.043721082 2.5950498e-15)
(459.58547 0.0083532107 -5.7956888e-16)
(460.45072 -0.0084141429 2.7792662e-15)
(459.5795 0.017545888 5.6409518e-15)
(460.17993 -0.0087524174 2.0686172e-15)
(459.55823 -0.040716213 4.7646357e-15)
(460.49615 0.091686848 4.5561541e-15)
(459.89985 -0.084689971 1.9983168e-15)
(459.7319 0.0067817538 1.1847595e-15)
(460.61696 0.078763724 -1.7014774e-15)
(459.47277 -0.090498059 1.9489873e-15)
(459.90192 0.044404871 1.6704927e-15)
(460.20684 -0.017687659 1.4056685e-15)
(459.51001 0.021295594 1.2690301e-15)
(459.94331 0.00074259723 1.4764334e-15)
(460.48573 -0.067041741 -1.812727e-15)
(459.6843 0.096840101 9.9810329e-16)
(459.83504 -0.034858391 1.126367e-15)
(459.84273 -0.032858676 -1.244269e-15)
(460.00173 0.044719306 1.4964428e-15)
(459.7467 -0.029241282 3.6546884e-16)
(459.97303 0.029717001 -1.4681408e-15)
(459.76929 -0.044532908 1.1185164e-15)
(459.38489 0.059539075 1.0828634e-15)
(460.36272 -0.0045108457 1.4714411e-15)
(459.79391 -0.081129216 -1.6589277e-15)
(459.33793 0.078191728 -1.2732178e-15)
(459.98298 -0.043524016 3.0282577e-15)
(459.65569 0.046527624 -1.1697572e-15)
(459.81687 -0.043720429 6.9418838e-16)
(459.75083 0.017121686 1.2851743e-15)
(460.07 0.057691497 -1.2120363e-15)
(459.88509 -0.12461245 -1.5563228e-15)
(459.13561 0.1063052 1.0677839e-15)
(460.14391 -0.016974702 -7.9072498e-16)
(460.29608 0.00029309058 8.6546442e-16)
(459.06007 -0.021157846 1.042937e-15)
(460.22582 0.046781442 9.3269808e-16)
(460.09324 -0.023804511 9.1260918e-16)
(459.22817 -0.034956446 7.8159551e-16)
(460.22425 0.16077092 2.3541729e-15)
(459.96659 -0.085302006 3.0773817e-15)
(459.80154 -0.054364014 8.2730841e-16)
(459.55852 0.026906297 -1.8230028e-15)
(459.7014 0.042665327 -1.2093896e-15)
(460.09711 -0.15982187 -1.6363857e-15)
(459.35638 0.076905784 1.0962689e-15)
(460.27078 0.21311089 2.5879718e-16)
(459.36062 -0.11392306 4.0917534e-16)
(459.48106 0.063344252 2.5452223e-15)
(459.55395 -0.014682955 1.0651049e-15)
(460.53779 -0.027102738 5.8868812e-16)
(458.50317 -0.02241156 1.1132191e-17)
(463.01628 0.013494839 -1.1714483e-15)
(457.18175 0.038599613 5.5168312e-16)
(462.57558 -0.0018381363 2.8094268e-16)
(458.11894 -0.035348471 9.37059e-16)
(462.60141 0.085592565 -1.1203663e-16)
(458.04101 -0.029298445 3.1088723e-16)
(460.06336 -0.36425156 2.6287535e-15)
(459.90481 0.27328603 9.7437957e-17)
(458.01985 -0.13489164 -1.3086265e-15)
(460.78405 0.049080522 -1.2389218e-15)
(457.49439 0.1909973 9.4751904e-17)
(458.72875 -0.10245889 1.6263712e-16)
(462.00615 -0.26703838 6.8678983e-16)
(459.23394 -0.040433457 3.3931992e-16)
(460.12816 0.21999207 -1.3778698e-15)
(464.10252 0.11281761 -1.4446227e-15)
(456.08176 0.51764729 1.0356915e-15)
(457.41011 -0.74923338 2.4884075e-15)
(462.13798 -0.1085929 3.0252267e-16)
(461.64038 0.11189037 1.9019486e-15)
(459.65245 -0.024895159 1.4305467e-16)
(460.56256 0.011052092 1.3878548e-16)
(460.00095 -0.00071020207 -1.8428057e-16)
(459.65548 0.023097514 -2.486381e-18)
(460.43098 0.0068657961 4.2997884e-17)
(459.53785 -0.061902995 -2.505565e-16)
(460.20724 0.1269787 4.3470127e-16)
(459.51592 -0.15669486 -1.0725878e-16)
(460.5163 0.11356962 2.1303717e-16)
(459.88614 -0.069366406 1.3263128e-16)
(459.75498 0.0092937831 3.3771191e-16)
(460.5674 0.020565487 -1.7691046e-16)
(459.54412 -0.043138666 3.0588907e-16)
(459.83439 0.16342047 -6.9745235e-16)
(460.23537 -0.23103345 1.6596487e-16)
(459.51176 0.18176451 -8.3183396e-16)
(459.95404 -0.069670243 5.3256572e-16)
(460.44691 -0.069207202 3.1278284e-16)
(459.77151 0.1227396 9.8434093e-17)
(459.74862 -0.054465455 6.4117683e-16)
(459.89752 -0.028844924 -6.1106283e-16)
(459.97981 0.057752554 1.114942e-15)
(459.81507 -0.053029541 -4.2364255e-16)
(459.87827 -0.054846348 1.6482217e-15)
(459.86128 0.23959365 -5.5753896e-16)
(459.31959 -0.29276704 7.6252163e-16)
(460.34601 0.24759714 -7.9602108e-16)
(459.82754 -0.14882429 -5.8666434e-16)
(459.3613 0.026576763 1.3856321e-15)
(459.90082 0.054023981 4.2456394e-16)
(459.68931 -0.11183422 -9.4732657e-17)
(459.87647 0.10401167 4.2946516e-16)
(459.6821 -0.071941909 -1.3164765e-17)
(460.06478 0.1243944 4.9413636e-16)
(459.94341 -0.17183716 -1.3835501e-16)
(459.09925 0.090193213 1.0769265e-16)
(460.0342 0.071009072 3.5997275e-16)
(460.36803 -0.082485187 -9.6046157e-16)
(459.06474 -0.035336575 5.6290079e-16)
(460.1173 0.16266903 3.2184356e-16)
(460.1905 -0.16894952 2.2422107e-16)
(459.25957 -0.0033695093 2.2539023e-17)
(460.19779 0.23105178 1.4542477e-16)
(460.02968 -0.16394658 -2.7644318e-16)
(459.73582 -0.0010418014 2.8859016e-16)
(459.5169 0.029356604 -1.2961009e-15)
(459.79624 0.041763702 1.2084106e-16)
(460.20347 -0.2159333 -8.9946105e-16)
(459.20374 0.077962137 1.7027039e-16)
(460.33175 0.20677711 -1.9284979e-16)
(459.48745 -0.15384749 5.4229339e-16)
(459.54694 0.15043868 -2.9902346e-16)
(459.33938 0.01334106 3.8594669e-16)
(460.74592 -0.2374426 -5.4898688e-16)
(458.0676 0.017641969 1.5414474e-16)
(463.74574 0.21846476 6.6570104e-16)
(456.61105 -0.26710659 1.0779023e-16)
(462.72446 0.12063031 2.9882257e-16)
(457.60788 0.13907599 2.742334e-16)
(463.28916 -0.43496068 -1.3072656e-15)
(458.05216 0.66051737 5.6592618e-16)
(459.62383 -0.51791652 -6.2891111e-16)
(459.95863 0.13235248 8.2980133e-16)
(458.33583 -0.00060925236 -2.7813993e-16)
(460.49701 0.41389681 4.3705276e-16)
(457.94907 -0.31090008 -1.3628314e-16)
(458.5003 0.039094369 -5.7605142e-16)
(461.51491 -0.28241922 7.2524719e-16)
(460.08022 -0.34693888 -1.2309879e-16)
(459.43937 0.40771827 -4.1318518e-16)
(463.27297 0.15630487 1.4622529e-15)
(457.54768 0.74864455 4.7471891e-17)
(457.89569 -1.0105337 -5.2151463e-16)
(461.13869 -0.1796449 -2.8443747e-16)
(461.20965 0.10846599 3.4699662e-16)
(459.57302 -0.050949214 2.4197108e-16)
(460.79348 0.081464379 -1.0256293e-15)
(459.77032 -0.040648069 2.7878124e-16)
(459.87284 0.015407673 -3.4111153e-16)
(460.22846 0.037246067 4.4431587e-16)
(459.64825 -0.091316951 6.2439413e-18)
(460.16875 0.13109342 5.1833758e-16)
(459.42835 -0.15864106 -5.2207247e-16)
(460.63187 0.11130892 4.8984714e-16)
(459.80809 -0.046737588 -5.2699385e-16)
(459.76902 -0.04365073 5.1840621e-16)
(460.56414 0.11492976 -9.8729117e-16)
(459.53507 -0.15582979 -4.997274e-16)
(459.82319 0.23469231 6.3889193e-16)
(460.2209 -0.15790591 4.7886408e-16)
(459.55132 -0.020478037 -4.2086984e-16)
(459.92461 0.13053774 8.8519676e-17)
(460.46112 -0.19665518 4.3683555e-16)
(459.78899 0.16514813 -5.6660888e-16)
(459.72649 0.011454735 5.4844771e-16)
(459.92004 -0.11516288 -6.5338666e-16)
(459.97946 0.087611636 9.0900326e-16)
(459.84995 -0.025633991 3.5337691e-16)
(459.90455 -0.072462546 -8.375507e-17)
(459.82226 0.072697937 2.2331949e-16)
(459.34977 0.05299377 -6.0136356e-16)
(460.29321 -0.08874806 1.4212718e-16)
(459.80915 -0.056487442 -5.6953644e-16)
(459.40466 0.16961676 -8.5010981e-17)
(459.88569 -0.12423075 2.7824086e-16)
(459.64546 0.057929746 -5.7263922e-17)
(459.96659 -0.10496296 8.7308885e-17)
(459.73399 0.073518504 -4.7659238e-16)
(459.99238 0.21473093 1.8984841e-16)
(459.84956 -0.44519069 1.0392442e-16)
(459.18633 0.29655539 -6.9879412e-17)
(459.93586 -0.018353013 -2.7409645e-16)
(460.28872 -0.077155785 -5.1584322e-16)
(459.11542 -0.091444402 2.0044053e-16)
(460.11433 0.19214846 -1.8884538e-16)
(460.20397 -0.18694824 2.9165023e-16)
(459.24427 -0.12954633 -2.8404577e-16)
(460.22968 0.37304632 -1.6979347e-16)
(460.11152 -0.097127673 -3.1101929e-16)
(459.6928 -0.11190236 1.122185e-16)
(459.47503 0.051766825 -1.5397286e-16)
(459.91386 0.076419578 -1.2502396e-17)
(460.38971 -0.2470437 5.7024986e-16)
(459.20686 -0.050173835 -4.8964275e-16)
(460.26763 0.27240274 4.6042916e-16)
(459.50922 -0.2756662 -6.436641e-17)
(459.72299 0.23151665 1.2495238e-15)
(459.14268 -0.031326561 -1.6826863e-16)
(460.86975 -0.15418871 2.6218461e-16)
(457.66642 -0.16653483 6.529765e-17)
(464.18901 0.12253838 4.7597988e-16)
(456.24804 0.080688521 -1.4409633e-15)
(462.93292 -0.052809449 3.7352555e-16)
(457.05307 -0.087029269 -3.458443e-16)
(463.77794 -0.19572405 -5.2154216e-16)
(457.91008 0.7735854 -5.3833524e-16)
(459.76247 -0.79080064 -6.878337e-16)
(459.70436 0.6292935 4.1544219e-16)
(458.73693 -0.33974856 1.1951973e-16)
(459.87838 0.33837497 -4.8099593e-16)
(458.14506 -0.19161688 -7.5738079e-16)
(459.19161 0.23598285 1.7462811e-16)
(460.93323 -0.70384336 5.5721328e-16)
(460.01733 -0.30407138 4.3917234e-16)
(459.4034 0.72538994 -2.4307777e-16)
(462.94374 0.062540862 5.9325665e-18)
(457.85123 0.80073883 2.2694904e-16)
(458.19474 -1.089523 8.8594002e-17)
(460.94064 -0.15515755 5.3465084e-16)
(461.01525 0.14837738 5.7390863e-16)
(459.41545 -0.10147223 -1.2546418e-16)
(461.00189 0.13438829 1.4227374e-16)
(459.52017 -0.013215932 -8.0518365e-16)
(460.23156 -0.059088816 -5.4796652e-16)
(459.69514 0.12301138 -3.6705321e-17)
(460.26519 -0.12200219 -4.3192336e-16)
(459.66359 0.14205635 4.9088953e-17)
(459.7579 -0.22163972 2.4891045e-17)
(460.54734 0.19422539 1.1171442e-16)
(459.70416 -0.14262626 -4.6923165e-16)
(459.95321 0.032188654 -4.3751118e-16)
(460.45795 0.084663014 4.5058701e-16)
(459.39639 -0.1410656 5.4221728e-16)
(460.1203 0.25276278 6.0175241e-16)
(459.92207 -0.27779026 5.10504e-16)
(459.7628 0.25798985 -1.271176e-16)
(459.78902 -0.18763124 2.9610309e-17)
(460.52786 -0.036083004 -4.3789592e-17)
(459.72959 0.19850187 -6.8942349e-16)
(459.77873 -0.066762906 1.7984101e-16)
(459.88771 -0.10021745 -2.496849e-17)
(460.04045 0.14179727 5.603839e-16)
(459.81688 -0.110938 -5.9820367e-17)
(459.95607 -0.083095257 9.9262445e-17)
(459.86754 0.34294709 1.7642973e-16)
(459.26797 -0.48380342 1.8058539e-16)
(460.25247 0.50512512 -4.763644e-16)
(459.82279 -0.42773584 2.4672674e-17)
(459.34153 0.19173205 4.4270738e-16)
(459.97516 0.03563377 -5.0267614e-16)
(459.70452 -0.13275115 4.667355e-16)
(459.91269 0.043558718 -2.0844677e-16)
(459.83364 -0.1353305 5.0001585e-17)
(460.01573 0.47768747 1.4981943e-16)
(459.6713 -0.57715385 2.5853762e-16)
(459.16032 0.22849825 -2.1865401e-16)
(459.9779 0.20722627 1.1381721e-16)
(460.29898 -0.2610839 -4.1375679e-16)
(458.95849 -0.051098042 4.5802098e-16)
(460.1041 0.2900844 -2.6121114e-17)
(460.28267 -0.37071076 1.2505175e-16)
(459.22141 -0.068540449 9.5128848e-17)
(460.17588 0.35758791 4.5423818e-17)
(460.13208 -0.071425715 1.7143668e-17)
(459.927 -0.1146074 -2.268117e-16)
(459.44016 0.026950475 1.5356705e-16)
(459.8037 0.077642607 -2.940926e-16)
(460.77787 -0.24686077 1.2012722e-16)
(459.31759 0.039820855 -1.1302787e-16)
(459.88053 0.19302247 4.8016381e-16)
(459.49797 -0.37126788 -1.2166309e-16)
(459.94622 0.30290138 1.1302399e-16)
(458.81108 -0.012270194 1.3201941e-16)
(461.01738 -0.35232773 2.7893596e-16)
(457.50552 -0.15032963 -2.2475713e-16)
(463.99287 0.33724327 2.6348484e-16)
(456.30949 -0.36615245 -3.9067118e-16)
(463.09893 0.22779304 1.9627653e-16)
(456.49233 0.18208526 1.1845891e-16)
(463.88642 -0.91685198 2.8847437e-16)
(458.10955 1.5302497 -3.5274125e-16)
(460.0019 -0.89805355 1.8211143e-16)
(459.08971 0.30093982 -2.8524666e-16)
(459.10229 -0.14965301 -2.8319712e-16)
(459.86202 0.59060218 1.500511e-16)
(458.02128 -0.95887101 1.0461382e-16)
(459.1983 0.70266535 3.2712381e-16)
(460.92946 -0.6614951 -8.9011797e-18)
(460.29169 -0.45693625 2.1382933e-18)
(459.03714 0.44316122 -2.6344515e-16)
(462.43442 0.36489518 1.3642334e-16)
(457.78235 0.32724951 -2.3421124e-17)
(458.5513 -0.5962406 1.6622393e-16)
(461.11731 -0.10066518 5.6775046e-17)
(460.91968 0.021234181 -2.2429229e-16)
(459.22109 -0.11034883 -1.404441e-16)
(461.10587 0.13549546 9.164073e-17)
(459.4307 -0.027514664 2.075155e-16)
(460.45481 0.034490423 -6.9070479e-17)
(459.16015 -0.015416454 -2.6937083e-17)
(461.09015 -0.036439508 -1.9866736e-17)
(458.70817 0.14684471 -5.3473698e-18)
(460.8555 -0.28259656 -4.5375262e-16)
(459.57813 0.23337409 -2.6567295e-17)
(460.30239 -0.14896371 -1.1103926e-17)
(459.75799 0.0029285171 -4.1904763e-16)
(460.40729 0.15426497 -6.1920942e-17)
(459.47762 -0.19422197 6.0700467e-17)
(460.1967 0.2922227 -8.6575293e-17)
(459.693 -0.29622558 9.0583384e-17)
(460.25312 0.1707888 -5.2164822e-17)
(459.14114 0.023868911 3.9536278e-16)
(460.92896 -0.27280624 2.4889518e-17)
(459.44481 0.3327968 1.2692864e-16)
(459.94608 -0.044244293 2.2192399e-16)
(459.67047 -0.16341271 5.272993e-16)
(460.37165 0.1318516 -1.2067902e-16)
(459.56707 -0.012947665 -5.6938181e-17)
(459.99395 -0.17080128 -1.9264113e-17)
(459.99739 0.25991562 -1.0414905e-16)
(459.15192 -0.071790611 4.0215943e-16)
(460.15759 -0.16862416 -4.4609173e-17)
(459.79828 0.095880284 1.3288043e-16)
(459.41611 0.07468385 2.0231124e-17)
(459.85825 -0.20360699 -3.2470591e-16)
(459.88061 0.13716097 3.674841e-16)
(460.04384 -0.12188609 2.5266647e-16)
(459.64255 0.065438686 3.9567465e-16)
(460.07541 0.27865745 -4.896482e-16)
(459.88702 -0.44724399 -3.3721085e-16)
(458.96723 0.24216086 -1.7005538e-16)
(459.83465 0.080265993 -3.3526229e-16)
(460.46786 -0.11185401 -2.9473035e-17)
(459.00651 -0.07888546 -9.4310648e-17)
(459.57161 0.27765294 6.4392303e-17)
(460.43892 -0.38495853 5.5130619e-17)
(459.55355 -0.056738645 1.384908e-16)
(459.97866 0.3529902 1.2511203e-16)
(459.93305 -0.17731692 3.4692898e-16)
(460.44054 -0.050608068 -3.6929059e-16)
(459.31544 0.14486832 1.1819698e-16)
(459.65362 -0.12947093 2.0625233e-16)
(460.84125 -0.18437032 3.382566e-16)
(459.24799 0.25023121 -4.9680636e-17)
(460.06066 0.15918736 1.3876595e-16)
(458.9377 -0.40053889 3.3957035e-17)
(459.8847 0.38404841 3.7716303e-16)
(459.33087 -0.18115089 -2.3029323e-16)
(460.60328 -0.28658464 3.5179166e-16)
(457.22878 -0.18857678 -3.3785154e-17)
(464.5885 0.041039467 -1.1147761e-16)
(455.79699 0.10825854 -3.7489389e-16)
(463.08488 -0.072799377 3.10668e-16)
(456.73749 0.016032627 1.0740199e-16)
(463.84287 -0.64316789 3.8671871e-16)
(457.71192 1.5783384 -2.0032124e-16)
(460.95485 -1.0826228 2.8790062e-16)
(458.85424 0.78663575 3.6561579e-17)
(458.30854 -0.56675994 8.9400262e-17)
(460.01445 0.53679012 1.964898e-16)
(458.72328 -0.69635934 -3.2191227e-16)
(458.90664 0.7085838 7.7460166e-17)
(460.46432 -1.1108485 2.6175044e-17)
(460.66582 0.12450056 -2.6373499e-16)
(458.87314 0.40800543 1.1864356e-16)
(461.79246 0.25384861 6.8503031e-17)
(457.41086 0.060172683 9.8360153e-17)
(459.09033 -0.42917354 -1.0077589e-16)
(461.41469 -0.13002877 1.8014648e-16)
(460.79375 -0.0090771179 6.6081107e-17)
(459.2527 -0.12137559 3.2759693e-18)
(460.85093 0.12123556 -2.7929641e-16)
(459.74372 -0.022745253 3.5869868e-17)
(460.15315 0.10425845 -8.290976e-17)
(459.30608 -0.10487483 -1.4969357e-16)
(461.13488 0.0066308489 4.602506e-16)
(458.45293 0.13957123 -1.5223823e-16)
(461.52188 -0.29977169 -1.9988718e-16)
(458.47399 0.31123696 4.5578022e-17)
(461.62596 -0.2832044 3.4553085e-16)
(458.17273 0.13362494 -3.6519001e-16)
(461.91246 0.050299974 4.0883262e-16)
(458.56394 -0.14604108 7.5997666e-17)
(460.6444 0.36407741 -3.9645743e-16)
(459.7528 -0.46540523 9.2898082e-17)
(460.2544 0.38722624 -1.1094896e-16)
(458.72372 -0.19965112 1.6969878e-16)
(461.25852 -0.073003437 -1.1103414e-16)
(458.64154 0.19216993 1.0069742e-16)
(460.54227 0.040309912 -1.5459213e-16)
(459.38418 -0.2406207 3.9663443e-16)
(460.33086 0.21654444 1.7937563e-17)
(459.67899 -0.0796671 3.1063332e-18)
(459.88488 -0.1730771 6.4187936e-17)
(459.96786 0.45518801 -4.4839841e-17)
(459.28335 -0.44003181 4.2456396e-17)
(460.10929 0.38223155 3.2894651e-16)
(459.53526 -0.53612478 7.9015626e-17)
(459.55707 0.49656123 -1.2859631e-16)
(459.98007 -0.35137838 -1.7147136e-16)
(459.70803 -0.044418703 2.195241e-16)
(460.23142 0.130884 -4.4318019e-16)
(459.91781 -0.13840373 2.1187567e-16)
(459.67737 0.55535333 -1.0585665e-16)
(460.1147 -0.74989846 3.5554836e-16)
(459.31197 0.49974703 -2.5335829e-17)
(459.39136 0.086300895 -2.1029741e-17)
(460.30634 -0.37880615 1.2399571e-16)
(459.33376 0.28556597 1.6632776e-16)
(459.41212 0.20714396 -6.2652546e-17)
(459.91796 -0.65941339 -2.8148413e-16)
(460.08285 0.1825935 1.0028883e-16)
(460.07955 0.37401503 -3.2300005e-17)
(459.62634 -0.30811778 3.5919207e-16)
(460.22219 -0.11971856 5.6333331e-17)
(459.72634 0.31660338 2.1045307e-16)
(459.4166 -0.23007362 1.0791198e-16)
(460.56797 -0.18802938 -5.0036627e-17)
(459.34824 0.2092258 6.0712959e-17)
(460.38381 0.34671613 3.7644439e-17)
(458.21695 -0.49870713 2.5652845e-16)
(460.58124 0.33693054 4.6988388e-17)
(458.72301 -0.10071465 -1.9459129e-16)
(461.11212 -0.27843986 5.3678071e-17)
(457.44676 -0.53860037 2.9072033e-16)
(463.75873 0.38480226 -2.1242835e-16)
(456.59585 -0.43195414 6.3361277e-17)
(463.36533 0.30295221 2.5212095e-16)
(455.57464 0.031987797 6.0057241e-17)
(465.09863 -1.2025616 -1.3051327e-16)
(457.94979 2.040274 -1.4545266e-16)
(459.72895 -1.0014265 1.5728549e-16)
(459.65442 0.74292474 9.0110863e-17)
(458.92395 -0.2551096 1.3942079e-16)
(458.03157 0.34235564 -2.9060616e-16)
(459.24497 -1.0136992 1.9779813e-16)
(460.34702 1.104065 -4.6796957e-17)
(459.25571 -1.2149308 5.6655074e-17)
(459.9183 -0.333317 1.5139128e-16)
(459.68053 0.67479109 6.9343131e-17)
(461.53258 0.48747018 -3.8156561e-17)
(455.94476 0.25509223 -2.2570912e-17)
(459.43392 -0.99649732 1.0160614e-16)
(462.18445 0.094176414 -3.9281693e-17)
(460.72208 0.11170075 8.6499055e-17)
(459.37154 -0.10709103 1.8281347e-17)
(460.33221 0.087531385 -2.53662e-16)
(460.14326 -0.012029623 4.2621951e-17)
(459.76458 0.12575374 9.3191118e-17)
(459.76552 -0.14482571 1.7222544e-16)
(460.45651 0.083718325 -1.324443e-16)
(459.26821 0.011604321 1.6575336e-16)
(460.48345 -0.14828276 -1.1014052e-16)
(459.39391 0.18983189 -2.4527084e-17)
(460.9764 -0.17728619 5.3902053e-17)
(458.15961 0.07261371 1.35291e-16)
(462.83792 -0.024306161 -7.9891586e-17)
(457.43459 0.01539823 4.7242798e-16)
(462.45592 0.17771008 -4.2428874e-16)
(458.00451 -0.29920294 1.5764359e-16)
(461.6829 0.36298864 -9.2308091e-17)
(457.74481 -0.22409845 9.8070986e-17)
(460.83049 -0.050273756 5.2709094e-18)
(459.04037 0.18457912 -2.7060429e-16)
(459.81871 -0.072865199 6.7027331e-17)
(459.83405 -0.038319032 -6.1536044e-17)
(460.29052 -0.026547756 1.9110347e-16)
(459.44073 0.10802939 -8.7909787e-17)
(459.9935 -0.21653418 1.9636232e-16)
(460.36966 0.31626549 -3.5204048e-16)
(458.92104 -0.035855661 3.5709191e-16)
(460.35595 -0.22946522 1.3156762e-17)
(459.47303 0.11926828 -1.8051927e-16)
(459.59209 0.0091485044 -1.6948128e-16)
(459.84126 -0.22654055 -7.2837802e-17)
(460.3187 0.034591957 2.5118447e-16)
(459.84273 -0.095442118 1.0960886e-16)
(460.11676 0.12873933 -6.1164734e-17)
(460.12053 0.30359417 1.3902265e-16)
(459.53264 -0.49796978 2.504393e-17)
(459.75236 0.24570999 -1.0125503e-16)
(459.56333 0.3788986 1.8784512e-16)
(459.73389 -0.58494233 3.0001046e-16)
(459.28485 0.22133519 -5.922136e-17)
(459.7393 0.40556446 9.568633e-17)
(459.55233 -0.76551565 4.1703934e-18)
(459.73973 0.032122659 -1.2205327e-16)
(460.53835 0.62176205 1.9108205e-16)
(459.44323 -0.31548463 2.5365383e-16)
(459.82056 -0.15034807 -1.1513999e-17)
(460.06238 0.17375727 2.0569246e-16)
(459.68504 -0.14528349 1.2681653e-16)
(460.38283 -0.02931339 2.6912858e-16)
(459.67651 0.087787048 1.1618759e-16)
(460.2605 0.33861753 -1.5759314e-17)
(458.57888 -0.49083565 -1.1586865e-16)
(460.38516 0.37971107 1.568946e-16)
(458.4183 -0.15590979 -1.6783816e-16)
(461.68552 -0.31404368 2.7334008e-16)
(456.46096 -0.26695276 -1.1734699e-16)
(464.38644 -0.062437312 -1.790131e-16)
(456.35051 -0.017639267 3.349051e-17)
(462.99017 -0.094704225 1.7110588e-17)
(456.72636 -0.029534407 -1.1063993e-17)
(464.13174 -1.300985 3.0494811e-17)
(458.16799 2.5704356 -1.2162222e-16)
(460.81471 -1.5172626 1.6765793e-16)
(457.63747 1.1041351 -2.4533229e-16)
(460.01416 -0.12964078 6.0127486e-17)
(458.36614 0.53486366 8.1672299e-17)
(457.24575 -1.3713502 4.0804453e-17)
(461.06059 1.3134224 -9.5709703e-17)
(460.09645 -1.2619823 2.3291872e-16)
(458.51496 -0.19263633 -1.9150628e-16)
(459.26635 0.15242697 -1.5279167e-16)
(461.99853 0.7157861 3.1402158e-17)
(454.88593 0.33475342 1.5131091e-17)
(459.14816 -1.3493975 -7.9611084e-17)
(462.52603 0.077246338 3.8548173e-17)
(460.41873 0.31981313 1.538383e-16)
(459.70957 -0.063200045 -5.8057153e-17)
(459.50837 0.028189264 -1.6111036e-16)
(460.30391 0.013188513 3.0208528e-16)
(459.79288 0.13394189 -7.1493273e-17)
(459.58525 -0.18429527 3.6515782e-17)
(460.29197 0.13487021 -1.3119906e-16)
(459.44193 -0.018488497 2.9491242e-16)
(459.71945 -0.16443556 -1.0059577e-16)
(460.5586 0.20207965 3.7546113e-16)
(459.39758 -0.19186056 -1.4958691e-16)
(460.49501 0.084387923 4.2639149e-16)
(460.60398 -0.054758163 -1.9958006e-16)
(459.8907 -0.018069406 2.7687814e-16)
(460.91775 0.27145529 -2.1122635e-16)
(458.69648 -0.35791378 1.1950375e-16)
(461.54875 0.47390017 6.9347375e-17)
(457.22871 -0.17583399 -2.6580499e-17)
(461.05488 -0.16038174 2.5743891e-16)
(458.46019 0.24155001 -4.6810036e-16)
(459.9306 -0.10933505 3.2836401e-16)
(460.20583 -0.22857911 -2.4053099e-16)
(459.47332 0.29207263 5.3466787e-16)
(460.59921 -0.13623352 -2.0499094e-16)
(459.21628 -0.23297549 2.7159042e-17)
(461.07771 0.58544145 -3.8027628e-16)
(459.15124 -0.41813564 2.3904216e-16)
(459.92133 0.31358897 -1.5541547e-16)
(459.98864 -0.54776291 3.5282581e-16)
(459.87175 0.63393894 1.6565331e-16)
(459.26292 -0.71373682 -8.3262582e-17)
(460.72404 0.17861868 5.2224151e-17)
(460.17362 0.040259635 -4.7322366e-17)
(459.55882 -0.16120056 1.390509e-17)
(460.38883 0.63288478 -1.5840085e-16)
(459.87553 -0.76029993 -5.0562684e-17)
(459.26605 0.48118394 -3.8565686e-18)
(459.64043 0.24056975 -1.6165584e-16)
(459.96162 -0.3834506 5.3761014e-17)
(458.62461 0.16781729 -1.6319655e-16)
(459.66822 0.1967803 6.4728661e-16)
(459.89993 -0.61328798 -1.6220728e-16)
(459.09549 0.035740405 1.5281223e-16)
(460.41844 0.49241918 -1.1870558e-16)
(459.93363 -0.1682974 3.5988176e-16)
(459.66419 -0.18119988 -2.6612941e-16)
(460.17627 0.18122368 1.4314771e-16)
(459.96017 -0.32172554 -2.792138e-16)
(460.59036 0.068812091 2.2710784e-16)
(459.66335 0.22328655 -1.1408938e-16)
(460.199 0.42474886 3.690694e-17)
(458.97953 -0.66273061 8.128529e-17)
(459.72819 0.54270746 -1.6303487e-16)
(458.55319 -0.42502063 2.7521049e-17)
(461.06705 0.16054149 3.0245814e-17)
(456.36302 -0.6498625 -9.0508686e-17)
(464.20021 0.18097338 9.039247e-17)
(455.437 -0.15277167 -1.4262755e-16)
(464.86301 0.14948038 -1.7514678e-16)
(453.4589 -0.40526704 1.4452554e-16)
(466.98314 -1.6376584 2.1604616e-16)
(455.55586 2.6487987 -6.8618794e-17)
(461.94697 -0.88081502 -2.6743069e-17)
(457.38549 0.83753553 -3.679284e-17)
(458.50337 -0.32978838 9.9884177e-17)
(459.53749 0.96563642 -2.0052084e-16)
(456.0737 -1.1637624 -1.1956716e-16)
(459.38958 1.0596977 -9.4633956e-19)
(461.14288 -1.1077593 -1.6239114e-16)
(458.14067 -0.17865125 -3.0251887e-17)
(457.16122 0.14792127 -1.4335338e-16)
(461.96641 1.0824165 -1.0801558e-16)
(454.52274 -0.32398787 1.5424619e-16)
(458.41427 -2.0102428 1.4011271e-16)
(461.92809 0.16428429 1.386106e-17)
(459.64477 0.46146104 9.3414961e-17)
(460.63949 0.0052423191 -1.4134871e-16)
(458.18159 -0.0010488949 2.9037109e-16)
(460.46682 -0.044866789 -1.2290013e-16)
(459.57207 0.22327453 1.7994534e-16)
(459.22908 -0.28626034 7.8293116e-17)
(460.34035 0.20382198 -9.2612117e-17)
(459.24539 -0.023867917 1.5194012e-16)
(459.902 -0.21380141 5.333645e-17)
(460.55143 0.24431227 1.2217002e-16)
(459.28542 -0.30869871 1.4844273e-16)
(461.58413 0.14798273 -1.1822656e-16)
(458.95566 -0.068032903 1.7897277e-17)
(461.62206 -0.027240961 2.101931e-16)
(459.22896 0.31986855 1.7053927e-16)
(460.07018 -0.37424768 -4.3355715e-17)
(459.76542 0.58790828 1.4578361e-16)
(459.67268 -0.2089353 -1.729168e-16)
(458.55184 -0.12535906 1.8835464e-16)
(460.85939 0.21006676 -4.012398e-17)
(458.53896 -0.20382817 3.4608667e-16)
(460.54989 -0.074738564 -2.7874034e-16)
(459.9937 -0.015086697 2.4540008e-16)
(460.10893 0.14393699 -2.2107871e-16)
(459.91556 -0.24731504 2.6899965e-16)
(460.9952 0.24838788 -1.3107791e-16)
(459.4363 0.22563122 4.0114315e-16)
(459.88017 -0.45000988 -5.2796853e-16)
(460.31322 0.3428774 4.5468809e-16)
(459.7104 -0.20912704 -2.36385e-16)
(459.26421 -0.14190705 -5.9865718e-17)
(460.2033 -0.16895432 -2.5201017e-17)
(460.05767 0.20946577 -7.7465454e-17)
(460.19432 -0.11398286 2.2009705e-16)
(459.19923 0.28771636 6.5537746e-17)
(460.34889 -0.33208799 -3.287818e-16)
(459.71863 0.23656542 5.4112172e-17)
(458.13081 0.32410029 -1.8599525e-16)
(460.89906 -0.40513875 3.9846618e-16)
(458.7448 0.41138277 -1.3509592e-16)
(458.42316 -0.057846978 1.5598331e-16)
(460.61181 -0.63758878 -1.6343652e-16)
(458.80556 0.074970612 2.546008e-16)
(459.95986 0.45437265 -1.9379492e-16)
(460.23577 -0.16368475 1.3756895e-16)
(459.84004 -0.099285396 1.940091e-17)
(459.82314 -0.02610005 -1.0082813e-16)
(459.50337 -0.12564281 1.7423346e-16)
(460.41447 0.025686023 -1.7975411e-16)
(459.57633 0.14289988 7.2924036e-17)
(459.68098 0.47296867 -1.7432634e-16)
(458.63729 -0.32394589 1.1075918e-16)
(459.03469 0.44043555 1.7467398e-16)
(457.90525 -0.61572598 -2.7830609e-16)
(460.33896 0.14062843 1.6297388e-16)
(455.35347 -0.40852501 -2.5889722e-16)
(463.78763 0.0030521468 3.0002129e-16)
(454.08321 -0.31601891 -1.8485224e-16)
(465.44233 0.61760562 -1.7508894e-16)
(450.00242 -0.49755109 -1.4201943e-16)
(467.25156 -1.85354 1.7238604e-16)
(453.26902 2.735387 -2.6012418e-16)
(461.94912 -1.7886307 1.1477071e-16)
(455.78073 1.9434599 -2.195212e-16)
(456.56694 -0.78259682 -2.9449475e-17)
(458.39748 0.73744674 -1.3763747e-16)
(454.637 -0.81927222 5.4350533e-17)
(456.78991 0.73506676 1.3309516e-16)
(459.74143 -0.4775288 -1.6032237e-16)
(456.98834 0.00078442015 -1.0948921e-16)
(454.62626 -0.1705476 6.9167817e-17)
(461.86655 0.72497976 -9.1773029e-17)
(452.3051 0.79493021 -1.0895947e-16)
(455.22785 -2.6333157 1.6403994e-16)
(460.25753 -0.055115652 1.1915627e-17)
(458.08028 0.6320861 -3.9266473e-17)
(461.57499 0.097971075 -1.039861e-16)
(457.23391 0.014991633 -5.9679419e-17)
(460.43755 -0.16448167 -2.6159684e-16)
(459.45952 0.32024327 -1.56267e-16)
(458.74975 -0.35789567 2.0241927e-17)
(460.85173 0.18577016 4.9550324e-19)
(458.93302 -0.013059327 -1.8090393e-16)
(460.57217 -0.24158327 2.0920099e-16)
(459.95271 0.26429018 -3.1871248e-17)
(459.77407 -0.36623462 -7.1792355e-17)
(461.11527 0.16453728 -1.491535e-16)
(458.55075 -0.072362329 1.2128114e-16)
(461.4245 0.0065039634 8.3538134e-18)
(459.51132 0.33614165 2.2336099e-16)
(459.44014 -0.35895893 -7.0798762e-17)
(460.79156 0.4764957 5.1505539e-17)
(459.86433 0.035894988 -1.3729037e-17)
(458.37368 -0.31276226 3.7639978e-17)
(462.39325 0.20673063 1.2185059e-18)
(456.99488 -0.017101015 4.6927412e-17)
(462.35171 -0.39603504 -9.5749051e-18)
(458.23898 0.28098981 1.3055606e-16)
(461.90724 -0.15818125 -1.3757626e-16)
(458.66951 -0.14544571 2.4154303e-16)
(461.28555 0.49541138 -5.0172149e-16)
(459.86581 -0.27165206 4.2584557e-16)
(459.1004 0.22797595 -3.6906407e-16)
(460.64635 -0.42356389 6.4078326e-16)
(459.43448 0.80693272 -2.5219059e-16)
(458.66964 -1.1325855 2.0553341e-16)
(460.3971 0.46098963 -3.807848e-17)
(459.03605 -0.13054879 1.5940335e-18)
(460.56627 0.035802921 -1.552553e-16)
(459.12923 0.29963832 2.5268219e-16)
(459.12697 -0.65605266 -6.0403915e-17)
(460.64318 0.7252538 1.6170439e-16)
(457.26929 -0.040849376 -9.5228864e-17)
(460.32825 -0.39020415 7.1569304e-17)
(459.66511 0.66494936 1.3098414e-16)
(457.10672 -0.28230442 4.5173927e-17)
(460.18927 -0.58446258 -1.4811998e-17)
(458.24614 0.011125868 2.9337806e-16)
(459.94175 0.40362733 -1.4951503e-16)
(458.90767 -0.28726081 1.8966685e-16)
(458.83203 0.19266559 -1.8219215e-16)
(459.34933 -0.052290551 1.4539354e-16)
(456.99966 -0.3594745 7.0431935e-17)
(459.07755 0.14285728 1.1604026e-16)
(458.79461 0.47864702 5.4022458e-17)
(457.76648 0.10401216 -4.1631145e-16)
(457.20746 -0.12604166 -2.2586715e-16)
(457.17042 0.7398982 1.7934471e-16)
(455.72569 -0.78488367 -1.4819004e-17)
(458.1974 0.15613098 1.2522727e-16)
(453.63341 -0.88564435 -2.4804256e-16)
(459.76941 0.26786777 4.3576706e-16)
(453.88899 -0.49717153 -4.1810773e-16)
(460.4493 0.96983454 -8.1179217e-17)
(448.60467 -0.38641855 8.0454643e-17)
(460.97735 -2.4421199 1.4167715e-16)
(452.63256 3.6830615 -1.9429591e-16)
(456.64284 -2.4023075 -1.6271721e-16)
(453.69173 1.8311523 -2.8332886e-16)
(454.46242 -0.72731389 1.9913139e-16)
(450.27165 0.89444203 -6.9610617e-17)
(452.60706 -0.52205772 -1.0007868e-16)
(453.28776 -0.53674149 4.6547118e-17)
(455.22616 -0.10179301 -1.0476288e-16)
(453.0555 0.6750125 -1.0116766e-16)
(447.77862 -0.91745222 1.6315845e-16)
(465.3206 1.0775938 -1.7660256e-16)
(448.57369 1.1620077 -7.4049383e-18)
(443.58017 -3.10901 -4.6727869e-17)
(454.22785 -0.2845922 -5.831471e-18)
(455.45491 1.0643912 -6.2007363e-17)
(461.38281 0.14248079 -3.9557488e-17)
(457.60317 0.10872258 3.4315755e-16)
(460.34291 -0.32026517 4.4870593e-16)
(459.74524 0.4384488 2.9538341e-16)
(458.61145 -0.4471891 -1.0261191e-16)
(461.63848 0.19537188 2.2758514e-16)
(458.1445 -0.048709778 4.8246664e-17)
(461.68 -0.21934358 1.8955289e-16)
(458.48017 0.25066934 5.2262053e-17)
(461.01787 -0.36197096 1.307073e-16)
(459.15248 0.24437241 1.7520113e-16)
(460.07375 -0.18748062 1.6078091e-16)
(460.01929 -0.051651388 5.1437162e-17)
(460.72586 0.53916059 -5.8332483e-17)
(458.85348 -0.57339858 9.6108545e-17)
(462.18039 0.51271919 1.9421976e-16)
(458.63702 0.10808864 -8.3755194e-17)
(460.58507 -0.35739054 -7.6340739e-17)