/*--------------------------------*- C++ -*----------------------------------*\
| =========                 |                                                 |
| \\      /  F ield         | OpenFOAM: The Open Source CFD Toolbox           |
|  \\    /   O peration     | Version:  2.3.0                                 |
|   \\  /    A nd           | Web:      www.OpenFOAM.org                      |
|    \\/     M anipulation  |                                                 |
\*---------------------------------------------------------------------------*/
FoamFile
{
    version     2.0;
    format      ascii;
    class       volScalarField;
    location    "2.05";
    object      alpha.water;
}
// * * * * * * * * * * * * * * * * * * * * * * * * * * * * * * * * * * * * * //

dimensions      [0 0 0 0 0 0 0];

internalField   nonuniform List<scalar> 
2268
(
1
1
1
1
1
1
1
1
1
1
1
1
0.999998
0.999997
0.999997
0.999998
1
0.999876
0.988656
0.979623
0.994435
0.994504
0.989458
1
1
1
1
1
1
1
1
1
1
0.999999
0.999997
0.999997
0.999997
0.999998
0.999999
1
0.99967
0.978683
0.978548
0.992031
0.996952
0.992565
1
1
1
1
1
1
1
1
0.999999
0.999999
0.999998
0.999998
0.999999
0.999999
0.999999
1
1
1
0.984021
0.978548
0.978666
0.998125
0.999923
1
1
1
1
1
1
1
1
0.999999
0.999999
0.999999
0.999999
1
1
1
1
1
1
0.998419
0.978548
0.978548
0.994366
0.999931
1
1
1
1
1
1
1
1
0.999999
0.999999
1
1
1
1
1
1
1
1
1
0.988229
0.983562
0.995931
0.999971
1
1
1
1
1
1
0.999999
0.999999
1
1
1
1
1
1
1
1
1
1
1
0.999968
0.999498
0.999807
0.999973
1
1
1
1
1
1
1
1
1
1
1
1
1
1
1
1
1
0.999999
0.999997
0.999997
0.999996
0.999988
0.99999
1
1
1
1
1
1
0.999999
1
1
1
1
1
1
1
1
1
1
1
1
0.999998
0.999997
0.999995
0.999994
0.979088
0.961965
0.936089
0.935155
0.934617
0.931096
0.922041
0.921293
0.93548
0.974513
0.995386
0.995442
0.995442
0.987896
0.919685
0.915715
0.964337
0.964351
0.964351
0.979071
0.955699
0.964137
0.990574
0.993986
0.99003
0.974224
0.931088
0.910823
0.910871
0.925821
0.9884
0.995442
0.994086
0.906903
0.907321
0.918261
0.96432
0.964351
0.959993
0.956167
0.996294
0.996333
0.996291
0.996291
0.99629
0.996291
0.958636
0.910752
0.91132
0.951398
0.99522
0.99484
0.906305
0.906704
0.90733
0.931528
0.96432
0.979406
0.98267
0.996252
0.996327
0.996308
0.996279
0.996275
0.996296
0.996297
0.946261
0.928126
0.975644
0.995017
0.994937
0.959299
0.907338
0.907354
0.911466
0.961759
0.996246
0.996328
0.99632
0.996339
0.996135
0.99611
0.99611
0.996292
0.996299
0.971182
0.985977
0.995001
0.99506
0.995069
0.994675
0.907351
0.907381
0.941926
0.941359
0.993765
0.996269
0.996315
0.996344
0.996311
0.996266
0.99614
0.996301
0.996296
0.984959
0.924825
0.994959
0.995073
0.995073
0.995073
0.945235
0.907649
0.960616
0.963566
0.9897
0.996056
0.996304
0.996325
0.996306
0.996305
0.996305
0.996305
0.996301
0.901981
0.682958
0.72269
0.98918
0.995076
0.995014
0.994948
0.967117
0.98093
0.981719
0.992014
0.995181
0.995888
0.996151
0.996303
0.996305
0.996305
0.996304
0.996238
0.847921
0.67287
0.672431
0.716692
0.97306
0.994948
0.994907
0.994409
0.984819
0.983003
1
1
1
1
0.999998
0.999994
0.999992
0.999991
0.999992
0.999994
0.999996
0.999998
0.999999
0.999999
0.999999
0.999999
1
1
1
0.999999
0.999997
0.999997
0.999997
0.720737
0.719123
0.71841
0.719928
0.729019
0.748183
0.774776
0.805866
0.836673
0.864331
0.888896
0.910994
0.929727
0.945188
0.958603
0.970125
0.977251
0.977686
0.975403
0.970236
0.959632
0.937712
0.895434
0.0322581
0.0371897
0.040029
0.042737
0.0481849
0.0572547
0.0707901
0.0884239
0.111758
0.139167
0.167868
0.195406
0.221936
0.2479
0.27427
0.297846
0.315884
0.324514
0.32117
0.305796
0.272807
0.217332
0.139371
0.00152553
0.00155048
0.00152679
0.00157029
0.0017448
0.0014736
0.00141263
0.00134611
0.00126539
0.00115479
0.00101418
0.000837031
0.000615197
0.000336355
0.000152556
0.000133728
0.000136645
0.000133887
0.000222538
0.000846019
0.00179382
0.00266452
0.00325335
0.00308042
0.00298087
0.00361295
0.00606592
0.0080385
0.00803301
0.00803301
0.00281159
0.00577789
0.0112054
0.0143647
0.0144343
0.0144763
0.014441
0.0144679
0.00288389
0.000136645
0.00592198
0.0236519
0.023468
0.0237117
0.0135906
0.00714466
0.000559523
0.000228758
0.00013576
6.60872e-06
5.47649e-07
0.00011698
0.00207712
0.00614317
0.00613941
0.00485285
0.00429608
0.00562885
0.0082413
0.0120067
0.0058143
0.00113391
0.000339271
0.00387246
0.0186524
0.0227008
0.0193667
0.0162821
0.0285962
5.81607e-07
2.4367e-07
4.98606e-07
4.25461e-07
4.3491e-07
4.26076e-07
4.27997e-07
7.67923e-07
2.49096e-07
2.50118e-07
2.48943e-07
3.68694e-07
2.58418e-06
3.26003e-05
0.00227718
0.00027511
0.000520476
0.00149833
0.000125572
5.12736e-05
6.85108e-06
6.66788e-06
7.74967e-05
1.42712e-08
2.01078e-08
8.4336e-07
3.85664e-06
3.85276e-06
9.33169e-07
3.21764e-06
1.17628e-05
8.09444e-06
1.98315e-07
2.90297e-07
7.83731e-06
0.00126203
0.00246341
0.00182075
0.000258128
0.000240173
0.000375516
0.000835455
4.31184e-05
5.56206e-06
4.22492e-06
3.04541e-06
1.45986e-09
1.08897e-08
3.39781e-06
3.95288e-06
2.67726e-06
9.21482e-07
1.60641e-05
1.69356e-05
1.34307e-05
5.26348e-09
1.42549e-07
0.000221712
0.00155924
0.00246341
0.00246341
0.00135125
0.000240616
0.00024955
0.0010859
0.000815444
4.26291e-06
4.14406e-06
4.10986e-06
1.37744e-09
3.58624e-08
2.83991e-07
1.78201e-06
1.90449e-07
9.02622e-07
4.40172e-06
1.08439e-05
1.79257e-06
7.29848e-10
2.56289e-07
5.42824e-06
2.93186e-05
0.000795712
0.00227177
0.00198187
0.000279178
0.000118909
0.0010363
0.00102575
0.000286281
4.2644e-06
2.21786e-05
1.37676e-09
1.38312e-09
1.0511e-09
1.33696e-09
1.22665e-09
2.36788e-08
1.5017e-09
2.69944e-08
6.98026e-10
5.40711e-10
1.10786e-08
1.48977e-08
7.02944e-08
1.39253e-05
0.000342132
0.000762987
0.000280705
0.000103848
0.000768233
0.000986113
0.000389988
5.45055e-06
5.39214e-05
3.21587e-08
5.12762e-10
9.87368e-10
1.08449e-09
1.18766e-09
1.2258e-09
1.18152e-09
6.37573e-10
4.90372e-10
4.87884e-10
2.95155e-09
1.4655e-08
2.39075e-08
4.12673e-08
3.63049e-07
1.3229e-06
2.01342e-05
0.00010309
0.000484026
0.00020068
6.02143e-05
2.21405e-05
7.91622e-05
5.73086e-08
5.12866e-10
1.81154e-09
2.21127e-09
2.25199e-09
2.23864e-09
1.73298e-09
7.27299e-10
4.82049e-10
4.59627e-10
2.09115e-09
1.86907e-08
2.57852e-08
2.76657e-09
2.19763e-08
9.40034e-08
1.18571e-06
5.38988e-05
6.80995e-05
4.35453e-08
5.55985e-08
9.76565e-07
5.50074e-05
5.71048e-08
5.15232e-10
1.67661e-09
2.27347e-09
2.30882e-09
2.30488e-09
1.92055e-09
8.12599e-10
4.66561e-10
4.33931e-10
1.80645e-09
6.27933e-09
6.43918e-09
4.39896e-10
1.96031e-09
7.36252e-09
8.92259e-07
8.32433e-06
4.35379e-08
1.85959e-09
9.26415e-09
5.5577e-08
3.58167e-05
5.8884e-08
7.06065e-10
1.27489e-09
1.42984e-09
1.94269e-09
2.1071e-09
1.84158e-09
9.68636e-10
4.43419e-10
3.37438e-10
4.56664e-10
2.79639e-10
1.63775e-10
1.65086e-10
2.60839e-10
1.9031e-09
8.70799e-08
1.36973e-08
1.79581e-09
3.66311e-10
2.50084e-09
9.26147e-09
1.97941e-05
5.88826e-08
1.96028e-08
1.67898e-09
1.06697e-09
1.18717e-09
1.34344e-09
1.3813e-09
1.20108e-09
5.97237e-10
2.95143e-10
2.18918e-10
1.7152e-10
1.49544e-10
1.41631e-10
1.22142e-10
1.5304e-10
2.82901e-10
7.35583e-10
2.57935e-10
2.7319e-10
3.64448e-10
7.82737e-07
2.3238e-05
5.474e-08
3.54328e-08
1.11211e-08
1.06335e-09
1.06056e-09
1.05587e-09
9.84696e-10
9.42762e-10
7.60495e-10
3.78281e-10
2.25276e-10
1.70072e-10
1.47632e-10
1.40648e-10
1.09532e-10
1.04768e-10
9.61185e-11
1.33496e-10
8.39274e-11
2.66115e-10
2.71155e-10
8.11729e-07
1.32738e-05
1.08167e-08
1.80775e-08
1.77226e-08
1.06507e-09
1.06739e-09
1.21004e-09
8.4614e-10
7.05942e-10
6.54119e-10
4.31165e-10
2.71938e-10
1.75901e-10
1.32055e-10
1.15056e-10
1.0526e-10
1.01844e-10
8.34749e-11
8.25539e-11
7.37544e-11
7.0085e-11
2.76779e-08
9.41757e-07
2.78568e-07
5.09324e-09
4.88937e-09
4.81721e-09
1.33946e-09
1.45556e-09
1.46647e-09
1.13702e-09
6.59492e-10
4.92613e-10
3.81766e-10
2.65869e-10
1.79605e-10
1.27797e-10
9.9618e-11
8.50617e-11
7.80298e-11
7.90128e-11
1.0732e-10
7.00415e-11
6.97531e-11
3.93238e-08
2.1141e-07
1.07006e-09
5.21928e-09
3.24422e-06
1.08793e-09
1.08091e-09
1.18615e-09
1.4735e-09
1.39958e-09
8.53963e-10
4.64884e-10
3.2852e-10
2.36238e-10
1.704e-10
1.24155e-10
9.20178e-11
7.10167e-11
5.81712e-11
5.27532e-11
6.0575e-11
6.03708e-11
7.3816e-10
8.39214e-09
7.26384e-11
3.71621e-11
2.6579e-05
3.24202e-05
1.47614e-05
1.06068e-09
1.0542e-09
1.12031e-09
1.33846e-09
1.01291e-09
5.26405e-10
3.09321e-10
2.02747e-10
1.46346e-10
1.08278e-10
8.07282e-11
5.96735e-11
4.38447e-11
3.38325e-11
3.04109e-11
3.31509e-11
1.81725e-10
2.34933e-11
2.02709e-11
2.78764e-11
3.29191e-05
3.2953e-05
3.29191e-05
3.36041e-06
8.98035e-10
8.98367e-10
9.02558e-10
8.49305e-10
5.8045e-10
3.05992e-10
1.84537e-10
1.26499e-10
8.72767e-11
6.26505e-11
4.45657e-11
3.05668e-11
2.2168e-11
1.72074e-11
1.51151e-11
2.9337e-11
1.79126e-11
1.65625e-11
1.23327e-11
2.69541e-05
3.29356e-05
2.61186e-05
3.79475e-06
8.41774e-08
2.39229e-08
8.26865e-10
8.4039e-10
5.19669e-10
2.69921e-10
1.53542e-10
1.03164e-10
6.44845e-11
4.25037e-11
2.91283e-11
2.02613e-11
1.44754e-11
1.05871e-11
8.00694e-12
7.2625e-12
5.77106e-12
4.51113e-12
4.1275e-12
1.62847e-06
1.01874e-05
2.38554e-06
1.06277e-06
9.60874e-08
1.23867e-08
6.29417e-10
8.20985e-10
5.18516e-10
2.61376e-10
1.341e-10
7.5213e-11
4.5267e-11
2.90184e-11
1.93422e-11
1.31834e-11
9.12652e-12
6.38372e-12
4.50571e-12
3.25477e-12
2.34954e-12
1.73857e-12
1.4237e-12
6.19265e-09
1.6814e-08
4.49762e-09
1.23154e-09
1.43818e-08
1.53976e-09
4.39702e-10
3.83599e-10
2.54754e-10
1.53456e-10
8.87904e-11
5.18733e-11
3.13469e-11
1.96925e-11
1.27265e-11
8.35807e-12
5.53332e-12
3.67843e-12
2.45301e-12
1.64321e-12
1.10602e-12
7.52585e-13
5.35976e-13
3.30275e-10
8.67298e-10
2.53137e-10
1.01365e-10
9.10078e-11
1.47703e-10
1.9172e-10
1.66843e-10
1.2139e-10
7.73525e-11
4.76235e-11
2.92751e-11
1.81956e-11
1.14334e-11
7.22828e-12
4.57707e-12
2.89576e-12
1.82944e-12
1.15491e-12
7.29733e-13
4.62385e-13
2.9452e-13
1.90137e-13
3.58272e-11
6.50118e-11
4.78671e-11
4.8099e-11
7.60197e-11
1.01783e-10
9.32677e-11
7.29998e-11
5.10123e-11
3.36419e-11
2.16251e-11
1.37226e-11
8.62295e-12
5.36535e-12
3.30499e-12
2.01658e-12
1.2201e-12
7.33215e-13
4.38559e-13
2.61782e-13
1.56358e-13
9.37281e-14
5.67116e-14
1.21715e-11
1.7716e-11
3.08754e-11
4.2554e-11
4.67061e-11
4.36392e-11
3.61821e-11
2.70027e-11
1.87612e-11
1.24837e-11
8.07241e-12
5.10365e-12
3.16247e-12
1.92244e-12
1.1479e-12
6.74368e-13
3.90622e-13
2.23636e-13
1.2694e-13
7.16697e-14
4.03984e-14
2.28955e-14
1.33379e-14
7.1196e-12
1.68252e-11
1.58247e-11
1.66278e-11
1.62193e-11
1.41918e-11
1.11638e-11
8.07991e-12
5.51449e-12
3.60913e-12
2.28814e-12
1.41278e-12
8.51597e-13
5.01838e-13
2.8935e-13
1.6346e-13
9.06568e-14
4.95092e-14
2.66989e-14
1.42766e-14
7.63091e-15
4.20206e-15
2.69516e-15
9.88319e-13
3.05911e-12
3.81604e-12
4.19332e-12
3.99258e-12
3.35659e-12
2.55008e-12
1.79432e-12
1.19257e-12
7.59087e-13
4.67098e-13
2.79377e-13
1.62834e-13
9.25568e-14
5.13808e-14
2.7882e-14
1.48191e-14
7.73438e-15
3.97682e-15
2.02952e-15
1.06973e-15
7.04933e-16
8.72464e-16
1.12024e-13
4.47919e-13
6.51242e-13
7.31087e-13
6.85213e-13
5.61596e-13
4.15704e-13
2.84844e-13
1.84013e-13
1.13583e-13
6.75838e-14
3.89732e-14
2.18509e-14
1.19403e-14
6.37164e-15
3.33064e-15
1.70043e-15
8.46895e-16
4.15749e-16
2.12655e-16
1.51628e-16
2.4818e-16
6.82753e-16
1.11521e-14
5.06349e-14
7.86428e-14
8.86196e-14
8.19339e-14
6.59234e-14
4.78099e-14
3.20163e-14
2.01454e-14
1.20512e-14
6.91548e-15
3.83423e-15
2.06425e-15
1.08635e-15
5.60259e-16
2.79433e-16
1.34919e-16
6.38435e-17
3.1996e-17
2.61415e-17
5.80926e-17
1.96818e-16
6.72584e-16
1.0306e-15
4.57902e-15
7.01565e-15
7.73285e-15
7.00702e-15
5.53579e-15
3.94089e-15
2.58374e-15
1.58417e-15
9.18113e-16
5.07596e-16
2.70973e-16
1.41064e-16
7.15729e-17
3.47754e-17
1.62365e-17
7.39025e-18
3.64687e-18
3.56327e-18
1.05422e-17
4.26021e-17
1.68683e-16
6.27543e-16
9.09587e-17
3.60869e-16
5.06757e-16
5.2729e-16
4.59831e-16
3.53849e-16
2.45904e-16
1.57272e-16
9.36066e-17
5.24202e-17
2.80598e-17
1.45348e-17
7.19941e-18
3.38568e-18
1.51911e-18
6.6074e-19
3.18684e-19
3.69402e-19
1.38577e-18
6.56698e-18
3.00087e-17
1.28777e-16
5.18566e-16
7.65431e-18
2.68735e-17
3.33837e-17
3.18156e-17
2.60862e-17
1.91917e-17
1.28251e-17
7.89981e-18
4.52257e-18
2.44098e-18
1.2463e-18
5.96824e-19
2.69174e-19
1.15009e-19
4.73065e-20
2.17164e-20
2.73593e-20
1.21885e-19
6.74455e-19
3.58485e-18
1.78242e-17
8.29023e-17
3.62383e-16
6.06293e-19
1.95095e-18
2.15978e-18
1.87571e-18
1.42737e-18
9.79797e-19
6.17669e-19
3.57487e-19
1.90571e-19
9.3956e-20
4.30451e-20
1.84229e-20
7.41235e-21
2.84613e-21
1.19536e-21
1.38842e-21
6.57051e-21
4.20195e-20
2.64243e-19
1.55007e-18
8.43465e-18
4.28209e-17
2.04495e-16
4.41735e-20
1.35027e-19
1.36044e-19
1.08186e-19
7.56225e-20
4.75273e-20
2.70477e-20
1.39989e-20
6.61989e-21
2.87622e-21
1.1554e-21
4.32187e-22
1.52675e-22
5.68495e-23
5.13022e-23
2.07628e-22
1.40195e-21
1.05128e-20
7.51501e-20
4.93353e-19
2.98013e-18
1.67309e-17
8.83181e-17
2.8152e-21
8.41198e-21
7.72347e-21
5.62889e-21
3.58529e-21
2.03089e-21
1.02699e-21
4.65839e-22
1.90857e-22
7.12115e-23
2.44146e-23
7.80134e-24
2.53678e-24
1.66147e-24
4.70241e-24
2.3238e-23
1.84123e-22
1.65523e-21
1.38181e-20
1.04213e-19
7.15807e-19
4.53838e-18
2.69496e-17
1.67e-22
4.65819e-22
3.9362e-22
2.64751e-22
1.54261e-22
7.80762e-23
3.44478e-23
1.33511e-23
4.5969e-24
1.42388e-24
4.03202e-25
1.12641e-25
5.6021e-26
1.10645e-25
3.40892e-25
1.26725e-24
1.1741e-23
1.32917e-22
1.35749e-21
1.22971e-20
1.00047e-19
7.42516e-19
5.11044e-18
1.01987e-23
2.20842e-23
1.81661e-23
1.15004e-23
6.19301e-24
2.77921e-24
1.04426e-24
3.33338e-25
9.21366e-26
2.25324e-26
5.22146e-27
2.06998e-27
3.23076e-27
7.59807e-27
1.46604e-26
2.72905e-26
2.41681e-25
3.65259e-24
4.94573e-23
5.84681e-22
6.11215e-21
5.73644e-20
4.917e-19
6.15545e-25
8.81713e-25
7.53512e-25
4.80132e-25
2.39884e-25
9.35804e-26
2.86804e-26
7.06157e-27
1.44154e-27
2.60249e-28
7.84283e-29
1.20223e-28
2.37581e-28
3.923e-28
3.87329e-28
2.45901e-28
6.26692e-28
1.34502e-26
2.86715e-25
5.27723e-24
8.48428e-23
1.20776e-21
1.54344e-20
3.38662e-26
2.41307e-26
2.64811e-26
1.81621e-26
8.47414e-27
2.82135e-27
6.65251e-28
1.11543e-28
1.39079e-29
2.38724e-30
4.09976e-30
9.12188e-30
1.34375e-29
1.36794e-29
5.36084e-30
1.13484e-30
1.62894e-31
7.91468e-32
3.58521e-30
1.79323e-28
7.85923e-27
3.07214e-25
1.08901e-23
0.998975
0.996162
0.991198
0.983263
0.842864
0.790411
0.713628
0.62549
0.0685362
0.00559419
0.0041769
0.00319259
0.00351691
0.00528787
0.00346521
0.00311368
0.0232196
0.0288999
0.0260886
0.00311705
0.0288999
0.0293288
0.0288999
0.0286863
0.0175831
0.0294706
0.0291152
0.0285048
-5.97459e-06
0.000160905
0.000447536
0.00110229
2.3619e-06
3.89102e-07
3.83388e-07
-2.29535e-07
1.65923e-05
2.20132e-07
2.03958e-07
2.93421e-07
6.83332e-05
1.65126e-07
1.15758e-07
2.61016e-07
0.000139083
6.85502e-05
7.00666e-08
1.70497e-07
0.000139083
0.000105215
4.75408e-08
3.12611e-07
0.000139084
7.88822e-05
2.12158e-08
4.75442e-08
0.000138651
4.99537e-05
4.75919e-09
2.12203e-08
2.27827e-05
4.41316e-09
2.3199e-10
4.73007e-09
1.62016e-09
2.26682e-10
1.10862e-10
1.87551e-10
2.35867e-09
9.39893e-11
1.0465e-10
8.39596e-11
1.05109e-10
7.68574e-11
8.65305e-11
7.90621e-11
3.83123e-11
5.5837e-11
6.22029e-11
6.60252e-11
3.11639e-11
3.66785e-11
4.34977e-11
4.97306e-11
1.3478e-11
1.69674e-11
2.08692e-11
2.53323e-11
4.45417e-12
5.32006e-12
6.5187e-12
8.17704e-12
1.36693e-12
1.42447e-12
1.59136e-12
1.90665e-12
4.62691e-13
4.18316e-13
4.02006e-13
4.18397e-13
1.52881e-13
1.25939e-13
1.0812e-13
9.86583e-14
4.37172e-14
3.41781e-14
2.75362e-14
2.33783e-14
1.01744e-14
8.01371e-15
6.66277e-15
6.00687e-15
2.32284e-15
2.23226e-15
2.40477e-15
2.84583e-15
1.07071e-15
1.40838e-15
1.91782e-15
2.64585e-15
9.82993e-16
1.41738e-15
2.03543e-15
2.90395e-15
9.97785e-16
1.4714e-15
2.15592e-15
3.13874e-15
9.46373e-16
1.42059e-15
2.12403e-15
3.16685e-15
7.94477e-16
1.21491e-15
1.85874e-15
2.8554e-15
5.64068e-16
8.80139e-16
1.38504e-15
2.21827e-15
3.23725e-16
5.17771e-16
8.48937e-16
1.45549e-15
1.42646e-16
2.36758e-16
4.17146e-16
8.06238e-16
4.47903e-17
7.96585e-17
1.60979e-16
3.77938e-16
8.97963e-18
1.86152e-17
4.81139e-17
1.46226e-16
1.00975e-18
2.95103e-18
1.07791e-17
4.36739e-17
5.36003e-20
2.78377e-19
1.45669e-18
8.76792e-18
2.12179e-22
3.03379e-21
4.27973e-20
8.2957e-19
0.957208
0.872107
0.837942
0.88915
0.942154
0.963484
0.957534
0.991257
0.994816
0.953041
0.770312
0.672431
0.672261
0.693196
0.768877
0.820944
0.940128
0.984162
0.983478
0.370059
0.150418
0.208746
0.364052
0.573214
0.692979
0.709878
0.831449
0.936236
0.951266
0.935099
0.818734
0.694287
0.676905
0.676905
0.73626
0.963159
0.982886
0.982544
0.00311249
0.00327093
0.00474708
0.0075647
0.0498489
0.165469
0.303512
0.421535
0.59689
0.813312
0.888889
0.882429
0.878359
0.844777
0.878423
0.953278
0.980403
0.980992
0.9798
0.00310617
0.00311368
0.00338759
0.00379488
0.00433976
0.00488524
0.0200411
0.0360422
0.0503641
0.183948
0.439378
0.626754
0.68714
0.72788
0.769296
0.79032
0.821081
0.904487
0.968027
0.00311268
0.00310654
0.00316957
0.00340468
0.0038508
0.00439702
0.0049241
0.00564107
0.00635703
0.00695244
0.0199535
0.159904
0.268653
0.309667
0.3281
0.333691
0.336915
0.542421
0.785671
0.0121239
0.00314894
0.00315233
0.0031746
0.00582756
0.0163017
0.0199714
0.0183811
0.0162195
0.0137624
0.0139674
0.0168194
0.0735269
0.13536
0.209025
0.236348
0.174553
0.190008
0.331019
0.0284877
0.0247896
0.0197471
0.0311457
0.0329057
0.0332158
0.0332996
0.0333653
0.0333653
0.0333653
0.0232879
0.0136428
0.0111211
0.0563818
0.114922
0.143913
0.145829
0.0771717
0.0627701
0.00966391
0.0203832
0.0232206
0.0231932
0.019684
0.0167618
0.0153073
0.0153407
0.0194903
0.0248462
0.0246867
0.0185813
0.00059761
0.00278841
2.92592e-05
2.91774e-05
0.0101224
0.0268711
0.00975514
0.00022877
0.00123145
0.00255865
0.00071925
0.000232469
0.000171271
0.000115742
6.4261e-05
5.27476e-05
4.0093e-05
0.00593489
0.00843334
2.93714e-05
2.92412e-05
2.89806e-05
2.92094e-05
2.93716e-05
2.98716e-05
3.12509e-05
4.19128e-07
1.1589e-06
6.71888e-06
3.72258e-05
0.000118283
0.000183504
0.000147026
9.88036e-05
6.87074e-05
3.89354e-05
3.35706e-05
3.48964e-05
0.000276564
2.90309e-05
2.86849e-05
2.89591e-05
2.92752e-05
3.07912e-05
3.4774e-05
2.81801e-07
4.37555e-07
1.62613e-06
0.000157413
0.000284247
0.000284146
0.000283723
0.000283427
0.00028323
0.000159768
3.24924e-05
4.02299e-05
0.000142956
2.97218e-05
2.86635e-05
2.86594e-05
4.84963e-05
0.000122523
0.00013349
2.63446e-07
2.82023e-07
4.36097e-07
0.000107551
0.000284246
0.000283916
0.00028348
0.000283163
0.000282997
0.000270439
2.08563e-05
2.05988e-05
1.92628e-05
2.88072e-05
2.8782e-05
4.03346e-05
0.000133427
0.000156876
0.000156952
9.08316e-07
5.44284e-07
6.41698e-07
7.66983e-07
0.000102391
0.000283933
0.000283075
0.000274271
0.00025462
0.000209001
2.95627e-05
1.99774e-05
1.72871e-05
1.98638e-05
4.5791e-05
0.000156301
0.000157038
0.000157092
0.000156862
6.85826e-06
1.72252e-05
1.14885e-05
4.20171e-06
4.3765e-06
0.000113176
0.000226004
2.02041e-05
3.15515e-06
0.000116369
0.000174138
0.000157418
1.1813e-05
5.70118e-06
9.2566e-05
0.000156985
0.000157092
0.000156985
0.000149293
9.9342e-06
2.85138e-05
2.84477e-05
1.02024e-05
6.99302e-06
1.47295e-06
1.10761e-07
1.8064e-07
1.72347e-06
8.29101e-05
0.000174192
0.000173295
0.000101578
4.53126e-07
2.00174e-05
0.000110057
0.000156985
0.000124184
1.3756e-05
9.22306e-06
2.85139e-05
2.85141e-05
2.85141e-05
1.36072e-05
1.32548e-07
9.52003e-08
6.21921e-07
2.03223e-06
5.89868e-06
5.81067e-05
8.58087e-05
3.51323e-05
2.39313e-07
5.82704e-06
7.48224e-05
0.000134487
1.98656e-06
1.9447e-06
1.88763e-06
2.39034e-05
2.85137e-05
2.8514e-05
2.85137e-05
1.89613e-05
3.76529e-08
3.76511e-08
3.76512e-08
3.76657e-08
3.78049e-08
3.79498e-08
3.81519e-08
4.41847e-08
1.68691e-05
5.03113e-05
2.83913e-08
1.16168e-06
2.72526e-06
1.52365e-10
6.63412e-06
2.84966e-05
2.85137e-05
2.85087e-05
2.85038e-05
6.03673e-06
3.76511e-08
3.76669e-08
4.3668e-08
3.97828e-08
3.81524e-08
3.86414e-08
7.96274e-07
5.685e-06
6.96443e-10
9.50824e-09
3.08337e-06
5.02017e-05
5.73195e-11
1.44735e-10
6.04682e-06
2.50759e-05
2.85038e-05
2.81363e-05
7.90872e-06
3.76676e-08
9.46761e-08
7.37577e-07
7.50307e-07
4.42726e-08
3.98206e-08
5.80459e-08
6.70372e-10
6.4461e-10
2.02129e-10
6.1514e-06
6.01737e-05
5.49281e-11
4.17927e-11
6.73813e-11
2.91604e-11
5.16772e-06
7.78436e-06
3.48717e-06
4.04368e-08
1.3455e-07
1.01145e-06
1.17466e-06
1.09947e-06
1.04086e-07
1.35204e-09
1.32135e-09
1.31929e-09
1.95335e-10
5.79042e-06
6.01737e-05
4.87309e-11
3.76578e-11
3.07958e-11
2.91403e-11
2.55779e-11
2.55705e-11
2.55705e-11
1.24319e-07
6.99175e-07
1.15547e-06
1.17512e-06
1.17338e-06
3.47425e-07
1.43037e-09
1.5987e-09
1.70691e-09
1.83973e-10
5.58767e-06
6.01514e-05
3.44311e-11
3.24053e-11
2.9041e-11
2.62483e-11
2.76463e-11
3.01376e-11
2.61404e-11
2.587e-11
3.6969e-07
9.16382e-07
8.68544e-07
2.45928e-07
4.27675e-08
2.52317e-09
2.57053e-09
1.26232e-09
1.7521e-10
8.10822e-06
5.99318e-05
1.37026e-11
1.76423e-11
1.98743e-11
2.17402e-11
2.47182e-11
3.01115e-11
3.59145e-11
3.68828e-11
3.67301e-11
3.86644e-07
8.4186e-07
3.45818e-07
2.31808e-08
1.58772e-08
2.5128e-09
3.47378e-10
1.7251e-10
8.60897e-06
5.97228e-05
3.52791e-12
5.77516e-12
9.29548e-12
1.36923e-11
1.88662e-11
2.48181e-11
3.10405e-11
3.95379e-11
3.65639e-11
1.46581e-09
1.59734e-07
3.20738e-07
3.1725e-07
1.22627e-07
6.81866e-09
1.7482e-10
1.63793e-10
2.73149e-06
5.92564e-05
6.94379e-13
1.34607e-12
2.95241e-12
5.7826e-12
1.05621e-11
1.76634e-11
2.4636e-11
3.05216e-11
3.65228e-11
3.0272e-11
3.0741e-11
3.37585e-08
1.08138e-07
1.13314e-07
3.11382e-08
1.66427e-10
1.41472e-10
1.63857e-10
4.55504e-05
1.25786e-13
2.59174e-13
7.34883e-13
1.91367e-12
4.49512e-12
9.08013e-12
1.44636e-11
1.96684e-11
2.44536e-11
2.96658e-11
3.33416e-11
3.33439e-11
3.34508e-11
3.36723e-11
3.3033e-09
1.50595e-09
1.14347e-10
1.35988e-10
3.93776e-05
2.55427e-14
5.2868e-14
1.73823e-13
5.69631e-13
1.63347e-12
3.85826e-12
7.09674e-12
1.09588e-11
1.54499e-11
2.23708e-11
3.12673e-11
3.68729e-11
4.39924e-11
4.50618e-11
4.5229e-11
1.10038e-10
1.11216e-10
1.03456e-06
4.77515e-05
8.78236e-15
2.0543e-14
6.1554e-14
2.0129e-13
6.16581e-13
1.60368e-12
3.35099e-12
5.90892e-12
9.5152e-12
1.53777e-11
2.32729e-11
3.58993e-11
5.5988e-11
7.50956e-11
1.39645e-10
1.23894e-10
1.1386e-10
9.31269e-06
4.77515e-05
6.86934e-15
1.78118e-14
4.62165e-14
1.23208e-13
3.30696e-13
8.33257e-13
1.8407e-12
3.56727e-12
6.361e-12
1.10493e-11
1.8029e-11
2.89787e-11
4.5864e-11
7.04312e-11
1.26159e-10
1.25187e-10
1.16808e-10
1.17415e-05
4.77515e-05
7.63782e-15
2.04332e-14
5.08913e-14
1.21374e-13
2.82925e-13
6.40062e-13
1.36366e-12
2.6902e-12
4.98578e-12
8.90576e-12
1.51235e-11
2.49214e-11
4.00325e-11
6.30295e-11
1.34627e-10
1.327e-10
1.19747e-10
7.11438e-06
4.77504e-05
9.23994e-15
2.56919e-14
6.38237e-14
1.45836e-13
3.15602e-13
6.5643e-13
1.31078e-12
2.49821e-12
4.56283e-12
8.07067e-12
1.37846e-11
2.29766e-11
3.73442e-11
5.90708e-11
1.65872e-10
1.92155e-10
1.22882e-10
9.33176e-07
4.76643e-05
1.1727e-14
3.53498e-14
8.91725e-14
1.97813e-13
4.04568e-13
7.86405e-13
1.47163e-12
2.66056e-12
4.66597e-12
7.9941e-12
1.34388e-11
2.25232e-11
3.69882e-11
5.8893e-11
1.86757e-10
3.55662e-10
1.29518e-10
1.37566e-10
3.49094e-05
1.54583e-14
5.35014e-14
1.39173e-13
3.03382e-13
5.91115e-13
1.07707e-12
1.88175e-12
3.18973e-12
5.28476e-12
8.6356e-12
1.41549e-11
2.3904e-11
3.90637e-11
6.57447e-11
2.89344e-10
3.56097e-10
1.37028e-10
2.85551e-06
2.04301e-05
1.99852e-14
8.15959e-14
2.26472e-13
5.00905e-13
9.58664e-13
1.67194e-12
2.74931e-12
4.35616e-12
6.75018e-12
1.03873e-11
1.64636e-11
2.75073e-11
4.29947e-11
7.67739e-11
3.99532e-10
4.61791e-10
1.47038e-10
1.43895e-05
3.18699e-05
2.34161e-14
1.12351e-13
3.45409e-13
8.10007e-13
1.59496e-12
2.76677e-12
4.38749e-12
6.56659e-12
9.54872e-12
1.38447e-11
2.10476e-11
3.3604e-11
4.84462e-11
8.89634e-11
6.25276e-10
6.78733e-10
1.56973e-10
1.13907e-05
3.18699e-05
2.3568e-14
1.29093e-13
4.53097e-13
1.18923e-12
2.53902e-12
4.58432e-12
7.25141e-12
1.04585e-11
1.444e-11
2.00544e-11
2.95661e-11
4.45719e-11
5.90213e-11
1.24554e-10
9.39142e-10
9.11879e-10
1.7181e-10
3.34373e-06
1.20607e-05
1.93446e-14
1.18503e-13
4.93778e-13
1.54e-12
3.77916e-12
7.48513e-12
1.23502e-11
1.77393e-11
2.35636e-11
3.15831e-11
4.6151e-11
6.90223e-11
8.92061e-11
2.7887e-10
1.25858e-09
1.30624e-09
3.9717e-10
3.95777e-10
9.47011e-10
1.21391e-14
8.49827e-14
4.39788e-13
1.72334e-12
5.12035e-12
1.16496e-11
2.08754e-11
3.09853e-11
4.06104e-11
5.21744e-11
7.59199e-11
1.23294e-10
2.18069e-10
8.13734e-10
1.40076e-09
1.40915e-09
5.99325e-10
3.84912e-10
1.6155e-09
5.42447e-15
4.63777e-14
3.05698e-13
1.56331e-12
5.93364e-12
1.57689e-11
3.15606e-11
5.00232e-11
6.72358e-11
8.4102e-11
1.17677e-10
2.27798e-10
5.66275e-10
1.08899e-09
1.21411e-09
1.10088e-09
3.99426e-10
3.73897e-10
3.61854e-09
1.64774e-15
1.94141e-14
1.73206e-13
1.15648e-12
5.68552e-12
1.75744e-11
3.96099e-11
6.90187e-11
9.73009e-11
1.24702e-10
1.73138e-10
2.99511e-10
6.35563e-10
9.10992e-10
8.5064e-10
4.09653e-10
3.72088e-10
3.73338e-10
4.13307e-09
3.22097e-16
6.12354e-15
7.70724e-14
6.85227e-13
4.32149e-12
1.53673e-11
4.02553e-11
8.03581e-11
1.30135e-10
1.68953e-10
2.28357e-10
3.49871e-10
4.03889e-10
5.67075e-10
1.147e-08
4.22314e-10
8.80049e-07
3.74008e-10
4.55601e-09
3.41112e-17
1.19865e-15
2.15222e-14
2.42379e-13
2.42571e-12
1.02273e-11
3.48979e-11
7.86102e-11
1.52025e-10
2.54828e-10
3.28386e-10
4.38321e-10
4.61049e-10
4.61417e-10
4.63748e-10
6.40264e-07
1.67426e-06
1.65191e-06
1.94653e-07
)
;

boundaryField
{
    leftWall
    {
        type            zeroGradient;
    }
    rightWall
    {
        type            zeroGradient;
    }
    lowerWall
    {
        type            zeroGradient;
    }
    atmosphere
    {
        type            inletOutlet;
        inletValue      uniform 0;
        value           nonuniform List<scalar> 
46
(
0
0
0
0
0
0
0
0
0
0
0
0
0
0
0
0
0
0
0
0
0
0
0
0
0
0
0
0
0
0
0
0
0
0
0
1.52025e-10
2.54828e-10
3.28386e-10
4.38321e-10
4.61049e-10
4.61417e-10
4.63748e-10
6.40264e-07
1.67426e-06
1.65191e-06
1.94653e-07
)
;
    }
    defaultFaces
    {
        type            empty;
    }
}


// ************************************************************************* //
