/*--------------------------------*- C++ -*----------------------------------*\
| =========                 |                                                 |
| \\      /  F ield         | OpenFOAM: The Open Source CFD Toolbox           |
|  \\    /   O peration     | Version:  2.3.0                                 |
|   \\  /    A nd           | Web:      www.OpenFOAM.org                      |
|    \\/     M anipulation  |                                                 |
\*---------------------------------------------------------------------------*/
FoamFile
{
    version     2.0;
    format      ascii;
    class       volScalarField;
    location    "2.05";
    object      epsilon;
}
// * * * * * * * * * * * * * * * * * * * * * * * * * * * * * * * * * * * * * //

dimensions      [0 2 -3 0 0 0 0];

internalField   nonuniform List<scalar> 
2268
(
0.00896553
0.0410505
0.073419
0.103226
0.130543
0.155987
0.17994
0.202662
0.224448
0.245645
0.266706
0.28809
0.310086
0.332562
0.354471
0.373801
0.387338
0.389088
0.368679
0.325588
0.254669
0.154687
0.0463431
0.014904
0.0269634
0.040927
0.0541878
0.066535
0.0781203
0.089072
0.0994848
0.109454
0.119093
0.128534
0.137952
0.147503
0.157205
0.166886
0.175962
0.183276
0.186676
0.183112
0.168742
0.140215
0.102026
0.076727
0.0227804
0.0274026
0.0373897
0.0473103
0.0567291
0.0656462
0.0741169
0.0822027
0.0899728
0.0975178
0.104968
0.112494
0.120289
0.128488
0.137086
0.145746
0.15363
0.159234
0.160425
0.154697
0.140717
0.122783
0.137309
0.0304476
0.0300653
0.0380355
0.0464795
0.0546881
0.0625465
0.0700612
0.0772761
0.084264
0.0911387
0.0980649
0.105272
0.113037
0.12161
0.13109
0.141225
0.151237
0.159796
0.165188
0.165915
0.162252
0.160078
0.217298
0.0384116
0.0335703
0.0401293
0.0476916
0.0552423
0.0625618
0.0696168
0.0764434
0.0831342
0.0898389
0.0967846
0.104291
0.112753
0.122549
0.133883
0.146537
0.159689
0.172009
0.182078
0.189332
0.196066
0.212854
0.333085
0.0462054
0.0374735
0.0429319
0.0499008
0.0570574
0.0640829
0.0709127
0.0775884
0.0842288
0.091036
0.0983217
0.106524
0.116186
0.127851
0.141844
0.157952
0.175219
0.19216
0.207569
0.221922
0.240476
0.283753
0.500333
0.0536462
0.0415228
0.0461339
0.0526972
0.0596171
0.0664908
0.0732336
0.0799022
0.0866533
0.0937566
0.10163
0.110858
0.12217
0.136315
0.153782
0.174353
0.196774
0.219209
0.240532
0.262341
0.293919
0.375076
0.788756
0.0607765
0.0455918
0.0495643
0.0558706
0.0626666
0.0694817
0.0762277
0.0829902
0.0899754
0.0975364
0.106217
0.116783
0.130192
0.147455
0.169275
0.195415
0.224166
0.252919
0.280436
0.309303
0.352677
0.478995
1.57166
0.108519
0.300533
0.53578
0.657627
0.662442
0.642437
0.625999
0.60583
0.557447
0.458615
0.356709
0.266559
0.191993
0.13536
0.09067
0.0724918
0.0621845
0.0525565
0.0262076
0.113976
0.204317
0.300129
0.345179
0.343522
0.328622
0.313083
0.296087
0.271084
0.234872
0.200572
0.164712
0.129707
0.0981421
0.0705458
0.0534192
0.041641
0.034666
0.0335548
0.143637
0.205357
0.282977
0.310303
0.302988
0.285441
0.267362
0.248738
0.225868
0.198175
0.172035
0.146343
0.120752
0.095905
0.0715723
0.0542789
0.0435625
0.0401404
0.0501949
0.153374
0.236726
0.302158
0.317251
0.303302
0.281027
0.259103
0.237461
0.213248
0.186903
0.162595
0.140198
0.118319
0.0964818
0.0743048
0.0575397
0.0480932
0.0475413
0.0676343
0.181831
0.294205
0.34299
0.343289
0.319528
0.290332
0.263162
0.237355
0.210326
0.183161
0.159001
0.137686
0.11743
0.0973563
0.0772198
0.06163
0.05359
0.0554257
0.0859731
0.274408
0.394289
0.406048
0.382966
0.344907
0.306368
0.272538
0.241626
0.211026
0.182266
0.15779
0.136751
0.117254
0.0984204
0.0802066
0.0661421
0.0595953
0.0636167
0.105433
0.603192
0.55943
0.490492
0.431914
0.375201
0.32525
0.283631
0.247059
0.212727
0.182307
0.157644
0.136846
0.117846
0.0999524
0.0834074
0.0709118
0.065807
0.0721191
0.126283
1.39391
0.769218
0.580179
0.482117
0.405476
0.343414
0.293725
0.251729
0.213928
0.182193
0.157942
0.137877
0.119388
0.102279
0.0870427
0.075887
0.071952
0.080559
0.147683
0.0716142
0.0519145
0.0551447
0.0612221
0.0679403
0.0747569
0.0816058
0.0886306
0.0961387
0.104641
0.114913
0.128049
0.145447
0.168625
0.198724
0.235449
0.275981
0.315872
0.352986
0.390636
0.442473
0.551963
0.898075
0.0864926
0.0603764
0.063166
0.0693118
0.0761164
0.0830661
0.0902168
0.0978377
0.10641
0.116717
0.129998
0.147971
0.172869
0.207252
0.253261
0.310481
0.372684
0.429156
0.475366
0.514815
0.558081
0.624769
0.747216
0.109399
0.0702002
0.0720711
0.0782482
0.0850804
0.0920925
0.0995566
0.107892
0.117752
0.130229
0.147125
0.171068
0.20535
0.253872
0.320546
0.405915
0.497425
0.56923
0.615966
0.645343
0.66951
0.703158
0.755614
0.138144
0.0815447
0.0811704
0.0871485
0.094206
0.101342
0.109145
0.118244
0.129388
0.144095
0.164873
0.195285
0.240065
0.304254
0.394832
0.519275
0.654819
0.733721
0.763276
0.768533
0.766012
0.777581
0.810725
0.163996
0.0898087
0.0877874
0.0934633
0.100783
0.10833
0.116665
0.126759
0.139339
0.156064
0.18051
0.216835
0.270152
0.347561
0.462488
0.645206
0.811423
0.818764
0.792861
0.766964
0.744724
0.741796
0.740219
0.143567
0.091387
0.0923264
0.0989954
0.106818
0.113973
0.121988
0.13259
0.14601
0.16484
0.192528
0.233114
0.291064
0.373018
0.492396
0.651951
0.76308
0.763007
0.722022
0.68712
0.658933
0.637995
0.613136
0.13495
0.0950145
0.0958544
0.101882
0.109392
0.116612
0.124718
0.135817
0.150879
0.171948
0.202179
0.245354
0.304115
0.382474
0.487627
0.599738
0.671881
0.693312
0.668753
0.63447
0.601689
0.570695
0.537308
0.14653
0.103657
0.100904
0.104344
0.110055
0.116931
0.1257
0.137842
0.154459
0.177106
0.208187
0.250017
0.30426
0.374279
0.461803
0.548604
0.60129
0.626834
0.61061
0.579579
0.551576
0.517941
0.487408
0.169961
0.113317
0.106425
0.107407
0.111445
0.117534
0.126032
0.137973
0.154475
0.176792
0.206591
0.245874
0.295656
0.35579
0.424801
0.490745
0.533598
0.555193
0.540148
0.51434
0.492141
0.464348
0.436367
0.194977
0.121201
0.110701
0.109883
0.112682
0.117853
0.125457
0.136206
0.151164
0.171574
0.198915
0.23553
0.282105
0.333352
0.386246
0.435583
0.469213
0.484035
0.47309
0.453563
0.434842
0.411797
0.386922
0.217157
0.126669
0.113177
0.110987
0.112872
0.117239
0.123915
0.13339
0.146575
0.164548
0.188629
0.220577
0.261068
0.305656
0.348364
0.385643
0.410655
0.419988
0.412678
0.399011
0.383565
0.364333
0.34316
0.2391
0.131034
0.114237
0.110707
0.111795
0.115498
0.121419
0.129837
0.141414
0.157004
0.177569
0.204088
0.236736
0.273184
0.308613
0.337963
0.357108
0.363911
0.35998
0.351129
0.338805
0.322919
0.305273
0.25449
0.133357
0.11393
0.109228
0.109593
0.112713
0.118
0.125536
0.13575
0.149222
0.166548
0.188171
0.21393
0.242313
0.270239
0.293734
0.309342
0.315761
0.314685
0.309118
0.299599
0.28691
0.272449
0.262395
0.133307
0.112203
0.106642
0.106407
0.109018
0.113748
0.120521
0.129562
0.141212
0.155785
0.173416
0.193798
0.215832
0.23747
0.256015
0.268962
0.275232
0.275828
0.272322
0.265336
0.255557
0.244011
0.263056
0.130922
0.109092
0.10304
0.102374
0.104555
0.108782
0.114862
0.122867
0.132958
0.145261
0.159743
0.176053
0.193349
0.210211
0.224816
0.235437
0.241217
0.242612
0.240547
0.235587
0.228255
0.219279
0.256686
0.126316
0.104665
0.0985004
0.0975944
0.0994414
0.103215
0.108654
0.115726
0.124471
0.134897
0.146884
0.160088
0.173839
0.187121
0.198677
0.207329
0.212445
0.214197
0.213142
0.209725
0.20435
0.197521
0.243725
0.119662
0.0990277
0.0931066
0.0921493
0.0937641
0.0971428
0.101992
0.108218
0.115785
0.124635
0.134609
0.145388
0.15644
0.167017
0.17624
0.183309
0.187768
0.18966
0.189314
0.187063
0.183216
0.178129
0.225047
0.111226
0.0923318
0.0869615
0.0861206
0.0876012
0.0906479
0.0949651
0.100428
0.106961
0.11447
0.12279
0.131638
0.140595
0.149106
0.156552
0.162383
0.166275
0.168207
0.168371
0.167011
0.164365
0.160686
0.202115
0.101397
0.0847818
0.0801964
0.0796048
0.0810373
0.0838174
0.0876675
0.0924535
0.0980829
0.10445
0.111399
0.118693
0.126003
0.132922
0.139013
0.143893
0.147325
0.149257
0.149811
0.149154
0.147463
0.144918
0.176727
0.0906363
0.0766219
0.0729707
0.0727233
0.074179
0.0767565
0.0802092
0.0844085
0.0892605
0.0946635
0.10048
0.10652
0.112533
0.118221
0.123277
0.12743
0.13049
0.132421
0.133287
0.133195
0.132272
0.130642
0.150766
0.0794043
0.0681246
0.0654797
0.0656334
0.0671665
0.0695986
0.0727226
0.076425
0.0806208
0.085221
0.0901128
0.0951485
0.100142
0.104881
0.109142
0.112723
0.115501
0.117434
0.118551
0.118915
0.118608
0.117716
0.125344
0.0682056
0.0595985
0.0579627
0.0585337
0.0601748
0.0625057
0.0653617
0.0686509
0.0723032
0.0762463
0.0803925
0.0846337
0.0888319
0.092827
0.0964656
0.0996112
0.102172
0.104106
0.105419
0.106143
0.106325
0.106021
0.101694
0.0575976
0.051394
0.0506812
0.0516455
0.0534001
0.0556574
0.0582954
0.0612454
0.0644543
0.067867
0.0714178
0.0750258
0.0785939
0.0820123
0.0851732
0.0879813
0.0903675
0.0922933
0.093749
0.094745
0.0953049
0.0954599
0.0802058
0.0477941
0.0437557
0.0438639
0.0451813
0.0470412
0.0492406
0.0516977
0.0543675
0.0572136
0.0601976
0.0632727
0.066382
0.0694583
0.072427
0.0752137
0.0777513
0.0799872
0.0818868
0.0834329
0.0846219
0.0854605
0.0859635
0.0626027
0.0392499
0.0370156
0.0377748
0.0393626
0.041296
0.043438
0.0457396
0.0481757
0.0507248
0.0533622
0.0560569
0.0587707
0.0614582
0.0640695
0.0665537
0.0688635
0.0709589
0.0728099
0.0743961
0.0757063
0.0767366
0.0774909
0.0501836
0.0325795
0.0315382
0.0326945
0.034423
0.0363676
0.038432
0.0405871
0.04282
0.0451197
0.0474718
0.0498569
0.0522504
0.0546227
0.0569407
0.05917
0.0612772
0.0632324
0.0650101
0.0665903
0.0679582
0.0691044
0.0700259
0.0428842
0.0280458
0.0275313
0.0288111
0.030538
0.0324184
0.0343719
0.0363752
0.0384203
0.0405012
0.0426097
0.0447343
0.0468597
0.0489669
0.0510344
0.0530392
0.0549577
0.0567676
0.0584484
0.059982
0.0613531
0.0625501
0.0635661
0.0396162
0.0254707
0.0249708
0.0261618
0.0277756
0.0295294
0.0313404
0.0331822
0.0350455
0.0369256
0.0388175
0.0407143
0.0426065
0.0444822
0.0463276
0.048127
0.0498642
0.0515227
0.0530863
0.0545398
0.0558692
0.0570626
0.0581117
0.0391953
0.0244849
0.0236926
0.0246707
0.0261076
0.0276987
0.0293482
0.0310219
0.032707
0.034398
0.0360912
0.037782
0.0394649
0.0411322
0.0427749
0.0443824
0.0459434
0.0474458
0.0488772
0.0502252
0.0514778
0.0526242
0.0536558
0.0408178
0.0247529
0.0235137
0.0242248
0.0254596
0.0268745
0.0283556
0.02986
0.0313711
0.032882
0.0343894
0.0358905
0.0373814
0.0388575
0.0403126
0.0417395
0.0431297
0.0444745
0.0457646
0.04699
0.0481407
0.0492072
0.0501814
0.0440731
0.0260647
0.0243055
0.0247331
0.0257604
0.0269958
0.0283069
0.0296426
0.0309832
0.032321
0.0336527
0.0349763
0.0362893
0.0375883
0.038869
0.040126
0.0413536
0.0425446
0.0436913
0.0447854
0.0458186
0.0467827
0.0476703
0.0488428
0.0283467
0.0260197
0.0261571
0.0269724
0.0280227
0.0291582
0.0303219
0.0314918
0.0326598
0.0338225
0.0349782
0.0361246
0.0372589
0.0383773
0.0394754
0.0405481
0.0415894
0.042593
0.043552
0.0444593
0.0453076
0.0460895
0.0552412
0.0316474
0.0286921
0.028519
0.0291035
0.0299495
0.0308924
0.0318715
0.0328637
0.0338601
0.0348568
0.0358509
0.0368398
0.0378191
0.038785
0.0397334
0.0406594
0.0415577
0.0424225
0.0432476
0.0440266
0.0447522
0.0454172
0.0636181
0.0361326
0.0324415
0.0319026
0.0322075
0.0328058
0.0335215
0.0342914
0.0350906
0.0359083
0.036738
0.0375739
0.0384098
0.0392415
0.0400642
0.0408726
0.0416614
0.0424251
0.043158
0.0438541
0.0445068
0.0451089
0.0456523
0.0746067
0.0421021
0.0374761
0.0364505
0.0363773
0.0366501
0.0370824
0.0376055
0.0381898
0.0388169
0.0394738
0.0401505
0.0408389
0.0415312
0.0422201
0.0428986
0.0435604
0.0441993
0.0448092
0.0453837
0.0459161
0.0463983
0.0468211
0.0891987
0.0500365
0.0441105
0.0423606
0.041733
0.0415578
0.041627
0.0418554
0.0421958
0.0426181
0.0430993
0.0436212
0.044169
0.0447304
0.0452951
0.045854
0.0463994
0.046924
0.0474211
0.0478839
0.0483049
0.0486751
0.0489838
0.108941
0.06068
0.0527652
0.0498461
0.0483753
0.0475811
0.0471956
0.0470849
0.0471659
0.0473819
0.047692
0.0480665
0.0484826
0.0489229
0.0493737
0.0498236
0.0502633
0.0506847
0.0510803
0.0514428
0.0517641
0.0520343
0.0522409
0.136803
0.075336
0.0640219
0.0591169
0.0563725
0.0547608
0.0538432
0.0533734
0.0531986
0.0532202
0.0533734
0.0536139
0.0539109
0.0542417
0.0545895
0.0549411
0.055286
0.0556152
0.0559211
0.0561959
0.0564313
0.0566169
0.0567389
0.178856
0.0963513
0.0785085
0.0701995
0.0656481
0.0630698
0.0616143
0.0608221
0.0604336
0.0602974
0.0603222
0.0604508
0.0606455
0.0608803
0.0611366
0.0614002
0.0616602
0.0619078
0.0621352
0.0623351
0.0624995
0.0626183
0.0626773
0.252552
0.127969
0.0961631
0.0824491
0.0757907
0.0723693
0.0705526
0.0695812
0.0690802
0.0688545
0.0687965
0.0688436
0.0689566
0.0691099
0.0692853
0.0694697
0.069653
0.0698272
0.0699856
0.070122
0.0702295
0.0702996
0.0703193
0.439115
0.174951
0.113526
0.0937155
0.085942
0.0824715
0.0807804
0.0799129
0.0794643
0.0792465
0.0791644
0.0791654
0.0792183
0.0793029
0.0794053
0.0795157
0.0796265
0.0797318
0.0798268
0.0799073
0.0799688
0.0800052
0.0800074
1.5839
0.212478
0.116792
0.0999629
0.0952151
0.0934582
0.0926792
0.092293
0.0920918
0.0919889
0.0919426
0.091931
0.0919411
0.0919646
0.0919959
0.092031
0.0920668
0.0921011
0.0921319
0.092158
0.0921775
0.0921886
0.0921876
2.783
2.37434
2.22157
2.23412
0.906158
0.943357
0.945667
0.925329
0.793257
0.80585
0.802836
0.789546
0.807914
0.783362
0.752764
0.726304
0.69974
0.667296
0.638127
0.614145
0.580287
0.557958
0.538272
0.522378
0.506162
0.489172
0.47515
0.463333
0.466396
0.453973
0.44176
0.42888
0.421153
0.411581
0.401284
0.390806
0.371035
0.36199
0.353293
0.344181
0.328303
0.319432
0.310871
0.302137
0.292163
0.284063
0.276089
0.267948
0.261335
0.254328
0.247326
0.240135
0.23489
0.22904
0.223104
0.21696
0.211978
0.207206
0.202288
0.197162
0.191798
0.187981
0.183994
0.179813
0.173732
0.170747
0.167596
0.164271
0.157395
0.15512
0.152694
0.150115
0.142539
0.140862
0.139052
0.137107
0.129011
0.127831
0.126534
0.125121
0.116691
0.115919
0.115045
0.11407
0.105483
0.10504
0.10451
0.103892
0.0953058
0.0951273
0.0948722
0.0945399
0.0861059
0.0861337
0.086095
0.0859894
0.0778541
0.0780382
0.0781653
0.0782346
0.070544
0.0708405
0.0710887
0.0712878
0.064182
0.0645523
0.0648821
0.0651708
0.0587762
0.0591865
0.0595634
0.0599063
0.0543278
0.0547492
0.0551434
0.0555097
0.0508271
0.0512358
0.0516224
0.0519863
0.0482634
0.0486399
0.0489976
0.0493362
0.0466118
0.0469428
0.0472571
0.0475542
0.0458571
0.0461335
0.046394
0.0466381
0.0460031
0.0462197
0.0464199
0.0466034
0.0470811
0.047236
0.0473732
0.0474922
0.0491564
0.0492515
0.0493268
0.0493816
0.0523348
0.0523758
0.052395
0.0523912
0.0567684
0.0567657
0.0567397
0.0566886
0.0626621
0.0626304
0.0625752
0.0624948
0.0702827
0.0702394
0.0701752
0.0700888
0.0799725
0.0799357
0.0798838
0.0798163
0.0921731
0.0921579
0.0921371
0.092111
1.18671
0.83283
0.666661
0.544892
0.444621
0.365868
0.30563
0.256084
0.214092
0.18124
0.158224
0.140347
0.123357
0.107428
0.0937239
0.0840044
0.0810896
0.0915766
0.171488
0.826224
0.759443
0.683272
0.573598
0.463806
0.375717
0.307901
0.254153
0.211384
0.179669
0.158818
0.144268
0.130921
0.117451
0.104918
0.0949792
0.0917587
0.104398
0.200725
0.760181
0.727888
0.675424
0.589664
0.474211
0.376069
0.30344
0.249603
0.208987
0.179186
0.160333
0.148451
0.138441
0.127782
0.116243
0.104881
0.0999926
0.112621
0.206928
0.687624
0.638525
0.604817
0.553026
0.46486
0.370865
0.29717
0.245408
0.207811
0.179656
0.162751
0.152604
0.144561
0.135985
0.125603
0.112839
0.104804
0.115149
0.190115
0.581676
0.55299
0.531398
0.490907
0.419242
0.344096
0.280804
0.234395
0.202495
0.180714
0.166853
0.157862
0.149947
0.141766
0.132331
0.119129
0.108087
0.114158
0.175107
0.50345
0.486528
0.468891
0.432808
0.372925
0.31114
0.260552
0.222938
0.196774
0.18003
0.172779
0.169026
0.159115
0.145529
0.133702
0.122088
0.113013
0.113377
0.166652
0.448718
0.433739
0.412891
0.375874
0.328189
0.279937
0.239797
0.209642
0.188938
0.176961
0.173932
0.17889
0.179613
0.152761
0.133092
0.12026
0.117264
0.118767
0.157978
0.410823
0.389587
0.364151
0.329868
0.291054
0.252848
0.220586
0.19599
0.179121
0.170495
0.170602
0.177236
0.184938
0.163834
0.136049
0.117333
0.114276
0.121194
0.127473
0.374229
0.351202
0.324176
0.293547
0.261295
0.229965
0.203671
0.183261
0.168824
0.162103
0.163476
0.170738
0.172773
0.163501
0.139755
0.115506
0.103735
0.106163
0.103779
0.329379
0.305392
0.280082
0.254717
0.230106
0.206788
0.186622
0.17014
0.158033
0.152515
0.155436
0.162539
0.164169
0.151505
0.133502
0.111631
0.0943502
0.0857036
0.100432
0.287659
0.265154
0.2421
0.219911
0.200013
0.182693
0.167716
0.155105
0.145713
0.141019
0.142392
0.147616
0.147381
0.137579
0.123874
0.106597
0.0903874
0.0793065
0.10012
0.254352
0.23394
0.213617
0.194486
0.177628
0.163336
0.151257
0.14118
0.13371
0.129516
0.128788
0.130398
0.130087
0.124516
0.11531
0.101876
0.0861121
0.0727828
0.0946248
0.228037
0.210103
0.192422
0.175896
0.161252
0.148732
0.138265
0.129675
0.123203
0.119089
0.117262
0.116841
0.116091
0.112657
0.106383
0.0956399
0.0811666
0.0674397
0.0856203
0.206532
0.191115
0.175928
0.161729
0.149065
0.138091
0.128791
0.121076
0.114947
0.110482
0.107686
0.106048
0.104614
0.101754
0.0967898
0.0879591
0.0753632
0.0631536
0.0797548
0.188366
0.175316
0.162425
0.150341
0.139499
0.130035
0.121846
0.114746
0.10873
0.103858
0.100136
0.0973857
0.0950542
0.0920324
0.0874619
0.0801205
0.0701178
0.0614984
0.0808328
0.172554
0.161689
0.150884
0.140701
0.131496
0.123387
0.116235
0.109751
0.103917
0.0988159
0.094453
0.090757
0.0874549
0.0839533
0.079573
0.0736536
0.066721
0.0627441
0.0874908
0.158427
0.149571
0.140663
0.132183
0.124428
0.117497
0.111252
0.105404
0.0998795
0.0947541
0.090066
0.0857767
0.0817751
0.077832
0.0736374
0.0690706
0.0651028
0.0655624
0.0970076
0.145537
0.138507
0.131316
0.124371
0.117908
0.112005
0.106551
0.101303
0.0961651
0.0911803
0.0864029
0.0818415
0.0774903
0.0733483
0.069442
0.0660552
0.0644523
0.0686706
0.107428
0.133624
0.128195
0.122527
0.116952
0.111648
0.106671
0.101919
0.097224
0.0925026
0.0877686
0.0830785
0.0784876
0.0740776
0.0699984
0.0665034
0.0641187
0.0642431
0.0713775
0.117796
0.122559
0.118482
0.114122
0.109736
0.105456
0.101312
0.0972189
0.093058
0.0887654
0.0843517
0.0798807
0.0754467
0.0711989
0.0673815
0.0643854
0.0628542
0.0642638
0.0735564
0.12806
0.112267
0.109306
0.106039
0.102652
0.0992616
0.0958607
0.0923822
0.088743
0.0849014
0.0808733
0.0767293
0.0725945
0.0686692
0.065257
0.0627968
0.0619916
0.0644337
0.0756578
0.138622
0.102706
0.100653
0.098287
0.0957385
0.0930917
0.090346
0.0874384
0.08431
0.080936
0.0773421
0.0736102
0.0698857
0.0663931
0.0634557
0.0615278
0.0613469
0.0646162
0.0774265
0.147684
0.0938529
0.0925306
0.0909
0.0890484
0.0870311
0.0848522
0.0824702
0.0798361
0.0769388
0.0738129
0.0705484
0.0672996
0.0642967
0.0618609
0.060444
0.0608002
0.0647103
0.0786764
0.154298
0.0856986
0.0849593
0.0839247
0.0826504
0.0811714
0.0794894
0.0775791
0.0754147
0.0729901
0.0703448
0.0675722
0.0648261
0.0623305
0.0603936
0.0594555
0.0602737
0.06467
0.079412
0.158888
0.0782523
0.0779713
0.0774142
0.0766142
0.0755922
0.0743483
0.072867
0.0711349
0.0691621
0.0669884
0.0647046
0.0624579
0.0604588
0.0589975
0.0584979
0.0597116
0.0644721
0.0796933
0.161797
0.0715371
0.0716066
0.0714241
0.0710072
0.0703668
0.0695021
0.0684043
0.067069
0.0655118
0.0637823
0.0619625
0.0601888
0.0586551
0.0576314
0.0575229
0.0590678
0.0640912
0.0795457
0.163081
0.0655836
0.065909
0.0660094
0.065892
0.0655612
0.0650153
0.06425
0.0632671
0.0620861
0.0607558
0.059359
0.0580154
0.0569016
0.0562666
0.056495
0.0583065
0.0635052
0.0790124
0.163184
0.0604219
0.0609191
0.0612196
0.0613239
0.0612322
0.0609425
0.0604535
0.0597708
0.0589159
0.0579347
0.056906
0.0559386
0.0551898
0.0548878
0.0553956
0.0574112
0.0627149
0.0781801
0.162528
0.0560751
0.0566695
0.0570948
0.0573478
0.0574262
0.0573285
0.0570552
0.0566144
0.0560281
0.0553388
0.0546162
0.0539647
0.0535211
0.053494
0.0542247
0.0563882
0.0617394
0.0771039
0.161209
0.0525563
0.0531828
0.0536651
0.0539985
0.0541801
0.0542089
0.0540876
0.0538258
0.0534454
0.0529855
0.0525079
0.0521046
0.0519051
0.052096
0.052998
0.0552615
0.0606065
0.0758011
0.159519
0.0498706
0.0504732
0.050952
0.0513026
0.0515226
0.0516126
0.0515774
0.0514285
0.0511878
0.0508912
0.0505939
0.0503765
0.0503572
0.0507119
0.051739
0.0540635
0.059356
0.0742871
0.157536
0.0480229
0.0485522
0.0489742
0.0492836
0.0494797
0.0495654
0.0495485
0.0494434
0.0492731
0.0490717
0.0488889
0.0487959
0.0488981
0.0493616
0.0504715
0.0528243
0.0580321
0.0726029
0.15483
0.0470195
0.0474373
0.0477553
0.0479698
0.0480815
0.0480964
0.0480271
0.0478929
0.0477199
0.0475427
0.0474073
0.0473774
0.0475474
0.0480688
0.0492161
0.0515641
0.05666
0.070778
0.150855
0.0468822
0.0471601
0.0473345
0.0474041
0.0473716
0.0472467
0.0470486
0.0468048
0.0465494
0.046321
0.0461641
0.0461362
0.0463215
0.0468582
0.0480018
0.0503052
0.0552633
0.0689115
0.146563
0.04766
0.0477779
0.0477784
0.0476576
0.0474211
0.0470817
0.0466675
0.0462204
0.0457902
0.0454259
0.0451744
0.0450875
0.0452388
0.0457527
0.0468673
0.0491067
0.0539154
0.0671941
0.143267
0.0494376
0.0493865
0.0491932
0.0488462
0.0483459
0.0477093
0.0469736
0.0462044
0.0454828
0.0448814
0.0444538
0.0442455
0.0443167
0.0447768
0.0458476
0.0480311
0.0527236
0.0656778
0.14022
0.0523437
0.0521303
0.0517406
0.051147
0.0503319
0.0493076
0.0481173
0.046862
0.0456872
0.0447163
0.0440165
0.0436213
0.0435696
0.0439509
0.0449709
0.0471146
0.051739
0.064441
0.137246
0.056558
0.0562107
0.05565
0.0548214
0.05367
0.05217
0.0503552
0.0483692
0.0464915
0.044963
0.0438713
0.0432193
0.0430062
0.0432901
0.0442571
0.0463792
0.0509841
0.0635541
0.135452
0.0623145
0.0618899
0.0612254
0.0602309
0.0587889
0.0567736
0.0541403
0.0510408
0.0480247
0.0456488
0.0440119
0.0430311
0.042626
0.0428029
0.043722
0.0458459
0.0504869
0.0630652
0.134967
0.0699035
0.0694866
0.0688357
0.0678302
0.0662754
0.0638771
0.0603102
0.0555272
0.0504759
0.0467706
0.0443975
0.043025
0.0424133
0.042487
0.0433728
0.0455288
0.0502726
0.0630254
0.135944
0.0796755
0.0793673
0.0788848
0.0781126
0.0768231
0.0745559
0.0704645
0.0635137
0.054074
0.0482177
0.044916
0.043132
0.0423304
0.0423214
0.0431944
0.0454066
0.0502927
0.0633539
0.138238
0.0920584
0.0919479
0.0917768
0.0914967
0.0909892
0.0899225
0.0873038
0.0801646
0.0585392
0.0495397
0.0453323
0.0432385
0.0423159
0.0422625
0.0431397
0.0453956
0.0503033
0.063243
0.138438
)
;

boundaryField
{
    leftWall
    {
        type            epsilonWallFunction;
        value           nonuniform List<scalar> 
50
(
0.00896553
0.014904
0.0227804
0.0304476
0.0384116
0.0462054
0.0536462
0.0607765
0.0716142
0.0864926
0.109399
0.138144
0.163996
0.143567
0.13495
0.14653
0.169961
0.194977
0.217157
0.2391
0.25449
0.262395
0.263056
0.256686
0.243725
0.225047
0.202115
0.176727
0.150766
0.125344
0.101694
0.0802058
0.0626027
0.0501836
0.0428842
0.0396162
0.0391953
0.0408178
0.0440731
0.0488428
0.0552412
0.0636181
0.0746067
0.0891987
0.108941
0.136803
0.178856
0.252552
0.439115
1.5839
)
;
        Cmu             0.09;
        kappa           0.41;
        E               9.8;
        value           nonuniform List<scalar> 
50
(
0.00896553
0.014904
0.0227804
0.0304476
0.0384116
0.0462054
0.0536462
0.0607765
0.0716142
0.0864926
0.109399
0.138144
0.163996
0.143567
0.13495
0.14653
0.169961
0.194977
0.217157
0.2391
0.25449
0.262395
0.263056
0.256686
0.243725
0.225047
0.202115
0.176727
0.150766
0.125344
0.101694
0.0802058
0.0626027
0.0501836
0.0428842
0.0396162
0.0391953
0.0408178
0.0440731
0.0488428
0.0552412
0.0636181
0.0746067
0.0891987
0.108941
0.136803
0.178856
0.252552
0.439115
1.5839
)
;
    }
    rightWall
    {
        type            epsilonWallFunction;
        value           nonuniform List<scalar> 
50
(
0.0262076
0.0335548
0.0501949
0.0676343
0.0859731
0.105433
0.126283
0.147683
0.171488
0.200725
0.206928
0.190115
0.175107
0.166652
0.157978
0.127473
0.103779
0.100432
0.10012
0.0946248
0.0856203
0.0797548
0.0808328
0.0874908
0.0970076
0.107428
0.117796
0.12806
0.138622
0.147684
0.154298
0.158888
0.161797
0.163081
0.163184
0.162528
0.161209
0.159519
0.157536
0.15483
0.150855
0.146563
0.143267
0.14022
0.137246
0.135452
0.134967
0.135944
0.138238
0.138438
)
;
        Cmu             0.09;
        kappa           0.41;
        E               9.8;
        value           nonuniform List<scalar> 
50
(
0.0262076
0.0335548
0.0501949
0.0676343
0.0859731
0.105433
0.126283
0.147683
0.171488
0.200725
0.206928
0.190115
0.175107
0.166652
0.157978
0.127473
0.103779
0.100432
0.10012
0.0946248
0.0856203
0.0797548
0.0808328
0.0874908
0.0970076
0.107428
0.117796
0.12806
0.138622
0.147684
0.154298
0.158888
0.161797
0.163081
0.163184
0.162528
0.161209
0.159519
0.157536
0.15483
0.150855
0.146563
0.143267
0.14022
0.137246
0.135452
0.134967
0.135944
0.138238
0.138438
)
;
    }
    lowerWall
    {
        type            epsilonWallFunction;
        value           nonuniform List<scalar> 
62
(
0.00896553
0.0410505
0.073419
0.103226
0.130543
0.155987
0.17994
0.202662
0.224448
0.245645
0.266706
0.28809
0.310086
0.332562
0.354471
0.373801
0.387338
0.389088
0.368679
0.325588
0.254669
0.154687
0.0463431
0.0463431
0.076727
0.137309
0.217298
0.333085
0.500333
0.788756
1.57166
2.783
2.37434
2.22157
2.23412
0.108519
0.113976
0.143637
0.153374
0.181831
0.274408
0.603192
1.39391
0.108519
0.300533
0.53578
0.657627
0.662442
0.642437
0.625999
0.60583
0.557447
0.458615
0.356709
0.266559
0.191993
0.13536
0.09067
0.0724918
0.0621845
0.0525565
0.0262076
)
;
        Cmu             0.09;
        kappa           0.41;
        E               9.8;
        value           nonuniform List<scalar> 
62
(
0.00896553
0.0410505
0.073419
0.103226
0.130543
0.155987
0.17994
0.202662
0.224448
0.245645
0.266706
0.28809
0.310086
0.332562
0.354471
0.373801
0.387338
0.389088
0.368679
0.325588
0.254669
0.154687
0.0463431
0.0463431
0.076727
0.137309
0.217298
0.333085
0.500333
0.788756
1.57166
2.783
2.37434
2.22157
2.23412
0.108519
0.113976
0.143637
0.153374
0.181831
0.274408
0.603192
1.39391
0.108519
0.300533
0.53578
0.657627
0.662442
0.642437
0.625999
0.60583
0.557447
0.458615
0.356709
0.266559
0.191993
0.13536
0.09067
0.0724918
0.0621845
0.0525565
0.0262076
)
;
    }
    atmosphere
    {
        type            inletOutlet;
        inletValue      uniform 0.1;
        value           nonuniform List<scalar> 
46
(
0.1
0.1
0.1
0.1
0.1
0.1
0.1
0.1
0.1
0.1
0.1
0.1
0.1
0.1
0.1
0.1
0.1
0.1
0.1
0.1
0.1
0.1
0.1
0.1
0.1
0.1
0.1
0.1
0.1
0.1
0.1
0.1
0.1
0.1
0.1
0.0585392
0.0495397
0.0453323
0.0432385
0.0423159
0.0422625
0.0431397
0.0453956
0.0503033
0.063243
0.138438
)
;
    }
    defaultFaces
    {
        type            empty;
    }
}


// ************************************************************************* //
