/*--------------------------------*- C++ -*----------------------------------*\
| =========                 |                                                 |
| \\      /  F ield         | OpenFOAM: The Open Source CFD Toolbox           |
|  \\    /   O peration     | Version:  2.3.0                                 |
|   \\  /    A nd           | Web:      www.OpenFOAM.org                      |
|    \\/     M anipulation  |                                                 |
\*---------------------------------------------------------------------------*/
FoamFile
{
    version     2.0;
    format      ascii;
    class       volScalarField;
    location    "2.05";
    object      nut;
}
// * * * * * * * * * * * * * * * * * * * * * * * * * * * * * * * * * * * * * //

dimensions      [0 2 -1 0 0 0 0];

internalField   nonuniform List<scalar> 
2268
(
4.06345e-05
4.44764e-05
5.37958e-05
6.03148e-05
6.52947e-05
6.93648e-05
7.28264e-05
7.58511e-05
7.85694e-05
8.10867e-05
8.35147e-05
8.59294e-05
8.83721e-05
9.0821e-05
9.32484e-05
9.54255e-05
9.70405e-05
9.75652e-05
9.61461e-05
9.25208e-05
8.54156e-05
7.2261e-05
4.72203e-05
8.69815e-05
0.000343451
0.000469443
0.000553181
0.000617444
0.000669771
0.000713979
0.000752521
0.000787339
0.00082015
0.00085247
0.000885395
0.000919286
0.000953653
0.000986422
0.00101421
0.00103225
0.00103375
0.0010046
0.000954969
0.000874467
0.000651249
0.000153452
0.000100042
0.000578239
0.000849045
0.00103521
0.00117899
0.00129652
0.00139617
0.00148341
0.00156259
0.00163753
0.00171153
0.00178671
0.00186343
0.00193982
0.00201096
0.0020696
0.00210588
0.00210625
0.00204897
0.0019237
0.00167675
0.00113096
0.000186703
0.000109752
0.000735042
0.00113609
0.00141941
0.00164051
0.00182246
0.00197761
0.00211405
0.00223819
0.00235551
0.00247036
0.00258508
0.00269918
0.00280887
0.00290687
0.00298364
0.00302669
0.00301825
0.00292987
0.0027244
0.00231092
0.00149649
0.000217359
0.000118024
0.000843214
0.00135639
0.00172725
0.00201965
0.00226199
0.00246981
0.00265334
0.00282057
0.00297793
0.00312995
0.0032783
0.00342096
0.00355235
0.0036641
0.00374659
0.00378769
0.00376786
0.00365221
0.00338114
0.00283236
0.00179179
0.000249949
0.00012541
0.000924059
0.00153096
0.00197907
0.00233585
0.00263353
0.00289018
0.00311774
0.00332516
0.0035191
0.00370352
0.00387864
0.00404065
0.00418284
0.00429763
0.00437766
0.0044137
0.00438635
0.00425534
0.00394424
0.00330148
0.00207049
0.000284776
0.000131783
0.000990387
0.00167552
0.00219069
0.00260467
0.00295232
0.00325361
0.00352166
0.00376582
0.00399236
0.00420396
0.00439893
0.00457178
0.00471576
0.00482607
0.00490027
0.00493317
0.00490689
0.0047772
0.00445661
0.00376735
0.00237696
0.000328777
0.000137409
0.00104924
0.00180075
0.00237382
0.00283814
0.0032304
0.003572
0.00387682
0.00415406
0.00440902
0.00464255
0.00485087
0.00502729
0.0051664
0.00526804
0.00533645
0.00537192
0.00535752
0.00524676
0.00494834
0.00427316
0.00278709
0.000407814
6.07653e-05
8.42999e-05
0.000101179
0.000108322
0.000108773
0.000107602
0.000107227
0.000106678
0.000104236
9.77016e-05
8.92976e-05
8.06424e-05
7.21572e-05
6.41252e-05
5.65791e-05
5.3025e-05
5.10018e-05
4.96045e-05
6.22938e-05
0.000193236
0.000515857
0.000765644
0.00088358
0.00093943
0.000961784
0.000971075
0.000968141
0.000937887
0.000866326
0.000735128
0.000633119
0.000557397
0.000500193
0.000418758
0.000390457
0.000394802
0.000332794
0.000133345
0.000209078
0.000835487
0.0012476
0.0015137
0.00167269
0.00176303
0.00181257
0.00182442
0.00177539
0.00164261
0.00142301
0.00122397
0.00106086
0.000929135
0.000797198
0.000745494
0.000720591
0.000544585
0.00015138
0.000213448
0.000992751
0.00151981
0.00192856
0.00220673
0.00237958
0.00247806
0.00251029
0.002454
0.00228656
0.00201691
0.00174985
0.00151634
0.00132153
0.0011547
0.0010741
0.0010036
0.000726088
0.000166075
0.00022185
0.00102336
0.00166589
0.0022157
0.00261306
0.00286718
0.00301243
0.00306504
0.00300854
0.00282485
0.00252872
0.00221786
0.00193418
0.00169268
0.00149903
0.00138627
0.00126149
0.000891202
0.000178714
0.000248302
0.0010195
0.00176705
0.00244924
0.00295243
0.00327438
0.00345661
0.00352557
0.00347207
0.00328322
0.00297613
0.00264075
0.00232493
0.00205082
0.00183379
0.00168544
0.00149891
0.00103646
0.000189913
0.000312033
0.00105229
0.00189759
0.00269106
0.00327061
0.00363614
0.00383982
0.00391811
0.00386774
0.00368037
0.00337351
0.00302913
0.00269582
0.00239953
0.00215975
0.00197119
0.00171614
0.00115615
0.000200146
0.000426933
0.00120144
0.00213897
0.0029922
0.00359585
0.0039724
0.0041813
0.00425956
0.00421136
0.00402886
0.00373106
0.00339019
0.00304997
0.00273917
0.00247567
0.00224205
0.00191348
0.00125909
0.000209806
0.00014541
0.00113681
0.00197805
0.00262878
0.00316135
0.00361505
0.00401301
0.00436936
0.00469251
0.0049855
0.00524555
0.00546565
0.00563871
0.00576402
0.00585145
0.00591704
0.00596899
0.00599117
0.00593355
0.00571164
0.00518194
0.00410093
0.00224594
0.000155463
0.00126496
0.0021996
0.00292653
0.00352646
0.00404336
0.0045008
0.00491139
0.0052808
0.00560777
0.00588502
0.00610247
0.00625616
0.00635649
0.00643049
0.00651077
0.00661239
0.00671427
0.00675946
0.00668307
0.00641067
0.00584475
0.00489758
0.000170938
0.00140246
0.00241868
0.00320134
0.00385089
0.00441603
0.00491952
0.00537132
0.00577343
0.00612006
0.00640066
0.00660552
0.00673697
0.00681819
0.00689263
0.00700825
0.00718081
0.00737097
0.00750412
0.00752956
0.00741857
0.00714745
0.00671214
0.000184245
0.00153924
0.00263331
0.00345868
0.00414656
0.00475017
0.00528999
0.00577284
0.00619697
0.00655282
0.00682921
0.00702038
0.00713558
0.00720681
0.00728981
0.00745635
0.00772119
0.0079923
0.00817495
0.0082402
0.00818922
0.00803174
0.00776963
0.00019554
0.00160251
0.00275643
0.00364015
0.00438335
0.00503331
0.00560955
0.00611874
0.00655868
0.00691745
0.00718703
0.00736831
0.00747687
0.00754268
0.00763554
0.00786598
0.0082026
0.00849119
0.00867676
0.00874402
0.00869858
0.00856124
0.00833512
0.000189086
0.00155259
0.00273792
0.00370447
0.00452838
0.00523642
0.00585563
0.00639806
0.00685658
0.0072218
0.00748781
0.00766313
0.00776905
0.00784161
0.00795044
0.00818093
0.00848292
0.00879278
0.00899701
0.00908372
0.00905352
0.00892015
0.0087108
0.000181977
0.00141687
0.00263715
0.00368384
0.00458899
0.00536434
0.00603785
0.00662152
0.00710467
0.00747763
0.00774127
0.00791349
0.00802115
0.00810101
0.00822534
0.00841131
0.00866008
0.00899109
0.00922464
0.00934165
0.00933901
0.00922877
0.00904997
0.000182436
0.00136793
0.0026142
0.00370951
0.00466056
0.00548327
0.00619757
0.00681218
0.00731566
0.00769446
0.00795591
0.00812609
0.00824046
0.00833573
0.0084603
0.00862096
0.00883182
0.0091255
0.00934928
0.0094771
0.00950456
0.00943037
0.0093029
0.000189309
0.00143537
0.00271541
0.00383289
0.00480078
0.0056395
0.00636611
0.00698594
0.00749176
0.00787146
0.00813449
0.00831015
0.00843522
0.00853857
0.00865241
0.00878484
0.00895761
0.00919681
0.00939576
0.00951968
0.00956233
0.00952156
0.00943069
0.000197753
0.00155649
0.00289184
0.00402617
0.00499485
0.00582754
0.00654323
0.00714858
0.0076398
0.00801084
0.0082727
0.00845569
0.00859203
0.00870047
0.00880212
0.00890863
0.00904272
0.00922834
0.00940562
0.00952278
0.00956945
0.00954508
0.0094766
0.00020518
0.0016814
0.00308104
0.00423686
0.00520392
0.00602236
0.00671635
0.0072967
0.00776501
0.00812139
0.00837784
0.00856023
0.00869967
0.00881151
0.00890504
0.00899349
0.00909786
0.00924096
0.00939381
0.00950284
0.00954901
0.00953432
0.00948202
0.000212223
0.00176504
0.0032353
0.00442155
0.00539194
0.00619724
0.00686854
0.00742225
0.00786607
0.00820616
0.00845448
0.00863158
0.00876297
0.00886854
0.00895775
0.00903754
0.00912533
0.00924096
0.00937028
0.00946772
0.00951013
0.00950254
0.00946251
0.000217784
0.00182377
0.00334917
0.00456235
0.00553719
0.00633183
0.0069835
0.00751433
0.00793747
0.00826314
0.00850367
0.00867605
0.00880078
0.00889693
0.00897778
0.00905185
0.00913131
0.0092294
0.00933611
0.00941756
0.0094557
0.00945392
0.00942312
0.000221044
0.00185941
0.00342153
0.0046536
0.00563154
0.00641789
0.00705432
0.0075675
0.00797484
0.00828956
0.00852464
0.00869502
0.00881767
0.00890942
0.00898425
0.00905272
0.00912467
0.00920727
0.00929223
0.00935759
0.00939091
0.00939257
0.00936868
0.000222117
0.00187202
0.00345227
0.00469359
0.00567181
0.00645151
0.00707704
0.00757809
0.007975
0.00828315
0.00851612
0.0086877
0.00881244
0.00890488
0.00897804
0.00904258
0.00910688
0.00917512
0.00924157
0.00929299
0.00932075
0.00932368
0.00930478
0.000221099
0.00186242
0.00344262
0.00468316
0.00565804
0.00643198
0.00705038
0.00754449
0.00793635
0.00824258
0.00847711
0.00865297
0.008783
0.00887975
0.00895476
0.00901779
0.00907613
0.0091331
0.00918556
0.00922592
0.00924843
0.00925147
0.00923631
0.000218075
0.00183229
0.00339503
0.00462488
0.00559239
0.0063608
0.00697512
0.00746686
0.00785863
0.00816745
0.00840724
0.0085903
0.00872822
0.00883197
0.00891163
0.00897588
0.00903127
0.00908109
0.00912434
0.00915703
0.00917563
0.00917877
0.00916686
0.000213131
0.00178378
0.00331293
0.00452262
0.00547856
0.0062411
0.0068536
0.00734677
0.00774278
0.00805835
0.00830692
0.00850006
0.0086483
0.00876138
0.00884823
0.00891659
0.00897248
0.00901945
0.00905806
0.00908668
0.00910343
0.00910749
0.00909898
0.000206415
0.00171941
0.00320068
0.00438143
0.00532154
0.00607734
0.00668956
0.00718713
0.007591
0.00791697
0.00817762
0.00838367
0.00854469
0.00866947
0.00876602
0.0088414
0.00890125
0.00894938
0.00898749
0.00901548
0.00903278
0.00903914
0.00903473
0.00019814
0.00164284
0.00306375
0.00420749
0.00512756
0.00587541
0.00648824
0.00699244
0.00740708
0.00774653
0.00802222
0.00824388
0.00842018
0.00855908
0.00866789
0.0087531
0.00882014
0.00887308
0.00891431
0.00894483
0.00896503
0.00897523
0.00897574
0.000188708
0.0015576
0.00290808
0.00400777
0.00490405
0.00564272
0.00625671
0.00676918
0.00719683
0.00755223
0.00784547
0.00808516
0.00827911
0.00843447
0.00855796
0.00865564
0.00873283
0.00879373
0.00884119
0.00887697
0.00890217
0.0089176
0.00892381
0.000178456
0.00145969
0.00273642
0.00378883
0.00465939
0.00538842
0.00600416
0.00652619
0.00696852
0.00734173
0.00765442
0.00791409
0.00812765
0.00830147
0.00844173
0.00855424
0.00864413
0.00871559
0.00877181
0.00881505
0.00884696
0.00886874
0.00888122
0.000167544
0.00134467
0.00254922
0.00355722
0.00440343
0.00512384
0.00574237
0.00627504
0.00673315
0.0071253
0.00745861
0.00773945
0.00797383
0.00816757
0.00832634
0.00845553
0.00856002
0.00864399
0.00871082
0.00876313
0.00880295
0.00883183
0.00885083
0.000155875
0.00122724
0.00236336
0.00332943
0.00415329
0.00486605
0.00548768
0.00603099
0.00650482
0.0069159
0.00726995
0.00757226
0.007828
0.00804236
0.00822046
0.00836729
0.00848747
0.00858508
0.0086636
0.00872588
0.00877424
0.00881049
0.00883588
0.000144249
0.00113332
0.00220125
0.00312624
0.00392919
0.00463495
0.00525941
0.00581245
0.00630075
0.00672942
0.00710294
0.00742563
0.0077019
0.00793627
0.00813336
0.0082977
0.00843362
0.00854507
0.00863551
0.00870794
0.00876484
0.0088082
0.00883947
0.000134089
0.00107291
0.00208216
0.00296948
0.00375282
0.00445148
0.00507745
0.00563804
0.00613812
0.0065815
0.00697167
0.00731212
0.00760658
0.00785897
0.00807339
0.00825393
0.00840458
0.0085291
0.00863086
0.00871287
0.0087777
0.00882746
0.00886371
0.000126736
0.00104308
0.00201424
0.00287357
0.00364089
0.00433258
0.00495808
0.00552293
0.00603081
0.00648464
0.00688717
0.00724131
0.00755021
0.00781729
0.00804614
0.00824044
0.00840382
0.00853976
0.00865148
0.00874192
0.00881362
0.00886872
0.00890883
0.000122687
0.00103721
0.0019958
0.00284219
0.00360011
0.00428618
0.00490942
0.0054749
0.0059859
0.00644501
0.00685465
0.00721736
0.00753591
0.00781332
0.00805275
0.0082575
0.00843082
0.00857589
0.00869571
0.00879302
0.00887026
0.00892951
0.00897238
0.000121582
0.00105009
0.00201931
0.00286875
0.00362554
0.00430878
0.00492894
0.00549198
0.00600167
0.00646087
0.0068721
0.00723787
0.00756079
0.00784362
0.00808924
0.00830059
0.00848061
0.00863213
0.00875788
0.00886035
0.00894179
0.00900411
0.00904884
0.000122744
0.00107778
0.00207428
0.0029398
0.00370345
0.00438755
0.00500509
0.0055638
0.00606872
0.00652351
0.00693126
0.00729478
0.00761681
0.00790007
0.00814731
0.00836123
0.00854448
0.0086996
0.00882899
0.00893488
0.00901927
0.00908385
0.00912996
0.00012558
0.00111663
0.00215019
0.0030404
0.00381731
0.00450611
0.00512245
0.00567617
0.00617397
0.00662082
0.00702074
0.00737722
0.00769344
0.00797234
0.00821668
0.00842907
0.00861195
0.00876762
0.00889826
0.0090058
0.00909194
0.00915811
0.00920544
0.000129707
0.00116384
0.0022395
0.00315936
0.0039541
0.00465097
0.0052678
0.00581648
0.00630554
0.00674156
0.00712988
0.00747501
0.00778084
0.00805078
0.00828781
0.00849458
0.00867353
0.0088268
0.00895629
0.00906366
0.00915032
0.00921743
0.00926586
0.000134945
0.00121829
0.0023393
0.00329207
0.00410801
0.00481557
0.00543414
0.00597748
0.0064561
0.00687845
0.00725152
0.00758114
0.00787219
0.00812871
0.00835414
0.00855138
0.00872285
0.00887059
0.00899631
0.00910144
0.00918714
0.00925429
0.00930354
0.000141281
0.00128066
0.00245134
0.00344074
0.00428105
0.00500117
0.00562168
0.00615831
0.00662386
0.00702905
0.00738285
0.00769266
0.00796453
0.00820336
0.00841311
0.00859692
0.0087573
0.00889626
0.00901538
0.0091159
0.00919876
0.00926465
0.00931397
0.00014884
0.00135329
0.00258124
0.00361333
0.0044818
0.00521552
0.00583653
0.0063632
0.00681145
0.0071948
0.00752456
0.00780995
0.00805828
0.00827529
0.00846544
0.00863213
0.00877798
0.00890496
0.00901457
0.0091079
0.00918573
0.00924856
0.00929664
0.000157926
0.00144004
0.00273807
0.00382262
0.00472398
0.00547093
0.00608841
0.00659922
0.00702363
0.00737891
0.00767907
0.00793517
0.00815571
0.00834711
0.0085142
0.00866056
0.00878884
0.00890097
0.00899836
0.00908197
0.00915243
0.00921012
0.00925516
0.000168901
0.00154621
0.00293453
0.00408605
0.00502517
0.00578196
0.00638786
0.00687326
0.00726485
0.0075844
0.0078488
0.00807075
0.00825961
0.00842222
0.00856352
0.00868709
0.00879549
0.00889053
0.00897348
0.00904519
0.00910616
0.00915665
0.00919668
0.000182309
0.00168009
0.00319061
0.00442924
0.00540848
0.00616526
0.00674501
0.00719072
0.00753767
0.00781258
0.00803485
0.0082182
0.00837229
0.00850386
0.00861765
0.00871695
0.00880409
0.00888066
0.00894774
0.00900602
0.00905589
0.0090975
0.00913079
0.000199417
0.00185595
0.00354292
0.00489373
0.00590517
0.00663849
0.00716715
0.00755295
0.00784093
0.00806186
0.00823624
0.00837765
0.0084951
0.00859465
0.00868037
0.00875505
0.00882059
0.00887827
0.00892894
0.0089731
0.00901103
0.00904275
0.00906817
0.000223547
0.00210349
0.00406828
0.00555061
0.00655581
0.00721615
0.00765445
0.00795463
0.00816854
0.00832737
0.00844996
0.00854793
0.00862855
0.00869652
0.00875489
0.0088057
0.00885031
0.00888962
0.00892421
0.00895441
0.00898037
0.00900204
0.00901929
0.000268446
0.00253131
0.00496048
0.00652571
0.00740382
0.00789856
0.00819323
0.00838113
0.00850911
0.00860153
0.0086717
0.00872726
0.00877277
0.00881107
0.00884396
0.00887261
0.0088978
0.00892004
0.00893962
0.00895673
0.00897141
0.0089836
0.00899317
0.000417128
0.00369708
0.00681829
0.00801449
0.00845454
0.00864709
0.00874761
0.00880773
0.00884748
0.00887583
0.00889727
0.00891425
0.00892822
0.00894002
0.0089502
0.0089591
0.00896695
0.0089739
0.00898004
0.0089854
0.00898999
0.00899377
0.00899669
0.000490799
0.00046378
0.000451978
0.000450375
0.00392193
0.00365117
0.00352294
0.00348206
0.00631684
0.00607893
0.00587836
0.00571635
0.00747869
0.00726532
0.00705165
0.00684922
0.00806832
0.00787897
0.00768258
0.00748503
0.00849094
0.0083334
0.00816319
0.00798456
0.00886983
0.00874005
0.00859484
0.00843641
0.00917254
0.00907371
0.00895672
0.00882234
0.00934129
0.00926894
0.00918059
0.00907912
0.00940401
0.00934859
0.00928212
0.00920419
0.00942209
0.00937629
0.00932172
0.00925834
0.00941294
0.00937469
0.00932892
0.00927583
0.00938199
0.00935002
0.00931155
0.00926686
0.00933434
0.00930747
0.00927503
0.00923731
0.00927593
0.0092532
0.00922576
0.00919384
0.00921209
0.00919292
0.00916979
0.00914284
0.0091469
0.00913102
0.0091118
0.00908928
0.00908324
0.00907057
0.00905503
0.0090366
0.00902336
0.00901385
0.00900183
0.00898721
0.00896891
0.00896255
0.00895389
0.00894285
0.00892164
0.00891837
0.00891293
0.0089052
0.00888372
0.00888343
0.008881
0.0088763
0.00885785
0.00886034
0.00886061
0.00885856
0.00884704
0.00885199
0.00885456
0.00885467
0.00885415
0.00886108
0.00886542
0.0088671
0.0088811
0.00888943
0.00889492
0.00889752
0.00892804
0.00893718
0.00894318
0.00894604
0.00899259
0.00900201
0.00900801
0.0090106
0.00906951
0.00907889
0.00908459
0.00908663
0.00915093
0.00916025
0.00916565
0.00916716
0.00922691
0.00923645
0.00924194
0.00924338
0.00928814
0.00929824
0.00930426
0.00930619
0.00932685
0.00933781
0.00934478
0.00934774
0.0093382
0.00935008
0.00935822
0.00936256
0.00932119
0.00933373
0.00934288
0.00934858
0.00927896
0.00929152
0.00930114
0.00930777
0.00921837
0.00923008
0.00923934
0.00924609
0.00914906
0.00915902
0.00916701
0.00917298
0.0090821
0.00908966
0.0090957
0.00910016
0.00902856
0.0090335
0.00903733
0.00904
0.00899813
0.00900067
0.00900252
0.00900365
0.00899811
0.0089988
0.00899925
0.00899945
0.00115076
0.00196415
0.00284167
0.00358848
0.00412678
0.00447354
0.00466407
0.00472805
0.00467923
0.00451162
0.00424214
0.00392005
0.00358194
0.00325503
0.00295152
0.00263999
0.00219459
0.00139755
0.000218414
0.00369985
0.00394773
0.00421527
0.00455164
0.00486113
0.00507294
0.00520044
0.00524647
0.00519594
0.00504633
0.00480996
0.00450768
0.00417557
0.00383139
0.00347688
0.00306835
0.00249434
0.00154303
0.000227514
0.00551884
0.00531877
0.00526499
0.00537342
0.00549578
0.00558868
0.00565583
0.0056839
0.00563367
0.00549397
0.00527401
0.00498975
0.00465737
0.00429304
0.00388584
0.00338291
0.00268818
0.00162188
0.000227205
0.00654301
0.00616216
0.00599539
0.00599731
0.00602371
0.00603566
0.00605408
0.00606139
0.00601003
0.00586694
0.00564432
0.0053529
0.00500442
0.0046054
0.0041397
0.00355242
0.00275176
0.00159488
0.000221753
0.007176
0.00679542
0.00658288
0.00650083
0.00645722
0.00642882
0.00641295
0.00638987
0.00632286
0.00617785
0.00593515
0.00560812
0.00520999
0.00475534
0.00422188
0.00355966
0.0026966
0.00149956
0.000216928
0.00770165
0.00734333
0.00710461
0.0069585
0.00685791
0.00679748
0.00675308
0.00669841
0.00660389
0.00643765
0.00617542
0.00580769
0.00533364
0.00479275
0.00417045
0.00343776
0.00258643
0.00149993
0.000215233
0.0081799
0.00784434
0.00758211
0.00738874
0.00724946
0.00715359
0.00707264
0.00697991
0.00684915
0.00665018
0.00635799
0.00596437
0.00545414
0.00481754
0.00408565
0.0032444
0.00237085
0.00143415
0.00021542
0.00859563
0.00828366
0.00801327
0.00779653
0.00762566
0.00748978
0.00736558
0.00722745
0.00705042
0.00680804
0.00648556
0.00606859
0.00553468
0.00488639
0.0040725
0.00310518
0.00212608
0.00125201
0.000200412
0.00889783
0.00862427
0.00836505
0.00814293
0.00795303
0.00778369
0.00761848
0.00743368
0.00720568
0.00691133
0.00654956
0.00611583
0.00557903
0.00495885
0.00415797
0.00317058
0.00208291
0.00104693
0.000188032
0.00906089
0.00882943
0.00859935
0.00838848
0.00819745
0.0080118
0.00781483
0.00758817
0.00731372
0.00697422
0.00657046
0.00611309
0.0055981
0.00499523
0.00425605
0.00334567
0.00228759
0.0011766
0.000188281
0.00914005
0.00894718
0.00874755
0.00855293
0.00836244
0.0081636
0.0079401
0.00767657
0.00736109
0.00698494
0.00655333
0.00607701
0.0055531
0.00497879
0.00430216
0.00346258
0.0024538
0.00128219
0.000187351
0.00917656
0.00901354
0.00884003
0.00866016
0.00846889
0.00825615
0.00800752
0.00771088
0.00736027
0.00695213
0.00649171
0.00599417
0.0054664
0.00490651
0.00426271
0.00347406
0.00251145
0.00134817
0.000184654
0.00918324
0.00904382
0.00889042
0.00872173
0.00853019
0.00830557
0.00803552
0.00771059
0.00732878
0.00689228
0.00640948
0.00589313
0.00535544
0.00478967
0.00415304
0.00338969
0.00246625
0.00134683
0.000181399
0.00916669
0.00904648
0.00890927
0.00875027
0.00856033
0.00832848
0.00804349
0.00769841
0.00729327
0.00683328
0.00632927
0.00579375
0.00523826
0.00465664
0.00401422
0.00326301
0.00236839
0.00129903
0.000180006
0.00913408
0.00902995
0.00890658
0.00875708
0.0085713
0.00833787
0.00804634
0.00769149
0.00727442
0.00680059
0.00628014
0.00572589
0.00514947
0.00454872
0.00389737
0.00315359
0.00227917
0.00123916
0.000181426
0.00909234
0.00900206
0.00889116
0.00875159
0.00857273
0.00834325
0.00805375
0.00769979
0.00728267
0.00680709
0.00628117
0.00571642
0.00512456
0.00450838
0.00385012
0.00311023
0.0022397
0.00120079
0.000185163
0.00904688
0.00896893
0.00886973
0.00874084
0.00857162
0.00835108
0.00807078
0.00772684
0.00732011
0.00685441
0.006336
0.00577424
0.00517985
0.00455748
0.00389407
0.00315091
0.00227078
0.00121341
0.000190504
0.00900147
0.00893462
0.00884665
0.00872911
0.00857182
0.00836418
0.00809854
0.00777138
0.00738308
0.00693645
0.00643636
0.00588997
0.00530543
0.00468596
0.00401892
0.00326612
0.00236972
0.0012766
0.000196462
0.00895872
0.00890195
0.00882458
0.00871849
0.00857434
0.00838242
0.00813513
0.00782905
0.00746431
0.0070427
0.00656773
0.00604428
0.00547714
0.0048659
0.00419603
0.00343032
0.00251035
0.00137326
0.000202518
0.00892046
0.00887288
0.00880534
0.00871035
0.00857942
0.00840384
0.00817665
0.00789416
0.00755547
0.00716144
0.00671432
0.00621661
0.00566926
0.00506691
0.00439301
0.00361085
0.0026632
0.00148379
0.000208404
0.00888841
0.00884913
0.00879049
0.00870585
0.00858731
0.00842746
0.00821985
0.00796058
0.007648
0.00728188
0.00686255
0.00638992
0.00586143
0.00526816
0.00458927
0.00378642
0.00280206
0.00156906
0.000214155
0.00886451
0.00883249
0.00878159
0.008706
0.00859875
0.00845308
0.00826335
0.00802547
0.00773706
0.00739669
0.007003
0.00655337
0.00604187
0.00545565
0.00477028
0.0039452
0.00292152
0.00163106
0.000218057
0.00885106
0.00882507
0.00878051
0.00871235
0.00861462
0.00848123
0.00830687
0.00808756
0.00782026
0.00750239
0.00713092
0.00670091
0.00620337
0.00562202
0.0049294
0.0040829
0.00302224
0.00167956
0.000220664
0.00885056
0.00882915
0.00878927
0.00872664
0.00863616
0.00851252
0.00835081
0.00814677
0.0078969
0.00759766
0.00724444
0.0068302
0.00634335
0.00576485
0.00506486
0.00419905
0.00310594
0.00171827
0.00022236
0.00886533
0.00884685
0.00880981
0.00875062
0.00866496
0.00854821
0.00839585
0.00820365
0.00796742
0.00768271
0.00734362
0.00694128
0.006462
0.00588462
0.00517749
0.0042949
0.00317429
0.00174858
0.000223237
0.00889693
0.00887964
0.00884352
0.00878562
0.00870232
0.0085896
0.0084433
0.00825921
0.00803281
0.00775859
0.00742958
0.00703548
0.00656093
0.00598322
0.00526933
0.00437253
0.00322923
0.00177203
0.000223379
0.00894552
0.00892774
0.00889073
0.0088321
0.00874883
0.00863742
0.00849405
0.00831455
0.0080941
0.00782661
0.0075039
0.00711467
0.00664234
0.00606306
0.0053429
0.00443433
0.00327288
0.00179033
0.000223158
0.00900926
0.00898965
0.00895027
0.00888922
0.008804
0.00869154
0.00854832
0.00837023
0.00815225
0.00788789
0.00756816
0.00718082
0.00670853
0.00612668
0.00540074
0.00448263
0.00330713
0.0018049
0.000222705
0.00908398
0.00906181
0.00901919
0.00895464
0.00886604
0.00875074
0.00860544
0.00842614
0.0082077
0.00794333
0.00762371
0.00723572
0.00676163
0.00617639
0.00544513
0.0045194
0.00333331
0.00181637
0.000221997
0.00916329
0.00913861
0.00909273
0.00902442
0.00893189
0.00881273
0.0086639
0.00848147
0.0082603
0.00799348
0.00767145
0.00728092
0.00680353
0.00621423
0.005478
0.00454616
0.0033521
0.00182398
0.000221153
0.00923911
0.00921287
0.00916466
0.00909335
0.00899729
0.00887427
0.00872139
0.00853482
0.0083095
0.0080385
0.00771226
0.00731752
0.00683583
0.00624193
0.00550098
0.00456414
0.00336404
0.00182714
0.000220146
0.00930262
0.00927666
0.00922794
0.00915537
0.00905728
0.00893147
0.00877508
0.00858439
0.0083544
0.00807832
0.00774675
0.00734664
0.00685981
0.00626105
0.00551554
0.00457456
0.00337008
0.00182672
0.000218714
0.00934598
0.00932233
0.00927554
0.00920424
0.00910657
0.00898012
0.0088219
0.00862814
0.00839393
0.0081127
0.00777538
0.00736931
0.00687675
0.00627293
0.00552318
0.00457884
0.00337175
0.00182497
0.000216693
0.00936341
0.00934383
0.00930146
0.00923436
0.0091402
0.00901615
0.00885881
0.00866409
0.00842706
0.00814142
0.00779858
0.00738648
0.00688801
0.00627898
0.00552527
0.00457844
0.00337033
0.00182317
0.000214638
0.00935227
0.00933778
0.00930166
0.00924148
0.00915411
0.00903605
0.00888309
0.00869049
0.00845294
0.00816437
0.00781682
0.00739907
0.00689485
0.00628071
0.00552316
0.00457429
0.00336604
0.0018198
0.000213037
0.00931372
0.00930427
0.00927514
0.00922356
0.00914579
0.00903726
0.00889267
0.00870601
0.00847104
0.00818164
0.00783068
0.00740802
0.00689848
0.00627951
0.00551831
0.00456742
0.00335898
0.0018141
0.000211455
0.00925308
0.00924744
0.00922464
0.00918184
0.00911511
0.00901881
0.00888643
0.00871003
0.00848127
0.00819361
0.00784083
0.00741427
0.00690007
0.00627675
0.00551221
0.00455939
0.00335053
0.00180684
0.000209782
0.00917946
0.00917566
0.00915735
0.00912188
0.00906548
0.00898237
0.00886492
0.00870314
0.00848433
0.00820099
0.00784806
0.00741868
0.00690064
0.00627366
0.0055064
0.00455217
0.00334307
0.00179997
0.00020887
0.00910485
0.00910099
0.00908508
0.0090546
0.00900603
0.00893444
0.00883227
0.00868866
0.00848232
0.00820501
0.0078532
0.00742199
0.006901
0.00627123
0.00550218
0.00454755
0.0033391
0.00179627
0.000208785
0.0090424
0.00903774
0.00902332
0.00899653
0.00895374
0.00889035
0.00880094
0.00867635
0.00847981
0.00820752
0.00785702
0.00742466
0.00690155
0.00626991
0.00550013
0.00454638
0.00333985
0.00179709
0.000209539
0.00900422
0.00899973
0.00898833
0.00896747
0.0089332
0.00887992
0.008802
0.00869021
0.00848274
0.00821
0.00785993
0.00742677
0.00690227
0.0062696
0.00549995
0.00454817
0.00334464
0.00180173
0.000211058
0.00899932
0.00899723
0.00899249
0.00898383
0.00896896
0.00894361
0.00889873
0.00880118
0.0084886
0.00821068
0.00786135
0.00742793
0.00690282
0.00626974
0.00550054
0.00455104
0.00335074
0.00180623
0.000211653
)
;

boundaryField
{
    leftWall
    {
        type            nutkWallFunction;
        Cmu             0.09;
        kappa           0.41;
        E               9.8;
        value           nonuniform List<scalar> 
50
(
7.72083e-06
1.04808e-05
1.19805e-05
1.31105e-05
1.40828e-05
1.49146e-05
1.56229e-05
1.62409e-05
1.70958e-05
1.81473e-05
2.00488e-05
2.18584e-05
2.37023e-05
2.08366e-05
1.74041e-05
1.79674e-05
1.92449e-05
2.05426e-05
2.16169e-05
2.2612e-05
2.33035e-05
2.36648e-05
2.37236e-05
2.34915e-05
2.29737e-05
2.21775e-05
2.11241e-05
1.98456e-05
1.86073e-05
1.70582e-05
1.52971e-05
1.32445e-05
1.14268e-05
9.9012e-06
8.85221e-06
8.32223e-06
8.22996e-06
8.4649e-06
8.93964e-06
9.60014e-06
1.04213e-05
1.14016e-05
1.25581e-05
1.39234e-05
1.55421e-05
1.75019e-05
1.99776e-05
2.34495e-05
2.97872e-05
4.92653e-05
)
;
    }
    rightWall
    {
        type            nutkWallFunction;
        Cmu             0.09;
        kappa           0.41;
        E               9.8;
        value           nonuniform List<scalar> 
50
(
1.2231e-05
1.54918e-05
1.75224e-05
1.91831e-05
2.06237e-05
2.19219e-05
2.31293e-05
2.42386e-05
2.53181e-05
2.64967e-05
2.66742e-05
2.60155e-05
2.54072e-05
2.5123e-05
2.5131e-05
2.44986e-05
1.89463e-05
1.87577e-05
1.93865e-05
1.90545e-05
1.82832e-05
1.77327e-05
1.68956e-05
1.74498e-05
1.83434e-05
1.96336e-05
2.05726e-05
2.13865e-05
2.21773e-05
2.27927e-05
2.32198e-05
2.3504e-05
2.35828e-05
2.36067e-05
2.36624e-05
2.36147e-05
2.35258e-05
2.34136e-05
2.32799e-05
2.30043e-05
2.2625e-05
2.24152e-05
2.21851e-05
2.18164e-05
2.15001e-05
2.13686e-05
2.13388e-05
2.14198e-05
2.16e-05
2.16337e-05
)
;
    }
    lowerWall
    {
        type            nutkWallFunction;
        Cmu             0.09;
        kappa           0.41;
        E               9.8;
        value           nonuniform List<scalar> 
62
(
3.59069e-06
5.47246e-06
6.63864e-06
7.42559e-06
8.01681e-06
8.49406e-06
8.89599e-06
9.24419e-06
9.55377e-06
9.83634e-06
1.01025e-05
1.03602e-05
1.06138e-05
1.08621e-05
1.10971e-05
1.12993e-05
1.14403e-05
1.14671e-05
1.12826e-05
1.08554e-05
1.00456e-05
8.56115e-06
5.72867e-06
5.72867e-06
1.75902e-05
2.10588e-05
2.42404e-05
2.76087e-05
3.12237e-05
3.58035e-05
4.40112e-05
5.25368e-05
5.00224e-05
4.89825e-05
4.90062e-05
7.53071e-06
2.24079e-05
2.40657e-05
2.45471e-05
2.57525e-05
2.90415e-05
3.66364e-05
4.76318e-05
7.53071e-06
1.04177e-05
1.24743e-05
1.33019e-05
1.33377e-05
1.32084e-05
1.31176e-05
1.30013e-05
1.26798e-05
1.19258e-05
1.10002e-05
1.00171e-05
9.01592e-06
8.0523e-06
7.08122e-06
6.59424e-06
6.28661e-06
5.98622e-06
5.31923e-06
)
;
    }
    atmosphere
    {
        type            calculated;
        value           nonuniform List<scalar> 
46
(
0.009
0.009
0.009
0.009
0.009
0.009
0.009
0.009
0.009
0.009
0.009
0.009
0.009
0.009
0.009
0.009
0.009
0.009
0.009
0.009
0.009
0.009
0.009
0.009
0.009
0.009
0.009
0.009
0.009
0.009
0.009
0.009
0.009
0.009
0.009
0.0084886
0.00821068
0.00786135
0.00742793
0.00690282
0.00626974
0.00550054
0.00455104
0.00335074
0.00180623
0.000211653
)
;
    }
    defaultFaces
    {
        type            empty;
    }
}


// ************************************************************************* //
