/*--------------------------------*- C++ -*----------------------------------*\
| =========                 |                                                 |
| \\      /  F ield         | OpenFOAM: The Open Source CFD Toolbox           |
|  \\    /   O peration     | Version:  2.3.0                                 |
|   \\  /    A nd           | Web:      www.OpenFOAM.org                      |
|    \\/     M anipulation  |                                                 |
\*---------------------------------------------------------------------------*/
FoamFile
{
    version     2.0;
    format      ascii;
    class       volScalarField;
    location    "2.05";
    object      p;
}
// * * * * * * * * * * * * * * * * * * * * * * * * * * * * * * * * * * * * * //

dimensions      [1 -1 -2 0 0 0 0];

internalField   nonuniform List<scalar> 
2268
(
668.818
668.871
669.977
671.85
674.283
677.173
680.443
684.003
687.753
691.587
695.398
699.113
702.637
705.915
708.935
711.681
714.182
716.543
718.653
721.24
724.499
727.626
729.567
609.992
609.938
610.881
612.696
615.096
617.984
621.276
624.878
628.685
632.583
636.462
640.233
643.812
647.162
650.262
653.147
655.874
658.656
662.003
664.799
666.526
667.986
670.173
550.993
551.053
551.867
553.556
555.879
558.737
562.041
565.688
569.566
573.551
577.523
581.381
585.041
588.467
591.662
594.685
597.618
600.741
604.881
607.644
608.454
608.254
610.903
491.83
492.093
492.836
494.414
496.656
499.481
502.798
506.5
510.461
514.547
518.625
522.583
526.331
529.831
533.094
536.181
539.182
542.324
546.339
549.147
549.721
548.799
552.063
432.526
432.973
433.709
435.208
437.386
440.19
443.537
447.31
451.374
455.577
459.774
463.84
467.68
471.247
474.55
477.63
480.553
483.455
486.801
489.507
490.03
489.781
493.795
373.082
373.661
374.435
375.88
378.011
380.812
384.213
388.085
392.28
396.624
400.96
405.15
409.089
412.725
416.053
419.081
421.827
424.354
426.926
428.955
429.272
430.426
435.975
313.501
314.178
314.989
316.408
318.502
321.318
324.798
328.799
333.151
337.66
342.154
346.481
350.529
354.236
357.588
360.538
363.038
365.098
366.791
367.742
367.336
369.86
378.034
253.795
254.546
255.374
256.806
258.853
261.7
265.294
269.452
273.98
278.654
283.295
287.744
291.881
295.648
299.016
301.862
304.032
305.512
306.127
305.74
303.948
305.339
318.328
629.978
628.088
645.811
669.383
690.555
708.744
725.005
738.743
750.224
761.712
776.195
796.008
816.448
834.905
846.149
855.729
866.514
879.767
889.191
571.752
568.483
585.026
608.109
629.961
649.269
666.682
681.76
693.792
704.602
719.365
739.359
760.483
779.322
794.014
803.001
810.458
820.634
830.937
512.236
509.006
525.013
546.836
568.649
588.659
606.876
623.182
636.755
649.651
664.853
683.908
704.564
723.707
741.859
750.407
756.751
763.337
773.566
451.719
449.627
466.384
487.83
509.272
529.397
547.773
564.284
579.062
593.275
608.644
627.253
647.926
667.71
687.66
697.237
703.751
708.985
717.456
391.134
391.533
409.301
430.313
451.174
471.172
489.706
506.672
521.658
536.18
550.257
568.757
590.52
611.226
631.43
643.854
651.173
655.51
663.535
330.223
335.578
353.365
373.361
393.507
413.329
432.152
449.943
465.436
479.172
490.586
508.434
532.519
554.411
574.467
589.683
599.135
602.634
610.793
266.823
280.781
297.753
316.124
335.704
355.5
374.821
393.957
410.897
426.478
441.288
455.339
474.214
497.476
517.592
534.273
546.265
550.225
558.602
197.921
221.777
237.841
256.072
276.749
297.232
317.321
338.595
358.261
379.594
399.287
411.432
423.128
441.112
460.615
477.318
492.444
498.574
507.127
160.268
161.047
161.96
163.345
165.279
168.231
172.124
176.655
181.554
186.525
191.391
195.993
200.218
204.044
207.447
210.145
211.722
211.927
210.903
208.237
203.627
197.764
190.36
49.6417
50.3758
51.0492
51.9754
53.6395
55.8985
58.974
62.6291
66.7504
71.0097
75.1375
78.945
82.3863
85.5398
88.4987
90.8883
92.1757
91.9437
89.9672
86.0257
80.2625
71.9782
62.1012
2.11016
2.33894
2.66449
3.10232
3.6912
4.36551
5.25762
6.38928
7.94905
9.75769
11.5664
13.2381
14.7494
15.9857
16.8841
17.6277
18.7246
20.0235
20.3962
18.8767
16.234
13.0806
10.8054
-0.159861
-0.171303
-0.0869272
0.112515
0.318558
0.441901
0.535848
0.60113
0.862799
1.20947
1.51278
1.74891
1.91114
1.78172
1.20506
0.474552
0.800902
2.51638
4.09581
4.31245
4.01842
4.29757
6.35664
-0.59364
-0.615756
-0.588344
-0.498347
-0.387801
-0.293603
-0.157163
0.0578954
0.192219
0.367541
0.590243
0.844967
1.11445
1.18577
0.809823
0.533006
0.597929
1.1702
2.66539
3.84999
4.1083
4.46876
5.292
-0.961289
-0.969286
-0.980355
-0.998698
-1.00353
-0.982686
-0.906985
-0.718159
-0.694883
-0.741734
-0.730412
-0.612804
-0.411575
-0.234099
-0.273854
-0.202617
-0.184429
-0.28509
0.145843
0.724912
0.855624
1.15881
1.98036
-1.12781
-1.12422
-1.12595
-1.13078
-1.13368
-1.13384
-1.14973
-1.17712
-1.17769
-1.15904
-1.13184
-1.08781
-1.00585
-0.915051
-0.785881
-0.704132
-0.717426
-0.85395
-0.92224
-0.88676
-0.854395
-0.771261
-0.733512
-1.2598
-1.25719
-1.2573
-1.26042
-1.26386
-1.26761
-1.27487
-1.28171
-1.2837
-1.27577
-1.25725
-1.22462
-1.17245
-1.11043
-1.05932
-0.985909
-1.01274
-1.08026
-1.08397
-1.07444
-1.07221
-1.06813
-1.07176
-1.39382
-1.39176
-1.39136
-1.39343
-1.39663
-1.40048
-1.40592
-1.41066
-1.41209
-1.40795
-1.40004
-1.39632
-1.39739
-1.37415
-1.3156
-1.24004
-1.24563
-1.27807
-1.26748
-1.23984
-1.23123
-1.23898
-1.26684
-1.52818
-1.52716
-1.52696
-1.5284
-1.53098
-1.53445
-1.53924
-1.54371
-1.54616
-1.54645
-1.54811
-1.56033
-1.5874
-1.59755
-1.57186
-1.51754
-1.49055
-1.49231
-1.48082
-1.44257
-1.42115
-1.42246
-1.43735
-1.66196
-1.66204
-1.66238
-1.66364
-1.6658
-1.66885
-1.67284
-1.67701
-1.68038
-1.68371
-1.68933
-1.70094
-1.71895
-1.74007
-1.75899
-1.74799
-1.70819
-1.68961
-1.6815
-1.65522
-1.62898
-1.61218
-1.61199
-1.79442
-1.79591
-1.79707
-1.79845
-1.80041
-1.80308
-1.80645
-1.8102
-1.81404
-1.81842
-1.82464
-1.83442
-1.84792
-1.8623
-1.87608
-1.88118
-1.86561
-1.85363
-1.8515
-1.83876
-1.81229
-1.78925
-1.7821
-1.92641
-1.92887
-1.93087
-1.93251
-1.93439
-1.93679
-1.93974
-1.94314
-1.94691
-1.95131
-1.95699
-1.96475
-1.97462
-1.9849
-1.99304
-1.99474
-1.99069
-1.98992
-1.99116
-1.97762
-1.95933
-1.94513
-1.94033
-2.05784
-2.06105
-2.06374
-2.06567
-2.06753
-2.06973
-2.07235
-2.07538
-2.07883
-2.08285
-2.08773
-2.09376
-2.10081
-2.10796
-2.11358
-2.11557
-2.11472
-2.11532
-2.11432
-2.10615
-2.09599
-2.0888
-2.08757
-2.18896
-2.19263
-2.19576
-2.1979
-2.19976
-2.20179
-2.20413
-2.20681
-2.20985
-2.21335
-2.21743
-2.22215
-2.22732
-2.23239
-2.2365
-2.2387
-2.23919
-2.23958
-2.23873
-2.23475
-2.22992
-2.22714
-2.22829
-2.31993
-2.32374
-2.32703
-2.32927
-2.33112
-2.333
-2.3351
-2.33746
-2.34011
-2.34309
-2.34646
-2.35021
-2.35417
-2.35798
-2.36118
-2.36333
-2.36449
-2.36523
-2.36521
-2.36379
-2.36225
-2.36219
-2.36471
-2.4508
-2.45444
-2.45763
-2.45988
-2.46171
-2.46348
-2.46538
-2.46748
-2.46979
-2.47234
-2.47514
-2.47816
-2.48131
-2.48436
-2.48702
-2.48911
-2.49064
-2.49184
-2.49262
-2.49286
-2.49328
-2.49484
-2.49823
-2.58151
-2.58469
-2.5876
-2.58982
-2.59165
-2.59336
-2.59511
-2.59699
-2.59904
-2.60125
-2.60364
-2.60616
-2.60875
-2.61129
-2.61364
-2.61567
-2.61742
-2.61899
-2.62039
-2.62167
-2.62325
-2.62567
-2.62931
-2.71187
-2.71438
-2.71696
-2.7192
-2.72108
-2.72275
-2.72439
-2.7261
-2.72794
-2.72991
-2.732
-2.73418
-2.73642
-2.73863
-2.74076
-2.74274
-2.74461
-2.74642
-2.74824
-2.75016
-2.75241
-2.75527
-2.75891
-2.84173
-2.84355
-2.84586
-2.84826
-2.85017
-2.8518
-2.85332
-2.85488
-2.85654
-2.85832
-2.8602
-2.86216
-2.86416
-2.86617
-2.86815
-2.8701
-2.87202
-2.87398
-2.87605
-2.87832
-2.88093
-2.88402
-2.88772
-2.9727
-2.97392
-2.9753
-2.97744
-2.97917
-2.98062
-2.98199
-2.98338
-2.98488
-2.98649
-2.9882
-2.99
-2.99185
-2.99373
-2.99562
-2.99753
-2.99948
-3.00152
-3.00373
-3.00617
-3.00894
-3.01211
-3.0158
-3.10511
-3.10571
-3.10595
-3.10706
-3.10818
-3.10927
-3.1104
-3.11162
-3.11296
-3.11441
-3.11599
-3.11765
-3.11939
-3.12118
-3.12301
-3.1249
-3.12685
-3.12893
-3.13119
-3.13369
-3.1365
-3.13967
-3.14328
-3.23704
-3.23698
-3.23672
-3.23656
-3.23693
-3.23763
-3.23854
-3.2396
-3.2408
-3.24213
-3.24358
-3.24514
-3.24678
-3.2485
-3.25028
-3.25213
-3.25408
-3.25616
-3.25842
-3.26092
-3.2637
-3.2668
-3.27028
-3.36667
-3.36629
-3.36556
-3.36502
-3.36508
-3.36558
-3.36635
-3.36731
-3.36842
-3.36967
-3.37103
-3.3725
-3.37406
-3.37571
-3.37743
-3.37925
-3.38117
-3.38322
-3.38545
-3.38791
-3.39062
-3.39361
-3.39695
-3.4945
-3.4937
-3.49284
-3.49255
-3.49269
-3.49316
-3.49389
-3.49481
-3.49588
-3.49707
-3.49838
-3.49978
-3.50128
-3.50286
-3.50454
-3.5063
-3.50818
-3.51019
-3.51237
-3.51476
-3.51737
-3.52024
-3.52341
-3.62218
-3.62102
-3.62015
-3.6199
-3.62007
-3.62055
-3.62127
-3.62217
-3.62322
-3.62439
-3.62566
-3.62702
-3.62847
-3.63001
-3.63163
-3.63335
-3.63518
-3.63714
-3.63926
-3.64156
-3.64407
-3.6468
-3.6498
-3.74993
-3.74866
-3.74771
-3.74737
-3.74749
-3.74794
-3.74863
-3.74951
-3.75054
-3.75169
-3.75293
-3.75427
-3.75568
-3.75717
-3.75876
-3.76043
-3.76221
-3.76411
-3.76615
-3.76836
-3.77076
-3.77335
-3.77618
-3.87771
-3.87644
-3.87542
-3.87498
-3.87503
-3.87541
-3.87605
-3.87689
-3.87788
-3.879
-3.88022
-3.88153
-3.88291
-3.88437
-3.88591
-3.88754
-3.88926
-3.8911
-3.89307
-3.89518
-3.89746
-3.89991
-3.90256
-4.0055
-4.00427
-4.00323
-4.00272
-4.00269
-4.00299
-4.00357
-4.00435
-4.0053
-4.00638
-4.00756
-4.00883
-4.01018
-4.0116
-4.01309
-4.01467
-4.01634
-4.01811
-4.01999
-4.02201
-4.02417
-4.02647
-4.02895
-4.13328
-4.13212
-4.13109
-4.13054
-4.13045
-4.13068
-4.13119
-4.13191
-4.1328
-4.13382
-4.13495
-4.13618
-4.13748
-4.13885
-4.14029
-4.14181
-4.14342
-4.14511
-4.14691
-4.14882
-4.15085
-4.15301
-4.15531
-4.26105
-4.25997
-4.25898
-4.25841
-4.25827
-4.25845
-4.25889
-4.25954
-4.26037
-4.26133
-4.2624
-4.26356
-4.2648
-4.26611
-4.26749
-4.26894
-4.27047
-4.27208
-4.27378
-4.27558
-4.27748
-4.27949
-4.28161
-4.38879
-4.3878
-4.38685
-4.3863
-4.38613
-4.38627
-4.38665
-4.38724
-4.38799
-4.38889
-4.38989
-4.39098
-4.39214
-4.39338
-4.39468
-4.39605
-4.39749
-4.399
-4.40059
-4.40227
-4.40404
-4.40589
-4.40784
-4.51649
-4.51559
-4.51471
-4.51417
-4.51399
-4.51409
-4.51443
-4.51496
-4.51566
-4.51648
-4.5174
-4.51841
-4.51949
-4.52064
-4.52185
-4.52312
-4.52446
-4.52586
-4.52733
-4.52888
-4.5305
-4.5322
-4.53397
-4.64415
-4.64334
-4.64252
-4.64202
-4.64184
-4.64192
-4.64222
-4.6427
-4.64333
-4.64408
-4.64492
-4.64584
-4.64683
-4.64788
-4.64899
-4.65015
-4.65137
-4.65265
-4.654
-4.65541
-4.65688
-4.65841
-4.66001
-4.77174
-4.77103
-4.7703
-4.76983
-4.76966
-4.76973
-4.77
-4.77044
-4.77101
-4.77168
-4.77244
-4.77326
-4.77415
-4.77509
-4.77609
-4.77713
-4.77823
-4.77938
-4.78059
-4.78185
-4.78317
-4.78454
-4.78596
-4.89928
-4.89867
-4.89802
-4.8976
-4.89745
-4.89752
-4.89777
-4.89816
-4.89867
-4.89927
-4.89993
-4.90066
-4.90145
-4.90227
-4.90315
-4.90407
-4.90504
-4.90605
-4.90711
-4.90822
-4.90938
-4.91058
-4.91183
-5.02677
-5.02627
-5.02571
-5.02535
-5.02522
-5.02529
-5.02552
-5.02587
-5.02631
-5.02683
-5.02741
-5.02804
-5.02871
-5.02942
-5.03017
-5.03097
-5.0318
-5.03267
-5.03358
-5.03453
-5.03553
-5.03656
-5.03763
-5.15422
-5.15383
-5.15338
-5.15307
-5.15297
-5.15305
-5.15325
-5.15356
-5.15394
-5.15437
-5.15485
-5.15538
-5.15593
-5.15653
-5.15715
-5.15781
-5.15851
-5.15923
-5.15999
-5.16079
-5.16162
-5.16248
-5.16337
-5.28165
-5.28139
-5.28104
-5.28077
-5.2807
-5.28077
-5.28095
-5.28121
-5.28152
-5.28186
-5.28225
-5.28266
-5.28311
-5.28358
-5.28408
-5.28461
-5.28517
-5.28575
-5.28636
-5.287
-5.28767
-5.28835
-5.28907
-5.4091
-5.40898
-5.40871
-5.40844
-5.40836
-5.40843
-5.40858
-5.40878
-5.40901
-5.40927
-5.40956
-5.40987
-5.41021
-5.41057
-5.41094
-5.41134
-5.41177
-5.41221
-5.41267
-5.41315
-5.41366
-5.41418
-5.41472
-5.53665
-5.53665
-5.53643
-5.53603
-5.53593
-5.53599
-5.53611
-5.53625
-5.53642
-5.5366
-5.5368
-5.53701
-5.53724
-5.53749
-5.53775
-5.53802
-5.53831
-5.53861
-5.53893
-5.53926
-5.53961
-5.53996
-5.54033
-5.66437
-5.66504
-5.66483
-5.66439
-5.66431
-5.66434
-5.66439
-5.66445
-5.66453
-5.66461
-5.66469
-5.66478
-5.66489
-5.66499
-5.66511
-5.66523
-5.66535
-5.66549
-5.66563
-5.66577
-5.66591
-5.66606
-5.6662
168.849
160.534
154.713
146.002
50.9377
45.4106
43.9059
40.9015
7.3886
5.46429
5.3939
6.28239
7.4508
7.25685
6.68273
6.48767
5.13234
5.03092
5.3278
5.81714
2.54085
3.07613
3.69242
4.34466
-0.0931297
0.53592
0.661151
0.699352
-1.08909
-1.109
-1.17112
-1.22237
-1.29475
-1.29858
-1.2973
-1.31117
-1.45395
-1.46329
-1.47002
-1.47712
-1.62041
-1.62797
-1.63649
-1.6457
-1.78461
-1.78933
-1.79561
-1.80273
-1.94059
-1.94421
-1.94847
-1.95308
-2.08803
-2.09177
-2.09478
-2.09793
-2.23085
-2.23412
-2.23629
-2.2387
-2.36898
-2.37132
-2.37343
-2.37589
-2.50163
-2.50415
-2.50696
-2.50984
-2.63269
-2.63548
-2.63861
-2.64169
-2.76254
-2.76551
-2.7688
-2.77195
-2.89142
-2.89446
-2.89777
-2.90091
-3.01948
-3.02249
-3.02577
-3.02885
-3.14686
-3.14979
-3.15298
-3.156
-3.27371
-3.27652
-3.2796
-3.28253
-3.4002
-3.40285
-3.40579
-3.40861
-3.52646
-3.52895
-3.53171
-3.53438
-3.65264
-3.65493
-3.65748
-3.65998
-3.77879
-3.78088
-3.78321
-3.7855
-3.90497
-3.90685
-3.90894
-3.91101
-4.03115
-4.03284
-4.0347
-4.03655
-4.15731
-4.15883
-4.16048
-4.16211
-4.28343
-4.28479
-4.28625
-4.2877
-4.40949
-4.4107
-4.412
-4.41327
-4.53546
-4.53654
-4.5377
-4.53882
-4.66134
-4.66231
-4.66334
-4.66433
-4.78714
-4.78799
-4.7889
-4.78977
-4.91286
-4.9136
-4.91439
-4.91515
-5.03851
-5.03915
-5.03982
-5.04047
-5.1641
-5.16464
-5.1652
-5.16574
-5.28966
-5.29008
-5.29052
-5.29096
-5.41517
-5.41549
-5.41582
-5.41614
-5.54061
-5.54082
-5.54104
-5.54125
-5.6663
-5.66638
-5.66646
-5.66654
122.504
122.672
136.008
158.241
182.818
205.522
227.393
251.678
276.339
302.563
327.807
345.299
357.513
370.001
384.676
398.753
411.127
419.446
428.608
32.1464
25.3158
32.0619
45.2786
65.5343
88.3349
111.137
135.034
161.853
192.78
224.329
249.265
267.698
282.051
294.169
303.221
308.905
316.646
326.967
7.58348
8.8898
9.5219
10.3062
13.8192
22.3424
34.1643
46.1589
61.9288
86.0129
115.337
144.652
168.114
184.493
197.151
204.414
208.256
218.563
230.728
6.63045
6.99796
7.30522
7.64111
8.11629
8.94346
10.3842
12.3001
14.5704
21.7756
36.071
56.5291
75.497
91.1517
102.928
109.954
115.404
128.129
141.096
6.1478
6.47141
6.76647
7.01875
7.24715
7.6908
8.14108
8.63736
9.02173
8.83737
8.95806
14.3304
24.3016
35.711
45.7926
50.8649
52.1408
57.2481
67.6179
4.97777
5.67583
6.01213
6.26858
6.27286
6.1857
6.3154
6.55978
6.73012
6.67291
6.35077
5.49995
6.62064
12.5742
19.8204
23.053
21.8864
18.0604
20.9197
1.503
2.84698
3.46161
3.43557
3.21466
2.8641
2.82926
3.01834
3.33136
3.51291
3.31376
2.5639
1.03036
2.26972
4.7624
6.08883
6.12226
3.95201
2.5768
-1.10209
-0.623536
-0.23934
-0.360944
-0.416042
-0.427986
-0.425821
-0.38871
-0.222272
0.0182524
0.276455
-0.127805
-0.890233
-1.30071
-1.59207
-1.60548
-1.16468
-0.397249
-1.04581
-1.40409
-1.5271
-1.5322
-1.52663
-1.4779
-1.43075
-1.42085
-1.44177
-1.48118
-1.49982
-1.35489
-1.38505
-1.5262
-1.64838
-1.6748
-1.68221
-1.72291
-1.76448
-1.73465
-1.49942
-1.55296
-1.59053
-1.57322
-1.54832
-1.54216
-1.5525
-1.57525
-1.60579
-1.63756
-1.70701
-1.79615
-1.77062
-1.79296
-1.80321
-1.81163
-1.81991
-1.82535
-1.83388
-1.66129
-1.68524
-1.70326
-1.71225
-1.70885
-1.70953
-1.71878
-1.73676
-1.76211
-1.79296
-1.83549
-1.87515
-1.89211
-1.90888
-1.92152
-1.93122
-1.93848
-1.9435
-1.94559
-1.8152
-1.83291
-1.84876
-1.86384
-1.87095
-1.87388
-1.88352
-1.9004
-1.92086
-1.94246
-1.96935
-1.99563
-2.01051
-2.0254
-2.036
-2.04378
-2.05353
-2.06057
-2.06302
-1.96119
-1.97448
-1.9892
-2.00601
-2.02099
-2.02965
-2.0402
-2.05828
-2.07391
-2.08576
-2.09721
-2.11522
-2.13108
-2.14498
-2.15352
-2.16122
-2.17218
-2.1801
-2.18417
-2.10332
-2.11306
-2.12566
-2.14077
-2.1579
-2.17468
-2.1883
-2.20146
-2.21227
-2.22035
-2.22668
-2.23979
-2.25385
-2.26704
-2.27686
-2.2852
-2.29347
-2.30172
-2.3082
-2.24296
-2.25075
-2.26122
-2.274
-2.28912
-2.3061
-2.32078
-2.32911
-2.33894
-2.35083
-2.36063
-2.3707
-2.38008
-2.39013
-2.40065
-2.40906
-2.41611
-2.42407
-2.42812
-2.37994
-2.38697
-2.39586
-2.40633
-2.41861
-2.43183
-2.44434
-2.45445
-2.46499
-2.47766
-2.48979
-2.49936
-2.50604
-2.51235
-2.52134
-2.53099
-2.5385
-2.54187
-2.54234
-2.51422
-2.5212
-2.52898
-2.53803
-2.54797
-2.55862
-2.56956
-2.57949
-2.5896
-2.60052
-2.61168
-2.62086
-2.62708
-2.63342
-2.64188
-2.65115
-2.65686
-2.6569
-2.65607
-2.64619
-2.6532
-2.66077
-2.66874
-2.67739
-2.68635
-2.69554
-2.70454
-2.71365
-2.72307
-2.73229
-2.74039
-2.74718
-2.75404
-2.76192
-2.76922
-2.77259
-2.77385
-2.77195
-2.77642
-2.783
-2.79061
-2.79839
-2.80628
-2.81416
-2.82178
-2.82955
-2.83762
-2.84585
-2.8539
-2.86128
-2.86796
-2.87453
-2.88121
-2.88687
-2.89033
-2.8923
-2.89046
-2.9053
-2.91135
-2.91834
-2.92595
-2.93345
-2.94068
-2.94735
-2.9542
-2.96142
-2.96878
-2.97597
-2.98273
-2.98902
-2.99503
-3.00074
-3.00557
-3.00882
-3.01097
-3.00913
-3.03312
-3.03874
-3.04503
-3.0518
-3.05873
-3.06551
-3.07191
-3.07836
-3.08501
-3.0917
-3.09823
-3.10442
-3.11019
-3.1156
-3.12055
-3.12467
-3.12747
-3.12893
-3.12766
-3.16015
-3.16543
-3.17119
-3.17733
-3.18363
-3.1899
-3.19604
-3.20218
-3.2084
-3.21456
-3.22052
-3.22617
-3.23142
-3.23624
-3.24053
-3.24399
-3.24625
-3.24701
-3.24557
-3.28656
-3.29157
-3.29694
-3.30261
-3.30843
-3.31427
-3.32007
-3.32587
-3.33167
-3.33736
-3.34283
-3.34796
-3.3527
-3.35697
-3.36064
-3.36349
-3.36519
-3.36535
-3.3634
-3.41252
-3.41729
-3.42235
-3.42765
-3.43309
-3.43857
-3.44403
-3.44948
-3.45487
-3.46014
-3.46516
-3.46982
-3.47405
-3.47778
-3.48085
-3.48308
-3.48418
-3.48373
-3.48147
-3.53813
-3.54269
-3.54747
-3.55246
-3.55758
-3.56274
-3.56789
-3.573
-3.57802
-3.58287
-3.58746
-3.59168
-3.59544
-3.59863
-3.60111
-3.60271
-3.6031
-3.60187
-3.59938
-3.66352
-3.66784
-3.67235
-3.67706
-3.68188
-3.68674
-3.69158
-3.69637
-3.70103
-3.70549
-3.70967
-3.71347
-3.71677
-3.71946
-3.7214
-3.72238
-3.72205
-3.71999
-3.71681
-3.78879
-3.79285
-3.79708
-3.80149
-3.80601
-3.81056
-3.81509
-3.81955
-3.82387
-3.82797
-3.83176
-3.83515
-3.83803
-3.84027
-3.84173
-3.84218
-3.84125
-3.8385
-3.83486
-3.91403
-3.91779
-3.92171
-3.92581
-3.93001
-3.93424
-3.93844
-3.94257
-3.94654
-3.95028
-3.9537
-3.95672
-3.95921
-3.96107
-3.96214
-3.96221
-3.9609
-3.95778
-3.95398
-4.03927
-4.04273
-4.04633
-4.05009
-4.05395
-4.05783
-4.0617
-4.06547
-4.06909
-4.07247
-4.07554
-4.07821
-4.08036
-4.0819
-4.08268
-4.08251
-4.08105
-4.07789
-4.0737
-4.16455
-4.16769
-4.17097
-4.17439
-4.17789
-4.18142
-4.18492
-4.18834
-4.1916
-4.19463
-4.19736
-4.19969
-4.20154
-4.2028
-4.20336
-4.20305
-4.20155
-4.19841
-4.19395
-4.28987
-4.2927
-4.29565
-4.29873
-4.30188
-4.30506
-4.3082
-4.31125
-4.31416
-4.31684
-4.31923
-4.32126
-4.32283
-4.32385
-4.32422
-4.32378
-4.32221
-4.31903
-4.31479
-4.4152
-4.41774
-4.42039
-4.42315
-4.42596
-4.42878
-4.43158
-4.43428
-4.43684
-4.43918
-4.44126
-4.44299
-4.4443
-4.4451
-4.44529
-4.4447
-4.44298
-4.43962
-4.43584
-4.54053
-4.5428
-4.54517
-4.54762
-4.55012
-4.55262
-4.55509
-4.55746
-4.55969
-4.56171
-4.56348
-4.56493
-4.566
-4.56661
-4.56664
-4.56592
-4.56402
-4.56029
-4.55639
-4.66584
-4.66786
-4.66997
-4.67214
-4.67435
-4.67656
-4.67874
-4.68082
-4.68275
-4.68447
-4.68594
-4.68713
-4.68798
-4.68841
-4.68835
-4.68759
-4.68571
-4.682
-4.67771
-4.7911
-4.7929
-4.79477
-4.79669
-4.79864
-4.8006
-4.80253
-4.80436
-4.80602
-4.80745
-4.80864
-4.80958
-4.81022
-4.81052
-4.81039
-4.80969
-4.80803
-4.80481
-4.80074
-4.91632
-4.9179
-4.91954
-4.92124
-4.92297
-4.92471
-4.92644
-4.92808
-4.9295
-4.93067
-4.93158
-4.93227
-4.93271
-4.93288
-4.9327
-4.93202
-4.93046
-4.92744
-4.92374
-5.04148
-5.04286
-5.04428
-5.04576
-5.04728
-5.04885
-5.05045
-5.05197
-5.05322
-5.05411
-5.05473
-5.05516
-5.0554
-5.05544
-5.05519
-5.05448
-5.05285
-5.04965
-5.04585
-5.16659
-5.16775
-5.16896
-5.17022
-5.17155
-5.17296
-5.17449
-5.17605
-5.17719
-5.17777
-5.17806
-5.17821
-5.17824
-5.17815
-5.17786
-5.17716
-5.17547
-5.17211
-5.16816
-5.29165
-5.29259
-5.29356
-5.2946
-5.29571
-5.29697
-5.29854
-5.30038
-5.30157
-5.3017
-5.30156
-5.30137
-5.30118
-5.30099
-5.30071
-5.30014
-5.29858
-5.29526
-5.29129
-5.41665
-5.41735
-5.41807
-5.41883
-5.41969
-5.42079
-5.42248
-5.42548
-5.42721
-5.42624
-5.42532
-5.42468
-5.42419
-5.42387
-5.42366
-5.42336
-5.42217
-5.41913
-5.41521
-5.54161
-5.54206
-5.5425
-5.54294
-5.54349
-5.54428
-5.54609
-5.55231
-5.55563
-5.55182
-5.54941
-5.54811
-5.54722
-5.54667
-5.54648
-5.54657
-5.54605
-5.54367
-5.54005
-5.66667
-5.66683
-5.66699
-5.66718
-5.66753
-5.66834
-5.67086
-5.67897
-5.67967
-5.67424
-5.67162
-5.67029
-5.66942
-5.6688
-5.66861
-5.66989
-5.67139
-5.66975
-5.66549
)
;

boundaryField
{
    leftWall
    {
        type            calculated;
        value           nonuniform List<scalar> 
50
(
668.818
609.992
550.993
491.83
432.526
373.082
313.501
253.795
160.268
49.6417
2.11016
-0.159861
-0.59364
-0.961289
-1.12781
-1.2598
-1.39382
-1.52818
-1.66196
-1.79442
-1.92641
-2.05784
-2.18896
-2.31993
-2.4508
-2.58151
-2.71187
-2.84173
-2.9727
-3.10511
-3.23704
-3.36667
-3.4945
-3.62218
-3.74993
-3.87771
-4.0055
-4.13328
-4.26105
-4.38879
-4.51649
-4.64415
-4.77174
-4.89928
-5.02677
-5.15422
-5.28165
-5.4091
-5.53665
-5.66437
)
;
    }
    rightWall
    {
        type            calculated;
        value           nonuniform List<scalar> 
50
(
889.191
830.937
773.566
717.456
663.535
610.793
558.602
507.127
428.608
326.967
230.728
141.096
67.6179
20.9197
2.5768
-1.04581
-1.73465
-1.83388
-1.94559
-2.06302
-2.18417
-2.3082
-2.42812
-2.54234
-2.65607
-2.77195
-2.89046
-3.00913
-3.12766
-3.24557
-3.3634
-3.48147
-3.59938
-3.71681
-3.83486
-3.95398
-4.0737
-4.19395
-4.31479
-4.43584
-4.55639
-4.67771
-4.80074
-4.92374
-5.04585
-5.16816
-5.29129
-5.41521
-5.54005
-5.66549
)
;
    }
    lowerWall
    {
        type            calculated;
        value           nonuniform List<scalar> 
62
(
698.247
698.3
699.406
701.28
703.713
706.603
709.872
713.432
717.182
721.016
724.828
728.542
732.066
735.345
738.365
741.111
743.612
745.969
747.749
750.071
753.765
756.894
758.687
729.567
670.173
610.903
552.063
493.795
435.975
378.034
318.328
231.382
222.891
216.76
207.553
629.978
571.752
512.236
451.719
391.134
330.223
266.823
197.921
658.792
656.399
673.362
696.906
718.062
736.148
752.142
765.858
777.756
790.392
805.488
825.304
845.744
863.979
873.218
882.68
894.895
908.148
917.573
)
;
    }
    atmosphere
    {
        type            calculated;
        value           nonuniform List<scalar> 
46
(
-5.72904
-5.72913
-5.72914
-5.72913
-5.72912
-5.72912
-5.72911
-5.72911
-5.72911
-5.72912
-5.72913
-5.72914
-5.72916
-5.72918
-5.7292
-5.72922
-5.72924
-5.72927
-5.72929
-5.72931
-5.72933
-5.72934
-5.72934
-5.72934
-5.72934
-5.72933
-5.72931
-5.72929
-5.72924
-5.7292
-5.72915
-5.72912
-5.72909
-5.72906
-5.72904
-5.72904
-5.72904
-5.72904
-5.72904
-5.72904
-5.72904
-5.72904
-5.7327
-5.73862
-5.73849
-5.73015
)
;
    }
    defaultFaces
    {
        type            empty;
    }
}


// ************************************************************************* //
