/*--------------------------------*- C++ -*----------------------------------*\
| =========                 |                                                 |
| \\      /  F ield         | OpenFOAM: The Open Source CFD Toolbox           |
|  \\    /   O peration     | Version:  2.3.0                                 |
|   \\  /    A nd           | Web:      www.OpenFOAM.org                      |
|    \\/     M anipulation  |                                                 |
\*---------------------------------------------------------------------------*/
FoamFile
{
    version     2.0;
    format      ascii;
    class       volVectorField;
    location    "2.05";
    object      U;
}
// * * * * * * * * * * * * * * * * * * * * * * * * * * * * * * * * * * * * * //

dimensions      [0 1 -1 0 0 0 0];

internalField   nonuniform List<vector> 
2268
(
(-0.0155204 0.005481 0)
(-0.0205872 0.00101202 0)
(-0.0206615 -0.00103783 0)
(-0.0185097 -0.0014698 0)
(-0.0155902 -0.00140705 0)
(-0.0127049 -0.00124086 0)
(-0.010027 -0.00106859 0)
(-0.00763134 -0.000889878 0)
(-0.00558912 -0.000710696 0)
(-0.00393609 -0.000514363 0)
(-0.0026935 -0.000347963 0)
(-0.001837 -0.000200666 0)
(-0.00129843 -8.73784e-05 0)
(-0.00106948 5.57521e-05 0)
(-0.00128655 0.000334844 0)
(-0.00236111 0.000871851 0)
(-0.00519783 0.00175288 0)
(-0.00993678 0.00311548 0)
(-0.0209517 0.00728278 0)
(-0.0412635 0.00924107 0)
(-0.0609983 0.00404904 0)
(-0.0611289 -0.00834019 0)
(-0.0267698 -0.0167047 0)
(-0.0115192 0.0115186 0)
(-0.0130645 0.00267703 0)
(-0.0130723 -0.000726017 0)
(-0.0118984 -0.0018356 0)
(-0.00988363 -0.00206204 0)
(-0.00759353 -0.00200994 0)
(-0.00523725 -0.00186679 0)
(-0.00297018 -0.00165979 0)
(-0.000930064 -0.00139965 0)
(0.000781369 -0.00108836 0)
(0.00210024 -0.000788526 0)
(0.00302086 -0.000512624 0)
(0.00358898 -0.000273248 0)
(0.00383447 6.58977e-06 0)
(0.00369228 0.000486748 0)
(0.00290547 0.00138674 0)
(0.000858843 0.00288173 0)
(-0.00300121 0.005348 0)
(-0.00967704 0.0106411 0)
(-0.0198093 0.013415 0)
(-0.0304784 0.00743689 0)
(-0.0366247 -0.009429 0)
(-0.0210197 -0.03194 0)
(-0.00518752 0.0152781 0)
(-0.0075468 0.0033754 0)
(-0.00785197 -0.000886939 0)
(-0.00734734 -0.00238584 0)
(-0.00601394 -0.002844 0)
(-0.00423021 -0.00291584 0)
(-0.00219589 -0.0028148 0)
(-9.74277e-05 -0.00257782 0)
(0.00188986 -0.0022217 0)
(0.00362357 -0.00177272 0)
(0.00500891 -0.00130706 0)
(0.0060184 -0.000872704 0)
(0.00668631 -0.000484738 0)
(0.00706275 -5.85006e-05 0)
(0.00715362 0.000601828 0)
(0.00683138 0.00180605 0)
(0.00570361 0.0038387 0)
(0.00324814 0.00708922 0)
(1.71412e-05 0.0126723 0)
(-0.00403098 0.0158443 0)
(-0.00931291 0.0102076 0)
(-0.0164327 -0.00841917 0)
(-0.00964874 -0.0414901 0)
(-0.000633447 0.0170832 0)
(-0.00322771 0.0041083 0)
(-0.00382004 -0.000790383 0)
(-0.0038456 -0.00269831 0)
(-0.00310267 -0.00344271 0)
(-0.00179961 -0.00370707 0)
(-9.43202e-05 -0.003714 0)
(0.00182199 -0.00349829 0)
(0.00375074 -0.00308268 0)
(0.00551806 -0.00251331 0)
(0.00700042 -0.00189129 0)
(0.00815066 -0.00130047 0)
(0.00899684 -0.000775266 0)
(0.00961497 -0.000237316 0)
(0.0100852 0.000540535 0)
(0.0104025 0.00193489 0)
(0.0103702 0.00431275 0)
(0.0096488 0.00802171 0)
(0.00907601 0.0134868 0)
(0.00891698 0.0169454 0)
(0.00759478 0.0121376 0)
(0.00200962 -0.00653564 0)
(0.00285731 -0.0445731 0)
(0.00197262 0.0171814 0)
(2.33317e-05 0.00471651 0)
(-0.000763622 -0.000522556 0)
(-0.00123061 -0.00276867 0)
(-0.00104199 -0.0038147 0)
(-0.000225566 -0.00432853 0)
(0.00113041 -0.00451209 0)
(0.00285109 -0.0043807 0)
(0.00472558 -0.0039569 0)
(0.00655419 -0.00330304 0)
(0.00818518 -0.00255035 0)
(0.00955072 -0.00182231 0)
(0.0106729 -0.00118649 0)
(0.011655 -0.000586916 0)
(0.0126545 0.000213024 0)
(0.0137899 0.00163915 0)
(0.0150389 0.00412004 0)
(0.0162629 0.00793283 0)
(0.0181126 0.0130603 0)
(0.0209768 0.0165324 0)
(0.0227524 0.0129076 0)
(0.0195129 -0.00387368 0)
(0.0151598 -0.0401834 0)
(0.00330031 0.0162806 0)
(0.002281 0.00509573 0)
(0.00137252 -0.000129114 0)
(0.000500685 -0.00260463 0)
(0.000138723 -0.00393961 0)
(0.000444394 -0.00474908 0)
(0.00142287 -0.00518 0)
(0.00293244 -0.00520546 0)
(0.00476022 -0.00483808 0)
(0.00668661 -0.00415053 0)
(0.00853164 -0.00330674 0)
(0.0102038 -0.00247404 0)
(0.0117145 -0.00176554 0)
(0.0131902 -0.00116712 0)
(0.0148645 -0.000457625 0)
(0.0169781 0.000822789 0)
(0.0196595 0.00315088 0)
(0.0229369 0.00675318 0)
(0.0272707 0.0114109 0)
(0.0328618 0.0147494 0)
(0.0373704 0.0125332 0)
(0.0370428 -0.000164366 0)
(0.028357 -0.0291139 0)
(0.00397038 0.0148112 0)
(0.0036795 0.0052691 0)
(0.00263339 0.000384526 0)
(0.00135011 -0.0022 0)
(0.00042636 -0.00379782 0)
(0.000187547 -0.00494462 0)
(0.000754056 -0.00570076 0)
(0.00203143 -0.00596949 0)
(0.00381605 -0.00574077 0)
(0.00587671 -0.0050884 0)
(0.00800621 -0.0042086 0)
(0.0100854 -0.00331589 0)
(0.012107 -0.00258028 0)
(0.0142102 -0.0020506 0)
(0.0166973 -0.00154801 0)
(0.0199233 -0.000592783 0)
(0.0241456 0.00133996 0)
(0.0295268 0.00446128 0)
(0.0364133 0.00849536 0)
(0.044777 0.0116108 0)
(0.0522399 0.0108087 0)
(0.0558602 0.00390452 0)
(0.0463006 -0.00966524 0)
(0.0043916 0.0130697 0)
(0.00435294 0.00538249 0)
(0.00309884 0.00105207 0)
(0.00139264 -0.00150886 0)
(-9.55225e-05 -0.00335043 0)
(-0.000903514 -0.00488229 0)
(-0.000780696 -0.00605206 0)
(0.000238888 -0.00667117 0)
(0.00197347 -0.00669507 0)
(0.0041931 -0.00618238 0)
(0.00666751 -0.00535576 0)
(0.00924688 -0.00447605 0)
(0.0118956 -0.00377804 0)
(0.0147509 -0.0033942 0)
(0.0181672 -0.00321869 0)
(0.0225964 -0.00276891 0)
(0.0284011 -0.00146968 0)
(0.0358596 0.000922162 0)
(0.0452792 0.00408512 0)
(0.0565538 0.00671588 0)
(0.0677033 0.00681204 0)
(0.0758028 0.00538485 0)
(0.079296 0.0238796 0)
(-0.0831693 0.0259788 0)
(-0.136018 0.00918706 0)
(-0.116854 -0.0172296 0)
(-0.0665951 -0.0219534 0)
(-0.0219899 -0.0166255 0)
(0.0118433 -0.0123119 0)
(0.0390067 -0.0108774 0)
(0.0661734 -0.0108903 0)
(0.0954407 -0.00970167 0)
(0.116241 -0.00167966 0)
(0.104427 0.00931605 0)
(0.0661194 0.0133007 0)
(0.0216022 0.0128244 0)
(-0.00969845 0.00963958 0)
(-0.0532084 0.0168306 0)
(-0.112572 0.0147689 0)
(-0.1491 0.00211176 0)
(-0.126757 -0.0184629 0)
(-0.0494285 -0.0287604 0)
(-0.0899261 0.060044 0)
(-0.0849693 0.0178332 0)
(-0.0545987 -0.0252896 0)
(-0.0183291 -0.0325082 0)
(0.00988654 -0.0249 0)
(0.0293127 -0.0183615 0)
(0.044558 -0.0168131 0)
(0.0624174 -0.018473 0)
(0.084898 -0.0166721 0)
(0.101546 -0.00278222 0)
(0.0991961 0.0170829 0)
(0.0748477 0.0252728 0)
(0.0386568 0.0257146 0)
(0.00287952 0.0230892 0)
(-0.0405756 0.0330898 0)
(-0.085559 0.0299348 0)
(-0.110709 0.00822622 0)
(-0.10018 -0.028441 0)
(-0.0434813 -0.059814 0)
(-0.0665633 0.0839198 0)
(-0.0324496 0.0116728 0)
(-0.0050791 -0.0379372 0)
(0.0181035 -0.0420962 0)
(0.0318183 -0.0308116 0)
(0.039198 -0.0222082 0)
(0.0453185 -0.0210418 0)
(0.0560018 -0.0247557 0)
(0.0721936 -0.0234802 0)
(0.0864693 -0.00567225 0)
(0.086676 0.0214369 0)
(0.0690424 0.0352616 0)
(0.0401843 0.0388001 0)
(0.00630616 0.038118 0)
(-0.0283465 0.0469043 0)
(-0.056984 0.0410606 0)
(-0.0745396 0.0116497 0)
(-0.0725591 -0.0365389 0)
(-0.028852 -0.0881094 0)
(-0.0362203 0.0981192 0)
(0.0167421 -3.54044e-05 0)
(0.0410305 -0.0481969 0)
(0.0502633 -0.0473769 0)
(0.049161 -0.0325814 0)
(0.0448164 -0.0228805 0)
(0.0423341 -0.0228934 0)
(0.0463003 -0.0291536 0)
(0.0574164 -0.029168 0)
(0.0699554 -0.00886598 0)
(0.0732076 0.0245809 0)
(0.0603897 0.0441368 0)
(0.0363905 0.0509408 0)
(0.00659406 0.0518877 0)
(-0.020216 0.0572832 0)
(-0.0388702 0.0491079 0)
(-0.0485599 0.0140035 0)
(-0.0480558 -0.0416028 0)
(-0.0145245 -0.107202 0)
(-0.00278216 0.0942968 0)
(0.0667525 -0.0139834 0)
(0.0862613 -0.0548298 0)
(0.0783607 -0.0462839 0)
(0.0614671 -0.0287317 0)
(0.0456707 -0.0194254 0)
(0.0349634 -0.0217292 0)
(0.0327105 -0.0313556 0)
(0.039385 -0.0336408 0)
(0.050693 -0.0126393 0)
(0.0565204 0.0261055 0)
(0.0478172 0.0513158 0)
(0.0289769 0.061112 0)
(0.0053916 0.0632496 0)
(-0.0153503 0.064822 0)
(-0.0277693 0.0537668 0)
(-0.0299696 0.0145359 0)
(-0.0280033 -0.0454532 0)
(-0.00370252 -0.118306 0)
(0.0358077 0.0727531 0)
(0.122633 -0.0309467 0)
(0.129315 -0.0550291 0)
(0.100091 -0.0372729 0)
(0.0672741 -0.018899 0)
(0.0411017 -0.011834 0)
(0.0229696 -0.0175154 0)
(0.0149258 -0.0313429 0)
(0.0173921 -0.0369409 0)
(0.027099 -0.0166295 0)
(0.0345323 0.0264438 0)
(0.0312055 0.0562571 0)
(0.0189227 0.0685619 0)
(0.00266722 0.0716619 0)
(-0.0124176 0.0705256 0)
(-0.020348 0.055731 0)
(-0.016951 0.0129986 0)
(-0.0123001 -0.0486298 0)
(0.00450002 -0.122859 0)
(0.100751 0.0219202 0)
(0.185693 -0.0485994 0)
(0.164865 -0.0445204 0)
(0.112052 -0.0193409 0)
(0.0652108 -0.00350322 0)
(0.0308115 -0.000621701 0)
(0.00658381 -0.0104949 0)
(-0.00681834 -0.0291216 0)
(-0.00906012 -0.038621 0)
(-0.00289604 -0.0202172 0)
(0.00590303 0.0250787 0)
(0.0109237 0.0583423 0)
(0.00760102 0.0728233 0)
(-0.00170979 0.0769885 0)
(-0.0107333 0.0744499 0)
(-0.0147265 0.0559967 0)
(-0.00774827 0.00982712 0)
(-0.000896828 -0.051336 0)
(0.0109501 -0.122952 0)
(0.209087 -0.0693094 0)
(0.244015 -0.0631064 0)
(0.183987 -0.0222548 0)
(0.111309 0.00593962 0)
(0.0548158 0.0160495 0)
(0.0152522 0.013342 0)
(-0.0132439 -0.00101063 0)
(-0.0313222 -0.0245407 0)
(-0.0385135 -0.0379826 0)
(-0.0370957 -0.0231032 0)
(-0.02689 0.020299 0)
(-0.0125363 0.0562361 0)
(-0.00647406 0.0741658 0)
(-0.00758659 0.0793258 0)
(-0.0104197 0.0762862 0)
(-0.0100248 0.0550815 0)
(-0.000512598 0.00536068 0)
(0.00720007 -0.0534684 0)
(0.0162268 -0.120916 0)
(0.00502566 0.0116354 0)
(0.00460698 0.0058881 0)
(0.00289287 0.0025546 0)
(0.000595346 0.000141489 0)
(-0.00169032 -0.00215036 0)
(-0.00333491 -0.00435789 0)
(-0.00389387 -0.00628644 0)
(-0.00329842 -0.00761094 0)
(-0.00166815 -0.00823414 0)
(0.000803445 -0.0081587 0)
(0.00386314 -0.00762006 0)
(0.00731138 -0.00693732 0)
(0.0110583 -0.00644858 0)
(0.0152112 -0.00643961 0)
(0.0201572 -0.00697433 0)
(0.0264453 -0.00760679 0)
(0.034589 -0.00771372 0)
(0.0450001 -0.00697354 0)
(0.0580777 -0.00567817 0)
(0.073921 -0.00454366 0)
(0.0919645 -0.00463307 0)
(0.112512 -0.00389875 0)
(0.146228 0.00622562 0)
(0.002821 0.000177261 0)
(0.00149297 0.00300081 0)
(0.000342761 0.00262929 0)
(-0.00194077 0.00106593 0)
(-0.00434584 -0.00134749 0)
(-0.00623455 -0.00414675 0)
(-0.00723556 -0.00682952 0)
(-0.00707535 -0.00884696 0)
(-0.00564367 -0.0101306 0)
(-0.00288085 -0.0106291 0)
(0.000974214 -0.0105761 0)
(0.0056216 -0.0103048 0)
(0.0108906 -0.0102625 0)
(0.0167663 -0.0109072 0)
(0.02339 -0.0125383 0)
(0.0310937 -0.0148041 0)
(0.0406201 -0.0171422 0)
(0.0529939 -0.0192096 0)
(0.0689604 -0.0211257 0)
(0.0887317 -0.0232137 0)
(0.111903 -0.0267562 0)
(0.138858 -0.0321615 0)
(0.174618 -0.0422257 0)
(-0.0107743 0.00927554 0)
(-0.00741679 0.00581284 0)
(-0.00631981 0.00519087 0)
(-0.00763001 0.00396592 0)
(-0.00906636 0.00157528 0)
(-0.0104587 -0.00196374 0)
(-0.011849 -0.0058195 0)
(-0.0126045 -0.00884046 0)
(-0.0119413 -0.0115282 0)
(-0.00883211 -0.0132687 0)
(-0.00380941 -0.014128 0)
(0.00250367 -0.0143997 0)
(0.0100669 -0.014715 0)
(0.0187111 -0.0157492 0)
(0.027259 -0.0183286 0)
(0.0343925 -0.0218913 0)
(0.0416105 -0.0258922 0)
(0.0525788 -0.0301754 0)
(0.0687926 -0.0347406 0)
(0.0913443 -0.0391836 0)
(0.116322 -0.0457929 0)
(0.143314 -0.0538265 0)
(0.179196 -0.0655476 0)
(-0.0145997 0.0305239 0)
(-0.0282258 0.00636888 0)
(-0.0425936 0.0104323 0)
(-0.0450957 0.00605906 0)
(-0.0355929 0.000715998 0)
(-0.0262965 0.000372271 0)
(-0.0226149 -0.00562088 0)
(-0.0221649 -0.00570361 0)
(-0.0243837 -0.0121535 0)
(-0.0200374 -0.0181215 0)
(-0.0123819 -0.0207876 0)
(-0.00367635 -0.0218438 0)
(0.00847838 -0.0240658 0)
(0.0253988 -0.0261145 0)
(0.0403988 -0.0271613 0)
(0.0408079 -0.0262663 0)
(0.033155 -0.0289563 0)
(0.0304788 -0.0333585 0)
(0.0354082 -0.0511555 0)
(0.0672316 -0.0625115 0)
(0.0908362 -0.0732416 0)
(0.105865 -0.080424 0)
(0.111847 -0.096139 0)
(-0.027472 0.0347245 0)
(-0.0440737 0.0309112 0)
(-0.0634469 0.019653 0)
(-0.067979 -0.00288966 0)
(-0.0668603 -0.0146851 0)
(-0.0681005 -0.00948487 0)
(-0.0692054 -0.00894401 0)
(-0.0683584 -0.00636133 0)
(-0.0523802 -0.0229092 0)
(-0.0404947 -0.0333861 0)
(-0.0324762 -0.0380233 0)
(-0.0236682 -0.0435109 0)
(-0.00847398 -0.0554484 0)
(0.0129592 -0.0634265 0)
(0.0266176 -0.0462919 0)
(0.00763149 0.00235431 0)
(-0.166199 0.0101113 0)
(-0.212708 -0.0764619 0)
(-0.186601 -0.118342 0)
(-0.160804 -0.124552 0)
(-0.140174 -0.108792 0)
(-0.144971 -0.0737846 0)
(-0.162393 -0.087877 0)
(-0.0035491 0.0775449 0)
(-0.0130662 0.0597361 0)
(-0.0238264 0.0371433 0)
(-0.0358779 0.00633241 0)
(-0.055257 -0.00725751 0)
(-0.0723308 0.00124495 0)
(-0.0693428 -0.0096784 0)
(-0.0539473 -0.0233584 0)
(-0.0397834 -0.0328987 0)
(-0.0332512 -0.0357924 0)
(-0.0336173 -0.0367318 0)
(-0.03213 -0.0441225 0)
(-0.0253181 -0.0598083 0)
(-0.019441 -0.0631495 0)
(-0.0209054 -0.025637 0)
(-0.0475624 0.0969832 0)
(-0.138867 0.165658 0)
(-0.183983 -0.00907045 0)
(-0.188169 -0.102068 0)
(-0.193899 -0.118343 0)
(-0.199956 -0.0989581 0)
(-0.220555 -0.0686569 0)
(-0.239145 -0.0753683 0)
(0.0124801 0.0712278 0)
(0.0159559 0.0669016 0)
(0.0150136 0.0468941 0)
(0.0086108 0.0265269 0)
(-0.00347105 0.0139797 0)
(-0.0113413 0.00951466 0)
(-0.0172957 -0.0121764 0)
(-0.0253971 -0.0337977 0)
(-0.031018 -0.0384333 0)
(-0.0377227 -0.0361902 0)
(-0.0464312 -0.0337868 0)
(-0.0535249 -0.0415455 0)
(-0.0580874 -0.0627235 0)
(-0.0690485 -0.0699971 0)
(-0.0846875 -0.00923216 0)
(-0.0867303 0.140497 0)
(-0.0832957 0.185295 0)
(-0.089419 0.0295142 0)
(-0.127265 -0.100031 0)
(-0.186669 -0.110061 0)
(-0.221518 -0.07618 0)
(-0.245819 -0.0241744 0)
(-0.290837 -0.0651605 0)
(0.017503 0.0447035 0)
(0.0287207 0.0514762 0)
(0.0332823 0.0427803 0)
(0.032147 0.0308701 0)
(0.0267401 0.0210659 0)
(0.0216912 0.0131052 0)
(0.0155007 -0.00379683 0)
(0.00296327 -0.0222767 0)
(-0.0145338 -0.0264509 0)
(-0.0354943 -0.0209824 0)
(-0.0592387 -0.016862 0)
(-0.0853744 -0.0281133 0)
(-0.0961002 -0.0548096 0)
(-0.0995198 -0.0501897 0)
(-0.107556 -0.0030974 0)
(-0.0920599 0.11012 0)
(-0.064741 0.16405 0)
(-0.0657304 0.0574528 0)
(-0.112853 -0.0286889 0)
(-0.145757 -0.0428828 0)
(-0.184558 -0.0168938 0)
(-0.214278 0.0250269 0)
(-0.244152 0.0112711 0)
(0.0124421 0.0257568 0)
(0.0255411 0.0381717 0)
(0.0329494 0.0374304 0)
(0.0358195 0.0314967 0)
(0.034807 0.0246599 0)
(0.0318975 0.0173212 0)
(0.0258755 0.00657247 0)
(0.0137026 -0.00246689 0)
(-0.00387939 -0.00270287 0)
(-0.0239938 0.0041241 0)
(-0.0451018 0.00897948 0)
(-0.0684911 -0.00577391 0)
(-0.0885251 -0.0408284 0)
(-0.106772 -0.0418184 0)
(-0.116715 -0.000166637 0)
(-0.1054 0.0790451 0)
(-0.0837562 0.140494 0)
(-0.0812637 0.0805782 0)
(-0.107166 -0.00448439 0)
(-0.125557 -0.0248664 0)
(-0.145923 0.000293597 0)
(-0.166551 0.0330068 0)
(-0.181872 0.0346667 0)
(0.00601647 0.0120318 0)
(0.016256 0.0275866 0)
(0.0230603 0.0312555 0)
(0.0272451 0.0293569 0)
(0.0285576 0.0254534 0)
(0.0275126 0.0205837 0)
(0.023127 0.0147465 0)
(0.0139669 0.0114663 0)
(0.0012283 0.0145132 0)
(-0.0121694 0.0221125 0)
(-0.0244794 0.0270111 0)
(-0.0391857 0.0156892 0)
(-0.0686933 -0.0168183 0)
(-0.105091 -0.0234307 0)
(-0.123022 0.00715525 0)
(-0.120921 0.0664123 0)
(-0.105386 0.122407 0)
(-0.0919549 0.0897148 0)
(-0.0996179 0.0113821 0)
(-0.113422 -0.011757 0)
(-0.124788 0.0130976 0)
(-0.135523 0.0435634 0)
(-0.140484 0.0431292 0)
(-0.000327895 0.00592144 0)
(0.00545518 0.0208527 0)
(0.00984695 0.0260309 0)
(0.0132751 0.0264195 0)
(0.0150936 0.0247392 0)
(0.0150856 0.0223214 0)
(0.0125351 0.0201203 0)
(0.00689362 0.0203172 0)
(-0.000687045 0.0248569 0)
(-0.00820313 0.0321604 0)
(-0.0149758 0.0375368 0)
(-0.0244016 0.0341613 0)
(-0.0442076 0.0206312 0)
(-0.0778685 0.00824332 0)
(-0.111713 0.0182896 0)
(-0.120898 0.0614743 0)
(-0.106699 0.10401 0)
(-0.0891769 0.0836349 0)
(-0.0865659 0.0203186 0)
(-0.100196 -2.56176e-05 0)
(-0.112406 0.0205793 0)
(-0.11747 0.0471639 0)
(-0.114528 0.0432189 0)
(-0.00575208 0.00706339 0)
(-0.00440083 0.018508 0)
(-0.00318169 0.0231639 0)
(-0.00166801 0.0242659 0)
(-0.000559701 0.0237953 0)
(-0.000387818 0.0230322 0)
(-0.00167816 0.0230272 0)
(-0.00459829 0.0251274 0)
(-0.00837384 0.0301835 0)
(-0.0119274 0.0370964 0)
(-0.0152005 0.0430765 0)
(-0.0204484 0.0447769 0)
(-0.0320092 0.0419752 0)
(-0.0516806 0.0398043 0)
(-0.0759788 0.0432789 0)
(-0.0922478 0.0637152 0)
(-0.0841456 0.0881989 0)
(-0.0702239 0.0720164 0)
(-0.0684417 0.0280515 0)
(-0.0853609 0.0139284 0)
(-0.100122 0.0300738 0)
(-0.101186 0.045399 0)
(-0.0941623 0.0372152 0)
(-0.00974866 0.0143034 0)
(-0.0123665 0.0206276 0)
(-0.0142898 0.0232325 0)
(-0.0150661 0.0237528 0)
(-0.0152762 0.0234792 0)
(-0.0155368 0.0234183 0)
(-0.0162886 0.0244204 0)
(-0.0176128 0.0273011 0)
(-0.0190856 0.0324178 0)
(-0.0201949 0.0390371 0)
(-0.0211021 0.0455389 0)
(-0.0231934 0.0502065 0)
(-0.0287174 0.0528652 0)
(-0.0386114 0.0556306 0)
(-0.0509315 0.0608809 0)
(-0.059294 0.0705695 0)
(-0.0560998 0.0782504 0)
(-0.049067 0.0653292 0)
(-0.0521439 0.0381844 0)
(-0.0675794 0.0309278 0)
(-0.0782185 0.036945 0)
(-0.0784138 0.0409113 0)
(-0.0725092 0.0302604 0)
(-0.012413 0.0260502 0)
(-0.0180867 0.0264735 0)
(-0.0226449 0.0260889 0)
(-0.025562 0.0251281 0)
(-0.0272492 0.0242326 0)
(-0.0282946 0.0240547 0)
(-0.0290922 0.0251767 0)
(-0.0297314 0.0280758 0)
(-0.0300182 0.0328861 0)
(-0.0297431 0.0391235 0)
(-0.0290784 0.0458069 0)
(-0.0288282 0.0519263 0)
(-0.0301275 0.0571701 0)
(-0.0334149 0.0621462 0)
(-0.037658 0.0674013 0)
(-0.0398712 0.0727657 0)
(-0.0371582 0.0741132 0)
(-0.0337972 0.0641631 0)
(-0.0376144 0.0485765 0)
(-0.0472415 0.0418294 0)
(-0.0536157 0.0406901 0)
(-0.0537748 0.0377954 0)
(-0.0504616 0.0258088 0)
(-0.0137878 0.0405893 0)
(-0.0214104 0.034956 0)
(-0.0278758 0.0311674 0)
(-0.0324948 0.0282201 0)
(-0.0355254 0.026156 0)
(-0.0374667 0.0252748 0)
(-0.0386599 0.025905 0)
(-0.0392039 0.0282976 0)
(-0.0390253 0.0324741 0)
(-0.0380512 0.0380942 0)
(-0.0364126 0.0445195 0)
(-0.0345409 0.0510458 0)
(-0.0330021 0.0572313 0)
(-0.0320159 0.062948 0)
(-0.0311458 0.0679336 0)
(-0.029261 0.0713742 0)
(-0.0256394 0.0709827 0)
(-0.022744 0.0641293 0)
(-0.0242295 0.0542271 0)
(-0.0287442 0.0474248 0)
(-0.0317662 0.0427913 0)
(-0.0316803 0.0363846 0)
(-0.0302094 0.02426 0)
(-0.0138885 0.056409 0)
(-0.0223514 0.0449413 0)
(-0.0299042 0.0377429 0)
(-0.0356555 0.0326468 0)
(-0.0397331 0.0291347 0)
(-0.0425013 0.0271922 0)
(-0.0442242 0.0269384 0)
(-0.0449863 0.0284694 0)
(-0.0447625 0.0317382 0)
(-0.043527 0.0364773 0)
(-0.0413605 0.0422238 0)
(-0.038488 0.0484265 0)
(-0.0351972 0.054579 0)
(-0.0316401 0.0602346 0)
(-0.0277306 0.0648249 0)
(-0.0232381 0.0675185 0)
(-0.0182959 0.0670539 0)
(-0.0143636 0.062524 0)
(-0.0131232 0.0556944 0)
(-0.0138013 0.0493859 0)
(-0.0142218 0.0433636 0)
(-0.0136049 0.0356945 0)
(-0.0130807 0.0245079 0)
(-0.0128083 0.0720349 0)
(-0.0210402 0.0553091 0)
(-0.0288602 0.045056 0)
(-0.0351577 0.0379464 0)
(-0.0399255 0.0329361 0)
(-0.0433449 0.0297624 0)
(-0.0455763 0.0283986 0)
(-0.0466697 0.0288423 0)
(-0.0466098 0.0310034 0)
(-0.0453806 0.0346475 0)
(-0.0430217 0.0394019 0)
(-0.0396493 0.0448003 0)
(-0.035426 0.0503374 0)
(-0.0304912 0.0554764 0)
(-0.0249452 0.0595931 0)
(-0.0189335 0.061974 0)
(-0.0128658 0.0618766 0)
(-0.00767959 0.0589545 0)
(-0.00424496 0.0540915 0)
(-0.00225632 0.0486119 0)
(-0.000760931 0.0425287 0)
(0.00051216 0.0350146 0)
(0.000708759 0.0254635 0)
(-0.0106816 0.0860367 0)
(-0.0177323 0.0649953 0)
(-0.025066 0.0523998 0)
(-0.0313844 0.0436698 0)
(-0.0364941 0.0372829 0)
(-0.0403374 0.0328444 0)
(-0.0429556 0.0302653 0)
(-0.044358 0.0294992 0)
(-0.0445269 0.0304332 0)
(-0.043445 0.0328493 0)
(-0.0411262 0.036424 0)
(-0.0376316 0.0407488 0)
(-0.0330676 0.045353 0)
(-0.027572 0.0497165 0)
(-0.021326 0.0532673 0)
(-0.0146072 0.0554234 0)
(-0.00786951 0.0556909 0)
(-0.00177833 0.0538873 0)
(0.00311068 0.0504314 0)
(0.00680702 0.0459531 0)
(0.00962701 0.0405501 0)
(0.0115812 0.0339558 0)
(0.0121531 0.0262003 0)
(-0.00782007 0.0972123 0)
(-0.0128993 0.0730453 0)
(-0.0191018 0.0591717 0)
(-0.0249994 0.0494378 0)
(-0.0301301 0.0418956 0)
(-0.0341313 0.0362373 0)
(-0.036939 0.0324221 0)
(-0.0385328 0.0304081 0)
(-0.0388942 0.0300761 0)
(-0.0380042 0.0312171 0)
(-0.0358616 0.0335387 0)
(-0.0324991 0.0366769 0)
(-0.0279951 0.0402107 0)
(-0.0224802 0.0436765 0)
(-0.0161553 0.0465855 0)
(-0.0093197 0.0484715 0)
(-0.00239172 0.0489703 0)
(0.00411883 0.0479377 0)
(0.00978516 0.0455472 0)
(0.0144549 0.0420978 0)
(0.0181373 0.0376947 0)
(0.0207349 0.0323158 0)
(0.0220322 0.0261447 0)
(-0.0045579 0.104532 0)
(-0.00744341 0.0787511 0)
(-0.0120304 0.064798 0)
(-0.017027 0.0548983 0)
(-0.0218065 0.0464586 0)
(-0.0256138 0.0396703 0)
(-0.0283291 0.0346694 0)
(-0.0299194 0.03145 0)
(-0.0303636 0.0298936 0)
(-0.0296365 0.029796 0)
(-0.0277234 0.030886 0)
(-0.0246382 0.0328374 0)
(-0.0204387 0.0352816 0)
(-0.0152402 0.0378214 0)
(-0.00923001 0.0400521 0)
(-0.00268179 0.0416007 0)
(0.00404602 0.0421813 0)
(0.010548 0.0416579 0)
(0.0164663 0.0400758 0)
(0.0215814 0.0375663 0)
(0.0257725 0.0342054 0)
(0.028915 0.0300336 0)
(0.0309342 0.0251863 0)
(-0.00189169 0.107908 0)
(-0.00289843 0.0820509 0)
(-0.00562647 0.0685473 0)
(-0.00895702 0.0594443 0)
(-0.0126827 0.0504649 0)
(-0.0157747 0.0427452 0)
(-0.0180228 0.0367192 0)
(-0.0193582 0.0324367 0)
(-0.0197294 0.029784 0)
(-0.0190867 0.0285618 0)
(-0.0173937 0.0285179 0)
(-0.0146434 0.0293617 0)
(-0.010872 0.0307748 0)
(-0.0061715 0.0324239 0)
(-0.00069978 0.033979 0)
(0.00531337 0.035141 0)
(0.011575 0.0356791 0)
(0.0177597 0.0354628 0)
(0.0235651 0.0344708 0)
(0.0287606 0.0327427 0)
(0.0331829 0.0303115 0)
(0.0367054 0.0271995 0)
(0.0393045 0.0234628 0)
(-2.69896e-05 0.108825 0)
(0.00100601 0.0834633 0)
(-0.00025048 0.0703195 0)
(-0.00166489 0.062268 0)
(-0.00359739 0.0532243 0)
(-0.00542303 0.044969 0)
(-0.00683974 0.0382386 0)
(-0.00768087 0.0331515 0)
(-0.00782363 0.0296153 0)
(-0.00716986 0.0274487 0)
(-0.00564985 0.0264254 0)
(-0.00323015 0.0262925 0)
(7.80284e-05 0.0267805 0)
(0.00421066 0.027614 0)
(0.00904592 0.0285267 0)
(0.014403 0.0292801 0)
(0.0200509 0.0296849 0)
(0.0257319 0.0296193 0)
(0.0311962 0.0290288 0)
(0.0362313 0.0278999 0)
(0.0406713 0.0262234 0)
(0.0443947 0.0239825 0)
(0.0473891 0.0211654 0)
(0.00307122 0.106553 0)
(0.00574361 0.0835512 0)
(0.00527569 0.0708718 0)
(0.00536739 0.0630397 0)
(0.00535706 0.0542806 0)
(0.00499508 0.0459956 0)
(0.00457192 0.0389846 0)
(0.00435441 0.0334253 0)
(0.00454394 0.0292708 0)
(0.00529056 0.0263788 0)
(0.00669947 0.0245623 0)
(0.00883167 0.0236114 0)
(0.0117019 0.0233052 0)
(0.0152754 0.0234215 0)
(0.019467 0.0237478 0)
(0.0241419 0.024094 0)
(0.0291252 0.0243058 0)
(0.0342178 0.0242727 0)
(0.0392196 0.0239259 0)
(0.0439483 0.0232209 0)
(0.0482521 0.0221159 0)
(0.052018 0.0205582 0)
(0.0552282 0.018487 0)
(0.00768581 0.0995694 0)
(0.0112077 0.0824195 0)
(0.0116271 0.0704841 0)
(0.0129961 0.0621715 0)
(0.0143434 0.0537919 0)
(0.0151587 0.0458501 0)
(0.0156317 0.0389195 0)
(0.0160345 0.0331952 0)
(0.0165965 0.0286807 0)
(0.0174954 0.0252845 0)
(0.0188598 0.0228673 0)
(0.0207723 0.0212656 0)
(0.0232701 0.0203056 0)
(0.0263456 0.0198127 0)
(0.0299466 0.0196205 0)
(0.0339801 0.0195794 0)
(0.0383188 0.0195648 0)
(0.0428144 0.0194797 0)
(0.0473115 0.0192513 0)
(0.0516606 0.0188192 0)
(0.0557301 0.0181206 0)
(0.0594167 0.0170781 0)
(0.062693 0.0156004 0)
(0.0102679 0.0878509 0)
(0.0154521 0.0792028 0)
(0.0178423 0.0686452 0)
(0.0204708 0.0601994 0)
(0.0227382 0.052239 0)
(0.0244215 0.0447858 0)
(0.0256462 0.0381432 0)
(0.0266307 0.0324735 0)
(0.0275869 0.0278104 0)
(0.0286934 0.0241067 0)
(0.0300877 0.0212686 0)
(0.031866 0.019177 0)
(0.0340836 0.0177014 0)
(0.0367555 0.0167091 0)
(0.0398586 0.0160734 0)
(0.0433349 0.0156788 0)
(0.0470976 0.0154264 0)
(0.0510404 0.0152337 0)
(0.0550468 0.015031 0)
(0.0589982 0.0147522 0)
(0.0627842 0.0143242 0)
(0.066312 0.0136567 0)
(0.069545 0.0126441 0)
(0.00981212 0.0747275 0)
(0.0171342 0.0732578 0)
(0.0220088 0.0649061 0)
(0.0260913 0.0571476 0)
(0.0293751 0.0498064 0)
(0.0319141 0.0429349 0)
(0.0338742 0.0367091 0)
(0.0354539 0.031253 0)
(0.0368487 0.0266128 0)
(0.0382312 0.0227732 0)
(0.0397416 0.0196781 0)
(0.041485 0.0172471 0)
(0.0435306 0.0153879 0)
(0.0459127 0.0140044 0)
(0.0486326 0.0130036 0)
(0.0516614 0.0122994 0)
(0.0549458 0.0118156 0)
(0.0584137 0.011485 0)
(0.061981 0.0112455 0)
(0.0655566 0.0110323 0)
(0.0690498 0.0107706 0)
(0.0723791 0.0103675 0)
(0.0755012 0.00971535 0)
(0.00811776 0.0626931 0)
(0.0167497 0.0650746 0)
(0.0236333 0.059222 0)
(0.0291838 0.052776 0)
(0.0335935 0.0463731 0)
(0.0370568 0.0402489 0)
(0.0397944 0.0345793 0)
(0.0420129 0.029483 0)
(0.0439035 0.0250195 0)
(0.0456353 0.0211991 0)
(0.0473502 0.0179971 0)
(0.0491598 0.0153666 0)
(0.0511449 0.0132483 0)
(0.0533559 0.011578 0)
(0.0558139 0.0102918 0)
(0.0585144 0.00932917 0)
(0.0614305 0.00863483 0)
(0.0645182 0.0081571 0)
(0.0677198 0.00784409 0)
(0.0709674 0.00763771 0)
(0.0741882 0.0074675 0)
(0.0773122 0.00724542 0)
(0.0802928 0.00687088 0)
(0.00664463 0.0520633 0)
(0.01546 0.055788 0)
(0.0234179 0.0520687 0)
(0.0300469 0.0471556 0)
(0.0354383 0.041912 0)
(0.0397696 0.0366954 0)
(0.0432654 0.0317189 0)
(0.0461291 0.0271177 0)
(0.0485449 0.0229691 0)
(0.0506768 0.0193068 0)
(0.0526655 0.0161335 0)
(0.0546268 0.013431 0)
(0.0566499 0.0111688 0)
(0.0587973 0.00931039 0)
(0.0611064 0.00781731 0)
(0.0635916 0.00665205 0)
(0.0662476 0.0057785 0)
(0.0690519 0.00516055 0)
(0.0719685 0.00475845 0)
(0.074949 0.00452391 0)
(0.0779361 0.00439536 0)
(0.0808714 0.0042945 0)
(0.0837085 0.00413324 0)
(0.0057162 0.0426213 0)
(0.0140319 0.0464054 0)
(0.0222165 0.044216 0)
(0.0293608 0.0406999 0)
(0.0353866 0.0366318 0)
(0.0403753 0.0323833 0)
(0.0445016 0.028181 0)
(0.0479386 0.024171 0)
(0.0508492 0.0204448 0)
(0.0533836 0.0170544 0)
(0.0556759 0.0140241 0)
(0.0578406 0.01136 0)
(0.0599707 0.0090558 0)
(0.0621367 0.00709885 0)
(0.0643877 0.00547325 0)
(0.0667523 0.00416189 0)
(0.0692413 0.00314662 0)
(0.0718494 0.00240658 0)
(0.0745574 0.00191512 0)
(0.0773329 0.00163577 0)
(0.0801324 0.00151846 0)
(0.0829089 0.00149756 0)
(0.0856185 0.00150037 0)
(0.00511624 0.0341542 0)
(0.012706 0.0375035 0)
(0.0205804 0.0363169 0)
(0.0277505 0.0339063 0)
(0.0340222 0.030874 0)
(0.0393802 0.0275415 0)
(0.0439296 0.0241155 0)
(0.0477952 0.0207352 0)
(0.051106 0.0174939 0)
(0.0539895 0.0144531 0)
(0.0565655 0.0116515 0)
(0.0589416 0.00911277 0)
(0.0612089 0.00685026 0)
(0.063441 0.00487115 0)
(0.0656935 0.00317897 0)
(0.0680048 0.00177468 0)
(0.070397 0.000656524 0)
(0.0728775 -0.000181597 0)
(0.0754401 -0.000753018 0)
(0.0780652 -0.00108155 0)
(0.0807215 -0.00120442 0)
(0.0833725 -0.00117326 0)
(0.0859793 -0.00104454 0)
(0.0046287 0.0265074 0)
(0.0114643 0.0293147 0)
(0.0187614 0.0287681 0)
(0.0256323 0.0271702 0)
(0.0318324 0.0249745 0)
(0.037282 0.0224371 0)
(0.0420249 0.0197264 0)
(0.046137 0.0169594 0)
(0.0497101 0.0142193 0)
(0.0528443 0.0115665 0)
(0.0556406 0.009046 0)
(0.0581941 0.00669241 0)
(0.0605895 0.00453331 0)
(0.0628986 0.00259158 0)
(0.0651789 0.000886714 0)
(0.0674738 -0.000564655 0)
(0.0698124 -0.00174966 0)
(0.072211 -0.00266079 0)
(0.0746728 -0.00329849 0)
(0.0771888 -0.00367387 0)
(0.0797377 -0.00381107 0)
(0.0822929 -0.0037475 0)
(0.084822 -0.00352382 0)
(0.00414702 0.0196312 0)
(0.0102437 0.0219157 0)
(0.0168546 0.0217693 0)
(0.0232439 0.0207462 0)
(0.0291547 0.0191939 0)
(0.0344742 0.0173102 0)
(0.0392036 0.0152214 0)
(0.04338 0.0130147 0)
(0.0470627 0.0107549 0)
(0.050326 0.00849357 0)
(0.0532509 0.0062751 0)
(0.0559175 0.00413908 0)
(0.0584006 0.00212217 0)
(0.0607664 0.000258749 0)
(0.0630705 -0.00141896 0)
(0.0653572 -0.0028815 0)
(0.0676592 -0.00410349 0)
(0.069998 -0.00506537 0)
(0.0723839 -0.00575567 0)
(0.0748156 -0.00617345 0)
(0.0772806 -0.00633023 0)
(0.0797613 -0.00624984 0)
(0.0822326 -0.00595837 0)
(0.00364457 0.0135316 0)
(0.00901828 0.0153286 0)
(0.0149065 0.0154123 0)
(0.0207203 0.0147826 0)
(0.0262053 0.0137115 0)
(0.0312352 0.0123491 0)
(0.0357851 0.0107814 0)
(0.0398663 0.00906429 0)
(0.0435145 0.00724034 0)
(0.0467828 0.00534839 0)
(0.0497337 0.00342733 0)
(0.0524327 0.00151743 0)
(0.0549431 -0.000339573 0)
(0.0573232 -0.00210145 0)
(0.0596238 -0.00372658 0)
(0.0618873 -0.00517555 0)
(0.064147 -0.00641278 0)
(0.0664272 -0.00740837 0)
(0.0687427 -0.0081404 0)
(0.0710983 -0.00859709 0)
(0.0734888 -0.00877846 0)
(0.0759048 -0.00869593 0)
(0.0783289 -0.00836273 0)
(0.00313215 0.00821739 0)
(0.00779697 0.00955444 0)
(0.0129554 0.00973841 0)
(0.0181466 0.00936383 0)
(0.0231227 0.00864546 0)
(0.0277533 0.00769159 0)
(0.0319993 0.00655095 0)
(0.0358572 0.00524847 0)
(0.0393475 0.00380452 0)
(0.0425075 0.00224357 0)
(0.0453851 0.000597184 0)
(0.0480321 -0.00109614 0)
(0.0505005 -0.00279251 0)
(0.0528397 -0.00444483 0)
(0.0550941 -0.0060051 0)
(0.0573025 -0.00742651 0)
(0.0594967 -0.00866551 0)
(0.0617018 -0.00968389 0)
(0.0639356 -0.010451 0)
(0.0662074 -0.0109459 0)
(0.0685183 -0.0111586 0)
(0.0708662 -0.0110898 0)
(0.0732419 -0.0107418 0)
(0.00262464 0.00367739 0)
(0.00659539 0.00458207 0)
(0.0110318 0.00476459 0)
(0.0155792 0.00453843 0)
(0.0199972 0.0040725 0)
(0.0241556 0.00343538 0)
(0.0280088 0.00263927 0)
(0.0315463 0.00167983 0)
(0.03478 0.00055639 0)
(0.0377368 -0.000720033 0)
(0.0404526 -0.00212529 0)
(0.042968 -0.00362368 0)
(0.0453245 -0.00517094 0)
(0.0475627 -0.00671738 0)
(0.04972 -0.00821093 0)
(0.0518304 -0.00959967 0)
(0.0539233 -0.0108343 0)
(0.0560234 -0.0118702 0)
(0.05815 -0.0126702 0)
(0.0603158 -0.0132058 0)
(0.0625277 -0.0134591 0)
(0.0647901 -0.013422 0)
(0.0671019 -0.0130879 0)
(0.00212022 -0.000102747 0)
(0.00541178 0.000392922 0)
(0.00914872 0.000490821 0)
(0.0130513 0.000329455 0)
(0.0168873 3.8989e-05 0)
(0.020529 -0.000354119 0)
(0.0239297 -0.000875194 0)
(0.0270776 -0.00155655 0)
(0.0299806 -0.00241743 0)
(0.0326587 -0.00345818 0)
(0.0351392 -0.00466088 0)
(0.0374529 -0.00599271 0)
(0.0396324 -0.00740991 0)
(0.0417098 -0.00886174 0)
(0.043716 -0.0102938 0)
(0.0456798 -0.0116511 0)
(0.0476276 -0.0128806 0)
(0.0495829 -0.0139333 0)
(0.0515654 -0.0147672 0)
(0.0535909 -0.0153487 0)