/*--------------------------------*- C++ -*----------------------------------*\
| =========                 |                                                 |
| \\      /  F ield         | OpenFOAM: The Open Source CFD Toolbox           |
|  \\    /   O peration     | Version:  2.3.0                                 |
|   \\  /    A nd           | Web:      www.OpenFOAM.org                      |
|    \\/     M anipulation  |                                                 |
\*---------------------------------------------------------------------------*/
FoamFile
{
    version     2.0;
    format      ascii;
    class       surfaceScalarField;
    location    "4";
    object      phi;
}
// * * * * * * * * * * * * * * * * * * * * * * * * * * * * * * * * * * * * * //

dimensions      [0 3 -1 0 0 0 0];

internalField   nonuniform List<scalar> 
3330
(
1.99193e-07
-4.10798e-09
1.99032e-07
-1.2112e-08
1.98282e-07
-1.65028e-08
1.97601e-07
-1.9065e-08
1.97253e-07
-2.16827e-08
1.97029e-07
-2.48961e-08
1.96777e-07
-2.86848e-08
1.96465e-07
-3.2635e-08
1.96147e-07
-3.64957e-08
1.95848e-07
-4.00749e-08
1.95602e-07
-4.33982e-08
1.95421e-07
-4.64345e-08
1.95335e-07
-4.91408e-08
1.9536e-07
-5.14395e-08
1.95528e-07
-5.31897e-08
1.95841e-07
-5.43698e-08
1.96352e-07
-5.48348e-08
1.96955e-07
-5.45699e-08
1.97671e-07
-5.36737e-08
1.98472e-07
-5.21013e-08
1.993e-07
-4.99544e-08
2.00116e-07
-4.74084e-08
2.00917e-07
-4.45937e-08
2.01673e-07
-4.16265e-08
2.02438e-07
-3.85782e-08
2.03168e-07
-3.54396e-08
2.03879e-07
-3.2167e-08
2.04539e-07
-2.88327e-08
2.05175e-07
-2.53456e-08
2.0573e-07
-2.18039e-08
2.06187e-07
-1.80219e-08
2.0646e-07
-1.41384e-08
2.06988e-07
-1.02765e-08
2.08828e-07
-6.99981e-09
2.13519e-07
-2.54952e-09
2.15902e-07
1.52258e-09
2.17764e-07
4.06739e-09
2.19123e-07
6.5003e-09
2.19976e-07
8.74746e-09
2.20351e-07
1.07985e-08
2.20345e-07
1.26166e-08
2.20014e-07
1.42637e-08
2.19467e-07
1.56911e-08
2.18714e-07
1.69979e-08
2.17849e-07
1.80958e-08
2.16834e-07
1.912e-08
2.15765e-07
1.99274e-08
2.14555e-07
2.07029e-08
2.13313e-07
2.12364e-08
2.11893e-07
2.17794e-08
2.10424e-07
2.20301e-08
2.08688e-07
2.23277e-08
2.06832e-07
2.22574e-08
2.04516e-07
2.22826e-08
2.01901e-07
2.18116e-08
1.98378e-07
2.15563e-08
1.93964e-07
2.06926e-08
1.87329e-07
2.04346e-08
1.7744e-07
1.98198e-08
2.11474e-08
1.98244e-07
-6.44716e-09
1.9763e-07
-1.14985e-08
1.96267e-07
-1.51396e-08
1.95261e-07
-1.80591e-08
1.94721e-07
-2.1143e-08
1.94399e-07
-2.45741e-08
1.94143e-07
-2.8428e-08
1.93814e-07
-3.23069e-08
1.93507e-07
-3.61879e-08
1.93247e-07
-3.98156e-08
1.93162e-07
-4.33128e-08
1.93249e-07
-4.65218e-08
1.93581e-07
-4.94724e-08
1.94166e-07
-5.20243e-08
1.95004e-07
-5.40279e-08
1.96082e-07
-5.54481e-08
1.97359e-07
-5.61117e-08
1.98814e-07
-5.60245e-08
2.00327e-07
-5.51876e-08
2.01801e-07
-5.35751e-08
2.03152e-07
-5.13048e-08
2.04362e-07
-4.86187e-08
2.05475e-07
-4.57064e-08
2.06505e-07
-4.26568e-08
2.07443e-07
-3.95159e-08
2.0833e-07
-3.63269e-08
2.09137e-07
-3.29735e-08
2.09883e-07
-2.95792e-08
2.10564e-07
-2.60269e-08
2.11167e-07
-2.24067e-08
2.11782e-07
-1.8637e-08
2.12548e-07
-1.49043e-08
2.13392e-07
-1.112e-08
2.13493e-07
-7.10106e-09
2.13765e-07
-2.82171e-09
2.15071e-07
2.16915e-10
2.15392e-07
3.7463e-09
2.15531e-07
6.36137e-09
2.15693e-07
8.58557e-09
2.15869e-07
1.0622e-08
2.16034e-07
1.24514e-08
2.16154e-07
1.41444e-08
2.16234e-07
1.56106e-08
2.16252e-07
1.69802e-08
2.16214e-07
1.81342e-08
2.1608e-07
1.9254e-08
2.15864e-07
2.01429e-08
2.15519e-07
2.10477e-08
2.15065e-07
2.16906e-08
2.14445e-07
2.24e-08
2.13674e-07
2.28007e-08
2.12689e-07
2.33128e-08
2.11502e-07
2.34441e-08
2.10059e-07
2.37256e-08
2.08336e-07
2.3535e-08
2.06363e-07
2.35288e-08
2.0404e-07
2.30164e-08
2.01742e-07
2.27323e-08
1.99786e-07
2.17761e-08
2.09087e-08
1.93861e-07
-6.88627e-09
1.93367e-07
-1.10041e-08
1.92975e-07
-1.47472e-08
1.92391e-07
-1.74751e-08
1.91843e-07
-2.05949e-08
1.9146e-07
-2.4192e-08
1.91202e-07
-2.817e-08
1.90915e-07
-3.20197e-08
1.90737e-07
-3.60099e-08
1.90641e-07
-3.97196e-08
1.90832e-07
-4.35041e-08
1.91279e-07
-4.69684e-08
1.92084e-07
-5.02776e-08
1.93219e-07
-5.31595e-08
1.94747e-07
-5.55553e-08
1.96557e-07
-5.72583e-08
1.98638e-07
-5.81928e-08
2.00852e-07
-5.82386e-08
2.02995e-07
-5.73306e-08
2.04935e-07
-5.5515e-08
2.06577e-07
-5.29465e-08
2.07988e-07
-5.00303e-08
2.09199e-07
-4.69172e-08
2.10335e-07
-4.37927e-08
2.11472e-07
-4.06528e-08
2.12518e-07
-3.73728e-08
2.13514e-07
-3.39695e-08
2.14395e-07
-3.04608e-08
2.1514e-07
-2.67709e-08
2.15755e-07
-2.30219e-08
2.1629e-07
-1.91718e-08
2.16712e-07
-1.53267e-08
2.17e-07
-1.14085e-08
2.1742e-07
-7.52043e-09
2.18561e-07
-3.96302e-09
2.19065e-07
-2.86926e-10
2.19985e-07
2.82676e-09
2.20717e-07
5.62892e-09
2.21203e-07
8.09962e-09
2.21507e-07
1.03174e-08
2.2165e-07
1.23087e-08
2.21686e-07
1.41082e-08
2.21595e-07
1.57014e-08
2.21441e-07
1.71347e-08
2.21182e-07
1.83929e-08
2.20903e-07
1.95335e-08
2.20512e-07
2.05337e-08
2.20106e-07
2.14534e-08
2.19538e-07
2.22584e-08
2.18934e-07
2.30047e-08
2.18082e-07
2.3653e-08
2.17152e-07
2.42422e-08
2.15857e-07
2.47393e-08
2.14429e-07
2.51533e-08
2.12506e-07
2.54583e-08
2.10374e-07
2.5661e-08
2.07672e-07
2.57179e-08
2.0473e-07
2.56742e-08
2.0076e-07
2.57465e-08
2.62819e-08
1.91204e-07
-7.0069e-09
1.90909e-07
-1.07094e-08
1.90117e-07
-1.3955e-08
1.89608e-07
-1.69667e-08
1.89057e-07
-2.00441e-08
1.88593e-07
-2.3728e-08
1.88285e-07
-2.78615e-08
1.8797e-07
-3.17053e-08
1.87858e-07
-3.58971e-08
1.87841e-07
-3.9703e-08
1.88274e-07
-4.39369e-08
1.88943e-07
-4.7638e-08
1.90229e-07
-5.15631e-08
1.91872e-07
-5.48023e-08
1.9409e-07
-5.77739e-08
1.96802e-07
-5.997e-08
1.99789e-07
-6.11792e-08
2.02828e-07
-6.12776e-08
2.05709e-07
-6.02118e-08
2.08157e-07
-5.7963e-08
2.10123e-07
-5.49131e-08
2.1181e-07
-5.1717e-08
2.13417e-07
-4.85245e-08
2.14859e-07
-4.5234e-08
2.15974e-07
-4.17679e-08
2.1679e-07
-3.81893e-08
2.17326e-07
-3.45053e-08
2.17633e-07
-3.07674e-08
2.17856e-07
-2.69939e-08
2.17978e-07
-2.3144e-08
2.18105e-07
-1.92994e-08
2.18197e-07
-1.54186e-08
2.18336e-07
-1.15467e-08
2.1861e-07
-7.79467e-09
2.18843e-07
-4.19617e-09
2.19271e-07
-7.14552e-10
2.19636e-07
2.46176e-09
2.19915e-07
5.34972e-09
2.20094e-07
7.9199e-09
2.20204e-07
1.02079e-08
2.20265e-07
1.22474e-08
2.20292e-07
1.40814e-08
2.20283e-07
1.57106e-08
2.20255e-07
1.71623e-08
2.20209e-07
1.84387e-08
2.2015e-07
1.95932e-08
2.20055e-07
2.06282e-08
2.19914e-07
2.15945e-08
2.19685e-07
2.24879e-08
2.19347e-07
2.33425e-08
2.18836e-07
2.41638e-08
2.18134e-07
2.4944e-08
2.17153e-07
2.57208e-08
2.15892e-07
2.64143e-08
2.14235e-07
2.71152e-08
2.12212e-07
2.76837e-08
2.0967e-07
2.82594e-08
2.06633e-07
2.87115e-08
2.03342e-07
2.90374e-08
2.8837e-08
1.88611e-07
-6.91171e-09
1.88308e-07
-1.04061e-08
1.87473e-07
-1.31209e-08
1.86903e-07
-1.63961e-08
1.86267e-07
-1.94087e-08
1.85692e-07
-2.31522e-08
1.85259e-07
-2.74284e-08
1.84841e-07
-3.12875e-08
1.84692e-07
-3.57481e-08
1.84682e-07
-3.96932e-08
1.85252e-07
-4.4507e-08
1.86132e-07
-4.85174e-08
1.87905e-07
-5.33367e-08
1.90084e-07
-5.69812e-08
1.93205e-07
-6.08952e-08
1.96809e-07
-6.35737e-08
2.01009e-07
-6.53786e-08
2.05301e-07
-6.55701e-08
2.09077e-07
-6.39878e-08
2.12021e-07
-6.0907e-08
2.14576e-07
-5.74679e-08
2.1655e-07
-5.36916e-08
2.17744e-07
-4.97183e-08
2.18341e-07
-4.5831e-08
2.18508e-07
-4.19343e-08
2.18473e-07
-3.81551e-08
2.18318e-07
-3.435e-08
2.18072e-07
-3.05217e-08
2.17721e-07
-2.6643e-08
2.17287e-07
-2.27097e-08
2.16769e-07
-1.87812e-08
2.16231e-07
-1.48809e-08
2.15742e-07
-1.10577e-08
2.15303e-07
-7.35548e-09
2.14936e-07
-3.82952e-09
2.14784e-07
-5.62145e-10
2.14637e-07
2.60883e-09
2.14533e-07
5.45313e-09
2.14481e-07
7.97282e-09
2.14484e-07
1.0204e-08
2.14551e-07
1.21804e-08
2.147e-07
1.39333e-08
2.14918e-07
1.54925e-08
2.15195e-07
1.68849e-08
2.15493e-07
1.81405e-08
2.15809e-07
1.92776e-08
2.16107e-07
2.03303e-08
2.16379e-07
2.13222e-08
2.1657e-07
2.22972e-08
2.16661e-07
2.32513e-08
2.16575e-07
2.42504e-08
2.16293e-07
2.52261e-08
2.15715e-07
2.62982e-08
2.14847e-07
2.72822e-08
2.13572e-07
2.83902e-08
2.11955e-07
2.93008e-08
2.09882e-07
3.03329e-08
2.0756e-07
3.10334e-08
2.04949e-07
3.16483e-08
3.16864e-08
1.86117e-07
-6.65391e-09
1.85699e-07
-9.9879e-09
1.84909e-07
-1.23312e-08
1.84169e-07
-1.56565e-08
1.834e-07
-1.86389e-08
1.82695e-07
-2.2448e-08
1.82047e-07
-2.67802e-08
1.81455e-07
-3.06955e-08
1.81139e-07
-3.54321e-08
1.8106e-07
-3.96136e-08
1.81677e-07
-4.51244e-08
1.82723e-07
-4.95638e-08
1.85028e-07
-5.56412e-08
1.87795e-07
-5.97487e-08
1.92068e-07
-6.51678e-08
1.966e-07
-6.81057e-08
2.02399e-07
-7.11775e-08
2.08344e-07
-7.15159e-08
2.13392e-07
-6.9035e-08
2.16914e-07
-6.44293e-08
2.18941e-07
-5.94953e-08
2.19566e-07
-5.43164e-08
2.19455e-07
-4.96071e-08
2.18998e-07
-4.53745e-08
2.18054e-07
-4.09904e-08
2.16607e-07
-3.67078e-08
2.1485e-07
-3.25931e-08
2.12923e-07
-2.85942e-08
2.10912e-07
-2.46319e-08
2.08899e-07
-2.06974e-08
2.06949e-07
-1.68308e-08
2.05131e-07
-1.3063e-08
2.03503e-07
-9.42999e-09
2.0211e-07
-5.9625e-09
2.00996e-07
-2.71514e-09
2.00201e-07
2.32481e-10
1.99628e-07
3.18259e-09
1.99338e-07
5.74258e-09
1.99276e-07
8.03514e-09
1.99406e-07
1.00736e-08
1.99706e-07
1.18807e-08
2.00169e-07
1.34706e-08
2.00778e-07
1.48831e-08
2.01533e-07
1.61305e-08
2.02404e-07
1.72694e-08
2.03377e-07
1.8304e-08
2.04409e-07
1.92989e-08
2.05478e-07
2.02527e-08
2.06521e-07
2.12544e-08
2.07504e-07
2.22682e-08
2.08337e-07
2.34173e-08
2.08976e-07
2.45868e-08
2.0931e-07
2.59645e-08
2.09299e-07
2.72932e-08
2.08823e-07
2.88665e-08
2.07926e-07
3.01972e-08
2.06532e-07
3.17278e-08
2.04887e-07
3.26781e-08
2.02675e-07
3.38602e-08
3.44558e-08
1.83754e-07
-6.26456e-09
1.83125e-07
-9.35827e-09
1.8231e-07
-1.15167e-08
1.81344e-07
-1.46905e-08
1.80445e-07
-1.77396e-08
1.79596e-07
-2.15991e-08
1.78626e-07
-2.58103e-08
1.77778e-07
-2.98475e-08
1.77111e-07
-3.47654e-08
1.76909e-07
-3.94114e-08
1.77339e-07
-4.55546e-08
1.78576e-07
-5.08005e-08
1.81195e-07
-5.82597e-08
1.84853e-07
-6.34074e-08
1.908e-07
-7.11141e-08
1.96768e-07
-7.40743e-08
2.04079e-07
-7.8488e-08
2.12481e-07
-7.99179e-08
2.1775e-07
-7.43039e-08
2.1991e-07
-6.65895e-08
2.20216e-07
-5.98017e-08
2.18752e-07
-5.28518e-08
2.16339e-07
-4.71944e-08
2.13132e-07
-4.21677e-08
2.0885e-07
-3.67084e-08
2.03914e-07
-3.17717e-08
1.98793e-07
-2.74717e-08
1.93734e-07
-2.35356e-08
1.8891e-07
-1.98075e-08
1.84458e-07
-1.62455e-08
1.80477e-07
-1.28501e-08
1.77043e-07
-9.62854e-09
1.74191e-07
-6.57856e-09
1.71934e-07
-3.70543e-09
1.70248e-07
-1.02882e-09
1.69042e-07
1.43807e-09
1.68469e-07
3.75601e-09
1.68324e-07
5.88711e-09
1.68553e-07
7.80676e-09
1.69109e-07
9.51776e-09
1.69948e-07
1.1041e-08
1.71043e-07
1.23759e-08
1.72366e-07
1.35602e-08
1.73905e-07
1.45914e-08
1.75645e-07
1.55294e-08
1.77577e-07
1.63717e-08
1.79675e-07
1.72014e-08
1.81919e-07
1.80082e-08
1.84259e-07
1.89151e-08
1.86657e-07
1.98698e-08
1.89025e-07
2.10497e-08
1.91299e-07
2.23121e-08
1.9336e-07
2.39044e-08
1.95118e-07
2.55351e-08
1.96413e-07
2.75709e-08
1.97143e-07
2.94673e-08
1.9716e-07
3.17109e-08
1.96421e-07
3.34175e-08
1.95129e-07
3.51517e-08
3.6278e-08
1.81599e-07
-5.80506e-09
1.80797e-07
-8.55623e-09
1.7942e-07
-1.01401e-08
1.78359e-07
-1.36297e-08
1.77503e-07
-1.68829e-08
1.76427e-07
-2.05235e-08
1.75022e-07
-2.44049e-08
1.73786e-07
-2.86117e-08
1.72609e-07
-3.35889e-08
1.72085e-07
-3.88869e-08
1.72078e-07
-4.55474e-08
1.73407e-07
-5.213e-08
1.75977e-07
-6.08292e-08
1.80768e-07
-6.81983e-08
1.88621e-07
-7.89672e-08
1.98314e-07
-8.37675e-08
2.08368e-07
-8.8542e-08
2.16312e-07
-8.78615e-08
2.19021e-07
-7.70136e-08
2.1746e-07
-6.50284e-08
2.12934e-07
-5.52761e-08
2.0612e-07
-4.60373e-08
1.97714e-07
-3.87887e-08
1.88327e-07
-3.278e-08
1.77976e-07
-2.6358e-08
1.67758e-07
-2.15539e-08
1.58181e-07
-1.78939e-08
1.49545e-07
-1.49002e-08
1.42046e-07
-1.23083e-08
1.35776e-07
-9.97591e-09
1.30737e-07
-7.81086e-09
1.26872e-07
-5.76304e-09
1.24095e-07
-3.8018e-09
1.22284e-07
-1.89492e-09
1.21214e-07
4.1704e-11
1.20956e-07
1.69576e-09
1.21325e-07
3.3873e-09
1.22214e-07
4.99777e-09
1.23522e-07
6.49946e-09
1.25171e-07
7.86852e-09
1.27108e-07
9.10342e-09
1.29297e-07
1.01871e-08
1.31716e-07
1.11412e-08
1.3435e-07
1.19579e-08
1.37191e-07
1.26883e-08
1.4023e-07
1.33319e-08
1.43461e-07
1.3971e-08
1.46866e-07
1.46033e-08
1.50422e-07
1.5359e-08
1.54093e-07
1.61985e-08
1.5783e-07
1.73126e-08
1.61556e-07
1.85868e-08
1.65199e-07
2.02607e-08
1.68633e-07
2.2101e-08
1.71777e-07
2.44277e-08
1.74538e-07
2.67054e-08
1.76747e-07
2.95028e-08
1.78131e-07
3.20334e-08
1.79002e-07
3.42805e-08
3.67629e-08
1.79573e-07
-5.24834e-09
1.78143e-07
-7.12632e-09
1.78369e-07
-1.03658e-08
1.76939e-07
-1.21995e-08
1.74985e-07
-1.49294e-08
1.73217e-07
-1.8755e-08
1.71321e-07
-2.25085e-08
1.69547e-07
-2.68384e-08
1.67662e-07
-3.17038e-08
1.66434e-07
-3.76588e-08
1.65638e-07
-4.47517e-08
1.666e-07
-5.30912e-08
1.68919e-07
-6.31486e-08
1.74594e-07
-7.38736e-08
1.84834e-07
-8.92068e-08
1.99529e-07
-9.84625e-08
2.13789e-07
-1.02802e-07
2.12776e-07
-8.68488e-08
2.07208e-07
-7.14452e-08
1.94845e-07
-5.26654e-08
1.79729e-07
-4.01599e-08
1.60878e-07
-2.71863e-08
1.42172e-07
-2.0083e-08
1.23736e-07
-1.4344e-08
1.07957e-07
-1.05785e-08
9.56017e-08
-9.19891e-09
8.61262e-08
-8.41843e-09
7.92264e-08
-8.00028e-09
7.44038e-08
-7.48573e-09
7.12056e-08
-6.7777e-09
6.92558e-08
-5.86112e-09
6.8286e-08
-4.79325e-09
6.80951e-08
-3.61086e-09
6.85442e-08
-2.34408e-09
6.95865e-08
-1.00054e-09
7.09174e-08
3.64816e-10
7.26517e-08
1.65308e-09
7.4696e-08
2.95341e-09
7.70028e-08
4.19269e-09
7.9541e-08
5.33033e-09
8.22926e-08
6.35177e-09
8.52455e-08
7.23426e-09
8.84011e-08
7.98557e-09
9.17589e-08
8.60007e-09
9.53293e-08
9.11789e-09
9.91121e-08
9.5492e-09
1.03116e-07
9.96716e-09
1.07329e-07
1.03902e-08
1.1175e-07
1.09376e-08
1.16345e-07
1.16036e-08
1.21094e-07
1.25634e-08
1.25924e-07
1.37576e-08
1.30787e-07
1.5397e-08
1.35538e-07
1.735e-08
1.40122e-07
1.98437e-08
1.44261e-07
2.25667e-08
1.47999e-07
2.57643e-08
1.50835e-07
2.91977e-08
1.53309e-07
3.18064e-08
3.57337e-08
1.77757e-07
-4.6189e-09
1.76663e-07
-6.03176e-09
1.75598e-07
-9.30095e-09
1.74178e-07
-1.07794e-08
1.72255e-07
-1.30062e-08
1.70046e-07
-1.65465e-08
1.67571e-07
-2.00333e-08
1.6505e-07
-2.43171e-08
1.62299e-07
-2.89531e-08
1.59926e-07
-3.52862e-08
1.57774e-07
-4.25997e-08
1.57273e-07
-5.25897e-08
1.5885e-07
-6.47258e-08
1.64427e-07
-7.94512e-08
1.80464e-07
-1.05244e-07
1.91194e-07
-1.09192e-07
1.97343e-07
-1.08951e-07
2.53542e-07
-1.43048e-07
1.82097e-07
1.29432e-07
8.92716e-08
6.20853e-08
3.87862e-08
3.21611e-09
3.08286e-08
-6.38637e-09
2.74128e-08
-7.16274e-09
2.69282e-08
-8.71428e-09
2.72355e-08
-8.72571e-09
2.75904e-08
-8.35516e-09
2.78605e-08
-7.7559e-09
2.81254e-08
-7.04255e-09
2.85181e-08
-6.25387e-09
2.91057e-08
-5.38083e-09
2.99225e-08
-4.42762e-09
3.0983e-08
-3.40457e-09
3.23045e-08
-2.32203e-09
3.38827e-08
-1.21345e-09
3.56239e-08
-8.8104e-11
3.75975e-08
9.79854e-10
3.97912e-08
1.99897e-09
4.2196e-08
2.92556e-09
4.48117e-08
3.73607e-09
4.76392e-08
4.40672e-09
5.06893e-08
4.93545e-09
5.39694e-08
5.32002e-09
5.7496e-08
5.59123e-09
6.12768e-08
5.76848e-09
6.53281e-08
5.91577e-09
6.9646e-08
6.07238e-09
7.42423e-08
6.34139e-09
7.90902e-08
6.75565e-09
8.41887e-08
7.46487e-09
8.94735e-08
8.47276e-09
9.49183e-08
9.95221e-09
1.00367e-07
1.19011e-08
1.05808e-07
1.44024e-08
1.10831e-07
1.75443e-08
1.15639e-07
2.09558e-08
1.19497e-07
2.53404e-08
1.22705e-07
2.85982e-08
3.38102e-08
1.7611e-07
-3.87403e-09
1.75021e-07
-4.94352e-09
1.73502e-07
-7.78208e-09
1.71787e-07
-9.06353e-09
1.69688e-07
-1.09081e-08
1.67062e-07
-1.39202e-08
1.64026e-07
-1.69969e-08
1.60617e-07
-2.09085e-08
1.56846e-07
-2.51818e-08
1.52904e-07
-3.13445e-08
1.48804e-07
-3.84997e-08
1.455e-07
-4.92854e-08
1.43437e-07
-6.2663e-08
1.45661e-07
-8.16753e-08
1.61201e-07
-1.20784e-07
2.51999e-07
-1.9999e-07
1.43048e-07
3.21611e-09
-3.17025e-09
-4.99585e-10
-9.83341e-09
1.61725e-09
-1.08311e-08
3.44391e-09
-1.05524e-08
4.61047e-09
-9.52171e-09
5.26565e-09
-8.41108e-09
5.64287e-09
-7.41977e-09
5.92052e-09
-6.53152e-09
6.20756e-09
-5.66787e-09
6.57435e-09
-4.7944e-09
7.06832e-09
-3.89854e-09
7.71986e-09
-2.97357e-09
8.54195e-09
-2.03553e-09
9.55796e-09
-1.10412e-09
1.07486e-08
-2.10818e-10
1.21371e-08
6.10506e-10
1.37399e-08
1.3228e-09
1.55615e-08
1.91445e-09
1.76125e-08
2.35566e-09
1.99111e-08
2.63694e-09
2.24723e-08
2.75875e-09
2.532e-08
2.74357e-09
2.84699e-08
2.6186e-09
3.19498e-08
2.43586e-09
3.57678e-08
2.2544e-09
3.99435e-08
2.16568e-09
4.44655e-08
2.23363e-09
4.93446e-08
2.5858e-09
5.45331e-08
3.2842e-09
6.00103e-08
4.47509e-09
6.56669e-08
6.2445e-09
7.14505e-08
8.61875e-09
7.69514e-08
1.20434e-08
8.23088e-08
1.55984e-08
8.68113e-08
2.08379e-08
9.01841e-08
2.52255e-08
3.15184e-08
1.74712e-07
-3.01433e-09
1.73566e-07
-3.79727e-09
1.71818e-07
-6.03422e-09
1.698e-07
-7.04602e-09
1.67427e-07
-8.53471e-09
1.64392e-07
-1.08853e-08
1.60796e-07
-1.34004e-08
1.56511e-07
-1.66236e-08
1.51609e-07
-2.02801e-08
1.45916e-07
-2.56515e-08
1.39402e-07
-3.19853e-08
1.32254e-07
-4.21379e-08
1.2369e-07
-5.40984e-08
1.15933e-07
-7.39185e-08
1.0207e-07
-1.06921e-07
-9.792e-08
-4.42557e-09
-5.40784e-09
-4.82174e-09
-1.04349e-08
-5.07321e-09
-1.03009e-08
-5.46952e-09
-9.1254e-09
-6.00182e-09
-7.87878e-09
-6.61912e-09
-6.80247e-09
-7.27812e-09
-5.87252e-09
-7.91873e-09
-5.02726e-09
-8.4957e-09
-4.21743e-09
-8.97829e-09
-3.41595e-09
-9.34079e-09
-2.61107e-09
-9.56749e-09
-1.80883e-09
-9.64136e-09
-1.03024e-09
-9.546e-09
-3.06179e-10
-9.27439e-09
3.38901e-10
-8.805e-09
8.53408e-10
-8.12151e-09
1.23095e-09
-7.20348e-09
1.43764e-09
-6.02335e-09
1.45681e-09
-4.55532e-09
1.29072e-09
-2.76599e-09
9.54248e-10
-6.25166e-10
4.77769e-10
1.91328e-09
-1.02584e-10
4.87096e-09
-7.03292e-10
8.2715e-09
-1.23486e-09
1.21245e-08
-1.61936e-09
1.64486e-08
-1.73827e-09
2.12238e-08
-1.49103e-09
2.64198e-08
-7.20947e-10
3.20028e-08
6.61549e-10
3.78159e-08
2.8056e-09
4.37298e-08
6.1295e-09
4.954e-08
9.78824e-09
5.39743e-08
1.64035e-08
5.71919e-08
2.20079e-08
2.89215e-08
1.73625e-07
-2.06336e-09
1.72408e-07
-2.58087e-09
1.70496e-07
-4.12185e-09
1.68268e-07
-4.81764e-09
1.65605e-07
-5.87175e-09
1.6221e-07
-7.49103e-09
1.58088e-07
-9.27788e-09
1.53037e-07
-1.15728e-08
1.47026e-07
-1.42691e-08
1.39645e-07
-1.82706e-08
1.30753e-07
-2.30933e-08
1.19832e-07
-3.12168e-08
1.05981e-07
-4.02479e-08
9.10428e-08
-5.89797e-08
9.792e-08
-1.13798e-07
-5.40784e-09
-5.96021e-09
-9.88256e-09
-8.25e-09
-8.01112e-09
-1.02821e-08
-7.09334e-09
-1.22005e-08
-5.96032e-09
-1.40338e-08
-4.96922e-09
-1.57902e-08
-4.11607e-09
-1.74716e-08
-3.34588e-09
-1.90735e-08
-2.61557e-09
-2.05891e-08
-1.90028e-09
-2.20097e-08
-1.19049e-09
-2.33266e-08
-4.91897e-10
-2.45325e-08
1.75614e-10
-2.55944e-08
7.55766e-10
-2.64965e-08
1.24095e-09
-2.7232e-08
1.58895e-09
-2.77689e-08
1.76786e-09
-2.80811e-08
1.74979e-09
-2.81379e-08
1.51368e-09
-2.78939e-08
1.04665e-09
-2.73122e-08
3.72536e-10
-2.63361e-08
-4.98265e-10
-2.49443e-08
-1.49442e-09
-2.30843e-08
-2.56323e-09
-2.07042e-08
-3.615e-09
-1.77687e-08
-4.5549e-09
-1.42443e-08
-5.26262e-09
-1.01242e-08
-5.6111e-09
-5.4078e-09
-5.43739e-09
-1.61902e-10
-4.58435e-09
5.5711e-09
-2.92741e-09
1.18103e-08
-1.09693e-10
1.82098e-08
3.38875e-09
2.31775e-08
1.14358e-08
2.59909e-08
1.91945e-08
2.43843e-08
1.72881e-07
-1.04893e-09
1.71607e-07
-1.30724e-09
1.69578e-07
-2.0932e-09
1.6721e-07
-2.44912e-09
1.64332e-07
-2.99367e-09
1.60662e-07
-3.82093e-09
1.56138e-07
-4.7545e-09
1.50507e-07
-5.94178e-09
1.43629e-07
-7.39035e-09
1.34841e-07
-9.48268e-09
1.23937e-07
-1.21896e-08
1.09296e-07
-1.6576e-08
9.11527e-08
-2.21044e-08
6.60788e-08
-3.39058e-08
-4.77196e-08
-5.53085e-09
-4.35171e-09
-9.17132e-09
-4.37065e-09
-1.26155e-08
-3.64921e-09
-1.57255e-08
-2.85025e-09
-1.85713e-08
-2.12349e-09
-2.12302e-08
-1.45716e-09
-2.37566e-08
-8.19493e-10
-2.61899e-08
-1.82228e-10
-2.85304e-08
4.40233e-10
-3.07919e-08
1.07103e-09
-3.29721e-08
1.68829e-09
-3.50532e-08
2.25674e-09
-3.70306e-08
2.73309e-09
-3.88701e-08
3.0805e-09
-4.0553e-08
3.27184e-09
-4.20535e-08
3.26839e-09
-4.33396e-08
3.03583e-09
-4.43755e-08
2.54956e-09
-4.51309e-08
1.80211e-09
-4.55515e-08
7.93101e-10
-4.56486e-08
-4.01108e-10
-4.53619e-08
-1.78117e-09
-4.46458e-08
-3.27927e-09
-4.3459e-08
-4.80185e-09
-4.17563e-08
-6.25756e-09
-3.94778e-08
-7.54117e-09
-3.65512e-08
-8.53764e-09
-3.28948e-08
-9.09384e-09
-2.8435e-08
-9.04411e-09
-2.31122e-08
-8.25018e-09
-1.67843e-08
-6.43767e-09
-1.06205e-08
-2.77499e-09
-3.7809e-09
4.59615e-09
3.36109e-09
1.20525e-08
1.72432e-08
1.72502e-07
-1.78191e-12
1.71197e-07
-2.32898e-12
1.69108e-07
-3.66723e-12
1.66663e-07
-4.31917e-12
1.63675e-07
-5.30047e-12
1.59861e-07
-6.80362e-12
1.55114e-07
-8.15067e-12
1.49182e-07
-9.81496e-12
1.41803e-07
-1.06765e-11
1.32332e-07
-1.18227e-11
1.20153e-07
-1.12679e-11
1.03591e-07
-1.35005e-11
8.15011e-08
-1.46261e-11
4.76287e-08
-3.33231e-11
-9.09214e-11
-4.37471e-09
2.30037e-11
-9.15441e-09
4.09039e-10
-1.34737e-08
6.70084e-10
-1.72604e-08
9.36401e-10
-2.06509e-08
1.26706e-09
-2.3775e-08
1.66696e-09
-2.67246e-08
2.1301e-09
-2.95525e-08
2.64569e-09
-3.22941e-08
3.18183e-09
-3.49477e-08
3.72461e-09
-3.75051e-08
4.24563e-09
-3.9959e-08
4.71064e-09
-4.23029e-08
5.07704e-09
-4.45198e-08
5.29742e-09
-4.65754e-08
5.32745e-09
-4.84365e-08
5.1295e-09
-5.00693e-08
4.66861e-09
-5.1439e-08
3.91929e-09
-5.25133e-08
2.8764e-09
-5.32742e-08
1.55392e-09
-5.3669e-08
-6.27542e-12
-5.37315e-08
-1.71865e-09
-5.34434e-08
-3.56736e-09
-5.27897e-08
-5.45556e-09
-5.17613e-08
-7.28601e-09
-5.03479e-08
-8.95449e-09
-4.85307e-08
-1.03548e-08
-4.62584e-08
-1.13662e-08
-4.34375e-08
-1.18651e-08
-3.99946e-08
-1.16931e-08
-3.57364e-08
-1.06958e-08
-2.98509e-08
-8.66055e-09
-2.00823e-08
-5.1724e-09
-7.48259e-09
-5.47179e-10
4.12785e-09
1.72502e-07
1.04546e-09
1.71197e-07
1.30268e-09
1.69107e-07
2.08602e-09
1.66662e-07
2.44066e-09
1.63673e-07
2.98325e-09
1.59859e-07
3.80782e-09
1.55112e-07
4.73841e-09
1.4918e-07
5.92233e-09
1.41801e-07
7.36876e-09
1.3233e-07
9.45828e-09
1.20155e-07
1.21643e-08
1.03597e-07
1.65442e-08
8.15242e-08
2.20584e-08
4.76798e-08
3.3811e-08
4.75889e-08
-4.32858e-09
4.35158e-09
-9.0513e-09
5.13176e-09
-1.33123e-08
4.93105e-09
-1.70399e-08
4.664e-09
-2.03645e-08
4.59171e-09
-2.341e-08
4.71247e-09
-2.62593e-08
4.97939e-09
-2.89683e-08
5.3547e-09
-3.158e-08
5.79353e-09
-3.41068e-08
6.25141e-09
-3.65396e-08
6.67842e-09
-3.88653e-08
7.03629e-09
-4.10667e-08
7.27851e-09
-4.31315e-08
7.36217e-09
-4.50353e-08
7.23122e-09
-4.67514e-08
6.84561e-09
-4.82519e-08
6.16915e-09
-4.95104e-08
5.17776e-09
-5.05e-08
3.86604e-09
-5.11879e-08
2.24184e-09
-5.15078e-08
3.13634e-10
-5.1565e-08
-1.66154e-09
-5.1298e-08
-3.83432e-09
-5.07088e-08
-6.04476e-09
-4.98002e-08
-8.19459e-09
-4.85729e-08
-1.01818e-08
-4.70141e-08
-1.19136e-08
-4.50688e-08
-1.33114e-08
-4.26351e-08
-1.42987e-08
-3.96689e-08
-1.46593e-08
-3.60383e-08
-1.43263e-08
-3.05562e-08
-1.41427e-08
-2.04293e-08
-1.52993e-08
-6.38777e-09
-1.45887e-08
-1.00689e-08
1.72878e-07
2.06014e-09
1.71604e-07
2.57661e-09
1.69575e-07
4.11514e-09
1.67206e-07
4.80972e-09
1.64328e-07
5.862e-09
1.60657e-07
7.47859e-09
1.56133e-07
9.26239e-09
1.50498e-07
1.15567e-08
1.4362e-07
1.42468e-08
1.34833e-07
1.82456e-08
1.23931e-07
2.3066e-08
1.09295e-07
3.11808e-08
9.11565e-08
4.01967e-08
6.6073e-08
5.88946e-08
1.13662e-07
-5.40266e-09
9.75423e-09
-8.88316e-09
8.61226e-09
-1.21605e-08
8.20837e-09
-1.50996e-08
7.60314e-09
-1.7766e-08
7.25805e-09
-2.02373e-08
7.18378e-09
-2.25699e-08
7.31203e-09
-2.47868e-08
7.57154e-09
-2.68939e-08
7.90064e-09
-2.88891e-08
8.24664e-09
-3.07582e-08
8.54746e-09
-3.24781e-08
8.75625e-09
-3.40216e-08
8.82202e-09
-3.53572e-08
8.69771e-09
-3.64604e-08
8.33445e-09
-3.73086e-08
7.69374e-09
-3.7883e-08
6.74358e-09
-3.81721e-08
5.46691e-09
-3.81738e-08
3.86776e-09
-3.78982e-08
1.96624e-09
-3.74126e-08
-1.72006e-10
-3.66041e-08
-2.47e-09
-3.55187e-08
-4.91971e-09
-3.41553e-08
-7.40821e-09
-3.25188e-08
-9.83108e-09
-3.06154e-08
-1.20852e-08
-2.8443e-08
-1.40861e-08
-2.59864e-08
-1.5768e-08
-2.31908e-08
-1.70944e-08
-1.9951e-08
-1.78991e-08
-1.59058e-08
-1.83715e-08
-1.13161e-08
-1.87324e-08
-5.24888e-09
-2.13665e-08
4.54636e-09
-2.4384e-08
-2.12078e-08
1.73621e-07
3.01152e-09
1.72404e-07
3.7935e-09
1.70491e-07
6.02825e-09
1.68262e-07
7.039e-09
1.65598e-07
8.52606e-09
1.62202e-07
1.08745e-08
1.58078e-07
1.33867e-08
1.53026e-07
1.66085e-08
1.47013e-07
2.02593e-08
1.39628e-07
2.56309e-08
1.30738e-07
3.19563e-08
1.19813e-07
4.21057e-08
1.0596e-07
5.40495e-08
9.10029e-08
7.38516e-08
9.78355e-08
1.06829e-07
9.78355e-08
-5.21026e-09
5.21026e-09
-5.77061e-09
1.03146e-08
-7.84333e-09
1.0685e-08
-9.61243e-09
9.97746e-09
-1.12479e-08
9.23858e-09
-1.2776e-08
8.78613e-09
-1.42037e-08
8.61154e-09
-1.55303e-08
8.63866e-09
-1.67437e-08
8.78495e-09
-1.78353e-08
8.99221e-09
-1.87857e-08
9.19703e-09
-1.95781e-08
9.33987e-09
-2.0191e-08
9.36916e-09
-2.06024e-08
9.23337e-09
-2.07894e-08
8.88471e-09
-2.07346e-08
8.27964e-09
-2.04284e-08
7.3876e-09
-1.98627e-08
6.17786e-09
-1.90297e-08
4.63392e-09
-1.79265e-08
2.76451e-09
-1.65506e-08
5.9039e-10
-1.4946e-08
-1.77656e-09
-1.30541e-08
-4.36196e-09
-1.09106e-08
-7.06315e-09
-8.53011e-09
-9.78873e-09
-5.92312e-09
-1.24381e-08
-3.09378e-09
-1.49146e-08
-3.68508e-11
-1.7143e-08
3.2279e-09
-1.90327e-08
6.7519e-09
-2.06184e-08
1.05853e-08
-2.17326e-08
1.51543e-08
-2.29404e-08
1.99218e-08
-2.34999e-08
2.44866e-08
-2.59314e-08
2.77988e-08
-2.76962e-08
-2.7602e-08
1.74707e-07
3.87176e-09
1.7356e-07
4.9404e-09
1.71811e-07
7.77711e-09
1.69792e-07
9.05775e-09
1.67418e-07
1.0901e-08
1.64381e-07
1.39113e-08
1.60782e-07
1.69856e-08
1.56495e-07
2.0895e-08
1.51588e-07
2.51665e-08
1.45894e-07
3.13255e-08
1.39374e-07
3.84754e-08
1.32224e-07
4.92564e-08
1.23649e-07
6.26247e-08
1.15879e-07
8.16208e-08
1.02002e-07
1.20707e-07
1.99837e-07
-4.37245e-09
9.58271e-09
-4.72732e-09
1.06694e-08
-4.74959e-09
1.07072e-08
-4.81906e-09
1.00469e-08
-4.97288e-09
9.3924e-09
-5.17301e-09
8.98626e-09
-5.37845e-09
8.81697e-09
-5.52747e-09
8.78768e-09
-5.57009e-09
8.82757e-09
-5.47632e-09
8.89844e-09
-5.21657e-09
8.93728e-09
-4.77363e-09
8.89693e-09
-4.12738e-09
8.72291e-09
-3.26146e-09
8.36745e-09
-2.16191e-09
7.78516e-09
-8.17678e-10
6.93541e-09
7.80922e-10
5.789e-09
2.63839e-09
4.32039e-09
4.74253e-09
2.52978e-09
7.10205e-09
4.05e-10
9.6518e-09
-1.95936e-09
1.24544e-08
-4.57916e-09
1.54684e-08
-7.37595e-09
1.86696e-08
-1.02644e-08
2.2038e-08
-1.31571e-08
2.55506e-08
-1.59507e-08
2.91945e-08
-1.85585e-08
3.2959e-08
-2.09075e-08
3.68392e-08
-2.29129e-08
4.0868e-08
-2.46471e-08
4.50575e-08
-2.59221e-08
4.94164e-08
-2.72993e-08
5.4121e-08
-2.82045e-08
5.77662e-08
-2.95766e-08
6.07254e-08
-3.06553e-08
-3.16274e-08
1.76104e-07
4.61727e-09
1.75015e-07
6.02945e-09
1.73494e-07
9.2972e-09
1.71777e-07
1.07751e-08
1.69677e-07
1.30008e-08
1.67049e-07
1.65399e-08
1.64009e-07
2.00249e-08
1.60597e-07
2.43072e-08
1.56823e-07
2.89408e-08
1.52877e-07
3.52713e-08
1.48768e-07
4.25841e-08
1.45458e-07
5.25668e-08
1.43382e-07
6.47001e-08
1.45588e-07
7.94149e-08
1.61097e-07
1.05198e-07
2.51797e-07
1.09138e-07
1.42906e-07
1.0889e-07
1.42906e-07
3.10107e-09
-3.10107e-09
-3.28391e-09
6.38498e-09
-6.93656e-10
6.99245e-09
1.41816e-09
8.55762e-09
3.41153e-09
8.71386e-09
4.86257e-09
8.59588e-09
5.88699e-09
8.36798e-09
6.71568e-09
8.15757e-09
7.50979e-09
8.02286e-09
8.37549e-09
7.92197e-09
9.39246e-09
7.81059e-09
1.06009e-08
7.68996e-09
1.20257e-08
7.51257e-09
1.3684e-08
7.23857e-09
1.55887e-08
6.81827e-09
1.77474e-08
6.20875e-09
2.01627e-08
5.36982e-09
2.28408e-08
4.25735e-09
2.57603e-08
2.86948e-09
2.89305e-08
1.15014e-09
3.23096e-08
-8.49229e-10
3.58746e-08
-3.16005e-09
3.96472e-08
-5.73194e-09
4.35816e-08
-8.51359e-09
4.76484e-08
-1.14427e-08
5.1808e-08
-1.4424e-08
5.6031e-08
-1.73801e-08
6.02782e-08
-2.01979e-08
6.45305e-08
-2.28108e-08
6.87612e-08
-2.51382e-08
7.29659e-08
-2.71176e-08
7.71376e-08
-2.88189e-08
8.13249e-08
-3.01094e-08
8.53333e-08
-3.13077e-08
8.92741e-08
-3.21453e-08
9.26085e-08
-3.2911e-08
9.58864e-08
-3.39332e-08
-3.42926e-08
1.77751e-07
5.24742e-09
1.76655e-07
7.12495e-09
1.75589e-07
1.03635e-08
1.74167e-07
1.21968e-08
1.72242e-07
1.49261e-08
1.70031e-07
1.8751e-08
1.67552e-07
2.25034e-08
1.65027e-07
2.68324e-08
1.62271e-07
3.16965e-08
1.59893e-07
3.76501e-08
1.57735e-07
4.47413e-08
1.57222e-07
5.30803e-08
1.58787e-07
6.31349e-08
1.64346e-07
7.38556e-08
1.80359e-07
8.9185e-08
1.91051e-07
9.84463e-08
1.97176e-07
1.02766e-07
2.53265e-07
8.6817e-08
1.81848e-07
7.1417e-08
1.29214e-07
5.2634e-08
8.89211e-08
4.0293e-08
6.1657e-08
2.72641e-08
3.84273e-08
2.01286e-08
3.043e-08
1.43822e-08
2.6876e-08
1.05465e-08
2.62978e-08
9.13576e-09
2.66226e-08
8.38909e-09
2.709e-08
8.12851e-09
2.75648e-08
7.89313e-09
2.81208e-08
7.60154e-09
2.89271e-08
7.21657e-09
3.00453e-08
6.80376e-09
3.15397e-08
6.31619e-09
3.33785e-08
5.85117e-09
3.55753e-08
5.31579e-09
3.81281e-08
4.68576e-09
4.10217e-08
3.92467e-09
4.42366e-08
2.99386e-09
4.77564e-08
1.85006e-09
5.16035e-08
4.10239e-10
5.56623e-08
-1.18936e-09
5.9926e-08
-3.11354e-09
6.43966e-08
-5.31982e-09
6.90205e-08
-7.78395e-09
7.37646e-08
-1.04761e-08
7.85755e-08
-1.33245e-08
8.34059e-08
-1.62731e-08
8.81986e-08
-1.92167e-08
9.29131e-08
-2.20945e-08
9.74967e-08
-2.47816e-08
1.01926e-07
-2.72404e-08
1.06163e-07
-2.93744e-08
1.10211e-07
-3.11664e-08
1.14032e-07
-3.26393e-08
1.17677e-07
-3.37545e-08
1.20988e-07
-3.46192e-08
1.24087e-07
-3.5244e-08
1.26786e-07
-3.56098e-08
1.28929e-07
-3.60767e-08
-3.59189e-08
1.79566e-07
5.80483e-09
1.78135e-07
8.55596e-09
1.7836e-07
1.01391e-08
1.76928e-07
1.36286e-08
1.74972e-07
1.68818e-08
1.73201e-07
2.0522e-08
1.71301e-07
2.44034e-08
1.69524e-07
2.86097e-08
1.67633e-07
3.3587e-08
1.66399e-07
3.88844e-08
1.65595e-07
4.55452e-08
1.66546e-07
5.21294e-08
1.68855e-07
6.08262e-08
1.74512e-07
6.81982e-08
1.84734e-07
7.89633e-08
1.99403e-07
8.37772e-08
2.13624e-07
8.85443e-08
2.12571e-07
8.78697e-08
2.06966e-07
7.70224e-08
1.94522e-07
6.50781e-08
1.79403e-07
5.54114e-08
1.60487e-07
4.61801e-08
1.41694e-07
3.89224e-08
1.23169e-07
3.29069e-08
1.07241e-07
2.64747e-08
9.4696e-08
2.16806e-08
8.50087e-08
1.80763e-08
7.7939e-08
1.51983e-08
7.30366e-08
1.27955e-08
6.98865e-08
1.07516e-08
6.81319e-08
8.97118e-09