/*--------------------------------*- C++ -*----------------------------------*\
| =========                 |                                                 |
| \\      /  F ield         | OpenFOAM: The Open Source CFD Toolbox           |
|  \\    /   O peration     | Version:  2.3.0                                 |
|   \\  /    A nd           | Web:      www.OpenFOAM.org                      |
|    \\/     M anipulation  |                                                 |
\*---------------------------------------------------------------------------*/
FoamFile
{
    version     2.0;
    format      ascii;
    class       volScalarField;
    location    "0.09";
    object      T;
}
// * * * * * * * * * * * * * * * * * * * * * * * * * * * * * * * * * * * * * //

dimensions      [0 0 0 1 0 0 0];

internalField   nonuniform List<scalar> 
12225
(
3.58472e-10
3.56319e-10
3.55715e-10
3.55518e-10
3.55421e-10
3.55504e-10
3.55894e-10
3.56851e-10
3.58931e-10
3.63312e-10
3.72576e-10
3.92578e-10
4.36968e-10
5.38007e-10
7.7266e-10
1.32735e-09
2.67268e-09
6.13851e-09
3.53408e-10
3.54021e-10
3.54528e-10
3.54856e-10
3.55052e-10
3.55302e-10
3.55795e-10
3.56822e-10
3.58956e-10
3.63377e-10
3.72634e-10
3.92466e-10
4.36141e-10
5.34784e-10
7.61826e-10
1.29155e-09
2.54257e-09
5.52165e-09
3.55857e-10
3.55811e-10
3.55657e-10
3.55587e-10
3.55562e-10
3.55682e-10
3.56104e-10
3.57111e-10
3.59269e-10
3.6375e-10
3.73056e-10
3.92736e-10
4.35432e-10
5.30302e-10
7.44578e-10
1.23165e-09
2.33105e-09
4.71569e-09
3.55952e-10
3.55722e-10
3.55523e-10
3.55498e-10
3.55551e-10
3.55745e-10
3.56245e-10
3.57353e-10
3.59661e-10
3.64356e-10
3.73905e-10
3.93634e-10
4.35373e-10
5.25662e-10
7.23553e-10
1.15652e-09
2.08035e-09
3.91429e-09
3.56107e-10
3.55972e-10
3.55822e-10
3.55805e-10
3.55874e-10
3.56098e-10
3.56658e-10
3.57889e-10
3.60422e-10
3.65484e-10
3.75528e-10
3.95652e-10
4.36746e-10
5.22287e-10
7.02054e-10
1.07653e-09
1.8276e-09
3.20729e-09
3.56368e-10
3.56308e-10
3.56201e-10
3.56188e-10
3.56277e-10
3.56553e-10
3.5722e-10
3.58658e-10
3.61569e-10
3.67259e-10
3.78219e-10
3.9935e-10
4.4058e-10
5.2216e-10
6.84513e-10
1.00332e-09
1.60246e-09
2.632e-09
3.56828e-10
3.56809e-10
3.5674e-10
3.56741e-10
3.56862e-10
3.57216e-10
3.58046e-10
3.59806e-10
3.63313e-10
3.70022e-10
3.82549e-10
4.0571e-10
4.48579e-10
5.28388e-10
6.77072e-10
9.4973e-10
1.42852e-09
2.20377e-09
3.57393e-10
3.57389e-10
3.5735e-10
3.57374e-10
3.5754e-10
3.57995e-10
3.59038e-10
3.61221e-10
3.6552e-10
3.73611e-10
3.88351e-10
4.14666e-10
4.61171e-10
5.43044e-10
6.86422e-10
9.33275e-10
1.342e-09
1.97364e-09
3.58027e-10
3.58032e-10
3.58017e-10
3.58071e-10
3.58291e-10
3.58866e-10
3.60165e-10
3.62864e-10
3.68138e-10
3.7795e-10
3.95508e-10
4.26026e-10
4.78e-10
5.65297e-10
7.10053e-10
9.45387e-10
1.31466e-09
1.8619e-09
3.58898e-10
3.58909e-10
3.5892e-10
3.59013e-10
3.59314e-10
3.60071e-10
3.61762e-10
3.65257e-10
3.72047e-10
3.84567e-10
4.06642e-10
4.44138e-10
5.05919e-10
6.05241e-10
7.61447e-10
1.00119e-09
1.3572e-09
1.86207e-09
3.60091e-10
3.60109e-10
3.60146e-10
3.60294e-10
3.6072e-10
3.61762e-10
3.64074e-10
3.6884e-10
3.78075e-10
3.95008e-10
4.24557e-10
4.73899e-10
5.53149e-10
6.76161e-10
8.61294e-10
1.13161e-09
1.51353e-09
2.0328e-09
3.61725e-10
3.61749e-10
3.61819e-10
3.62047e-10
3.62672e-10
3.64179e-10
3.67517e-10
3.74404e-10
3.87757e-10
4.12199e-10
4.54622e-10
5.24729e-10
6.35481e-10
8.03386e-10
1.04849e-09
1.39379e-09
1.86364e-09
2.48096e-09
3.63956e-10
3.6399e-10
3.64106e-10
3.64463e-10
3.65421e-10
3.67725e-10
3.72846e-10
3.83464e-10
4.04129e-10
4.42032e-10
5.07762e-10
6.15902e-10
7.85269e-10
1.03866e-09
1.40201e-09
1.9029e-09
2.56838e-09
3.42222e-09
3.66999e-10
3.67049e-10
3.6724e-10
3.67821e-10
3.6937e-10
3.73124e-10
3.81536e-10
3.99129e-10
4.33622e-10
4.97224e-10
6.07839e-10
7.89818e-10
1.07391e-09
1.49619e-09
2.09586e-09
2.91225e-09
3.98113e-09
5.33093e-09
3.71142e-10
3.71223e-10
3.71546e-10
3.72542e-10
3.75223e-10
3.81796e-10
3.9672e-10
4.28323e-10
4.9096e-10
6.07461e-10
8.11284e-10
1.1476e-09
1.67256e-09
2.45031e-09
3.54796e-09
5.02922e-09
6.94737e-09
9.33866e-09
3.76768e-10
3.76908e-10
3.77493e-10
3.7932e-10
3.84319e-10
3.96796e-10
4.25648e-10
4.87797e-10
6.12844e-10
8.48292e-10
1.26394e-09
1.95346e-09
3.03136e-09
4.62467e-09
6.86034e-09
9.85059e-09
1.36786e-08
1.83861e-08
3.84369e-10
3.84636e-10
3.8577e-10
3.89384e-10
3.99497e-10
4.25377e-10
4.86705e-10
6.21891e-10
8.99534e-10
1.43132e-09
2.38226e-09
3.97243e-09
6.46514e-09
1.01406e-08
1.52597e-08
2.20275e-08
3.05629e-08
4.08797e-08
3.93816e-10
3.94338e-10
3.9661e-10
4.04035e-10
4.25445e-10
4.82009e-10
6.20409e-10
9.34933e-10
1.59902e-09
2.90131e-09
5.27274e-09
9.28467e-09
1.56006e-08
2.4882e-08
3.76728e-08
5.4301e-08
7.48242e-08
9.90238e-08
4.03775e-10
4.04734e-10
4.08992e-10
4.23316e-10
4.66038e-10
5.83097e-10
8.80347e-10
1.58078e-09
3.11051e-09
6.20074e-09
1.1963e-08
2.18669e-08
3.75564e-08
6.05146e-08
9.16978e-08
1.31301e-07
1.7874e-07
2.32796e-07
4.13165e-10
4.14741e-10
4.21878e-10
4.46575e-10
5.22786e-10
7.39518e-10
1.31167e-09
2.71361e-09
5.89336e-09
1.25428e-08
2.53059e-08
4.76941e-08
8.3477e-08
1.35585e-07
2.05038e-07
2.90581e-07
3.89119e-07
4.96571e-07
4.21655e-10
4.24005e-10
4.34855e-10
4.73435e-10
5.96478e-10
9.59546e-10
1.95671e-09
4.50288e-09
1.05227e-08
2.36224e-08
4.96669e-08
9.65832e-08
1.72552e-07
2.8261e-07
4.25671e-07
5.94716e-07
7.79571e-07
9.69949e-07
4.29029e-10
4.32257e-10
4.47407e-10
5.02647e-10
6.84327e-10
1.2396e-09
2.82515e-09
7.04759e-09
1.74824e-08
4.12293e-08
9.04771e-08
1.82317e-07
3.33964e-07
5.52631e-07
8.27218e-07
1.13351e-06
1.44561e-06
1.74369e-06
4.35193e-10
4.39324e-10
4.58989e-10
5.32305e-10
7.80175e-10
1.56248e-09
3.87969e-09
1.03103e-08
2.69416e-08
6.66807e-08
1.53268e-07
3.22109e-07
6.09274e-07
1.02249e-06
1.51603e-06
2.02271e-06
2.49056e-06
2.89411e-06
4.40154e-10
4.45141e-10
4.69146e-10
5.60363e-10
8.76112e-10
1.90099e-09
5.03839e-09
1.4087e-08
3.8558e-08
1.00082e-07
2.41828e-07
5.3419e-07
1.05407e-06
1.80636e-06
2.63752e-06
3.39074e-06
3.99354e-06
4.44258e-06
4.43994e-10
4.49712e-10
4.77553e-10
5.8507e-10
9.64494e-10
2.22508e-09
6.19407e-09
1.80376e-08
5.14226e-08
1.39687e-07
3.55621e-07
8.32266e-07
1.7369e-06
3.07846e-06
4.37759e-06
5.34262e-06
5.95711e-06
6.312e-06
4.46915e-10
4.53189e-10
4.84173e-10
6.05448e-10
1.03992e-09
2.51016e-09
7.24523e-09
2.17794e-08
6.42448e-08
1.81838e-07
4.87391e-07
1.21599e-06
2.73005e-06
5.12561e-06
6.94428e-06
7.88792e-06
8.24812e-06
8.30817e-06
4.48986e-10
4.5558e-10
4.88886e-10
6.20829e-10
1.09897e-09
2.73957e-09
8.11472e-09
2.4977e-08
7.56722e-08
2.21617e-07
6.22256e-07
1.65746e-06
4.07527e-06
8.46915e-06
1.04809e-05
1.08273e-05
1.05673e-05
1.01553e-05
4.50502e-10
4.57716e-10
4.9287e-10
6.32636e-10
1.14317e-09
2.91202e-09
8.77692e-09
2.74578e-08
8.47729e-08
2.54556e-07
7.41144e-07
2.0917e-06
5.6945e-06
1.41433e-05
1.48064e-05
1.36537e-05
1.25168e-05
1.15979e-05
4.47685e-10
4.55832e-10
4.9282e-10
6.37835e-10
1.16895e-09
3.02079e-09
9.2097e-09
2.91173e-08
9.09824e-08
2.77509e-07
8.26342e-07
2.42067e-06
7.17566e-06
2.42269e-05
1.87598e-05
1.56252e-05
1.37829e-05
1.25037e-05
4.54916e-10
4.59853e-10
4.9595e-10
6.43057e-10
1.18552e-09
3.08411e-09
9.45392e-09
3.00388e-08
9.43874e-08
2.8991e-07
8.70695e-07
2.56535e-06
7.37434e-06
1.92084e-05
1.89481e-05
1.63969e-05
1.43491e-05
1.28991e-05
1.62176e-07
1.62354e-07
1.62703e-07
1.63237e-07
1.63961e-07
1.64878e-07
1.65993e-07
1.67308e-07
1.68828e-07
1.70555e-07
1.72495e-07
1.74649e-07
1.7702e-07
1.7961e-07
1.82421e-07
1.85455e-07
1.88713e-07
1.92196e-07
1.95904e-07
1.99838e-07
2.03997e-07
2.08381e-07
2.12989e-07
2.17818e-07
2.22869e-07
2.28137e-07
2.33622e-07
2.39319e-07
2.45225e-07
2.51338e-07
2.57653e-07
2.64165e-07
2.7087e-07
2.77763e-07
2.84839e-07
2.92093e-07
2.99517e-07
3.07107e-07
3.14856e-07
3.22758e-07
3.30805e-07
3.38991e-07
3.47308e-07
3.55749e-07
3.64308e-07
3.72975e-07
3.81745e-07
3.90609e-07
3.99559e-07
4.08589e-07
4.17691e-07
4.26857e-07
4.36079e-07
4.45352e-07
4.54667e-07
4.64017e-07
4.73396e-07
4.82798e-07
4.92215e-07
5.01643e-07
5.11075e-07
5.20505e-07
5.2993e-07
5.39343e-07
5.48741e-07
5.58119e-07
5.67474e-07
5.76801e-07
5.86098e-07
5.95362e-07
6.04591e-07
6.13781e-07
6.22932e-07
6.32041e-07
6.41107e-07
6.50129e-07
6.59106e-07
6.68037e-07
6.76923e-07
6.85762e-07
6.94555e-07
7.03302e-07
7.12003e-07
7.20659e-07
7.29271e-07
7.37839e-07
7.46365e-07
7.5485e-07
7.63295e-07
7.717e-07
7.80069e-07
7.88403e-07
7.96702e-07
8.04969e-07
8.13206e-07
8.21413e-07
8.29593e-07
8.37748e-07
8.45879e-07
8.53987e-07
8.62074e-07
8.70142e-07
8.78191e-07
8.86223e-07
8.94239e-07
9.02238e-07
9.10224e-07
9.18195e-07
9.26152e-07
9.34096e-07
9.42028e-07
9.49947e-07
9.57853e-07
9.65746e-07
9.73626e-07
9.81494e-07
9.89348e-07
9.97188e-07
1.00501e-06
1.01283e-06
1.02062e-06
1.0284e-06
1.03616e-06
1.04391e-06
1.05164e-06
1.05934e-06
1.06703e-06
1.0747e-06
1.08234e-06
1.08996e-06
1.09755e-06
1.10512e-06
1.11266e-06
1.12017e-06
1.12765e-06
1.1351e-06
1.14252e-06
1.1499e-06
1.15725e-06
1.16455e-06
1.17182e-06
1.17905e-06
1.18624e-06
1.19338e-06
1.20048e-06
1.20753e-06
1.21453e-06
1.22148e-06
1.22838e-06
1.23523e-06
1.24202e-06
1.24876e-06
1.25544e-06
1.26206e-06
1.26862e-06
1.27512e-06
1.28156e-06
1.28794e-06
1.29425e-06
1.3005e-06
1.30667e-06
1.31278e-06
1.31883e-06
1.32476e-06
1.33062e-06
1.33641e-06
1.34208e-06
1.34768e-06
1.35321e-06
1.35867e-06
1.36406e-06
1.36936e-06
1.3746e-06
1.37975e-06
1.38482e-06
1.3898e-06
1.39473e-06
1.39942e-06
1.40452e-06
1.40674e-06
1.61734e-07
1.61909e-07
1.62267e-07
1.62811e-07
1.63543e-07
1.64469e-07
1.6559e-07
1.66912e-07
1.68436e-07
1.70166e-07
1.72106e-07
1.74258e-07
1.76626e-07
1.79211e-07
1.82016e-07
1.85043e-07
1.88291e-07
1.91764e-07
1.9546e-07
1.9938e-07
2.03525e-07
2.07893e-07
2.12483e-07
2.17294e-07
2.22324e-07
2.27572e-07
2.33034e-07
2.38709e-07
2.44591e-07
2.50679e-07
2.56969e-07
2.63455e-07
2.70133e-07
2.76999e-07
2.84048e-07
2.91273e-07
2.98669e-07
3.06231e-07
3.13951e-07
3.21824e-07
3.29842e-07
3.37999e-07
3.46288e-07
3.54701e-07
3.63232e-07
3.71872e-07
3.80615e-07
3.89452e-07
3.98377e-07
4.07382e-07
4.16459e-07
4.256e-07
4.348e-07
4.44049e-07
4.53342e-07
4.6267e-07
4.72029e-07
4.8141e-07
4.90808e-07
5.00217e-07
5.09631e-07
5.19045e-07
5.28454e-07
5.37852e-07
5.47236e-07
5.566e-07
5.65942e-07
5.75258e-07
5.84544e-07
5.93799e-07
6.03018e-07
6.122e-07
6.21343e-07
6.30446e-07
6.39506e-07
6.48523e-07
6.57495e-07
6.66423e-07
6.75305e-07
6.84142e-07
6.92933e-07
7.01679e-07
7.1038e-07
7.19036e-07
7.27648e-07
7.36218e-07
7.44745e-07
7.53232e-07
7.61679e-07
7.70087e-07
7.78459e-07
7.86796e-07
7.951e-07
8.03371e-07
8.11613e-07
8.19825e-07
8.28012e-07
8.36173e-07
8.44311e-07
8.52426e-07
8.60521e-07
8.68598e-07
8.76656e-07
8.84699e-07
8.92725e-07
9.00737e-07
9.08734e-07
9.16718e-07
9.24689e-07
9.32647e-07
9.40594e-07
9.48528e-07
9.56449e-07
9.64359e-07
9.72256e-07
9.8014e-07
9.88011e-07
9.9587e-07
1.00371e-06
1.01154e-06
1.01936e-06
1.02716e-06
1.03494e-06
1.0427e-06
1.05045e-06
1.05818e-06
1.06588e-06
1.07357e-06
1.08123e-06
1.08887e-06
1.09649e-06
1.10407e-06
1.11163e-06
1.11916e-06
1.12666e-06
1.13413e-06
1.14156e-06
1.14896e-06
1.15633e-06
1.16365e-06
1.17094e-06
1.17818e-06
1.18538e-06
1.19254e-06
1.19965e-06
1.20671e-06
1.21372e-06
1.22069e-06
1.2276e-06
1.23445e-06
1.24125e-06
1.248e-06
1.25469e-06
1.26131e-06
1.26788e-06
1.27438e-06
1.28082e-06
1.28719e-06
1.2935e-06
1.29974e-06
1.30591e-06
1.31201e-06
1.31805e-06
1.32399e-06
1.32987e-06
1.3357e-06
1.34144e-06
1.3471e-06
1.35268e-06
1.35819e-06
1.36363e-06
1.36898e-06
1.37426e-06
1.37945e-06
1.38457e-06
1.3896e-06
1.39457e-06
1.39935e-06
1.40437e-06
1.40755e-06
1.60853e-07
1.61019e-07
1.61376e-07
1.61921e-07
1.62655e-07
1.63581e-07
1.64702e-07
1.66021e-07
1.67541e-07
1.69266e-07
1.71198e-07
1.73341e-07
1.75698e-07
1.78269e-07
1.81058e-07
1.84065e-07
1.87293e-07
1.90741e-07
1.94411e-07
1.98302e-07
2.02415e-07
2.06749e-07
2.11303e-07
2.16075e-07
2.21065e-07
2.2627e-07
2.31687e-07
2.37315e-07
2.43149e-07
2.49187e-07
2.55425e-07
2.61858e-07
2.68483e-07
2.75294e-07
2.82287e-07
2.89456e-07
2.96795e-07
3.04299e-07
3.11962e-07
3.19776e-07
3.27737e-07
3.35837e-07
3.44068e-07
3.52425e-07
3.60899e-07
3.69484e-07
3.78172e-07
3.86956e-07
3.95828e-07
4.04781e-07
4.13807e-07
4.229e-07
4.32051e-07
4.41254e-07
4.50501e-07
4.59786e-07
4.69103e-07
4.78444e-07
4.87804e-07
4.97176e-07
5.06555e-07
5.15936e-07
5.25313e-07
5.34682e-07
5.44038e-07
5.53377e-07
5.62696e-07
5.7199e-07
5.81257e-07
5.90493e-07
5.99697e-07
6.08865e-07
6.17996e-07
6.27089e-07
6.3614e-07
6.45151e-07
6.54119e-07
6.63045e-07
6.71926e-07
6.80764e-07
6.89558e-07
6.98308e-07
7.07015e-07
7.15679e-07
7.24301e-07
7.32881e-07
7.41421e-07
7.49922e-07
7.58385e-07
7.6681e-07
7.75201e-07
7.83559e-07
7.91884e-07
8.00179e-07
8.08446e-07
8.16685e-07
8.249e-07
8.33091e-07
8.41261e-07
8.4941e-07
8.57541e-07
8.65654e-07
8.73752e-07
8.81835e-07
8.89905e-07
8.97961e-07
9.06005e-07
9.14037e-07
9.22058e-07
9.30068e-07
9.38067e-07
9.46056e-07
9.54033e-07
9.62001e-07
9.69957e-07
9.77901e-07
9.85835e-07
9.93756e-07
1.00166e-06
1.00956e-06
1.01744e-06
1.02531e-06
1.03316e-06
1.04099e-06
1.04881e-06
1.0566e-06
1.06438e-06
1.07214e-06
1.07987e-06
1.08758e-06
1.09526e-06
1.10292e-06
1.11055e-06
1.11815e-06
1.12572e-06
1.13326e-06
1.14076e-06
1.14823e-06
1.15566e-06
1.16305e-06
1.17041e-06
1.17771e-06
1.18498e-06
1.1922e-06
1.19937e-06
1.20649e-06
1.21357e-06
1.22059e-06
1.22755e-06
1.23446e-06
1.24132e-06
1.24811e-06
1.25485e-06
1.26152e-06
1.26813e-06
1.27468e-06
1.28115e-06
1.28757e-06
1.29391e-06
1.30019e-06
1.30639e-06
1.31253e-06
1.31859e-06
1.32457e-06
1.33049e-06
1.33635e-06
1.34213e-06
1.34783e-06
1.35346e-06
1.359e-06
1.36447e-06
1.36985e-06
1.37516e-06
1.38038e-06
1.38552e-06
1.39058e-06
1.39556e-06
1.40036e-06
1.40531e-06
1.40906e-06
1.59514e-07
1.59674e-07
1.60029e-07
1.60575e-07
1.61307e-07
1.6223e-07
1.63346e-07
1.64659e-07
1.66171e-07
1.67885e-07
1.69804e-07
1.71931e-07
1.74268e-07
1.76817e-07
1.79579e-07
1.82557e-07
1.85752e-07
1.89163e-07
1.92793e-07
1.9664e-07
2.00706e-07
2.04989e-07
2.09489e-07
2.14204e-07
2.19134e-07
2.24275e-07
2.29627e-07
2.35186e-07
2.4095e-07
2.46914e-07
2.53077e-07
2.59434e-07
2.6598e-07
2.72711e-07
2.79623e-07
2.8671e-07
2.93966e-07
3.01387e-07
3.08966e-07
3.16697e-07
3.24574e-07
3.32591e-07
3.40739e-07
3.49014e-07
3.57406e-07
3.65911e-07
3.74519e-07
3.83225e-07
3.9202e-07
4.00898e-07
4.09851e-07
4.18872e-07
4.27953e-07
4.37089e-07
4.46271e-07
4.55493e-07
4.64748e-07
4.74031e-07
4.83335e-07
4.92654e-07
5.01983e-07
5.11315e-07
5.20647e-07
5.29974e-07
5.3929e-07
5.48593e-07
5.57877e-07
5.67141e-07
5.76379e-07
5.85591e-07
5.94772e-07
6.03921e-07
6.13036e-07
6.22114e-07
6.31155e-07
6.40158e-07
6.49121e-07
6.58044e-07
6.66926e-07
6.75766e-07
6.84566e-07
6.93324e-07
7.02042e-07
7.10719e-07
7.19357e-07
7.27955e-07
7.36516e-07
7.4504e-07
7.53528e-07
7.61982e-07
7.70404e-07
7.78794e-07
7.87154e-07
7.95487e-07
8.03794e-07
8.12077e-07
8.20337e-07
8.28577e-07
8.36797e-07
8.45e-07
8.53188e-07
8.61361e-07
8.69521e-07
8.7767e-07
8.85807e-07
8.93934e-07
9.02052e-07
9.1016e-07
9.1826e-07
9.26351e-07
9.34434e-07
9.42509e-07
9.50576e-07
9.58634e-07
9.66683e-07
9.74723e-07
9.82754e-07
9.90774e-07
9.98783e-07
1.00678e-06
1.01477e-06
1.02274e-06
1.03069e-06
1.03863e-06
1.04656e-06
1.05447e-06
1.06235e-06
1.07022e-06
1.07807e-06
1.08589e-06
1.09369e-06
1.10146e-06
1.1092e-06
1.11691e-06
1.12459e-06
1.13224e-06
1.13985e-06
1.14743e-06
1.15497e-06
1.16247e-06
1.16992e-06
1.17734e-06
1.1847e-06
1.19202e-06
1.19929e-06
1.20651e-06
1.21368e-06
1.22079e-06
1.22785e-06
1.23485e-06
1.24179e-06
1.24867e-06
1.25548e-06
1.26223e-06
1.26892e-06
1.27554e-06
1.28209e-06
1.28857e-06
1.29498e-06
1.30132e-06
1.30758e-06
1.31377e-06
1.31989e-06
1.32593e-06
1.3319e-06
1.3378e-06
1.34362e-06
1.34937e-06
1.35503e-06
1.36061e-06
1.36611e-06
1.37153e-06
1.37687e-06
1.38212e-06
1.38728e-06
1.39235e-06
1.39735e-06
1.40217e-06
1.40709e-06
1.41114e-06
1.57704e-07
1.57863e-07
1.58216e-07
1.5876e-07
1.5949e-07
1.60407e-07
1.61515e-07
1.62817e-07
1.64316e-07
1.66013e-07
1.67912e-07
1.70015e-07
1.72324e-07
1.74841e-07
1.77568e-07
1.80505e-07
1.83655e-07
1.87017e-07
1.90593e-07
1.94383e-07
1.98387e-07
2.02604e-07
2.07033e-07
2.11675e-07
2.16526e-07
2.21587e-07
2.26853e-07
2.32325e-07
2.37998e-07
2.43869e-07
2.49936e-07
2.56194e-07
2.62641e-07
2.6927e-07
2.76079e-07
2.83061e-07
2.90212e-07
2.97527e-07
3.05e-07
3.12624e-07
3.20395e-07
3.28305e-07
3.36348e-07
3.44517e-07
3.52806e-07
3.61208e-07
3.69715e-07
3.78321e-07
3.87019e-07
3.95801e-07
4.0466e-07
4.1359e-07
4.22583e-07
4.31632e-07
4.40731e-07
4.49872e-07
4.59051e-07
4.68259e-07
4.77492e-07
4.86744e-07
4.96008e-07
5.05281e-07
5.14556e-07
5.23829e-07
5.33096e-07
5.42352e-07
5.51595e-07
5.60819e-07
5.70023e-07
5.79204e-07
5.88358e-07
5.97484e-07
6.06579e-07
6.15641e-07
6.2467e-07
6.33665e-07
6.42623e-07
6.51544e-07
6.60429e-07
6.69275e-07
6.78084e-07
6.86855e-07
6.95589e-07
7.04286e-07
7.12946e-07
7.21571e-07
7.30161e-07
7.38717e-07
7.47241e-07
7.55734e-07
7.64198e-07
7.72633e-07
7.81042e-07
7.89427e-07
7.97789e-07
8.0613e-07
8.14452e-07
8.22757e-07
8.31047e-07
8.39323e-07
8.47587e-07
8.5584e-07
8.64084e-07
8.7232e-07
8.80548e-07
8.8877e-07
8.96986e-07
9.05196e-07
9.134e-07
9.216e-07
9.29795e-07
9.37984e-07
9.46169e-07
9.54347e-07
9.62519e-07
9.70685e-07
9.78844e-07
9.86995e-07
9.95138e-07
1.00327e-06
1.01139e-06
1.0195e-06
1.0276e-06
1.03568e-06
1.04375e-06
1.0518e-06
1.05984e-06
1.06785e-06
1.07584e-06
1.08381e-06
1.09175e-06
1.09967e-06
1.10756e-06
1.11542e-06
1.12325e-06
1.13104e-06
1.1388e-06
1.14652e-06
1.1542e-06
1.16183e-06
1.16943e-06
1.17698e-06
1.18448e-06
1.19193e-06
1.19933e-06
1.20668e-06
1.21397e-06
1.2212e-06
1.22837e-06
1.23549e-06
1.24254e-06
1.24952e-06
1.25645e-06
1.2633e-06
1.27008e-06
1.2768e-06
1.28344e-06
1.29001e-06
1.2965e-06
1.30292e-06
1.30927e-06
1.31553e-06
1.32172e-06
1.32783e-06
1.33386e-06
1.33982e-06
1.3457e-06
1.35149e-06
1.3572e-06
1.36283e-06
1.36838e-06
1.37384e-06
1.37921e-06
1.3845e-06
1.3897e-06
1.39479e-06
1.39981e-06
1.40465e-06
1.40958e-06
1.41379e-06
1.55418e-07
1.55577e-07
1.55929e-07
1.56469e-07
1.57193e-07
1.58102e-07
1.59198e-07
1.60485e-07
1.61965e-07
1.63639e-07
1.65512e-07
1.67583e-07
1.69856e-07
1.72332e-07
1.75013e-07
1.779e-07
1.80994e-07
1.84296e-07
1.87806e-07
1.91525e-07
1.95454e-07
1.9959e-07
2.03935e-07
2.08487e-07
2.13246e-07
2.18208e-07
2.23374e-07
2.2874e-07
2.34304e-07
2.40064e-07
2.46017e-07
2.52158e-07
2.58485e-07
2.64993e-07
2.71678e-07
2.78536e-07
2.85562e-07
2.9275e-07
3.00096e-07
3.07594e-07
3.15237e-07
3.2302e-07
3.30937e-07
3.38982e-07
3.47147e-07
3.55426e-07
3.63813e-07
3.723e-07
3.80881e-07
3.89549e-07
3.98296e-07
4.07117e-07
4.16004e-07
4.24951e-07
4.3395e-07
4.42996e-07
4.52083e-07
4.61203e-07
4.70352e-07
4.79523e-07
4.88712e-07
4.97912e-07
5.0712e-07
5.1633e-07
5.25538e-07
5.34741e-07
5.43934e-07
5.53114e-07
5.62278e-07
5.71423e-07
5.80546e-07
5.89645e-07
5.98719e-07
6.07764e-07
6.16781e-07
6.25767e-07
6.34722e-07
6.43644e-07
6.52534e-07
6.6139e-07
6.70213e-07
6.79003e-07
6.87759e-07
6.96482e-07
7.05173e-07
7.13833e-07
7.22461e-07
7.3106e-07
7.39631e-07
7.48174e-07
7.56692e-07
7.65186e-07
7.73657e-07
7.82109e-07
7.90541e-07
7.98957e-07
8.07358e-07
8.15746e-07
8.24122e-07
8.3249e-07
8.40851e-07
8.49205e-07
8.57554e-07
8.65899e-07
8.74242e-07
8.82582e-07
8.9092e-07
8.99256e-07
9.07592e-07
9.15926e-07
9.24259e-07
9.3259e-07
9.4092e-07
9.49247e-07
9.57572e-07
9.65893e-07
9.7421e-07
9.82523e-07
9.90829e-07
9.99128e-07
1.00742e-06
1.0157e-06
1.02397e-06
1.03223e-06
1.04047e-06
1.0487e-06
1.05691e-06
1.0651e-06
1.07327e-06
1.08142e-06
1.08955e-06
1.09764e-06
1.10571e-06
1.11375e-06
1.12175e-06
1.12972e-06
1.13766e-06
1.14555e-06
1.1534e-06
1.16121e-06
1.16897e-06
1.17668e-06
1.18435e-06
1.19196e-06
1.19951e-06
1.20701e-06
1.21445e-06
1.22183e-06
1.22915e-06
1.2364e-06
1.24359e-06
1.25071e-06
1.25776e-06
1.26473e-06
1.27164e-06
1.27846e-06
1.28522e-06
1.29189e-06
1.29849e-06
1.30501e-06
1.31144e-06
1.3178e-06
1.32407e-06
1.33026e-06
1.33637e-06
1.3424e-06
1.34834e-06
1.3542e-06
1.35997e-06
1.36566e-06
1.37126e-06
1.37676e-06
1.38218e-06
1.38751e-06
1.39275e-06
1.39788e-06
1.40292e-06
1.40779e-06
1.41275e-06
1.41705e-06
1.52645e-07
1.52806e-07
1.53157e-07
1.53692e-07
1.54407e-07
1.55304e-07
1.56385e-07
1.57652e-07
1.59107e-07
1.60753e-07
1.62592e-07
1.64625e-07
1.66854e-07
1.69281e-07
1.71908e-07
1.74734e-07
1.77763e-07
1.80994e-07
1.84428e-07
1.88065e-07
1.91906e-07
1.9595e-07
2.00197e-07
2.04647e-07
2.09297e-07
2.14148e-07
2.19197e-07
2.24443e-07
2.29883e-07
2.35516e-07
2.41337e-07
2.47345e-07
2.53535e-07
2.59905e-07
2.6645e-07
2.73166e-07
2.80048e-07
2.87092e-07
2.94293e-07
3.01646e-07
3.09144e-07
3.16782e-07
3.24555e-07
3.32457e-07
3.4048e-07
3.4862e-07
3.56868e-07
3.65219e-07
3.73667e-07
3.82204e-07
3.90824e-07
3.9952e-07
4.08286e-07
4.17116e-07
4.26002e-07
4.34938e-07
4.4392e-07
4.5294e-07
4.61992e-07
4.71072e-07
4.80174e-07
4.89293e-07
4.98424e-07
5.07563e-07
5.16706e-07
5.25848e-07
5.34985e-07
5.44115e-07
5.53235e-07
5.62341e-07
5.7143e-07
5.80502e-07
5.89553e-07
5.98581e-07
6.07586e-07
6.16566e-07
6.2552e-07
6.34447e-07
6.43346e-07
6.52217e-07
6.6106e-07
6.69874e-07
6.78661e-07
6.87419e-07
6.96149e-07
7.04853e-07
7.13531e-07
7.22184e-07
7.30813e-07
7.3942e-07
7.48006e-07
7.56572e-07
7.6512e-07
7.73653e-07
7.82173e-07
7.9068e-07
7.99177e-07
8.07666e-07
8.1615e-07
8.2463e-07
8.33107e-07
8.41583e-07
8.50059e-07
8.58537e-07
8.67016e-07
8.75498e-07
8.83983e-07
8.92471e-07
9.00963e-07
9.09458e-07
9.17955e-07
9.26456e-07
9.34959e-07
9.43463e-07
9.51969e-07
9.60474e-07
9.68979e-07
9.77482e-07
9.85982e-07
9.94477e-07
1.00297e-06
1.01145e-06
1.01992e-06
1.02838e-06
1.03684e-06
1.04527e-06
1.05369e-06
1.06209e-06
1.07047e-06
1.07883e-06
1.08717e-06
1.09547e-06
1.10375e-06
1.112e-06
1.12021e-06
1.12839e-06
1.13652e-06
1.14462e-06
1.15267e-06
1.16067e-06
1.16863e-06
1.17654e-06
1.18439e-06
1.19218e-06
1.19992e-06
1.2076e-06
1.21521e-06
1.22276e-06
1.23025e-06
1.23766e-06
1.245e-06
1.25227e-06
1.25947e-06
1.26659e-06
1.27363e-06
1.28059e-06
1.28747e-06
1.29427e-06
1.30098e-06
1.30761e-06
1.31415e-06
1.32061e-06
1.32698e-06
1.33326e-06
1.33946e-06
1.34557e-06
1.35159e-06
1.35752e-06
1.36336e-06
1.36911e-06
1.37477e-06
1.38033e-06
1.3858e-06
1.39118e-06
1.39646e-06
1.40163e-06
1.40671e-06
1.41161e-06
1.4166e-06
1.42095e-06
1.49376e-07
1.4954e-07
1.49889e-07
1.50417e-07
1.51122e-07
1.52003e-07
1.53065e-07
1.54307e-07
1.55734e-07
1.57346e-07
1.59145e-07
1.61132e-07
1.63311e-07
1.65682e-07
1.68246e-07
1.71004e-07
1.73958e-07
1.77109e-07
1.80457e-07
1.84002e-07
1.87745e-07
1.91686e-07
1.95824e-07
2.00159e-07
2.0469e-07
2.09416e-07
2.14336e-07
2.19449e-07
2.24751e-07
2.30242e-07
2.35918e-07
2.41778e-07
2.47818e-07
2.54034e-07
2.60423e-07
2.66982e-07
2.73705e-07
2.8059e-07
2.8763e-07
2.94821e-07
3.02159e-07
3.09637e-07
3.17251e-07
3.24993e-07
3.3286e-07
3.40844e-07
3.48939e-07
3.5714e-07
3.65439e-07
3.73831e-07
3.82309e-07
3.90868e-07
3.99499e-07
4.08199e-07
4.16959e-07
4.25775e-07
4.34639e-07
4.43548e-07
4.52494e-07
4.61474e-07
4.7048e-07
4.7951e-07
4.88557e-07
4.97618e-07
5.06689e-07
5.15765e-07
5.24843e-07
5.3392e-07
5.42992e-07
5.52057e-07
5.61112e-07
5.70155e-07
5.79184e-07
5.88197e-07
5.97193e-07
6.06169e-07
6.15126e-07
6.24062e-07
6.32977e-07
6.41869e-07
6.50739e-07
6.59587e-07
6.68412e-07
6.77214e-07
6.85995e-07
6.94755e-07
7.03494e-07
7.12213e-07
7.20914e-07
7.29598e-07
7.38267e-07
7.46921e-07
7.55563e-07
7.64195e-07
7.72818e-07
7.81435e-07
7.90048e-07
7.98658e-07
8.07268e-07
8.15881e-07
8.24496e-07
8.33117e-07
8.41743e-07
8.50375e-07
8.59016e-07
8.67664e-07
8.7632e-07
8.84985e-07
8.93658e-07
9.0234e-07
9.11028e-07
9.19725e-07
9.28427e-07
9.37136e-07
9.4585e-07
9.54567e-07
9.63288e-07
9.7201e-07
9.80732e-07
9.89452e-07
9.98169e-07
1.00688e-06
1.01559e-06
1.02428e-06
1.03297e-06
1.04164e-06
1.0503e-06
1.05894e-06
1.06756e-06
1.07616e-06
1.08473e-06
1.09328e-06
1.10179e-06
1.11027e-06
1.11872e-06
1.12713e-06
1.1355e-06
1.14382e-06
1.1521e-06
1.16032e-06
1.1685e-06
1.17662e-06
1.18469e-06
1.19269e-06
1.20063e-06
1.20851e-06
1.21632e-06
1.22406e-06
1.23173e-06
1.23932e-06
1.24684e-06
1.25428e-06
1.26164e-06
1.26892e-06
1.27611e-06
1.28322e-06
1.29024e-06
1.29717e-06
1.30402e-06
1.31077e-06
1.31743e-06
1.324e-06
1.33048e-06
1.33687e-06
1.34316e-06
1.34936e-06
1.35546e-06
1.36147e-06
1.36739e-06
1.37321e-06
1.37893e-06
1.38456e-06
1.39009e-06
1.39551e-06
1.40084e-06
1.40605e-06
1.41117e-06
1.41611e-06
1.42114e-06
1.42552e-06
1.45598e-07
1.45764e-07
1.4611e-07
1.4663e-07
1.47322e-07
1.48186e-07
1.49225e-07
1.5044e-07
1.51833e-07
1.53406e-07
1.5516e-07
1.57097e-07
1.59219e-07
1.61527e-07
1.64022e-07
1.66705e-07
1.69577e-07
1.72639e-07
1.75893e-07
1.79337e-07
1.82973e-07
1.86801e-07
1.9082e-07
1.95031e-07
1.99432e-07
2.04023e-07
2.08803e-07
2.13771e-07
2.18924e-07
2.24262e-07
2.29781e-07
2.35481e-07
2.41357e-07
2.47407e-07
2.53628e-07
2.60016e-07
2.66568e-07
2.73279e-07
2.80146e-07
2.87163e-07
2.94327e-07
3.01631e-07
3.09072e-07
3.16643e-07
3.24339e-07
3.32155e-07
3.40084e-07
3.48121e-07
3.5626e-07
3.64495e-07
3.7282e-07
3.81229e-07
3.89715e-07
3.98274e-07
4.06898e-07
4.15583e-07
4.24322e-07
4.33111e-07
4.41943e-07
4.50814e-07
4.59719e-07
4.68652e-07
4.7761e-07
4.86589e-07
4.95583e-07
5.0459e-07
5.13606e-07
5.22628e-07
5.31652e-07
5.40676e-07
5.49697e-07
5.58714e-07
5.67723e-07
5.76724e-07
5.85714e-07
5.94693e-07
6.03658e-07
6.1261e-07
6.21547e-07
6.30469e-07
6.39376e-07
6.48266e-07
6.57141e-07
6.66e-07
6.74843e-07
6.83671e-07
6.92485e-07
7.01286e-07
7.10074e-07
7.18851e-07
7.27618e-07
7.36378e-07
7.45131e-07
7.5388e-07
7.62626e-07
7.71373e-07
7.80121e-07
7.88873e-07
7.97632e-07
8.06399e-07
8.15176e-07
8.23963e-07
8.32762e-07
8.41574e-07
8.504e-07
8.59238e-07
8.68091e-07
8.76958e-07
8.85838e-07
8.94731e-07
9.03637e-07
9.12555e-07
9.21484e-07
9.30424e-07
9.39373e-07
9.48329e-07
9.57292e-07
9.6626e-07
9.75231e-07
9.84203e-07
9.93175e-07
1.00214e-06
1.01111e-06
1.02007e-06
1.02901e-06
1.03795e-06
1.04687e-06
1.05578e-06
1.06466e-06
1.07352e-06
1.08236e-06
1.09117e-06
1.09995e-06
1.10869e-06
1.1174e-06
1.12606e-06
1.13468e-06
1.14326e-06
1.15178e-06
1.16026e-06
1.16867e-06
1.17703e-06
1.18533e-06
1.19356e-06
1.20173e-06
1.20983e-06
1.21785e-06
1.2258e-06
1.23367e-06
1.24146e-06
1.24917e-06
1.25679e-06
1.26433e-06
1.27178e-06
1.27914e-06
1.28641e-06
1.29358e-06
1.30066e-06
1.30764e-06
1.31453e-06
1.32132e-06
1.32801e-06
1.33461e-06
1.3411e-06
1.3475e-06
1.35379e-06
1.35999e-06
1.36608e-06
1.37208e-06
1.37797e-06
1.38377e-06
1.38946e-06
1.39505e-06
1.40053e-06
1.40591e-06
1.41117e-06
1.41633e-06
1.42131e-06
1.42637e-06
1.43078e-06
1.41293e-07
1.41462e-07
1.41805e-07
1.42316e-07
1.42994e-07
1.43839e-07
1.44852e-07
1.46036e-07
1.47392e-07
1.48922e-07
1.50628e-07
1.5251e-07
1.5457e-07
1.56809e-07
1.59229e-07
1.61831e-07
1.64615e-07
1.67582e-07
1.70734e-07
1.74071e-07
1.77592e-07
1.81299e-07
1.85192e-07
1.8927e-07
1.93533e-07
1.9798e-07
2.02611e-07
2.07425e-07
2.1242e-07
2.17594e-07
2.22947e-07
2.28476e-07
2.34179e-07
2.40052e-07
2.46094e-07
2.52302e-07
2.58671e-07
2.65199e-07
2.71881e-07
2.78713e-07
2.85692e-07
2.92812e-07
3.00068e-07
3.07457e-07
3.14972e-07
3.22609e-07
3.30362e-07
3.38225e-07
3.46194e-07
3.54262e-07
3.62424e-07
3.70674e-07
3.79007e-07
3.87416e-07
3.95897e-07
4.04443e-07
4.1305e-07
4.21712e-07
4.30425e-07
4.39182e-07
4.4798e-07
4.56814e-07
4.6568e-07
4.74573e-07
4.8349e-07
4.92427e-07
5.01381e-07
5.10348e-07
5.19326e-07
5.28311e-07
5.37301e-07
5.46295e-07
5.5529e-07
5.64284e-07
5.73275e-07
5.82263e-07
5.91246e-07
6.00222e-07
6.09192e-07
6.18154e-07
6.27108e-07
6.36054e-07
6.44991e-07
6.5392e-07
6.6284e-07
6.71752e-07
6.80657e-07
6.89555e-07
6.98447e-07
7.07336e-07
7.16221e-07
7.25105e-07
7.33989e-07
7.42875e-07
7.51766e-07
7.60663e-07
7.69568e-07
7.78485e-07
7.87416e-07
7.96361e-07
8.05322e-07
8.143e-07
8.23296e-07
8.32312e-07
8.41347e-07
8.50401e-07
8.59475e-07
8.68569e-07
8.77681e-07
8.86812e-07
8.95961e-07
9.05126e-07
9.14307e-07
9.23503e-07
9.32712e-07
9.41933e-07
9.51163e-07
9.60402e-07
9.69648e-07
9.78897e-07
9.88148e-07
9.97399e-07
1.00665e-06
1.01589e-06
1.02513e-06
1.03435e-06
1.04356e-06
1.05275e-06
1.06192e-06
1.07107e-06
1.0802e-06
1.08929e-06
1.09835e-06
1.10738e-06
1.11636e-06
1.12531e-06
1.1342e-06
1.14305e-06
1.15184e-06
1.16058e-06
1.16926e-06
1.17787e-06
1.18642e-06
1.19489e-06
1.2033e-06
1.21163e-06
1.21988e-06
1.22805e-06
1.23614e-06
1.24414e-06
1.25205e-06
1.25987e-06
1.2676e-06
1.27523e-06
1.28277e-06
1.2902e-06
1.29754e-06
1.30477e-06
1.31191e-06
1.31893e-06
1.32586e-06
1.33268e-06
1.33939e-06
1.346e-06
1.3525e-06
1.3589e-06
1.36519e-06
1.37137e-06
1.37745e-06
1.38342e-06
1.38929e-06
1.39505e-06
1.4007e-06
1.40624e-06
1.41167e-06
1.41697e-06
1.42218e-06
1.4272e-06
1.4323e-06
1.43673e-06
1.36442e-07
1.36615e-07
1.36955e-07
1.37457e-07
1.38119e-07
1.38943e-07
1.3993e-07
1.41081e-07
1.42398e-07
1.43882e-07
1.45536e-07
1.47359e-07
1.49353e-07
1.5152e-07
1.53861e-07
1.56376e-07
1.59067e-07
1.61935e-07
1.6498e-07
1.68203e-07
1.71604e-07
1.75185e-07
1.78944e-07
1.82883e-07
1.87001e-07
1.91297e-07
1.95772e-07
2.00424e-07
2.05253e-07
2.10257e-07
2.15436e-07
2.20786e-07
2.26307e-07
2.31996e-07
2.37851e-07
2.4387e-07
2.50048e-07
2.56383e-07
2.62872e-07
2.69511e-07
2.76296e-07
2.83223e-07
2.90288e-07
2.97486e-07
3.04812e-07
3.12262e-07
3.19831e-07
3.27513e-07
3.35304e-07
3.43198e-07
3.51191e-07
3.59276e-07
3.67448e-07
3.75703e-07
3.84035e-07
3.92438e-07
4.00909e-07
4.09441e-07
4.18031e-07
4.26673e-07
4.35363e-07
4.44096e-07
4.52869e-07
4.61678e-07
4.70518e-07
4.79387e-07
4.88282e-07
4.97198e-07
5.06133e-07
5.15085e-07
5.24051e-07
5.33028e-07
5.42016e-07
5.51012e-07
5.60014e-07
5.69021e-07
5.78032e-07
5.87045e-07
5.9606e-07
6.05075e-07
6.14091e-07
6.23107e-07
6.32122e-07
6.41137e-07
6.50151e-07
6.59165e-07
6.68179e-07
6.77194e-07
6.86211e-07
6.9523e-07
7.04254e-07
7.13283e-07
7.2232e-07
7.31366e-07
7.40424e-07
7.49495e-07
7.58582e-07
7.67688e-07
7.76814e-07
7.85962e-07
7.95132e-07
8.04326e-07
8.13545e-07
8.22789e-07
8.32059e-07
8.41354e-07
8.50674e-07
8.6002e-07
8.69389e-07
8.78783e-07
8.88199e-07
8.97636e-07