/*--------------------------------*- C++ -*----------------------------------*\
| =========                 |                                                 |
| \\      /  F ield         | OpenFOAM: The Open Source CFD Toolbox           |
|  \\    /   O peration     | Version:  2.3.0                                 |
|   \\  /    A nd           | Web:      www.OpenFOAM.org                      |
|    \\/     M anipulation  |                                                 |
\*---------------------------------------------------------------------------*/
FoamFile
{
    version     2.0;
    format      ascii;
    class       volScalarField;
    location    "1.2e-05";
    object      alpha.fuel;
}
// * * * * * * * * * * * * * * * * * * * * * * * * * * * * * * * * * * * * * //

dimensions      [0 0 0 0 0 0 0];

internalField   nonuniform List<scalar> 
7500
(
1
1
1
1
1
1
1
1
1
1
1
1
1
1
1
1
1
1
1
1
1
1
1
1
1
1
1
1
1
1
1
1
1
1
1
1
1
1
1
1
1
1
1
1
1
1
1
1
1
1
1
1
1
1
1
1
1
1
1
1
1
1
1
1
1
1
1
1
1
1
1
1
1
1
1
1
1
1
1
1
1
1
1
1
1
1
1
1
1
1
1
1
1
1
1
1
1
1
1
1
1
1
1
1
1
1
1
1
1
1
1
1
1
1
1
1
1
1
1
1
1
1
1
1
1
1
1
1
1
1
1
1
1
1
1
1
1
1
1
1
1
1
1
1
1
1
1
1
1
1
1
1
1
1
1
1
1
1
1
1
1
1
1
1
1
1
1
1
1
1
1
1
1
1
1
1
1
1
1
1
1
1
1
1
1
1
1
1
1
1
1
1
1
1
1
1
1
1
1
1
1
1
1
1
1
1
1
1
1
1
1
1
1
1
1
1
1
1
1
1
1
1
1
1
1
1
1
1
1
1
1
1
1
1
1
1
1
1
1
1
1
1
1
1
1
1
1
1
1
1
1
1
1
1
1
1
1
1
1
1
1
1
1
1
1
1
1
1
1
1
1
1
1
1
1
1
1
1
1
1
1
1
1
1
1
1
1
1
1
1
1
1
1
1
1
1
1
1
1
1
1
1
1
1
1
1
1
1
1
1
1
1
1
1
1
1
1
1
1
1
1
1
1
1
1
1
1
1
1
1
1
1
1
1
1
1
1
1
1
1
1
1
1
1
1
1
1
1
1
1
1
1
1
1
1
1
1
1
1
1
1
1
1
1
1
1
1
1
1
1
1
1
1
1
1
1
1
1
1
1
1
1
1
1
1
1
1
1
1
1
1
1
1
1
1
1
1
1
1
1
1
1
1
1
1
1
1
1
1
1
1
1
1
1
1
1
1
1
1
1
1
1
1
1
1
1
1
1
1
1
1
1
1
1
1
1
1
1
1
1
1
1
1
1
1
1
1
1
1
1
1
1
1
1
1
1
1
1
1
1
1
1
1
1
1
1
1
1
1
1
1
1
1
1
1
1
1
1
1
1
1
1
1
1
1
1
1
1
1
1
1
1
1
1
1
1
1
1
1
1
1
1
1
1
1
1
1
1
1
1
1
1
1
1
1
1
1
1
1
1
1
1
1
1
1
1
1
1
1
1
1
1
1
1
1
1
1
1
1
1
1
1
1
1
1
1
1
1
1
1
1
1
1
1
1
1
1
1
1
1
1
1
1
1
1
1
1
1
1
1
1
1
1
1
1
1
1
1
1
1
1
1
1
1
1
1
1
1
1
1
1
1
1
1
1
1
1
1
1
1
1
1
1
1
1
1
1
1
1
1
1
1
1
1
1
1
1
1
1
1
1
1
1
1
1
1
1
1
1
1
1
1
1
1
1
1
1
1
1
1
1
1
1
1
1
1
1
1
1
1
1
1
1
1
1
1
1
1
1
1
1
1
1
1
1
1
1
1
1
1
1
1
1
1
1
1
1
1
1
1
1
1
1
1
1
1
1
1
1
1
1
1
1
1
1
1
1
1
1
1
1
1
1
1
1
1
1
1
1
1
1
1
1
1
1
1
1
1
1
1
1
1
1
1
1
1
1
1
1
1
1
1
1
1
1
1
1
1
1
1
1
1
1
1
1
0.99811638
0.99119754
0.97584493
0.95781503
0.92895217
1
1
1
1
1
1
1
1
1
1
1
1
1
1
1
1
1
1
1
1
1
1
1
1
1
1
1
1
1
1
1
1
1
1
1
1
1
1
1
1
1
1
1
1
1
1
1
1
1
1
1
1
0.99892552
0.99004518
0.97482539
0.95728136
0.93758114
0.91944916
0.90454757
0.86763267
0.80438327
0.72997015
0.63260055
0.49591849
0.38607768
0.3864587
0.38934435
0.39667736
0.40481633
0.39367609
0.34579611
0.25460637
0.15370508
0.10054499
0.054019067
1
1
1
1
1
1
1
1
1
1
1
1
1
1
1
1
1
1
1
1
1
1
1
1
1
1
1
1
1
1
1
1
1
1
1
1
1
1
1
1
1
1
0.98961208
0.96784
0.93671879
0.89712981
0.82768412
0.76006599
0.68389942
0.61595724
0.53907173
0.4548412
0.35114453
0.23814294
0.15251395
0.10285039
0.067726208
0.047198504
0.014661715
6.3184045e-10
3.640422e-10
3.6404219e-10
3.6404219e-10
3.6404219e-10
3.6404218e-10
3.6404221e-10
3.6404231e-10
3.6404238e-10
3.6404246e-10
3.6404252e-10
3.6404254e-10
3.6404256e-10
3.6404259e-10
3.6404263e-10
3.6404269e-10
1
1
1
1
1
1
1
1
1
1
1
1
1
1
1
1
1
1
1
1
1
1
1
1
1
1
1
1
1
1
1
1
1
1
0.9894772
0.96111354
0.91773801
0.81946826
0.71033287
0.59627032
0.46984418
0.36188319
0.23631542
0.13458691
0.066504722
1.6510912e-09
9.2456659e-10
9.2456657e-10
9.2456658e-10
9.2456658e-10
9.2456659e-10
9.245666e-10
9.2456661e-10
9.2457133e-10
9.2456613e-10
9.2456613e-10
9.2456613e-10
9.2456614e-10
9.2462752e-10
9.5973925e-10
1.0637993e-09
1.2336847e-09
4.1413401e-09
7.1410956e-10
5.8187261e-10
1.37951e-08
3.2640099e-08
3.2820584e-08
2.8053873e-08
2.0710709e-08
1.4372845e-08
1.0073319e-08
7.5265431e-09
6.3000726e-09
5.9226014e-09
1
1
1
1
1
1
1
1
1
1
1
1
1
1
1
1
1
1
1
1
1
1
1
1
1
1
1
1
0.98165891
0.92814905
0.81318797
0.67010133
0.52610915
0.37211269
0.23800807
0.12591068
0.0082423363
3.2386526e-09
3.1256921e-09
3.125692e-09
3.125692e-09
3.125692e-09
3.125692e-09
3.125692e-09
3.1256921e-09
3.2492376e-09
4.6011247e-09
5.4066184e-09
7.0713484e-09
7.8012193e-09
8.7534639e-09
9.4935498e-09
8.7016843e-09
2.1493303e-06
1.6233414e-09
1.3566002e-09
1.3159063e-09
1.2924126e-09
1.8788037e-06
1.5786812e-09
1.4982925e-09
1.237102e-09
5.8230956e-07
7.7582466e-07
6.4506884e-10
2.3283314e-06
1.0424056e-06
4.7968023e-09
6.5395812e-09
6.8968753e-09
7.2562425e-09
7.340364e-09
1.2297927e-08
1.0704794e-08
8.6044213e-09
1
1
1
1
1
1
1
1
1
1
1
1
1
1
1
1
1
1
1
1
1
1
1
0.97698025
0.90704149
0.73538905
0.55799679
0.35242482
0.19627846
0.023712052
3.8864009e-09
3.6297809e-09
3.6297809e-09
3.6297809e-09
3.6297809e-09
3.629781e-09
3.6297814e-09
1.4437604e-08
1.6242543e-08
1.1828191e-08
8.0117126e-09
6.2317243e-09
5.628902e-09
5.8954683e-09
6.798151e-09
8.9694165e-09
1.2720438e-08
1.5599813e-08
1.8087496e-08
1.9577373e-08
1.8690963e-08
1.5150284e-08
2.2060373e-09
8.6691791e-05
0.00041607707
0.0021956531
0.0012206996
2.8290481e-05
0.00023740507
0.0032514322
0.0079844703
0.0011602224
5.9073885e-07
4.6978547e-05
2.7088991e-05
4.5011164e-09
4.1004811e-09
4.3872764e-09
4.8372365e-09
0.00012227808
4.0935852e-05
7.7570885e-06
1.2646145e-08
1.9597537e-08
7.9777847e-09
1
1
1
1
1
1
1
1
1
1
1
1
1
1
1
1
1
1
1
0.96515483
0.84656812
0.64019594
0.41403349
0.19957467
5.0276904e-09
3.7402364e-09
3.7402364e-09
3.7402364e-09
3.7402368e-09
3.7402372e-09
3.9242453e-09
4.1594745e-09
4.6955136e-09
5.8880824e-09
6.6110305e-09
1.3172387e-08
1.1465935e-08
8.7640322e-08
6.3090018e-08
7.2175017e-09
6.7138173e-09
6.7103551e-09
6.0334568e-09
6.063079e-09
7.2535963e-09
8.1655381e-09
1.2820092e-08
1.2463106e-08
1.8528824e-08
2.5687456e-08
2.3972252e-08
1.8392122e-08
2.6911936e-09
2.699728e-09
0.0034548158
0.0067997393
0.0065575003
0.00056505722
0.00010116069
0.013427544
0.016877181
0.015808716
0.0041043493
1.1908787e-08
2.5355354e-07
4.3551512e-08
4.1006313e-09
9.1402771e-05
0.0053960827
0.0063860471
0.0013856411
2.2730342e-09
1.227685e-08
1.2480532e-09
1.8933212e-05
1
1
1
1
1
1
1
1
1
1
1
1
1
1
1
1
0.92192377
0.72272915
0.45595773
0.16016736
4.9527736e-09
3.9406912e-09
3.9406911e-09
3.9406911e-09
4.6209e-09
6.055595e-09
5.2089063e-09
4.6637737e-09
8.4650389e-08
2.1336623e-08
4.5168963e-09
5.6750599e-09
6.6276603e-09
1.091092e-08
2.8314215e-08
2.0596711e-08
1.1650775e-08
1.53179e-06
2.0215279e-05
1.0465614e-05
7.1640006e-09
6.766316e-09
6.2201485e-09
6.0781721e-09
6.4476482e-09
3.0326683e-07
1.4510072e-07
5.8126033e-09
3.7631662e-08
5.1785044e-08
2.1230681e-09
2.1193818e-09
9.3902668e-05
3.2981957e-05
4.4478557e-09
8.0575555e-05
0.0033718231
0.0029302634
0.00040998217
3.6314734e-08
0.0078402714
0.016411768
0.014806498
0.00015875404
4.4055633e-09
4.615244e-09
4.2431845e-09
0.0037158515
0.0071396562
0.006833525
0.00025238256
2.0056752e-09
1.0880612e-08
1.2451043e-09
7.4616999e-05
1
1
1
1
1
1
1
1
1
1
1
1
1
0.9305341
0.72024486
0.41146896
0.049173589
4.7907847e-09
4.3710315e-09
4.3710314e-09
5.9070979e-09
6.1885657e-09
4.7752211e-09
5.001793e-09
1.1182437e-06
4.4821159e-08
4.9772086e-09
6.2573514e-05
1.9151504e-05
5.211117e-09
1.9687423e-07
6.2411657e-09
6.9253991e-09
7.4846105e-09
6.6855245e-09
7.2032703e-09
7.0940488e-07
1.6540128e-05
7.6571877e-06
0.00032546234
0.00038359975
5.8560089e-09
5.780451e-09
6.2838295e-09
6.7070816e-09
1.7787371e-06
4.7592381e-08
5.7103527e-09
4.0056319e-09
3.7508933e-09
7.3789194e-05
0.00020600594
0.00019041697
5.7495327e-09
5.1737924e-09
3.9260361e-09
0.00012939912
0.0015975312
0.0017662346
0.00010697468
1.2653347e-09
0.0039352441
0.0097281902
0.0036436376
0.0057113609
0.0065237813
0.0014849433
7.8710096e-10
6.0520656e-10
0.0017928393
0.0006656848
1.757108e-09
1.6819019e-09
1.4584049e-09
1.456263e-09
1
1
1
1
1
1
1
1
1
1
1
0.8704181
0.54997126
0.10515956
4.2395637e-09
3.5104796e-09
3.5104795e-09
3.3758851e-08
3.632422e-08
4.4181276e-09
2.2499171e-06
6.3140425e-09
0.0015008119
0.0036718206
0.002109538
2.4952738e-06
1.7148574e-05
9.6758568e-05
3.7189391e-08
4.9639433e-06
2.8660405e-05
3.4339062e-05
0.00066916568
0.0007972307
0.00029168409
4.3842037e-05
6.7805194e-09
0.00022291639
7.7294436e-06
4.2005565e-09
0.0035142203
0.008143933
0.0058839328
0.0044523356
0.00028004038
5.995427e-09
5.5382556e-09
5.0248371e-09
4.490737e-09
4.1286811e-09
7.5158009e-05
0.00030785525
9.4720259e-05
6.3084502e-09
3.7123532e-07
4.3754016e-09
6.5592158e-09
6.6672186e-09
3.9824311e-05
1.2782356e-05
7.4449602e-08
1.0478613e-09
7.6520872e-10
0.010162795
0.010200016
0.010137491
0.0022496871
9.0337315e-10
6.3664921e-10
5.6162109e-10
0.022785111
0.0078097432
0.0054829592
0.0018853073
1.8080467e-09
1
1
1
1
1
1
1
1
1
0.84938734
0.45331989
0.0031630177
3.8010186e-09
3.7680449e-09
3.9316851e-09
5.0857636e-08
4.5556239e-09
2.3800777e-07
1.2716437e-07
2.9946204e-08
5.8918299e-09
6.2784965e-09
0.0053233336
0.0053101784
0.0012411136
2.7561186e-08
1.0242759e-06
1.0670484e-06
0.00016377898
6.787415e-09
6.7874238e-09
0.00076853787
0.0013677359
0.0010684452
3.3868233e-08
0.0051922009
0.0051658739
5.6341614e-09
5.1288686e-09
4.4477754e-09
4.0201006e-09
0.0038500114
0.0094221693
0.0094221693
0.0016751137
0.00038782742
0.0011724137
0.0012814999
0.0011362039
0.00023612344
1.164564e-08
8.8851548e-05
1.8252855e-05
9.9435602e-07
8.0805025e-09
1.3802415e-05
6.8768532e-09
0.00059852339
0.0006232643
1.257139e-05
1.0294804e-09
7.6772311e-10
7.6520875e-10
0.0013791357
0.00017443622
6.6834265e-10
6.5390904e-10
8.6431571e-10
1.4147502e-09
6.945872e-10
5.6156461e-10
0.049620782
0.057990476
0.056862165
0.0048802272
1
1
1
1
1
1
1
0.89535294
0.50621071
0.0066687929
1.7725076e-08
1.7755199e-08
6.6172361e-06
2.110001e-05
5.5068441e-09
2.6705774e-05
1.8475554e-05
3.558847e-07
9.2312154e-09
8.0945285e-09
7.261111e-09
0.0018418869
1.9755617e-08
1.9441244e-08
0.0027030077
0.00040617551
1.2116177e-05
0.00012261953
5.7227252e-05
6.7886952e-09
7.8296745e-09
6.8268474e-09
1.1077176e-05
0.00029976678
8.1178447e-05
0.00029911921
0.0035453636
0.026521769
0.080778024
0.0044945615
4.6512831e-09
4.6679815e-09
0.0038752592
0.00013985041
0.00055093424
0.0016836547
0.0016808221
0.0016761548
0.0016759555
0.00054562222
1.1481388e-08
1.1445387e-08
0.00018933994
3.0582291e-08
0.021574392
0.062257999
0.021522372
0.0088020625
5.3867103e-08
8.5047421e-06
0.00027977778
3.8154544e-06
7.7237535e-10
1.0035082e-09
1.2211296e-09
0.00021052074
1.0441432e-09
2.7428562e-06
9.0806308e-10
8.7323217e-10
6.0622527e-10
0.017760636
0.025875087
0.001611779
0.027007415
1
1
1
1
1
1
0.73308386
0.10734925
1.5769952e-08
1.4976755e-08
1.7651733e-08
6.1680627e-05
0.00021428286
0.00021442837
0.00021484898
1.6242351e-05
0.00054272927
3.3714752e-08
0.0013505075
0.0011222326
0.0051016971
2.0303985e-08
1.9801418e-08
5.9677737e-07
0.00457677
0.0034573922
5.7919219e-08
0.00030771086
8.3138862e-09
7.7902636e-09
8.3763964e-09
7.7798009e-09
3.8694899e-05
0.00030864535
3.7414901e-05
2.6399327e-09
2.5115767e-09
0.09519543
0.10682563
0.05546023
0.0023416499
2.6099784e-05
3.1822743e-05
5.2371635e-05
2.1470779e-09
2.1020323e-09
2.1045623e-09
2.1053022e-09
2.1053305e-09
2.1053582e-09
2.1131889e-05
1.6268379e-06
2.7837391e-09
0.0017610592
0.063872477
0.063872477
0.063872476
0.0082514399
5.9062124e-09
0.0019225257
0.0045563538
0.0041587382
0.00040541653
1.1345909e-09
0.00088313193
0.0057972695
0.0053758414
0.00046686972
0.00018724414
0.003447391
0.002079894
1.3595293e-09
1.1386128e-09
9.9775516e-05
4.3376078e-05
1
1
1
1
0.97019107
0.47082916
1.4025136e-08
1.1803714e-08
2.0271008e-05
1.7101652e-08
0.00029814758
0.0003704292
3.2004069e-05
3.219849e-09
0.00030280973
4.8187845e-06
1.1948134e-06
0.0046727346
0.0053882712
0.0054014829
0.0054137356
0.00093923528
2.0346111e-08
0.00063908048
0.003785278
0.0038419739
0.0037581932
0.00048903154
5.3170431e-05
0.0015806482
0.00020246205
7.7300838e-05
5.5080694e-05
7.2759202e-06
4.7643929e-08
1.0209065e-06
2.3011556e-09
2.2543649e-09
0.046344852
0.09458129
0.0077517576
5.146632e-09
4.7795385e-09
4.4388246e-09
8.1538313e-09
2.9723374e-09
4.7682325e-06
8.3242267e-07
2.4233439e-09
2.4145276e-09
6.6651132e-06
2.9868351e-06
2.8368618e-09
0.0088254325
0.0072643907
0.035428147
0.060056855
0.015696753
5.8451407e-09
0.00015557257
0.0037578226
0.0047912166
0.00119435
0.0010342706
0.0057036578
0.0057972693
0.0057972691
0.0024294633
0.0066206763
0.00657486
0.0065215451
0.00011276984
9.4986981e-10
0.00092567927
0.00011852076
1
1
1
0.95608852
0.26741282
1.7627789e-08
1.601608e-08
0.00025296284
0.00025237309
0.00015230938
3.3905358e-09
2.9415963e-09
2.9447587e-09
3.5931591e-08
1.832201e-08
0.0056612893
0.0072325812
1.4063651e-07
1.3919785e-07
1.391825e-07
0.00050042848
0.0030219337
3.8079174e-08
0.0019409214
3.1710415e-08
0.00344434
0.0038364656
0.00022120644
2.2821942e-06
0.0016414353
0.00064560399
7.2670468e-09
6.6599598e-09
6.6781156e-09
0.0027412046
0.0015636184
2.2925658e-05
2.2554195e-09
1.8479519e-09
1.8479519e-09
1.8479598e-09
5.1072786e-05
4.7800092e-09
2.0087755e-08
1.9417435e-08
2.1504278e-09
2.9503666e-05
1.5127503e-08
0.00071716533
0.0005555273
4.8750819e-06
2.6364337e-09
0.0015618031
2.8116169e-09
2.6644141e-09
2.6765276e-09
2.6777212e-09
0.006893176
0.0012102309
6.7354693e-10
4.3520674e-10
4.3520668e-10
0.0052202961
0.0057972685
0.0057972685
0.005036154
0.0035214968
0.0024565251
0.00024363615
5.3240513e-06
5.3240372e-06
3.8059531e-05
1.0284309e-09
1.2650541e-09
3.9025224e-05
1
1
0.98793169
0.24904276
2.268493e-08
2.1193305e-08
0.0011352045
0.0012897366
4.5132934e-06
7.0875254e-09
8.0678739e-09
4.1775065e-08
2.388083e-08
2.4895796e-08
6.0129755e-05
0.013502359
0.013501315
1.3996154e-07
0.00017476705
4.1497824e-05
0.0013109383
1.9638855e-08
0.0030856956
1.2393062e-08
1.1146879e-05
2.5574046e-08
0.00032664796
9.0076358e-09
9.4334653e-09
0.00048414825
5.970295e-09
9.7027092e-06
6.6655293e-09
6.7293584e-09
0.0034788014
0.0014459864
3.0002466e-09
2.5967366e-09
2.0019183e-09
2.219253e-09
1.4560756e-08
4.3405559e-07
8.7343055e-07
1.9431892e-08
1.9288729e-08
9.3077324e-08
1.7912033e-09
0.00022487143
0.007119196
0.0071191958
0.00014000591
0.0077301412
0.0082776616
0.00098409314
2.9766619e-09
0.00097661513
0.0001232371
0.00073396324
0.00072661008
4.2821377e-05
6.4875046e-10
4.3763141e-10
0.00046267366
0.0050941315
0.0025573402
1.0286423e-09
8.95246e-10
0.0001654812
8.2401805e-05
0.00015256575
1.300427e-05
5.1148416e-07
0.00040418381
0.002720917
0.0015238539
1
1
0.31676188
2.319979e-08
2.0689088e-08
0.0044114323
0.0043991117
0.00020959479
9.0561915e-08
5.8290652e-05
2.229963e-06
2.9461209e-08
4.7193537e-08
2.5938847e-08
0.00016598907
0.010128799
0.0097645713
0.0037167963
0.0019722388
0.00099977371
0.0029438909
1.9770867e-08
0.006700571
4.102742e-05
0.00021418705
7.0408073e-06
8.737029e-09
8.1372754e-09
0.00016358493
6.1890244e-09
5.8989533e-09
0.0021548079
0.0025822113
0.00026868737
3.8385255e-08
0.0035013057
0.0011638508
3.0126952e-09
2.4503794e-09
9.4616006e-05
7.508293e-06
6.4266839e-05
9.9023059e-06
0.014054993
0.00092876302
2.2319475e-09
1.7910569e-09
0.00070487628
0.0038976642
0.0066906217
0.006659903
0.0026931784
1.8000257e-05
0.0022899101
0.0047964861
0.012435782
0.0020468219
1.2167883e-09
1.0026483e-09
3.3323409e-07
8.9787728e-07
7.7809528e-07
1.3263981e-09
1.1320547e-09
8.1516174e-10
1.0003148e-09
1.1091087e-09
1.3778585e-09
1.3902059e-09
0.00071102514
0.00076168694
3.955785e-05
0.0044338008
0.0078175453
0.0020694295
1
0.64300558
0.024261237
0.00026368399
7.8142788e-07
0.0048344921
8.5022572e-09
1.0282382e-08
2.131993e-05
0.00015954982
2.2327487e-06
2.9100384e-08
2.8400138e-08
1.9726447e-06
6.4878058e-05
0.00034296145
1.4007262e-07
0.00063696159
1.1311682e-08
0.00039724841
0.002943892
1.9717616e-08
0.0066985757
0.0047633441
2.6566951e-05
8.9026083e-05
1.2550029e-05
0.0012471432
0.0016620292
6.2945768e-05
5.8992385e-09
5.426298e-09
0.0029121646
2.8420363e-05
3.8370144e-08
0.0070270986
5.9316859e-05
0.068403735
0.032919183
0.0013019073
2.8378872e-09
3.9894099e-05
1.5389048e-09
0.016781633
0.0027406686
2.3855842e-09
1.9222424e-09
1.3873187e-09
1.3874016e-09
1.4077346e-09
0.00077792059
1.5363719e-09
1.68807e-09
0.0055659507
0.037081223
0.013441359
1.8445233e-09
1.5121045e-09
1.2185252e-09
1.4248736e-09
1.3963638e-09
1.7328156e-05
1.1292571e-09
1.0325541e-09
8.859441e-06
3.4154974e-06
2.9243428e-05
4.3258156e-05
7.4396596e-06
2.1421409e-10
0.0018259939
0.022136545
0.019379156
7.0144904e-06
7.0517351e-09
0.97122523
0.08084265
1.0278173e-08
6.9976734e-09
0.0018378648
0.0042795213
7.6492338e-09
1.1995135e-06
6.8425558e-05
7.1940963e-05
3.0591318e-05
7.7978329e-08
2.9714079e-08
1.659453e-06
0.0057681831
0.0059087422
8.7837893e-06
1.2222698e-08
1.1310566e-08
1.1206035e-08
0.00044879354
5.7758574e-06
0.0067007472
3.0924716e-08
3.0924716e-08
3.1047342e-08
3.1067038e-08
3.1996491e-08
3.2310232e-08
3.3267451e-08
1.5125791e-05
5.9255449e-09
0.00054032193
3.6833952e-08
2.1356702e-06
2.1367316e-06
0.026986024
0.10520543
0.08497456
0.0010655617
2.4493059e-09
2.0326293e-09
1.527554e-09
1.5052234e-09
0.016728333
0.001558653
2.0623957e-09
1.692321e-09
3.5478807e-07
0.00018544242
1.5642546e-09
1.1852021e-09
0.0031209404
1.3046812e-09
0.012871309
0.0005970947
0.0055623601
0.00544682
0.001030689
1.7793641e-09
3.2110168e-08
7.451075e-10
0.00050159685
0.00095521382
0.0004723543
3.7760362e-05
9.4097578e-05
8.6245243e-06
1.4293715e-07
3.658631e-10
2.8791274e-10
0.025982164
0.0079520321
8.3178184e-07
0.00034320037
0.323515
5.4465904e-08
5.2738711e-08
6.999973e-09
0.0023195881
0.00046432627
0.0020566905
9.4499173e-09
9.4464763e-09
9.5523885e-09
0.00016381299
4.6734188e-08
1.0443944e-07
4.042067e-06
3.0472375e-09
0.0031736543
3.9999222e-07
1.9844101e-05
1.2351813e-08
1.1266146e-08
1.1206115e-08
0.0017425406
0.0050894146
3.1858565e-08
3.0924741e-08
0.0016795666
0.0013636539
0.00043869261
0.00098428603
0.0017484948
0.00083988295
6.5012578e-09
6.6093604e-09
0.0030549209
0.0035692726
0.0014565735
0.012141293
0.0030507758
0.0029704304
0.0042964086
0.0022131099
1.9835824e-09
1.5052325e-09
1.5061182e-09
0.019581921
0.0032977532
0.020269567
0.00044726688
1.6113716e-09
0.0013608416
7.232485e-05
1.1858792e-09
1.1892483e-09
1.0682989e-09
1.0344559e-09
0.0021351699
0.0085325118
0.0085325117
0.0065926247
2.0972474e-09
4.3858317e-07
7.7508689e-10
5.0247554e-05
0.00028281265
7.0933574e-05
1.9331694e-06
4.1063254e-10
5.6449959e-10
4.5133216e-10
1.1381759e-05
3.0929265e-10
0.0051645364
0.00010774049
4.6437965e-09
0.0012165526
0.10248917
6.4189045e-08
2.0628654e-07
9.2633263e-09
9.3790515e-09
0.00018135022
0.00049786141
4.4718195e-05
9.56638e-09
5.5275589e-07
0.00012468969
0.00016974991
2.2869094e-06
6.6883241e-06
3.0330948e-09
3.0328134e-09
0.0020608724
1.9954135e-05
0.00071906811
1.167949e-08
1.2149243e-08
1.2227434e-08
1.322882e-08
0.0015906958
3.1863336e-08
0.0004577426
7.5542433e-06
0.0016557003
0.0018421059
0.0018088431
2.1494641e-09
2.0618369e-05
0.0036138428
0.0049727082
4.3526525e-07
1.8697545e-09
2.3296911e-09
2.3446252e-09
0.0029551286
0.004150872
0.0043072417
0.00054320487
0.00015784484
1.8909133e-06
0.0023088977
0.011250576
0.035969071
0.0069637198
1.4461942e-09
1.0631735e-09
1.0683529e-09
0.010140801
0.0013576242
1.1128897e-09
7.9143062e-10
0.0066159229
0.0010388822
0.001015797
1.0374874e-09
6.4164818e-05
7.2364784e-07
7.8812655e-10
6.1967957e-10
6.2670125e-10
6.4070378e-05
4.1662163e-05
5.803273e-10
0.0027990592
0.00080228425
0.00045313897
3.5469602e-10
1.6764906e-10
3.0154606e-05
0.00031037003
5.3901555e-06
1.8213789e-09
2.4816984e-07
1.8532483e-07
2.0802101e-05
5.0711898e-08
1.5839593e-08
1.5340146e-08
1.0850669e-05
2.7101174e-07
3.4590599e-08
8.4360463e-09
0.00013989236
3.1530761e-09
3.0263338e-09
3.07143e-09
3.0261661e-09
0.0065050523
0.0065058262
0.006436413
0.0019430749
0.0029948327
9.7713123e-05
1.3394339e-08
0.0050390954
0.0052596226
3.993414e-09
3.8466041e-09
4.1597456e-09
0.0008252906
2.1615205e-09
2.0719194e-09
0.0015813574
0.0066367209
2.1017436e-09
2.0523162e-09
2.5336483e-09
1.8890116e-09
6.5550177e-05
9.7996526e-10
9.5605942e-10
9.5605929e-10
1.0765352e-09
0.0064374464
0.0015216467
9.943655e-10
0.035937457
0.035969071
0.016567414
1.512133e-09
1.0631735e-09
0.021916984
0.02300858
0.018572983
0.00068304362
1.043672e-09
2.9171807e-05
1.0510447e-09
9.9255032e-10
1.016313e-09
9.9261255e-10
6.4910199e-09
2.4512359e-09
1.1790566e-09
4.4649981e-10
0.00011530486
5.0627816e-10
0.002887325
0.02193234
0.012398637
9.7624291e-10
7.2950788e-10
2.2917043e-11
0.00033625447
0.00045166065
7.2838503e-05
8.4489272e-07
9.1823463e-07
0.00011314761
0.00018733344
5.966866e-09
1.3661054e-08
1.3476835e-08
1.1382134e-08
1.1528518e-08
1.3720942e-08
1.3456103e-07
7.1990609e-09
0.00011970191
3.0679466e-09
3.1219759e-09
3.2269131e-09
0.0021931629
0.0057239509
1.7299028e-07
0.0044585133
0.0060700662
0.0046461262
1.4233971e-08
0.0050243791
0.0069360321
0.0046499686
0.0040331062
0.00013650918
2.8126979e-09
2.5842398e-09
2.6881063e-09
2.8097045e-09
0.0024218575
2.2537141e-05
2.2870187e-09
0.016308393
0.0012001047
1.7859196e-09
1.2392509e-09
2.8478365e-08
3.1565869e-08
9.9798587e-10
0.00044010244
1.0201654e-09
9.5599088e-10
0.035948014
0.035969071
0.025090188
1.4074858e-09
1.0631741e-09
0.005060449
0.01281882
0.018375826
0.0058592499
1.1944981e-09
0.0012726714
8.121256e-05
1.2929998e-09
1.2012215e-09
1.1935518e-09
1.0918202e-09
8.9374941e-10
6.5533418e-10
4.4649746e-10
7.3879138e-10
4.464013e-10
0.015509846
0.02193234
0.012028883
1.183531e-09
1.5308321e-09
5.210175e-10
1.0888684e-15
5.2006784e-16
4.9314582e-16
2.7152002e-06
4.4991915e-07
0.00018734599
0.0001873425
5.9674077e-09
1.2999932e-08
1.3006964e-08
1.3305411e-08
1.3848765e-08
4.1630849e-05
1.0285231e-06
5.4492e-09
0.00032559948
6.0399454e-08
3.3910635e-09
1.866338e-05
1.7621788e-07
1.7667059e-07
3.0615597e-06
0.0060700598
0.0060700617
1.4277999e-08
1.423483e-08
9.980825e-06
0.0069360325
0.0024418516
0.00041071167
4.1426101e-09
2.6341153e-05
1.7091534e-05
0.013320671
0.00037982953
1.9367806e-09
1.4987271e-09
0.00028196603
0.017568282
0.0054890261
0.00018374835
1.62937e-09
1.9701148e-09
9.4661297e-06
1.3775789e-06
1.3232641e-09
1.2707002e-09
1.1570257e-09
0.023270614
0.035969072
0.014472426
1.5618886e-09
1.2928511e-09
1.2009776e-09
1.1772147e-09
0.0047667603
0.012382486
0.0064415287
0.00093622663
7.5350518e-09
0.00024505882
0.00065063433
0.0012733794
0.001320791
0.0023510948
0.0018531383
1.8106015e-05
7.6222929e-10
1.1434153e-08
5.1788183e-10
0.0084181534
0.0066499798
0.00020619358
9.4742134e-10
8.2247573e-10
1.959807e-10
8.6029182e-11
1.4168213e-10
6.8201477e-07
9.3451592e-05
0.00018734746
8.3763377e-05
6.4696212e-09
1.3182611e-08
1.4535785e-08
3.4850902e-05
4.8933998e-05
4.8443155e-05
6.0750126e-07
5.4059627e-09
0.00019107382
5.6267894e-05
4.1265871e-07
4.778631e-09
5.0225829e-07
6.1766222e-05
0.002226662
0.0031041506
0.0026822054
2.0057588e-05
1.5031472e-05
4.9535264e-06
0.0023851578
2.9533852e-09
3.1306139e-09
3.2837976e-09
0.00049323937
0.019183849
0.019353942
0.0017710508
1.7671837e-09
1.6799413e-09
0.0020096806
3.2590754e-09
0.021700892
0.0001676201
0.054367533
0.038158756
2.9355807e-09
2.5818045e-09
0.0029952082
0.00013457697
0.0042884406
0.00059238985
0.0012801826
0.022541463
0.0031730265
0.0055673885
9.6704315e-10
8.9590295e-10
1.0490308e-06
0.012382486
0.012382486
0.0021548028
7.5149292e-09
0.00027304621
0.0030811664
0.0033899442
0.0034028917
0.0034238732
0.0034462208
0.0034462209
0.001412952
7.8117388e-10
5.9792495e-10
5.7287768e-10
6.939558e-10
9.1797863e-06
9.4686118e-07
2.947107e-10
1.7265241e-10
2.1611079e-10
0.00085686116
2.1516023e-06
0.00012578698
7.3921045e-05
5.405207e-09
5.4052633e-09
7.5206229e-09
3.3425417e-05
5.7092159e-05
5.6922378e-05
5.3647453e-09
5.3646513e-09
5.3646516e-09
6.5824544e-09
5.5821917e-05
9.4201466e-07
5.0764044e-09
5.2892694e-06
0.00010041109
0.0004632424
4.4283089e-06
0.00071175947
1.3333356e-06
1.3326272e-06
0.0003960577
1.6049523e-09
2.2889022e-09
2.6735015e-09
3.5414588e-05
0.00080499561
0.019353942
0.019353942
0.0033401493
0.0013051777
6.4762569e-05
3.2161454e-09
3.2187584e-09
0.0086248878
0.042955105
0.11478007
0.11478007
0.040219675
0.0035129033
0.021167893
0.013679951
0.016344281
0.0017538272
7.1941234e-10
0.018918509
0.0083264277
0.031639832
0.032032661
0.016020055
0.0023126141
0.009082326
0.0054081009
0.0002372043
5.7906148e-05
7.7627677e-10
7.5232434e-10
7.5232435e-10
7.5296121e-10
7.5939394e-10
0.00028895275
0.0016164295
0.00077169011
1.1164151e-05
7.2163006e-10
8.2146251e-10
5.2501921e-10
3.6179188e-10
1.2550115e-08
1.2713925e-09
7.7128224e-12
0.00089012826
0.0019547508
3.4730333e-05
6.8762021e-05
2.9452686e-09
5.4280798e-09
0.00011486725
7.6339541e-09
2.0651027e-06
5.4046411e-09
5.4047183e-09
7.6141828e-09
5.364659e-09
0.00021913485
7.5055822e-06
1.3095028e-07
1.19283e-06
5.4606569e-07
9.8745658e-07
2.1695229e-06
7.1649521e-07
6.4193277e-05
1.3928106e-08
0.0012385755
1.3328351e-06
7.8887766e-05
1.1954615e-05
0.0039037956
0.00017989062
7.1652107e-10
6.4447777e-10
0.012034281
0.006313945
0.0052691875
0.0010708404
3.6597911e-09
3.2215886e-09
2.8344345e-05
6.7431232e-10
0.091398936
0.07580865
0.11478028
0.11478058
0.012100547
0.00083236646
0.012362761
0.011384023
0.0030537133
6.6470368e-10
3.8921511e-10
0.00059033641
1.3291953e-09
0.013432413
0.033689611
0.0093640447
8.3179471e-10
7.4598087e-10
7.4348385e-10
7.3995627e-10
9.3824506e-10
8.0699769e-10
9.0202719e-10
5.8817376e-06
6.4097238e-05
5.9577167e-05
7.7857236e-10
5.9693335e-10
3.0638973e-08
6.814788e-09
1.4491374e-09
1.8264415e-09
5.7607652e-10
1.2013005e-09
6.6500662e-10
7.7093085e-12
0.0036513535
0.00716219
9.8212862e-10
1.0906197e-09
3.1879317e-09
6.2019002e-05
2.9742312e-05
2.655964e-05
5.5084762e-09
5.4252917e-09
7.353224e-09
8.0589407e-09
5.3665903e-09
0.00014662689
1.8305674e-06
2.161143e-05
2.0387457e-05
9.4458921e-06
1.0794695e-08
2.6018516e-06
7.1668051e-07
0.00012769953
1.3472837e-08
0.001783643
0.0017842292
1.140042e-09
1.0894744e-09
0.0055262799
0.004771883
5.5010705e-10
1.0568003e-05
5.4049074e-10
5.3888796e-10
0.0035500309
0.00010955228
1.6245841e-06
1.5223612e-07
5.3801447e-10
5.3334497e-10
4.3226721e-10
4.3031909e-10
0.029395408
0.051399233
0.012166593
6.3618497e-10
3.8921607e-10
3.8944306e-10
3.8972982e-10
5.8237977e-10
3.9213772e-10
3.9333838e-10
1.1037646e-07
7.1540761e-10
0.016977562
1.5764016e-09
1.4092693e-09
1.1554111e-05
2.2410206e-06
9.8467233e-10
1.1820178e-09
9.8132184e-10
9.5992297e-06
0.00010355437
0.00028087432
0.0002818549
6.1358425e-05
4.2208568e-10
3.1169985e-10
3.1186563e-10
5.5957695e-10
6.7623313e-10
1.8649457e-10
3.1892675e-10
2.8505405e-10
1.0414848e-10
3.2248668e-08
0.00716219
8.7101076e-09
2.0588317e-06
7.3969513e-05
0.00028686315
3.2104196e-08
4.4707258e-06
4.9239718e-05
5.4018763e-09
7.7093442e-09
8.3591259e-09
6.1983456e-09
6.7703938e-09
0.00011494968
0.00013588797
1.0301345e-08
9.7944983e-09
9.794475e-09
3.2501516e-06
1.4672293e-06
6.3019626e-05
8.4846036e-06
3.1356757e-09
0.0069053665
0.0055184207
1.2554125e-09
5.4287863e-10
5.4287877e-10
5.4288909e-10
0.0004280557
1.3663888e-05
5.6745499e-10
0.0018055227
8.6156402e-05
3.6691986e-05
1.166373e-09
8.3369736e-10
5.3449154e-10
0.00020865957
1.0637561e-05
3.1900918e-10
3.1890589e-10
0.011328378
0.00092848406
6.8221636e-10
5.5803639e-06
1.2110654e-06
6.8094408e-10
3.9243732e-10
1.0779891e-06
8.3138771e-10
8.8782749e-10
1.1086388e-09
1.2661743e-09
2.1887158e-05
4.1887442e-10
5.272349e-05
8.405014e-05
0.00050794679
0.0001356813
0.00022933901
1.8906815e-06
1.2327104e-09
3.6318751e-10
3.0468714e-10
2.7563369e-10
3.8855286e-05
4.9113059e-06
2.62522e-10
1.4033479e-10
5.0099975e-11
1.0441861e-10
1.1143171e-10
2.0106212e-10
6.190153e-06
0.00032114678
4.673796e-09
4.8762355e-06
0.00027898265
0.00028679388
3.0950582e-08
3.1084441e-08
2.4638269e-05
6.7752643e-09
7.7221971e-09
8.542525e-09
5.4100448e-05
0.00023467102
0.00023481382
8.4849966e-08
1.0567175e-08
9.8043345e-09
0.00035358674
0.00035701673
0.00012707409
3.7013845e-09
3.1532388e-09
2.6924927e-09
0.0027275877
0.00021300665
1.6549395e-09
9.5987607e-10
1.4626769e-09
1.1103957e-09
5.3776148e-10
5.3790017e-10
5.3782779e-10
0.0012120461
0.00016103314
5.6514015e-06
0.0095428818
0.0059769882
0.011541341
0.0013810691
1.1747996e-08
3.9512297e-06
3.1925867e-10
0.0089693631
0.0023511846
3.5654498e-05
6.280961e-05
2.0365666e-06
8.7460102e-10
7.0529151e-10
3.9696602e-10
5.877053e-10
3.9908018e-06
2.1165232e-08
7.3618763e-06
3.949035e-10
2.2888762e-10
7.2097605e-11
0.00060364321
0.00062820006
0.00041223379
5.1441575e-07
3.806417e-09
0.00012823604
1.7326124e-07
0.0010547264
8.292077e-05
4.8958804e-10
1.2597623e-06
2.5913219e-08
2.733544e-10
4.9953008e-11
4.4075605e-11
6.173899e-11
1.209834e-10
9.0249941e-11
9.5100876e-11
5.9020846e-09
6.1574936e-09
6.4525402e-09
9.3865386e-05
0.00017242127
0.00019743761
7.1312532e-07
1.7388142e-05
6.3230077e-06
1.8769838e-05
0.00053746073
7.7891045e-05
0.00023481373
9.7948003e-05
5.8170341e-05
1.9681387e-07
0.00018703369
0.00016139576
2.2050105e-05
4.4921488e-08
6.6086495e-08
2.4716592e-09
1.991438e-09
1.5003268e-09
0.0043006239
0.00098927915
2.0407473e-09
1.4357577e-09
9.1478039e-10
9.2944974e-10
5.3818398e-10
0.00046962481
6.6747194e-05
1.1203832e-05
0.030200278
0.03042549
0.0070170826
8.5849834e-08
0.00034791171
3.7437167e-05
3.1962351e-10
0.0082179468
0.005167282
1.2798705e-09
9.0587553e-10
9.0604712e-10
1.0583525e-09
9.7961912e-10
6.7686925e-10
0.005581898
0.00086288935
2.1304328e-09
1.1822129e-05
6.1202873e-06
5.2953167e-07
7.473494e-11
0.0002839796
3.0999243e-10
2.6890343e-10
8.1528341e-11
0.0004970852
0.0016753215
0.00051996497
0.00023586814
3.5158492e-10
3.4474058e-10
4.7242597e-10
6.1263616e-10
1.3376809e-10
7.8219201e-11
4.1567168e-11
5.6768268e-11
1.4199436e-10
9.3104331e-11
6.3977687e-11
8.5353402e-09
2.693571e-07
8.624058e-07
4.3724265e-05
0.00033540489
0.00013608226
1.824863e-06
2.5922341e-05
2.5938805e-05
0.00029915872
0.00053746041
1.0691254e-06
9.1669544e-05
0.00025746263
0.00025505614
7.551172e-06
1.361751e-08
3.3813654e-05
5.8106625e-09
6.2280054e-09
6.7976469e-09
0.0021620989
1.5331759e-09
1.11378e-09
0.0049345205
0.0046271801
0.00094757038
0.00087110045
5.5341923e-05
1.2610804e-09
3.4691156e-09