/*--------------------------------*- C++ -*----------------------------------*\
| =========                 |                                                 |
| \\      /  F ield         | OpenFOAM: The Open Source CFD Toolbox           |
|  \\    /   O peration     | Version:  2.3.0                                 |
|   \\  /    A nd           | Web:      www.OpenFOAM.org                      |
|    \\/     M anipulation  |                                                 |
\*---------------------------------------------------------------------------*/
FoamFile
{
    version     2.0;
    format      ascii;
    class       volScalarField;
    location    "1.2e-05";
    object      nuSgs;
}
// * * * * * * * * * * * * * * * * * * * * * * * * * * * * * * * * * * * * * //

dimensions      [0 2 -1 0 0 0 0];

internalField   nonuniform List<scalar> 
7500
(
4.1406854e-10
4.1907843e-10
4.2405303e-10
4.2901107e-10
4.3397529e-10
4.3885103e-10
4.43642e-10
4.4858534e-10
4.5370361e-10
4.5843341e-10
4.6310047e-10
4.6781853e-10
4.7240082e-10
4.7704313e-10
4.8170653e-10
4.8650012e-10
4.9124388e-10
4.9644554e-10
5.0237093e-10
5.0858644e-10
5.1348818e-10
5.1873016e-10
5.2518531e-10
5.317167e-10
5.3828277e-10
5.4439838e-10
5.5076782e-10
5.5722206e-10
5.6292228e-10
5.6858424e-10
5.7296941e-10
5.780208e-10
5.822515e-10
5.8669415e-10
5.9121395e-10
5.9524715e-10
6.001941e-10
6.074731e-10
6.1683138e-10
6.298219e-10
6.3396162e-10
6.3798735e-10
6.423137e-10
6.4672902e-10
6.506132e-10
6.5576571e-10
6.6055885e-10
6.6449629e-10
6.693083e-10
6.7459622e-10
6.7903563e-10
6.8462222e-10
6.9017765e-10
6.9549203e-10
7.0345015e-10
7.0866899e-10
7.1204465e-10
7.15509e-10
7.197314e-10
7.2506079e-10
7.2920989e-10
7.3412952e-10
7.4208401e-10
7.4712968e-10
7.529599e-10
7.5814643e-10
7.6618718e-10
7.7337002e-10
7.8604174e-10
7.971822e-10
8.1609463e-10
8.2723967e-10
8.4648293e-10
8.5990069e-10
8.9057036e-10
4.5545872e-10
4.6093727e-10
4.663673e-10
4.7174253e-10
4.7712057e-10
4.8243476e-10
4.8768691e-10
4.9292811e-10
4.9818516e-10
5.0335065e-10
5.0853107e-10
5.1377628e-10
5.1891628e-10
5.2404243e-10
5.2948611e-10
5.3500113e-10
5.4089525e-10
5.4696279e-10
5.5316634e-10
5.5903733e-10
5.6605839e-10
5.7271427e-10
5.8154912e-10
5.89925e-10
5.9916122e-10
6.0883182e-10
6.1713536e-10
6.2692326e-10
6.3402144e-10
6.4160719e-10
6.4654922e-10
6.5136012e-10
6.5596265e-10
6.6080526e-10
6.6536171e-10
6.6993021e-10
6.7516319e-10
6.8282824e-10
6.897532e-10
7.0369324e-10
7.0895242e-10
7.1439441e-10
7.2009961e-10
7.2654595e-10
7.3228981e-10
7.3966834e-10
7.4574675e-10
7.5351054e-10
7.6186918e-10
7.7170109e-10
7.7967442e-10
7.9014132e-10
8.0340647e-10
8.1284475e-10
8.2693771e-10
8.3594912e-10
8.4908969e-10
8.599697e-10
8.7591454e-10
8.9922929e-10
9.1573145e-10
9.3986313e-10
9.7141738e-10
9.9083098e-10
1.015134e-09
1.0306373e-09
1.0550163e-09
1.0763337e-09
1.1029438e-09
1.1536658e-09
1.1975384e-09
1.22791e-09
1.282889e-09
1.3248389e-09
1.4131327e-09
5.0100079e-10
5.0704226e-10
5.1302321e-10
5.1895104e-10
5.2486758e-10
5.3076159e-10
5.3657245e-10
5.4238228e-10
5.4823904e-10
5.5423875e-10
5.6014315e-10
5.6632319e-10
5.7273322e-10
5.7912741e-10
5.8592374e-10
5.9293869e-10
6.0047166e-10
6.0866108e-10
6.1758104e-10
6.2524996e-10
6.3586278e-10
6.4579243e-10
6.588795e-10
6.7387132e-10
6.8560991e-10
7.0394014e-10
7.1507885e-10
7.32566e-10
7.4199184e-10
7.5450699e-10
7.6177109e-10
7.7033887e-10
7.7712089e-10
7.8496647e-10
7.919849e-10
7.9972925e-10
8.076849e-10
8.2162028e-10
8.3280245e-10
8.5999139e-10
8.7470553e-10
8.9545824e-10
9.1413624e-10
9.4204181e-10
9.6232039e-10
9.98467e-10
1.0234962e-09
1.0555859e-09
1.0950803e-09
1.1553937e-09
1.2009523e-09
1.2683555e-09
1.375768e-09
1.4282943e-09
1.5155734e-09
1.5670881e-09
1.6517241e-09
1.7103146e-09
1.7967992e-09
1.9432426e-09
2.0386788e-09
2.1988088e-09
2.3438791e-09
2.4714975e-09
2.5814134e-09
2.645573e-09
2.7352627e-09
2.827806e-09
2.9402641e-09
3.1675219e-09
3.3526237e-09
3.4748759e-09
3.6816505e-09
3.8421678e-09
4.1656056e-09
5.5110993e-10
5.577511e-10
5.6436581e-10
5.7103148e-10
5.7784023e-10
5.8451013e-10
5.9115491e-10
5.9781477e-10
6.0487239e-10
6.1223764e-10
6.2026224e-10
6.2924627e-10
6.3940409e-10
6.480233e-10
6.5797741e-10
6.6679574e-10
6.7668701e-10
6.8873745e-10
7.0038438e-10
7.1325916e-10
7.3516468e-10
7.5564016e-10
7.8178062e-10
8.0897751e-10
8.2863464e-10
8.6202688e-10
8.7847071e-10
9.0768497e-10
9.2428651e-10
9.5169591e-10
9.7021499e-10
9.9940285e-10
1.0224238e-09
1.0574123e-09
1.0892775e-09
1.1362229e-09
1.1793351e-09
1.2729021e-09
1.333697e-09
1.4752559e-09
1.5739431e-09
1.73283e-09
1.8549948e-09
2.0451298e-09
2.1646341e-09
2.3872041e-09
2.5239644e-09
2.7046104e-09
2.9055231e-09
3.2115599e-09
3.4381546e-09
3.7788401e-09
4.2785786e-09
4.5079764e-09
4.87631e-09
5.0866978e-09
5.4398425e-09
5.6739972e-09
5.9984531e-09
6.5695508e-09
6.9339136e-09
7.558768e-09
8.0734474e-09
8.5264546e-09
8.8870207e-09
9.0965282e-09
9.3668679e-09
9.6868163e-09
1.0033155e-08
1.077297e-08
1.1399412e-08
1.1789994e-08
1.2432997e-08
1.293298e-08
1.3914961e-08
5.9740317e-10
6.0525615e-10
6.1351709e-10
6.223995e-10
6.323497e-10
6.415909e-10
6.5148267e-10
6.6065136e-10
6.7288974e-10
6.8330975e-10
6.9889443e-10
7.1519435e-10
7.3531893e-10
7.4920941e-10
7.6583738e-10
7.7804406e-10
7.9095861e-10
8.0854214e-10
8.2666021e-10
8.5276778e-10
9.0666347e-10
9.4726992e-10
1.0147222e-09
1.0632209e-09
1.1157902e-09
1.1923276e-09
1.2359772e-09
1.3253136e-09
1.3922709e-09
1.5231257e-09
1.6180003e-09
1.7958128e-09
1.9426569e-09
2.1855137e-09
2.3965469e-09
2.7016241e-09
2.9630142e-09
3.4788914e-09
3.7812714e-09
4.4011439e-09
4.831792e-09
5.534259e-09
6.0418656e-09
6.7933974e-09
7.2490377e-09
8.0862928e-09
8.5641142e-09
9.2244343e-09
9.9135814e-09
1.0954783e-08
1.176306e-08
1.2984663e-08
1.4553316e-08
1.5339104e-08
1.6512628e-08
1.7161601e-08
1.8314205e-08
1.9058894e-08
2.001274e-08
2.1745863e-08
2.286179e-08
2.4754843e-08
2.6410511e-08
2.7532273e-08
2.8596846e-08
2.9155736e-08
2.9873037e-08
3.0715783e-08
3.1624508e-08
3.3629371e-08
3.544437e-08
3.6461517e-08
3.816076e-08
3.9467507e-08
4.2008038e-08
6.3268476e-10
6.4594238e-10
6.620494e-10
6.8338907e-10
7.0526441e-10
7.2297571e-10
7.4958318e-10
7.7067112e-10
8.0724921e-10
8.2476228e-10
8.5572481e-10
8.8203007e-10
9.1154632e-10
9.3399551e-10
9.5516469e-10
9.7282483e-10
9.9197579e-10
1.0220251e-09
1.0636785e-09
1.1251807e-09
1.2545567e-09
1.354844e-09
1.5260094e-09
1.6733706e-09
1.8860313e-09
2.2217907e-09
2.4387488e-09
2.9001612e-09
3.2334551e-09
3.8975539e-09
4.3225983e-09
5.1630122e-09
5.7810398e-09
6.8106647e-09
7.6652858e-09
8.8108304e-09
9.7844943e-09
1.1569276e-08
1.2607224e-08
1.4681461e-08
1.6039476e-08
1.8223086e-08
2.0049631e-08
2.2134008e-08
2.3515463e-08
2.6056702e-08
2.7468587e-08
2.9426501e-08
3.1469459e-08
3.4134182e-08
3.6920331e-08
4.0169214e-08
4.4076972e-08
4.7052624e-08
4.9545456e-08
5.1311931e-08
5.4784026e-08
5.6835568e-08
5.9113037e-08
6.3455007e-08
6.6367841e-08
7.1131652e-08
7.5660288e-08
7.8042671e-08
8.0720118e-08
8.2013332e-08
8.3715255e-08
8.5615821e-08
8.7601327e-08
9.2108175e-08
9.6319758e-08
9.8644871e-08
1.0259588e-07
1.0553028e-07
1.1116961e-07
6.7334892e-10
7.328052e-10
7.8291797e-10
8.5650549e-10
9.2209911e-10
9.6378166e-10
1.0338136e-09
1.0920107e-09
1.1875222e-09
1.2274182e-09
1.2913038e-09
1.3193755e-09
1.3478698e-09
1.3765435e-09
1.3997956e-09
1.4268823e-09
1.4658875e-09
1.5471154e-09
1.6799342e-09
1.8956169e-09
2.2997286e-09
2.6570824e-09
3.2338241e-09
3.8545387e-09
4.661409e-09
6.0065642e-09
6.8697668e-09
8.663753e-09
9.8680369e-09
1.2276316e-08
1.3639362e-08
1.6478341e-08
1.8364607e-08
2.162534e-08
2.4257429e-08
2.7520526e-08
3.0407035e-08
3.5440351e-08
3.8384444e-08
4.4019907e-08
4.7621239e-08
5.3009115e-08
5.9026192e-08
6.3275398e-08
6.685291e-08
7.3637033e-08
7.7232586e-08
8.1651303e-08
8.7450066e-08
9.2458862e-08
1.005221e-07
1.0790472e-07
1.1564595e-07
1.2387326e-07
1.2920437e-07
1.331414e-07
1.4096499e-07
1.4568652e-07
1.5043164e-07
1.5974501e-07
1.6610685e-07
1.7602739e-07
1.8598364e-07
1.9089841e-07
1.9611502e-07
1.9848471e-07
2.0151343e-07
2.0506963e-07
2.0871196e-07
2.1720114e-07
2.252822e-07
2.2977361e-07
2.3717622e-07
2.4294346e-07
2.5360365e-07
7.3421597e-10
9.5837273e-10
1.0512818e-09
1.2034898e-09
1.306296e-09
1.3793159e-09
1.4892374e-09
1.5941027e-09
1.7099653e-09
1.790798e-09
1.8962079e-09
1.9647545e-09
2.0203427e-09
2.0838007e-09
2.1779181e-09
2.3396567e-09
2.6035363e-09
3.0779714e-09
3.7262846e-09
4.5860318e-09
6.0998399e-09
7.3863805e-09
9.4111687e-09
1.1707319e-08
1.4269758e-08
1.8690406e-08
2.1377985e-08
2.6917584e-08
3.0271871e-08
3.7063779e-08
4.0636966e-08
4.8326326e-08
5.3070651e-08
6.1684211e-08
6.841282e-08
7.606595e-08
8.3456673e-08
9.5747284e-08
1.0265109e-07
1.1509912e-07
1.2379947e-07
1.3511872e-07
1.4953216e-07
1.5934323e-07
1.6700724e-07
1.8115521e-07
1.8919225e-07
1.9800583e-07
2.1200295e-07
2.2096866e-07
2.3661464e-07
2.523724e-07
2.6577772e-07
2.8445036e-07
2.9500997e-07
3.0243703e-07
3.168635e-07
3.2637646e-07
3.3506763e-07
3.5194178e-07
3.6458363e-07
3.8212417e-07
4.010867e-07
4.1066024e-07
4.1969457e-07
4.2279567e-07
4.2742674e-07
4.3246921e-07
4.3806647e-07
4.5177457e-07
4.673889e-07
4.7605306e-07
4.8869969e-07
4.9949283e-07
5.1751732e-07
7.6138154e-10
1.0557207e-09
1.1428314e-09
1.3055994e-09
1.4027801e-09
1.4923239e-09
1.6001194e-09
1.7053088e-09
1.8444286e-09
1.9678328e-09
2.1339772e-09
2.2941309e-09
2.5652953e-09
2.9706687e-09
3.618865e-09
4.6988463e-09
6.0689417e-09
8.1991072e-09
1.0536979e-08
1.3407315e-08
1.8145682e-08
2.1828224e-08
2.6994645e-08
3.4792268e-08
4.0811864e-08
5.2282564e-08
5.9237672e-08
7.3191103e-08
8.1377275e-08
9.7390888e-08
1.0590413e-07
1.2385222e-07
1.3424685e-07
1.5419785e-07
1.6772281e-07
1.856175e-07
2.0055867e-07
2.2569023e-07
2.4010546e-07
2.625579e-07
2.8425652e-07
3.0226018e-07
3.3213193e-07
3.5336453e-07
3.6805304e-07
3.9436563e-07
4.1133869e-07
4.268002e-07
4.5437928e-07
4.7090492e-07
4.965558e-07
5.2816243e-07
5.494701e-07
5.864161e-07
6.0607493e-07
6.1929228e-07
6.4324795e-07
6.617769e-07
6.7636724e-07
7.0299999e-07
7.2995234e-07
7.5616922e-07
7.9145032e-07
8.1160472e-07
8.2556687e-07
8.2805701e-07
8.3673615e-07
8.4589546e-07
8.5587395e-07
8.8125849e-07
9.1712981e-07
9.3585171e-07
9.5626879e-07
9.7652032e-07
1.0017087e-06
7.1003005e-10
8.3531766e-10
9.1904365e-10
1.0857145e-09
1.2259344e-09
1.4009171e-09
1.545735e-09
1.7369882e-09
2.0002863e-09
2.2961085e-09
2.8131381e-09
3.5556658e-09
4.7820803e-09
6.565206e-09
9.0445877e-09
1.3062332e-08
1.7299504e-08
2.3793323e-08
3.0080371e-08
3.8638696e-08
5.033366e-08
6.0032578e-08
7.1716405e-08
9.241373e-08
1.0513097e-07
1.2942437e-07
1.4463399e-07
1.7470599e-07
1.9228954e-07
2.2439952e-07
2.4276489e-07
2.7958982e-07
2.9995765e-07
3.4006818e-07
3.6398713e-07
4.0213141e-07
4.2801543e-07
4.7340805e-07
5.0454341e-07
5.3543053e-07
5.8775471e-07
6.1613459e-07
6.6694806e-07
7.1096751e-07
7.400388e-07
7.8701885e-07
8.2278099e-07
8.4953839e-07
8.9799414e-07
9.3068663e-07
9.7192378e-07
1.0371182e-06
1.0746132e-06
1.1390368e-06
1.1769107e-06
1.2037132e-06
1.2502391e-06
1.2897445e-06
1.3150583e-06
1.3524997e-06
1.4156968e-06
1.4562915e-06
1.526498e-06
1.575862e-06
1.5997486e-06
1.6033556e-06
1.6275607e-06
1.6658515e-06
1.7014985e-06
1.7666462e-06
1.8459533e-06
1.8798294e-06
1.9073169e-06
1.9323145e-06
1.9638688e-06
7.6190957e-10
8.8530328e-10
1.0750475e-09
1.3100265e-09
1.5445066e-09
1.7873811e-09
2.091385e-09
2.5404031e-09
3.2947037e-09
4.3949297e-09
6.2928695e-09
8.922123e-09
1.2931981e-08
1.8447083e-08
2.526653e-08
3.6675224e-08
4.7421834e-08
6.3966369e-08
7.8886989e-08
1.0186179e-07
1.2324869e-07
1.5028328e-07
1.734734e-07
2.1752644e-07
2.4302236e-07
2.9128522e-07
3.2095398e-07
3.788727e-07
4.1287503e-07
4.7077519e-07
5.0575421e-07
5.729962e-07
6.1070515e-07
6.8401142e-07
7.266195e-07
7.96509e-07
8.4337876e-07
9.2374749e-07
9.8857582e-07
1.0369802e-06
1.1341344e-06
1.1916357e-06
1.2897967e-06
1.3674171e-06
1.4382848e-06
1.5209137e-06
1.6050693e-06
1.6594811e-06
1.7498516e-06
1.8152952e-06
1.8893192e-06
2.0231621e-06
2.0964929e-06
2.228141e-06
2.3276317e-06
2.4004123e-06
2.5350348e-06
2.6046351e-06
2.6425178e-06
2.6963594e-06
2.8323821e-06
2.9095093e-06
3.131082e-06
3.2251671e-06
3.2752264e-06
3.3206975e-06
3.4537982e-06
3.758981e-06
3.813784e-06
3.8666375e-06
3.9644549e-06
3.9826818e-06
4.0180417e-06
4.074491e-06
4.1717361e-06
8.8222132e-10
1.4298789e-09
1.7049951e-09
1.9395411e-09
2.2169044e-09
2.6883e-09
3.5357486e-09
4.9629959e-09
7.3931407e-09
1.0854341e-08
1.6647856e-08
2.414876e-08
3.527418e-08
5.0031474e-08
6.5991708e-08
9.3273671e-08
1.1798509e-07
1.5443839e-07
1.8678906e-07
2.3744127e-07
2.743459e-07
3.3781649e-07
3.7939503e-07
4.5733803e-07
5.0418473e-07
5.9540505e-07
6.4943241e-07
7.4851191e-07
8.1454435e-07
9.1091488e-07
9.7652897e-07
1.0971775e-06
1.1696728e-06
1.3040733e-06
1.3822925e-06
1.5158401e-06
1.6123383e-06
1.7621341e-06
1.8903021e-06
1.9957623e-06
2.193221e-06
2.3406444e-06
2.5051475e-06
2.6998326e-06
2.8793061e-06
3.0344364e-06
3.2699458e-06
3.392562e-06
3.5718293e-06
3.6756316e-06
3.8446786e-06
4.2262809e-06
4.2970443e-06
4.8363059e-06
5.1471228e-06
5.3441406e-06
5.6515142e-06
5.633276e-06
5.5971121e-06
5.6842447e-06
6.1197899e-06
6.1557046e-06
7.1384875e-06
7.1106621e-06
7.2338294e-06
7.6447709e-06
7.9632917e-06
7.9058366e-06
7.223832e-06
7.2199172e-06
7.2653154e-06
7.043793e-06
7.0508279e-06
7.2235192e-06
7.2372949e-06
9.2802101e-10
1.692388e-09
1.9469405e-09
2.3124534e-09
2.945571e-09
4.3586536e-09
6.9768662e-09
1.1294348e-08
1.8127796e-08
2.7498145e-08
4.3355155e-08
6.1571965e-08
8.8413814e-08
1.2379617e-07
1.5709677e-07
2.1175026e-07
2.6933255e-07
3.3249985e-07
4.0452673e-07
4.9164161e-07
5.590015e-07
6.7621916e-07
7.4913471e-07
8.8686193e-07
9.7016224e-07
1.1350549e-06
1.2349123e-06
1.3955201e-06
1.5548737e-06
1.6837904e-06
1.8382196e-06
2.083612e-06
2.2296976e-06
2.4874543e-06
2.6342261e-06
2.978024e-06
3.1886064e-06
3.4720159e-06
3.7680116e-06
4.0808926e-06
4.5668159e-06
5.0340245e-06
5.1224438e-06
6.0146898e-06
6.2682823e-06
6.5374738e-06
7.3158913e-06
7.4242495e-06
7.7782016e-06
7.6549287e-06
8.5234074e-06
8.5752386e-06
8.9581945e-06
1.0386055e-05
9.8062878e-06
1.0564678e-05
9.4576113e-06
9.9144217e-06
9.7030888e-06
1.006521e-05
9.5754231e-06
9.8923387e-06
1.0696e-05
1.0182335e-05
1.2071485e-05
1.1963903e-05
9.8237421e-06
7.7079418e-06
6.0036687e-06
5.8984947e-06
5.3041451e-06
5.8802334e-06
6.2016467e-06
6.1999951e-06
6.8365855e-06
8.0074396e-10
1.236412e-09
1.7874356e-09
3.0777331e-09
5.5080348e-09
1.0040862e-08
1.7224697e-08
2.8251426e-08
4.4785755e-08
6.7117428e-08
1.0509375e-07
1.4423285e-07
2.0140308e-07
2.7725956e-07
3.3953816e-07
4.3485279e-07
5.6649766e-07
6.527591e-07
8.0347009e-07
9.2656029e-07
1.0596208e-06
1.2665168e-06
1.39344e-06
1.6513589e-06
1.8093421e-06
2.1361326e-06
2.3206248e-06
2.6088709e-06
2.9729434e-06
3.1874438e-06
3.7293142e-06
4.0896247e-06
4.4218542e-06
4.9824719e-06
5.2440236e-06
6.5968409e-06
6.8008791e-06
7.4457073e-06
8.3436916e-06
9.1086443e-06
9.9797581e-06
9.8745957e-06
1.0208429e-05
1.2542965e-05
1.1625736e-05
1.1926945e-05
1.2396654e-05
1.2124794e-05
1.0896199e-05
1.0780919e-05
1.0221386e-05
9.9057139e-06
1.3121758e-05
1.1395287e-05
8.9917472e-06
8.6195771e-06
6.4785591e-06
8.6253959e-06
7.6848588e-06
7.3524464e-06
5.6914048e-06
6.7120645e-06
5.4158462e-06
5.7377215e-06
8.2118851e-06
6.1636352e-06
4.2618443e-06
3.4328263e-06
2.9246891e-06
2.640161e-06
2.66213e-06
2.7551157e-06
2.841289e-06
3.0119012e-06
3.7631294e-06
7.0350654e-10
1.0922156e-09
2.5390897e-09
6.1129265e-09
1.2685995e-08
2.4065857e-08
4.1548945e-08
6.7390791e-08
1.0459236e-07
1.536388e-07
2.3392162e-07
3.0979607e-07
4.2390565e-07
5.578591e-07
6.7171607e-07
8.5775234e-07
1.051465e-06
1.2129132e-06
1.4858917e-06
1.6687502e-06
1.9675528e-06
2.311918e-06
2.5610038e-06
3.1726017e-06
3.4528009e-06
4.1956115e-06
4.476881e-06
5.1845345e-06
6.0917748e-06
6.416253e-06
8.3758334e-06
8.4025909e-06
9.4687244e-06
1.0024185e-05
1.052625e-05
1.3042864e-05
1.1749215e-05
1.400061e-05
1.3528924e-05
1.4429677e-05
1.1750446e-05
1.0726569e-05
1.4423499e-05
1.2043692e-05
9.5074892e-06
1.0091468e-05
7.3574091e-06
7.0068033e-06
4.8012514e-06
4.6603087e-06
3.6390418e-06
4.8682067e-06
5.3330674e-06
3.9706721e-06
3.5922204e-06
3.0626957e-06
2.7737406e-06
3.0871485e-06
3.1510786e-06
2.9140904e-06
2.5873123e-06
3.0718019e-06
2.8540396e-06
2.9451996e-06
3.5744257e-06
3.5468566e-06
3.4583822e-06
3.165729e-06
2.9304802e-06
2.99452e-06
2.8582527e-06
2.6755045e-06
2.7241901e-06
2.894269e-06
2.767615e-06
6.6675904e-10
1.988214e-09
6.2146545e-09
1.5077119e-08
3.071879e-08
5.6460832e-08
9.4792966e-08
1.5036421e-07
2.2641001e-07
3.2645027e-07
4.7065267e-07
6.1514051e-07
8.2941693e-07
1.0204115e-06
1.2583245e-06
1.5876713e-06
1.8584101e-06
2.2285003e-06
2.6617332e-06
3.0377776e-06
3.7544105e-06
4.3479666e-06
4.9435987e-06
6.6650951e-06
6.9105001e-06
8.6668827e-06
8.9420034e-06
1.1511771e-05
1.1307654e-05
1.3617258e-05
1.3440672e-05
1.2133008e-05
1.2427147e-05
1.1653747e-05
1.2232841e-05
9.8487632e-06
9.9742225e-06
1.3722718e-05
7.9335435e-06
7.9585742e-06
4.8675517e-06
4.6056907e-06
6.9832927e-06
3.9393265e-06
4.0213347e-06
4.1197055e-06
3.106476e-06
2.5073311e-06
2.4092787e-06
2.6977027e-06
2.51813e-06
2.8698014e-06
3.8113811e-06
3.0008208e-06
2.5666695e-06
2.4083108e-06
2.2839065e-06
2.6049497e-06
2.5288002e-06
2.3135548e-06
2.2431427e-06
2.3549742e-06
2.36957e-06
2.5954085e-06
2.9674471e-06
3.7317189e-06
3.5216571e-06
3.2448198e-06
3.4648409e-06
4.0267896e-06
4.3121482e-06
4.1218075e-06
3.5860085e-06
2.8918053e-06
2.8428546e-06
5.9925939e-10
4.9814803e-09
1.5509485e-08
3.6098128e-08
7.0729314e-08
1.2523081e-07
2.0310564e-07
3.1592947e-07
4.5287142e-07
6.5606084e-07
8.6549004e-07
1.1738883e-06
1.4894019e-06
1.8137294e-06
2.3542391e-06
2.7865959e-06
3.4081113e-06
4.1511195e-06
4.9367949e-06
5.9237869e-06
7.8049621e-06
8.7044662e-06
1.0625324e-05
1.1822994e-05
1.2143303e-05
1.3046612e-05
1.3349452e-05
1.4552615e-05
1.2021344e-05
1.6571619e-05
7.2664776e-06
6.8632382e-06
4.8635336e-06
4.3148672e-06
5.006539e-06
3.3428797e-06
5.8938597e-06
5.043536e-06
2.6336266e-06
2.4788433e-06
2.7844022e-06
2.9039272e-06
5.0697652e-06
3.2475691e-06
2.384891e-06
2.4292377e-06
2.1484333e-06
2.1188924e-06
2.2591959e-06
2.3925985e-06
2.349291e-06
2.4961293e-06
2.4998305e-06
2.4983604e-06
2.3607064e-06
2.3384529e-06
2.1659447e-06
2.1845688e-06
2.187655e-06
2.2220577e-06
2.248743e-06
2.2625812e-06
2.4793957e-06
2.7323053e-06
4.6853059e-06
3.9266155e-06
3.2486661e-06
3.1419356e-06
3.7570802e-06
3.7540083e-06
3.667021e-06
3.5815009e-06
3.2051818e-06
3.1935147e-06
3.1390065e-06
1.3166197e-09
1.2434877e-08
3.6688456e-08
8.1216119e-08
1.5198597e-07
2.5929558e-07
4.0535048e-07
6.0925022e-07
8.4583525e-07
1.2009743e-06
1.5655926e-06
2.1386533e-06
2.5902109e-06
3.3112886e-06
4.3674133e-06
5.1375017e-06
6.7580552e-06
8.2167762e-06
9.900902e-06
1.1907729e-05
1.3166986e-05
1.3000116e-05
1.4758085e-05
1.0886628e-05
1.1864241e-05
8.2396806e-06
9.6235507e-06
5.6381067e-06
7.075921e-06
7.8623066e-06
2.3368734e-06
2.40034e-06
2.2548624e-06
2.3442821e-06
2.5605372e-06
2.4566667e-06
4.7748682e-06
2.8413721e-06
2.142286e-06
2.2252515e-06
3.0866859e-06
2.9353112e-06
3.3488397e-06
2.5365709e-06
2.1750782e-06
2.0000236e-06
2.0011726e-06
2.0537004e-06
2.3112832e-06
2.4585423e-06
2.4029537e-06
2.3938153e-06
2.8998747e-06
2.7158947e-06
2.4413812e-06
2.3944388e-06
2.3264396e-06
2.4188094e-06
2.7545984e-06
2.7197693e-06
2.9059828e-06
3.2634702e-06
3.2457947e-06
2.9766389e-06
3.8584679e-06
3.3159014e-06
3.2398163e-06
3.1828694e-06
3.3051249e-06
3.4031514e-06
3.6043309e-06
4.0032286e-06
3.787447e-06
3.3968543e-06
3.0625812e-06
2.9303325e-10
2.9025512e-08
8.1388284e-08
1.7111793e-07
3.052406e-07
5.0352503e-07
7.5801362e-07
1.0900077e-06
1.5107478e-06
2.1275397e-06
2.8262628e-06
3.8039979e-06
4.6946261e-06
6.5575477e-06
8.4498494e-06
1.0142746e-05
1.1713814e-05
1.2917156e-05
1.3405246e-05
1.3345947e-05
1.0830848e-05
8.3204087e-06
7.1696536e-06
3.5479634e-06
4.0194083e-06
2.9756972e-06
4.6989092e-06
2.3099056e-06
5.1274016e-06
3.522439e-06
1.7871345e-06
1.8782417e-06
1.6307995e-06
3.0003223e-06
3.1359106e-06
2.7000145e-06
3.6852185e-06
2.86608e-06
2.4546197e-06
1.984882e-06
2.371347e-06
2.8619853e-06
2.7723763e-06
2.3068677e-06
2.1975168e-06
2.1490391e-06
2.0791113e-06
2.0198004e-06
2.1289352e-06
2.8517613e-06
2.7682061e-06
2.5946771e-06
2.983363e-06
2.6980575e-06
2.4159357e-06
2.4354664e-06
2.5061614e-06
2.6030528e-06
3.2370665e-06
2.9476099e-06
3.0655195e-06
3.2914967e-06
3.1771757e-06
3.0595399e-06
3.3702175e-06
3.2525674e-06
3.3176811e-06
3.3776043e-06
3.4829982e-06
3.7525382e-06
4.1460048e-06
3.9834529e-06
3.619e-06
3.4654149e-06
3.3468704e-06
4.9472429e-09
6.5388787e-08
1.7022419e-07
3.3775262e-07
5.7369627e-07
9.1526164e-07
1.3367208e-06
1.8896928e-06
2.6834114e-06
3.8419165e-06
5.2266847e-06
7.1491074e-06
9.0677453e-06
1.1963295e-05
1.2651e-05
1.2539664e-05
1.1411081e-05
1.0252355e-05
8.827358e-06
5.4035803e-06
3.5949758e-06
2.9426515e-06
2.5399203e-06
1.7983761e-06
1.8748224e-06
1.6995604e-06
2.3152586e-06
1.8199164e-06
3.7790377e-06
3.2452442e-06
1.596657e-06
1.2745361e-06
1.4126777e-06
1.506776e-06
4.416939e-06
3.3747533e-06
3.291192e-06
2.4208186e-06
2.2047287e-06
2.0612352e-06
2.0410281e-06
2.7180462e-06
2.7943748e-06
2.78696e-06
2.4091828e-06
2.2298178e-06
2.19194e-06
2.1816622e-06
2.2680621e-06
2.7644108e-06
2.7868411e-06
2.757978e-06
2.5223999e-06
2.524282e-06
2.4375332e-06
2.51104e-06
2.6260509e-06
2.8637888e-06
2.9108622e-06
2.5957425e-06
2.6543549e-06
2.7831028e-06
2.8783815e-06
2.9125406e-06
3.468001e-06
3.3766127e-06
3.4174786e-06
3.4845953e-06
3.5807236e-06
3.9331121e-06
3.8840402e-06
3.9748355e-06
3.7194678e-06
3.6866048e-06
3.6332309e-06
1.7319855e-08
1.398657e-07
3.3591007e-07
6.2637432e-07
1.0169191e-06
1.5746177e-06
2.2841106e-06
3.3397107e-06
4.9044678e-06
7.3973809e-06
1.0038408e-05
1.1336671e-05
1.2299352e-05
1.2577853e-05
8.477884e-06
6.16122e-06
4.741285e-06
4.5305424e-06
3.3795946e-06
1.5827819e-06
1.3698289e-06
2.1150615e-06
1.8425049e-06
1.927903e-06
1.4985296e-06
2.2622494e-06
2.0428731e-06
1.7197447e-06
2.7698889e-06
1.6225091e-06
1.5286035e-06
1.4507411e-06
1.5598954e-06
1.7446784e-06
3.1108159e-06
2.9138054e-06
3.2258073e-06
2.773139e-06
2.2468664e-06
2.4254057e-06
2.144818e-06
2.3494273e-06
4.191232e-06
3.1275666e-06
2.3166749e-06
2.512062e-06
2.2817031e-06
2.297434e-06
2.2103428e-06
2.2953498e-06
2.607955e-06
2.6904231e-06
2.5708973e-06
2.6715551e-06
2.5830086e-06
2.610911e-06
2.5471907e-06
2.5033145e-06
2.523737e-06
2.6440046e-06
2.6559233e-06
2.9097229e-06
2.8723637e-06
2.9432208e-06
3.1214384e-06
3.3923443e-06
3.9407322e-06
3.8694944e-06
4.0240301e-06
4.3854103e-06
4.3117292e-06
3.865442e-06
3.7553428e-06
4.1910042e-06
4.327312e-06
4.7807344e-08
2.8269837e-07
6.2356627e-07
1.0972176e-06
1.7233471e-06
2.6636537e-06
3.9512058e-06
6.170989e-06
9.5976462e-06
1.1597834e-05
1.1451318e-05
9.9199682e-06
7.8020605e-06
5.4493042e-06
2.7638325e-06
2.2833486e-06
2.0356039e-06
2.1935158e-06
1.3374553e-06
8.959372e-07
1.3581375e-06
2.7481793e-06
1.3708821e-06
2.287366e-06
1.7495961e-06
1.6555707e-06
1.5572749e-06
1.5961302e-06
1.902178e-06
1.411763e-06
1.5299553e-06
1.3869166e-06
2.4853613e-06
2.1433612e-06
3.1282384e-06
2.3701582e-06
3.0051282e-06
3.2272884e-06
2.6631677e-06
2.8215854e-06
2.550015e-06
2.3423795e-06
4.0933546e-06
2.8271945e-06
2.295786e-06
2.1481294e-06
2.2789959e-06
2.3814499e-06
2.4023394e-06
2.7658619e-06
2.5658046e-06
2.6454467e-06
2.7671312e-06
3.0732359e-06
2.9028006e-06
2.8958873e-06
2.7265335e-06
2.4985758e-06
2.4278018e-06
2.5396031e-06
2.8688848e-06
2.970385e-06
2.83527e-06
2.9369886e-06
3.3533734e-06
3.5082212e-06
4.5175483e-06
4.4405134e-06
4.2892171e-06
4.8117323e-06
4.7077596e-06
4.0406841e-06
3.9530406e-06
4.9290815e-06
5.883319e-06
1.1725782e-07
5.405134e-07
1.0933966e-06
1.8394361e-06
2.8554424e-06
4.6292806e-06
7.223486e-06
1.0328389e-05
1.2437198e-05
1.0488631e-05
5.5268946e-06
4.0709744e-06
3.4934344e-06
1.6567761e-06
1.4139292e-06
1.0898848e-06
1.0611979e-06
1.3919584e-06
1.4646668e-06
8.5541278e-07
1.4409914e-06
1.585541e-06
1.2295736e-06
2.6240119e-06
2.6948384e-06
1.7021367e-06
1.3052236e-06
1.5767237e-06
1.9614123e-06
1.4519292e-06
1.6228941e-06
1.4004964e-06
2.7150915e-06
2.1543717e-06
2.5098024e-06
2.1099453e-06
3.1112202e-06
3.3132732e-06
3.0325118e-06
2.8569464e-06
3.4755113e-06
2.5031897e-06
4.0041504e-06
2.9679153e-06
2.5786099e-06
2.3148665e-06
2.4688838e-06
2.4911842e-06
2.4921166e-06
3.0876519e-06
2.8302416e-06
3.0746935e-06
3.0009041e-06
3.1307743e-06
3.0560934e-06
3.4024274e-06
3.0810644e-06
2.693884e-06
2.5520811e-06
2.6126253e-06
3.0343613e-06
3.1986482e-06
3.2995798e-06
3.127044e-06
3.6206633e-06
3.649568e-06
5.7219613e-06
4.8917973e-06
4.2199667e-06
5.906043e-06
6.2568248e-06
5.362965e-06
4.5671549e-06
5.0522094e-06
6.2520916e-06
2.6506172e-07
9.792673e-07
1.8284817e-06
3.0092998e-06
4.7788665e-06
8.6002189e-06
1.020637e-05
1.0632937e-05
8.7181251e-06
4.1317134e-06
2.1246293e-06
1.6816352e-06
1.4006944e-06
6.9750011e-07
1.2017901e-06
8.1792276e-07
8.2629169e-07
1.0416336e-06
9.3734699e-07
9.0462571e-07
1.0969299e-06
1.5954517e-06
1.2846585e-06
2.7556531e-06
1.89937e-06
1.3774189e-06
1.1486454e-06
1.7397566e-06
4.0028811e-06
1.510776e-06
1.6700002e-06
1.3816195e-06
1.3935673e-06
1.9992184e-06
1.7597612e-06
1.6288966e-06
3.0377424e-06
3.0802514e-06
3.0782752e-06
2.7807423e-06
4.6851449e-06
2.9189493e-06
3.1844818e-06
3.1474857e-06
2.6359682e-06
2.4948717e-06
2.5215747e-06
2.5377567e-06
2.570482e-06
2.7859743e-06
2.8776262e-06
3.0392611e-06
3.1716479e-06
3.2129759e-06
3.1845713e-06
3.6350953e-06
3.4889454e-06
3.0872221e-06
2.935784e-06
2.9993381e-06
3.2114956e-06
3.3412668e-06
3.5444664e-06
3.3937634e-06
3.4294748e-06
3.6864501e-06
6.0658652e-06
5.2643848e-06
5.2128221e-06
7.0205863e-06
6.7607339e-06
5.4610735e-06
5.0970745e-06
5.3360727e-06
6.0262232e-06
5.6090317e-07
1.6916743e-06
2.9515505e-06
4.9560695e-06
8.4445738e-06
1.0408034e-05
8.7283267e-06
6.250458e-06
4.4081629e-06
1.254315e-06
1.1278233e-06
9.9248507e-07
7.0425866e-07
6.5059752e-07
1.0613761e-06
6.8714783e-07
7.0866635e-07
8.3774595e-07
9.7367177e-07
8.8913423e-07
9.901014e-07
1.2997738e-06
1.3803345e-06
2.4639658e-06
2.4697889e-06
1.4921482e-06
1.1395517e-06
1.5217959e-06
3.990255e-06
1.6237558e-06
1.6821575e-06
1.498608e-06
1.4419499e-06
1.7249409e-06
1.802044e-06
1.5093848e-06
2.1805584e-06
3.7130315e-06
3.1197322e-06
3.251681e-06
4.8639849e-06
3.274963e-06
2.3804698e-06
2.9198854e-06
2.7023038e-06
2.3722217e-06
2.3690737e-06
2.4436325e-06
2.810214e-06
3.3214149e-06
3.0747561e-06
3.0610073e-06
3.4030688e-06
3.4001663e-06
3.4421396e-06
3.7855571e-06
3.9549146e-06
3.4716826e-06
3.4910986e-06
3.2435424e-06
3.4782964e-06
3.6310888e-06
3.3973568e-06
3.7930557e-06
3.6606805e-06
4.2205099e-06
5.0389648e-06
5.4239791e-06
5.1988749e-06
7.1992653e-06
6.5292192e-06
5.677599e-06
6.2194981e-06
6.397072e-06
6.1906446e-06
1.1242233e-06
2.8021637e-06
4.7000347e-06
8.3682947e-06
9.9537015e-06
7.2948573e-06
5.3128286e-06
3.7969685e-06
1.5303231e-06
7.2713795e-07
7.2708802e-07
8.4481833e-07
5.397191e-07
6.3546508e-07
7.7994106e-07
6.1131118e-07
6.551145e-07
8.5178639e-07
1.383339e-06
8.5404457e-07
7.5618228e-07
7.849313e-07
1.2267102e-06
1.3738865e-06
1.55128e-06
1.2950856e-06
1.1008668e-06
1.2725321e-06
1.8964933e-06
1.1705471e-06
1.5634972e-06
1.4604622e-06
1.8902858e-06
2.0131194e-06
1.6186375e-06
1.4298371e-06
1.5796709e-06
2.6906688e-06
3.027696e-06
3.442541e-06
3.5511049e-06
3.7892594e-06
3.4152439e-06
2.5834239e-06
2.65292e-06
2.5190513e-06
2.3796364e-06
2.4337283e-06
3.450054e-06
3.2753576e-06
3.0431254e-06
3.3709739e-06
3.8027159e-06
3.6898467e-06
3.6973164e-06
4.2376783e-06
4.1213104e-06
4.069542e-06
4.0819997e-06
3.7482508e-06
3.6956873e-06
3.7324651e-06
3.9808791e-06
3.8910084e-06
3.6841195e-06
4.3831971e-06
4.7041816e-06
5.3489141e-06
5.4377406e-06
6.5048238e-06
8.1339715e-06
7.347861e-06
8.0717795e-06
7.4086429e-06
5.4115884e-06
2.1596217e-06
4.4753827e-06
7.6631461e-06
9.3252756e-06
6.888411e-06
4.2471226e-06
3.3241231e-06
1.9925905e-06
9.787092e-07
4.8118933e-07
4.4918607e-07
7.0088819e-07
4.6998827e-07
5.4972302e-07
6.7620409e-07
5.3844789e-07
6.2491279e-07
8.5389339e-07
1.443294e-06
1.0823099e-06
7.634218e-07
7.5595818e-07
1.1287732e-06
1.205582e-06
1.4241042e-06
1.2097976e-06
1.1031175e-06
1.851182e-06
1.6739802e-06
1.0734298e-06
1.5500337e-06
1.4656061e-06
1.5915959e-06
1.8619797e-06
1.5148394e-06
1.4678995e-06
1.6443537e-06
2.650628e-06
2.5621012e-06
2.643295e-06
2.9064929e-06
3.921229e-06
4.0152063e-06
2.5927789e-06
2.7287795e-06
2.6432287e-06
2.4354422e-06
2.4633804e-06
3.4836651e-06
4.1541047e-06
3.4580914e-06
4.1348853e-06
4.4896524e-06
4.0558133e-06
5.6959427e-06
4.8792904e-06
4.1977986e-06
4.3051749e-06
4.5449854e-06
4.2399826e-06
4.0025975e-06
3.587311e-06
3.8708184e-06
3.7497869e-06
3.6886967e-06
3.9934162e-06
4.6005102e-06
5.6964147e-06
5.4525493e-06
6.6434704e-06
7.3136119e-06
8.1299385e-06
8.7368596e-06
6.9002201e-06
4.9418034e-06
3.8070566e-06
7.1559656e-06
9.5580984e-06
7.0709875e-06
4.0686201e-06
2.3129096e-06
1.8924187e-06
1.0239668e-06
5.5779675e-07
3.6100141e-07
4.1950237e-07
6.1720991e-07
4.4671783e-07
5.0758031e-07
6.5449919e-07
5.3866636e-07
6.0999864e-07
9.0830929e-07
1.0654973e-06
1.1285298e-06
7.8938285e-07
7.731218e-07
1.1058186e-06
1.1723813e-06
1.2311505e-06
1.0291678e-06
1.1372278e-06
2.0594515e-06
1.5730673e-06
1.0377066e-06
1.6070581e-06
1.5382174e-06
1.6189385e-06
1.6269431e-06
1.4436936e-06
1.4603114e-06
1.6081523e-06
2.8751816e-06
2.4541906e-06
2.0641563e-06
2.8473674e-06
3.8578763e-06
3.9789229e-06
2.5799982e-06
2.6054151e-06
2.6408215e-06
2.4788406e-06
2.5071424e-06
2.9024691e-06
4.4853532e-06
4.4059255e-06
4.8018299e-06
4.9535133e-06
4.2138353e-06
7.9227531e-06
4.835398e-06
4.0914814e-06
4.9128958e-06
4.8276207e-06
4.9017392e-06
4.2794228e-06
3.7545013e-06
3.6035632e-06
3.6252977e-06
3.7414577e-06
3.9078426e-06
4.6163877e-06
5.9020016e-06
5.7393675e-06
7.2618741e-06
8.0961391e-06
9.3156454e-06
7.245508e-06
5.4786607e-06
4.8066703e-06