/*--------------------------------*- C++ -*----------------------------------*\
| =========                 |                                                 |
| \\      /  F ield         | OpenFOAM: The Open Source CFD Toolbox           |
|  \\    /   O peration     | Version:  2.3.0                                 |
|   \\  /    A nd           | Web:      www.OpenFOAM.org                      |
|    \\/     M anipulation  |                                                 |
\*---------------------------------------------------------------------------*/
FoamFile
{
    version     2.0;
    format      ascii;
    class       volScalarField;
    location    "1.2e-05";
    object      p_rgh;
}
// * * * * * * * * * * * * * * * * * * * * * * * * * * * * * * * * * * * * * //

dimensions      [1 -1 -2 0 0 0 0];

internalField   nonuniform List<scalar> 
7500
(
-7317.716
-7170.0348
3954.6433
3062.9276
-6544.4245
2022.8536
33865.703
-12564.815
6251.2862
10828.272
4874.2172
23340.587
-12025.149
20723.877
-1565.9592
26561.409
-12314.506
17184.694
22245.966
-12719.559
34720.14
-4112.6809
20205.256
20160.618
2142.0049
15481.856
24452.308
10367.097
17019.498
31238.864
18018.074
68581.948
8936.409
5598.6016
56820.963
39869.878
-30386.842
71854.92
48030.629
9536.4951
96915.265
62946.906
9628.378
17630.892
47909.845
92730.654
133332.41
-32423.039
-43582.233
90140.234
24613.237
-4096.0898
110999.81
19884.171
351.88611
64671.749
56007.573
-38913.803
-24323.29
63497.096
-65921.05
-27470.859
56846.215
-26018.531
21285.355
28283.058
943.72183
77930.118
-4890.3073
-30105.577
40970.611
-12053.792
-27993.889
34419.477
32583.16
-7266.4392
-6841.7775
3506.6944
2991.8809
-5922.1354
2231.4482
32616.127
-12085.015
7269.4329
9497.1453
5749.0904
23961.502
-13146.646
21052.234
-906.47626
25157.954
-10163.577
15722.607
21789.962
-10045.161
31525.726
-1760.2192
19306.564
18837.818
5091.6075
13312.744
24381.132
10953.409
16469.195
33884.751
14929.896
67596.137
13127.756
3183.0012
56857.887
37410.096
-25583.035
70635.912
44591.192
14453.197
94101.512
62265.179
11568.222
15664.542
51208.3
93155.32
127339.78
-27215.128
-42308.841
82740.262
27869.537
-407.09278
105423.99
23706.454
2637.683
59702.746
55733.503
-35004.594
-25300.473
62102.118
-62788.101
-26239.038
53585.968
-27824.725
21564.23
28924.681
2536.2748
79740.316
-7933.2965
-33617.828
43865.469
-13409.967
-24891.004
37108.22
29475.806
-7608.2585
-6575.0742
3768.7725
3161.9708
-5925.0295
2103.7847
32547.206
-12894.539
7729.9708
10617.111
4710.3056
23733.849
-11273.629
19115.509
387.53935
23505.03
-8678.4941
16219.349
18829.507
-6316.2624
28380.368
403.30354
18337.014
16943.865
8535.3961
10855.373
24633.429
11712.475
14293.91
38743.454
12580.802
63059.511
20255.49
-129.82093
57138.011
33052.842
-18845.538
70566.526
35565.09
22859.839
91482.717
59359.901
16548.687
12591.294
54629.261
96689.772
114056.24
-21865.65
-31964.953
71339.352
27472.574
8557.4867
95158.696
26547.714
10304.908
55578.099
50157.232
-27650.549
-23268.085
53877.605
-58340.708
-23936.69
49659.579
-28577.383
21392.518
29583.82
4141.6482
81255.648
-9714.0141
-38137.112
45794.724
-16100.027
-20958.654
44233.566
27072.613
-8564.8304
-5962.2155
4674.8997
2344.0825
-5112.374
2226.3743
31205.708
-12533.804
7491.4614
11469.489
4958.5998
22259.451
-9921.3788
18168.49
2002.6256
20106.935
-5256.5188
15611.916
15318.156
-2.1526516
22088.078
4951.4161
18222.596
12057.194
14419.581
7361.5995
23144.402
15475.693
9973.9874
44049.735
11842.783
56111.856
29447.326
-3372.1844
56664.948
26751.789
-8814.3947
69805.691
24309.556
34639.401
87110.341
55277.272
22144.086
9011.475
59886.844
100933.26
97141.358
-14677.67
-18760.545
56414.089
27467.424
20350.441
80056.218
31509.706
19871.434
48638.372
45712.787
-21972.185
-21563.147
43463.845
-51858.156
-21266.669
45422.64
-29190.89
22568.084
30906.877
3105.154
81788.469
-11928.374
-42012.368
50377.433
-16666.076
-20409.426
48293.223
25706.173
-9447.8887
-5503.304
5493.1833
1741.0848
-4386.9796
2743.7289
29164.582
-11696.023
7371.5525
11481.919
5914.7204
21519.665
-9672.0399
16555.294
5547.1343
15418.811
-1773.3093
15988.055
10925.94
6383.3643
16485.023
8988.0114
18285.889
7880.6935
19641.953
4303.2444
20984.23
18968.757
7327.1345
46860.577
11814.82
50010.866
36402.843
-3105.383
54087.012
18891.23
5038.9165
66863.825
14046.856
46570.399
82821.734
52019.182
25379.218
6627.7333
67987.345
99599.024
80194.587
-1859.3655
-6895.5704
40122.896
28272.64
32392.434
63627.022
37864.811
31470.656
38804.274
40732.859
-14706.807
-21710.802
30667.538
-42499.662
-19006.994
41343.736
-28777.087
22286.073
34068.362
3270.1945
79756.675
-13639.736
-43134.09
49233.911
-16844.724
-18224.022
51626.153
24133.814
-10352.82
-4920.7042
6108.5873
1647.1919
-3825.529
2871.4073
27425.291
-11100.005
7260.4847
11877.07
6042.1401
21290.124
-8581.1039
13955.207
8351.384
12473.695
755.21581
15012.622
9435.5843
10552.122
11600.717
13486.948
16514.472
5948.174
23640.834
1691.6675
19850.18
20024.839
7254.7817
48205.679
9925.3888
47837.116
38940.418
-1712.3029
51894.334
11264.22
19769.376
59289.307
9489.7712
56714.439
76361.862
52570.375
26747.526
4556.3748
78909.946
95781.872
61074.089
13476.727
3447.7159
23344.847
32865.193
43165.355
45549.02
47083.644
43131.917
29396.049
34910.721
-8653.4518
-20794.967
15323.675
-32742.483
-15402.145
35741.9
-25114.523
19277.339
34499.584
9514.9515
73866.693
-16752.509
-37398.789
45262.291
-21464.367
-14959.825
54727.459
23385.884
-11241.302
-4320.0355
7022.3389
1084.9053
-3042.2789
3249.0087
24835.829
-9619.6309
6568.9034
13044.212
5820.5665
19988.74
-6227.0198
11813.002
9628.3953
9875.1736
4381.3599
12594.04
8622.5924
14646.286
7517.8415
16805.084
15020.895
5167.5437
25557.75
776.70847
18564.154
20086.64
9441.1743
46472.804
9415.7308
46620.543
39686.223
394.56074
47347.692
7830.5283
33016.001
47497.921
10104.291
65314.186
69579.163
53934.436
25344.342
7842.0969
86034.018
90620.466
48688.494
23817.659
13313.807
9493.691
33655.02
53230.21
33129.566
54157.605
51327.78
25083.505
31693.279
-6813.4298
-19414.612
1995.0474
-28676.582
-10949.475
29046.952
-19623.804
18794.161
32169.795
17119.102
68746.426
-20967.273
-31671.103
40600.23
-23582.912
-12284.595
53312.333
23768.582
-12155.187
-3744.0924
8173.2912
477.21931
-2549.9253
4213.7428
21732.197
-7807.8039
5612.104
14195.423
6326.9355
17715.175
-4022.3836
10165.894
11135.62
7612.055
6237.8379
12076.982
7697.0425
15840.142
7446.5465
18007.409
12834.635
7226.0099
24160.533
1115.7418
18054.666
18410.993
14955.529
40287.07
12350.945
45932.059
36016.951
6427.7065
39410.804
8468.8606
43946.507
34080.726
14338.043
70394.152
64301.531
56063.774
21195.9
15597.72
90397.852
78898.614
45714.596
32371.386
16794.084
3943.7116
32496.298
55878.33
29421.508
60841.513
51319.652
25218.13
34030.871
-8378.1363
-21186.143
-3269.6027
-27649.565
-12898.794
23788.235
-15586.36
15592.277
36638.228
26474.197
58177.347
-17421.409
-25979.793
29805.612
-20037.236
-10495.507
46950.963
23497.085
-13039.196
-3543.6851
9500.3799
316.15209
-2542.0116
5162.847
18885.296
-6067.1566
4676.6397
14896.976
7344.6172
15747.409
-2540.816
8640.0299
12092.775
7561.5474
6063.7743
10882.905
9983.8148
13729.676
8513.2886
20037.92
9574.9087
9847.0364
22602.409
1163.076
17550.75
17189.747
20276.213
33695.928
17687.832
45072.04
30000.92
13034.064
31838.161
11225.446
50076.001
24185.258
20053.324
71066.962
62675.529
52992.712
22275.586
27197.751
86900.019
68972.703
45264.089
39066.26
16679.661
3146.9094
32047.304
52725.992
30302.123
68685.909
47713.485
26839.013
36817.578
-9769.9854
-25455.3
-6888.0647
-20676.494
-17849.332
14697.492
-10909.602
2758.3326
42372.655
47560.742
39333.349
-8626.9335
-12974.958
10206.954
-16359.044
-2893.8054
37782.595
21043.374
-13768.092
-3338.3521
10402.401
636.20958
-2477.5033
5395.6086
16415.324
-4374.8287
4046.9809
15484.118
7634.0424
14884.065
-1574.965
7540.3393
12194.147
7523.1143
7230.5704
8476.5271
11959.012
13143.672
8529.6244
20749.829
9253.6834
10391.585
20121.645
3558.9894
14833.592
18581.668
22954.518
26802.459
28825.424
39547.435
26410.272
17330.212
26590.658
16548.026
47449.657
18793.381
29210.291
67435.379
64733.959
45048.564
22156.739
47548.88
74533.783
62064.54
50132.027
40812.731
15004.508
4318.7022
31779.475
46772.503
34883.691
72605.063
45230.521
34184.093
37662.037
-13126.416
-28618.902
-9882.1195
-16474.324
-18558.468
8355.5834
-5246.737
-14275.116
36292.877
70718.478
21556.908
47.423495
10582.377
-6467.223
-24066.432
4586.2342
33982.437
17437.115
-14478.884
-3116.7467
10979.934
816.10314
-1946.4543
5328.8721
13930.19
-2777.4992
3577.9904
16707.357
6814.8446
14554.103
-295.46032
6020.0487
13172.038
6424.7243
7672.3662
8805.6327
11465.427
12827.49
11042.371
17886.718
10935.87
11737.053
14853.666
6927.3077
12837.724
20049.291
25070.937
19626.465
43285.955
30506.23
25235.734
19254.694
23078.216
25743.576
38155.513
15953.497
37226.083
68337.43
62660.18
37494.252
21659.087
65438.235
63050.244
56853.644
56813.139
39892.818
14141.894
4516.4512
32169.749
42088.871
40171.779
69627.509
43674.595
45257.552
37125.45
-12964.804
-30384.657
-14904.638
-13345.143
-21537.16
2114.5168
3246.4659
-21499.73
28207.479
78718.396
15830.951
-2729.0913
21679.38
-2116.7921
-24810.753
3783.9423
32153.888
17539.576
-15085.223
-2875.9143
11470.428
745.199
-1358.7858
5564.0517
11374.205
-1323.3917
2915.5838
18491.621
6090.2159
13268.247
2113.799
4110.5721
13826.231
6885.5476
5957.0709
9721.8107
12547.916
10460.2
14447.089
15593.41
11819.398
12542.688
11637.666
6780.8406
13912.843
21146.701
22806.712
19089.573
55839.661
18112.349
27163.982
19346.448
20624.472
36066.812
26616.355
17224.349
39125.988
73387.107
60578.769
27908.59
25910.678
75551.518
57271.19
54179.744
62972.655
35341.965
16391.255
4641.7873
27868.328
43144.987
44706.678
61806.618
44210.945
50319.515
35935.902
-11790.132
-30269.827
-14107.488
-13276.536
-20871.965
823.11763
1760.4032
-17898.203
27668.535
73463.276
14372.964
-2195.6703
16618.47
-2473.7521
-14980.033
6314.4995
29802.409
17623.194
-15715.916
-2717.7216
12010.181
752.41232
-1019.6465
5928.4359
8935.1424
293.73905
2115.3339
19817.441
6719.4875
10692.299
4247.1386
4041.7246
12535.903
7896.529
5897.376
8051.5963
14256.629
10473.022
14602.112
14100.935
15381.014
9117.7757
11455.173
6256.8168
13963.289
25764.597
13172.436
25122.864
67057.52
4697.0534
28724.962
19906.65
17081.017
44555.405
16356.949
17935.205
42575.536
72734.585
59986.339
22090.202
30027.138
74595.575
58817.374
56221.281
63595.641
34942.985
15865.026
5146.4891
25163.999
46392.085
47180.609
58553.924
43239.688
49395.578
35975.746
-11400.9
-31424.681
-13221.565
-13146.594
-20348.032
3478.3568
-1928.0346
-21389.876
34993.745
78463.933
13789.203
-594.38705
19396.137
-8120.2847
-23097.415
7063.5474
29306.667
16022.43
-16239.535
-2612.1957
12387.225
1103.2436
-784.63058
6064.2008
6449.5832
2082.444
1968.4385
19887.638
8102.018
9026.8878
4111.2323
5465.0667
11975.661
6420.0714
8049.9001
6862.3737
12767.088
13756.876
14888.268
9464.3724
21226.841
6304.196
8331.8585
9492.5145
11276.431
30863.396
2275.1403
33321.324
73235.969
-2271.397
27862.864
20076.728
14829.099
46312.912
16115.04
19003.095
43549.198
73616.989
55371.118
22404.518
33033.182
70305.445
56037.509
58034.345
64443.596
35457.772
15789.418
4983.1605
26524.851
41529.134
48983.338
60983.647
44313.504
50964.372
30847.717
-11002.666
-27617.971
-14850.135
-14133.247
-21747.707
-1457.9493
83.49218
-19444.851
28656.575
75682.612
11287.6
875.7351
20148.266
-4575.2906
-18968.347
8190.4147
29268.324
16239.848
-16656.83
-2461.0868
12413.312
1669.2523
-264.16942
5997.7038
3830.9765
3433.7818
2951.4698
19564.72
7967.9543
9609.8272
3676.6551
4845.1081
13593.435
4423.9784
8674.2333
7926.9579
10032.902
15571.687
17883.142
5457.8326
22186.807
8562.6192
2635.9943
12033.421
11008.791
30294.707
-2102.5698
38428.319
73409.365
-2574.1426
27820.906
19055.06
15713.233
43559.97
16135.714
20798.224
44495.52
75554.037
57368.324
18056.519
33056.848
76018.273
54842.357
58851.775
64656.275
33631.495
17040.081
6001.4353
25639.28
46406.482
46593.374
51508.236
43467.333
53070.633
29512.016
-10523.886
-24109.711
-16775.263
-14454.628
-23323.894
-9546.6317
3025.6638
-18633.223
24656.911
68769.434
6537.5333
2662.0399
21152.329
-14227.859
-22612.851
9503.8944
28230.946
15760.294
-16920.344
-2203.8034
12096.211
2210.2761
527.53338
5987.24
1389.9094
4088.5851
4088.531
20644.885
5852.3625
9571.9909
6314.0904
2489.5897
13760.436
4879.8928
7773.5966
7871.7422
9163.5066
15291.199
18677.894
6909.0735
19015.632
8949.7742
2707.9396
12813.499
11198.744
29985.966
-4916.9255
40481.888
74716.169
-2952.4426
29517.571
18231.655
16839.886
42317.506
12690.512
22358.115
45114.056
72482.556
57226.597
22723.16
28992.929
68533.207
55214.221
57110.883
63676.745
34163.867
16931.162
7255.1877
18982.522
41952.689
55381.648
45747.379
42102.638
52997.496
25637.472
-10223.341
-21551.262
-16312.649
-17886.755
-29031.647
-15465.615
3165.1146
-20703.423
8944.634
53317.843
-3019.3675
5072.6996
21751.243
-19077.324
-24836.066
13284.846
28368.513
14301.025
-17076.243
-1845.4058
11615.212
2565.7899
1417.7067
5957.2375
-631.02397
4911.0001
4031.0724
22916.492
4663.8183
6283.3046
9905.9726
2784.9543
10829.594
5358.062
8863.1305
5259.2652
8633.1674
14855.711
19719.47
7266.2253
19215.153
7057.9616
2449.7611
14424.987
11976.636
30348.171
-5846.8228
40798.768
75438.283
-3715.1694
29652.04
18437.851
13769.897
40956.029
16074.146
20714.863
44125.067
71520.12
50925.827
17336.834
28933.625
65865.695
54456.655
58977.32
62832.281
32543.153
15062.642
6244.145
15450.335
38609.812
50297.048
43082.69
41963.021
53218.559
21278.302
-10685.758
-19849.786
-16254.183
-15790.49
-36989.429
-23323.785
985.12279
-20687.697
-9088.3027
31641.561
-19109.25
8175.8878
27407.948
-28825.224
-32931.209
9696.5274
30268.236
14290.294
-17174.704
-1454.9428
11137.511
2727.5464
2353.9366
5616.7695
-2690.2549
6747.6584
3657.8103
23472.919
6298.3147
2592.3701
9281.04
6242.297
8058.8277
3631.8715
9652.5206
5641.8217
8704.4225
14302.848
20438.47
8173.7756
19628.314
7620.8969
2150.6235
14337.708
11212.778
28614.077
-5413.8584
40424.686
68224.124
-3770.9803
29130.062
19071.928
14531.133
39610.277
10784.233
21760.033
42173.967
69972.842
44177.107
10996.363
27299.333
66921.058
54408.874
59950.04
61598.321
30512.266
11593.347
2972.8193
7171.2191
37328.607
58777.9
41717.522
41006.941
51012.951
19163.901
-11215.135
-19363.332
-15777.946
-16833.62
-38826.855
-27179.9
-6443.0514
-18544.24
-1859.8533
22539.725
-29271.163
7660.4463
31950.519
-22303.93
-32436.226
6353.115
31483.322
13641.059
-17277.847
-1076.952
10694.575
2830.5658
3366.8042
5054.8444
-5415.0098
8436.9649
5961.1721
20422.92
8038.7953
2259.0911
5384.2205
7698.9498
8436.3689
3454.5594
9817.1274
6092.0002
9642.6763
14264.871
20155.992
8141.0256
18200.465
7272.4779
2435.9922
13757.538
12236.881
28775.177
-4529.4631
39749.503
57522.171
-6605.2277
28464.801
18663.831
14899.14
40923.916
4590.8969
18262.983
41851.732
67630.266
39108.74
9530.468
25876.975
68028.281
52744.866
59532.974
60849.455
27554.095
8698.0904
287.29519
-4310.6582
33058.749
57520.106
34874.54
39755.351
48438.468
14376.094
-12695.942
-20762.822
-16351.038
-20909.044
-37944.007
-27672.012
-995.83085
-238.3403
10605.025
15603.387
-34187.94
15557.758
30238.747
-38897.733
-41039.727
16965.316
34271.125
14140.638
-17407.67
-712.89373
10226.965
3057.6563
4335.5989
4856.3584
-8532.8027
7285.585
11616.529
16412.477
7071.2541
3137.6616
5209.098
7899.0018
9211.7467
3783.7944
9833.8474
5290.2086
9022.0433
14188.304
19761.036
8972.7857
18464.978
6240.0876
1631.7562
13653.553
11809.186
26929.72
-5634.4314
38297.815
51497.753
-5690.2363
28664.725
18951.463
15464.192
42156.17
-1962.8043
13332.8
39952.888
65381.872
38762.815
11941.317
22278.853
73535.432
51883.548
60068.548
62248.101
25683.64
7229.0693
-294.96102
-9696.991
23899.389
51853.737
29928.286
38476.025
47648.642
11674.75
-12420.645
-21923.801
-19291.376
-26230.539
-36175.715
-29020.919
226.52628
6187.3968
17031.901
6569.1094
-39461.364
22300.597
26814.629
-58469.434
-59065.271
25113.237
34793.006
13821.927
-17515.432
-315.75773
9643.4111
3561.4408
5020.7487
5418.3253
-10635.238
2754.5707
16064.782
16750.635
6655.5971
4077.4968
5870.9992
7811.7863
8845.7366
3026.0474
9992.2706
5455.5087
9288.3062
14266.385
19114.665
9282.771
18455.272
5389.6709
325.77224
13588.039
13019.105
26644.177
-4614.6528
36818.373
47517.702
-5584.7096
27784.289
19677.273
16337.459
43633.154
-9615.0648
8487.2099
37080.849
62512.805
40119.895
13151.005
23322.466
78062.25
50010.191
59875.531
61682.303
22419.789
4944.6915
-183.55351
-13285.341
17705.332
50084.59
25544.389
37522.601
48419.033
8165.2537
-6159.3751
-20856.17
-22239.181
-28427.66
-36939.691
-33138.664
-2471.2582
1246.2714
19747.3
761.37409
-47613.624
26632.611
29644.314
-69784.697
-37014.179
44070.513
49523.987
14760.538
-17506.927
98.85568
8972.5556
4242.7336
5487.1
6164.4936
-10733.275
222.21722
16705.788
17918.096
6783.8036
3698.9023
5486.5724
7580.2817
8895.9768
3209.8236
10158.892
4865.6608
8873.3877
14009.081
18644.197
10011.459
18280.423
4884.8663
177.14824
12780
12469.758
26658.651
-3445.8156
33107.818
44893.071
-4858.1298
26894.687
17608.97
16880.852
44666.126
-8881.9374
-6912.935
30696.097
55497.162
41348.482
15581.785
23390.9
76514.612
49256.941
60416.14
59942.179
17941.377
3085.6407
-497.36209
-16899.336
15170.992
48253.605
21486.575
38371.657
55287.447
1521.0897
-10092.303
-21956.964
-26662.177
-31606.847
-40040.063
-38933.132
-5912.3392
4544.2545
24024.314
-7348.7341
-58098.065
32384.385
19036.927
-89333.716
-24753.038
52808.598
50255.646
14412.918
-17415.019
523.21315
8372.1953
4772.3367
6129.1258
6062.7159
-9821.8599
5.7823102
17086.944
17574.796
6590.9883
3827.2325
5748.5037
7407.1163
8506.3908
2888.1296
10282.388
4532.5505
8516.0323
13760.079
18035.392
10323.82
17476.157
5034.1924
605.36743
11981.42
12984.808
25899.105
-2920.3658
28409.922
41729.09
-4090.6241
26700.041
17532.041
17037.845
45092.621
-4805.9241
-9799.5957
27857.425
41006.307
44531.524
20016.814
22308.431
73639.168
48650.757
60783.741
59478.539
14396.21
1044.9676
-93.468126
-21449.594
12655.503
44734.8
13108.005
32389.084
54785.684
981.93726
-16308.594
-19958.25
-29869.39
-35819.494
-46440.441
-47460.404
-7473.422
6867.349
27754.478
-13796.827
-65085.986
44469.283
14029.803
-102380.07
-34277.436
49814.498
49374.907
14718.739
-17601.275
1005.9664
8052.4274
4897.0089
6732.5335
6137.1599
-8753.9488
-261.08718
16759.327
17686.858
6461.9937
3878.1473
5608.418
7039.0596
8181.5705
3256.6092
10321.335
4313.3921
8147.8382
13537.802
17410.658
10451.319
16692.39
5963.36
1476.3726
11350.907
12636.1
24631.008
-2866.3528
24348.168
38794.007
-2307.3996
27696.788
19980.323
17964.091
43870.167
839.87529
-4487.7972
27934.086
35774.09
46795.673
29982.784
20771.994
61590.177
46201.215
59947.97
56678.39
10279.307
248.55364
-618.18818
-33663.857
14693.57
57244.448
10050.001
31048.657
53530.54
1328.677
-12449.024
-16131.055
-34550.102
-39588.866
-48904.99
-53755.934
-11660.771
12683.515
28539.359
-6703.6009
-60568.213
54412.923
15683.318
-99088.406
-25305.56
51748.811
51843.96
15030.826
-18768.001
1698.0331
8060.3688
4833.7899
7030.9384
6270.7405
-8936.5753
-264.9753
16712.265
17474.418
6238.8569
3898.7348
5642.2435
6546.0904
7877.7808
3259.7965
10289.179
4263.5497
7793.5945
13275.38
17066.425
10539.926
15919.164
6507.4589
2180.3248
10782.3
11940.358
23775.922
-1124.663
23047.365
35960.876
-1915.5915
28146.857
20789.062
16939.707
40708.79
5424.5919
-28.098427
27793.464
36619.177
46990.692
27275.471
16449.618
43764.371
43658.434
58413.37
52103.084
3979.5534
-1129.2829
-1138.0625
-50407.431
20675
70509.832
7818.6004
28993.382
53116.254
1110.3434
-6877.5408
-15382.035
-39101.035
-39486.705
-46717.759
-53944.383
-15908.963
18127.648
27430.864
1985.9334
-37036.311
51087.16
14404.73
-86660.589
-5716.2323
53640.982
49712.726
14298.133
-20781.146
2659.8678
7744.7759
5129.2212
6962.1292
6035.3346
-8787.2396
-366.62838
16476.923
16875.098
6061.4819
3888.8665
5465.7811
5973.326
7697.183
3933.2277
10078.808
4085.9086
7321.6159
12945.615
17078.006
10537.267
14907.483
6886.5907
1582.945
9642.9028
11294.204
23383.758
153.457
23563.77
33374.903
-2858.0846
27456.644
21879.806
17084.667
35516.178
5303.5079
4598.9838
28405.615
39197.49
46068.526
16321.935
7268.7361
24589.482
40779.74
57999.907
50146.804
-1312.3819
-2543.0262
-2077.1994
-62683.744
26630.935
81781.261
323.31805
26224.273
52691.876
3099.9705
-2757.1596
-17289.107
-41915.987
-40210.866
-43737.812
-51990.291
-18243.034
12799.282
23315.679
8041.8078
-21620.074
36496.97
10097.896
-69266.708
-1560.0988
53167.404
47444.787
14613.283
-20328.265
2974.8604
6716.1527
5544.8553
6832.7529
5873.3653
-8753.9866
-546.78024
16054.646
16246.149
5921.4873
3976.4255
5397.1461
5403.916
7586.2192
4333.6706
9895.463
4041.1386
6863.7051
12563.612
17032.817
10133.404
12571.008
7127.6512
208.26322
8170.0663
10323.27
23166.563
1269.2981
24236.948
31224.047
-2579.4486
26817.789
21602.121
16454.614
31941.944
2178.3865
4820.3721
28744.004
44236.426
42253.011
-1364.2017
2523.0518
11677.571
37519.346
58444.15
49223.85
-1855.3861
-2658.8101
-6590.348
-71416.885
32500.529
96314.813
-12832.045
14116.879
53510.245
4155.1299
-296.19119
-20706.97
-47453.59
-43467.096
-44231.414
-50501.849
-20919.887
7997.9418
14965.4
13143.676
-17127.754
17956.342
2964.7516
-62180.464
-3144.7906
54136.886
43355.094
12942.476
-11342.635
1502.6635
6042.5624
5763.7972
6796.3313
5727.1938
-8595.3026
-528.85097
15533.808
15720.628
5778.1433
3985.5351
5290.4059
4870.6873
7540.357
4701.3605
9761.1891
4339.0345
6373.9605
11805.308
17052.291
9467.7759
10788.249
7083.2896
-1666.5493
7667.9276
9497.7565
22606.775
2333.9695
24306.338
28486.417
-2810.6581
26396.908
20757.141
16237.353
24658.995
5525.7235
28632.655
25223.815
46933.67
35663.163
-15472.592
1113.0602
11742.512
36408.013
57849.523
45800.08
-1618.7297
-951.25076
-14893.497
-83363.181
35325.015
96777.647
-16041.809
6994.2312
48160.607
-216.65582
-831.61737
-22680.347
-50064.154
-45831.126
-47090.688
-50827.884
-25182.381
5231.1955
17520.777
17964
-18404.183
12444.693
9865.4624
-57450.124
-22377.006
49194.84
37545.218
11567.319
5535.3514
841.54442
5889.0662
5754.7166
6797.1587
5611.9493
-8412.7256
-400.47468
15010.264
15285.395
5665.3583
3981.752
5174.8675
4418.5744
7398.4787
4953.7996
9645.8702
4749.7954
5881.9313
10993.856
17114.086
8449.9498
8737.4562
6930.0106
-4021.2673
7851.6326
9500.0461
21800.242
3407.2434
23707.134
26132.315
-2814.3459
25674.998
20040.152
15126.049
19849.097
20725.558
34335.486
23358.993
48229.296
30871.592
-19948.213
3593.3407
17035.406
39382.246
55621.817
39111.458
-3209.2228
-4461.7315
-16991.872
-82884.187
31669.152
82459.402
-9575.8302
8676.7314
38746.762
-659.16161
-221.07281
-18947.414
-50086.093
-48813.27
-50137.981
-58430.239
-29847.623
3039.0906
13691.71
19025.741
-10165.483
32709.71
19993.166
-51260.793
-17732.309
46236.255
28977.532
8645.8286
8458.4529
2474.0111
5733.1286
5788.3888
6812.7122
5522.617
-8333.7358
-317.41893
14495.812
14898.879
5588.9904
4026.5372
5078.2545
4032.316
7307.5059
5042.673
9531.1396
5010.6868
5483.6214
10416.976
17076.888
6992.155
7112.1421
6653.2315
-6330.8194
7345.3375
10232.6
21567.815
4646.5408
22693.905
24437.766
-1902.5602
25021.432
19023.604
14182.724
17743.754
17151.458
33168.274
22054.987
47122.28
24367.802
-18277.216
8890.7953
21963.51
39131.708
53844.001
31166.411
-4581.921
-7604.5202
-16851.67
-75232.321
29183.77
65097.536
-10488.584
5641.8286
32437.649
-510.93714
-148.08428
-13625.418
-48163.792
-52400.29
-54186.712
-61272.585
-33926.239
-68.762649
13210.058
17486.326
2304.2497
65897.77
23300.98
-42187.884
-15694.789
26629.389
21407.866
6775.8702
-994.98577
3472.3053
5723.1371
5808.107
6881.0623
5436.4412
-8293.3251
-243.56483
14008.335
14522.109
5501.9464
4078.8831
4972.5341
3577.1677
7090.576
5066.0704
9415.342
5243.1873
5211.5259
9978.0044
16909.076
5198.4134
5756.2467
6429.962
-7501.3008
7685.8693
11239.814
20163.06
5545.2163
21451.48
23062.261
204.44994
24581.957
16341.415
12379.289
15499.002
16056.889
35380.527
23359.8
46150.633
17642.754
-16081.354
14147.911
26681.537
37685.609
51770.175
30485.438
-2936.3301
-7109.586
-24616.225
-57259.45
29799.012
41975.395
-16868.782
1486.7457
29667.112
-947.75813
-192.80296
-15149.12
-49693.423
-57545.041
-59885.838
-64453.371
-39493.453
-3675.0487
14513.331
23293.536
16936.095
65293.289
23878.389
-28857.112
-9516.7455
18311.067
14345.48
4243.1764
-1100.4179
3303.0796
5722.7833
5816.8401
6956.1607
5343.9433
-8301.7593
-240.67927
13517.096
14141.927
5425.2636
4134.0904
4840.5212
3072.2048
6651.1923
4970.9854
9057.9799
5449.3129
4929.1489
9601.2442
16761.165
3034.2203
4378.6079
5867.2422
-6649.0348
9390.2048
13016.859
18735.086
6126.6713
20838.568
21667.29
1829.4902
23524.991
12395.621
11478.914
12986.809
14777.871
36811.98
23346.07
46347.287
12876.423
-13805.793
21366.931
30035.952
36988.742
47479.551
28262.086
-479.34879
-4658.2234
-23628.479
-46705.588
24976.016
20641.913
-24065.265
-3547.6699
30581.413
-263.59421
1195.4915
-19487.568
-53594.752
-59888.968
-67070.748
-73325.223
-48326.1
-7226.8637
14510.011
28693.115
25573.626
56149.028
29468.461
-26009.094
-3335.4638
19013.582
14149.602
5100.1172
-919.32376
3454.9136
5740.5603
5829.267
7025.231
5231.9746
-8354.9677
-301.34278
13042.616
13748.605
5312.6129
4215.0469
4707.0429
2636.2791
6011.0176
4559.552
8479.7797
5706.0444
4617.9927
9247.3297
16414.791
378.19004
2924.0691
5210.5005
-3736.1113
11074.744
15432.826
17979.109
6490.8586
20872.146
19861.318
2244.7441
22333.973
7311.1881
9421.4531
10410.456
13305.45
36437.007
24009.2
47122.825
6239.2747
-12329.792
26395.913
31677.083
36769.408
42278.708
27362.628
192.24669
65.361214
-17926.577
-45502.33
27731.172
23311.063
-25992.404
-1151.9272
30818.576
343.32942
3901.4769
-20141.119
-55461.138
-62119.771
-76037.689
-81842.234
-58951.827
-9409.6088
20722.353
35873.976
26969.571
43725.151
35113.729
-9082.6413
3296.8345
9929.2506
5258.2124
3296.2349
-561.61197
3544.0663
5757.5711
5846.7218
7090.6309
5098.0662
-8443.8359
-438.22258
12562.176
13340.86
5159.0675
4317.7453
4584.042
2369.0486
5307.2563
3865.088
7555.4833
5948.3262
4131.3621
8695.9815
16138.989
-2542.504
1325.5419
4448.07
-32.550706
12171.549
17065.449
17998.684
6878.901
21198.294
16927.387
1925.3631
21050.271
1947.4816
7649.0706
7589.0467
11088.404
38054.056
23256.376
48865.233
-830.08597
-13183.549
30154.734
34064.079
37406.301
39657.923
29889.782
1699.0379
4184.1233
-12302.489
-46387.166
34979.628
40988.542
-15060.467
15912.829
32034.797
-256.88253
5954.5423
-19647.509
-55392.81
-65597.413
-86146.924
-93331.57
-66797.608
-10424.78
26983.59
42321.47
34188.872
43653.782
39375.565
-1305.3452
4064.5973
3327.564
1095.4726
-1159.3867
-194.80877
3692.8251
5776.9826
5870.0876
7150.6389
4938.5209
-8559.6266
-647.27907
12082.791
12923.065
4946.0674
4435.5931
4502.8474
2222.5034
4707.8413
3005.4126
6256.8513
6040.812
3786.3876
8270.1569
15945.659
-5238.2249
-229.78213
3298.9939
2135.2746
12985.381
17659.046
17970.231
7469.2718
20112.385
12663.139
-1374.1902
19363.427
-2824.8202
6003.8559
6071.346
12508.206
39144.902
19103.66
49534.029
-1734.6368
-12674.996
35884.594
38222.55
37694.316
38313.534
29104.285
3406.7561
6665.7568
-6954.2128
-44711.395
37221.028
51293.779
-4255.3497
36677.831
29922.786
-3323.0982
5578.4423
-21342.596
-56011.815
-69928.976
-95457.251
-104505.19
-75054.11
-10537.099
32144.219
45372.439
36458.374
50133.008
39891.318
-1347.7133
6753.6625
2904.2904
-1393.4357
-2543.2769
224.09089
3775.9602
5793.8242
5897.1873
7206.0152
4755.2444
-8693.1455
-922.48339
11591.779
12493.099
4697.8953
4553.3837
4464.7499
2211.4569
4084.8841
2105.4604
4809.5836
6270.5522
3835.6317
7905.5564
15854.75
-7159.7752
-1912.315
2378.0784
3399.3623
13116.012
17070.835
17461.015
8307.9675
18452.053
9304.8854
-1826.4153
18064.354
-5684.1246
4569.2125
3756.9391
13205.041
40103.229
16638.809
42106.269
268.57761
-13285.795
42879.057
38870.596
36884.408
36992.359
27773.875
5193.4116
8093.7863
-5726.805
-36449.599
24322.497
59288.883
651.46834
42075.253
24552.572
-11636.421
1517.7433
-27506.446
-57601.487
-75233.489
-105381.11
-120432.24
-84598.647
-12054.811
35076.731
55179.291
44089.357
47885.885
41951.216
3570.4286
10020.511
-1175.6881
-9449.2626
-7249.1298
619.98043
3941.0177
5809.9898
5926.7109
7253.2914
4548.113
-8843.1943
-1244.4616
11114.971
12030.781
4439.9381
4650.422
4453.331
2350.1694
3336.4938
1178.602
3607.2442
6788.9264
4348.3714
7567.0067
15842.388
-7838.7787
-3353.1456
1692.7241
4236.7569
13050.597
16367.559
16417.278
9119.6746
17409.884
7662.2965
-1292.2414
17549.449
-6892.8537
3181.4235
2740.8706
13906.537
39029.363
16940.526
35384.602
-2084.2832
-18422.419
45349.84
37720.195
36522.981
35196.737
27878.073
5738.6525
8953.7333
-5207.135
-34981.535
18647.26
61883.637
3129.8989
41404.097
22518.264
-18661.305
-838.37847
-36272.029
-62722.707
-81547.739
-117618.44
-142070.62
-97685.4
-15919.748
39071.903
56025.237
45477.972
47647.497
42714.172
19787.998
9970.8807
-10307.643
-13849.849
-8963.2908
1054.1868
3991.733
5821.1112
5958.0312
7295.4147
4320.8286
-9000.6594
-1603.0607
10629.701
11566.612
4216.0185
4721.8817
4448.2595
2509.0971
2561.011
304.02083
2760.5897
7425.507
5091.3721
7317.3608
15862.214
-6984.2891
-3929.8802
1018.6318
4862.0086
12999.822
15298.04
15032.885
9961.593
16733.974
7469.3523
-610.45951
16388.446
-7515.8754
1700.9911
2368.9195
13852.174
38575.641
17119.149
32942.622
-1457.0828
-15837.67
46197.096
37430.238
36863.16
33472.799
25988.803
7694.7222
11157.336
-4690.8801
-33554.774
17825.537
58984.853
4802.2097
44611.878
21527.897
-27028.088
-2334.0407
-45257.657
-69336.657
-89083.296
-130857.84
-161295.9
-109654.38
-20694.56
39530.717
59646.212
47746.183
48744.95
44131.141
17590.882
9586.9182
-10154.87
-17211.116
-7280.8493
1454.6458
4186.0986
5824.5748
5990.2795
7332.6125
4072.8583
-9171.6403
-1982.9449
10127.128
11103.873
4052.2727
4781.9657
4432.8476
2655.5271
1960.1786
-465.94887
2240.7698
7948.4011
5850.9802
7169.7421
15948.497
-5457.5942
-4201.3814
1112.5651
5883.7992
12908.213
14606.388
14547.663