/*--------------------------------*- C++ -*----------------------------------*\
| =========                 |                                                 |
| \\      /  F ield         | OpenFOAM: The Open Source CFD Toolbox           |
|  \\    /   O peration     | Version:  2.3.0                                 |
|   \\  /    A nd           | Web:      www.OpenFOAM.org                      |
|    \\/     M anipulation  |                                                 |
\*---------------------------------------------------------------------------*/
FoamFile
{
    version     2.0;
    format      ascii;
    class       surfaceScalarField;
    location    "1.2e-05";
    object      phi;
}
// * * * * * * * * * * * * * * * * * * * * * * * * * * * * * * * * * * * * * //

dimensions      [0 3 -1 0 0 0 0];

internalField   nonuniform List<scalar> 
14825
(
1.0344607e-09
-2.0699339e-11
1.0547564e-09
-2.0295675e-11
1.075166e-09
-2.0409653e-11
1.0951921e-09
-2.0026023e-11
1.1160104e-09
-2.0818314e-11
1.1361186e-09
-2.0108249e-11
1.1565901e-09
-2.0471502e-11
1.1760652e-09
-1.9475076e-11
1.1964091e-09
-2.0343899e-11
1.2155668e-09
-1.9157679e-11
1.2361636e-09
-2.0596794e-11
1.2551039e-09
-1.8940361e-11
1.2748359e-09
-1.9732005e-11
1.2942356e-09
-1.9399662e-11
1.3127039e-09
-1.8468312e-11
1.3330899e-09
-2.0386014e-11
1.3493995e-09
-1.6309573e-11
1.3711073e-09
-2.1707762e-11
1.3870017e-09
-1.5894389e-11
1.4061219e-09
-1.912021e-11
1.4255092e-09
-1.9387374e-11
1.4408169e-09
-1.5307643e-11
1.461942e-09
-2.1125089e-11
1.4771678e-09
-1.5225834e-11
1.4949811e-09
-1.7813269e-11
1.5138105e-09
-1.88294e-11
1.5277829e-09
-1.3972452e-11
1.5473776e-09
-1.9594656e-11
1.5613108e-09
-1.3933226e-11
1.5786942e-09
-1.7383421e-11
1.595506e-09
-1.6811747e-11
1.6104497e-09
-1.4943683e-11
1.6253948e-09
-1.4945113e-11
1.6423924e-09
-1.6997615e-11
1.6560212e-09
-1.3628803e-11
1.6724057e-09
-1.6384501e-11
1.6811814e-09
-8.7757459e-12
1.7039105e-09
-2.272901e-11
1.7105379e-09
-6.6274714e-12
1.7275956e-09
-1.7057659e-11
1.7407366e-09
-1.3141022e-11
1.7527071e-09
-1.1970503e-11
1.7655635e-09
-1.2856441e-11
1.7797566e-09
-1.4193024e-11
1.7883374e-09
-8.5808105e-12
1.8059901e-09
-1.7652693e-11
1.8158608e-09
-9.8707415e-12
1.8233857e-09
-7.5249097e-12
1.8382062e-09
-1.4820515e-11
1.848328e-09
-1.0121765e-11
1.8551066e-09
-6.7786152e-12
1.8676531e-09
-1.2546438e-11
1.8788102e-09
-1.1157121e-11
1.8837163e-09
-4.9061416e-12
1.8975362e-09
-1.3819881e-11
1.9038537e-09
-6.3175278e-12
1.9144426e-09
-1.0588823e-11
1.9189922e-09
-4.5496671e-12
1.9295262e-09
-1.0533985e-11
1.9365473e-09
-7.0210511e-12
1.9431116e-09
-6.5643402e-12
1.9517354e-09
-8.6238174e-12
1.9601818e-09
-8.4464114e-12
1.9653166e-09
-5.1347993e-12
1.971976e-09
-6.6594088e-12
1.9743254e-09
-2.3493124e-12
1.9812743e-09
-6.9489159e-12
1.9852542e-09
-3.979951e-12
1.9905355e-09
-5.2812936e-12
1.9941676e-09
-3.632083e-12
1.9966118e-09
-2.4441756e-12
1.9989521e-09
-2.3403339e-12
1.9995911e-09
-6.3896268e-13
2.0046052e-09
-5.0141197e-12
-2.7104077e-12
2.8626419e-09
-8.1375305e-11
2.9223108e-09
-7.9964557e-11
2.9824958e-09
-8.0594714e-11
3.0416373e-09
-7.9167463e-11
3.1029727e-09
-8.2153706e-11
3.1626444e-09
-7.9779958e-11
3.2230255e-09
-8.0852655e-11
3.2813043e-09
-7.7753844e-11
3.3417126e-09
-8.0752188e-11
3.398706e-09
-7.6151106e-11
3.460582e-09
-8.2472808e-11
3.5168601e-09
-7.5218468e-11
3.576508e-09
-7.9379907e-11
3.634407e-09
-7.729863e-11
3.690464e-09
-7.4525298e-11
3.7515695e-09
-8.1491495e-11
3.8021492e-09
-6.6889272e-11
3.8663671e-09
-8.5925726e-11
3.9164942e-09
-6.6021404e-11
3.973878e-09
-7.6504083e-11
4.0328593e-09
-7.8368605e-11
4.0809886e-09
-6.3436986e-11
4.1437887e-09
-8.3925184e-11
4.1925642e-09
-6.400131e-11
4.2466003e-09
-7.184944e-11
4.3047713e-09
-7.7000315e-11
4.3486608e-09
-5.7861989e-11
4.4095029e-09
-8.0436771e-11
4.4534201e-09
-5.7850459e-11
4.5083828e-09
-7.2346043e-11
4.5595343e-09
-6.7963248e-11
4.6086396e-09
-6.4048985e-11
4.6557504e-09
-6.2055951e-11
4.708506e-09
-6.9753188e-11
4.7536631e-09
-5.878588e-11
4.8039466e-09
-6.666806e-11
4.836983e-09
-4.181209e-11
4.9042221e-09
-8.9968133e-11
4.9304638e-09
-3.2869165e-11
4.9844101e-09
-7.1004017e-11
5.0277482e-09
-5.6479089e-11
5.0691117e-09
-5.3334037e-11
5.1118053e-09
-5.5550052e-11
5.1578415e-09
-6.0229149e-11
5.1886567e-09
-3.9395992e-11
5.2431179e-09
-7.2113949e-11
5.2776226e-09
-4.4375401e-11
5.3059083e-09
-3.581064e-11
5.3543889e-09
-6.330109e-11
5.3926077e-09
-4.8340545e-11
5.4191309e-09
-3.3301852e-11
5.4608556e-09
-5.4271187e-11
5.4996667e-09
-4.9968179e-11
5.5207606e-09
-2.6000087e-11
5.5660462e-09
-5.9105475e-11
5.5927016e-09
-3.2972893e-11
5.6302246e-09
-4.811185e-11
5.6506424e-09
-2.4967454e-11
5.6864665e-09
-4.6358031e-11
5.7130096e-09
-3.3564217e-11
5.736088e-09
-2.9642716e-11
5.7670586e-09
-3.9594401e-11
5.7938172e-09
-3.5205043e-11
5.8176374e-09
-2.8954988e-11
5.8440698e-09
-3.3091768e-11
5.8618973e-09
-2.0176819e-11
5.8875528e-09
-3.2604442e-11
5.9059495e-09
-2.2376667e-11
5.9252552e-09
-2.4586975e-11
5.9464459e-09
-2.4822736e-11
5.9602641e-09
-1.6262378e-11
5.9744094e-09
-1.6485724e-11
5.9875596e-09
-1.378907e-11
6.0068129e-09
-2.4267484e-11
-1.7886664e-11
4.366584e-09
-1.798498e-10
4.4638845e-09
-1.7726507e-10
4.5620501e-09
-1.7876029e-10
4.6589136e-09
-1.76031e-10
4.7590838e-09
-1.8232384e-10
4.85704e-09
-1.777362e-10
4.9560916e-09
-1.7990421e-10
5.0521773e-09
-1.7383958e-10
5.1521355e-09
-1.8071038e-10
5.2458023e-09
-1.6981791e-10
5.3486867e-09
-1.8535723e-10
5.4412648e-09
-1.6779659e-10
5.5410418e-09
-1.791569e-10
5.6367156e-09
-1.7297242e-10
5.7319101e-09
-1.6971973e-10
5.8325072e-09
-1.8208864e-10
5.9200255e-09
-1.5440752e-10
6.0248057e-09
-1.9070599e-10
6.1117098e-09
-1.5292552e-10
6.208281e-09
-1.7307522e-10
6.3065242e-09
-1.7661182e-10
6.3920222e-09
-1.4893499e-10
6.4948179e-09
-1.8672091e-10
6.5812053e-09
-1.5038865e-10
6.672543e-09
-1.631872e-10
6.7712514e-09
-1.757087e-10
6.8481691e-09
-1.3477966e-10
6.9529133e-09
-1.85181e-10
7.0291253e-09
-1.3406241e-10
7.1273936e-09
-1.7061436e-10
7.2110411e-09
-1.5161074e-10
7.3014781e-09
-1.5448603e-10
7.383634e-09
-1.4421184e-10
7.4729399e-09
-1.5905903e-10
7.557359e-09
-1.4320507e-10
7.640129e-09
-1.4943798e-10
7.7092725e-09
-1.1095567e-10
7.818322e-09
-1.9901763e-10
7.872041e-09
-8.6588071e-11
7.9679305e-09
-1.6689354e-10
8.0423326e-09
-1.3088121e-10
8.1191893e-09
-1.3019073e-10
8.1941513e-09
-1.3051209e-10
8.2766681e-09
-1.4274592e-10
8.3415852e-09
-1.0431307e-10
8.4375249e-09
-1.6805365e-10
8.5004659e-09
-1.0731644e-10
8.5602151e-09
-9.5559785e-11
8.6437161e-09
-1.468021e-10
8.7157399e-09
-1.2036439e-10
8.7728161e-09
-9.037807e-11
8.8477571e-09
-1.2921216e-10
8.9201652e-09
-1.223763e-10
8.9695185e-09
-7.5353378e-11
9.0488733e-09
-1.3846022e-10
9.1043927e-09
-8.8492379e-11
9.1754572e-09
-1.1917633e-10
9.2235697e-09
-7.3079899e-11
9.2877309e-09
-1.1051931e-10
9.3454707e-09
-9.1303979e-11
9.3928349e-09
-7.7006935e-11
9.4589204e-09
-1.0567987e-10
9.5116297e-09
-8.7914329e-11
9.5676031e-09
-8.4928414e-11
9.6206702e-09
-8.6158848e-11
9.6637485e-09
-6.3255153e-11
9.711211e-09
-8.0066893e-11
9.7579821e-09
-6.9147798e-11
9.7957046e-09
-6.2309486e-11
9.8491578e-09
-7.8275943e-11
9.889044e-09
-5.6148512e-11
9.9248499e-09
-5.2291698e-11
9.9622543e-09
-5.1193442e-11
9.998998e-09
-6.101117e-11
-5.5496264e-11
5.5905307e-09
-3.1390982e-10
5.7238269e-09
-3.1056127e-10
5.8581737e-09
-3.1310704e-10
5.9910434e-09
-3.0890071e-10
6.1284618e-09
-3.1974228e-10
6.2632784e-09
-3.1255277e-10
6.3996483e-09
-3.1627406e-10
6.532426e-09
-3.0661735e-10
6.671267e-09
-3.1955135e-10
6.8002893e-09
-2.9884025e-10
6.9435176e-09
-3.2858547e-10
7.0719561e-09
-2.962351e-10
7.2115369e-09
-3.1873769e-10
7.3435799e-09
-3.050154e-10
7.4786364e-09
-3.0477624e-10
7.6168426e-09
-3.2029482e-10
7.7457081e-09
-2.8327303e-10
7.8893659e-09
-3.3436384e-10
8.015351e-09
-2.7891064e-10
8.1507009e-09
-3.0842509e-10
8.2853167e-09
-3.1122764e-10
8.4138722e-09
-2.7749052e-10
8.5539084e-09
-3.2675703e-10
8.6820535e-09
-2.7853374e-10
8.8131228e-09
-2.9425653e-10
8.9531502e-09
-3.1573612e-10
9.0676284e-09
-2.492578e-10
9.2172517e-09
-3.3480437e-10
9.3261192e-09
-2.4292984e-10
9.4726622e-09
-3.1715736e-10
9.5849582e-09
-2.6390682e-10
9.7240559e-09
-2.9358368e-10
9.8418047e-09
-2.6196065e-10
9.9683e-09
-2.8555432e-10
1.0098218e-08
-2.7312277e-10
1.0212508e-08
-2.6372843e-10
1.0329527e-08
-2.2797444e-10
1.0474502e-08
-3.4399226e-10
1.0564655e-08
-1.7674187e-10
1.0706953e-08
-3.0919171e-10
1.0814873e-08
-2.388009e-10
1.0937696e-08
-2.5301332e-10
1.1053061e-08
-2.4587732e-10
1.1171214e-08
-2.6089873e-10
1.1272568e-08
-2.0566771e-10
1.1404428e-08
-2.9991362e-10
1.1500474e-08
-2.0336203e-10
1.1609057e-08
-2.0414277e-10
1.1731478e-08
-2.6922278e-10
1.1837884e-08
-2.2677022e-10
1.1932454e-08
-1.8494828e-10
1.204998e-08
-2.4673889e-10
1.2159722e-08
-2.321179e-10
1.2250388e-08
-1.6601905e-10
1.2364997e-08
-2.5306934e-10
1.2456109e-08
-1.7960454e-10
1.2567184e-08
-2.3025129e-10
1.2653362e-08
-1.5925786e-10
1.2749487e-08
-2.0664458e-10
1.2848335e-08
-1.9015206e-10
1.2927712e-08
-1.5638408e-10
1.3034408e-08
-2.1237539e-10
1.3122786e-08
-1.7629223e-10
1.3213667e-08
-1.7580988e-10
1.3303822e-08
-1.7631369e-10
1.3380946e-08
-1.4037932e-10
1.3463802e-08
-1.6292237e-10
1.3549509e-08
-1.5485451e-10
1.3610055e-08
-1.2285558e-10
1.3704237e-08
-1.7245827e-10
1.3775899e-08
-1.2781055e-10
1.3837874e-08
-1.1426691e-10
1.3907715e-08
-1.2103432e-10
1.3981593e-08
-1.3488931e-10
-1.2514085e-10
6.5735307e-09
-4.8166918e-10
6.7404721e-09
-4.7750272e-10
6.9096378e-09
-4.8227274e-10
7.0766893e-09
-4.759522e-10
7.2488158e-09
-4.9186881e-10
7.4197082e-09
-4.8344516e-10
7.5920235e-09
-4.8858934e-10
7.7608787e-09
-4.754725e-10
7.9381596e-09
-4.9683233e-10
8.1009566e-09
-4.6163718e-10
8.2833993e-09
-5.1102825e-10
8.4462423e-09
-4.590781e-10
8.6252369e-09
-4.9773227e-10
8.7931069e-09
-4.7288535e-10
8.969077e-09
-4.8074634e-10
9.1428868e-09
-4.9410462e-10
9.3144816e-09
-4.5486783e-10
9.4927243e-09
-5.1260655e-10
9.6617726e-09
-4.4795894e-10
9.8371548e-09
-4.8380729e-10
1.0010008e-08
-4.8408076e-10
1.018077e-08
-4.4825226e-10
1.0354126e-08
-5.0011377e-10
1.0528677e-08
-4.5308386e-10
1.0700568e-08
-4.6614815e-10
1.0882549e-08
-4.9771657e-10
1.1036915e-08
-4.0362394e-10
1.1232413e-08
-5.3030245e-10
1.1375685e-08
-3.862016e-10
1.1574032e-08
-5.1550484e-10
1.1712091e-08
-4.0196568e-10
1.190613e-08
-4.8762233e-10
1.2060086e-08
-4.1591739e-10
1.2226563e-08
-4.5203094e-10
1.2404701e-08
-4.5126096e-10
1.2551416e-08
-4.1044356e-10
1.272175e-08
-3.9830789e-10
1.2894449e-08
-5.1669207e-10
1.3031822e-08
-3.1411403e-10
1.3220921e-08
-4.982914e-10
1.3367673e-08
-3.8555211e-10
1.3540619e-08
-4.2595948e-10
1.3700565e-08
-4.0582368e-10
1.386051e-08
-4.2084316e-10
1.4018432e-08
-3.6359039e-10
1.4190287e-08
-4.71768e-10
1.4322735e-08
-3.3581053e-10
1.4465978e-08
-3.4738595e-10
1.4620647e-08
-4.2389203e-10
1.4770609e-08
-3.7673164e-10
1.4925454e-08
-3.3979368e-10
1.5083947e-08
-4.0523125e-10
1.5226916e-08
-3.7508697e-10
1.5378411e-08
-3.1751421e-10
1.5530921e-08
-4.0557909e-10
1.5663391e-08
-3.120745e-10
1.582324e-08
-3.9010077e-10
1.5951141e-08
-2.8715894e-10
1.6085486e-08
-3.4098926e-10
1.6231248e-08
-3.3591412e-10
1.6354194e-08
-2.7932975e-10
1.6500279e-08
-3.5846035e-10
1.664317e-08
-3.1918379e-10
1.6770138e-08
-3.0277804e-10
1.691195e-08
-3.1812523e-10
1.7017563e-08
-2.4599288e-10
1.7145023e-08
-2.9038223e-10
1.7263762e-08
-2.7359292e-10
1.7364716e-08
-2.2381031e-10
1.751138e-08
-3.1912173e-10
1.7635862e-08
-2.5229235e-10
1.7727499e-08
-2.0590392e-10
1.7844296e-08
-2.3783144e-10
1.7954849e-08
-2.4544291e-10
-2.3553589e-10
7.348921e-09
-6.8074361e-10
7.5471997e-09
-6.7578144e-10
7.7500859e-09
-6.8515895e-10
7.9499946e-09
-6.7586088e-10
8.1536345e-09
-6.9550865e-10
8.3614058e-09
-6.9121649e-10
8.5666007e-09
-6.9378426e-10
8.7716126e-09
-6.8048436e-10
8.9870884e-09
-7.123081e-10
9.1817642e-09
-6.5631298e-10
9.4026591e-09
-7.3192316e-10
9.5981805e-09
-6.5459952e-10
9.8154893e-09
-7.1504104e-10
1.001888e-08
-6.7627564e-10
1.02337e-08
-6.9556631e-10
1.0443476e-08
-7.038812e-10
1.0658257e-08
-6.6964895e-10
1.0871147e-08
-7.2549663e-10
1.1087164e-08
-6.6397596e-10
1.1295658e-08
-6.9230129e-10
1.1510671e-08
-6.9909325e-10
1.1723294e-08
-6.6087586e-10
1.1932651e-08
-7.0947065e-10
1.2150595e-08
-6.7102801e-10
1.2360916e-08
-6.7646841e-10
1.2589144e-08
-7.2594534e-10
1.2784292e-08
-5.9877134e-10
1.3025957e-08
-7.7196783e-10
1.3206762e-08
-5.6700671e-10
1.345828e-08
-7.6702245e-10
1.3620941e-08
-5.6462643e-10
1.3876415e-08
-7.4309666e-10
1.4060853e-08
-6.00355e-10
1.4275421e-08
-6.6659881e-10
1.4498557e-08
-6.7439724e-10
1.4685789e-08
-5.9767562e-10
1.4915697e-08
-6.2821587e-10
1.5117139e-08
-7.18134e-10
1.5311138e-08
-5.0811368e-10
1.5540153e-08
-7.273063e-10
1.5728384e-08
-5.737831e-10
1.5946514e-08
-6.4408949e-10
1.6152564e-08
-6.1187357e-10
1.6360504e-08
-6.2878334e-10
1.6576611e-08
-5.7969664e-10
1.6786035e-08
-6.8119199e-10
1.6972137e-08
-5.2191285e-10
1.7177349e-08
-5.5259836e-10
1.7373706e-08
-6.2024849e-10
1.7555562e-08
-5.5858807e-10
1.7753754e-08
-5.3798583e-10
1.7948804e-08
-6.0028101e-10
1.8145524e-08
-5.7180712e-10
1.8371846e-08
-5.4383626e-10
1.8554897e-08
-5.8862944e-10
1.8740645e-08
-4.978231e-10
1.8959058e-08
-6.0851394e-10
1.9136137e-08
-4.6423717e-10
1.9305025e-08
-5.0987721e-10
1.9509129e-08
-5.4001819e-10
1.9684479e-08
-4.5467988e-10
1.98703e-08
-5.4428108e-10
2.0067581e-08
-5.1646478e-10
2.0243186e-08
-4.7838391e-10
2.0442529e-08
-5.1746803e-10
2.059053e-08
-3.9399334e-10
2.0780478e-08
-4.8033032e-10
2.0951394e-08
-4.4450958e-10
2.1082701e-08
-3.5511643e-10
2.1268842e-08
-5.0526278e-10
2.1429624e-08
-4.1307468e-10
2.1574103e-08
-3.5038299e-10
2.1760955e-08
-4.2468312e-10
2.1915575e-08
-4.0006292e-10
-3.9512009e-10
7.9450599e-09
-9.07567e-10
8.1741349e-09
-9.0485639e-10
8.4077154e-09
-9.1873952e-10
8.6413318e-09
-9.0947724e-10
8.8730529e-09
-9.272298e-10
9.1186689e-09
-9.368324e-10
9.3536513e-09
-9.2876675e-10
9.5926501e-09
-9.1948312e-10
9.8452698e-09
-9.6492784e-10
1.0069556e-08
-8.8059926e-10
1.0330385e-08
-9.9275247e-10
1.0556484e-08
-8.8069836e-10
1.0812106e-08
-9.7066239e-10
1.1051747e-08
-9.159166e-10
1.1302814e-08
-9.4663341e-10
1.1550419e-08
-9.5148606e-10
1.1802662e-08
-9.2189257e-10
1.2049601e-08
-9.724359e-10
1.2312449e-08
-9.2682352e-10
1.2551292e-08
-9.3114381e-10
1.2816345e-08
-9.6414693e-10
1.3063388e-08
-9.0791834e-10
1.3316414e-08
-9.6249713e-10
1.3577105e-08
-9.3171852e-10
1.3823739e-08
-9.2310285e-10
1.4097923e-08
-1.000129e-09
1.4332394e-08
-8.3324304e-10
1.4627265e-08
-1.0668387e-09
1.4844216e-08
-7.8395778e-10
1.5147218e-08
-1.070024e-09
1.5341999e-08
-7.5940784e-10
1.5657289e-08
-1.0583862e-09
1.5870234e-08
-8.1330001e-10
1.61404e-08
-9.3676532e-10
1.640273e-08
-9.3672637e-10
1.6636058e-08
-8.3100446e-10
1.692438e-08
-9.1653795e-10
1.7154406e-08
-9.4815994e-10
1.7416032e-08
-7.6973975e-10
1.7683474e-08
-9.9474827e-10
1.7935166e-08
-8.2547414e-10
1.8197731e-08
-9.0665514e-10
1.845165e-08
-8.6579245e-10
1.8709389e-08
-8.8652214e-10
1.8970409e-08
-8.4071698e-10
1.9211095e-08
-9.2187754e-10
1.9447719e-08
-7.5853732e-10
1.9711295e-08
-8.161741e-10
1.9961417e-08
-8.7037041e-10
2.0194192e-08
-7.9136285e-10
2.0473299e-08
-8.1709276e-10
2.0708788e-08
-8.3577089e-10
2.0921612e-08
-7.8463099e-10
2.1214641e-08
-8.3686517e-10
2.144353e-08
-8.175178e-10
2.1679156e-08
-7.3344935e-10
2.197114e-08
-9.0049797e-10
2.2218786e-08
-7.1188375e-10
2.2425968e-08
-7.1705905e-10
2.2679681e-08
-7.9373137e-10
2.2924094e-08
-6.9909227e-10
2.3157291e-08
-7.7747779e-10
2.341207e-08
-7.7124468e-10
2.3632996e-08
-6.9930921e-10
2.3870625e-08
-7.5509699e-10
2.4059689e-08
-5.8305716e-10
2.4309725e-08
-7.3036721e-10
2.4548875e-08
-6.8365929e-10
2.4743365e-08
-5.4960587e-10
2.501229e-08
-7.7418872e-10
2.5230223e-08
-6.3100741e-10
2.5417247e-08
-5.3740703e-10
2.5628553e-08
-6.3598934e-10
2.5854925e-08
-6.2643484e-10
-6.1265442e-10
8.3870264e-09
-1.1578865e-09
8.6492195e-09
-1.1670494e-09
8.9071627e-09
-1.1766828e-09
9.1784483e-09
-1.1807628e-09
9.434374e-09
-1.1831555e-09
9.7160712e-09
-1.2185297e-09
9.9788844e-09
-1.1915799e-09
1.0248124e-08
-1.1887223e-09
1.0536564e-08
-1.2533682e-09
1.0788822e-08
-1.1328568e-09
1.1091067e-08
-1.2949981e-09
1.134732e-08
-1.1369507e-09
1.164201e-08
-1.2653526e-09
1.1917005e-08
-1.190912e-09
1.2200249e-08
-1.2298767e-09
1.2487352e-08
-1.2385899e-09
1.2773071e-08
-1.2076115e-09
1.305516e-08
-1.2545244e-09
1.336025e-08
-1.2319137e-09
1.363487e-08
-1.2057633e-09
1.3944928e-08
-1.2742056e-09
1.4232724e-08
-1.1957143e-09
1.4531353e-08
-1.2611265e-09
1.483578e-08
-1.236145e-09
1.51221e-08
-1.209423e-09
1.5441931e-08
-1.3199601e-09
1.5711001e-08
-1.1023124e-09
1.6045443e-08
-1.4012815e-09
1.631692e-08
-1.0554346e-09
1.6649845e-08
-1.4029489e-09
1.6899298e-08
-1.0088602e-09
1.726549e-08
-1.4245786e-09
1.7513267e-08
-1.0610768e-09
1.7843535e-08
-1.2670337e-09
1.8138281e-08
-1.2314719e-09
1.8439234e-08
-1.1319576e-09
1.8762928e-08
-1.2402325e-09
1.9041414e-08
-1.2266454e-09
1.9369839e-08
-1.0981646e-09
1.9653285e-08
-1.2781941e-09
1.9990152e-08
-1.1623413e-09
2.0273715e-08
-1.1902189e-09
2.0591945e-08
-1.1840219e-09
2.0911454e-08
-1.2060313e-09
2.121731e-08
-1.1465733e-09
2.1518011e-08
-1.2225786e-09
2.1820495e-08
-1.0610213e-09
2.2108239e-08
-1.1039175e-09
2.2419591e-08
-1.1817231e-09
2.2688567e-08
-1.060338e-09
2.3022349e-08
-1.1508751e-09
2.3335625e-08
-1.1490473e-09
2.361723e-08
-1.0662356e-09
2.3971686e-08
-1.1913211e-09
2.4243836e-08
-1.089668e-09
2.4509167e-08
-9.9878031e-10
2.484279e-08
-1.2341206e-09
2.5161238e-08
-1.0303321e-09
2.543758e-08
-9.9340109e-10
2.5736348e-08
-1.092499e-09
2.6059262e-08
-1.0220069e-09
2.6334072e-08
-1.0522871e-09
2.6646424e-08
-1.0835971e-09
2.6943556e-08
-9.9644123e-10
2.7259981e-08
-1.0715222e-09
2.7477779e-08
-8.0085519e-10
2.7781031e-08
-1.0336185e-09
2.805403e-08
-9.5665842e-10
2.8295077e-08
-7.9065331e-10
2.8619875e-08
-1.0989869e-09
2.892704e-08
-9.3817144e-10
2.9210597e-08
-8.2096453e-10
2.9491804e-08
-9.1719587e-10
2.9740847e-08
-8.7547873e-10
-8.9216827e-10
8.6991039e-09
-1.4292824e-09
8.9966308e-09
-1.4645763e-09
9.273255e-09
-1.453307e-09
9.5828404e-09
-1.4903483e-09
9.8597657e-09
-1.4600807e-09
1.0173705e-08
-1.5324688e-09
1.0465252e-08
-1.4831274e-09
1.0761675e-08
-1.4851455e-09
1.1084756e-08
-1.5764489e-09
1.1367908e-08
-1.416009e-09
1.1706064e-08
-1.6331544e-09
1.1996843e-08
-1.4277294e-09
1.2323141e-08
-1.5916505e-09
1.263602e-08
-1.5037913e-09
1.2950632e-08
-1.5444887e-09
1.3273583e-08
-1.5615408e-09
1.3597537e-08
-1.5315651e-09
1.3915279e-08
-1.5722669e-09
1.4258497e-08
-1.5751316e-09
1.4581423e-08
-1.5286891e-09
1.4924084e-08
-1.616867e-09
1.5262189e-08
-1.5338184e-09
1.5590759e-08
-1.5896968e-09
1.5949648e-08
-1.5950344e-09
1.6255924e-08
-1.5156989e-09
1.6631865e-08
-1.6959008e-09
1.6942895e-08
-1.4133422e-09
1.7294493e-08
-1.7528801e-09
1.7648204e-08
-1.4091459e-09
1.7977798e-08
-1.7325422e-09
1.8320947e-08
-1.3520097e-09
1.8709533e-08
-1.8131643e-09
1.9007173e-08
-1.3587175e-09
1.9414906e-08
-1.6747664e-09
1.9714835e-08
-1.531401e-09
2.0119466e-08
-1.5365879e-09
2.0448573e-08
-1.5693399e-09
2.0790069e-08
-1.568142e-09
2.1184939e-08
-1.493034e-09
2.1475237e-08
-1.5684923e-09
2.1907474e-08
-1.5945787e-09
2.2196551e-08
-1.4792956e-09
2.2579946e-08
-1.567417e-09
2.2960986e-08
-1.5870715e-09
2.3303237e-08
-1.4888238e-09
2.3662328e-08
-1.5816695e-09
2.4055308e-08
-1.4540013e-09
2.4386247e-08
-1.4348561e-09
2.4768025e-08
-1.5635012e-09
2.5084468e-08
-1.3767814e-09
2.5435164e-08
-1.5015714e-09
2.5802125e-08
-1.5160079e-09
2.6131985e-08
-1.3960961e-09
2.6558964e-08
-1.6182993e-09
2.6912117e-08
-1.4428214e-09
2.7249101e-08
-1.3357642e-09
2.7587368e-08
-1.5723879e-09
2.7980601e-08
-1.4235648e-09
2.8276594e-08
-1.2893944e-09
2.8639996e-08
-1.4559004e-09
2.9045706e-08
-1.4277171e-09
2.9360646e-08
-1.3672274e-09
2.9720608e-08
-1.4435589e-09
3.0110602e-08
-1.3864347e-09
3.0480931e-08
-1.4418514e-09
3.0780695e-08
-1.100619e-09
3.1123368e-08
-1.3762923e-09
3.1448289e-08
-1.2815788e-09
3.174419e-08
-1.0865551e-09
3.2091436e-08
-1.4462327e-09
3.2458576e-08
-1.3053114e-09
3.2804844e-08
-1.1672321e-09
3.3140075e-08
-1.2524276e-09
3.3474161e-08
-1.2095642e-09
-1.2296915e-09
8.9049751e-09
-1.7234774e-09
9.2332581e-09
-1.7928593e-09
9.5295621e-09
-1.749611e-09
9.8695211e-09
-1.8303073e-09
1.0170584e-08
-1.7611431e-09
1.0510448e-08
-1.8723335e-09
1.0833802e-08
-1.8064807e-09
1.1157285e-08
-1.808629e-09
1.1509369e-08
-1.9285327e-09
1.1830749e-08
-1.7373892e-09
1.2190733e-08
-1.9931382e-09
1.2525877e-08
-1.7628738e-09
1.2875602e-08
-1.9413755e-09
1.3228323e-08
-1.8565124e-09
1.3578067e-08
-1.8942317e-09
1.3931495e-08
-1.9149696e-09
1.4301351e-08
-1.901421e-09
1.4647981e-08
-1.9188964e-09
1.5034428e-08
-1.9615789e-09
1.5396247e-08
-1.8905077e-09
1.5767159e-08
-1.9877796e-09
1.6159526e-08
-1.9261855e-09
1.6507283e-08
-1.9374534e-09
1.6921952e-08
-2.0097035e-09
1.7252876e-08
-1.846623e-09
1.7673267e-08
-2.1162918e-09
1.8031476e-08
-1.7715514e-09
1.8418211e-08
-2.1396144e-09
1.8837818e-08
-1.828753e-09
1.9176127e-08
-2.0708518e-09
1.9622115e-08
-1.7979977e-09
2.0012408e-08
-2.2034566e-09
2.0381533e-08
-1.7278431e-09
2.0838956e-08
-2.1321892e-09
2.1165043e-08
-1.8574879e-09
2.1648461e-08
-2.0200053e-09
2.1992182e-08
-1.9130616e-09
2.2405154e-08
-1.981114e-09
2.284275e-08
-1.9306302e-09
2.3169641e-08
-1.8953827e-09
2.3675156e-08
-2.1000938e-09
2.398031e-08
-1.7844494e-09
2.4436982e-08
-2.0240898e-09
2.4845652e-08
-1.9957414e-09
2.5256484e-08
-1.8996551e-09
2.5631592e-08
-1.9567784e-09
2.6109031e-08
-1.93144e-09
2.6468238e-08
-1.7940629e-09
2.6901741e-08
-1.9970044e-09
2.7309378e-08
-1.7844178e-09
2.7701201e-08
-1.8933945e-09
2.8094246e-08
-1.9090533e-09
2.8485196e-08
-1.7870456e-09
2.890047e-08
-2.0335733e-09
2.9306479e-08
-1.8488311e-09
2.9742734e-08
-1.772019e-09
3.0138161e-08
-1.9678147e-09
3.0590484e-08
-1.8758883e-09
3.0925096e-08
-1.6240058e-09
3.128381e-08
-1.814615e-09
3.1728929e-08
-1.8728357e-09
3.2124557e-08
-1.7628556e-09
3.2547449e-08
-1.8664503e-09
3.3020627e-08
-1.8596129e-09
3.3452864e-08
-1.8740885e-09
3.3839357e-08
-1.4871125e-09
3.4242619e-08
-1.7795539e-09
3.4639517e-08
-1.6784766e-09
3.4975729e-08
-1.4227673e-09
3.5310539e-08
-1.7810431e-09
3.572631e-08
-1.7210819e-09
3.6127392e-08
-1.5683145e-09
3.6498608e-08
-1.6236429e-09
3.6896913e-08
-1.6078694e-09
-1.6118186e-09
9.0252387e-09
-2.0458077e-09
9.3723781e-09
-2.1399988e-09
9.694697e-09
-2.0719298e-09
1.0054561e-08
-2.1901718e-09
1.0384592e-08
-2.0911738e-09
1.0746822e-08
-2.2345635e-09
1.1099457e-08
-2.1591152e-09
1.1452464e-08
-2.1616362e-09
1.182626e-08
-2.3023292e-09
1.2189251e-08
-2.1003798e-09
1.256379e-08
-2.3676768e-09
1.2945713e-08
-2.1447968e-09
1.3315332e-08
-2.3109951e-09
1.3708223e-08
-2.2494036e-09
1.4092681e-08
-2.2786894e-09
1.4476872e-08
-2.2991603e-09
1.4892136e-08
-2.3166854e-09
1.5263304e-08
-2.2900643e-09
1.569697e-08
-2.3952451e-09
1.6086364e-08
-2.279901e-09
1.6491493e-08
-2.392909e-09
1.6931663e-08
-2.3663558e-09
1.7298451e-08
-2.3042413e-09
1.7769736e-08
-2.4809888e-09
1.8139122e-08
-2.2160087e-09
1.8591284e-08
-2.5684538e-09
1.9007121e-08
-2.1873881e-09
1.9432373e-08
-2.5648661e-09
1.9890622e-08
-2.2870027e-09
2.0281687e-08
-2.4619165e-09
2.0779101e-08
-2.2954121e-09
2.1181333e-08
-2.6056877e-09
2.1633508e-08
-2.1800188e-09
2.2095874e-08
-2.5945554e-09
2.2496612e-08
-2.2582258e-09
2.3009872e-08
-2.5332655e-09
2.3387805e-08
-2.2909939e-09
2.385157e-08
-2.4448798e-09
2.4309725e-08
-2.3887849e-09
2.4717416e-08
-2.3030734e-09
2.5220221e-08
-2.6028984e-09
2.5579424e-08
-2.1436527e-09
2.6090335e-08
-2.5350005e-09
2.6516423e-08
-2.4218296e-09
2.6988763e-08
-2.3719951e-09
2.7390851e-08
-2.3588662e-09
2.7900353e-08
-2.4409426e-09
2.8322426e-08
-2.2161357e-09
2.878427e-08
-2.4588482e-09
2.920545e-08
-2.2055981e-09
2.9634568e-08
-2.322512e-09
3.0025916e-08
-2.300402e-09
3.0560361e-08
-2.3214901e-09
3.0958964e-08
-2.4321769e-09
3.1408139e-08
-2.2980053e-09
3.1897342e-08
-2.2612227e-09
3.2273856e-08
-2.3443288e-09
3.2816563e-08
-2.4185946e-09
3.3250017e-08
-2.0574597e-09
3.3634903e-08
-2.1995013e-09
3.4013381e-08
-2.2513141e-09
3.4475795e-08
-2.2252696e-09
3.5033907e-08
-2.4245622e-09
3.556293e-08
-2.3886358e-09
3.6042452e-08
-2.3536107e-09
3.6430762e-08
-1.8754218e-09
3.6855038e-08
-2.2038297e-09
3.7239611e-08
-2.06305e-09
3.7777547e-08
-1.960703e-09
3.813079e-08
-2.1342864e-09
3.8447201e-08
-2.0374931e-09
3.8715599e-08
-1.8367123e-09
3.9228432e-08
-2.136476e-09
3.9418258e-08
-1.7976956e-09
-1.8833018e-09
9.0718625e-09
-2.3988321e-09
9.4270398e-09
-2.4951762e-09
9.7818672e-09
-2.4267572e-09
1.0154e-08
-2.5623045e-09
1.0514523e-08
-2.4516967e-09
1.0898561e-08
-2.6186019e-09
1.127523e-08
-2.5357842e-09
1.1659654e-08
-2.5460596e-09
1.2051728e-08
-2.6944035e-09
1.2452762e-08
-2.5014134e-09
1.2845279e-08
-2.7601941e-09
1.3266665e-08
-2.5661831e-09
1.3659423e-08
-2.7037533e-09
1.409007e-08
-2.6800507e-09
1.4505054e-08
-2.6936729e-09
1.492665e-08
-2.720757e-09
1.5371491e-08
-2.7615259e-09
1.5783887e-08
-2.7024603e-09
1.6244732e-08
-2.8560904e-09
1.6671775e-08
-2.7069439e-09
1.7116739e-08
-2.8378729e-09
1.7588403e-08
-2.8380195e-09
1.7997778e-08
-2.7136165e-09
1.8508173e-08
-2.9913838e-09
1.8919388e-08
-2.6272238e-09
1.9402041e-08
-3.0511068e-09
1.9876979e-08
-2.6623262e-09
2.0316869e-08
-3.004756e-09
2.0818583e-08
-2.7887169e-09
2.1250851e-08
-2.8941845e-09
2.1785047e-08
-2.8296081e-09
2.2199354e-08
-3.0199939e-09
2.2711967e-08
-2.6926321e-09
2.3169567e-08
-3.0521559e-09
2.3633778e-08
-2.7224364e-09
2.4165714e-08
-3.0652015e-09
2.4577578e-08
-2.7028577e-09
2.5065701e-08
-2.9330027e-09
2.5527576e-08
-2.8506606e-09
2.6004554e-08
-2.7800509e-09
2.6479883e-08
-3.0782271e-09
2.6887794e-08
-2.5515638e-09
2.7428278e-08
-3.0754847e-09
2.787461e-08
-2.868162e-09
2.8351993e-08
-2.8493773e-09
2.8812903e-08
-2.8197766e-09
2.9336958e-08
-2.9649981e-09
2.9851248e-08
-2.7304248e-09
3.0321835e-08
-2.9294359e-09
3.0745222e-08
-2.6289848e-09
3.1206542e-08
-2.7838324e-09
3.154339e-08
-2.6372496e-09
3.2156157e-08
-2.9342567e-09
3.2361716e-08
-2.6377363e-09
3.2819379e-08
-2.7556684e-09
3.3204608e-08
-2.6464518e-09
3.340354e-08
-2.5432609e-09
3.397879e-08
-2.993844e-09
3.3944312e-08
-2.0229823e-09
3.384983e-08
-2.1050192e-09
3.4653097e-08
-3.054581e-09
3.4589333e-08
-2.1615055e-09
3.4723774e-08
-2.5590032e-09
3.570496e-08
-3.3698218e-09
3.5535514e-08
-2.1841644e-09
3.521633e-08
-1.5562377e-09
3.631574e-08
-3.3032402e-09
3.6086903e-08
-1.8342133e-09
3.6967553e-08
-2.8413531e-09
3.7815229e-08
-2.9819619e-09
3.7153425e-08
-1.3756894e-09
3.6820263e-08
-1.5035501e-09
3.7032415e-08
-2.3486274e-09
3.6906524e-08
-1.6718053e-09
-1.9357251e-09
9.0495368e-09
-2.7770186e-09
9.4121013e-09
-2.8577407e-09
9.8003005e-09
-2.8149564e-09
1.0178841e-08
-2.9408451e-09
1.05749e-08
-2.8477558e-09
1.0973998e-08
-3.0176991e-09
1.1378261e-08
-2.9400475e-09
1.1790577e-08
-2.9583755e-09
1.2200837e-08
-3.1046635e-09
1.2637153e-08
-2.9377294e-09
1.3049347e-08
-3.1723888e-09
1.3503828e-08
-3.0206637e-09
1.3924101e-08
-3.1240265e-09
1.4389512e-08
-3.1454618e-09
1.4830211e-08
-3.1343717e-09
1.5294602e-08
-3.1851483e-09
1.5757839e-08
-3.2247626e-09
1.6221306e-08
-3.1659271e-09
1.6695919e-08
-3.3307035e-09
1.7169571e-08
-3.1805962e-09
1.7650031e-08
-3.3183327e-09
1.8139026e-08
-3.327014e-09
1.8610053e-08
-3.1846441e-09
1.9121757e-08
-3.5030879e-09
1.958494e-08
-3.0904068e-09
2.0082312e-08
-3.5484785e-09
2.0587804e-08
-3.1678181e-09
2.1052901e-08
-3.4698531e-09
2.1565417e-08
-3.3012332e-09
2.2022417e-08
-3.3511845e-09
2.2586382e-08
-3.3935726e-09
2.2989071e-08
-3.4226826e-09
2.3543135e-08
-3.2466963e-09
2.3994164e-08
-3.503185e-09
2.4480917e-08
-3.2091892e-09
2.5030918e-08
-3.615203e-09
2.5421399e-08
-3.0933385e-09
2.5961635e-08
-3.4732392e-09
2.6395416e-08
-3.2844417e-09
2.6980542e-08
-3.3651764e-09
2.7364464e-08
-3.462149e-09
2.7712906e-08
-2.9000055e-09
2.8171863e-08
-3.5344424e-09
2.8517162e-08
-3.2134607e-09
2.8264759e-08
-2.596975e-09
2.8182831e-08
-2.737848e-09
2.9070376e-08
-3.8525432e-09
2.9452803e-08
-3.1128518e-09
2.9614724e-08
-3.0913567e-09
3.0066105e-08
-3.0803665e-09
2.9807266e-08
-2.5249925e-09
2.9514681e-08
-2.3446653e-09
3.0009489e-08
-3.4290642e-09
2.9045876e-08
-1.6741231e-09
2.9108526e-08
-2.8183185e-09
2.9183657e-08
-2.7215828e-09
2.9120176e-08
-2.4797803e-09
3.0008058e-08
-3.8817257e-09
2.9504988e-08
-1.5199128e-09
2.8214566e-08
-8.1459654e-10
2.868194e-08
-3.5219553e-09
2.5933445e-08
5.869898e-10
2.4677753e-08
-1.3033116e-09
2.7026775e-08
-5.7188434e-09
2.506646e-08
-2.2384936e-10
2.3595214e-08
-8.499246e-11
2.4066197e-08
-3.7742229e-09
2.5486731e-08
-3.2547476e-09
2.6799321e-08
-4.1539433e-09
2.5916758e-08
-2.0993984e-09
2.6436197e-08
-1.8951281e-09
2.6941361e-08
-2.0087145e-09
2.6289997e-08
-1.6972635e-09
2.652822e-08
-1.9100278e-09
-2.4954382e-09
8.9641272e-09
-3.1696403e-09
9.3444624e-09
-3.2380758e-09
9.7565243e-09
-3.2270184e-09
1.0147381e-08
-3.3317016e-09
1.0577625e-08
-3.2780004e-09
1.0984575e-08
-3.4246485e-09
1.1425023e-08
-3.3804959e-09
1.1849849e-08
-3.3832013e-09
1.2290563e-08
-3.5453777e-09
1.2750742e-08
-3.3979083e-09
1.3189782e-08
-3.6114289e-09
1.3674655e-08
-3.5055365e-09
1.4122861e-08
-3.5722322e-09
1.4622432e-08
-3.6450331e-09
1.508832e-08
-3.6002594e-09
1.5588634e-08
-3.6854629e-09
1.6074725e-08
-3.7108532e-09
1.6574741e-08
-3.6659437e-09
1.7063642e-08
-3.819604e-09
1.7573572e-08
-3.6905262e-09
1.807156e-08
-3.8163208e-09
1.8574239e-08
-3.8296934e-09
1.9079822e-08
-3.690227e-09
1.9577961e-08
-4.001227e-09
2.0076867e-08
-3.5893127e-09
2.0565015e-08
-4.0366265e-09
2.1076139e-08
-3.6789419e-09
2.1581136e-08
-3.9748506e-09
2.2023716e-08
-3.743813e-09
2.254554e-08
-3.8730083e-09
2.3094824e-08
-3.9428565e-09
2.3469315e-08
-3.7971739e-09
2.4093475e-08
-3.8708556e-09
2.4412211e-08
-3.8219213e-09
2.4769946e-08
-3.566924e-09
2.5235285e-08
-4.0805418e-09
2.469748e-08
-2.5555334e-09
2.4996193e-08
-3.7719528e-09
2.4903457e-08
-3.191706e-09
2.5381496e-08
-3.8432149e-09
2.525009e-08
-3.3307428e-09
2.5076169e-08
-2.7260851e-09
2.4379852e-08
-2.8381253e-09
2.3718984e-08