/*--------------------------------*- C++ -*----------------------------------*\
| =========                 |                                                 |
| \\      /  F ield         | OpenFOAM: The Open Source CFD Toolbox           |
|  \\    /   O peration     | Version:  2.3.0                                 |
|   \\  /    A nd           | Web:      www.OpenFOAM.org                      |
|    \\/     M anipulation  |                                                 |
\*---------------------------------------------------------------------------*/
FoamFile
{
    version     2.0;
    format      ascii;
    class       volVectorField;
    location    "1.2e-05";
    object      U;
}
// * * * * * * * * * * * * * * * * * * * * * * * * * * * * * * * * * * * * * //

dimensions      [0 1 -1 0 0 0 0];

internalField   nonuniform List<vector> 
7500
(
(459.9345 0.01027642 6.3711067e-17)
(460.18145 -0.0076170163 3.5312976e-15)
(459.92783 -0.017688795 3.0115579e-15)
(460.00107 0.031527505 -3.1484845e-16)
(459.7699 -0.019150621 3.0159116e-15)
(460.41087 -0.0074071468 5.592654e-15)
(459.45483 -0.020515426 2.289927e-15)
(460.37458 0.054749517 5.2903205e-15)
(459.94217 -0.046606107 4.644207e-15)
(459.76501 0.013557233 1.3784719e-15)
(460.25917 0.024284416 1.3706053e-15)
(459.77363 -0.034374357 -1.6215686e-15)
(460.13035 0.0029603928 1.2190324e-15)
(460.07486 0.033663686 1.306236e-15)
(459.6884 -0.027672708 1.3813032e-15)
(460.46754 0.0090040376 8.842632e-16)
(459.28208 0.037012777 1.2407082e-15)
(460.86323 -0.096429266 -1.6739936e-15)
(458.71381 0.1264259 1.1650343e-15)
(461.41678 -0.081421642 1.1775941e-15)
(458.01417 -0.0087556779 -1.4512415e-15)
(462.17254 0.083978486 9.3842243e-16)
(457.34235 -0.12468425 1.7190296e-15)
(462.73517 0.090904746 -1.3755493e-15)
(457.17103 -0.021019652 9.7251073e-16)
(462.5823 -0.058326448 5.2155816e-16)
(457.81243 0.088388891 1.2852255e-15)
(461.22255 -0.068044833 -1.8017247e-15)
(459.64276 0.054098621 -7.9467394e-16)
(459.39076 -0.028401056 2.9097754e-15)
(460.97869 -0.038169805 -3.7752277e-16)
(458.52647 0.06906912 1.5219233e-15)
(461.2211 -0.022949123 5.6869873e-16)
(459.18067 -0.027053374 -2.1109583e-15)
(460.36651 0.029292915 -8.8963314e-16)
(459.64801 -0.018489451 1.3009129e-15)
(460.15663 0.11638316 -9.8323725e-16)
(459.54834 -0.19944155 1.0365896e-15)
(460.19796 0.19608482 5.4857445e-16)
(459.42882 -0.12048229 9.0536703e-16)
(460.18702 0.019412625 5.8101795e-16)
(459.40478 0.044081302 8.3463464e-16)
(459.94399 -0.050185145 2.9025438e-15)
(460.42947 0.010084313 2.4424075e-15)
(459.35514 0.064415967 5.9616577e-16)
(460.04509 -0.15073163 -1.5498384e-15)
(459.70824 0.081196014 -1.1989974e-15)
(459.73005 0.064821709 -5.3815895e-16)
(460.51861 -0.14063943 9.4013035e-16)
(459.44956 0.076063699 3.5360109e-16)
(459.62016 0.093289568 4.8584686e-16)
(460.17546 -0.10163391 2.4617505e-15)
(459.36636 0.016747387 6.1200023e-16)
(459.84933 0.094547307 5.16756e-16)
(460.11771 -0.15487379 6.2803374e-16)
(459.76207 0.08214136 -1.5122377e-15)
(459.43591 -0.008194695 2.9534977e-16)
(460.51771 0.042109385 4.8792751e-16)
(459.77078 -0.036470181 3.4870369e-16)
(459.05501 0.029479235 5.0747637e-16)
(460.53263 -0.0080777259 2.1629126e-16)
(459.59624 -0.040265342 2.0845838e-15)
(459.56419 -0.065499355 7.4686593e-17)
(460.26374 0.029229978 -1.3517172e-15)
(460.27895 0.0046906253 -1.6135959e-15)
(459.61552 0.058314511 5.12471e-16)
(460.38168 -0.045634402 7.0670774e-16)
(459.48682 0.0048669482 4.5218418e-16)
(459.83374 -0.040595914 5.6725001e-16)
(460.14828 0.044022957 -9.3366904e-16)
(459.78639 0.030062819 -1.5797442e-15)
(459.95533 0.0059774617 3.3761898e-16)
(459.88533 0.04409251 2.2561531e-15)
(459.5332 -0.079432887 6.4641183e-16)
(459.74205 -0.012256384 2.0175344e-15)
(459.91681 -0.020542589 -3.9906938e-17)
(460.19175 0.0079769079 8.4329725e-18)
(459.92776 0.01361623 3.2644895e-18)
(460.01497 0.014434441 2.9494063e-17)
(459.7593 -0.029005052 1.6536717e-16)
(460.41765 0.017007549 -1.790303e-16)
(459.47082 -0.018721742 3.4677174e-16)
(460.35839 0.016857266 -1.2186687e-17)
(459.95748 -0.00091666319 1.6506292e-16)
(459.76429 0.021686175 2.1966717e-16)
(460.24642 -0.062347585 2.5821166e-16)
(459.79128 0.070042026 1.7373508e-17)
(460.08901 -0.050629296 2.1114379e-16)
(460.1201 -0.0054209935 -5.8285442e-16)
(459.58298 0.05710697 3.1499113e-16)
(460.57546 -0.098608443 -8.0070708e-16)
(459.13252 0.14660203 1.9024905e-16)
(461.04081 -0.14148334 2.295654e-16)
(458.50923 0.087524507 1.259163e-16)
(461.6942 0.010611166 3.7809934e-16)
(457.68486 -0.079986172 1.264722e-16)
(462.56995 0.10259146 2.3254767e-16)
(456.90115 -0.12466157 9.661681e-17)
(463.17888 0.10185231 1.2255566e-15)
(456.70978 -0.038700748 -1.6884661e-16)
(462.96268 -0.04156196 1.9412322e-16)
(457.48696 0.11887359 -5.4512267e-16)
(461.40238 -0.14968548 -8.8950834e-16)
(459.54246 0.16041138 1.7269088e-15)
(459.41143 -0.099529165 -6.4251102e-17)
(460.98012 -0.0010258178 6.2913207e-16)
(458.55842 0.013640188 2.334689e-16)
(461.19208 0.037994952 2.0510352e-16)
(459.20717 -0.07108542 3.6426067e-17)
(460.39591 0.055926131 9.120362e-17)
(459.60669 -0.067844759 2.2710984e-16)
(460.2124 0.25336502 -6.7174254e-17)
(459.48604 -0.38848875 -4.6027209e-16)
(460.261 0.32608791 2.1669685e-16)
(459.39873 -0.13355679 3.2329831e-16)
(460.14537 0.0091020888 -8.0345062e-17)
(459.49324 0.024583762 -4.2256909e-16)
(459.85315 0.036912855 -1.4583175e-17)
(460.44423 -0.10954695 1.1685387e-16)
(459.42036 0.16637677 8.6541739e-19)
(459.94536 -0.22896306 -1.1279945e-16)
(459.76036 0.07114543 2.3799046e-18)
(459.7786 0.17052736 -2.5361483e-16)
(460.38387 -0.15310292 1.1688172e-16)
(459.56363 -0.028685522 4.7714467e-16)
(459.62525 0.15448006 -2.2401318e-16)
(460.0654 -0.073473916 -3.3292776e-16)
(459.44706 -0.081952553 1.4156062e-16)
(459.90724 0.19272101 -8.4849806e-16)
(460.01007 -0.17106957 9.6592506e-17)
(459.82939 0.068972344 -1.2876954e-16)
(459.47019 -0.098911035 1.8723475e-16)
(460.44187 0.17848149 -2.6165466e-16)
(459.80622 -0.14573328 1.5333727e-16)
(459.08227 0.037004549 -5.5691794e-16)
(460.42607 0.029698964 2.0615783e-17)
(459.64131 -0.06395336 3.9767988e-16)
(459.62848 -0.06270928 -1.6129132e-16)
(460.21408 0.026005488 1.7810529e-16)
(460.24262 -0.062769252 -3.2413425e-16)
(459.69539 0.12552555 1.2811418e-16)
(460.34757 -0.050927649 -5.017502e-16)
(459.43928 0.049335838 1.7946058e-16)
(459.82005 -0.030381366 1.657928e-16)
(460.17016 -0.031439258 5.3575361e-17)
(459.76662 0.055868127 8.6250815e-16)
(459.95041 0.061388791 -2.7221347e-16)
(459.86126 0.096959771 1.898193e-16)
(459.53116 -0.086930769 2.7414304e-16)
(459.74696 -0.027207272 2.6457251e-16)
(459.8933 0.0030211743 1.1018803e-16)
(460.20745 0.013795731 -8.8834876e-16)
(459.9246 -0.014894214 1.3236507e-16)
(460.02785 0.037987295 -1.3607513e-16)
(459.75459 -0.069725873 2.9844099e-16)
(460.42284 0.024703327 4.6337421e-16)
(459.47954 -0.029486947 1.9272245e-16)
(460.3363 0.024659143 -1.735737e-16)
(459.99365 -0.009871352 -3.7172081e-17)
(459.72733 0.056721754 -3.2181879e-17)
(460.25178 -0.1076394 -1.1468931e-16)
(459.7964 0.091216835 -7.2032399e-16)
(460.01245 -0.026528974 -6.8060021e-16)
(460.16204 -0.020615233 1.085391e-15)
(459.42846 0.053311324 3.4164989e-16)
(460.6864 -0.089729046 -5.7275317e-16)
(458.96241 0.16199484 3.6552063e-16)
(461.23706 -0.19283058 1.8480889e-16)
(458.31038 0.16449074 -1.981717e-16)
(461.9877 -0.047780423 2.0479538e-16)
(457.34377 -0.094798056 -2.6866571e-16)
(462.94969 0.19708509 8.3210047e-16)
(456.44633 -0.25593052 5.8208793e-16)
(463.60939 0.16632666 1.0206287e-16)
(456.20603 -0.019033717 -1.9396172e-16)
(463.40606 -0.13141261 7.4457725e-17)
(457.07012 0.24469851 -7.624575e-16)
(461.73537 -0.25587331 1.4524562e-16)
(459.30451 0.20888171 -7.2710439e-16)
(459.60689 -0.086837085 7.4060017e-16)
(460.85817 -0.034791021 -3.8841708e-17)
(458.68882 0.0088429303 1.4922798e-16)
(461.14524 0.070426657 -4.7040823e-16)
(459.17526 -0.12744833 1.5881687e-16)
(460.50392 0.10374143 -5.6062772e-17)
(459.51422 -0.097509587 4.1128222e-17)
(460.29787 0.33501665 -5.1894825e-16)
(459.40918 -0.51861581 -4.0448609e-16)
(460.35081 0.47996758 6.8469991e-18)
(459.37222 -0.25491362 1.4461549e-16)
(460.0865 0.051836007 -4.9494663e-18)
(459.57858 0.053723592 6.2933295e-17)
(459.81095 -0.011833092 -3.9375005e-16)
(460.42325 -0.11078563 8.027627e-17)
(459.48191 0.24669379 4.1953358e-17)
(459.90534 -0.35812879 1.6339658e-16)
(459.78228 0.10082462 5.2949021e-16)
(459.84039 0.26622942 2.4246735e-16)
(460.24117 -0.23963689 -3.0254528e-16)
(459.63356 -0.022192982 -6.7331065e-18)
(459.63725 0.2229274 2.9688795e-16)
(459.99573 -0.15922875 6.4972058e-16)
(459.45091 -0.1118393 1.7068278e-16)
(460.01082 0.3159552 -8.0969122e-17)
(459.94489 -0.30851232 1.9195395e-16)
(459.81219 0.16446586 4.2647938e-16)
(459.53072 -0.20353368 -7.0050429e-16)
(460.39032 0.27323402 -1.0796594e-16)
(459.77097 -0.15120728 -2.5670291e-17)
(459.14074 0.0012904013 -3.4825433e-16)
(460.347 0.11289747 -1.5394909e-16)
(459.64781 -0.12848474 -1.7943307e-16)
(459.68854 -0.044220466 -5.5090418e-17)
(460.22486 0.0062550334 2.1787957e-17)
(460.21168 -0.065457276 -3.2351908e-16)
(459.75734 0.13294447 -6.89019e-16)
(460.29334 -0.073064691 -1.3125606e-17)
(459.44195 0.055317547 -7.5689299e-17)
(459.78934 0.033679125 1.0436359e-16)
(460.1534 -0.053976805 1.6701304e-16)
(459.74639 0.074732488 1.290846e-16)
(459.96431 0.045531211 1.5140495e-16)
(459.82011 0.090522217 2.3623982e-16)
(459.48062 -0.047790473 5.5660301e-16)
(459.74707 -0.02307692 3.8535663e-16)
(459.88887 -0.03607868 1.5474671e-16)
(460.20274 0.046209251 -1.5844001e-16)
(459.93449 -0.0061178797 -5.8702452e-16)
(460.05476 0.032662682 -6.1321529e-16)
(459.73593 -0.021515408 -5.3684666e-17)
(460.42516 -0.023064547 -4.9618595e-16)
(459.50145 -0.011873584 2.3971216e-17)
(460.30335 0.055503053 8.509532e-17)
(460.05274 -0.071484343 -5.8467398e-17)
(459.70722 0.12130812 -2.9328035e-16)
(460.22833 -0.15609662 -5.8714375e-16)
(459.79304 0.10869344 4.5832314e-16)
(459.9211 -0.062404289 3.001636e-16)
(460.17473 0.038462101 8.0625021e-16)
(459.25096 0.020440719 5.4719605e-16)
(460.81519 -0.13027644 2.2466331e-16)
(458.7299 0.25121968 -3.1954029e-16)
(461.47262 -0.30138938 2.0866105e-16)
(458.09635 0.22747362 -5.8259284e-16)
(462.20919 -0.015841777 1.5106505e-16)
(457.10375 -0.17492349 -2.7243199e-16)
(463.15821 0.29247843 5.8548785e-16)
(456.13979 -0.32673953 -1.3276472e-16)
(463.89166 0.17541792 2.8947261e-16)
(455.8413 0.010335931 2.5778875e-16)
(463.79966 -0.21277927 1.4458349e-16)
(456.76743 0.34108371 -6.7861604e-16)
(462.07738 -0.33749583 3.2187311e-16)
(459.12984 0.26585473 1.6263905e-16)
(459.84103 -0.15976115 -2.1891508e-16)
(460.71864 0.051986613 1.6112453e-16)
(458.83129 -0.086307308 4.1655457e-17)
(461.07771 0.15669572 -2.7187277e-17)
(459.09368 -0.1618636 3.6551345e-16)
(460.59401 0.05724733 3.6988724e-17)
(459.43386 -0.040515494 2.1555948e-17)
(460.36742 0.40550567 -1.1156848e-17)
(459.30822 -0.68119988 -3.684262e-16)
(460.44504 0.61195643 2.8046093e-16)
(459.28555 -0.29511327 1.5787991e-16)
(460.10216 0.022436324 -7.1257376e-18)
(459.57912 0.019996365 -2.926146e-17)
(459.8272 0.069935922 -1.1992857e-16)
(460.474 -0.18698805 7.0347642e-17)
(459.47644 0.29263698 -7.4256816e-17)
(459.93937 -0.41479504 1.4334123e-17)
(459.85714 0.16376324 3.8217622e-17)
(459.82098 0.26233726 -1.086333e-17)
(460.151 -0.2481715 6.4658496e-17)
(459.67719 -0.094836044 2.8571486e-16)
(459.55002 0.3016147 4.7473049e-18)
(459.9955 -0.1864742 -2.4747366e-17)
(459.43403 -0.18176319 2.7871028e-16)
(460.02544 0.36089708 4.6815455e-17)
(459.95282 -0.34611835 -2.4570851e-17)
(459.76562 0.14970301 8.1712455e-17)
(459.55172 -0.18734989 -2.8261007e-16)
(460.35459 0.23609982 2.826558e-17)
(459.71884 -0.10462181 2.4612136e-16)
(459.20121 0.00062243873 9.6637611e-17)
(460.27803 0.17925513 4.2872012e-18)
(459.59808 -0.21880208 -9.5930304e-18)
(459.77188 0.00762201 -2.1294163e-16)
(460.28895 -0.041902959 -2.5168097e-16)
(460.16373 -0.028117696 2.492577e-16)
(459.81341 0.10357412 -2.4793521e-17)
(460.28434 -0.046717614 2.1323602e-16)
(459.47382 0.04186339 -1.1089156e-16)
(459.75204 0.1018538 -3.2782775e-16)
(460.13381 -0.14949013 -2.5850216e-16)
(459.69875 0.14239615 2.3599477e-16)
(459.92887 0.10563858 -1.9196996e-17)
(459.77005 0.035187389 4.6599786e-18)
(459.42584 -0.04426114 2.1028373e-17)
(459.74779 -0.013202322 -2.3387488e-16)
(459.89893 0.0012184708 -6.9991743e-18)
(460.21785 0.0024753229 6.7960497e-17)
(459.87443 -0.00023544573 8.8617761e-17)
(460.16374 0.064914957 8.8278652e-17)
(459.63726 -0.10117114 -1.5865753e-16)
(460.41948 0.039123437 1.2338434e-16)
(459.56884 -0.060511289 -1.6858634e-16)
(460.23192 0.077544238 -3.9265819e-16)
(460.18746 -0.078438996 -1.3393767e-16)
(459.74815 0.14563016 2.354525e-18)
(460.20521 -0.16509856 -5.047918e-16)
(459.84308 0.14951787 7.023026e-17)
(459.78883 -0.10664735 -8.5375082e-17)
(460.26576 0.079857582 8.361147e-17)
(459.00819 0.021649868 -5.0444942e-17)
(460.97382 -0.14538334 1.096862e-16)
(458.44053 0.2337794 3.8406022e-16)
(461.67857 -0.26601362 6.7326498e-17)
(457.84906 0.19320964 -7.0683257e-17)
(462.5111 -0.015184459 4.4590339e-16)
(456.78749 -0.12004264 2.1537298e-16)
(463.51816 0.21558989 4.2636717e-17)
(455.79846 -0.26140688 5.7792726e-17)
(464.24022 0.14731003 -5.2224608e-17)
(455.45319 -0.0099511198 3.1165394e-17)
(464.26353 -0.21974671 4.5522856e-16)
(456.43241 0.37332513 -1.3647013e-16)
(462.51693 -0.43821246 6.4847287e-17)
(458.87544 0.41533887 -2.2345211e-16)
(460.14593 -0.33075236 -8.2734425e-17)
(460.58633 0.22579799 1.6472843e-16)
(458.86812 -0.21403031 3.7180026e-16)
(461.06347 0.2151284 1.2819564e-16)
(458.92415 -0.10607618 -3.4697096e-16)
(460.64677 -0.066140273 -2.9995505e-16)
(459.32541 0.099973799 -3.8055885e-16)
(460.41938 0.30319465 -1.6772568e-16)
(459.13287 -0.63824643 1.0445233e-16)
(460.49312 0.68248263 -1.2843038e-16)
(459.12659 -0.44407412 4.792656e-17)
(460.13935 0.19122028 8.1156245e-18)
(459.5269 -0.064866426 2.9625821e-16)
(459.87924 0.010572822 -3.2391154e-19)
(460.586 -0.09798529 2.2454816e-16)
(459.48139 0.277974 -2.6099673e-16)
(460.0152 -0.57005604 4.5839115e-17)
(459.97173 0.37710501 3.0203945e-16)
(459.77332 0.23745886 2.3371195e-16)
(460.04556 -0.32131228 3.9013878e-16)
(459.67926 0.013603355 -3.3641752e-16)
(459.44184 0.247307 3.0885802e-16)
(459.95297 -0.24597505 2.8268234e-16)
(459.33983 -0.1195294 -2.74951e-17)
(460.04683 0.31561532 3.428676e-16)
(459.94121 -0.35882702 2.8813067e-17)
(459.67006 0.14230089 -3.8981287e-16)
(459.63565 -0.24128751 -3.0164123e-16)
(460.3303 0.30481438 2.7757631e-16)
(459.62706 -0.13227543 1.0731384e-16)
(459.27632 -0.024250851 2.5152023e-16)
(460.26049 0.25939223 2.0244921e-17)
(459.49638 -0.29445317 -1.1470206e-18)
(459.83322 0.010298693 2.5650071e-16)
(460.41569 -0.060731626 4.1578868e-17)
(460.17046 -0.066056188 2.0896247e-16)
(459.86121 0.20325771 -2.1709584e-16)
(460.30535 -0.078021192 -5.6296328e-18)
(459.55513 -0.0021109417 -1.0438418e-17)
(459.70379 0.24334639 -2.1080199e-16)
(460.07403 -0.27546033 -5.0580737e-18)
(459.70665 0.075807189 -2.9989771e-17)
(459.88531 0.23744463 1.7329983e-16)
(459.68043 0.06277574 -1.865066e-16)
(459.36627 -0.047090261 2.2061549e-17)
(459.7328 -0.025780224 2.3909196e-17)
(459.85521 -0.03898898 -1.6533472e-17)
(460.24115 0.053076137 -1.9526978e-16)
(459.70486 -0.021411639 -1.2538382e-16)
(460.36783 0.079879379 7.8262433e-17)
(459.46255 -0.08047963 -3.5383399e-16)
(460.36563 -0.0041022037 5.7920809e-16)
(459.77003 -0.026737196 -3.2849394e-16)
(460.00274 0.060189798 -4.3891834e-17)
(460.54666 -0.097335576 -1.43265e-16)
(459.73698 0.19349262 5.1802429e-16)
(460.29642 -0.23089712 -4.2927121e-16)
(459.95114 0.23635482 4.1541034e-16)
(459.61378 -0.15183413 -8.8218206e-17)
(460.4233 0.095603317 -2.9850451e-16)
(458.79752 -0.0138538 -3.9516274e-18)
(461.04562 -0.063679146 1.1134383e-17)
(458.3205 0.13555882 4.7957432e-17)
(461.71447 -0.22664015 5.8109358e-17)
(457.76516 0.2099535 1.1534761e-17)
(462.77769 -0.062764702 4.1682066e-17)
(456.46011 -0.089942732 2.020405e-16)
(464.07617 0.22474063 1.4045476e-16)
(455.15613 -0.28128373 4.2699248e-17)
(464.87295 0.18870698 9.5905668e-17)
(454.73802 -0.053527238 -1.8880984e-17)
(464.84753 -0.23110986 9.9611769e-17)
(455.9118 0.41451282 1.8108889e-16)
(463.10086 -0.55039319 1.5320844e-16)
(458.38532 0.56763432 -3.6639946e-16)
(460.63478 -0.5000237 1.7380525e-16)
(460.37703 0.39007842 -1.3918926e-16)
(458.84298 -0.27828893 -1.8057796e-16)
(461.17155 0.18106966 3.1040003e-17)
(458.58299 -0.016566549 8.8202558e-17)
(460.8067 -0.13819075 2.4400571e-16)
(459.05259 0.18263176 -2.4127449e-18)
(460.43587 0.22793702 1.0041149e-16)
(458.95195 -0.60513556 3.3011197e-17)
(460.47486 0.7723394 2.7351636e-16)
(458.87729 -0.54019087 -1.0934664e-16)
(460.26579 0.21142747 -2.012041e-16)
(459.42888 -0.055213848 -2.4303949e-17)
(459.92504 -0.0040333058 2.6895203e-17)
(460.71742 -0.14231776 3.0888855e-16)
(459.52236 0.29006638 7.8308613e-17)
(460.12749 -0.52845696 3.2613377e-16)
(460.03255 0.28699302 2.5956358e-17)
(459.76852 0.34747675 4.1737189e-17)
(459.99362 -0.32058817 3.12906e-17)
(459.56953 0.027206959 1.7687044e-17)
(459.31914 0.262624 3.310745e-16)
(460.01431 -0.25330323 3.6882684e-17)
(459.10662 -0.14379307 -2.4020283e-16)
(460.04073 0.26406637 5.4523642e-17)
(460.05894 -0.32117009 2.425229e-16)
(459.51242 0.16980173 -2.0388784e-16)
(459.72866 -0.37424375 9.6230685e-17)
(460.49161 0.33522744 2.2171963e-16)
(459.5155 -0.06609275 1.9150906e-17)
(459.30538 -0.12706719 -1.3545874e-16)
(460.36033 0.31301143 -1.8225739e-16)
(459.45195 -0.28655884 6.5545936e-17)
(459.81741 -0.10241469 2.3991156e-16)
(460.53051 0.048386904 4.0523638e-17)
(460.28955 -0.19668577 -3.2671788e-16)
(459.9106 0.3292874 2.3045398e-16)
(460.23923 -0.051195815 -7.5508268e-17)
(459.69416 -0.028079874 4.5134651e-17)
(459.70734 0.33090559 1.7144158e-16)
(459.93924 -0.2918236 2.7931028e-18)
(459.69367 -0.0015263847 2.5744603e-17)
(459.84365 0.28753813 2.9302102e-17)
(459.59529 0.034331603 3.1670951e-18)
(459.24608 -0.00082234881 -1.0319827e-16)
(459.63809 -0.014265459 6.3769095e-17)
(459.51889 -0.0037622575 -6.8054605e-17)
(460.3808 0.022517447 -1.5863805e-16)
(459.40319 -0.029611042 -1.7270526e-16)
(460.52154 0.071761509 3.7200293e-16)
(459.46813 -0.049882576 -2.1092748e-16)
(460.07161 -0.054175677 2.0465766e-16)
(460.36779 -0.013569488 -1.7191643e-16)
(459.36459 0.067552345 1.6381931e-16)
(461.22559 -0.16223581 -2.8499142e-16)
(459.37157 0.28881907 3.1168174e-16)
(460.52315 -0.31149365 -1.0546294e-16)
(460.01436 0.32000056 9.906859e-17)
(459.43823 -0.16273251 2.69948e-16)
(460.68062 0.1247454 -2.0376754e-16)
(458.67336 -0.052979146 4.4555465e-17)
(461.06478 -0.042197961 3.2762767e-17)
(458.48403 0.13599996 6.3072289e-17)
(461.3368 -0.25065016 5.0325435e-17)
(458.03689 0.15970258 -3.0482746e-16)
(462.49492 0.031687598 1.3844944e-16)
(456.3665 -0.15248108 -6.0429218e-17)
(464.35756 0.20923808 1.8256473e-16)
(454.51718 -0.17244608 -1.1780336e-16)
(465.62356 0.068056449 1.9718425e-16)
(453.81874 0.024050465 -4.1093415e-16)
(465.71499 -0.28609476 4.0667927e-16)
(455.14143 0.43562337 2.6502297e-17)
(463.79906 -0.60013656 -1.2344951e-16)
(457.90075 0.64665781 -3.0688261e-16)
(461.03888 -0.66793395 1.4046505e-17)
(460.25618 0.68093453 1.5231979e-16)
(458.7767 -0.59185202 1.057073e-16)
(461.38493 0.46115632 -1.0446356e-17)
(458.10233 -0.18357867 4.740282e-17)
(461.22011 -0.096773935 1.0743887e-16)
(458.50032 0.28987053 -1.6236926e-16)
(460.64808 0.026644717 3.3394237e-16)
(458.66326 -0.42551218 2.2802625e-16)
(460.66527 0.72051126 2.7492392e-17)
(458.54071 -0.61219227 6.47565e-17)
(460.55338 0.30055292 3.7104127e-17)
(459.19855 -0.17264122 -1.7500244e-16)
(459.98584 -0.015947441 2.0276745e-16)
(460.78855 -0.035139623 2.3405207e-16)
(459.34694 0.07214438 1.4879956e-17)
(460.29997 -0.35717767 2.2673639e-16)
(460.07234 0.37861831 9.37839e-17)
(459.6081 0.12592939 1.7950623e-16)
(460.08938 -0.10687341 1.4711719e-16)
(459.66868 0.037402713 -1.6185268e-16)
(459.00225 0.12074351 8.3107743e-17)
(460.24607 -0.12302141 2.9017319e-17)
(459.03268 -0.064139351 5.9401406e-17)
(459.82327 -0.069968592 1.8377652e-16)
(460.28271 -0.082147961 -2.3588045e-16)
(459.61005 0.17169652 -1.6871095e-16)
(459.57357 -0.46667786 6.4907642e-17)
(460.64049 0.27315528 3.5267739e-17)
(459.68848 0.099604241 7.0506677e-18)
(459.18672 -0.27753978 -1.740087e-16)
(460.3045 0.26084205 4.1689442e-17)
(459.5051 -0.15365716 4.8630407e-17)
(459.70674 -0.21418084 -8.2611369e-17)
(460.38255 0.09245251 2.0743778e-17)
(460.24349 -0.18654265 8.4900667e-18)
(459.96798 0.34881848 1.5986275e-16)
(460.00284 -0.089270054 -1.2681298e-16)
(459.64505 0.054075875 1.706277e-16)
(459.60333 0.39358394 -1.396644e-16)
(459.70491 -0.40224702 -1.4271706e-16)
(459.47453 0.076723372 1.9728626e-17)
(459.59665 0.34372612 5.8023299e-17)
(459.41673 -0.066875907 -1.0565275e-16)
(458.95311 0.014647315 -1.1576366e-17)
(459.34942 0.0040101359 1.3899831e-16)
(458.51493 -0.031970904 -6.0355922e-17)
(460.9594 0.078145544 -1.7030066e-16)
(458.86397 -0.049960323 1.7486514e-16)
(460.63755 0.060396094 6.9441719e-17)
(459.79708 -0.0044268604 -2.2639934e-16)
(459.54386 -0.11815364 1.5518703e-16)
(461.22111 0.014918593 -3.0477594e-17)
(458.5031 0.060713644 1.7646432e-16)
(461.83527 -0.22045817 1.693382e-16)
(458.84855 0.38663793 1.0331224e-16)
(460.65069 -0.39437371 1.3716081e-16)
(460.18382 0.39139894 1.1559872e-16)
(459.19661 -0.21161554 3.4484841e-17)
(461.11466 0.17102404 -8.3566489e-17)
(458.51308 -0.044414181 9.9678755e-17)
(461.03277 -0.066521561 2.5368514e-17)
(458.66859 0.099450147 9.3104421e-17)
(460.75046 -0.10607689 -6.0523395e-20)
(458.34078 -0.031971271 -2.3197984e-16)
(461.78957 0.1696345 1.2644713e-16)
(456.92578 -0.20312692 -4.1992976e-17)
(463.67666 0.21317227 4.5856762e-16)
(455.33485 -0.18882588 -1.1145653e-16)
(465.15146 0.12444995 -3.7329226e-17)
(454.58861 -0.067121252 -3.1233305e-16)
(465.13647 -0.25434443 1.429558e-16)
(455.88363 0.47661515 -5.3108019e-17)
(463.19514 -0.74075816 3.0629704e-16)
(458.16293 0.84649688 1.2916243e-16)
(460.94406 -0.91998705 -8.2928354e-17)
(460.08054 0.98604358 -2.6038682e-17)
(458.77773 -0.82605478 1.2883947e-16)
(461.45441 0.55962926 -2.9921101e-17)
(457.81613 -0.10453432 -1.5041054e-16)
(461.56888 -0.23078819 8.9647367e-17)
(457.99433 0.45779286 -2.1625512e-16)
(461.40051 -0.17485681 9.4019649e-17)
(457.69822 -0.24840085 -1.5838306e-16)
(461.90275 0.57164075 1.037266e-17)
(457.52612 -0.53110954 4.3721032e-16)
(461.15361 0.21243874 5.0912831e-17)
(458.93114 -0.050363841 3.1067323e-17)
(459.61439 -0.14015565 1.613244e-17)
(460.854 -0.034601417 1.8998148e-16)
(459.06519 0.065145499 -1.7906588e-16)
(460.04653 -0.39706222 2.8603085e-17)
(460.17879 0.51906552 -1.6168143e-16)
(459.50385 0.063771413 1.3589759e-17)
(459.85034 -0.14361669 1.9135783e-17)
(460.17293 0.26905356 3.2077633e-17)
(458.57929 -0.095355758 1.4175407e-17)
(460.35498 -0.11156677 -1.2834418e-16)
(459.07512 0.16362235 3.5459378e-17)
(459.40517 -0.33802411 6.1678207e-17)
(460.28629 -0.082926972 1.8322696e-18)
(459.75982 0.35145925 1.6531693e-17)
(459.02848 -0.55597701 -1.5799938e-16)
(460.48755 0.17824618 -1.3014221e-16)
(459.77362 0.2496329 1.3303164e-16)
(458.65923 -0.18968633 3.6792374e-17)
(459.84046 0.020317378 1.1669845e-16)
(459.29542 -0.13204846 -1.5750449e-16)
(458.91489 -0.17312938 1.8761496e-17)
(459.77034 0.05525895 -2.8828375e-17)
(459.73285 -0.17050413 -1.669514e-16)
(459.43493 0.60690278 -1.1542609e-16)
(459.24459 -0.27180528 3.2169217e-17)
(459.182 0.059645672 -1.0411313e-16)
(458.99145 0.5780896 -1.0739011e-16)
(458.83463 -0.57316316 -1.3577921e-16)
(458.66448 0.11270048 2.1819396e-18)
(458.91333 0.43163639 1.2957317e-16)
(458.74123 -0.12520858 -1.8408495e-17)
(458.09526 0.0001406822 5.4846755e-17)
(458.38292 -0.0040652102 1.7451899e-16)
(456.90786 0.014311377 -5.4760185e-17)
(462.11463 0.0096950324 1.7110545e-16)
(458.08809 0.0074416039 -1.2843452e-16)
(460.96093 -0.041008934 8.5349099e-17)
(460.0568 0.071732106 1.4973824e-16)
(459.13205 -0.20276911 -6.9472847e-17)
(461.7225 0.084038904 9.4733957e-17)
(458.03488 0.055865077 6.7954357e-18)
(461.95166 -0.26593228 7.5480157e-17)
(458.74599 0.46243919 2.0110666e-16)
(460.57619 -0.47072615 -1.3951665e-16)
(460.38149 0.46061238 7.9170159e-17)
(459.21266 -0.25553233 1.6878161e-16)
(461.13365 0.18151498 2.5095968e-16)
(458.81265 -0.0032772749 -3.1531321e-17)
(460.67549 -0.04239585 6.3142574e-17)
(459.014 0.057490514 2.2347231e-19)
(460.43904 -0.059209184 -1.1557117e-16)
(458.67084 -0.024603859 2.3595576e-16)
(461.20753 0.091741425 1.0656504e-17)
(458.19301 -0.16722627 -9.9579756e-18)
(462.15648 0.16764907 6.2117043e-17)
(457.71334 -0.16055114 -7.5874647e-17)
(462.77663 0.022860135 4.6546946e-17)
(457.75051 0.1251298 2.0879116e-16)
(461.66106 -0.47517106 1.5101552e-17)
(459.40851 0.66582404 -3.040561e-16)
(459.82091 -0.82796294 3.0640578e-16)
(460.14606 0.84491635 2.0141734e-17)
(459.71589 -0.85091094 -2.0561064e-16)
(459.8041 1.0043953 -1.1469091e-17)
(459.48832 -0.94697492 6.0270448e-17)
(460.3731 0.72287185 1.5140109e-16)
(458.62821 -0.2576486 5.2849412e-17)
(461.52986 -0.06061829 -1.0774249e-16)
(457.36821 0.2870823 -2.0482156e-16)
(463.02418 -0.099352827 1.3942341e-18)
(455.77464 -0.13386821 1.6438801e-16)
(463.89182 0.37665909 2.0659228e-17)
(455.99511 -0.33625762 4.5190428e-17)
(461.81825 0.068894828 1.5535254e-17)
(458.44004 0.011936243 8.5826805e-18)
(459.33886 0.0090762036 6.9738861e-17)
(460.24953 -0.26634969 -6.3355664e-17)
(459.12024 0.11442536 5.7862866e-17)
(459.34703 -0.29259699 1.8901064e-17)
(459.84306 0.32037322 2.601725e-17)
(459.66316 0.20299503 2.9504402e-17)
(458.81093 -0.22992613 -1.0010052e-16)
(460.63022 0.420021 -5.6399259e-17)
(457.79355 -0.18946994 -2.6300077e-19)
(459.82366 -0.072739812 1.5152541e-16)
(458.64679 0.23472334 -1.3404414e-16)
(458.45228 -0.44559334 7.0723874e-18)
(459.2944 -0.050843065 2.8751938e-17)
(459.38462 0.36302317 -2.1827334e-17)
(457.60175 -0.58865512 -1.1529029e-16)
(459.4186 0.1288571 -1.0613096e-16)
(459.11574 0.30605681 -1.4732337e-16)
(457.14292 -0.112717 -1.9601556e-17)
(458.28858 0.013704753 -1.4555434e-17)
(458.20117 -0.15770548 -1.563118e-17)
(456.81213 -0.31182736 -1.3987255e-16)
(458.01873 0.015436217 -1.098397e-16)
(458.19186 -0.31446247 3.2953887e-17)
(457.69823 0.9102752 -5.6108132e-17)
(457.1052 -0.18993402 -9.2508726e-18)
(457.60055 0.0013313984 -1.0052975e-16)
(457.2315 0.76458898 -1.8297989e-16)
(456.40511 -0.64852913 8.7285317e-18)
(456.38389 -0.089015692 -3.1140075e-17)
(456.9489 0.48334593 -1.8091715e-16)
(456.56169 -0.02651187 -2.0598218e-17)
(455.62381 -0.0057097406 2.3728672e-17)
(455.53463 -0.03157379 6.6182378e-18)
(455.68275 0.028972308 -9.669596e-17)
(463.25958 -0.023598729 -5.0515401e-17)
(457.36911 0.044115444 -2.151779e-16)
(461.57159 -0.10611187 -1.9536882e-16)
(459.6991 0.13752146 -5.1300636e-18)
(459.51516 -0.26330886 -2.7682519e-17)
(461.14378 0.11492546 -8.5390136e-17)
(458.7735 0.092248964 1.3356677e-16)
(461.0968 -0.3407794 1.0601004e-16)
(459.49664 0.52796402 -1.9963506e-16)
(460.20926 -0.56087005 -3.0437522e-17)
(460.43997 0.53889938 -3.7919052e-19)
(459.68744 -0.30361301 1.6881238e-16)
(460.53229 0.20425146 1.2466582e-16)
(459.71665 -0.0077608858 -2.1492575e-17)
(460.0901 -0.013685077 5.2693982e-18)
(459.61062 0.07705528 2.2994057e-17)
(460.53889 -0.060609103 -1.4392146e-17)
(458.75526 -0.076284451 9.825499e-17)
(461.49174 0.1720985 -9.6610508e-17)
(458.58962 -0.28113084 1.1149572e-16)
(461.38631 0.18758962 -7.7841735e-17)
(459.2717 -0.078620961 1.2481329e-16)
(460.43496 -0.15338152 -5.1093583e-17)
(460.33444 0.34770684 -1.1096434e-16)
(458.49081 -0.57885463 -1.5028628e-17)
(461.98033 0.68482933 1.1861703e-17)
(457.1277 -0.67018462 2.2607165e-16)
(461.79644 0.5535207 1.9720984e-17)
(458.29425 -0.52837832 5.8084447e-17)
(460.1328 0.82072663 4.4746628e-17)
(459.64714 -0.99774572 5.9946518e-18)
(459.58609 0.89275508 -1.7395919e-16)
(459.36338 -0.54533041 2.1874054e-16)
(461.01675 0.30266339 1.8319121e-17)
(457.26438 -0.12420322 1.3377471e-17)
(463.32576 0.10419612 3.4522054e-17)
(454.76537 -0.054143708 7.0422179e-18)
(464.44198 0.22082358 2.3265959e-16)
(454.71358 -0.12181225 -3.4088889e-18)
(462.09845 -0.16823179 -5.5526127e-18)
(457.04043 0.20126461 2.1065982e-16)
(459.57878 -0.088433445 4.4178238e-17)
(458.12493 -0.16666053 -2.0274473e-17)
(459.21612 -0.040291205 5.2335934e-18)
(457.97312 -0.078815023 3.9302162e-18)
(458.34098 0.088545887 1.7126264e-16)
(459.17165 0.2931957 1.1335611e-16)
(456.83419 -0.33123819 -1.3384675e-17)
(459.4675 0.50395425 -2.9451669e-16)
(456.20623 -0.12704308 -1.7512417e-16)
(457.60783 -0.20182128 -2.1574658e-17)
(456.33725 0.41839729 1.6201203e-16)
(456.4092 -0.61617953 -4.6211589e-17)
(455.91888 0.012269367 -1.2432287e-18)
(457.21585 0.44658911 1.1134201e-16)
(454.7975 -0.5369611 -1.794384e-16)
(456.03282 -0.20134969 -1.5727223e-16)
(456.23004 0.62302296 1.4451126e-16)
(454.04914 -0.12039836 6.3114277e-17)
(454.24186 -0.20420881 -1.997587e-16)
(454.39037 0.16638102 -2.1433131e-16)
(452.71907 -0.31557485 -1.5343649e-16)
(453.84727 -0.29469645 7.2710507e-17)
(454.07191 -0.44710162 -3.7502645e-17)
(454.06442 0.79799204 -5.9771424e-17)
(452.67948 -0.025392391 -4.3630244e-17)
(453.2993 -0.0071873481 -5.1657178e-17)
(452.85246 0.93781548 -8.378703e-17)
(451.4075 -0.29089639 4.330972e-17)
(451.31537 -0.34467008 -1.4440694e-16)
(451.81338 0.22505177 6.0764775e-17)
(451.28829 0.17168986 -7.5918996e-17)
(450.09471 0.11460593 -2.234844e-17)
(449.38167 -0.033119989 -4.3679783e-17)
(455.76595 0.078519251 -2.7733676e-17)
(463.7937 -0.12344113 2.6358567e-16)
(456.94148 0.12376963 4.9306684e-16)
(462.34442 -0.198126 2.9085176e-16)
(458.78347 0.21870953 -9.3158438e-17)
(460.65683 -0.29828129 2.306989e-16)
(459.81562 0.10171228 7.3424092e-17)
(460.1771 0.14427789 1.5939971e-16)
(459.80133 -0.38863597 8.4461967e-17)
(460.45861 0.55069671 1.3056621e-16)
(459.69472 -0.58752367 2.1983715e-16)
(460.36382 0.53651781 8.7064672e-17)
(460.16949 -0.26956832 6.0881981e-17)
(459.71144 0.15608338 -6.3867138e-17)