/*--------------------------------*- C++ -*----------------------------------*\
| =========                 |                                                 |
| \\      /  F ield         | OpenFOAM: The Open Source CFD Toolbox           |
|  \\    /   O peration     | Version:  2.3.0                                 |
|   \\  /    A nd           | Web:      www.OpenFOAM.org                      |
|    \\/     M anipulation  |                                                 |
\*---------------------------------------------------------------------------*/
FoamFile
{
    version     2.0;
    format      ascii;
    class       volScalarField;
    location    "1.7";
    object      epsilon;
}
// * * * * * * * * * * * * * * * * * * * * * * * * * * * * * * * * * * * * * //

dimensions      [0 2 -3 0 0 0 0];

internalField   nonuniform List<scalar> 
2268
(
0.012459
0.0672503
0.129968
0.187077
0.238447
0.286365
0.331655
0.374019
0.412143
0.444358
0.469249
0.485869
0.493658
0.4922
0.480884
0.458232
0.426567
0.384915
0.335768
0.281733
0.217767
0.133423
0.0433387
0.0202728
0.0422717
0.0681867
0.0919273
0.113479
0.133286
0.151559
0.168205
0.18285
0.19503
0.204363
0.210631
0.213753
0.213731
0.210579
0.204333
0.196711
0.188195
0.178477
0.166023
0.145269
0.107559
0.0754714
0.0335874
0.0447002
0.0627133
0.0799087
0.0957473
0.110291
0.12359
0.135534
0.14586
0.154275
0.160571
0.164675
0.166637
0.166588
0.164712
0.161324
0.157456
0.153814
0.150437
0.146329
0.13783
0.121495
0.141905
0.0499314
0.0516962
0.0657621
0.0801684
0.093779
0.106399
0.117948
0.128253
0.137037
0.144029
0.149074
0.152178
0.153483
0.153222
0.15169
0.149306
0.146866
0.14509
0.144179
0.143699
0.142118
0.142163
0.22209
0.0681473
0.0609071
0.0720997
0.0848692
0.0973705
0.109149
0.119993
0.12964
0.137755
0.144039
0.148352
0.150763
0.151514
0.15095
0.14947
0.147557
0.145907
0.145254
0.145953
0.148113
0.152278
0.167938
0.31592
0.0883207
0.0715551
0.0803289
0.0920076
0.103945
0.11541
0.126052
0.135509
0.14336
0.149246
0.15302
0.154809
0.154978
0.154013
0.152428
0.150775
0.149709
0.149995
0.15219
0.156991
0.167081
0.199704
0.425896
0.109133
0.0832095
0.0898956
0.100839
0.112562
0.124045
0.134802
0.144364
0.152201
0.157862
0.161162
0.162292
0.161767
0.160264
0.158453
0.156961
0.156451
0.157723
0.161598
0.169402
0.186144
0.239017
0.57951
0.131149
0.0957342
0.100575
0.111058
0.122832
0.134584
0.145697
0.155599
0.163628
0.169196
0.172038
0.172392
0.170979
0.168744
0.166566
0.165181
0.165288
0.167723
0.173618
0.184904
0.208755
0.284769
0.913506
0.0967758
0.42745
0.893213
1.097
1.10303
1.01917
0.90865
0.80095
0.689293
0.557903
0.414155
0.303239
0.257386
0.241597
0.218359
0.178667
0.130338
0.0861696
0.030865
0.108049
0.278447
0.469335
0.532654
0.52037
0.478331
0.43136
0.386536
0.341543
0.295262
0.250994
0.212775
0.179714
0.152756
0.130144
0.10579
0.0800278
0.0573258
0.0420914
0.147677
0.330558
0.469003
0.500062
0.472056
0.424394
0.376638
0.332917
0.290863
0.250512
0.216889
0.1915
0.16688
0.141893
0.120776
0.0999701
0.0794915
0.0634001
0.063677
0.202556
0.424932
0.527512
0.535171
0.494665
0.438734
0.383597
0.332787
0.284665
0.24051
0.205748
0.182127
0.162649
0.141637
0.122058
0.103246
0.0858725
0.0738178
0.0872867
0.301724
0.548058
0.60248
0.586758
0.536522
0.474344
0.411675
0.35117
0.293515
0.242358
0.203839
0.178687
0.161278
0.144217
0.126368
0.109229
0.0943738
0.0862766
0.11745
0.522128
0.699991
0.683687
0.642464
0.583703
0.516797
0.448478
0.377595
0.309086
0.250341
0.20754
0.179818
0.162268
0.147871
0.131756
0.116269
0.10384
0.100165
0.154001
1.09285
0.880264
0.763792
0.697555
0.631181
0.559483
0.485978
0.406384
0.328257
0.262377
0.214985
0.184362
0.165616
0.152292
0.137702
0.123834
0.11377
0.114986
0.195161
2.00677
1.02933
0.82828
0.748456
0.676492
0.599635
0.52048
0.434547
0.349485
0.277126
0.224851
0.191239
0.170883
0.157618
0.144274
0.131851
0.123944
0.130558
0.240776
0.162623
0.115336
0.118257
0.128553
0.140792
0.153274
0.165246
0.17599
0.184623
0.190265
0.192415
0.191336
0.188155
0.184415
0.181454
0.180244
0.181578
0.186302
0.196016
0.213453
0.246809
0.326067
0.593847
0.205294
0.145076
0.146965
0.158059
0.171741
0.185992
0.200103
0.213237
0.224099
0.230973
0.232387
0.228196
0.220455
0.212545
0.207092
0.205566
0.208877
0.217981
0.234224
0.260807
0.303964
0.379427
0.520651
0.250372
0.178745
0.181567
0.19414
0.209678
0.226365
0.243966
0.261657
0.277776
0.289009
0.291374
0.282506
0.265574
0.24885
0.23787
0.234765
0.240199
0.255193
0.281318
0.320586
0.377683
0.462327
0.584511
0.303824
0.21599
0.220971
0.234914
0.252753
0.273045
0.296369
0.3221
0.349215
0.37211
0.382416
0.369034
0.332651
0.297047
0.274406
0.267474
0.275061
0.297969
0.338366
0.397447
0.478155
0.593403
0.761302
0.337455
0.249711
0.252485
0.267003
0.28962
0.315926
0.339806
0.361401
0.383584
0.403951
0.415421
0.421165
0.400327
0.351594
0.314371
0.301645
0.311279
0.343963
0.405207
0.494947
0.612576
0.785456
1.06995
0.286528
0.257701
0.262502
0.276528
0.298939
0.322639
0.339104
0.35115
0.361004
0.368944
0.377374
0.387853
0.385532
0.360278
0.33638
0.330009
0.347097
0.387587
0.458414
0.567229
0.715184
0.957391
1.40336
0.3323
0.273248
0.268615
0.283125
0.303531
0.320863
0.332283
0.341501
0.349227
0.355117
0.362049
0.369629
0.372642
0.364766
0.355562
0.355229
0.376075
0.422678
0.497136
0.606255
0.77843
1.07897
1.5773
0.464892
0.311495
0.301046
0.312333
0.322918
0.330278
0.336782
0.344835
0.352201
0.353883
0.356478
0.365146
0.371982
0.372718
0.371907
0.373936
0.392506
0.442567
0.528514
0.646934
0.832928
1.13383
1.42757
0.591749
0.337446
0.315392
0.321637
0.330844
0.336553
0.339542
0.343093
0.346269
0.345686
0.349293
0.360359
0.369385
0.372043
0.371301
0.375529
0.398378
0.452631
0.539789
0.665818
0.854599
1.0911
1.23058
0.696738
0.351279
0.306378
0.304981
0.31224
0.317916
0.320778
0.322704
0.324541
0.326873
0.333381
0.344068
0.352259
0.354999
0.35663
0.365902
0.393269
0.447227
0.531944
0.654135
0.81962
0.985691
1.0599
0.767402
0.358495
0.29711
0.285558
0.286973
0.290236
0.292637
0.294711
0.297496
0.301907
0.308965
0.318016
0.325672
0.331051
0.337725
0.352045
0.381171
0.43128
0.508776
0.620119
0.755679
0.87684
0.926546
0.79646
0.358172
0.287535
0.267941
0.26329
0.263222
0.264464
0.266568
0.269928
0.274936
0.281709
0.289681
0.297732
0.305822
0.316592
0.33426
0.363362
0.408098
0.473536
0.564286
0.672838
0.769799
0.815908
0.78654
0.349377
0.275882
0.251666
0.242696
0.239779
0.239636
0.241264
0.244466
0.249189
0.255304
0.262546
0.270821
0.280668
0.293843
0.313011
0.340988
0.380533
0.434772
0.505933
0.589376
0.667222
0.712046
0.744238
0.332119
0.260982
0.235404
0.224274
0.219579
0.218303
0.219229
0.221852
0.225924
0.231302
0.237965
0.24618
0.256716
0.270839
0.290161
0.316449
0.351434
0.396774
0.452997
0.516388
0.575651
0.612803
0.678304
0.307658
0.242666
0.21826
0.206827
0.201473
0.199568
0.199926
0.20197
0.205418
0.210183
0.216382
0.224395
0.23491
0.24888
0.267423
0.291637
0.322483
0.360607
0.405481
0.453729
0.497504
0.52519
0.597454
0.277954
0.221543
0.200027
0.189627
0.184535
0.182557
0.182672
0.184364
0.187395
0.191736
0.197557
0.205233
0.215336
0.228575
0.245715
0.267472
0.294377
0.326375
0.362419
0.399503
0.432011
0.452648
0.507366
0.24502
0.198588
0.180954
0.172414
0.168213
0.166615
0.166818
0.168423
0.17126
0.175337
0.180831
0.188067
0.197501
0.209661
0.225081
0.244206
0.267256
0.293929
0.322989
0.35194
0.376799
0.392933
0.421324
0.211273
0.174872
0.161491
0.155196
0.152227
0.15129
0.151814
0.153524
0.156318
0.160227
0.165409
0.172129
0.180738
0.191625
0.205162
0.221613
0.241017
0.263019
0.286465
0.309385
0.328966
0.342136
0.342727
0.177917
0.151234
0.142098
0.138115
0.136479
0.136313
0.137262
0.139167
0.141983
0.145755
0.150611
0.15676
0.164462
0.174
0.185627
0.199493
0.215556
0.23346
0.252323
0.270596
0.286292
0.297286
0.267889
0.147002
0.128523
0.123258
0.121405
0.121022
0.1216
0.122971
0.125075
0.127911
0.131529
0.136035
0.141581
0.148358
0.156563
0.166365
0.177848
0.190936
0.205321
0.220391
0.23497
0.24764
0.256897
0.196312
0.118422
0.107445
0.105423
0.105352
0.106033
0.107246
0.10897
0.111223
0.114038
0.117471
0.121602
0.126542
0.132425
0.139385
0.147533
0.156911
0.167446
0.178894
0.190813
0.202438
0.212696
0.220525
0.139705
0.0938364
0.0885906
0.0888996
0.0902553
0.0917863
0.0934954
0.0954768
0.0978104
0.100555
0.103767
0.107513
0.111869
0.116928
0.122779
0.129491
0.137086
0.145503
0.154564
0.163953
0.173205
0.181542
0.188205
0.0961377
0.0724605
0.071981
0.0741304
0.0765015
0.0786403
0.0806959
0.0828371
0.0851873
0.0878152
0.0907834
0.0941461
0.0979601
0.102286
0.107183
0.112693
0.118829
0.125546
0.132722
0.14014
0.147488
0.154324
0.160047
0.0683226
0.05638
0.0586328
0.0617793
0.0646102
0.0670536
0.0692796
0.0714701
0.0737582
0.0762279
0.0789376
0.0819329
0.0852552
0.0889461
0.0930444
0.0975758
0.102547
0.107933
0.113654
0.119568
0.125468
0.131088
0.136034
0.0550201
0.0460985
0.0489097
0.0521287
0.0549167
0.0573604
0.0595754
0.0617091
0.0638775
0.0661589
0.0686055
0.0712551
0.0741388
0.0772853
0.0807203
0.0844622
0.0885173
0.0928704
0.0974745
0.102242
0.107043
0.111702
0.116011
0.0509534
0.0399264
0.042014
0.0448072
0.0473322
0.0496096
0.0516997
0.0537062
0.0557176
0.0577972
0.0599881
0.062321
0.0648197
0.067505
0.0703953
0.0735047
0.07684
0.0803954
0.084146
0.0880421
0.0920052
0.0959273
0.0996762
0.0499828
0.0360642
0.0370137
0.0392674
0.041521
0.043604
0.0455444
0.0474098
0.049263
0.0511523
0.0531122
0.0551674
0.0573373
0.0596381
0.0620844
0.0646884
0.0674582
0.0703948
0.0734884
0.076714
0.0800281
0.0833668
0.0866466
0.0499887
0.0336356
0.0335312
0.0352296
0.0371806
0.0390819
0.0408928
0.04264
0.0443619
0.0460932
0.047861
0.0496862
0.0515854
0.0535728
0.0556615
0.0578631
0.0601873
0.0626401
0.0652211
0.0679214
0.07072
0.073582
0.0764566
0.050714
0.0321427
0.0311715
0.0323941
0.0340789
0.0358264
0.037535
0.039193
0.0408163
0.0424269
0.0440453
0.0456891
0.0473733
0.0491114
0.0509158
0.0527985
0.0547706
0.0568412
0.0590163
0.0612968
0.063676
0.0661373
0.0686519
0.0523068
0.0314738
0.0297852
0.0306242
0.0320866
0.0337015
0.0353221
0.0369068
0.0384524
0.0399695
0.0414724
0.042975
0.0444909
0.0460327
0.0476125
0.0492426
0.0509348
0.0527004
0.0545491
0.0564875
0.0585179
0.0606351
0.062825
0.0550678
0.031688
0.0293671
0.0298885
0.0311569
0.0326439
0.034172
0.0356794
0.0371493
0.0385828
0.039988
0.0413752
0.0427554
0.0441398
0.0455398
0.0469672
0.0484339
0.0499521
0.0515334
0.0531877
0.0549222
0.0567391
0.0586336
0.0594022
0.0329648
0.0300158
0.0302379
0.0313088
0.0326479
0.0340574
0.0354635
0.0368403
0.0381817
0.03949
0.0407712
0.0420329
0.0432839
0.0445338
0.045793
0.0470729
0.0483854
0.0497424
0.0511554
0.052634
0.0541846
0.0558083
0.0658199
0.0355868
0.0319173
0.0317919
0.0326149
0.0337526
0.0349924
0.0362532
0.0375024
0.0387277
0.0399252
0.0410956
0.0422423
0.0433702
0.0444862
0.0455987
0.0467171
0.0478522
0.0490154
0.0502179
0.0514704
0.052781
0.0541541
0.0749761
0.039939
0.0353345
0.0347252
0.0351867
0.0360266
0.0370177
0.0380703
0.0391439
0.0402178
0.0412803
0.0423252
0.0433498
0.0443546
0.0453425
0.0463187
0.0472904
0.0482662
0.0492558
0.0502696
0.0513176
0.0524082
0.053547
0.0877848
0.0465318
0.0406025
0.0392493
0.0391529
0.0395485
0.0401834
0.0409502
0.0417921
0.0426741
0.0435727
0.044472
0.0453619
0.0462369
0.0470953
0.0479385
0.0487706
0.0495974
0.0504266
0.0512666
0.0521257
0.0530117
0.0539295
0.105639
0.0560589
0.04812
0.0455786
0.0446236
0.0443775
0.0445291
0.0449276
0.045483
0.0461353
0.0468431
0.0475776
0.0483192
0.0490556
0.0497797
0.050489
0.0511839
0.0518675
0.0525447
0.0532215
0.0539041
0.054598
0.0553064
0.13085
0.0695085
0.0583233
0.0538681
0.0516351
0.0505162
0.0500605
0.0500237
0.0502543
0.050653
0.0511532
0.05171
0.0522936
0.0528842
0.0534697
0.0540432
0.0546021
0.0551463
0.055678
0.0562006
0.0567177
0.0572321
0.0577439
0.167762
0.0883825
0.0716015
0.0640946
0.0600705
0.0578698
0.0567329
0.0562409
0.056145
0.0562922
0.0565862
0.0569652
0.0573894
0.0578326
0.0582785
0.0587168
0.059142
0.0595515
0.059945
0.0603234
0.0606876
0.0610374
0.0613695
0.226392
0.115082
0.0880025
0.0758247
0.0695548
0.066215
0.0644511
0.0635729
0.0632069
0.0631423
0.0632561
0.0634736
0.0637484
0.0640509
0.0643624
0.0646707
0.0649685
0.0652515
0.0655173
0.0657648
0.0659929
0.0661988
0.0663758
0.333799
0.152584
0.106243
0.0877879
0.0793542
0.0752119
0.0731065
0.0720394
0.0715314
0.0713368
0.0713225
0.0714123
0.0715605
0.0717387
0.0719289
0.0721191
0.0723017
0.0724718
0.0726261
0.0727622
0.0728777
0.0729685
0.0730265
0.590527
0.199378
0.120874
0.0973448
0.0884268
0.0845322
0.0826763
0.0817518
0.0812929
0.0810832
0.0810134
0.0810236
0.0810794
0.0811592
0.0812496
0.0813414
0.0814286
0.0815069
0.0815734
0.0816257
0.0816613
0.0816766
0.0816644
1.60421
0.21353
0.117917
0.100927
0.0960412
0.0942108
0.0933996
0.0930026
0.0928
0.0926983
0.0926527
0.0926393
0.0926444
0.0926596
0.0926796
0.0927007
0.0927203
0.0927367
0.0927486
0.0927548
0.0927544
0.0927458
0.0927264
1.86698
1.72105
1.78363
2.0947
0.684546
0.762216
0.832253
0.89878
0.693867
0.777779
0.862703
0.945291
0.915231
1.03332
1.14988
1.25837
1.34194
1.53342
1.70281
1.84107
1.8075
1.98918
2.06733
2.04843
1.84222
1.87854
1.80655
1.68654
1.49811
1.49182
1.43675
1.34099
1.24534
1.23467
1.17757
1.09744
1.05866
1.03856
0.986695
0.926605
0.917301
0.898214
0.857974
0.811271
0.807486
0.790994
0.762863
0.730347
0.710173
0.699728
0.682862
0.66317
0.615135
0.61032
0.600729
0.587608
0.528573
0.526233
0.519993
0.509987
0.456116
0.454984
0.450715
0.443484
0.396489
0.396192
0.393417
0.388349
0.34576
0.346089
0.344477
0.341083
0.300902
0.3017
0.301001
0.298923
0.26043
0.26156
0.261562
0.260509
0.223921
0.225273
0.225792
0.225522
0.191435
0.192922
0.19381
0.194117
0.163102
0.16466
0.165797
0.166518
0.138909
0.140497
0.141797
0.142806
0.118706
0.120285
0.121674
0.122864
0.102186
0.10372
0.105132
0.106416
0.0889453
0.0904001
0.0917836
0.0930884
0.0785344
0.0798836
0.0811985
0.0824701
0.0705118
0.0717378
0.0729552
0.0741546
0.0644724
0.0655695
0.0666704
0.0677719
0.0600757
0.0610428
0.0620204
0.0630061
0.0570536
0.057892
0.0587437
0.0596074
0.0552108
0.055923
0.0566485
0.0573865
0.0544225
0.0550116
0.055612
0.056223
0.0546303
0.0550994
0.0555761
0.0560598
0.0558389
0.0561916
0.0565467
0.0569034
0.0581163
0.0583574
0.0585947
0.0588266
0.0615945
0.0617328
0.0618602
0.0619739
0.0664747
0.0665252
0.0665584
0.0665696
0.0730324
0.0730198
0.0729861
0.0729253
0.0816245
0.0815844
0.0815256
0.0814422
0.0926998
0.0926767
0.092646
0.0926048
1.24295
0.970371
0.876735
0.813481
0.738195
0.654913
0.568014
0.47572
0.383775
0.302673
0.242492
0.204261
0.18144
0.167719
0.15598
0.145249
0.139956
0.155664
0.317265
0.946282
0.974188
0.976946
0.92652
0.82565
0.712541
0.608065
0.513537
0.423112
0.3362
0.266336
0.22188
0.197097
0.18425
0.175701
0.166126
0.159891
0.182528
0.402635
1.07089
1.15743
1.17968
1.09788
0.928553
0.757745
0.628489
0.533823
0.452689
0.36385
0.28621
0.236334
0.209804
0.198455
0.194612
0.187549
0.175888
0.192469
0.417809
1.4171
1.49955
1.50929
1.31985
1.02147
0.781786
0.632958
0.536609
0.464023
0.377274
0.297303
0.244705
0.216397
0.203767
0.201707
0.197993
0.181787
0.191037
0.365501
2.00464
1.96784
1.6573
1.29866
0.996991
0.763869
0.616823
0.52209
0.447534
0.37143
0.302321
0.252971
0.223931
0.208525
0.205838
0.20493
0.185474
0.186946
0.293608
1.95094
1.72866
1.41359
1.12787
0.878724
0.699989
0.587473
0.510289
0.441373
0.367522
0.304551
0.261528
0.234308
0.216345
0.21524
0.223397
0.198923
0.183334
0.231987
1.51154
1.30616
1.09563
0.907601
0.748445
0.629011
0.547
0.485489
0.425394
0.361145
0.30324
0.261121
0.236447
0.218244
0.216398
0.238595
0.236276
0.194499
0.201686
1.19486
1.02686
0.879597
0.750473
0.64188
0.558645
0.497349
0.447278
0.397147
0.34352
0.293671
0.254418
0.229453
0.212514
0.206964
0.215798
0.229366
0.198543
0.229599
0.98016
0.84624
0.734954
0.637117
0.55527
0.491614
0.443722
0.404454
0.365964
0.323015
0.280065
0.244487
0.221639
0.206664
0.197137
0.199428
0.20302
0.198881
0.310186
0.83524
0.728834
0.639068
0.556343
0.485965
0.431958
0.391207
0.359223
0.328393
0.293218
0.258443
0.230473
0.212608
0.198248
0.185385
0.18126
0.184349
0.181067
0.27498
0.73936
0.654076
0.578092
0.501213
0.433792
0.381274
0.340584
0.30893
0.281736
0.254988
0.230086
0.210235
0.195894
0.182183
0.169045
0.16209
0.162271
0.155267
0.196681
0.677195
0.609074
0.533572
0.458575
0.395937
0.345356
0.304185
0.271231
0.245193
0.223208
0.20362
0.186744
0.172947
0.160243
0.14874
0.141373
0.137697
0.126897
0.134294
0.627302
0.562894
0.488258
0.421208
0.364743
0.317835
0.278742
0.246791
0.22163
0.20133
0.183301
0.166838
0.152476
0.140111
0.12988
0.122506
0.116568
0.10474
0.09781
0.558731
0.502671
0.44267
0.387051
0.338351
0.296487
0.260674
0.230628
0.20652
0.187197
0.170091
0.154012
0.139314
0.126692
0.116654
0.109492
0.104786
0.0994262
0.101025
0.487613
0.445242
0.399577
0.355252
0.314474
0.278033
0.246017
0.218569
0.19616
0.178181
0.162353
0.147111
0.132773
0.120274
0.110385
0.104045
0.103058
0.108014
0.125281
0.427331
0.396023
0.361216
0.325896
0.291975
0.260633
0.232493
0.208064
0.187915
0.171603
0.157183
0.143096
0.12982
0.118255
0.109293
0.104245
0.10589
0.11707
0.155363
0.376829
0.353602
0.326737
0.298381
0.270193
0.243454
0.219061
0.197726
0.180009
0.165408
0.152269
0.13957
0.127771
0.117656
0.110155
0.106567
0.109627
0.124902
0.186175
0.333028
0.315791
0.294938
0.272132
0.248823
0.226252
0.205398
0.187011
0.171542
0.158502
0.146661
0.135449
0.125213
0.116674
0.110752
0.108702
0.113037
0.131412
0.21551
0.293542
0.280967
0.264946
0.246798
0.227789
0.209056
0.19153
0.175897
0.162472
0.150899
0.140404
0.130639
0.121901
0.114857
0.110416
0.10986
0.115704
0.136566
0.242792
0.257226
0.248418
0.236456
0.222372
0.207247
0.192073
0.177674
0.164626
0.15316
0.143075
0.13393
0.125542
0.118195
0.112509
0.109375
0.11013
0.117547
0.140646
0.262348
0.223877
0.218138
0.209631
0.199124
0.187512
0.175611
0.164111
0.153488
0.143936
0.135375
0.127586
0.120524
0.114474
0.110018
0.108013
0.109798
0.11805
0.142079
0.267068
0.193722
0.190445
0.18484
0.17745
0.168944
0.15998
0.151117
0.14274
0.135029
0.127986
0.121545
0.115761
0.110928
0.107593
0.106556
0.109048
0.117649
0.141663
0.26455
0.167057
0.165716
0.162482
0.157702
0.151854
0.145437
0.138892
0.132534
0.126538
0.120963
0.115837
0.111279
0.107588
0.105259
0.105015
0.107996
0.116704
0.140428
0.261715
0.144017
0.144134
0.142758
0.140085
0.136431
0.132157
0.127597
0.123008
0.118557
0.11434
0.110442
0.10702
0.104362
0.102913
0.103325
0.106668
0.115414
0.139007
0.261641
0.124526
0.125683
0.125696
0.124654
0.122745
0.120215
0.117307
0.114226
0.111126
0.108121
0.105329
0.102921
0.101171
0.100479
0.101436
0.105071
0.113875
0.137567
0.262759
0.108344
0.110191
0.111187
0.111348
0.110772
0.109611
0.108036
0.106205
0.104251
0.102295
0.100466
0.0989394
0.0979683
0.0979151
0.0993268
0.103212
0.1121
0.135949
0.262898
0.095134
0.0973874
0.0990288
0.100029
0.100424
0.100299
0.0997633
0.0989347
0.0979257
0.0968498
0.0958367
0.0950554
0.0947385
0.0952159
0.0970023
0.101092
0.110057
0.133967
0.262069
0.0845191
0.0869605
0.0889783
0.0905207
0.0915832
0.0922031
0.0924463
0.0923944
0.092138
0.0917783
0.0914365
0.0912692
0.0914883
0.0923962
0.0944811
0.0987208
0.107711
0.1315
0.260223
0.0761242
0.0785917
0.0807806
0.0826303
0.0841137
0.085237
0.0860338
0.0865577
0.086878
0.0870803
0.0872726
0.0875958
0.088241
0.089486
0.091795
0.0961255
0.105051
0.128541
0.256871
0.0696053
0.0719843
0.0741926
0.0761703
0.0778801
0.0793099
0.0804714
0.0813968
0.0821367
0.0827605
0.0833605
0.0840605
0.0850312
0.0865276
0.08899
0.0933476
0.102118
0.125197
0.252241
0.0646673
0.0668788
0.0689976
0.0709695
0.0727553
0.0743341
0.0757045
0.0768833
0.0779055
0.0788253
0.0797191
0.0806934
0.0818996
0.083572
0.0861275
0.090465
0.0990388
0.121579
0.247119
0.0610723
0.0630629
0.0650144
0.0668811
0.0686271
0.0702299
0.0716814
0.0729889
0.0741753
0.0752809
0.0763677
0.0775256
0.0788884
0.0806714
0.0832703
0.0875508
0.0958818
0.1177
0.2414
0.0586418
0.0603758
0.0621032
0.0637887
0.0654036
0.0669289
0.0683559
0.0696867
0.0709355
0.0721315
0.073323
0.0745854
0.0760363
0.0778741
0.0804744
0.0846703
0.092744
0.113776
0.233692
0.0572632
0.0587112
0.0601689
0.0616103
0.0630166
0.0643774
0.0656886
0.0669514
0.0681746
0.0693778
0.0705978
0.0718962
0.0733768
0.0752221
0.0777885
0.0818773
0.089697
0.110037
0.225912
0.0568808
0.0580186
0.0591646
0.060302
0.0614252
0.0625385
0.0636487
0.0647606
0.0658797
0.0670177
0.0682001
0.0694764
0.0709372
0.0727514
0.0752573
0.0792253
0.0868026
0.106634
0.220277
0.057502
0.0583082
0.0590973
0.0598635
0.0606184
0.0613928
0.0622135
0.0630936
0.0640364
0.0650451
0.0661336
0.0673389
0.0687394
0.0704917
0.0729185
0.0767604
0.0840951
0.103382
0.214136
0.0592029
0.0596584
0.0600381
0.0603465
0.0606191
0.0609373
0.0613653
0.0619289
0.062627
0.0634505
0.0643984
0.0654934
0.0668014
0.0684674
0.0708008
0.0745128
0.0815984
0.100261
0.207651
0.0621358
0.0622286
0.0621428
0.061873
0.0614866
0.0611792
0.0610835
0.061238
0.0616272
0.0622191
0.0629911
0.0639478
0.0651407
0.0667039
0.0689347
0.0725159
0.079357
0.097395
0.201614
0.0665421
0.0662875
0.0656938
0.0646727
0.0633155
0.0621166
0.061326
0.0609735
0.0609993
0.0613283
0.0619047
0.0627093
0.0637773
0.0652323
0.0673623
0.0708259
0.0774514
0.0949594
0.196709
0.0727639
0.0722415
0.0711623
0.0691734
0.0662091
0.0636874
0.0619936
0.0610497
0.0606837
0.0607437
0.0611263
0.061783
0.0627321
0.0640884
0.0661354
0.0695122
0.0759704
0.0931048
0.193536
0.0812455
0.0806561
0.0793202
0.0762673
0.0701334
0.0656381
0.062866
0.061317
0.0605887
0.060415
0.0606346
0.0611696
0.062023
0.0633056
0.0653001
0.068622
0.0749547
0.0919284
0.1927
0.0925103
0.0922121
0.0913471
0.0882011
0.0742671
0.0672594
0.0635332
0.0615491
0.0605893
0.0602751
0.0603993
0.0608633
0.0616616
0.0629058
0.064875
0.068113
0.0742693
0.0913093
0.194484
)
;

boundaryField
{
    leftWall
    {
        type            epsilonWallFunction;
        value           nonuniform List<scalar> 
50
(
0.012459
0.0202728
0.0335874
0.0499314
0.0681473
0.0883207
0.109133
0.131149
0.162623
0.205294
0.250372
0.303824
0.337455
0.286528
0.3323
0.464892
0.591749
0.696738
0.767402
0.79646
0.78654
0.744238
0.678304
0.597454
0.507366
0.421324
0.342727
0.267889
0.196312
0.139705
0.0961377
0.0683226
0.0550201
0.0509534
0.0499828
0.0499887
0.050714
0.0523068
0.0550678
0.0594022
0.0658199
0.0749761
0.0877848
0.105639
0.13085
0.167762
0.226392
0.333799
0.590527
1.60421
)
;
        Cmu             0.09;
        kappa           0.41;
        E               9.8;
        value           nonuniform List<scalar> 
50
(
0.012459
0.0202728
0.0335874
0.0499314
0.0681473
0.0883207
0.109133
0.131149
0.162623
0.205294
0.250372
0.303824
0.337455
0.286528
0.3323
0.464892
0.591749
0.696738
0.767402
0.79646
0.78654
0.744238
0.678304
0.597454
0.507366
0.421324
0.342727
0.267889
0.196312
0.139705
0.0961377
0.0683226
0.0550201
0.0509534
0.0499828
0.0499887
0.050714
0.0523068
0.0550678
0.0594022
0.0658199
0.0749761
0.0877848
0.105639
0.13085
0.167762
0.226392
0.333799
0.590527
1.60421
)
;
    }
    rightWall
    {
        type            epsilonWallFunction;
        value           nonuniform List<scalar> 
50
(
0.030865
0.0420914
0.063677
0.0872867
0.11745
0.154001
0.195161
0.240776
0.317265
0.402635
0.417809
0.365501
0.293608
0.231987
0.201686
0.229599
0.310186
0.27498
0.196681
0.134294
0.09781
0.101025
0.125281
0.155363
0.186175
0.21551
0.242792
0.262348
0.267068
0.26455
0.261715
0.261641
0.262759
0.262898
0.262069
0.260223
0.256871
0.252241
0.247119
0.2414
0.233692
0.225912
0.220277
0.214136
0.207651
0.201614
0.196709
0.193536
0.1927
0.194484
)
;
        Cmu             0.09;
        kappa           0.41;
        E               9.8;
        value           nonuniform List<scalar> 
50
(
0.030865
0.0420914
0.063677
0.0872867
0.11745
0.154001
0.195161
0.240776
0.317265
0.402635
0.417809
0.365501
0.293608
0.231987
0.201686
0.229599
0.310186
0.27498
0.196681
0.134294
0.09781
0.101025
0.125281
0.155363
0.186175
0.21551
0.242792
0.262348
0.267068
0.26455
0.261715
0.261641
0.262759
0.262898
0.262069
0.260223
0.256871
0.252241
0.247119
0.2414
0.233692
0.225912
0.220277
0.214136
0.207651
0.201614
0.196709
0.193536
0.1927
0.194484
)
;
    }
    lowerWall
    {
        type            epsilonWallFunction;
        value           nonuniform List<scalar> 
62
(
0.012459
0.0672503
0.129968
0.187077
0.238447
0.286365
0.331655
0.374019
0.412143
0.444358
0.469249
0.485869
0.493658
0.4922
0.480884
0.458232
0.426567
0.384915
0.335768
0.281733
0.217767
0.133423
0.0433387
0.0433387
0.0754714
0.141905
0.22209
0.31592
0.425896
0.57951
0.913506
1.86698
1.72105
1.78363
2.0947
0.0967758
0.108049
0.147677
0.202556
0.301724
0.522128
1.09285
2.00677
0.0967758
0.42745
0.893213
1.097
1.10303
1.01917
0.90865
0.80095
0.689293
0.557903
0.414155
0.303239
0.257386
0.241597
0.218359
0.178667
0.130338
0.0861696
0.030865
)
;
        Cmu             0.09;
        kappa           0.41;
        E               9.8;
        value           nonuniform List<scalar> 
62
(
0.012459
0.0672503
0.129968
0.187077
0.238447
0.286365
0.331655
0.374019
0.412143
0.444358
0.469249
0.485869
0.493658
0.4922
0.480884
0.458232
0.426567
0.384915
0.335768
0.281733
0.217767
0.133423
0.0433387
0.0433387
0.0754714
0.141905
0.22209
0.31592
0.425896
0.57951
0.913506
1.86698
1.72105
1.78363
2.0947
0.0967758
0.108049
0.147677
0.202556
0.301724
0.522128
1.09285
2.00677
0.0967758
0.42745
0.893213
1.097
1.10303
1.01917
0.90865
0.80095
0.689293
0.557903
0.414155
0.303239
0.257386
0.241597
0.218359
0.178667
0.130338
0.0861696
0.030865
)
;
    }
    atmosphere
    {
        type            inletOutlet;
        inletValue      uniform 0.1;
        value           nonuniform List<scalar> 
46
(
0.1
0.1
0.1
0.1
0.1
0.1
0.1
0.1
0.1
0.1
0.1
0.1
0.1
0.1
0.1
0.1
0.1
0.1
0.1
0.1
0.1
0.1
0.1
0.1
0.1
0.1
0.1
0.1
0.1
0.1
0.1
0.0742671
0.0672594
0.0635332
0.0615491
0.0605893
0.0602751
0.0603993
0.0608633
0.0616616
0.0629058
0.064875
0.068113
0.0742693
0.0913093
0.194484
)
;
    }
    defaultFaces
    {
        type            empty;
    }
}


// ************************************************************************* //
