/*--------------------------------*- C++ -*----------------------------------*\
| =========                 |                                                 |
| \\      /  F ield         | OpenFOAM: The Open Source CFD Toolbox           |
|  \\    /   O peration     | Version:  2.3.0                                 |
|   \\  /    A nd           | Web:      www.OpenFOAM.org                      |
|    \\/     M anipulation  |                                                 |
\*---------------------------------------------------------------------------*/
FoamFile
{
    version     2.0;
    format      ascii;
    class       volScalarField;
    location    "1.7";
    object      k;
}
// * * * * * * * * * * * * * * * * * * * * * * * * * * * * * * * * * * * * * //

dimensions      [0 2 -2 0 0 0 0];

internalField   nonuniform List<scalar> 
2268
(
0.00250884
0.00629473
0.00974948
0.0124182
0.0145994
0.0165049
0.0182172
0.0197543
0.0210918
0.0221923
0.0230259
0.0235759
0.0238345
0.0237937
0.0234337
0.0226995
0.0216575
0.0202258
0.0184411
0.0163626
0.0137139
0.00988529
0.0047522
0.0046731
0.0143373
0.0214225
0.0270105
0.0316869
0.0357443
0.0393264
0.0424699
0.0451436
0.0472957
0.0488888
0.049911
0.0503703
0.0502812
0.0496484
0.0484468
0.0465953
0.0440952
0.0410838
0.0376269
0.0331046
0.0256048
0.0112065
0.00654459
0.0190476
0.027734
0.034711
0.0405977
0.0457146
0.050221
0.0541563
0.0574845
0.0601483
0.0621104
0.0633676
0.0639456
0.0638822
0.0632095
0.061938
0.0600456
0.0575533
0.0544639
0.0506632
0.0453311
0.0363236
0.0169988
0.00851395
0.0229648
0.0327727
0.0406666
0.047369
0.053217
0.0583712
0.0628644
0.0666508
0.0696658
0.0718724
0.0732793
0.0739341
0.0739034
0.0732506
0.072021
0.0702314
0.0679216
0.0650066
0.0612063
0.0555653
0.0457896
0.0228729
0.0104617
0.0266602
0.0373698
0.0459751
0.0533229
0.0597648
0.0654564
0.0704182
0.0745887
0.0778916
0.0802883
0.0818011
0.0825058
0.082505
0.0818987
0.0807651
0.0791466
0.0770951
0.0744812
0.0709077
0.0653191
0.0552161
0.0290443
0.0124041
0.0302663
0.0417631
0.0509776
0.0588871
0.0658579
0.0720386
0.0774336
0.0819605
0.0855246
0.0880816
0.0896685
0.0903967
0.0904155
0.0898688
0.0888693
0.0874806
0.0857624
0.0835797
0.0804723
0.0753318
0.0653725
0.0354806
0.0142504
0.0338022
0.046031
0.0558083
0.0642424
0.0717161
0.0783716
0.0841951
0.0890777
0.0928979
0.0955979
0.0972285
0.0979464
0.0979628
0.0974781
0.0966439
0.0955486
0.0942528
0.0926576
0.0902958
0.0861089
0.0771123
0.0436753
0.0160751
0.0372662
0.0502032
0.0605296
0.0694803
0.0774558
0.0845957
0.0908673
0.0961288
0.100219
0.103054
0.104695
0.105353
0.105328
0.104893
0.104249
0.103513
0.102747
0.101922
0.100622
0.0979857
0.0914482
0.0595939
0.00832349
0.0221034
0.036179
0.0415505
0.0416347
0.0393882
0.0363388
0.03327
0.0300642
0.0261466
0.0214444
0.017272
0.0152188
0.0145222
0.0136163
0.0119455
0.00970451
0.00736399
0.00464573
0.0157809
0.0491584
0.0756956
0.0854115
0.0851227
0.0803845
0.0745281
0.0687556
0.0623668
0.054139
0.0449577
0.0382176
0.0352198
0.0335636
0.0313128
0.0275738
0.0227038
0.016905
0.00806355
0.0193398
0.0665227
0.0969509
0.108847
0.108726
0.103063
0.0958611
0.0884965
0.0802624
0.070328
0.0595989
0.0514514
0.0473952
0.0447095
0.041449
0.0367701
0.0307371
0.0232356
0.0106422
0.0235544
0.0816664
0.113955
0.127136
0.127411
0.12127
0.112993
0.104081
0.0939864
0.0824364
0.0705802
0.0614418
0.0566302
0.0533102
0.0493058
0.0440231
0.0373858
0.028879
0.013184
0.0304266
0.0962741
0.129387
0.143479
0.144265
0.137945
0.128778
0.118147
0.106038
0.0927912
0.079944
0.0699417
0.0643401
0.0606279
0.0560883
0.0503814
0.0433674
0.0341818
0.0161289
0.0436315
0.111961
0.14507
0.159444
0.160335
0.153705
0.143814
0.13136
0.117144
0.102303
0.0885731
0.077785
0.0712857
0.0671376
0.0621915
0.0561841
0.0489446
0.0393082
0.0193145
0.071799
0.131062
0.162534
0.176032
0.176161
0.168629
0.157734
0.143692
0.12765
0.111401
0.0967988
0.0852797
0.0778843
0.0731242
0.0678284
0.0615894
0.0541968
0.0442555
0.0226014
0.108192
0.154694
0.182488
0.193586
0.191872
0.182743
0.170432
0.155087
0.137724
0.120225
0.104698
0.0924903
0.08426
0.0788043
0.0731767
0.0667065
0.0591527
0.0490399
0.0259466
0.0185013
0.0423049
0.0564215
0.0676412
0.0774158
0.0861897
0.0941111
0.101123
0.107027
0.111582
0.114631
0.116232
0.116708
0.116543
0.116175
0.115902
0.115889
0.116179
0.116867
0.117726
0.11834
0.117615
0.107577
0.0215546
0.0487495
0.0646059
0.0771525
0.088163
0.0981836
0.107421
0.115794
0.122992
0.128547
0.132028
0.133349
0.133047
0.132142
0.131502
0.131627
0.132749
0.134961
0.138236
0.142729
0.148443
0.155795
0.165367
0.0245526
0.0553157
0.0728186
0.0866778
0.0990285
0.110539
0.121533
0.131916
0.141278
0.148752
0.153263
0.154078
0.151871
0.148993
0.147238
0.147398
0.14967
0.154166
0.160932
0.169839
0.181125
0.195827
0.215052
0.0276656
0.0615357
0.0804202
0.0956117
0.109591
0.123035
0.136443
0.149757
0.162738
0.173991
0.18148
0.182235
0.175708
0.168251
0.163686
0.163224
0.16656
0.17368
0.184659
0.198982
0.216352
0.238603
0.268323
0.0290545
0.0625905
0.0834316
0.100891
0.1176
0.133647
0.148061
0.161031
0.173262
0.184151
0.192081
0.198268
0.197383
0.187759
0.179994
0.178441
0.182728
0.19271
0.209092
0.230436
0.254998
0.28711
0.335135
0.0268045
0.057114
0.0802321
0.100831
0.11973
0.13652
0.149888
0.160883
0.170181
0.177915
0.185034
0.192461
0.196514
0.193626
0.190187
0.191011
0.197782
0.20976
0.227779
0.252407
0.281712
0.32461
0.395597
0.0305069
0.0575291
0.080833
0.10319
0.122932
0.139077
0.151561
0.161901
0.170581
0.177657
0.184251
0.190788
0.196162
0.198239
0.1993
0.202023
0.209747
0.223029
0.24123
0.264607
0.297478
0.34939
0.425805
0.037924
0.0721079
0.0959553
0.116105
0.132843
0.146284
0.157419
0.167238
0.175527
0.181209
0.186407
0.193063
0.199337
0.203751
0.207176
0.210376
0.216941
0.230619
0.251255
0.275905
0.310388
0.361437
0.406057
0.0441401
0.0845978
0.108266
0.126832
0.142196
0.154352
0.163837
0.171797
0.178339
0.182856
0.187929
0.195005
0.201651
0.206328
0.209375
0.212751
0.220087
0.234484
0.254979
0.281044
0.316267
0.356584
0.376796
0.0488176
0.0913021
0.113119
0.130267
0.144361
0.15543
0.163872
0.170544
0.175996
0.180785
0.186349
0.193066
0.19913
0.203361
0.206557
0.210926
0.219231
0.233329
0.253132
0.278822
0.310609
0.339446
0.349642
0.0517859
0.0955388
0.115784
0.130571
0.142646
0.152244
0.159689
0.16565
0.170831
0.175869
0.181381
0.187385
0.192894
0.197384
0.201568
0.20705
0.215675
0.228716
0.247021
0.27116
0.298206
0.320073
0.32714
0.052962
0.0975143
0.116536
0.12922
0.139206
0.14724
0.153725
0.159189
0.164193
0.169189
0.174448
0.179907
0.185166
0.190035
0.195066
0.201316
0.209904
0.22168
0.237494
0.257929
0.280708
0.299408
0.307094
0.0524985
0.0972563
0.115359
0.126501
0.13485
0.141586
0.147235
0.152235
0.156973
0.161725
0.166623
0.17164
0.176681
0.181781
0.18732
0.193954
0.202354
0.213078
0.226692
0.243454
0.261944
0.278081
0.28663
0.050636
0.0948547
0.112259
0.122426
0.129712
0.13555
0.140565
0.145141
0.149551
0.153974
0.158497
0.163151
0.167976
0.173125
0.178889
0.185654
0.193826
0.203757
0.215731
0.229704
0.244583
0.257705
0.265421
0.0476649
0.0905689
0.10738
0.117006
0.123725
0.129054
0.133666
0.137926
0.142054
0.146187
0.150412
0.154803
0.159465
0.164566
0.170341
0.177059
0.184962
0.194222
0.204904
0.216743
0.228773
0.239087
0.245194
0.0438725
0.08476
0.100996
0.110359
0.116867
0.121998
0.126434
0.130531
0.134494
0.13845
0.142497
0.146734
0.151286
0.156313
0.162003
0.16854
0.176074
0.184675
0.194234
0.20437
0.214217
0.222362
0.227161
0.0394177
0.0778002
0.0934325
0.10269
0.109207
0.114358
0.118801
0.122885
0.126815
0.130721
0.134707
0.138882
0.143369
0.148311
0.153855
0.160131
0.16722
0.175117
0.183651
0.192392
0.200604
0.207244
0.211216
0.0348932
0.0700337
0.085013
0.0942309
0.100875
0.106173
0.110745
0.114931
0.118935
0.122889
0.1269
0.131075
0.135525
0.140371
0.145727
0.151681
0.158271
0.165448
0.173031
0.180613
0.187591
0.193193
0.196657
0.0304566
0.0617082
0.0760196
0.0852197
0.0920321
0.0975348
0.102299
0.106652
0.110791
0.114851
0.118934
0.123136
0.127557
0.132291
0.137427
0.143023
0.14909
0.155561
0.162265
0.16887
0.174881
0.179726
0.182849
0.025904
0.0533421
0.0667433
0.0759052
0.0828775
0.0885899
0.093561
0.098099
0.102395
0.106576
0.110739
0.11497
0.11935
0.123956
0.128851
0.134075
0.139624
0.145428
0.151338
0.157108
0.162338
0.166598
0.16947
0.0211034
0.0447965
0.0574513
0.0665488
0.07365
0.0795483
0.0847073
0.0894151
0.093853
0.0981405
0.102367
0.106606
0.110926
0.115384
0.12003
0.124887
0.129945
0.135143
0.14036
0.145407
0.150003
0.1538
0.156486
0.0168629
0.0363331
0.048416
0.0574128
0.0646421
0.0706931
0.0759972
0.0808351
0.0853787
0.0897367
0.0939909
0.0982065
0.102439
0.106734
0.111127
0.115635
0.120245
0.12491
0.129535
0.133977
0.13805
0.141482
0.144035
0.0131684
0.0293293
0.040528
0.0491912
0.0563262
0.0623977
0.0677661
0.0726722
0.0772706
0.0816468
0.0858815
0.0900331
0.094148
0.0982635
0.102406
0.106588
0.110799
0.115004
0.119132
0.123081
0.126715
0.129865
0.132325
0.0104829
0.0245963
0.0345361
0.04252
0.0492817
0.0551833
0.060472
0.0653283
0.0698765
0.074198
0.0783558
0.082398
0.0863633
0.090282
0.0941757
0.0980527
0.101908
0.105718
0.109434
0.112981
0.116264
0.119172
0.121557
0.00905156
0.021867
0.0305574
0.0376772
0.0438596
0.0494041
0.0544594
0.0591441
0.0635463
0.0677293
0.0717413
0.0756201
0.0793965
0.0830948
0.0867327
0.0903188
0.0938512
0.0973148
0.100677
0.10389
0.106885
0.109584
0.111902
0.00857913
0.0204285
0.0281479
0.0344855
0.0400733
0.0451725
0.0498914
0.0543078
0.0584799
0.0624515
0.0662566
0.0699235
0.0734755
0.0769319
0.0803072
0.0836101
0.0868417
0.089994
0.0930473
0.09597
0.098718
0.101237
0.103468
0.00847268
0.0197089
0.0267824
0.0325515
0.0376614
0.0423447
0.04671
0.0508205
0.0547185
0.0584348
0.0619939
0.0654162
0.0687195
0.0719192
0.0750277
0.0780536
0.0810004
0.0838655
0.0866385
0.0893004
0.0918234
0.0941715
0.0963026
0.00848352
0.0194104
0.0261231
0.0315289
0.0362942
0.0406524
0.0447135
0.0485382
0.0521644
0.0556185
0.0589206
0.0620875
0.0651342
0.0680739
0.0709178
0.0736749
0.0763507
0.0789466
0.0814588
0.0838774
0.0861859
0.0883612
0.090374
0.00858015
0.0194081
0.0259553
0.0311603
0.0357114
0.0398461
0.0436764
0.0472651
0.0506517
0.0538636
0.0569212
0.0598415
0.062639
0.0653267
0.0679161
0.0704168
0.0728363
0.0751789
0.0774456
0.0796328
0.0817319
0.0837291
0.0856045
0.00877728
0.0196943
0.0262134
0.0313342
0.0357691
0.0397614
0.0434262
0.0468299
0.050016
0.0530156
0.0558522
0.058545
0.0611101
0.0635617
0.0659123
0.0681727
0.070352
0.0724572
0.0744923
0.0764583
0.0783524
0.0801669
0.081889
0.00910424
0.0203043
0.0269064
0.0320283
0.0364149
0.0403193
0.0438627
0.0471176
0.0501333
0.052946
0.0555837
0.0580688
0.06042
0.0626532
0.0647823
0.0668195
0.0687755
0.0706587
0.072476
0.0742311
0.0759251
0.077555
0.079113
0.0095967
0.0212934
0.0280815
0.033272
0.0376555
0.0415026
0.0449464
0.0480692
0.0509287
0.0535678
0.0560197
0.0583106
0.0604619
0.0624913
0.0644141
0.0662435
0.0679913
0.0696672
0.0712794
0.072834
0.0743342
0.0757802
0.077168
0.0102938
0.0227317
0.029812
0.0351282
0.0395363
0.043336
0.0466808
0.0496686
0.0523689
0.0548333
0.0571009
0.0592018
0.0611597
0.0629941
0.064721
0.0663543
0.0679061
0.0693869
0.0708055
0.072169
0.0734822
0.0747472
0.0759623
0.0112395
0.024708
0.0321961
0.0376862
0.0421286
0.0458701
0.0490962
0.0519279
0.0544504
0.0567256
0.0587991
0.0607047
0.0624682
0.0641098
0.0656458
0.0670901
0.0684545
0.0697494
0.0709837
0.0721647
0.0732978
0.0743859
0.0754285
0.0124901
0.0273398
0.03536
0.0410577
0.045521
0.0491696
0.0522366
0.054874
0.0571865
0.0592473
0.0611083
0.0628062
0.0643679
0.0658136
0.0671591
0.0684175
0.0695996
0.0707152
0.0717725
0.0727784
0.073738
0.074654
0.0755263
0.0141271
0.0307862
0.0394623
0.0453718
0.0498079
0.0532996
0.0561457
0.0585362
0.0605968
0.0624114
0.0640365
0.0655104
0.0668596
0.0681033
0.0692558
0.0703287
0.0713314
0.0722724
0.0731585
0.0739957
0.0747882
0.0755381
0.0762443
0.0162815
0.0352708
0.0446992
0.0507661
0.0550748
0.0583107
0.0608541
0.0629352
0.064698
0.0662334
0.0675993
0.068833
0.0699591
0.0709944
0.0719509
0.0728381
0.0736635
0.0744337
0.075154
0.0758291
0.0764617
0.0770527
0.0775995
0.0191933
0.0411289
0.0513127
0.0573723
0.0613793
0.0642224
0.0663669
0.0680746
0.0694978
0.0707267
0.0718157
0.072798
0.0736941
0.0745173
0.0752768
0.0759794
0.0766305
0.0772346
0.0777954
0.0783158
0.0787973
0.0792392
0.079637
0.0234056
0.0488999
0.0595941
0.0652863
0.0687223
0.0710054
0.0726555
0.0739375
0.0749935
0.0759021
0.0767079
0.0774364
0.0781027
0.0787157
0.0792815
0.0798039
0.0802863
0.0807312
0.0811408
0.0815165
0.0818583
0.0821643
0.0824285
0.0302686
0.0595353
0.0698313
0.0744923
0.0770055
0.0785664
0.0796556
0.0804906
0.081178
0.0817729
0.0823048
0.0827894
0.0832354
0.0836474
0.0840283
0.0843798
0.0847032
0.0849995
0.0852695
0.0855136
0.0857308
0.0859186
0.0860707
0.044224
0.0745161
0.0820319
0.0846959
0.0859777
0.0867444
0.0872804
0.0876992
0.0880523
0.0883649
0.0886498
0.0889133
0.0891585
0.0893867
0.0895983
0.0897935
0.0899724
0.090135
0.0902813
0.090411
0.0905231
0.0906154
0.0906829
0.0864067
0.094292
0.0948874
0.0950814
0.0952258
0.0953493
0.0954576
0.0955553
0.0956455
0.0957304
0.095811
0.0958877
0.0959604
0.0960288
0.0960926
0.0961516
0.0962054
0.0962539
0.0962969
0.0963342
0.0963654
0.0963895
0.0964047
0.096736
0.0918631
0.0942491
0.104963
0.175206
0.184056
0.194344
0.206491
0.231861
0.244869
0.258464
0.27215
0.293789
0.312269
0.330023
0.346149
0.376806
0.404251
0.427565
0.445732
0.451109
0.474454
0.483634
0.480255
0.460954
0.464842
0.45399
0.436344
0.414509
0.412582
0.403618
0.388413
0.37749
0.375145
0.36542
0.351711
0.348276
0.344403
0.335026
0.323987
0.324652
0.320892
0.313186
0.30409
0.304944
0.301563
0.29591
0.289278
0.285963
0.283721
0.280172
0.275978
0.26572
0.264579
0.262398
0.259384
0.245714
0.24501
0.24339
0.240844
0.227692
0.227194
0.225907
0.223857
0.211807
0.21149
0.210505
0.208893
0.197346
0.197205
0.1965
0.195274
0.183645
0.183672
0.183229
0.182354
0.170373
0.170558
0.170357
0.169797
0.157493
0.157823
0.15784
0.157563
0.145143
0.145603
0.145813
0.145784
0.133527
0.134103
0.13448
0.134664
0.122841
0.123517
0.124036
0.124402
0.113249
0.114004
0.114636
0.115146
0.104849
0.105658
0.10637
0.106986
0.097679
0.0985113
0.0992701
0.0999535
0.0917117
0.0925397
0.0933129
0.0940279
0.0868773
0.0876763
0.0884356
0.0891511
0.0830758
0.083828
0.0845502
0.0852406
0.0801982
0.0808903
0.0815594
0.082204
0.0781409
0.0787635
0.0793681
0.0799534
0.0768163
0.0773631
0.0778951
0.0784111
0.0761598
0.0766271
0.0770812
0.0775212
0.0761338
0.0765197
0.0768929
0.0772523
0.0767289
0.0770333
0.0773244
0.077601
0.0779649
0.0781899
0.0784002
0.078594
0.0798908
0.0800413
0.0801754
0.0802904
0.0825837
0.0826691
0.0827364
0.0827823
0.0861471
0.0861819
0.0861989
0.0861939
0.0907068
0.090711
0.0907013
0.0906736
0.0964064
0.0964033
0.0963947
0.0963789
0.14999
0.189737
0.212512
0.219657
0.214656
0.203054
0.188449
0.171516
0.152779
0.133592
0.116515
0.10328
0.093936
0.0874613
0.0813256
0.0743772
0.0664106
0.0562313
0.0310886
0.228896
0.250552
0.262554
0.260447
0.245919
0.226393
0.206722
0.188388
0.169683
0.149304
0.130069
0.115221
0.10488
0.0978012
0.0915432
0.083739
0.0741425
0.0633178
0.0363547
0.294099
0.311328
0.317167
0.304725
0.276231
0.245195
0.219844
0.200565
0.183282
0.16235
0.141202
0.124779
0.113463
0.105922
0.0998081
0.091304
0.0787715
0.0649782
0.0372968
0.369139
0.380758
0.380965
0.350348
0.301236
0.258228
0.22868
0.208179
0.191907
0.170912
0.148869
0.131403
0.11905
0.110247
0.10336
0.0940895
0.0785777
0.0619598
0.0342269
0.465541
0.456514
0.410789
0.355976
0.305472
0.262557
0.232486
0.211295
0.193396
0.17385
0.153954
0.13709
0.124132
0.113695
0.10519
0.0944245
0.0754599
0.0552398
0.0296495
0.46582
0.432408
0.383363
0.336158
0.291672
0.25666
0.232296
0.214076
0.196658
0.176639
0.157573
0.142142
0.129444
0.117638
0.108407
0.0977606
0.0751862
0.0503572
0.0253988
0.409417
0.375627
0.339137
0.304387
0.272886
0.247377
0.228293
0.212763
0.196631
0.178143
0.159617
0.143864
0.131649
0.119489
0.109836
0.102704
0.0841334
0.0535721
0.0231059
0.364078
0.33405
0.305891
0.279462
0.255743
0.236251
0.220707
0.206998
0.192412
0.175727
0.158547
0.142937
0.130204
0.118355
0.10801
0.099138
0.0882614
0.0611077
0.0249155
0.330644
0.304821
0.281658
0.25975
0.240167
0.223869
0.210505
0.198589
0.186095
0.171339
0.155274
0.140108
0.127638
0.116319
0.105078
0.0954245
0.083946
0.064964
0.0303779
0.306451
0.284527
0.264461
0.244521
0.226345
0.211284
0.198793
0.187875
0.176519
0.162959
0.148429
0.134975
0.123742
0.112473
0.100298
0.0893221
0.0785465
0.0610838
0.0284802
0.28955
0.270991
0.252993
0.233405
0.214961
0.199302
0.185854
0.174075
0.162791
0.150803
0.138509
0.127007
0.116476
0.105157
0.0928726
0.0813553
0.0705128
0.0534606
0.0230165
0.278113
0.262607
0.243929
0.224027
0.206048
0.190148
0.175778
0.162821
0.151133
0.139931
0.128694
0.11757
0.106724
0.0954019
0.0835272
0.072042
0.0605331
0.0438688
0.0179469
0.268108
0.252725
0.233553
0.214993
0.19804
0.182588
0.168277
0.155107
0.143212
0.132091
0.120902
0.109439
0.0979524
0.0864048
0.0747963
0.0633423
0.0513959
0.0356753
0.0143489
0.252565
0.238382
0.222172
0.206043
0.190755
0.176361
0.162707
0.149846
0.13803
0.126992
0.115866
0.104276
0.0924238
0.0805821
0.0689086
0.0574009
0.0456278
0.0317828
0.0143585
0.235099
0.223685
0.210639
0.197128
0.183741
0.170693
0.158033
0.14589
0.134559
0.123931
0.113224
0.101929
0.0902365
0.078504
0.066944
0.0556704
0.0447669
0.0331808
0.0165578
0.219313
0.210282
0.199752
0.188433
0.176791
0.165121
0.1536
0.14244
0.131926
0.121976
0.111921
0.101251
0.0902189
0.0791686
0.0683261
0.0578559
0.0479036
0.0370562
0.0191516
0.205323
0.198113
0.189481
0.17991
0.169785
0.159421
0.14907
0.138992
0.12944
0.120282
0.110943
0.101116
0.0910454
0.0810311
0.0713015
0.0619533
0.0528386
0.0418192
0.0216518
0.192506
0.186722
0.179576
0.171441
0.162651
0.153515
0.144312
0.135304
0.126685
0.118306
0.109743
0.10085
0.0918172
0.0829129
0.0743371
0.0660947
0.0577338
0.0467009
0.0239056
0.180279
0.175688
0.169801
0.162923
0.155357
0.147395
0.139306
0.131323
0.123575
0.115952
0.108193
0.100217
0.0921765
0.0842924
0.0767129
0.0693472
0.0614853
0.0505821
0.0258853
0.168339
0.164805
0.160054
0.15434
0.147937
0.141112
0.134106
0.12711
0.120213
0.113354
0.106387
0.0992747
0.0921333
0.0851278
0.078337
0.0715724
0.0639273
0.0529131
0.0271988
0.156655
0.154078
0.150381
0.145769
0.140485
0.13476
0.128801
0.122763
0.116715
0.110634
0.104445
0.0981412
0.0918079
0.0855516
0.0793742
0.0729854
0.0654883
0.0541887
0.0274741
0.145362
0.143645
0.140924
0.137354
0.133132
0.128455
0.123497
0.118384
0.113177
0.107874
0.102445
0.0969002
0.091297
0.08569
0.0800189
0.0739329
0.0664532
0.0548378
0.0273085
0.134666
0.133714
0.131876
0.129261
0.126021
0.122316
0.118291
0.11405
0.109651
0.105108
0.100417
0.0955914
0.0906635
0.0856386
0.0803967
0.0745306
0.0670329
0.0551722
0.0271675
0.124763
0.124467
0.123399
0.121633
0.119275
0.116452
0.113279
0.109846
0.106205
0.102382
0.0983849
0.0942239
0.0899069
0.0853959
0.0805224
0.0748427
0.0673492
0.0553639
0.0272234
0.115798
0.116038
0.115618
0.114577
0.112988
0.110943
0.108531
0.105827
0.102881
0.0997206
0.0963577
0.0927963
0.0890212
0.0849595
0.0804078
0.0749054
0.0674632
0.0554746
0.027336
0.107856
0.108512
0.108612
0.108167
0.107223
0.105843
0.104093
0.102032
0.0997055
0.0971377
0.0943402
0.0913075
0.0880047
0.0843326
0.0800653
0.0747392
0.0673904
0.055477
0.0273696
0.100971
0.101927
0.102419
0.102443
0.102019
0.101187
0.0999944
0.0984854
0.0966946
0.0946432
0.0923369
0.0897602
0.0868621
0.0835245
0.0795086
0.0743542
0.0671219
0.05531
0.0273323
0.0951258
0.0962758
0.0970441
0.0974141
0.0973903
0.0969936
0.0962538
0.0952011
0.0938605
0.0922455
0.0903545
0.0881621
0.0856042
0.0825498
0.078753
0.0737592
0.0666521
0.054946
0.0272197
0.0902723
0.091524
0.0924645
0.0930709
0.0933361
0.0932667
0.0928782
0.0921885
0.0912119
0.0899535
0.088403
0.0865258
0.0842471
0.0814274
0.0778176
0.0729705
0.0659895
0.0544125
0.0269972
0.0863379
0.0876142
0.0886388
0.0893856
0.0898403
0.0899997
0.0898678
0.0894518
0.0887561
0.0877769
0.0864953
0.0848678
0.0828118
0.0801815
0.0767278
0.0720112
0.0651538
0.0537437
0.0266822
0.0832404
0.0844794
0.0855151
0.0863209
0.0868788
0.0871788
0.0872172
0.0869922
0.0864994
0.0857266
0.0846466
0.0832084
0.0813229
0.078841
0.0755152
0.0709152
0.0641823
0.0529492
0.0263301
0.0808998
0.0820527
0.0830402
0.083837
0.0844236
0.0847871
0.0849184
0.0848091
0.0844475
0.0838139
0.0828737
0.0815695
0.0798074
0.0774368
0.0742133
0.0697164
0.063102
0.0520304
0.0259369
0.0792467
0.0802759
0.0811671
0.0818975
0.0824489
0.0828078
0.0829628
0.0829013
0.0826058
0.0820503
0.0811941
0.0799742
0.0782932
0.076
0.0728546
0.0684464
0.0619486
0.0510507
0.025398
0.0782324
0.0791069
0.0798614
0.0804756
0.0809347
0.0812275
0.0813434
0.0812679
0.0809797
0.0804476
0.0796253
0.0784455
0.0768078
0.0745616
0.0714707
0.0671342
0.0607465
0.050048
0.0248376
0.0778293
0.0785244
0.0791066
0.0795587
0.0798708
0.0800385
0.0800559
0.0799092
0.0795748
0.079017
0.0781846
0.077006
0.0753789
0.0731528
0.0700951
0.0658125
0.0595198
0.049032
0.0244351
0.0780374
0.0785335
0.07891
0.0791526
0.0792597
0.0792404
0.0790992
0.0788262
0.0783964
0.0777693
0.0768887
0.0756784
0.0740338
0.0718048
0.0687621
0.0645175
0.0582979
0.0479801
0.0239903
0.0788878
0.0791707
0.0793081
0.0792875
0.0791187
0.078839
0.0784733
0.0780189
0.0774482
0.0767143
0.0757538
0.074485
0.0728003
0.0705499
0.0675067
0.0632859
0.0571173
0.0469211
0.0235103
0.0804462
0.08051
0.0803777
0.0800265
0.0794814
0.0788431
0.078175
0.0774824
0.07673
0.075859
0.0747951
0.0734488
0.0717081
0.0694227
0.0663683
0.0621608
0.0560289
0.04593
0.0230582
0.082816
0.0826737
0.0822544
0.0814843
0.0803958
0.0792532
0.0781872
0.0772
0.0762333
0.0752057
0.0740256
0.0725921
0.0707877
0.0684616
0.0653921
0.0611953
0.0550935
0.0450776
0.0226875
0.0861392
0.0858425
0.0851611
0.0838721
0.0819081
0.0800336
0.0784591
0.0771323
0.0759364
0.074749
0.0734534
0.0719347
0.0700689
0.067705
0.0646252
0.0604437
0.0543658
0.0444141
0.0224444
0.0905873
0.0902556
0.0894568
0.0876313
0.0839837
0.0810414
0.0788714
0.0772027
0.0757972
0.0744719
0.0730799
0.071491
0.0695758
0.0671849
0.0641048
0.0599402
0.053868
0.0439581
0.0223739
0.0963353
0.0961692
0.0956695
0.0938861
0.0861655
0.081887
0.0791998
0.0772894
0.075752
0.0743448
0.0728967
0.0712673
0.0693238
0.0669201
0.0638443
0.0596664
0.0535401
0.0436338
0.0224911
)
;

boundaryField
{
    leftWall
    {
        type            kqRWallFunction;
        value           nonuniform List<scalar> 
50
(
0.00250884
0.0046731
0.00654459
0.00851395
0.0104617
0.0124041
0.0142504
0.0160751
0.0185013
0.0215546
0.0245526
0.0276656
0.0290545
0.0268045
0.0305069
0.037924
0.0441401
0.0488176
0.0517859
0.052962
0.0524985
0.050636
0.0476649
0.0438725
0.0394177
0.0348932
0.0304566
0.025904
0.0211034
0.0168629
0.0131684
0.0104829
0.00905156
0.00857913
0.00847268
0.00848352
0.00858015
0.00877728
0.00910424
0.0095967
0.0102938
0.0112395
0.0124901
0.0141271
0.0162815
0.0191933
0.0234056
0.0302686
0.044224
0.0864067
)
;
    }
    rightWall
    {
        type            kqRWallFunction;
        value           nonuniform List<scalar> 
50
(
0.00464573
0.00806355
0.0106422
0.013184
0.0161289
0.0193145
0.0226014
0.0259466
0.0310886
0.0363547
0.0372968
0.0342269
0.0296495
0.0253988
0.0231059
0.0249155
0.0303779
0.0284802
0.0230165
0.0179469
0.0143489
0.0143585
0.0165578
0.0191516
0.0216518
0.0239056
0.0258853
0.0271988
0.0274741
0.0273085
0.0271675
0.0272234
0.027336
0.0273696
0.0273323
0.0272197
0.0269972
0.0266822
0.0263301
0.0259369
0.025398
0.0248376
0.0244351
0.0239903
0.0235103
0.0230582
0.0226875
0.0224444
0.0223739
0.0224911
)
;
    }
    lowerWall
    {
        type            kqRWallFunction;
        value           nonuniform List<scalar> 
62
(
0.00250884
0.00629473
0.00974948
0.0124182
0.0145994
0.0165049
0.0182172
0.0197543
0.0210918
0.0221923
0.0230259
0.0235759
0.0238345
0.0237937
0.0234337
0.0226995
0.0216575
0.0202258
0.0184411
0.0163626
0.0137139
0.00988529
0.0047522
0.0047522
0.0112065
0.0169988
0.0228729
0.0290443
0.0354806
0.0436753
0.0595939
0.096736
0.0918631
0.0942491
0.104963
0.00832349
0.0157809
0.0193398
0.0235544
0.0304266
0.0436315
0.071799
0.108192
0.00832349
0.0221034
0.036179
0.0415505
0.0416347
0.0393882
0.0363388
0.03327
0.0300642
0.0261466
0.0214444
0.017272
0.0152188
0.0145222
0.0136163
0.0119455
0.00970451
0.00736399
0.00464573
)
;
    }
    atmosphere
    {
        type            inletOutlet;
        inletValue      uniform 0.1;
        value           nonuniform List<scalar> 
46
(
0.1
0.1
0.1
0.1
0.1
0.1
0.1
0.1
0.1
0.1
0.1
0.1
0.1
0.1
0.1
0.1
0.1
0.1
0.1
0.1
0.1
0.1
0.1
0.1
0.1
0.1
0.1
0.1
0.1
0.1
0.1
0.0861655
0.081887
0.0791998
0.0772894
0.075752
0.0743448
0.0728967
0.0712673
0.0693238
0.0669201
0.0638443
0.0596664
0.0535401
0.0436338
0.0224911
)
;
    }
    defaultFaces
    {
        type            empty;
    }
}


// ************************************************************************* //
