/*--------------------------------*- C++ -*----------------------------------*\
| =========                 |                                                 |
| \\      /  F ield         | OpenFOAM: The Open Source CFD Toolbox           |
|  \\    /   O peration     | Version:  2.3.0                                 |
|   \\  /    A nd           | Web:      www.OpenFOAM.org                      |
|    \\/     M anipulation  |                                                 |
\*---------------------------------------------------------------------------*/
FoamFile
{
    version     2.0;
    format      ascii;
    class       volScalarField;
    location    "1.7";
    object      nut;
}
// * * * * * * * * * * * * * * * * * * * * * * * * * * * * * * * * * * * * * //

dimensions      [0 2 -1 0 0 0 0];

internalField   nonuniform List<scalar> 
2268
(
4.5468e-05
5.30276e-05
6.58217e-05
7.41896e-05
8.04487e-05
8.56149e-05
9.00574e-05
9.39013e-05
9.71454e-05
9.97503e-05
0.000101689
0.000102958
0.000103568
0.00010352
0.000102774
0.000101202
9.89627e-05
9.56507e-05
9.1154e-05
8.5528e-05
7.77275e-05
6.59159e-05
4.68981e-05
9.69483e-05
0.00043765
0.000605737
0.000714273
0.000796323
0.000862727
0.000918395
0.000965087
0.00100309
0.00103225
0.00105259
0.00106442
0.00106827
0.0010646
0.00105351
0.00103379
0.000993341
0.000929859
0.000851139
0.000767487
0.000678961
0.000548577
0.000149762
0.000114771
0.000730488
0.00110384
0.00135701
0.00154924
0.00170534
0.00183666
0.00194757
0.00203895
0.00211054
0.00216224
0.00219457
0.00220847
0.00220475
0.00218314
0.00214021
0.00206085
0.00193814
0.00177461
0.00157869
0.00134181
0.00097738
0.000183265
0.000130656
0.000918143
0.00146991
0.00185658
0.0021534
0.00239556
0.00259985
0.00277321
0.00291753
0.00303271
0.00311863
0.0031758
0.00320532
0.00320812
0.00318352
0.00312667
0.00302262
0.00286169
0.00263789
0.00234628
0.00195525
0.00132736
0.000212009
0.000144545
0.00105027
0.00174321
0.0022415
0.0026281
0.00294519
0.00321359
0.00344248
0.00363481
0.00379093
0.00391069
0.00399452
0.0040435
0.00405854
0.00403872
0.0039786
0.00386394
0.00368271
0.00342078
0.00305516
0.00252166
0.0016339
0.000240319
0.000156788
0.00115218
0.00195414
0.00254202
0.00300247
0.00338233
0.00370531
0.00398228
0.00421719
0.00441085
0.00456316
0.00467439
0.00474544
0.00477718
0.00476864
0.0047143
0.00460064
0.00441325
0.00413101
0.00371245
0.00305683
0.00192595
0.000266023
0.000167472
0.00123583
0.00212132
0.00277979
0.00329985
0.0037316
0.00410075
0.00441934
0.00469206
0.00492015
0.00510358
0.00524244
0.0053374
0.00538924
0.00539706
0.0053555
0.00525185
0.00506915
0.00478154
0.00433171
0.00358499
0.00223904
0.000296247
0.000177332
0.00130559
0.00225536
0.00296913
0.00353714
0.00401197
0.00442066
0.00477585
0.00508266
0.00534262
0.00555586
0.00572235
0.00584247
0.00591696
0.00594497
0.00592139
0.00583428
0.00566479
0.00538499
0.00492809
0.00413933
0.00264302
0.000349893
6.44298e-05
0.000102867
0.000131887
0.00014164
0.000141438
0.000137003
0.000130794
0.000124378
0.000118015
0.000110284
9.99326e-05
8.8541e-05
8.0988e-05
7.85632e-05
7.64171e-05
7.18797e-05
6.50308e-05
5.66389e-05
6.29337e-05
0.000207435
0.000781078
0.00109875
0.00123262
0.0012532
0.00121579
0.00115889
0.0011007
0.00102496
0.00089342
0.000724747
0.000617801
0.000621204
0.000663715
0.00067805
0.00064683
0.000579694
0.000448665
0.000139028
0.000227948
0.00120486
0.00180373
0.00213233
0.00225379
0.00225258
0.00219585
0.00211719
0.00199333
0.00177693
0.00147395
0.00124413
0.00121146
0.00126789
0.00128023
0.0012172
0.00106967
0.000766406
0.000160074
0.000246514
0.00141257
0.00221551
0.00271826
0.00295357
0.00301679
0.00299553
0.00292969
0.00279279
0.002543
0.00217908
0.00186551
0.00177454
0.00180587
0.00179255
0.0016894
0.00146488
0.00101683
0.000179222
0.000276146
0.00152207
0.0025008
0.00315763
0.0034912
0.00361047
0.00362551
0.00357745
0.00344774
0.00319741
0.0028218
0.00246389
0.0023101
0.00229388
0.00224053
0.00209143
0.00179357
0.00121882
0.000199343
0.000328144
0.0016117
0.00277037
0.00356129
0.00396374
0.0041143
0.00415051
0.00411285
0.00399578
0.00376261
0.00340208
0.00302832
0.00281848
0.00274341
0.002642
0.00244346
0.0020763
0.00138833
0.000218016
0.00042454
0.00175624
0.00311284
0.00399805
0.00442494
0.00457426
0.00460763
0.00457267
0.00446755
0.00425688
0.00392259
0.00355028
0.0032964
0.00316001
0.00300696
0.00275686
0.00232361
0.00153296
0.000235571
0.000524972
0.00209235
0.00361855
0.00450632
0.00489784
0.00501233
0.00502275
0.00498148
0.00488461
0.00469416
0.00438758
0.00402586
0.00373928
0.00354599
0.00334041
0.00303736
0.00254077
0.00165783
0.000251647
0.000189437
0.00139656
0.00242274
0.00320319
0.00383111
0.00436198
0.00482385
0.00522946
0.00558402
0.00588941
0.00614625
0.00635475
0.00651525
0.00662861
0.00669428
0.00670752
0.00665678
0.00652049
0.00627102
0.00584365
0.00510677
0.00381823
0.0017539
0.00020368
0.0014743
0.00255608
0.0033894
0.00407326
0.00466472
0.00519005
0.00565917
0.00607511
0.00643875
0.00675097
0.00701316
0.00722659
0.0073939
0.00751526
0.00758546
0.00759304
0.00752044
0.00734265
0.00702993
0.00652442
0.00575735
0.0047271
0.000216697
0.00154065
0.00262839
0.00348291
0.00420929
0.00485809
0.00544883
0.00598552
0.00646693
0.00689058
0.00725554
0.00756306
0.00781638
0.00802855
0.00820237
0.00832904
0.00839347
0.00838203
0.00828572
0.00809791
0.00781757
0.00746514
0.00712094
0.000226725
0.00157784
0.00263413
0.00350232
0.00427653
0.00498963
0.00565341
0.0062665
0.00682538
0.00732189
0.00775113
0.00809914
0.00835284
0.0085769
0.00878767
0.00896455
0.00907726
0.00911108
0.0090698
0.00896583
0.00881042
0.00863466
0.00851142
0.000225141
0.00141196
0.00248124
0.00343107
0.00429765
0.00508835
0.00580622
0.00645763
0.00704351
0.00755546
0.00799322
0.00840034
0.00875883
0.00902407
0.00927504
0.00950025
0.00965388
0.00971718
0.00971044
0.00965568
0.00955337
0.00944533
0.00944752
0.000225679
0.00113923
0.00220702
0.00330893
0.00431585
0.00519902
0.00596271
0.00663394
0.00722027
0.00772162
0.00816536
0.00859526
0.00901502
0.00936555
0.00967779
0.00995029
0.010143
0.0102169
0.0101862
0.0101085
0.009987
0.00990554
0.0100364
0.000252063
0.00109008
0.00218922
0.00338489
0.00448097
0.00542541
0.00622171
0.006908
0.00749887
0.00799902
0.00843903
0.00886294
0.00929351
0.00969629
0.0100541
0.0103404
0.0105284
0.0105914
0.0105349
0.0103941
0.0102313
0.0101825
0.0103455
0.000278431
0.0015023
0.00275263
0.0038844
0.00491845
0.0058312
0.00662225
0.00729967
0.00787302
0.00835105
0.00877272
0.00918704
0.00961379
0.0100245
0.0103869
0.0106522
0.0107914
0.0108157
0.0107502
0.0105902
0.0104099
0.0103696
0.0103949
0.000296327
0.00190878
0.00334487
0.00450125
0.00550044
0.00637106
0.00711496
0.00774215
0.00826648
0.00870526
0.00909997
0.00949729
0.00990754
0.0102983
0.0106259
0.0108479
0.010943
0.0109327
0.01084
0.0106766
0.0105339
0.0104882
0.0103835
0.00030784
0.00213575
0.00375889
0.0050077
0.00600694
0.0068391
0.00753433
0.00811172
0.00858972
0.00899882
0.0093747
0.00975014
0.010131
0.0104846
0.0107672
0.0109431
0.0109991
0.010956
0.0108411
0.0106962
0.010594
0.0105207
0.0103807
0.000314516
0.0022915
0.00406088
0.00537326
0.00638149
0.0071874
0.00784263
0.0083797
0.00882862
0.0092204
0.00958334
0.00993712
0.0102825
0.0105919
0.0108273
0.0109596
0.010983
0.0109163
0.010794
0.0106713
0.010591
0.0105153
0.0103954
0.000316962
0.00238939
0.00425083
0.0056087
0.00662408
0.00741261
0.00804199
0.00855584
0.00898882
0.00937033
0.00972244
0.0100558
0.0103642
0.0106278
0.010817
0.0109122
0.010913
0.0108375
0.01072
0.0106107
0.01054
0.0104807
0.0104026
0.000315367
0.0024366
0.00434134
0.00572279
0.00674349
0.00752437
0.00814166
0.00864529
0.00907135
0.00944637
0.00978713
0.0100989
0.0103739
0.0105961
0.0107472
0.0108164
0.0108075
0.0107381
0.0106379
0.0105435
0.0104777
0.0104307
0.0103843
0.000310062
0.00243819
0.00434583
0.00573025
0.00675189
0.007531
0.00814586
0.00864816
0.00907318
0.00944437
0.00977474
0.0100671
0.0103153
0.0105077
0.0106341
0.0106908
0.0106848
0.0106322
0.0105566
0.010483
0.010426
0.0103831
0.0103464
0.00030145
0.00239956
0.00427645
0.00564521
0.00666116
0.00743988
0.00805739
0.0085638
0.00899215
0.00936315
0.00968747
0.0099674
0.010199
0.0103758
0.0104928
0.0105507
0.0105576
0.0105277
0.0104787
0.0104271
0.0103814
0.0103409
0.0103026
0.00028995
0.00232622
0.00414371
0.00547991
0.00648225
0.00725891
0.00788087
0.00839462
0.00883022
0.00920599
0.00953127
0.00980874
0.0100367
0.0102122
0.0103338
0.0104044
0.0104316
0.0104269
0.0104035
0.010372
0.0103379
0.0103007
0.0102601
0.000275616
0.00222332
0.00395626
0.00524477
0.00622551
0.00699709
0.00762371
0.00814704
0.00859376
0.00898
0.00931429
0.00959979
0.0098365
0.0100235
0.0101613
0.0102531
0.0103053
0.0103269
0.0103273
0.010314
0.0102909
0.0102588
0.0102183
0.000260081
0.00208936
0.00371957
0.00494858
0.00590102
0.00666468
0.0072959
0.00783082
0.00829244
0.00869477
0.00904551
0.0093481
0.0096035
0.00981182
0.00997397
0.0100927
0.010173
0.0102215
0.0102448
0.0102487
0.0102368
0.0102111
0.0101733
0.00024359
0.00192624
0.00343909
0.00459975
0.00551923
0.00627328
0.00690951
0.0074581
0.00793812
0.00836128
0.00873433
0.00906062
0.00934143
0.00957721
0.0097687
0.00991778
0.0100279
0.0101038
0.0101503
0.0101716
0.010172
0.0101545
0.0101217
0.000225436
0.00174205
0.00311944
0.00420698
0.0050919
0.00583642
0.00647887
0.0070432
0.00754445
0.00799193
0.00839113
0.00874501
0.00905485
0.00932106
0.00954402
0.00972474
0.00986534
0.00996899
0.0100393
0.0100796
0.0100942
0.010087
0.0100617
0.000204175
0.0015251
0.00276475
0.00378082
0.00463389
0.0053711
0.00602147
0.00660326
0.00712763
0.00760131
0.00802845
0.0084114
0.00875125
0.0090483
0.00930259
0.0095145
0.00968514
0.00981654
0.00991139
0.00997254
0.0100035
0.0100091
0.0099939
0.000183188
0.00126612
0.0023814
0.00333703
0.00416678
0.00490026
0.00555965
0.00615949
0.00670744
0.00720741
0.0076622
0.00807353
0.00844225
0.00876854
0.00905231
0.0092935
0.00949262
0.0096509
0.00977031
0.00985336
0.00990277
0.00992363
0.0099208
0.000162336
0.00106843
0.00205369
0.00293779
0.00373245
0.00445589
0.00512173
0.00573792
0.00630807
0.00683204
0.00731199
0.00774899
0.00814359
0.00849593
0.00880584
0.00907315
0.00929801
0.00948118
0.00962409
0.00972886
0.0097981
0.00983537
0.00984641
0.000144756
0.000965735
0.00183083
0.00263382
0.00338308
0.00408729
0.00475057
0.00537429
0.00595792
0.0065
0.00700004
0.00745793
0.00787372
0.00824741
0.00857887
0.00886788
0.00911453
0.00931933
0.00948327
0.00960809
0.00969617
0.00975048
0.00977592
0.000134019
0.00093354
0.00171822
0.00245088
0.00315259
0.00382962
0.00448045
0.00510172
0.00568951
0.00624033
0.00675183
0.00722273
0.00765243
0.0080407
0.00838737
0.00869233
0.00895558
0.00917746
0.00935871
0.0095007
0.00960543
0.00967559
0.00971455
0.000130004
0.000940705
0.00169723
0.00238874
0.00305348
0.00370191
0.00433318
0.00494246
0.00552413
0.00607325
0.00658622
0.00706081
0.00749584
0.00789076
0.00824533
0.00855943
0.00883308
0.00906646
0.00926012
0.00941506
0.00953286
0.00961572
0.00966644
0.00012926
0.000969377
0.00174413
0.00242857
0.00307445
0.00370096
0.00431148
0.00490289
0.00547003
0.00600787
0.00651248
0.00698121
0.00741252
0.00780565
0.00816026
0.00847622
0.00875352
0.00899226
0.00919275
0.00935567
0.00948216
0.0095739
0.00963313
0.000129576
0.00100812
0.00183165
0.00253953
0.0031886
0.00380575
0.0044002
0.00497271
0.00552054
0.0060401
0.00652822
0.00698257
0.00740175
0.007785
0.00813201
0.00844266
0.00871693
0.00895484
0.00915652
0.00932236
0.00945306
0.00954979
0.00961423
0.000130648
0.00105469
0.00194508
0.00269762
0.00336799
0.00398851
0.00457403
0.00512997
0.00565714
0.00615448
0.00662051
0.00705399
0.00745415
0.00782063
0.00815333
0.00845227
0.00871747
0.00894894
0.00914669
0.00931083
0.00944171
0.00954002
0.0096069
0.000132557
0.00110911
0.0020763
0.00288546
0.00358869
0.00422199
0.00480507
0.00534789
0.00585514
0.00632878
0.00676962
0.00717804
0.00755435
0.00789891
0.00821209
0.00849419
0.00874543
0.00896584
0.00915541
0.00931407
0.00944188
0.00953911
0.00960641
0.000135466
0.00117092
0.00221867
0.00308892
0.00383042
0.00448194
0.00506715
0.00560004
0.00608898
0.00653906
0.00695358
0.00733481
0.00768445
0.00800383
0.00829399
0.00855569
0.00878942
0.0089954
0.00917365
0.00932403
0.00944639
0.00954068
0.00960709
0.000139535
0.00123789
0.00236446
0.00329495
0.00407599
0.00474831
0.00533853
0.00586401
0.00633642
0.00676387
0.00715216
0.00750559
0.00782738
0.00811998
0.00838522
0.00862443
0.00883849
0.00902787
0.00919272
0.00933295
0.00944829
0.00953845
0.00960324
0.000144889
0.00130682
0.00250611
0.00349333
0.00431338
0.00500764
0.0056046
0.00612435
0.00658158
0.00698732
0.0073499
0.00767567
0.00796942
0.00823476
0.00847437
0.00869018
0.0088835
0.00905513
0.00920542
0.00933436
0.00944169
0.00952698
0.00958975
0.00015164
0.00137569
0.00264028
0.00368097
0.0045396
0.00525627
0.00586044
0.00637468
0.00681679
0.00720082
0.00753773
0.00783589
0.00810165
0.00833974
0.00855364
0.00874586
0.00891811
0.00907152
0.00920665
0.00932366
0.00942234
0.00950221
0.00956264
0.000159939
0.00144571
0.00277149
0.00386544
0.00476323
0.0055018
0.00611146
0.00661789
0.00704263
0.00740314
0.00771309
0.0079829
0.00822035
0.00843112
0.00861936
0.00878803
0.0089392
0.00907422
0.00919389
0.00929851
0.00938798
0.00946188
0.00951948
0.00017003
0.00152163
0.00291261
0.00406494
0.00500349
0.00576139
0.00637134
0.00686402
0.00726596
0.00759866
0.00787865
0.00811821
0.00832627
0.00850923
0.00867167
0.0088168
0.00894688
0.00906342
0.00916734
0.0092591
0.00933872
0.00940585
0.00945979
0.000182329
0.00161077
0.00308319
0.00430585
0.00528693
0.00605771
0.00665773
0.00712613
0.00749638
0.00779457
0.00803998
0.00824635
0.00842331
0.00857758
0.0087138
0.00883524
0.00894413
0.00904201
0.00912984
0.00920816
0.00927709
0.00933638
0.00938543
0.000197629
0.00172254
0.00330956
0.00462196
0.0056445
0.00641451
0.00698732
0.00741584
0.00774236
0.00799762
0.00820297
0.00837281
0.00851679
0.0086414
0.00875099
0.00884855
0.00893614
0.00901515
0.00908651
0.00915073
0.00920801
0.00925819
0.00930078
0.000217781
0.00187004
0.00363207
0.00505912
0.00611097
0.00685282
0.00737137
0.00773927
0.00800803
0.00821163
0.00837183
0.00850237
0.00861202
0.00870643
0.00878928
0.00886305
0.0089294
0.0089895
0.0090441
0.00909368
0.00913841
0.00917822
0.0092127
0.000247025
0.00209065
0.00413089
0.00568894
0.00672537
0.00738634
0.00781122
0.00809398
0.00829129
0.00843622
0.00854803
0.00863812
0.00871335
0.00877796
0.00883467
0.00888524
0.00893086
0.00897235
0.00901027
0.00904496
0.00907657
0.00910503
0.00913005
0.00029807
0.00250648
0.00501045
0.00663216
0.00752368
0.0080113
0.00829268
0.00846713
0.00858363
0.00866704
0.00873055
0.00878142
0.00882385
0.00886033
0.00889243
0.00892114
0.00894713
0.00897088
0.00899269
0.00901276
0.00903119
0.00904793
0.00906276
0.000418869
0.00374743
0.00687202
0.00806169
0.00849757
0.00868513
0.00878049
0.00883602
0.00887204
0.00889755
0.00891694
0.00893251
0.00894556
0.00895685
0.00896682
0.00897579
0.00898394
0.00899141
0.00899829
0.00900466
0.00901052
0.00901587
0.00902061
0.000451107
0.000441298
0.000448221
0.000473366
0.00403588
0.00400004
0.00408443
0.00426963
0.00697301
0.0069383
0.00696917
0.00705168
0.00848758
0.00849309
0.00852471
0.00856955
0.00952232
0.00959147
0.00966233
0.00971222
0.0101327
0.0101849
0.0101828
0.0101336
0.0103805
0.0103522
0.010268
0.0101603
0.0103221
0.0102694
0.0102047
0.0101252
0.0102983
0.0102587
0.0102057
0.0101446
0.0103118
0.0102789
0.010238
0.0101954
0.0103411
0.0103177
0.010289
0.0102584
0.0103645
0.0103473
0.0103303
0.010312
0.0103633
0.0103537
0.0103457
0.0103363
0.0103304
0.0103228
0.0103154
0.0103049
0.0102801
0.0102667
0.010253
0.0102366
0.0102296
0.0102103
0.0101906
0.0101697
0.0101834
0.0101606
0.0101371
0.0101127
0.0101374
0.0101132
0.010088
0.0100617
0.0100873
0.0100636
0.0100384
0.0100118
0.0100312
0.0100096
0.00998591
0.00996051
0.00996947
0.00995113
0.00993035
0.00990739
0.00990406
0.00989012
0.0098732
0.00985363
0.00983839
0.00982945
0.00981698
0.00980129
0.00977693
0.00977303
0.00976502
0.00975321
0.00972381
0.00972451
0.00972051
0.00971213
0.00968243
0.00968686
0.00968607
0.00968038
0.00965433
0.00966152
0.00966305
0.00965924
0.009639
0.00964807
0.00965112
0.0096485
0.00963371
0.00964403
0.00964808
0.00964624
0.00963425
0.00964536
0.00965024
0.00964908
0.00963546
0.00964719
0.00965287
0.00965264
0.00963198
0.00964437
0.00965101
0.00965198
0.00961888
0.00963207
0.00963993
0.00964246
0.00959214
0.00960623
0.00961549
0.00961987
0.00954914
0.00956405
0.00957474
0.00958107
0.00948906
0.00950447
0.00951631
0.00952443
0.00941332
0.0094286
0.009441
0.00945035
0.00932597
0.00934018
0.00935219
0.00936182
0.00923368
0.00924576
0.00925622
0.00926492
0.00914551
0.00915449
0.00916233
0.00916891
0.00907196
0.00907728
0.00908187
0.00908563
0.00902352
0.00902517
0.00902655
0.0090276
0.00162896
0.00333894
0.00463599
0.00533808
0.00561766
0.00566609
0.00562692
0.00556547
0.00547382
0.00530676
0.00503861
0.00469988
0.00437696
0.00410481
0.00381617
0.00342776
0.00283613
0.00182814
0.000274171
0.0049831
0.00579956
0.00635053
0.00658909
0.00659221
0.00647377
0.00632508
0.00621978
0.00612437
0.00596745
0.00571691
0.00538503
0.00502281
0.00467223
0.00429259
0.00379893
0.00309423
0.00197681
0.000295428
0.00726915
0.00753675
0.0076746
0.00761211
0.00739572
0.00714076
0.00692109
0.00678194
0.00667852
0.00651963
0.00626964
0.0059292
0.00552252
0.0050881
0.00460686
0.00400044
0.003175
0.00197432
0.000299646
0.00865411
0.00870123
0.00865445
0.0083698
0.00799524
0.00767649
0.00743575
0.00726875
0.00714304
0.00696839
0.00670888
0.0063505
0.00589457
0.00536838
0.00476678
0.00402415
0.00305688
0.00180861
0.000288462
0.00973023
0.00953147
0.0091639
0.00878189
0.00842355
0.00812214
0.00788635
0.00769617
0.0075216
0.00732347
0.007056
0.00668628
0.00619293
0.00557914
0.00483796
0.00391568
0.00276307
0.00146902
0.000269469
0.0100101
0.00973465
0.00935707
0.00901716
0.00871322
0.00846967
0.0082668
0.00808281
0.00788607
0.00764067
0.00733744
0.00695295
0.00643607
0.00575695
0.004914
0.00385028
0.00255761
0.00124486
0.000250267
0.00998057
0.00972209
0.00944778
0.00918754
0.00895456
0.00875596
0.00857515
0.00839178
0.00818005
0.00790854
0.00756164
0.00713351
0.00659701
0.00588786
0.00501742
0.00397887
0.00269624
0.00132801
0.000238239
0.00998428
0.00978036
0.00957399
0.00936597
0.00917055
0.00899195
0.00881483
0.00862175
0.00838986
0.00809039
0.00770362
0.0072274
0.00664961
0.00593237
0.00507313
0.00409899
0.00305672
0.0016927
0.000243339
0.0100385
0.00988185
0.00971463
0.00953089
0.00934902
0.00917497
0.00898785
0.00877573
0.00851678
0.00817962
0.00774786
0.00722627
0.00661543
0.00589227
0.00504077
0.00410938
0.00312394
0.00190983
0.000267754
0.0101193
0.00999679
0.00984957
0.00967233
0.0094881
0.00930113
0.00909152
0.00884329
0.00853945
0.008151
0.00767211
0.00711428
0.00648184
0.00574287
0.00488368
0.00396149
0.00301199
0.00185462
0.000265478
0.0102055
0.0101047
0.00996462
0.0097823
0.00958697
0.00937622
0.00912769
0.00882787
0.00846572
0.00802679
0.00750426
0.00690542
0.006233
0.00546272
0.00459215
0.00367501
0.00275765
0.00165665
0.000242415
0.0102795
0.0101903
0.0100364
0.00984995
0.00965055
0.00942238
0.00914181
0.00879682
0.008384
0.00789514
0.0073205
0.0066618
0.00592726
0.00511184
0.00422152
0.00330406
0.002395
0.0013649
0.000215858
0.010313
0.010212
0.0100545
0.00987628
0.00967749
0.00944024
0.00914301
0.00877355
0.00832864
0.00779981
0.00717706
0.00646087
0.00566332
0.00479563
0.00387669
0.00294763
0.00203948
0.00109362
0.000189452
0.0102751
0.0101743
0.0100355
0.00987162
0.00967894
0.0094415
0.00914018
0.00876231
0.00830288
0.00775349
0.00710347
0.00635417
0.00551843
0.00461287
0.00366345
0.0027083
0.00178812
0.000914378
0.000183667
0.0102016
0.0101139
0.00999359
0.00984472
0.00966202
0.00943146
0.00913637
0.00876409
0.00830722
0.00775783
0.0071066
0.00635617
0.00551947
0.00461162
0.00365389
0.00268083
0.00175016
0.000917348
0.000196955
0.01013
0.0100491
0.00994161
0.00980566
0.00963428
0.00941493
0.00913299
0.00877621
0.00833569
0.00780316
0.00717239
0.00644785
0.00564284
0.0047701
0.00384434
0.00288988
0.0019504
0.00105565
0.000212474
0.0100687
0.00998976
0.00988954
0.00976298
0.00960213
0.00939539
0.00912969
0.00879336
0.00837699
0.00787198
0.00727502
0.00659314
0.00583884
0.00502264
0.00415372
0.00324152
0.00229207
0.00126016
0.000226625
0.010015
0.00993649
0.00984035
0.00972059
0.00956894
0.00937453
0.00912537
0.00881036
0.00842014
0.00794728
0.00739063
0.00675794
0.00605956
0.0053029
0.00449058
0.00361691
0.0026539
0.00149368
0.000238656
0.00996472
0.0098872
0.00979417
0.00967983
0.00953613
0.00935289
0.009119
0.00882398
0.00845912
0.00801885
0.00750342
0.00691914
0.00627301
0.0055675
0.00479676
0.00393969
0.00294061
0.00168613
0.000248378
0.00991514
0.00984017
0.00975049
0.00964095
0.00950408
0.00933047
0.00910996
0.00883292
0.00849182
0.00808261
0.0076058
0.00706528
0.00646364
0.00579695
0.00504961
0.0041863
0.00312898
0.0017916
0.000253784
0.00986556
0.00979471
0.00970899
0.00960393
0.00947274
0.0093071
0.00909797
0.00883699
0.00851783
0.00813726
0.00769511
0.00719235
0.00662665
0.00598737
0.00524961
0.00436637
0.00326968
0.00186007
0.000254371
0.00981665
0.00975113
0.00966975
0.00956863
0.00944199
0.00928274
0.00908328
0.00883664
0.00853757
0.00818295
0.00777118
0.00730014
0.00676261
0.00614212
0.00540816
0.00451127
0.00337821
0.0019105
0.000253705
0.00977
0.00971032
0.00963315
0.00953543
0.00941244
0.00925838
0.00906711
0.00883301
0.00855168
0.0082199
0.00783456
0.00739036
0.00687612
0.00627078
0.00553946
0.0046292
0.00346522
0.00195088
0.000253813
0.00972755
0.00967342
0.00959995
0.00950498
0.00938491
0.00923523
0.00905115
0.00882823
0.00856263
0.00825076
0.00788796
0.0074662
0.00697089
0.00637741
0.00564767
0.00472616
0.00353711
0.00198454
0.00025493
0.00969139
0.00964192
0.00957132
0.00947837
0.0093606
0.0092147
0.00903706
0.00882411
0.00857232
0.00827754
0.00793358
0.0075301
0.00704978
0.00646536
0.00573651
0.00480603
0.00359708
0.00201334
0.00025595
0.00966343
0.00961738
0.00954867
0.00945701
0.00934097
0.00919832
0.00902637
0.00882216
0.00858219
0.00830162
0.00797291
0.0075838
0.0071149
0.00653708
0.00580851
0.00487088
0.00364613
0.00203747
0.000256444
0.00964488
0.00960097
0.00953326
0.00944226
0.00932745
0.00918747
0.00902034
0.00882344
0.00859311
0.00832382
0.00800684
0.0076284
0.00716765
0.00659418
0.00586528
0.00492193
0.00368428
0.00205519
0.000256555
0.00963572
0.00959302
0.00952568
0.00943491
0.0093209
0.00918298
0.00901963
0.00882839
0.00860536
0.00834437
0.00803568
0.00766448
0.00720887
0.00663774
0.00590788
0.00495982
0.00371202
0.00206628
0.000256249
0.0096345
0.00959258
0.00952546
0.00943477
0.00932127
0.00918475
0.00902404
0.0088367
0.00861857
0.00836293
0.00805933
0.00769219
0.00723906
0.0066685
0.00593717
0.00498538
0.00373072
0.00207299
0.000255367
0.00963835
0.0095974
0.0095308
0.00944043
0.00932736
0.00919172
0.00903252
0.00884735
0.0086318
0.00837877
0.00807732
0.00771147
0.00725853
0.00668708
0.00595398
0.00499964
0.00374128
0.00207637
0.000254022
0.0096433
0.00960408
0.00953881
0.00944937
0.00933696
0.00920187
0.00904327
0.00885873
0.00864372
0.00839089
0.00808908
0.00772216
0.00726751
0.00669401
0.00595895
0.00500312
0.00374341
0.00207542
0.000252488
0.0096448
0.00960847
0.00954575
0.00945823
0.00934705
0.00921257
0.00905398
0.00886892
0.00865282
0.00839826
0.00809407
0.0077242
0.00726634
0.00668987
0.00595273
0.00499634
0.0037376
0.00207006
0.000250809
0.00963824
0.00960618
0.00954748
0.00946323
0.00935428
0.00922087
0.0090622
0.00887595
0.00865766
0.00839998
0.00809192
0.00771772
0.00725553
0.00667539
0.00593607
0.00497981
0.00372409
0.00206155
0.000248427
0.00961923
0.00959291
0.0095399
0.00946059
0.00935528
0.00922391
0.0090656
0.00887811
0.00865711
0.00839552
0.00808266
0.00770321
0.00723594
0.00665163
0.00590995
0.00495413
0.00370261
0.0020487
0.000245766
0.00958438
0.00956498
0.00951933
0.00944683
0.009347
0.0092192
0.00906232
0.00887412
0.00865053
0.00838482
0.00806678
0.00768165
0.00720888
0.00662007
0.00587582
0.00492034
0.0036731
0.0020291
0.00024395
0.00953159
0.00951968
0.00948284
0.00941914
0.00932702
0.00920489
0.0090511
0.00886337
0.0086379
0.00836845
0.00804536
0.00765456
0.00717623
0.00658282
0.00583583
0.00488046
0.00363728
0.00200409
0.000241894
0.00946061
0.00945584
0.00942867
0.00937561
0.00929377
0.00917998
0.00903157
0.00884604
0.00861993
0.00834758
0.00802004
0.007624
0.00714043
0.00654261
0.00579293
0.00483755
0.00359829
0.00197627
0.000239566
0.0093737
0.00937458
0.0093567
0.00931554
0.00924685
0.00914463
0.0090044
0.00882322
0.00859806
0.00832402
0.007993
0.00759252
0.00710438
0.00650271
0.00575077
0.00479559
0.00356026
0.00194939
0.000237342
0.0092763
0.00927996
0.00926907
0.00923996
0.00918753
0.00910057
0.00897158
0.00879701
0.00857448
0.0083001
0.00796676
0.0075629
0.00707118
0.00646657
0.00571316
0.00475868
0.00352707
0.00192587
0.000235499
0.00917759
0.00918039
0.00917223
0.00915248
0.00911965
0.00905178
0.00893679
0.00877064
0.00855206
0.00827849
0.00794399
0.0075379
0.00704374
0.00643731
0.00568345
0.00473024
0.00350146
0.00190684
0.00023426
0.0090903
0.00908978
0.00907999
0.00906198
0.00905124
0.00900533
0.00890565
0.00874836
0.0085341
0.00826197
0.00792715
0.00751986
0.00702435
0.00641718
0.00566382
0.00471211
0.00348422
0.00189178
0.0002338
0.00902866
0.00902665
0.00901767
0.00899437
0.00899731
0.00897261
0.00888566
0.00873495
0.00852382
0.0082529
0.0079182
0.00751048
0.00701444
0.00640715
0.00565471
0.00470405
0.00347369
0.00187661
0.000234089
)
;

boundaryField
{
    leftWall
    {
        type            nutkWallFunction;
        Cmu             0.09;
        kappa           0.41;
        E               9.8;
        value           nonuniform List<scalar> 
50
(
8.59399e-06
1.15686e-05
1.35577e-05
1.53329e-05
1.68764e-05
1.82642e-05
1.94758e-05
2.05908e-05
2.197e-05
2.35708e-05
2.50403e-05
2.69541e-05
2.81917e-05
2.71337e-05
3.00797e-05
3.06694e-05
3.36518e-05
3.57422e-05
3.70097e-05
3.75008e-05
3.73079e-05
3.65233e-05
3.52374e-05
3.35277e-05
3.14082e-05
2.91125e-05
2.68308e-05
2.42424e-05
2.1027e-05
1.7682e-05
1.45333e-05
1.19182e-05
1.03654e-05
9.82237e-06
9.69765e-06
9.7104e-06
9.82356e-06
1.00522e-05
1.0425e-05
1.09723e-05
1.17204e-05
1.26903e-05
1.39039e-05
1.53921e-05
1.72078e-05
1.94565e-05
2.23892e-05
2.65842e-05
3.36889e-05
4.94948e-05
)
;
    }
    rightWall
    {
        type            nutkWallFunction;
        Cmu             0.09;
        kappa           0.41;
        E               9.8;
        value           nonuniform List<scalar> 
50
(
1.27421e-05
1.64909e-05
1.87569e-05
2.0709e-05
2.2726e-05
2.46905e-05
2.65381e-05
2.82758e-05
3.07371e-05
3.33173e-05
3.37184e-05
3.24177e-05
3.02077e-05
2.82616e-05
2.88081e-05
2.75402e-05
3.09879e-05
2.97899e-05
2.60795e-05
2.26341e-05
1.94898e-05
1.93856e-05
2.09104e-05
2.33844e-05
2.53084e-05
2.6935e-05
2.79887e-05
2.84117e-05
2.85937e-05
2.85038e-05
2.87261e-05
2.8838e-05
2.8912e-05
2.8934e-05
2.89092e-05
2.88344e-05
2.86865e-05
2.84768e-05
2.8241e-05
2.79748e-05
2.74286e-05
2.70789e-05
2.67386e-05
2.62202e-05
2.58656e-05
2.55384e-05
2.52673e-05
2.50883e-05
2.50362e-05
2.5123e-05
)
;
    }
    lowerWall
    {
        type            nutkWallFunction;
        Cmu             0.09;
        kappa           0.41;
        E               9.8;
        value           nonuniform List<scalar> 
62
(
4.04181e-06
6.47263e-06
8.02387e-06
9.01989e-06
9.74819e-06
1.03363e-05
1.08333e-05
1.12578e-05
1.16125e-05
1.18951e-05
1.2104e-05
1.22396e-05
1.23027e-05
1.22928e-05
1.22047e-05
1.20227e-05
1.17588e-05
1.13844e-05
1.08965e-05
1.02939e-05
9.46041e-06
8.07801e-06
5.62294e-06
5.62294e-06
1.74243e-05
2.11288e-05
2.42233e-05
2.70313e-05
2.96281e-05
3.25835e-05
3.75538e-05
4.70594e-05
4.59642e-05
4.65045e-05
4.88423e-05
7.42828e-06
2.24981e-05
2.47044e-05
2.70446e-05
3.04104e-05
3.58613e-05
4.50054e-05
5.42459e-05
7.42828e-06
1.18726e-05
1.49635e-05
1.59613e-05
1.59763e-05
1.55687e-05
1.49943e-05
1.43886e-05
1.37218e-05
1.2851e-05
1.1704e-05
1.05625e-05
9.94419e-06
9.72409e-06
9.42855e-06
8.85328e-06
8.00617e-06
6.99482e-06
5.5589e-06
)
;
    }
    atmosphere
    {
        type            calculated;
        value           nonuniform List<scalar> 
46
(
0.009
0.009
0.009
0.009
0.009
0.009
0.009
0.009
0.009
0.009
0.009
0.009
0.009
0.009
0.009
0.009
0.009
0.009
0.009
0.009
0.009
0.009
0.009
0.009
0.009
0.009
0.009
0.009
0.009
0.009
0.009
0.00899731
0.00897261
0.00888566
0.00873495
0.00852382
0.0082529
0.0079182
0.00751048
0.00701444
0.00640715
0.00565471
0.00470405
0.00347369
0.00187661
0.000234089
)
;
    }
    defaultFaces
    {
        type            empty;
    }
}


// ************************************************************************* //
