/*--------------------------------*- C++ -*----------------------------------*\
| =========                 |                                                 |
| \\      /  F ield         | OpenFOAM: The Open Source CFD Toolbox           |
|  \\    /   O peration     | Version:  2.3.0                                 |
|   \\  /    A nd           | Web:      www.OpenFOAM.org                      |
|    \\/     M anipulation  |                                                 |
\*---------------------------------------------------------------------------*/
FoamFile
{
    version     2.0;
    format      ascii;
    class       volScalarField;
    location    "1.7";
    object      p;
}
// * * * * * * * * * * * * * * * * * * * * * * * * * * * * * * * * * * * * * //

dimensions      [1 -1 -2 0 0 0 0];

internalField   nonuniform List<scalar> 
2268
(
774.828
774.871
775.376
775.729
775.771
775.748
775.916
776.482
777.586
779.319
781.732
784.864
788.766
793.51
799.212
806.074
814.332
824
834.823
846.831
858.678
868.268
875.855
716.07
715.686
715.846
715.996
715.913
715.772
715.79
716.169
717.079
718.649
720.961
724.083
728.08
733.045
739.109
746.47
755.501
766.58
779.192
792.126
803.54
811.209
818.187
657.339
657.024
656.685
656.405
656.007
655.582
655.299
655.358
655.965
657.289
659.454
662.554
666.679
671.941
678.49
686.545
696.475
708.863
723.036
736.762
747.87
754.594
761.998
598.587
598.616
597.953
597.194
596.376
595.551
594.873
594.552
594.821
595.882
597.884
600.943
605.167
610.682
617.647
626.27
636.845
649.847
664.769
679.029
690.151
698
707.288
539.818
540.188
539.392
538.217
536.959
535.687
534.575
533.854
533.781
534.58
536.414
539.41
543.69
549.386
556.652
565.669
576.628
589.805
604.72
619.198
630.64
641.215
653.435
481.069
481.682
480.854
479.331
477.637
475.888
474.306
473.158
472.725
473.25
474.9
477.809
482.11
487.935
495.426
504.728
515.933
529.149
543.864
558.257
569.868
583.902
598.707
422.397
423.16
422.338
420.505
418.367
416.108
414.012
412.392
411.566
411.795
413.242
416.04
420.332
426.25
433.921
443.452
454.852
468.091
482.598
496.684
507.872
524.644
541.447
363.847
364.683
363.866
361.73
359.126
356.335
353.697
351.58
350.349
350.287
351.534
354.201
358.442
364.4
372.185
381.868
393.398
406.638
420.885
434.321
444.221
458.706
475.802
697.602
708.417
734.941
749.334
744.884
727.271
703.843
680.149
658.499
640.625
629.714
623.383
616.224
608.944
604.121
600.672
598.332
599.187
601.173
637.178
643.215
666.355
679.111
676.068
662.233
642.35
620.676
599.586
581.985
572.96
569.617
564.182
557.448
551.979
548.029
544.756
543.208
543.815
575.321
581.106
604.534
616.377
612.276
599.529
582.425
562.712
542.312
524.264
517.253
514.847
509.258
505.275
499.557
495.144
490.653
487.057
486.552
513.273
525.292
552.26
564.181
559.964
543.133
524.851
505.491
486.838
473.291
469.485
466.519
457.286
451.747
445.561
440.403
435.215
429.796
429.204
451.643
468.381
497.847
511.788
511.074
492.902
471.644
454.336
441.251
433.536
428.481
424.025
413.735
399.475
390.297
383.775
377.755
371.835
371.616
392.01
414.194
444.536
457.215
459.092
450.097
428.962
415.016
404.738
394.171
387.438
380.919
370.025
347.148
334.897
326.676
319.073
313.24
313.74
325.332
364.906
394.653
402.709
404.798
403.803
391.035
377.872
364.079
350.852
342.718
334.487
318.224
292.084
279.132
269.402
260.078
253.962
255.073
258.425
316.857
345.604
350.574
351.908
354.384
348.053
336.1
319.363
303.365
292.407
280.572
256.593
233.946
222.582
211.896
200.508
193.798
197.815
272.589
273.549
272.62
269.958
266.593
262.951
259.462
256.589
254.77
254.311
255.282
257.724
261.819
267.733
275.542
285.26
296.752
309.776
323.379
335.79
344.434
347.077
328.74
149.634
151.628
150.057
146.278
141.792
136.761
132.003
128.25
125.787
124.77
125.107
126.968
130.716
136.54
144.443
154.19
165.311
177.445
190.291
202.089
211.37
214.483
211.868
49.332
51.8929
51.0262
48.1641
44.4915
40.3112
37.3653
35.4639
34.0276
32.594
31.0642
30.7546
32.1348
34.8925
39.4772
45.5729
52.3448
59.593
67.7288
77.311
85.9757
89.9337
86.4133
6.49114
7.20248
7.78732
7.56015
6.67484
5.66238
5.62033
5.84871
5.69407
4.49416
2.26286
0.713893
0.216432
0.13084
0.76719
1.99333
3.58721
5.73292
9.01531
13.2973
16.7829
18.4719
18.0596
2.34791
2.28653
2.32527
2.57861
3.05012
3.53464
3.80027
3.94078
3.63322
2.52229
1.27819
0.559423
0.276054
0.17393
0.0755511
-0.182766
-0.477084
-0.561429
-0.387847
-0.270934
-0.444942
-0.706718
-0.461274
0.250723
0.226856
-0.192095
-0.321375
-0.0284121
0.698003
1.1792
1.42011
1.39643
0.728637
0.106989
0.0355783
-0.0168203
-0.112521
-0.236777
-0.346043
-0.426073
-0.415146
-0.241763
0.124203
0.325572
0.278803
0.347563
-1.0396
-1.05598
-1.08772
-1.13973
-1.17862
-1.0585
-0.874829
-0.713572
-0.407243
-0.487932
-0.715262
-0.513707
-0.467651
-0.582728
-0.700219
-0.714362
-0.700535
-0.672012
-0.636911
-0.51288
-0.270799
-0.117692
0.0374625
-1.36115
-1.34182
-1.30817
-1.30702
-1.33104
-1.38805
-1.42833
-1.44828
-1.44819
-1.39447
-1.25774
-1.08198
-1.01664
-1.04787
-1.04804
-1.01965
-0.966016
-0.928892
-0.935355
-0.956539
-0.830221
-0.639355
-0.378311
-1.48712
-1.48361
-1.46515
-1.46015
-1.47314
-1.49485
-1.51861
-1.54196
-1.55551
-1.55082
-1.52246
-1.44444
-1.35984
-1.28658
-1.23748
-1.21253
-1.17736
-1.14621
-1.14741
-1.1841
-1.17081
-1.00877
-0.834097
-1.60765
-1.61303
-1.60872
-1.60798
-1.61686
-1.63242
-1.64952
-1.66364
-1.67143
-1.66962
-1.64682
-1.59061
-1.51856
-1.45832
-1.42159
-1.39762
-1.3755
-1.36495
-1.38201
-1.41651
-1.41643
-1.33714
-1.25683
-1.72492
-1.73686
-1.74215
-1.74567
-1.75276
-1.76408
-1.77561
-1.78232
-1.78262
-1.77451
-1.75113
-1.71047
-1.66455
-1.62442
-1.59504
-1.57568
-1.56497
-1.57045
-1.5965
-1.62664
-1.64875
-1.6392
-1.61904
-1.84142
-1.85744
-1.86853
-1.87491
-1.88108
-1.8884
-1.89468
-1.89746
-1.89492
-1.88562
-1.86694
-1.83883
-1.80746
-1.77882
-1.75682
-1.74289
-1.738
-1.7458
-1.76712
-1.795
-1.82302
-1.84535
-1.86915
-1.95913
-1.97702
-1.99123
-1.9993
-2.00493
-2.00982
-2.01323
-2.01377
-2.0102
-2.00166
-1.98719
-1.96734
-1.94548
-1.92541
-1.91002
-1.90094
-1.89939
-1.90727
-1.92517
-1.94996
-1.97814
-2.00795
-2.05162
-2.07996
-2.0978
-2.11301
-2.12177
-2.12706
-2.13065
-2.13251
-2.13195
-2.12829
-2.12106
-2.11004
-2.09595
-2.08088
-2.06726
-2.05713
-2.05189
-2.05267
-2.06065
-2.07624
-2.09809
-2.1246
-2.15498
-2.19614
-2.20447
-2.2209
-2.23547
-2.24404
-2.24893
-2.25179
-2.25289
-2.25199
-2.24877
-2.24303
-2.23487
-2.225
-2.21481
-2.20591
-2.19972
-2.19733
-2.19964
-2.20746
-2.22107
-2.23993
-2.26329
-2.29024
-2.32325
-2.33224
-2.34641
-2.35924
-2.36696
-2.37134
-2.37375
-2.37456
-2.37375
-2.37122
-2.36695
-2.36113
-2.35438
-2.34769
-2.34215
-2.33876
-2.33833
-2.34153
-2.34889
-2.36062
-2.3765
-2.39606
-2.41836
-2.44417
-2.46228
-2.47377
-2.48424
-2.49079
-2.49459
-2.49671
-2.49748
-2.49697
-2.49521
-2.49224
-2.48828
-2.48384
-2.47963
-2.47642
-2.47494
-2.47575
-2.47935
-2.48608
-2.49609
-2.50926
-2.52522
-2.54308
-2.5627
-2.59333
-2.60211
-2.61018
-2.61551
-2.61877
-2.62068
-2.62152
-2.62138
-2.62032
-2.61842
-2.6159
-2.61315
-2.61067
-2.60906
-2.60882
-2.61036
-2.61403
-2.62008
-2.6286
-2.63951
-2.65251
-2.66676
-2.68182
-2.72541
-2.73134
-2.73679
-2.74106
-2.74385
-2.7456
-2.74651
-2.7467
-2.74622
-2.74517
-2.74372
-2.74217
-2.74091
-2.74036
-2.74091
-2.74285
-2.74643
-2.75181
-2.75908
-2.76818
-2.77886
-2.79039
-2.80245
-2.85879
-2.86195
-2.86449
-2.86745
-2.86973
-2.87128
-2.87223
-2.87266
-2.87263
-2.87221
-2.87154
-2.87085
-2.87043
-2.8706
-2.87164
-2.87377
-2.87718
-2.88198
-2.88823
-2.89588
-2.90475
-2.91426
-2.92416
-2.9915
-2.99258
-2.99307
-2.99457
-2.99617
-2.99746
-2.9984
-2.999
-2.9993
-2.99934
-2.99924
-2.99916
-2.99932
-2.99996
-3.00131
-3.00354
-3.00675
-3.01106
-3.01648
-3.023
-3.03046
-3.03842
-3.04671
-3.12103
-3.12119
-3.12112
-3.12173
-3.12274
-3.12381
-3.12473
-3.12546
-3.126
-3.12639
-3.1267
-3.12706
-3.12763
-3.1286
-3.13014
-3.13239
-3.13543
-3.13933
-3.1441
-3.14973
-3.1561
-3.16288
-3.16994
-3.24853
-3.24804
-3.24782
-3.24829
-3.24915
-3.25012
-3.25104
-3.25187
-3.25259
-3.25324
-3.25385
-3.25453
-3.2554
-3.2566
-3.25827
-3.26051
-3.26339
-3.26696
-3.27123
-3.27617
-3.28169
-3.28755
-3.29364
-3.37596
-3.37479
-3.37434
-3.37477
-3.37556
-3.37644
-3.37734
-3.37822
-3.37905
-3.37987
-3.3807
-3.38161
-3.3827
-3.38406
-3.38581
-3.38803
-3.39078
-3.39408
-3.39794
-3.40234
-3.4072
-3.41233
-3.41763
-3.50363
-3.50239
-3.50165
-3.50171
-3.50221
-3.50292
-3.50372
-3.50457
-3.50544
-3.50635
-3.50732
-3.50838
-3.50962
-3.5111
-3.5129
-3.51509
-3.51772
-3.5208
-3.52433
-3.5283
-3.53263
-3.53717
-3.54183
-3.63129
-3.63009
-3.62916
-3.62889
-3.6291
-3.62959
-3.63024
-3.631
-3.63184
-3.63277
-3.6338
-3.63496
-3.63629
-3.63784
-3.63967
-3.64183
-3.64435
-3.64724
-3.6505
-3.65411
-3.658
-3.66206
-3.66619
-3.7588
-3.75765
-3.75663
-3.75615
-3.75613
-3.75641
-3.75689
-3.75754
-3.75831
-3.75922
-3.76026
-3.76145
-3.76282
-3.76441
-3.76624
-3.76836
-3.77078
-3.77351
-3.77654
-3.77984
-3.78338
-3.78703
-3.79073
-3.88616
-3.88507
-3.88402
-3.88341
-3.88322
-3.88333
-3.88368
-3.88421
-3.8849
-3.88575
-3.88677
-3.88796
-3.88934
-3.89092
-3.89273
-3.89479
-3.89711
-3.89969
-3.90252
-3.90556
-3.90879
-3.91211
-3.91546
-4.01342
-4.01238
-4.01133
-4.01065
-4.01035
-4.01034
-4.01057
-4.011
-4.01162
-4.01241
-4.01339
-4.01455
-4.0159
-4.01745
-4.01922
-4.02121
-4.02342
-4.02585
-4.02849
-4.03131
-4.03427
-4.0373
-4.04034
-4.14061
-4.13964
-4.1386
-4.13788
-4.1375
-4.13741
-4.13756
-4.13791
-4.13846
-4.1392
-4.14013
-4.14124
-4.14255
-4.14405
-4.14575
-4.14765
-4.14974
-4.15203
-4.15448
-4.15709
-4.15981
-4.16258
-4.16535
-4.26777
-4.26686
-4.26585
-4.26511
-4.26469
-4.26455
-4.26463
-4.26493
-4.26543
-4.26612
-4.267
-4.26806
-4.2693
-4.27073
-4.27234
-4.27413
-4.2761
-4.27823
-4.2805
-4.2829
-4.28539
-4.28792
-4.29045
-4.39489
-4.39407
-4.39309
-4.39236
-4.39192
-4.39175
-4.3918
-4.39206
-4.39251
-4.39316
-4.39398
-4.39498
-4.39615
-4.39749
-4.39899
-4.40066
-4.40248
-4.40445
-4.40654
-4.40873
-4.411
-4.4133
-4.4156
-4.52199
-4.52126
-4.52035
-4.51964
-4.5192
-4.51901
-4.51903
-4.51926
-4.51969
-4.52029
-4.52105
-4.52198
-4.52307
-4.52431
-4.5257
-4.52723
-4.5289
-4.53069
-4.53259
-4.53458
-4.53663
-4.5387
-4.54078
-4.64907
-4.64845
-4.64761
-4.64694
-4.64651
-4.64632
-4.64633
-4.64654
-4.64693
-4.64749
-4.6482
-4.64906
-4.65005
-4.65118
-4.65244
-4.65383
-4.65533
-4.65694
-4.65864
-4.66042
-4.66226
-4.66411
-4.66598
-4.77614
-4.77564
-4.77489
-4.77427
-4.77386
-4.77367
-4.77368
-4.77388
-4.77424
-4.77475
-4.77539
-4.77617
-4.77707
-4.77808
-4.7792
-4.78044
-4.78177
-4.78319
-4.7847
-4.78627
-4.78789
-4.78953
-4.79119
-4.90321
-4.90282
-4.90218
-4.90161
-4.90124
-4.90106
-4.90107
-4.90125
-4.90158
-4.90204
-4.90262
-4.90331
-4.9041
-4.90499
-4.90597
-4.90704
-4.9082
-4.90944
-4.91074
-4.9121
-4.91351
-4.91494
-4.91639
-5.03027
-5.03001
-5.02947
-5.02897
-5.02863
-5.02847
-5.02849
-5.02865
-5.02895
-5.02935
-5.02985
-5.03045
-5.03113
-5.03189
-5.03273
-5.03364
-5.03462
-5.03567
-5.03677
-5.03793
-5.03912
-5.04034
-5.04159
-5.1573
-5.15722
-5.15679
-5.15634
-5.15603
-5.1559
-5.15592
-5.15607
-5.15632
-5.15666
-5.15709
-5.15758
-5.15814
-5.15877
-5.15946
-5.16021
-5.16102
-5.16188
-5.16279
-5.16373
-5.16472
-5.16572
-5.16676
-5.28438
-5.28452
-5.28414
-5.28372
-5.28343
-5.28332
-5.28334
-5.28347
-5.28368
-5.28396
-5.28429
-5.28468
-5.28513
-5.28562
-5.28617
-5.28676
-5.28739
-5.28806
-5.28877
-5.28951
-5.29028
-5.29107
-5.2919
-5.41168
-5.41209
-5.41171
-5.41108
-5.41078
-5.41071
-5.41074
-5.41085
-5.411
-5.4112
-5.41145
-5.41173
-5.41206
-5.41242
-5.41282
-5.41325
-5.41371
-5.4142
-5.4147
-5.41524
-5.41579
-5.41636
-5.41697
-5.5388
-5.5408
-5.5398
-5.53849
-5.53813
-5.5381
-5.53813
-5.5382
-5.53829
-5.53841
-5.53856
-5.53874
-5.53894
-5.53917
-5.53942
-5.53969
-5.53998
-5.54028
-5.5406
-5.54092
-5.54125
-5.54159
-5.54196
-5.66429
-5.67217
-5.66877
-5.6668
-5.66638
-5.66626
-5.6662
-5.66617
-5.66615
-5.66616
-5.66619
-5.66624
-5.6663
-5.66638
-5.66646
-5.66655
-5.66663
-5.66672
-5.66681
-5.66688
-5.66696
-5.66703
-5.6671
263.413
257.987
266.456
263.209
200.078
191.747
183.253
172.361
74.7511
69.7741
68.2301
68.4789
18.1996
19.7681
22.0483
23.8799
-0.545128
-0.395604
-0.00979404
0.855845
0.642431
0.894393
1.18235
1.51466
0.255948
0.420818
0.622393
0.803808
-0.183917
-0.0568916
0.0621504
0.0511926
-0.724868
-0.651654
-0.682728
-0.967182
-1.25167
-1.27704
-1.42351
-1.52856
-1.67382
-1.74682
-1.83069
-1.75619
-1.94111
-2.01907
-2.1305
-2.2039
-2.13192
-2.21612
-2.30631
-2.342
-2.26304
-2.32058
-2.3627
-2.36334
-2.36708
-2.40051
-2.42151
-2.43383
-2.47303
-2.49317
-2.51117
-2.52585
-2.58245
-2.59801
-2.61374
-2.62653
-2.69697
-2.70949
-2.72248
-2.73337
-2.81452
-2.82462
-2.83533
-2.8445
-2.93393
-2.9421
-2.9509
-2.95856
-3.05471
-3.06132
-3.06849
-3.07483
-3.17654
-3.18189
-3.18769
-3.19288
-3.29914
-3.30346
-3.30813
-3.31236
-3.42226
-3.42577
-3.42955
-3.43299
-3.54575
-3.54865
-3.55174
-3.55457
-3.66957
-3.672
-3.67458
-3.67696
-3.79369
-3.79579
-3.79799
-3.80004
-3.9181
-3.91996
-3.92189
-3.92369
-4.04274
-4.04443
-4.04616
-4.04778
-4.16756
-4.16911
-4.17071
-4.17219
-4.29248
-4.29394
-4.29542
-4.2968
-4.41748
-4.41884
-4.42024
-4.42153
-4.54251
-4.54378
-4.54509
-4.5463
-4.66756
-4.66874
-4.66997
-4.6711
-4.79261
-4.7937
-4.79483
-4.79588
-4.91766
-4.91864
-4.91968
-4.92064
-5.0427
-5.04357
-5.04449
-5.04535
-5.1677
-5.16845
-5.16925
-5.17001
-5.29265
-5.29327
-5.29394
-5.29458
-5.41753
-5.418
-5.41851
-5.41901
-5.54229
-5.54258
-5.54291
-5.54323
-5.66717
-5.66726
-5.66737
-5.66748
224.859
246.641
267.334
270.165
269.472
271.55
268.369
259.954
246.226
228.848
212.127
195.205
174.551
157
147.466
140.234
131.758
125.951
129.138
150.022
151.888
160.507
150.505
148.389
153.443
153.152
148.649
143.055
136.343
126.638
114.203
102.709
93.9937
90.1079
88.0893
84.8424
80.1374
80.7742
69.4854
67.332
59.8744
43.9802
48.9103
59.024
62.4939
58.1022
57.5796
65.2265
68.4871
67.0846
66.4331
66.7041
68.0035
67.189
64.2222
61.9447
63.543
21.9303
13.2884
9.16758
11.1836
11.679
15.228
18.5127
18.5045
20.7509
25.5904
31.2985
37.8028
40.8326
41.46
43.5875
44.5296
43.9575
44.556
47.0956
3.34869
7.46962
8.01017
7.96614
7.79992
7.18413
8.17579
10.7139
12.5264
12.9255
13.2018
15.2205
16.0483
15.6572
17.1118
19.8108
22.7301
24.622
26.2902
2.27051
4.07631
6.25437
6.57083
6.3127
6.23932
6.91028
7.93312
8.53484
8.01068
6.60591
4.44772
2.84827
2.26174
2.31807
3.23371
5.34732
6.40247
6.37571
1.21058
1.90099
3.14466
3.49278
3.35893
3.26142
3.69226
4.29223
4.49853
3.75688
2.31741
0.916265
0.0609838
-0.127642
-0.14907
-0.235871
-0.449258
-0.648616
-0.595803
-0.200233
0.473409
0.965045
0.611616
0.212555
0.100815
0.200864
0.23297
0.219467
0.0479195
-0.383005
-0.708049
-0.821853
-0.833628
-0.848374
-0.911793
-1.0389
-1.13147
-1.12137
-1.10143
-0.120902
-0.213622
-1.10504
-1.56417
-1.51957
-1.51115
-1.55325
-1.59099
-1.51806
-1.41569
-1.31789
-1.25224
-1.23825
-1.23374
-1.22084
-1.25833
-1.27857
-1.26985
-1.1155
-0.829385
-1.70799
-1.99171
-2.02833
-2.04583
-2.01517
-1.93856
-1.80271
-1.65544
-1.53944
-1.48821
-1.45952
-1.45412
-1.46104
-1.44099
-1.42377
-1.4259
-1.42007
-1.42452
-1.94476
-2.0402
-2.04896
-2.04349
-2.01804
-1.97306
-1.90937
-1.83338
-1.76021
-1.70156
-1.65726
-1.62525
-1.61335
-1.60832
-1.59808
-1.57707
-1.57029
-1.56725
-2.2641
-2.20999
-2.17795
-2.1552
-2.13919
-2.11591
-2.08225
-2.03386
-1.96997
-1.91083
-1.86287
-1.82158
-1.78746
-1.76833
-1.7589
-1.74525
-1.72785
-1.71957
-1.71916
-2.3021
-2.28562
-2.26927
-2.25162
-2.23497
-2.21469
-2.1874
-2.15102
-2.10369
-2.0547
-2.01463
-1.98422
-1.95489
-1.92849
-1.91149
-1.89709
-1.8837
-1.87647
-1.87657
-2.36657
-2.36644
-2.3574
-2.34509
-2.33161
-2.31457
-2.29285
-2.26651
-2.23072
-2.19166
-2.16197
-2.13702
-2.11289
-2.08916
-2.06691
-2.05225
-2.04089
-2.03351
-2.03394
-2.44976
-2.45425
-2.45002
-2.4423
-2.43205
-2.41856
-2.40175
-2.38304
-2.3579
-2.32707
-2.3027
-2.27653
-2.25426
-2.23571
-2.21893
-2.20525
-2.19319
-2.18627
-2.18709
-2.54185
-2.54855
-2.54835
-2.5443
-2.53682
-2.52625
-2.5134
-2.49954
-2.48395
-2.46146
-2.43574
-2.41079
-2.39074
-2.37516
-2.36294
-2.3531
-2.34608
-2.34161
-2.34
-2.64098
-2.64914
-2.65191
-2.6505
-2.64543
-2.63722
-2.62697
-2.61604
-2.60574
-2.58938
-2.56481
-2.54316
-2.52623
-2.51339
-2.5042
-2.49906
-2.49853
-2.49938
-2.49412
-2.74604
-2.75469
-2.7593
-2.75964
-2.75655
-2.75064
-2.74246
-2.73343
-2.72383
-2.70927
-2.69071
-2.67365
-2.66006
-2.64999
-2.64348
-2.64129
-2.64416
-2.64904
-2.64292
-2.85539
-2.86378
-2.86912
-2.8711
-2.86978
-2.86565
-2.85938
-2.85168
-2.84205
-2.82982
-2.8158
-2.80276
-2.79209
-2.78423
-2.77945
-2.77828
-2.7808
-2.78596
-2.78326
-2.96785
-2.97562
-2.98092
-2.98381
-2.98386
-2.98131
-2.97659
-2.96995
-2.96139
-2.95146
-2.94074
-2.93077
-2.92241
-2.91613
-2.91222
-2.91094
-2.91205
-2.91371
-2.91253
-3.0827
-3.08974
-3.09476
-3.09772
-3.09842
-3.09701
-3.09357
-3.08821
-3.08142
-3.07363
-3.06543
-3.05775
-3.05115
-3.04597
-3.04246
-3.04061
-3.03989
-3.03879
-3.03598
-3.19951
-3.20578
-3.21045
-3.21339
-3.21444
-3.21366
-3.2112
-3.20721
-3.20206
-3.1961
-3.18982
-3.18384
-3.17855
-3.17419
-3.17086
-3.16839
-3.16617
-3.16321
-3.15878
-3.31792
-3.32346
-3.32773
-3.33058
-3.33187
-3.33163
-3.32999
-3.32711
-3.32326
-3.31877
-3.31397
-3.30927
-3.30497
-3.30123
-3.29804
-3.29518
-3.29207
-3.28815
-3.28314
-3.43767
-3.44255
-3.44642
-3.44914
-3.45058
-3.45076
-3.44978
-3.44778
-3.44497
-3.44161
-3.43794
-3.43424
-3.43071
-3.42746
-3.42446
-3.42147
-3.41805
-3.4139
-3.40975
-3.55854
-3.56286
-3.56636
-3.56893
-3.57045
-3.57094
-3.57047
-3.56914
-3.56713
-3.56463
-3.56181
-3.55888
-3.55596
-3.55313
-3.55036
-3.54747
-3.54413
-3.54008
-3.5361
-3.68038
-3.68422
-3.68739
-3.6898
-3.69135
-3.69205
-3.69195
-3.69114
-3.68973
-3.68786
-3.68568
-3.68333
-3.68089
-3.67842
-3.67588
-3.67315
-3.67
-3.66616
-3.66166
-3.80303
-3.80646
-3.80935
-3.8116
-3.81314
-3.81398
-3.81414
-3.81369
-3.81271
-3.81132
-3.80962
-3.8077
-3.80564
-3.80345
-3.8011
-3.79849
-3.79537
-3.7914
-3.78661
-3.92634
-3.92944
-3.93207
-3.93417
-3.93567
-3.93658
-3.93691
-3.93671
-3.93605
-3.935
-3.93365
-3.93206
-3.93028
-3.92832
-3.92613
-3.92358
-3.92033
-3.91585
-3.91117
-4.05016
-4.05297
-4.05538
-4.05734
-4.05878
-4.05971
-4.06015
-4.06012
-4.05967
-4.05888
-4.05779
-4.05645
-4.0549
-4.05313
-4.05108
-4.04861
-4.04533
-4.04056
-4.03572
-4.17435
-4.1769
-4.17912
-4.18094
-4.18231
-4.18324
-4.18373
-4.18381
-4.18352
-4.1829
-4.18201
-4.18087
-4.17951
-4.17791
-4.17603
-4.17371
-4.17059
-4.16588
-4.16053
-4.29878
-4.30111
-4.30314
-4.30483
-4.30614
-4.30704
-4.30755
-4.3077
-4.30751
-4.30702
-4.30628
-4.30531
-4.30411
-4.30268
-4.30097
-4.29883
-4.29591
-4.29137
-4.28571
-4.42335
-4.42548
-4.42736
-4.42892
-4.43015
-4.43101
-4.43152
-4.4317
-4.43158
-4.43119
-4.43057
-4.42973
-4.42869
-4.42741
-4.42586
-4.4239
-4.42108
-4.41651
-4.41145
-4.548
-4.54995
-4.55167
-4.55313
-4.55427
-4.55508
-4.55557
-4.55577
-4.55569
-4.55537
-4.55484
-4.55412
-4.55321
-4.55208
-4.5507
-4.5489
-4.5462
-4.54151
-4.53673
-4.67266
-4.67445
-4.67605
-4.6774
-4.67846
-4.67921
-4.67967
-4.67985
-4.67979
-4.67952
-4.67906
-4.67844
-4.67765
-4.67667
-4.67546
-4.67389
-4.67149
-4.66719
-4.66205
-4.79732
-4.79897
-4.80044
-4.80171
-4.8027
-4.80339
-4.80379
-4.80393
-4.80386
-4.80361
-4.80321
-4.80266
-4.80198
-4.80114
-4.8001
-4.79874
-4.79669
-4.79314
-4.78813
-4.92196
-4.92347
-4.92485
-4.92606
-4.927
-4.9276
-4.92791
-4.928
-4.92789
-4.92764
-4.92726
-4.92678
-4.92619
-4.92547
-4.92455
-4.92331
-4.9213
-4.91784
-4.91303
-5.04655
-5.04794
-5.04926
-5.05045
-5.05135
-5.05184
-5.05205
-5.05204
-5.05187
-5.05159
-5.05122
-5.05078
-5.05028
-5.04966
-5.04885
-5.04765
-5.0455
-5.0417
-5.037
-5.17107
-5.17236
-5.17365
-5.17489
-5.17578
-5.17613
-5.17618
-5.17604
-5.17578
-5.17544
-5.17507
-5.17467
-5.17425
-5.17377
-5.17312
-5.17204
-5.16985
-5.16605
-5.16159
-5.29549
-5.29667
-5.29798
-5.29942
-5.30045
-5.30056
-5.30036
-5.30003
-5.29964
-5.29921
-5.2988
-5.29843
-5.29811
-5.29782
-5.29746
-5.29669
-5.2947
-5.29099
-5.28677
-5.41975
-5.42079
-5.42222
-5.42437
-5.426
-5.42553
-5.42484
-5.42419
-5.42357
-5.423
-5.4225
-5.4221
-5.42186
-5.4218
-5.42188
-5.4217
-5.42014
-5.41652
-5.41248
-5.54376
-5.54463
-5.54641
-5.55036
-5.55329
-5.55139
-5.54979
-5.54865
-5.5477
-5.54689
-5.54621
-5.54569
-5.54542
-5.54557
-5.5463
-5.54705
-5.5461
-5.54262
-5.53882
-5.66769
-5.66826
-5.6702
-5.67626
-5.67713
-5.67417
-5.67241
-5.67132
-5.67047
-5.66976
-5.66916
-5.66868
-5.66835
-5.66849
-5.67075
-5.67477
-5.67455
-5.66918
-5.66508
)
;

boundaryField
{
    leftWall
    {
        type            calculated;
        value           nonuniform List<scalar> 
50
(
774.828
716.07
657.339
598.587
539.818
481.069
422.397
363.847
272.589
149.634
49.332
6.49114
2.34791
0.250723
-1.0396
-1.36115
-1.48712
-1.60765
-1.72492
-1.84142
-1.95913
-2.07996
-2.20447
-2.33224
-2.46228
-2.59333
-2.72541
-2.85879
-2.9915
-3.12103
-3.24853
-3.37596
-3.50363
-3.63129
-3.7588
-3.88616
-4.01342
-4.14061
-4.26777
-4.39489
-4.52199
-4.64907
-4.77614
-4.90321
-5.03027
-5.1573
-5.28438
-5.41168
-5.5388
-5.66429
)
;
    }
    rightWall
    {
        type            calculated;
        value           nonuniform List<scalar> 
50
(
601.173
543.815
486.552
429.204
371.616
313.74
255.073
197.815
129.138
80.7742
63.543
47.0956
26.2902
6.37571
-0.595803
-1.12137
-1.26985
-1.42007
-1.56725
-1.71916
-1.87657
-2.03394
-2.18709
-2.34
-2.49412
-2.64292
-2.78326
-2.91253
-3.03598
-3.15878
-3.28314
-3.40975
-3.5361
-3.66166
-3.78661
-3.91117
-4.03572
-4.16053
-4.28571
-4.41145
-4.53673
-4.66205
-4.78813
-4.91303
-5.037
-5.16159
-5.28677
-5.41248
-5.53882
-5.66508
)
;
    }
    lowerWall
    {
        type            calculated;
        value           nonuniform List<scalar> 
62
(
804.257
804.301
804.805
805.158
805.201
805.177
805.346
805.911
807.016
808.749
811.161
814.294
818.195
822.939
828.641
835.504
843.762
853.256
863.574
875.583
887.836
897.436
904.949
875.855
818.187
761.998
707.288
653.435
598.707
541.447
475.802
325.922
320.393
328.758
325.503
697.602
637.178
575.321
513.273
451.643
392.01
325.332
258.425
726.794
737.637
764.2
778.618
774.176
756.565
733.135
709.44
687.791
669.917
658.961
652.357
643.943
635.642
630.819
627.371
625.032
627.193
629.488
)
;
    }
    atmosphere
    {
        type            calculated;
        value           nonuniform List<scalar> 
46
(
-5.73015
-5.73227
-5.73175
-5.73134
-5.73106
-5.73086
-5.7307
-5.73059
-5.7305
-5.73043
-5.73039
-5.73035
-5.73033
-5.73031
-5.73029
-5.73026
-5.73024
-5.7302
-5.73014
-5.73008
-5.73
-5.7299
-5.72978
-5.72969
-5.72963
-5.72956
-5.7295
-5.72939
-5.72925
-5.72914
-5.72906
-5.72904
-5.72904
-5.72904
-5.72904
-5.72904
-5.72904
-5.72904
-5.72905
-5.72904
-5.72904
-5.73341
-5.74423
-5.74556
-5.73471
-5.72972
)
;
    }
    defaultFaces
    {
        type            empty;
    }
}


// ************************************************************************* //
