/*--------------------------------*- C++ -*----------------------------------*\
| =========                 |                                                 |
| \\      /  F ield         | OpenFOAM: The Open Source CFD Toolbox           |
|  \\    /   O peration     | Version:  2.3.0                                 |
|   \\  /    A nd           | Web:      www.OpenFOAM.org                      |
|    \\/     M anipulation  |                                                 |
\*---------------------------------------------------------------------------*/
FoamFile
{
    version     2.0;
    format      ascii;
    class       volVectorField;
    location    "1.7";
    object      U;
}
// * * * * * * * * * * * * * * * * * * * * * * * * * * * * * * * * * * * * * //

dimensions      [0 1 -1 0 0 0 0];

internalField   nonuniform List<vector> 
2268
(
(-0.0185798 0.00523108 0)
(-0.0160865 -0.00286728 0)
(-0.0037065 -0.00565682 0)
(0.00817123 -0.00507243 0)
(0.0192324 -0.00432353 0)
(0.0289131 -0.00377874 0)
(0.03797 -0.00358603 0)
(0.0472132 -0.00368706 0)
(0.0571541 -0.003931 0)
(0.0679058 -0.00416904 0)
(0.0792483 -0.00429498 0)
(0.0907434 -0.00423975 0)
(0.101799 -0.00395036 0)
(0.111674 -0.00336007 0)
(0.119343 -0.00234866 0)
(0.123632 -0.000566989 0)
(0.122125 0.00216877 0)
(0.110275 0.00722783 0)
(0.0839944 0.0130731 0)
(0.0432019 0.0170154 0)
(-0.00417051 0.0166868 0)
(-0.0508202 0.00656913 0)
(-0.0371467 -0.0180374 0)
(-0.00934923 0.0108032 0)
(-0.00171954 -0.00457018 0)
(0.00664056 -0.00849553 0)
(0.0148537 -0.00815292 0)
(0.0229328 -0.00729639 0)
(0.0308559 -0.00675888 0)
(0.0390944 -0.00676457 0)
(0.0481164 -0.00720891 0)
(0.058157 -0.0078379 0)
(0.0691491 -0.00839146 0)
(0.0807762 -0.00867705 0)
(0.0925591 -0.00856615 0)
(0.1039 -0.00795337 0)
(0.114076 -0.00670131 0)
(0.122174 -0.00458357 0)
(0.127006 -0.00114284 0)
(0.127372 0.00421902 0)
(0.121124 0.012837 0)
(0.104969 0.0234758 0)
(0.0763839 0.0317861 0)
(0.0377334 0.0328089 0)
(-0.0059155 0.0169155 0)
(-0.00902098 -0.030091 0)
(0.00179269 0.0101396 0)
(0.00697975 -0.00739551 0)
(0.0127612 -0.011395 0)
(0.0185714 -0.0110863 0)
(0.0248031 -0.0103179 0)
(0.0315905 -0.010014 0)
(0.039232 -0.0104016 0)
(0.0479984 -0.0113223 0)
(0.0579649 -0.0124238 0)
(0.0689589 -0.0133441 0)
(0.0806086 -0.0138129 0)
(0.0924179 -0.0136487 0)
(0.103801 -0.0126993 0)
(0.114076 -0.0107692 0)
(0.122417 -0.00754542 0)
(0.127781 -0.00251012 0)
(0.128978 0.00512697 0)
(0.124904 0.0165971 0)
(0.114229 0.03109 0)
(0.0951347 0.0437922 0)
(0.0665943 0.0478753 0)
(0.0296632 0.0299808 0)
(0.0136009 -0.0254466 0)
(0.008312 0.00605024 0)
(0.0125991 -0.00983061 0)
(0.0167926 -0.0136573 0)
(0.021049 -0.0135375 0)
(0.0260125 -0.0130741 0)
(0.0319493 -0.0131893 0)
(0.039073 -0.0141048 0)
(0.0475484 -0.0156063 0)
(0.0573537 -0.0172455 0)
(0.0682449 -0.0185654 0)
(0.0798111 -0.0192278 0)
(0.0915499 -0.0190085 0)
(0.1029 -0.0177195 0)
(0.113238 -0.0151189 0)
(0.121842 -0.010827 0)
(0.127852 -0.00424896 0)
(0.130294 0.00546511 0)
(0.128536 0.0193365 0)
(0.122181 0.0366792 0)
(0.109896 0.0530749 0)
(0.0887457 0.0610642 0)
(0.0579466 0.0450979 0)
(0.0319703 -0.0108529 0)
(0.0110274 0.000333883 0)
(0.0158511 -0.0121835 0)
(0.0194161 -0.0153986 0)
(0.0228184 -0.0154992 0)
(0.026946 -0.0154775 0)
(0.0322266 -0.0161487 0)
(0.038864 -0.0177035 0)
(0.0469861 -0.0198651 0)
(0.0565211 -0.0220902 0)
(0.0671805 -0.0238342 0)
(0.0785296 -0.0247016 0)
(0.0900713 -0.0244397 0)
(0.101284 -0.0228392 0)
(0.111619 -0.0196304 0)
(0.120478 -0.0143925 0)
(0.127196 -0.00649205 0)
(0.13107 0.00490353 0)
(0.13178 0.020619 0)
(0.129269 0.0400353 0)
(0.122518 0.0594902 0)
(0.107527 0.0718383 0)
(0.0829076 0.0614007 0)
(0.0486809 0.0136803 0)
(0.0116724 -0.00613992 0)
(0.0175401 -0.0146986 0)
(0.0212196 -0.0169177 0)
(0.0243333 -0.0171373 0)
(0.0279841 -0.0175791 0)
(0.03277 -0.0188591 0)
(0.0389344 -0.0211069 0)
(0.0466197 -0.0239711 0)
(0.0557428 -0.0268082 0)
(0.0659969 -0.0289894 0)
(0.0769412 -0.030072 0)
(0.0880995 -0.0297892 0)
(0.0990064 -0.0279283 0)
(0.109206 -0.024211 0)
(0.118239 -0.0182019 0)
(0.125637 -0.00926185 0)
(0.130953 0.00338125 0)
(0.134125 0.0203847 0)
(0.135277 0.0412496 0)
(0.133642 0.063162 0)
(0.124702 0.0799311 0)
(0.10773 0.078286 0)
(0.0666673 0.0486749 0)
(0.0112842 -0.0128508 0)
(0.018488 -0.0175903 0)
(0.0228153 -0.0185069 0)
(0.0260923 -0.0186527 0)
(0.0295779 -0.0194826 0)
(0.0340156 -0.0213405 0)
(0.0397105 -0.024271 0)
(0.0468545 -0.0278353 0)
(0.0553862 -0.0312808 0)
(0.0650076 -0.0338954 0)
(0.0752934 -0.0351965 0)
(0.0858088 -0.0349171 0)
(0.0961646 -0.032859 0)
(0.106017 -0.0287557 0)
(0.115059 -0.0221771 0)
(0.123014 -0.0125037 0)
(0.129663 0.000958975 0)
(0.135164 0.0187217 0)
(0.139852 0.0404218 0)
(0.143296 0.0640776 0)
(0.141055 0.0847784 0)
(0.134223 0.0945714 0)
(0.0882396 0.0968256 0)
(0.0105804 -0.0196976 0)
(0.019389 -0.0211466 0)
(0.0247085 -0.020472 0)
(0.0284831 -0.0202806 0)
(0.0320751 -0.021347 0)
(0.036308 -0.0236629 0)
(0.0415431 -0.0271887 0)
(0.0480439 -0.0313961 0)
(0.0557945 -0.0354071 0)
(0.0645291 -0.0384217 0)
(0.0738649 -0.0399267 0)
(0.0834317 -0.0396756 0)
(0.0929403 -0.0375019 0)
(0.102179 -0.0331612 0)
(0.111002 -0.0262465 0)
(0.119318 -0.016169 0)
(0.127113 -0.00231747 0)
(0.134727 0.0156757 0)
(0.142749 0.0375164 0)
(0.151192 0.0619438 0)
(0.156818 0.0852152 0)
(0.161209 0.104771 0)
(0.134789 0.163015 0)
(-0.0843254 0.0206512 0)
(-0.0877359 -0.0131998 0)
(-0.00341168 -0.0394212 0)
(0.104991 -0.0400711 0)
(0.2023 -0.0315214 0)
(0.273708 -0.0210275 0)
(0.314939 -0.0115486 0)
(0.331318 -0.0050992 0)
(0.331254 0.000163014 0)
(0.313843 0.00964405 0)
(0.2588 0.0259029 0)
(0.151873 0.0322842 0)
(0.0531202 0.0206318 0)
(0.00725957 0.0111488 0)
(-0.0199712 0.00635973 0)
(-0.0388755 0.00564371 0)
(-0.0584154 0.00399843 0)
(-0.0595088 -0.00708203 0)
(-0.0253204 -0.0159836 0)
(-0.0710619 0.049696 0)
(-0.0327493 -0.0239898 0)
(0.0492114 -0.0668985 0)
(0.146774 -0.0694172 0)
(0.22804 -0.0545741 0)
(0.28003 -0.0346059 0)
(0.302943 -0.0160262 0)
(0.305388 -0.00395794 0)
(0.298983 0.00508966 0)
(0.288918 0.021654 0)
(0.261362 0.0511425 0)
(0.177662 0.0662968 0)
(0.0808372 0.0489766 0)
(0.0300664 0.0258687 0)
(0.00328375 0.014844 0)
(-0.0154869 0.0114928 0)
(-0.0308588 0.00804487 0)
(-0.0354259 -0.00842758 0)
(-0.0177638 -0.0268552 0)
(-0.0402437 0.0631 0)
(0.0090566 -0.0465478 0)
(0.094012 -0.102119 0)
(0.18508 -0.101423 0)
(0.252281 -0.0757669 0)
(0.287005 -0.0449207 0)
(0.294051 -0.0175753 0)
(0.284927 -0.00079733 0)
(0.270773 0.0096409 0)
(0.254835 0.0293424 0)
(0.230663 0.0687709 0)
(0.172743 0.0949955 0)
(0.096533 0.0753111 0)
(0.0488885 0.040735 0)
(0.022995 0.0240274 0)
(0.00519691 0.017694 0)
(-0.00748383 0.0120121 0)
(-0.0145256 -0.00848805 0)
(-0.00834339 -0.0351442 0)
(-0.0200951 0.0638866 0)
(0.0528339 -0.0775084 0)
(0.144203 -0.143168 0)
(0.225485 -0.134066 0)
(0.279479 -0.0942431 0)
(0.297901 -0.049774 0)
(0.289646 -0.0144079 0)
(0.268987 0.00551795 0)
(0.246828 0.0166849 0)
(0.225862 0.0389758 0)
(0.203902 0.0842774 0)
(0.168129 0.118486 0)
(0.112841 0.0995824 0)
(0.0681947 0.0554802 0)
(0.0416173 0.0335181 0)
(0.0239438 0.0237431 0)
(0.0132032 0.0158226 0)
(0.00500025 -0.00629316 0)
(0.000935845 -0.0375196 0)
(-9.88172e-07 0.0535905 0)
(0.109793 -0.116069 0)
(0.19777 -0.18084 0)
(0.264353 -0.161652 0)
(0.305717 -0.108169 0)
(0.31098 -0.0492645 0)
(0.288798 -0.0061352 0)
(0.255862 0.0163287 0)
(0.224224 0.027042 0)
(0.198991 0.0486634 0)
(0.183189 0.0945799 0)
(0.164402 0.133569 0)
(0.129152 0.120052 0)
(0.089212 0.0704203 0)
(0.0606449 0.0433844 0)
(0.0425679 0.0297189 0)
(0.0325104 0.0194073 0)
(0.0237615 -0.00211057 0)
(0.0122314 -0.0331465 0)
(0.0458019 0.0272621 0)
(0.180524 -0.159174 0)
(0.252351 -0.211099 0)
(0.298524 -0.180276 0)
(0.324997 -0.116414 0)
(0.324264 -0.0437124 0)
(0.290268 0.0092793 0)
(0.243701 0.032813 0)
(0.204744 0.0409556 0)
(0.179689 0.0572389 0)
(0.168873 0.0999357 0)
(0.161526 0.141372 0)
(0.142344 0.133346 0)
(0.109389 0.0854435 0)
(0.0791163 0.0536244 0)
(0.0613204 0.035594 0)
(0.0516011 0.0231273 0)
(0.0421634 0.00373408 0)
(0.0258 -0.0219264 0)
(0.135994 -0.0545356 0)
(0.257884 -0.20504 0)
(0.302369 -0.232456 0)
(0.326941 -0.191016 0)
(0.337622 -0.11873 0)
(0.329975 -0.0349654 0)
(0.290971 0.0299897 0)
(0.235999 0.0535677 0)
(0.193544 0.0548005 0)
(0.168118 0.0646433 0)
(0.158976 0.102218 0)
(0.159802 0.143926 0)
(0.151273 0.140633 0)
(0.124951 0.0992162 0)
(0.09571 0.0635935 0)
(0.0794815 0.0411011 0)
(0.0704275 0.0270545 0)
(0.0599669 0.0107801 0)
(0.0401619 -0.00471441 0)
(0.263407 -0.165752 0)
(0.327102 -0.242489 0)
(0.340737 -0.242621 0)
(0.348311 -0.194334 0)
(0.345569 -0.116484 0)
(0.329806 -0.0244287 0)
(0.288644 0.0512288 0)
(0.233017 0.0744527 0)
(0.189501 0.06928 0)
(0.162414 0.0723358 0)
(0.153065 0.103339 0)
(0.158053 0.142453 0)
(0.157212 0.145607 0)
(0.136127 0.110519 0)
(0.110482 0.0722317 0)
(0.0964304 0.0457518 0)
(0.0882803 0.0306658 0)
(0.0756883 0.0182778 0)
(0.0525427 0.0165747 0)
(0.0104525 -0.030725 0)
(0.0212281 -0.0281673 0)
(0.0283908 -0.0245061 0)
(0.0333255 -0.0233154 0)
(0.0374358 -0.0244451 0)
(0.0415596 -0.0271653 0)
(0.046125 -0.0313657 0)
(0.051546 -0.0363906 0)
(0.0579032 -0.0411305 0)
(0.0649955 -0.0446445 0)
(0.072507 -0.046394 0)
(0.080213 -0.0462091 0)
(0.0880366 -0.0440101 0)
(0.0959926 -0.0395965 0)
(0.104197 -0.032596 0)
(0.112836 -0.0224744 0)
(0.122151 -0.00871914 0)
(0.132714 0.00879581 0)
(0.145433 0.0296225 0)
(0.161147 0.0531118 0)
(0.180838 0.0767626 0)
(0.209738 0.0987407 0)
(0.267942 0.139485 0)
(0.0133379 -0.0440873 0)
(0.0243482 -0.0393124 0)
(0.0344017 -0.0312975 0)
(0.0415143 -0.0282026 0)
(0.046956 -0.0288945 0)
(0.051367 -0.0314964 0)
(0.0553015 -0.0361664 0)
(0.0595683 -0.0419962 0)
(0.0643928 -0.047442 0)
(0.0695022 -0.0513795 0)
(0.0744794 -0.053296 0)
(0.0794152 -0.0532916 0)
(0.0847654 -0.0514265 0)
(0.0909218 -0.0475999 0)
(0.0983063 -0.0415765 0)
(0.107415 -0.0328979 0)
(0.118644 -0.0211245 0)
(0.132489 -0.00640432 0)
(0.149878 0.0105496 0)
(0.172217 0.0282933 0)
(0.202034 0.0431301 0)
(0.241008 0.0477283 0)
(0.295603 0.0329717 0)
(0.0118872 -0.0562254 0)
(0.0218246 -0.0497408 0)
(0.0367965 -0.0380689 0)
(0.0487896 -0.0328493 0)
(0.0572979 -0.0324453 0)
(0.0624713 -0.0340817 0)
(0.0660355 -0.0386438 0)
(0.0701619 -0.0446556 0)
(0.075092 -0.0504049 0)
(0.0795347 -0.0547739 0)
(0.0815721 -0.0571002 0)
(0.0823847 -0.0575072 0)
(0.0843906 -0.0563034 0)
(0.0884039 -0.0534605 0)
(0.094929 -0.0489068 0)
(0.104542 -0.0421889 0)
(0.117568 -0.0329042 0)
(0.1344 -0.0217132 0)
(0.155921 -0.010236 0)
(0.184032 -0.000903464 0)
(0.220539 0.00316709 0)
(0.265638 -0.00296923 0)
(0.319367 -0.0224254 0)
(-0.00640241 -0.0733794 0)
(0.0104038 -0.0694662 0)
(0.0327424 -0.0549227 0)
(0.0539736 -0.0454924 0)
(0.0689211 -0.0393571 0)
(0.0742116 -0.0326191 0)
(0.0755796 -0.0366974 0)
(0.0830994 -0.0436038 0)
(0.0956316 -0.0492334 0)
(0.106591 -0.0514631 0)
(0.102485 -0.0525526 0)
(0.0918153 -0.0548376 0)
(0.0855335 -0.0552581 0)
(0.0850118 -0.0531563 0)
(0.0891523 -0.051073 0)
(0.0981582 -0.0481383 0)
(0.112075 -0.0427569 0)
(0.13253 -0.0356331 0)
(0.161258 -0.0288191 0)
(0.197354 -0.0247714 0)
(0.239895 -0.0258999 0)
(0.286699 -0.0364537 0)
(0.337229 -0.0568346 0)
(0.00544615 -0.0788692 0)
(0.0501731 -0.0968394 0)
(0.0606466 -0.0839866 0)
(0.0732766 -0.0737935 0)
(0.0924311 -0.0679037 0)
(0.126357 -0.0566307 0)
(0.186963 -0.0700389 0)
(0.249878 -0.0902268 0)
(0.317888 -0.107765 0)
(0.384474 -0.10462 0)
(0.445402 -0.0575425 0)
(0.427267 -0.00509106 0)
(0.300426 -0.0176405 0)
(0.206878 -0.0339385 0)
(0.140111 -0.0549564 0)
(0.118127 -0.0615682 0)
(0.113467 -0.0586532 0)
(0.124623 -0.0531975 0)
(0.153363 -0.0475809 0)
(0.194513 -0.0460668 0)
(0.246098 -0.0473812 0)
(0.301664 -0.0581512 0)
(0.363559 -0.0784711 0)
(0.0647871 -0.115829 0)
(0.141694 -0.129555 0)
(0.140081 -0.0885255 0)
(0.122206 -0.0780015 0)
(0.135111 -0.0908545 0)
(0.170748 -0.111354 0)
(0.217312 -0.132834 0)
(0.262989 -0.151343 0)
(0.304606 -0.164497 0)
(0.334712 -0.140432 0)
(0.350168 -0.0604066 0)
(0.346162 0.0684425 0)
(0.289384 0.0959998 0)
(0.237003 0.048012 0)
(0.206816 -0.0087574 0)
(0.187754 -0.0439531 0)
(0.158098 -0.0588395 0)
(0.0920642 -0.0849723 0)
(0.0617065 -0.131838 0)
(0.0956364 -0.181749 0)
(0.132653 -0.195167 0)
(0.151327 -0.191219 0)
(0.09043 -0.201682 0)
(0.0936181 -0.245021 0)
(0.162884 -0.197296 0)
(0.171263 -0.0603032 0)
(0.163542 -0.0619103 0)
(0.174917 -0.100316 0)
(0.20147 -0.140389 0)
(0.227536 -0.160235 0)
(0.249357 -0.176531 0)
(0.261756 -0.183911 0)
(0.25954 -0.147161 0)
(0.250501 -0.0536307 0)
(0.233879 0.0833616 0)
(0.232468 0.107636 0)
(0.228784 0.0647546 0)
(0.208556 0.0134185 0)
(0.17812 -0.0112306 0)
(0.145902 0.00667529 0)
(0.0995917 0.000345265 0)
(0.0690207 -0.0870351 0)
(0.0711603 -0.157715 0)
(0.0653012 -0.157239 0)
(0.0487991 -0.0951619 0)
(-0.0398002 0.0324229 0)
(0.0191227 -0.389431 0)
(0.0499884 -0.217526 0)
(0.100785 -0.0832008 0)
(0.155987 -0.0867538 0)
(0.195594 -0.129301 0)
(0.216608 -0.171291 0)
(0.224801 -0.180932 0)
(0.228681 -0.183006 0)
(0.214777 -0.188717 0)
(0.159398 -0.148184 0)
(0.134139 -0.0323952 0)
(0.146558 0.0663158 0)
(0.169707 0.0944737 0)
(0.182885 0.0806831 0)
(0.169456 0.0496187 0)
(0.12856 0.0236761 0)
(0.0919599 0.0408385 0)
(0.0729396 0.0283366 0)
(0.0583041 -0.043299 0)
(0.0282638 -0.140713 0)
(-0.00188649 -0.129858 0)
(-0.0599944 -0.0260767 0)
(-0.195045 0.172989 0)
(-0.0198811 -0.37139 0)
(-0.000405609 -0.25066 0)
(0.0366025 -0.163607 0)
(0.0819545 -0.143551 0)
(0.109685 -0.159146 0)
(0.116799 -0.182484 0)
(0.11143 -0.188428 0)
(0.0992399 -0.174419 0)
(0.0767894 -0.144223 0)
(0.0485044 -0.0938693 0)
(0.039494 -0.0277015 0)
(0.0575265 0.047326 0)
(0.0828268 0.0806536 0)
(0.0904001 0.0805321 0)
(0.0758894 0.0720359 0)
(0.0560307 0.0648838 0)
(0.0393226 0.0629883 0)
(0.0325667 0.035664 0)
(0.0166343 -0.0336115 0)
(-0.0150229 -0.0868998 0)
(-0.0658672 -0.0709851 0)
(-0.147305 0.0938004 0)
(-0.239442 0.270752 0)
(-0.0284996 -0.339397 0)
(-0.0300087 -0.258973 0)
(-0.0163555 -0.196358 0)
(0.00540182 -0.170094 0)
(0.018296 -0.167218 0)
(0.0174845 -0.171279 0)
(0.00659352 -0.16755 0)
(-0.00954979 -0.15056 0)
(-0.0286033 -0.120857 0)
(-0.0462486 -0.0821631 0)
(-0.0538367 -0.0319262 0)
(-0.0432067 0.0231994 0)
(-0.0246311 0.058387 0)
(-0.0108225 0.0742795 0)
(-0.00233126 0.0763498 0)
(-0.000205578 0.0722679 0)
(0.00172719 0.0660877 0)
(0.0034219 0.0400064 0)
(-0.00992734 -0.0137141 0)
(-0.0471429 -0.0461296 0)
(-0.104896 0.0047622 0)
(-0.160318 0.152413 0)
(-0.199638 0.302651 0)
(-0.0379477 -0.305994 0)
(-0.0534667 -0.249466 0)
(-0.0593288 -0.204112 0)
(-0.0573649 -0.178888 0)
(-0.0574476 -0.167921 0)
(-0.0643408 -0.161782 0)
(-0.077383 -0.151963 0)
(-0.0936178 -0.133511 0)
(-0.109272 -0.105862 0)
(-0.121162 -0.0719646 0)
(-0.124795 -0.0320834 0)
(-0.115627 0.00907237 0)
(-0.0972449 0.0401863 0)
(-0.0766465 0.0575468 0)
(-0.0582736 0.0633229 0)
(-0.0432397 0.0629923 0)
(-0.0295974 0.0583805 0)
(-0.0198532 0.0430613 0)
(-0.0254914 0.0139927 0)
(-0.063503 0.00305536 0)
(-0.122511 0.0571287 0)
(-0.15572 0.185535 0)
(-0.141334 0.296372 0)
(-0.0445417 -0.258178 0)
(-0.0710284 -0.224633 0)
(-0.0901687 -0.194013 0)
(-0.101985 -0.173423 0)
(-0.11184 -0.160506 0)
(-0.123449 -0.150264 0)
(-0.137244 -0.137322 0)
(-0.151134 -0.119005 0)
(-0.162535 -0.0949993 0)
(-0.169187 -0.0667061 0)
(-0.168557 -0.0351144 0)
(-0.158558 -0.00405679 0)
(-0.140911 0.0203758 0)
(-0.119883 0.0358273 0)
(-0.0989298 0.0433331 0)
(-0.0798359 0.0455367 0)
(-0.0629689 0.0438768 0)
(-0.051445 0.0376785 0)
(-0.0532589 0.0322832 0)
(-0.0739083 0.0469226 0)
(-0.104866 0.098231 0)
(-0.116516 0.188035 0)
(-0.0786522 0.255329 0)
(-0.0471972 -0.203329 0)
(-0.08035 -0.189859 0)
(-0.107721 -0.172535 0)
(-0.128137 -0.158436 0)
(-0.144258 -0.14729 0)
(-0.158749 -0.13677 0)
(-0.172323 -0.124169 0)
(-0.183976 -0.107977 0)
(-0.192164 -0.0880729 0)
(-0.19549 -0.0653521 0)
(-0.192604 -0.041019 0)
(-0.182729 -0.0176719 0)
(-0.167076 0.00143457 0)
(-0.148274 0.0148507 0)
(-0.128849 0.0229626 0)
(-0.110536 0.0272639 0)
(-0.0945657 0.0292219 0)
(-0.0834013 0.0306572 0)
(-0.0807828 0.0372339 0)
(-0.0868939 0.0598728 0)
(-0.0932217 0.105474 0)
(-0.0817187 0.165673 0)
(-0.0364555 0.200662 0)
(-0.046478 -0.146303 0)
(-0.0819791 -0.149969 0)
(-0.113282 -0.144636 0)
(-0.138206 -0.137781 0)
(-0.15774 -0.130541 0)
(-0.173728 -0.122332 0)
(-0.18698 -0.112059 0)
(-0.197187 -0.0990741 0)
(-0.203596 -0.0834494 0)
(-0.205473 -0.0658722 0)
(-0.202225 -0.0473837 0)
(-0.19374 -0.0296755 0)
(-0.180965 -0.014581 0)
(-0.165614 -0.00300669 0)
(-0.149479 0.00522375 0)
(-0.134011 0.0111106 0)
(-0.120424 0.0161526 0)
(-0.110206 0.0226815 0)
(-0.104542 0.0350047 0)
(-0.101707 0.0587458 0)
(-0.0951408 0.0952383 0)
(-0.0744308 0.135129 0)
(-0.0331107 0.152157 0)
(-0.0431926 -0.0912827 0)
(-0.0775455 -0.109053 0)
(-0.109416 -0.114209 0)
(-0.13578 -0.11455 0)
(-0.156608 -0.112169 0)
(-0.173125 -0.107564 0)
(-0.186105 -0.100615 0)
(-0.195614 -0.0912433 0)
(-0.201398 -0.0796904 0)
(-0.203183 -0.0665397 0)
(-0.200816 -0.0526299 0)
(-0.19448 -0.0390918 0)
(-0.18493 -0.0270258 0)
(-0.173336 -0.0170029 0)
(-0.160951 -0.00891166 0)
(-0.148877 -0.00198634 0)
(-0.138025 0.00510978 0)
(-0.129115 0.0143897 0)
(-0.122138 0.0286834 0)
(-0.115128 0.0506071 0)
(-0.103795 0.0793407 0)
(-0.0829691 0.107362 0)
(-0.0518058 0.119418 0)
(-0.0379923 -0.0412312 0)
(-0.0686772 -0.0702416 0)
(-0.0986857 -0.0841033 0)
(-0.124306 -0.0909334 0)
(-0.144928 -0.0934687 0)
(-0.161266 -0.0928441 0)
(-0.173961 -0.0894927 0)
(-0.183232 -0.0836877 0)
(-0.189093 -0.0757966 0)
(-0.19153 -0.066354 0)
(-0.190619 -0.0560415 0)
(-0.186647 -0.045659 0)
(-0.180208 -0.0359232 0)
(-0.172124 -0.0272098 0)
(-0.163264 -0.0194263 0)
(-0.154406 -0.0119814 0)
(-0.146135 -0.00380923 0)
(-0.1387 0.00659378 0)
(-0.131669 0.0209546 0)
(-0.123461 0.0403532 0)
(-0.11152 0.063491 0)
(-0.0935527 0.0853526 0)
(-0.0711257 0.0979153 0)
(-0.031412 0.00158732 0)
(-0.0567392 -0.0358515 0)
(-0.0832362 -0.0563405 0)
(-0.106634 -0.0684613 0)
(-0.126021 -0.0753702 0)
(-0.141647 -0.0785047 0)
(-0.153946 -0.0785687 0)
(-0.163149 -0.0760209 0)
(-0.169374 -0.0713046 0)
(-0.172726 -0.0649299 0)
(-0.173371 -0.0574749 0)
(-0.171601 -0.0495481 0)
(-0.167878 -0.0416627 0)
(-0.162781 -0.0340882 0)
(-0.156907 -0.026759 0)
(-0.150774 -0.0192378 0)
(-0.144712 -0.010738 0)
(-0.138726 -0.000221623 0)
(-0.132305 0.0133241 0)
(-0.124322 0.0302703 0)
(-0.113319 0.049469 0)
(-0.0983209 0.0677559 0)
(-0.0806693 0.0808081 0)
(-0.023723 0.0355632 0)
(-0.0429246 -0.007473 0)
(-0.0648373 -0.0322866 0)
(-0.0850465 -0.0481478 0)
(-0.102516 -0.058527 0)
(-0.117019 -0.0648613 0)
(-0.128743 -0.0679032 0)
(-0.137841 -0.0681691 0)
(-0.144436 -0.0661306 0)
(-0.148659 -0.0622779 0)
(-0.150683 -0.0571225 0)
(-0.150759 -0.051163 0)
(-0.149235 -0.0448039 0)
(-0.146517 -0.0382654 0)
(-0.143005 -0.0315201 0)
(-0.139024 -0.0242682 0)
(-0.134737 -0.0159657 0)
(-0.130037 -0.00593157 0)
(-0.124463 0.00641269 0)
(-0.117237 0.021138 0)
(-0.10751 0.0373682 0)
(-0.0947944 0.0531171 0)
(-0.0798153 0.0658288 0)
(-0.0166704 0.0600821 0)
(-0.029041 0.013718 0)
(-0.0453291 -0.0130681 0)
(-0.0615256 -0.030692 0)
(-0.0765836 -0.0434135 0)
(-0.0896249 -0.0522106 0)
(-0.100551 -0.057664 0)
(-0.109388 -0.0602435 0)
(-0.116204 -0.0604047 0)
(-0.121095 -0.058612 0)
(-0.124196 -0.0553293 0)
(-0.125698 -0.0509887 0)
(-0.125849 -0.0459362 0)
(-0.124924 -0.0403731 0)
(-0.123185 -0.0343154 0)
(-0.120825 -0.0275807 0)
(-0.117903 -0.0198181 0)
(-0.114278 -0.0106014 0)
(-0.109572 0.000389159 0)
(-0.103246 0.0131084 0)
(-0.0947842 0.0269162 0)
(-0.0838707 0.0405283 0)
(-0.0708689 0.0522741 0)
(-0.00985912 0.0763067 0)
(-0.0153646 0.0273906 0)
(-0.0261091 0.000439435 0)
(-0.0378583 -0.0166796 0)
(-0.0500927 -0.0304211 0)
(-0.0613691 -0.0408373 0)
(-0.071261 -0.0480686 0)
(-0.0796291 -0.0524409 0)
(-0.0864474 -0.054351 0)
(-0.091743 -0.0542226 0)
(-0.0955883 -0.0524762 0)
(-0.0981043 -0.0494969 0)
(-0.0994524 -0.0455948 0)
(-0.0998116 -0.0409662 0)
(-0.0993447 -0.0356677 0)
(-0.0981577 -0.029611 0)
(-0.0962557 -0.0225907 0)
(-0.0935002 -0.014356 0)
(-0.0895989 -0.00474089 0)
(-0.0841766 0.00617107 0)
(-0.0769117 0.0179181 0)
(-0.0675821 0.0296392 0)
(-0.0563821 0.0401658 0)
(-2.19108e-05 0.0838035 0)
(0.00031966 0.0347954 0)
(-0.00705369 0.00914118 0)
(-0.0152398 -0.00624156 0)
(-0.0245662 -0.019802 0)
(-0.0338857 -0.0309753 0)
(-0.0425428 -0.0393314 0)
(-0.0502363 -0.0449798 0)
(-0.0568251 -0.0482184 0)
(-0.0622513 -0.0494098 0)
(-0.0665161 -0.0489247 0)
(-0.0696712 -0.0471055 0)
(-0.0718058 -0.0442339 0)
(-0.0730252 -0.0405032 0)
(-0.0734231 -0.036002 0)
(-0.0730519 -0.0307127 0)
(-0.0718914 -0.0245339 0)
(-0.0698241 -0.0173328 0)
(-0.0666354 -0.00903412 0)
(-0.0620691 0.00027385 0)
(-0.0559226 0.0102614 0)
(-0.0480492 0.0203379 0)
(-0.0385777 0.0296692 0)
(0.0131144 0.0756377 0)
(0.0174844 0.0384665 0)
(0.0117217 0.0154898 0)
(0.0056352 0.00141223 0)
(-0.001233 -0.0114652 0)
(-0.00860724 -0.0227186 0)
(-0.0159115 -0.0316144 0)
(-0.0227477 -0.0380654 0)
(-0.0288774 -0.0422531 0)
(-0.0341642 -0.0444625 0)
(-0.0385422 -0.0450049 0)
(-0.0420011 -0.0441775 0)
(-0.0445704 -0.0422325 0)
(-0.0462993 -0.0393567 0)
(-0.0472338 -0.0356586 0)
(-0.0473934 -0.0311689 0)
(-0.04675 -0.0258568 0)
(-0.0452127 -0.0196661 0)
(-0.0426321 -0.0125737 0)
(-0.0388402 -0.00465837 0)
(-0.0337153 0.00384826 0)
(-0.0271711 0.0125415 0)
(-0.0193177 0.0208289 0)
(0.0209169 0.052269 0)
(0.0291742 0.0365364 0)
(0.0267865 0.0198771 0)
(0.0231052 0.00695077 0)
(0.0184725 -0.00518622 0)
(0.0130106 -0.0160848 0)
(0.00718588 -0.0250581 0)
(0.00141653 -0.0319076 0)
(-0.00400078 -0.0367098 0)
(-0.00886697 -0.0396674 0)
(-0.0130589 -0.0410267 0)
(-0.0165125 -0.0410356 0)
(-0.0192075 -0.0399137 0)
(-0.0211491 -0.0378339 0)
(-0.0223488 -0.0349125 0)
(-0.0228056 -0.0312092 0)
(-0.0224909 -0.0267368 0)
(-0.0213395 -0.021486 0)
(-0.0192531 -0.015462 0)
(-0.0161285 -0.0087288 0)
(-0.0119022 -0.00144382 0)
(-0.00653074 0.00612195 0)
(-0.00012433 0.0135579 0)
(0.0176035 0.0257832 0)
(0.0301773 0.0285301 0)
(0.0339553 0.0201863 0)
(0.0343487 0.00964877 0)
(0.0326096 -0.00121479 0)
(0.0294326 -0.0113022 0)
(0.0254162 -0.0199217 0)
(0.0210335 -0.026791 0)
(0.0166427 -0.0318887 0)
(0.0125055 -0.0353315 0)
(0.00880202 -0.0372978 0)
(0.00564694 -0.0379818 0)
(0.00310559 -0.0375652 0)
(0.00121019 -0.0361993 0)
(-2.27539e-05 -0.0339969 0)
(-0.000577421 -0.0310295 0)
(-0.000426189 -0.0273334 0)
(0.000476518 -0.0229245 0)
(0.00219109 -0.017821 0)
(0.00477499 -0.0120701 0)
(0.00825185 -0.00577265 0)
(0.0126352 0.000898453 0)
(0.017813 0.00767137 0)
(0.0113047 0.00649844 0)
(0.0251864 0.0168566 0)
(0.0337473 0.0152036 0)
(0.0384926 0.00834064 0)
(0.0402171 -0.000253325 0)
(0.0397979 -0.00886694 0)
(0.0379789 -0.0166148 0)
(0.0353327 -0.0230802 0)
(0.0322962 -0.028126 0)
(0.0291972 -0.0317722 0)
(0.026273 -0.0341189 0)
(0.0236881 -0.0352987 0)
(0.0215504 -0.035448 0)
(0.019927 -0.0346884 0)
(0.01886 -0.0331178 0)
(0.0183798 -0.0308062 0)
(0.0185156 -0.0277978 0)
(0.0193006 -0.0241183 0)
(0.0207706 -0.0197876 0)
(0.0229534 -0.0148365 0)
(0.0258479 -0.00932271 0)
(0.0294491 -0.00334653 0)
(0.0336481 0.00292414 0)
(0.00747788 -0.00732634 0)
(0.0197574 0.00414912 0)
(0.0301326 0.00653439 0)
(0.0377191 0.0033229 0)
(0.042362 -0.00245932 0)
(0.0445832 -0.00904804 0)
(0.0450333 -0.0154364 0)
(0.0442857 -0.021079 0)
(0.0428083 -0.0257192 0)
(0.0409689 -0.0292732 0)
(0.039047 -0.0317558 0)
(0.0372474 -0.0332312 0)
(0.0357145 -0.0337835 0)
(0.0345466 -0.0334973 0)
(0.0338096 -0.0324465 0)
(0.0335491 -0.0306887 0)
(0.0337994 -0.0282636 0)
(0.0345887 -0.0251954 0)
(0.0359393 -0.0214988 0)
(0.0378619 -0.0171882 0)
(0.0403427 -0.0122878 0)
(0.0433677 -0.006844 0)
(0.0468384 -0.000947891 0)
(0.00571716 -0.0180697 0)
(0.015933 -0.00760169 0)
(0.0261208 -0.00331677 0)
(0.0347312 -0.00384969 0)
(0.0410851 -0.00705919 0)
(0.0452451 -0.0115215 0)
(0.0476021 -0.0163085 0)
(0.048603 -0.0208431 0)
(0.0486628 -0.024794 0)
(0.0481367 -0.0279944 0)
(0.0473126 -0.030381 0)
(0.046414 -0.0319516 0)
(0.0456082 -0.0327363 0)
(0.0450162 -0.0327781 0)
(0.0447234 -0.032121 0)
(0.0447894 -0.0308024 0)
(0.0452557 -0.0288487 0)
(0.0461511 -0.0262749 0)
(0.0474924 -0.0230852 0)
(0.0492832 -0.0192778 0)
(0.0515054 -0.0148509 0)
(0.0541431 -0.00981135 0)
(0.0571152 -0.00419445 0)
(0.00497771 -0.0270593 0)
(0.013532 -0.0178897 0)
(0.0227572 -0.0128396 0)
(0.0312231 -0.0116971 0)
(0.0381754 -0.0129496 0)
(0.0434068 -0.015562 0)
(0.0470624 -0.0187974 0)
(0.049416 -0.0221408 0)
(0.0507753 -0.0252518 0)
(0.0514355 -0.0279207 0)
(0.0516568 -0.0300303 0)
(0.0516552 -0.0315245 0)
(0.0516021 -0.0323851 0)
(0.0516288 -0.0326149 0)
(0.0518323 -0.0322261 0)
(0.0522823 -0.0312315 0)
(0.0530275 -0.0296396 0)
(0.0540997 -0.0274507 0)
(0.0555158 -0.0246557 0)
(0.0572782 -0.0212367 0)
(0.0593707 -0.0171714 0)
(0.0617797 -0.012438 0)
(0.0644459 -0.00703311 0)
(0.00454904 -0.0349784 0)
(0.011883 -0.0268382 0)
(0.0200015 -0.0215059 0)
(0.0278153 -0.0193647 0)
(0.0346744 -0.0192531 0)
(0.0402841 -0.0204254 0)
(0.0446402 -0.0223355 0)
(0.0478741 -0.0245696 0)
(0.0501813 -0.0268237 0)
(0.0517788 -0.0288842 0)
(0.0528772 -0.0306078 0)
(0.053665 -0.0319037 0)
(0.0543011 -0.0327171 0)
(0.0549138 -0.033017 0)
(0.0556028 -0.0327857 0)
(0.0564426 -0.0320116 0)
(0.0574864 -0.0306828 0)
(0.0587694 -0.028783 0)
(0.0603112 -0.0262881 0)
(0.0621164 -0.0231653 0)
(0.0641739 -0.0193753 0)
(0.066475 -0.0148763 0)
(0.0689829 -0.00963879 0)
(0.00411298 -0.0420614 0)
(0.0105015 -0.034631 0)
(0.0175849 -0.029219 0)
(0.0246061 -0.0264823 0)
(0.0310383 -0.025449 0)
(0.036592 -0.0255602 0)
(0.0411966 -0.0264176 0)
(0.0448939 -0.0277063 0)
(0.047793 -0.0291761 0)
(0.0500392 -0.0306329 0)
(0.0517898 -0.0319305 0)
(0.0531968 -0.0329609 0)
(0.0543969 -0.0336461 0)
(0.0555062 -0.0339295 0)
(0.0566194 -0.0337692 0)
(0.0578101 -0.0331313 0)
(0.0591329 -0.0319846 0)
(0.0606254 -0.030296 0)
(0.0623101 -0.0280263 0)
(0.0641955 -0.0251291 0)
(0.0662768 -0.0215513 0)
(0.0685511 -0.0172369 0)
(0.0710028 -0.0121398 0)
(0.00359287 -0.0483265 0)
(0.00917314 -0.0414062 0)
(0.0153267 -0.0360253 0)
(0.0215593 -0.0329327 0)
(0.0274352 -0.0312787 0)
(0.0326982 -0.0306243 0)
(0.0372574 -0.0306753 0)
(0.0411072 -0.0311975 0)
(0.0443004 -0.0319948 0)
(0.0469281 -0.0329025 0)
(0.0491022 -0.0337838 0)
(0.0509393 -0.0345271 0)
(0.0525508 -0.0350419 0)
(0.0540363 -0.035255 0)
(0.0554807 -0.035106 0)
(0.0569528 -0.0345428 0)
(0.0585057 -0.0335173 0)
(0.0601779 -0.0319811 0)
(0.0619942 -0.0298815 0)
(0.0639671 -0.0271596 0)
(0.0660984 -0.0237511 0)
(0.068391 -0.01959 0)
(0.0708471 -0.0146199 0)
(0.00301286 -0.0537399 0)
(0.00784975 -0.0472549 0)
(0.013161 -0.0419935 0)
(0.0186473 -0.0387003 0)
(0.0239302 -0.0366294 0)
(0.0287869 -0.0354251 0)
(0.0331244 -0.034867 0)
(0.036915 -0.0347835 0)
(0.0401785 -0.0350257 0)
(0.0429701 -0.0354592 0)
(0.045367 -0.0359628 0)
(0.0474567 -0.0364284 0)
(0.0493272 -0.0367608 0)
(0.051061 -0.0368769 0)
(0.0527312 -0.0367035 0)
(0.0543998 -0.036175 0)
(0.0561165 -0.0352294 0)
(0.0579193 -0.0338054 0)
(0.0598348 -0.0318385 0)
(0.0618792 -0.0292595 0)
(0.0640603 -0.0259948 0)
(0.0663865 -0.021971 0)
(0.0688742 -0.0171252 0)
(0.00241875 -0.0582843 0)
(0.00655137 -0.0522435 0)
(0.0110869 -0.0471836 0)
(0.0158714 -0.0438031 0)
(0.0205606 -0.0414584 0)
(0.0249572 -0.0398596 0)
(0.0289708 -0.0388426 0)
(0.0325643 -0.0382856 0)
(0.0357398 -0.0380789 0)
(0.0385301 -0.0381162 0)
(0.0409887 -0.0382928 0)
(0.0431804 -0.0385077 0)
(0.0451739 -0.0386654 0)
(0.047036 -0.0386778 0)
(0.0488286 -0.0384636 0)
(0.0506057 -0.0379473 0)
(0.052413 -0.0370567 0)
(0.0542873 -0.0357203 0)
(0.0562564 -0.0338642 0)
(0.0583399 -0.0314103 0)
(0.0605511 -0.0282779 0)
(0.0629034 -0.0243877 0)
(0.0654242 -0.0196721 0)
(0.00184934 -0.0619814 0)
(0.005315 -0.0564277 0)
(0.00912654 -0.0516436 0)
(0.0132483 -0.0482661 0)
(0.0173559 -0.0457533 0)
(0.0212693 -0.0438734 0)
(0.0249003 -0.0425104 0)
(0.0282085 -0.0415844 0)
(0.0311872 -0.0410193 0)
(0.0338564 -0.0407327 0)
(0.0362537 -0.0406355 0)
(0.0384274 -0.0406344 0)
(0.0404307 -0.0406363 0)
(0.0423174 -0.040551 0)
(0.0441386 -0.0402925 0)
(0.0459413 -0.039779 0)
(0.0477667 -0.0389311 0)
(0.0496501 -0.0376698 0)
(0.0516204 -0.0359139 0)
(0.0537002 -0.0335789 0)
(0.0559081 -0.0305781 0)
(0.0582627 -0.0268276 0)
(0.0607993 -0.0222553 0)
(0.00133013 -0.0649052 0)
(0.00416824 -0.0598606 0)
(0.0072991 -0.0554141 0)
(0.0107949 -0.0521157 0)
(0.0143402 -0.0495159 0)
(0.0177645 -0.0474387 0)
(0.0209803 -0.0458145 0)
(0.0239472 -0.0446015 0)
(0.0266559 -0.0437526 0)
(0.0291192 -0.0432061 0)
(0.0313644 -0.0428855 0)
(0.0334281 -0.0427052 0)
(0.0353512 -0.0425751 0)
(0.0371765 -0.042405 0)
(0.0389461 -0.0421068 0)
(0.0407002 -0.0415949 0)
(0.042476 -0.0407856 0)
(0.0443072 -0.039595 0)
(0.0462235 -0.0379369 0)
(0.0482507 -0.0357224 0)
(0.0504126 -0.0328604 0)
(0.052733 -0.0292631 0)
(0.0552541 -0.0248536 0)
(0.000870409 -0.0671399 0)
(0.00311145 -0.0625869 0)
(0.00560629 -0.0585343 0)
(0.00852026 -0.0553822 0)
(0.0115326 -0.052758 0)
(0.0144746 -0.0505446 0)
(0.0172598 -0.048722 0)
(0.0198513 -0.0472858 0)
(0.0222413 -0.0462146 0)
(0.0244398 -0.0454629 0)
(0.0264676 -0.0449648 0)
(0.0283523 -0.0446406 0)
(0.0301252 -0.0444035 0)
(0.03182 -0.0441644 0)
(0.033471 -0.0438348 0)
(0.0351123 -0.0433278 0)
(0.0367773 -0.0425575 0)
(0.0384979 -0.0414376 0)
(0.0403049 -0.0398795 0)
(0.0422267 -0.0377916 0)
(0.0442924 -0.0350803 0)
(0.0465322 -0.0316548 0)
(0.0489944 -0.0274336 0)
(0.000419018 -0.0686595 0)
(0.00210377 -0.0646273 0)
(0.00402458 -0.0610512 0)
(0.00642392 -0.0581102 0)
(0.0089494 -0.0555047 0)
(0.0114283 -0.0531934 0)
(0.0137798 -0.0512159 0)
(0.0159766 -0.0496052 0)
(0.0180165 -0.0483616 0)
(0.0199101 -0.0474517 0)
(0.0216738 -0.0468164 0)
(0.0233285 -0.0463805 0)
(0.0248978 -0.0460601 0)
(0.0264074 -0.0457678 0)
(0.0278848 -0.0454161 0)
(0.0293587 -0.0449186 0)
(0.0308584 -0.0441893 0)
(0.0324143 -0.0431414 0)
(0.0340572 -0.0416864 0)
(0.0358183 -0.0397322 0)
(0.0377314 -0.0371849 0)
(0.0398334 -0.0339524 0)