/*--------------------------------*- C++ -*----------------------------------*\
| =========                 |                                                 |
| \\      /  F ield         | OpenFOAM: The Open Source CFD Toolbox           |
|  \\    /   O peration     | Version:  2.3.0                                 |
|   \\  /    A nd           | Web:      www.OpenFOAM.org                      |
|    \\/     M anipulation  |                                                 |
\*---------------------------------------------------------------------------*/
FoamFile
{
    version     2.0;
    format      ascii;
    class       volVectorField;
    location    "0.082";
    object      U;
}
// * * * * * * * * * * * * * * * * * * * * * * * * * * * * * * * * * * * * * //

dimensions      [0 1 -1 0 0 0 0];

internalField   nonuniform List<vector> 
725
(
(0.0426226 0.00700709 -4.28344e-31)
(0.056339 0.00198356 2.43697e-31)
(0.015699 0.00208036 4.15493e-31)
(0.0570822 0.00617412 0)
(-0.16049 0.0490375 1.6674e-30)
(0.0818566 0.0138963 -1.89295e-30)
(0.117362 0.0104848 1.41341e-30)
(0.0437933 0.0108271 2.85987e-30)
(0.119662 0.0477096 0)
(-0.267753 0.137696 8.8586e-30)
(0.0935421 0.00965345 -1.81008e-31)
(0.137064 0.0167224 8.9536e-31)
(0.0609884 0.01978 6.40372e-30)
(0.17573 0.092593 0)
(-0.132552 0.153877 -4.70567e-29)
(0.0834478 0.00310291 3.12347e-30)
(0.118244 0.0178945 1.59054e-30)
(0.0595917 0.0207779 1.44829e-29)
(0.207543 0.1051 0)
(0.106322 0.0437386 -3.71027e-28)
(0.0436073 0.00132608 2.99476e-30)
(0.0566809 0.0105752 1.13042e-30)
(0.0269759 0.00790761 5.75794e-30)
(0.10346 0.0422121 2.49851e-29)
(0.215588 -0.00332365 -3.10398e-28)
(-0.228266 -0.0582223 0)
(0.383243 -0.0566216 0)
(0.417494 0.0277022 0)
(-0.0675056 0.0452457 0)
(-0.117218 0.0118735 0)
(-0.051324 -0.00881077 0)
(0.0149745 -0.00257106 0)
(0.0247538 0.000104306 0)
(0.032667 0.000288827 0)
(0.0412798 -0.00106078 0)
(0.101012 -0.00984686 0)
(0.138741 -0.019911 0)
(0.0463604 0.0437243 0)
(-0.346393 -0.00764594 0)
(-0.142104 -0.0139936 0)
(-0.0843748 -0.0295938 0)
(-0.129657 -0.00940089 0)
(-0.0055415 -0.0170018 0)
(0.00794992 -0.00137852 0)
(0.00911642 -0.000212582 0)
(0.00952796 -0.000380624 0)
(0.0118281 -0.000131654 0)
(0.0135821 -0.000327593 0)
(0.0147232 -7.29681e-05 0)
(0.0146756 3.87305e-05 0)
(0.01448 1.23357e-05 0)
(0.0145893 -1.84898e-05 0)
(0.0150034 -5.8523e-05 0)
(0.0156197 -7.14188e-05 0)
(0.0163355 -8.0076e-05 0)
(0.0168139 -3.34458e-05 0)
(0.0167726 3.43025e-05 0)
(0.0167756 -3.13931e-05 0)
(0.0170176 -2.22635e-05 0)
(0.0171647 -9.26875e-06 0)
(0.0170356 3.58474e-05 0)
(0.0163827 0.000113177 0)
(0.0158457 0.000111241 0)
(0.0120888 0.000724945 0)
(0.0134038 0.00195182 0)
(-0.0140753 0.00706281 0)
(-0.0264507 0.0217523 0)
(-0.304245 0.0355479 0)
(-0.240605 -0.127109 0)
(-0.150496 -0.0352547 0)
(-0.0916949 -0.202288 0)
(0.970514 -0.206704 0)
(0.528788 0.236358 0)
(-0.349862 0.190289 0)
(-0.200841 -0.0149054 0)
(-0.0745413 -0.0646552 0)
(0.041414 -0.0301447 0)
(0.0696066 -0.0099679 0)
(0.0925536 -0.00959757 0)
(0.120003 -0.0223539 0)
(0.202916 -0.0400321 0)
(0.199842 0.0599951 0)
(-0.170576 0.197298 0)
(-0.257495 0.00948684 0)
(-0.191512 -0.0923145 0)
(-0.0212822 0.0467413 0)
(-0.139945 -0.0300712 0)
(0.0182754 -0.0605711 0)
(0.0405006 -0.0027362 0)
(0.036274 0.00149517 0)
(0.0343567 -0.00185667 0)
(0.036927 -0.00147848 0)
(0.0391723 -0.00132065 0)
(0.0397046 -0.000281372 0)
(0.0391278 0.000210693 0)
(0.038738 -8.40702e-06 0)
(0.0390052 -0.000233351 0)
(0.0398674 -0.000464674 0)
(0.0410853 -0.000566592 0)
(0.0424959 -0.000546884 0)
(0.04343 -0.000222565 0)
(0.0433361 0.000110361 0)
(0.0433594 -0.000167921 0)
(0.0438752 -0.000158186 0)
(0.0442012 -2.47429e-05 0)
(0.0439403 0.000299355 0)
(0.0426549 0.000653414 0)
(0.0416092 0.00100335 0)
(0.0360907 0.00244777 0)
(0.040979 0.00663449 0)
(0.00921906 0.0143602 0)
(0.0807202 0.06012 0)
(-0.0878303 0.109667 0)
(0.10418 -0.259802 0)
(0.683293 0.0666046 0)
(0.351585 -0.697307 0)
(0.7892 -0.631702 0)
(0.462456 0.736706 0)
(-0.488825 0.328237 0)
(-0.102185 -0.0903894 0)
(-0.0254194 -0.121974 0)
(0.0712741 -0.0624591 0)
(0.0961012 -0.0238778 0)
(0.118212 -0.0234348 0)
(0.153871 -0.0476453 0)
(0.229199 -0.0753452 0)
(0.232611 0.155334 0)
(-0.149554 0.387272 0)
(-0.735268 -0.175606 0)
(-0.0536436 -0.208534 0)
(0.171994 0.0151366 0)
(-0.0516389 -0.02028 0)
(0.0369366 -0.0996669 0)
(0.0691438 -0.00926521 0)
(0.0650786 0.00510263 0)
(0.05893 -0.0011097 0)
(0.058388 -0.00233222 0)
(0.0598124 -0.00172756 0)
(0.0599086 -7.87824e-06 0)
(0.0594446 0.00058541 0)
(0.0593217 9.84502e-05 0)
(0.0595939 -0.000483432 0)
(0.0603971 -0.000973663 0)
(0.0615105 -0.00119929 0)
(0.0628478 -0.00115084 0)
(0.0637507 -0.000464275 0)
(0.0634143 0.000251658 0)
(0.063297 -0.000360526 0)
(0.0639565 -0.000364782 0)
(0.0644168 -5.89796e-05 0)
(0.0641576 0.000673682 0)
(0.0626483 0.00139619 0)
(0.0615806 0.00198728 0)
(0.0562239 0.0037934 0)
(0.0631886 0.00776481 0)
(0.0382748 0.00705511 0)
(0.139619 0.0541212 0)
(0.095655 0.075742 0)
(0.300011 -0.194149 0)
(-0.673578 0.238206 0)
(0.795493 -0.530013 0)
(-0.556809 -0.31742 0)
(-0.395246 0.95611 0)
(-0.485595 0.3059 0)
(0.0131345 -0.201797 0)
(0.0602043 -0.161061 0)
(0.100962 -0.0791336 0)
(0.106227 -0.0323134 0)
(0.119588 -0.0360473 0)
(0.150753 -0.0642241 0)
(0.182507 -0.113146 0)
(0.245669 0.209235 0)
(0.278691 0.533004 0)
(1.36911 -0.0224054 0)
(0.351375 -0.136304 0)
(0.0144518 0.0489355 0)
(0.00685689 0.00540058 0)
(0.0400872 -0.120313 0)
(0.0790073 -0.0182395 0)
(0.0798619 0.00718057 0)
(0.075306 0.00106451 0)
(0.0730661 -0.0023826 0)
(0.0728792 -0.00172912 0)
(0.0726799 8.41243e-05 0)
(0.0736305 0.000384059 0)
(0.0750737 -7.53187e-05 0)
(0.0759692 -0.000743519 0)
(0.0765077 -0.00135572 0)
(0.0768834 -0.00164645 0)
(0.0773879 -0.00160491 0)
(0.0777736 -0.000602144 0)
(0.0769728 0.000576364 0)
(0.076557 -0.000567493 0)
(0.077289 -0.000612615 0)
(0.077874 -0.000148283 0)
(0.0777598 0.00104703 0)
(0.0763478 0.00216005 0)
(0.0756129 0.00285079 0)
(0.0709606 0.00482586 0)
(0.0776579 0.00781703 0)
(0.0531551 -0.00127981 0)
(0.122388 0.0287926 0)
(0.0953236 -0.00541495 0)
(0.33666 -0.166979 0)
(0.522274 0.456773 0)
(-0.0622532 -0.134907 0)
(-1.28032 0.0242538 0)
(-0.732627 0.737237 0)
(-0.213605 0.104695 0)
(0.134302 -0.301285 0)
(0.134532 -0.179751 0)
(0.117435 -0.0731382 0)
(0.101146 -0.0311146 0)
(0.107011 -0.0443229 0)
(0.109565 -0.0586033 0)
(0.0991654 -0.107761 0)
(-0.050586 0.121973 0)
(0.27607 -0.493204 0)
(3.21543 0.599618 0)
(0.750616 0.226144 0)
(-0.388986 0.256615 0)
(0.06241 -0.0812236 0)
(0.034982 -0.125852 0)
(0.0792048 -0.0238033 0)
(0.0824111 0.0054025 0)
(0.0846791 0.00271731 0)
(0.0826229 -0.00210973 0)
(0.0818735 -0.00142268 0)
(0.0821204 -0.000277637 0)
(0.0841725 -0.000534461 0)
(0.0866711 -0.000834905 0)
(0.0880732 -0.00109822 0)
(0.0881543 -0.00146186 0)
(0.0872138 -0.00161914 0)
(0.0860599 -0.00163079 0)
(0.0853409 -0.000519342 0)
(0.0839431 0.00124232 0)
(0.0831677 -0.000784574 0)
(0.0838793 -0.000870474 0)
(0.0845429 -0.000327524 0)
(0.0846807 0.00132358 0)
(0.0836617 0.00280437 0)
(0.0836204 0.0034412 0)
(0.0798461 0.00595584 0)
(0.0855345 0.00883367 0)
(0.0540961 0.000203959 0)
(0.0704901 0.0179656 0)
(0.00550558 -0.00121512 0)
(-0.140844 -0.454637 0)
(-0.313474 0.65734 0)
(0.88137 -0.189917 0)
(0.184103 0.111907 0)
(-0.58681 0.634222 0)
(0.17559 -0.0407916 0)
(0.217835 -0.316726 0)
(0.151375 -0.167736 0)
(0.111904 -0.0630169 0)
(0.0912675 -0.0283832 0)
(0.0973179 -0.0449993 0)
(0.0764443 -0.0529451 0)
(0.119933 -0.0705478 0)
(-0.148179 0.0391635 0)
(0.618809 -0.975344 0)
(1.60242 0.585812 0)
(0.361658 0.422347 0)
(0.0857412 0.31828 0)
(0.0885225 -0.176239 0)
(0.00302587 -0.128711 0)
(0.0635318 -0.0307628 0)
(0.0797424 0.00244668 0)
(0.086398 0.00266149 0)
(0.0859151 -0.00204102 0)
(0.0853747 -0.00136013 0)
(0.0859867 -0.000689121 0)
(0.0886364 -0.00127569 0)
(0.0916273 -0.00143154 0)
(0.0930823 -0.00123691 0)
(0.0925621 -0.00114458 0)
(0.0903556 -0.00102117 0)
(0.0875679 -0.00107262 0)
(0.0856076 -0.000121991 0)
(0.083956 0.00168223 0)
(0.0831557 -0.000815466 0)
(0.0837867 -0.00102588 0)
(0.0845447 -0.000471977 0)
(0.084959 0.00137359 0)
(0.0844854 0.00289489 0)
(0.0852132 0.00366237 0)
(0.0823748 0.00602934 0)
(0.0879727 0.0114201 0)
(0.056677 0.00499536 0)
(0.0804582 0.0278832 0)
(-0.0720587 0.0699598 0)
(-0.036349 -0.284348 0)
(-1.06365 0.640068 0)
(-0.66011 -0.232095 0)
(-0.688951 0.0880541 0)
(-0.490071 0.638371 0)
(0.350295 -0.0742328 0)
(0.235 -0.315298 0)
(0.152376 -0.161939 0)
(0.108573 -0.0596309 0)
(0.087281 -0.0275379 0)
(0.0933568 -0.0445392 0)
(0.0647976 -0.0533288 0)
(0.111081 -0.0594233 0)
(-0.302862 0.0234464 0)
(0.199892 -0.813421 0)
(-3.44047 0.640043 0)
(0.176 0.431234 0)
(0.0478737 0.338364 0)
(0.052263 -0.166582 0)
(-0.00815324 -0.130013 0)
(0.0589728 -0.0347438 0)
(0.0785331 0.00117238 0)
(0.086612 0.00236164 0)
(0.0869874 -0.00202836 0)
(0.0863774 -0.00136069 0)
(0.0871661 -0.000862263 0)
(0.0901063 -0.00157087 0)
(0.0933133 -0.00166212 0)
(0.0947687 -0.00127716 0)
(0.0939892 -0.000988167 0)
(0.0912762 -0.000740526 0)
(0.0878462 -0.000804355 0)
(0.0853627 6.58684e-05 0)
(0.0836664 0.00182395 0)
(0.0829009 -0.000812311 0)
(0.0834326 -0.00108994 0)
(0.0841751 -0.000534091 0)
(0.0846421 0.00136931 0)
(0.0843895 0.00287761 0)
(0.0854081 0.00372809 0)
(0.082958 0.0059382 0)
(0.0885388 0.0125145 0)
(0.0582452 0.00582468 0)
(0.0811832 0.0277239 0)
(0.0945764 0.0732608 0)
(0.581418 -0.253382 0)
(0.503473 0.571608 0)
(-0.852036 0.195272 0)
(-2.31539 -0.105088 0)
(-0.822435 0.546782 0)
(0.309756 -0.108443 0)
(0.236684 -0.310718 0)
(0.14887 -0.155418 0)
(0.104371 -0.056287 0)
(0.0831365 -0.0267127 0)
(0.0890202 -0.0436035 0)
(0.05359 -0.0531688 0)
(0.0642859 -0.0467295 0)
(-0.443676 0.0461916 0)
(0.00880623 -0.44161 0)
(-6.34611 0.306766 0)
(0.0813504 0.381293 0)
(-0.105017 0.334622 0)
(-0.000743398 -0.160604 0)
(-0.0161111 -0.134967 0)
(0.0538654 -0.0391414 0)
(0.0774304 -0.000314641 0)
(0.0866271 0.00187857 0)
(0.0877786 -0.0020269 0)
(0.0870932 -0.00137662 0)
(0.0880996 -0.00106393 0)
(0.0913977 -0.00189822 0)
(0.0948487 -0.0019089 0)
(0.0962834 -0.00130439 0)
(0.0952177 -0.000788013 0)
(0.0919698 -0.000393792 0)
(0.08786 -0.000469317 0)
(0.0847761 0.000291523 0)
(0.0831389 0.00195159 0)
(0.0826198 -0.000808791 0)
(0.0830769 -0.0011502 0)
(0.083646 -0.000586324 0)
(0.0839873 0.00135617 0)
(0.0839365 0.00282666 0)
(0.0852514 0.00376775 0)
(0.0832143 0.00580378 0)
(0.0888345 0.0136153 0)
(0.0602294 0.00668223 0)
(0.0660616 0.0231662 0)
(0.190105 0.0347321 0)
(0.857668 -0.275904 0)
(0.358246 0.727176 0)
(1.08082 0.238565 0)
(-1.11842 0.06083 0)
(-0.935382 0.361124 0)
(0.231868 -0.158212 0)
(0.229922 -0.303635 0)
(0.141737 -0.148702 0)
(0.0995836 -0.0529941 0)
(0.079009 -0.0258653 0)
(0.0846829 -0.0423934 0)
(0.0435495 -0.0509603 0)
(0.0242111 -0.027909 0)
(-0.395301 0.0562754 0)
(0.22949 -0.146937 0)
(-3.59884 0.120893 0)
(0.164391 0.2519 0)
(0.335903 0.336932 0)
(0.0511065 -0.148585 0)
(-0.00446948 -0.137758 0)
(0.0481897 -0.0437436 0)
(0.0765188 -0.00198175 0)
(0.0863211 0.00127404 0)
(0.0881078 -0.00203827 0)
(0.0874959 -0.00140215 0)
(0.0887056 -0.0012931 0)
(0.0921746 -0.002247 0)
(0.0953915 -0.00214165 0)
(0.0964029 -0.00130755 0)
(0.0951427 -0.000560114 0)
(0.091864 -1.02347e-05 0)
(0.0877018 -9.54586e-05 0)
(0.0846806 0.000513661 0)
(0.0837498 0.00202906 0)
(0.0836578 -0.000808157 0)
(0.0838154 -0.00119212 0)
(0.0841368 -0.000619839 0)
(0.0843559 0.00134523 0)
(0.0842164 0.00277272 0)
(0.0852869 0.0037907 0)
(0.0833456 0.00564454 0)
(0.0890002 0.0146087 0)
(0.0627984 0.00817067 0)
(0.0521083 0.0193761 0)
(0.212412 -0.0401334 0)
(1.19528 -0.25447 0)
(0.199014 0.716448 0)
(0.827716 0.0905743 0)
(0.693469 0.205775 0)
(-0.172328 0.294787 0)
(0.352416 -0.193718 0)
(0.224149 -0.293352 0)
(0.133018 -0.141821 0)
(0.0941794 -0.0498505 0)
(0.0747798 -0.0250309 0)
(0.0802527 -0.0411391 0)
(0.0344121 -0.0479126 0)
(0.0260752 -0.00672679 0)
(-0.349635 0.05282 0)
(0.241184 -0.10743 0)
(-0.685995 0.0488036 0)
(0.255259 0.0998071 0)
(0.509824 0.321963 0)
(0.0934782 -0.119934 0)
(0.017572 -0.133573 0)
(0.0502952 -0.0478097 0)
(0.076432 -0.00366044 0)
(0.0862924 0.000638976 0)
(0.0879796 -0.00207017 0)
(0.0875542 -0.00143544 0)
(0.088655 -0.00151864 0)
(0.0916248 -0.00256819 0)
(0.0942127 -0.00232652 0)
(0.0948808 -0.00128934 0)
(0.0937063 -0.000344548 0)
(0.0909225 0.000339868 0)
(0.0874174 0.000247771 0)
(0.0847964 0.000698201 0)
(0.0842433 0.00204711 0)
(0.0843259 -0.000799316 0)
(0.0842384 -0.00120898 0)
(0.0843379 -0.000638027 0)
(0.0845271 0.00133315 0)
(0.0846006 0.00272729 0)
(0.0857309 0.00381632 0)
(0.0839139 0.00550838 0)
(0.0893939 0.0154502 0)
(0.0662633 0.0101529 0)
(0.0515043 0.0168915 0)
(0.133811 -0.119309 0)
(0.886284 -0.209048 0)
(0.411923 0.689846 0)
(0.0465743 -0.00194693 0)
(0.0492252 -0.0080147 1.42608e-31)
(0.0424589 -0.00791281 -7.49259e-31)
(0.00712284 -0.00908795 4.34339e-30)
(0.181539 -0.0214863 0)
(0.0900749 -0.00365595 0)
(0.104631 -0.0127594 0)
(0.0882579 -0.0118747 0)
(0.0728593 -0.0325028 5.48286e-30)
(0.137728 -0.0293858 0)
(0.10174 -0.0100256 0)
(0.122774 -0.0121129 0)
(0.101126 -0.00997392 0)
(0.0861727 -0.0210914 3.22036e-30)
(-0.0236321 -0.028757 0)
(0.0892578 -0.0140321 0)
(0.105795 -0.00820233 0)
(0.086397 -0.00489354 0)
(0.0827215 -0.0062402 -1.31429e-31)
(0.0602043 -0.00751544 0)
(0.0463391 -0.00680203 0)
(0.0506279 -0.0020574 0)
(0.0371948 -0.000692593 0)
(0.0371147 -0.0028216 -1.48979e-31)
(0.0132637 -0.00115831 0)
(-0.0771851 -0.0201404 0)
(0.338704 0.264416 0)
(0.416019 0.401195 0)
(0.459245 -0.176379 0)
(0.212437 -0.25675 0)
(0.109636 -0.121358 0)
(0.0785971 -0.041291 0)
(0.0625632 -0.0226532 0)
(0.0672435 -0.0387892 0)
(0.0122205 -0.0434411 0)
(0.101751 0.0360985 0)
(-0.10117 0.0775818 0)
(0.320448 -0.0642038 0)
(0.362071 -0.0395176 0)
(0.28967 -0.00106073 0)
(0.0338219 0.280079 0)
(0.0876064 -0.0929715 0)
(0.0638279 -0.118182 0)
(0.0667688 -0.0526792 0)
(0.0766993 -0.0076184 0)
(0.0855538 -0.00101205 0)
(0.0868902 -0.00221442 0)
(0.0870034 -0.00152059 0)
(0.0876231 -0.00204031 0)
(0.0891422 -0.00330607 0)
(0.090231 -0.00271338 0)
(0.0901204 -0.00121524 0)
(0.0891506 0.000155577 0)
(0.0876465 0.00110523 0)
(0.0858456 0.00100673 0)
(0.0844002 0.00113018 0)
(0.0846992 0.0019675 0)
(0.0850816 -0.000733964 0)
(0.0844707 -0.00120702 0)
(0.0840002 -0.000650178 0)
(0.0840731 0.00124123 0)
(0.0846672 0.00254236 0)
(0.0861998 0.00379257 0)
(0.0850839 0.00534512 0)
(0.0907694 0.0170441 0)
(0.078662 0.015592 0)
(0.0701308 0.00980823 0)
(0.120924 -0.232404 0)
(0.463662 -0.438361 0)
(1.88669 0.673198 0)
(0.157015 0.0875873 0)
(-0.107398 0.0209779 0)
(0.271737 0.27153 0)
(0.399357 -0.142653 0)
(0.198235 -0.195692 0)
(0.0822067 -0.0905601 0)
(0.0570116 -0.0302389 0)
(0.0429695 -0.0180801 0)
(0.0425535 -0.032882 0)
(-0.0198505 -0.0476352 0)
(0.104695 -0.00369936 0)
(0.128954 -0.150255 0)
(1.19047 0.000888143 0)
(1.42882 0.074276 0)
(0.22885 0.365582 0)
(0.103728 0.269256 0)
(0.15949 -0.109043 0)
(0.100392 -0.106038 0)
(0.0771484 -0.0495435 0)
(0.0748344 -0.0108587 0)
(0.0796106 -0.00270357 0)
(0.0804806 -0.00277336 0)
(0.08128 -0.00175194 0)
(0.0815821 -0.00219185 0)
(0.0807791 -0.00327814 0)
(0.0791875 -0.00232323 0)
(0.07783 -0.000820393 0)
(0.0772035 0.00048414 0)
(0.077122 0.0013088 0)
(0.0770796 0.00122486 0)
(0.07711 0.00121539 0)
(0.0781415 0.00139435 0)
(0.0786181 -0.000460797 0)
(0.0778566 -0.000869441 0)
(0.0771962 -0.00039548 0)
(0.0773795 0.00096988 0)
(0.0785088 0.00200283 0)
(0.0807623 0.00313187 0)
(0.0815811 0.00505369 0)
(0.0900158 0.0153434 0)
(0.0966768 0.0223941 0)
(0.0923234 -0.00587587 0)
(0.0983871 -0.264195 0)
(-0.183945 -0.880847 0)
(0.602124 0.762611 0)
(0.0410652 0.0933819 0)
(0.0700155 0.0794587 0)
(0.232881 0.137396 0)
(0.385695 -0.0980178 0)
(0.199362 -0.132751 0)
(0.0703287 -0.0599578 0)
(0.0429589 -0.0200564 0)
(0.0269627 -0.0120511 0)
(0.0186428 -0.0213922 0)
(-0.0434808 -0.043435 0)
(0.0315114 -0.0458238 0)
(0.0123382 -0.498885 0)
(-0.0254098 -0.263105 0)
(-0.182574 0.411366 0)
(-0.0656025 0.525365 0)
(0.17438 0.237581 0)
(0.101639 -0.0896229 0)
(0.106756 -0.100081 0)
(0.0752011 -0.0415823 0)
(0.0686111 -0.00992078 0)
(0.0701636 -0.003376 0)
(0.0690892 -0.00298732 0)
(0.0681802 -0.00173339 0)
(0.0669465 -0.00172476 0)
(0.0646801 -0.00229973 0)
(0.0623443 -0.00144139 0)
(0.0610842 -0.000421707 0)
(0.060928 0.000464754 0)
(0.0616536 0.00101392 0)
(0.0625321 0.000939191 0)
(0.0633724 0.000880292 0)
(0.0646527 0.000844765 0)
(0.0650789 -0.000296468 0)
(0.0643556 -0.000562368 0)
(0.0637303 -0.000260846 0)
(0.0639945 0.000576686 0)
(0.0652824 0.00121054 0)
(0.0677659 0.00191518 0)
(0.0696713 0.00317074 0)
(0.0791257 0.00961853 0)
(0.0958329 0.0186235 0)
(0.114074 -0.0125745 0)
(0.121394 -0.247852 0)
(0.100543 -0.5377 0)
(-1.05207 0.225199 0)
(0.0758889 0.0264047 0)
(0.166395 0.0462755 0)
(0.311899 0.0831823 0)
(0.359199 -0.0570686 0)
(0.176613 -0.0676478 0)
(0.0590846 -0.0275859 0)
(0.0320557 -0.00912531 0)
(0.0165378 -0.00490283 0)
(0.00576737 -0.00834143 0)
(-0.0437509 -0.0281449 0)
(-0.0493632 -0.0799256 0)
(-0.214966 -0.39149 0)
(-0.292015 0.0903094 0)
(-0.903977 0.251987 0)
(-0.192556 0.328711 0)
(0.358926 0.177085 0)
(0.257214 -0.0230142 0)
(0.13617 -0.0800959 0)
(0.0757793 -0.028669 0)
(0.0560357 -0.00680043 0)
(0.0531102 -0.00290419 0)
(0.0494899 -0.00216899 0)
(0.047214 -0.00105577 0)
(0.0456771 -0.000899641 0)
(0.0434007 -0.00111473 0)
(0.0412172 -0.000661896 0)
(0.0401914 -0.000164725 0)
(0.0402591 0.000250035 0)
(0.0411731 0.000502589 0)
(0.042237 0.000443657 0)
(0.0432149 0.000399555 0)
(0.0443335 0.000369003 0)
(0.0446306 -0.00016621 0)
(0.044021 -0.000285694 0)
(0.0434929 -0.000164684 0)
(0.0436815 0.000185084 0)
(0.0446764 0.00041095 0)
(0.0465834 0.000618938 0)
(0.047969 0.000881054 0)
(0.0551936 0.00325417 0)
(0.069051 0.00873761 0)
(0.0834964 -0.0123026 0)
(0.050296 -0.172416 0)
(-0.544364 -0.0612559 0)
(-0.878156 0.122889 0)
(0.0203142 0.0074837 0)
(0.0491711 0.00337653 0)
(0.169172 0.0199017 0)
(0.212158 -0.0184308 0)
(0.0911282 -0.0118908 0)
(0.0296629 -0.00317838 0)
(0.0175505 -0.000849143 0)
(0.010902 -3.67016e-05 0)
(0.00886922 -0.000280303 0)
(-0.0154986 -0.00624378 0)
(-0.079929 -0.0301916 0)
(-0.24027 -0.177835 0)
(-1.15155 -0.060822 0)
(-0.665366 0.0474247 0)
(-0.137833 0.0510553 0)
(0.184447 -0.0140143 0)
(0.242436 -0.0257362 0)
(0.10717 -0.0297622 0)
(0.048107 -0.00736049 0)
(0.0272507 -0.00117905 0)
(0.0239119 -0.000621071 0)
(0.0205844 -0.000368922 0)
(0.0187971 -0.000131514 0)
(0.0178154 -0.000107683 0)
(0.0165707 -0.000156948 0)
(0.0154573 -7.73495e-05 0)
(0.0149887 -1.14694e-05 0)
(0.0150775 4.22129e-05 0)
(0.0155908 8.03683e-05 0)
(0.0161625 5.64625e-05 0)
(0.0166483 4.53489e-05 0)
(0.0171738 6.17765e-05 0)
(0.0172745 -4.19092e-05 0)
(0.0169028 -5.34145e-05 0)
(0.0165445 -4.6502e-05 0)
(0.0164965 -3.69578e-06 0)
(0.016771 -9.07315e-06 0)
(0.0173524 -1.72902e-05 0)
(0.0172146 -0.000232385 0)
(0.0188648 -0.000227818 0)
(0.0232778 0.000195509 0)
(0.033603 -0.00414348 0)
(-0.00563958 -0.0361058 0)
(-0.273457 0.00943543 0)
(-0.123592 0.0120672 0)
)
;

boundaryField
{
    AirInlet
    {
        type            fixedValue;
        value           uniform (0.1 0 0);
    }
    WaterInlet
    {
        type            fixedValue;
        value           uniform (0.1 0 0);
    }
    ChannelWall
    {
        type            fixedValue;
        value           uniform (0 0 0);
    }
    Outlet
    {
        type            pressureInletOutletVelocity;
        value           nonuniform List<vector> 
15
(
(-0.148424 -0 0)
(0.683293 0.0666046 0)
(-0.526526 0 0)
(0.522274 0.456773 0)
(-0.504821 0 0)
(-1.06365 0.640068 0)
(0.503473 0.571608 0)
(-0.218799 0 0)
(0.199014 0.716448 0)
(0.411923 0.689846 0)
(1.88669 0.673198 0)
(0.602124 0.762611 0)
(-0.680703 0 0)
(-0.543097 0 0)
(-0.0767204 0 0)
)
;
    }
    FrontAndBack
    {
        type            empty;
    }
}


// ************************************************************************* //
