/*--------------------------------*- C++ -*----------------------------------*\
| =========                 |                                                 |
| \\      /  F ield         | OpenFOAM: The Open Source CFD Toolbox           |
|  \\    /   O peration     | Version:  2.3.0                                 |
|   \\  /    A nd           | Web:      www.OpenFOAM.org                      |
|    \\/     M anipulation  |                                                 |
\*---------------------------------------------------------------------------*/
FoamFile
{
    version     2.0;
    format      ascii;
    class       volScalarField;
    location    "0.064";
    object      p;
}
// * * * * * * * * * * * * * * * * * * * * * * * * * * * * * * * * * * * * * //

dimensions      [1 -1 -2 0 0 0 0];

internalField   nonuniform List<scalar> 
725
(
950.996
917.437
882.571
914.417
788.271
945.457
918.4
885.318
936.275
819.087
942.869
918.121
885.016
939.855
785.872
943.203
916.105
881.774
916.04
723.071
946.341
913.684
881.263
908.594
770.776
818.299
451.054
-8.60714
169.352
5.55746
102.969
-5.99825
4.55772
-26.1763
-27.0351
-32.9269
-35.9297
-37.6367
-37.9955
-37.4745
-34.9953
-29.268
-18.2192
1.99991
32.6867
69.5878
-25.7584
-59.0522
-58.7952
-59.0712
-56.5123
-110.483
-64.3809
-104.458
-108.364
-115.645
-120.83
-124.611
-127.593
-130.083
-132.766
-134.709
-139.955
-132.708
-151.303
-114.097
-176.992
-71.8504
36.3997
120.495
806.121
347.037
-34.7708
320.516
-59.2703
93.566
0.644694
0.808669
-28.0518
-28.9364
-33.7205
-36.3677
-37.8591
-38.1104
-37.4949
-35.7011
-31.1009
-21.5221
-3.19829
25.9582
76.2941
-28.9104
-59.7086
-58.9509
-59.3458
-57.2311
-62.7987
-52.6046
-99.3155
-108.46
-116.475
-121.686
-125.348
-128.243
-130.692
-133.205
-134.704
-139.26
-135.402
-154.795
-123.526
-193.911
-108.909
-321.827
101.292
1216.27
641.83
217.957
529.209
97.6166
116.347
7.94304
-1.77075
-30.2065
-31.3142
-34.6066
-36.9387
-38.3997
-39.2205
-39.1363
-37.6675
-33.9444
-26.497
-11.5558
11.6135
57.5972
-31.1562
-59.4461
-58.9635
-59.8261
-52.3408
70.8676
-32.1472
-96.6983
-109.524
-117.55
-122.488
-125.869
-128.566
-130.884
-133.349
-134.953
-139.679
-136.176
-156.108
-128.659
-211.5
-168.535
-594.598
37.1277
473.173
782.666
775.21
496.352
223.476
144.445
-4.68113
-15.2665
-33.9439
-34.4658
-35.9698
-37.7055
-38.9934
-39.8972
-40.2349
-39.6594
-37.4801
-32.8089
-22.4509
-9.9433
23.2131
-40.2171
-59.2318
-58.8413
-59.6735
-66.4909
16.7848
-51.4175
-101.608
-111.984
-119.263
-123.57
-126.533
-128.955
-131.091
-133.466
-134.995
-139.688
-137.306
-156.65
-132.978
-215.283
-180.494
-508.03
145.178
813.466
779.857
785.319
718.547
35.8112
-35.1868
-69.8807
-42.0576
-39.4335
-37.3978
-37.3953
-38.1107
-39.5808
-40.6503
-41.4831
-41.8942
-41.3563
-40.1849
-35.4383
-35.8712
-25.4429
-51.6096
-59.1296
-58.524
-58.2536
-56.4533
-460.862
-120.772
-114.326
-117.042
-121.74
-124.906
-127.333
-129.418
-131.317
-133.575
-134.954
-139.376
-136.555
-153.927
-129.801
-204.357
-165.724
-556.187
189.808
759.438
780.445
804.951
766.055
-121.386
-197.985
-150.139
-56.3834
-44.8289
-39.1113
-38.0878
-38.7433
-40.0137
-41.1537
-42.2871
-43.3548
-43.8615
-45.1182
-43.8855
-52.2704
-59.3391
-56.9198
-59.1243
-58.5608
-59.6505
62.0828
454.028
-130.331
-118.295
-115.775
-123.472
-125.752
-127.887
-129.757
-131.437
-133.765
-134.592
-139.724
-134.878
-153.251
-123.046
-189.522
-117.853
-461.684
170.901
754.308
776.732
804.946
757.985
20.388
-87.1294
-178.87
-66.3026
-46.4208
-39.6421
-38.2431
-38.8843
-39.809
-41.3075
-42.5858
-43.9109
-44.7907
-46.9934
-46.8394
-58.144
-71.5744
-58.556
-59.1561
-56.5728
-61.7027
16.7866
623.78
-85.5081
-118.334
-112.019
-122.964
-126.047
-128.087
-129.878
-131.484
-133.805
-134.507
-139.748
-134.418
-152.785
-120.834
-183.363
-99.8674
-389.421
164.207
744.233
776.847
803.016
765.177
175.639
-117.607
-208.806
-69.0903
-47.3628
-40.0446
-38.4586
-39.2027
-40.1771
-41.4901
-42.8694
-44.4589
-45.7232
-48.7833
-49.868
-63.8608
-83.1572
-60.2742
-59.2022
-59.8232
-64.5308
57.7612
2031.09
-34.0036
-119.837
-101.506
-123.427
-126.401
-128.304
-130.014
-131.552
-133.825
-134.459
-139.653
-134.119
-152.082
-118.454
-176.111
-81.19
-349.891
162.519
744.345
775.622
801.83
759.672
346.482
-86.247
-215.216
-73.2185
-47.9521
-40.3266
-38.6813
-39.3688
-40.3289
-41.6829
-43.2097
-44.997
-46.6543
-50.5171
-53.024
-69.4587
-93.922
-62.2548
-59.2345
-59.7891
-63.9999
40.9228
932.375
-64.545
-122.104
-114.064
-125.436
-126.782
-128.543
-130.172
-131.649
-133.85
-134.403
-139.248
-133.459
-151.251
-116.999
-168.352
-59.8898
-334.822
138.811
745.891
774.127
798.786
761.757
300.58
-76.9037
-250.816
-78.0023
-47.7817
-39.883
-38.463
-39.5353
-40.4778
-41.8944
-43.5282
-45.524
-47.5825
-52.2106
-56.1126
-74.953
-104.226
-64.0147
-59.2644
-59.7938
-62.1749
39.1654
310.248
-115.365
-123.11
-114.36
-126.095
-127.202
-128.776
-130.324
-131.758
-133.851
-134.407
-139.287
-133.939
-151.252
-116.112
-160.18
-37.2211
-197.716
28.9148
1531.66
1496.41
1474.7
1479.49
1411.28
1528.38
1498.52
1476.53
1489.17
1449.45
1527.87
1499.57
1477.26
1494.09
1471.5
1530.34
1499.37
1475.82
1481.77
1432.41
1535.91
1498.84
1475.3
1480.7
1434.13
950.478
765.205
780.157
776.248
70.0913
-191.954
-207.022
-75.6281
-47.3392
-42.9192
-40.0465
-39.9411
-40.853
-42.4471
-44.3844
-46.948
-50.1637
-56.6775
-64.6193
-88.9948
-131.234
-68.162
-59.3297
-59.4962
-60.1746
-71.4796
-581.673
-166.614
-135.926
-124.651
-127.622
-128.337
-129.387
-130.708
-132.074
-133.844
-134.882
-138.968
-134.63
-148.079
-113.934
-138.002
20.7179
241.099
94.8469
1429.55
643.589
776.712
775.949
-183.325
-169.053
-145.571
-68.6811
-45.0305
-42.6151
-40.7791
-40.9014
-41.8121
-43.2762
-45.5977
-48.8771
-53.8718
-63.448
-76.3881
-106.915
-155.982
-73.8311
-59.3092
-59.8631
-60.5062
-64.3919
130.752
-101.027
-140.063
-131.041
-130.641
-129.934
-130.147
-131.073
-132.285
-134.088
-135.159
-139.004
-134.183
-146.851
-110.419
-128.484
14.7407
234.47
61.5555
1461.91
1166.9
749.097
670.899
-260.515
10.9019
-45.8242
-50.8153
-41.9998
-42.3318
-40.7194
-40.8443
-41.8408
-43.6831
-46.5957
-50.8464
-57.2309
-69.083
-85.8744
-120.921
-173.178
-73.113
-59.1568
-59.9589
-60.4032
-61.965
-81.3989
-128.49
-149.031
-138.11
-132.937
-130.621
-130.351
-131.277
-132.589
-134.382
-135.369
-139.072
-134.515
-147.994
-115.873
-150.676
-46.8111
-76.4297
26.254
1388.23
984.451
686.972
455.533
-81.1345
141.762
-14.146
-39.3919
-38.5782
-40.8058
-40.0474
-40.8853
-42.3002
-44.5516
-47.7968
-52.3944
-59.8015
-73.231
-92.6826
-131.889
-181.863
-67.7777
-58.8843
-59.946
-60.2447
-61.5267
-228.629
-194.67
-158.83
-142.309
-135.293
-132.589
-131.736
-131.938
-132.93
-134.563
-135.537
-139.243
-135.104
-150.196
-124.579
-189.278
-161.234
-658.045
134.003
1377.9
1043.83
738.301
474.364
-167.893
129.682
-17.4931
-33.1631
-36.882
-40.5851
-40.2503
-40.2178
-41.7674
-44.3263
-47.9362
-53.0555
-61.2243
-75.7939
-96.7851
-137.564
-182.871
-64.8703
-58.3774
-59.9286
-60.2794
-64.3993
-203.898
-219.807
-164.092
-143.796
-135.327
-131.909
-130.855
-131.047
-132.048
-133.758
-134.776
-138.74
-134.965
-151.927
-130.732
-215.113
-227.732
-712.019
155.54
)
;

boundaryField
{
    AirInlet
    {
        type            calculated;
        value           nonuniform List<scalar> 5(759.432 767.552 744.874 744.345 742.942);
    }
    WaterInlet
    {
        type            calculated;
        value           nonuniform List<scalar> 10(950.998 945.463 942.879 943.217 946.359 1531.64 1528.36 1527.86 1530.34 1535.91);
    }
    ChannelWall
    {
        type            calculated;
        value           nonuniform List<scalar> 
110
(
946.315
913.654
881.229
908.556
770.734
1531.68
1496.44
1474.74
1479.53
1411.32
1535.89
1498.81
1475.27
1480.66
1434.09
1377.86
1043.8
738.288
474.359
-167.918
129.638
-17.5372
-33.2072
-36.9262
-40.6292
-40.2944
-40.2619
-41.8115
-44.3704
-47.9804
-53.0996
-61.2684
-75.8381
-96.8292
-137.608
-182.907
-64.8758
-58.3775
-59.9286
-60.2795
-64.3994
-203.923
-219.851
-164.136
-143.841
-135.371
-131.953
-130.899
-131.091
-132.092
-133.803
-134.82
-138.784
-135.009
-151.971
-130.776
-215.157
-227.776
-712.056
155.533
951.023
917.467
882.606
914.455
788.314
818.337
451.08
-8.59214
169.366
5.58621
103.013
-5.95411
4.60185
-26.1322
-26.991
-32.8828
-35.8855
-37.5925
-37.9514
-37.4304
-34.9512
-29.2238
-18.1751
2.04405
32.7308
69.6307
-25.7459
-59.0521
-58.7951
-59.0711
-56.5105
-110.455
-64.3367
-104.414
-108.32
-115.601
-120.786
-124.566
-127.549
-130.039
-132.722
-134.665
-139.911
-132.664
-151.259
-114.053
-176.948
-71.8063
36.4419
120.503
)
;
    }
    Outlet
    {
        type            calculated;
        value           nonuniform List<scalar> 
15
(
-0.494735
-0.150076
-0.0342103
-0.0490398
-0.0638879
-0.0725641
-0.0757487
-0.0792008
-0.0826298
-0.123353
-0.777743
-0.617789
-0.396484
-0.114959
-0.134251
)
;
    }
    FrontAndBack
    {
        type            empty;
    }
}


// ************************************************************************* //
