/*--------------------------------*- C++ -*----------------------------------*\
| =========                 |                                                 |
| \\      /  F ield         | OpenFOAM: The Open Source CFD Toolbox           |
|  \\    /   O peration     | Version:  2.3.0                                 |
|   \\  /    A nd           | Web:      www.OpenFOAM.org                      |
|    \\/     M anipulation  |                                                 |
\*---------------------------------------------------------------------------*/
FoamFile
{
    version     2.0;
    format      ascii;
    class       surfaceScalarField;
    location    "0.064";
    object      phi;
}
// * * * * * * * * * * * * * * * * * * * * * * * * * * * * * * * * * * * * * //

dimensions      [0 3 -1 0 0 0 0];

internalField   nonuniform List<scalar> 
1380
(
3.12294e-13
1.87706e-13
3.00136e-13
1.21575e-14
2.93798e-13
6.3386e-15
6.79763e-13
-3.85965e-13
7.21986e-13
-4.22235e-14
5.99313e-13
8.83934e-14
5.93687e-13
1.77833e-14
4.60333e-13
1.39692e-13
-4.58818e-13
5.33187e-13
3.27319e-12
-3.01003e-12
6.8242e-13
-9.40264e-14
6.8879e-13
1.1413e-14
5.72749e-13
2.55733e-13
-4.40733e-13
1.54667e-12
3.79439e-12
-9.61928e-13
5.99543e-13
-1.93569e-13
6.17613e-13
-6.65691e-15
7.68973e-13
1.04373e-13
1.57936e-12
7.36285e-13
5.40551e-13
4.83319e-12
3.06431e-13
2.99774e-13
4.04147e-13
1.14043e-12
1.68098e-12
-1.40571e-12
1.36348e-12
-3.28314e-12
1.87743e-12
-1.26387e-12
-2.01927e-12
1.27008e-12
-2.53395e-12
-5.56348e-14
1.32571e-12
-4.51991e-14
-1.04357e-14
6.9642e-14
-1.14841e-13
4.29797e-14
2.66623e-14
1.13817e-13
-7.08374e-14
1.3728e-13
-2.3463e-14
1.52312e-13
-1.50319e-14
1.52518e-13
-2.06335e-16
1.48245e-13
4.27354e-15
1.52936e-13
-4.69094e-15
1.59946e-13
-7.01025e-15
1.7844e-13
-1.84939e-14
2.28329e-13
-4.98887e-14
3.40231e-13
-1.11902e-13
6.39132e-13
-2.98901e-13
1.05394e-12
-4.14803e-13
1.48282e-12
-4.28885e-13
1.09599e-12
3.86834e-13
4.73469e-13
6.22517e-13
1.71084e-15
4.71754e-13
-1.41961e-12
1.42132e-12
-1.50018e-12
8.05771e-14
-3.30727e-13
-1.16946e-12
4.5271e-14
-3.75998e-13
8.77766e-14
-4.25056e-14
8.94596e-14
-1.68303e-15
1.01042e-13
-1.15821e-14
1.16282e-13
-1.52399e-14
1.26241e-13
-9.9594e-15
1.30027e-13
-3.78536e-15
1.31244e-13
-1.21709e-15
1.29816e-13
1.42773e-15
1.33782e-13
-3.96574e-15
1.23926e-13
9.85572e-15
1.29511e-13
-5.58447e-15
1.19217e-13
1.02934e-14
2.75166e-14
9.17008e-14
-3.71277e-13
3.98794e-13
-1.42428e-12
1.053e-12
-7.59221e-12
6.16794e-12
1.35579e-12
-7.26377e-13
-9.20166e-13
5.33258e-12
-4.18152e-12
-1.69195e-12
5.00525e-12
-5.66734e-12
1.44145e-12
-1.93296e-12
-2.40867e-12
-5.10401e-13
-1.43299e-12
8.91257e-14
-7.14368e-13
1.84351e-13
-6.85633e-14
3.02282e-13
-1.88768e-13
3.63495e-13
-8.4676e-14
3.95253e-13
-4.67897e-14
3.99442e-13
-4.39618e-15
3.95372e-13
8.34375e-15
4.03851e-13
-1.31699e-14
4.28351e-13
-3.15103e-14
4.80911e-13
-7.10539e-14
5.94134e-13
-1.63111e-13
8.18538e-13
-3.36306e-13
1.31851e-12
-7.98878e-13
1.80047e-12
-8.96759e-13
1.34274e-12
2.88418e-14
1.12223e-12
6.07343e-13
8.03779e-13
9.40973e-13
1.29187e-12
-1.63305e-14
-5.67583e-13
3.28076e-12
-1.69751e-12
1.2105e-12
-2.75215e-13
-2.59175e-12
3.05184e-13
-9.56397e-13
3.60304e-13
-9.76258e-14
3.19793e-13
3.88283e-14
3.13475e-13
-5.2641e-15
3.30049e-13
-3.18135e-14
3.44787e-13
-2.4697e-14
3.51825e-13
-1.0824e-14
3.53898e-13
-3.28948e-15
3.50823e-13
4.50202e-15
3.47926e-13
-1.06827e-15
3.44932e-13
1.28499e-14
3.54029e-13
-1.46819e-14
3.70986e-13
-6.66343e-15
3.64514e-13
9.81733e-14
2.86807e-13
4.765e-13
-2.91788e-13
1.63159e-12
-4.63656e-12
1.05127e-11
1.64029e-12
2.12916e-12
-4.01125e-12
5.20086e-12
-7.25322e-12
-2.08009e-12
1.22862e-11
2.04219e-12
-2.68083e-12
1.19699e-12
-1.56347e-12
4.00808e-13
-6.36813e-13
5.43622e-13
-8.57182e-13
5.01038e-13
-2.59792e-14
5.21936e-13
-2.09666e-13
5.67055e-13
-1.29795e-13
5.91747e-13
-7.14815e-14
5.91601e-13
-4.25036e-15
5.86554e-13
1.33913e-14
5.91485e-13
-1.81008e-14
6.16465e-13
-5.64905e-14
6.70626e-13
-1.25215e-13
7.7989e-13
-2.72376e-13
9.87256e-13
-5.43672e-13
1.43912e-12
-1.25074e-12
1.8249e-12
-1.28254e-12
1.11638e-12
7.37357e-13
1.14517e-12
5.78553e-13
1.21065e-12
8.75495e-13
2.50887e-12
-1.31455e-12
2.77592e-12
3.01372e-12
6.73843e-13
3.31258e-12
-9.78615e-14
-1.82005e-12
4.37363e-13
-1.49162e-12
5.81927e-13
-2.4219e-13
5.408e-13
7.99554e-14
5.11836e-13
2.37007e-14
5.17067e-13
-3.70452e-14
5.27537e-13
-3.51671e-14
5.33447e-13
-1.67337e-14
5.3581e-13
-5.65209e-15
5.34192e-13
6.11999e-15
5.34093e-13
-9.69443e-16
5.29959e-13
1.69834e-14
5.49769e-13
-3.44919e-14
5.69216e-13
-2.61103e-14
6.48246e-13
1.91436e-14
9.32089e-13
1.92658e-13
1.65787e-12
9.05813e-13
7.76287e-12
4.4077e-12
5.50295e-13
6.40892e-12
-5.58698e-12
1.6692e-12
-2.5135e-12
-1.13588e-11
2.53142e-11
6.53363e-12
-2.05733e-11
4.59586e-12
3.74296e-13
1.8682e-12
2.09085e-12
1.25541e-12
-2.44394e-13
8.90636e-13
3.38797e-13
7.4592e-13
-6.49494e-14
7.35757e-13
-1.19633e-13
7.36358e-13
-7.20818e-14
7.25584e-13
6.52288e-15
7.16097e-13
2.28787e-14
7.18525e-13
-2.05288e-14
7.37134e-13
-7.50992e-14
7.75822e-13
-1.63903e-13
8.46306e-13
-3.4286e-13
9.64794e-13
-6.6216e-13
1.19073e-12
-1.47667e-12
1.47102e-12
-1.56283e-12
9.27764e-13
1.28061e-12
1.07362e-12
4.32697e-13
1.08439e-12
8.64722e-13
2.45605e-12
-2.68621e-12
1.72422e-12
3.74554e-12
1.45688e-12
3.57992e-12
5.5249e-13
-9.15654e-13
7.36666e-13
-1.6758e-12
7.65473e-13
-2.70996e-13
7.00758e-13
1.4467e-13
6.64894e-13
5.95641e-14
6.61166e-13
-3.33174e-14
6.65785e-13
-3.9786e-14
6.69716e-13
-2.06642e-14
6.72871e-13
-8.80703e-15
6.7297e-13
6.02042e-15
6.79958e-13
-7.95739e-15
6.80315e-13
1.66262e-14
7.01106e-13
-5.52829e-14
7.09017e-13
-3.40214e-14
8.23246e-13
-9.50852e-14
1.1433e-12
-1.27396e-13
2.11474e-12
-6.56241e-14
7.54318e-12
-1.02074e-12
-2.69845e-12
4.40855e-12
-8.31455e-12
-8.50434e-13
2.74548e-12
2.54915e-12
2.19147e-11
4.06308e-12
-2.20872e-11
4.41056e-12
2.68103e-14
2.89249e-12
3.60892e-12
1.99223e-12
6.55865e-13
1.27463e-12
1.0564e-12
9.3141e-13
2.78267e-13
8.46122e-13
-3.43451e-14
8.18477e-13
-4.4437e-14
7.96832e-13
2.81681e-14
7.86507e-13
3.32039e-14
7.87313e-13
-2.13347e-14
7.97203e-13
-8.49898e-14
8.12333e-13
-1.79033e-13
8.33658e-13
-3.64184e-13
8.27811e-13
-6.56312e-13
7.32484e-13
-1.38135e-12
8.60466e-13
-1.69081e-12
6.92273e-13
1.4488e-12
6.02927e-13
5.22043e-13
2.45212e-13
1.22244e-12
3.75424e-13
-2.81642e-12
-1.35878e-12
5.47975e-12
1.98411e-12
2.37028e-13
7.60948e-13
3.07509e-13
7.06641e-13
-1.62149e-12
7.8863e-13
-3.52985e-13
7.76502e-13
1.56798e-13
7.62095e-13
7.39714e-14
7.55598e-13
-2.68204e-14
7.55027e-13
-3.92147e-14
7.57475e-13
-2.31127e-14
7.61583e-13
-1.29149e-14
7.65906e-13
1.69711e-15
7.73854e-13
-1.59056e-14
7.76024e-13
1.44566e-14
7.87575e-13
-6.68337e-14
7.82007e-13
-2.84533e-14
8.66256e-13
-1.79335e-13
1.13073e-12
-3.91874e-13
2.15967e-12
-1.09456e-12
7.20585e-12
-6.06692e-12
-4.59196e-12
-1.47825e-12
-6.63629e-12
-1.16212e-12
2.42935e-12
-2.99241e-13
2.10518e-11
-2.69549e-12
-1.9691e-11
4.09559e-13
-3.07824e-12
2.22419e-13
3.79606e-12
2.72796e-13
6.05488e-13
2.64212e-13
1.06498e-12
2.11805e-13
3.30675e-13
1.91269e-13
-1.38096e-14
1.82777e-13
-3.59453e-14
1.78448e-13
3.24972e-14
1.76708e-13
3.49444e-14
1.76511e-13
-2.11382e-14
1.77527e-13
-8.60053e-14
1.78579e-13
-1.80086e-13
1.75723e-13
-3.61329e-13
1.66026e-13
-6.46615e-13
1.06868e-13
-1.32219e-12
1.08106e-13
-1.69205e-12
1.29431e-13
1.42748e-12
6.79548e-14
5.83519e-13
-1.10694e-13
1.40108e-12
-3.84962e-13
-2.54215e-12
-4.46477e-13
5.54126e-12
-6.07443e-12
5.86498e-12
1.18482e-14
-5.77877e-12
1.86536e-13
-1.79618e-12
1.79458e-13
-3.45906e-13
1.76104e-13
1.60152e-13
1.75883e-13
7.41925e-14
1.73387e-13
-2.43244e-14
1.72697e-13
-3.85247e-14
1.73244e-13
-2.36605e-14
1.73445e-13
-1.31153e-14
1.76883e-13
-1.74112e-15
1.74163e-13
-1.3186e-14
1.82987e-13
5.6326e-15
1.6899e-13
-5.28368e-14
1.84517e-13
-4.39798e-14
1.63881e-13
-1.58699e-13
2.13489e-13
-4.41481e-13
3.15682e-13
-1.19676e-12
1.29133e-12
-7.04256e-12
-5.16909e-12
-1.80782e-12
-4.62847e-12
-1.56569e-12
2.18723e-12
-6.9678e-13
2.01829e-11
-1.2467e-13
-2.02631e-11
-5.92304e-13
-2.6106e-12
-1.23173e-13
3.32693e-12
1.8561e-13
2.96704e-13
2.57429e-13
9.93165e-13
2.12383e-13
3.75721e-13
1.91425e-13
7.14827e-15
1.82418e-13
-2.69386e-14
1.78146e-13
3.67696e-14
1.76856e-13
3.62339e-14
1.76545e-13
-2.08271e-14
1.77151e-13
-8.66112e-14
1.77215e-13
-1.8015e-13
1.71884e-13
-3.55998e-13
1.58414e-13
-6.33144e-13
9.06367e-14
-1.25441e-12
8.28483e-14
-1.68426e-12
1.24419e-13
1.38591e-12
2.25543e-14
6.85384e-13
-1.6954e-13
1.59318e-12
-5.97273e-13
-2.11442e-12
2.3945e-14
4.92005e-12
-2.67193e-13
6.15612e-12
3.47255e-13
-6.39321e-12
1.95844e-13
-1.64477e-12
1.79423e-13
-3.29486e-13
1.76605e-13
1.62971e-13
1.78032e-13
7.27658e-14
1.74938e-13
-2.1231e-14
1.74119e-13
-3.77053e-14
1.7461e-13
-2.41521e-14
1.74789e-13
-1.3294e-14
1.78549e-13
-5.50131e-15
1.75482e-13
-1.01192e-14
1.85001e-13
-3.88635e-15
1.68356e-13
-3.61912e-14
1.85735e-13
-6.13588e-14
1.55215e-13
-1.2818e-13
1.92308e-13
-4.78574e-13
2.49974e-13
-1.25442e-12
9.22286e-13
-7.71487e-12
-6.07348e-12
-1.9678e-12
-2.46067e-12
-1.7874e-12
2.00682e-12
-6.40946e-13
1.90364e-11
-3.42861e-13
-2.05612e-11
-1.24078e-12
-1.71268e-12
-4.30921e-13
2.51707e-12
1.21211e-13
-2.55428e-13
2.50799e-13
8.63577e-13
2.12135e-13
4.14386e-13
1.90785e-13
2.8498e-14
1.81629e-13
-1.7783e-14
1.7757e-13
4.08288e-14
1.76409e-13
3.73946e-14
1.76085e-13
-2.05022e-14
1.76293e-13
-8.68192e-14
1.75291e-13
-1.79148e-13
1.67684e-13
-3.48391e-13
1.50881e-13
-6.16342e-13
7.8085e-14
-1.18162e-12
5.89623e-14
-1.66514e-12
1.24533e-13
1.32034e-12
-2.88371e-14
8.38754e-13
-2.35052e-13
1.79939e-12
-7.29757e-13
-1.61971e-12
5.34345e-13
3.65595e-12
7.49468e-12
-8.04214e-13
8.12467e-13
2.88996e-13
1.7699e-13
-1.00929e-12
1.78652e-13
-3.31148e-13
1.76298e-13
1.65325e-13
1.7895e-13
7.01129e-14
1.76115e-13
-1.8396e-14
1.75223e-13
-3.68128e-14
1.75671e-13
-2.45998e-14
1.75926e-13
-1.35493e-14
1.7988e-13
-9.45553e-15
1.7689e-13
-7.12928e-15
1.86187e-13
-1.31833e-14
1.68845e-13
-1.88488e-14
1.84399e-13
-7.69136e-14
1.49723e-13
-9.35034e-14
1.64801e-13
-4.93652e-13
1.85201e-13
-1.27482e-12
1.12301e-12
-8.65268e-12
-6.44363e-12
-1.39864e-12
-8.62027e-13
-1.74365e-12
2.35183e-12
-2.11742e-12
1.94102e-11
-2.04871e-12
-2.06299e-11
-1.03017e-12
-2.73122e-12
-4.36061e-13
1.92296e-12
1.26608e-13
-8.18097e-13
2.44344e-13
7.4584e-13
2.10323e-13
4.48407e-13
1.89283e-13
4.95382e-14
1.8007e-13
-8.57017e-15
1.76463e-13
4.44357e-14
1.75574e-13
3.82836e-14
1.75216e-13
-2.01436e-14
1.75022e-13
-8.66258e-14
1.72897e-13
-1.77022e-13
1.6324e-13
-3.38735e-13
1.43677e-13
-5.96779e-13
6.88547e-14
-1.10679e-12
3.90766e-14
-1.63536e-12
1.18016e-13
1.2414e-12
-6.49249e-14
1.02169e-12
-2.97834e-13
2.0323e-12
-8.82587e-13
-1.03496e-12
8.58936e-14
2.68747e-12
3.41298e-12
-4.1313e-12
4.1148e-13
3.2905e-12
1.62679e-13
-7.60491e-13
1.70907e-13
-3.39376e-13
1.75421e-13
1.60811e-13
1.79265e-13
6.62692e-14
1.76712e-13
-1.58432e-14
1.75836e-13
-3.59369e-14
1.76214e-13
-2.49774e-14
1.76504e-13
-1.38393e-14
1.80591e-13
-1.35428e-14
1.77714e-13
-4.25241e-15
1.86947e-13
-2.2416e-14
1.6881e-13
-7.12335e-16
1.82915e-13
-9.10181e-14
1.45022e-13
-5.56111e-14
1.39717e-13
-4.88346e-13
9.09009e-14
-1.22601e-12
9.15772e-13
-9.47756e-12
-5.88131e-12
-2.6747e-13
-3.94557e-13
-1.64904e-12
3.7334e-12
-1.96521e-12
1.97264e-11
-3.11912e-12
-1.9476e-11
-8.6058e-13
-4.98976e-12
-1.75738e-13
1.23812e-12
1.73245e-13
-1.16708e-12
2.41896e-13
6.77189e-13
2.0754e-13
4.82763e-13
1.87046e-13
7.00317e-14
1.78014e-13
4.6227e-16
1.74727e-13
4.77218e-14
1.7426e-13
3.87516e-14
1.73922e-13
-1.98056e-14
1.73247e-13
-8.5951e-14
1.69985e-13
-1.7376e-13
1.58659e-13
-3.27409e-13
1.36668e-13
-5.74788e-13
6.21014e-14
-1.03223e-12
2.65611e-14
-1.59982e-12
1.15619e-13
1.15234e-12
-1.00588e-13
1.2379e-12
-3.20726e-13
2.25244e-12
-9.49009e-13
-4.06675e-13
5.96646e-14
1.67879e-12
-6.0941e-12
2.02246e-12
5.54368e-14
-2.85904e-12
1.41267e-13
-8.46322e-13
1.65437e-13
-3.63545e-13
1.74091e-13
1.52157e-13
1.78725e-13
6.16349e-14
1.76994e-13
-1.41126e-14
1.76179e-13
-3.51218e-14
1.76482e-13
-2.52801e-14
1.76816e-13
-1.41737e-14
1.80813e-13
-1.75394e-14
1.78055e-13
-1.49465e-15
1.85783e-13
-3.0144e-14
1.69628e-13
1.54428e-14
1.79429e-13
-1.00819e-13
1.4451e-13
-2.06918e-14
1.14414e-13
-4.58251e-13
-2.21657e-14
-1.08943e-12
-6.77231e-13
-8.82249e-12
-5.57185e-12
3.04466e-13
1.95534e-13
2.82534e-13
2.19317e-14
3.54816e-13
-7.22816e-14
9.08623e-13
-5.53807e-13
-2.56906e-12
3.47768e-12
5.95869e-13
9.96648e-14
5.91926e-13
2.58747e-14
5.74427e-13
-5.47823e-14
4.06729e-13
-3.8611e-13
-2.29705e-12
1.3472e-13
6.83792e-13
-8.41272e-14
7.06187e-13
3.48e-15
6.2469e-13
2.67142e-14
-7.82216e-14
3.16802e-13
-1.64612e-13
-2.21066e-12
6.02426e-13
-1.86554e-13
6.22015e-13
-1.61089e-14
6.28536e-13
2.01938e-14
6.82341e-13
2.62997e-13
3.3457e-13
1.83159e-13
3.13446e-13
2.97337e-13
3.17531e-13
5.80529e-13
9.15099e-13
2.89999e-12
1.83128e-13
-1.44567e-12
8.07906e-12
1.06711e-12
1.72136e-11
-6.76974e-12
-1.16391e-11
-5.04271e-14
-1.17091e-11
2.28191e-12
-1.09421e-12
1.43896e-12
-3.24138e-13
1.0828e-12
1.03335e-12
9.09572e-13
6.55991e-13
8.01909e-13
1.77695e-13
7.65247e-13
3.71238e-14
7.58653e-13
5.4316e-14
7.62035e-13
3.53693e-14
7.60415e-13
-1.8185e-14
7.50676e-13
-7.62124e-14
7.19998e-13
-1.43082e-13
6.58001e-13
-2.65412e-13
5.22069e-13
-4.38856e-13
2.2531e-13
-7.35468e-13
-3.49418e-14
-1.33957e-12
4.18622e-13
6.98778e-13
-8.23886e-13
2.48041e-12
-1.1068e-12
2.53535e-12
-2.95083e-12
1.43735e-12
-2.52395e-12
1.25191e-12
-7.83852e-13
2.82366e-13
6.76852e-13
-4.31974e-12
6.13826e-13
-7.83295e-13
6.7883e-13
-4.28549e-13
7.67075e-13
6.39115e-14
7.89061e-13
3.96487e-14
7.94165e-13
-1.92163e-14
7.91858e-13
-3.28149e-14
7.91244e-13
-2.4666e-14
7.96405e-13
-1.93346e-14
8.02724e-13
-2.38587e-14
8.05854e-13
-4.62438e-15
7.9632e-13
-2.06096e-14
7.92121e-13
1.9641e-14
7.39755e-13
-4.84522e-14
6.75642e-13
4.34213e-14
2.99125e-13
-8.17346e-14
-8.405e-13
5.01976e-14
-7.61015e-12
-2.05284e-12
-1.95255e-12
1.5034e-12
-1.18555e-12
4.66695e-12
4.91551e-12
9.90021e-12
1.19803e-11
1.38713e-11
-1.56102e-11
3.41991e-12
-1.25767e-12
9.6512e-13
1.36058e-12
6.51441e-13
-1.04585e-14
6.53865e-13
1.03093e-12
6.99335e-13
6.10522e-13
6.75168e-13
2.01861e-13
6.63294e-13
4.89977e-14
6.65564e-13
5.20466e-14
6.72756e-13
2.81776e-14
6.71169e-13
-1.65981e-14
6.52144e-13
-5.71879e-14
6.10376e-13
-1.01315e-13
5.32835e-13
-1.8787e-13
3.95749e-13
-3.0177e-13
1.6656e-13
-5.06279e-13
-1.75356e-13
-9.97651e-13
7.76857e-14
4.45736e-13
-6.8113e-13
3.23923e-12
-1.97754e-13
2.05197e-12
-1.65287e-13
1.40488e-12
8.89713e-14
9.97657e-13
3.59463e-12
-3.2233e-12
8.71292e-13
-1.5964e-12
7.04369e-13
-6.16372e-13
6.28363e-13
-3.52544e-13
6.89963e-13
2.31118e-15
7.23327e-13
6.28505e-15
7.36e-13
-3.18895e-14
7.36986e-13
-3.38006e-14
7.31482e-13
-1.91621e-14
7.26123e-13
-1.39759e-14
7.20425e-13
-1.81607e-14
7.19704e-13
-3.9038e-15
7.08576e-13
-9.48165e-15
7.10953e-13
1.72639e-14
6.58873e-13
3.62766e-15
5.70931e-13
1.31364e-13
5.31745e-14
4.36022e-13
-1.17289e-12
1.27627e-12
-7.02496e-12
3.79923e-12
1.02927e-12
-2.96994e-12
-4.26262e-13
1.35563e-12
5.89936e-13
1.0428e-11
2.90789e-12
7.09601e-12
-1.22782e-11
3.243e-12
2.59534e-12
6.07765e-13
3.99582e-12
4.46613e-14
5.52645e-13
2.53657e-13
8.21933e-13
4.50296e-13
4.13882e-13
5.01889e-13
1.50268e-13
5.15358e-13
3.55281e-14
5.30429e-13
3.69755e-14
5.40982e-13
1.76245e-14
5.35221e-13
-1.08372e-14
5.12285e-13
-3.42518e-14
4.63591e-13
-5.26203e-14
3.78425e-13
-1.02704e-13
2.4206e-13
-1.65406e-13
3.97941e-14
-3.04013e-13
-2.94297e-13
-6.6356e-13
-7.57452e-14
2.27184e-13
3.64395e-15
3.15984e-12
9.67313e-13
1.08831e-12
1.66856e-12
7.03627e-13
1.52992e-12
1.13631e-12
-8.24044e-13
-8.69338e-13
6.01086e-13
-3.02153e-12
6.38208e-13
-6.53494e-13
5.64663e-13
-2.78998e-13
6.00937e-13
-3.3963e-14
6.19402e-13
-1.21801e-14
6.18595e-13
-3.10828e-14
6.07285e-13
-2.24907e-14
5.97092e-13
-8.96883e-15
5.89906e-13
-6.79008e-15
5.82743e-13
-1.09972e-14
5.79938e-13
-1.09915e-15
5.74973e-13
-4.51661e-15
5.77323e-13
1.49141e-14
5.56214e-13
2.47365e-14
5.26457e-13
1.61121e-13
3.27324e-13
6.35155e-13
-2.70921e-13
1.87451e-12
-6.06523e-12
9.59354e-12
2.97606e-12
-2.72148e-13
2.9044e-14
1.15966e-12
-8.41874e-13
4.71154e-12
-6.43992e-13
2.56936e-13
-7.82358e-12
-1.17053e-12
4.0228e-12
-5.7772e-13
3.40301e-12
-5.17024e-13
4.91949e-13
-3.24602e-14
3.37369e-13
2.19852e-13
1.6157e-13
3.1037e-13
5.97504e-14
3.36189e-13
9.70869e-15
3.56546e-13
1.66189e-14
3.67109e-13
7.06127e-15
3.58971e-13
-2.69921e-15
3.33664e-13
-8.94485e-15
2.92539e-13
-1.14955e-14
2.15044e-13
-2.52085e-14
9.5736e-14
-4.60978e-14
-1.11752e-13
-9.65246e-14
-4.6727e-13
-3.08042e-13
-1.92946e-13
-4.71399e-14
7.03936e-13
2.26295e-12
1.9718e-12
-1.79554e-13
2.5706e-12
1.0482e-13
2.79227e-12
9.14635e-13
6.34998e-13
1.28794e-12
7.83511e-13
-3.17004e-12
6.14947e-13
-4.84931e-13
4.61925e-13
-1.25975e-13
4.46949e-13
-1.89869e-14
4.42897e-13
-8.12821e-15
4.25155e-13
-1.33413e-14
4.11e-13
-8.33505e-15
4.0462e-13
-2.58923e-15
3.99496e-13
-1.66639e-15
3.932e-13
-4.70113e-15
3.90741e-13
1.35979e-15
3.89408e-13
-3.18352e-15
3.92665e-13
1.16571e-14
4.01312e-13
1.60895e-14
4.45205e-13
1.17227e-13
6.81344e-13
3.99016e-13
1.35104e-12
1.20482e-12
3.11138e-12
7.8332e-12
2.46239e-12
9.44143e-13
1.02269e-13
-5.41723e-13
-8.3653e-12
-4.3425e-12
-9.39492e-13
-4.47543e-13
-1.10174e-13
5.13967e-14
1.11147e-13
1.20856e-13
1.37475e-13
1.44536e-13
1.41837e-13
1.32892e-13
1.21396e-13
9.61879e-14
5.00901e-14
-4.64345e-14
-3.54476e-13
-4.01616e-13
1.86134e-12
1.68179e-12
1.78661e-12
2.70125e-12
3.98918e-12
8.19139e-13
3.34208e-13
2.08232e-13
1.89245e-13
1.81117e-13
1.67776e-13
1.59441e-13
1.56852e-13
1.55185e-13
1.50484e-13
1.51844e-13
1.4866e-13
1.60317e-13
1.76407e-13
2.93634e-13
6.9265e-13
1.89747e-12
9.73067e-12
)
;

boundaryField
{
    AirInlet
    {
        type            calculated;
        value           nonuniform List<scalar> 5(-2e-13 -2e-13 -2e-13 -2e-13 -2e-13);
    }
    WaterInlet
    {
        type            calculated;
        value           nonuniform List<scalar> 10(-5e-13 -5e-13 -5e-13 -5e-13 -5e-13 -5e-13 -5e-13 -5e-13 -5e-13 -5e-13);
    }
    ChannelWall
    {
        type            calculated;
        value           uniform 0;
    }
    Outlet
    {
        type            calculated;
        value           nonuniform List<scalar> 
15
(
-8.948e-12
-4.92106e-12
8.85287e-12
1.07919e-11
9.09937e-12
1.86846e-12
1.82668e-12
1.49316e-12
3.53452e-13
-9.86696e-13
-1.12294e-11
-1.00068e-11
-8.01202e-12
3.62505e-12
1.21931e-11
)
;
    }
    FrontAndBack
    {
        type            empty;
        value           nonuniform 0();
    }
}


// ************************************************************************* //
