/*--------------------------------*- C++ -*----------------------------------*\
| =========                 |                                                 |
| \\      /  F ield         | OpenFOAM: The Open Source CFD Toolbox           |
|  \\    /   O peration     | Version:  2.3.0                                 |
|   \\  /    A nd           | Web:      www.OpenFOAM.org                      |
|    \\/     M anipulation  |                                                 |
\*---------------------------------------------------------------------------*/
FoamFile
{
    version     2.0;
    format      ascii;
    class       volScalarField;
    location    "0.06";
    object      T;
}
// * * * * * * * * * * * * * * * * * * * * * * * * * * * * * * * * * * * * * //

dimensions      [0 0 0 1 0 0 0];

internalField   nonuniform List<scalar> 
12225
(
1.00702
1.00235
1.00097
1.00057
1.00029
1.0001
1.00001
0.999957
0.999926
0.999904
0.999882
0.999844
0.999756
0.999539
0.999
0.997667
0.994329
0.985832
0.99388
0.995662
0.997505
0.998595
0.999122
0.9994
0.999575
0.999689
0.999762
0.999808
0.99983
0.999823
0.999757
0.99956
0.99905
0.997784
0.994697
0.987194
1.00047
1.00054
1.00043
1.00038
1.00027
1.00015
1.00007
1.00002
0.999985
0.999958
0.999932
0.999892
0.999807
0.999606
0.99912
0.997961
0.995274
0.989324
1.00033
0.999923
0.999616
0.999668
0.999738
0.999771
0.999797
0.999821
0.99984
0.999852
0.999855
0.999836
0.999771
0.999597
0.999168
0.998163
0.99594
0.991396
1.00018
1
0.999776
0.999808
0.999867
0.999886
0.999893
0.999898
0.999901
0.999901
0.999893
0.99987
0.999806
0.999647
0.999272
0.99843
0.996664
0.993309
1.00003
0.999994
0.999833
0.999822
0.999855
0.999871
0.999877
0.999884
0.999889
0.99989
0.999886
0.999866
0.999812
0.999677
0.999365
0.998691
0.997344
0.994933
1.00001
1.00003
0.999913
0.999874
0.999883
0.999891
0.999895
0.999898
0.999901
0.999902
0.999897
0.99988
0.999833
0.999721
0.99947
0.998951
0.99796
0.99627
1
1.00003
0.999948
0.999903
0.9999
0.999903
0.999904
0.999906
0.999908
0.999908
0.999904
0.999889
0.99985
0.999756
0.999555
0.999151
0.998403
0.997168
1
1.00003
0.99997
0.999929
0.999919
0.999917
0.999916
0.999916
0.999916
0.999916
0.999911
0.999898
0.999865
0.999788
0.999627
0.999311
0.998743
0.997828
0.999998
1.00002
0.999986
0.999952
0.999938
0.999932
0.999929
0.999927
0.999926
0.999925
0.99992
0.999909
0.999882
0.999821
0.999697
0.999462
0.99905
0.998399
0.999998
1.00002
0.999996
0.99997
0.999956
0.999948
0.999943
0.99994
0.999938
0.999936
0.99993
0.999921
0.9999
0.999856
0.999765
0.999597
0.999313
0.998872
0.999998
1.00001
1
0.999983
0.999972
0.999964
0.999958
0.999954
0.99995
0.999947
0.999943
0.999935
0.999919
0.999887
0.999825
0.999713
0.999526
0.999245
0.999998
1.00001
1.00001
0.999993
0.999984
0.999977
0.999972
0.999967
0.999962
0.999959
0.999956
0.999948
0.999937
0.999916
0.999875
0.999805
0.99969
0.999522
0.999998
1.00001
1.00001
1
0.999993
0.999986
0.999982
0.999979
0.999975
0.999971
0.999967
0.999963
0.999955
0.999941
0.999916
0.999875
0.99981
0.999716
0.999998
1.00001
1.00001
1
0.999998
0.999995
0.999991
0.999988
0.999985
0.999982
0.99998
0.999975
0.99997
0.999961
0.999946
0.999925
0.99989
0.999843
0.999999
1.00001
1.00001
1
1
1
0.999997
0.999994
0.999992
0.999989
0.999988
0.999987
0.999982
0.999977
0.999968
0.999956
0.999939
0.999918
0.999998
1.00001
1.00001
1
1
1
1
0.999999
0.999997
0.999996
0.999994
0.999991
0.99999
0.999987
0.999983
0.999976
0.999967
0.999958
0.999999
1
1.00001
1.00001
1.00001
1.00001
1
0.999999
0.999998
0.999998
0.999997
0.999996
0.999993
0.99999
0.999986
0.999982
0.999978
0.999976
0.999999
1.00001
1.00001
1.00001
1.00001
1.00001
1
0.999999
0.999996
0.999995
0.999993
0.999991
0.999989
0.999988
0.999986
0.999982
0.999979
0.999979
0.999998
1.00001
1.00001
1.00001
1
1
1
0.999996
0.999992
0.999989
0.999988
0.999986
0.999984
0.999983
0.999981
0.999978
0.999976
0.999978
0.999997
1.00001
1.00001
1.00001
1
0.999995
0.999992
0.999987
0.999983
0.99998
0.999977
0.999975
0.999973
0.999972
0.999971
0.999969
0.999967
0.999968
0.999997
1.00001
1.00002
1.00001
0.999995
0.999987
0.999982
0.999976
0.999973
0.99997
0.999967
0.999966
0.999966
0.999964
0.999963
0.999962
0.99996
0.999961
0.999996
1.00003
1.00002
0.999994
0.999975
0.999966
0.999959
0.999954
0.999952
0.99995
0.999949
0.999948
0.999948
0.999949
0.999948
0.999948
0.999948
0.999949
0.999994
1.00005
1.00003
0.999984
0.999963
0.999957
0.999953
0.99995
0.999949
0.999948
0.999947
0.999947
0.999948
0.999948
0.999948
0.999948
0.999948
0.999949
0.999986
1.00005
0.999974
0.999913
0.9999
0.9999
0.9999
0.999902
0.999905
0.999908
0.999911
0.999914
0.999918
0.999921
0.999925
0.999927
0.999928
0.999931
1.00011
1.00014
0.999977
0.99993
0.999954
0.99997
0.999971
0.999969
0.999965
0.999962
0.999959
0.999954
0.999952
0.99995
0.999949
0.999948
0.999947
0.999947
1.00029
1.00004
0.999634
0.999556
0.999609
0.999662
0.999706
0.999746
0.999781
0.999809
0.999832
0.99985
0.999865
0.999878
0.999888
0.999897
0.999905
0.999908
1.00089
1.00118
1.00097
1.00079
1.00062
1.00045
1.00031
1.00022
1.00015
1.0001
1.00006
1.00003
1.00001
0.999992
0.999981
0.999974
0.99997
0.999957
0.993498
0.994872
0.996789
0.998012
0.998681
0.999064
0.999313
0.999485
0.999605
0.99969
0.99975
0.999794
0.999827
0.999852
0.999872
0.999888
0.999905
0.999901
1.00657
1.00291
1.00132
1.00082
1.00049
1.00027
1.00014
1.00007
1.00002
0.99999
0.999968
0.999954
0.999944
0.999937
0.999933
0.999931
0.999938
0.999912
0.588738
0.58871
0.58862
0.588494
0.588343
0.588157
0.587941
0.587693
0.587412
0.587101
0.586764
0.586401
0.586012
0.585598
0.585162
0.584704
0.584227
0.583732
0.583222
0.582699
0.582166
0.581624
0.581076
0.580524
0.579972
0.579421
0.578874
0.578334
0.577804
0.577285
0.576781
0.576294
0.575827
0.575382
0.574961
0.574567
0.574202
0.573868
0.573567
0.573301
0.573073
0.572882
0.572732
0.572624
0.572558
0.572536
0.572559
0.572627
0.572742
0.572903
0.573111
0.573367
0.573669
0.574018
0.574414
0.574855
0.575341
0.575872
0.576446
0.577062
0.577719
0.578416
0.579151
0.579922
0.580729
0.58157
0.582442
0.583345
0.584276
0.585234
0.586217
0.587223
0.58825
0.589297
0.590362
0.591443
0.592539
0.593648
0.594768
0.595897
0.597034
0.598177
0.599326
0.600477
0.601631
0.602785
0.603937
0.605088
0.606234
0.607375
0.60851
0.609637
0.610755
0.611863
0.61296
0.614044
0.615115
0.616172
0.617214
0.61824
0.619249
0.620241
0.621215
0.62217
0.623107
0.624023
0.62492
0.625796
0.626652
0.627486
0.628299
0.629089
0.629858
0.630603
0.631326
0.632025
0.6327
0.63335
0.633976
0.634577
0.635152
0.6357
0.636222
0.636717
0.637185
0.637624
0.638035
0.638417
0.63877
0.639092
0.639384
0.639644
0.639873
0.640069
0.640233
0.640364
0.64046
0.640522
0.640548
0.64054
0.640494
0.640412
0.640293
0.640135
0.639939
0.639704
0.639429
0.639113
0.638757
0.63836
0.637921
0.63744
0.636916
0.636348
0.635737
0.635083
0.634383
0.633639
0.632849
0.632016
0.631133
0.630204
0.629237
0.628199
0.627112
0.625979
0.624778
0.623533
0.622244
0.620909
0.619529
0.618104
0.616635
0.615123
0.613572
0.611983
0.610385
0.608724
0.607323
0.604855
0.589871
0.589828
0.58976
0.589657
0.58952
0.58935
0.589146
0.588909
0.588637
0.58833
0.587993
0.587626
0.587232
0.586813
0.586371
0.585907
0.585423
0.584922
0.584406
0.583877
0.583338
0.58279
0.582237
0.581681
0.581123
0.580568
0.580017
0.579473
0.578938
0.578415
0.577907
0.577416
0.576945
0.576496
0.576071
0.575672
0.575303
0.574965
0.574659
0.574389
0.574155
0.57396
0.573804
0.573691
0.573619
0.573592
0.573609
0.573672
0.573781
0.573936
0.574138
0.574387
0.574682
0.575025
0.575413
0.575847
0.576327
0.57685
0.577417
0.578025
0.578675
0.579364
0.580092
0.580856
0.581656
0.582489
0.583354
0.58425
0.585173
0.586124
0.5871
0.588099
0.58912
0.59016
0.591219
0.592293
0.593383
0.594485
0.595599
0.596722
0.597854
0.598992
0.600135
0.601281
0.60243
0.603579
0.604727
0.605873
0.607015
0.608152
0.609282
0.610406
0.61152
0.612624
0.613717
0.614798
0.615866
0.616919
0.617958
0.61898
0.619986
0.620975
0.621946
0.622898
0.623831
0.624745
0.625639
0.626512
0.627365
0.628196
0.629006
0.629794
0.630559
0.631301
0.632021
0.632716
0.633388
0.634035
0.634658
0.635255
0.635826
0.636371
0.636889
0.63738
0.637843
0.638279
0.638685
0.639063
0.639411
0.639728
0.640015
0.640271
0.640495
0.640686
0.640844
0.640969
0.64106
0.641116
0.641137
0.641123
0.641071
0.640983
0.640857
0.640693
0.64049
0.640248
0.639966
0.639644
0.639281
0.638876
0.638429
0.63794
0.637408
0.636832
0.636213
0.635549
0.63484
0.634087
0.633286
0.632442
0.631547
0.630608
0.629628
0.628587
0.627506
0.626387
0.625211
0.623988
0.622718
0.621402
0.62004
0.618631
0.617177
0.61568
0.614144
0.612571
0.610988
0.609357
0.607906
0.60582
0.592168
0.592083
0.591992
0.591877
0.591731
0.591548
0.59133
0.591077
0.59079
0.590471
0.590121
0.589743
0.589339
0.58891
0.588458
0.587985
0.587493
0.586985
0.586462
0.585926
0.585381
0.584828
0.584269
0.583708
0.583146
0.582585
0.58203
0.581481
0.580942
0.580414
0.579901
0.579405
0.578929
0.578474
0.578043
0.577638
0.577262
0.576917
0.576604
0.576326
0.576085
0.575881
0.575717
0.575594
0.575513
0.575476
0.575483
0.575535
0.575633
0.575777
0.575967
0.576204
0.576488
0.576818
0.577194
0.577615
0.578082
0.578593
0.579146
0.579742
0.580379
0.581056
0.581771
0.582523
0.58331
0.584131
0.584984
0.585868
0.58678
0.58772
0.588685
0.589674
0.590684
0.591715
0.592764
0.59383
0.594912
0.596006
0.597113
0.59823
0.599356
0.600489
0.601627
0.60277
0.603915
0.605062
0.606208
0.607353
0.608495
0.609632
0.610764
0.611888
0.613005
0.614112
0.615209
0.616293
0.617366
0.618424
0.619468
0.620496
0.621508
0.622503
0.62348
0.62444
0.62538
0.626301
0.627202
0.628084
0.628944
0.629783
0.630601
0.631397
0.63217
0.632921
0.633648
0.634352
0.635032
0.635687
0.636317
0.636922
0.637501
0.638054
0.63858
0.639078
0.639549
0.639991
0.640404
0.640789
0.641143
0.641467
0.641759
0.64202
0.642249
0.642446
0.642609
0.642738
0.642833
0.642892
0.642916
0.642905
0.642856
0.64277
0.642646
0.642483
0.642281
0.642039
0.641758
0.641435
0.641071
0.640666
0.640217
0.639726
0.639192
0.638614
0.637992
0.637324
0.636612
0.635854
0.635049
0.634199
0.633303
0.632359
0.631372
0.630331
0.629249
0.628127
0.626954
0.625734
0.624466
0.623152
0.62179
0.620383
0.618929
0.617432
0.615895
0.614319
0.612727
0.611088
0.609582
0.607684
0.595576
0.595455
0.595343
0.595215
0.595051
0.59485
0.594612
0.594341
0.594037
0.593702
0.593338
0.592946
0.592528
0.592086
0.591621
0.591137
0.590634
0.590115
0.589582
0.589037
0.588482
0.58792
0.587352
0.586782
0.586212
0.585643
0.585079
0.584522
0.583974
0.583438
0.582916
0.582411
0.581925
0.58146
0.581019
0.580604
0.580217
0.57986
0.579536
0.579245
0.57899
0.578773
0.578595
0.578457
0.578361
0.578308
0.578298
0.578334
0.578414
0.57854
0.578713
0.578931
0.579196
0.579508
0.579865
0.580267
0.580714
0.581205
0.581739
0.582315
0.582933
0.58359
0.584285
0.585018
0.585786
0.586588
0.587423
0.588289
0.589184
0.590107
0.591055
0.592028
0.593023
0.594039
0.595075
0.596128
0.597196
0.59828
0.599376
0.600483
0.6016
0.602725
0.603856
0.604993
0.606133
0.607276
0.60842
0.609563
0.610705
0.611843
0.612976
0.614104
0.615224
0.616336
0.617438
0.61853
0.619609
0.620676
0.621729
0.622766
0.623789
0.624794
0.625783
0.626754
0.627707
0.62864
0.629554
0.630448
0.631322
0.632174
0.633006
0.633816
0.634603
0.635368
0.636109
0.636827
0.637521
0.638191
0.638836
0.639455
0.640048
0.640614
0.641154
0.641666
0.64215
0.642605
0.643031
0.643428
0.643794
0.64413
0.644434
0.644706
0.644946
0.645152
0.645325
0.645464
0.645567
0.645635
0.645667
0.645663
0.645621
0.645541
0.645422
0.645265
0.645068
0.64483
0.644552
0.644232
0.643871
0.643467
0.64302
0.64253
0.641996
0.641417
0.640794
0.640126
0.639411
0.638652
0.637845
0.636993
0.636093
0.635146
0.634155
0.633112
0.632026
0.630897
0.629719
0.628493
0.627221
0.625901
0.624534
0.623121
0.621661
0.620157
0.618611
0.617025
0.615416
0.613758
0.612204
0.610381
0.600091
0.599947
0.599818
0.599675
0.599495
0.599276
0.599021
0.598731
0.598408
0.598055
0.597672
0.597263
0.596828
0.596369
0.595889
0.595389
0.594872
0.594338
0.593792
0.593233
0.592666
0.592091
0.591512
0.59093
0.590347
0.589767
0.589191
0.588623
0.588063
0.587515
0.586981
0.586463
0.585964
0.585486
0.585031
0.584601
0.584199
0.583827
0.583486
0.583178
0.582905
0.58267
0.582473
0.582315
0.582199
0.582125
0.582094
0.582107
0.582165
0.582268
0.582416
0.582611
0.582851
0.583138
0.583469
0.583846
0.584268
0.584733
0.585241
0.585791
0.586383
0.587014
0.587684
0.588391
0.589135
0.589912
0.590723
0.591565
0.592436
0.593336
0.594262
0.595214
0.596188
0.597185
0.598201
0.599236
0.600288
0.601355
0.602436
0.603529
0.604633
0.605747
0.606868
0.607996
0.60913
0.610266
0.611405
0.612545
0.613685
0.614822
0.615957
0.617087
0.618211
0.619328
0.620436
0.621535
0.622623
0.623698
0.624761
0.62581
0.626844
0.627862
0.628864
0.629849
0.630815
0.631763
0.632693
0.633602
0.634492
0.635361
0.636209
0.637035
0.63784
0.638621
0.63938
0.640116
0.640827
0.641514
0.642176
0.642812
0.643422
0.644006
0.644562
0.645091
0.645591
0.646063
0.646505
0.646917
0.647298
0.647649
0.647967
0.648253
0.648506
0.648725
0.64891
0.64906
0.649175
0.649253
0.649295
0.649299
0.649266
0.649193
0.649082
0.648931
0.648739
0.648507
0.648233
0.647917
0.647559
0.647157
0.646712
0.646223
0.645689
0.64511
0.644486
0.643817
0.643101
0.642339
0.641529
0.640673
0.639769
0.638818
0.637821
0.636775
0.635683
0.634546
0.633361
0.632128
0.630848
0.629521
0.628147
0.626726
0.625259
0.623746
0.62219
0.62059
0.618963
0.617284
0.615696
0.61388
0.605746
0.605587
0.605444
0.605285
0.605089
0.604852
0.604578
0.604268
0.603925
0.603552
0.603149
0.60272
0.602265
0.601787
0.601288
0.60077
0.600235
0.599684
0.59912
0.598545
0.597962
0.597371
0.596776
0.596179
0.595582
0.594986
0.594396
0.593811
0.593236
0.592673
0.592123
0.591588
0.591073
0.590577
0.590104
0.589656
0.589235
0.588842
0.588481
0.588152
0.587857
0.587599
0.587378
0.587196
0.587054
0.586954
0.586897
0.586882
0.586912
0.586987
0.587106
0.587271
0.587481
0.587736
0.588037
0.588382
0.588772
0.589206
0.589682
0.5902
0.59076
0.591359
0.591997
0.592673
0.593385
0.594132
0.594912
0.595724
0.596566
0.597437
0.598336
0.59926
0.600208
0.601179
0.602171
0.603182
0.604212
0.605258
0.606319
0.607394
0.608481
0.609579
0.610686
0.611802
0.612924
0.614051
0.615183
0.616316
0.617451
0.618586
0.61972
0.62085
0.621976
0.623096
0.62421
0.625315
0.62641
0.627495
0.628567
0.629627
0.630673
0.631704
0.632719
0.633718
0.6347
0.635663
0.636609
0.637535
0.638442
0.639328
0.640194
0.641039
0.641861
0.642662
0.643439
0.644194
0.644924
0.64563
0.646311
0.646967
0.647596
0.648198
0.648773
0.64932
0.649839
0.650328
0.650788
0.651217
0.651615
0.651982
0.652316
0.652617
0.652885
0.653118
0.653317
0.65348
0.653607
0.653697
0.653749
0.653764
0.653739
0.653676
0.653572
0.653428
0.653243
0.653016
0.652747
0.652435
0.652079
0.65168
0.651236
0.650748
0.650215
0.649635
0.64901
0.648339
0.64762
0.646854
0.646041
0.64518
0.644272
0.643315
0.642312
0.641259
0.640161
0.639016
0.637823
0.636582
0.635295
0.63396
0.632577
0.631148
0.629671
0.628148
0.626581
0.624967
0.623323
0.621622
0.620003
0.618164
0.612573
0.612408
0.612252
0.612078
0.611866
0.611611
0.611317
0.610986
0.610622
0.610227
0.609802
0.60935
0.608874
0.608374
0.607853
0.607314
0.606757
0.606186
0.605602
0.605008
0.604404
0.603795
0.603181
0.602564
0.601948
0.601334
0.600724
0.600121
0.599527
0.598944
0.598374
0.597819
0.597283
0.596766
0.596271
0.5958
0.595356
0.594939
0.594553
0.594198
0.593877
0.593591
0.593342
0.593131
0.592959
0.592828
0.592739
0.592692
0.592689
0.592729
0.592814
0.592944
0.593118
0.593337
0.593601
0.593909
0.594262
0.594657
0.595096
0.595576
0.596097
0.596658
0.597259
0.597897
0.598571
0.599281
0.600024
0.6008
0.601607
0.602443
0.603307
0.604198
0.605114
0.606053
0.607015
0.607997
0.608999
0.610018
0.611054
0.612105
0.613169
0.614246
0.615334
0.616432
0.617539
0.618652
0.619771
0.620895
0.622022
0.62315
0.624279
0.625406
0.626531
0.627653
0.628769
0.629878
0.630978
0.63207
0.633151
0.63422
0.635277
0.636319
0.637346
0.638359
0.639354
0.640333
0.641294
0.642236
0.64316
0.644063
0.644947
0.64581
0.646651
0.64747
0.648267
0.649041
0.649791
0.650517
0.651217
0.651892
0.652541
0.653163
0.653757
0.654324
0.654861
0.65537
0.655848
0.656295
0.65671
0.657094
0.657445
0.657762
0.658045
0.658294
0.658506
0.658683
0.658823
0.658925
0.658989
0.659014
0.659
0.658945
0.65885
0.658713
0.658534
0.658313
0.658049
0.65774
0.657388
0.656992
0.656549
0.656062
0.655528
0.654948
0.65432
0.653646
0.652924
0.652155
0.651337
0.650471
0.649557
0.648594
0.647583
0.646524
0.645418
0.644264
0.643063
0.641814
0.640517
0.639173
0.637782
0.636343
0.634857
0.633323
0.631744
0.630116
0.628455
0.626734
0.625086
0.623209
0.620631
0.620459
0.620291
0.6201
0.619869
0.619594
0.619279
0.618927
0.61854
0.618121
0.617672
0.617196
0.616695
0.61617
0.615625
0.615061
0.61448
0.613885
0.613278
0.612659
0.612033
0.6114
0.610763
0.610124
0.609485
0.608848
0.608216
0.60759
0.606972
0.606366
0.605772
0.605193
0.604631
0.604089
0.603568
0.603071
0.602599
0.602154
0.601738
0.601353
0.601001
0.600684
0.600402
0.600157
0.599951
0.599784
0.599658
0.599574
0.599533
0.599534
0.599579
0.599668
0.599801
0.599979
0.6002
0.600465
0.600774
0.601126
0.601521
0.601957
0.602434
0.602951
0.603507
0.604101
0.604731
0.605397
0.606097
0.60683
0.607595
0.60839
0.609213
0.610064
0.610941
0.611842
0.612766
0.613712
0.614679
0.615665
0.616669
0.617689
0.618725
0.619775
0.620838
0.621912
0.622997
0.624091
0.625192
0.6263
0.627413
0.62853
0.62965
0.63077
0.631889
0.633007
0.634121
0.63523
0.636333
0.637427
0.638513
0.639589
0.640652
0.641703
0.64274
0.643763
0.64477
0.645761
0.646736
0.647692
0.64863
0.64955
0.650449
0.651329
0.652187
0.653024
0.653839
0.654631
0.655399
0.656144
0.656863
0.657557
0.658225
0.658866
0.65948
0.660065
0.660621
0.661147
0.661644
0.662109
0.662542
0.662942
0.66331
0.663643
0.663942
0.664205
0.664432
0.664623
0.664775
0.66489
0.664965
0.665001
0.664997
0.664951
0.664864
0.664734
0.664562
0.664347
0.664088
0.663783
0.663434
0.663039
0.662598
0.662111
0.661577
0.660995
0.660365
0.659688
0.658962
0.658188
0.657365
0.656494
0.655573
0.654604
0.653586
0.652519
0.651405
0.650242
0.649032
0.647773
0.646468
0.645114
0.643713
0.642265
0.640768
0.639224
0.637632
0.635991
0.634314
0.632572
0.630899
0.628982
0.629972
0.629793
0.62961
0.629401
0.629149
0.628853
0.628515
0.628138
0.627726
0.627281
0.626806
0.626303
0.625774
0.625222
0.624649
0.624057
0.623448
0.622826
0.62219
0.621545
0.620891
0.620231
0.619567
0.618901
0.618235
0.617571
0.616911
0.616258
0.615613
0.614979
0.614357
0.613749
0.613159
0.612587
0.612036
0.611507
0.611003
0.610526
0.610077
0.609657
0.60927
0.608916
0.608597
0.608314
0.608069
0.607862
0.607695
0.607569
0.607484
0.607441
0.607441
0.607485
0.607571
0.607701
0.607875
0.608091
0.608351
0.608653
0.608998
0.609384
0.60981
0.610277
0.610782
0.611325
0.611905
0.61252
0.61317
0.613854
0.614569
0.615315
0.61609
0.616893
0.617724
0.618579
0.619459
0.620362
0.621287
0.622232
0.623196
0.624179
0.625178
0.626194
0.627224
0.628267
0.629323
0.63039
0.631467
0.632552
0.633645
0.634744
0.635847
0.636953
0.638061
0.639169
0.640276
0.641379
0.642478
0.64357
0.644656
0.645732
0.646798
0.647852
0.648894
0.649923
0.650938
0.651937
0.65292
0.653887
0.654837
0.655768
0.65668
0.657573
0.658446
0.659297
0.660127
0.660935
0.661719
0.66248
0.663216
0.663927
0.664612
0.66527
0.6659
0.666502
0.667075
0.667619
0.668132
0.668613
0.669063
0.669479
0.669862
0.670211
0.670524
0.670801
0.671042
0.671245
0.67141
0.671536
0.671623
0.671668
0.671673
0.671637
0.671558
0.671435
0.671269
0.671059
0.670804
0.670503
0.670157
0.669764
0.669324
0.668836
0.668301
0.667718
0.667086
0.666405
0.665676
0.664897
0.664069
0.663191
0.662264
0.661287
0.660262
0.659187
0.658064
0.656892
0.655673
0.654405
0.653089
0.651726
0.650316
0.648857
0.647351
0.645796
0.644193
0.64254
0.640848
0.639088
0.637391
0.635436
0.640654
0.640466
0.640267
0.640037
0.639763
0.639442
0.639078
0.638675
0.638235
0.637761
0.637256
0.636722
0.636162
0.635579
0.634974
0.63435
0.63371
0.633055
0.632387
0.63171
0.631024
0.630332
0.629637
0.628939
0.628241
0.627546
0.626854
0.626169
0.625492
0.624826
0.624171
0.623531
0.622907
0.622301
0.621715
0.621151
0.620611
0.620096
0.619609
0.619152
0.618725
0.61833
0.617969
0.617644
0.617355
0.617103
0.61689
0.616717
0.616584
0.616493
0.616443
0.616435
0.61647
0.616547
0.616667
0.61683
0.617034
0.617281
0.617569
0.617899
0.618268
0.618677
0.619125
0.61961
0.620132
0.62069
0.621283
0.621909
0.622567
0.623256
0.623976
0.624724
0.625499
0.626301
0.627129
0.62798
0.628854
0.62975
0.630666
0.631602
0.632557
0.633529
0.634518
0.635522
0.63654
0.637572
0.638615
0.63967
0.640734
0.641806
0.642885
0.643969
0.645058
0.646148
0.647239
0.648329
0.649416
0.650499
0.651577
0.652646
0.653708
0.654759
0.655799
0.656828
0.657843
0.658845
0.659832
0.660803
0.661758
0.662696
0.663616
0.664517
0.665399
0.666261
0.667101
0.66792
0.668716
0.669489
0.670238
0.670962
0.67166
0.672332
0.672976
0.673592
0.67418
0.674737
0.675264
0.67576
0.676223
0.676653
0.677049
0.677411
0.677737
0.678026
0.678279
0.678494
0.67867
0.678806
0.678902
0.678957
0.678971
0.678942
0.678869
0.678753
0.678593
0.678387
0.678136
0.677838
0.677493
0.677102
0.676662
0.676175
0.675638
0.675053
0.674419
0.673735
0.673001
0.672217
0.671383
0.6705
0.669566
0.668582
0.667549
0.666466
0.665334
0.664154
0.662925
0.661648
0.660323
0.658951
0.65753
0.656063
0.654547
0.652982
0.651369
0.649704
0.648
0.646225
0.644508
0.64252
0.652742
0.652544
0.652326
0.652072
0.651771
0.651423
0.651031
0.650597
0.650125
0.649618
0.649079
0.64851
0.647915
0.647295
0.646653
0.645992
0.645315
0.644622
0.643918
0.643203
0.64248
0.641751
0.641018
0.640284
0.63955
0.638817
0.638089
0.637367
0.636653
0.63595
0.635258
0.63458
0.633917
0.633273
0.632648
0.632044
0.631463
0.630908
0.630379
0.629878
0.629407
0.628968
0.628561
0.628188
0.627851
0.62755
0.627287
0.627062
0.626877
0.626731
0.626626
0.626562
0.62654
0.626559
0.62662
0.626722
0.626866
0.627051
0.627276
0.627542
0.627848
0.628193
0.628576
0.628996
0.629453
0.629946
0.630473
0.631033
0.631627
0.632251
0.632906
0.63359
0.634302
0.635042
0.635807
0.636597
0.637411
0.638248
0.639107
0.639987
0.640887
0.641807
0.642744
0.643699
0.644669
0.645655
0.646656
0.647669
0.648694
0.64973
0.650775
0.651828
0.652886
0.65395
0.655016
0.656082
0.657149
0.658213
0.659273
0.660327
0.661375
0.662414
0.663445
0.664464
0.665473
0.666469
0.667451
0.66842
0.669373
0.670311
0.671231
0.672134
0.673018
0.673884
0.674729
0.675553
0.676355
0.677135
0.677891
0.678623
0.679329
0.68001
0.680663
0.681289
0.681886
0.682453
0.68299
0.683496
0.68397
0.68441
0.684816
0.685188
0.685524
0.685823
0.686085
0.686309
0.686493
0.686638
0.686742
0.686804
0.686824
0.686801
0.686735
0.686623
0.686467
0.686265
0.686017
0.685721
0.685378
0.684987
0.684548
0.684059
0.683522
0.682934
0.682297
0.681609
0.680871
0.680083
0.679244
0.678354
0.677413
0.676423
0.675382
0.674291
0.673151
0.671962
0.670725
0.669439
0.668105
0.666724
0.665295
0.663818
0.662294
0.660721
0.659099
0.657425
0.65571
0.653923
0.652189
0.650175
0.666308
0.666097
0.665856
0.665575
0.665244
0.664864
0.664438
0.663969
0.66346
0.662914
0.662335
0.661725
0.661088
0.660426
0.659741
0.659037
0.658316
0.65758
0.656831
0.656073
0.655306
0.654534
0.653759
0.652981
0.652204
0.65143
0.650659
0.649895
0.649139
0.648393
0.647659
0.646938
0.646233
0.645545
0.644876
0.644228
0.643603
0.643001
0.642426
0.641878
0.641358
0.64087
0.640412
0.639988
0.639598
0.639244
0.638925
0.638644
0.638401
0.638197
0.638032
0.637907
0.637821
0.637777
0.637772
0.637808
0.637885
0.638002
0.638158
0.638354
0.638589
0.638862
0.639172
0.63952
0.639904
0.640323
0.640776
0.641262
0.641782
0.642332
0.642913
0.643524
0.644163
0.64483
0.645523
0.646242
0.646986
0.647754
0.648544
0.649358
0.650192
0.651047
0.651922
0.652816
0.653728
0.654658
0.655603
0.656564
0.657539
0.658527
0.659526
0.660535
0.661553
0.662577
0.663606
0.664639
0.665673
0.666707
0.667739
0.668767
0.66979
0.670807
0.671817
0.672818
0.673809
0.674789
0.675758
0.676714
0.677657
0.678585
0.679497
0.680393
0.681272
0.682133
0.682975
0.683796
0.684597
0.685376
0.686133
0.686866
0.687575
0.688258
0.688914
0.689544
0.690145
0.690717
0.691259
0.69177
0.692249
0.692695
0.693108
0.693485
0.693827
0.694133
0.6944
0.69463
0.69482
0.69497
0.695079
0.695146
0.69517
0.695152
0.695089
0.694981
0.694827
0.694627
0.694381
0.694086
0.693744
0.693353
0.692913
0.692423
0.691883
0.691293
0.690653
0.689962
0.689219
0.688426
0.687582
0.686686
0.68574
0.684742
0.683694
0.682597
0.681449
0.680252
0.679006
0.677713
0.676371
0.674981
0.673545
0.67206
0.670528
0.668948
0.667319
0.665638
0.663916
0.66212
0.660375
0.658341
0.681431
0.681203
0.680935
0.680622
0.680256
0.679838
0.679371
0.678859
0.678306
0.677714
0.677087
0.676428
0.675741
0.675028
0.674292
0.673536
0.672763
0.671976
0.671176
0.670366
0.669549
0.668727
0.667901
0.667074
0.666248
0.665425
0.664606
0.663794
0.66299
0.662196
0.661414
0.660645
0.659892
0.659156
0.658439
0.657742
0.657067
0.656415
0.655789
0.655189
0.654617
0.654074
0.653562
0.653082
0.652635
0.652221
0.651843
0.651501
0.651195
0.650927
0.650696
0.650504
0.65035
0.650236
0.65016
0.650124
0.650126
0.650168
0.650248
0.650366
0.650523
0.650716
0.650946
0.651213
0.651514
0.651851
0.652221
0.652624
0.653059
0.653526
0.654023
0.65455
0.655105
0.655689
0.656299
0.656936
0.657598
0.658285
0.658996
0.659731
0.660488
0.661267
0.662067
0.662888
0.663729
0.664589
0.665467
0.666362
0.667274
0.6682
0.669141
0.670094
0.671057
0.672029
0.673008
0.673994
0.674983
0.675973
0.676964
0.677953
0.678939
0.679921
0.680898
0.681868
0.682831
0.683785
0.684728
0.685661
0.686582
0.68749
0.688384
0.689264
0.690127
0.690974
0.691803
0.692613
0.693404
0.694174
0.694923
0.695649
0.696352
0.69703
0.697683
0.698309
0.698907
0.699478
0.700018
0.700529
0.701008
0.701454
0.701867
0.702245
0.702589
0.702895
0.703165
0.703396
0.703588
0.70374
0.70385
0.703919
0.703945
0.703928
0.703866
0.703759
0.703606
0.703407
0.70316
0.702865
0.702522
0.70213
0.701689
0.701197
0.700655
0.700062
0.699418
0.698723
0.697977
0.697179
0.696329
0.695428
0.694476
0.693473
0.692418
0.691314
0.690159
0.688955
0.687703
0.686402
0.685053
0.683657
0.682213
0.680723
0.679185
0.677599
0.675966
0.67428
0.672553
0.670752
0.668999
0.666953
0.698195
0.697946
0.697646
0.697294
0.696885
0.696421
0.695904
0.69534
0.694732
0.694083
0.693398
0.692679
0.691931
0.691156
0.690359
0.689541
0.688707
0.687858
0.686997
0.686128
0.685251
0.68437
0.683486
0.682602
0.68172
0.680841
0.679967
0.6791
0.678242
0.677394
0.676558
0.675736
0.67493
0.67414
0.673369
0.672618
0.671889
0.671182
0.6705
0.669844
0.669215
0.668613
0.668042
0.667501
0.666992
0.666515
0.666072
0.665663
0.665289
0.664951
0.664649
0.664384
0.664156
0.663965
0.663812
0.663696
0.663617
0.663576
0.663572
0.663604
0.663674
0.663779
0.66392
0.664096
0.664306
0.66455
0.664827
0.665137
0.665478
0.66585
0.666252
0.666684
0.667144
0.667633
0.668149
0.668691
0.669259
0.669853
0.670472
0.671115
0.671781
0.672471
0.673183
0.673918
0.674674
0.67545
0.676247
0.677063
0.677897
0.678749
0.679616
0.680498
0.681392
0.682297
0.683213
0.684136
0.685065
0.685997
0.686932
0.687868
0.688804
0.689737
0.690668
0.691594
0.692515
0.693429
0.694335
0.695232
0.696119
0.696995
0.697859
0.69871
0.699547
0.700369
0.701175
0.701964
0.702735
0.703486
0.704217
0.704928
0.705615
0.70628
0.70692
0.707535
0.708123
0.708683
0.709216
0.709718
0.71019
0.71063
0.711038
0.711411
0.71175
0.712053
0.712318
0.712547
0.712736
0.712885
0.712994
0.71306
0.713085
0.713066
0.713002
0.712894
0.712739
0.712538
0.712289
0.711993
0.711647
0.711253
0.710808
0.710314
0.709769
0.709173
0.708525
0.707826
0.707075
0.706273
0.705419
0.704513
0.703555
0.702546
0.701486
0.700376
0.699216
0.698006
0.696747
0.69544
0.694086
0.692684
0.691236
0.68974
0.688198
0.686609
0.684973
0.683285
0.681557
0.679754
0.677998
0.675945
0.716695
0.716419
0.716081
0.715681
0.715219
0.714697
0.714118
0.713487
0.71281
0.71209
0.711331
0.710538
0.709714
0.708864
0.707991
0.707098
0.70619
0.705267
0.704335
0.703394
0.702448
0.701498
0.700547
0.699597
0.69865
0.697707
0.696771
0.695842
0.694923
0.694016
0.69312
0.692239
0.691374
0.690525
0.689695
0.688885
0.688096
0.68733
0.686587
0.685869
0.685177
0.684513
0.683876
0.683269
0.682693
0.682147
0.681633
0.681152
0.680704
0.68029
0.679911
0.679566
0.679256
0.678982
0.678743
0.67854
0.678372
0.678239
0.678143
0.678081
0.678054
0.678061
0.678103
0.678179
0.678287
0.678428
0.678601
0.678806
0.679042
0.679308
0.679603
0.679928
0.680281
0.680662
0.681071
0.681506
0.681968
0.682455
0.682968
0.683506
0.684068
0.684655
0.685265
0.685899
0.686555
0.687234
0.687934
0.688656
0.689398
0.690159
0.690937
0.691731
0.69254
0.693365
0.694201
0.695046
0.695899
0.696758
0.697622
0.69849
0.699359
0.70023
0.701099
0.701967
0.702831
0.703691
0.704546
0.705394
0.706234
0.707065
0.707887
0.708697
0.709496
0.710281
0.711052
0.711808
0.712547
0.713269
0.713972
0.714656
0.715319
0.71596
0.716578
0.717172
0.717741
0.718284
0.718799
0.719286
0.719743
0.72017
0.720565
0.720927
0.721255
0.721547
0.721804
0.722023
0.722205
0.722347
0.722449
0.722509
0.722528
0.722503
0.722435
0.722321
0.722162
0.721956
0.721703
0.721403
0.721053
0.720655
0.720207
0.719708
0.719159
0.718559
0.717907
0.717204
0.716449
0.715642
0.714783
0.713872
0.71291
0.711897
0.710832
0.709717
0.708551
0.707337
0.706073
0.704762
0.703403
0.701997
0.700545
0.699047
0.697503
0.695912
0.694276
0.692589
0.690862
0.689061
0.687306
0.685253
0.737039
0.736728
0.736341
0.735882
0.735352
0.734754
0.734094
0.733378
0.732611
0.731798
0.730945
0.730058
0.729139
0.728195
0.727229
0.726245
0.725247
0.724237
0.723218
0.722194
0.721166
0.720137
0.719109
0.718083
0.717062
0.716047
0.71504
0.714042
0.713055
0.71208
0.711119
0.710172
0.709241
0.708328
0.707433
0.706558
0.705704
0.704872
0.704063
0.703278
0.702518
0.701784
0.701077
0.700398
0.699748
0.699127
0.698536
0.697976
0.697447
0.69695
0.696485
0.696052
0.695653
0.695287
0.694954
0.694655
0.694389
0.694156
0.693956
0.69379
0.693657