/*--------------------------------*- C++ -*----------------------------------*\
| =========                 |                                                 |
| \\      /  F ield         | OpenFOAM: The Open Source CFD Toolbox           |
|  \\    /   O peration     | Version:  2.3.0                                 |
|   \\  /    A nd           | Web:      www.OpenFOAM.org                      |
|    \\/     M anipulation  |                                                 |
\*---------------------------------------------------------------------------*/
FoamFile
{
    version     2.0;
    format      ascii;
    class       volScalarField;
    location    "2.15";
    object      alpha.water;
}
// * * * * * * * * * * * * * * * * * * * * * * * * * * * * * * * * * * * * * //

dimensions      [0 0 0 0 0 0 0];

internalField   nonuniform List<scalar> 
2268
(
1
1
1
1
1
1
1
1
1
1
1
1
0.999999
0.999997
0.999997
0.999999
0.999999
0.999629
0.987973
0.981386
0.995126
0.994983
0.990842
1
1
1
1
1
1
1
1
1
1
0.999999
0.999998
0.999997
0.999997
0.999998
0.999999
1
0.998863
0.978767
0.978644
0.995281
0.997716
0.99557
1
1
1
1
1
1
1
1
0.999999
0.999999
0.999998
0.999998
0.999999
0.999999
0.999999
1
1
0.999987
0.981974
0.978644
0.979773
0.998715
0.999925
1
1
1
1
1
1
1
1
0.999999
0.999999
0.999999
1
1
1
0.999999
1
1
1
0.997882
0.978644
0.978655
0.993368
0.999933
1
1
1
1
1
1
1
1
0.999999
0.999999
1
1
1
1
1
1
1
1
1
0.987274
0.979722
0.993999
0.999968
1
1
1
1
1
1
0.999999
0.999999
1
1
1
1
1
1
1
1
1
1
1
0.999812
0.998466
0.999532
0.999972
1
1
1
1
1
1
1
1
1
1
1
1
1
1
1
1
1
1
0.999998
0.999999
0.999999
0.999993
0.999994
1
1
1
1
1
1
1
1
1
1
0.999999
0.999999
0.999999
0.999999
0.999999
0.999999
1
0.999999
0.999999
0.999999
0.999999
0.999999
0.999999
0.968565
0.942508
0.942508
0.946344
0.944274
0.933307
0.922424
0.91761
0.91761
0.959546
0.995112
0.995112
0.995112
0.976255
0.917214
0.958081
0.964119
0.964139
0.964139
0.968926
0.953552
0.98837
0.996376
0.996372
0.99637
0.988746
0.961122
0.919878
0.913305
0.929607
0.995112
0.994989
0.965672
0.903836
0.906774
0.957513
0.964119
0.964139
0.963494
0.968438
0.996385
0.996381
0.996376
0.996371
0.996368
0.996363
0.992386
0.913296
0.913546
0.947424
0.994191
0.961289
0.903848
0.904137
0.904715
0.939156
0.948883
0.963494
0.983161
0.996381
0.996376
0.996297
0.996353
0.996363
0.996355
0.996341
0.956441
0.914557
0.949798
0.994743
0.969448
0.90356
0.903848
0.904137
0.908991
0.963558
0.963586
0.996346
0.996375
0.996361
0.99613
0.99613
0.996237
0.996346
0.996236
0.978509
0.975184
0.992994
0.994922
0.991667
0.933498
0.904137
0.905077
0.98828
0.989908
0.992351
0.99638
0.996372
0.996373
0.996344
0.99626
0.996334
0.996338
0.992255
0.983301
0.994771
0.994922
0.994949
0.994922
0.976638
0.904574
0.930803
0.989957
0.989936
0.996374
0.99638
0.996379
0.996372
0.996373
0.996376
0.996376
0.996337
0.974548
0.826787
0.796293
0.994305
0.994929
0.994951
0.994888
0.981457
0.982623
0.989936
0.989904
0.995275
0.996379
0.996381
0.996377
0.996372
0.996372
0.99637
0.996237
0.964882
0.716824
0.685973
0.770548
0.994949
0.994918
0.994934
0.994711
0.989159
0.989697
0.989908
1
1
1
1
1
1
1
0.999999
0.999995
0.999991
0.999986
0.999982
0.999979
0.999977
0.999976
0.999978
0.999982
0.999988
0.999994
1
1
0.999999
0.999999
0.792591
0.785393
0.776425
0.769027
0.764698
0.765866
0.772384
0.784879
0.798929
0.81436
0.831098
0.848072
0.863268
0.875883
0.88596
0.893967
0.898353
0.897222
0.893982
0.886204
0.870778
0.843243
0.807545
0.0722826
0.0714205
0.0696927
0.0683277
0.0685097
0.0691486
0.0712441
0.0753482
0.0821922
0.0933613
0.105026
0.11652
0.127485
0.137875
0.147083
0.151592
0.152598
0.15305
0.149451
0.138549
0.116808
0.082426
0.0421027
0.00269986
0.00226589
0.00270679
0.00227904
0.00185166
0.00152513
0.00138698
0.00138698
0.00138564
0.00138698
0.00143172
0.00122883
0.000969871
0.000684148
0.00053389
0.000540772
0.000537175
0.000602049
0.000995684
0.00152263
0.00195228
0.00227392
0.00324663
0.00299295
0.00214175
0.00525687
0.00778252
0.00778969
0.00778252
0.00603096
0.00139674
0.0069644
0.012044
0.0120514
0.012044
0.0120079
0.0119617
0.0108959
0.00069327
0.00711619
0.0187838
0.018768
0.0186471
0.0120332
0.0154944
0.0244713
0.00112865
0.000690261
0.000646648
8.04435e-06
0.000209112
0.00117546
0.00416433
0.00489308
0.00419469
0.00196713
0.00239064
0.00264541
0.0052331
0.0072451
0.00244029
0.00080936
0.00266514
0.00921822
0.011772
0.0143429
0.0247033
0.0247033
0.0247033
2.9442e-06
2.01231e-06
2.25324e-06
2.25328e-06
1.46567e-06
7.1381e-07
7.1381e-07
1.36832e-06
7.02161e-07
7.01664e-07
8.19655e-07
2.53242e-06
5.58507e-05
0.000208041
0.00120601
0.000452563
0.000830976
0.000133308
9.00839e-05
4.47735e-05
0.00140392
0.0166646
0.0244713
1.92897e-07
1.35171e-07
2.51162e-06
3.01556e-06
2.94416e-06
7.90436e-07
3.3211e-06
1.16056e-05
4.47768e-06
7.05066e-07
2.53269e-06
0.000782999
0.00200283
0.0019576
0.000422266
0.000162237
0.000202305
0.000554824
0.00021016
2.98999e-05
1.11983e-05
2.76626e-05
0.000432853
1.39206e-08
1.15788e-08
2.64425e-06
3.61574e-06
3.12988e-06
8.08852e-07
1.57119e-05
1.59619e-05
1.06757e-05
3.52475e-07
2.39438e-06
0.000921934
0.00202339
0.00202169
0.00180001
0.000154911
0.000129846
0.00071544
0.000900128
6.0708e-05
7.04126e-06
9.12082e-06
1.87871e-05
4.42137e-09
4.10221e-09
7.92006e-07
2.96082e-06
8.5086e-07
6.89033e-07
6.50294e-06
1.36911e-05
3.09773e-06
2.38971e-07
4.48211e-06
2.38536e-07
0.000235792
0.0018012
0.00180293
0.000953803
0.00010201
0.000659962
0.000918046
0.000497647
6.71248e-06
7.04183e-06
9.34114e-06
4.05581e-09
3.66684e-09
1.97621e-09
1.30749e-07
3.13665e-09
1.81762e-07
8.95361e-09
7.86017e-07
3.71686e-09
3.65724e-09
9.98525e-08
1.66967e-08
3.30099e-08
8.49768e-05
0.000682356
0.000689856
7.62133e-05
0.000657763
0.000916908
0.00069356
6.84098e-06
6.77181e-06
1.10386e-05
1.80647e-08
7.84447e-10
8.33862e-10
1.56129e-09
2.16749e-09
2.19256e-09
1.93607e-09
1.8367e-09
6.3255e-10
5.1942e-10
1.23521e-09
1.10008e-08
1.50897e-08
6.55988e-09
9.03429e-08
1.54455e-05
6.59788e-05
0.000442506
0.000631689
0.000145968
2.27156e-05
2.57559e-05
0.000103571
5.3569e-08
6.21351e-10
1.49281e-09
1.60916e-09
2.11732e-09
1.95665e-09
1.66781e-09
6.57857e-10
4.80737e-10
4.79294e-10
2.17575e-09
1.58613e-08
1.52875e-08
7.88872e-10
6.56115e-09
1.20581e-07
4.2195e-05
0.000103087
3.9145e-05
2.70603e-07
5.45561e-06
4.25977e-05
0.000106589
5.38792e-08
6.20873e-10
1.73129e-09
2.21061e-09
2.27629e-09
2.21432e-09
1.67775e-09
6.34874e-10
4.61085e-10
4.64665e-10
2.76036e-09
1.08015e-08
7.49082e-09
2.08283e-10
7.40921e-10
3.80831e-07
3.99524e-06
8.9335e-07
5.57998e-08
1.57876e-08
6.58764e-08
1.15093e-05
0.000105562
5.38938e-08
6.21058e-10
1.36682e-09
1.83651e-09
2.14349e-09
2.18603e-09
1.68874e-09
7.57077e-10
4.39888e-10
4.21187e-10
1.2397e-09
1.44962e-09
5.92956e-10
1.6398e-10
8.21961e-10
2.94778e-08
6.13737e-09
7.05919e-09
2.77589e-09
1.12217e-09
1.64594e-08
1.08265e-07
5.24125e-05
5.59372e-08
6.0473e-09
1.13267e-09
1.14786e-09
1.47757e-09
1.61639e-09
1.49876e-09
9.87044e-10
4.6471e-10
3.17164e-10
2.63787e-10
1.75005e-10
1.5717e-10
1.58257e-10
1.35662e-10
1.80938e-10
3.87961e-10
4.34023e-10
2.37347e-10
2.90767e-10
7.59634e-10
1.2552e-06
2.96355e-05
5.59365e-08
3.1397e-08
3.00717e-09
1.06915e-09
1.08354e-09
1.0936e-09
1.10209e-09
9.62146e-10
5.99962e-10
3.20339e-10
2.26713e-10
1.78843e-10
1.5444e-10
1.42815e-10
1.21432e-10
1.22127e-10
1.13271e-10
1.20261e-10
9.02872e-11
2.24714e-10
2.02193e-10
8.90309e-07
1.3941e-05
4.18413e-08
2.7661e-08
1.25321e-08
1.06865e-09
1.07047e-09
1.09255e-09
8.34046e-10
7.56253e-10
6.11205e-10
3.69413e-10
2.42998e-10
1.69686e-10
1.36674e-10
1.23136e-10
1.1147e-10
1.15747e-10
9.2507e-11
9.13319e-11
8.11717e-11
7.52683e-11
1.13736e-10
9.24655e-07
4.54226e-07
5.58369e-09
6.82338e-09
7.10866e-09
1.18332e-09
1.32435e-09
1.34723e-09
9.14904e-10
6.31979e-10
5.06984e-10
3.6498e-10
2.50073e-10
1.71338e-10
1.27622e-10
1.05444e-10
9.27649e-11
9.07524e-11
8.97577e-11
1.11507e-10
7.74989e-11
7.35297e-11
1.78568e-08
3.73567e-07
3.07577e-09
1.55404e-09
1.24738e-09
1.05938e-09
1.05666e-09
1.3074e-09
1.43442e-09
1.27016e-09
7.02542e-10
4.5677e-10
3.28782e-10
2.34686e-10
1.6775e-10
1.23426e-10
9.47665e-11
7.68125e-11
6.69597e-11
6.32856e-11
7.52648e-11
6.15802e-11
1.46644e-10
1.39207e-08
2.23272e-10
6.36537e-11
3.66839e-06
1.4687e-05
6.21624e-07
1.05936e-09
1.06786e-09
1.1752e-09
1.32165e-09
9.09447e-10
4.82144e-10
3.072e-10
2.08279e-10
1.50963e-10
1.12083e-10
8.4555e-11
6.44795e-11
5.03115e-11
4.19263e-11
4.17552e-11
4.06382e-11
1.93985e-10
7.50255e-10
3.6914e-11
2.6439e-11
3.17911e-05
3.22603e-05
2.83212e-05
1.47064e-06
9.81192e-10
9.84092e-10
1.03485e-09
8.71533e-10
5.53362e-10
3.05751e-10
1.90501e-10
1.33095e-10
9.43985e-11
6.92137e-11
5.07097e-11
3.6606e-11
2.77045e-11
2.31368e-11
2.1133e-11
5.82136e-11
1.45444e-11
1.46426e-11
2.04814e-11
3.22603e-05
3.22603e-05
3.22603e-05
4.39992e-06
1.38899e-09
1.53447e-08
1.07315e-09
8.41466e-10
5.46172e-10
2.93095e-10
1.6989e-10
1.1388e-10
7.46057e-11
5.08277e-11
3.56401e-11
2.51831e-11
1.83077e-11
1.38602e-11
1.10773e-11
1.49277e-11
1.15585e-11
8.75007e-12
6.85842e-12
1.8703e-05
2.94389e-05
1.61386e-05
2.99779e-06
4.80045e-08
1.31645e-08
5.15363e-10
7.86361e-10
5.54306e-10
2.99929e-10
1.59836e-10
9.25456e-11
5.63594e-11
3.6356e-11
2.44747e-11
1.68812e-11
1.18834e-11
8.514e-12
6.21766e-12
5.18219e-12
3.91043e-12
2.91228e-12
2.24917e-12
1.65975e-07
2.45675e-06
1.30311e-07
3.09372e-07
6.02301e-08
5.53829e-09
3.43986e-10
5.31955e-10
3.78536e-10
1.98186e-10
1.17528e-10
6.84627e-11
4.11426e-11
2.57898e-11
1.67516e-11
1.11405e-11
7.5198e-12
5.12305e-12
3.51373e-12
2.46078e-12
1.71123e-12
1.18998e-12
8.47083e-13
3.63837e-09
8.15261e-09
2.12883e-09
6.90813e-10
5.98845e-09
7.85451e-10
2.5301e-10
2.10439e-10
1.61292e-10
1.12574e-10
6.92314e-11
4.18591e-11
2.56507e-11
1.60424e-11
1.02043e-11
6.56051e-12
4.24198e-12
2.75016e-12
1.78517e-12
1.16139e-12
7.55415e-13
4.91494e-13
3.21821e-13
2.35331e-10
4.97795e-10
1.67084e-10
7.0899e-11
6.28123e-11
9.96071e-11
1.24919e-10
1.09732e-10
8.03711e-11
5.35842e-11
3.38564e-11
2.10732e-11
1.31083e-11
8.1678e-12
5.08915e-12
3.16425e-12
1.96093e-12
1.21086e-12
7.45242e-13
4.57538e-13
2.80355e-13
1.71549e-13
1.05034e-13
3.28413e-11
5.36188e-11
3.85949e-11
3.60604e-11
5.15455e-11
6.64221e-11
5.91772e-11
4.63837e-11
3.27624e-11
2.16241e-11
1.3752e-11
8.58587e-12
5.29917e-12
3.23766e-12
1.95794e-12
1.17201e-12
6.94839e-13
4.08428e-13
2.38357e-13
1.38318e-13
7.99259e-14
4.60819e-14
2.66829e-14
1.51431e-11
1.66029e-11
2.57006e-11
3.01887e-11
2.90987e-11
2.63859e-11
2.17187e-11
1.60634e-11
1.096e-11
7.08443e-12
4.42507e-12
2.70072e-12
1.61841e-12
9.5405e-13
5.5373e-13
3.16686e-13
1.78675e-13
9.96098e-14
5.49687e-14
3.00859e-14
1.63794e-14
8.94922e-15
5.10662e-15
7.78548e-12
1.40086e-11
1.14607e-11
1.03342e-11
9.38547e-12
7.99847e-12
6.17179e-12
4.34334e-12
2.85001e-12
1.77871e-12
1.0709e-12
6.27305e-13
3.59152e-13
2.01451e-13
1.10877e-13
5.99632e-14
3.19117e-14
1.67421e-14
8.67783e-15
4.45865e-15
2.2985e-15
1.26754e-15
9.65692e-16
1.2135e-12
2.64993e-12
2.58148e-12
2.45921e-12
2.20172e-12
1.78678e-12
1.30901e-12
8.79148e-13
5.51931e-13
3.29164e-13
1.8864e-13
1.04657e-13
5.64676e-14
2.97198e-14
1.5296e-14
7.71701e-15
3.82537e-15
1.86773e-15
9.01908e-16
4.38272e-16
2.39054e-16
2.23836e-16
4.6343e-16
1.40355e-13
3.83871e-13
4.26392e-13
4.21584e-13
3.70317e-13
2.88456e-13
2.01947e-13
1.29529e-13
7.74869e-14
4.38317e-14
2.36746e-14
1.22923e-14
6.16425e-15
2.99805e-15
1.42004e-15
6.57965e-16
2.99518e-16
1.34988e-16
6.19259e-17
3.50403e-17
4.51414e-17
1.28245e-16
4.27253e-16
1.24289e-14
4.17182e-14
5.11715e-14
5.15051e-14
4.42418e-14
3.32003e-14
2.22728e-14
1.36351e-14
7.7425e-15
4.12555e-15
2.07939e-15
9.97644e-16
4.5801e-16
2.02414e-16
8.67721e-17
3.63972e-17
1.51705e-17
6.60283e-18
4.12118e-18
7.54839e-18
2.74402e-17
1.07099e-16
3.97845e-16
8.67751e-16
3.3932e-15
4.43429e-15
4.46228e-15
3.73247e-15
2.70028e-15
1.73647e-15
1.01283e-15
5.43364e-16
2.70566e-16
1.25875e-16
5.5023e-17
2.27554e-17
8.98634e-18
3.44634e-18
1.31715e-18
5.44814e-19
3.82714e-19
9.59442e-19
4.25304e-18
1.92168e-17
8.2131e-17
3.30246e-16
4.9734e-17
2.09173e-16
2.78924e-16
2.75101e-16
2.22499e-16
1.54872e-16
9.53211e-17
5.28083e-17
2.66057e-17
1.22655e-17
5.20005e-18
2.03851e-18
7.48137e-19
2.62015e-19
9.11701e-20
3.55942e-20
2.68501e-20
8.44956e-20
4.44404e-19
2.3331e-18
1.15208e-17
5.33439e-17
2.32568e-16
2.48203e-18
1.01672e-17
1.30945e-17
1.23269e-17
9.52596e-18
6.34098e-18
3.72055e-18
1.94624e-18
9.13199e-19
3.85306e-19
1.4677e-19
5.09347e-20
1.65267e-20
5.27347e-21
1.91196e-21
1.37808e-21
4.68331e-21
2.84712e-20
1.76165e-19
1.0229e-18
5.52475e-18
2.78939e-17
1.32702e-16
1.15635e-19
4.22506e-19
4.92042e-19
4.26173e-19
3.08557e-19
1.94154e-19
1.07523e-19
5.25314e-20
2.26613e-20
8.63322e-21
2.92194e-21
8.9778e-22
2.66371e-22
8.86415e-23
5.41507e-23
1.5612e-22
9.89852e-22
7.24779e-21
5.10542e-20
3.31587e-19
1.98617e-18
1.10767e-17
5.81726e-17
5.30425e-21
1.68484e-20
1.67871e-20
1.28958e-20
8.52909e-21
4.96487e-21
2.53961e-21
1.13343e-21
4.40953e-22
1.49428e-22
4.48502e-23
1.25212e-23
3.80223e-24
1.87676e-24
3.80568e-24
1.74886e-23
1.33101e-22
1.16965e-21
9.62138e-21
7.17239e-20
4.8796e-19
3.06962e-18
1.81125e-17
2.51897e-22
6.91495e-22
5.88618e-22
3.99789e-22
2.37959e-22
1.2455e-22
5.68402e-23
2.23511e-23
7.56769e-24
2.21889e-24
5.88437e-25
1.59738e-25
6.50762e-26
9.58616e-26
2.76688e-25
9.96134e-25
8.76726e-24
9.70177e-23
9.76067e-22
8.73113e-21
7.02793e-20
5.16975e-19
3.53257e-18
1.35265e-23
2.78869e-23
2.16913e-23
1.35502e-23
7.3857e-24
3.41919e-24
1.33336e-24
4.3691e-25
1.22299e-25
2.97011e-26
6.90677e-27
2.36666e-27
2.92352e-27
6.53578e-27
1.25263e-26
2.29943e-26
1.88533e-25
2.77989e-24
3.70751e-23
4.3253e-22
4.46946e-21
4.1536e-20
3.53176e-19
8.06987e-25
1.01372e-24
7.94117e-25
4.97163e-25
2.51342e-25
1.00729e-25
3.19395e-26
8.10337e-27
1.70251e-27
3.14962e-28
8.62338e-29
1.10864e-28
2.13357e-28
3.49621e-28
3.50743e-28
2.30014e-28
5.25913e-28
1.07667e-26
2.26233e-25
4.11199e-24
6.53664e-23
9.21273e-22
1.16725e-20
4.9439e-26
2.67301e-26
2.61378e-26
1.77548e-26
8.35892e-27
2.82742e-27
6.80717e-28
1.16482e-28
1.47689e-29
2.46838e-30
3.82912e-30
8.41086e-30
1.23187e-29
1.24882e-29
5.0322e-30
1.11726e-30
1.69619e-31
7.16071e-32
2.99983e-30
1.48443e-28
6.44562e-27
2.49961e-25
8.80295e-24
0.999586
0.997967
0.993661
0.987055
0.760116
0.700194
0.625198
0.564275
0.00445474
0.00353338
0.00332185
0.00461175
0.0046937
0.00420921
0.0032997
0.00332291
0.0159729
0.00331753
0.00328083
0.00332437
0.0231702
0.0034137
0.00327339
0.00328083
0.0242438
0.0241164
0.0200055
0.00435289
0.00314416
0.0174644
0.0220401
0.022094
0.000161619
0.00230733
0.00670371
0.0104103
1.15309e-05
7.05418e-06
1.54195e-05
4.25822e-05
4.99999e-06
8.03304e-07
3.81699e-07
5.43363e-07
1.07557e-05
3.82136e-07
3.22381e-08
2.06113e-07
9.03876e-05
2.88698e-07
7.39104e-09
1.9306e-07
0.000103321
2.14407e-05
2.61423e-09
9.98814e-08
0.000104418
3.69864e-05
2.18095e-09
1.75845e-08
4.8403e-05
5.7849e-06
1.07975e-09
2.716e-10
7.62238e-07
4.58669e-09
2.68327e-10
1.02758e-10
5.56093e-08
4.48472e-10
1.08645e-10
7.88602e-11
1.84899e-10
1.0268e-10
9.12067e-11
7.55859e-11
5.41013e-11
7.43279e-11
7.9295e-11
6.89659e-11
4.15041e-11
4.58406e-11
4.50478e-11
4.82646e-11
1.92032e-11
1.92074e-11
2.13198e-11
2.47817e-11
6.33531e-12
6.51656e-12
7.33103e-12
8.65577e-12
2.03398e-12
1.96968e-12
2.05426e-12
2.28779e-12
7.20873e-13
6.33465e-13
5.83699e-13
5.71941e-13
2.58774e-13
2.10603e-13
1.75475e-13
1.52062e-13
8.09734e-14
6.27546e-14
4.92474e-14
3.96222e-14
1.99565e-14
1.50942e-14
1.16661e-14
9.36963e-15
3.89031e-15
3.14009e-15
2.76346e-15
2.70767e-15
9.59612e-16
1.08657e-15
1.35443e-15
1.7854e-15
6.43128e-16
9.12818e-16
1.30367e-15
1.85909e-15
6.32429e-16
9.32297e-16
1.36711e-15
1.99317e-15
5.99455e-16
8.9909e-16
1.34316e-15
2.00032e-15
5.04998e-16
7.70151e-16
1.1739e-15
1.79356e-15
3.60828e-16
5.60107e-16
8.74408e-16
1.38327e-15
2.09035e-16
3.3141e-16
5.35299e-16
8.96433e-16
9.32635e-17
1.52495e-16
2.61537e-16
4.86508e-16
2.9755e-17
5.15405e-17
9.97157e-17
2.2353e-16
6.08127e-18
1.20489e-17
2.95632e-17
8.70188e-17
6.96026e-19
1.91766e-18
6.79561e-18
2.73347e-17
3.7673e-20
1.8992e-19
9.92287e-19
5.98532e-18
1.63975e-22
2.34302e-21
3.30304e-20
6.3947e-19
0.986603
0.996351
0.996377
0.996371
0.996371
0.996364
0.988994
0.994476
0.983379
0.779803
0.684963
0.682566
0.720051
0.849311
0.882733
0.881433
0.960779
0.989651
0.990762
0.535897
0.674485
0.825246
0.90938
0.940304
0.911553
0.882098
0.935334
0.966488
0.937948
0.775482
0.683044
0.682566
0.683069
0.68539
0.803418
0.986375
0.98913
0.990114
0.0175376
0.0762211
0.199453
0.34109
0.459469
0.528261
0.582435
0.704908
0.832374
0.889447
0.886859
0.88188
0.777816
0.785666
0.946536
0.958141
0.97638
0.98659
0.98639
0.00355608
0.00498733
0.00578552
0.00653053
0.0134507
0.0354766
0.0711563
0.0954523
0.190275
0.428873
0.628052
0.697782
0.717212
0.722607
0.705851
0.685843
0.642655
0.694445
0.643784
0.00345313
0.00364254
0.00399931
0.00442388
0.00598615
0.00867313
0.0114134
0.0124372
0.0124005
0.0124396
0.0606081
0.166674
0.234711
0.255089
0.247341
0.217596
0.176403
0.143884
0.0531668
0.00330583
0.00345717
0.00375266
0.00408287
0.0060565
0.0144923
0.0128993
0.012398
0.0124035
0.0125523
0.0118395
0.0101333
0.0341976
0.0604887
0.0615364
0.0557412
0.0383651
0.000315705
0.0004355
0.00345948
0.00356861
0.0106982
0.026433
0.0281605
0.028451
0.0287657
0.028979
0.0291681
0.0291681
0.0240639
0.00993434
0.00298987
2.84188e-05
2.78849e-05
2.78849e-05
2.90336e-05
0.000142641
0.000414401
0.0223736
0.025283
0.0264898
0.0264898
0.0262103
0.0243255
0.0224297
0.0213697
0.023023
0.0224245
0.0206021
0.0168087
0.000526137
2.80483e-05
2.79977e-05
2.79406e-05
2.81103e-05
3.33233e-05
0.000386989
0.0120468
0.0126492
0.0119698
0.0065352
0.00228902
0.00148091
0.000900918
0.000503963
6.51878e-05
3.40313e-05
2.72668e-05
0.00170007
3.36638e-05
2.80556e-05
2.80478e-05
2.80556e-05
2.82014e-05
5.05592e-05
4.76105e-05
6.27304e-05
2.36948e-05
3.57589e-05
0.000159057
0.000131247
9.98559e-05
9.03309e-05
9.0741e-05
8.77216e-05
3.22877e-05
2.57229e-05
2.18238e-05
0.000219922
3.44086e-05
2.80556e-05
2.79268e-05
8.20012e-05
0.00015448
8.88293e-05
5.10616e-07
8.63568e-07
1.91925e-05
0.000239054
0.000283556
0.000283794
0.000280928
0.000274896
0.000281184
0.000236554
3.06998e-05
2.06555e-05
0.000142514
3.70645e-05
2.80623e-05
3.63785e-05
0.000155031
0.000154851
0.00015448
2.5556e-07
2.89306e-07
8.95318e-06
0.000197576
0.000283859
0.000283833
0.000283794
0.000283763
0.00028278
0.000280361
4.53686e-05
1.49088e-05
1.41766e-05
2.40458e-05
2.91059e-05
0.000137568
0.000154847
0.000154712
0.000152772
2.0999e-07
2.55558e-07
3.23134e-07
3.37398e-06
0.000116082
0.000283797
0.000283765
0.000200066
0.000179701
0.000211038
7.50421e-05
4.18709e-05
1.35005e-05
1.24569e-05
6.54705e-05
0.000154174
0.00015479
0.000148307
3.44426e-05
6.08349e-06
1.28325e-05
8.25103e-06
3.73901e-06
3.7742e-06
5.32987e-05
0.000114639
1.24166e-07
1.76607e-07
7.87018e-05
0.000170768
0.000170768
2.29669e-05
1.51331e-06
6.84716e-05
0.000153707
0.000154189
2.51063e-05
4.47309e-06
1.25253e-05
2.84264e-05
2.85105e-05
1.13215e-05
5.33752e-06
1.20731e-07
1.21959e-07
1.20734e-07
1.13307e-06
5.64382e-05
0.000168407
0.000169254
8.26019e-05
1.9972e-07
6.15811e-06
8.95708e-05
8.27235e-05
3.67572e-06
4.52221e-06
1.057e-05
2.85101e-05
2.8512e-05
2.85113e-05
1.88897e-05
1.7413e-06
1.20734e-07
4.18711e-07
1.46148e-06
4.1084e-08
1.84737e-05
3.84055e-05
1.28159e-05
1.99718e-07
8.10079e-06
1.17858e-05
1.55478e-08
3.36916e-06
4.95111e-05
1.71588e-06
2.46903e-05
2.8511e-05
2.8512e-05
2.8511e-05
2.46766e-05
1.58268e-06
4.07122e-08
4.12072e-08
4.05823e-08
4.03182e-08
4.01839e-08
4.03181e-08
3.14906e-07
1.23637e-05
1.01031e-06
2.21581e-10
7.06113e-06
6.00603e-05
9.48214e-11
4.24563e-06
2.76098e-05
2.8511e-05
2.85117e-05
2.85077e-05
9.39591e-06
4.20333e-08
4.07057e-08
6.53226e-08
7.17517e-08
4.03195e-08
4.01775e-08
6.50536e-07
1.63269e-06
2.20764e-10
2.00445e-10
7.58952e-06
6.00603e-05
5.78789e-11
2.59723e-10
3.02672e-06
2.12697e-05
2.85077e-05
2.85025e-05
1.01484e-05
5.99543e-08
6.17832e-08
7.7139e-07
9.98663e-07
3.10972e-07
5.36257e-08
3.08645e-10
2.53063e-10
2.01453e-10
1.98875e-10
5.12195e-06
6.00415e-05
5.16113e-11
4.03644e-11
4.83677e-11
4.62621e-11
2.6124e-06
5.07181e-06
3.30275e-06
1.98683e-07
1.16652e-07
1.1091e-06
1.16133e-06
1.16134e-06
2.85207e-07
6.4892e-10
7.91241e-10
1.32421e-09
1.90353e-10
4.13854e-06
5.98804e-05
4.98903e-11
3.65587e-11
3.52102e-11
4.58875e-11
2.5737e-11
2.57149e-11
2.57149e-11
6.47339e-09
5.42372e-07
1.16044e-06
1.16119e-06
1.16137e-06
3.67467e-07
1.34523e-09
1.30416e-09
1.36288e-09
1.7777e-10
3.94757e-06
5.9633e-05
3.28087e-11
3.34496e-11
3.31538e-11
2.84251e-11
2.75456e-11
2.92647e-11
2.7608e-11
2.69931e-11
8.92294e-08
7.22891e-07
1.16044e-06
3.52842e-07
2.05901e-08
2.75556e-09
3.17013e-09
7.67843e-10
1.70444e-10
3.26516e-06
5.91792e-05
1.34881e-11
1.71566e-11
1.94404e-11
2.10329e-11
2.33965e-11
2.76969e-11
3.31127e-11
3.60212e-11
3.60213e-11
7.13377e-08
6.00539e-07
5.00903e-07
1.08937e-07
6.74683e-08
1.35806e-08
1.7321e-10
1.60486e-10
1.47899e-07
5.52925e-05
3.72246e-12
5.61086e-12
8.26229e-12
1.1799e-11
1.62891e-11
2.1693e-11
2.7261e-11
3.54337e-11
3.64437e-11
3.12748e-11
1.05412e-09
1.63824e-07
2.44679e-07
2.35607e-07
3.3012e-08
1.6244e-10
1.34516e-10
1.60587e-10
2.56468e-05
8.01122e-13
1.32272e-12
2.48351e-12
4.60073e-12
8.24435e-12
1.39433e-11
2.05354e-11
2.66919e-11
3.25834e-11
3.12742e-11
3.05862e-11
3.06255e-11
5.57299e-08
5.12811e-08
3.56983e-08
1.09453e-09
1.01567e-10
1.30978e-10
2.68346e-05
1.59711e-13
2.56714e-13
5.90953e-13
1.42292e-12
3.25831e-12
6.69117e-12
1.13434e-11
1.63652e-11
2.11951e-11
2.6158e-11
3.05837e-11
3.16166e-11
3.16173e-11
3.17793e-11
3.22015e-11
6.21959e-10
9.27023e-11
6.8883e-07
4.2779e-05
3.35342e-14
4.99371e-14
1.32089e-13
3.99787e-13
1.1245e-12
2.71116e-12
5.2775e-12
8.62543e-12
1.26262e-11
1.82186e-11
2.57214e-11
3.27159e-11
4.11902e-11
4.83852e-11
5.86792e-11
9.21702e-11
9.25979e-11
5.7453e-06
4.27842e-05
8.96935e-15
1.58684e-14
4.30134e-14
1.35394e-13
4.12061e-13
1.0937e-12
2.39109e-12
4.42378e-12
7.35969e-12
1.19361e-11
1.84847e-11
2.85303e-11
4.44434e-11
6.04971e-11
1.12919e-10
1.16369e-10
9.26958e-11
8.9931e-06
4.27842e-05
4.93981e-15
1.19747e-14
3.07863e-14
8.18735e-14
2.20296e-13
5.63421e-13
1.28367e-12
2.58002e-12
4.73256e-12
8.3305e-12
1.39307e-11
2.27102e-11
3.64152e-11
5.70467e-11
1.03434e-10
1.10291e-10
9.31942e-11
6.69353e-06
4.27842e-05
4.99153e-15
1.33987e-14
3.37099e-14
8.11534e-14
1.90819e-13
4.371e-13
9.50266e-13
1.92364e-12
3.65143e-12
6.6407e-12
1.15399e-11
1.94036e-11
3.18006e-11
5.10747e-11
1.08153e-10
1.14666e-10
9.38907e-11
1.1387e-06
4.27398e-05
5.96003e-15
1.68244e-14
4.25001e-14
9.86714e-14
2.16457e-13
4.56275e-13
9.25993e-13
1.79977e-12
3.35369e-12
6.04072e-12
1.05241e-11
1.78744e-11
2.96783e-11
4.8126e-11
1.23886e-10
1.85364e-10
9.60736e-11
9.8917e-11
4.0319e-05
7.49549e-15
2.31971e-14
5.99916e-14
1.36208e-13
2.83819e-13
5.60056e-13
1.06343e-12
1.95359e-12
3.4842e-12
6.06615e-12
1.03577e-11
1.75703e-11
2.94109e-11
4.81763e-11
1.36242e-10
2.59467e-10
1.00123e-10
1.05791e-10
1.70352e-05
9.76631e-15
3.5113e-14
9.50345e-14
2.13423e-13
4.25747e-13
7.89524e-13
1.39948e-12
2.40508e-12
4.04105e-12
6.6904e-12
1.106e-11
1.86923e-11
3.11838e-11
5.30371e-11
2.04609e-10
2.59596e-10
1.04862e-10
2.76371e-06
1.87302e-05
1.25311e-14
5.36323e-14
1.5665e-13
3.59203e-13
7.06235e-13
1.25796e-12
2.10399e-12
3.38131e-12
5.30607e-12
8.24827e-12
1.30672e-11
2.1673e-11
3.48804e-11
6.11755e-11
2.76308e-10
3.3896e-10
1.10444e-10
1.16993e-05
2.88694e-05
1.47255e-14
7.42884e-14
2.40674e-13
5.88416e-13
1.19255e-12
2.1197e-12
3.4367e-12
5.23897e-12
7.718e-12
1.12687e-11
1.69959e-11
2.69331e-11
4.04435e-11
7.08702e-11
3.96566e-10
5.29443e-10
1.16754e-10
6.1197e-06
2.88694e-05
1.50138e-14
8.6438e-14
3.17933e-13
8.70021e-13
1.91419e-12
3.54908e-12
5.76906e-12
8.53389e-12
1.19701e-11
1.6652e-11
2.41774e-11
3.63696e-11
5.05941e-11
8.9634e-11
6.1907e-10
7.00543e-10
1.26883e-10
1.67116e-06
6.72372e-06
1.25799e-14
8.08449e-14
3.49704e-13
1.13189e-12
2.86455e-12
5.82611e-12
9.89262e-12
1.46541e-11
1.99112e-11
2.66593e-11
3.7928e-11
5.62083e-11
7.6048e-11
1.43448e-10
8.37769e-10
1.25351e-09
6.17234e-10
3.99721e-10
3.99718e-10
8.11627e-15
5.93286e-14
3.15582e-13
1.27584e-12
3.91344e-12
9.13934e-12
1.68309e-11
2.57659e-11
3.47436e-11
4.49002e-11
6.29042e-11
9.81122e-11
1.43954e-10
4.33926e-10
1.21802e-09
1.35742e-09
8.47501e-10
4.03571e-10
1.2916e-09
3.76398e-15
3.33803e-14
2.25402e-13
1.18108e-12
4.60763e-12
1.26054e-11
2.58458e-11
4.2039e-11
5.80634e-11
7.37705e-11
1.00056e-10
1.62281e-10
3.46799e-10
8.50068e-10
1.20519e-09
1.2211e-09
5.57841e-10
3.88072e-10
2.87295e-09
1.19817e-15
1.45342e-14
1.32581e-13
9.05239e-13
4.55058e-12
1.44714e-11
3.33732e-11
5.922e-11
8.53837e-11
1.10811e-10
1.50102e-10
2.23443e-10
4.71054e-10
8.68411e-10
9.23595e-10
5.64711e-10
3.85489e-10
3.86597e-10
2.37498e-09
2.47403e-16
4.80284e-15
6.16167e-14
5.57129e-13
3.61518e-12
1.31756e-11
3.52677e-11
7.11478e-11
1.15614e-10
1.53331e-10
2.04251e-10
3.0281e-10
3.59305e-10
5.86177e-10
5.62284e-09
5.70649e-10
4.44345e-07
5.24008e-08
2.42684e-09
2.77425e-17
9.84384e-16
1.79037e-14
2.04564e-13
2.07452e-12
8.91339e-12
3.07556e-11
7.06074e-11
1.37247e-10
2.27553e-10
2.99771e-10
3.95848e-10
4.39592e-10
4.40059e-10
4.41946e-10
3.22761e-07
1.0415e-06
1.0415e-06
2.14302e-07
)
;

boundaryField
{
    leftWall
    {
        type            zeroGradient;
    }
    rightWall
    {
        type            zeroGradient;
    }
    lowerWall
    {
        type            zeroGradient;
    }
    atmosphere
    {
        type            inletOutlet;
        inletValue      uniform 0;
        value           nonuniform List<scalar> 
46
(
4.9439e-26
2.67301e-26
2.61378e-26
1.77548e-26
8.35892e-27
2.82742e-27
6.80717e-28
1.16482e-28
0
0
0
0
0
0
0
0
0
0
0
0
0
0
0
0
0
0
0
0
0
0
0
0
0
0
0
0
0
0
3.95848e-10
4.39592e-10
4.40059e-10
4.41946e-10
3.22761e-07
1.0415e-06
1.0415e-06
2.14302e-07
)
;
    }
    defaultFaces
    {
        type            empty;
    }
}


// ************************************************************************* //
