/*--------------------------------*- C++ -*----------------------------------*\
| =========                 |                                                 |
| \\      /  F ield         | OpenFOAM: The Open Source CFD Toolbox           |
|  \\    /   O peration     | Version:  2.3.0                                 |
|   \\  /    A nd           | Web:      www.OpenFOAM.org                      |
|    \\/     M anipulation  |                                                 |
\*---------------------------------------------------------------------------*/
FoamFile
{
    version     2.0;
    format      ascii;
    class       volScalarField;
    location    "2.15";
    object      k;
}
// * * * * * * * * * * * * * * * * * * * * * * * * * * * * * * * * * * * * * //

dimensions      [0 2 -2 0 0 0 0];

internalField   nonuniform List<scalar> 
2268
(
0.00185777
0.0040382
0.00588946
0.00740393
0.00871418
0.00989365
0.0109873
0.0120239
0.0130284
0.0140252
0.0150386
0.0160859
0.0171701
0.0182688
0.0193225
0.0202241
0.0208593
0.0210386
0.0204044
0.0189279
0.016231
0.0116993
0.0048382
0.00353654
0.00913054
0.0131024
0.0163879
0.0192474
0.0218297
0.024228
0.026507
0.0287224
0.0309279
0.033174
0.0354977
0.0379082
0.0403671
0.0427635
0.0448933
0.0464475
0.0470307
0.0459965
0.0431718
0.0378388
0.0280769
0.0116198
0.00469423
0.012019
0.0169452
0.0210593
0.0246739
0.027954
0.0310103
0.0339281
0.0367772
0.0396254
0.0425353
0.0455542
0.0486963
0.0519185
0.0550899
0.0579674
0.0601826
0.0612784
0.060608
0.0576519
0.0514203
0.0396735
0.0170414
0.00564533
0.014249
0.0198551
0.0245408
0.0286813
0.0324562
0.0359882
0.0393775
0.0427043
0.0460469
0.0494779
0.0530537
0.0567951
0.0606597
0.0645039
0.0680542
0.0709178
0.0725869
0.072435
0.0697674
0.0634447
0.0508498
0.0227718
0.00648592
0.016177
0.0223627
0.0275145
0.032082
0.0362636
0.0401944
0.0439864
0.0477312
0.051516
0.0554237
0.059521
0.0638374
0.0683348
0.0728523
0.0771003
0.0806613
0.0829924
0.0834877
0.08139
0.0754478
0.0625028
0.0295228
0.00726902
0.0179377
0.024655
0.0302175
0.0351571
0.0396963
0.0439838
0.0481433
0.0522783
0.0564855
0.0608586
0.0654763
0.0703788
0.0755337
0.0807619
0.0857626
0.0900879
0.0931759
0.0944295
0.0931324
0.0880069
0.0753967
0.0374681
0.00802398
0.019602
0.0268233
0.0327611
0.0380369
0.0429012
0.0475186
0.0520254
0.0565377
0.0611614
0.066003
0.0711545
0.0766688
0.0825184
0.0885097
0.0943265
0.0994843
0.103409
0.10551
0.105189
0.101306
0.0900745
0.0487687
0.0087553
0.0212221
0.0289223
0.0352075
0.0407921
0.0459574
0.0508852
0.0557269
0.0606111
0.0656527
0.0709721
0.076677
0.082834
0.089418
0.096228
0.102925
0.108974
0.113775
0.116799
0.117551
0.115248
0.106969
0.0720373
0.00714034
0.0132472
0.0185444
0.0214606
0.0221525
0.0222276
0.0222532
0.0219273
0.0203926
0.0172762
0.013928
0.0113021
0.00940986
0.00762563
0.0061777
0.00580902
0.00582336
0.00565646
0.00435267
0.0132258
0.0264007
0.0383033
0.0446469
0.0469676
0.0475404
0.0474575
0.046457
0.0434231
0.0378018
0.0311371
0.0258639
0.0216779
0.0176164
0.0139892
0.0126831
0.0122484
0.0111034
0.00698283
0.0157513
0.033423
0.0478519
0.0561935
0.0594636
0.0602352
0.0598647
0.0582001
0.0543124
0.0479533
0.0406627
0.0344262
0.0291027
0.0240381
0.0197148
0.0176852
0.016648
0.0147849
0.00885638
0.016714
0.0381528
0.0550085
0.0649718
0.0688158
0.0695382
0.0687436
0.0663916
0.0617828
0.0550122
0.0474958
0.0408224
0.0348835
0.0292897
0.0246449
0.0221435
0.0207458
0.0182145
0.0105035
0.0169817
0.0422068
0.0617766
0.0730821
0.0770771
0.0774604
0.0760832
0.0729899
0.0676963
0.0606012
0.0529941
0.0461135
0.0398388
0.0340019
0.0292736
0.0265236
0.0248379
0.0215318
0.0119851
0.0185917
0.0468917
0.0692527
0.0813902
0.0849503
0.0846491
0.0825168
0.0786246
0.0726665
0.0652979
0.0576943
0.050742
0.0443198
0.0384293
0.0337432
0.0308714
0.0288761
0.0246897
0.0133175
0.0241804
0.0544667
0.0786202
0.090299
0.0926555
0.0912997
0.0882531
0.0835222
0.0769345
0.0693695
0.0618765
0.0549661
0.048534
0.0427056
0.0380963
0.0351112
0.0327127
0.0276012
0.0144857
0.0392696
0.0676838
0.0902001
0.0994773
0.100001
0.0973869
0.0933135
0.0877397
0.080588
0.0729377
0.0657056
0.0589619
0.0526168
0.0469057
0.0423504
0.0391778
0.0362193
0.0301568
0.0154589
0.00989572
0.0237578
0.0321569
0.0389433
0.0449724
0.0505769
0.0559657
0.0613104
0.0667606
0.0724484
0.0785192
0.0851067
0.0922997
0.100075
0.10823
0.11639
0.123914
0.130129
0.134614
0.137148
0.137412
0.134451
0.123351
0.0114849
0.0273397
0.0365397
0.0438884
0.0504256
0.056562
0.0625409
0.0685627
0.074785
0.081366
0.0884946
0.096347
0.105035
0.114531
0.124679
0.135077
0.144758
0.152751
0.158794
0.163087
0.165711
0.166299
0.163559
0.0138471
0.0314384
0.0412597
0.0489776
0.0558873
0.0624729
0.0689899
0.0757035
0.0826985
0.0901592
0.0983431
0.107476
0.117651
0.12883
0.141049
0.154112
0.166224
0.175648
0.182575
0.187907
0.191831
0.193494
0.190989
0.0163301
0.0362788
0.0462663
0.0541905
0.0614273
0.0684285
0.0754046
0.0828607
0.090554
0.0988392
0.108063
0.11846
0.12998
0.142554
0.156824
0.173774
0.188665
0.19817
0.204959
0.210738
0.215487
0.215989
0.207167
0.0189174
0.0394032
0.0497025
0.0581334
0.0658591
0.0732978
0.0806593
0.088601
0.0971292
0.106222
0.116549
0.128074
0.140442
0.153818
0.170456
0.191709
0.203761
0.208967
0.213754
0.218455
0.221252
0.217599
0.206097
0.0182637
0.0389078
0.0510051
0.0608603
0.0689409
0.0764742
0.0843451
0.0927006
0.101834
0.112042
0.123204
0.135193
0.147503
0.160751
0.176922
0.1931
0.2043
0.209412
0.213198
0.215
0.213836
0.208754
0.199948
0.0170404
0.0378367
0.0508058
0.0613585
0.070192
0.0784558
0.0869718
0.0959271
0.1059
0.116756
0.128104
0.13984
0.151622
0.164145
0.178542
0.190318
0.200146
0.207906
0.212619
0.213369
0.210409
0.204615
0.197456
0.0161623
0.0370079
0.0501456
0.0609667
0.0704251
0.0794669
0.088772
0.0983656
0.108669
0.119254
0.130005
0.141087
0.152441
0.164511
0.177459
0.186915
0.193986
0.200525
0.205115
0.207534
0.208121
0.206088
0.199524
0.0163086
0.0372737
0.0504381
0.0611017
0.0706285
0.0798519
0.0892751
0.0989666
0.108978
0.119117
0.129552
0.140633
0.151668
0.162568
0.17335
0.181462
0.186722
0.191225
0.194549
0.197269
0.199258
0.201168
0.196821
0.0171627
0.0387068
0.0516628
0.0619437
0.0711104
0.0799304
0.0888814
0.0980486
0.107457
0.117117
0.127442
0.138961
0.150066
0.15966
0.168371
0.174989
0.179046
0.182189
0.184494
0.186476
0.187416
0.187634
0.185205
0.0182897
0.0406694
0.0533258
0.0631309
0.0717692
0.0799743
0.088186
0.096588
0.105247
0.114298
0.12413
0.13514
0.146365
0.155778
0.163088
0.168251
0.171262
0.173351
0.175025
0.176361
0.176384
0.175131
0.172634
0.0193967
0.0425526
0.0549116
0.0642551
0.0723607
0.0799497
0.0874361
0.0950545
0.102933
0.111229
0.120186
0.129971
0.140093
0.149335
0.15628
0.160745
0.163152
0.164693
0.166099
0.167051
0.166607
0.164743
0.161858
0.02049
0.0439735
0.0560737
0.0650116
0.072646
0.0796961
0.0865568
0.0934743
0.100607
0.108084
0.116029
0.124471
0.133094
0.141153
0.147669
0.152029
0.154529
0.156157
0.157498
0.158161
0.157488
0.155463
0.152461
0.0213117
0.0448499
0.0566704
0.0652371
0.072458
0.0790487
0.0853876
0.0917103
0.0981675
0.104856
0.111828
0.119048
0.126293
0.133097
0.138845
0.14307
0.145825
0.147662
0.148931
0.149381
0.148644
0.146691
0.143835
0.0217435
0.0451114
0.0566365
0.0648629
0.0717208
0.0779189
0.0838186
0.0896365
0.0955044
0.101492
0.107615
0.113819
0.119943
0.125693
0.130692
0.134622
0.137428
0.139334
0.140515
0.140858
0.140163
0.138424
0.13587
0.0217766
0.0447478
0.0559584
0.0638724
0.070411
0.0762707
0.0817961
0.0871849
0.092551
0.0979462
0.10337
0.108768
0.114022
0.118941
0.123289
0.126848
0.129527
0.131383
0.132488
0.132794
0.132207
0.130739
0.128556
0.0214238
0.0437799
0.0546552
0.0622825
0.0685414
0.074109
0.0793141
0.084339
0.0892839
0.0941902
0.0990526
0.103823
0.108414
0.112693
0.116502
0.119691
0.122165
0.123913
0.124955
0.12527
0.124819
0.123633
0.121839
0.0207081
0.0422503
0.0527696
0.0601339
0.0661489
0.0714655
0.0763973
0.0811149
0.0857091
0.0902163
0.0946314
0.0989149
0.102998
0.106785
0.110164
0.113025
0.115288
0.116919
0.117913
0.118265
0.117967
0.117056
0.115631
0.0196687
0.0402236
0.0503661
0.0574861
0.0632878
0.0683892
0.073089
0.0775485
0.0818523
0.0860345
0.0900923
0.0939942
0.0976859
0.101095
0.104139
0.10673
0.108807
0.110336
0.111308
0.11172
0.111582
0.110931
0.109842
0.0183705
0.0377907
0.04753
0.0544156
0.0600268
0.064943
0.0694472
0.0736917
0.0777564
0.0816742
0.0854456
0.0890465
0.0924351
0.0955514
0.0983304
0.100711
0.102645
0.104105
0.105079
0.105571
0.105595
0.105187
0.104403
0.0168859
0.0350673
0.0443655
0.0510144
0.0564501
0.0612055
0.0655455
0.0696127
0.073482
0.0771857
0.0807287
0.0840911
0.0872371
0.0901233
0.0927016
0.0949261
0.0967606
0.0981827
0.0991848
0.0997713
0.0999586
0.0997769
0.0992686
0.0153516
0.0321349
0.0409786
0.0473858
0.0526575
0.0572736
0.0614769
0.0653995
0.0691106
0.0726412
0.0759973
0.0791662
0.0821223
0.0848326
0.0872615
0.0893752
0.091147
0.0925603
0.0936099
0.0943009
0.0946483
0.0946772
0.0944197
0.0138007
0.0290995
0.0374773
0.043658
0.0487737
0.0532645
0.0573512
0.0611534
0.0647348
0.0681252
0.0713324
0.0743493
0.0771581
0.0797354
0.0820554
0.084094
0.0858319
0.0872574
0.0883671
0.0891657
0.0896661
0.0898881
0.089856
0.0122176
0.0260164
0.0339792
0.0399511
0.0449287
0.0493116
0.0533003
0.0570032
0.0604788
0.0637559
0.0668444
0.0697416
0.0724365
0.0749134
0.0771547
0.0791436
0.080867
0.0823167
0.0834906
0.084393
0.0850339
0.0854285
0.0855949
0.0106806
0.0230904
0.0306571
0.0364258
0.0412796
0.0455701
0.0494765
0.0530966
0.0564845
0.0596684
0.0626601
0.0654611
0.0680657
0.0704646
0.0726467
0.0746011
0.0763193
0.077796
0.0790301
0.0800251
0.0807885
0.0813314
0.0816673
0.0093334
0.0206002
0.027739
0.0332917
0.0380186
0.0422197
0.0460493
0.0495942
0.0529038
0.0560057
0.0589133
0.0616316
0.0641593
0.0664922
0.0686241
0.0705491
0.072262
0.0737598
0.0750424
0.0761124
0.0769752
0.0776388
0.0781128
0.0083098
0.0187159
0.0254356
0.0307568
0.0353408
0.0394411
0.0431871
0.0466531
0.0498834
0.0529044
0.0557306
0.0583694
0.0608234
0.0630921
0.0651735
0.067065
0.0687644
0.0702704
0.0715835
0.0727058
0.0736411
0.0743949
0.0749737
0.00766697
0.0174981
0.0238625
0.0289603
0.0333918
0.0373772
0.0410261
0.0444018
0.0475436
0.050476
0.0532146
0.0557686
0.0581434
0.0603415
0.0623641
0.0642111
0.0658825
0.0673786
0.0687002
0.0698491
0.0708279
0.0716402
0.0722902
0.00738117
0.01692
0.0230368
0.0279509
0.0322394
0.0361055
0.0396469
0.0429201
0.0459606
0.0487924
0.0514318
0.0538898
0.0561741
0.0582897
0.06024
0.0620272
0.0636528
0.0651182
0.0664246
0.0675735
0.0685668
0.0694065
0.070095
0.00739001
0.0169142
0.0229118
0.0277062
0.0318817
0.0356387
0.0390715
0.0422345
0.045163
0.0478818
0.0504089
0.0527574
0.0549374
0.0569561
0.0588187
0.0605291
0.0620901
0.063504
0.0647721
0.0658959
0.0668764
0.0677148
0.0684119
0.00763264
0.0174074
0.0234189
0.0281711
0.0322782
0.0359488
0.0392811
0.0423328
0.0451423
0.0477377
0.0501402
0.0523662
0.0544281
0.0563353
0.0580949
0.0597123
0.0611913
0.0625345
0.0637438
0.0648203
0.0657644
0.0665763
0.0672558
0.00806837
0.0183442
0.0245018
0.0292948
0.0333849
0.036998
0.040243
0.0431855
0.0458714
0.0483349
0.0506021
0.0526934
0.0546245
0.0564071
0.0580501
0.0595602
0.060942
0.0621987
0.063332
0.064343
0.0652315
0.065997
0.066638
0.00868128
0.0197036
0.0261389
0.0310563
0.0351805
0.0387638
0.0419326
0.0447668
0.0473235
0.0496458
0.0517668
0.053712
0.0555005
0.0571467
0.0586615
0.0600525
0.061325
0.0624826
0.0635268
0.064458
0.065276
0.065979
0.0665646
0.00948014
0.0215077
0.0283559
0.0334777
0.0376797
0.0412517
0.044347
0.0470663
0.0494827
0.0516512
0.0536133
0.0554001
0.0570348
0.0585343
0.0599109
0.0611734
0.0623274
0.0633759
0.0643202
0.0651611
0.0658974
0.0665267
0.0670454
0.0104984
0.0238291
0.0312328
0.0366313
0.0409384
0.0444995
0.0475076
0.0500928
0.0523491
0.0543454
0.0561325
0.0577475
0.059217
0.0605601
0.0617904
0.062917
0.0639442
0.0648756
0.0657131
0.0664567
0.0671047
0.0676537
0.0680989
0.0117982
0.0268018
0.0349141
0.0406425
0.0450523
0.0485733
0.0514568
0.0538719
0.0559373
0.0577368
0.0593297
0.0607578
0.0620508
0.0632288
0.0643059
0.0652886
0.0661831
0.066993
0.0677197
0.0683626
0.0689193
0.0693854
0.0697551
0.0134827
0.0306485
0.0396256
0.0456928
0.0501488
0.0535559
0.0562466
0.0584373
0.0602717
0.0618456
0.0632235
0.0644501
0.0655559
0.0665613
0.0674768
0.0683111
0.06907
0.0697564
0.0703708
0.0709122
0.0713776
0.0717619
0.0720582
0.0157278
0.0357345
0.0456928
0.0520042
0.0563581
0.0595168
0.0619138
0.063813
0.0653765
0.0667004
0.0678467
0.0688597
0.0697701
0.070594
0.0713439
0.0720278
0.07265
0.0732124
0.0737151
0.0741562
0.0745325
0.0748386
0.0750671
0.0188638
0.0426413
0.0535045
0.0597518
0.063723
0.0664367
0.0684215
0.0699731
0.0712544
0.0723325
0.073246
0.0740414
0.074749
0.0753885
0.0759717
0.0765046
0.0769902
0.0774292
0.0778213
0.0781643
0.0784551
0.0786882
0.0788563
0.0236018
0.052065
0.0632058
0.0687675
0.071969
0.0740332
0.0755225
0.0767377
0.0778323
0.0787684
0.0794879
0.0800725
0.0805791
0.081035
0.0814516
0.0818336
0.0821826
0.0824988
0.0827813
0.0830282
0.0832365
0.0834017
0.0835173
0.031423
0.0637192
0.07373
0.0779015
0.0800725
0.0814258
0.0824643
0.0835099
0.0847956
0.0860391
0.0866758
0.0870719
0.0873829
0.0876567
0.0879069
0.0881375
0.088349
0.0885413
0.0887135
0.0888642
0.0889912
0.0890915
0.0891603
0.0427265
0.0736527
0.0815354
0.0843827
0.0857831
0.0866699
0.0874761
0.0886589
0.0909492
0.0943593
0.09502
0.0952166
0.0953271
0.0954172
0.0954991
0.0955751
0.0956453
0.0957094
0.0957671
0.0958177
0.0958607
0.0958947
0.0959179
0.0988975
0.0859629
0.0787743
0.0749679
0.158103
0.153501
0.149018
0.144959
0.185777
0.182656
0.180455
0.177063
0.196792
0.191358
0.187092
0.182781
0.196027
0.190477
0.185799
0.181548
0.192556
0.18844
0.184917
0.18143
0.191279
0.187705
0.18485
0.182591
0.191816
0.187567
0.184443
0.181897
0.189245
0.18497
0.181713
0.17872
0.181036
0.178348
0.17584
0.173264
0.169669
0.167595
0.16539
0.16298
0.158952
0.156893
0.154687
0.152365
0.149635
0.147657
0.145535
0.143302
0.141244
0.139455
0.137539
0.135516
0.133585
0.132021
0.130351
0.128582
0.126598
0.125255
0.123823
0.122304
0.120206
0.119071
0.117858
0.116568
0.114299
0.11336
0.11235
0.11127
0.108785
0.108028
0.107206
0.106321
0.103597
0.103008
0.102359
0.101652
0.0986906
0.0982548
0.0977641
0.0972203
0.094047
0.09375
0.0934025
0.0930058
0.0896663
0.0894934
0.0892735
0.0890079
0.0855653
0.0855011
0.0853931
0.0852422
0.0817738
0.0818025
0.08179
0.0817369
0.0783304
0.0784353
0.0785012
0.0785287
0.0752768
0.0754406
0.0755676
0.0756581
0.072653
0.0728586
0.0730292
0.0731652
0.0704929
0.0707235
0.0709211
0.0710856
0.068822
0.0690623
0.0692712
0.0694485
0.0676586
0.0678954
0.0681022
0.0682788
0.0670171
0.0672392
0.0674324
0.0675965
0.0669073
0.0671059
0.0672767
0.0674192
0.0673428
0.0675121
0.0676544
0.0677691
0.068346
0.0684829
0.0685934
0.0686771
0.0699511
0.0700549
0.0701334
0.0701858
0.0722054
0.0722785
0.0723274
0.0723513
0.0751712
0.0752178
0.0752422
0.0752435
0.0789251
0.0789513
0.0789582
0.0789451
0.0835593
0.0835718
0.0835691
0.0835507
0.0891828
0.0891876
0.0891824
0.0891672
0.0959249
0.0959258
0.0959232
0.0959172
0.0829444
0.0975299
0.110331
0.113436
0.110543
0.105761
0.100054
0.0931706
0.0853194
0.0777984
0.0712156
0.0649808
0.0589149
0.0534125
0.0488492
0.0450727
0.0406228
0.0328694
0.0162528
0.137853
0.133892
0.132035
0.127393
0.120689
0.113479
0.106125
0.0982367
0.0900971
0.0829609
0.0772844
0.0721374
0.0668444
0.0617
0.0568822
0.0516084
0.0449338
0.0353311
0.0170371
0.16774
0.155531
0.146581
0.137534
0.128037
0.118774
0.110191
0.102009
0.094075
0.0874257
0.0824531
0.078193
0.0738005
0.0689954
0.0633318
0.056334
0.047813
0.036583
0.0173048
0.17529
0.166818
0.157841
0.146553
0.134524
0.122948
0.113343
0.105273
0.0977425
0.0916242
0.087022
0.0829829
0.0788382
0.0740198
0.0677037
0.0597552
0.0501077
0.0377063
0.0178341
0.175557
0.168894
0.160422
0.148252
0.135805
0.12447
0.114988
0.10748
0.101193
0.0960526
0.0918132
0.0872588
0.0822531
0.07674
0.0700324
0.0621531
0.0525834
0.0392284
0.0197487
0.176205
0.168702
0.159259
0.148053
0.136575
0.125788
0.116783
0.109523
0.103694
0.099297
0.0960061
0.0919416
0.0854015
0.0779262
0.0701775
0.0623892
0.0534491
0.0392693
0.0206816
0.179069
0.170511
0.158691
0.146679
0.135736
0.125863
0.117571
0.110771
0.105219
0.100752
0.097257
0.0934121
0.0880009
0.0797212
0.0702377
0.0612269
0.0503954
0.0351378
0.0168288
0.177876
0.16895
0.157342
0.145507
0.134904
0.125631
0.117774
0.111142
0.105478
0.100713
0.0967896
0.0928716
0.087732
0.081297
0.0713886
0.059559
0.0465329
0.0307611
0.0138705
0.173929
0.165223
0.154728
0.143978
0.134077
0.125259
0.117724
0.111116
0.10497
0.0995711
0.0951735
0.0910963
0.0860747
0.0800606
0.0712739
0.059403
0.0455835
0.0303046
0.0137373
0.168778
0.160628
0.150567
0.140636
0.131744
0.123567
0.116195
0.109368
0.102942
0.097425
0.0930775
0.0890262
0.0838491
0.077316
0.0691572
0.0584906
0.045758
0.031254
0.0141284
0.158859
0.151711
0.143145
0.134481
0.126502
0.119146
0.112282
0.105756
0.0997594
0.0945478
0.0901861
0.0860293
0.0807128
0.0744665
0.0671174
0.0576572
0.0459704
0.032085
0.0143374
0.148423
0.141969
0.13467
0.127238
0.120269
0.113808
0.107657
0.101718
0.0962272
0.0912317
0.086696
0.0822614
0.0772698
0.0715534
0.0649945
0.0565395
0.0456878
0.0323861
0.0143853
0.139463
0.133576
0.127267
0.120839
0.114648
0.10879
0.103188
0.0977912
0.0926986
0.0878665
0.0832583
0.078698
0.0738863
0.0686312
0.0626962
0.0549779
0.0447284
0.0318413
0.0141963
0.131996
0.126675
0.121096
0.115435
0.109895
0.10455
0.0993859
0.0943737
0.0895235
0.0847787
0.0801202
0.0754923
0.0707555
0.065779
0.0602435
0.0530399
0.0433356
0.030852
0.0138565
0.125476
0.120771
0.115853
0.11085
0.105893
0.101033
0.0962565
0.0915216
0.0868343
0.0821597
0.07746
0.0727549
0.0680102
0.0631325
0.0577827
0.0509821
0.0418824
0.0299656
0.0139522
0.119621
0.115533
0.111233
0.106828
0.102407
0.0980021
0.0935946
0.0891315
0.0846158
0.0800379
0.0753586
0.0705921
0.0657858
0.0608932
0.0556037
0.049187
0.0408377
0.0299078
0.0144565
0.11428
0.110773
0.107049
0.103197
0.0992763
0.095304
0.0912589
0.0870895
0.0827863
0.0783499
0.0737603
0.0690168
0.0641861
0.0592684
0.054049
0.048017
0.0405378
0.0307248
0.0152317
0.109348
0.106377
0.103186
0.0998471
0.0963979
0.0928429
0.0891565
0.0852957
0.0812437
0.0770011
0.0725633
0.0679393
0.0631832
0.0583303
0.0532513
0.0476052
0.0409183
0.0321083
0.0161381
0.104734
0.102258
0.0995597
0.0966969
0.0936915
0.0905379
0.087206
0.0836619
0.0798891
0.0758868
0.0716596
0.0672279
0.0626431
0.0579486
0.0530746
0.0477841
0.0416625
0.033581
0.0170919
0.100374
0.098348
0.0961012
0.0936773
0.0910869
0.0883165
0.0853339
0.0821111
0.078635
0.0749052
0.0709326
0.0667451
0.0623931
0.0579187
0.0532802
0.0482896
0.042536
0.0347886
0.0179443
0.0962223
0.0946035
0.092766
0.0907415
0.0885333
0.0861237
0.0834811
0.08058
0.0774094
0.0739712
0.0702802
0.0663683
0.0622822
0.0580571
0.053657
0.0489076
0.0433778
0.0357503
0.0185731
0.0922605
0.0910052
0.0895346
0.0878692
0.0860083
0.0839327
0.0816136
0.0790271
0.076163
0.0730247
0.069629
0.0660077
0.0622013
0.0582337
0.0540622
0.0495072
0.0441095
0.0364807
0.019005
0.0884874
0.087553
0.086407
0.0850613
0.0835124
0.0817419
0.0797242
0.0774379
0.0748732
0.0720335
0.0689357
0.0656081
0.0620822
0.0583686
0.0544116
0.0500188
0.0447016
0.0370111
0.0192743
0.0849183
0.0842627
0.0833996
0.0823346
0.0810627
0.0795669
0.0778254
0.0758194
0.0735397
0.0709892
0.0681822
0.0651415
0.0618878
0.0584173
0.0546595
0.0504065
0.0451437
0.0373682
0.0193894
0.0815807
0.0811623
0.0805411
0.0797182
0.078688
0.0774356
0.0759426
0.0741927
0.0721778
0.0698993
0.0673679
0.0645989
0.0616019
0.058358
0.054782
0.0506507
0.0454284
0.0375673
0.019376
0.0785108
0.0782881
0.0778681
0.077249
0.076425
0.0753833
0.0741086
0.0725873
0.0708117
0.0687816
0.0665031
0.0639838
0.0612214
0.0581833
0.0547697
0.0507442
0.0455564
0.0376328
0.0193248
0.0757489
0.0756808
0.0754217
0.074968
0.074314
0.0734489
0.07236
0.071036
0.0694697
0.0676588
0.0656047
0.0633071
0.0607527
0.0578961
0.0546249
0.0506929
0.0455437
0.0375992
0.0192618
0.073335
0.0733814
0.0732434
0.0729169
0.072396
0.0716718
0.0707339
0.0695729
0.0681818
0.0665564
0.0646935
0.0625854
0.060209
0.0575079
0.0543595
0.0505111
0.0454085
0.0374837
0.019159
0.071306
0.071428
0.0713726
0.0711354
0.0707106
0.0700904
0.0692668
0.0682316
0.0669784
0.0655011
0.0637926
0.0618388
0.0596085
0.0570361
0.0539913
0.0502172
0.0451635
0.037281
0.0190246
0.0696929
0.0698547
0.0698456
0.0696609
0.0692949
0.0687413
0.0679936
0.0670451
0.0658896
0.0645201
0.0629265
0.0610896
0.0589719
0.0565011
0.0535413
0.0498318
0.0448229
0.0369821
0.0188661
0.0685241
0.0686928
0.0686957
0.0685283
0.068185
0.0676604
0.0669491
0.0660462
0.064946
0.0636416
0.0621208
0.0603614
0.0583215
0.0559245
0.0530303
0.0493756
0.0444069
0.0365978
0.018662
0.0678224
0.0679696
0.0679546
0.0677722
0.0674172
0.0668846
0.0661701
0.0652699
0.0641804
0.0628953
0.0614027
0.0596789
0.0576802
0.055327
0.0524776
0.0488665
0.0439362
0.0361529
0.0183641
0.0676102
0.0677132
0.0676554
0.0674305
0.0670324
0.0664563
0.0656985
0.064757
0.0636304
0.0623153
0.0608022
0.059069
0.0570716
0.05473
0.051901
0.0483182
0.0434221
0.0356687
0.0179953
0.0679144
0.0679571
0.067838
0.0675486
0.0670808
0.0664283
0.0655878
0.0645591
0.0633439
0.0619441
0.0603557
0.0585621
0.0565225
0.0541573
0.0513221
0.0477494
0.0428804
0.035179
0.0176729
0.0687711
0.0687448
0.0685536
0.0681853
0.0676278
0.0668714
0.0659109
0.0647472
0.0633864
0.0618384
0.0601105
0.0581967
0.0560643
0.0536372
0.05077
0.0471919
0.0423452
0.0347131
0.0174225
0.0702284
0.0701327
0.0698684
0.0694176
0.0687615
0.0678833
0.0667719
0.0654263
0.0638562
0.0620828
0.0601325
0.0580216
0.0557347
0.0532021
0.0502762
0.0466814
0.0418542
0.0342801
0.0171566
0.072348
0.0721924
0.0718661
0.071344
0.0705975
0.0695977
0.0683207
0.0667551
0.0649092
0.0628146
0.0605272
0.0581063
0.0555775
0.052884
0.049871
0.0462485
0.0414367
0.0339005
0.0168467
0.0752053
0.0750099
0.0746469
0.074084
0.0732807
0.072191
0.070768
0.068974
0.0667995
0.0642728
0.0614812
0.0585629
0.0556504
0.0527136
0.0495756
0.0459155
0.0411243
0.0336302
0.0166597
0.0788878
0.0786818
0.0783219
0.0777704
0.076977
0.0758765
0.0743907
0.0724352
0.069941
0.0668887
0.0633539
0.0595829
0.0560326
0.0527228
0.0494076
0.0456977
0.040937
0.0335093
0.0166679
0.0834922
0.0833105
0.0830032
0.0825336
0.0818488
0.0808734
0.079502
0.0775923
0.0749658
0.0714411
0.0668844
0.0614824
0.0568155
0.0529316
0.0493734
0.0456011
0.0408831
0.0335489
0.0168362
0.0891242
0.0890002
0.0887944
0.08848
0.0880163
0.0873397
0.0863499
0.0848835
0.082666
0.079214
0.0736546
0.0646391
0.0580114
0.053306
0.049449
0.0456069
0.0409347
0.0337119
0.0171526
0.0959016
0.0958589
0.095789
0.0956827
0.0955253
0.0952933
0.0949451
0.0944013
0.0934817
0.0916673
0.0869716
0.0687004
0.059231
0.0536644
0.0495516
0.0456561
0.0410002
0.0338009
0.0173755
)
;

boundaryField
{
    leftWall
    {
        type            kqRWallFunction;
        value           nonuniform List<scalar> 
50
(
0.00185777
0.00353654
0.00469423
0.00564533
0.00648592
0.00726902
0.00802398
0.0087553
0.00989572
0.0114849
0.0138471
0.0163301
0.0189174
0.0182637
0.0170404
0.0161623
0.0163086
0.0171627
0.0182897
0.0193967
0.02049
0.0213117
0.0217435
0.0217766
0.0214238
0.0207081
0.0196687
0.0183705
0.0168859
0.0153516
0.0138007
0.0122176
0.0106806
0.0093334
0.0083098
0.00766697
0.00738117
0.00739001
0.00763264
0.00806837
0.00868128
0.00948014
0.0104984
0.0117982
0.0134827
0.0157278
0.0188638
0.0236018
0.031423
0.0427265
)
;
    }
    rightWall
    {
        type            kqRWallFunction;
        value           nonuniform List<scalar> 
50
(
0.00435267
0.00698283
0.00885638
0.0105035
0.0119851
0.0133175
0.0144857
0.0154589
0.0162528
0.0170371
0.0173048
0.0178341
0.0197487
0.0206816
0.0168288
0.0138705
0.0137373
0.0141284
0.0143374
0.0143853
0.0141963
0.0138565
0.0139522
0.0144565
0.0152317
0.0161381
0.0170919
0.0179443
0.0185731
0.019005
0.0192743
0.0193894
0.019376
0.0193248
0.0192618
0.019159
0.0190246
0.0188661
0.018662
0.0183641
0.0179953
0.0176729
0.0174225
0.0171566
0.0168467
0.0166597
0.0166679
0.0168362
0.0171526
0.0173755
)
;
    }
    lowerWall
    {
        type            kqRWallFunction;
        value           nonuniform List<scalar> 
62
(
0.00185777
0.0040382
0.00588946
0.00740393
0.00871418
0.00989365
0.0109873
0.0120239
0.0130284
0.0140252
0.0150386
0.0160859
0.0171701
0.0182688
0.0193225
0.0202241
0.0208593
0.0210386
0.0204044
0.0189279
0.016231
0.0116993
0.0048382
0.0048382
0.0116198
0.0170414
0.0227718
0.0295228
0.0374681
0.0487687
0.0720373
0.0988975
0.0859629
0.0787743
0.0749679
0.00714034
0.0132258
0.0157513
0.016714
0.0169817
0.0185917
0.0241804
0.0392696
0.00714034
0.0132472
0.0185444
0.0214606
0.0221525
0.0222276
0.0222532
0.0219273
0.0203926
0.0172762
0.013928
0.0113021
0.00940986
0.00762563
0.0061777
0.00580902
0.00582336
0.00565646
0.00435267
)
;
    }
    atmosphere
    {
        type            inletOutlet;
        inletValue      uniform 0.1;
        value           nonuniform List<scalar> 
46
(
0.0427265
0.0736527
0.0815354
0.0843827
0.0857831
0.0866699
0.0874761
0.0886589
0.0909492
0.1
0.1
0.1
0.1
0.1
0.1
0.1
0.1
0.1
0.1
0.1
0.1
0.1
0.1
0.1
0.1
0.1
0.1
0.1
0.1
0.1
0.1
0.1
0.1
0.1
0.1
0.1
0.1
0.1
0.0687004
0.059231
0.0536644
0.0495516
0.0456561
0.0410002
0.0338009
0.0173755
)
;
    }
    defaultFaces
    {
        type            empty;
    }
}


// ************************************************************************* //
