/*--------------------------------*- C++ -*----------------------------------*\
| =========                 |                                                 |
| \\      /  F ield         | OpenFOAM: The Open Source CFD Toolbox           |
|  \\    /   O peration     | Version:  2.3.0                                 |
|   \\  /    A nd           | Web:      www.OpenFOAM.org                      |
|    \\/     M anipulation  |                                                 |
\*---------------------------------------------------------------------------*/
FoamFile
{
    version     2.0;
    format      ascii;
    class       surfaceScalarField;
    location    "2.15";
    object      phi;
}
// * * * * * * * * * * * * * * * * * * * * * * * * * * * * * * * * * * * * * //

dimensions      [0 3 -1 0 0 0 0];

internalField   nonuniform List<scalar> 
4432
(
-1.23323e-06
1.23323e-06
-1.76442e-06
5.31183e-07
-1.9323e-06
1.67896e-07
-1.9697e-06
3.74012e-08
-1.97534e-06
5.63535e-09
-1.96451e-06
-1.08233e-08
-1.92783e-06
-3.66796e-08
-1.8581e-06
-6.97297e-08
-1.75405e-06
-1.04036e-07
-1.61943e-06
-1.3463e-07
-1.45848e-06
-1.60946e-07
-1.27632e-06
-1.82152e-07
-1.08048e-06
-1.9585e-07
-8.85944e-07
-1.9453e-07
-7.23068e-07
-1.6288e-07
-6.46395e-07
-7.66896e-08
-7.31844e-07
8.54596e-08
-1.09947e-06
3.6761e-07
-2.24723e-06
1.14776e-06
-3.79199e-06
1.54478e-06
-4.55422e-06
7.62216e-07
-3.35869e-06
-1.19552e-06
-3.3587e-06
-9.84604e-07
2.21784e-06
-1.29133e-06
8.37903e-07
-1.46165e-06
3.38217e-07
-1.56906e-06
1.44819e-07
-1.63483e-06
7.14079e-08
-1.66126e-06
1.56053e-08
-1.64472e-06
-5.31965e-08
-1.58218e-06
-1.32288e-07
-1.47555e-06
-2.10649e-07
-1.33042e-06
-2.79765e-07
-1.15415e-06
-3.37219e-07
-9.54355e-07
-3.81937e-07
-7.40351e-07
-4.0987e-07
-5.26069e-07
-4.08824e-07
-3.36814e-07
-3.5213e-07
-2.16433e-07
-1.971e-07
-2.28954e-07
9.7993e-08
-4.75526e-07
6.1419e-07
-9.99569e-07
1.67177e-06
-1.71808e-06
2.26333e-06
-2.38648e-06
1.43058e-06
-2.29978e-06
-1.28221e-06
-5.65848e-06
-6.55003e-07
2.87285e-06
-9.48096e-07
1.13099e-06
-1.15048e-06
5.40591e-07
-1.30502e-06
2.99374e-07
-1.41274e-06
1.79126e-07
-1.47036e-06
7.32304e-08
-1.47286e-06
-5.06926e-08
-1.41881e-06
-1.86346e-07
-1.31184e-06
-3.1761e-07
-1.15921e-06
-4.32393e-07
-9.69837e-07
-5.26604e-07
-7.52763e-07
-5.99003e-07
-5.17703e-07
-6.44937e-07
-2.76806e-07
-6.49731e-07
-5.01338e-08
-5.78796e-07
1.27761e-07
-3.75011e-07
2.05571e-07
2.01866e-08
1.30869e-07
6.88906e-07
2.33264e-09
1.8003e-06
-2.83498e-07
2.54918e-06
-7.54687e-07
1.90176e-06
-1.08002e-06
-9.56872e-07
-6.7385e-06
-3.85622e-07
3.25848e-06
-6.78591e-07
1.42396e-06
-9.13566e-07
7.7556e-07
-1.10817e-06
4.9399e-07
-1.25395e-06
3.24902e-07
-1.34146e-06
1.60745e-07
-1.36358e-06
-2.85677e-08
-1.31878e-06
-2.31153e-07
-1.21164e-06
-4.24748e-07
-1.05062e-06
-5.93411e-07
-8.45788e-07
-7.31442e-07
-6.0706e-07
-8.37725e-07
-3.4393e-07
-9.08069e-07
-6.6086e-08
-9.2758e-07
2.11971e-07
-8.56845e-07
4.64396e-07
-6.27442e-07
6.54232e-07
-1.69648e-07
7.58836e-07
5.84314e-07
8.79633e-07
1.67949e-06
9.08002e-07
2.52082e-06
6.70612e-07
2.13913e-06
2.22794e-07
-5.09052e-07
-6.5157e-06
-1.91144e-07
3.44962e-06
-4.70384e-07
1.7032e-06
-7.32389e-07
1.03756e-06
-9.63213e-07
7.24818e-07
-1.14525e-06
5.06948e-07
-1.26279e-06
2.78284e-07
-1.30547e-06
1.41216e-08
-1.27065e-06
-2.65986e-07
-1.16315e-06
-5.32243e-07
-9.92143e-07
-7.64414e-07
-7.68493e-07
-9.55093e-07
-5.02652e-07
-1.10356e-06
-2.03634e-07
-1.20709e-06
1.21671e-07
-1.25289e-06
4.64527e-07
-1.19969e-06
8.07671e-07
-9.70588e-07
1.12708e-06
-4.8906e-07
1.41668e-06
2.94731e-07
1.73527e-06
1.36089e-06
2.01859e-06
2.23751e-06
2.00933e-06
2.14839e-06
1.40272e-06
9.75652e-08
-5.11298e-06
-6.04212e-08
3.51004e-06
-3.20903e-07
1.96369e-06
-6.02849e-07
1.3195e-06
-8.65669e-07
9.87643e-07
-1.08192e-06
7.23201e-07
-1.22918e-06
4.25546e-07
-1.29304e-06
7.79901e-08
-1.26882e-06
-2.90216e-07
-1.16089e-06
-6.40167e-07
-9.785e-07
-9.46803e-07
-7.32896e-07
-1.2007e-06
-4.34875e-07
-1.40158e-06
-9.30396e-08
-1.54892e-06
2.88429e-07
-1.63436e-06
7.064e-07
-1.61766e-06
1.15131e-06
-1.4155e-06
1.60953e-06
-9.47275e-07
2.08e-06
-1.75737e-07
2.59687e-06
8.44008e-07
3.09909e-06
1.73529e-06
3.30681e-06
1.94068e-06
2.63143e-06
7.72947e-07
-2.48155e-06
1.74617e-08
3.49257e-06
-2.24996e-07
2.20615e-06
-5.20583e-07
1.61509e-06
-8.10163e-07
1.27723e-06
-1.05706e-06
9.70106e-07
-1.23231e-06
6.00791e-07
-1.31708e-06
1.62762e-07
-1.30392e-06
-3.03382e-07
-1.19591e-06
-7.4817e-07
-1.00157e-06
-1.14115e-06
-7.32029e-07
-1.47024e-06
-3.98349e-07
-1.73526e-06
-9.08202e-09
-1.93819e-06
4.33753e-07
-2.0772e-06
9.31929e-07
-2.11583e-06
1.48226e-06
-1.96582e-06
2.07895e-06
-1.54397e-06
2.72386e-06
-8.20635e-07
3.43752e-06
1.30344e-07
4.16101e-06
1.01181e-06
4.62355e-06
1.47815e-06
3.99315e-06
1.40335e-06
1.5116e-06
5.83711e-08
3.43419e-06
-1.72519e-07
2.43704e-06
-4.7762e-07
1.92019e-06
-7.87383e-07
1.58699e-06
-1.05906e-06
1.24179e-06
-1.25847e-06
8.00196e-07
-1.36254e-06
2.66835e-07
-1.36065e-06
-3.05279e-07
-1.25346e-06
-8.55359e-07
-1.04774e-06
-1.34686e-06
-7.54036e-07
-1.76394e-06
-3.83688e-07
-2.1056e-06
5.40415e-08
-2.37591e-06
5.58235e-07
-2.58139e-06
1.13454e-06
-2.69213e-06
1.78474e-06
-2.61602e-06
2.50943e-06
-2.26866e-06
3.31396e-06
-1.62516e-06
4.21281e-06
-7.68507e-07
5.17241e-06
5.22166e-08
5.96907e-06
6.81496e-07
5.85475e-06
1.51767e-06
7.36633e-06
-8.08767e-06
8.08767e-06
-1.30288e-05
4.94118e-06
-1.16445e-05
-1.38436e-06
-8.98652e-06
-2.65795e-06
-6.83712e-06
-2.14941e-06
-4.92137e-06
-1.91576e-06
-2.67338e-06
-2.24799e-06
-7.88634e-08
-2.59451e-06
1.78484e-06
-1.86369e-06
9.61084e-07
8.23722e-07
-2.51386e-06
3.47496e-06
-5.73378e-06
3.21989e-06
-7.65452e-06
1.92075e-06
-9.78315e-06
2.12863e-06
-1.42548e-05
4.47161e-06
-1.67702e-05
2.5154e-06
-1.47503e-05
-2.01988e-06
-7.859e-06
-6.89129e-06
-7.85899e-06
-7.86942e-06
1.59571e-05
-9.54878e-06
6.62055e-06
-8.34109e-06
-2.59204e-06
-6.95914e-06
-4.03991e-06
-5.80511e-06
-3.30345e-06
-4.6631e-06
-3.05776e-06
-3.22182e-06
-3.68926e-06
-1.44752e-06
-4.36884e-06
-2.76042e-08
-3.28357e-06
-5.78506e-07
1.37461e-06
-3.02154e-06
5.91797e-06
-5.69269e-06
5.89102e-06
-7.8472e-06
4.07526e-06
-1.02593e-05
4.54079e-06
-1.28183e-05
7.03052e-06
-1.39035e-05
3.60065e-06
-1.23728e-05
-3.55056e-06
-7.46143e-06
-1.18027e-05
-1.53204e-05
-5.72241e-06
2.16795e-05
-6.31604e-06
7.21419e-06
-5.91955e-06
-2.98853e-06
-5.52242e-06
-4.43704e-06
-5.15693e-06
-3.66895e-06
-4.64111e-06
-3.57357e-06
-3.77333e-06
-4.557e-06
-2.56262e-06
-5.57956e-06
-1.56226e-06
-4.28394e-06
-1.87789e-06
1.69022e-06
-3.57537e-06
7.61545e-06
-5.6665e-06
7.98214e-06
-7.68817e-06
6.09694e-06
-9.50586e-06
6.35853e-06
-1.068e-05
8.20466e-06
-1.11219e-05
4.04252e-06
-1.00051e-05
-4.66735e-06
-6.32907e-06
-1.54787e-05
-2.16495e-05
-3.36324e-06
2.50427e-05
-3.5519e-06
7.40285e-06
-3.89432e-06
-2.64612e-06
-4.40253e-06
-3.92883e-06
-4.78523e-06
-3.28623e-06
-4.8535e-06
-3.50531e-06
-4.47887e-06
-4.93163e-06
-3.69445e-06
-6.36399e-06
-3.02386e-06
-4.95449e-06
-3.18828e-06
1.85466e-06
-4.32621e-06
8.7534e-06
-5.90928e-06
9.56521e-06
-7.72623e-06
7.91387e-06
-9.06158e-06
7.69389e-06
-9.33262e-06
8.47569e-06
-9.20407e-06
3.91397e-06
-7.98152e-06
-5.88988e-06
-4.90058e-06
-1.85597e-05
-2.65501e-05
-9.36575e-07
2.59793e-05
-8.99381e-07
7.36567e-06
-2.18055e-06
-1.36494e-06
-3.61671e-06
-2.49268e-06
-4.71885e-06
-2.1841e-06
-5.34574e-06
-2.87842e-06
-5.43646e-06
-4.8409e-06
-5.00932e-06
-6.79112e-06
-4.50194e-06
-5.46186e-06
-4.58934e-06
1.94206e-06
-5.28322e-06
9.44728e-06
-6.48835e-06
1.07704e-05
-7.92621e-06
9.35174e-06
-8.86066e-06
8.62836e-06
-8.57518e-06
8.19022e-06
-7.87335e-06
3.21214e-06
-6.24896e-06
-7.51426e-06
-3.65554e-06
-2.11531e-05
-3.02056e-05
1.82294e-06
2.41564e-05
1.37892e-06
7.8097e-06
-8.50805e-07
8.64778e-07
-3.22804e-06
-1.1544e-07
-4.99662e-06
-4.15534e-07
-6.14349e-06
-1.73155e-06
-6.68398e-06
-4.30041e-06
-6.59437e-06
-6.88073e-06
-6.16352e-06
-5.89271e-06
-6.12381e-06
1.90233e-06
-6.56092e-06
9.88438e-06
-7.3232e-06
1.15327e-05
-8.28392e-06
1.03125e-05
-8.80072e-06
9.14516e-06
-8.25271e-06
7.64221e-06
-6.98665e-06
1.94609e-06
-4.95914e-06
-9.54175e-06
-2.77065e-06
-2.33416e-05
-3.29762e-05
4.59606e-06
1.95604e-05
3.5986e-06
8.80714e-06
-1.96597e-08
4.48303e-06
-3.30046e-06
3.16538e-06
-5.6325e-06
1.91654e-06
-7.24036e-06
-1.23686e-07
-8.22354e-06
-3.31725e-06
-8.51762e-06
-6.58666e-06
-8.23358e-06
-6.17673e-06
-8.00514e-06
1.67389e-06
-7.91837e-06
9.79761e-06
-8.30118e-06
1.19155e-05
-8.75122e-06
1.07625e-05
-8.82792e-06
9.22187e-06
-8.03405e-06
6.84834e-06
-6.41266e-06
3.24702e-07
-4.19873e-06
-1.17557e-05
-2.13397e-06
-2.54064e-05
-3.51102e-05
8.05922e-06
1.15012e-05
5.24507e-06
1.16213e-05
1.17088e-07
9.61101e-06
-3.85343e-06
7.13587e-06
-6.59232e-06
4.65541e-06
-8.57785e-06
1.86184e-06
-9.98969e-06
-1.90541e-06
-1.07263e-05
-5.85002e-06
-1.07601e-05
-6.14301e-06
-1.02195e-05
1.13331e-06
-9.42762e-06
9.00577e-06
-9.25223e-06
1.17401e-05
-9.30187e-06
1.08121e-05
-8.90576e-06
8.82576e-06
-7.81572e-06
5.75829e-06
-6.03743e-06
-1.45358e-06
-3.72431e-06
-1.40688e-05
-1.69269e-06
-2.7438e-05
-3.68029e-05
1.97461e-07
3.23672e-06
-2.85054e-07
2.91955e-06
-9.58942e-07
2.59408e-06
-1.65781e-06
2.28586e-06
-2.28889e-06
1.87287e-06
-2.77135e-06
1.28265e-06
-3.04488e-06
5.40366e-07
-3.07718e-06
-2.72976e-07
-2.85629e-06
-1.07625e-06
-2.38688e-06
-1.81626e-06
-1.68791e-06
-2.46291e-06
-7.84161e-07
-3.00936e-06
2.96732e-07
-3.45681e-06
1.55008e-06
-3.83474e-06
2.99846e-06
-4.14051e-06
4.65814e-06
-4.2757e-06
6.55245e-06
-4.16297e-06
8.70647e-06
-3.77918e-06
1.11753e-05
-3.23737e-06
1.39561e-05
-2.72856e-06
1.69127e-05
-2.27506e-06
2.01154e-05
-1.68504e-06
-4.81721e-07
2.79634e-05
-1.84312e-07
3.42103e-06
-6.11397e-07
3.34664e-06
-1.14559e-06
3.12828e-06
-1.71696e-06
2.85723e-06
-2.25143e-06
2.40734e-06
-2.6948e-06
1.72603e-06
-2.99346e-06
8.39017e-07
-3.08538e-06
-1.81052e-07
-2.89454e-06
-1.26709e-06
-2.3887e-06
-2.3221e-06
-1.60873e-06
-3.24288e-06
-5.85202e-07
-4.03288e-06
6.39636e-07
-4.68165e-06
2.02176e-06
-5.21687e-06
3.55021e-06
-5.66895e-06
5.25998e-06
-5.98546e-06
7.27122e-06
-6.17421e-06
9.6691e-06
-6.17706e-06
1.24605e-05
-6.02875e-06
1.56817e-05
-5.94981e-06
1.93592e-05
-5.95252e-06
2.36109e-05
-5.93672e-06
-5.26014e-06
2.83893e-05
-1.18945e-06
4.61047e-06
-1.58697e-06
3.74419e-06
-1.75972e-06
3.30102e-06
-1.94037e-06
3.0379e-06
-2.14241e-06
2.60937e-06
-2.42455e-06
2.00818e-06
-2.77422e-06
1.18868e-06
-3.16762e-06
2.12357e-07
-3.11207e-06
-1.32265e-06
-2.54794e-06
-2.88623e-06
-1.68732e-06
-4.10351e-06
-5.40648e-07
-5.17956e-06
8.96437e-07
-6.11873e-06
2.40844e-06
-6.72887e-06
3.61723e-06
-6.87774e-06
4.65564e-06
-7.02387e-06
6.16979e-06
-7.68837e-06
8.46536e-06
-8.47262e-06
1.11942e-05
-8.75759e-06
1.42261e-05
-8.98178e-06
1.79107e-05
-9.63706e-06
2.31062e-05
-1.11323e-05
-1.09869e-05
2.8833e-05
-2.27498e-06
6.8855e-06
-7.98502e-06
9.45416e-06
-7.58635e-06
2.90236e-06
-5.42015e-06
8.71732e-07
-4.3528e-06
1.54203e-06
-3.57716e-06
1.23257e-06
-3.50704e-06
1.11856e-06
-6.20513e-06
2.91044e-06
-6.07944e-06
-1.44834e-06
-4.62451e-06
-4.34118e-06
-3.49115e-06
-5.23688e-06
-1.93704e-06
-6.73365e-06
7.44195e-07
-8.79996e-06
3.50864e-06
-9.49332e-06
3.91975e-06
-7.28884e-06
-6.61272e-07
-2.44289e-06
-2.2585e-06
-6.09114e-06
-6.02292e-07
-1.01288e-05
9.57636e-07
-1.03176e-05
1.50254e-06
-9.5267e-06
6.82582e-07
-8.81714e-06
4.31179e-08
-1.0493e-05
-1.13836e-05
4.39551e-07
-6.03022e-06
1.29157e-05
-1.38863e-05
1.73102e-05
-1.46699e-05
3.68608e-06
-1.41445e-05
3.46356e-07
-1.44412e-05
1.83878e-06
-1.49075e-05
1.69887e-06
-1.41686e-05
3.7972e-07
-1.43494e-05
3.09119e-06
-1.30698e-05
-2.72801e-06
-1.25141e-05
-4.89683e-06
-1.19799e-05
-5.77106e-06
-1.12694e-05
-7.44423e-06
-8.95324e-06
-1.11161e-05
-6.70504e-06
-1.17415e-05
-9.87652e-06
-4.11743e-06
-2.79199e-05
1.56005e-05
-3.3697e-05
-3.14223e-07
-3.35559e-05
-1.027e-05
-3.49823e-05
-8.89128e-06
-3.83067e-05
-6.20233e-06
-3.88811e-05
-8.24261e-06
-3.61279e-05
-1.32461e-05
-1.32196e-05
-3.42918e-05
-3.55623e-06
1.6472e-05
-4.10067e-06
1.78548e-05
-8.23995e-06
7.8254e-06
-1.38014e-05
5.90788e-06
-1.68385e-05
4.87601e-06
-1.78433e-05
2.70368e-06
-1.63141e-05
-1.14943e-06
-1.26734e-05
-5.49486e-07
-1.2368e-05
-3.03349e-06
-1.48365e-05
-2.42842e-06
-1.61621e-05
-4.44542e-06
-1.64708e-05
-7.1356e-06
-1.53084e-05
-1.22785e-05
-1.50389e-05
-1.2011e-05
-2.03064e-05
1.15001e-06
-2.5211e-05
2.0505e-05
-3.35442e-05
8.01893e-06
-3.83386e-05
-5.47566e-06
-4.31415e-05
-4.08845e-06
-4.88174e-05
-5.2652e-07
-5.10855e-05
-5.97469e-06
-5.19312e-05
-1.24004e-05
-1.10815e-05
-5.40692e-05
-1.6231e-06
1.80951e-05
-9.54457e-07
1.71862e-05
-4.39575e-06
1.12668e-05
-7.3057e-06
8.81801e-06
-9.55582e-06
7.12628e-06
-1.10753e-05
4.22326e-06
-1.32518e-05
1.02714e-06
-1.43236e-05
5.22316e-07
-1.74963e-05
1.39054e-07
-2.10456e-05
1.1208e-06
-2.49719e-05
-5.19174e-07
-2.47427e-05
-7.36474e-06
-2.31252e-05
-1.3896e-05
-2.32859e-05
-1.18504e-05
-2.24545e-05
3.18618e-07
-1.93209e-05
1.73715e-05
-2.40551e-05
1.27532e-05
-3.37695e-05
4.23864e-06
-4.25434e-05
4.68545e-06
-5.04102e-05
7.34023e-06
-5.8706e-05
2.32098e-06
-6.0445e-05
-1.06614e-05
-7.49128e-06
-6.40353e-05
1.17523e-06
1.69199e-05
1.80517e-06
1.65564e-05
7.27764e-08
1.29995e-05
-1.87259e-06
1.07636e-05
-3.68786e-06
8.94166e-06
-6.15391e-06
6.68941e-06
-9.58257e-06
4.45579e-06
-1.31719e-05
4.11151e-06
-1.78502e-05
4.81712e-06
-2.26185e-05
5.88904e-06
-2.67362e-05
3.59845e-06
-2.731e-05
-6.7909e-06
-2.6493e-05
-1.4713e-05
-2.51244e-05
-1.3219e-05
-2.18648e-05
-2.94095e-06
-1.77958e-05
1.33026e-05
-2.07322e-05
1.56896e-05
-2.55181e-05
9.0245e-06
-2.96414e-05
8.80854e-06
-3.6357e-05
1.40556e-05
-4.61446e-05
1.21081e-05
-5.93785e-05
2.57241e-06
8.05824e-07
-6.76756e-05
2.21024e-06
1.47098e-05
3.21605e-06
1.55508e-05
2.54385e-06
1.36718e-05
1.30604e-06
1.20015e-05
-2.82586e-07
1.05304e-05
-2.5879e-06
8.99478e-06
-5.7912e-06
7.65911e-06
-9.33036e-06
7.65053e-06
-1.31528e-05
8.63941e-06
-1.66638e-05
9.39997e-06
-1.96292e-05
6.56384e-06
-2.28051e-05
-3.61507e-06
-2.5591e-05
-1.19271e-05
-2.62745e-05
-1.25354e-05
-2.41551e-05
-5.06029e-06
-2.01661e-05
9.3135e-06
-2.11564e-05
1.668e-05
-2.30549e-05
1.09231e-05
-2.37629e-05
9.51605e-06
-2.50818e-05
1.53746e-05
-3.21137e-05
1.91394e-05
-4.51021e-05
1.55605e-05
1.30139e-05
-5.73106e-05
1.97673e-06
1.27332e-05
3.13878e-06
1.4389e-05
3.12573e-06
1.3685e-05
2.47369e-06
1.26537e-05
1.35437e-06
1.165e-05
-3.4082e-07
1.06901e-05
-2.6979e-06
1.00162e-05
-5.21047e-06
1.0163e-05
-7.5148e-06
1.09436e-05
-9.2805e-06
1.11656e-05
-1.1259e-05
8.54216e-06
-1.65619e-05
1.68779e-06
-2.29333e-05
-5.55559e-06
-2.58943e-05
-9.57429e-06
-2.65144e-05
-4.44021e-06
-2.37542e-05
6.5532e-06
-2.26838e-05
1.56096e-05
-2.25994e-05
1.0839e-05
-2.24804e-05
9.39663e-06
-2.17749e-05
1.46694e-05
-2.47703e-05
2.21349e-05
-3.12758e-05
2.20658e-05
1.98923e-05
-3.81544e-05
1.21283e-06
1.15205e-05
2.15894e-06
1.34431e-05
2.43383e-06
1.34103e-05
2.20351e-06
1.28841e-05
1.58459e-06
1.22691e-05
5.51538e-07
1.17233e-05
-8.70426e-07
1.14382e-05
-2.34554e-06
1.1638e-05
-3.51157e-06
1.21095e-05
-4.36404e-06
1.2018e-05
-5.92092e-06
1.00989e-05
-9.9754e-06
5.74225e-06
-1.61321e-05
6.01288e-07
-2.28441e-05
-2.86216e-06
-2.59466e-05
-1.33764e-06
-2.54864e-05
6.093e-06
-2.28543e-05
1.29773e-05
-2.19686e-05
9.95342e-06
-2.1659e-05
9.0868e-06
-2.13574e-05
1.43677e-05
-2.07935e-05
2.15713e-05
-2.1332e-05
2.26041e-05
2.01667e-05
-2.16067e-05
3.10626e-07
1.121e-05
8.33274e-07
1.29207e-05
1.1053e-06
1.31385e-05
1.10388e-06
1.28858e-05
8.52753e-07
1.25203e-05
3.54901e-07
1.22213e-05
-3.31832e-07
1.21249e-05
-1.0049e-06
1.23111e-05
-1.48132e-06
1.25859e-05
-1.88003e-06
1.24166e-05
-2.89426e-06
1.1113e-05
-5.56238e-06
8.41033e-06
-1.01452e-05
5.18422e-06
-1.58659e-05
2.85859e-06
-2.06326e-05
3.42927e-06
-2.20173e-05
7.47795e-06
-1.99883e-05
1.09486e-05
-1.96893e-05
9.65449e-06
-2.02931e-05
9.69033e-06
-2.0318e-05
1.43924e-05
-1.801e-05
1.92633e-05
-1.56245e-05
2.02188e-05
1.77951e-05
-1.32528e-05
-5.16959e-07
1.17271e-05
-4.86996e-07
1.2891e-05
-3.81073e-07
1.30326e-05
-3.31382e-07
1.28362e-05
-3.75523e-07
1.25646e-05
-5.19744e-07
1.23656e-05
-7.23912e-07
1.23291e-05
-8.84595e-07
1.24718e-05
-9.42321e-07
1.26437e-05
-1.04077e-06
1.25149e-05
-1.63716e-06
1.17094e-05
-3.34416e-06
1.01174e-05
-6.37523e-06
8.21546e-06
-1.03609e-05
6.84426e-06
-1.39919e-05
7.06005e-06
-1.5564e-05
9.04993e-06
-1.53068e-05
1.06915e-05
-1.59806e-05
1.03285e-05
-1.72526e-05
1.09624e-05
-1.67607e-05
1.39004e-05
-1.43741e-05
1.68763e-05
-1.1413e-05
1.72578e-05
1.49689e-05
-8.5868e-06
-1.18215e-06
1.29094e-05
-1.60182e-06
1.33108e-05
-1.72874e-06
1.31596e-05
-1.74269e-06
1.28503e-05
-1.71772e-06
1.25398e-05
-1.67894e-06
1.23269e-05
-1.61358e-06
1.22638e-05
-1.48395e-06
1.23421e-05
-1.29393e-06
1.24536e-05
-1.17562e-06
1.23966e-05
-1.42939e-06
1.19631e-05
-2.41634e-06
1.11044e-05
-4.27804e-06
1.00773e-05
-6.7822e-06
9.34857e-06
-9.15292e-06
9.43088e-06
-1.0451e-05
1.03481e-05
-1.09071e-05
1.11478e-05
-1.17575e-05
1.11791e-05
-1.2526e-05
1.17313e-05
-1.20085e-05
1.33831e-05
-1.00199e-05
1.48877e-05
-7.51671e-06
1.47544e-05
1.26004e-05
-5.14846e-06
-1.63968e-06
1.45492e-05
-2.40842e-06
1.40796e-05
-2.76192e-06
1.35133e-05
-2.89309e-06
1.29815e-05
-2.8916e-06
1.25384e-05
-2.79564e-06
1.2231e-05
-2.61341e-06
1.20816e-05
-2.34359e-06
1.20724e-05
-2.01675e-06
1.21268e-05
-1.74024e-06
1.21201e-05
-1.70881e-06
1.19317e-05
-2.13634e-06
1.15322e-05
-3.10783e-06
1.10491e-05
-4.4798e-06
1.07209e-05
-5.83018e-06
1.07813e-05
-6.69588e-06
1.12138e-05
-7.1524e-06
1.16044e-05
-7.67074e-06
1.16977e-05
-7.96706e-06
1.20278e-05
-7.37269e-06
1.27891e-05
-5.79325e-06
1.33083e-05
-3.80189e-06
1.2763e-05
1.08546e-05
-2.05621e-06
-1.87032e-06
1.64195e-05
-2.85625e-06
1.50655e-05
-3.38398e-06
1.40409e-05
-3.63866e-06
1.32363e-05
-3.7081e-06
1.26079e-05
-3.6326e-06
1.21556e-05
-3.43007e-06
1.18792e-05
-3.11504e-06
1.17575e-05
-2.72425e-06
1.17362e-05
-2.33901e-06
1.1735e-05
-2.08495e-06
1.16778e-05
-2.09047e-06
1.15379e-05
-2.4086e-06
1.13673e-05
-2.96062e-06
1.12732e-05
-3.52986e-06
1.13508e-05
-3.89074e-06
1.15749e-05
-4.04613e-06
1.17599e-05
-4.15081e-06
1.18024e-05
-4.02529e-06
1.19023e-05
-3.3305e-06
1.20943e-05
-2.03766e-06
1.20154e-05
-4.93365e-07
1.12187e-05
9.54576e-06
8.15484e-07
-1.87185e-06
1.82913e-05
-2.92755e-06
1.61213e-05
-3.55234e-06
1.46657e-05
-3.90751e-06
1.35916e-05
-4.06144e-06
1.27619e-05
-4.04493e-06
1.2139e-05
-3.87512e-06
1.17093e-05
-3.56996e-06
1.14524e-05
-3.16268e-06
1.13291e-05
-2.71225e-06
1.12847e-05
-2.30003e-06
1.12658e-05
-2.00527e-06
1.12434e-05
-1.86449e-06
1.12267e-05
-1.84214e-06
1.12508e-05
-1.83384e-06
1.13425e-05
-1.73173e-06
1.14729e-05
-1.52139e-06
1.15499e-05
-1.23954e-06
1.15206e-05
-7.82399e-07
1.14452e-05
8.69281e-09
1.13032e-05
1.12825e-06
1.08958e-05
2.35725e-06
9.98956e-06
8.54733e-06
3.35555e-06
-1.65429e-06
1.99457e-05
-2.63066e-06
1.70976e-05
-3.26821e-06
1.53034e-05
-3.68801e-06
1.40114e-05
-3.91925e-06
1.29931e-05
-3.97235e-06
1.2192e-05
-3.85679e-06
1.15936e-05
-3.58792e-06
1.11835e-05
-3.19252e-06
1.09338e-05
-2.71242e-06
1.08047e-05
-2.20104e-06
1.07545e-05
-1.70937e-06
1.07519e-05
-1.26507e-06
1.07826e-05
-8.58248e-07
1.08442e-05
-4.44866e-07
1.09293e-05
2.15259e-08
1.10064e-05
5.51757e-07
1.10199e-05
1.14046e-06
1.09321e-05
1.83863e-06
1.07472e-05
2.7105e-06
1.04314e-05
3.73159e-06
9.87469e-06
4.75931e-06
8.96175e-06
7.71385e-06
5.59266e-06
-1.25039e-06
2.11961e-05
-2.00485e-06
1.7852e-05
-2.5777e-06
1.58763e-05
-3.02555e-06
1.44593e-05
-3.31494e-06
1.32826e-05
-3.4279e-06
1.23049e-05
-3.36469e-06
1.15304e-05
-3.13704e-06
1.0956e-05
-2.76594e-06
1.05628e-05
-2.28114e-06
1.032e-05
-1.71839e-06
1.01918e-05
-1.11198e-06
1.01455e-05
-4.84296e-07
1.0155e-05
1.60965e-07
1.01991e-05
8.36243e-07
1.02544e-05
1.5553e-06
1.02874e-05
2.31882e-06
1.02566e-05
3.12217e-06
1.01289e-05
3.98182e-06
9.88751e-06
4.91338e-06
9.49972e-06
5.8845e-06
8.90339e-06
6.80037e-06
8.04572e-06
6.9492e-06
7.56494e-06
-7.47648e-07
2.19436e-05
-1.13297e-06
1.82374e-05
-1.59181e-06
1.63351e-05
-2.02834e-06
1.4896e-05
-2.34225e-06
1.35964e-05
-2.48487e-06
1.24475e-05
-2.45155e-06
1.14971e-05
-2.2524e-06
1.07571e-05
-1.90409e-06
1.02148e-05
-1.42788e-06
9.84403e-06
-8.47878e-07
9.61205e-06
-1.87647e-07
9.48537e-06
5.34633e-07
9.43273e-06
1.30916e-06
9.42465e-06
2.13274e-06
9.43099e-06
3.00215e-06
9.41805e-06
3.90868e-06
9.35011e-06
4.84115e-06
9.19633e-06
5.79512e-06
8.93332e-06
6.762e-06
8.53256e-06
7.70815e-06
7.95697e-06
8.57233e-06
7.18141e-06
6.22399e-06
9.29754e-06
-1.70829e-07
2.21145e-05
-3.25091e-07
1.83918e-05
-5.10174e-07
1.65203e-05
-8.77507e-07
1.52635e-05
-1.14629e-06
1.38649e-05
-1.2591e-06
1.256e-05
-1.21239e-06
1.14502e-05
-1.01406e-06
1.05586e-05
-6.75625e-07
9.87648e-06
-2.1065e-07
9.37924e-06
3.65799e-07
9.03576e-06
1.03829e-06
8.8129e-06
1.79293e-06
8.67794e-06
2.61855e-06
8.59898e-06
3.50531e-06
8.54422e-06
4.44204e-06
8.48125e-06
5.41406e-06
8.37798e-06
6.40458e-06
8.20566e-06
7.39783e-06
7.9399e-06
8.37415e-06
7.55611e-06
9.30147e-06
7.02961e-06
1.01368e-05
6.34619e-06
5.51984e-06
1.0841e-05
3.00428e-07
2.18142e-05
2.97886e-07
1.83944e-05
3.63937e-07
1.64547e-05
2.22824e-07
1.54046e-05
1.22177e-07
1.39654e-05
1.24396e-07
1.25577e-05
2.41645e-07
1.13326e-05
4.75095e-07
1.03248e-05
8.22942e-07
9.52847e-06
1.28123e-06
8.92096e-06
1.84388e-06
8.47319e-06
2.50294e-06
8.15382e-06
3.24932e-06
7.93138e-06
4.07329e-06
7.7749e-06
4.96356e-06
7.6539e-06
5.90633e-06
7.53843e-06
6.88455e-06
7.39971e-06
7.87872e-06
7.21146e-06
8.86818e-06
6.95046e-06
9.82922e-06
6.59514e-06
1.07322e-05
6.1267e-06
1.15436e-05
5.53495e-06
4.82969e-06
1.22338e-05
5.68478e-07
2.12459e-05
8.70024e-07
1.8093e-05
1.02172e-06
1.63035e-05
1.21801e-06
1.52082e-05
1.38735e-06
1.37964e-05
1.57626e-06
1.2369e-05
1.8105e-06
1.10983e-05
2.10858e-06
1.00266e-05
2.48306e-06
9.15387e-06
2.94142e-06
8.46258e-06
3.48679e-06
7.92787e-06
4.11844e-06
7.52217e-06
4.83245e-06
7.2173e-06
5.62209e-06
6.98526e-06
6.47742e-06
6.79862e-06
7.38518e-06
6.63074e-06
8.32864e-06
6.45629e-06
9.28828e-06
6.25184e-06
1.02426e-05
5.99619e-06
1.11675e-05
5.67021e-06
1.20362e-05
5.25798e-06
1.28206e-05
4.75053e-06
4.1541e-06
1.34961e-05
1.06231e-06
2.01835e-05
1.46815e-06
1.76874e-05
1.77091e-06
1.60008e-05
2.24342e-06
1.47354e-05
2.67413e-06
1.3366e-05
3.05211e-06
1.19913e-05
3.41155e-06
1.07389e-05
3.78371e-06
9.6544e-06
4.19282e-06
8.74474e-06
4.65594e-06
7.99944e-06
5.18394e-06
7.39987e-06
5.78235e-06
6.92375e-06
6.45212e-06
6.54754e-06
7.19005e-06
6.2474e-06
7.9889e-06
5.99984e-06
8.83762e-06
5.78208e-06
9.72152e-06
5.57238e-06
1.06229e-05
5.35039e-06
1.15216e-05
5.09738e-06
1.23953e-05
4.79631e-06
1.32201e-05
4.43304e-06
1.39717e-05
3.99886e-06
3.49728e-06
1.46284e-05
1.65751e-06
1.85259e-05
2.1991e-06
1.71461e-05
2.74665e-06
1.54526e-05
3.38145e-06
1.41004e-05
3.97675e-06
1.27708e-05
4.49393e-06
1.14741e-05
4.95602e-06
1.02768e-05
5.39484e-06
9.21553e-06
5.83857e-06
8.301e-06
6.30905e-06
7.5289e-06
6.82196e-06
6.88685e-06
7.38734e-06
6.35829e-06
8.0101e-06
5.92476e-06
8.69046e-06
5.56707e-06
9.42429e-06
5.26603e-06
1.02035e-05
5.00288e-06
1.10162e-05
4.75957e-06
1.18475e-05
4.51895e-06
1.268e-05
4.26485e-06
1.34939e-05
3.98234e-06
1.42682e-05
3.65868e-06
1.49816e-05
3.28541e-06
2.86416e-06
1.56147e-05
1.94672e-06
1.65793e-05
2.92516e-06
1.61679e-05
3.71356e-06
1.46634e-05
4.47771e-06
1.33361e-05
5.17819e-06
1.20703e-05
5.79278e-06
1.08594e-05
6.33516e-06
9.7343e-06
6.83179e-06
8.71885e-06
7.30937e-06
7.82339e-06
7.79071e-06
7.04746e-06
8.29371e-06
6.38368e-06
8.83121e-06
5.82067e-06
9.41106e-06
5.34487e-06
1.00365e-05
4.94167e-06
1.07063e-05
4.59618e-06
1.14155e-05
4.29362e-06
1.21556e-05
4.01956e-06
1.29146e-05
3.76e-06
1.36781e-05
3.50143e-06
1.44295e-05
3.23106e-06
1.51506e-05
2.93765e-06
1.58228e-05
2.61324e-06
2.25846e-06
1.64285e-05
1.98677e-06
1.45928e-05
3.34035e-06
1.48141e-05
4.39343e-06
1.36098e-05
5.31342e-06
1.24162e-05
6.122e-06
1.12616e-05
6.8259e-06
1.01554e-05
7.44231e-06
9.1178e-06
7.99528e-06
8.16591e-06
8.50966e-06
7.30903e-06
9.008e-06
6.54903e-06
9.50913e-06
5.88241e-06
1.00276e-05
5.30216e-06
1.05733e-05
4.79912e-06
1.1152e-05
4.36297e-06
1.17654e-05
3.98287e-06
1.24112e-05
3.64782e-06
1.3084e-05
3.34688e-06
1.3775e-05
3.06912e-06
1.44729e-05
2.80372e-06
1.5164e-05
2.54012e-06
1.58331e-05
2.26872e-06
1.64638e-05
1.98253e-06
1.68183e-06
1.70404e-05
1.87176e-06
1.27212e-05
3.45152e-06
1.32339e-05
4.72333e-06
1.23379e-05
5.79796e-06
1.13416e-05
6.72057e-06
1.03389e-05
7.5159e-06
9.35996e-06
8.20715e-06
8.42654e-06
8.81872e-06
7.55445e-06
9.37465e-06
6.75313e-06
9.89716e-06
6.02645e-06
1.04055e-05
5.37401e-06
1.09151e-05
4.79249e-06
1.14377e-05
4.27658e-06
1.19809e-05
3.81982e-06
1.25487e-05
3.41512e-06
1.31415e-05
3.05504e-06
1.37566e-05
2.7319e-06
1.43881e-05
2.43776e-06
1.50275e-05
2.16445e-06
1.5664e-05
1.90369e-06
1.6285e-05
1.64778e-06
1.68766e-05
1.39096e-06
1.13382e-06
1.74245e-05
1.7183e-06
1.10029e-05
3.37003e-06
1.15817e-05
4.76554e-06
1.09427e-05
5.95346e-06
1.01537e-05
6.97236e-06
9.31985e-06
7.85005e-06
8.48213e-06
8.61129e-06
7.66534e-06
9.28e-06
6.88583e-06
9.87927e-06
6.15386e-06
1.04307e-05
5.47498e-06
1.09533e-05
4.85134e-06
1.14632e-05
4.28263e-06
1.1973e-05
3.76687e-06
1.24918e-05
3.30102e-06
1.30255e-05
2.8814e-06
1.35767e-05
2.50381e-06
1.4145e-05
2.16365e-06
1.4727e-05
1.8558e-06
1.53169e-05
1.57467e-06
1.59063e-05
1.31432e-06
1.64851e-05
1.06903e-06
1.70415e-05
8.34557e-07
6.12216e-07
1.7563e-05
1.57405e-06
9.42864e-06
3.18914e-06
9.96639e-06
4.61322e-06
9.51886e-06
5.85316e-06
8.91359e-06
6.93053e-06
8.24224e-06
7.86649e-06
7.546e-06
8.68207e-06
6.84975e-06
9.39832e-06
6.16955e-06
1.00362e-05
5.51586e-06
1.06158e-05
4.89527e-06
1.11554e-05
4.31172e-06
1.16709e-05
3.76724e-06
1.21752e-05
3.2626e-06
1.26785e-05
2.79772e-06
1.31879e-05
2.37191e-06
1.37078e-05
1.98392e-06
1.42395e-05
1.63195e-06
1.47818e-05
1.31353e-06
1.53309e-05
1.02554e-06
1.5881e-05
7.64313e-07
1.64239e-05
5.26163e-07
1.69499e-05
3.0853e-07
1.13704e-07
1.74484e-05
1.43962e-06
7.98871e-06
2.9581e-06
8.44801e-06
4.34066e-06
8.13628e-06
5.57465e-06
7.67931e-06
6.66656e-06
7.15002e-06
7.62808e-06
6.58429e-06
8.47379e-06
6.00392e-06
9.22021e-06
5.42295e-06
9.88499e-06
4.85083e-06
1.04859e-05
4.29425e-06
1.10395e-05
3.75804e-06
1.15609e-05
3.24588e-06
1.20629e-05
2.76067e-06
1.25558e-05
2.30477e-06
1.30476e-05
1.88005e-06
1.35436e-05
1.48785e-06
1.40466e-05
1.12886e-06
1.45571e-05
8.03035e-07
1.50731e-05
5.09548e-07
1.55905e-05
2.46909e-07
1.61032e-05
1.34126e-08
1.66035e-05
-1.91796e-07
-3.65338e-07
1.70826e-05
1.3057e-06
6.68287e-06
2.69764e-06
7.05623e-06
3.99527e-06
6.83833e-06
5.17936e-06
6.49487e-06
6.2465e-06
6.08262e-06
7.20015e-06
5.63049e-06
8.04848e-06
5.15541e-06
8.80319e-06
4.66797e-06
9.47821e-06
4.17556e-06
1.00884e-05
3.68397e-06
1.06482e-05
3.19819e-06
1.11712e-05
2.72285e-06
1.16694e-05
2.2624e-06
1.2153e-05
1.82111e-06
1.263e-05
1.40295e-06
1.31063e-05
1.01143e-06
1.35857e-05
6.49421e-07
1.40696e-05
3.19002e-07
1.45577e-05
2.14125e-08
1.50473e-05
-2.42858e-07
1.55343e-05
-4.73654e-07
1.60126e-05
-6.70193e-07
-8.28012e-07
1.64752e-05
1.16727e-06
5.51566e-06
2.41813e-06
5.80531e-06
3.60621e-06
5.64979e-06
4.71064e-06
5.39016e-06
5.72226e-06
5.07091e-06
6.63873e-06
4.71398e-06
7.4633e-06
4.3307e-06
8.2036e-06
3.92748e-06
8.87009e-06
3.50894e-06
9.47463e-06
3.0794e-06
1.00294e-05
2.64342e-06
1.05461e-05
2.20607e-06
1.10356e-05
1.77282e-06
1.15072e-05
1.34937e-06
1.19688e-05
9.4133e-07
1.24261e-05
5.53947e-07
1.28836e-05
1.91892e-07
1.33434e-05
-1.40942e-07
1.38062e-05
-4.41535e-07
1.42708e-05
-7.07661e-07
1.47346e-05
-9.3751e-07
1.5193e-05
-1.12882e-06
-1.27613e-06
1.5641e-05
1.02472e-06
4.49102e-06
2.12783e-06
4.70181e-06
3.19274e-06
4.58448e-06
4.1982e-06
4.38461e-06
5.13176e-06
4.13746e-06
5.98751e-06
3.8583e-06
6.76555e-06
3.55263e-06
7.47057e-06
3.22246e-06
8.11018e-06
2.86942e-06
8.69355e-06
2.49612e-06
9.23054e-06
2.10644e-06
9.73101e-06
1.70553e-06
1.02042e-05
1.2995e-06
1.06585e-05
8.95012e-07
1.11009e-05
4.9887e-07
1.15371e-05
1.17669e-07
1.19714e-05
-2.42506e-07
1.24066e-05
-5.76304e-07
1.28442e-05
-8.79242e-07
1.32841e-05
-1.14765e-06
1.37247e-05
-1.37832e-06
1.41635e-05
-1.56773e-06
-1.70964e-06
1.45968e-05
8.80323e-07
3.61058e-06
1.8335e-06
3.74813e-06
2.76796e-06
3.64983e-06
3.66223e-06
3.49044e-06
4.50184e-06
3.29801e-06
5.27907e-06
3.08114e-06
5.99235e-06
2.83942e-06
6.64449e-06
2.57046e-06
7.24093e-06
2.27317e-06
7.78857e-06
1.9486e-06
8.29515e-06
1.59986e-06
8.76861e-06
1.23197e-06
9.21664e-06
8.51367e-07
9.64628e-06
4.6531e-07
1.00637e-05
8.14217e-08
1.04741e-05
-2.92746e-07
1.08816e-05
-6.50056e-07
1.12892e-05
-9.84055e-07
1.1699e-05
-1.28913e-06
1.21118e-05
-1.56049e-06
1.25272e-05
-1.79383e-06
1.2944e-05
-1.98465e-06
-2.12614e-06
1.33605e-05
7.34726e-07
2.87557e-06
1.53858e-06
2.94392e-06
2.33974e-06
2.84868e-06
3.11585e-06
2.71445e-06
3.85114e-06
2.56275e-06
4.53731e-06
2.39493e-06
5.17227e-06
2.20447e-06
5.75786e-06
1.98499e-06
6.29788e-06
1.73326e-06
6.79726e-06
1.44922e-06
7.26182e-06
1.1352e-06
7.69776e-06
7.95901e-07
8.11119e-06
4.37823e-07
8.50788e-06
6.85674e-08
8.893e-06
-3.03739e-07
9.27114e-06
-6.70912e-07
9.64613e-06
-1.0251e-06
1.00211e-05
-1.35907e-06
1.03983e-05
-1.66643e-06
1.07793e-05
-1.94155e-06
1.11649e-05
-2.17937e-06
1.1555e-05
-2.37474e-06
-2.52058e-06
1.19495e-05
5.85062e-07
2.29022e-06
1.24245e-06
2.28646e-06
1.91152e-06
2.17971e-06
2.56715e-06
2.05881e-06
3.19262e-06
1.9371e-06
3.77999e-06
1.80735e-06
4.32757e-06
1.6568e-06
4.83696e-06
1.47557e-06
5.31068e-06
1.25947e-06
5.75169e-06
1.00806e-06
6.16417e-06
7.22541e-07
6.55283e-06
4.07094e-07
6.9224e-06
6.81587e-08
7.27743e-06
-2.86523e-07
7.62217e-06
-6.48543e-07
7.96052e-06
-1.00934e-06
8.29595e-06
-1.36062e-06
8.63145e-06
-1.69467e-06
8.96951e-06
-2.00456e-06
9.31213e-06
-2.2842e-06
9.66083e-06
-2.52805e-06
1.00169e-05
-2.73067e-06
-2.885e-06
1.03814e-05
4.24695e-07
1.86542e-06
9.41411e-07
1.76986e-06
1.4841e-06
1.63706e-06
2.0215e-06
1.52121e-06
2.53614e-06
1.42216e-06
3.02122e-06
1.32204e-06