/*--------------------------------*- C++ -*----------------------------------*\
| =========                 |                                                 |
| \\      /  F ield         | OpenFOAM: The Open Source CFD Toolbox           |
|  \\    /   O peration     | Version:  2.3.0                                 |
|   \\  /    A nd           | Web:      www.OpenFOAM.org                      |
|    \\/     M anipulation  |                                                 |
\*---------------------------------------------------------------------------*/
FoamFile
{
    version     2.0;
    format      ascii;
    class       volVectorField;
    location    "2.15";
    object      U;
}
// * * * * * * * * * * * * * * * * * * * * * * * * * * * * * * * * * * * * * //

dimensions      [0 1 -1 0 0 0 0];

internalField   nonuniform List<vector> 
2268
(
(-0.0127333 0.00475752 0)
(-0.0182157 0.00177388 0)
(-0.0212715 0.000243354 0)
(-0.0222844 -0.000174051 0)
(-0.0224913 -0.000218376 0)
(-0.0224834 -0.000237516 0)
(-0.0222225 -0.00029588 0)
(-0.0216136 -0.000384926 0)
(-0.0206166 -0.000481412 0)
(-0.0192453 -0.000564393 0)
(-0.0175525 -0.000638611 0)
(-0.0155939 -0.000699814 0)
(-0.0134284 -0.000739025 0)
(-0.0111688 -0.00071871 0)
(-0.00904434 -0.000563805 0)
(-0.00752733 -0.000162301 0)
(-0.00742014 0.000579891 0)
(-0.00912781 0.00189016 0)
(-0.0172886 0.00604699 0)
(-0.0344035 0.00786967 0)
(-0.0506299 0.00329382 0)
(-0.0510938 -0.00695995 0)
(-0.0235037 -0.0137672 0)
(-0.0108597 0.00986309 0)
(-0.0135113 0.00391036 0)
(-0.0157901 0.00143438 0)
(-0.0173994 0.000503806 0)
(-0.0183718 0.000202208 0)
(-0.0189148 -5.12587e-06 0)
(-0.0189814 -0.0002686 0)
(-0.0185263 -0.000577788 0)
(-0.0175461 -0.000887485 0)
(-0.0160888 -0.00116149 0)
(-0.0142356 -0.0013914 0)
(-0.0120723 -0.00157286 0)
(-0.00968911 -0.00168617 0)
(-0.00720595 -0.00167227 0)
(-0.00481972 -0.00140555 0)
(-0.00290672 -0.000690419 0)
(-0.00214911 0.000646523 0)
(-0.00322041 0.00307552 0)
(-0.00732353 0.00845926 0)
(-0.0152291 0.0113455 0)
(-0.0243727 0.00645559 0)
(-0.0304641 -0.00766256 0)
(-0.0192669 -0.0268705 0)
(-0.00638495 0.0139899 0)
(-0.00966141 0.00537372 0)
(-0.0120283 0.00235869 0)
(-0.0141358 0.00116639 0)
(-0.0156356 0.000638171 0)
(-0.0166004 0.000209736 0)
(-0.0169533 -0.000301914 0)
(-0.0166533 -0.000872593 0)
(-0.0157157 -0.00142994 0)
(-0.0142087 -0.00191888 0)
(-0.0122319 -0.0023217 0)
(-0.00988946 -0.00263179 0)
(-0.00728561 -0.00282423 0)
(-0.00453565 -0.00282382 0)
(-0.0017993 -0.00246149 0)
(0.000626434 -0.00146341 0)
(0.00220659 0.00045063 0)
(0.00228644 0.00373435 0)
(0.00126649 0.00959364 0)
(-0.00112127 0.0132491 0)
(-0.00568067 0.00918253 0)
(-0.0126101 -0.00630327 0)
(-0.00904539 -0.0350425 0)
(-0.00278935 0.0168233 0)
(-0.00653297 0.00693082 0)
(-0.00912707 0.00352573 0)
(-0.0116598 0.00209842 0)
(-0.0136273 0.00131667 0)
(-0.014989 0.000596513 0)
(-0.015627 -0.000236058 0)
(-0.0154908 -0.00113495 0)
(-0.0146022 -0.00199815 0)
(-0.0130428 -0.00275079 0)
(-0.0109263 -0.0033665 0)
(-0.00836928 -0.00383848 0)
(-0.00548323 -0.00414153 0)
(-0.00237143 -0.00419342 0)
(0.000850795 -0.00379178 0)
(0.00396587 -0.00259531 0)
(0.00658604 -0.000252235 0)
(0.00820647 0.00363432 0)
(0.00955156 0.00958419 0)
(0.0107045 0.0138854 0)
(0.00976935 0.0110804 0)
(0.00434618 -0.00409431 0)
(0.00296175 -0.0373276 0)
(-0.000458504 0.0183175 0)
(-0.00406305 0.0084618 0)
(-0.00689025 0.00486598 0)
(-0.00978974 0.00324503 0)
(-0.0121927 0.00219871 0)
(-0.0139449 0.00114578 0)
(-0.0148771 -6.52697e-05 0)
(-0.0149161 -0.0013526 0)
(-0.0140812 -0.00257784 0)
(-0.0124604 -0.00364438 0)
(-0.0101768 -0.00451731 0)
(-0.00735618 -0.0051914 0)
(-0.00411346 -0.00564681 0)
(-0.000536732 -0.00580615 0)
(0.00330731 -0.00544842 0)
(0.00728213 -0.00417904 0)
(0.0111317 -0.00160036 0)
(0.0145258 0.00259549 0)
(0.018003 0.00844673 0)
(0.021876 0.0130931 0)
(0.0239344 0.011816 0)
(0.0207993 -0.00119316 0)
(0.0151007 -0.0325032 0)
(0.000895664 0.0188904 0)
(-0.00227117 0.00990641 0)
(-0.00527194 0.00633407 0)
(-0.00847828 0.00457801 0)
(-0.0112814 0.00327247 0)
(-0.0134127 0.00185705 0)
(-0.0146431 0.000217552 0)
(-0.0148666 -0.00151606 0)
(-0.0140906 -0.00316078 0)
(-0.0124013 -0.0045957 0)
(-0.0099257 -0.00577667 0)
(-0.00679498 -0.00670138 0)
(-0.00312707 -0.00736062 0)
(0.00100385 -0.007695 0)
(0.00557941 -0.00748089 0)
(0.0105389 -0.00628303 0)
(0.0157345 -0.00367502 0)
(0.0209741 0.000571829 0)
(0.0266061 0.00623072 0)
(0.032868 0.011032 0)
(0.037508 0.0113852 0)
(0.0371175 0.00261084 0)
(0.0278865 -0.0212201 0)
(0.00161982 0.0189266 0)
(-0.0011145 0.0112689 0)
(-0.00422311 0.00790555 0)
(-0.00767282 0.00608236 0)
(-0.0108242 0.00453353 0)
(-0.0133044 0.00273404 0)
(-0.014823 0.00062014 0)
(-0.0152348 -0.00161934 0)
(-0.0145249 -0.00374768 0)
(-0.0127677 -0.00561601 0)
(-0.0100863 -0.00716809 0)
(-0.00661421 -0.008404 0)
(-0.00247361 -0.00932854 0)
(0.00226945 -0.00991296 0)
(0.00763818 -0.00994697 0)
(0.013636 -0.00896478 0)
(0.0202009 -0.006521 0)
(0.027245 -0.00244046 0)
(0.035007 0.00291432 0)
(0.0435951 0.00775771 0)
(0.0508345 0.00966788 0)
(0.0538946 0.00662967 0)
(0.0440303 -0.00200618 0)
(0.00200758 0.0187105 0)
(-0.000482863 0.0125822 0)
(-0.00366042 0.00957342 0)
(-0.00728167 0.00774747 0)
(-0.0107021 0.00597724 0)
(-0.0134724 0.00378177 0)
(-0.015248 0.00115496 0)
(-0.0158434 -0.00165322 0)
(-0.0152104 -0.00434287 0)
(-0.0133956 -0.00673178 0)
(-0.0105106 -0.00874356 0)
(-0.00668974 -0.0103761 0)
(-0.00206273 -0.0116462 0)
(0.00330304 -0.0125648 0)
(0.0094575 -0.0129518 0)
(0.0164517 -0.012325 0)
(0.0242956 -0.0102321 0)
(0.0329862 -0.00652483 0)
(0.0427253 -0.00163351 0)
(0.0535954 0.00305919 0)
(0.0638336 0.00600994 0)
(0.070584 0.00825339 0)
(0.0726015 0.0285423 0)
(-0.0722317 0.0253823 0)
(-0.137951 0.0138952 0)
(-0.143557 -0.00886752 0)
(-0.114273 -0.0131138 0)
(-0.088953 -0.010024 0)
(-0.067032 -0.0085816 0)
(-0.0443554 -0.00975937 0)
(-0.0164096 -0.0112401 0)
(0.0113508 -0.00839579 0)
(0.0233244 0.00191326 0)
(-0.00290525 0.0129545 0)
(-0.0493094 0.0125059 0)
(-0.0782418 0.00708256 0)
(-0.0935556 0.00782973 0)
(-0.138681 0.016837 0)
(-0.19133 0.0078334 0)
(-0.191377 -0.0100017 0)
(-0.130556 -0.0274417 0)
(-0.0453964 -0.0263862 0)
(-0.0873739 0.0604044 0)
(-0.109862 0.0294752 0)
(-0.100805 -0.0101078 0)
(-0.0856197 -0.0179851 0)
(-0.0722083 -0.0148384 0)
(-0.0600954 -0.013461 0)
(-0.0461508 -0.01584 0)
(-0.0274965 -0.018452 0)
(-0.00658724 -0.0137413 0)
(0.00278951 0.00564969 0)
(-0.015426 0.0245864 0)
(-0.0504818 0.0237334 0)
(-0.0783572 0.0152998 0)
(-0.0994653 0.017254 0)
(-0.134889 0.0303381 0)
(-0.162836 0.0164226 0)
(-0.156544 -0.0138724 0)
(-0.118025 -0.0481064 0)
(-0.0467042 -0.0579424 0)
(-0.0731567 0.0909792 0)
(-0.0703084 0.0337414 0)
(-0.0686377 -0.0139905 0)
(-0.0643734 -0.0213314 0)
(-0.0609332 -0.0176217 0)
(-0.0566598 -0.0166576 0)
(-0.0493362 -0.0205023 0)
(-0.0370673 -0.0245975 0)
(-0.0219763 -0.0186755 0)
(-0.0150539 0.00752897 0)
(-0.0273992 0.0333109 0)
(-0.0527855 0.034071 0)
(-0.0767763 0.0250564 0)
(-0.0975953 0.026972 0)
(-0.117628 0.0377695 0)
(-0.129725 0.0191884 0)
(-0.126478 -0.0198601 0)
(-0.0988095 -0.0672661 0)
(-0.0384397 -0.0917636 0)
(-0.0516275 0.114999 0)
(-0.0351115 0.0354476 0)
(-0.0407757 -0.0143652 0)
(-0.0470175 -0.0211631 0)
(-0.0530298 -0.0175754 0)
(-0.0560937 -0.0177158 0)
(-0.0547438 -0.0234536 0)
(-0.0477683 -0.0292933 0)
(-0.0373474 -0.0225298 0)
(-0.0320902 0.00867496 0)
(-0.0401002 0.0401075 0)
(-0.0578654 0.04299 0)
(-0.0781508 0.034389 0)
(-0.0970653 0.0345985 0)
(-0.107329 0.0410178 0)
(-0.108946 0.0199597 0)
(-0.102449 -0.0252569 0)
(-0.0784497 -0.0835608 0)
(-0.0276543 -0.119021 0)
(-0.0267497 0.128464 0)
(-0.000914993 0.0353452 0)
(-0.0159632 -0.0108846 0)
(-0.03357 -0.0166381 0)
(-0.0487887 -0.0140459 0)
(-0.0588447 -0.0160892 0)
(-0.0632094 -0.0242165 0)
(-0.0610298 -0.0323015 0)
(-0.0539652 -0.0254563 0)
(-0.0495464 0.00928176 0)
(-0.0541468 0.0445259 0)
(-0.0662731 0.0498424 0)
(-0.0825617 0.0424106 0)
(-0.0978106 0.0401481 0)
(-0.10191 0.0409081 0)
(-0.0963724 0.0179313 0)
(-0.083557 -0.0321727 0)
(-0.0598659 -0.0968892 0)
(-0.0188883 -0.139147 0)
(0.000642645 0.127179 0)
(0.0327995 0.0366536 0)
(0.00549867 -0.00277636 0)
(-0.0249899 -0.0074279 0)
(-0.0487702 -0.0070465 0)
(-0.0652193 -0.0117732 0)
(-0.0750293 -0.0227155 0)
(-0.0775176 -0.0336305 0)
(-0.0732701 -0.0278508 0)
(-0.0688085 0.00939753 0)
(-0.0705809 0.0472203 0)
(-0.078111 0.0547119 0)
(-0.0894487 0.0482988 0)
(-0.0996251 0.0436501 0)
(-0.0996497 0.0388241 0)
(-0.089386 0.0128985 0)
(-0.0700476 -0.0411717 0)
(-0.0459578 -0.108061 0)
(-0.0126143 -0.154177 0)
(0.0363168 0.11106 0)
(0.0667032 0.0402644 0)
(0.0212904 0.0115644 0)
(-0.0222467 0.0064951 0)
(-0.0533109 0.00303874 0)
(-0.0751965 -0.0050162 0)
(-0.0900994 -0.0190003 0)
(-0.0975151 -0.0331942 0)
(-0.096935 -0.0296611 0)
(-0.0924866 0.00893117 0)
(-0.0898322 0.0483969 0)
(-0.0909766 0.0574782 0)
(-0.0976241 0.0518251 0)
(-0.102298 0.0450921 0)
(-0.0984667 0.035509 0)
(-0.0846759 0.00575755 0)
(-0.0616069 -0.0514436 0)
(-0.0370897 -0.118323 0)
(-0.00783242 -0.165872 0)
(0.0964696 0.070481 0)
(0.0956629 0.0493769 0)
(0.0277606 0.0339497 0)
(-0.026027 0.0248299 0)
(-0.0622264 0.0157683 0)
(-0.0882184 0.00401168 0)
(-0.107683 -0.0129243 0)
(-0.120303 -0.0305201 0)
(-0.124625 -0.0300294 0)
(-0.121133 0.00709655 0)
(-0.111816 0.0464059 0)
(-0.105093 0.0581118 0)
(-0.105654 0.0530811 0)
(-0.105507 0.0445325 0)
(-0.097489 0.0311005 0)
(-0.0808273 -0.00228363 0)
(-0.0561979 -0.062675 0)
(-0.031405 -0.128461 0)
(-0.00466169 -0.175085 0)
(0.00236953 0.0191924 0)
(3.72144e-06 0.0146537 0)
(-0.00334448 0.0122735 0)
(-0.00709806 0.0104939 0)
(-0.0107487 0.00841231 0)
(-0.0138097 0.00561404 0)
(-0.0158889 0.00217557 0)
(-0.0167457 -0.00158625 0)
(-0.0162532 -0.00526236 0)
(-0.0143786 -0.00861037 0)
(-0.0112066 -0.011499 0)
(-0.00687565 -0.0139129 0)
(-0.0015314 -0.0158711 0)
(0.00473526 -0.0174491 0)
(0.0119701 -0.0185427 0)
(0.0202653 -0.018679 0)
(0.0297487 -0.0174329 0)
(0.0405723 -0.014668 0)
(0.0529822 -0.0108773 0)
(0.0671067 -0.00704677 0)
(0.0824663 -0.00371201 0)
(0.0986535 0.00154495 0)
(0.123893 0.0175103 0)
(-0.000223847 0.0124173 0)
(-0.00193501 0.0148436 0)
(-0.00471294 0.0142786 0)
(-0.00774646 0.0129474 0)
(-0.0107563 0.0106966 0)
(-0.01343 0.00732434 0)
(-0.0154782 0.00303762 0)
(-0.0166211 -0.00172225 0)
(-0.0164362 -0.00645193 0)
(-0.0145469 -0.0108744 0)
(-0.0110525 -0.0147894 0)
(-0.00618465 -0.0181492 0)
(-0.000105751 -0.0209627 0)
(0.00697628 -0.0234125 0)
(0.0148083 -0.025521 0)
(0.0233542 -0.0267662 0)
(0.0331576 -0.0268543 0)
(0.0448951 -0.0256865 0)
(0.0588905 -0.0237737 0)
(0.0750224 -0.0220195 0)
(0.0933888 -0.02047 0)
(0.113903 -0.0185764 0)
(0.139544 -0.0169181 0)
(-0.00811344 0.0191474 0)
(-0.00687838 0.01739 0)
(-0.00884333 0.0162731 0)
(-0.00994587 0.0151315 0)
(-0.0109331 0.012884 0)
(-0.012246 0.00925413 0)
(-0.013982 0.00450531 0)
(-0.016186 -0.000916467 0)
(-0.0173831 -0.00682546 0)
(-0.0156311 -0.0126034 0)
(-0.0117301 -0.0176644 0)
(-0.00636454 -0.0220437 0)
(0.000684693 -0.0256247 0)
(0.00895512 -0.0286979 0)
(0.016502 -0.031552 0)
(0.0220795 -0.0333493 0)
(0.0284081 -0.034638 0)
(0.0382479 -0.0349362 0)
(0.0523387 -0.0343218 0)
(0.0676605 -0.0341307 0)
(0.0856572 -0.0335347 0)
(0.107609 -0.0319434 0)
(0.136739 -0.0243816 0)
(-0.0111837 0.0307093 0)
(-0.0298306 0.0285137 0)
(-0.0415429 0.0179337 0)
(-0.0345051 0.014382 0)
(-0.0256119 0.0146554 0)
(-0.0213328 0.0107726 0)
(-0.0190163 0.00644297 0)
(-0.0251206 0.00578471 0)
(-0.0341433 -0.00585239 0)
(-0.0294132 -0.0176688 0)
(-0.0219069 -0.0235758 0)
(-0.0151766 -0.0299533 0)
(-0.00391442 -0.0368182 0)
(0.0118266 -0.0410188 0)
(0.0212206 -0.0400974 0)
(0.0113776 -0.0344319 0)
(-0.00764539 -0.0367816 0)
(-0.0126524 -0.0489787 0)
(0.00206886 -0.0524161 0)
(0.00578533 -0.054792 0)
(0.0128186 -0.0558364 0)
(0.006628 -0.0663317 0)
(-0.00567797 -0.0815433 0)
(-0.0249104 0.0522341 0)
(-0.0608699 0.0692121 0)
(-0.0755897 0.0168697 0)
(-0.0760712 5.13585e-06 0)
(-0.0772594 0.00462725 0)
(-0.0785696 0.00670174 0)
(-0.0784059 0.00740276 0)
(-0.0793163 0.0220526 0)
(-0.0718449 -0.0139041 0)
(-0.0677362 -0.0300142 0)
(-0.0663968 -0.036559 0)
(-0.0629968 -0.046153 0)
(-0.053869 -0.0617523 0)
(-0.040513 -0.0655631 0)
(-0.0368175 -0.0374393 0)
(-0.101679 0.0166867 0)
(-0.173652 -0.0397003 0)
(-0.175979 -0.0698153 0)
(-0.182496 -0.0638229 0)
(-0.19481 -0.0489395 0)
(-0.211763 -0.0524122 0)
(-0.203756 -0.0775788 0)
(-0.189262 -0.069787 0)
(-0.013192 0.0832583 0)
(-0.0203434 0.100513 0)
(-0.0321926 0.0278287 0)
(-0.0611206 0.00888031 0)
(-0.0865453 0.0152661 0)
(-0.0945238 0.00995086 0)
(-0.0901295 -0.00154536 0)
(-0.0777232 0.00442258 0)
(-0.06596 -0.014277 0)
(-0.0720589 -0.023003 0)
(-0.0846041 -0.0296224 0)
(-0.0886139 -0.0413161 0)
(-0.0839908 -0.0627988 0)
(-0.0794131 -0.0610051 0)
(-0.0863554 -0.00931893 0)
(-0.121349 0.110079 0)
(-0.16632 0.0234879 0)
(-0.188804 -0.042632 0)
(-0.218932 -0.0423292 0)
(-0.249385 -0.0330842 0)
(-0.268625 -0.0455924 0)
(-0.27786 -0.0674623 0)
(-0.284849 -0.0652966 0)
(-0.00845659 0.100297 0)
(-0.00406306 0.102224 0)
(-0.0111221 0.0542339 0)
(-0.0316241 0.0436476 0)
(-0.0459655 0.0351325 0)
(-0.0555758 0.0180857 0)
(-0.0685803 -0.00522149 0)
(-0.0737598 -0.0022886 0)
(-0.0803533 -0.0127048 0)
(-0.10467 -0.0060859 0)
(-0.125887 -0.0140697 0)
(-0.137279 -0.0363932 0)
(-0.126967 -0.0722479 0)
(-0.122333 -0.0660777 0)
(-0.123868 0.0132433 0)
(-0.110245 0.113486 0)
(-0.111338 0.0650557 0)
(-0.147782 -0.0147442 0)
(-0.209154 -0.0102747 0)
(-0.253695 0.00774475 0)
(-0.298319 -0.0298562 0)
(-0.31385 -0.0639307 0)
(-0.33513 -0.0513454 0)
(0.00587763 0.0962269 0)
(0.010102 0.0932521 0)
(0.00663658 0.0675888 0)
(-0.00491064 0.0547285 0)
(-0.0148442 0.0443112 0)
(-0.0255495 0.0298718 0)
(-0.0420671 0.0128392 0)
(-0.0604086 0.00914771 0)
(-0.0819178 0.0125599 0)
(-0.109106 0.0202126 0)
(-0.136529 0.00787933 0)
(-0.147459 -0.0409149 0)
(-0.143962 -0.0780943 0)
(-0.138498 -0.0692975 0)
(-0.128859 -0.00718328 0)
(-0.10432 0.0894466 0)
(-0.0967159 0.0845863 0)
(-0.122856 0.0503142 0)
(-0.146688 0.0558567 0)
(-0.173081 0.0814111 0)
(-0.216042 0.0485621 0)
(-0.283303 -0.0472669 0)
(-0.353249 -0.0332651 0)
(0.0108118 0.0839762 0)
(0.0166742 0.0864724 0)
(0.0166289 0.0727517 0)
(0.0107317 0.0622391 0)
(0.00330091 0.0530766 0)
(-0.00672417 0.0428645 0)
(-0.0217939 0.0333001 0)
(-0.0401758 0.0323201 0)
(-0.0600309 0.0376146 0)
(-0.0795017 0.0428837 0)
(-0.098612 0.0273606 0)
(-0.115336 -0.03054 0)
(-0.13093 -0.0730623 0)
(-0.141293 -0.0707168 0)
(-0.13674 -0.0243737 0)
(-0.118765 0.0572671 0)
(-0.107046 0.0892443 0)
(-0.118706 0.0569 0)
(-0.125433 0.0529831 0)
(-0.126592 0.0844719 0)
(-0.147904 0.0964546 0)
(-0.202723 0.0651311 0)
(-0.274799 0.0442551 0)
(0.00860975 0.072543 0)
(0.0155064 0.080267 0)
(0.0177789 0.0740844 0)
(0.0156081 0.0670197 0)
(0.0109073 0.0604105 0)
(0.00351452 0.0538928 0)
(-0.00764575 0.0488478 0)
(-0.0211677 0.0494455 0)
(-0.0343697 0.0544678 0)
(-0.0447267 0.0570226 0)
(-0.0533261 0.0420768 0)
(-0.0717758 -0.00684813 0)
(-0.109165 -0.0527329 0)
(-0.133983 -0.0608435 0)
(-0.143264 -0.0268751 0)
(-0.135488 0.039728 0)
(-0.123911 0.0866629 0)
(-0.120481 0.0594101 0)
(-0.121316 0.0515452 0)
(-0.116447 0.0819254 0)
(-0.12082 0.115644 0)
(-0.1479 0.109777 0)
(-0.186612 0.0956789 0)
(0.00436912 0.0640567 0)
(0.0101699 0.0744398 0)
(0.0130279 0.073074 0)
(0.0129569 0.0691971 0)
(0.010677 0.0650287 0)
(0.00627522 0.0612173 0)
(-0.000550619 0.058926 0)
(-0.00872682 0.060017 0)
(-0.0160141 0.0633931 0)
(-0.0209032 0.0635948 0)
(-0.0256444 0.0517498 0)
(-0.0389913 0.0224567 0)
(-0.0677751 -0.0128019 0)
(-0.109043 -0.0382536 0)
(-0.135826 -0.0175596 0)
(-0.14023 0.0333738 0)
(-0.129618 0.0761538 0)
(-0.118558 0.0561814 0)
(-0.117072 0.0498317 0)
(-0.115998 0.0782395 0)
(-0.111632 0.119401 0)
(-0.112234 0.125557 0)
(-0.114979 0.114559 0)
(3.85235e-05 0.0602222 0)
(0.0034973 0.0703923 0)
(0.00559774 0.0713768 0)
(0.00625914 0.0696013 0)
(0.00557586 0.0671929 0)
(0.0035516 0.0651365 0)
(0.000206211 0.0643127 0)
(-0.00369468 0.0654255 0)
(-0.0068389 0.0673619 0)
(-0.00870376 0.0665526 0)
(-0.0113262 0.0580849 0)
(-0.0202349 0.039918 0)
(-0.0397988 0.0183273 0)
(-0.0696472 0.00150048 0)
(-0.102492 0.00370863 0)
(-0.119004 0.0358303 0)
(-0.112089 0.0645529 0)
(-0.104917 0.0524886 0)
(-0.107524 0.0499608 0)
(-0.111213 0.07729 0)
(-0.103389 0.111596 0)
(-0.0900715 0.117393 0)
(-0.0773107 0.104346 0)
(-0.00368946 0.0610362 0)
(-0.00286186 0.0689661 0)
(-0.00220991 0.0702553 0)
(-0.00177933 0.0693081 0)
(-0.00175481 0.067799 0)
(-0.0022748 0.066637 0)
(-0.00330628 0.0664218 0)
(-0.00440607 0.0673531 0)
(-0.00495394 0.0685041 0)
(-0.00499184 0.0676544 0)
(-0.00611958 0.0621517 0)
(-0.0116982 0.051171 0)
(-0.0244931 0.038078 0)
(-0.0445067 0.0285572 0)
(-0.0672075 0.0299035 0)
(-0.0820574 0.0443846 0)
(-0.0832266 0.0576807 0)
(-0.0830084 0.0529479 0)
(-0.0900532 0.0550473 0)
(-0.0933822 0.0768273 0)
(-0.0849933 0.0980229 0)
(-0.0692954 0.101237 0)
(-0.0531382 0.0885074 0)
(-0.0065418 0.0658865 0)
(-0.00807934 0.070141 0)
(-0.00903051 0.0703076 0)
(-0.00934791 0.0691265 0)
(-0.00929587 0.0677137 0)
(-0.00912251 0.0667378 0)
(-0.00888322 0.0665708 0)
(-0.00839646 0.0672096 0)
(-0.00746253 0.0679673 0)
(-0.00635348 0.0674854 0)
(-0.00625837 0.0643177 0)
(-0.00921682 0.0581067 0)
(-0.0169057 0.0507024 0)
(-0.0293203 0.0453849 0)
(-0.0436249 0.0458945 0)
(-0.0540169 0.052721 0)
(-0.0576992 0.0586765 0)
(-0.0604752 0.0580178 0)
(-0.0659497 0.0616226 0)
(-0.0676103 0.073825 0)
(-0.0604757 0.0852963 0)
(-0.0472328 0.0858201 0)
(-0.0333741 0.0737496 0)
(-0.00839885 0.0736986 0)
(-0.011735 0.0735054 0)
(-0.0141055 0.0716637 0)
(-0.0153216 0.0694988 0)
(-0.0156424 0.0675658 0)
(-0.0153647 0.066252 0)
(-0.0146222 0.0657491 0)
(-0.0134014 0.0659773 0)
(-0.0117187 0.0664516 0)
(-0.00990112 0.0663402 0)
(-0.00879071 0.0648241 0)
(-0.00963046 0.0617192 0)
(-0.0134072 0.0579812 0)
(-0.0200897 0.0553645 0)
(-0.0280493 0.0556595 0)
(-0.0342988 0.0588389 0)
(-0.0373956 0.0616762 0)
(-0.0397731 0.0621636 0)
(-0.0426394 0.0646204 0)
(-0.0424099 0.0707015 0)
(-0.036302 0.0756245 0)
(-0.0258547 0.0735642 0)
(-0.0150775 0.0625615 0)
(-0.00923981 0.0833351 0)
(-0.0136515 0.0784151 0)
(-0.0170415 0.0741364 0)
(-0.0190531 0.0705641 0)
(-0.0199009 0.0677196 0)
(-0.0198647 0.0657205 0)
(-0.0191061 0.0646172 0)
(-0.0176918 0.0643003 0)
(-0.0157259 0.0644286 0)
(-0.0135069 0.0644784 0)
(-0.011615 0.0639549 0)
(-0.0108133 0.0627133 0)
(-0.0116873 0.0611868 0)
(-0.0142288 0.060211 0)
(-0.0175695 0.0605673 0)
(-0.0202304 0.0621374 0)
(-0.021455 0.0635132 0)
(-0.0221133 0.0639118 0)
(-0.0224315 0.0650091 0)
(-0.0205324 0.0672414 0)
(-0.015007 0.0680448 0)
(-0.00677352 0.0642152 0)
(0.0014792 0.0544878 0)
(-0.00909394 0.0936256 0)
(-0.0137886 0.0841081 0)
(-0.0176834 0.0773575 0)
(-0.0202418 0.072258 0)
(-0.0216011 0.068325 0)
(-0.0219562 0.0654441 0)
(-0.0214413 0.0635653 0)
(-0.0201393 0.0625717 0)
(-0.0181705 0.0622181 0)
(-0.015776 0.0621576 0)
(-0.0133501 0.0620596 0)
(-0.0113678 0.0617739 0)
(-0.0101914 0.0614348 0)
(-0.0098507 0.061368 0)
(-0.00992737 0.0618465 0)
(-0.0097191 0.0627258 0)
(-0.00883572 0.0633531 0)
(-0.00753042 0.0633666 0)
(-0.00574011 0.0633391 0)
(-0.00253051 0.0632411 0)
(0.00273643 0.061666 0)
(0.00944401 0.0569257 0)
(0.0158327 0.0485096 0)
(-0.00802175 0.103385 0)
(-0.0122143 0.089775 0)
(-0.0160646 0.0808815 0)
(-0.0188701 0.0744082 0)
(-0.0206354 0.0693889 0)
(-0.0213977 0.0655455 0)
(-0.0212203 0.0627837 0)
(-0.0201661 0.0610022 0)
(-0.0183411 0.0600228 0)
(-0.0159288 0.0596004 0)
(-0.0131966 0.0594881 0)
(-0.0104479 0.0595217 0)
(-0.00791933 0.0596697 0)
(-0.00567154 0.0599883 0)
(-0.00353841 0.0605002 0)
(-0.00121822 0.0610424 0)
(0.00146759 0.0612549 0)
(0.00445371 0.0609102 0)
(0.00782052 0.0601278 0)
(0.011985 0.0587377 0)
(0.0171668 0.0559675 0)
(0.0229153 0.0509715 0)
(0.0282192 0.0437162 0)
(-0.00616972 0.111507 0)
(-0.00914969 0.0946102 0)
(-0.0124275 0.084273 0)
(-0.0151963 0.0768182 0)
(-0.0172272 0.0708378 0)
(-0.0183207 0.0660237 0)
(-0.0184504 0.0623202 0)
(-0.0176529 0.0596708 0)
(-0.0160156 0.0579502 0)
(-0.0136763 0.0569733 0)
(-0.0108178 0.0565364 0)
(-0.00764 0.056465 0)
(-0.00430691 0.0566406 0)
(-0.000894788 0.0569824 0)
(0.00262883 0.0573921 0)
(0.00635986 0.0576926 0)
(0.0103478 0.0576355 0)
(0.0145507 0.0570338 0)
(0.0189871 0.0558303 0)
(0.0237915 0.0538387 0)
(0.0289723 0.0506303 0)
(0.0341952 0.0458051 0)
(0.0389547 0.0394793 0)
(-0.00388521 0.117131 0)
(-0.00509265 0.0978444 0)
(-0.00735122 0.0871439 0)
(-0.00981321 0.0793073 0)
(-0.0119255 0.0725411 0)
(-0.0131752 0.066775 0)
(-0.0134681 0.0621069 0)
(-0.0128311 0.0585514 0)
(-0.0113405 0.056025 0)
(-0.0090996 0.0543766 0)
(-0.00623385 0.0534243 0)
(-0.00287659 0.0529881 0)
(0.000855116 0.0529074 0)
(0.00488325 0.0530361 0)
(0.00917619 0.0532221 0)
(0.0137271 0.0532831 0)
(0.0185089 0.0530147 0)
(0.0234568 0.0522442 0)
(0.0285254 0.0508537 0)
(0.0336995 0.048677 0)
(0.0388908 0.0454668 0)
(0.0438533 0.0410377 0)
(0.0483279 0.0355055 0)
(-0.00126508 0.11957 0)
(-0.00110874 0.0992288 0)
(-0.00215588 0.088932 0)
(-0.00377123 0.0815873 0)
(-0.00559107 0.0742306 0)
(-0.00665029 0.0675591 0)
(-0.00683176 0.0619601 0)
(-0.00616584 0.0575257 0)
(-0.00471244 0.0541997 0)
(-0.00253988 0.0518461 0)
(0.000273957 0.0502928 0)
(0.00364531 0.0493578 0)
(0.00749375 0.0488647 0)
(0.0117511 0.0486434 0)
(0.0163618 0.0485224 0)
(0.021273 0.0483219 0)
(0.0264173 0.0478602 0)
(0.0317065 0.0469759 0)
(0.0370525 0.0455361 0)
(0.0423665 0.0433987 0)
(0.0475209 0.0404072 0)
(0.0523271 0.0364672 0)
(0.0566374 0.0316667 0)
(0.000748725 0.11909 0)
(0.00187498 0.0994589 0)
(0.00186282 0.0892604 0)
(0.00157961 0.0830211 0)
(0.000825512 0.0753503 0)
(0.000521368 0.0679588 0)
(0.000833024 0.0615882 0)
(0.00177169 0.0564071 0)
(0.00333284 0.052376 0)
(0.00550075 0.0493668 0)
(0.0082485 0.0472149 0)
(0.011538 0.0457443 0)
(0.0153233 0.0447786 0)
(0.0195536 0.0441449 0)
(0.0241724 0.0436725 0)
(0.0291131 0.043192 0)
(0.0342932 0.0425396 0)
(0.0396134 0.0415663 0)
(0.0449655 0.0401423 0)
(0.050231 0.0381441 0)
(0.0552716 0.0354589 0)
(0.0599336 0.0320264 0)
(0.064117 0.0279091 0)
(0.00181354 0.116853 0)
(0.00436637 0.0986551 0)
(0.0050516 0.0886324 0)
(0.00602327 0.0828981 0)
(0.00697182 0.0752169 0)
(0.00790281 0.0674929 0)
(0.00901229 0.0606765 0)
(0.0104209 0.0549984 0)
(0.0122122 0.0504434 0)
(0.0144395 0.0469014 0)
(0.0171307 0.0442241 0)
(0.020292 0.0422503 0)
(0.0239109 0.0408166 0)
(0.0279587 0.0397618 0)
(0.0323902 0.038928 0)
(0.0371427 0.0381616 0)
(0.0421354 0.0373167 0)
(0.0472701 0.0362589 0)
(0.0524364 0.0348678 0)
(0.0575099 0.0330342 0)
(0.062356 0.0306665 0)
(0.0668449 0.0277147 0)
(0.0708953 0.0242202 0)
(0.00412861 0.112711 0)
(0.00740487 0.0969715 0)
(0.00857433 0.087401 0)
(0.0107566 0.081096 0)
(0.0132409 0.0735596 0)
(0.0153951 0.0659409 0)
(0.0173391 0.0590681 0)
(0.0192689 0.053192 0)
(0.0213397 0.0483347 0)
(0.0236624 0.0444199 0)
(0.0263113 0.0413293 0)
(0.0293297 0.0389273 0)
(0.0327348 0.0370729 0)
(0.0365203 0.0356252 0)
(0.0406578 0.0344458 0)
(0.0450974 0.033401 0)
(0.0497692 0.0323635 0)
(0.0545856 0.0312152 0)
(0.0594444 0.029848 0)
(0.064229 0.0281647 0)
(0.0688156 0.0260846 0)
(0.0730926 0.0235605 0)
(0.0769859 0.0206167 0)
(0.00719093 0.105261 0)
(0.0110284 0.0945279 0)
(0.0131534 0.0851917 0)
(0.0164152 0.0780687 0)
(0.0198242 0.0707221 0)
(0.0228072 0.0634736 0)
(0.0254006 0.0568246 0)
(0.0277811 0.0509944 0)
(0.0301182 0.0460339 0)
(0.0325477 0.0419053 0)
(0.0351701 0.0385255 0)
(0.0380541 0.0357901 0)
(0.0412393 0.0335855 0)
(0.0447394 0.0317955 0)
(0.0485435 0.0303046 0)
(0.0526178 0.0290004 0)
(0.0569082 0.0277757 0)
(0.0613421 0.026529 0)
(0.0658319 0.0251662 0)
(0.0702748 0.0236009 0)
(0.0745614 0.0217606 0)
(0.0785956 0.0195986 0)
(0.0823065 0.0171274 0)
(0.00848054 0.0949392 0)
(0.013905 0.090346 0)
(0.0177924 0.0816276 0)
(0.022006 0.0742612 0)
(0.0260106 0.0671899 0)
(0.0295402 0.0603908 0)
(0.0326158 0.0540974 0)
(0.0353698 0.0484651 0)
(0.0379527 0.043551 0)
(0.0404999 0.0393444 0)
(0.0431217 0.0357934 0)
(0.0459006 0.0328237 0)
(0.0488919 0.0303493 0)
(0.0521251 0.0282795 0)
(0.0556055 0.0265223 0)
(0.0593161 0.0249875 0)
(0.0632193 0.0235873 0)
(0.0672599 0.0222378 0)
(0.0713666 0.0208588 0)
(0.0754532 0.0193753 0)
(0.0794258 0.0177224 0)
(0.0832021 0.0158552 0)
(0.0867141 0.0137788 0)
(0.00804706 0.0839171 0)
(0.0151656 0.0839191 0)
(0.0209079 0.0766025 0)
(0.0261539 0.0697029 0)
(0.0308163 0.0631127 0)
(0.0348661 0.0568278 0)
(0.0383821 0.0509675 0)
(0.0414885 0.0456347 0)
(0.0443223 0.0408809 0)
(0.0470134 0.0367108 0)
(0.0496741 0.033096 0)
(0.0523943 0.0299881 0)
(0.0552398 0.0273265 0)
(0.0582527 0.0250445 0)
(0.0614524 0.023073 0)
(0.064837 0.0213429 0)
(0.0683854 0.0197857 0)
(0.0720589 0.0183343 0)
(0.0758029 0.0169229 0)
(0.0795483 0.0154886 0)
(0.0832159 0.0139746 0)
(0.0867369 0.0123402 0)
(0.0900462 0.0105871 0)
(0.00698396 0.0734471 0)
(0.0150764 0.0758106 0)
(0.0222015 0.070213 0)
(0.0284042 0.0642761 0)
(0.0337568 0.0584226 0)
(0.038347 0.0527725 0)
(0.0423074 0.0474342 0)
(0.0457727 0.0424928 0)
(0.0488761 0.0379976 0)
(0.0517437 0.0339644 0)
(0.0544876 0.0303836 0)
(0.0572019 0.0272281 0)
(0.0599594 0.0244598 0)
(0.0628119 0.022034 0)
(0.0657905 0.0199028 0)
(0.0689068 0.018017 0)
(0.0721541 0.0163263 0)
(0.075509 0.0147801 0)
(0.0789325 0.0133272 0)
(0.0823711 0.0119167 0)
(0.0857602 0.0105017 0)
(0.089043 0.00904723 0)
(0.0921586 0.00755522 0)
(0.00606715 0.063778 0)
(0.0143041 0.0669271 0)
(0.0221156 0.0628827 0)
(0.0289596 0.0580904 0)
(0.034869 0.0531363 0)
(0.0399358 0.0482289 0)
(0.0443051 0.0434974 0)
(0.0481128 0.0390291 0)
(0.051487 0.0348774 0)
(0.0545489 0.0310686 0)
(0.0574085 0.0276083 0)
(0.0601609 0.0244876 0)
(0.062883 0.0216877 0)
(0.0656335 0.0191836 0)
(0.0684525 0.0169469 0)
(0.0713627 0.0149465 0)
(0.0743695 0.0131498 0)
(0.0774627 0.0115215 0)
(0.080617 0.0100248 0)
(0.083793 0.00862133 0)
(0.0869396 0.00727462 0)
(0.0900109 0.00595746 0)
(0.0929512 0.00467469 0)
(0.00543899 0.0549068 0)
(0.0132948 0.0580113 0)
(0.0211866 0.0551671 0)
(0.0282706 0.0514538 0)
(0.0344855 0.047418 0)
(0.0398711 0.0432912 0)
(0.0445466 0.0392124 0)
(0.0486309 0.0352716 0)
(0.0522388 0.0315261 0)
(0.0554814 0.0280102 0)
(0.0584629 0.0247414 0)
(0.0612755 0.0217253 0)
(0.063997 0.0189595 0)
(0.0666897 0.0164363 0)
(0.0694 0.0141445 0)
(0.0721585 0.0120701 0)
(0.0749802 0.0101959 0)
(0.0778657 0.00850195 0)
(0.0808012 0.00696486 0)
(0.0837595 0.00555885 0)
(0.0867013 0.00425848 0)
(0.0895913 0.00304532 0)
(0.0923798 0.00192891 0)
(0.00496353 0.0467796 0)
(0.0122126 0.0495058 0)
(0.0197834 0.0475249 0)
(0.0267616 0.0447103 0)
(0.0330117 0.0415062 0)
(0.0385139 0.038124 0)
(0.0433457 0.0346929 0)
(0.0475968 0.0312963 0)
(0.0513615 0.0279898 0)
(0.0547359 0.0248106 0)
(0.0578137 0.0217836 0)
(0.0606806 0.0189251 0)
(0.0634116 0.0162459 0)
(0.0660693 0.0137529 0)
(0.0687031 0.01145 0)
(0.0713486 0.00933784 0)
(0.0740275 0.00741394 0)
(0.0767484 0.00567189 0)
(0.0795069 0.00410129 0)
(0.082286 0.00268848 0)
(0.0850569 0.00141898 0)
(0.0877937 0.00028361 0)
(0.0904537 -0.000702363 0)
(0.00451944 0.0393706 0)
(0.0110835 0.0416311 0)
(0.0181084 0.0402532 0)
(0.0247394 0.0381389 0)
(0.0307984 0.0356342 0)
(0.0362214 0.0329143 0)
(0.0410461 0.030085 0)
(0.045332 0.0272144 0)
(0.0491506 0.024349 0)
(0.0525807 0.0215237 0)
(0.0557021 0.0187658 0)
(0.0585912 0.0160987 0)
(0.0613173 0.0135429 0)
(0.06394 0.011117 0)
(0.0665086 0.00883746 0)
(0.0690606 0.00671787 0)
(0.0716216 0.00476832 0)
(0.0742059 0.00299476 0)
(0.0768163 0.0013986 0)
(0.079444 -2.25417e-05 0)
(0.0820692 -0.00127262 0)
(0.0846747 -0.00235167 0)
(0.0872253 -0.00323849 0)
(0.00405693 0.0326992 0)
(0.00990811 0.0344922 0)
(0.0162736 0.0335239 0)
(0.0224061 0.0319339 0)
(0.0281076 0.0299918 0)
(0.0332879 0.0278344 0)
(0.0379547 0.0255385 0)
(0.0421432 0.0231505 0)
(0.0459044 0.0207035 0)
(0.0492999 0.0182252 0)
(0.0523953 0.0157421 0)
(0.055256 0.0132809 0)
(0.0579431 0.0108689 0)
(0.060511 0.00853378 0)
(0.0630061 0.00630186 0)
(0.0654653 0.00419736 0)
(0.0679158 0.00224112 0)
(0.0703753 0.000449684 0)
(0.0728515 -0.00116503 0)
(0.0753425 -0.00259534 0)
(0.0778362 -0.00383559 0)
(0.080323 -0.0048773 0)
(0.0827756 -0.00569363 0)
(0.00357249 0.0267922 0)
(0.00870075 0.0281391 0)
(0.0143526 0.027433 0)
(0.0198956 0.0262227 0)
(0.0251242 0.0247207 0)
(0.0299355 0.0230273 0)
(0.0343185 0.0211878 0)
(0.0382912 0.0192253 0)
(0.0418891 0.0171565 0)
(0.0451588 0.0150002 0)
(0.0481526 0.0127794 0)
(0.0509242 0.010522 0)
(0.0535257 0.00825972 0)
(0.0560045 0.00602645 0)
(0.0584023 0.00385615 0)
(0.0607534 0.00178133 0)
(0.0630847 -0.000168539 0)
(0.0654153 -0.00196804 0)
(0.0677566 -0.00359648 0)
(0.0701118 -0.00503752 0)
(0.0724753 -0.00627726 0)
(0.0748444 -0.00729972 0)
(0.0772001 -0.00807318 0)
(0.00307661 0.0216609 0)
(0.00748101 0.0225927 0)
(0.0123972 0.0220337 0)
(0.017297 0.0210872 0)
(0.0219752 0.0199222 0)
(0.0263252 0.0186032 0)
(0.030326 0.0171441 0)
(0.0339856 0.0155437 0)
(0.0373287 0.0138029 0)
(0.0403895 0.0119312 0)
(0.0432085 0.00994758 0)
(0.0458283 0.00787956 0)
(0.0482916 0.00576128 0)
(0.0506381 0.00363073 0)
(0.0529037 0.00152726 0)
(0.0551188 -0.000510527 0)
(0.0573088 -0.00244646 0)
(0.059493 -0.00424822 0)
(0.0616848 -0.00588815 0)
(0.0638914 -0.00734297 0)
(0.0661129 -0.00859199 0)
(0.0683527 -0.00961317 0)
(0.0705998 -0.0103711 0)
(0.00257062 0.017309 0)
(0.00625602 0.0178568 0)
(0.0104364 0.0173526 0)
(0.0146661 0.0165775 0)
(0.0187462 0.015665 0)
(0.0225719 0.0146428 0)
(0.0261191 0.0134925 0)
(0.0293917 0.0121899 0)
(0.032407 0.0107223 0)
(0.0351894 0.00909174 0)
(0.0377685 0.00731288 0)
(0.0401771 0.00541198 0)
(0.0424487 0.00342413 0)
(0.0446154 0.00138973 0)
(0.0467069 -0.000648414 0)
(0.0487495 -0.00264742 0)
(0.0507659 -0.0045664 0)
(0.0527748 -0.00636807 0)
(0.0547907 -0.00801958 0)
(0.0568237 -0.00949244 0)
(0.0588785 -0.0107609 0)
(0.0609638 -0.0117985 0)
(0.0630764 -0.0125676 0)
(0.00203355 0.0137566 0)