/*--------------------------------*- C++ -*----------------------------------*\
| =========                 |                                                 |
| \\      /  F ield         | OpenFOAM: The Open Source CFD Toolbox           |
|  \\    /   O peration     | Version:  2.3.0                                 |
|   \\  /    A nd           | Web:      www.OpenFOAM.org                      |
|    \\/     M anipulation  |                                                 |
\*---------------------------------------------------------------------------*/
FoamFile
{
    version     2.0;
    format      ascii;
    class       volScalarField;
    location    "0.09";
    object      T;
}
// * * * * * * * * * * * * * * * * * * * * * * * * * * * * * * * * * * * * * //

dimensions      [0 0 0 1 0 0 0];

internalField   nonuniform List<scalar> 
12225
(
1.00702
1.00235
1.00097
1.00057
1.00029
1.0001
1.00001
0.999957
0.999927
0.999907
0.99989
0.999865
0.999814
0.99969
0.999383
0.998627
0.996726
0.99199
0.99388
0.995662
0.997505
0.998595
0.999122
0.9994
0.999575
0.999689
0.999763
0.999811
0.999838
0.999844
0.999814
0.999706
0.999419
0.998702
0.996946
0.992668
1.00047
1.00054
1.00043
1.00038
1.00027
1.00015
1.00007
1.00002
0.999985
0.999961
0.999939
0.999912
0.999861
0.999744
0.999466
0.998806
0.997281
0.993897
1.00033
0.999923
0.999616
0.999668
0.999738
0.999771
0.999797
0.999822
0.999841
0.999855
0.999862
0.999855
0.999821
0.999725
0.999483
0.998913
0.997653
0.99506
1.00018
1
0.999776
0.999808
0.999867
0.999886
0.999893
0.999898
0.999902
0.999903
0.9999
0.999887
0.999851
0.999762
0.999549
0.999071
0.998069
0.996152
1.00003
0.999994
0.999833
0.999822
0.999856
0.999871
0.999878
0.999884
0.999889
0.999893
0.999892
0.999882
0.999852
0.999777
0.9996
0.999218
0.998453
0.997076
1.00001
1.00003
0.999913
0.999874
0.999883
0.999891
0.999895
0.999898
0.999902
0.999904
0.999902
0.999894
0.999868
0.999805
0.999663
0.999368
0.998805
0.99784
1
1.00003
0.999948
0.999903
0.9999
0.999903
0.999905
0.999906
0.999908
0.99991
0.999908
0.999901
0.999879
0.999827
0.999713
0.999484
0.999058
0.998353
1
1.00003
0.99997
0.999929
0.999919
0.999917
0.999916
0.999916
0.999917
0.999918
0.999915
0.999908
0.99989
0.999847
0.999756
0.999576
0.999253
0.998731
0.999998
1.00002
0.999986
0.999952
0.999938
0.999932
0.999929
0.999927
0.999927
0.999926
0.999923
0.999918
0.999903
0.999868
0.999798
0.999665
0.999429
0.999059
0.999998
1.00002
0.999996
0.99997
0.999956
0.999948
0.999943
0.99994
0.999939
0.999937
0.999933
0.999927
0.999916
0.999891
0.99984
0.999744
0.999581
0.999331
0.999998
1.00001
1
0.999983
0.999972
0.999964
0.999958
0.999954
0.99995
0.999948
0.999945
0.99994
0.999931
0.999913
0.999877
0.999813
0.999706
0.999547
0.999998
1.00001
1.00001
0.999993
0.999984
0.999977
0.999972
0.999967
0.999963
0.99996
0.999957
0.999952
0.999946
0.999933
0.99991
0.999869
0.999803
0.999708
0.999998
1.00001
1.00001
1
0.999993
0.999986
0.999982
0.999979
0.999975
0.999972
0.999969
0.999965
0.99996
0.999951
0.999937
0.999913
0.999875
0.999823
0.999998
1.00001
1.00001
1
0.999998
0.999995
0.999991
0.999988
0.999985
0.999982
0.99998
0.999977
0.999973
0.999967
0.999957
0.999945
0.999924
0.999899
0.999999
1.00001
1.00001
1
1
1
0.999997
0.999994
0.999992
0.99999
0.999989
0.999987
0.999984
0.99998
0.999974
0.999966
0.999956
0.999945
0.999998
1.00001
1.00001
1
1
1
1
0.999999
0.999997
0.999996
0.999994
0.999992
0.99999
0.999989
0.999986
0.999981
0.999974
0.999969
0.999999
1
1.00001
1.00001
1.00001
1.00001
1
0.999999
0.999998
0.999998
0.999997
0.999996
0.999994
0.999991
0.999987
0.999984
0.999981
0.999981
0.999999
1.00001
1.00001
1.00001
1.00001
1.00001
1
0.999999
0.999996
0.999995
0.999993
0.999991
0.999989
0.999988
0.999987
0.999983
0.99998
0.999981
0.999998
1.00001
1.00001
1.00001
1
1
1
0.999996
0.999992
0.999989
0.999988
0.999986
0.999984
0.999983
0.999981
0.999979
0.999977
0.999978
0.999997
1.00001
1.00001
1.00001
1
0.999995
0.999992
0.999987
0.999983
0.99998
0.999977
0.999975
0.999973
0.999972
0.999971
0.999969
0.999967
0.999968
0.999997
1.00001
1.00002
1.00001
0.999995
0.999987
0.999982
0.999976
0.999973
0.99997
0.999967
0.999966
0.999966
0.999964
0.999963
0.999963
0.99996
0.999961
0.999996
1.00003
1.00002
0.999994
0.999975
0.999966
0.999959
0.999954
0.999952
0.99995
0.999949
0.999948
0.999948
0.999949
0.999948
0.999948
0.999948
0.99995
0.999994
1.00005
1.00003
0.999984
0.999963
0.999957
0.999953
0.99995
0.999949
0.999948
0.999947
0.999947
0.999948
0.999948
0.999948
0.999948
0.999948
0.999949
0.999986
1.00005
0.999974
0.999913
0.9999
0.9999
0.9999
0.999902
0.999905
0.999908
0.999911
0.999914
0.999918
0.999921
0.999925
0.999927
0.999928
0.999931
1.00011
1.00014
0.999977
0.99993
0.999954
0.99997
0.999971
0.999969
0.999965
0.999962
0.999959
0.999954
0.999952
0.99995
0.999949
0.999948
0.999947
0.999947
1.00029
1.00004
0.999634
0.999556
0.999609
0.999662
0.999706
0.999746
0.999781
0.999809
0.999832
0.99985
0.999865
0.999878
0.999888
0.999897
0.999905
0.999908
1.00089
1.00118
1.00097
1.00079
1.00062
1.00045
1.00031
1.00022
1.00015
1.0001
1.00006
1.00003
1.00001
0.999992
0.999981
0.999974
0.99997
0.999957
0.993498
0.994872
0.996789
0.998012
0.998681
0.999064
0.999313
0.999485
0.999605
0.99969
0.99975
0.999794
0.999827
0.999852
0.999872
0.999888
0.999905
0.999901
1.00657
1.00291
1.00132
1.00082
1.00049
1.00027
1.00014
1.00007
1.00002
0.99999
0.999968
0.999954
0.999944
0.999937
0.999933
0.999931
0.999938
0.999912
0.766084
0.766084
0.766037
0.765982
0.765928
0.765866
0.7658
0.76573
0.76565
0.765567
0.765483
0.765398
0.765311
0.765222
0.765133
0.765045
0.764958
0.764873
0.764792
0.764715
0.764644
0.76458
0.764524
0.764478
0.764442
0.764417
0.764405
0.764408
0.764425
0.764458
0.764508
0.764576
0.764663
0.76477
0.764897
0.765045
0.765216
0.765409
0.765626
0.765865
0.766129
0.766418
0.76673
0.767067
0.767429
0.767816
0.768226
0.768661
0.76912
0.769603
0.770109
0.770638
0.771189
0.771762
0.772355
0.772968
0.7736
0.774251
0.774918
0.775602
0.776301
0.777015
0.777742
0.778482
0.779232
0.779993
0.780763
0.781541
0.782326
0.783118
0.783915
0.784717
0.785522
0.786329
0.787139
0.78795
0.788761
0.789572
0.790382
0.79119
0.791995
0.792798
0.793597
0.794392
0.795182
0.795967
0.796747
0.797521
0.798287
0.799047
0.799799
0.800544
0.80128
0.802008
0.802727
0.803436
0.804136
0.804826
0.805507
0.806176
0.806836
0.807484
0.808123
0.80875
0.809366
0.80997
0.810564
0.811147
0.811718
0.812277
0.812826
0.813364
0.813889
0.814404
0.814906
0.815397
0.815876
0.816344
0.816799
0.817243
0.817674
0.818093
0.818499
0.818893
0.819275
0.819644
0.819999
0.820342
0.820672
0.820989
0.821292
0.821581
0.821856
0.822118
0.822366
0.822599
0.822818
0.823023
0.823213
0.823388
0.823549
0.823694
0.823824
0.823938
0.824037
0.824121
0.824188
0.82424
0.824276
0.824296
0.824299
0.824287
0.824259
0.824213
0.824152
0.824075
0.823981
0.823871
0.823744
0.823603
0.823441
0.823264
0.82308
0.822848
0.822598
0.822332
0.822023
0.821701
0.821366
0.821018
0.820656
0.820281
0.819892
0.819489
0.819076
0.818646
0.818229
0.817726
0.817532
0.815771
0.766739
0.766721
0.766706
0.766683
0.766652
0.766615
0.766571
0.766518
0.766454
0.766381
0.7663
0.766214
0.766124
0.766032
0.765938
0.765844
0.765751
0.76566
0.765572
0.765489
0.765412
0.765342
0.765281
0.765228
0.765186
0.765156
0.765139
0.765136
0.765148
0.765176
0.765221
0.765283
0.765365
0.765467
0.765589
0.765733
0.765898
0.766086
0.766298
0.766532
0.766791
0.767074
0.767381
0.767713
0.76807
0.768451
0.768857
0.769286
0.76974
0.770218
0.770719
0.771242
0.771787
0.772354
0.772942
0.773549
0.774175
0.77482
0.775482
0.77616
0.776854
0.777561
0.778283
0.779016
0.779761
0.780516
0.78128
0.782052
0.782832
0.783618
0.78441
0.785206
0.786005
0.786807
0.787611
0.788416
0.789222
0.790027
0.790831
0.791633
0.792433
0.79323
0.794023
0.794812
0.795597
0.796376
0.797149
0.797917
0.798677
0.79943
0.800176
0.800914
0.801644
0.802365
0.803077
0.803779
0.804472
0.805155
0.805827
0.806489
0.807141
0.807782
0.808413
0.809032
0.80964
0.810237
0.810823
0.811398
0.811961
0.812513
0.813053
0.813582
0.8141
0.814606
0.8151
0.815582
0.816052
0.816511
0.816958
0.817392
0.817814
0.818224
0.818621
0.819005
0.819377
0.819736
0.820083
0.820416
0.820736
0.821042
0.821335
0.821615
0.82188
0.822132
0.822369
0.822592
0.822801
0.822995
0.823175
0.82334
0.82349
0.823624
0.823744
0.823847
0.823936
0.824008
0.824065
0.824106
0.82413
0.824139
0.824131
0.824107
0.824067
0.82401
0.823936
0.823846
0.823739
0.823616
0.823474
0.823318
0.82314
0.822947
0.822746
0.822509
0.822266
0.822018
0.821741
0.821447
0.821138
0.820814
0.820474
0.82012
0.819751
0.819369
0.818976
0.81857
0.818174
0.817717
0.817467
0.81625
0.768089
0.768019
0.767981
0.767949
0.767913
0.767867
0.76781
0.767744
0.767669
0.767586
0.767497
0.767402
0.767304
0.767204
0.767103
0.767002
0.766902
0.766805
0.766711
0.766622
0.76654
0.766464
0.766397
0.766339
0.766292
0.766256
0.766234
0.766225
0.766231
0.766253
0.766292
0.766349
0.766424
0.766519
0.766635
0.766772
0.76693
0.767111
0.767314
0.767541
0.767792
0.768067
0.768366
0.768689
0.769037
0.769409
0.769806
0.770227
0.770671
0.77114
0.771631
0.772145
0.772681
0.773238
0.773816
0.774414
0.775032
0.775667
0.77632
0.776989
0.777673
0.778372
0.779085
0.77981
0.780546
0.781293
0.78205
0.782814
0.783587
0.784366
0.78515
0.785939
0.786733
0.787528
0.788327
0.789126
0.789927
0.790727
0.791526
0.792324
0.79312
0.793914
0.794704
0.79549
0.796272
0.797049
0.79782
0.798586
0.799345
0.800097
0.800843
0.80158
0.80231
0.803031
0.803743
0.804446
0.805139
0.805823
0.806497
0.80716
0.807813
0.808455
0.809087
0.809708
0.810318
0.810917
0.811504
0.812081
0.812646
0.8132
0.813742
0.814273
0.814792
0.8153
0.815796
0.81628
0.816752
0.817212
0.81766
0.818096
0.81852
0.818931
0.819329
0.819715
0.820088
0.820448
0.820795
0.821129
0.821449
0.821756
0.822049
0.822328
0.822593
0.822845
0.823081
0.823304
0.823512
0.823705
0.823883
0.824047
0.824195
0.824327
0.824445
0.824546
0.824631
0.824701
0.824755
0.824792
0.824813
0.824818
0.824806
0.824778
0.824733
0.824671
0.824593
0.824497
0.824384
0.824255
0.824107
0.823944
0.823763
0.823566
0.823356
0.823119
0.822875
0.822624
0.822352
0.822063
0.821757
0.821436
0.821099
0.820747
0.820381
0.82
0.819608
0.819202
0.818801
0.818345
0.818041
0.817122
0.770061
0.769949
0.76989
0.769848
0.769799
0.769738
0.769666
0.769586
0.769498
0.769404
0.769304
0.7692
0.769093
0.768983
0.768873
0.768762
0.768653
0.768547
0.768445
0.768347
0.768255
0.768171
0.768094
0.768027
0.767971
0.767926
0.767894
0.767875
0.767871
0.767883
0.767911
0.767958
0.768022
0.768106
0.76821
0.768335
0.768481
0.768649
0.76884
0.769054
0.769292
0.769553
0.769838
0.770148
0.770482
0.77084
0.771222
0.771628
0.772058
0.772511
0.772988
0.773487
0.774008
0.77455
0.775114
0.775697
0.776299
0.77692
0.777558
0.778213
0.778883
0.779568
0.780267
0.780979
0.781703
0.782437
0.783181
0.783934
0.784694
0.785462
0.786236
0.787015
0.787798
0.788584
0.789373
0.790164
0.790957
0.791749
0.792542
0.793334
0.794124
0.794912
0.795697
0.796479
0.797257
0.798031
0.798801
0.799564
0.800322
0.801074
0.80182
0.802558
0.803288
0.80401
0.804724
0.80543
0.806126
0.806813
0.80749
0.808157
0.808814
0.809461
0.810098
0.810724
0.811339
0.811943
0.812536
0.813118
0.813689
0.814248
0.814797
0.815333
0.815859
0.816372
0.816874
0.817364
0.817842
0.818309
0.818763
0.819205
0.819634
0.820051
0.820455
0.820846
0.821225
0.82159
0.821942
0.822281
0.822606
0.822918
0.823215
0.823498
0.823768
0.824022
0.824263
0.824489
0.8247
0.824895
0.825076
0.825241
0.825391
0.825526
0.825644
0.825746
0.825832
0.825902
0.825956
0.825993
0.826014
0.826018
0.826005
0.825975
0.825929
0.825864
0.825783
0.825685
0.825569
0.825438
0.825288
0.825122
0.824937
0.824736
0.824521
0.824284
0.824036
0.823777
0.8235
0.823205
0.822895
0.822569
0.822227
0.82187
0.821498
0.821111
0.820712
0.820297
0.819883
0.819416
0.819074
0.818305
0.772638
0.772504
0.77243
0.772377
0.772317
0.772244
0.77216
0.772067
0.771966
0.771859
0.771746
0.771629
0.771509
0.771387
0.771264
0.771142
0.771021
0.770902
0.770788
0.770678
0.770574
0.770477
0.770389
0.770309
0.77024
0.770182
0.770137
0.770105
0.770088
0.770086
0.770101
0.770132
0.770182
0.770251
0.77034
0.770449
0.770579
0.770731
0.770905
0.771102
0.771322
0.771566
0.771833
0.772124
0.772439
0.772778
0.773142
0.773528
0.773939
0.774373
0.77483
0.775309
0.77581
0.776333
0.776877
0.77744
0.778023
0.778625
0.779244
0.77988
0.780531
0.781198
0.781879
0.782573
0.783279
0.783997
0.784724
0.785461
0.786206
0.786958
0.787718
0.788483
0.789252
0.790026
0.790803
0.791582
0.792364
0.793146
0.793929
0.794711
0.795493
0.796274
0.797052
0.797828
0.798601
0.799371
0.800136
0.800897
0.801652
0.802403
0.803147
0.803885
0.804616
0.805339
0.806055
0.806763
0.807462
0.808152
0.808833
0.809505
0.810167
0.810819
0.811461
0.812092
0.812713
0.813323
0.813923
0.814511
0.815088
0.815655
0.81621
0.816754
0.817286
0.817807
0.818316
0.818814
0.819299
0.819773
0.820234
0.820683
0.82112
0.821543
0.821954
0.822353
0.822738
0.823109
0.823468
0.823813
0.824144
0.824461
0.824764
0.825052
0.825327
0.825586
0.825831
0.82606
0.826275
0.826474
0.826658
0.826826
0.826978
0.827114
0.827234
0.827338
0.827425
0.827496
0.827549
0.827586
0.827606
0.827609
0.827595
0.827563
0.827515
0.827448
0.827364
0.827264
0.827146
0.82701
0.826857
0.826686
0.826498
0.826292
0.826071
0.825831
0.825577
0.82531
0.825025
0.824724
0.824407
0.824074
0.823725
0.823361
0.822981
0.822587
0.822179
0.821754
0.821326
0.820848
0.820486
0.819778
0.775848
0.775702
0.775617
0.775554
0.775483
0.775398
0.775302
0.775195
0.77508
0.774959
0.774832
0.774701
0.774566
0.774429
0.774292
0.774155
0.774019
0.773886
0.773756
0.773631
0.773512
0.7734
0.773296
0.773201
0.773116
0.773042
0.772981
0.772932
0.772898
0.772879
0.772876
0.77289
0.772921
0.772971
0.773041
0.77313
0.77324
0.773372
0.773525
0.773701
0.773899
0.774121
0.774366
0.774634
0.774927
0.775242
0.775582
0.775945
0.776332
0.776742
0.777174
0.777629
0.778106
0.778605
0.779124
0.779664
0.780222
0.7808
0.781396
0.782008
0.782637
0.783281
0.783939
0.784611
0.785296
0.785992
0.786698
0.787415
0.788141
0.788874
0.789615
0.790362
0.791114
0.791871
0.792632
0.793397
0.794164
0.794933
0.795703
0.796474
0.797244
0.798014
0.798783
0.799551
0.800316
0.801079
0.801838
0.802594
0.803346
0.804093
0.804835
0.805571
0.806301
0.807025
0.807742
0.808451
0.809153
0.809845
0.81053
0.811205
0.811872
0.812528
0.813175
0.813812
0.814439
0.815055
0.815661
0.816256
0.81684
0.817414
0.817976
0.818527
0.819067
0.819595
0.820112
0.820617
0.82111
0.821592
0.822061
0.822517
0.822961
0.823393
0.823811
0.824216
0.824608
0.824987
0.825352
0.825703
0.826041
0.826364
0.826673
0.826967
0.827246
0.82751
0.827759
0.827993
0.828211
0.828414
0.828601
0.828771
0.828926
0.829064
0.829185
0.829289
0.829377
0.829448
0.829502
0.829537
0.829556
0.829558
0.829541
0.829507
0.829457
0.829387
0.8293
0.829196
0.829073
0.828933
0.828774
0.828598
0.828405
0.828194
0.827966
0.82772
0.827459
0.827184
0.826892
0.826583
0.826258
0.825917
0.82556
0.825188
0.8248
0.824396
0.823979
0.823543
0.823103
0.822613
0.822238
0.821544
0.779707
0.77956
0.77947
0.779399
0.779317
0.77922
0.779111
0.77899
0.778861
0.778724
0.778581
0.778434
0.778283
0.778129
0.777975
0.77782
0.777667
0.777516
0.777369
0.777226
0.777089
0.776958
0.776836
0.776722
0.776618
0.776525
0.776444
0.776375
0.776321
0.776281
0.776257
0.776249
0.776258
0.776286
0.776333
0.776399
0.776485
0.776592
0.776721
0.776871
0.777044
0.777239
0.777458
0.7777
0.777964
0.778253
0.778565
0.7789
0.779258
0.779639
0.780043
0.78047
0.780918
0.781388
0.781878
0.782389
0.782919
0.783468
0.784036
0.78462
0.785221
0.785838
0.786469
0.787115
0.787773
0.788444
0.789126
0.789818
0.79052
0.79123
0.791948
0.792673
0.793404
0.794141
0.794882
0.795628
0.796377
0.797129
0.797882
0.798638
0.799394
0.800151
0.800907
0.801663
0.802418
0.803171
0.803922
0.804671
0.805416
0.806158
0.806895
0.807628
0.808355
0.809078
0.809794
0.810503
0.811205
0.811899
0.812585
0.813264
0.813934
0.814594
0.815245
0.815886
0.816518
0.81714
0.817752
0.818353
0.818944
0.819524
0.820093
0.820651
0.821198
0.821734
0.822258
0.82277
0.823271
0.82376
0.824237
0.824701
0.825152
0.825591
0.826016
0.826429
0.826828
0.827214
0.827586
0.827943
0.828287
0.828616
0.82893
0.82923
0.829514
0.829783
0.830037
0.830274
0.830496
0.830702
0.830892
0.831065
0.831221
0.831361
0.831483
0.831588
0.831676
0.831746
0.831799
0.831833
0.831851
0.831851
0.831832
0.831795
0.831741
0.831667
0.831576
0.831467
0.831339
0.831193
0.831028
0.830846
0.830646
0.830428
0.830193
0.829941
0.829672
0.829388
0.829087
0.828769
0.828436
0.828086
0.82772
0.827338
0.826941
0.826528
0.8261
0.825652
0.8252
0.824698
0.82431
0.823608
0.784263
0.784117
0.78402
0.783938
0.783845
0.783736
0.783612
0.783477
0.783332
0.783178
0.783018
0.782852
0.782683
0.78251
0.782336
0.782162
0.781989
0.781818
0.78165
0.781486
0.781328
0.781176
0.781031
0.780896
0.780769
0.780654
0.780549
0.780458
0.780379
0.780315
0.780266
0.780233
0.780217
0.780219
0.780238
0.780277
0.780336
0.780415
0.780515
0.780637
0.78078
0.780945
0.781133
0.781344
0.781577
0.781834
0.782114
0.782417
0.782742
0.783091
0.783462
0.783855
0.78427
0.784707
0.785164
0.785642
0.786139
0.786655
0.78719
0.787742
0.78831
0.788895
0.789495
0.79011
0.790737
0.791378
0.79203
0.792693
0.793366
0.794049
0.79474
0.795439
0.796145
0.796857
0.797574
0.798297
0.799023
0.799754
0.800488
0.801223
0.801961
0.802701
0.803441
0.804182
0.804923
0.805663
0.806402
0.80714
0.807876
0.808609
0.809339
0.810066
0.810788
0.811506
0.812219
0.812926
0.813626
0.81432
0.815006
0.815686
0.816357
0.817019
0.817673
0.818317
0.818952
0.819578
0.820194
0.8208
0.821396
0.821982
0.822557
0.823121
0.823674
0.824216
0.824747
0.825266
0.825773
0.826269
0.826753
0.827224
0.827682
0.828127
0.82856
0.828979
0.829385
0.829777
0.830155
0.830519
0.830868
0.831203
0.831522
0.831827
0.832116
0.832389
0.832647
0.832888
0.833114
0.833322
0.833514
0.833689
0.833847
0.833988
0.834111
0.834216
0.834303
0.834373
0.834425
0.834458
0.834473
0.83447
0.834448
0.834407
0.834348
0.83427
0.834174
0.834059
0.833925
0.833773
0.833602
0.833413
0.833205
0.83298
0.832737
0.832476
0.832199
0.831905
0.831594
0.831267
0.830924
0.830564
0.830188
0.829797
0.829389
0.828965
0.828526
0.828066
0.827601
0.827088
0.826685
0.825967
0.789547
0.789402
0.789298
0.789204
0.789097
0.788974
0.788835
0.788683
0.788521
0.788349
0.788169
0.787984
0.787793
0.7876
0.787404
0.787207
0.787011
0.786817
0.786625
0.786438
0.786255
0.786079
0.785909
0.785748
0.785596
0.785454
0.785323
0.785205
0.785099
0.785007
0.78493
0.784868
0.784823
0.784794
0.784784
0.784792
0.78482
0.784867
0.784934
0.785023
0.785133
0.785264
0.785418
0.785593
0.785792
0.786013
0.786256
0.786523
0.786812
0.787123
0.787457
0.787813
0.788191
0.788589
0.789009
0.789449
0.789908
0.790387
0.790884
0.791399
0.791931
0.79248
0.793043
0.793622
0.794214
0.79482
0.795438
0.796067
0.796707
0.797357
0.798016
0.798684
0.79936
0.800042
0.800731
0.801426
0.802126
0.80283
0.803539
0.804251
0.804966
0.805684
0.806404
0.807125
0.807848
0.808571
0.809294
0.810017
0.81074
0.811461
0.81218
0.812897
0.813611
0.814321
0.815027
0.815728
0.816424
0.817114
0.817798
0.818475
0.819145
0.819807
0.82046
0.821105
0.821742
0.822369
0.822987
0.823596
0.824195
0.824784
0.825363
0.825931
0.826489
0.827035
0.827571
0.828095
0.828608
0.829109
0.829598
0.830075
0.830539
0.83099
0.831428
0.831853
0.832264
0.832662
0.833045
0.833414
0.833768
0.834107
0.834432
0.83474
0.835033
0.83531
0.835571
0.835816
0.836043
0.836254
0.836448
0.836624
0.836783
0.836924
0.837047
0.837152
0.837239
0.837307
0.837357
0.837388
0.8374
0.837393
0.837367
0.837322
0.837259
0.837176
0.837073
0.836952
0.836812
0.836653
0.836474
0.836277
0.836061
0.835827
0.835576
0.835306
0.835019
0.834715
0.834394
0.834057
0.833703
0.833332
0.832946
0.832543
0.832124
0.831689
0.831238
0.830767
0.830289
0.829762
0.829346
0.828607
0.795593
0.795448
0.795336
0.795229
0.795107
0.794968
0.794812
0.794642
0.79446
0.794267
0.794066
0.793858
0.793645
0.793427
0.793207
0.792985
0.792763
0.792542
0.792324
0.792109
0.791899
0.791694
0.791496
0.791306
0.791125
0.790953
0.790793
0.790643
0.790507
0.790383
0.790274
0.79018
0.790102
0.79004
0.789996
0.78997
0.789962
0.789974
0.790005
0.790057
0.79013
0.790223
0.790339
0.790476
0.790635
0.790816
0.79102
0.791246
0.791494
0.791765
0.792057
0.792371
0.792707
0.793064
0.793441
0.793839
0.794256
0.794693
0.795148
0.795621
0.796112
0.796618
0.797141
0.797679
0.798231
0.798796
0.799375
0.799965
0.800567
0.80118
0.801802
0.802434
0.803074
0.803722
0.804377
0.805039
0.805707
0.80638
0.807059
0.807742
0.808429
0.80912
0.809815
0.810512
0.811211
0.811912
0.812615
0.813319
0.814023
0.814727
0.81543
0.816133
0.816834
0.817532
0.818227
0.818919
0.819606
0.820288
0.820966
0.821637
0.822301
0.822959
0.823609
0.824251
0.824886
0.825512
0.826129
0.826737
0.827336
0.827926
0.828506
0.829075
0.829635
0.830184
0.830722
0.831249
0.831765
0.832269
0.832762
0.833242
0.83371
0.834165
0.834607
0.835035
0.83545
0.835852
0.836238
0.836611
0.836969
0.837311
0.837639
0.83795
0.838246
0.838525
0.838788
0.839035
0.839264
0.839476
0.839671
0.839847
0.840006
0.840147
0.84027
0.840373
0.840458
0.840524
0.840571
0.840599
0.840608
0.840597
0.840566
0.840517
0.840447
0.840358
0.84025
0.840122
0.839974
0.839807
0.839621
0.839415
0.839191
0.838947
0.838686
0.838406
0.838109
0.837795
0.837463
0.837115
0.83675
0.836368
0.83597
0.835556
0.835126
0.834679
0.834216
0.833732
0.833242
0.832703
0.832272
0.831513
0.802439
0.802294
0.802172
0.802049
0.801911
0.801753
0.801578
0.801387
0.801183
0.800968
0.800743
0.800509
0.800269
0.800024
0.799776
0.799526
0.799274
0.799024
0.798775
0.798529
0.798287
0.798051
0.797821
0.797598
0.797384
0.797179
0.796984
0.796801
0.79663
0.796471
0.796327
0.796196
0.796082
0.795983
0.795901
0.795837
0.795791
0.795763
0.795755
0.795766
0.795798
0.795851
0.795924
0.796019
0.796135
0.796273
0.796433
0.796614
0.796818
0.797043
0.79729
0.797558
0.797848
0.798158
0.798489
0.79884
0.799211
0.7996
0.800009
0.800435
0.800879
0.801339
0.801816
0.802308
0.802814
0.803335
0.803868
0.804415
0.804973
0.805542
0.806122
0.806712
0.807311
0.807919
0.808534
0.809158
0.809788
0.810425
0.811068
0.811716
0.81237
0.813029
0.813691
0.814358
0.815029
0.815702
0.816379
0.817057
0.817738
0.81842
0.819102
0.819785
0.820468
0.821149
0.821828
0.822504
0.823178
0.823848
0.824514
0.825174
0.825829
0.826478
0.82712
0.827755
0.828383
0.829003
0.829616
0.83022
0.830815
0.831402
0.831979
0.832547
0.833105
0.833653
0.83419
0.834717
0.835233
0.835737
0.83623
0.836711
0.83718
0.837636
0.83808
0.83851
0.838926
0.839329
0.839717
0.840091
0.840451
0.840795
0.841123
0.841436
0.841733
0.842013
0.842277
0.842524
0.842753
0.842965
0.843159
0.843335
0.843493
0.843632
0.843753
0.843854
0.843936
0.844
0.844043
0.844067
0.844071
0.844055
0.84402
0.843964
0.843889
0.843793
0.843677
0.843542
0.843387
0.843211
0.843016
0.842802
0.842568
0.842315
0.842043
0.841754
0.841446
0.84112
0.840777
0.840417
0.840041
0.839648
0.839238
0.838812
0.83837
0.837911
0.837436
0.836941
0.836438
0.835886
0.835441
0.834665
0.810128
0.809981
0.809846
0.809707
0.809549
0.80937
0.809173
0.808958
0.808729
0.808487
0.808233
0.807971
0.807701
0.807425
0.807144
0.806861
0.806576
0.806291
0.806008
0.805727
0.80545
0.805178
0.804911
0.804652
0.804401
0.804158
0.803926
0.803705
0.803495
0.803297
0.803113
0.802944
0.802789
0.80265
0.802527
0.802421
0.802332
0.802262
0.80221
0.802178
0.802166
0.802173
0.802201
0.802249
0.802319
0.80241
0.802521
0.802655
0.802809
0.802985
0.803182
0.803401
0.80364
0.803899
0.804179
0.804479
0.804798
0.805136
0.805493
0.805868
0.80626
0.806668
0.807093
0.807534
0.807989
0.808459
0.808943
0.809439
0.809948
0.810468
0.811
0.811542
0.812094
0.812655
0.813225
0.813804
0.81439
0.814984
0.815585
0.816192
0.816806
0.817426
0.818051
0.818682
0.819317
0.819956
0.8206
0.821248
0.821898
0.822551
0.823207
0.823864
0.824521
0.825179
0.825836
0.826492
0.827146
0.827798
0.828446
0.82909
0.829729
0.830364
0.830992
0.831615
0.832232
0.832841
0.833444
0.834039
0.834626
0.835205
0.835775
0.836336
0.836889
0.837431
0.837964
0.838487
0.838998
0.8395
0.83999
0.840468
0.840935
0.841389
0.84183
0.842259
0.842674
0.843075
0.843463
0.843836
0.844194
0.844537
0.844865
0.845176
0.845472
0.845751
0.846014
0.846259
0.846487
0.846697
0.846889
0.847062
0.847218
0.847354
0.847472
0.84757
0.847648
0.847707
0.847746
0.847765
0.847764
0.847743
0.847701
0.847639
0.847557
0.847454
0.847331
0.847187
0.847023
0.846839
0.846635
0.846411
0.846167
0.845904
0.845622
0.845322
0.845003
0.844666
0.844312
0.84394
0.843552
0.843146
0.842725
0.842287
0.841833
0.841362
0.840875
0.840368
0.839854
0.83929
0.838831
0.838039
0.818705
0.818553
0.818404
0.818244
0.818064
0.817861
0.817637
0.817394
0.817135
0.816861
0.816575
0.816279
0.815973
0.815661
0.815343
0.815022
0.814699
0.814375
0.814052
0.813731
0.813414
0.813101
0.812794
0.812494
0.812201
0.811917
0.811643
0.811379
0.811127
0.810887
0.81066
0.810447
0.810248
0.810065
0.809897
0.809746
0.809612
0.809495
0.809397
0.809317
0.809257
0.809215
0.809194
0.809193
0.809212
0.809252
0.809312
0.809393
0.809495
0.809617
0.809761
0.809924
0.810108
0.810313
0.810537
0.810781
0.811043
0.811325
0.811625
0.811942
0.812277
0.812629
0.812997
0.81338
0.813779
0.814192
0.814619
0.81506
0.815513
0.815978
0.816455
0.816942
0.817441
0.817949
0.818467
0.818994
0.81953
0.820074
0.820626
0.821186
0.821753
0.822327
0.822908
0.823495
0.824088
0.824686
0.82529
0.825899
0.826513
0.827131
0.827752
0.828376
0.829002
0.829629
0.830256
0.830885
0.831513
0.83214
0.832763
0.833384
0.834002
0.834615
0.835224
0.835829
0.836428
0.837021
0.837608
0.838188
0.838761
0.839327
0.839885
0.840435
0.840976
0.841509
0.842032
0.842546
0.84305
0.843543
0.844026
0.844498
0.844958
0.845406
0.845842
0.846265
0.846675
0.847072
0.847455
0.847824
0.848178
0.848517
0.848841
0.849149
0.849441
0.849717
0.849976
0.850217
0.850441
0.850648
0.850835
0.851005
0.851156
0.851288
0.851401
0.851494
0.851567
0.851621
0.851654
0.851667
0.85166
0.851632
0.851584
0.851514
0.851425
0.851314
0.851182
0.85103
0.850857
0.850664
0.85045
0.850217
0.849963
0.849689
0.849397
0.849085
0.848755
0.848406
0.84804
0.847657
0.847257
0.84684
0.846406
0.845956
0.84549
0.845007
0.844509
0.84399
0.843464
0.842889
0.842418
0.841613
0.82822
0.82806
0.827893
0.82771
0.827503
0.82727
0.827014
0.826738
0.826443
0.826131
0.825806
0.825469
0.825121
0.824766
0.824405
0.82404
0.823672
0.823303
0.822935
0.822569
0.822206
0.821847
0.821494
0.821148
0.820809
0.820479
0.820158
0.819848
0.81955
0.819263
0.818989
0.818728
0.818482
0.81825
0.818034
0.817834
0.817651
0.817485
0.817336
0.817206
0.817093
0.817
0.816926
0.816871
0.816836
0.816821
0.816826
0.81685
0.816895
0.81696
0.817045
0.81715
0.817275
0.817419
0.817582
0.817765
0.817966
0.818186
0.818424
0.818679
0.818951
0.81924
0.819545
0.819865
0.820201
0.820551
0.820915
0.821293
0.821684
0.822087
0.822503
0.82293
0.823368
0.823816
0.824275
0.824744
0.825222
0.825709
0.826205
0.826709
0.827222
0.827743
0.828271
0.828807
0.82935
0.829901
0.830457
0.83102
0.831589
0.832163
0.832742
0.833325
0.833911
0.8345
0.835092
0.835686
0.83628
0.836873
0.837465
0.838056
0.838644
0.83923
0.839812
0.840391
0.840966
0.841536
0.8421
0.842659
0.843213
0.843759
0.844299
0.844832
0.845357
0.845874
0.846382
0.846882
0.847373
0.847853
0.848324
0.848784
0.849233
0.849671
0.850097
0.850511
0.850912
0.851301
0.851675
0.852036
0.852383
0.852715
0.853032
0.853333
0.853618
0.853887
0.854139
0.854375
0.854593
0.854793
0.854975
0.855138
0.855283
0.855409
0.855515
0.855602
0.855669
0.855715
0.855742
0.855748
0.855733
0.855697
0.855641
0.855564
0.855466
0.855346
0.855206
0.855044
0.854862
0.854659
0.854436
0.854192
0.853927
0.853643
0.85334
0.853017
0.852675
0.852315
0.851938
0.851542
0.85113
0.850701
0.850256
0.849794
0.849316
0.848822
0.848312
0.847782
0.847246
0.84666
0.846176
0.845361
0.838727
0.838555
0.838367
0.838155
0.837915
0.837647
0.837352
0.837033
0.836693
0.836336
0.835962
0.835576
0.835178
0.834772
0.834359
0.833941
0.833521
0.8331
0.83268
0.832262
0.831847
0.831436
0.831032
0.830634
0.830244
0.829863
0.829492
0.829131
0.828781
0.828443
0.828118
0.827806
0.827508
0.827225
0.826957
0.826705
0.826468
0.826248
0.826046
0.825861
0.825693
0.825544
0.825413
0.825301
0.825208
0.825134
0.825079
0.825043
0.825026
0.825029
0.825051
0.825093
0.825153
0.825232
0.82533
0.825446
0.825581
0.825733
0.825902
0.826089
0.826293
0.826512
0.826748
0.827
0.827266
0.827547
0.827841
0.82815
0.828472
0.828806
0.829153
0.829512
0.829882
0.830263
0.830655
0.831058
0.831471
0.831893
0.832325
0.832767
0.833218
0.833677
0.834146
0.834623
0.835108
0.835602
0.836103
0.836612
0.837128
0.83765
0.838179
0.838711
0.839249
0.839794
0.840341
0.840891
0.841442
0.841994
0.842546
0.843099
0.84365
0.844201
0.844749
0.845295
0.845838
0.846377
0.846913
0.847444
0.84797
0.848491
0.849006
0.849515
0.850018
0.850513
0.851001
0.85148
0.851952
0.852414
0.852867
0.853311
0.853744
0.854166
0.854578
0.854978
0.855365
0.855741
0.856103
0.856452
0.856787
0.857108
0.857414
0.857705
0.857981
0.85824
0.858483
0.858709
0.858918
0.859109
0.859282
0.859437
0.859574
0.859691
0.859789
0.859867
0.859926
0.859964
0.859982
0.859979
0.859956
0.859912
0.859847
0.85976
0.859653
0.859524
0.859374
0.859203
0.859011
0.858798
0.858565
0.85831
0.858035
0.85774
0.857426
0.857092
0.856738
0.856367
0.855978
0.855571
0.855146
0.854706
0.854248
0.853775
0.853286
0.85278
0.852259
0.851719
0.851172
0.850578
0.850082
0.84926
0.850291
0.850102
0.849885
0.849638
0.849357
0.849042
0.848697
0.848324
0.847929
0.847512
0.847079
0.846631
0.846171
0.845703
0.845228
0.844749
0.844268
0.843786
0.843305
0.842827
0.842353
0.841885
0.841422
0.840968
0.840521
0.840083
0.839656
0.839239
0.838834
0.838441
0.83806
0.837693
0.83734
0.837001
0.836676
0.836367
0.836074
0.835797
0.835537
0.835293
0.835066
0.834857
0.834665
0.834492
0.834336
0.834198
0.834079
0.833978
0.833896
0.833832
0.833786
0.833759
0.833749
0.833758
0.833785
0.833829
0.833891
0.83397
0.834065
0.834178
0.834306