/*--------------------------------*- C++ -*----------------------------------*\
| =========                 |                                                 |
| \\      /  F ield         | OpenFOAM: The Open Source CFD Toolbox           |
|  \\    /   O peration     | Version:  2.3.0                                 |
|   \\  /    A nd           | Web:      www.OpenFOAM.org                      |
|    \\/     M anipulation  |                                                 |
\*---------------------------------------------------------------------------*/
FoamFile
{
    version     2.0;
    format      ascii;
    class       volScalarField;
    location    "0.074";
    object      alpha.water;
}
// * * * * * * * * * * * * * * * * * * * * * * * * * * * * * * * * * * * * * //

dimensions      [0 0 0 0 0 0 0];

internalField   nonuniform List<scalar> 
725
(
1
1
0.999999
1.00006
1.00001
1
1
0.999999
0.999931
0.999998
1
1
1
1.00001
1
1
1
1
1.00001
1
1
1
1
1.00002
0.971764
0.957983
0.843827
0.407837
0.506954
0.999954
0.999944
0.99982
0.999836
0.999852
0.99988
0.999914
0.999943
0.999957
0.999958
0.999966
0.999997
0.999987
1
0.87281
0.106701
0.00054214
0.000537134
0.000536366
0.000536367
0.226686
0.995962
0.999889
0.999929
0.999961
0.999993
1.00001
1.00002
1.00002
1.00002
1.00002
1.00003
1
0.999938
0.999864
0.999815
0.999803
0.999811
0.999997
0.767698
0.0809731
0.941381
0.781711
0.496222
0.552944
0.999802
0.999958
0.999828
0.999817
0.999808
0.99982
0.999831
0.999831
0.99983
0.999845
0.999874
0.999949
0.999983
1.00001
0.878648
0.117624
0.000549382
0.000538639
0.000536412
0.000536615
0.256682
0.999921
0.999912
0.999834
0.99981
0.9998
0.999798
0.999805
0.999817
0.999831
0.999844
0.999857
0.999862
0.999898
0.999894
0.999876
0.999856
0.999827
0.999998
0.859036
0.0809256
1
0.241172
0.335438
0.404485
0.948411
0.999965
0.999863
0.999849
0.999807
0.999788
0.999832
0.999888
0.999847
0.999854
0.999871
0.999924
0.999991
1.00001
0.894154
0.141061
0.000584977
0.000541401
0.000536844
0.000540131
0.276783
0.999927
0.999927
0.999845
0.99981
0.999781
0.999754
0.999735
0.999725
0.999726
0.999735
0.99975
0.999767
0.999784
0.999788
0.999807
0.999814
0.999813
0.999998
0.95562
0.196196
0.503462
0.00267304
0.0969563
0.338001
0.877245
0.999972
0.999851
0.999981
0.999842
0.999807
0.999789
0.999789
0.99991
0.999889
0.999894
0.999908
1.00001
1
0.918934
0.190007
0.000658064
0.000551545
0.000538683
0.000567165
0.351306
0.970892
1.00001
1.00004
0.999868
0.999811
0.99977
0.999731
0.999695
0.999666
0.999646
0.999634
0.999651
0.999806
0.99978
0.999772
0.999768
0.999792
0.999996
0.982489
0.250259
4.53456e-05
4.9683e-05
0.000379721
0.220162
0.821293
0.99998
0.999821
0.999804
0.999885
0.999814
0.9998
0.999798
0.99981
0.999837
0.99987
0.999909
0.999981
1
0.923354
0.210653
0.000626694
0.000600787
0.000551122
0.000634495
0.34252
0.872593
0.99999
1
0.999852
0.999812
0.999783
0.999751
0.999717
0.999686
0.999659
0.99964
0.999628
0.999624
0.999628
0.999681
0.99972
0.999759
1
0.973973
0.208666
4.01105e-05
6.74327e-05
0.000202484
0.189204
0.847187
0.999992
0.999769
0.999793
0.999825
0.999838
0.999806
0.9998
0.999812
0.999834
0.999866
0.999906
0.999969
1
0.952795
0.242481
0.000692235
0.000765747
0.00142947
0.00244673
0.338309
0.842444
0.999973
0.999965
0.999787
0.999747
0.99973
0.999704
0.999679
0.999658
0.999642
0.999629
0.999622
0.999623
0.999631
0.999651
0.999678
0.999688
1.00007
0.959324
0.123083
2.78504e-05
6.65236e-05
0.000282093
0.15461
0.850826
0.999869
0.999705
0.999782
0.999932
0.999859
0.999822
0.999806
0.999814
0.999833
0.999864
0.9999
0.999961
1
0.953494
0.242802
0.00130426
0.00147316
0.00318935
0.0077717
0.416632
0.798816
0.999971
0.999908
0.999708
0.99968
0.999677
0.999667
0.999654
0.999642
0.999632
0.999624
0.99962
0.999623
0.999633
0.999649
0.999676
0.999693
1.00001
0.958815
0.115467
3.45708e-05
5.5409e-05
0.000162769
0.156957
0.855982
0.999752
0.999679
0.999783
0.999785
0.999839
0.999831
0.99982
0.999826
0.99984
0.999864
0.999895
0.999955
1
0.95856
0.266706
0.00225456
0.00371563
0.0025908
0.0028573
0.40835
0.8164
0.99711
0.999931
0.999643
0.999625
0.999634
0.999635
0.999632
0.999628
0.999624
0.99962
0.99962
0.999625
0.999636
0.999654
0.999683
0.999694
1
0.956604
0.115453
4.11613e-05
6.62408e-05
6.69564e-05
0.139414
0.842896
0.999804
0.999779
0.999786
0.999783
0.999832
0.99984
0.999835
0.99984
0.99985
0.999867
0.999891
0.999948
1
0.956215
0.257393
0.00131024
0.00120453
0.00120318
0.0118685
0.386271
0.830254
0.999907
0.999917
0.999607
0.999601
0.999613
0.999616
0.999614
0.999612
0.999612
0.999613
0.999617
0.999627
0.99964
0.999664
0.999696
0.999716
1
0.910526
0.115468
1.11251e-06
2.6355e-05
4.78446e-05
0.15384
0.831068
0.999821
0.999783
0.999774
0.999754
0.999812
0.999842
0.999842
0.999848
0.999857
0.999872
0.99989
0.999944
1
0.960601
0.281331
0.0013361
0.00064214
0.000562672
0.0255771
0.443615
0.839057
0.999837
0.999887
0.999605
0.999617
0.999624
0.999625
0.999622
0.999619
0.999616
0.999617
0.999623
0.999636
0.999649
0.999683
0.999718
0.999707
1
0.88572
0.11936
1
1
1
1.00005
1
1
1
1
1.00001
1
1
1
1
1
0.999749
1
1
1
1.00001
1
1
1
1
1.00019
1.00001
0.00148662
4.6031e-05
0.000233843
0.164549
0.785034
0.999836
0.999842
0.999843
0.999725
0.999911
0.999895
0.999884
0.999882
0.999883
0.999889
0.999903
0.999945
1
0.961567
0.265059
0.000634511
0.000592254
0.000590804
0.00108456
0.415108
0.902176
0.999824
0.999766
0.999699
0.999687
0.999668
0.999654
0.999644
0.999636
0.999633
0.999635
0.99964
0.999655
0.999666
0.999705
0.999743
0.999787
0.999991
0.795907
0.100348
0.542914
0.0155833
0.0405042
0.249193
0.751467
0.999812
0.999829
0.999578
0.99956
0.999639
0.999783
0.999842
0.999865
0.999878
0.99989
0.999896
0.999974
1
0.98126
0.389009
0.000595439
0.00059155
0.000590982
0.0201853
0.433063
0.963939
0.999915
0.999775
0.999756
0.999699
0.999688
0.999676
0.999678
0.999821
0.999813
0.999799
0.999788
0.999781
0.999775
0.999776
0.999779
0.999785
0.999844
0.849572
0.0886334
0.9997
0.146119
0.184698
0.286222
0.742278
0.999776
0.999792
0.999411
0.999377
0.999562
0.999727
0.999814
0.999856
0.999879
0.999894
0.999904
0.999953
1
0.971021
0.368398
0.000591254
0.000591222
0.000591103
0.00077195
0.418566
0.99999
0.999916
0.999817
0.999785
0.999837
0.999822
0.999816
0.999809
0.999801
0.999793
0.999788
0.999785
0.999787
0.999793
0.999794
0.999796
0.999792
0.999899
0.823878
0.045587
0.90508
0.638363
0.311701
0.331947
0.732545
0.999747
0.999755
0.999411
0.999367
0.999623
0.999811
0.999896
0.999934
0.999952
0.999955
0.99996
0.999955
1
0.973246
0.443114
0.00197023
0.000593779
0.00059123
0.0026833
0.536928
1
0.999909
0.999824
0.999809
0.999818
0.99982
0.999825
0.999832
0.999842
0.999852
0.999863
0.999876
0.999887
0.999906
0.999934
0.999873
0.999845
0.999897
0.866432
0.121807
0.901691
0.636806
0.338159
0.367582
0.740015
0.999725
0.999717
0.999569
0.999988
1.00002
1.00002
1.00002
1.00002
1.00003
1.00003
1.00002
1.00003
1.00001
0.965197
0.444793
0.00232427
0.000595437
0.000591899
0.00234133
0.521769
1
1.00001
1
1.00001
1.00002
1.00002
1.00003
1.00003
1.00003
1.00003
1.00004
1.00015
1.00013
1.00039
1.00002
0.999545
0.999728
0.999894
0.919407
0.268834
)
;

boundaryField
{
    AirInlet
    {
        type            fixedValue;
        value           uniform 0;
    }
    WaterInlet
    {
        type            fixedValue;
        value           uniform 1;
    }
    ChannelWall
    {
        type            zeroGradient;
    }
    Outlet
    {
        type            inletOutlet;
        inletValue      uniform 0;
        value           nonuniform List<scalar> 
15
(
0.0809731
0.0809256
0
0
0
0
0.115467
0.115453
0.115468
0.11936
0.100348
0.0886334
0
0
0.268834
)
;
    }
    FrontAndBack
    {
        type            empty;
    }
}


// ************************************************************************* //
