/*--------------------------------*- C++ -*----------------------------------*\
| =========                 |                                                 |
| \\      /  F ield         | OpenFOAM: The Open Source CFD Toolbox           |
|  \\    /   O peration     | Version:  2.3.0                                 |
|   \\  /    A nd           | Web:      www.OpenFOAM.org                      |
|    \\/     M anipulation  |                                                 |
\*---------------------------------------------------------------------------*/
FoamFile
{
    version     2.0;
    format      ascii;
    class       volScalarField;
    location    "0.074";
    object      p;
}
// * * * * * * * * * * * * * * * * * * * * * * * * * * * * * * * * * * * * * //

dimensions      [1 -1 -2 0 0 0 0];

internalField   nonuniform List<scalar> 
725
(
-28.695
-65.0492
-83.0305
-78.6447
-85.4487
-34.3327
-64.6327
-83.059
-73.434
-92.9471
-37.0256
-65.1689
-85.2176
-84.2845
-135.01
-36.76
-67.0203
-89.0043
-102.658
-201.931
-33.6705
-68.9434
-88.5985
-94.2764
-133.466
-44.0822
102.175
-354.641
-492.755
-531.084
-557.567
-626.955
-632.87
-643.695
-651.996
-657.32
-661.964
-666.518
-673.439
-684.086
-701.527
-734.486
-788.702
-918.15
-692.622
-667.495
-670.685
-668.572
-672.789
-771.472
-742.914
-581.599
-538.367
-509.923
-495.189
-487.681
-484.035
-482.514
-482.142
-482.243
-482.416
-481.823
-482.319
-477.155
-478.836
-472.14
-542.476
-592.985
-1377.92
166.096
-92.6631
-106.494
-448.279
-426.752
-505.738
-567.459
-636.512
-636.491
-645.408
-653.001
-657.883
-662.285
-666.541
-672.779
-682.375
-698.4
-729.232
-777.444
-907.571
-697.978
-667.621
-670.721
-668.526
-671.922
-749.203
-686.749
-569.98
-531.765
-507.948
-494.528
-487.724
-484.444
-483.118
-482.866
-483.032
-483.315
-482.734
-482.826
-477.069
-477.166
-462.829
-501.724
-465.802
-1129.95
133.782
-6.38989
22.9997
-607.567
-401.324
-756.859
-630.394
-656.476
-642.237
-647.948
-653.833
-658.29
-662.108
-665.877
-671.338
-679.393
-692.794
-718.146
-750.339
-807.93
-688.114
-668.019
-670.934
-668.597
-670.799
-686.446
-599.325
-546.053
-521.247
-503.204
-491.908
-486.078
-483.567
-482.723
-482.755
-483.106
-483.581
-483.156
-483.499
-477.631
-476.303
-449.525
-447.639
-256.23
-146.115
-69.4422
-48.9557
468.178
66.8627
-283.864
-832.232
-667.917
-672.418
-647.627
-651.189
-655.381
-658.722
-661.983
-664.852
-669.305
-675.417
-685.024
-702.762
-722.261
-796.547
-662.711
-667.944
-671.176
-668.828
-668.576
-588.181
-726.752
-531.744
-510.957
-497.271
-488.348
-484.087
-482.453
-482.122
-482.49
-483.116
-483.854
-483.709
-484.497
-478.772
-477.07
-441.026
-422.538
-102.963
337.229
77.2716
478.624
481.03
499.904
-183.536
-723.278
-708.883
-687.17
-656.059
-654.552
-656.858
-659.512
-661.868
-664.238
-667.181
-670.744
-675.773
-683.59
-681.524
-700.846
-665.243
-667.143
-670.603
-671.481
-660.28
-1425.11
-861.187
-517.895
-502.902
-488.254
-483.574
-481.432
-481.016
-481.441
-482.285
-483.204
-484.212
-484.406
-486.004
-480.774
-481.692
-442.965
-448.287
-117.411
276.984
-115.328
481.789
480.486
502.809
-171.258
-690.611
-683.984
-678.841
-657.697
-656.414
-657.602
-660.011
-661.785
-663.575
-665.551
-667.665
-669.791
-672.963
-660.324
-654.559
-750.188
-665.458
-667.922
-679.615
-684.851
-956.606
-581.489
-573.175
-514.041
-483.487
-480.71
-479.69
-480.109
-480.991
-482.151
-483.246
-484.607
-484.748
-487.485
-482.171
-487.881
-448.764
-485.048
-214.971
-58.6198
26.1168
482.26
480.338
502.438
-37.5268
-658.188
-678.086
-676.769
-658.36
-653.134
-657.101
-660.188
-661.758
-663.349
-664.962
-666.529
-667.703
-669.28
-655.54
-631.514
-714.549
-666.317
-667.87
-635.049
-680.954
-107.597
-10.8176
-594.285
-510.899
-481.269
-479.597
-479.06
-479.784
-480.836
-482.11
-483.278
-484.745
-484.924
-488.038
-482.875
-490.102
-451.435
-498.539
-250.928
-116.537
57.1968
482.149
480.415
502.67
-63.6026
-619.393
-676.048
-674.81
-659.377
-658.909
-658
-660.34
-661.728
-663.106
-664.474
-665.442
-665.666
-665.769
-652.361
-608.441
-659.878
-666.287
-593.712
-662.403
-625.266
-46.8541
-264.219
-591.449
-501.628
-478.756
-478.41
-478.447
-479.474
-480.692
-482.074
-483.32
-484.872
-485.142
-488.529
-483.704
-492.447
-455.033
-511.939
-287.978
-165.644
59.8638
481.976
480.925
503.043
19.7705
-706.179
-677.835
-677.552
-660.548
-659.443
-658.149
-660.473
-661.693
-662.849
-663.929
-664.396
-663.627
-662.379
-649.378
-616.352
-677.539
-665.834
-668.329
-658.15
-636.868
107.916
-309.223
-569.477
-491.723
-475.557
-476.33
-477.105
-478.487
-479.923
-481.487
-482.938
-484.734
-485.312
-489.002
-484.637
-494.603
-458.931
-525.334
-327.58
-524.332
65.5048
482.633
482.833
502.633
-73.5306
-734.156
-681.433
-677.807
-661.518
-659.966
-657.708
-660.626
-661.659
-662.59
-663.369
-663.329
-661.665
-658.983
-645.646
-622.152
-706.168
-664.791
-663.724
-652.16
-568.707
-77.2647
-280.032
-536.866
-483.75
-472.735
-475.649
-476.894
-478.493
-480.066
-481.673
-483.133
-484.981
-485.691
-489.403
-485.709
-496.511
-463.408
-538.094
-369.052
-635.528
58.2152
414.113
379.94
352.962
376.324
284.405
410.802
381.771
352.145
377.9
210.202
410.326
383.367
354.156
400.225
266.089
412.816
383.546
354.688
399.791
290.22
418.245
382.439
351.868
379.789
272.054
488.054
482.458
499.729
-79.0205
-705.729
-693.167
-679.038
-664.403
-661.52
-661.159
-660.897
-661.479
-661.877
-661.821
-660.404
-656.643
-649.628
-632.674
-602.299
-678.456
-663.815
-661.439
-659.778
-707.206
-57.1291
-336.126
-456.675
-463.443
-467.593
-472.068
-475.144
-477.589
-479.657
-481.559
-483.267
-485.196
-486.564
-490.261
-488.937
-501.195
-476.584
-569.851
-476.284
-787.824
80.5387
7.03258
447.178
285.512
-172.277
-687.116
-698.387
-677.247
-668.125
-663.569
-663.183
-662.236
-661.497
-660.838
-659.532
-656.061
-648.804
-635.616
-608.129
-536.861
-603.473
-663.726
-659.601
-659.98
-667.999
-856.957
-444.546
-417.353
-444.506
-457.064
-466.544
-472.347
-476.164
-478.984
-481.27
-483.322
-485.608
-487.518
-492.159
-492.816
-510.238
-494.631
-613.474
-578.372
-1285.52
40.8143
515.353
153.01
-332.71
-191.67
-684.772
-694.794
-676.695
-669.005
-663.46
-663.17
-662.191
-661.149
-659.928
-657.644
-652.486
-642.364
-624.254
-589.673
-522.546
-626.251
-663.306
-658.766
-660.384
-663.021
-812.705
-378.05
-394.539
-431.617
-448.571
-461.99
-469.99
-475.026
-478.481
-481.132
-483.449
-485.986
-488.347
-493.811
-495.87
-517.373
-507.151
-625.654
-626.333
-1207.92
116.324
213.53
-75.7588
-490.191
-294.932
-681.994
-687.54
-676.763
-670.509
-664.789
-663.928
-662.595
-661.162
-659.29
-656.28
-649.958
-637.97
-616.536
-580.168
-504.729
-557.676
-664.182
-658.408
-660.563
-664.952
-503.348
-299.902
-366.532
-419.772
-442.426
-458.697
-468.276
-474.18
-478.114
-481.045
-483.574
-486.286
-488.978
-495.019
-497.95
-521.991
-514.111
-628.785
-642.508
-932.694
-67.7956
239.679
-18.4097
-518.528
-351.286
-599.503
-666.672
-675.108
-672.164
-663.477
-662.925
-661.868
-660.472
-658.481
-655.141
-648.146
-635.114
-611.83
-575.682
-481.649
-506.657
-663.967
-658.264
-660.748
-662.648
-485.163
-267.488
-349.421
-411.852
-438.212
-456.079
-466.531
-472.947
-477.193
-480.325
-483.035
-485.868
-488.264
-494.75
-496.364
-524.757
-514.949
-624.866
-613.994
-553.636
-215.471
)
;

boundaryField
{
    AirInlet
    {
        type            calculated;
        value           nonuniform List<scalar> 5(481.895 483.318 480.832 484.411 482.624);
    }
    WaterInlet
    {
        type            calculated;
        value           nonuniform List<scalar> 10(-28.6929 -34.3268 -37.0155 -36.7459 -33.6524 414.095 410.788 410.316 412.81 418.243);
    }
    ChannelWall
    {
        type            calculated;
        value           nonuniform List<scalar> 
110
(
-33.6965
-68.9734
-88.6325
-94.3144
-133.506
414.139
379.97
352.996
376.362
284.447
418.219
382.408
351.834
379.751
272.012
239.639
-18.4378
-518.543
-351.302
-599.536
-666.716
-675.152
-672.208
-663.521
-662.969
-661.912
-660.516
-658.525
-655.185
-648.19
-635.158
-611.874
-575.726
-481.692
-506.677
-663.967
-658.264
-660.748
-662.648
-485.186
-267.532
-349.465
-411.896
-438.256
-456.123
-466.575
-472.991
-477.237
-480.369
-483.079
-485.912
-488.308
-494.794
-496.408
-524.802
-514.993
-624.91
-614.038
-553.676
-215.483
-28.6684
-65.0187
-82.9961
-78.6064
-85.4065
-44.0399
102.212
-354.623
-492.733
-531.039
-557.523
-626.91
-632.826
-643.651
-651.952
-657.275
-661.92
-666.474
-673.395
-684.042
-701.483
-734.442
-788.658
-918.112
-692.617
-667.495
-670.685
-668.571
-672.789
-771.462
-742.87
-581.555
-538.323
-509.879
-495.145
-487.637
-483.991
-482.47
-482.098
-482.199
-482.372
-481.779
-482.274
-477.111
-478.792
-472.096
-542.432
-592.94
-1377.89
166.1
)
;
    }
    Outlet
    {
        type            calculated;
        value           nonuniform List<scalar> 
15
(
-0.00361513
-0.0108391
-0.343885
-0.73377
-1.51074
-0.00045126
-0.0547875
-0.0570636
-0.0593537
-0.0636962
-0.0590976
-0.0601728
-0.000760275
-0.0643116
-1.15246
)
;
    }
    FrontAndBack
    {
        type            empty;
    }
}


// ************************************************************************* //
