/*--------------------------------*- C++ -*----------------------------------*\
| =========                 |                                                 |
| \\      /  F ield         | OpenFOAM: The Open Source CFD Toolbox           |
|  \\    /   O peration     | Version:  2.3.0                                 |
|   \\  /    A nd           | Web:      www.OpenFOAM.org                      |
|    \\/     M anipulation  |                                                 |
\*---------------------------------------------------------------------------*/
FoamFile
{
    version     2.0;
    format      ascii;
    class       surfaceScalarField;
    location    "0.074";
    object      phi;
}
// * * * * * * * * * * * * * * * * * * * * * * * * * * * * * * * * * * * * * //

dimensions      [0 3 -1 0 0 0 0];

internalField   nonuniform List<scalar> 
1380
(
3.11353e-13
1.88647e-13
2.84437e-13
2.69168e-14
2.38017e-13
4.64201e-14
1.96892e-13
4.11247e-14
8.60936e-13
-6.64044e-13
6.00319e-13
8.83275e-14
6.01937e-13
2.52987e-14
5.07876e-13
1.40481e-13
-6.30912e-14
6.12092e-13
2.531e-12
-1.73315e-12
6.8463e-13
-9.63022e-14
7.11814e-13
-1.88522e-15
6.9714e-13
1.55155e-13
4.35017e-13
8.74214e-13
2.41396e-12
5.52058e-13
5.99376e-13
-1.95678e-13
6.20053e-13
-2.25625e-14
7.52808e-13
2.24008e-14
1.44239e-12
1.84629e-13
-6.61607e-13
4.51796e-12
3.04322e-13
2.81759e-13
3.0416e-13
4.88789e-13
-1.72819e-13
-1.48594e-12
8.21894e-13
9.03593e-13
-2.38953e-12
-1.71287e-12
2.61646e-12
-2.1799e-12
4.67028e-13
-1.28511e-12
-8.94785e-13
-4.15219e-13
-8.69894e-13
-1.23594e-13
-2.91625e-13
1.0098e-13
-2.24574e-13
1.81912e-13
-8.09321e-14
1.99726e-13
-1.78137e-14
1.88018e-13
1.17076e-14
1.70667e-13
1.73513e-14
1.6606e-13
4.60686e-15
1.59305e-13
6.75478e-15
1.53202e-13
6.10376e-15
1.43534e-13
9.66754e-15
2.2798e-13
-8.4446e-14
4.03572e-13
-1.75592e-13
2.70882e-13
1.32691e-13
2.88072e-13
-1.71898e-14
2.38591e-12
-2.09783e-12
1.65164e-12
7.3427e-13
4.12978e-12
-2.47814e-12
5.90348e-12
-1.77371e-12
-4.24216e-13
6.3277e-12
-3.72677e-13
-5.15386e-14
-4.80839e-14
-3.24593e-13
1.09266e-13
-1.5735e-13
1.50004e-13
-4.07377e-14
1.53337e-13
-3.33303e-15
1.49029e-13
4.30757e-15
1.46105e-13
2.92431e-15
1.45248e-13
8.56889e-16
1.44846e-13
4.02058e-16
1.45236e-13
-3.89993e-16
1.43358e-13
1.87797e-15
1.48656e-13
-5.29741e-15
1.5474e-13
-6.0843e-15
1.87362e-13
-3.26222e-14
2.41149e-13
-5.37878e-14
4.4923e-13
-2.08081e-13
1.00748e-12
-5.58246e-13
2.70693e-12
-1.69945e-12
9.98953e-12
-7.2826e-12
-1.8231e-12
-7.50653e-13
-1.60606e-13
1.84607e-12
-4.98625e-12
1.80047e-12
2.66206e-12
4.57938e-13
1.80956e-12
-1.20168e-12
7.64832e-13
-8.47439e-13
-1.22413e-12
-2.67845e-13
-8.71219e-13
1.87383e-13
-6.79801e-13
3.7153e-13
-2.65079e-13
4.42169e-13
-8.84526e-14
4.37917e-13
1.59588e-14
4.076e-13
4.76687e-14
3.84676e-13
2.75312e-14
3.45412e-13
4.60184e-14
2.88007e-13
6.35091e-14
2.00401e-13
9.72735e-14
2.60306e-13
-1.44351e-13
4.7627e-13
-3.91556e-13
7.0281e-13
-9.38488e-14
1.45165e-12
-7.66028e-13
4.25192e-12
-4.89811e-12
3.13775e-12
1.84845e-12
4.4753e-12
-3.81569e-12
2.77633e-12
-7.47359e-14
-1.03685e-12
1.01409e-11
-5.10769e-13
-5.77617e-13
1.89073e-13
-1.02444e-12
4.08296e-13
-3.76573e-13
4.44622e-13
-7.70639e-14
4.28538e-13
1.27506e-14
4.07504e-13
2.53425e-14
3.94283e-13
1.61452e-14
3.8801e-13
7.13009e-15
3.85372e-13
3.03924e-15
3.84412e-13
5.7021e-16
3.84565e-13
1.725e-15
3.91876e-13
-1.26088e-14
4.06192e-13
-2.04006e-14
4.47769e-13
-7.41984e-14
5.30413e-13
-1.36432e-13
7.38769e-13
-4.16437e-13
1.19467e-12
-1.01414e-12
2.24964e-12
-2.75442e-12
3.78867e-12
-8.82164e-12
-2.23278e-12
4.49777e-12
-4.10631e-12
1.06179e-11
-1.11064e-11
2.9096e-12
1.03704e-11
-1.24231e-13
4.84339e-12
-7.24728e-13
1.36533e-12
-8.07905e-13
-1.14096e-12
-1.43064e-13
-1.53606e-12
3.19106e-13
-1.14197e-12
5.29674e-13
-4.75647e-13
6.17684e-13
-1.76463e-13
6.2401e-13
9.63279e-15
5.9441e-13
7.72686e-14
5.60738e-13
6.12035e-14
5.0915e-13
9.76063e-14
4.3908e-13
1.3358e-13
3.32335e-13
2.04018e-13
3.45603e-13
-1.57619e-13
5.24547e-13
-5.705e-13
4.90998e-13
-6.02996e-14
1.87127e-12
-2.1463e-12
5.75692e-12
-8.78376e-12
2.60912e-12
4.99625e-12
2.5312e-12
-3.73777e-12
-6.54536e-13
3.11099e-12
8.7889e-14
9.39846e-12
4.39297e-14
-5.33657e-13
6.0818e-13
-1.58869e-12
6.81719e-13
-4.50112e-13
6.59466e-13
-5.481e-14
6.26064e-13
4.61524e-14
5.99369e-13
5.20379e-14
5.82331e-13
3.31833e-14
5.74659e-13
1.48021e-14
5.71533e-13
6.16533e-15
5.70414e-13
1.68832e-15
5.70898e-13
1.24113e-15
5.79575e-13
-2.12856e-14
5.94251e-13
-3.50766e-14
6.36241e-13
-1.16189e-13
6.92652e-13
-1.92843e-13
8.30661e-13
-5.54446e-13
9.24635e-13
-1.10812e-12
9.60464e-13
-2.79025e-12
-4.94594e-12
-2.91524e-12
2.80202e-13
7.77949e-12
-7.36785e-12
5.95203e-12
-9.27895e-12
1.67785e-13
1.61546e-11
1.77045e-12
3.24073e-12
1.21012e-12
1.92566e-12
-8.66332e-14
1.55794e-13
1.65728e-13
-1.78842e-12
4.85649e-13
-1.46189e-12
6.65806e-13
-6.55805e-13
7.46625e-13
-2.57282e-13
7.52905e-13
3.35314e-15
7.28973e-13
1.01201e-13
6.89371e-13
1.00805e-13
6.49332e-13
1.37645e-13
5.89158e-13
1.93754e-13
4.99356e-13
2.9382e-13
4.74815e-13
-1.33078e-13
7.07092e-13
-8.02776e-13
1.0081e-12
-3.61307e-13
3.03891e-12
-4.17711e-12
4.92837e-12
-1.06732e-11
2.70446e-13
9.65417e-12
-6.66146e-13
-2.80118e-12
7.29338e-12
-4.84853e-12
1.48084e-12
1.5211e-11
9.33778e-13
1.34079e-14
1.27739e-12
-1.9323e-12
9.5315e-13
-1.25869e-13
8.00436e-13
9.79045e-14
7.47726e-13
9.88624e-14
7.23406e-13
7.63571e-14
7.11057e-13
4.55328e-14
7.05863e-13
1.99961e-14
7.03703e-13
8.32506e-15
7.02459e-13
2.9321e-15
7.02241e-13
1.45957e-15
7.10094e-13
-2.91392e-14
7.15413e-13
-4.03954e-14
7.46459e-13
-1.47235e-13
7.53077e-13
-1.99461e-13
7.893e-13
-5.90668e-13
4.64473e-13
-7.8329e-13
-5.97961e-13
-1.72782e-12
-7.11144e-12
3.59824e-12
4.06748e-12
-2.86766e-12
-4.67301e-12
-1.00744e-11
-2.07223e-12
1.19573e-12
4.88452e-12
-7.01999e-13
5.13846e-12
-4.56253e-13
1.67992e-12
2.1649e-14
-3.22108e-13
4.44642e-13
-2.21141e-12
6.57492e-13
-1.67474e-12
7.66722e-13
-7.65035e-13
8.21113e-13
-3.11672e-13
8.18916e-13
5.55001e-15
7.96392e-13
1.23725e-13
7.70499e-13
1.26698e-13
7.42786e-13
1.65359e-13
7.10394e-13
2.26146e-13
6.60661e-13
3.43553e-13
5.74237e-13
-4.66538e-14
4.13067e-13
-6.41607e-13
-1.06224e-12
1.114e-12
-4.82213e-12
-4.17223e-13
-1.37087e-12
-1.41245e-11
-4.93848e-12
1.32218e-11
-4.17044e-12
-3.56922e-12
-5.72581e-14
-8.96172e-12
3.75875e-12
1.1395e-11
2.49339e-12
1.27877e-12
1.93726e-12
-1.37618e-12
1.20784e-12
6.03556e-13
8.92117e-13
4.13624e-13
8.13482e-13
1.77498e-13
7.91438e-13
9.84011e-14
7.82806e-13
5.41652e-14
7.8109e-13
2.1712e-14
7.81192e-13
8.22315e-15
7.80858e-13
3.26618e-15
7.81021e-13
1.2965e-15
7.83097e-13
-3.12149e-14
7.80315e-13
-3.76139e-14
7.90935e-13
-1.57855e-13
7.50486e-13
-1.59011e-13
6.96831e-13
-5.37013e-13
1.64054e-13
-2.50513e-13
-1.16448e-12
-3.99288e-13
-8.35571e-12
1.07895e-11
1.13635e-11
-1.62081e-12
-2.8522e-12
-2.21066e-12
-1.48238e-12
-1.01166e-12
3.68553e-12
8.96442e-14
4.03715e-12
1.02711e-13
1.66685e-12
2.05905e-13
-4.25302e-13
1.70954e-13
-2.17646e-12
1.68359e-13
-1.67215e-12
1.75639e-13
-7.72314e-13
1.83102e-13
-3.19136e-13
1.82176e-13
6.47584e-15
1.78811e-13
1.27091e-13
1.74515e-13
1.30994e-13
1.72448e-13
1.67425e-13
1.69473e-13
2.29121e-13
1.6312e-13
3.49906e-13
1.46496e-13
-3.003e-14
7.80372e-14
-5.73147e-13
-2.74633e-13
1.46667e-12
1.35778e-13
-8.27634e-13
-1.11974e-12
-1.2869e-11
-1.1557e-12
1.32577e-11
-3.58635e-12
-1.13856e-12
-2.03779e-12
-1.05103e-11
-6.42104e-14
9.42141e-12
-1.98425e-13
1.41298e-12
1.30089e-13
-1.70469e-12
2.32567e-13
5.01077e-13
1.9305e-13
4.53141e-13
1.8141e-13
1.89138e-13
1.77943e-13
1.01868e-13
1.7703e-13
5.50783e-14
1.76885e-13
2.18576e-14
1.77025e-13
8.08292e-15
1.76353e-13
3.93807e-15
1.77779e-13
-1.29589e-16
1.74045e-13
-2.74806e-14
1.79553e-13
-4.31226e-14
1.67534e-13
-1.45836e-13
1.71285e-13
-1.62762e-13
1.30103e-13
-4.95831e-13
6.64336e-14
-1.86843e-13
-7.08105e-15
-3.25773e-13
4.54984e-13
1.03274e-11
1.15175e-11
-1.74788e-12
-9.04319e-13
-2.18534e-12
-1.04491e-12
5.24445e-13
9.75738e-13
1.76973e-13
4.38462e-12
2.32306e-13
1.61152e-12
2.67764e-13
-4.6076e-13
1.93629e-13
-2.10233e-12
1.77088e-13
-1.65561e-12
1.77439e-13
-7.72664e-13
1.82556e-13
-3.24254e-13
1.81515e-13
7.51701e-15
1.78873e-13
1.29733e-13
1.75525e-13
1.34343e-13
1.74453e-13
1.68496e-13
1.72993e-13
2.30581e-13
1.69313e-13
3.53586e-13
1.52804e-13
-1.35207e-14
9.64463e-14
-5.1679e-13
-2.75443e-13
1.83856e-12
-7.37785e-13
-3.65292e-13
-1.0242e-12
-1.25825e-11
-1.73749e-12
1.3971e-11
-5.29398e-12
2.41793e-12
-3.10604e-12
-1.26982e-11
-1.15286e-12
7.46823e-12
-5.77887e-13
8.38007e-13
5.92933e-14
-2.34187e-12
2.21822e-13
3.38548e-13
1.90097e-13
4.84866e-13
1.80827e-13
1.98408e-13
1.78056e-13
1.04638e-13
1.77542e-13
5.55928e-14
1.77539e-13
2.18604e-14
1.77705e-13
7.9168e-15
1.7696e-13
4.6829e-15
1.78475e-13
-1.64381e-15
1.74308e-13
-2.33142e-14
1.80221e-13
-4.90359e-14
1.66097e-13
-1.31711e-13
1.71177e-13
-1.67842e-13
1.23768e-13
-4.48423e-13
7.82117e-14
-1.41287e-13
5.76248e-14
-3.05186e-13
9.80807e-13
9.40423e-12
1.11968e-11
-1.73684e-12
1.03253e-12
-2.01825e-12
-7.63507e-13
6.3435e-13
-1.67686e-12
3.38118e-13
4.68085e-12
3.00103e-13
1.64953e-12
3.04227e-13
-4.64885e-13
2.12404e-13
-2.01051e-12
1.85601e-13
-1.6288e-12
1.79208e-13
-7.66271e-13
1.81543e-13
-3.2659e-13
1.80201e-13
8.85885e-15
1.7837e-13
1.31565e-13
1.76042e-13
1.36671e-13
1.76095e-13
1.68443e-13
1.76044e-13
2.30632e-13
1.7523e-13
3.544e-13
1.6119e-13
5.1946e-16
1.22928e-13
-4.78528e-13
-6.61585e-14
2.02765e-12
-1.39154e-12
9.6009e-13
-9.90975e-13
-1.29831e-11
-2.04499e-12
1.5025e-11
-4.91954e-12
5.29249e-12
-5.96055e-12
-1.16572e-11
-7.49376e-13
2.25705e-12
-1.21471e-13
2.10101e-13
1.92653e-13
-2.65599e-12
2.13379e-13
3.17822e-13
1.86846e-13
5.11399e-13
1.79621e-13
2.05633e-13
1.77575e-13
1.06684e-13
1.77486e-13
5.56819e-14
1.77656e-13
2.16902e-14
1.77858e-13
7.71518e-15
1.77105e-13
5.43538e-15
1.78597e-13
-3.13547e-15
1.74312e-13
-1.9029e-14
1.80026e-13
-5.47497e-14
1.65335e-13
-1.17021e-13
1.70022e-13
-1.72528e-13
1.21668e-13
-4.00069e-13
9.51704e-14
-1.14789e-13
8.19761e-14
-2.91992e-13
7.37625e-14
9.41244e-12
9.76194e-12
-1.66631e-12
2.89883e-12
-1.78722e-12
-6.42595e-13
2.26017e-13
-3.6901e-12
8.59589e-14
4.82091e-12
2.67771e-13
1.46772e-12
3.12987e-13
-5.10101e-13
2.27525e-13
-1.92504e-12
1.93337e-13
-1.59461e-12
1.80391e-13
-7.53326e-13
1.79837e-13
-3.26035e-13
1.7822e-13
1.04757e-14
1.77276e-13
1.32509e-13
1.75997e-13
1.37949e-13
1.77276e-13
1.67165e-13
1.78634e-13
2.29274e-13
1.80458e-13
3.52576e-13
1.69799e-13
1.11779e-14
1.47412e-13
-4.56141e-13
2.40541e-13
1.93452e-12
3.40455e-13
8.60176e-13
-8.65222e-13
-1.17774e-11
-2.87202e-12
1.70318e-11
-4.37045e-12
6.79092e-12
-7.43586e-12
-8.59182e-12
6.8893e-13
-5.86773e-12
9.52796e-13
-5.3765e-14
3.3999e-13
-2.04319e-12
2.08147e-13
4.49665e-13
1.82998e-13
5.36548e-13
1.77711e-13
2.1092e-13
1.76464e-13
1.07932e-13
1.76818e-13
5.53278e-14
1.77158e-13
2.13499e-14
1.77392e-13
7.48105e-15
1.76639e-13
6.18826e-15
1.78075e-13
-4.57095e-15
1.73674e-13
-1.46278e-14
1.79212e-13
-6.02882e-14
1.63959e-13
-1.01768e-13
1.68463e-13
-1.77032e-13
1.18913e-13
-3.50519e-13
1.14655e-13
-1.10531e-13
1.46089e-13
-3.23426e-13
7.28977e-13
8.82956e-12
8.79413e-12
-1.47507e-12
4.57391e-12
-1.72306e-12
-3.94605e-13
-5.06951e-13
-4.90621e-12
-2.33678e-13
4.54764e-12
2.1947e-13
1.01457e-12
3.09984e-13
-6.00615e-13
2.39423e-13
-1.85448e-12
2.00782e-13
-1.55597e-12
1.80846e-13
-7.3339e-13
1.77705e-13
-3.22895e-13
1.75525e-13
1.26562e-14
1.75617e-13
1.32417e-13
1.75429e-13
1.38137e-13
1.77943e-13
1.64652e-13
1.80752e-13
2.26465e-13
1.85306e-13
3.48022e-13
1.77377e-13
1.9107e-14
1.62541e-13
-4.41305e-13
2.76606e-13
1.82046e-12
8.92119e-13
2.44664e-13
-7.6219e-13
-1.01231e-11
-2.42252e-12
1.86922e-11
-4.1967e-12
8.5651e-12
1.83755e-12
-1.46261e-11
1.89739e-12
-5.92758e-12
1.39756e-12
4.46065e-13
4.17241e-13
-1.06287e-12
2.01386e-13
6.6552e-13
1.7922e-13
5.58714e-13
1.75387e-13
2.14753e-13
1.74819e-13
1.085e-13
1.75524e-13
5.46232e-14
1.76036e-13
2.0838e-14
1.76336e-13
7.18126e-15
1.75708e-13
6.81574e-15
1.77017e-13
-5.87983e-15
1.72784e-13
-1.03952e-14
1.77533e-13
-6.50372e-14
1.63054e-13
-8.72888e-14
1.64566e-13
-1.78544e-13
1.19275e-13
-3.05227e-13
1.16346e-13
-1.07602e-13
1.90512e-13
-3.97593e-13
1.62579e-12
7.39428e-12
8.08074e-12
3.07443e-13
1.92557e-13
3.01159e-13
6.28395e-15
3.86869e-13
-8.57098e-14
9.99849e-13
-6.1298e-13
-3.58e-13
1.35785e-12
6.00865e-13
9.16922e-14
6.31178e-13
-2.40299e-14
8.04994e-13
-2.59526e-13
1.71505e-12
-1.52304e-12
-3.7983e-12
5.15535e-12
6.82724e-13
-9.10323e-14
6.97817e-13
-3.91222e-14
6.41521e-13
-2.0323e-13
-1.34457e-13
-7.47062e-13
-3.43592e-12
-4.96835e-13
5.97463e-13
-1.88496e-13
5.81669e-13
-2.33278e-14
4.13215e-13
-3.47765e-14
-5.69629e-13
2.35782e-13
-9.02881e-13
-3.10267e-12
3.11504e-13
2.88177e-13
2.534e-13
4.89182e-13
-4.13699e-13
-1.33019e-12
7.26195e-12
-9.82433e-12
8.09953e-12
9.08989e-13
-1.56395e-11
4.59155e-14
5.41071e-12
9.92253e-13
6.82329e-14
1.43288e-12
-1.04124e-12
1.20811e-12
-1.62971e-12
9.80704e-13
-1.32857e-12
8.32764e-13
-5.8545e-13
7.54594e-13
-2.44725e-13
7.50806e-13
1.64443e-14
7.62939e-13
1.20284e-13
7.77159e-13
1.23916e-13
8.00461e-13
1.4135e-13
8.34188e-13
1.92738e-13
8.96826e-13
2.85383e-13
8.63866e-13
5.20673e-14
8.05456e-13
-3.82895e-13
1.6686e-12
9.57313e-13
3.43925e-12
-1.52599e-12
-3.50895e-12
-3.17492e-12
-3.28102e-12
1.84642e-11
8.7473e-12
-3.46322e-12
1.12698e-11
-1.71486e-11
7.48677e-12
-2.14452e-12
4.13887e-12
3.79396e-12
1.43042e-12
1.64559e-12
7.73373e-13
1.32256e-12
7.52722e-13
5.79365e-13
7.53631e-13
2.13844e-13
7.59631e-13
1.02499e-13
7.66999e-13
4.72554e-14
7.71681e-13
1.61561e-14
7.73036e-13
5.82594e-15
7.73641e-13
6.21148e-15
7.72447e-13
-4.68664e-15
7.69742e-13
-7.68935e-15
7.55427e-13
-5.07227e-14
7.3865e-13
-7.05121e-14
6.60431e-13
-1.00324e-13
5.434e-13
-1.88196e-13
3.07592e-13
1.28206e-13
-4.68511e-14
-4.31499e-14
9.43546e-12
-2.08804e-12
5.53072e-12
8.53749e-12
3.87981e-12
3.68527e-12
1.29518e-11
-3.31976e-12
-8.6345e-12
8.30663e-13
1.26029e-12
1.79652e-12
-8.97626e-13
1.76906e-12
-1.01378e-12
1.37436e-12
-1.23501e-12
9.78644e-13
-9.32849e-13
7.49624e-13
-3.5643e-13
6.40336e-13
-1.35437e-13
6.33446e-13
2.33337e-14
6.65806e-13
8.79245e-14
6.99766e-13
8.99565e-14
7.41624e-13
9.94918e-14
7.99923e-13
1.34439e-13
8.95332e-13
1.89974e-13
9.14214e-13
3.31843e-14
8.94797e-13
-3.63478e-13
1.1823e-12
6.6981e-13
-7.61083e-14
-2.67584e-13
-2.49066e-12
-7.60364e-13
2.49199e-12
1.34816e-11
3.62391e-12
-4.59514e-12
-2.62203e-13
-1.32625e-11
1.3982e-12
-3.80492e-12
1.20618e-12
3.98598e-12
4.94758e-13
2.35701e-12
5.25273e-13
1.29205e-12
6.18606e-13
4.86032e-13
6.4971e-13
1.82739e-13
6.68937e-13
8.32726e-14
6.81024e-13
3.51684e-14
6.8601e-13
1.117e-14
6.87626e-13
4.20994e-15
6.89114e-13
4.72337e-15
6.86883e-13
-2.45489e-15
6.85421e-13
-6.22735e-15
6.67866e-13
-3.31684e-14
6.52156e-13
-5.4802e-14
5.93964e-13
-4.21326e-14
4.85662e-13
-7.98941e-14
4.30799e-13
1.83069e-13
2.96405e-14
3.58009e-13
5.82788e-12
-7.88628e-12
3.35938e-12
3.42321e-12
-4.02417e-14
9.78565e-12
6.58932e-12
2.13724e-12
-9.8609e-13
1.76713e-12
1.6304e-12
1.80638e-12
-9.36876e-13
1.70129e-12
-9.08696e-13
1.27083e-12
-8.04554e-13
8.07852e-13
-4.69868e-13
5.64946e-13
-1.13524e-13
4.76292e-13
-4.67836e-14
4.84473e-13
1.5153e-14
5.26645e-13
4.57526e-14
5.67811e-13
4.87903e-14
6.17291e-13
5.00121e-14
6.84249e-13
6.74809e-14
7.83099e-13
9.11241e-14
8.11741e-13
4.54222e-15
6.27752e-13
-1.79489e-13
4.44154e-13
8.53408e-13
6.20188e-14
1.14551e-13
-1.37725e-12
6.78899e-13
5.05355e-12
7.05078e-12
3.29089e-12
-2.83248e-12
-4.13928e-12
-5.83231e-12
-1.81258e-12
-6.13162e-12
-5.64424e-13
2.73782e-12
-1.66507e-13
1.9591e-12
2.61762e-13
8.63778e-13
4.33965e-13
3.13829e-13
4.97641e-13
1.19064e-13
5.30043e-13
5.08706e-14
5.4549e-13
1.97214e-14
5.50949e-13
5.71089e-15
5.52972e-13
2.18699e-15
5.54767e-13
2.92851e-15
5.53262e-13
-9.50369e-16
5.50406e-13
-3.37087e-15
5.35939e-13
-1.87011e-14
5.14818e-13
-3.36817e-14
4.80861e-13
-8.17536e-15
3.83875e-13
1.70918e-14
4.07877e-13
1.59067e-13
-2.96141e-14
7.95499e-13
-3.76336e-12
-4.15253e-12
-1.172e-12
-1.38222e-12
-1.76069e-12
4.981e-12
2.26093e-13
2.4393e-12
1.55561e-12
1.09733e-12
2.97238e-12
1.39787e-12
-1.23742e-12
1.2561e-12
-7.66927e-13
8.23725e-13
-3.72178e-13
4.68739e-13
-1.14883e-13
3.50272e-13
4.94281e-15
3.03568e-13
-7.90577e-17
3.11159e-13
7.56106e-15
3.42707e-13
1.42046e-14
3.78257e-13
1.32411e-14
4.19107e-13
9.16163e-15
4.75006e-13
1.15815e-14
5.53276e-13
1.28545e-14
5.79579e-13
-2.17609e-14
4.4521e-13
-4.51209e-14
8.2113e-13
4.77488e-13
1.04529e-12
-1.09608e-13
1.08997e-12
6.34221e-13
5.63588e-12
2.50487e-12
3.85418e-12
-1.05078e-12
5.19818e-15
-1.98333e-12
-3.09665e-12
-3.02977e-12
-1.60735e-12
1.24853e-12
-4.92457e-13
8.44203e-13
3.74746e-14
3.33846e-13
2.36553e-13
1.1475e-13
3.13558e-13
4.20592e-14
3.49107e-13
1.53213e-14
3.64151e-13
4.67731e-15
3.69082e-13
7.79865e-16
3.71017e-13
2.52281e-16
3.72924e-13
1.0213e-15
3.71785e-13
1.88666e-16
3.6927e-13
-8.55339e-16
3.58019e-13
-7.45014e-15
3.35952e-13
-1.16149e-14
3.25659e-13
2.11715e-15
2.99197e-13
4.35544e-14
3.78263e-13
8.00004e-14
5.21104e-13
6.52659e-13
-2.59482e-12
-1.0366e-12
-5.91355e-13
-2.17439e-12
-1.9483e-12
-3.92686e-13
2.57969e-12
1.34227e-12
5.75345e-13
2.03168e-13
8.82852e-14
9.32279e-14
9.31489e-14
1.0071e-13
1.14914e-13
1.28155e-13
1.37317e-13
1.48899e-13
1.61753e-13
1.39992e-13
9.48712e-14
5.7236e-13
4.62751e-13
1.09697e-12
3.60184e-12
2.55106e-12
5.67744e-13
-2.46203e-12
-1.2135e-12
-3.69299e-13
-3.54532e-14
7.9297e-14
1.21356e-13
1.36677e-13
1.41355e-13
1.42135e-13
1.42387e-13
1.43408e-13
1.43597e-13
1.42742e-13
1.35292e-13
1.23677e-13
1.25794e-13
1.69348e-13
2.49349e-13
9.02008e-13
-1.34596e-13
)
;

boundaryField
{
    AirInlet
    {
        type            calculated;
        value           nonuniform List<scalar> 5(-2e-13 -2e-13 -2e-13 -2e-13 -2e-13);
    }
    WaterInlet
    {
        type            calculated;
        value           nonuniform List<scalar> 10(-5e-13 -5e-13 -5e-13 -5e-13 -5e-13 -5e-13 -5e-13 -5e-13 -5e-13 -5e-13);
    }
    ChannelWall
    {
        type            calculated;
        value           uniform 0;
    }
    Outlet
    {
        type            calculated;
        value           nonuniform List<scalar> 
15
(
1.18126e-11
4.19835e-12
-7.45892e-12
-1.08987e-11
-1.56517e-11
3.00947e-13
1.30157e-12
1.50859e-12
1.69679e-12
2.33918e-12
1.19855e-11
7.99922e-12
7.68014e-13
-3.17546e-12
-7.25951e-13
)
;
    }
    FrontAndBack
    {
        type            empty;
        value           nonuniform 0();
    }
}


// ************************************************************************* //
