/*--------------------------------*- C++ -*----------------------------------*\
| =========                 |                                                 |
| \\      /  F ield         | OpenFOAM: The Open Source CFD Toolbox           |
|  \\    /   O peration     | Version:  2.3.0                                 |
|   \\  /    A nd           | Web:      www.OpenFOAM.org                      |
|    \\/     M anipulation  |                                                 |
\*---------------------------------------------------------------------------*/
FoamFile
{
    version     2.0;
    format      ascii;
    class       volVectorField;
    location    "0.074";
    object      U;
}
// * * * * * * * * * * * * * * * * * * * * * * * * * * * * * * * * * * * * * //

dimensions      [0 1 -1 0 0 0 0];

internalField   nonuniform List<vector> 
725
(
(0.043849 0.00695185 -4.1422e-31)
(0.0556585 0.00157442 8.15966e-32)
(0.027398 0.000996063 1.47166e-32)
(0.0430456 -0.00388014 0)
(0.00732641 0.00974472 4.04556e-31)
(0.0842018 0.0137635 -1.89316e-30)
(0.115114 0.00845414 2.31794e-31)
(0.0591203 0.0078642 -3.39317e-31)
(0.0901395 0.0155623 0)
(-0.11727 0.082223 8.28178e-30)
(0.0959948 0.00939917 -4.86187e-31)
(0.133396 0.0141289 -1.44257e-31)
(0.0741489 0.0162509 -1.31015e-30)
(0.129825 0.0583681 0)
(-0.0467772 0.150028 1.23016e-29)
(0.0852805 0.00281852 2.38596e-30)
(0.113994 0.0151685 -3.06145e-31)
(0.0694436 0.0142398 -6.27831e-31)
(0.155666 0.0513291 0)
(0.242404 0.0714146 2.06181e-30)
(0.0442354 0.00129133 2.50046e-30)
(0.0532062 0.0091656 -2.97564e-31)
(0.0300123 0.00490908 3.27226e-31)
(0.0551888 0.0071142 1.93871e-30)
(0.0516336 -0.0611006 -1.27072e-29)
(-0.194388 0.0291326 0)
(-0.027933 -0.0253183 0)
(0.115828 0.0747448 0)
(-0.347742 -0.0091357 0)
(-0.201196 -0.0408919 0)
(-0.0800979 -0.0157584 0)
(-0.027631 -0.00187665 0)
(0.00655645 -0.00220485 0)
(0.0158512 -0.000657841 0)
(0.0236473 0.000231216 0)
(0.021827 0.000279936 0)
(0.0199373 0.000269816 0)
(0.0188742 -0.000122258 0)
(0.0183455 -0.000227085 0)
(0.018011 -0.000526418 0)
(0.0178784 -0.000886 0)
(0.0134032 -0.00237337 0)
(0.0444569 -0.00481693 0)
(0.0273927 0.00287275 0)
(0.016511 0.00371156 0)
(0.114409 -0.0393679 0)
(0.210095 0.0334191 0)
(0.36014 -0.0441689 0)
(0.795278 -0.049497 0)
(0.00985145 0.172686 0)
(-0.0568474 0.0137267 0)
(-0.0201858 -0.00371283 0)
(0.00631263 -0.00268562 0)
(0.0168638 -0.000791669 0)
(0.0167617 -0.000346166 0)
(0.0166752 -9.76317e-05 0)
(0.0162958 -6.3612e-05 0)
(0.0161146 -5.27592e-05 0)
(0.016073 -2.26927e-05 0)
(0.0161568 -3.95264e-05 0)
(0.0157648 7.07915e-05 0)
(0.017059 -0.000175953 0)
(0.0142472 8.70369e-05 0)
(0.0234029 -0.000775036 0)
(0.0151217 -0.000517874 0)
(0.0480992 -0.00445425 0)
(0.0412218 -0.0108786 0)
(0.255108 -0.0422029 0)
(0.226414 -0.225851 0)
(1.51331 -0.105484 0)
(-0.311093 0.0648183 0)
(0.174998 -0.203728 0)
(0.349598 0.148587 0)
(0.0815001 0.0437018 0)
(-0.0421631 -0.0067923 0)
(-0.141683 -0.0626565 0)
(-0.0605759 -0.0272777 0)
(0.0100641 -0.0213354 0)
(0.0309284 -0.00786486 0)
(0.0499308 -0.00219664 0)
(0.0500022 0.000897239 0)
(0.0471017 0.00160924 0)
(0.0445009 0.000670397 0)
(0.0410905 0.00109445 0)
(0.0366732 0.00140679 0)
(0.0296044 0.00222618 0)
(0.0136615 -0.00616939 0)
(0.0530746 -0.0137116 0)
(0.0380777 0.0012598 0)
(0.0624404 -0.0173144 0)
(0.320569 -0.171038 0)
(0.41854 0.050653 0)
(0.55425 -0.183573 0)
(0.488502 -0.0824193 0)
(-0.0653912 0.400811 0)
(-0.109613 -0.0210965 0)
(-0.00316893 -0.0316524 0)
(0.0358704 -0.0132509 0)
(0.0512886 -0.00327018 0)
(0.0485375 6.24021e-05 0)
(0.0460915 0.00063942 0)
(0.0443106 0.000422848 0)
(0.0433018 0.000175519 0)
(0.0428679 8.21252e-05 0)
(0.0428559 8.66377e-06 0)
(0.0422064 0.000109104 0)
(0.04449 -0.000382239 0)
(0.0398287 -0.000625468 0)
(0.0554877 -0.00241455 0)
(0.0380225 -0.00456003 0)
(0.0917894 -0.0147752 0)
(0.0535931 -0.0379002 0)
(0.280717 -0.110019 0)
(0.123721 -0.430601 0)
(0.574262 -0.155467 0)
(0.198279 -0.0977028 0)
(0.954857 -0.380521 0)
(0.993598 0.148209 0)
(-0.111252 0.187822 0)
(0.0480188 0.0547357 0)
(-0.165676 -0.0803926 0)
(-0.045837 -0.0638702 0)
(0.0213349 -0.0461213 0)
(0.0470774 -0.0184954 0)
(0.0684156 -0.00659321 0)
(0.0706012 0.000694101 0)
(0.0679164 0.00313727 0)
(0.0647898 0.0021841 0)
(0.0598347 0.00361093 0)
(0.0544364 0.00502436 0)
(0.0450821 0.00765145 0)
(0.0265038 -0.00794372 0)
(0.0587939 -0.023954 0)
(0.0439231 0.00703248 0)
(0.0366305 -0.0590814 0)
(0.502038 -0.351945 0)
(0.474014 0.144173 0)
(0.29575 -0.20434 0)
(0.0550559 0.0751761 0)
(-0.0126247 0.518533 0)
(-0.0331784 -0.0157169 0)
(0.0583178 -0.0648995 0)
(0.0713157 -0.0227507 0)
(0.0762418 -0.00417864 0)
(0.0711803 0.00124044 0)
(0.0675449 0.00191704 0)
(0.0653599 0.00124888 0)
(0.064109 0.000562876 0)
(0.0635668 0.000239233 0)
(0.0635607 5.88204e-05 0)
(0.0627904 7.19463e-05 0)
(0.0654422 -0.000840228 0)
(0.0602065 -0.00141167 0)
(0.0775721 -0.00477558 0)
(0.055548 -0.00850192 0)
(0.110121 -0.0244548 0)
(0.0462346 -0.0537095 0)
(0.186076 -0.13739 0)
(-0.0455516 -0.289848 0)
(-0.887945 -0.0353754 0)
(0.640594 -0.226522 0)
(1.0181 -0.512898 0)
(0.169097 0.707719 0)
(-0.0294263 0.247122 0)
(0.360792 0.0876009 0)
(-0.0355376 -0.0129311 0)
(0.00398899 -0.0878021 0)
(0.0405043 -0.0675001 0)
(0.0636497 -0.0291944 0)
(0.0820225 -0.0111641 0)
(0.0850115 0.000221512 0)
(0.0825262 0.00448336 0)
(0.0793872 0.004107 0)
(0.0744063 0.00606894 0)
(0.0705566 0.00848515 0)
(0.0616738 0.0129432 0)
(0.0463819 -0.00768773 0)
(0.0718178 -0.0354147 0)
(0.0764512 -0.025243 0)
(0.105941 -0.158544 0)
(0.465381 -0.487774 0)
(0.387059 0.307337 0)
(-0.223502 -0.13814 0)
(0.841585 0.101397 0)
(0.0524175 0.651663 0)
(0.136535 -0.0644267 0)
(0.149455 -0.0985218 0)
(0.114952 -0.0238294 0)
(0.0932398 -0.00190969 0)
(0.0848814 0.00325959 0)
(0.0810874 0.00325655 0)
(0.0793834 0.00203143 0)
(0.0785723 0.000913105 0)
(0.0782139 0.000388766 0)
(0.0782788 0.000125704 0)
(0.0774022 4.60722e-05 0)
(0.0801394 -0.00127801 0)
(0.0741752 -0.00208692 0)
(0.0908696 -0.00679197 0)
(0.0652989 -0.0102994 0)
(0.114145 -0.0297902 0)
(0.0255131 -0.0498763 0)
(0.0856205 -0.116241 0)
(-0.238401 0.00945615 0)
(-1.23015 0.121035 0)
(0.152773 -0.301366 0)
(-1.32353 -0.296065 0)
(-0.0851699 0.634891 0)
(-0.0418562 0.147333 0)
(-0.0454002 0.0966042 0)
(-0.0469744 0.0204507 0)
(0.0438788 -0.103825 0)
(0.0631938 -0.0818827 0)
(0.0778578 -0.0371264 0)
(0.0902184 -0.0146892 0)
(0.0924148 0.000134865 0)
(0.0898096 0.00574965 0)
(0.0875082 0.00584428 0)
(0.0835535 0.00795583 0)
(0.0823193 0.0109393 0)
(0.0760515 0.0166082 0)
(0.0665457 -0.00421057 0)
(0.0631503 -0.0365126 0)
(0.00695525 0.00456865 0)
(-0.179404 -0.13798 0)
(-0.480718 -0.719272 0)
(-0.0452088 0.557107 0)
(-0.908736 -0.120135 0)
(-0.321597 0.0831657 0)
(0.288186 0.603238 0)
(0.3997 0.0552307 0)
(0.247426 -0.0689206 0)
(0.164338 0.0150189 0)
(0.103868 0.0136253 0)
(0.0924419 0.00727576 0)
(0.0885701 0.00458031 0)
(0.0871959 0.00265121 0)
(0.0868007 0.00113118 0)
(0.0867233 0.000471261 0)
(0.0869896 0.000156091 0)
(0.0860976 0.000155129 0)
(0.0888094 -0.00172864 0)
(0.0818729 -0.00162262 0)
(0.0974671 -0.00852663 0)
(0.0681861 -0.00855313 0)
(0.112853 -0.0306422 0)
(0.00404446 -0.026732 0)
(0.0542265 -0.0511532 0)
(-0.316311 0.362387 0)
(-1.67729 0.228511 0)
(-0.0659709 -0.210684 0)
(-1.67874 -0.103173 0)
(-0.765368 0.223891 0)
(0.0914127 0.226415 0)
(-0.0145905 0.0855695 0)
(0.118607 -0.0196295 0)
(0.0903519 -0.110115 0)
(0.082767 -0.0838453 0)
(0.0846389 -0.03852 0)
(0.090853 -0.0158003 0)
(0.0921398 0.000296502 0)
(0.0900529 0.0062786 0)
(0.0887529 0.00645485 0)
(0.0858213 0.00833474 0)
(0.0866424 0.011405 0)
(0.0828656 0.01738 0)
(0.0790482 -0.0019264 0)
(0.0636582 -0.0304607 0)
(0.00353989 0.0637899 0)
(-0.217413 -0.034096 0)
(-0.0852531 -0.665007 0)
(-0.423994 0.658092 0)
(-0.747859 -0.110371 0)
(-2.72188 -0.723315 0)
(0.219306 0.54449 0)
(-0.198189 0.0742065 0)
(-0.0160552 -0.0757529 0)
(0.134708 0.0283443 0)
(0.0989727 0.0217929 0)
(0.0920278 0.00919128 0)
(0.0893122 0.00501941 0)
(0.0885609 0.00273829 0)
(0.0884615 0.00109308 0)
(0.0884042 0.000409511 0)
(0.0886486 0.000180481 0)
(0.0876045 3.06932e-05 0)
(0.0904593 -0.00146987 0)
(0.0828346 -0.00201391 0)
(0.0981435 -0.00760617 0)
(0.0662012 -0.00806258 0)
(0.111911 -0.0259018 0)
(-0.00134293 -0.0110014 0)
(0.0901721 -0.0181305 0)
(-0.0605463 0.52796 0)
(0.279627 0.554423 0)
(-0.105561 -0.105727 0)
(-1.72282 -0.0620371 0)
(0.0203258 0.112488 0)
(0.136566 0.215913 0)
(0.0295992 0.082107 0)
(0.176692 -0.0230369 0)
(0.105707 -0.107477 0)
(0.0895096 -0.0833774 0)
(0.0868444 -0.0387041 0)
(0.0907154 -0.016113 0)
(0.0916848 0.000348261 0)
(0.089843 0.00643045 0)
(0.0890213 0.00664378 0)
(0.0864919 0.00841255 0)
(0.087978 0.0115093 0)
(0.0850476 0.0176121 0)
(0.0834345 -0.00107467 0)
(0.0664111 -0.0272889 0)
(0.0142148 0.082683 0)
(-0.21952 -0.0281076 0)
(-0.489493 -0.647311 0)
(-0.590768 0.700529 0)
(-0.907493 -0.0602894 0)
(-3.52711 -0.497607 0)
(-0.233646 0.437108 0)
(-0.523212 0.0480486 0)
(-0.095842 -0.104032 0)
(0.124282 0.0216589 0)
(0.0971485 0.023603 0)
(0.0915502 0.00971789 0)
(0.0892515 0.00516751 0)
(0.0887565 0.00276825 0)
(0.0887827 0.00109173 0)
(0.0887435 0.00039852 0)
(0.0889839 0.000212704 0)
(0.0879014 -4.19054e-05 0)
(0.0907845 -0.00128143 0)
(0.0829927 -0.00228704 0)
(0.0982364 -0.00697428 0)
(0.065381 -0.00824041 0)
(0.111559 -0.0236867 0)
(-0.00330124 -0.00800226 0)
(0.0967306 -0.0152271 0)
(-0.00836417 0.505695 0)
(0.723521 0.612932 0)
(-0.118894 0.00404462 0)
(-1.70395 -0.0374083 0)
(0.176612 -0.0105066 0)
(0.166091 0.224434 0)
(0.072685 0.0821152 0)
(0.20595 -0.0232914 0)
(0.11815 -0.102939 0)
(0.0958935 -0.0822268 0)
(0.0889395 -0.0385523 0)
(0.0904256 -0.0163082 0)
(0.0909158 0.000407984 0)
(0.0893318 0.00654327 0)
(0.0890369 0.00678802 0)
(0.0869719 0.00843798 0)
(0.0891176 0.011548 0)
(0.0869688 0.0177316 0)
(0.0875428 -0.000305445 0)
(0.0724961 -0.0248585 0)
(0.0516243 0.097137 0)
(-0.111445 0.0189746 0)
(-0.736715 -0.644417 0)
(-0.778217 0.733163 0)
(-1.49107 0.197526 0)
(-3.89595 -0.497365 0)
(-0.462234 0.239965 0)
(-0.11713 0.0195281 0)
(0.027658 -0.13089 0)
(0.118327 0.0152276 0)
(0.0947909 0.0249788 0)
(0.0907472 0.0101286 0)
(0.0888731 0.00529008 0)
(0.0886603 0.0027852 0)
(0.0888265 0.00108864 0)
(0.0888182 0.000389045 0)
(0.0890634 0.000251222 0)
(0.0879657 -0.000121644 0)
(0.0908447 -0.00106267 0)
(0.0829373 -0.00260252 0)
(0.0981568 -0.00623205 0)
(0.0646723 -0.00853104 0)
(0.111475 -0.0212366 0)
(-0.005176 -0.00625946 0)
(0.113127 -0.0147922 0)
(-0.0749019 0.475684 0)
(0.477714 0.540742 0)
(-0.0995707 0.107963 0)
(-1.64319 -0.0356573 0)
(-0.0226039 -0.130893 0)
(0.0359154 0.232244 0)
(0.056627 0.0782283 0)
(0.195926 -0.0241189 0)
(0.127049 -0.0982397 0)
(0.101889 -0.0806522 0)
(0.0907455 -0.0380605 0)
(0.0898411 -0.0163647 0)
(0.089757 0.000485209 0)
(0.0885119 0.00661369 0)
(0.0887637 0.0068794 0)
(0.0872023 0.0084037 0)
(0.0900363 0.0115158 0)
(0.0886275 0.0177135 0)
(0.0912682 0.000312297 0)
(0.0794345 -0.0233777 0)
(0.0907527 0.0998482 0)
(0.0706671 0.0477819 0)
(0.147898 -0.617593 0)
(-0.906866 0.796986 0)
(-2.1783 0.331173 0)
(-4.68219 -0.545622 0)
(0.0837199 -0.102449 0)
(0.636917 0.00325203 0)
(0.235968 -0.121636 0)
(0.115742 0.0177356 0)
(0.0923352 0.0262384 0)
(0.0896285 0.0104294 0)
(0.0881679 0.00536778 0)
(0.0882497 0.002775 0)
(0.088559 0.0010736 0)
(0.0885836 0.000375836 0)
(0.0888318 0.000288481 0)
(0.087731 -0.000200018 0)
(0.0905662 -0.000836031 0)
(0.0825768 -0.00290155 0)
(0.0977241 -0.00545077 0)
(0.0637212 -0.00879815 0)
(0.11123 -0.01873 0)
(-0.00746214 -0.00567883 0)
(0.148391 -0.0158464 0)
(-0.0348939 0.457947 0)
(0.815134 0.464912 0)
(-0.0419317 0.215938 0)
(-1.52557 -0.0192239 0)
(-0.304775 -0.246449 0)
(-0.153597 0.228833 0)
(0.0277092 0.062776 0)
(0.17217 -0.0275802 0)
(0.133488 -0.0944134 0)
(0.107457 -0.0788871 0)
(0.0923299 -0.0372658 0)
(0.0890047 -0.0162633 0)
(0.0882061 0.000570341 0)
(0.0873994 0.0066362 0)
(0.0882142 0.00691661 0)
(0.0871651 0.0083125 0)
(0.0907158 0.0114151 0)
(0.0900543 0.0175511 0)
(0.0945768 0.000783798 0)
(0.0847322 -0.0224335 0)
(0.0974101 0.0938584 0)
(0.108897 0.0308457 0)
(0.484793 -0.549015 0)
(-0.956549 0.887169 0)
(-1.94666 0.375886 0)
(-0.342901 -0.565881 0)
(0.95793 -0.368748 0)
(1.03412 0.00128599 0)
(0.328145 -0.0783027 0)
(0.112602 0.0271753 0)
(0.0899038 0.0274355 0)
(0.0882386 0.0106675 0)
(0.0872367 0.00542118 0)
(0.0875525 0.00275417 0)
(0.0879778 0.00105708 0)
(0.0880478 0.000367549 0)
(0.0883257 0.00032582 0)
(0.0872706 -0.000262738 0)
(0.0900408 -0.000624666 0)
(0.0820143 -0.00313803 0)
(0.0970543 -0.00472535 0)
(0.0626492 -0.00890641 0)
(0.110853 -0.0164297 0)
(-0.0103651 -0.00563315 0)
(0.163858 -0.0186151 0)
(0.0103699 0.41225 0)
(1.27344 0.427029 0)
(0.0450919 -0.0015482 0)
(0.0542502 -0.00979286 6.17257e-32)
(0.0294047 -0.00625137 -1.38408e-31)
(0.0961044 -0.0263303 -4.11503e-31)
(0.114499 0.0287136 0)
(0.0871918 -0.0033089 0)
(0.113525 -0.0162707 0)
(0.0646802 -0.018755 0)
(0.190642 -0.0892257 2.37059e-30)
(0.270235 -0.147506 0)
(0.0981855 -0.00981965 0)
(0.131549 -0.01508 0)
(0.0622163 -0.019955 0)
(0.144783 -0.0848126 2.11705e-30)
(-0.205648 -0.190012 0)
(0.0859846 -0.0139113 0)
(0.113457 -0.00852138 0)
(0.0465504 -0.00752397 0)
(0.0908212 -0.00698297 1.36954e-30)
(-0.274557 -0.0950135 0)
(0.0445971 -0.00690912 0)
(0.0561784 -0.00125017 0)
(0.0221757 2.28822e-05 0)
(0.0648286 0.0161901 1.33658e-30)
(0.0394697 -0.00300919 0)
(0.205736 0.280766 0)
(-0.897932 0.133446 0)
(-0.166052 -0.577382 0)
(-0.123867 0.293484 0)
(0.114816 0.018035 0)
(0.14492 -0.0435734 0)
(0.148414 -0.0866924 0)
(0.12022 -0.0733613 0)
(0.0958857 -0.0341865 0)
(0.0862279 -0.0152164 0)
(0.0827868 0.000737429 0)
(0.0835386 0.00655676 0)
(0.0859364 0.0068678 0)
(0.0862828 0.00793936 0)
(0.0918516 0.0109822 0)
(0.0932866 0.0166737 0)
(0.102519 0.00203819 0)
(0.0949176 -0.0200372 0)
(0.110491 0.0742526 0)
(0.173049 -0.0520173 0)
(0.282001 -0.322358 0)
(-0.714854 1.05438 0)
(0.673768 0.355777 0)
(1.06376 -0.99618 0)
(0.801932 -0.331679 0)
(0.665399 0.0986362 0)
(0.248497 0.0441635 0)
(0.0946898 0.0591816 0)
(0.0826956 0.0304467 0)
(0.0834318 0.0112945 0)
(0.0838926 0.00554128 0)
(0.0848695 0.0026953 0)
(0.0856066 0.00101057 0)
(0.0858085 0.000360617 0)
(0.0861561 0.000395472 0)
(0.0852697 -0.000329849 0)
(0.0878025 -0.000240614 0)
(0.0797787 -0.0033028 0)
(0.0944404 -0.00335915 0)
(0.0591247 -0.00786392 0)
(0.109108 -0.0118711 0)
(-0.0200785 -0.00234127 0)
(0.12885 -0.0179278 0)
(-0.15862 0.1248 0)
(1.60064 0.304606 0)
(0.722489 0.200251 0)
(0.939042 0.529384 0)
(-0.244271 -0.610354 0)
(-0.132356 0.181978 0)
(0.236553 -0.0183036 0)
(0.2096 -0.0530977 0)
(0.175705 -0.0720449 0)
(0.12784 -0.0580204 0)
(0.0897735 -0.0243584 0)
(0.0739088 -0.009732 0)
(0.0692025 0.00107338 0)
(0.0715497 0.00534225 0)
(0.0761943 0.00552622 0)
(0.0784701 0.00620353 0)
(0.0865477 0.00847592 0)
(0.0907678 0.0122615 0)
(0.105157 0.00276228 0)
(0.100401 -0.0180599 0)
(0.107429 0.0404798 0)
(0.155471 -0.0528996 0)
(-0.158039 -0.0601903 0)
(-0.263817 0.879117 0)
(0.695873 -0.220889 0)
(-0.120345 -0.656138 0)
(0.13452 -0.138763 0)
(0.189078 0.198728 0)
(0.0552611 0.114747 0)
(0.0561408 0.0713347 0)
(0.0657854 0.0278833 0)
(0.0708524 0.0103904 0)
(0.0734177 0.00484362 0)
(0.0752229 0.0021302 0)
(0.076125 0.000698573 0)
(0.0763079 0.000259214 0)
(0.076672 0.000286479 0)
(0.0759031 -0.000168789 0)
(0.0783494 -0.000379142 0)
(0.0701247 -0.00202717 0)
(0.085201 -0.00320561 0)
(0.0483604 -0.00293724 0)
(0.10579 -0.00595376 0)
(-0.0268167 0.0131882 0)
(0.17012 0.0111074 0)
(-0.188891 -0.328078 0)
(1.09178 0.137713 0)
(0.131829 0.108526 0)
(0.857126 0.524076 0)
(0.743173 -0.107679 0)
(0.0135349 -0.00966101 0)
(0.235031 -0.060783 0)
(0.212711 -0.0470035 0)
(0.169003 -0.0510992 0)
(0.110049 -0.0351256 0)
(0.0696844 -0.0111187 0)
(0.0544512 -0.0041448 0)
(0.0517022 0.00107304 0)
(0.0554955 0.0033464 0)
(0.0610744 0.00348364 0)
(0.064133 0.00377581 0)
(0.0730886 0.00510148 0)
(0.0781258 0.00705587 0)
(0.0923312 0.00131266 0)
(0.0823405 -0.0144317 0)
(0.0504999 0.0327679 0)
(0.0671397 -0.00686067 0)
(-0.139493 0.0174326 0)
(0.0292795 0.514268 0)
(0.827427 -0.211206 0)
(-0.387358 -0.564172 0)
(-0.206202 -0.202477 0)
(-0.0913118 0.18383 0)
(-0.0654429 0.117013 0)
(0.0197631 0.0557161 0)
(0.0425841 0.0205002 0)
(0.0528705 0.00786947 0)
(0.0576231 0.00348963 0)
(0.0601233 0.00141082 0)
(0.0611233 0.000432193 0)
(0.0613276 0.000168863 0)
(0.0617037 0.000196348 0)
(0.0610676 -7.93468e-05 0)
(0.0634201 -0.000250057 0)
(0.0552332 -0.00125158 0)
(0.070363 -0.00219522 0)
(0.0330037 -0.000883276 0)
(0.093323 -0.000827187 0)
(-0.0318717 0.00964604 0)
(0.162472 0.0313229 0)
(-0.2111 -0.33929 0)
(-0.144835 0.0938851 0)
(-0.43439 -0.0971026 0)
(0.234811 0.131942 0)
(0.611636 0.0469981 0)
(0.0768281 0.147446 0)
(0.137938 -0.0555109 0)
(0.160989 -0.0495064 0)
(0.115222 -0.0318294 0)
(0.0648799 -0.0122432 0)
(0.0410149 -0.000692786 0)
(0.0344078 -0.000355786 0)
(0.0330265 0.000626734 0)
(0.0358074 0.0013955 0)
(0.0402344 0.00141495 0)
(0.0428088 0.00128876 0)
(0.0502376 0.00171076 0)
(0.0542745 0.00219537 0)
(0.0655207 -0.000594415 0)
(0.0570109 -0.00405627 0)
(0.0550517 0.0395556 0)
(0.150491 0.014879 0)
(0.0471745 0.000606496 0)
(0.265844 0.210658 0)
(0.880624 -0.107555 0)
(0.221437 -0.237607 0)
(-0.370301 -0.193883 0)
(-0.254625 0.106971 0)
(-0.113466 0.0725245 0)
(-0.00954599 0.029613 0)
(0.019438 0.0106183 0)
(0.0321432 0.00407646 0)
(0.037538 0.00164918 0)
(0.0400243 0.000587423 0)
(0.0409233 0.000155096 0)
(0.0411228 6.5412e-05 0)
(0.0414493 0.00010413 0)
(0.0409711 1.5339e-05 0)
(0.0430599 -0.000111755 0)
(0.0357235 -0.000520789 0)
(0.049443 -0.00109728 0)
(0.0155264 0.000368051 0)
(0.0730046 0.00271596 0)
(-0.0265434 0.00826696 0)
(0.139099 0.0477831 0)
(-0.0527661 -0.0952935 0)
(-0.400514 -0.0864271 0)
(-0.161789 -0.0742983 0)
(-0.262794 -0.0959183 0)
(-0.162018 0.0629382 0)
(0.154484 0.105726 0)
(0.247498 -0.0321005 0)
(0.103669 -0.0187266 0)
(0.0340589 -0.00544156 0)
(0.0121449 -0.000112359 0)
(0.00885088 0.00116963 0)
(0.0102667 0.00032024 0)
(0.01041 0.000185687 0)
(0.0117629 0.000152971 0)
(0.013583 6.86332e-05 0)
(0.0140895 -0.000200594 0)
(0.0160855 -0.000296339 0)
(0.0160508 -0.000573596 0)
(0.0182074 -0.00140228 0)
(0.00671798 -0.000809979 0)
(0.0212472 0.014012 0)
(0.122154 -0.017697 0)
(0.0321848 0.090869 0)
(0.232483 0.0458419 0)
(0.493968 -0.0202458 0)
(0.289533 0.144848 0)
(-0.292133 -0.123526 0)
(-0.203548 0.0330114 0)
(-0.0811729 0.014087 0)
(-0.0109375 0.00428807 0)
(0.00543588 0.00130033 0)
(0.0125583 0.000381749 0)
(0.0148165 5.12503e-05 0)
(0.0156647 -4.0685e-05 0)
(0.0158417 -4.5669e-05 0)
(0.0158144 -2.60205e-05 0)
(0.015931 1.00342e-05 0)
(0.015738 -2.555e-05 0)
(0.0169274 6.95492e-05 0)
(0.0127879 -0.00028048 0)
(0.0207569 0.000123499 0)
(0.000564586 -0.000348598 0)
(0.0375115 0.00181459 0)
(-0.0145865 -0.000538964 0)
(0.0801579 0.0171536 0)
(0.120915 0.0207182 0)
(-0.126256 0.0112909 0)
)
;

boundaryField
{
    AirInlet
    {
        type            fixedValue;
        value           uniform (0.1 0 0);
    }
    WaterInlet
    {
        type            fixedValue;
        value           uniform (0.1 0 0);
    }
    ChannelWall
    {
        type            fixedValue;
        value           uniform (0 0 0);
    }
    Outlet
    {
        type            pressureInletOutletVelocity;
        value           nonuniform List<vector> 
15
(
(1.51331 -0.105484 0)
(0.574262 -0.155467 0)
(-0.828769 -0 0)
(-1.21097 0 0)
(-1.73908 0 0)
(0.279627 0.554423 0)
(0.723521 0.612932 0)
(0.477714 0.540742 0)
(0.815134 0.464912 0)
(1.27344 0.427029 0)
(1.60064 0.304606 0)
(1.09178 0.137713 0)
(-0.144835 0.0938851 0)
(-0.352829 -0 0)
(-0.0806612 0 0)
)
;
    }
    FrontAndBack
    {
        type            empty;
    }
}


// ************************************************************************* //
