/*--------------------------------*- C++ -*----------------------------------*\
| =========                 |                                                 |
| \\      /  F ield         | OpenFOAM: The Open Source CFD Toolbox           |
|  \\    /   O peration     | Version:  2.3.0                                 |
|   \\  /    A nd           | Web:      www.OpenFOAM.org                      |
|    \\/     M anipulation  |                                                 |
\*---------------------------------------------------------------------------*/
FoamFile
{
    version     2.0;
    format      ascii;
    class       volScalarField;
    location    "1.25";
    object      alpha.water;
}
// * * * * * * * * * * * * * * * * * * * * * * * * * * * * * * * * * * * * * //

dimensions      [0 0 0 0 0 0 0];

internalField   nonuniform List<scalar> 
2268
(
1
1
1
1
1
1
1
1
1
1
1
1
0.999803
0.999789
0.999761
0.982754
0.980136
0.980749
0.980049
0.988067
0.999944
0.999996
0.999991
1
1
1
1
1
1
1
1
1
1
1
0.998338
0.973228
0.973853
0.995317
0.985309
0.997842
0.999909
0.995094
0.99344
0.997079
0.999996
0.999991
1
1
1
1
1
1
0.999991
1
1
1
1
0.985907
0.9563
0.956075
0.956096
0.967449
0.998578
0.999992
0.999997
0.999989
0.999767
0.999956
0.999994
1
1
1
1
1
0.999971
0.999674
0.999964
1
1
1
0.994521
0.956738
0.956069
0.95607
0.97025
0.999003
0.999997
0.999998
0.999999
0.999999
0.999995
0.999998
1
1
1
1
0.999997
0.999782
0.99957
0.999678
0.999977
1
1
1
0.989817
0.958317
0.959781
0.98856
0.999986
0.999998
0.999999
0.999999
0.999999
0.999999
0.999999
1
1
1
1
1
0.999839
0.999581
0.999579
0.999769
0.999992
1
0.999999
0.999999
0.996175
0.996676
0.999506
0.999996
0.999999
0.999999
0.999276
0.999999
0.999999
0.999999
0.99998
0.999055
0.999459
0.999997
1
1
0.999969
0.999653
0.999658
0.999958
0.999999
0.999999
0.999999
0.999996
0.999993
0.999994
0.999992
0.984192
0.93114
0.925399
0.925462
0.973987
0.999999
0.960846
0.991686
0.999839
0.999992
1
0.999999
0.999975
0.99991
0.999895
0.999951
0.999999
0.999999
0.999999
0.999999
0.999998
0.999996
0.99259
0.909766
0.899808
0.910333
0.88803
0.887733
0.96985
0.991527
0.991169
0.973462
0.795928
0.795946
0.820512
0.859947
0.968776
0.984803
0.908594
0.876386
0.882094
0.862422
0.862422
0.862422
0.884492
0.887204
0.805552
0.800143
0.993927
0.993927
0.862238
0.795937
0.903174
0.98467
0.984783
0.984796
0.9848
0.984817
0.94211
0.877295
0.865491
0.879686
0.917514
0.89921
0.729544
0.272965
0.576929
0.993927
0.944365
0.8353
0.832865
0.968661
0.98465
0.984721
0.984782
0.984782
0.984749
0.984509
0.928115
0.872874
0.92834
0.968371
0.918189
0.324122
0.162329
0.16231
0.993927
0.937196
0.839307
0.96845
0.984285
0.984472
0.98465
0.984738
0.984732
0.97813
0.980258
0.980722
0.970999
0.982856
0.983274
0.879842
0.162329
0.16231
0.16231
0.993927
0.946914
0.977626
0.991696
0.955011
0.981528
0.984608
0.984185
0.984336
0.976099
0.982097
0.982889
0.983016
0.983152
0.983198
0.789075
0.263405
0.24767
0.255698
0.993927
0.98919
0.993313
0.992417
0.882509
0.916549
0.910956
0.944553
0.960145
0.981934
0.982917
0.982964
0.983076
0.983139
0.983152
0.647261
0.31262
0.243506
0.259662
0.993926
0.993909
0.993693
0.992297
0.938572
0.64872
0.554203
0.399152
0.468956
0.860176
0.982149
0.978722
0.983105
0.983121
0.983201
0.457199
0.166416
0.144038
0.259662
0.99391
0.99073
0.938649
0.85643
0.866483
0.657536
0.296867
0.0868992
0.0639142
0.295163
0.944796
0.912185
0.965981
0.983185
0.983285
0.243907
0.0182074
0.0501316
0.258279
0.473123
0.582214
0.793403
0.935467
0.999861
0.999983
0.999919
0.999889
0.999959
0.999977
0.999997
0.999998
0.999999
0.999999
0.999998
0.999998
0.929193
0.894629
0.919826
0.938413
0.953091
0.956766
0.970387
0.222816
0.1949
0.197011
0.434579
0.884828
0.926188
0.956669
0.995398
0.998503
0.999959
0.999988
0.999997
0.972496
0.892702
0.807507
0.574651
0.405694
0.406079
0.371544
0.37975
0.491487
0.738873
0.993846
0.808847
0.69172
0.348461
0.234372
0.220448
0.214608
0.37048
0.719771
0.988794
0.99969
0.989859
0.606338
0.379892
0.336843
0.29784
0.248674
0.148029
0.0772317
0.0870504
0.0923169
0.0598462
0.0719835
0.120032
0.985367
0.987491
0.957446
0.737531
0.23561
0.205125
0.205428
0.34651
0.945082
0.937325
0.410546
0.0983243
0.129552
0.216239
0.115196
0.0460821
0.0294813
0.0436758
0.0887442
0.0371445
0.0102552
0.0130557
0.0161053
0.977068
0.990732
0.990787
0.990732
0.897725
0.597936
0.637968
0.92891
0.953851
0.652948
0.0270583
0.0607082
0.143404
0.0860825
0.0125812
0.000752704
0.000490351
0.0113361
0.00545774
0.000630124
0.0060199
0.0119584
0.0040284
0.706424
0.860321
0.990732
0.990781
0.987002
0.983102
0.981943
0.9777
0.786416
0.0850732
0.0215721
0.0765236
0.0663476
0.000940387
0.000181733
7.11478e-05
3.23992e-05
1.43635e-05
2.77185e-06
3.55423e-05
0.0108428
0.0382623
0.0387778
0.538504
0.569509
0.934252
0.902943
0.876979
0.972661
0.9777
0.652236
0.174102
0.00292295
0.0023419
0.0208187
0.00133978
3.77345e-05
1.41306e-05
5.45545e-06
1.95465e-06
8.36291e-07
2.94992e-07
5.81072e-06
0.000321019
0.0232547
0.0424817
0.37535
0.418698
0.61833
0.580654
0.264519
0.261129
0.321899
0.0943262
0.00291625
0.000946625
0.000295338
3.98055e-05
3.5323e-05
1.11515e-05
4.75927e-06
2.29282e-06
4.73749e-07
1.79468e-07
1.01234e-07
2.94243e-07
3.79452e-06
1.62986e-06
0.00681135
0.0930124
0.114529
0.442693
0.595
0.596679
0.187204
0.00848702
0.0035532
0.00133441
0.000299221
9.31345e-05
2.62574e-05
8.97227e-06
5.53722e-06
2.75083e-06
1.5177e-06
1.89386e-07
1.46314e-07
1.46303e-07
1.30203e-07
3.77311e-07
4.82666e-07
1.74397e-07
0.0518227
0.00755182
0.000958976
0.339489
0.589911
0.500376
0.135109
0.00354452
0.00163583
0.00111537
0.00184239
0.00233175
0.00149902
5.18915e-05
1.6245e-06
1.92592e-06
2.79675e-06
3.37153e-07
1.46314e-07
6.01108e-07
8.14855e-06
1.14418e-05
4.93391e-06
0.0393347
0.00654612
0.000132574
8.64978e-05
0.281888
0.492886
0.296047
0.0156383
0.00355427
0.0124079
0.026952
0.02705
0.0269888
0.0194482
0.00123665
1.60962e-05
5.71781e-06
1.39457e-06
3.37348e-07
8.64375e-07
2.44421e-05
2.75074e-05
2.75972e-05
0.0127842
0.0345489
0.000494594
7.26479e-05
7.33839e-05
0.29762
0.287297
0.0311342
0.00691992
0.0230197
0.0269056
0.0269862
0.0270655
0.0260496
0.0045089
0.0001321
3.04446e-05
7.88805e-06
3.42233e-06
2.76669e-06
1.07105e-05
2.7492e-05
2.75074e-05
0.0127057
0.0726051
0.0001328
7.50194e-05
6.88322e-05
0.0106557
0.168148
0.121671
0.0172185
0.00660404
0.0238191
0.0240302
0.0104851
0.000824708
0.000757979
0.000248023
3.331e-05
9.17151e-06
6.36229e-06
5.04866e-06
6.26949e-06
1.24468e-05
2.69858e-05
0.0129159
0.0726633
0.00531113
9.31051e-05
6.57053e-05
6.62867e-05
0.0279422
0.106606
0.0483032
0.00228847
0.000853746
1.05747e-06
1.34913e-06
2.10661e-06
2.55294e-06
2.78185e-05
2.29827e-05
2.05673e-05
6.86242e-05
4.94647e-05
6.38086e-06
3.95515e-05
3.76962e-05
0.0124294
0.0726633
0.0221011
5.522e-05
7.03335e-05
6.50191e-05
7.03439e-05
0.0204826
0.0218315
0.0015469
1.05731e-06
1.05747e-06
1.05409e-06
4.16591e-06
2.00528e-05
3.70658e-05
8.26781e-05
8.3296e-05
8.37314e-05
8.35689e-05
5.87012e-05
8.01376e-05
7.61213e-05
0.00788019
0.0721379
0.0283241
7.73812e-06
9.24811e-05
0.000367317
0.000533671
0.000347913
7.7098e-05
7.0287e-05
8.64597e-07
1.05743e-06
9.59288e-06
7.20721e-05
8.38373e-05
8.38544e-05
8.38332e-05
8.38119e-05
8.38219e-05
8.37477e-05
8.36223e-05
8.17637e-05
5.72221e-05
0.00490527
0.0249234
0.0244836
2.15938e-06
0.000104969
0.00012346
2.25755e-05
2.4714e-05
4.12371e-06
2.43816e-07
2.72322e-07
7.12594e-07
3.61099e-05
8.36441e-05
8.38389e-05
8.38398e-05
8.38215e-05
8.38196e-05
8.38084e-05
8.38689e-05
8.40248e-05
4.93449e-05
2.30785e-06
0.00408753
0.0040795
0.0107415
3.86634e-07
2.28281e-05
2.30692e-06
1.27758e-07
4.37292e-07
1.4825e-07
1.29937e-08
6.25953e-09
1.13937e-07
1.82171e-06
4.59678e-05
8.36447e-05
8.36929e-05
8.18489e-05
3.15913e-05
1.8201e-05
2.46424e-05
1.29447e-05
1.42678e-06
2.08373e-08
0.0040795
0.00399884
0.00429241
1.71087e-07
1.70269e-07
5.68563e-08
1.95242e-08
9.70085e-09
6.60769e-09
1.06161e-09
-8.37897e-11
9.19464e-11
-6.96398e-10
1.43842e-07
1.64689e-05
2.9402e-05
6.98501e-06
1.25126e-08
3.40063e-08
3.57231e-08
-9.31138e-09
1.12434e-08
-6.61918e-11
0.00917143
0.00449425
0.00661081
9.72636e-08
5.60393e-08
3.66736e-08
1.86286e-08
5.43562e-09
1.56907e-09
1.08285e-09
7.42057e-10
4.90158e-10
3.76727e-10
3.09826e-10
6.19938e-11
3.5526e-12
1.54866e-12
7.81877e-09
2.62155e-08
4.23466e-10
7.98039e-10
4.71154e-10
2.19651e-11
0.123754
0.00517274
0.013098
6.79194e-08
2.88066e-08
2.21197e-08
8.4431e-09
4.22489e-09
2.85104e-09
2.10362e-09
1.06293e-09
6.6456e-10
3.87675e-10
8.1788e-11
4.38125e-12
1.8553e-12
4.24455e-14
3.71007e-14
-3.09961e-13
1.35312e-13
-1.30474e-11
-2.58036e-11
1.07886e-11
0.183642
0.00652816
0.0130876
3.20309e-08
2.20741e-08
1.83557e-08
1.01028e-08
6.40537e-09
5.41923e-09
3.32273e-09
1.16125e-09
8.96818e-10
5.56559e-10
2.24603e-10
2.51399e-11
3.31104e-13
-9.84008e-13
-1.69507e-12
2.58196e-13
7.19601e-13
3.01722e-12
6.39364e-12
1.04315e-11
0.18401
0.0103982
0.0128524
2.8105e-08
2.22853e-08
1.63087e-08
1.11103e-08
6.76416e-09
5.74833e-09
6.78493e-09
1.74173e-09
2.63024e-09
2.44999e-09
2.17936e-09
1.58967e-10
-5.37587e-12
4.7035e-14
1.45026e-12
3.28874e-12
4.5892e-12
5.86079e-12
6.60932e-12
6.94955e-12
0.18401
0.00963682
0.0102762
3.17412e-08
2.43288e-08
1.75673e-08
2.4574e-08
8.38397e-09
7.92466e-09
1.31672e-08
2.83124e-08
4.32873e-08
2.01009e-07
2.02717e-07
4.11584e-08
-1.31275e-11
1.28251e-12
2.04546e-12
4.84441e-12
4.43327e-12
4.35297e-12
4.48201e-12
4.57794e-12
0.18401
0.00321745
0.00628919
4.27267e-08
3.12486e-08
2.3929e-08
2.91906e-07
2.69127e-05
0.000109585
2.63148e-05
4.16851e-06
2.23075e-07
5.31368e-07
8.55872e-07
4.98472e-07
2.36632e-10
3.96073e-12
2.50897e-12
5.76825e-12
4.33009e-12
3.17855e-12
2.81315e-12
2.73321e-12
0.183885
0.00221622
0.00116818
8.2955e-09
8.02666e-08
1.01373e-07
1.26804e-05
0.000199222
0.000215302
0.000213687
0.000150153
1.72863e-05
5.6301e-07
9.86717e-07
1.00453e-06
1.84668e-09
-1.92108e-11
5.23641e-13
5.65492e-12
4.81831e-12
2.60847e-12
1.74087e-12
1.5047e-12
0.153964
0.0113134
1.2235e-05
-8.09685e-08
1.05239e-07
9.94881e-07
4.61542e-05
0.000214725
0.000211393
0.000212718
0.000211679
0.000145177
6.70182e-07
8.56936e-07
1.51571e-06
1.60287e-06
-5.51434e-10
1.0399e-11
6.62932e-12
5.84028e-12
2.80138e-12
1.20088e-12
8.20454e-13
0.00508888
0.025193
0.000937901
4.63848e-06
8.59691e-08
1.79859e-06
0.000122131
0.00021124
0.000210856
0.000211432
0.000211486
0.000185982
8.29022e-07
8.83259e-07
1.00781e-06
2.37177e-06
1.1262e-07
3.75267e-11
4.88282e-12
4.83812e-12
3.71685e-12
1.04612e-12
4.68565e-13
0.00380786
0.025193
0.0052749
1.73071e-05
4.41507e-06
2.08996e-06
6.65116e-05
0.000211791
0.000214457
0.00021141
0.000215922
8.78142e-05
9.6396e-07
7.88152e-07
9.8493e-07
2.363e-06
3.38524e-07
2.11819e-10
1.83201e-11
1.56983e-11
5.07925e-12
1.22526e-12
3.02118e-13
0.00388507
0.025193
0.0110309
4.05704e-05
1.06371e-05
4.94906e-06
1.0483e-05
0.000149129
0.000214982
0.000219545
0.000214133
5.02377e-05
8.24398e-07
4.34536e-07
1.53847e-06
2.07716e-06
2.75777e-07
1.41883e-09
2.71769e-11
4.79828e-11
7.92646e-12
1.81891e-12
2.6089e-13
0.00457151
0.0251589
0.0128812
0.000194984
1.54917e-05
1.37013e-05
6.85973e-06
1.62929e-05
9.70015e-05
0.000165075
9.54976e-05
1.08678e-05
4.27011e-07
1.36719e-07
1.17321e-06
2.48333e-06
1.67378e-07
9.72502e-09
1.17545e-08
9.20388e-11
1.179e-11
3.09364e-12
3.40531e-13
0.00340103
0.0230305
0.00394595
9.2022e-05
1.95253e-05
1.50619e-05
3.7314e-06
3.69201e-06
5.53554e-06
1.02336e-05
5.37236e-06
3.29444e-06
1.26712e-07
6.01085e-08
4.75097e-08
4.45169e-06
2.06355e-06
1.03854e-06
2.45086e-08
4.52308e-11
2.01295e-11
5.95646e-12
6.22299e-13
0.000465472
0.000561861
0.000185156
0.0001794
3.22801e-05
1.11427e-05
2.05307e-06
1.3301e-06
1.22469e-06
8.35067e-07
6.24066e-07
3.78169e-07
5.74949e-08
4.68459e-08
4.59101e-08
5.08292e-06
9.29123e-06
3.3763e-06
6.58932e-09
1.79298e-10
1.05658e-11
5.40866e-12
1.37776e-12
0.000166858
0.000166858
0.000177699
0.000183105
1.84082e-05
5.47886e-06
9.92781e-07
4.79297e-07
3.59397e-07
2.40485e-07
1.24725e-07
6.32687e-08
4.67988e-08
4.4277e-08
4.54893e-08
4.84585e-06
1.80181e-05
5.84125e-06
1.549e-08
6.5403e-10
8.38176e-12
3.82478e-12
2.38688e-12
0.000158134
0.000966638
0.00050869
4.63543e-05
1.6103e-05
2.07213e-06
3.36898e-07
1.81702e-07
1.28688e-07
8.56842e-08
5.40624e-08
4.66367e-08
4.42744e-08
4.33385e-08
4.41772e-08
4.8181e-06
2.51144e-05
1.10568e-05
3.43408e-08
1.32296e-09
5.22753e-11
5.48454e-12
2.70463e-12
0.000100481
0.00382671
0.00511259
8.53895e-06
7.18699e-06
3.36046e-07
1.3586e-07
9.91925e-08
7.0939e-08
5.38644e-08
4.64333e-08
4.43644e-08
4.33391e-08
4.28963e-08
4.19808e-08
4.70489e-06
5.58376e-05
1.68678e-05
5.70985e-08
2.80399e-09
1.21392e-10
7.65955e-12
2.28463e-12
3.02648e-06
0.00270239
0.00565445
0.00244816
2.76813e-07
1.42417e-07
1.00197e-07
7.22388e-08
5.51717e-08
4.75085e-08
4.48001e-08
4.33956e-08
4.28965e-08
4.17722e-08
2.42065e-06
0.000150547
0.000135866
8.94939e-06
6.21027e-08
3.33715e-09
1.26813e-10
7.47018e-12
2.11414e-12
1.20056e-09
9.34467e-07
0.00363385
0.00618577
0.00241843
9.12373e-08
9.56749e-08
8.1903e-08
5.84622e-08
4.39584e-08
4.44959e-08
4.39958e-08
4.33947e-08
0.000249476
0.00151052
0.00117056
6.98694e-05
7.94698e-07
4.84475e-08
2.193e-09
8.1182e-11
5.28853e-12
1.74082e-12
1.17282e-09
1.27905e-10
3.97489e-07
0.00445152
0.00550826
0.00362408
5.52869e-06
7.76677e-07
-1.53377e-08
5.95158e-08
4.67182e-08
4.45709e-08
0.0011409
0.00263672
0.00263672
0.00138304
9.08238e-06
2.24859e-07
8.04717e-09
2.51354e-10
8.54886e-12
2.18269e-12
1.38775e-12
1.14651e-09
1.23602e-10
-8.414e-09
-3.56293e-10
0.00549856
0.00542364
0.00463538
0.000218252
3.45333e-06
3.20735e-07
8.22303e-08
0.000646388
0.00257665
0.00260668
0.00168178
5.79035e-05
1.62685e-07
6.35001e-09
1.10934e-10
3.38012e-12
1.42357e-12
1.0182e-12
7.52806e-14
7.6235e-10
1.76389e-10
8.6169e-13
8.33255e-13
0.000563671
0.00162232
0.0044187
0.00183051
2.8234e-05
4.63041e-06
0.000220237
0.00205958
0.00214088
0.000496227
1.32283e-07
6.24239e-08
4.0892e-09
1.01997e-10
2.02743e-12
6.83558e-13
4.15065e-13
2.60355e-14
1.15158e-15
3.08448e-14
1.57679e-10
1.73226e-11
1.50966e-12
1.64779e-21
2.50552e-23
7.47782e-05
0.00199459
6.53681e-05
2.49272e-05
0.000272628
4.06699e-13
2.1282e-18
4.84671e-16
4.48702e-13
4.05139e-09
1.03652e-10
2.81149e-12
1.40402e-12
2.36062e-14
4.51604e-16
9.44032e-18
5.26089e-19
0.993966
0.994031
0.994033
0.994033
0.993867
0.99398
0.96802
0.863173
0.274352
0.41082
0.571153
0.655635
0.00308439
0.0127448
0.00254525
0.0025411
0.00289889
0.00266536
0.00254089
0.00254525
0.00553547
0.00689667
0.0041077
0.00288475
0.0424817
0.0424817
0.0293323
0.0139382
0.0391616
0.0368346
0.0219568
0.028537
8.10366e-08
4.09575e-08
2.82864e-08
2.21864e-08
5.00066e-07
5.07176e-07
2.59707e-07
8.9078e-09
1.81646e-05
1.57562e-06
1.68319e-07
2.16764e-08
2.6045e-05
4.8597e-06
1.94071e-07
1.67395e-08
1.43556e-05
1.12829e-06
8.99648e-08
6.74713e-09
1.19209e-05
2.64776e-07
3.4062e-08
1.95554e-09
1.71703e-05
7.86353e-08
6.98656e-09
2.33014e-10
3.32825e-06
8.64837e-09
6.70747e-10
6.53243e-11
1.198e-08
6.67533e-10
7.31907e-11
2.77727e-11
8.41102e-10
7.24989e-11
2.38498e-11
2.23991e-11
-2.70614e-10
1.89074e-11
2.23923e-11
2.10353e-11
1.60151e-11
1.96031e-11
2.113e-11
2.17741e-11
1.54846e-11
1.78454e-11
1.8241e-11
1.85086e-11
1.13616e-11
1.19145e-11
1.26204e-11
1.37373e-11
7.55842e-12
8.12948e-12
8.88445e-12
9.85115e-12
4.96386e-12
5.5225e-12
6.37826e-12
7.62125e-12
2.87807e-12
3.23674e-12
3.80626e-12
4.62175e-12
1.46554e-12
1.65585e-12
1.99562e-12
2.50114e-12
6.88362e-13
7.69034e-13
9.63087e-13
1.2923e-12
3.09626e-13
3.25147e-13
4.11405e-13
5.83659e-13
1.36667e-13
1.27344e-13
1.59542e-13
2.37487e-13
6.56254e-14
4.85582e-14
5.98967e-14
9.49192e-14
4.42741e-14
1.87857e-14
2.20279e-14
3.85677e-14
5.99423e-14
9.44593e-15
7.72029e-15
1.56882e-14
1.38379e-13
1.25121e-14
2.92282e-15
6.15007e-15
3.91251e-13
3.49386e-14
2.61704e-15
2.24096e-15
8.06188e-13
9.01195e-14
7.27818e-15
1.0207e-15
1.18797e-12
1.38977e-13
1.26712e-14
1.11529e-15
1.14953e-12
1.30711e-13
1.20586e-14
1.02799e-15
6.79819e-13
7.05237e-14
5.9571e-15
5.11237e-16
1.57817e-13
1.36012e-14
1.03351e-15
1.29553e-16
7.4029e-15
5.93863e-16
5.34946e-17
3.64453e-17
7.27649e-17
6.77638e-18
6.47486e-18
1.25825e-17
4.35682e-19
6.71752e-19
1.27942e-18
2.40671e-18
0.962531
0.645486
0.413859
0.274794
0.322484
0.585256
0.502841
0.106183
0.0592999
0.0556808
0.504031
0.922807
0.930011
0.958979
0.543067
0.0248178
0.0160729
0.0233092
0.111477
0.62148
0.18707
0.00529076
0.00352384
0.00242267
0.120335
0.381015
0.142772
0.0556808
0.0552685
0.136029
0.809955
0.890887
0.337939
0.0181421
0.0148243
0.015819
0.0160735
0.0178188
0.48734
0.0991473
0.00351343
0.00242601
0.00221606
0.002426
0.056936
0.156856
0.113558
0.0544706
0.0543667
0.0947387
0.761853
0.160044
0.0148244
0.0140843
0.0144072
0.0813767
0.164577
0.0025452
0.00792556
0.0213931
0.00743049
0.00209514
0.015165
0.0231484
0.121319
0.153865
0.154929
0.0569013
0.0605795
0.237387
0.22152
0.0295476
0.0136717
0.0137479
0.126319
0.194547
0.00256599
0.00287017
0.00724261
0.0023167
0.00214646
0.0425379
0.0397299
0.00468701
0.120122
0.155536
0.155366
0.0873983
0.0158169
0.104976
0.0813316
0.0229143
0.011992
0.0306214
0.194547
0.00758061
0.00925754
0.00317766
0.00280693
0.0199819
0.0429544
0.0160328
0.0046179
0.0149068
0.154972
0.155536
0.0741436
0.011703
0.0117844
0.0673913
0.0335451
0.0115872
0.0115766
0.193528
0.0352626
0.0352626
0.0333525
0.0269327
0.043246
0.043246
0.00372261
0.00443329
0.0367738
0.149395
0.103937
0.0171262
0.0115111
0.0113452
0.0158003
0.0151231
0.0115826
0.0115862
0.0857434
0.0316756
0.0350488
0.0346069
0.0339501
0.0306996
0.0111838
0.00028603
0.00546661
0.0724195
0.111912
0.0470298
0.011451
0.0114535
0.011516
0.0117263
0.0115813
0.0115819
0.0115821
0.0291107
8.8945e-09
0.00231437
0.0083745
0.00831286
1.39549e-08
2.60982e-07
4.92213e-06
0.00791846
0.0392897
0.0376457
0.0114542
0.0114519
0.0114542
0.0114631
0.01153
0.0115912
0.0115826
0.0115906
0.121377
1.39614e-09
6.86602e-10
6.61338e-10
6.89136e-10
7.75444e-10
3.8061e-09
1.58317e-07
4.34505e-06
0.00104699
0.0355309
0.0114573
0.0143807
0.0114565
0.0114566
0.0126635
0.0142762
0.011592
0.0195886
0.14203
3.46374e-09
6.84473e-10
6.12932e-10
6.52842e-10
6.91678e-10
6.49562e-10
-2.04147e-08
-5.74887e-08
1.13709e-07
0.00691493
0.0392021
0.0404788
0.0398986
0.0366342
0.0354651
0.0337311
0.0195451
0.0527521
0.14203
1.42159e-09
4.09329e-10
6.12525e-10
3.1143e-09
3.48498e-09
2.88746e-09
2.84277e-09
3.09417e-09
5.3191e-09
1.15958e-07
4.40995e-07
0.00418033
0.0102069
0.0171759
0.0314115
0.024258
0.00733294
0.0345052
0.14203
4.42286e-10
1.36482e-10
1.80553e-09
1.01684e-08
1.01878e-08
5.42796e-09
3.09524e-09
2.87557e-08
1.14273e-06
1.23114e-06
6.703e-07
2.88746e-06
1.04579e-05
0.000324675
0.00245499
0.00333811
0.00505879
0.0721814
0.0755509
1.11828e-10
3.9975e-11
2.90397e-09
1.01291e-08
9.98432e-09
5.43939e-09
4.79944e-09
1.76541e-08
6.09526e-06
4.14993e-05
3.81176e-05
1.31144e-05
2.49472e-05
7.82328e-05
0.000330468
0.00896159
0.067811
0.0807542
0.0162128
1.28716e-10
3.27175e-11
1.10641e-09
4.07246e-09
3.48748e-09
1.27834e-09
2.45703e-09
3.50793e-08
6.64758e-07
7.08175e-05
0.000298496
0.000169986
7.82328e-05
0.0112599
0.0565119
0.066896
0.067331
0.0318801
1.99475e-05
6.28719e-11
2.27681e-11
4.82294e-11
5.92655e-11
6.64382e-11
9.27618e-11
8.99918e-10
2.65766e-08
6.30559e-07
1.01155e-05
0.000100517
0.00187897
0.0277517
0.0380452
0.0383332
0.0221772
0.010855
5.43791e-06
1.94679e-05
2.7554e-11
2.08226e-11
3.02323e-11
3.81226e-11
6.72959e-11
6.95268e-11
1.08609e-10
1.51125e-09
5.286e-08
1.5098e-06
0.00041482
0.00387251
0.0041163
0.00148449
0.000372115
1.48592e-06
1.47516e-06
2.16806e-06
6.29018e-05
2.37069e-11
2.37156e-11
2.85654e-11
6.50308e-11
6.81722e-11
1.08745e-10
4.60504e-07
2.76422e-06
1.73024e-06
1.92258e-06
6.12497e-05
0.000539991
0.000191122
4.25352e-07
3.35643e-07
1.59918e-06
1.96035e-05
4.39502e-05
6.92844e-05
2.14344e-11
2.2317e-11
2.74164e-11
4.74584e-11
2.04799e-10
8.91171e-07
7.11919e-06
1.03755e-05
1.01677e-05
4.89197e-06
2.72181e-06
1.1889e-06
1.27842e-06
5.27829e-07
2.80182e-07
1.24141e-05
5.55969e-05
8.10395e-06
6.92844e-05
2.10882e-11
3.56132e-11
4.63418e-11
1.86118e-10
7.14486e-08
6.15947e-06
1.03787e-05
1.0379e-05
1.03777e-05
1.03369e-05
2.43198e-06
1.01697e-07
4.83383e-08
4.92307e-08
6.76324e-09
2.8197e-06
5.56508e-05
3.79875e-06
6.90657e-05
1.6549e-11
2.85625e-11
5.09273e-11
3.50843e-10
1.95053e-07
7.15493e-06
1.0379e-05
9.94835e-06
6.41785e-06
4.61388e-06
8.49894e-07
1.06236e-08
5.68223e-09
5.72022e-09
6.29171e-09
4.1384e-07
4.86073e-05
3.43984e-06
2.56548e-05
1.56712e-11
1.60415e-11
2.28768e-11
8.47587e-11
1.39727e-09
1.61166e-06
7.46525e-06
2.3839e-06
6.31106e-08
6.37056e-09
6.38528e-09
4.78303e-09
5.01078e-09
5.42801e-09
3.24156e-07
3.81283e-05
1.17024e-06
2.07775e-07
1.03757e-07
1.10816e-11
1.52446e-11
1.61233e-11
2.28981e-11
1.10953e-10
2.07096e-09
1.54057e-06
1.15405e-05
2.42402e-06
5.1828e-09
4.06208e-09
4.31311e-09
4.7451e-09
5.01064e-09
1.18827e-05
3.81567e-05
7.96218e-06
1.25197e-06
8.51291e-08
9.37755e-12
1.45588e-11
1.49142e-11
3.21135e-11
2.51067e-10
5.37202e-09
5.35501e-06
1.9279e-05
1.82891e-05
4.06103e-09
4.08634e-09
4.08634e-09
4.31246e-09
4.36751e-07
1.27885e-05
1.05509e-05
1.02777e-05
4.45035e-06
5.7404e-08
5.70889e-12
9.13085e-12
9.1265e-12
1.13355e-11
2.14242e-11
5.09921e-10
1.40413e-06
1.72226e-05
2.13224e-05
2.14499e-05
1.44963e-05
7.03918e-06
1.10845e-05
1.42365e-05
1.03221e-05
9.98203e-06
9.57073e-06
3.84691e-06
2.05873e-08
3.18124e-12
5.27922e-12
8.24656e-12
9.3071e-12
1.11484e-11
1.34838e-11
3.65254e-11
2.66078e-07
1.60642e-05
2.1486e-05
2.1486e-05
2.1486e-05
2.13806e-05
2.12553e-05
2.11472e-05
1.8024e-05
5.17404e-06
2.03702e-08
2.01933e-08
1.7825e-12
3.45243e-12
6.49375e-12
1.09547e-11
1.50224e-11
1.52798e-11
1.57754e-11
2.19086e-11
7.9491e-12
3.42234e-06
1.85644e-05
2.1301e-05
1.38531e-05
6.71022e-06
4.86858e-06
6.4299e-08
1.17369e-08
1.81657e-08
2.0193e-08
8.6614e-13
1.91006e-12
4.17666e-12
8.56368e-12
1.56859e-11
2.38327e-11
2.48455e-11
2.53488e-11
2.61398e-11
2.65747e-11
2.71531e-11
4.30274e-07
3.20582e-11
3.5664e-11
3.74022e-11
3.85432e-11
9.57184e-09
8.39552e-08
2.54134e-08
3.73746e-13
8.97437e-13
2.16015e-12
5.07196e-12
1.12824e-11
2.28144e-11
3.95214e-11
5.36693e-11
3.96033e-11
3.21468e-11
3.14449e-11
3.14449e-11
3.17485e-11
1.94686e-10
3.65528e-11
3.75003e-11
1.38627e-07
1.80292e-07
3.68508e-08
1.57639e-13
3.9311e-13
9.62519e-13
2.3401e-12
5.55075e-12
1.24134e-11
2.51606e-11
4.20573e-11
5.79037e-11
3.83479e-11
3.37292e-11
3.69689e-11
5.34914e-11
4.02417e-11
3.44007e-11
1.62068e-09
1.78026e-07
1.80292e-07
2.36743e-08
6.8609e-14
1.72936e-13
4.06164e-13
9.41507e-13
2.13489e-12
4.51689e-12
8.67699e-12
1.50044e-11
1.98291e-11
3.36082e-11
3.28933e-11
4.13104e-11
7.07523e-11
6.58767e-11
3.44665e-11
3.29881e-09
9.9991e-08
4.39462e-08
2.85002e-09
3.13109e-14
7.96665e-14
1.7621e-13
3.82161e-13
8.27164e-13
1.668e-12
2.97881e-12
4.905e-12
7.78223e-12
1.08625e-11
1.96034e-11
3.03941e-11
4.89249e-11
6.98405e-11
4.21223e-11
1.7091e-09
3.86524e-13
4.8098e-13
5.85356e-13
1.49266e-14
3.83743e-14
7.88153e-14
1.57479e-13
3.29134e-13
6.61082e-13
1.16444e-12
1.93228e-12
3.38745e-12
6.02022e-12
8.37546e-12
1.37121e-11
2.34473e-11
2.77568e-11
2.65742e-11
2.44486e-13
3.86137e-13
3.19518e-12
8.69473e-12
7.38857e-15
1.91067e-14
3.56958e-14
6.3309e-14
1.24655e-13
2.49983e-13
4.33902e-13
7.20765e-13
1.28567e-12
2.31726e-12
3.01769e-12
4.43552e-12
8.14589e-12
1.25421e-11
6.12568e-12
2.42608e-13
4.72221e-13
5.47263e-12
2.08142e-11
3.76666e-15
9.6878e-15
1.61983e-14
2.46916e-14
4.45054e-14
8.94891e-14
1.49776e-13
2.41432e-13
4.21691e-13
7.55463e-13
9.20038e-13
1.14692e-12
1.88596e-12
2.74859e-12
1.37935e-12
1.63615e-13
4.00046e-13
5.06684e-12
1.3322e-11
1.96003e-15
4.85916e-15
7.16644e-15
9.14972e-15
1.45855e-14
2.99296e-14
4.77046e-14
7.27088e-14
1.19776e-13
2.07756e-13
2.28708e-13
2.26038e-13
3.12781e-13
3.59626e-13
2.09472e-13
3.77313e-14
2.48183e-13
3.49422e-12
3.82831e-12
1.06514e-15
2.31293e-15
2.97449e-15
3.12066e-15
4.16817e-15
8.77111e-15
1.28883e-14
1.76623e-14
2.55241e-14
3.99235e-14
3.8094e-14
2.62793e-14
2.68646e-14
2.17519e-14
1.15258e-14
6.24031e-15
1.23269e-13
1.97505e-12
6.70705e-13
5.6047e-16
1.00968e-15
1.1061e-15
9.45126e-16
9.97184e-16
2.13153e-15
2.72165e-15
3.05275e-15
3.40846e-15
3.94037e-15
2.92207e-15
7.65289e-16
-7.33271e-16
-1.18101e-15
-8.69442e-16
1.3439e-15
4.64139e-14
8.57445e-13
9.97219e-14
2.62705e-16
3.83756e-16
3.49235e-16
2.41408e-16
1.92425e-16
4.15068e-16
4.24784e-16
3.06572e-16
1.85469e-16
6.1544e-17
-8.34737e-18
-6.37515e-17
-1.09547e-16
-1.12586e-16
-6.66575e-17
3.45591e-16
1.27291e-14
2.81679e-13
2.17786e-14
1.01465e-16
1.1721e-16
8.69372e-17
4.80371e-17
2.80559e-17
6.20001e-17
4.5932e-17
6.12263e-18
-1.27818e-17
-1.25398e-17
-7.22721e-18
-3.48065e-18
-1.51149e-18
-5.8754e-19
7.11717e-19
4.95453e-17
2.24789e-15
6.3878e-14
4.71552e-15
2.80636e-17
2.51493e-17
1.49979e-17
6.48681e-18
2.69396e-18
6.60644e-18
3.16967e-18
-1.04328e-18
-1.81266e-18
-1.03722e-18
-3.91636e-19
-1.23761e-19
-3.60187e-20
-9.743e-21
2.71327e-20
2.51568e-18
1.75834e-16
7.35557e-15
4.90409e-16
4.07499e-18
2.79034e-18
1.32281e-18
4.30362e-19
1.1829e-19
3.99271e-19
9.73274e-20
6.02027e-22
-1.74265e-21
-2.47441e-22
-1.87155e-23
-9.3604e-25
-3.58697e-26
-1.30637e-27
-6.47739e-29
-4.65999e-30
-6.55232e-31
-9.27371e-32
-2.59813e-32
)
;

boundaryField
{
    leftWall
    {
        type            zeroGradient;
    }
    rightWall
    {
        type            zeroGradient;
    }
    lowerWall
    {
        type            zeroGradient;
    }
    atmosphere
    {
        type            inletOutlet;
        inletValue      uniform 0;
        value           nonuniform List<scalar> 
46
(
0
0
0
0
0
0
0
0.00199459
6.53681e-05
2.49272e-05
0.000272628
0
0
0
0
4.05139e-09
1.03652e-10
2.81149e-12
1.40402e-12
0
0
0
0
0
0
0
0
0
0
0
0
0
0
0
0
0
0
0
0
0
0
0
0
0
0
0
)
;
    }
    defaultFaces
    {
        type            empty;
    }
}


// ************************************************************************* //
