/*--------------------------------*- C++ -*----------------------------------*\
| =========                 |                                                 |
| \\      /  F ield         | OpenFOAM: The Open Source CFD Toolbox           |
|  \\    /   O peration     | Version:  2.3.0                                 |
|   \\  /    A nd           | Web:      www.OpenFOAM.org                      |
|    \\/     M anipulation  |                                                 |
\*---------------------------------------------------------------------------*/
FoamFile
{
    version     2.0;
    format      ascii;
    class       volScalarField;
    location    "1.25";
    object      p;
}
// * * * * * * * * * * * * * * * * * * * * * * * * * * * * * * * * * * * * * //

dimensions      [1 -1 -2 0 0 0 0];

internalField   nonuniform List<scalar> 
2268
(
1018.75
1011.6
997.655
983.952
969.809
957.011
948.181
938.26
924.606
906.875
886.504
864.995
843.428
825.432
808.785
784.94
769.51
757.83
745.934
735.406
728.037
723.602
721.837
960.811
953.142
938.62
924.893
910.512
897.147
888.371
878.978
865.805
848.167
827.573
805.385
781.627
762.987
746.984
725.297
708.595
698.78
687.096
676.249
668.636
664.312
662.556
904.374
896.636
881.513
866.404
849.952
835.579
827.014
819.059
807.039
789.718
768.985
747.369
725.801
705.426
685.64
664.437
648.883
639.114
627.071
615.981
608.439
604.273
602.685
849.498
841.594
825.975
808.002
788.614
772.597
764.356
758.421
748.124
731.409
710.583
689.299
669.008
648.298
626.497
605.364
590.485
579.204
566.084
554.628
547.177
543.437
542.166
796.43
788.179
770.82
749.329
727.035
709.367
701.092
697.33
689.063
673.023
651.863
630.043
609.741
589.045
567.771
548.03
532.942
518.754
504.099
492.259
484.843
481.779
481.023
745.096
736.176
715.404
690.279
665.707
646.264
637.622
636.014
630.026
614.624
592.675
569.317
547.521
526.897
507.907
491.188
474.947
457.279
440.955
428.713
421.28
419.285
419.386
695.68
685.502
660.016
630.248
604.701
583.967
575.084
575.292
571.3
556.433
533.177
507.522
483.393
462.414
446.86
433.657
415.114
394.605
378.546
366.53
358.943
356.792
357.305
652.165
639.829
603.486
568.713
545.58
523.943
515.817
517.277
513.909
498.743
473.052
444.168
416.894
395.639
384.446
374.427
353.278
332.279
318.084
306.025
299.195
297.599
297.388
605.755
592.866
581.263
565.326
581.285
616.49
618.207
569.606
508.924
475.54
464.292
437.962
396.848
394.157
418.904
398.276
323.397
272.307
277.896
546.236
531.426
522.623
516.516
524.831
552.438
549.526
497.369
435.551
392.497
385.349
372.878
343.141
345.428
369.871
347.778
267.859
234.237
233.917
488.145
475.428
471.682
465.994
465.715
486.473
480.185
423.769
366.406
320.29
297.147
291.844
290.309
306.277
329.473
299.236
231.5
218.298
210.18
431.791
420.371
421.897
410.312
402.678
421.732
413.013
350.921
300.879
258.034
223.545
212.086
230.764
264.633
291.331
257.732
212.975
204.376
197.749
375.498
362.364
365.06
347.582
334.716
349.678
331.904
268.845
234.07
204.328
167.054
143.019
165.465
214.163
245.453
220.236
186.318
179.817
178.823
320.699
301.366
302.322
280.822
267.659
264.029
229.129
161.871
155.273
154.096
123.945
86.7058
103.501
158.553
187.526
164.936
134.63
134.107
153.788
269.807
243.66
233.673
205.514
195.687
187.122
131.488
82.9812
87.4356
106.643
90.5866
44.3161
52.7993
105.299
124.504
104.213
87.266
91.6826
126.506
222.572
181.967
148.758
117.05
114.495
134.815
102.912
68.9202
69.4649
77.9517
66.325
13.0326
13.3651
58.8467
74.6917
67.2165
69.9959
71.196
98.8474
615.778
600.343
522.507
467.67
452.361
430.644
424.058
428.244
425.184
406.917
374.281
338.361
306.37
285.285
283.211
271.3
243.376
226.087
215.501
206.218
199.82
199.312
197.411
551.211
507.211
457.134
400.871
327.996
264.24
279.765
302.288
303.104
270.16
216.006
157.369
131.3
124.866
143.024
127.328
106.138
101.124
107.788
102.84
82.1563
81.4764
86.7619
458.759
398.003
329.068
268.049
226.327
218.206
226.435
234.532
223.375
163.229
98.5814
60.607
44.4589
48.3265
53.4056
45.6947
39.0482
43.247
48.7359
40.319
21.8894
13.541
13.1789
343.513
283.578
202.252
179.453
175.342
184.269
197.736
208.904
197.951
122.839
57.1648
37.0677
27.3086
21.6071
13.6713
6.28433
4.96613
7.79971
9.57868
6.99352
8.46669
5.98322
5.32461
247.729
214.426
130.15
76.1057
88.0176
124.963
148.233
145.712
114.736
58.4928
33.2686
25.3075
15.6947
6.09213
2.46062
1.45854
1.14261
1.01831
1.99108
2.67158
3.55591
4.03543
5.2431
179.476
167.774
114.744
48.5059
21.3404
26.242
37.0357
39.747
30.8709
15.1298
13.0893
10.2817
4.70751
1.9999
1.69682
1.30081
1.01148
0.880747
1.1851
1.26072
0.784313
1.00568
3.34398
127.495
135.963
132.942
100.801
72.8533
43.9385
12.4119
5.88784
8.70188
4.26679
3.34848
2.62046
1.78252
1.73168
1.51905
1.19637
0.910745
0.734267
0.695405
0.490426
-0.162686
-0.0749296
1.54411
84.6716
85.1052
101.364
98.6982
85.6852
65.4009
29.6553
11.3177
5.81304
3.78963
2.24919
1.60512
1.54764
1.4561
1.21417
0.933222
0.672881
0.455846
0.278299
0.0428396
-0.444421
-0.765269
-0.423151
45.4648
31.7957
33.6241
49.2419
38.9884
13.3411
9.93981
6.69506
5.68513
4.2702
2.73697
1.76606
1.47971
1.3396
1.0052
0.625626
0.356175
0.156299
-0.0282187
-0.223188
-0.481367
-0.728173
-0.845128
18.5735
8.93847
5.1167
21.7726
28.3065
8.59102
2.50204
4.31823
4.28351
4.10332
3.32835
2.13897
1.31933
0.924656
0.545788
0.202003
0.0203958
-0.139737
-0.305715
-0.450661
-0.58413
-0.697179
-0.724409
6.02991
2.13289
2.16874
2.41974
9.20127
-2.4566
-1.59007
2.79941
3.58579
3.66932
2.86459
1.34911
-0.173659
-0.52129
-0.422976
-0.514285
-0.475248
-0.533689
-0.632597
-0.706771
-0.756747
-0.779453
-0.765296
2.00976
-0.320728
0.749447
0.239094
-1.96533
-0.990874
-7.63108
0.196789
2.03286
1.71993
1.60071
0.675271
-0.439175
-0.88268
-1.51195
-1.15492
-0.936023
-0.923301
-0.965246
-0.978717
-0.959484
-0.910905
-0.843601
0.810425
-0.30391
0.252506
-0.424939
-1.26854
-1.07369
-1.09378
-2.13186
0.264964
0.354458
0.582987
-0.039912
-1.20091
-1.84292
-1.8142
-1.48457
-1.31039
-1.29594
-1.30594
-1.27662
-1.19993
-1.08631
-0.968525
0.000731922
-0.83252
-0.306843
-0.969052
-1.41997
-1.57257
-0.914984
-1.33097
-0.642921
-0.755917
-1.1323
-1.41847
-1.65222
-1.82467
-1.85757
-1.73644
-1.6736
-1.68583
-1.68777
-1.62665
-1.49359
-1.31497
-1.1471
-0.323485
-0.914245
-1.32223
-1.49344
-1.88434
-2.20744
-2.54812
-2.81893
-1.98048
-1.35443
-1.30386
-1.51365
-1.73861
-1.89296
-1.99236
-2.03626
-2.06446
-2.10451
-2.094
-1.99226
-1.79953
-1.56326
-1.3537
-0.193593
-0.485625
-1.49786
-1.51307
-1.85456
-2.18018
-2.68596
-3.09666
-2.62566
-1.78386
-1.57775
-1.67715
-1.8582
-2.03598
-2.19354
-2.31585
-2.40526
-2.44506
-2.40566
-2.26791
-2.03739
-1.77314
-1.54884
-0.0671361
0.38509
-0.818994
-1.20267
-1.52637
-1.93544
-2.34685
-2.58144
-2.34652
-2.00255
-1.90286
-1.94291
-2.06506
-2.22216
-2.38197
-2.51722
-2.60926
-2.63389
-2.56906
-2.40853
-2.17142
-1.91851
-1.71261
-0.0983968
-0.737717
-0.584123
-0.970127
-1.29269
-1.74352
-2.12926
-2.32718
-2.3005
-2.21506
-2.19324
-2.23247
-2.32078
-2.43455
-2.54857
-2.64034
-2.68995
-2.67897
-2.58459
-2.42319
-2.2153
-2.01128
-1.85423
-0.116123
-1.78275
-0.731423
-0.963405
-1.25948
-1.69934
-2.07382
-2.31487
-2.41468
-2.45397
-2.48795
-2.53446
-2.59538
-2.66134
-2.71575
-2.7433
-2.73123
-2.66614
-2.56431
-2.41863
-2.25515
-2.10892
-2.0028
0.675674
-3.30026
-0.958822
-1.11512
-1.37341
-1.79
-2.15736
-2.44434
-2.62792
-2.73825
-2.8075
-2.85498
-2.8883
-2.9062
-2.90303
-2.87254
-2.81047
-2.7179
-2.60362
-2.47518
-2.34901
-2.24374
-2.16886
-1.64892
-3.79187
-1.02747
-1.34449
-1.59305
-2.00234
-2.3796
-2.71074
-2.95175
-3.10365
-3.18539
-3.21682
-3.21207
-3.17905
-3.12124
-3.04093
-2.94157
-2.82898
-2.71066
-2.59439
-2.49015
-2.40597
-2.34618
0.330058
-3.13398
-1.16423
-1.69493
-1.92627
-2.35108
-2.75611
-3.1354
-3.4218
-3.59592
-3.66651
-3.65607
-3.59071
-3.49195
-3.37381
-3.2452
-3.11258
-2.98182
-2.85865
-2.74828
-2.65543
-2.58306
-2.52829
1.02385
-3.58083
-1.78818
-2.17486
-2.37932
-2.84159
-3.29174
-3.72809
-4.05811
-4.24125
-4.27868
-4.19978
-4.04664
-3.85959
-3.66576
-3.48071
-3.31166
-3.1609
-3.02966
-2.9192
-2.83002
-2.76148
-2.71066
1.99656
-2.83161
-2.16348
-2.59983
-2.88679
-3.42389
-3.93876
-4.4355
-4.80967
-5.00076
-4.99653
-4.83485
-4.57726
-4.28448
-3.99934
-3.74545
-3.53209
-3.35709
-3.21426
-3.09968
-3.01014
-2.94237
-2.89259
-0.181336
-1.82103
-1.75324
-2.74375
-3.31727
-4.00898
-4.61921
-5.1948
-5.62405
-5.81058
-5.75211
-5.50529
-5.14093
-4.74046
-4.36062
-4.03133
-3.76594
-3.56203
-3.40484
-3.28358
-3.19138
-3.12266
-3.07249
-1.20985
-1.46038
-1.86908
-2.79141
-3.68991
-4.56791
-5.28961
-5.96936
-6.47047
-6.65695
-6.51745
-6.14667
-5.66622
-5.16944
-4.71072
-4.31738
-4.00088
-3.76622
-3.59413
-3.46564
-3.37017
-3.29994
-3.24894
-0.610361
-1.9646
-2.17465
-2.99152
-4.16029
-5.12312
-5.90653
-6.65575
-7.19935
-7.38705
-7.18603
-6.68241
-6.07528
-5.50278
-4.99607
-4.57001
-4.21927
-3.95882
-3.77463
-3.6408
-3.54309
-3.47203
-3.42062
-5.6806
-4.03283
-3.2372
-3.88132
-4.84684
-5.66213
-6.40072
-7.12715
-7.65402
-7.80768
-7.57241
-7.00277
-6.3143
-5.69512
-5.17565
-4.75547
-4.40194
-4.12961
-3.93965
-3.80476
-3.70731
-3.63711
-3.58646
-5.96277
-5.99143
-5.55501
-5.44767
-5.68391
-6.09189
-6.67275
-7.30693
-7.75381
-7.8662
-7.59866
-7.03366
-6.35189
-5.73399
-5.23911
-4.85822
-4.53598
-4.27196
-4.085
-3.9547
-3.86112
-3.79409
-3.74583
-6.30459
-6.98552
-6.95628
-6.48661
-6.21744
-6.25876
-6.62087
-7.09372
-7.44508
-7.52203
-7.26534
-6.77297
-6.18711
-5.64062
-5.20961
-4.89011
-4.62162
-4.38489
-4.20993
-4.08998
-4.00423
-3.94282
-3.89872
-6.21482
-6.93517
-6.79982
-6.519
-6.24596
-6.10863
-6.25556
-6.54678
-6.78925
-6.84819
-6.66835
-6.31369
-5.87447
-5.45402
-5.12192
-4.87698
-4.6695
-4.47262
-4.31692
-4.21203
-4.13764
-4.0841
-4.04575
-5.68442
-5.50464
-6.01658
-6.22295
-5.96045
-5.75437
-5.74077
-5.87803
-6.03581
-6.10033
-6.01781
-5.80345
-5.52
-5.24094
-5.01567
-4.84649
-4.69581
-4.5416
-4.412
-4.32417
-4.26346
-4.21954
-4.1881
-5.45898
-5.63852
-6.05114
-5.98568
-5.6362
-5.38231
-5.25327
-5.28132
-5.38658
-5.46216
-5.45187
-5.35554
-5.20837
-5.0531
-4.92226
-4.81958
-4.71717
-4.60065
-4.49891
-4.43028
-4.38411
-4.35094
-4.32726
-5.34063
-5.51233
-5.7778
-5.58834
-5.27158
-5.02334
-4.86438
-4.85474
-4.93175
-5.00862
-5.04233
-5.02728
-4.97718
-4.91236
-4.85568
-4.80698
-4.74322
-4.65743
-4.58223
-4.53397
-4.50275
-4.48062
-4.46493
-5.20665
-5.34158
-5.2429
-4.95824
-4.81023
-4.65223
-4.57145
-4.60125
-4.67672
-4.74558
-4.79248
-4.81644
-4.82168
-4.81853
-4.81582
-4.81041
-4.77745
-4.71685
-4.66668
-4.63902
-4.62246
-4.61091
-4.60291
-5.12439
-5.14345
-4.69583
-4.48561
-4.39231
-4.32155
-4.37232
-4.47977
-4.56783
-4.62052
-4.65695
-4.69025
-4.72283
-4.75774
-4.7955
-4.82683
-4.82114
-4.78399
-4.75789
-4.7499
-4.74658
-4.74425
-4.74288
-5.13627
-5.10123
-4.71497
-4.37596
-4.11293
-4.10821
-4.2597
-4.44652
-4.55384
-4.58191
-4.59293
-4.61857
-4.65755
-4.7135
-4.78594
-4.8631
-4.88967
-4.87266
-4.86533
-4.87231
-4.87852
-4.88279
-4.88623
-5.2212
-5.23881
-5.1032
-4.61602
-4.06834
-4.04786
-4.24972
-4.48545
-4.60706
-4.59846
-4.57219
-4.5851
-4.6235
-4.70923
-4.86308
-4.9886
-5.02163
-5.00133
-4.99903
-5.01069
-5.02033
-5.02772
-5.03371
-5.33526
-5.33671
-5.31834
-5.10634
-4.48465
-4.20608
-4.35866
-4.66379
-4.77061
-4.67465
-4.60012
-4.58716
-4.67612
-4.87455
-5.08967
-5.21151
-5.19511
-5.16014
-5.15537
-5.16295
-5.17102
-5.17861
-5.18517
-5.45064
-5.44508
-5.41769
-5.36678
-5.0473
-4.52108
-4.65118
-5.09939
-5.09307
-4.85723
-4.72474
-4.60437
-4.90037
-5.20044
-5.36814
-5.40431
-5.36034
-5.32887
-5.32056
-5.32221
-5.3276
-5.33387
-5.33969
-5.58044
-5.57359
-5.5567
-5.50161
-5.42936
-5.07943
-4.73407
-6.47913
-5.59984
-5.19756
-5.07367
-4.63533
-5.29273
-5.49713
-5.54904
-5.5405
-5.51011
-5.49043
-5.48276
-5.4835
-5.48722
-5.49186
-5.4964
-5.71385
-5.71372
-5.71529
-5.73262
-5.75261
-6.01122
-6.41832
-8.82202
-5.94637
-5.81122
-5.98039
-5.50961
-5.63036
-5.66736
-5.68489
-5.67018
-5.65707
-5.65015
-5.64799
-5.64746
-5.64934
-5.65229
-5.65542
188.716
190.806
190.601
181.121
84.5735
82.0242
77.9036
66.7776
23.3419
32.3746
43.8226
50.0299
6.24599
7.08625
7.28837
7.23941
5.91855
6.26711
6.49721
6.48632
4.77919
5.35004
5.5466
5.36096
2.86131
3.06025
3.05657
3.01051
1.31027
1.64915
1.00565
0.905438
-0.769244
-0.655291
-0.597127
-0.622218
-0.710077
-0.687444
-0.648235
-0.615111
-0.726001
-0.69111
-0.658994
-0.633172
-0.78841
-0.756203
-0.730823
-0.710305
-0.900106
-0.865474
-0.839012
-0.819718
-1.0602
-1.01736
-0.985733
-0.964778
-1.24789
-1.19557
-1.15872
-1.1357
-1.43612
-1.38184
-1.34508
-1.32248
-1.61238
-1.56617
-1.53493
-1.51528
-1.78114
-1.74709
-1.7231
-1.70703
-1.95333
-1.92884
-1.9106
-1.89754
-2.13219
-2.11318
-2.09836
-2.08729
-2.31528
-2.29898
-2.28599
-2.27604
-2.49988
-2.48482
-2.47267
-2.46319
-2.6837
-2.66926
-2.65745
-2.64808
-2.86596
-2.85157
-2.83971
-2.83016
-3.04558
-3.03096
-3.01883
-3.00896
-3.22159
-3.20669
-3.19427
-3.18409
-3.39309
-3.37808
-3.36553
-3.35521
-3.55938
-3.54461
-3.53224
-3.52205
-3.72007
-3.70602
-3.69425
-3.68453
-3.87524
-3.86243
-3.85168
-3.84282
-4.02541
-4.01433
-4.00503
-3.99737
-4.17158
-4.1626
-4.15507
-4.14889
-4.31499
-4.30835
-4.30279
-4.29825
-4.45702
-4.45277
-4.44923
-4.44636
-4.5991
-4.5971
-4.59543
-4.59413
-4.74254
-4.74243
-4.74235
-4.74236
-4.8884
-4.88966
-4.89073
-4.89171
-5.03727
-5.0393
-5.04104
-5.0426
-5.18911
-5.19137
-5.19335
-5.1951
-5.34332
-5.34541
-5.34728
-5.34894
-5.49933
-5.50104
-5.50259
-5.50398
-5.65751
-5.65876
-5.65988
-5.66089
149.161
88.0474
44.1843
32.7344
41.1569
80.2925
82.691
67.1986
64.901
69.6875
65.9036
-7.60635
-21.2501
19.4419
47.9682
52.1472
59.7131
61.1292
70.5291
36.1106
18.0885
16.2618
16.1557
16.269
23.59
62.5397
65.3025
63.1338
65.5923
65.62
66.2638
32.8096
31.8355
37.0111
45.5159
52.0749
56.7024
59.3904
38.7687
12.4862
13.1314
14.5111
13.4321
14.8884
27.7554
47.0307
51.2192
54.0501
57.8207
59.0351
65.5581
47.7972
42.3777
40.434
40.0803
44.9632
48.5358
7.19226
4.33224
5.4567
11.818
12.4048
12.2007
16.6275
20.2909
30.9661
37.6219
42.0991
38.3008
35.4962
40.922
36.9176
34.0025
27.449
26.5314
35.5751
5.93668
4.24395
4.6224
9.7759
12.1985
10.2192
9.46641
8.72789
12.0261
15.8791
20.7072
17.3152
12.9137
17.1644
23.3873
25.2243
19.4895
14.7642
24.3237
4.93361
5.7461
8.04623
9.94042
11.1758
7.54129
4.59041
5.99458
4.99901
2.24041
6.77668
3.89998
4.78988
7.35609
12.4383
16.3227
15.4067
12.5401
18.1405
2.4714
4.33152
7.71948
10.366
7.02214
3.47407
2.09695
4.14961
1.57281
-3.03737
1.00122
-0.707139
1.22576
4.6224
8.76857
11.3246
13.3645
12.1949
14.28
1.08174
1.65757
3.34093
3.91594
2.12289
1.02739
1.17606
1.83866
-1.04574
-1.19701
0.947327
-0.654606
0.899664
4.16751
7.92205
9.26318
11.1799
11.4651
13.8269
-0.625755
-0.206045
0.46622
0.440394
0.0961382
0.121603
0.372844
0.316228
-0.732313
0.967331
1.08982
0.320415
2.44427
5.54761
7.79683
8.247
9.30547
11.0906
14.6264
-0.566411
-0.40572
-0.259188
-0.206817
-0.15536
-0.14083
-0.118676
-0.323694
-0.458548
1.89017
2.61878
4.18857
6.07124
8.33236
9.27557
8.42646
9.6915
13.269
19.0768
-0.58516
-0.496626
-0.419539
-0.379656
-0.365237
-0.377922
-0.405843
-0.503636
-0.540669
-0.355524
1.27573
2.47511
5.17036
7.92786
9.35109
9.28881
13.9226
20.2376
22.1818
-0.676096
-0.629351
-0.593674
-0.575692
-0.575394
-0.591172
-0.629018
-0.712879
-0.838093
-1.08011
-1.32338
-1.29489
-0.901134
-0.141675
2.45842
7.06181
11.806
13.8478
16.7427
-0.79612
-0.779068
-0.768087
-0.763539
-0.769347
-0.781701
-0.8122
-0.876871
-1.01054
-1.26307
-1.52867
-1.70084
-1.71374
-1.6282
-0.443362
4.1734
9.15066
6.06462
4.58783
-0.943954
-0.938407
-0.941929
-0.94807
-0.957354
-0.969169
-0.989321
-1.02561
-1.11849
-1.33637
-1.60757
-1.75718
-1.78689
-1.6405
-0.303394
2.91807
5.8571
3.37252
-0.133403
-1.11516
-1.11626
-1.1249
-1.13594
-1.14866
-1.16269
-1.17777
-1.19497
-1.24317
-1.39629
-1.65276
-1.80359
-1.70029
-1.84161
-1.51196
2.04202
2.41146
-0.34529
-1.37364
-1.30341
-1.30526
-1.31471
-1.3286
-1.34454
-1.36187
-1.37847
-1.39419
-1.42829
-1.55287
-1.78097
-2.02931
-2.11952
0.0386105
0.216358
-0.650324
-1.36923
-1.98543
-1.87825
-1.4977
-1.49766
-1.50743
-1.52261
-1.54139
-1.56323
-1.58661
-1.61191
-1.65838
-1.78529
-2.06417
-2.43271
-2.58829
-2.35139
-2.27643
-2.2289
-2.19038
-2.1446
-2.04163
-1.69175
-1.69122
-1.70051
-1.71606
-1.73665
-1.76198
-1.79224
-1.83278
-1.90068
-2.05177
-2.3428
-2.70767
-2.74836
-2.56745
-2.4869
-2.44119
-2.38694
-2.30898
-2.23441
-1.88452
-1.88381
-1.89232
-1.90772
-1.9293
-1.95782
-1.99609
-2.04948
-2.13114
-2.26316
-2.45924
-2.65009
-2.67621
-2.61918
-2.56623
-2.55705
-2.52945
-2.47993
-2.41667
-2.07579
-2.07464
-2.08239
-2.09742
-2.11962
-2.15096
-2.19657
-2.26072
-2.34437
-2.44368
-2.55228
-2.64912
-2.68583
-2.67795
-2.66136
-2.65939
-2.64648
-2.61895
-2.5781
-2.26528
-2.26353
-2.2707
-2.28561
-2.30788
-2.3405
-2.389
-2.45494
-2.54069
-2.61522
-2.67626
-2.72382
-2.74912
-2.756
-2.75508
-2.75699
-2.75693
-2.74127
-2.72115
-2.45255
-2.45011
-2.45672
-2.47104
-2.49269
-2.52413
-2.57064
-2.63458
-2.70907
-2.77176
-2.80521
-2.83072
-2.84519
-2.85397
-2.85794
-2.86234
-2.87064
-2.86114
-2.84934
-2.63716
-2.63375
-2.63925
-2.65239
-2.67232
-2.70014
-2.73977
-2.79427
-2.8567
-2.90625
-2.93263
-2.94637
-2.95557
-2.96423
-2.97146
-2.97884
-2.98834
-2.98235
-2.97437
-2.81866
-2.81394
-2.81776
-2.82887
-2.84612
-2.86927
-2.90018
-2.94118
-2.98861
-3.02813
-3.05079
-3.06253
-3.07153
-3.08138
-3.09287
-3.10519
-3.11013
-3.10634
-3.10106
-2.99672
-2.99048
-2.9923
-3.00087
-3.01494
-3.03363
-3.057
-3.08519
-3.11561
-3.14279
-3.16361
-3.17827
-3.19184
-3.20671
-3.22124
-3.23302
-3.23604
-3.23405
-3.23079
-3.17114
-3.16342
-3.16325
-3.16926
-3.18023
-3.19518
-3.21342
-3.23371
-3.25354
-3.2713
-3.28753
-3.30545
-3.32281
-3.3407
-3.35395
-3.3622
-3.36515
-3.36548
-3.36384
-3.34179
-3.33284
-3.33097
-3.33474
-3.34295
-3.35466
-3.36914
-3.38536
-3.40194
-3.41752
-3.43223
-3.44615
-3.46258
-3.47619
-3.48698
-3.49403
-3.49812
-3.50019
-3.49976
-3.50858
-3.49887
-3.49573
-3.49772
-3.50371
-3.51279
-3.5242
-3.53706
-3.55039
-3.56358
-3.57663
-3.58909
-3.60172
-3.61299
-3.62243
-3.62947
-3.6346
-3.63753
-3.63787
-3.67156
-3.66167
-3.65778
-3.65851
-3.66281
-3.66987
-3.67897
-3.6894
-3.70043
-3.71158
-3.72267
-3.73352
-3.74398
-3.75366
-3.76205
-3.76867
-3.77374
-3.77678
-3.77762
-3.8309
-3.82149
-3.8174
-3.81737
-3.82049
-3.82603
-3.83338
-3.84197
-3.85123
-3.86077
-3.87032
-3.87973
-3.88869
-3.89703
-3.90424
-3.91009
-3.91469
-3.91757
-3.91871
-3.98704
-3.9787
-3.97491
-3.97457
-3.97695
-3.9814
-3.98744
-3.99458
-4.00241
-4.01056
-4.01878
-4.02687
-4.03452
-4.04171
-4.04788
-4.05296
-4.05701
-4.0596
-4.06089
-4.14055
-4.13377
-4.13068
-4.13041
-4.13237
-4.13608
-4.14111
-4.1471
-4.15372
-4.16066
-4.16768
-4.17457
-4.18105
-4.18732
-4.19254
-4.1969
-4.20043
-4.20265
-4.20397
-4.29213
-4.28721
-4.2851
-4.28515
-4.28694
-4.29013
-4.29439
-4.29945
-4.30504
-4.31092
-4.31688
-4.32273
-4.32825
-4.33349
-4.33798
-4.34165
-4.34479
-4.3466
-4.34778
-4.44252
-4.43958
-4.43855
-4.43905
-4.44083
-4.44365
-4.4473
-4.45159
-4.4563
-4.46126
-4.46628
-4.47121
-4.47588
-4.48026
-4.48401
-4.48723
-4.48973
-4.49137
-4.49227
-4.59243
-4.59136
-4.5914
-4.59238
-4.5942
-4.59675
-4.59991
-4.60353
-4.60749
-4.61163
-4.61583
-4.61995
-4.62386
-4.62748
-4.63062
-4.63332
-4.63535
-4.63679
-4.63745
-4.74248
-4.743
-4.74396
-4.74536
-4.74723
-4.74955
-4.75227
-4.75532
-4.75861
-4.76204
-4.7655
-4.76889
-4.77211
-4.77508
-4.77766
-4.77988
-4.78151
-4.78274
-4.78324
-4.89318
-4.89488
-4.89651
-4.8982
-4.90006
-4.90214
-4.90446
-4.90699
-4.90968
-4.91246
-4.91525
-4.91799
-4.92058
-4.92297
-4.92505
-4.92683
-4.92812
-4.92914
-4.92951
-5.04487
-5.04729
-5.04931
-5.0511
-5.05286
-5.05467
-5.05658
-5.05861
-5.06073
-5.06291
-5.06509
-5.06723
-5.06925
-5.0711
-5.07272
-5.07411
-5.0751
-5.07591
-5.07615
-5.19767
-5.20035
-5.20246
-5.20415
-5.20571
-5.20719
-5.20868
-5.21021
-5.21178
-5.21339
-5.215
-5.21657
-5.21806
-5.21942
-5.22062
-5.22164
-5.22235
-5.22299
-5.22308
-5.3514
-5.35393
-5.35585
-5.35733
-5.35855
-5.35963
-5.36067
-5.3617
-5.36275
-5.36381
-5.36487
-5.36591
-5.3669
-5.36781
-5.36861
-5.36929
-5.36973
-5.37021
-5.37016
-5.50604
-5.50815
-5.50966
-5.51074
-5.51153
-5.51216
-5.5127
-5.51321
-5.51372
-5.51424
-5.51476
-5.51529
-5.5158
-5.51628
-5.5167
-5.51706
-5.51727
-5.51755
-5.51738
-5.66236
-5.66379
-5.66469
-5.6652
-5.66543
-5.66549
-5.66546
-5.66538
-5.66531
-5.66525
-5.66522
-5.66522
-5.66525
-5.6653
-5.66535
-5.66539
-5.66537
-5.66546
-5.66507
)
;

boundaryField
{
    leftWall
    {
        type            calculated;
        value           nonuniform List<scalar> 
50
(
1018.75
960.811
904.374
849.498
796.43
745.096
695.68
652.165
615.778
551.211
458.759
343.513
247.729
179.476
127.495
84.6716
45.4648
18.5735
6.02991
2.00976
0.810425
0.000731922
-0.323485
-0.193593
-0.0671361
-0.0983968
-0.116123
0.675674
-1.64892
0.330058
1.02385
1.99656
-0.181336
-1.20985
-0.610361
-5.6806
-5.96277
-6.30459
-6.21482
-5.68442
-5.45898
-5.34063
-5.20665
-5.12439
-5.13627
-5.2212
-5.33526
-5.45064
-5.58044
-5.71385
)
;
    }
    rightWall
    {
        type            calculated;
        value           nonuniform List<scalar> 
50
(
277.896
233.917
210.18
197.749
178.823
153.788
126.506
98.8474
70.5291
59.3904
48.5358
35.5751
24.3237
18.1405
14.28
13.8269
14.6264
19.0768
22.1818
16.7427
4.58783
-0.133403
-1.37364
-1.87825
-2.04163
-2.23441
-2.41667
-2.5781
-2.72115
-2.84934
-2.97437
-3.10106
-3.23079
-3.36384
-3.49976
-3.63787
-3.77762
-3.91871
-4.06089
-4.20397
-4.34778
-4.49227
-4.63745
-4.78324
-4.92951
-5.07615
-5.22308
-5.37016
-5.51738
-5.66507
)
;
    }
    lowerWall
    {
        type            calculated;
        value           nonuniform List<scalar> 
62
(
1048.17
1041.03
1027.08
1013.38
999.239
986.44
977.61
967.689
954.036
936.305
915.933
894.424
872.852
854.855
838.207
813.862
798.355
786.693
774.777
764.484
757.465
753.031
751.266
721.837
662.556
602.685
542.166
481.023
419.386
357.305
297.388
250.936
253.03
252.825
243.345
605.755
546.236
488.145
431.791
375.498
320.699
269.807
222.572
634.935
622.036
609.912
588.756
604.715
640.642
643.519
598.117
537.906
502.282
490.087
463.925
422.232
419.542
444.289
424.31
349.511
296.019
301.449
)
;
    }
    atmosphere
    {
        type            calculated;
        value           nonuniform List<scalar> 
46
(
-5.78148
-5.78508
-5.79085
-5.80889
-5.83804
-6.29838
-6.03276
-17.1447
-6.10316
-5.87171
-7.28938
-5.82348
-5.74419
-5.73717
-5.72908
-5.72906
-5.72904
-5.72904
-5.72904
-5.72945
-5.73124
-5.73369
-5.7362
-5.73786
-5.73883
-5.73971
-5.74048
-5.74158
-5.74256
-5.74305
-5.74319
-5.74307
-5.74278
-5.74241
-5.742
-5.7416
-5.74123
-5.7409
-5.74063
-5.74041
-5.74023
-5.74009
-5.73998
-5.73986
-5.73987
-5.73923
)
;
    }
    defaultFaces
    {
        type            empty;
    }
}


// ************************************************************************* //
