/*--------------------------------*- C++ -*----------------------------------*\
| =========                 |                                                 |
| \\      /  F ield         | OpenFOAM: The Open Source CFD Toolbox           |
|  \\    /   O peration     | Version:  2.3.0                                 |
|   \\  /    A nd           | Web:      www.OpenFOAM.org                      |
|    \\/     M anipulation  |                                                 |
\*---------------------------------------------------------------------------*/
FoamFile
{
    version     2.0;
    format      ascii;
    class       volScalarField;
    location    "1.25";
    object      p_rgh;
}
// * * * * * * * * * * * * * * * * * * * * * * * * * * * * * * * * * * * * * //

dimensions      [1 -1 -2 0 0 0 0];

internalField   nonuniform List<scalar> 
2268
(
1048.17
1041.03
1027.08
1013.38
999.239
986.44
977.61
967.689
954.036
936.305
915.933
894.424
872.852
854.855
838.207
813.862
798.355
786.693
774.777
764.484
757.465
753.031
751.266
1049.1
1041.43
1026.91
1013.18
998.8
985.435
976.659
967.267
954.093
936.455
915.861
893.526
867.554
848.969
834.859
812.29
796.693
787.06
774.952
763.959
756.666
752.6
750.844
1051.52
1043.78
1028.66
1013.55
997.099
982.726
974.16
966.206
954.186
936.865
916.131
892.444
866.524
846.116
826.333
806.799
795.821
786.26
774.217
763.127
755.552
751.413
749.831
1055.5
1047.6
1031.98
1014.01
994.619
978.597
970.294
964.419
954.129
937.414
916.588
894.177
866.11
845.263
823.462
805.247
796.285
785.209
772.09
760.633
753.183
749.441
748.172
1061.29
1053.04
1035.68
1014.19
991.899
974.174
965.843
962.109
953.921
937.887
916.727
894.907
871.911
842.88
821.993
809.867
797.802
783.618
768.963
757.122
749.707
746.643
745.887
1068.82
1059.9
1039.13
1014
989.43
969.934
961.209
959.601
953.674
938.345
916.397
893.04
871.243
849.382
830.555
814.751
798.669
781.002
764.677
752.202
745.003
743.008
743.109
1078.25
1067.72
1042.39
1012.83
987.283
966.548
957.654
957.741
953.752
938.998
915.759
890.103
865.974
844.994
829.439
816.236
797.693
771.145
734.81
720.599
713.036
729.432
739.886
1076.34
1077.6
1044.85
1010.15
987.021
965.383
957.247
958.678
955.303
940.162
914.492
885.608
858.334
837.079
825.886
815.866
791.45
733.926
715.34
707.923
691.256
689.529
725.532
634.935
622.036
609.912
588.756
604.715
640.642
643.519
598.117
537.906
502.282
490.087
463.925
422.232
419.542
444.289
424.31
349.511
296.019
301.449
633.988
619.178
598.761
586.806
604.579
639.374
636.472
584.316
522.499
479.446
468.532
450.344
419.566
423.105
450.884
427.176
332.293
258.4
284.89
634.399
614.396
594.619
588.572
608.255
631.363
625.086
568.679
511.316
465.195
442.017
428.424
418.769
442.89
471.971
434.356
279.293
242.308
234.187
636.547
613.452
594.832
609.825
605.45
624.542
615.859
553.786
503.742
459.539
425.487
414.124
430.801
467.111
493.894
439.009
246.588
237.986
231.358
638.755
613.182
624.005
610.249
587.676
609.655
592.696
529.524
494.79
462.869
427.181
403.356
425.836
474.57
505.871
429.29
256.279
245.616
246.745
642.458
621.593
623.883
602.093
553.386
560.764
524.056
467.663
466.107
471.976
442.143
404.919
421.751
476.823
505.801
374.583
236.055
213.181
238.086
650.067
623.914
613.844
585.152
554.791
435.445
343.686
235.919
267.053
435.784
466.346
418.765
428.924
481.429
500.665
279.337
151.253
147.116
226.131
661.327
619.319
563.143
495.177
497.054
425.23
234.272
107.684
98.0924
208.56
483.421
415.747
439.803
492.872
508.761
175.22
78.4667
93.7455
213.19
868.455
911.157
945.872
966.745
985.753
964.102
957.482
961.652
958.629
940.372
907.746
871.827
839.836
818.752
816.677
804.766
739.108
703.398
706.24
706.864
708.287
709.738
715.096
698.483
636.114
587.427
687.484
910.874
874.332
909.914
957.921
960.78
928.795
874.659
816.029
771.864
712.925
675.025
506.109
373.745
368.984
352.923
353.375
406.215
568.316
741.374
1092.93
940.453
602.722
452.363
399.738
387.043
517.331
798.948
998.457
946.842
874.496
536.198
342.725
312.883
287.42
241.208
155.749
104.509
117.686
113.394
69.5372
70.6932
107.956
1239.27
1181.27
1072.66
850.145
390.218
371.461
385.203
524.493
1057.13
974.972
430.908
127.269
145.869
218.892
119.194
49.0425
32.6484
48.3726
91.0801
41.6351
18.6889
18.7487
20.8596
1258.28
1239.09
1154.88
1100.77
1016.59
743.791
808.422
1106.51
1101.3
734.16
62.2597
89.0662
164.896
96.0678
16.4939
3.27049
2.68349
13.7651
8.66432
4.35688
10.81
17.4253
10.4395
998.872
1165.43
1263.45
1197.27
1165.72
1166.11
1175.56
1173.36
942.921
114.828
39.2352
100.077
82.7161
4.24857
3.06675
2.54266
2.20845
2.05682
2.34775
2.46132
14.5027
46.4836
49.419
819.868
868.126
1333.2
1260.88
1199.61
1293.49
1268.43
844.22
233.42
9.3026
7.63859
30.6228
4.78655
3.06474
2.82182
2.48801
2.19789
2.01997
1.98042
1.78252
1.53393
31.0537
57.3476
614.731
676.217
973.642
917.913
459.649
434.59
484.433
145.578
11.3302
6.5327
4.07498
3.07101
3.00722
2.88163
2.6307
2.34628
2.08338
1.86593
1.68827
1.45308
0.970752
0.646855
10.5799
189.633
208.96
714.024
963.202
955.523
301.951
24.4896
13.6789
9.26645
6.26407
4.41482
3.34134
3.02849
2.88311
2.54444
2.16298
1.89149
1.69155
1.50703
1.31203
1.05423
0.80759
0.690163
106.185
23.1238
8.36743
586.495
1008.37
840.154
228.248
11.8572
8.65684
7.61343
8.04428
7.66652
5.46575
2.67094
2.2087
1.86542
1.68525
1.52104
1.35475
1.21055
1.0896
0.982016
0.943992
77.9737
15.5941
4.19061
4.35943
513.769
878.453
528.233
32.4776
11.7107
27.5859
52.7223
51.3816
49.7496
35.9525
3.56816
1.29984
1.32036
1.25421
1.15342
1.08018
1.07226
1.05502
1.06934
28.3215
67.5333
3.60408
2.28836
0.0853446
568.986
542.643
61.5331
17.1515
47.5682
54.8659
54.0943
53.1312
50.7487
9.00478
1.00783
1.03269
1.00236
0.951893
0.937171
0.971566
1.05218
1.11951
28.6866
149.394
2.55839
1.76343
0.907246
22.6333
342.916
247.355
37.3193
15.8213
51.0612
50.8678
22.1592
1.87014
1.76315
1.05565
0.793152
0.758514
0.742802
0.769446
0.848627
0.974808
1.12216
30.0451
158.196
13.32
1.39294
0.882874
0.73153
61.5685
230.975
105.797
6.34551
2.87179
0.74481
0.511686
0.340875
0.308936
0.484612
0.537008
0.519571
0.621378
0.641137
0.681184
0.931415
1.09528
30.3502
167.328
51.4407
0.918868
0.562487
0.227248
-0.101269
46.2475
50.1669
4.46473
0.984749
0.774953
0.549987
0.402744
0.339626
0.334584
0.410564
0.371916
0.383427
0.484798
0.620727
0.905958
1.10635
21.201
175.704
69.1455
0.916961
0.779607
1.11606
1.01103
0.152839
-0.0285437
0.796849
0.835713
0.736786
0.57629
0.549025
0.419805
0.297539
0.208077
0.16823
0.207652
0.345222
0.575435
0.83521
1.00039
14.8996
66.0785
63.7601
1.33938
1.2762
0.913993
0.246933
0.0177638
0.200513
0.534645
0.634414
0.59548
0.563026
0.526377
0.367061
0.231817
0.139729
0.115091
0.179895
0.340575
0.578085
0.743112
0.829817
13.4326
12.7719
30.6406
1.69267
1.42979
0.92439
0.532857
0.335752
0.361672
0.446747
0.468549
0.429607
0.345834
0.349456
0.335629
0.243985
0.189474
0.0668056
0.125579
0.304112
0.480896
0.65429
0.8076
14.0289
12.1377
14.0064
1.82404
1.52796
1.08779
0.713205
0.472126
0.372306
0.332997
0.299019
0.252504
0.191582
0.126034
0.117072
0.125526
0.0751866
0.120862
0.222757
0.368442
0.531788
0.678078
0.784169
30.2698
12.6868
21.1858
1.79732
1.53892
1.12227
0.754856
0.467835
0.284249
0.173913
0.104664
0.0571801
0.0238647
0.00596144
0.00912973
0.0396227
0.101693
0.194291
0.308623
0.43698
0.563158
0.668424
0.7433
376.897
14.9412
41.7535
1.69307
1.4444
1.03509
0.657778
0.32663
0.0856204
-0.0662885
-0.148031
-0.179463
-0.174709
-0.141688
-0.0838822
-0.0035758
0.0957917
0.208378
0.326695
0.442967
0.54721
0.631384
0.69118
583.69
20.6536
43.3473
1.46772
1.23635
0.811529
0.406475
0.0271707
-0.259234
-0.433357
-0.503959
-0.493515
-0.428153
-0.329399
-0.211258
-0.0826475
0.0499771
0.180734
0.303898
0.414268
0.507122
0.579495
0.634259
608.683
33.8593
43.7128
1.11298
0.908501
0.446213
-0.00395359
-0.440317
-0.770347
-0.953479
-0.990925
-0.91202
-0.758886
-0.571834
-0.378014
-0.192965
-0.0239097
0.126851
0.258084
0.36855
0.457729
0.52627
0.577084
632.795
33.4383
36.2866
0.813221
0.526236
-0.0108842
-0.525733
-1.02253
-1.3967
-1.58777
-1.58349
-1.42176
-1.16364
-0.870844
-0.586263
-0.332505
-0.119144
0.055848
0.198681
0.313264
0.402805
0.470567
0.520356
653.757
13.0895
24.0147
0.794538
0.22098
-0.470757
-1.08004
-1.56154
-1.69858
-2.17944
-2.19924
-1.96636
-1.60092
-1.1993
-0.820722
-0.493191
-0.227802
-0.0238896
0.133292
0.254555
0.346753
0.415481
0.465645
675.41
10.3136
6.0694
0.871954
-0.0262908
-0.904213
-1.57988
-1.57694
-2.01921
-2.2116
-2.30461
-2.42008
-2.00083
-1.50249
-1.04371
-0.654043
-0.337548
-0.102888
0.0691954
0.197689
0.293156
0.363386
0.414387
585.89
44.6422
1.66018
0.796694
-0.371362
-1.33083
-1.94333
-2.05454
-2.61076
-2.79345
-2.59636
-2.34443
-2.28422
-1.71101
-1.20181
-0.775419
-0.430748
-0.170292
0.0138971
0.147723
0.245439
0.316491
0.367902
18.1296
98.3807
4.34353
0.0505359
-0.932783
-1.74138
-2.00949
-2.38753
-2.91589
-3.0673
-2.83183
-2.3619
-2.39734
-1.77795
-1.25799
-0.832481
-0.487777
-0.215888
-0.0259347
0.10896
0.206411
0.276609
0.327261
13.4404
99.6982
19.7674
-1.33893
-1.62718
-2.04454
-2.36547
-2.41347
-2.84959
-2.97427
-2.68853
-2.64042
-2.30909
-1.6919
-1.19623
-0.809774
-0.495695
-0.233047
-0.046086
0.0842094
0.17779
0.244823
0.293083
14.0212
101.98
43.0957
-2.15373
-2.00908
-2.07406
-2.41315
-2.30924
-2.38666
-2.44462
-2.21045
-2.39987
-2.01957
-1.47471
-1.0391
-0.717358
-0.456361
-0.220778
-0.0458237
0.0741269
0.159881
0.22129
0.265388
17.6634
105.161
52.6858
-1.39418
-1.89027
-1.76061
-1.93686
-2.18766
-2.08429
-1.85154
-1.96984
-1.97782
-1.58334
-1.16413
-0.827586
-0.577032
-0.379482
-0.183279
-0.0275663
0.0772735
0.151661
0.2052
0.243551
13.7289
100.476
15.7999
-1.40263
-1.45984
-1.27345
-1.30981
-1.44725
-1.5969
-1.6407
-1.57962
-1.37442
-1.10495
-0.826176
-0.600965
-0.41236
-0.272216
-0.122527
0.0026083
0.0903325
0.151038
0.19496
0.226395
1.1917
1.4493
-0.671739
-0.63238
-0.950112
-0.792082
-0.704266
-0.735597
-0.841333
-0.918682
-0.90935
-0.814133
-0.668413
-0.513194
-0.382358
-0.256841
-0.135344
-0.0456449
0.0408115
0.109416
0.155584
0.188753
0.212433
0.101848
-0.0698459
-0.284796
-0.0701478
-0.520909
-0.33292
-0.194872
-0.187622
-0.265188
-0.342613
-0.37686
-0.362103
-0.312076
-0.247268
-0.190583
-0.119514
0.00563005
0.034674
0.0827317
0.130923
0.162132
0.184269
0.199958
0.340147
4.07414
1.98142
0.0536633
0.056909
0.14777
0.220245
0.189697
0.113979
0.0449135
-0.00213843
-0.0261381
-0.0313837
-0.0282406
-0.0255299
0.00272239
0.132808
0.126142
0.123563
0.151068
0.167619
0.179172
0.187174
0.284285
18.5624
25.3241
0.471594
0.558252
0.595376
0.543625
0.435995
0.347792
0.295023
0.25855
0.225241
0.192659
0.157748
0.11998
0.111545
0.368315
0.214114
0.157669
0.165386
0.168699
0.171027
0.172399
-0.0805624
13.5469
28.7981
12.992
0.928935
0.932982
0.781272
0.594316
0.486903
0.458795
0.447763
0.422118
0.383138
0.327179
0.266724
0.935442
0.834943
0.212877
0.175454
0.168176
0.161953
0.157676
0.154243
-0.0555314
-0.0683208
18.8149
32.4713
13.5777
1.11828
0.916438
0.680639
0.558903
0.567436
0.593706
0.580794
0.542392
1.74386
8.09761
6.21772
0.504596
0.168435
0.166885
0.154987
0.145337
0.137949
0.131959
-0.0443959
-0.0458456
-0.0253773
23.7133
29.9205
20.2401
0.961419
0.631173
0.520167
0.616525
0.690986
0.703931
6.64503
14.3529
14.1378
7.38948
0.143758
0.131908
0.135529
0.127909
0.119841
0.112246
0.105692
-0.034581
-0.0290226
-0.00167897
0.0492686
30.1195
30.2403
25.8453
1.49755
0.341666
0.560558
0.691761
4.30905
14.457
14.3194
9.14744
0.325035
0.0565922
0.0872178
0.0954962
0.0938441
0.0884548
0.0821797
0.0763588
-0.039184
-0.032341
-0.0154476
0.0396418
3.2322
9.44253
25.2678
9.19526
0.0977069
0.369316
1.68675
12.3071
12.0998
2.79108
-0.00705927
0.00109126
0.0311622
0.0508166
0.0584859
0.057747
0.0540329
0.049389
0.0448479
-0.0474041
-0.0472804
-0.0488519
-0.066174
-0.0861697
-0.344775
-0.328571
8.13534
0.0901076
-0.00367205
1.22934
0.156837
0.036079
-0.000919831
-0.0184446
-0.00371551
0.00937593
0.0162878
0.0184488
0.0189828
0.0171014
0.0141568
0.0110271
718.967
721.091
720.888
711.408
739.2
736.725
715.522
635.407
238.963
354.86
491.861
564.223
9.9561
19.5694
10.5089
10.4561
9.94797
10.0552
10.1567
10.1503
12.3502
14.4978
11.4639
9.86175
58.6648
58.8637
41.9848
22.1828
57.876
54.9375
33.3398
42.5073
0.765904
0.879795
0.937939
0.912839
0.95097
0.973615
1.01241
1.04512
1.09181
1.09711
1.12672
1.15228
1.17191
1.16368
1.18015
1.20033
1.16489
1.17262
1.19697
1.2161
1.12653
1.1442
1.17534
1.19622
1.07752
1.0908
1.12748
1.15049
0.983279
1.02957
1.06631
1.08891
0.924234
0.97041
1.00165
1.0213
0.880639
0.914683
0.938669
0.95474
0.833642
0.858127
0.87637
0.88943
0.779971
0.798983
0.813799
0.824874
0.722077
0.738374
0.751371
0.761319
0.662671
0.677728
0.689885
0.699359
0.604042
0.618492
0.6303
0.639669
0.546985
0.561373
0.573235
0.58278
0.492556
0.507176
0.519306
0.529172
0.441739
0.456644
0.469064
0.479237
0.395433
0.410449
0.422995
0.433318
0.354341
0.369111
0.381476
0.39167
0.31884
0.332891
0.344669
0.354383
0.288871
0.30168
0.312429
0.321288
0.263889
0.274969
0.284274
0.291929
0.242922
0.251896
0.259424
0.265603
0.224705
0.231347
0.236906
0.241445
0.207869
0.212115
0.215657
0.218523
0.190979
0.192981
0.194647
0.195951
0.172736
0.172846
0.172927
0.172912
0.152071
0.150814
0.149739
0.148758
0.128398
0.126369
0.12462
0.123069
0.101748
0.0994887
0.097511
0.0957589
0.0727377
0.0706415
0.0687746
0.0671115
0.0419228
0.0402062
0.0386546
0.037264
0.00892992
0.00768721
0.00656111
0.00555754
662.66
432.582
265.277
179.715
213.553
392.729
351.205
124.32
97.0374
99.8951
335.052
484.722
474.917
531.047
337.92
65.9069
68.8124
74.0849
130.473
445.705
141.84
20.4018
19.133
18.5218
103.429
313.907
159.905
100.431
102.618
155.786
599.875
619.674
254.859
49.6073
55.929
63.1425
67.9374
71.7739
421.175
90.9095
16.6665
17.1947
15.9513
17.572
73.1243
170.644
140.927
97.4884
101.178
134.006
662.928
173.907
54.7702
52.2469
52.1461
109.471
178.195
10.4127
12.4388
25.7937
19.475
15.2165
26.8818
38.5586
131.375
171.606
179.228
94.6826
94.2246
251.986
243.002
64.66
47.3274
40.8431
142.156
213.16
9.62214
8.24368
13.1398
13.2038
15.4505
55.204
51.55
14.6048
137.172
177.614
182.268
108.65
30.2901
126.661
108.454
49.9339
32.9141
47.4368
226.366
14.8735
17.6284
12.8863
14.3511
35.4799
58.4539
24.3203
12.5028
23.4248
182.901
188.09
90.9385
19.5047
22.1651
91.6557
56.3368
29.9874
27.1084
243.46
49.0103
50.8704
51.8071
46.2146
63.8065
60.2584
8.15899
11.1237
50.0511
189.973
135.673
22.5564
17.2832
20.4669
30.3305
32.0175
29.5137
28.3487
125.603
47.1041
52.4308
53.4917
53.1417
46.7705
18.1888
2.98874
10.9478
102.361
157.832
68.5949
16.883
18.4409
21.7966
25.8474
26.9843
28.9018
29.1874
56.2368
0.909282
4.87804
14.8434
14.7231
1.63118
1.65703
1.91541
13.9941
61.053
60.2316
20.1897
19.4167
21.5441
24.6611
27.013
27.557
28.6023
30.3997
202.292
1.09381
1.2545
1.40103
1.4534
1.50486
1.51939
1.5418
1.34373
2.93817
62.4805
23.2817
29.7
26.7327
28.994
31.939
33.7645
30.5777
47.418
256.302
1.20026
1.28879
1.36587
1.40576
1.42018
1.40749
1.37953
1.28167
1.24495
13.7636
72.9831
76.4595
78.1199
75.055
74.3929
71.2379
50.5693
116.113
277.296
1.23451
1.28126
1.31693
1.33492
1.33522
1.31944
1.28159
1.19773
1.07252
0.830716
0.588069
8.5947
20.4913
34.5525
64.324
55.2736
27.713
81.6184
289.745
1.23968
1.25673
1.26772
1.27228
1.26647
1.25411
1.22361
1.15899
1.02759
0.775233
0.50849
0.340838
0.343326
1.06792
6.58531
12.9981
21.4748
154.9
160.277
1.21704
1.22259
1.21907
1.21295
1.20366
1.19184
1.17169
1.13542
1.05566
0.914216
0.635717
0.43213
0.427961
0.689385
2.57103
24.4257
154.411
179.868
37.0283
1.17103
1.16994
1.16129
1.15026
1.13754
1.1235
1.10843
1.0913
1.04454
1.05164
1.31517
0.870835
0.764578
26.161
129.842
157.112
158.475
74.752
0.958105
1.10798
1.10613
1.09667
1.08279
1.06685
1.04951
1.03292
1.01726
0.984616
0.882881
0.872558
4.90845
67.145
94.0999
94.9714
55.1854
27.1917
0.439051
0.580034
1.03888
1.03892
1.02915
1.01397
0.99519
0.973354
0.949965
0.92467
0.878336
0.755115
1.52358
9.91698
10.3792
3.94694
1.2031
0.311446
0.349936
0.397475
0.654345
0.970023
0.970558
0.961268
0.945711
0.92512
0.899791
0.870758
0.836344
0.765694
0.615116
0.481844
1.39
0.421634
0.0954594
0.175763
0.224835
0.326963
0.469664
0.611604
0.902446
0.903157
0.894652
0.879248
0.857671
0.831627
0.810698
0.766379
0.684141
0.537429
0.335309
0.140193
0.114318
0.169254
0.221522
0.264486
0.412306
0.329598
0.5632
0.836371
0.837519
0.829771
0.814743
0.79275
0.779125
0.745783
0.681641
0.597988
0.498553
0.366957
0.263339
0.226469
0.234361
0.250821
0.260973
0.427586
0.304263
0.534989
0.772076
0.773827
0.766653
0.75175
0.730074
0.718566
0.679853
0.612601
0.516146
0.436139
0.363677
0.313567
0.288252
0.28137
0.282296
0.281625
0.427919
0.306525
0.394048
0.710005
0.712442
0.705828
0.691512
0.669863
0.643515
0.615502
0.535509
0.453683
0.39081
0.357359
0.331849
0.317376
0.308599
0.305636
0.420674
0.295606
0.302066
0.313541
0.65059
0.653994
0.648496
0.63536
0.615427
0.587617
0.553036
0.531381
0.439012
0.381512
0.355131
0.341391
0.33219
0.323534
0.355312
0.434233
0.32556
0.309508
0.313653
0.594282
0.599001
0.595183
0.584068
0.566827
0.543686
0.531016
0.53749
0.486691
0.384824
0.362164
0.350424
0.341426
0.33305
0.363678
0.343725
0.337853
0.321774
0.312075
0.541418
0.547653
0.545836
0.537264
0.523191
0.504512
0.486094
0.513823
0.497896
0.471164
0.425766
0.384751
0.385475
0.381748
0.353376
0.340399
0.335924
0.317682
0.307417
0.492193
0.499913
0.500076
0.494066
0.483102
0.468146
0.449912
0.43059
0.468583
0.470667
0.454429
0.436511
0.418765
0.400413
0.386776
0.367095
0.317116
0.297927
0.299565
0.446739
0.455686
0.457552
0.453785
0.445579
0.433861
0.419383
0.403164
0.386589
0.383954
0.426558
0.422998
0.378379
0.337728
0.319971
0.294741
0.290452
0.288402
0.288842
0.405136
0.414849
0.417988
0.415996
0.410007
0.400927
0.389521
0.376657
0.363328
0.350143
0.337092
0.326312
0.311995
0.300727
0.291287
0.284245
0.279158
0.276516
0.275951
0.367359
0.377243
0.381133
0.380407
0.376099
0.369045
0.359943
0.349512
0.338481
0.32733
0.316246
0.305392
0.294932
0.285253
0.27686
0.270244
0.26573
0.262861
0.26144
0.333204
0.342617
0.346712
0.346742
0.343618
0.338078
0.330726
0.322141
0.312875
0.303342
0.293789
0.28438
0.275419
0.267083
0.259869
0.254029
0.250156
0.247291
0.2455
0.302263
0.310602
0.314397
0.314729
0.312355
0.307899
0.301867
0.294722
0.286893
0.27874
0.270521
0.262438
0.254781
0.247597
0.241428
0.236357
0.232722
0.229887
0.228425
0.273948
0.28073
0.28382
0.284087
0.282123
0.278422
0.27339
0.267396
0.260777
0.253835
0.246814
0.239925
0.23345
0.227173
0.221953
0.217603
0.214071
0.211847
0.210525
0.247562
0.252477
0.254595
0.254545
0.252748
0.249565
0.245303
0.240245
0.234653
0.228773
0.222814
0.216964
0.211442
0.206205
0.201716
0.19804
0.194898
0.193096
0.191908
0.222364
0.225307
0.226335
0.225836
0.224057
0.221236
0.217583
0.2133
0.208586
0.203631
0.198606
0.193673
0.189003
0.184628
0.180874
0.177661
0.175152
0.173514
0.172616
0.197651
0.198719
0.19868
0.197704
0.195878
0.193328
0.190173
0.186548
0.182591
0.178446
0.174247
0.170129
0.166225
0.162596
0.159461
0.156764
0.154735
0.153293
0.152631
0.172793
0.172271
0.171313
0.169919
0.16805
0.165729
0.163007
0.159956
0.156666
0.153238
0.149775
0.146384
0.143169
0.140195
0.137615
0.1354
0.133765
0.132532
0.132038
0.14729
0.145586
0.143956
0.142273
0.140412
0.138326
0.136007
0.133479
0.130792
0.128013
0.125216
0.122481
0.119889
0.1175
0.115421
0.113642
0.112345
0.111332
0.11096
0.120791
0.118373
0.116352
0.114563
0.112806
0.110994
0.10908
0.107053
0.104932
0.102754
0.10057
0.0984391
0.0964183
0.0945612
0.092941
0.0915565
0.0905661
0.0897527
0.0895099
0.093186
0.0905124
0.088403
0.086705
0.0851533
0.0836723
0.0821834
0.0806528
0.079076
0.0774688
0.0758614
0.0742926
0.0728035
0.0714363
0.0702407
0.0692181
0.0685137
0.0678723
0.06778
0.0646585
0.0621244
0.0602082
0.0587278
0.0575078
0.0564201
0.0553833
0.0543523
0.0533072
0.0522475
0.0511868
0.0501478
0.0491573
0.0482459
0.0474463
0.0467611
0.0463208
0.0458458
0.0458928
0.0352033
0.0331016
0.031589
0.0305061
0.0297189
0.0290915
0.0285482
0.0280378
0.0275304
0.0270131
0.0264865
0.0259597
0.0254477
0.0249698
0.0245467
0.0241839
0.0239828
0.0236982
0.0238658
0.00408332
0.00265591
0.00175112
0.00124024
0.00101717
0.000954318
0.000987138
0.00106064
0.00113753
0.00119546
0.00122397
0.00122155
0.00119292
0.00114759
0.00109766
0.00105165
0.00107069
0.000982122
0.00137769
)
;

boundaryField
{
    leftWall
    {
        type            fixedFluxPressure;
        gradient        uniform 0;
        value           nonuniform List<scalar> 
50
(
1048.17
1049.1
1051.52
1055.5
1061.29
1068.82
1078.25
1076.34
868.455
698.483
1092.93
1239.27
1258.28
998.872
819.868
614.731
189.633
106.185
77.9737
28.3215
28.6866
30.0451
30.3502
21.201
14.8996
13.4326
14.0289
30.2698
376.897
583.69
608.683
632.795
653.757
675.41
585.89
18.1296
13.4404
14.0212
17.6634
13.7289
1.1917
0.101848
0.340147
0.284285
-0.0805624
-0.0555314
-0.0443959
-0.034581
-0.039184
-0.0474041
)
;
    }
    rightWall
    {
        type            fixedFluxPressure;
        gradient        uniform 0;
        value           nonuniform List<scalar> 
50
(
301.449
284.89
234.187
231.358
246.745
238.086
226.131
213.19
130.473
71.7739
178.195
213.16
226.366
243.46
125.603
56.2368
202.292
256.302
277.296
289.745
160.277
37.0283
0.958105
0.580034
0.654345
0.611604
0.5632
0.534989
0.394048
0.313541
0.313653
0.312075
0.307417
0.299565
0.288842
0.275951
0.26144
0.2455
0.228425
0.210525
0.191908
0.172616
0.152631
0.132038
0.11096
0.0895099
0.06778
0.0458928
0.0238658
0.00137769
)
;
    }
    lowerWall
    {
        type            fixedFluxPressure;
        gradient        uniform 0;
        value           nonuniform List<scalar> 
62
(
1048.17
1041.03
1027.08
1013.38
999.239
986.44
977.61
967.689
954.036
936.305
915.933
894.424
872.852
854.855
838.207
813.862
798.355
786.693
774.777
764.484
757.465
753.031
751.266
751.266
750.844
749.831
748.172
745.887
743.109
739.886
725.532
718.967
721.091
720.888
711.408
634.935
633.988
634.399
636.547
638.755
642.458
650.067
661.327
634.935
622.036
609.912
588.756
604.715
640.642
643.519
598.117
537.906
502.282
490.087
463.925
422.232
419.542
444.289
424.31
349.511
296.019
301.449
)
;
    }
    atmosphere
    {
        type            totalPressure;
        rho             rho;
        psi             none;
        gamma           1;
        p0              uniform 0;
        value           nonuniform List<scalar> 
46
(
-0.0524395
-0.0560376
-0.0618118
-0.0798536
-0.108996
-0.569339
-0.303724
0
0
0
0
-0.0944401
-0.0151474
-0.00812797
-4.3787e-05
0
0
0
0
-0.000406473
-0.00219889
-0.00464832
-0.00716319
-0.00881909
-0.00979485
-0.0106706
-0.0114364
-0.0125379
-0.0135152
-0.0140142
-0.0141456
-0.0140272
-0.013745
-0.013372
-0.0129641
-0.0125611
-0.0121892
-0.0118632
-0.0115892
-0.011367
-0.0111904
-0.011051
-0.0109394
-0.0108199
-0.0108345
-0.010188
)
;
    }
    defaultFaces
    {
        type            empty;
    }
}


// ************************************************************************* //
