/*--------------------------------*- C++ -*----------------------------------*\
| =========                 |                                                 |
| \\      /  F ield         | OpenFOAM: The Open Source CFD Toolbox           |
|  \\    /   O peration     | Version:  2.3.0                                 |
|   \\  /    A nd           | Web:      www.OpenFOAM.org                      |
|    \\/     M anipulation  |                                                 |
\*---------------------------------------------------------------------------*/
FoamFile
{
    version     2.0;
    format      ascii;
    class       volVectorField;
    location    "1.25";
    object      U;
}
// * * * * * * * * * * * * * * * * * * * * * * * * * * * * * * * * * * * * * //

dimensions      [0 1 -1 0 0 0 0];

internalField   nonuniform List<vector> 
2268
(
(0.0215757 -0.0159634 0)
(0.0617434 -0.0165876 0)
(0.0998513 -0.00280569 0)
(0.0816298 0.0063249 0)
(0.0275427 0.00907168 0)
(0.0276629 -0.00134029 0)
(0.0660874 -0.0104816 0)
(0.121363 -0.0119364 0)
(0.169979 -0.0110233 0)
(0.206893 -0.009187 0)
(0.235298 -0.00816984 0)
(0.260291 -0.0086094 0)
(0.280146 -0.0032189 0)
(0.25966 0.00755104 0)
(0.14782 0.0263188 0)
(0.00732974 0.0229691 0)
(-0.000216788 -0.0023016 0)
(0.0180454 -0.00486084 0)
(0.0277071 0.000690118 0)
(0.016405 0.000592937 0)
(0.00620786 -0.00259366 0)
(0.00474887 -0.00275431 0)
(0.00513164 -0.000547495 0)
(0.0102823 -0.0264369 0)
(0.0187995 -0.0264392 0)
(0.0581799 -0.00215784 0)
(0.0462876 0.0229071 0)
(-0.00169616 0.0183965 0)
(0.0117013 -0.0112879 0)
(0.0467778 -0.0350551 0)
(0.109062 -0.0375485 0)
(0.162757 -0.0300274 0)
(0.196705 -0.0214863 0)
(0.217673 -0.0195115 0)
(0.231369 -0.017001 0)
(0.224436 0.00617901 0)
(0.22837 0.0457353 0)
(0.130853 0.0792314 0)
(0.0421162 0.0497381 0)
(0.0725748 -0.00568167 0)
(0.0751521 -0.0122769 0)
(0.0765225 0.00129364 0)
(0.0666461 0.0101167 0)
(0.0455339 0.0080307 0)
(0.0212595 0.00356683 0)
(0.0127647 0.00520404 0)
(-0.00156481 -0.0271577 0)
(-0.00691587 -0.0354978 0)
(0.00337942 -0.00813232 0)
(0.00347734 0.0323737 0)
(-0.013987 0.0213525 0)
(-0.00174861 -0.0228984 0)
(0.0306799 -0.060756 0)
(0.0919109 -0.067666 0)
(0.15441 -0.053019 0)
(0.19931 -0.0340534 0)
(0.221052 -0.0237498 0)
(0.22052 -0.0103727 0)
(0.1836 0.0148899 0)
(0.154148 0.0683968 0)
(0.0990632 0.106635 0)
(0.114735 0.0530482 0)
(0.135759 -0.00987872 0)
(0.1148 -0.0121208 0)
(0.0972561 0.00612986 0)
(0.0841321 0.0179089 0)
(0.0632383 0.0191809 0)
(0.0305946 0.0130564 0)
(0.0157389 0.014678 0)
(0.000949884 -0.0239786 0)
(-0.00432883 -0.031193 0)
(-0.0130784 -0.00618376 0)
(-0.00712451 0.0315697 0)
(-0.00502232 0.0201447 0)
(0.00711592 -0.032605 0)
(0.0342002 -0.0815943 0)
(0.0841467 -0.0985734 0)
(0.146469 -0.0820538 0)
(0.200637 -0.0526222 0)
(0.229766 -0.0284845 0)
(0.230307 -0.0014291 0)
(0.200776 0.0351402 0)
(0.158155 0.0816099 0)
(0.144008 0.102202 0)
(0.186117 0.0457293 0)
(0.184114 -0.00462959 0)
(0.142561 -0.000538488 0)
(0.109673 0.0176038 0)
(0.0887279 0.0284581 0)
(0.0676338 0.0320587 0)
(0.0362361 0.0253342 0)
(0.0145563 0.0260295 0)
(0.00944581 -0.0255173 0)
(0.0228168 -0.0287487 0)
(0.00895924 -0.00591036 0)
(0.0134871 0.026693 0)
(0.0237701 0.0160156 0)
(0.038339 -0.0393275 0)
(0.0581654 -0.095923 0)
(0.0959508 -0.123564 0)
(0.148438 -0.110318 0)
(0.201628 -0.0749161 0)
(0.238209 -0.037009 0)
(0.248214 0.00259153 0)
(0.238715 0.0480001 0)
(0.219172 0.0889874 0)
(0.225319 0.0932399 0)
(0.243333 0.0443674 0)
(0.209813 0.00952621 0)
(0.149876 0.0182355 0)
(0.107492 0.032602 0)
(0.0841311 0.03992 0)
(0.0657095 0.0439383 0)
(0.0400267 0.037861 0)
(0.0127165 0.037272 0)
(0.0221512 -0.0404113 0)
(0.0579159 -0.0326419 0)
(0.0566492 -0.00315808 0)
(0.0551467 0.0228777 0)
(0.067274 0.0108433 0)
(0.0836908 -0.0444826 0)
(0.0977621 -0.108368 0)
(0.122978 -0.144063 0)
(0.164227 -0.133681 0)
(0.209557 -0.0961237 0)
(0.245722 -0.0500987 0)
(0.266637 -0.00181307 0)
(0.274429 0.0487286 0)
(0.276772 0.0886293 0)
(0.284248 0.0919802 0)
(0.270663 0.0572348 0)
(0.199646 0.0383056 0)
(0.121411 0.046622 0)
(0.0801146 0.0485534 0)
(0.0657967 0.0469888 0)
(0.0569639 0.0511257 0)
(0.0379459 0.0491957 0)
(0.00945629 0.0509334 0)
(0.0174324 -0.0643506 0)
(0.0727461 -0.0463829 0)
(0.110513 -0.00365794 0)
(0.113679 0.0177173 0)
(0.12205 0.00198719 0)
(0.138427 -0.0496037 0)
(0.149141 -0.116365 0)
(0.159171 -0.160373 0)
(0.189438 -0.153964 0)
(0.227929 -0.113434 0)
(0.25969 -0.0617838 0)
(0.283354 -0.00909133 0)
(0.302616 0.0447337 0)
(0.314671 0.0876505 0)
(0.312631 0.100453 0)
(0.260784 0.0843179 0)
(0.136106 0.0786712 0)
(0.0528524 0.0775149 0)
(0.0291417 0.0605787 0)
(0.0401833 0.0543473 0)
(0.0523661 0.0580988 0)
(0.0414661 0.0578712 0)
(0.0122334 0.0563656 0)
(0.0105587 -0.0715371 0)
(0.0453492 -0.0756726 0)
(0.108251 -0.0203027 0)
(0.15677 0.017331 0)
(0.177208 0.00251633 0)
(0.189043 -0.0436884 0)
(0.193886 -0.110115 0)
(0.197271 -0.164533 0)
(0.219488 -0.168972 0)
(0.255128 -0.1281 0)
(0.292138 -0.0726785 0)
(0.329491 -0.0207452 0)
(0.352569 0.0339671 0)
(0.356123 0.0849878 0)
(0.328583 0.11875 0)
(0.203896 0.140563 0)
(0.0232532 0.146467 0)
(-0.0431213 0.109243 0)
(-0.0645234 0.0636484 0)
(-0.0410667 0.039188 0)
(0.0279845 0.050498 0)
(0.0710597 0.0757059 0)
(0.0376404 0.0925365 0)
(0.0408375 -0.0330943 0)
(0.177062 -0.0229009 0)
(0.115606 0.0183813 0)
(-0.053533 0.0202033 0)
(0.0513408 -0.0348545 0)
(0.230095 -0.0648807 0)
(0.444468 -0.0675478 0)
(0.659097 -0.057453 0)
(0.849056 -0.0311991 0)
(0.919679 0.0274252 0)
(0.730953 0.0827144 0)
(0.356396 0.066839 0)
(0.127592 -0.00549893 0)
(0.11591 -0.045876 0)
(0.219346 -0.0410334 0)
(0.261589 0.00944422 0)
(0.106215 0.0288191 0)
(-0.0136226 -0.00280321 0)
(-0.00354645 -0.00764302 0)
(0.0094252 -0.0685479 0)
(0.134833 -0.0148756 0)
(0.0687542 0.0616902 0)
(0.0745039 0.0124994 0)
(0.21811 -0.0854448 0)
(0.319619 -0.138121 0)
(0.430732 -0.147075 0)
(0.590049 -0.122419 0)
(0.732218 -0.0813191 0)
(0.90966 0.00626525 0)
(1.0198 0.127193 0)
(0.864029 0.184738 0)
(0.601775 0.125293 0)
(0.402879 0.00774436 0)
(0.322043 -0.0552889 0)
(0.283134 0.0253822 0)
(0.151028 0.0874137 0)
(0.0685952 0.0575945 0)
(0.0655109 -0.0112269 0)
(0.002623 -0.0923153 0)
(0.0694871 -0.0310953 0)
(0.0535153 0.0574383 0)
(0.18272 -0.0262974 0)
(0.298128 -0.116393 0)
(0.271549 -0.151743 0)
(0.23414 -0.17914 0)
(0.344637 -0.172776 0)
(0.503442 -0.143458 0)
(0.661148 -0.0661959 0)
(0.865963 0.0892574 0)
(0.959495 0.222366 0)
(0.854593 0.218735 0)
(0.648783 0.0994812 0)
(0.46155 -0.00270464 0)
(0.264363 0.06666 0)
(0.201244 0.181222 0)
(0.0412965 0.0652658 0)
(0.170867 0.0428327 0)
(0.00324039 -0.0979777 0)
(0.0252426 -0.034017 0)
(0.10385 0.00772192 0)
(0.238506 -0.0796446 0)
(0.306771 -0.109936 0)
(0.162735 -0.10385 0)
(-0.0166749 -0.172749 0)
(0.0434832 -0.219864 0)
(0.207978 -0.21186 0)
(0.398824 -0.14296 0)
(0.619981 0.013493 0)
(0.820812 0.192071 0)
(0.866179 0.256505 0)
(0.739739 0.179167 0)
(0.53204 0.078881 0)
(0.265792 0.143865 0)
(0.0431844 0.266807 0)
(-0.0954167 0.0573884 0)
(0.0135704 0.0878927 0)
(0.018911 -0.1128 0)
(0.0390049 -0.067633 0)
(0.135998 -0.0565768 0)
(0.196814 -0.112327 0)
(0.275725 -0.0752321 0)
(0.0736881 -0.0211261 0)
(-0.224826 -0.141114 0)
(-0.260382 -0.252886 0)
(-0.117539 -0.28621 0)
(0.113628 -0.240421 0)
(0.373674 -0.085631 0)
(0.613137 0.12337 0)
(0.744239 0.252043 0)
(0.703835 0.233066 0)
(0.538734 0.159187 0)
(0.283671 0.263412 0)
(-0.189977 0.31402 0)
(-0.234979 0.0338781 0)
(-0.160691 0.00690747 0)
(0.00247438 -0.133748 0)
(-0.0119306 -0.0808258 0)
(0.0467395 -0.0705611 0)
(0.0637086 -0.129136 0)
(0.232301 -0.0369502 0)
(0.086485 0.0679658 0)
(-0.301881 -0.0786984 0)
(-0.439569 -0.278822 0)
(-0.366004 -0.37333 0)
(-0.141106 -0.355967 0)
(0.145887 -0.199307 0)
(0.409987 0.0413444 0)
(0.576788 0.220755 0)
(0.601439 0.25676 0)
(0.495487 0.223507 0)
(0.28882 0.424713 0)
(-0.249915 0.43794 0)
(-0.319924 0.0212786 0)
(-0.170374 -0.100328 0)
(-0.0715675 -0.106031 0)
(-0.129656 -0.0551872 0)
(-0.11979 -0.08194 0)
(-0.0921054 -0.172023 0)
(0.100748 -0.071927 0)
(0.2736 0.176177 0)
(-0.0882364 0.0671701 0)
(-0.302988 -0.236447 0)
(-0.399805 -0.43337 0)
(-0.269753 -0.464475 0)
(-0.0398169 -0.329842 0)
(0.23288 -0.0341086 0)
(0.405751 0.183867 0)
(0.477062 0.255146 0)
(0.4005 0.27258 0)
(0.198801 0.580298 0)
(-0.219679 0.532971 0)
(-0.351371 0.014278 0)
(-0.0411437 -0.228626 0)
(-0.130259 -0.0419393 0)
(-0.199869 -0.0409729 0)
(-0.226626 -0.137147 0)
(-0.237503 -0.252701 0)
(-0.123458 -0.207116 0)
(0.330148 0.147799 0)
(0.365411 0.206972 0)
(0.249973 -0.0618655 0)
(-0.0953536 -0.377785 0)
(-0.208397 -0.521699 0)
(-0.149154 -0.419173 0)
(0.0849746 -0.137706 0)
(0.249372 0.115915 0)
(0.336723 0.236755 0)
(0.198426 0.355753 0)
(0.0217948 0.718701 0)
(-0.24467 0.734154 0)
(-0.31033 0.00575004 0)
(0.0887411 -0.321578 0)
(0.0764235 -0.0686114 0)
(0.179104 -0.0688587 0)
(0.155326 -0.0870873 0)
(0.151918 -0.0588194 0)
(0.183341 -0.0184978 0)
(0.201618 -0.0342673 0)
(0.210987 -0.109661 0)
(0.234922 -0.177369 0)
(0.266327 -0.192722 0)
(0.30873 -0.162048 0)
(0.365693 -0.110087 0)
(0.40217 -0.0490197 0)
(0.409257 0.0273347 0)
(0.339641 0.105805 0)
(0.214146 0.19561 0)
(0.0137862 0.227354 0)
(-0.115567 0.164106 0)
(-0.175284 0.0849438 0)
(-0.207936 0.0219475 0)
(-0.173279 -0.0181577 0)
(-0.083459 -0.0206619 0)
(0.0102566 0.00147189 0)
(0.0989346 0.0632644 0)
(0.124987 -0.402456 0)
(0.462089 -0.256342 0)
(0.749053 0.156782 0)
(0.506938 0.0568514 0)
(0.303926 -0.0591567 0)
(0.225085 -0.106134 0)
(0.221497 -0.181341 0)
(0.268112 -0.248875 0)
(0.320513 -0.261175 0)
(0.376153 -0.246681 0)
(0.415576 -0.182683 0)
(0.37124 -0.0989454 0)
(0.251414 0.0801378 0)
(0.105202 0.260002 0)
(-0.0518267 0.379432 0)
(-0.170247 0.3962 0)
(-0.235655 0.335667 0)
(-0.351419 0.216163 0)
(-0.381776 0.0899699 0)
(-0.300824 -0.033337 0)
(-0.145258 -0.101602 0)
(-0.0179087 -0.0553158 0)
(-0.0506416 -0.0376035 0)
(0.0466669 -0.656792 0)
(0.147948 -0.681141 0)
(0.480885 -0.281864 0)
(0.893746 0.216658 0)
(0.92976 0.321946 0)
(0.747976 0.142238 0)
(0.494152 -0.10837 0)
(0.371269 -0.259188 0)
(0.347739 -0.303346 0)
(0.306191 -0.267602 0)
(0.162059 -0.086637 0)
(-0.105085 0.188786 0)
(-0.255775 0.362183 0)
(-0.40509 0.493724 0)
(-0.474761 0.525013 0)
(-0.594059 0.442744 0)
(-0.766471 0.397464 0)
(-0.89592 0.334745 0)
(-0.781429 -0.012187 0)
(-0.64504 -0.363171 0)
(-0.456991 -0.377804 0)
(-0.143547 -0.161416 0)
(0.110211 0.0433016 0)
(0.00875267 -0.668146 0)
(-0.0540464 -0.678723 0)
(0.0570223 -0.517711 0)
(0.267079 -0.222932 0)
(0.561086 0.0977382 0)
(0.724464 0.241664 0)
(0.686352 0.152116 0)
(0.462863 -0.0770501 0)
(0.293739 -0.16103 0)
(-0.0187244 0.0104937 0)
(-0.37835 0.293238 0)
(-0.607139 0.410122 0)
(-0.737613 0.43575 0)
(-0.756136 0.433476 0)
(-0.804845 0.469992 0)
(-0.968754 0.567997 0)
(-1.06734 0.515505 0)
(-0.9666 0.136372 0)
(-0.812264 -0.28083 0)
(-0.78979 -0.508718 0)
(-0.922031 -0.517903 0)
(-0.754486 -0.50229 0)
(-0.351583 -0.152771 0)
(-0.000174938 -0.576077 0)
(-0.17314 -0.653418 0)
(-0.181169 -0.596505 0)
(-0.0978392 -0.352957 0)
(0.0650488 -0.0864546 0)
(0.215139 0.106725 0)
(0.299377 0.147163 0)
(0.249642 0.0757809 0)
(0.09639 0.0662354 0)
(-0.306363 0.338266 0)
(-0.602017 0.595865 0)
(-0.699197 0.464398 0)
(-0.688515 0.435272 0)
(-0.658888 0.502695 0)
(-0.61823 0.672714 0)
(-0.593317 0.759209 0)
(-0.417199 0.561177 0)
(-0.49157 0.25746 0)
(-0.298693 -0.112357 0)
(-0.840128 -0.0749447 0)
(-1.02274 -0.462502 0)
(-1.03232 -0.650858 0)
(-0.942283 -0.513596 0)
(0.0273217 -0.483749 0)
(-0.168439 -0.532814 0)
(-0.327036 -0.576112 0)
(-0.327334 -0.415342 0)
(-0.233523 -0.215828 0)
(-0.1249 -0.0666561 0)
(-0.051015 0.0327037 0)
(-0.075218 0.126355 0)
(-0.261278 0.346024 0)
(-0.581839 0.622818 0)
(-0.745766 0.633934 0)
(-0.681788 0.386248 0)
(-0.521374 0.372372 0)
(-0.249338 0.453082 0)
(-0.335669 0.546597 0)
(-0.170756 0.620866 0)
(0.0442382 0.536472 0)
(0.0249558 0.179203 0)
(0.0703701 0.0493307 0)
(-0.472683 0.231014 0)
(-0.755859 -0.475886 0)
(-0.823719 -0.62081 0)
(-0.829503 -0.509692 0)
(0.0194595 -0.445838 0)
(-0.0270334 -0.328237 0)
(-0.280049 -0.399086 0)
(-0.474145 -0.34232 0)
(-0.46539 -0.165491 0)
(-0.44371 -0.0049971 0)
(-0.420517 0.175353 0)
(-0.459183 0.382518 0)
(-0.54436 0.619931 0)
(-0.641907 0.836481 0)
(-0.650625 0.630366 0)
(-0.591268 0.254104 0)
(-0.249058 0.0442225 0)
(-0.093273 0.406169 0)
(0.0481013 0.359878 0)
(0.264645 0.275151 0)
(0.45355 0.201739 0)
(0.518827 0.136942 0)
(0.498574 0.248919 0)
(0.397478 0.556414 0)
(-0.0494196 0.154943 0)
(-0.447031 -0.488257 0)
(-0.598648 -0.541098 0)
(-0.00224148 -0.460913 0)
(0.132074 -0.270709 0)
(0.0996414 -0.171581 0)
(-0.193455 -0.249327 0)
(-0.283848 -0.240836 0)
(-0.440602 -0.100001 0)
(-0.476164 0.107396 0)
(-0.411501 0.352505 0)
(-0.246304 0.606259 0)
(-0.231807 0.945838 0)
(0.0336136 0.833576 0)
(0.14112 -0.0137024 0)
(-0.0404457 -0.121043 0)
(0.027834 0.0163994 0)
(0.22235 0.10073 0)
(0.386755 0.160498 0)
(0.498412 0.192257 0)
(0.546193 0.212074 0)
(0.546773 0.277701 0)
(0.662309 0.461452 0)
(0.706866 0.510694 0)
(0.515803 0.0262247 0)
(-0.0600374 -0.372769 0)
(-0.0140846 -0.579132 0)
(0.271001 -0.458179 0)
(0.356078 -0.217642 0)
(0.466502 -0.038556 0)
(0.485699 0.00508316 0)
(0.577108 -0.0103462 0)
(0.625998 -0.0545286 0)
(0.7911 -0.0432016 0)
(0.834144 0.205507 0)
(0.757175 0.530998 0)
(1.02364 0.48235 0)
(1.29158 0.249617 0)
(1.29025 0.230414 0)
(1.09853 0.22546 0)
(0.909416 0.125908 0)
(0.750561 0.0478009 0)
(0.655928 0.0695786 0)
(0.641487 0.158203 0)
(0.651021 0.240152 0)
(0.697614 0.306539 0)
(0.83081 0.3239 0)
(0.899401 0.251637 0)
(0.863934 0.149774 0)
(-0.0952796 -0.84931 0)
(0.56013 -0.613657 0)
(0.21481 -0.333282 0)
(0.340096 -0.362865 0)
(0.560884 -0.224059 0)
(0.723957 -0.0775234 0)
(0.757264 -0.0342548 0)
(0.680296 0.209946 0)
(0.747608 0.387434 0)
(0.860117 0.383113 0)
(1.11057 0.165145 0)
(1.34322 -0.00252306 0)
(1.54938 -0.0435164 0)
(1.75097 0.139347 0)
(1.78377 0.428697 0)
(1.54857 0.471059 0)
(1.19842 0.341362 0)
(0.956773 0.253985 0)
(0.85111 0.245449 0)
(0.81675 0.24285 0)
(0.829318 0.201882 0)
(0.857429 0.142632 0)
(0.854612 0.00843578 0)
(-0.127236 -1.06821 0)
(0.341455 -0.874817 0)
(0.507864 0.404554 0)
(-0.639142 -0.380753 0)
(0.370669 -0.415463 0)
(0.656118 -0.188443 0)
(0.717662 -0.0365171 0)
(0.60151 0.14644 0)
(0.558562 0.371114 0)
(0.607116 0.227698 0)
(0.685907 0.0136735 0)
(0.809852 -0.0907585 0)
(0.956549 -0.0979158 0)
(1.09203 -0.0593679 0)
(1.28818 0.227198 0)
(1.43148 0.569429 0)
(1.29483 0.573608 0)
(1.13894 0.463771 0)
(1.04326 0.363671 0)
(0.99048 0.29544 0)
(0.946328 0.240802 0)
(0.893423 0.18276 0)
(0.81808 0.103229 0)
(-0.113822 -1.15852 0)
(0.189616 -0.963512 0)
(-0.00565396 0.38713 0)
(0.533825 -0.0335204 0)
(0.155811 -1.60058 0)
(0.476783 -0.299698 0)
(0.642657 0.00236303 0)
(0.552963 0.115693 0)
(0.520123 0.346542 0)
(0.631537 0.193686 0)
(0.660307 -0.072898 0)
(0.675999 -0.233885 0)
(0.727913 -0.238918 0)
(0.797821 -0.140289 0)
(0.90634 0.0826695 0)
(1.00793 0.525022 0)
(1.03373 0.630387 0)
(1.07719 0.539584 0)
(1.11475 0.417812 0)
(1.11407 0.341962 0)
(1.06178 0.310195 0)
(0.958488 0.285728 0)
(0.817078 0.23785 0)
(-0.094483 -1.19783 0)
(0.106545 -0.82028 0)
(-0.16888 -0.102196 0)
(0.757873 -0.123294 0)
(0.272182 -0.711444 0)
(0.130868 -0.759203 0)
(0.48623 -0.0566072 0)
(0.576299 0.23672 0)
(0.573088 0.326836 0)
(0.588423 0.16474 0)
(0.468572 -0.0251832 0)
(0.455662 -0.123498 0)
(0.535516 -0.208461 0)
(0.524499 -0.229364 0)
(0.505078 0.154975 0)
(0.57913 0.46596 0)
(0.791446 0.502506 0)
(1.00187 0.41206 0)
(1.11615 0.343231 0)
(1.12704 0.347645 0)
(1.05409 0.394715 0)
(0.918473 0.423668 0)
(0.746963 0.402172 0)
(-0.0884339 -1.20295 0)
(0.0978908 -0.801266 0)
(-0.0016175 -0.788075 0)
(0.510722 -0.695097 0)
(0.821882 -0.349636 0)
(0.252812 -0.634829 0)
(0.280092 -0.374125 0)
(0.526155 0.0721559 0)
(0.644542 0.267243 0)
(0.404432 0.237678 0)
(0.38837 -0.0141845 0)
(0.305588 -0.306454 0)
(0.160771 -0.261303 0)
(0.164713 -0.120631 0)
(0.260969 0.00326271 0)
(0.452859 0.136871 0)
(0.698229 0.191591 0)
(0.879196 0.228283 0)
(0.944165 0.285997 0)
(0.919708 0.389432 0)
(0.834226 0.50783 0)
(0.704754 0.574384 0)
(0.55427 0.565188 0)
(-0.0988652 -1.21243 0)
(0.104156 -0.884601 0)
(0.0878198 -0.76941 0)
(0.178257 -0.949187 0)
(0.413793 -0.699517 0)
(0.770697 -0.247009 0)
(0.264503 -0.49722 0)
(0.332161 -0.047037 0)
(0.450599 0.310123 0)
(0.154246 0.490978 0)
(0.0152542 0.192549 0)
(-0.07054 -0.035665 0)
(-0.0328948 -0.218353 0)
(0.0101432 -0.250992 0)
(0.113258 -0.190019 0)
(0.248525 -0.079073 0)
(0.378206 0.028581 0)
(0.468317 0.151749 0)
(0.500887 0.294057 0)
(0.482595 0.454752 0)
(0.425342 0.608495 0)
(0.348388 0.690207 0)
(0.256255 0.683369 0)
(-0.0697662 -1.20535 0)
(0.0740373 -0.966039 0)
(0.0905276 -0.732641 0)
(-0.0100145 -0.943132 0)
(-0.244759 -0.578759 0)
(-0.318119 -0.205029 0)
(-0.57506 -0.110558 0)
(-0.68396 -0.0298206 0)
(-0.47377 0.445865 0)
(-0.668626 0.507126 0)
(-0.488343 0.114853 0)
(-0.43422 -0.11605 0)
(-0.411476 -0.238977 0)
(-0.378836 -0.296321 0)
(-0.325618 -0.275035 0)
(-0.248825 -0.177838 0)
(-0.171928 -0.0357354 0)
(-0.114143 0.134738 0)
(-0.0771544 0.31657 0)
(-0.0613672 0.500607 0)
(-0.0636755 0.661994 0)
(-0.0709849 0.743551 0)
(-0.0886811 0.739002 0)
(0.0311786 -1.21574 0)
(0.0267564 -1.00302 0)
(0.0632015 -0.644031 0)
(-0.201374 -0.585575 0)
(-0.803197 -0.248665 0)
(-0.997176 -0.0933916 0)
(-1.19654 -0.0139026 0)
(-1.28498 0.156212 0)
(-1.17393 0.328602 0)
(-1.05111 0.23564 0)
(-0.90653 0.033817 0)
(-0.859862 -0.133027 0)
(-0.8363 -0.262379 0)
(-0.827578 -0.32492 0)
(-0.811302 -0.307521 0)
(-0.780361 -0.21646 0)
(-0.739734 -0.0726465 0)
(-0.691691 0.109407 0)
(-0.641187 0.309598 0)
(-0.587848 0.499542 0)
(-0.52891 0.650294 0)
(-0.461216 0.721263 0)
(-0.382929 0.699146 0)
(0.16395 -1.28925 0)
(0.0260215 -1.02427 0)
(-0.0070136 -0.50326 0)
(-0.318588 -0.148841 0)
(-0.938561 0.0554871 0)
(-1.16859 0.116752 0)
(-1.34835 0.123253 0)
(-1.39801 0.151043 0)
(-1.34848 0.169853 0)
(-1.26678 0.104183 0)
(-1.2158 -0.0229958 0)
(-1.18731 -0.152608 0)
(-1.17984 -0.259205 0)
(-1.18662 -0.321325 0)
(-1.19354 -0.316815 0)
(-1.18856 -0.240663 0)
(-1.16768 -0.109128 0)
(-1.12593 0.0605522 0)
(-1.06067 0.249208 0)
(-0.969371 0.423511 0)
(-0.850017 0.549522 0)
(-0.706188 0.594016 0)
(-0.545482 0.547084 0)
(0.0539257 -1.46509 0)
(0.0646246 -0.841509 0)
(-0.102671 -0.360763 0)
(-0.378137 0.325422 0)
(-0.952768 0.400516 0)
(-1.15981 0.331591 0)
(-1.33568 0.253779 0)
(-1.42434 0.212217 0)
(-1.45246 0.160267 0)
(-1.44 0.06818 0)
(-1.41683 -0.048276 0)
(-1.3971 -0.161235 0)
(-1.38744 -0.254101 0)
(-1.38908 -0.308397 0)
(-1.39405 -0.30928 0)
(-1.3906 -0.251354 0)
(-1.36949 -0.141959 0)
(-1.32006 -0.00122869 0)
(-1.23451 0.148329 0)
(-1.11007 0.282598 0)
(-0.95016 0.371733 0)
(-0.769384 0.394662 0)
(-0.592139 0.357736 0)
(-0.200513 -1.57416 0)
(0.0834245 -0.665953 0)
(-0.187356 -0.232742 0)
(-0.386612 0.773617 0)
(-0.922614 0.73554 0)
(-1.12924 0.562094 0)
(-1.34506 0.417592 0)
(-1.48605 0.312668 0)
(-1.55962 0.194224 0)
(-1.57471 0.0612673 0)
(-1.55763 -0.0666889 0)
(-1.52483 -0.178412 0)
(-1.49125 -0.264113 0)
(-1.4643 -0.313697 0)
(-1.44115 -0.3183 0)
(-1.41212 -0.27481 0)
(-1.36588 -0.190552 0)
(-1.29401 -0.0829903 0)
(-1.19255 0.0264209 0)
(-1.05969 0.121373 0)
(-0.901824 0.184669 0)
(-0.739286 0.208975 0)
(-0.593556 0.204008 0)
(-0.37046 -1.43803 0)
(0.049438 -0.514185 0)
(-0.166893 -0.0984178 0)
(-0.343569 1.19982 0)
(-0.880783 1.06547 0)
(-1.11153 0.819672 0)
(-1.37812 0.620047 0)
(-1.56181 0.444069 0)
(-1.6704 0.251855 0)
(-1.70838 0.06386 0)
(-1.69189 -0.0997837 0)
(-1.63666 -0.227641 0)
(-1.56399 -0.313729 0)
(-1.49071 -0.358304 0)
(-1.42337 -0.36324 0)
(-1.35739 -0.330551 0)
(-1.28267 -0.265843 0)
(-1.19175 -0.181523 0)
(-1.08318 -0.0940419 0)
(-0.959867 -0.0173717 0)
(-0.828592 0.0390708 0)
(-0.700125 0.0729157 0)
(-0.58471 0.0879742 0)
(-0.439609 -1.32618 0)
(0.112167 -0.511581 0)
(-0.186488 -0.0494597 0)
(-0.27864 1.61523 0)
(-0.836605 1.40128 0)
(-1.08379 1.10835 0)
(-1.38933 0.858488 0)
(-1.60936 0.609773 0)
(-1.75588 0.338609 0)
(-1.82209 0.0775833 0)
(-1.81555 -0.146295 0)
(-1.74977 -0.312874 0)
(-1.64566 -0.414092 0)
(-1.52656 -0.455938 0)
(-1.41069 -0.452055 0)
(-1.30544 -0.415769 0)
(-1.2064 -0.356724 0)
(-1.10454 -0.282877 0)
(-0.996282 -0.204923 0)
(-0.883753 -0.134093 0)
(-0.771299 -0.0773179 0)
(-0.664575 -0.0371802 0)
(-0.566788 -0.0115173 0)
(-0.496487 -1.22964 0)
(0.243237 -0.60876 0)
(-0.220457 0.0387733 0)
(-0.268692 2.00024 0)
(-0.779368 1.73321 0)
(-1.0127 1.41549 0)
(-1.33137 1.12494 0)
(-1.57188 0.809832 0)
(-1.75059 0.458391 0)
(-1.84622 0.115223 0)
(-1.86064 -0.183537 0)
(-1.80568 -0.409661 0)
(-1.69719 -0.546906 0)
(-1.55656 -0.599788 0)
(-1.40602 -0.587677 0)
(-1.2642 -0.535673 0)
(-1.14012 -0.466151 0)
(-1.02864 -0.390416 0)
(-0.920975 -0.313058 0)
(-0.81599 -0.24102 0)
(-0.715618 -0.180534 0)
(-0.622338 -0.133637 0)
(-0.537357 -0.0986292 0)
(-0.519856 -1.15739 0)
(0.321622 -0.550091 0)
(-0.360518 0.312343 0)
(-0.278177 2.29956 0)
(-0.676651 2.02796 0)
(-0.877432 1.71352 0)
(-1.18554 1.39908 0)
(-1.42302 1.03952 0)
(-1.61163 0.625715 0)
(-1.7256 0.198081 0)
(-1.76538 -0.188962 0)
(-1.73702 -0.486428 0)
(-1.65052 -0.675822 0)
(-1.52389 -0.757914 0)
(-1.37291 -0.752276 0)
(-1.21473 -0.686262 0)
(-1.07062 -0.594009 0)
(-0.95023 -0.502505 0)
(-0.844569 -0.417845 0)
(-0.746754 -0.339819 0)
(-0.656158 -0.272421 0)
(-0.573601 -0.217587 0)
(-0.499162 -0.174221 0)
(-0.485465 -1.12684 0)
(0.377696 -0.490652 0)
(-0.399694 0.673333 0)
(-0.112436 2.46409 0)
(-0.471337 2.2723 0)
(-0.655422 1.98778 0)
(-0.947724 1.65735 0)
(-1.17971 1.24472 0)
(-1.36005 0.767267 0)
(-1.47838 0.283209 0)
(-1.53017 -0.161921 0)
(-1.5241 -0.530604 0)
(-1.47012 -0.772576 0)
(-1.3803 -0.889738 0)
(-1.26647 -0.907353 0)
(-1.12816 -0.846015 0)
(-0.984015 -0.734633 0)
(-0.859649 -0.617258 0)
(-0.758323 -0.517139 0)
(-0.66998 -0.43002 0)
(-0.589906 -0.354464 0)
(-0.51811 -0.291599 0)
(-0.453617 -0.240173 0)
(-0.383754 -1.10107 0)
(0.376181 -0.699902 0)
(-0.151633 0.623064 0)
(0.183144 2.55562 0)
(-0.14279 2.4966 0)
(-0.337026 2.24138 0)
(-0.619408 1.89674 0)
(-0.843988 1.44472 0)
(-1.01808 0.918662 0)
(-1.13631 0.363815 0)
(-1.18248 -0.150426 0)
(-1.1933 -0.559862 0)
(-1.17365 -0.832078 0)
(-1.11903 -0.971148 0)
(-1.06255 -1.01242 0)
(-0.977562 -0.97744 0)
(-0.865142 -0.869203 0)
(-0.751436 -0.728903 0)
(-0.658379 -0.607301 0)
(-0.582918 -0.508658 0)
(-0.515558 -0.424777 0)
(-0.455829 -0.354673 0)
(-0.402063 -0.29648 0)
(-0.247554 -1.0599 0)
(0.263815 -0.803073 0)
(0.194463 0.720378 0)
(0.492256 2.49918 0)
(0.305237 2.76417 0)
(0.0612303 2.50345 0)
(-0.226908 2.12368 0)
(-0.436373 1.63759 0)
(-0.596086 1.08216 0)
(-0.720973 0.481929 0)
(-0.76624 -0.0897311 0)
(-0.770461 -0.556444 0)
(-0.80069 -0.860975 0)
(-0.774882 -1.00264 0)
(-0.775988 -1.04878 0)
(-0.757862 -1.04621 0)
(-0.703295 -0.96967 0)
(-0.622272 -0.82551 0)
(-0.544838 -0.683586 0)
(-0.485572 -0.57254 0)
(-0.433688 -0.481316 0)
(-0.387449 -0.405301 0)
(-0.345625 -0.342173 0)
(-0.0598922 -1.11519 0)
(0.17387 -0.941877 0)
(0.258983 0.201093 0)
(0.706161 2.32945 0)
(0.726516 2.97939 0)
(0.497182 2.79162 0)
(0.208895 2.35262 0)
(0.00606168 1.81849 0)
(-0.129436 1.23213 0)
(-0.244289 0.59751 0)
(-0.302533 -0.0152949 0)
(-0.302645 -0.520113 0)
(-0.379719 -0.852625 0)
(-0.396491 -0.99138 0)
(-0.448894 -1.02301 0)
(-0.493078 -1.03952 0)
(-0.502586 -1.01294 0)
(-0.472064 -0.891936 0)
(-0.420624 -0.740109 0)
(-0.380184 -0.618407 0)
(-0.346246 -0.522076 0)
(-0.314738 -0.442225 0)
(-0.285686 -0.376106 0)
(0.0272324 -1.22707 0)
(0.126818 -0.971277 0)
(0.138364 -0.198509 0)
(0.667571 1.92695 0)
(0.939447 3.00496 0)
(0.856985 3.02123 0)
(0.647483 2.58171 0)
(0.468351 1.99364 0)
(0.348093 1.36279 0)
(0.255537 0.706961 0)
(0.206946 0.0737105 0)
(0.15606 -0.464297 0)
(0.0645398 -0.799521 0)
(-0.0206009 -0.932295 0)
(-0.12368 -0.947816 0)
(-0.220964 -0.967415 0)
(-0.283626 -0.992223 0)
(-0.306853 -0.916884 0)
(-0.290553 -0.77143 0)
(-0.270871 -0.643889 0)
(-0.256098 -0.545596 0)
(-0.240157 -0.464729 0)
(-0.224108 -0.397678 0)
(-0.000896089 -1.31532 0)
(0.116439 -0.976857 0)
(0.00851035 -0.368602 0)
(0.472678 1.6262 0)
(0.90279 2.82169 0)
(1.03767 3.07459 0)
(0.991092 2.73891 0)
(0.888257 2.1413 0)
(0.80133 1.47499 0)
(0.73346 0.802064 0)
(0.686669 0.162639 0)
(0.602837 -0.367356 0)
(0.477705 -0.687775 0)
(0.324814 -0.813634 0)
(0.166808 -0.82881 0)
(0.0251886 -0.850635 0)
(-0.0735099 -0.917949 0)
(-0.13868 -0.89841 0)
(-0.160553 -0.774618 0)
(-0.162841 -0.648358 0)
(-0.166702 -0.551532 0)
(-0.166388 -0.472746 0)
(-0.163038 -0.407009 0)
(-0.0766367 -1.35251 0)
(0.0739576 -0.945478 0)
(-0.111686 -0.421297 0)
(0.207238 1.23604 0)
(0.722692 2.47464 0)
(1.02244 2.92433 0)
(1.14627 2.74155 0)
(1.16492 2.20154 0)
(1.14198 1.53562 0)
(1.1074 0.857592 0)
(1.05541 0.232625 0)
(0.950159 -0.248214 0)
(0.784582 -0.533548 0)
(0.588967 -0.648617 0)
(0.393683 -0.668287 0)
(0.224466 -0.70832 0)
(0.107205 -0.810471 0)
(0.0188835 -0.843791 0)
(-0.0362968 -0.750539 0)
(-0.0610748 -0.632811 0)
(-0.081421 -0.540762 0)
(-0.0959097 -0.466961 0)
(-0.104516 -0.404785 0)
(-0.130371 -1.27641 0)
(-0.00494569 -0.859345 0)
(-0.151369 -0.470369 0)
(0.165856 0.816934 0)
(0.49835 2.03322 0)
(0.855291 2.62515 0)
(1.10236 2.5891 0)
(1.24021 2.14599 0)
(1.30219 1.52666 0)
(1.30998 0.883646 0)
(1.25948 0.318715 0)
(1.13628 -0.10027 0)
(0.953152 -0.349099 0)
(0.745832 -0.454892 0)
(0.540168 -0.487323 0)
(0.367758 -0.555391 0)
(0.251993 -0.693713 0)
(0.156033 -0.765501 0)
(0.077873 -0.703586 0)
(0.0310627 -0.599176 0)
(-0.00329132 -0.514982 0)
(-0.0308423 -0.448685 0)
(-0.0502533 -0.392107 0)
(-0.100908 -1.20384 0)
(-0.14984 -0.892833 0)
(-0.185944 -0.794126 0)
(0.00941528 0.593065 0)
(0.225828 1.65305 0)
(0.602944 2.27458 0)
(0.918306 2.33141 0)
(1.14101 1.98861 0)
(1.27348 1.45636 0)
(1.31943 0.893221 0)
(1.27923 0.404775 0)
(1.16214 0.0491708 0)
(0.992741 -0.162968 0)
(0.802224 -0.261585 0)
(0.612364 -0.311204 0)
(0.461977 -0.413065 0)
(0.36526 -0.582531 0)
(0.269989 -0.677527 0)
(0.17696 -0.637717 0)
(0.112244 -0.549101 0)
(0.0650946 -0.476341 0)
(0.0269865 -0.419444 0)
(-0.0016831 -0.370296 0)
(-0.10001 -1.0934 0)
(-0.291715 -0.952091 0)
(-0.39837 -0.605228 0)
(-0.226592 0.487736 0)
(-0.0327426 1.35309 0)
(0.349772 1.92451 0)
(0.688307 2.0231 0)
(0.952837 1.77039 0)
(1.12275 1.33933 0)
(1.19201 0.874109 0)
(1.17031 0.47119 0)
(1.07849 0.178732 0)
(0.942255 -0.000309563 0)
(0.785182 -0.0936173 0)
(0.63075 -0.162609 0)
(0.525092 -0.299383 0)
(0.458314 -0.487308 0)
(0.364199 -0.58538 0)
(0.258499 -0.556992 0)
(0.179876 -0.485419 0)
(0.122128 -0.427107 0)
(0.0756366 -0.381176 0)
(0.0395374 -0.340792 0)
(-0.154253 -0.827936 0)
(-0.363532 -0.718777 0)
(-0.448878 -0.561512 0)
(-0.390266 0.2689 0)
(-0.161572 1.06427 0)
(0.186184 1.57479 0)
(0.511522 1.70655 0)
(0.775303 1.54181 0)
(0.944626 1.21268 0)
(1.01676 0.842469 0)
(1.00973 0.517013 0)
(0.944496 0.278018 0)
(0.842178 0.126737 0)
(0.72347 0.0361706 0)
(0.622842 -0.0589697 0)
(0.581891 -0.226722 0)
(0.544629 -0.408387 0)
(0.441827 -0.486675 0)
(0.320675 -0.462102 0)
(0.231315 -0.410127 0)
(0.165534 -0.369513 0)
(0.112695 -0.336054 0)
(0.0712277 -0.305316 0)
(-0.160331 -0.620341 0)
(-0.285435 -0.523975 0)
(-0.234713 -0.311726 0)
(-0.520238 -0.0701265 0)
(-0.123913 0.815331 0)
(0.158939 1.25085 0)
(0.44828 1.41563 0)
(0.67424 1.33843 0)
(0.807452 1.10433 0)
(0.858101 0.813793 0)
(0.849572 0.549504 0)
(0.796814 0.352027 0)
(0.718969 0.215903 0)
(0.640225 0.110029 0)
(0.617352 -0.0230879 0)
(0.654442 -0.19834 0)
(0.629421 -0.331355 0)
(0.497886 -0.37048 0)
(0.357804 -0.351694 0)
(0.262249 -0.325978 0)
(0.191807 -0.306301 0)
(0.135133 -0.286313 0)
(0.0908305 -0.265997 0)
(-0.119169 -0.439769 0)
(-0.222951 -0.501336 0)
(-0.140931 -0.356869 0)
(-0.184569 -0.0173425 0)
(-0.0520275 0.430852 0)
(0.277722 0.964585 0)
(0.53113 1.20507 0)
(0.685617 1.20286 0)
(0.742687 1.03951 0)
(0.737342 0.803927 0)
(0.69898 0.582967 0)
(0.645006 0.417754 0)
(0.569286 0.293349 0)
(0.542238 0.140948 0)
(0.637913 -0.0661604 0)
(0.734569 -0.201519 0)
(0.68355 -0.233912 0)
(0.506935 -0.228765 0)
(0.357393 -0.230005 0)
(0.266204 -0.239172 0)
(0.196424 -0.241545 0)
(0.139838 -0.235078 0)
(0.0963558 -0.225708 0)
(-0.0256978 -0.332843 0)
(-0.138345 -0.449279 0)
(-0.248148 -0.417745 0)
(-0.0526224 -0.115502 0)
(0.0800726 0.20799 0)
(0.365126 0.598964 0)
(0.691525 1.01925 0)
(0.812115 1.17404 0)
(0.76316 1.08246 0)
(0.650655 0.860819 0)
(0.555536 0.652793 0)
(0.461945 0.488198 0)
(0.378776 0.286511 0)
(0.477813 9.12228e-05 0)
(0.621583 -0.210876 0)
(0.69628 -0.216875 0)
(0.612776 -0.113032 0)
(0.427508 -0.0787311 0)
(0.310034 -0.117889 0)
(0.238979 -0.161145 0)
(0.17685 -0.180899 0)
(0.126151 -0.18677 0)
(0.0881343 -0.188411 0)
(-0.0100882 -0.311726 0)
(0.032747 -0.282012 0)
(-0.18877 -0.408217 0)
(-0.0901629 -0.335106 0)
(0.0741456 0.0122416 0)
(0.312691 0.321385 0)
(0.672153 0.736093 0)
(0.937682 1.17004 0)
(0.842978 1.22243 0)
(0.583378 1.00771 0)
(0.404349 0.768985 0)
(0.213706 0.592508 0)
(0.317774 0.243457 0)
(0.500054 -0.121287 0)
(0.561936 -0.258086 0)
(0.543012 -0.169685 0)
(0.39613 0.0297758 0)
(0.281535 0.0368563 0)
(0.233706 -0.0436288 0)
(0.186036 -0.101551 0)
(0.137364 -0.130068 0)
(0.0986925 -0.146742 0)
(0.0702073 -0.158393 0)
(-0.0049197 -0.314578 0)
(-0.0289802 -0.250969 0)
(0.027414 -0.255489 0)
(-0.155601 -0.389561 0)
(0.00761864 -0.136414 0)
(0.220451 -0.0131526 0)
(0.523918 0.375628 0)
(0.843944 1.15171 0)
(0.811399 1.47347 0)
(0.484318 1.24776 0)
(0.162619 1.08471 0)
(0.134873 0.506411 0)
(0.419205 0.0161825 0)
(0.522513 -0.229614 0)
(0.455712 -0.223879 0)
(0.26822 0.0119506 0)
(0.164338 0.115133 0)
(0.158473 0.0588552 0)
(0.148467 -0.0120141 0)
(0.119877 -0.0602005 0)
(0.0901309 -0.0936757 0)
(0.0665637 -0.118953 0)
(0.0488976 -0.137717 0)
(0.00118118 -0.312762 0)
(0.0164008 -0.308193 0)
(0.0722512 -0.296596 0)
(0.11467 -0.279085 0)
(-0.0693044 -0.314363 0)
(0.345486 -0.263297 0)
(0.678305 0.181931 0)
(0.844692 0.846922 0)
(0.770085 1.55102 0)