/*--------------------------------*- C++ -*----------------------------------*\
| =========                 |                                                 |
| \\      /  F ield         | OpenFOAM: The Open Source CFD Toolbox           |
|  \\    /   O peration     | Version:  2.3.0                                 |
|   \\  /    A nd           | Web:      www.OpenFOAM.org                      |
|    \\/     M anipulation  |                                                 |
\*---------------------------------------------------------------------------*/
FoamFile
{
    version     2.0;
    format      ascii;
    class       volScalarField;
    location    "1e-05";
    object      alpha.fuel;
}
// * * * * * * * * * * * * * * * * * * * * * * * * * * * * * * * * * * * * * //

dimensions      [0 0 0 0 0 0 0];

internalField   nonuniform List<scalar> 
7500
(
1
1
1
1
1
1
1
1
1
1
1
1
1
1
1
1
1
1
1
1
1
1
1
1
1
1
1
1
1
1
1
1
1
1
1
1
1
1
1
1
1
1
1
1
1
1
1
1
1
1
1
1
1
1
1
1
1
1
1
1
1
1
1
1
1
1
1
1
1
1
1
1
1
1
1
1
1
1
1
1
1
1
1
1
1
1
1
1
1
1
1
1
1
1
1
1
1
1
1
1
1
1
1
1
1
1
1
1
1
1
1
1
1
1
1
1
1
1
1
1
1
1
1
1
1
1
1
1
1
1
1
1
1
1
1
1
1
1
1
1
1
1
1
1
1
1
1
1
1
1
1
1
1
1
1
1
1
1
1
1
1
1
1
1
1
1
1
1
1
1
1
1
1
1
1
1
1
1
1
1
1
1
1
1
1
1
1
1
1
1
1
1
1
1
1
1
1
1
1
1
1
1
1
1
1
1
1
1
1
1
1
1
1
1
1
1
1
1
1
1
1
1
1
1
1
1
1
1
1
1
1
1
1
1
1
1
1
1
1
1
1
1
1
1
1
1
1
1
1
1
1
1
1
1
1
1
1
1
1
1
1
1
1
1
1
1
1
1
1
1
1
1
1
1
1
1
1
1
1
1
1
1
1
1
1
1
1
1
1
1
1
1
1
1
1
1
1
1
1
1
1
1
1
1
1
1
1
1
1
1
1
1
1
1
1
1
1
1
1
1
1
1
1
1
1
1
1
1
1
1
1
1
1
1
1
1
1
1
1
1
1
1
1
1
1
1
1
1
1
1
1
1
1
1
1
1
1
1
1
1
1
1
1
1
1
1
1
1
1
1
1
1
1
1
1
1
1
1
1
1
1
1
1
1
1
1
1
1
1
1
1
1
1
1
1
1
1
1
1
1
1
1
1
1
1
1
1
1
1
1
1
1
1
1
1
1
1
1
1
1
1
1
1
1
1
1
1
1
1
1
1
1
1
1
1
1
1
1
1
1
1
1
1
1
1
1
1
1
1
1
1
1
1
1
1
1
1
1
1
1
1
1
1
1
1
1
1
1
1
1
1
1
1
1
1
1
1
1
1
1
1
1
1
1
1
1
1
1
1
1
1
1
1
1
1
1
1
1
1
1
1
1
1
1
1
1
1
1
1
1
1
1
1
1
1
1
1
1
1
1
1
1
1
1
1
1
1
1
1
1
1
1
1
1
1
1
1
1
1
1
1
1
1
1
1
1
1
1
1
1
1
1
1
1
1
1
1
1
1
1
1
1
1
1
1
1
1
1
1
1
1
1
1
1
1
1
1
1
1
1
1
1
1
1
1
1
1
1
1
1
1
1
1
1
1
1
1
1
1
1
1
1
1
1
1
1
1
1
1
1
1
1
1
1
1
1
1
1
1
1
1
1
1
1
1
1
1
1
1
1
1
1
1
1
1
1
1
1
1
1
1
1
1
1
1
1
1
1
1
1
1
1
1
1
1
1
1
1
1
1
1
1
1
1
1
1
1
1
1
1
1
1
1
1
1
1
1
1
1
1
1
1
1
1
1
1
1
1
1
1
1
1
1
1
1
1
1
1
1
1
1
1
1
1
1
1
1
1
1
1
1
1
1
1
1
1
1
1
1
1
1
1
1
1
1
1
1
1
1
1
1
1
1
1
1
1
1
1
1
1
1
1
0.9963626
0.98301205
0.9829221
0.98242178
0.98045723
0.98312155
0.98501351
0.9750614
1
1
1
1
1
1
1
1
1
1
1
1
1
1
1
1
1
1
1
1
1
1
1
1
1
1
1
1
1
1
1
1
1
1
1
1
1
1
1
1
1
1
1
1
1
1
1
1
1
1
1
1
0.9975949
0.99061729
0.97916959
0.96129901
0.9413763
0.90278796
0.85368691
0.80427891
0.78294131
0.7622088
0.69795038
0.64344966
0.56860986
0.47400669
0.42093595
0.32386212
0.18571337
0.17665919
0.18148833
0.17578964
0.17765894
0.19587838
0.18440472
1
1
1
1
1
1
1
1
1
1
1
1
1
1
1
1
1
1
1
1
1
1
1
1
1
1
1
1
1
1
1
1
1
1
1
1
1
1
1
1
1
0.99899736
0.9863612
0.97026314
0.94195823
0.9133226
0.86815457
0.78777335
0.71573645
0.60407975
0.49504993
0.35646001
0.28608781
0.22676112
0.17430847
0.12121181
0.080515795
0.0088207662
5.285767e-10
3.6404151e-10
3.640415e-10
3.640415e-10
3.640415e-10
3.6404151e-10
3.6404151e-10
3.6404152e-10
3.6404152e-10
3.6404153e-10
3.6404154e-10
3.6404156e-10
3.640416e-10
3.6404166e-10
3.6404174e-10
3.6404177e-10
3.6404179e-10
1
1
1
1
1
1
1
1
1
1
1
1
1
1
1
1
1
1
1
1
1
1
1
1
1
1
1
1
1
1
1
1
1
1
0.98733643
0.96213258
0.91687622
0.82613536
0.72872032
0.58466399
0.45244068
0.32840146
0.20578612
0.13957268
0.07733445
0.024158995
3.1183201e-09
2.7641572e-09
2.7641572e-09
2.7641571e-09
2.764156e-09
2.7641561e-09
2.7641561e-09
2.7641561e-09
2.764156e-09
2.7641561e-09
2.7641589e-09
2.7642079e-09
3.0710422e-09
3.8059079e-09
3.7024221e-09
3.6378638e-09
3.9776702e-09
4.1850256e-09
4.252781e-09
4.3915251e-09
4.2827348e-09
4.6254417e-09
5.8279746e-09
6.5003983e-09
7.6939305e-09
8.8671587e-09
9.9396486e-09
1.1317579e-08
1.6733926e-08
1
1
1
1
1
1
1
1
1
1
1
1
1
1
1
1
1
1
1
1
1
1
1
1
1
1
1
1
0.98513694
0.93025865
0.81277105
0.67023644
0.50948738
0.35691802
0.22043887
0.1268957
0.011172487
3.282851e-09
3.1256883e-09
3.1256883e-09
3.1256882e-09
3.1256883e-09
3.1256883e-09
3.1256884e-09
3.1256887e-09
3.1256897e-09
3.3340588e-09
2.7892865e-09
4.7542189e-08
4.9311154e-07
3.4750742e-09
4.6597323e-08
2.5856998e-08
1.0032849e-08
4.7543481e-09
1.7164165e-08
6.7420649e-07
5.2221823e-07
8.2001224e-09
7.6979398e-09
8.3720669e-09
8.2659794e-09
7.7588029e-09
7.0263128e-09
6.6552082e-09
6.5070672e-09
6.4023168e-09
6.9634032e-09
9.5653567e-09
7.8078973e-09
8.047059e-09
9.8307327e-09
1.1169565e-08
1.720437e-09
2.259085e-07
1
1
1
1
1
1
1
1
1
1
1
1
1
1
1
1
1
1
1
1
1
1
1
0.97768503
0.90427065
0.74488041
0.56794745
0.38638917
0.22615946
0.032335123
3.9690531e-09
3.6297775e-09
3.6297775e-09
3.6297775e-09
3.6297775e-09
3.6297776e-09
3.6297781e-09
4.6850803e-09
5.7418573e-09
7.4329269e-09
7.515795e-09
7.8836431e-09
8.5089992e-09
2.3112407e-08
2.6911164e-08
2.7019701e-08
2.2168708e-08
9.9821359e-09
3.1166976e-09
1.5353971e-05
1.7147628e-05
5.6686462e-06
5.2107263e-09
4.7540207e-09
4.1441196e-09
3.6363085e-09
2.0391658e-05
0.0001858836
7.24808e-09
6.8343596e-09
6.4378248e-09
6.4838392e-09
6.3311345e-09
5.7539341e-09
5.8422183e-09
5.9831447e-09
5.8790672e-09
4.5955515e-09
2.9307623e-09
1.0398456e-07
4.0018984e-07
1.0179968e-08
1.0444211e-08
5.6111609e-09
2.0418358e-08
1
1
1
1
1
1
1
1
1
1
1
1
1
1
1
1
1
1
1
0.96317413
0.84036909
0.63545472
0.39416039
0.19221485
4.9740203e-09
3.7402348e-09
3.7402347e-09
3.7402347e-09
3.7402348e-09
3.7402348e-09
4.3260232e-09
5.2468673e-09
6.6544708e-09
7.1179269e-09
7.803728e-09
9.4196337e-09
1.1628682e-08
1.3048816e-08
1.5078185e-08
1.3371513e-08
8.471604e-09
4.1485294e-09
2.3787235e-07
1.041941e-07
4.0191359e-09
3.5037784e-09
3.5101234e-09
3.6182387e-09
3.3315709e-09
3.0902439e-09
4.5221955e-05
1.7510343e-07
0.0046128167
0.013789995
0.0069888155
7.6422655e-05
5.058706e-09
4.2890454e-05
0.0052912303
0.016497176
0.0016364244
5.6565773e-09
5.4118365e-09
4.5876008e-09
4.6929672e-09
5.1022925e-09
4.9889844e-09
3.8419169e-09
2.9649452e-09
1.211442e-09
1.0404008e-06
9.5545122e-06
1.0770507e-08
5.7963441e-08
4.4268701e-09
1
1
1
1
1
1
1
1
1
1
1
1
1
1
1
1
0.92127956
0.7202098
0.45930299
0.15657181
4.9184013e-09
3.9406849e-09
3.9406851e-09
3.9406853e-09
4.0558504e-09
4.1496227e-09
4.643819e-09
5.0979905e-09
5.9070842e-09
6.7559551e-09
8.67868e-09
1.1618035e-08
7.2152135e-09
1.1940673e-08
7.8100473e-09
8.5434576e-09
9.1547628e-09
9.7914754e-09
9.7999257e-09
1.0996902e-08
9.6273881e-09
6.8843727e-09
2.1810131e-09
7.0878642e-07
3.0337057e-06
2.1622812e-06
7.2162745e-07
4.0328064e-09
3.8482225e-09
3.6470184e-09
3.7915194e-09
0.0041900038
0.016877017
0.016877017
0.011566233
5.5050447e-09
5.2111273e-09
4.8810303e-09
0.014066724
0.043323963
0.043515126
0.0076213817
4.0209261e-09
3.6141305e-09
3.8749449e-09
3.7802215e-09
3.4348787e-09
1.8388095e-09
1.5602225e-09
1.2024167e-09
1.5740399e-09
3.1343131e-05
9.906136e-05
5.3260697e-05
2.3484289e-05
1
1
1
1
1
1
1
1
1
1
1
1
1
0.93308271
0.71833766
0.41449177
0.051227288
4.7998898e-09
4.3710289e-09
4.371031e-09
5.1383699e-09
4.3182289e-09
5.9255458e-08
3.2267869e-08
4.8213017e-09
5.0210816e-09
7.189522e-09
6.167552e-09
5.5238898e-09
6.0953877e-09
6.7399332e-09
6.1596125e-09
8.208527e-07
1.1984795e-08
0.00059904431
0.0070853438
0.0046368929
0.0057505517
0.0017681171
1.0713846e-08
1.0013269e-08
7.1704736e-09
3.3146419e-09
2.2041062e-09
7.3663331e-06
6.0332987e-06
1.993581e-09
0.0016661779
0.0068180133
0.0082511331
0.0023868938
0.00073849463
0.0051059754
0.011031963
0.0053126073
0.0019918183
0.0046671447
0.001335565
1.2309287e-09
1.175793e-09
0.023289322
0.027757888
0.0030300233
3.871864e-09
9.5624967e-06
9.4175945e-06
1.799538e-09
0.001019062
0.0029065872
0.0011122985
3.0223488e-05
1.0445426e-09
0.0004148512
0.00025061239
1.423398e-05
1
1
1
1
1
1
1
1
1
1
1
0.87291907
0.55052432
0.10870268
4.248548e-09
3.5102303e-09
3.510237e-09
1.7997151e-08
4.4946096e-09
2.737701e-07
5.9576144e-05
5.2087535e-09
6.1618958e-09
5.8245176e-09
1.7173588e-06
4.0047103e-06
8.4618526e-09
5.8301649e-05
0.00022131933
6.9434099e-05
0.00055484871
0.00023198225
1.2266521e-05
1.20354e-08
0.0083762393
0.010707955
0.010731992
0.010927601
0.0019760403
1.0526718e-08
1.0076861e-08
6.5265411e-09
5.7409043e-09
3.0444164e-09
1.9368096e-09
2.1040294e-08
1.9570191e-09
0.0067815056
0.011102185
0.011163085
0.0038899851
1.9905999e-09
2.3921027e-09
0.0022185655
0.010693886
0.011432367
0.011424443
0.0049880666
1.5658292e-09
1.1757996e-09
0.00074082704
0.0031526111
0.0004949533
4.1328766e-09
0.00016018146
1.6635582e-05
1.7282687e-09
0.0044384065
0.0045358892
0.0045528027
8.5287744e-05
1.2422442e-09
1.0027288e-09
1.006087e-09
0.0086530766
1
1
1
1
1
1
1
1
1
0.85005863
0.4561527
0.007914587
3.696431e-09
3.6171203e-09
4.7884681e-09
1.1507953e-06
5.2035695e-07
1.1007329e-07
4.5460682e-09
4.5470176e-09
0.00043749523
0.0028815502
0.0040089715
2.2322439e-05
1.7323231e-05
7.113515e-06
7.206085e-09
6.7266515e-05
0.0011354982
0.0014552126
0.0017272138
0.00074950857
3.9306999e-08
0.0027598181
0.0043192488
4.2336571e-09
4.0027514e-09
0.0054745557
0.0013015316
0.00063305871
7.0137315e-09
6.6503142e-09
6.1175266e-09
9.9255223e-09
3.6852739e-09
1.9337054e-09
0.00068086478
5.5868287e-09
5.5053113e-09
5.7146333e-06
2.1127738e-09
1.5228857e-09
0.0010027491
0.0017187256
0.00066969986
0.0026734721
1.5057446e-09
1.3477696e-09
1.7640636e-09
1.6871209e-09
1.9484589e-09
2.0055577e-09
1.882772e-09
0.0056067483
1.6845791e-09
1.2983275e-09
0.0024628915
0.00032045114
2.0987054e-09
3.4851401e-05
6.6721586e-06
1.3312309e-09
1.0027288e-09
0.00053865006
0.0030535346
1
1
1
1
1
1
1
0.89127933
0.50728856
0.0086068841
5.8928807e-09
5.800371e-09
5.7839093e-09
7.3531659e-06
5.9560015e-05
9.5500707e-05
1.8546141e-06
7.4061999e-08
6.7076135e-05
5.9375034e-09
4.9311152e-07
0.0067938968
0.0068567314
0.0068869914
0.00012617016
7.3364956e-09
6.5399558e-09
5.3207904e-09
5.2748672e-09
5.2463638e-09
0.00029923278
0.0001512604
0.00060106404
0.00037708119
8.3231546e-09
7.6732327e-09
4.0028398e-09
0.00050648265
0.0029431443
0.0029431443
0.0015907921
0.0017113269
0.0001976003
2.7631643e-09
2.0840447e-09
1.3339591e-05
5.2907348e-05
0.00011052507
0.00093818986
0.0084780238
0.008982887
0.0016395125
0.00033418591
7.6624961e-05
1.3069054e-09
1.2370648e-09
4.2428392e-09
1.6425038e-09
2.0778704e-09
1.9432415e-09
0.00071118552
0.0037973407
0.056460854
0.062474079
0.029841287
0.00063763434
2.5887869e-09
2.3600551e-09
2.0687471e-09
1.8027817e-09
7.789017e-06
7.7649015e-05
1.2840354e-09
1.2628886e-09
1.4003111e-09
1
1
1
1
1
1
0.7330535
0.10366092
1.9077753e-08
1.8334943e-08
1.8315087e-05
9.1724276e-05
0.00016438113
0.00016784078
0.00016824986
1.5902504e-07
1.5869588e-07
0.0014923122
0.0014938767
0.000108828
0.0017680111
4.021243e-08
4.021758e-08
0.00029931619
0.0010885634
7.056678e-09
6.7716716e-09
0.00046599499
1.4092536e-05
6.180209e-09
6.017985e-09
0.0011416789
2.4547796e-06
5.5962013e-09
8.9458947e-09
6.2523002e-09
4.5485509e-09
4.7839625e-09
0.0014979126
0.0015464484
0.0028405107
0.0028405103
0.0024968124
3.0937665e-09
2.4901511e-09
2.8215071e-09
2.7121757e-09
2.3713812e-09
0.0090019839
0.014850759
0.014901096
0.0060814805
2.0520812e-09
1.6989872e-09
1.6173137e-09
1.5152665e-09
1.5153589e-09
0.00082894536
0.0052648223
0.0022412116
1.1718703e-05
0.058940673
0.061261371
0.020507643
0.055473719
0.040529975
0.010892376
0.20537727
0.17594906
0.016747618
9.5586843e-10
0.00010272698
0.00079011405
3.0215062e-05
0.0011364946
1
1
1
1
0.96999413
0.46862933
1.3462383e-08
1.1248759e-08
5.9405352e-07
0.00017140112
0.00054559911
0.00054702572
3.2256555e-09
2.9378676e-09
4.5722031e-05
0.0087284132
0.0037797705
3.6875651e-05
0.00018879297
0.00047503989
0.004372618
0.00013008431
0.00058300956
3.9579339e-08
0.002393352
0.0026766721
0.00049474636
0.00021393048
3.2104006e-05
0.00021006148
7.8990959e-06
6.1779897e-05
1.1796211e-06
4.3853195e-07
1.8843005e-07
4.4601687e-09
4.140729e-09
4.5394132e-09
4.1977313e-09
4.3370075e-09
0.0013918843
0.00011299242
3.0313253e-09
0.00031765886
0.00056023705
0.00013808204
2.3332822e-09
2.6451292e-09
2.3372251e-09
2.3372251e-09
2.3391052e-09
0.0034439738
0.001323915
0.0015479203
0.0021932411
6.8460785e-05
1.5583201e-09
0.0057806222
0.0060730756
0.0061607751
0.0011569042
0.0035905371
0.0035036666
4.4977918e-10
1.8393281e-10
0.01066395
0.37328661
0.37328661
0.37328661
0.1762763
6.5478433e-10
3.6550086e-10
0.0013413643
0.0066739337
0.0066739336
1
1
1
0.95666209
0.26795897
1.4760154e-08
1.3132908e-08
1.1282636e-08
0.00063695666
0.0012235425
3.28432e-09
2.9388628e-09
4.6258527e-09
2.9378716e-09
0.0055790799
0.013743299
0.013739178
2.2278419e-08
0.0003043988
0.0060902478
7.267962e-05
2.082326e-05
0.0053991
0.0025293497
1.5661717e-08
0.0011952271
6.369713e-05
5.3463235e-09
5.3461258e-09
0.00037537486
3.6671013e-05
9.5613993e-09
1.0017734e-08
9.6060081e-07
4.4638845e-09
3.9063129e-09
3.9406261e-09
2.0883337e-06
3.6871537e-09
0.00039100706
3.528588e-09
2.9599694e-09
9.7517632e-09
2.9632057e-09
0.0018163463
0.010569162
0.002664151
0.0020377681
2.8570744e-09
2.7549982e-09
3.1183555e-09
0.00011876049
1.0620302e-08
0.0037028604
0.005653187
0.0040938691
0.0011589591
5.7814572e-10
5.1175014e-10
0.002576894
0.0019765317
1.0467352e-09
7.5749232e-10
5.5834767e-10
3.7255657e-10
3.1117309e-10
0.084840388
0.34512438
0.33154499
0.15112038
6.6170536e-10
2.6190836e-07
8.4560581e-10
0.00073580081
0.0027925152
1
1
0.98890466
0.25034147
1.8737748e-08
1.6733695e-08
8.9919774e-07
5.8372163e-06
5.3532985e-09
5.3472488e-09
8.1362398e-07
9.362953e-09
7.1179343e-09
4.7300738e-09
2.9851651e-09
0.012875265
0.000906634
2.1869827e-06
0.00096589119
0.0060902475
1.0514203e-06
0.0011921765
0.0053990999
0.00025341879
3.1252783e-05
2.1137983e-08
2.0284047e-08
1.9527552e-08
5.3467032e-09
0.00015450892
0.00015992827
9.0546401e-09
0.00042662416
5.9140354e-08
0.059495474
0.016891285
4.4133735e-09
0.00049550797
0.0021947595
0.0022226854
0.00019654889
3.4044122e-09
8.9029006e-07
1.7861888e-07
2.5756375e-09
0.0037689959
0.010789379
0.010789379
0.0057271074
0.0098300803
0.008950049
0.0010393899
0.00053647479
9.2060162e-05
0.0056265805
0.0056506948
0.0025224813
9.867344e-10
5.7142928e-10
5.1217348e-10
0.0011809484
0.00024202732
8.6821748e-10
6.4555096e-10
5.959684e-10
4.0824659e-10
0.038909392
0.017247328
3.6806763e-10
3.3609666e-10
3.3637138e-10
5.6985796e-07
0.00011998307
1.6428068e-09
1.7952208e-09
1
1
0.31903666
1.8945592e-07
1.711016e-06
0.00056055077
8.903005e-05
7.2217771e-09
5.8820069e-09
6.0911461e-09
5.3538165e-09
5.3525273e-09
1.0142479e-08
7.200853e-09
3.9397215e-09
5.6435328e-09
6.409141e-09
5.7428607e-05
0.0060905364
0.0015338149
0.00037735042
0.0053030979
0.0045625176
2.9396815e-06
0.00013463401
1.1516738e-05
5.0724316e-06
6.9807718e-09
6.1462277e-09
6.5535033e-09
0.00073535733
0.0037088913
0.0051135965
0.01249731
0.12979705
0.1047488
0.027848559
0.00045176003
0.001294544
3.984331e-09
3.8001296e-09
3.7794297e-09
4.2047154e-09
3.7905377e-09
5.6169644e-09
3.2767828e-09
0.0076504545
6.2120528e-05
0.0089255265
0.016737408
0.016797079
0.016941596
0.0041723913
9.2060343e-05
0.00088719911
0.0056506951
0.0056506948
0.0014000431
8.7392368e-10
3.3463294e-07
0.00045038213
7.9046354e-10
6.8318978e-10
6.5943667e-10
0.00089447768
0.013677554
0.010666814
0.00077601159
5.8540945e-10
2.3845338e-06
3.6495087e-10
4.420875e-10
0.0013005287
0.0043099414
7.6560911e-06
1
0.64631574
0.024892963
0.00028859212
1.5186413e-07
0.004833203
7.4054848e-08
1.5519861e-08
1.474277e-08
9.3307619e-09
8.2966265e-09
7.5883972e-09
1.0510881e-08
4.5697837e-07
2.0683209e-06
5.5382541e-09
0.00021808234
8.5597699e-09
0.0024094372
1.5440556e-08
0.0023914981
0.004579963
0.00030538208
2.8957932e-06
6.540966e-09
6.5559659e-09
6.5660779e-09
0.0014838603
0.0014592438
0.00022174194
0.00037730448
0.00010352718
3.3499533e-09
0.049947083
0.0038648286
0.12120912
0.12081691
0.0015074981
4.2069842e-09
3.7521239e-09
9.6528751e-07
2.3505642e-06
2.9653831e-07
3.8387805e-09
3.4638789e-09
3.1515487e-09
3.3459854e-09
3.6673276e-09
4.1506974e-09
4.0217318e-09
3.9529321e-09
0.0042708144
0.00092261164
0.0024806866
0.00016034385
0.0023131312
0.0034515104
0.0021587973
4.9649543e-07
8.6142507e-10
0.0033719567
0.0028317237
1.008492e-09
7.576352e-05
0.0035846907
0.032527062
0.032527062
0.0083665307
2.9916529e-10
1.2258611e-10
0.00038055746
3.2519016e-05
7.7093483e-09
0.0012480412
0.0011225357
0.96963483
0.080375192
1.0144728e-08
6.9146431e-09
0.00063780922
0.0048332014
0.001956081
2.5707412e-09
1.4307309e-08
8.795152e-09
7.5427818e-09
7.8986517e-09
4.9617339e-09
2.5034251e-09
0.0040702922
0.0084058582
0.0084393811
0.0015172991
3.1023308e-08
2.4976948e-05
0.0023408639
8.2976503e-09
8.7434688e-09
6.197414e-08
6.5409956e-09
0.0019809207
0.0010441192
0.001998732
0.0019997213
0.00033394571
4.8162743e-09
4.2368743e-09
3.8377209e-09
3.6045356e-09
3.403824e-09
0.061861135
3.6242905e-09
3.4573855e-09
1.5631034e-08
4.2743816e-09
1.218707e-09
8.6196369e-06
3.9641707e-09
3.6399588e-09
3.2588381e-09
2.9710651e-09
2.9256942e-09
0.014654731
0.046290657
0.0032938828
4.3034653e-09
4.6165554e-09
5.2040272e-06
0.0039695545
0.00075570739
4.6115125e-10
3.7018527e-10
3.701852e-10
1.2668332e-05
9.8627398e-06
0.00035158266
0.00021027265
9.7685759e-10
0.011270489
0.00016452872
0.0025242335
0.0034160104
0.00059719762
2.7727832e-06
1.2629139e-10
0.00047073618
8.2308318e-09
8.008061e-09
8.0317811e-09
0.033896513
0.3210713
1.8698558e-08
1.0399903e-06
6.9705653e-09
0.0038710854
0.0038816074
0.0038762265
2.5704567e-09
1.1057501e-08
8.8041345e-09
7.4671313e-09
5.0450999e-09
6.5965182e-09
1.3799213e-06
3.0169206e-09
0.0033094505
0.0049957605
0.0084393504
0.00019775656
5.7823739e-09
6.2307413e-09
0.0011804747
0.0025470878
7.8435247e-09
7.4923287e-09
0.00087369691
0.0025725821
2.3659285e-07
1.1419493e-08
1.1399347e-08
0.00044658443
3.7722063e-09
0.0098634984
0.016691572
6.5470929e-05
8.8345103e-09
0.00010522992
3.5242385e-09
2.8774867e-09
2.8527947e-09
1.6751324e-09
2.1671483e-09
0.00084047387
0.0035621889
0.00032544377
3.1789773e-09
2.9256938e-09
0.04351325
0.063770843
0.060235172
0.012319317
4.8938824e-09
4.868224e-09
0.0032743939
0.00063009513
7.3426481e-10
7.590543e-10
3.7019398e-10
3.8912997e-05
1.7079614e-05
1.4818158e-05
1.5816511e-09
0.0064135988
0.0044484503
0.00013170641
5.0275886e-10
4.5263001e-10
2.9302213e-10
1.4530353e-08
5.6670933e-09
1.197792e-10
0.00062600307
0.0019777213
0.0035659462
0.015932797
0.10192571
1.459929e-08
1.2222622e-05
2.4015815e-06
7.0037175e-09
0.00053442059
0.0037813469
0.0010229975
1.1080025e-08
5.2903451e-06
0.00028487981
2.4859787e-05
0.00025812663
3.8562612e-05
3.0168768e-09
4.1840114e-09
3.0976474e-07
0.0084393494
0.00016629614
6.3904531e-09
0.0014573336
0.006741009
0.0067410086
0.00054417138
0.0058381022
3.9182178e-08
0.0025725825
8.7710852e-06
3.1130165e-05
1.4891205e-06
3.5330798e-09
0.027410054
0.037468046
0.037063497
0.027616244
0.00039177102
7.6868323e-09
9.1506638e-06
1.1863305e-06
1.5794361e-09
1.183363e-09
0.0026598575
0.0064313425
0.0075999068
0.0099804245
0.00074107839
3.2754739e-09
3.164144e-09
0.016939957
0.060907971
0.053174516
0.0070842488
0.00079896375
0.00021229715
1.046861e-09
2.6919084e-05
9.0161205e-10
5.2839427e-10
6.5874612e-10
3.9376289e-10
0.0080847936
1.5589422e-09
0.018576248
0.0026742857
4.8733138e-09
6.7051103e-09
3.5118262e-09
1.0604529e-09
2.3788369e-10
2.9714607e-10
1.1977703e-10
0.001368282
0.0021821453
0.0018070056
2.4499691e-10
1.5888111e-09
8.4654534e-09
8.5568809e-09
3.6003003e-06
5.3485122e-07
1.3209874e-08
2.7490236e-05
4.7286138e-05
1.8283484e-06
0.00015346845
0.0002838718
1.2022606e-05
0.00037724721
3.0176139e-09
3.0175977e-09
4.4071329e-09
4.1931647e-09
0.0020107389
5.1867387e-05
8.5789411e-08
0.0067410097
0.0067410093
0.0037073371
7.0769915e-05
0.0074306984
0.0016444907
0.0004406323
0.0012060941
0.0011074649
4.421125e-09
3.5330194e-09
0.0046241698
0.0047720235
3.6985333e-09
0.036269359
0.0031308146
7.7898891e-09
4.0850874e-05
3.3606274e-08
1.8046008e-06
1.1857224e-09
0.0035785093
1.2734451e-08
1.2669524e-08
0.01216855
0.0029656671
3.3132168e-09
0.00078937994
2.1783433e-09
0.036966179
0.052047516
0.018100878
0.01470498
0.0003730539
1.1784208e-09
9.9877454e-10
6.1717565e-10
7.8367e-10
0.0032497198
7.3757293e-05
7.7642638e-10
0.021543459
0.021932257
0.011094303
4.8660928e-09
5.059158e-09
1.0817008e-09
5.5371099e-10
2.3470972e-10
4.2869228e-10
2.2378151e-10
3.2567549e-11
0.0013171286
2.8413823e-10
7.8072295e-11
3.2360519e-06
1.2465843e-08
1.1406772e-08
5.3541582e-09
8.1798465e-09
1.1213008e-08
9.1043593e-09
7.5960712e-09
6.1737029e-09
6.1682697e-09
6.1682509e-09
6.2286402e-09
2.0365298e-06
3.4857606e-09
3.0204571e-09
3.0204572e-09
4.1640592e-09
4.0608625e-09
4.6496887e-09
0.0013356957
0.003601863
0.0029844465
6.3495457e-05
4.1143252e-05
0.0029452646
0.0075075055
0.0013982015
0.001670541
8.3150289e-09
8.0644637e-09
3.944814e-09
4.1002809e-09
3.6748352e-09
3.6748353e-09
0.0265164
0.014993201
0.0028607154
0.00012862064
6.2761616e-05
6.0674743e-06
1.4178002e-09
1.103013e-09
4.3755014e-06
2.1470761e-05
0.0034643543
0.0019126487
0.011942141
0.012011086
2.1754572e-09
1.7391431e-09
0.018492716
0.009436366
0.0015439036
1.7187078e-09
2.378706e-09
1.4518894e-09
6.1514955e-10
0.002699483
0.0050127715
0.0037713546
7.0361e-05
0.002905053
0.010106929
0.0048895427
4.9284725e-05
5.8549638e-10
4.4199917e-10
3.6850552e-10
7.361177e-11
4.2685164e-08
4.1238495e-08
2.721517e-08
3.3633679e-10
3.9828319e-06
4.7558086e-11
8.8037326e-06
1.2958431e-08
1.3985275e-08
1.2248485e-08
1.178622e-08
4.322317e-08
1.5336637e-08
9.4469758e-09
7.4194087e-09
7.4752988e-09
6.5243269e-09
0.00060520643
7.1680129e-05
4.627336e-09
3.02571e-09
9.1534895e-05
3.2724934e-09
3.2305577e-09
0.00010591891
0.0056501422
0.00035602024
1.6540686e-06
0.0019394208
0.0065128982
2.8901198e-08
0.0032077199
5.9347385e-05
9.1723923e-09
8.9834061e-09
8.5015072e-09
4.2837535e-07
8.153604e-09
4.0978432e-09
4.1404491e-09
4.1513604e-09
0.022225943
0.022222465
0.00058149108
1.8774106e-09
2.2308718e-09
1.9257723e-09
1.4243796e-09
1.6182062e-09
0.0036123277
6.4859571e-10
0.015139049
0.015520106
0.00041718101
2.2828486e-09
1.9042915e-09
1.6770353e-09
0.0075421536
1.6960846e-09
1.3469799e-09
1.664831e-09
1.3520426e-09
7.6101544e-10
0.0042086907
0.004004029
0.0045197933
0.00035926177
3.4592011e-09
3.4537872e-09
0.0010247978
0.00027166751
6.0458231e-10
4.4825518e-10
2.8864632e-10
5.6094393e-11
6.6241093e-08
7.1832024e-08
1.5429781e-07
0.00018917764
2.8336449e-10
0.0023203144
1.6191425e-08
1.517536e-08
1.6343749e-08
1.4423911e-08
1.385979e-08
3.5337423e-08
9.1299349e-09
9.1329776e-09
3.0405623e-07
1.7711949e-06
1.6478507e-07
0.00054111558
4.328744e-05
3.2507174e-07
4.2962207e-08
7.9887185e-09
0.00059332475
0.00059378875
0.0021911481
0.0056501418
0.00088294875
1.0187058e-06
0.0026063031
0.0074539492
0.00015514424
8.7087839e-08
0.00041872034
0.00096670812
0.0010786877
0.00030040007
2.6749552e-05
3.572578e-09
0.00023792015
0.0090980398
0.00090561395
0.012196242
1.7445359e-09
1.5563867e-09
1.5563862e-09
0.012645097
0.032670059
0.012357902
0.00070888947
5.9058506e-10
5.1676944e-10
0.0024789656
0.002490984
2.9016642e-09
2.5459805e-09
3.6444753e-05
1.6792943e-09
0.007638236
0.0013461896
1.1461727e-09
9.182919e-10
5.9793663e-10
0.0019642616
1.0495118e-09
9.4178398e-10
9.4178397e-10
0.0017898342
3.3558559e-09
0.0028180428
0.00072926968
7.9477964e-10
5.5166299e-10
3.0100459e-10
1.8321771e-10
5.675277e-11
2.6188423e-11
2.6326205e-11
2.6403012e-11
0.0048817062
0.0024156402
0.0025479824
1.6482765e-06
3.5299804e-05
8.2079599e-05
8.4903299e-05
9.4137956e-05
5.6550867e-07
1.0755989e-05
7.3734264e-05
7.3973871e-05
7.6110936e-05
6.0871178e-06
6.5507919e-09
5.5856588e-05
2.9802903e-05
4.3822496e-08
7.6502852e-09
0.00020024452
2.0462952e-05
7.6371988e-09
0.0056486058
0.00098739972
3.9839649e-05
0.0020125429
0.0039023488
0.00010210994
0.00030699267
0.0015677682
0.0015671746
0.0015588867
0.0015135834
1.3885885e-09
0.00861536
0.010301163
0.018239208
0.0049502741
2.098636e-09
1.6846738e-09
1.5944956e-09
1.5708756e-09
0.033150994
0.03626033
0.035732647
0.0020597746
7.5630974e-10
7.4246783e-10
9.7859616e-10
9.6100349e-10
0.029581687
0.018336182
0.0030050069
1.9052723e-09
0.0066044001
0.0001319416
0.0024069178
9.1397025e-10
5.979306e-10
0.0034612564
0.00049913785
1.1198117e-09
1.0912534e-09
9.1123053e-10
0.0088258976
0.010514426
0.00016660803
6.8451395e-10
4.813659e-10
2.5142638e-10
1.3110611e-10
3.9285518e-11
2.6066097e-11
3.6484855e-11
2.6480021e-11
0.00058100619
0.0090157629
0.0023849892
3.7232494e-06
0.00018833879
0.00018980045
0.00019038858
0.00019058637
9.1700586e-09
9.7126225e-09
4.8663583e-05
7.4036539e-05
7.4354201e-05
5.2433597e-09
4.9839808e-09
0.0001639623
3.3597614e-08
4.935755e-06
1.4921786e-06
5.4183596e-09
4.5566083e-06
8.6455946e-09
0.0015208866
0.0014998864
0.00017604035
0.0077428428
7.1612828e-08
0.0030408093
0.0015315652
1.1202611e-09
6.2135908e-10
6.2135882e-10
6.3113619e-10
1.0997794e-09
0.0010629787
7.0999689e-10
0.0051530133
0.012873795
0.00055196623
1.9781402e-09
1.8871113e-09
0.0013643292
0.00072791054
0.013495147
5.6144662e-10
5.170574e-10
5.1720463e-10
6.9065741e-05
9.8543792e-10
0.038348589
0.04146621
0.041459922
0.0035956851
2.1105396e-09
0.00023673918
0.0055540761
0.0057032961
0.0018450199
6.5569346e-10
0.00095892848
0.00013261946
1.3686605e-09
1.2542684e-05
9.1225752e-10
0.010495359
0.010514426
0.010154445
2.3336648e-05
2.9792105e-10
1.7444938e-10
6.9236774e-11
1.7414221e-11
1.6458336e-11
3.2567752e-11
4.5620271e-11
4.584745e-11
0.0070111996
0.00052965652
2.9201863e-10
2.9197601e-10
4.5735719e-10
1.2546727e-09
2.2956218e-09
5.1127679e-05
0.0001332897
1.7794265e-08
4.3092254e-09
4.3092507e-09
4.9836851e-09
4.985996e-09
6.2173439e-05
3.9018409e-07
4.9132076e-06
4.7717801e-09
4.5975251e-09
5.2571367e-09
0.0012290275
1.166701e-05
0.0013095169
1.7995927e-06
0.010554422
0.0056372599
0.0052293091
0.0052026141
0.0016706479
1.3681102e-09
1.0029401e-09
1.1036222e-05
0.00084493673
1.096818e-09
7.0120466e-10
5.3654053e-10
0.00084350797
1.9543809e-06
0.0032370081
0.00024683382
0.019868898
0.0011841441
7.8014036e-10
6.802067e-10
5.1705748e-10
0.0096766298
0.0079550672
0.0011485818
0.0074400679
3.1075425e-10
2.6214742e-10
0.0010356996
0.00017222222
2.7769545e-10
0.0056675117
0.00038926451
0.0041427792
0.0053351051
0.00083216944
1.4753276e-09
1.333714e-09
0.00025463575
9.7870365e-10
0.0025973898
0.010514426
0.0038578723
9.4197818e-06
2.5777424e-10
1.3685474e-10
3.0456689e-11
9.429853e-12
7.7954724e-12
1.5699289e-11
3.6566082e-11
2.1144996e-10
3.3853488e-10
1.7660263e-10
3.3873973e-10
2.6163972e-09
8.2666739e-06
0.00011461178
3.1461372e-05
0.00019266776
6.8266823e-05
1.0930114e-07
4.5934331e-09
5.6677018e-09
5.0522211e-09
0.00022291407
8.6811871e-05
1.0313166e-09
1.6569572e-10
5.5266552e-05
6.1409494e-06
4.7023087e-05
0.001595354
6.187845e-05
0.00015961466
1.7997452e-06
0.0026154257
6.9369907e-05
2.1732078e-09
0.00056241551
0.0032178839
0.0009624364
3.1262599e-05
1.9765783e-09
0.0016147978
0.00022821458
1.0491402e-09
5.4580104e-10
5.5394547e-10
0.034221218
0.040916766
0.0070851168
8.0048109e-10
7.4991236e-10
8.0028638e-10
1.0324019e-09
5.1705779e-10
0.01513125
4.3083606e-08
7.5520251e-10
7.9943921e-10
5.896893e-10
4.1315052e-10
2.6217769e-10
2.6217729e-10
2.6217697e-10
0.0022218333
0.00024306834
1.0275277e-09
0.0039720224
0.00044300785
9.4025757e-06
1.5878757e-09
1.5018024e-09
0.0026835666
0.0024043995
0.0058372068
1.3798004e-09
5.1056687e-07
2.2901038e-09
1.7672606e-10
2.5342748e-11
8.9672612e-12
4.4731807e-12
6.3523738e-12
2.3561284e-11
1.5488714e-10
2.1740637e-10
5.794092e-11
1.4547815e-10
1.5321807e-09
1.831801e-05
0.00030013801
0.00029893866
0.00010639821
5.1949544e-09
2.4910641e-07
5.8701894e-09
3.5076264e-05
1.213117e-08
0.00028415062
5.2966773e-05
2.0378311e-09
7.8097794e-10
1.5840351e-05
7.1544914e-06
0.00039816122
2.8518454e-09
2.8116756e-09
2.8116534e-09
0.0025128716
0.0013941556
2.6167841e-09
2.170636e-09
1.7494667e-09
2.9885543e-05
0.0011637187
0.00032450981
1.8996239e-09
1.9132991e-05
0.00020106717
1.9140669e-05
5.3790609e-10
0.044899283
0.043899452
8.6211732e-05
6.7555325e-10
9.8500905e-09
2.4074793e-08
5.2772893e-09
9.8083321e-10
7.9306571e-10
0.0025007303
1.2487312e-09
9.890957e-10
1.1828769e-09
1.1319929e-09
8.0043082e-10
2.8228607e-09
6.3858111e-10
6.1252434e-10
8.0241808e-10
1.01615e-09
1.2091407e-09
1.4441052e-09
1.5005381e-09
1.1451677e-06
2.2545285e-05
1.5608971e-09
0.0010275451
0.00069711779
1.3740732e-09
1.2040398e-09
1.2434265e-09
1.1523681e-09
2.0245165e-10
4.0093705e-11
1.5971852e-11
5.3816018e-12
2.5449144e-12
1.232401e-11
9.0350623e-11
1.1979637e-10
1.380392e-11
1.3505757e-10
1.1814254e-09
1.1840853e-09
1.9505364e-09
0.00033615861
5.1793449e-09
3.9668066e-09
4.3191783e-09
5.8512735e-05
5.9933135e-05
4.2592109e-05
3.5000334e-05
3.8102137e-09
2.7497141e-09
5.7996928e-07
6.9215048e-08
1.3498376e-06
0.00012828077
1.0077836e-05
3.2964817e-09
2.8116535e-09
0.004353858
0.00073894884
2.6220166e-09
4.1484155e-05
1.7981349e-09
1.1097163e-09
1.0939647e-09
1.0943e-09
1.4739152e-09
2.0491643e-08
1.0256475e-09
5.3677449e-10
5.3666376e-10
0.044051485
0.0052872507
7.1612821e-06
9.7088369e-10
1.216861e-09
1.8466339e-07
3.1063968e-09
1.2059853e-09
0.0097148566
7.2442277e-05
0.016425104
0.00060439987
9.3458422e-10
1.1728048e-09
1.0084741e-09
1.0335289e-08
8.4208748e-10
8.918664e-10
6.7885261e-10
0.00027953705
0.00053640415
0.00021157616
0.00011080992
7.3673392e-06
1.9013344e-10
5.2813644e-06
1.0033783e-09
1.0051787e-09
1.6152002e-07
1.9792061e-09
1.1248556e-09
1.284808e-09
2.7405741e-10
7.1416734e-11
3.1830771e-11
1.0797221e-11
1.8972308e-12
4.6478767e-12
4.1100365e-11
5.4251407e-11
3.3900791e-12
5.6328894e-11
8.2924946e-10
1.9111102e-09
3.2876026e-05
0.00032263478
2.6447167e-06
4.8416058e-05
0.00010252784
0.00010158068
7.9293188e-08
0.00061620395
3.9563597e-09
3.6824432e-09
8.1504791e-05
2.0727262e-06
3.1157776e-07
4.3966967e-09
0.00018250248
1.2040044e-06
1.6284641e-08
2.811661e-09
0.0023700564
0.0032624744
0.009118559
0.00047992714
0.0021381257
8.0025248e-07
1.3685124e-09
8.6044316e-08
0.00012195692
1.5209059e-05
1.3126957e-09