/*--------------------------------*- C++ -*----------------------------------*\
| =========                 |                                                 |
| \\      /  F ield         | OpenFOAM: The Open Source CFD Toolbox           |
|  \\    /   O peration     | Version:  2.3.0                                 |
|   \\  /    A nd           | Web:      www.OpenFOAM.org                      |
|    \\/     M anipulation  |                                                 |
\*---------------------------------------------------------------------------*/
FoamFile
{
    version     2.0;
    format      ascii;
    class       volScalarField;
    location    "1e-05";
    object      k;
}
// * * * * * * * * * * * * * * * * * * * * * * * * * * * * * * * * * * * * * //

dimensions      [0 2 -2 0 0 0 0];

internalField   nonuniform List<scalar> 
7500
(
1.0000093e-05
1.0006438e-05
1.0013371e-05
1.004621e-05
1.0096354e-05
1.0107126e-05
1.012833e-05
1.0140812e-05
1.0165271e-05
1.0189333e-05
1.0232655e-05
1.0264127e-05
1.029437e-05
1.0294132e-05
1.0307521e-05
1.0339382e-05
1.0363448e-05
1.0390178e-05
1.0410873e-05
1.0447677e-05
1.0495821e-05
1.0507828e-05
1.0509783e-05
1.0520409e-05
1.054512e-05
1.0558716e-05
1.0575028e-05
1.0595335e-05
1.0645168e-05
1.0744233e-05
1.0789201e-05
1.0884429e-05
1.0963556e-05
1.1025081e-05
1.1050446e-05
1.1054241e-05
1.1059832e-05
1.1083102e-05
1.1102322e-05
1.1132921e-05
1.1165893e-05
1.1243225e-05
1.1353225e-05
1.1481805e-05
1.1623889e-05
1.1894856e-05
1.2012655e-05
1.2196952e-05
1.2341879e-05
1.2590229e-05
1.2839057e-05
1.3269787e-05
1.3629743e-05
1.4006168e-05
1.4248452e-05
1.463693e-05
1.4957178e-05
1.5537732e-05
1.5983543e-05
1.6860357e-05
1.727365e-05
1.8066359e-05
1.885573e-05
2.0058151e-05
2.144845e-05
2.2705046e-05
2.3680156e-05
2.5411634e-05
2.6744606e-05
2.9963365e-05
3.2584379e-05
3.3454243e-05
3.4811654e-05
3.6255896e-05
4.1966046e-05
1.0000016e-05
1.0005515e-05
1.0021665e-05
1.0048225e-05
1.00733e-05
1.0096941e-05
1.0141751e-05
1.0174533e-05
1.0233387e-05
1.0261871e-05
1.0288129e-05
1.0311818e-05
1.033036e-05
1.0344339e-05
1.0365168e-05
1.0399505e-05
1.0422819e-05
1.0449805e-05
1.0465179e-05
1.0472141e-05
1.04827e-05
1.0498154e-05
1.0508508e-05
1.0513115e-05
1.0520485e-05
1.0532206e-05
1.054891e-05
1.057398e-05
1.0615175e-05
1.0650033e-05
1.0673423e-05
1.0705133e-05
1.0739551e-05
1.0772577e-05
1.079956e-05
1.0844894e-05
1.0908495e-05
1.096307e-05
1.1079089e-05
1.1171616e-05
1.1307185e-05
1.1397348e-05
1.1593687e-05
1.1738157e-05
1.2019072e-05
1.2259992e-05
1.246662e-05
1.2836372e-05
1.3099728e-05
1.3729147e-05
1.4054327e-05
1.4672597e-05
1.4991301e-05
1.5650416e-05
1.6075165e-05
1.6934852e-05
1.7397372e-05
1.8451707e-05
1.9233221e-05
2.0848037e-05
2.1856347e-05
2.340623e-05
2.6671236e-05
2.8273387e-05
3.1591265e-05
3.3788133e-05
3.7443154e-05
3.9940946e-05
4.501335e-05
4.7333713e-05
5.2309534e-05
5.6039379e-05
5.9803026e-05
6.2739679e-05
7.3006759e-05
1.0006387e-05
1.0040791e-05
1.0135795e-05
1.0330197e-05
1.0453869e-05
1.0678008e-05
1.0822359e-05
1.0900393e-05
1.1011501e-05
1.1073612e-05
1.111334e-05
1.1147287e-05
1.116786e-05
1.118224e-05
1.1202683e-05
1.1234326e-05
1.1243779e-05
1.1256949e-05
1.1277253e-05
1.1293661e-05
1.1303668e-05
1.1312109e-05
1.1320846e-05
1.1334457e-05
1.1368615e-05
1.1416625e-05
1.1475535e-05
1.1526686e-05
1.1622603e-05
1.1688909e-05
1.1753407e-05
1.1869223e-05
1.1983714e-05
1.2082933e-05
1.2184578e-05
1.2312594e-05
1.2488702e-05
1.2671409e-05
1.3067836e-05
1.3428528e-05
1.4099601e-05
1.4515636e-05
1.5375657e-05
1.6010045e-05
1.70338e-05
1.7870352e-05
1.8730834e-05
2.0603888e-05
2.223581e-05
2.638022e-05
2.8286456e-05
3.2527594e-05
3.4972299e-05
3.986438e-05
4.2826867e-05
4.8927066e-05
5.2805134e-05
6.0807117e-05
6.4945543e-05
7.3240846e-05
7.8645451e-05
8.8595882e-05
0.00010931131
0.00011789404
0.00013458733
0.00015530333
0.00016828046
0.00018927885
0.00022408474
0.00023219801
0.00025146724
0.00027948936
0.00028925471
0.00030148633
0.00034670518
1.013312e-05
1.0657651e-05
1.1009283e-05
1.1754616e-05
1.2000951e-05
1.2577577e-05
1.281848e-05
1.2996582e-05
1.3226825e-05
1.3284344e-05
1.3358157e-05
1.3380574e-05
1.342042e-05
1.3437092e-05
1.3464961e-05
1.3532573e-05
1.3590833e-05
1.3714799e-05
1.3823633e-05
1.3918906e-05
1.3968613e-05
1.4028036e-05
1.4097586e-05
1.419783e-05
1.4424491e-05
1.4634087e-05
1.4940613e-05
1.5165833e-05
1.5573994e-05
1.605214e-05
1.6511271e-05
1.735534e-05
1.818547e-05
1.9188952e-05
2.0268257e-05
2.1762523e-05
2.376372e-05
2.5841694e-05
3.0415114e-05
3.473881e-05
4.2672218e-05
4.7103614e-05
5.6448559e-05
6.2782476e-05
7.2587882e-05
8.2392745e-05
9.3079207e-05
0.00011679127
0.00013408255
0.00017992358
0.00020105426
0.00025091881
0.00027584099
0.00032647331
0.00035633709
0.00041914609
0.00045542639
0.00052867556
0.00056318862
0.00062581178
0.00066658289
0.00074919572
0.00091960431
0.0009857124
0.0011030503
0.0012845071
0.0013841876
0.0015682248
0.0018046219
0.0018470599
0.001974645
0.0021695196
0.0021998856
0.0022501117
0.0024877054
1.0276041e-05
1.1733844e-05
1.2205888e-05
1.3225709e-05
1.3516245e-05
1.393487e-05
1.435569e-05
1.464167e-05
1.5198741e-05
1.5379648e-05
1.5609219e-05
1.5771399e-05
1.5857606e-05
1.5970319e-05
1.6079813e-05
1.6366883e-05
1.6675087e-05
1.7395863e-05
1.8088723e-05
1.8812027e-05
1.9198515e-05
1.9680001e-05
2.0383897e-05
2.1087648e-05
2.264883e-05
2.4042261e-05
2.6630662e-05
2.8771618e-05
3.2458374e-05
3.8118959e-05
4.326115e-05
5.295642e-05
6.1434965e-05
7.5693846e-05
8.7369826e-05
0.0001065014
0.00013175475
0.00015625237
0.00021060547
0.0002610652
0.00035498577
0.00040253972
0.00050547398
0.00057111416
0.00068153293
0.00078083402
0.00089307452
0.0011391517
0.001293868
0.0017269539
0.0019382609
0.0024220972
0.0026209532
0.0030604778
0.0033182543
0.0038561695
0.0041417627
0.0047121553
0.0049648575
0.0054042541
0.0056995542
0.0062901356
0.0075383901
0.0080114619
0.0087943146
0.010018003
0.010656947
0.012038159
0.013444124
0.013648689
0.014430968
0.01537818
0.015391603
0.015620863
0.016827784
1.0125548e-05
1.0880972e-05
1.1650117e-05
1.2493523e-05
1.3867684e-05
1.4387871e-05
1.5359539e-05
1.5937042e-05
1.666572e-05
1.835395e-05
1.8840914e-05
1.9773534e-05
2.0045305e-05
2.0409625e-05
2.0747367e-05
2.170436e-05
2.3014301e-05
2.5965353e-05
2.8388564e-05
3.1306244e-05
3.3890305e-05
3.650758e-05
4.1845035e-05
4.7562225e-05
5.8947672e-05
7.01423e-05
9.1784898e-05
0.00011490365
0.00015092651
0.00021833099
0.00027448151
0.00038015175
0.00046780783
0.00063107788
0.00075067511
0.0009481155
0.00120496
0.00144333
0.0019653191
0.0024226052
0.0033029193
0.0037073862
0.0045887051
0.0051309308
0.0060805893
0.006865919
0.0077525015
0.0097060398
0.010844482
0.014012619
0.015526223
0.018974212
0.020244433
0.023162176
0.024877548
0.028384489
0.030016921
0.033426933
0.034879563
0.037185048
0.038843022
0.042354092
0.048875124
0.051322045
0.05577088
0.061870395
0.06487341
0.072841123
0.078948415
0.078773474
0.081955169
0.085301229
0.085089653
0.085829073
0.090712922
1.1190389e-05
1.7986954e-05
1.9177752e-05
2.2724658e-05
2.3860085e-05
2.4013397e-05
2.4533849e-05
2.5187227e-05
2.7376689e-05
3.2220971e-05
3.3262375e-05
3.5899527e-05
3.6391856e-05
3.7254341e-05
3.786255e-05
4.0329984e-05
4.466889e-05
5.3877521e-05
6.1814938e-05
7.7131729e-05
9.7856903e-05
0.00012152203
0.00017390792
0.00022761264
0.00033535302
0.00043776145
0.00063535393
0.0008745115
0.0011888456
0.0018497696
0.0023717285
0.0033063827
0.004081582
0.0055156387
0.0064711579
0.0081359723
0.01007316
0.011927381
0.015806716
0.018951251
0.025197586
0.027877768
0.03377942
0.037108618
0.043174376
0.047841375
0.05299238
0.064734632
0.071242984
0.088785191
0.097027814
0.11531377
0.12097565
0.13501153
0.14319233
0.15968303
0.16684714
0.18169211
0.18806119
0.19752449
0.20369642
0.21804502
0.24358452
0.2522308
0.26960058
0.29422835
0.3041935
0.33454305
0.35097995
0.34697161
0.35759895
0.36496479
0.3623681
0.36455256
0.3796496
1.019359e-05
1.2446942e-05
1.4632628e-05
1.7330352e-05
2.27159e-05
2.4344928e-05
2.7581574e-05
2.9971879e-05
3.4750421e-05
4.3369398e-05
4.5679528e-05
4.9263272e-05
5.1076846e-05
5.4081741e-05
5.9684914e-05
7.0956768e-05
9.2727345e-05
0.00013508741
0.00019596748
0.0003248397
0.00052014668
0.00074475165
0.001277894
0.0017528247
0.002716737
0.0035641985
0.0051668603
0.0073131486
0.0095195188
0.014449416
0.018551296
0.024317189
0.0308762
0.039683441
0.045394356
0.056530721
0.067153458
0.078715004
0.10031038
0.11716058
0.15068807
0.16423729
0.19494724
0.21028339
0.24032538
0.26046762
0.28349263
0.33435771
0.36060058
0.43358519
0.46638966
0.5414217
0.55964751
0.60960328
0.63886881
0.69361443
0.71764053
0.76701213
0.78883039
0.82073241
0.83569188
0.87276647
0.95424564
0.97470422
1.0209478
1.0977208
1.119237
1.1904247
1.225529
1.2020318
1.230642
1.2508104
1.2403124
1.2454847
1.2874754
1.3653447e-05
3.515017e-05
3.7736231e-05
4.5778335e-05
4.9828347e-05
5.0690691e-05
5.0936186e-05
5.1407378e-05
5.1839759e-05
5.3574998e-05
5.7576835e-05
6.5302785e-05
8.0114176e-05
0.00010701309
0.00015898024
0.00025695184
0.00045094791
0.0007985892
0.0013460865
0.0024906535
0.0041692139
0.0059336309
0.01032352
0.013763847
0.02084017
0.02649482
0.036732849
0.052056266
0.064393691
0.091394902
0.11927968
0.14193438
0.18601755
0.2255354
0.25293081
0.31141753
0.35236702
0.42230983
0.48956376
0.57545061
0.71464479
0.76667226
0.89031868
0.94648762
1.062111
1.1376071
1.2125354
1.3892615
1.4720465
1.7106516
1.8070087
2.0507287
2.0954531
2.2316161
2.3293976
2.4821708
2.5454783
2.7012064
2.7677176
2.865231
2.8767179
2.9309415
3.1289248
3.163402
3.241268
3.4241788
3.4406525
3.5603203
3.7024301
3.6233163
3.6975383
3.852214
3.843484
3.8589289
3.9787359
1.3697177e-05
4.2892236e-05
4.8501443e-05
6.3158505e-05
7.3587686e-05
7.3107739e-05
7.5507752e-05
7.6745271e-05
8.9456634e-05
0.0001161036
0.00015237631
0.00021983381
0.00035293467
0.00060081894
0.0011043332
0.0019721241
0.0038367186
0.0064748945
0.01099193
0.018937419
0.031141201
0.04247701
0.07073428
0.090224419
0.13091106
0.16117416
0.21114144
0.29516265
0.35036032
0.46280937
0.60187426
0.68855355
0.86742152
1.0269689
1.1442251
1.3757104
1.5171176
1.8057322
1.9725151
2.3153682
2.7924144
2.9639161
3.3840184
3.5653662
3.9423425
4.2024798
4.3929906
4.8892433
5.1182146
5.8201197
6.0841476
6.7945858
6.9065572
7.2100995
7.6663306
8.0799179
8.2781186
8.9454348
9.1915687
9.3593094
9.1521244
9.1572408
9.4538625
9.4277728
9.5452088
10.031941
9.9632876
10.298506
11.492857
11.399698
11.785766
12.915154
13.195624
12.965332
12.898335
1.0290658e-05
1.4265351e-05
2.0776557e-05
2.4941464e-05
3.2990543e-05
3.8829415e-05
4.6572563e-05
6.506831e-05
0.00011021335
0.00021983473
0.00047037519
0.00099158426
0.0020923872
0.0040988947
0.0085462969
0.014753988
0.028777169
0.045349803
0.079343443
0.11564108
0.18893854
0.24805553
0.38600367
0.47139037
0.65310651
0.79219064
0.97416142
1.3308656
1.53834
1.9274481
2.4556618
2.7516049
3.3832372
3.8945767
4.3930845
5.1271287
5.5727233
6.5439514
7.0648134
8.3042923
9.7435685
10.295187
11.794602
12.367451
13.576641
14.434483
14.893251
16.1393
16.837519
18.973428
19.979222
22.188564
22.683053
23.914886
26.393477
28.036205
29.06096
32.831282
33.198721
33.594742
29.037991
29.903014
29.224658
30.389104
30.472414
32.510112
31.796336
35.287345
45.190085
45.15772
54.858977
57.670692
56.332602
50.04555
44.996162
1.3262584e-05
2.8817326e-05
3.1299711e-05
3.4655227e-05
3.9423911e-05
5.6745646e-05
0.00011072837
0.0002624727
0.00064016425
0.0015033745
0.0034217462
0.0071790729
0.0157977
0.029038325
0.059914114
0.095769127
0.17814344
0.26270755
0.4330691
0.59595414
0.9265429
1.1610467
1.6884793
1.9987845
2.6528519
3.1995932
3.7639095
4.9724942
5.688412
6.963131
8.7427185
9.6977732
11.877553
13.443503
15.203905
17.785984
19.413002
23.002607
24.696062
29.37507
33.490883
35.552537
42.974362
44.564492
49.707849
52.310248
52.221695
57.284723
60.582429
68.259435
74.592791
80.755542
86.554694
99.699616
117.16561
118.80153
128.8695
143.12921
137.17814
122.40306
82.121323
86.708508
85.918318
93.647324
103.46263
114.03362
105.82394
164.77078
169.58207
175.15234
199.76272
177.21196
129.27347
118.42294
109.84542
1.3945574e-05
3.5906022e-05
3.9220307e-05
5.3999664e-05
9.7489499e-05
0.00024705017
0.00069031063
0.0018618205
0.0046229158
0.010638119
0.023963016
0.047469061
0.10345138
0.17482534
0.34371749
0.5126202
0.89658141
1.2490962
1.9093146
2.5291943
3.7190753
4.4726635
6.1697957
7.2070591
9.3510021
11.082648
13.106184
16.932937
19.206736
24.001999
30.074788
33.296931
41.1731
45.694196
52.787864
66.243213
72.929355
89.161722
92.673871
112.78333
125.44738
135.73398
195.15494
180.18224
215.15065
215.61476
184.65772
241.26242
248.33132
288.02704
307.29229
312.29275
334.92301
378.79438
350.30693
379.81489
392.8119
356.31505
280.83823
144.52072
140.2572
135.4642
166.80006
207.65878
208.75542
200.31798
232.97036
334.65571
241.14797
282.67512
193.72497
102.36814
89.418041
79.21146
58.951611
1.1777333e-05
2.0125026e-05
3.6716938e-05
0.00012231157
0.00044915879
0.0015442366
0.0046070287
0.012184653
0.029324756
0.065199333
0.14506452
0.26523074
0.55427847
0.86677765
1.6051876
2.2577656
3.6916327
5.0025858
6.8642004
9.3243497
12.601517
14.924985
20.578858
24.058356
31.477627
36.763404
46.389705
57.429969
65.426192
92.174074
108.79466
120.41314
155.70636
168.45778
224.1312
302.24102
319.54861
392.93115
359.63109
517.7719
495.3888
622.38037
635.76225
546.1756
610.8105
510.70505
501.4155
540.66369
548.20134
550.06785
413.47615
414.76276
408.37064
390.09907
280.94426
403.20536
270.7261
115.95307
79.352435
47.208206
84.081299
87.09156
140.81565
146.45295
98.912744
138.40824
215.63853
138.80084
70.584143
83.271368
67.026509
49.13864
40.285526
39.041793
33.910412
1.0622191e-05
2.578543e-05
0.00012618887
0.00070062585
0.0029098283
0.0098615235
0.02826536
0.07067206
0.16270802
0.34794506
0.71960464
1.2509233
2.4390148
3.5805075
6.2680654
8.4378524
13.030748
17.294433
22.220981
30.766366
39.135562
48.092186
72.374531
82.257771
113.21846
131.41319
181.38261
211.59383
249.48065
446.99592
435.93018
490.38982
680.27359
675.07932
968.87529
929.96561
1049.7064
908.7782
745.30177
877.25734
778.17993
876.83172
420.67933
603.04714
266.81624
214.03331
568.26044
306.00844
242.23071
135.80937
75.406873
67.733605
56.117136
47.13279
41.076333
46.538581
40.854638
35.938085
38.632271
34.611748
37.493884
40.201791
42.306023
40.564829
33.721614
37.843918
54.371825
42.464385
34.08014
35.101223
46.827473
48.401975
46.500112
41.107367
38.772651
9.7737317e-06
8.302025e-05
0.00077161566
0.0043986894
0.017513533
0.055645909
0.15111855
0.35416628
0.79010932
1.6268279
2.9413484
5.1515988
8.868868
12.720397
21.595799
28.176638
42.434164
54.545933
71.681013
99.620334
127.99117
176.65299
295.03896
290.17092
496.07164
535.91377
870.8905
844.00899
1225.8892
1328.0857
1032.9784
1236.2376
1176.4358
1137.8091
1076.7472
802.80289
542.76666
171.18799
417.22306
197.82532
275.28951
150.40488
62.94467
76.803197
59.062813
66.54354
142.02983
85.125283
55.958951
60.151116
57.809178
53.7329
35.628412
26.182364
22.483513
22.708277
36.951889
39.225326
43.416877
43.476114
38.60224
32.918649
33.513891
34.479382
39.117474
60.5525
52.730976
43.35364
49.60064
51.880355
47.204737
48.766569
46.471852
42.878644
35.516001
1.0958008e-05
0.00052122664
0.0048520907
0.025465671
0.093314784
0.27420585
0.70502345
1.5346145
3.4366931
6.0643698
10.815511
18.908492
27.584708
42.651635
70.576615
90.128076
139.68153
178.97013
250.28649
369.16569
518.86288
873.20921
917.79202
1011.6801
1420.7533
1385.1197
1745.0743
1253.7671
1891.5922
574.71253
446.43783
316.53144
185.38393
283.55528
119.80713
133.52112
91.225305
101.50732
112.57249
76.389576
59.575855
44.922541
30.231963
33.91976
34.438775
35.297363
75.174258
62.642514
59.012704
48.754218
49.080468
50.376075
43.734782
28.687609
23.86859
27.045462
41.426847
48.318901
53.569388
46.923276
36.241021
34.633308
41.09042
36.367273
41.722394
40.519497
43.314332
42.478489
46.593002
43.992947
43.892252
47.362125
46.084445
43.01347
37.404322
1.7649105e-05
0.0032960694
0.027749828
0.13110528
0.43711904
1.1803784
2.9023882
5.7665496
12.422281
20.216041
37.585469
58.236808
87.313175
156.96784
225.28767
298.95626
530.99116
677.10859
1046.7988
1445.6112
1551.6541
2033.3868
1070.5635
1468.7828
997.43915
762.78514
447.8023
528.53036
449.86694
45.942794
47.296207
62.077102
48.886187
49.000855
62.60605
36.813257
61.163849
47.903578
61.389601
53.271458
41.27191
32.961312
29.475621
40.882415
36.793673
40.047083
79.120529
57.422129
49.012769
35.363642
53.520618
51.644433
46.503595
33.315411
38.40373
45.663105
48.713038
52.50389
52.089674
47.864307
36.695596
36.574088
37.100915
35.318083
35.951654
45.028019
46.074305
48.225632
44.768799
37.952566
43.532148
48.546314
49.433549
46.207152
44.517782
2.5867072e-05
0.018626527
0.14013741
0.59204635
1.7887236
4.4487337
10.152809
19.239758
39.21124
63.902473
122.13638
182.41157
303.83621
608.80349
789.34192
1186.4516
1517.2746
1646.9431
1983.6146
1822.9202
1003.4527
549.16271
133.24499
224.03229
104.56725
115.28141
68.152631
127.84369
45.565292
25.208771
18.481472
50.5134
35.634949
25.37406
40.365327
35.400769
81.18462
74.50411
68.545356
52.879873
45.583757
29.236263
30.201126
26.402002
30.922687
47.657309
79.720249
58.423667
37.449445
32.058808
34.398724
65.402615
58.548154
35.81122
58.193722
53.706687
44.754616
57.989587
63.780483
54.492455
42.686378
38.405998
46.182652
48.028445
40.411433
35.883072
37.177262
51.181251
47.930915
41.805517
48.159396
62.663511
58.739679
62.345115
66.46934
0.00091244539
0.09897273
0.63265717
2.357422
6.4414643
14.854168
31.585842
60.463942
120.50508
205.7925
414.44816
655.88717
1254.9786
1761.3388
1716.6759
1942.698
1407.0715
1163.8465
943.78257
384.61002
119.16782
43.252024
46.896679
71.248358
39.343887
24.346035
23.778714
27.628603
18.09235
25.165993
20.333316
40.836154
27.873408
27.355418
25.074746
53.451377
144.31868
78.198944
59.503429
60.90887
48.400133
28.525377
30.241283
27.130534
28.157202
47.891187
58.001922
51.732084
32.064641
31.39718
28.340618
39.369776
41.706709
39.335515
41.493549
45.91066
43.224177
57.080762
68.356793
62.439806
41.953668
43.851924
44.954491
44.143951
43.128142
50.183148
41.331252
37.534887
44.348759
48.262921
50.711116
85.374094
79.376085
77.893443
115.90314
0.0095185449
0.46773745
2.534596
8.2932689
20.68015
45.416578
94.89478
192.05534
391.2785
745.12069
1613.1636
1786.0138
2266.3854
1673.3302
647.62135
555.64878
224.42887
235.07955
153.66889
31.033769
21.653778
12.280673
53.782709
52.503075
40.524265
28.326835
12.867031
22.220636
34.234506
20.998129
20.86344
16.920499
30.671668
60.544283
35.072152
42.405988
132.95148
78.000671
52.561104
44.134324
40.336732
28.826033
31.356279
32.922828
31.900111
34.172964
51.752041
50.307506
31.336797
24.841294
24.791106
35.869508
42.373995
44.340231
45.423239
40.503394
40.373158
47.891068
74.706211
76.679482
51.51111
44.957025
42.909444
41.364666
42.871157
41.470384
41.379692
35.200268
34.566984
36.241817
49.146528
90.155167
85.240435
92.016666
89.675623
0.070793141
1.9775553
8.9949213
26.05963
60.942214
133.63679
298.56957
660.45086
1495.123
1981.1125
2273.9418
1756.8182
839.15084
227.54424
79.190157
78.153114
29.119649
70.234019
25.035653
7.533229
11.616175
16.10967
31.381721
86.752148
45.023315
22.026883
17.139751
11.093092
84.582545
19.081736
16.665322
19.247945
33.439359
31.326171
58.328021
34.761496
87.956863
71.608881
48.687908
45.188082
38.260315
28.909317
32.18373
33.063276
32.072321
36.351757
66.214063
49.437167
30.943687
26.485318
25.215584
34.178147
44.380101
50.590808
44.094351
39.126391
41.035518
50.829453
72.740234
88.209047
66.614826
47.170801
46.042316
43.89173
43.977549
41.105474
37.295267
35.917775
36.154759
36.103626
58.740496
137.81173
121.62636
94.814965
87.012479
0.42975597
7.4778117
28.5299
75.065915
172.67301
404.50506
1070.0744
1885.6654
2451.2329
1991.5957
660.21094
360.24884
100.62482
38.780559
18.384725
16.793045
8.5246383
31.468917
28.845077
6.0550723
10.257328
28.554987
33.966425
213.27668
24.092361
17.72529
14.837536
13.402559
68.11645
19.074122
15.278367
17.808842
18.518099
43.132999
31.790017
27.933223
71.264517
66.772024
52.313188
50.866397
30.597886
31.849148
30.492896
36.38849
33.353371
43.863361
79.274522
42.212378
34.122422
33.332773
30.397381
27.508351
38.470874
39.115971
46.595027
45.638494
53.299419
62.433626
70.83612
71.096823
64.993408
50.642586
46.208866
50.240152
50.129307
47.590178
35.745959
34.989614
38.54227
43.542245
85.139199
223.07067
195.01742
113.90437
114.43332
2.2481196
25.339958
82.50603
205.91174
502.38895
1396.2906
2051.5317
2026.9113
1157.5453
533.86148
125.52073
58.944002
12.289848
20.415851
14.134941
9.7629334
5.2290726
25.107615
34.777521
5.8837617
12.772246
32.895878
43.484289
204.71029
14.649753
17.507337
21.442629
16.522117
13.594983
15.886997
15.1239
20.873396
18.098009
18.537775
23.846382
31.434651
75.553086
84.656297
105.78257
58.068859
31.208935
34.40747
32.353331
57.614389
34.203661
37.469542
57.647622
36.853705
37.625704
34.988103
31.165261
32.663413
51.884836
56.026017
56.322901
54.012255
63.76911
65.957094
63.549189
61.396611
58.76933
47.390767
40.078022
44.08161
60.252158
55.758656
41.043188
41.817288
51.752635
58.903372
139.33039
268.76839
250.84561
163.60319
165.99418
10.387851
77.83253
223.26571
571.28972
1629.1232
2265.2149
1428.829
641.83692
340.19474
123.47474
145.52105
23.433017
6.553836
12.087181
12.731827
7.740131
3.997445
24.645089
16.430882
5.3877912
10.37197
22.460123
36.996981
97.915591
15.393324
14.32398
47.786303
20.334201
12.253341
17.323536
14.738743
17.322105
24.82805
21.913842
22.834915
29.394169
82.989618
81.259413
113.91776
57.884376
32.302349
32.161871
32.905528
30.897254
23.145075
24.702568
38.655601
35.723978
36.903051
30.676049
28.873197
34.496506
83.199953
71.055832
61.188232
65.87161
66.868598
64.6735
64.144683
58.605249
56.695044
47.605552
38.255555
39.575004
51.792701
51.355479
51.541453
54.851905
71.090049
78.538156
152.41351
290.02877
284.89574
228.84539
141.15407
43.274635
218.71439
592.07251
1690.6355
2256.9308
1222.8533
479.19785
222.64176
100.88272
88.734024
62.234026
31.294133
5.7842812
11.398783
11.28409
7.0121963
3.057044
22.008905
6.9600456
6.6005509
10.657133
17.366923
32.741714
39.666725
13.577476
12.451047
55.650614
22.57126
14.438426
21.437434
14.630643
17.142688
22.960624
23.387907
20.601288
23.972915
54.430894
73.762475
83.295715
52.855407
30.490002
32.302744
34.980329
27.979281
23.311852
24.274822
37.574953
36.002865
34.076767
31.007121
32.222212
33.953996
66.468553
63.623749
61.728535
73.661989
70.72831
69.120752
66.80744
58.700909
55.459072
47.765133
38.536611
43.066604
52.458729
70.54195
81.376396
89.18394
86.373802
98.615266
146.46709
303.16103
360.05872
217.34635
123.98124
166.24957
568.53317
1660.0061
2189.9237
1066.9524
396.11358
116.86817
64.634438
46.336734
88.032027
74.385098
26.298138
5.5530331
9.8745014
10.458091
7.5325149
3.3513717
13.494275
6.5719992
7.5728167
10.583346
20.967321
19.880346
39.157514
10.928468
11.131447
44.47061
23.13458
18.584632
24.71501
15.578475
15.909441
22.414332
19.743184
19.767164
27.766045
30.527596
62.372077
65.145971
52.607015
30.528833
35.824676
39.304988
33.066059
31.710135
25.574234
32.93096
31.964747
32.74854
40.434163
44.558617
37.537063
41.315629
50.249783
51.895359
59.988482
69.283707
73.728601
68.89976
59.657567
52.181167
52.366488
41.600293
52.134568
74.259326
145.51522
121.29596
260.96146
165.40623
117.68314
141.07256
313.9197
417.09698
237.8255
125.50412
507.57016
1491.4605
2702.851
1300.7348
345.98086
98.765378
25.034812
27.008582
23.819708
23.953673
46.358476
23.722183
5.5476786
10.303605
10.579555
8.0727226
3.8671832
6.9346951
9.645615
8.9376938
10.742625
25.461511
12.884885
49.135735
10.373524
12.869892
19.376748
25.440583
19.260259
26.038454
16.766435
14.693472
19.986561
18.701586
18.634808
38.286573
23.135782
24.421659
52.717776
43.543774
36.679592
40.019007
45.622206
37.185762
43.440794
29.815244
32.089
33.685068
35.663085
37.583986
50.549196
49.351896
49.23561
53.626631
57.521332
58.325814
93.108028
87.96707
69.808807
58.95017
49.975015
52.465627
41.725584
45.017059
106.64842
104.2326
97.151622
187.40979
199.19816
128.53873
138.75981
275.34822
343.48772
250.9216
119.60025
1484.2903
3029.9895
2242.7557
486.42287
72.648645
20.608603
9.0966765
15.798258
15.634356
14.131817
10.297389
19.636204
6.0013895
11.574902
14.559635
7.406029
4.7875044
5.1815989
13.686895
11.476705
10.371891
23.472045
12.420637
53.524336
10.56419
21.851759
20.896002
22.877381
11.994847
24.640071
18.194583
15.135248
16.478891
19.072097
19.517635
32.061667
19.564066
18.266766
46.174009
51.577435
41.784685
40.63269
48.971123
45.06736
57.099771
39.208695
32.424783
36.31341
39.260799
45.007647
46.589099
43.397323
86.061918
59.0489
61.617846
79.285559
133.86138
95.61165
62.925063
59.218627
52.960414
46.04248
40.317381
47.271971
120.71163
118.88894
94.591258
75.766676
203.95357
188.83904
190.84495
248.67098
336.34497
236.6232
142.98828
4234.8626
3281.8449
924.64974
78.96699
13.445256
6.1230241
5.836339
11.094511
11.020105
8.569694
5.6350351
13.982709
6.3289679
11.368387
22.637756
6.2580225
6.3404288
4.6597586
48.201273
12.179189
10.204812
18.383782
12.09093
49.31258
11.880256
14.295803
43.848162
18.777829
10.842917
17.281101
17.254424
15.073042
18.826647
18.848603
18.729631
21.2631
18.330991
17.010138
43.002807
29.896294
34.526572
38.378256
51.37364
53.415333
81.002435
48.585554
33.04039
35.12162
37.454804
42.554237
50.811006
45.062867
68.901635
48.185811
48.619098
100.47559
133.21277
86.50009
59.474766
57.61634
47.591728
48.704768
43.613555
63.65121
122.11126
189.55844
98.702333
74.094544
82.656588
310.6646
229.95231
299.91275
313.68352
207.82557
179.96431
7918.7375
1669.1266
192.0071
10.545583
4.4525754
3.7091606
4.8039737
8.7718267
8.79814
7.3878842
4.6581685
10.412589
6.2548422
9.9928959
25.011729
6.8483229
8.8633604
6.3327154
48.63117
12.112346
9.3910223
12.711401
10.741005
35.456426
12.66904
9.9568137
42.585465
20.382389
11.732438
12.113706
17.585085
14.868593
18.172182
17.053443
19.1382
18.992246
20.073147
17.2881
33.729225
25.944213
34.333505
38.029256
50.880429
52.355076
119.38836
58.125973
46.816417
40.89822
47.979271
47.150981
53.295857
47.999492
49.180448
44.423623
44.425819
86.001972
73.618524
61.632113
54.418166
56.821735
65.090017
54.722255
87.540792
107.08012
94.364822
82.462444
112.78263
92.070942
75.617392
164.55823
174.46389
333.64026
276.88858
209.43411
184.45441
1533.6545
290.77233
23.733807
3.9311226
3.7014711
2.7197809
4.3887411
7.4518315
7.4049145
7.6022106
4.4210322
7.7706652
6.1309585
7.9719833
24.769397
13.627735
11.595582
27.736632
18.664896
7.7475311
8.025788
10.555992
9.7346773
22.554716
12.969767
16.946605
25.3329
25.419719
12.56814
10.781271
18.273581
14.816894
18.697063
17.112172
19.673035
18.460784
20.359253
20.757917
23.402949
23.00956
36.583862
36.371859
40.573629
58.470274
191.31388
89.769063
50.567938
41.642353
48.874052
57.346461
55.653685
48.422627
44.017108
46.726429
44.78837
115.99973
79.160371
54.299981
52.057318
55.261484
55.791488
64.039669
84.357304
70.580814
58.000374
44.028233
18.985491
134.33566
58.112218
36.317948
86.789816
268.88887
273.85367
212.40618
128.19443
105.44216
30.841802
5.7788741
2.5220076
3.5580141
2.2067484
4.1997894
6.5891266
6.3516204
6.6733719
3.9477272
5.9262869
6.3619295
5.7485432
38.207136
16.722096
12.443628
23.972256
11.815646
7.4677541
7.4159866
9.4484608
10.233458
16.256485
13.947645
56.621458
74.223178
27.931531
12.425126
10.589117
15.477135
14.549557
21.316468
18.618645
17.031615
16.724172
14.701463
21.436951
20.458351
22.539138
30.866913
32.982384
37.805107
52.885688
305.69605
136.11602
56.038304
48.748944
44.23645
87.858181
49.256979
64.562972
47.936113
48.393365
45.772973
97.87941
61.958405
53.675839
55.127825
64.035884
56.827566
62.595991
63.157347
60.654648
51.241323
30.406053
9.5112248
128.251
9.883325
15.86451
59.5459
57.013294
208.11094
207.15595
151.47503
4.1416785
4.3202924
3.5460148
1.1124305
2.5408344
1.9323586
4.0694201
5.9298484
5.5394218
5.5868653
3.2115619
4.9185412
4.6785677
3.3780964
13.367268
13.652791
14.983126
29.268462
13.845831
8.0916479
6.9233292
8.2685498
9.9874652
13.029842
14.200016
42.284102
55.076963
22.548514
10.339024
10.519801
23.860723
15.234998
23.880832
18.92296
17.133513
15.255385
14.086351
18.761319
30.42231
30.303067
31.115038
32.41068
39.246376
76.077418
182.37797
130.01052
77.194283
59.077438
44.268543
52.666696
43.145308
60.344249
51.42104
45.299445
45.621634
63.131146
51.909422
56.018165
67.657431
93.258418
74.012784
61.855566
73.542744
75.04017
50.388238
23.156116
3.1242899
11.505126
2.5041775
7.5957622
14.018648
21.733498
170.06474
180.37091
102.45516
1.0576669
1.7715081
3.0223375
0.84391434
1.5865973
1.7903613
4.0325228
5.4981401
5.1781745
5.4930454
2.9796658
4.5450334
3.7967005
3.2081156
4.0255832
8.8415903
14.708661
28.628423
14.923041
8.4732069
6.8228818
8.1594077
10.683024
10.783102
11.856418
102.97904
37.506513
17.52897
8.9845987
10.717903
113.01615
21.692429
24.573843
18.943431
17.049943
14.164534
16.502195
21.02114
27.234412
32.793292
36.138466
32.843663
46.190777
117.12151
83.361949
96.496968
80.030166
64.477312
45.16761
32.41576
28.695762
62.137528
56.864144
46.745007
46.324023
59.467559
51.094781
54.154213
97.8031
137.97151
90.807633
67.745624
68.208285
62.7808
42.224467
12.281792
1.4444843
1.370509
0.9241075
1.8489769
5.5274809
11.217415
178.60835
169.26582
75.245117
0.99414849
1.091551
2.0712991
0.7941607
1.1923136
1.673564
3.9770814
5.1946126
5.1297411
5.5977096
2.9499916
4.1471088
3.6001729
3.2955475
3.4920364
6.114149
13.078597
8.014977
13.471153
8.4177399
5.9660402
8.2502609
19.116986
10.99175
12.293635
32.152605
27.057586
16.322504
8.7224665
11.51807
156.58126
29.680876
22.191741
19.282761
21.150518
14.367406
17.46507
21.33682
24.369657
34.828142
39.152565
35.846176
56.057278
101.06629
76.248654
104.04216
81.115796
70.982177
45.05126
31.484767
26.643745
55.866282
57.350205
51.42649
54.526935
60.501402
49.649748
48.374434
112.60063
171.74816
123.88293
76.128108
71.640907
63.326783
33.125293