/*--------------------------------*- C++ -*----------------------------------*\
| =========                 |                                                 |
| \\      /  F ield         | OpenFOAM: The Open Source CFD Toolbox           |
|  \\    /   O peration     | Version:  2.3.0                                 |
|   \\  /    A nd           | Web:      www.OpenFOAM.org                      |
|    \\/     M anipulation  |                                                 |
\*---------------------------------------------------------------------------*/
FoamFile
{
    version     2.0;
    format      ascii;
    class       volScalarField;
    location    "1e-05";
    object      nuSgs;
}
// * * * * * * * * * * * * * * * * * * * * * * * * * * * * * * * * * * * * * //

dimensions      [0 2 -1 0 0 0 0];

internalField   nonuniform List<scalar> 
7500
(
4.1407091e-10
4.1918991e-10
4.2427881e-10
4.2988008e-10
4.3582412e-10
4.4088585e-10
4.4613655e-10
4.5115688e-10
4.564059e-10
4.6161055e-10
4.6721942e-10
4.7252692e-10
4.7777257e-10
4.8227077e-10
4.8704469e-10
4.9221775e-10
4.9716989e-10
5.0214947e-10
5.0694594e-10
5.1209883e-10
5.1749809e-10
5.2197038e-10
5.2614898e-10
5.3050026e-10
5.3516627e-10
5.3951024e-10
5.4388209e-10
5.4831617e-10
5.5347839e-10
5.5989277e-10
5.6486884e-10
5.7113102e-10
5.7694401e-10
5.8226389e-10
5.8659295e-10
5.9030596e-10
5.9402044e-10
5.9816594e-10
6.0216029e-10
6.1253378e-10
6.1721132e-10
6.2308378e-10
6.2983586e-10
6.3707897e-10
6.4467184e-10
6.5580153e-10
6.6267095e-10
6.7134545e-10
6.7890658e-10
6.8927536e-10
6.9961206e-10
7.1481927e-10
7.2801613e-10
7.415656e-10
7.5149637e-10
7.6521251e-10
7.7706494e-10
7.9554283e-10
8.1041202e-10
8.3592075e-10
8.4966819e-10
8.7253293e-10
8.9499668e-10
9.2675059e-10
9.6205056e-10
9.935937e-10
1.0184816e-09
1.0589034e-09
1.0901935e-09
1.157958e-09
1.2116611e-09
1.2318226e-09
1.2606616e-09
1.2906456e-09
1.3928882e-09
4.5547625e-10
4.6108763e-10
4.6689994e-10
4.7291552e-10
4.7885889e-10
4.8473003e-10
4.9107524e-10
4.9709701e-10
5.0372575e-10
5.0957582e-10
5.1533261e-10
5.2098575e-10
5.2646772e-10
5.3178995e-10
5.3724521e-10
5.4301145e-10
5.4845118e-10
5.5394712e-10
5.5909305e-10
5.6396785e-10
5.6889198e-10
5.7390306e-10
5.7872878e-10
5.8334795e-10
5.8799485e-10
5.9271577e-10
5.9753105e-10
6.0253966e-10
6.0796791e-10
6.1317623e-10
6.1801289e-10
6.2304818e-10
6.2812152e-10
6.3311333e-10
6.3788537e-10
6.4315853e-10
6.4893654e-10
6.5440981e-10
6.6168289e-10
6.7495709e-10
6.8321452e-10
6.9007385e-10
7.0011796e-10
7.0856684e-10
7.2109277e-10
7.3237011e-10
7.4258382e-10
7.5758999e-10
7.6938406e-10
7.9175425e-10
8.0517157e-10
8.2681902e-10
8.3986505e-10
8.6227449e-10
8.7803827e-10
9.0539994e-10
9.2186429e-10
9.5363178e-10
9.7788561e-10
1.0224851e-09
1.0513293e-09
1.0924584e-09
1.1708843e-09
1.2103167e-09
1.2843285e-09
1.3332832e-09
1.408769e-09
1.4602995e-09
1.5557824e-09
1.6009415e-09
1.6887273e-09
1.7537266e-09
1.8175672e-09
1.8675898e-09
2.0208843e-09
5.0118346e-10
5.0808968e-10
5.1650614e-10
5.2745555e-10
5.3660272e-10
5.4833102e-10
5.5801415e-10
5.6597554e-10
5.7477834e-10
5.8228134e-10
5.8916154e-10
5.9584801e-10
6.0213197e-10
6.0819921e-10
6.1438144e-10
6.2082453e-10
6.2660552e-10
6.3243694e-10
6.3841797e-10
6.4423848e-10
6.4982378e-10
6.5530963e-10
6.6074925e-10
6.6627731e-10
6.7236038e-10
6.7881022e-10
6.8554479e-10
6.9200831e-10
6.9977992e-10
7.066258e-10
7.1337885e-10
7.2165469e-10
7.298591e-10
7.3756537e-10
7.4531102e-10
7.5382902e-10
7.6378502e-10
7.7390712e-10
7.9048277e-10
8.1400122e-10
8.392202e-10
8.5665191e-10
8.8689043e-10
9.1026915e-10
9.4428723e-10
9.726235e-10
1.0012496e-09
1.0557968e-09
1.1026336e-09
1.2072592e-09
1.2565083e-09
1.3541776e-09
1.4110572e-09
1.5137975e-09
1.5764731e-09
1.6928444e-09
1.766672e-09
1.9042867e-09
1.9766483e-09
2.1081124e-09
2.1937113e-09
2.3379684e-09
2.6074601e-09
2.7186214e-09
2.9159991e-09
3.1442958e-09
3.2852098e-09
3.4968458e-09
3.8183612e-09
3.9004267e-09
4.0728883e-09
4.3081475e-09
4.397054e-09
4.503362e-09
4.8443194e-09
5.5478199e-10
5.7581086e-10
5.9213233e-10
6.189114e-10
6.324335e-10
6.5461938e-10
6.6802883e-10
6.798042e-10
6.9294319e-10
7.0153762e-10
7.1052285e-10
7.1809345e-10
7.260766e-10
7.3337615e-10
7.4092167e-10
7.4951137e-10
7.5779858e-10
7.6788167e-10
7.7751224e-10
7.8672785e-10
7.9461222e-10
8.0272332e-10
8.1107739e-10
8.2027284e-10
8.3308874e-10
8.4538588e-10
8.6045123e-10
8.7314204e-10
8.9105079e-10
9.1088104e-10
9.300821e-10
9.5990342e-10
9.8900446e-10
1.0224278e-09
1.0573851e-09
1.1024157e-09
1.1589438e-09
1.2157088e-09
1.3265633e-09
1.4401609e-09
1.6059714e-09
1.6974858e-09
1.8692709e-09
1.9828299e-09
2.1442385e-09
2.2972877e-09
2.4551771e-09
2.7650542e-09
2.9784037e-09
3.4681513e-09
3.6848976e-09
4.1372232e-09
4.3591782e-09
4.7653171e-09
5.0020913e-09
5.4502677e-09
5.7071546e-09
6.1764998e-09
6.402865e-09
6.7784695e-09
7.0252605e-09
7.4786327e-09
8.3191375e-09
8.6471023e-09
9.1828109e-09
9.9470417e-09
1.0364215e-08
1.1071903e-08
1.1919462e-08
1.2100855e-08
1.2554488e-08
1.3203297e-08
1.3338725e-08
1.3533115e-08
1.4273969e-08
6.0557167e-10
6.5540436e-10
6.7685609e-10
7.1323547e-10
7.2971927e-10
7.4968559e-10
7.697296e-10
7.8617863e-10
8.0990393e-10
8.2359409e-10
8.3859053e-10
8.5177555e-10
8.628855e-10
8.7468405e-10
8.8636539e-10
9.0292767e-10
9.2007542e-10
9.4853927e-10
9.7612299e-10
1.004416e-09
1.0236548e-09
1.0454093e-09
1.0730085e-09
1.1005064e-09
1.1498862e-09
1.1942879e-09
1.2668902e-09
1.3270742e-09
1.4203035e-09
1.5507218e-09
1.6641787e-09
1.8545599e-09
2.0117041e-09
2.2485702e-09
2.4323323e-09
2.7035406e-09
3.0269096e-09
3.3177186e-09
3.8763302e-09
4.3428089e-09
5.0952249e-09
5.458535e-09
6.1530139e-09
6.5784016e-09
7.2273176e-09
7.7793434e-09
8.3655215e-09
9.4990881e-09
1.0177359e-08
1.1819172e-08
1.2585416e-08
1.4139394e-08
1.4780786e-08
1.6049269e-08
1.6790693e-08
1.8184689e-08
1.8931971e-08
2.0283846e-08
2.09119e-08
2.1911411e-08
2.259688e-08
2.3836761e-08
2.6200513e-08
2.7117151e-08
2.8521455e-08
3.0556877e-08
3.1633558e-08
3.3743556e-08
3.5786769e-08
3.6183761e-08
3.7333173e-08
3.8667471e-08
3.8810468e-08
3.9223011e-08
4.0836775e-08
6.3533905e-10
6.6760848e-10
7.000418e-10
7.3443776e-10
7.8370866e-10
8.0831551e-10
8.454633e-10
8.7162305e-10
9.0189327e-10
9.5747632e-10
9.8115816e-10
1.0163941e-09
1.034589e-09
1.0551947e-09
1.0751385e-09
1.111068e-09
1.155763e-09
1.2399103e-09
1.3092137e-09
1.3881111e-09
1.4579495e-09
1.5272845e-09
1.6500742e-09
1.7749929e-09
1.9934961e-09
2.1934236e-09
2.5304859e-09
2.8550105e-09
3.2990135e-09
3.9999893e-09
4.5206202e-09
5.3616935e-09
5.9935215e-09
7.013884e-09
7.7064946e-09
8.724113e-09
9.9056682e-09
1.0917799e-08
1.28284e-08
1.4340054e-08
1.6856316e-08
1.7976425e-08
2.0129017e-08
2.1420854e-08
2.346533e-08
2.50884e-08
2.6820676e-08
3.0189162e-08
3.2097591e-08
3.6696368e-08
3.8846314e-08
4.3182811e-08
4.4849051e-08
4.8230459e-08
5.0248973e-08
5.3953126e-08
5.5766492e-08
5.9144548e-08
6.0714261e-08
6.2992831e-08
6.4688743e-08
6.7865509e-08
7.3238423e-08
7.5388567e-08
7.8937069e-08
8.3504158e-08
8.5872777e-08
9.1376058e-08
9.5522266e-08
9.5802958e-08
9.8107154e-08
1.0048047e-07
1.0074004e-07
1.0155687e-07
1.0479098e-07
6.9425628e-10
8.9297743e-10
9.3518216e-10
1.0321841e-09
1.0720992e-09
1.089932e-09
1.1161327e-09
1.1454436e-09
1.2092552e-09
1.32812e-09
1.3657921e-09
1.4358023e-09
1.462513e-09
1.4967217e-09
1.525888e-09
1.5922429e-09
1.6939096e-09
1.8801857e-09
2.0350356e-09
2.296631e-09
2.6130204e-09
2.9408428e-09
3.5524488e-09
4.1031607e-09
5.027518e-09
5.7974237e-09
7.0480832e-09
8.3430989e-09
9.8135204e-09
1.2347407e-08
1.4100775e-08
1.6788836e-08
1.8807585e-08
2.2041128e-08
2.4065097e-08
2.7196104e-08
3.0495511e-08
3.3436703e-08
3.8780853e-08
4.2776955e-08
4.9683761e-08
5.2633064e-08
5.8344767e-08
6.1576031e-08
6.6871181e-08
7.0865263e-08
7.5075573e-08
8.3517242e-08
8.8176112e-08
9.9055637e-08
1.0419424e-07
1.1428287e-07
1.1775882e-07
1.2513919e-07
1.296258e-07
1.3767193e-07
1.415211e-07
1.485038e-07
1.5191102e-07
1.5652486e-07
1.5979428e-07
1.6618938e-07
1.7655507e-07
1.8056955e-07
1.8761235e-07
1.9695395e-07
2.0122647e-07
2.1202672e-07
2.1818622e-07
2.1793263e-07
2.2224421e-07
2.2551902e-07
2.2569747e-07
2.2734995e-07
2.3299076e-07
6.8065351e-10
7.6374672e-10
8.4061451e-10
9.2837601e-10
1.0783034e-09
1.1321696e-09
1.2218771e-09
1.2911272e-09
1.4088768e-09
1.5946154e-09
1.6576392e-09
1.7432213e-09
1.7970676e-09
1.871724e-09
1.9898403e-09
2.1951301e-09
2.5383714e-09
3.0985567e-09
3.7736352e-09
4.9117441e-09
6.2822732e-09
7.5968554e-09
1.0054794e-08
1.1896466e-08
1.495969e-08
1.7304483e-08
2.1037804e-08
2.5268573e-08
2.9101215e-08
3.6185867e-08
4.1375927e-08
4.779715e-08
5.4335192e-08
6.213531e-08
6.7025652e-08
7.5427841e-08
8.2892847e-08
9.0479532e-08
1.0296262e-07
1.121579e-07
1.2819156e-07
1.3486093e-07
1.4804353e-07
1.5490493e-07
1.6681942e-07
1.7492854e-07
1.8380003e-07
2.0101381e-07
2.1020083e-07
2.320682e-07
2.4230758e-07
2.6280413e-07
2.6893777e-07
2.8249279e-07
2.9103047e-07
3.0514123e-07
3.1229533e-07
3.2482157e-07
3.3138239e-07
3.4001256e-07
3.4509375e-07
3.5468813e-07
3.7297151e-07
3.7904848e-07
3.900661e-07
4.0665516e-07
4.1281126e-07
4.2797495e-07
4.3648894e-07
4.3449132e-07
4.4184371e-07
4.4765832e-07
4.47954e-07
4.5104849e-07
4.6076479e-07
8.0209212e-10
1.308075e-09
1.3771008e-09
1.5406037e-09
1.6320582e-09
1.6709547e-09
1.6997621e-09
1.7323572e-09
1.764353e-09
1.8186439e-09
1.9111292e-09
2.0626333e-09
2.3146998e-09
2.709812e-09
3.3448216e-09
4.3053727e-09
5.7734732e-09
7.7755831e-09
1.0214468e-08
1.405585e-08
1.839349e-08
2.218971e-08
2.9592343e-08
3.4540712e-08
4.2956778e-08
4.8944843e-08
5.8227297e-08
7.0022549e-08
7.8660383e-08
9.4636981e-08
1.0916481e-07
1.2022045e-07
1.3892603e-07
1.5439191e-07
1.6499404e-07
1.8472691e-07
1.9823932e-07
2.1891966e-07
2.3773627e-07
2.5993351e-07
2.9209065e-07
3.0502794e-07
3.3137416e-07
3.4440104e-07
3.6770869e-07
3.8351192e-07
3.9897568e-07
4.3029001e-07
4.4622563e-07
4.8456746e-07
5.0163673e-07
5.3821507e-07
5.4788678e-07
5.6933771e-07
5.8566511e-07
6.0865383e-07
6.204782e-07
6.4338212e-07
6.5548211e-07
6.7119983e-07
6.7679244e-07
6.873986e-07
7.1460288e-07
7.2288795e-07
7.3611024e-07
7.6106318e-07
7.6733679e-07
7.8505444e-07
8.0511008e-07
8.0091974e-07
8.1354979e-07
8.3491691e-07
8.384547e-07
8.4459524e-07
8.6209585e-07
8.1246771e-10
1.4627706e-09
1.5819771e-09
1.8353567e-09
2.0134468e-09
2.0389613e-09
2.1046242e-09
2.1543814e-09
2.3609789e-09
2.7294371e-09
3.1721434e-09
3.8642791e-09
4.9645805e-09
6.566166e-09
9.0217048e-09
1.2215218e-08
1.7258764e-08
2.270621e-08
2.995502e-08
3.9802082e-08
5.1657901e-08
6.104964e-08
7.970285e-08
9.1052442e-08
1.1091964e-07
1.2444597e-07
1.4399812e-07
1.7209319e-07
1.8948776e-07
2.20062e-07
2.535411e-07
2.7393575e-07
3.1053726e-07
3.4121803e-07
3.6366468e-07
4.0256845e-07
4.2673358e-07
4.6987922e-07
4.9559258e-07
5.4178081e-07
6.0027124e-07
6.2385086e-07
6.7235974e-07
6.9602251e-07
7.3804637e-07
7.6832494e-07
7.9197091e-07
8.4224641e-07
8.6860039e-07
9.335191e-07
9.6185254e-07
1.0242294e-06
1.0404235e-06
1.0709542e-06
1.1124308e-06
1.1503247e-06
1.1726813e-06
1.2276436e-06
1.2530968e-06
1.2731848e-06
1.2675711e-06
1.2764337e-06
1.305535e-06
1.3122611e-06
1.328938e-06
1.3710895e-06
1.3749963e-06
1.4066313e-06
1.4950879e-06
1.4980491e-06
1.5323305e-06
1.6135617e-06
1.6405197e-06
1.6355279e-06
1.6405972e-06
7.0836228e-10
8.4942106e-10
1.0436202e-09
1.1636527e-09
1.3614546e-09
1.5020354e-09
1.672273e-09
2.008749e-09
2.6559407e-09
3.8095717e-09
5.6578039e-09
8.3380302e-09
1.2290571e-08
1.745099e-08
2.5556323e-08
3.4046883e-08
4.8200756e-08
6.132278e-08
8.2185303e-08
1.0050839e-07
1.3011282e-07
1.5095808e-07
1.9063861e-07
2.1323196e-07
2.5399004e-07
2.8302214e-07
3.1748426e-07
3.7531626e-07
4.0804151e-07
4.617891e-07
5.2691291e-07
5.6374108e-07
6.3170814e-07
6.8482113e-07
7.347901e-07
8.0183197e-07
8.4427794e-07
9.2388151e-07
9.692406e-07
1.0608631e-06
1.1599435e-06
1.2033972e-06
1.2998493e-06
1.3430665e-06
1.419735e-06
1.4767745e-06
1.5130753e-06
1.5885875e-06
1.6362985e-06
1.7514743e-06
1.8120957e-06
1.9251823e-06
1.9621343e-06
2.0306684e-06
2.1499925e-06
2.2330054e-06
2.2907892e-06
2.4532017e-06
2.4852444e-06
2.5183947e-06
2.3583726e-06
2.4104024e-06
2.3997847e-06
2.4642525e-06
2.4846897e-06
2.5839542e-06
2.5726808e-06
2.7283126e-06
3.1078463e-06
3.1269708e-06
3.468715e-06
3.5791248e-06
3.5596043e-06
3.375947e-06
3.2207772e-06
8.0535869e-10
1.2103861e-09
1.2855808e-09
1.3780466e-09
1.4967015e-09
1.8278053e-09
2.5980074e-09
4.0686034e-09
6.4608881e-09
1.0064209e-08
1.5428756e-08
2.270223e-08
3.4200267e-08
4.7075166e-08
6.8631519e-08
8.8045695e-08
1.2181582e-07
1.5002691e-07
1.9530782e-07
2.3224847e-07
2.9348437e-07
3.3287878e-07
4.0665329e-07
4.4810865e-07
5.2274767e-07
5.8120861e-07
6.3807163e-07
7.4219936e-07
8.0321738e-07
8.9901434e-07
1.0189174e-06
1.0852496e-06
1.2144044e-06
1.3061482e-06
1.4040481e-06
1.5347761e-06
1.6202764e-06
1.7819868e-06
1.8652671e-06
2.0547892e-06
2.21581e-06
2.3053561e-06
2.5590825e-06
2.6308463e-06
2.8046628e-06
2.9038598e-06
2.9279916e-06
3.094389e-06
3.2106289e-06
3.4380366e-06
3.625284e-06
3.8044971e-06
3.9721698e-06
4.2988813e-06
4.6988403e-06
4.7702374e-06
5.0084083e-06
5.3203789e-06
5.249688e-06
4.9975753e-06
4.1249972e-06
4.2709059e-06
4.2833854e-06
4.5051514e-06
4.7701701e-06
5.0443187e-06
4.8942503e-06
6.1504547e-06
6.283409e-06
6.4300963e-06
6.914126e-06
6.55638e-06
5.6373801e-06
5.4314215e-06
5.2653592e-06
8.2407079e-10
1.3497366e-09
1.4392373e-09
1.7222076e-09
2.3588047e-09
3.826015e-09
6.5139255e-09
1.0891512e-08
1.7466864e-08
2.6957034e-08
4.1147557e-08
5.8880109e-08
8.8345193e-08
1.1669034e-07
1.6619674e-07
2.0610282e-07
2.7671006e-07
3.3147866e-07
4.158256e-07
4.854777e-07
5.9702931e-07
6.6383288e-07
7.9033117e-07
8.6567397e-07
9.9910778e-07
1.1018488e-06
1.2135759e-06
1.3968109e-06
1.5061121e-06
1.7042447e-06
1.9306703e-06
2.0555611e-06
2.3124985e-06
2.4642138e-06
2.6786548e-06
3.0342592e-06
3.2188264e-06
3.5977728e-06
3.7072907e-06
4.133051e-06
4.4044102e-06
4.6285995e-06
5.606406e-06
5.4410488e-06
6.0044533e-06
6.0696241e-06
5.6711713e-06
6.5440646e-06
6.7016311e-06
7.2843839e-06
7.5930083e-06
7.7238224e-06
8.070297e-06
8.6584035e-06
8.3991186e-06
8.8211209e-06
9.047207e-06
8.689215e-06
7.7784034e-06
5.6258054e-06
5.5872577e-06
5.5350911e-06
6.1908119e-06
6.9618232e-06
7.0344e-06
6.943703e-06
7.5451484e-06
9.1110153e-06
7.7915558e-06
8.4977902e-06
7.08599e-06
5.188023e-06
4.8832684e-06
4.6284746e-06
4.0207344e-06
7.5339955e-10
1.0064935e-09
1.3886378e-09
2.5875292e-09
5.0598735e-09
9.569439e-09
1.6851556e-08
2.7928926e-08
4.4137582e-08
6.7017647e-08
1.0175684e-07
1.4000892e-07
2.0588261e-07
2.6180509e-07
3.621742e-07
4.3650697e-07
5.6706064e-07
6.7044291e-07
7.9741374e-07
9.4342225e-07
1.1130226e-06
1.2289564e-06
1.4637663e-06
1.6049943e-06
1.8613236e-06
2.0389802e-06
2.3211697e-06
2.616771e-06
2.8293361e-06
3.4012598e-06
3.7418181e-06
3.9854587e-06
4.5875226e-06
4.8292257e-06
5.6365752e-06
6.6221679e-06
6.8877961e-06
7.7248337e-06
7.4732769e-06
9.0664517e-06
8.9652524e-06
1.0157244e-05
1.0375104e-05
9.7173632e-06
1.0382792e-05
9.5910761e-06
9.5994529e-06
1.0067503e-05
1.0237294e-05
1.0354468e-05
9.0635436e-06
9.1637988e-06
9.1781796e-06
9.0536173e-06
7.7535904e-06
9.3727641e-06
7.7488266e-06
5.1160384e-06
4.2692433e-06
3.321351e-06
4.4704262e-06
4.5881666e-06
5.8828533e-06
6.0489955e-06
5.0117904e-06
5.9764319e-06
7.519357e-06
6.0804129e-06
4.3699221e-06
4.7831644e-06
4.3241718e-06
3.7305151e-06
3.403105e-06
3.3750161e-06
3.1685076e-06
7.0998509e-10
1.1319254e-09
2.5608181e-09
6.1675155e-09
1.2840224e-08
2.4136037e-08
4.17032e-08
6.7269223e-08
1.0407783e-07
1.5512758e-07
2.272934e-07
3.0520704e-07
4.3387593e-07
5.3500238e-07
7.2015675e-07
8.497875e-07
1.0736818e-06
1.2572103e-06
1.448012e-06
1.7307757e-06
1.9823535e-06
2.2310517e-06
2.7779887e-06
3.0052669e-06
3.5768876e-06
3.9085587e-06
4.6563637e-06
5.0986695e-06
5.6116072e-06
7.6119153e-06
7.6161656e-06
8.1827496e-06
9.7608622e-06
9.8460284e-06
1.1941986e-05
1.1842916e-05
1.2734075e-05
1.1989423e-05
1.0985016e-05
1.2055758e-05
1.1484189e-05
1.2327704e-05
8.6337503e-06
1.0450496e-05
7.0265773e-06
6.3605582e-06
1.0473381e-05
7.7657175e-06
6.9803236e-06
5.2797998e-06
3.9737126e-06
3.8034645e-06
3.4959103e-06
3.2348894e-06
3.0488083e-06
3.2758903e-06
3.0980257e-06
2.9324955e-06
3.0682126e-06
2.9304095e-06
3.0772276e-06
3.2145665e-06
3.3264376e-06
3.2854187e-06
3.0211166e-06
3.2275226e-06
3.901013e-06
3.4760338e-06
3.1395399e-06
3.2120587e-06
3.7397592e-06
3.8323068e-06
3.7857883e-06
3.587199e-06
3.5106779e-06
6.7430697e-10
2.0136435e-09
6.2860411e-09
1.5358961e-08
3.1344488e-08
5.7112061e-08
9.6157057e-08
1.5032167e-07
2.291668e-07
3.3548456e-07
4.6002408e-07
6.2058868e-07
8.2969746e-07
1.0120993e-06
1.3427197e-06
1.5610622e-06
1.949221e-06
2.2478652e-06
2.6202355e-06
3.1399999e-06
3.6168944e-06
4.3169166e-06
5.6663249e-06
5.7058792e-06
7.5733951e-06
7.9887922e-06
1.0333003e-05
1.0318782e-05
1.2612256e-05
1.3310596e-05
1.1900226e-05
1.3194597e-05
1.3043011e-05
1.2995486e-05
1.28055e-05
1.1198142e-05
9.323353e-06
5.30091e-06
8.3766884e-06
5.837564e-06
6.9681574e-06
5.2109647e-06
3.4100757e-06
3.8098381e-06
3.3786466e-06
3.6261478e-06
5.3558527e-06
4.1913631e-06
3.4347105e-06
3.5987365e-06
3.5648743e-06
3.4723983e-06
2.8563955e-06
2.4733383e-06
2.3148322e-06
2.349299e-06
3.0260406e-06
3.1477656e-06
3.3432163e-06
3.3769992e-06
3.2117187e-06
2.9931881e-06
3.0476435e-06
3.1190907e-06
3.3518824e-06
4.2071101e-06
3.9602749e-06
3.6219349e-06
3.9072256e-06
4.0298192e-06
3.8761363e-06
3.9724011e-06
3.9096414e-06
3.7859705e-06
3.473353e-06
7.0559208e-10
4.9930677e-09
1.5619902e-08
3.666582e-08
7.1871186e-08
1.2608217e-07
2.0677873e-07
3.1185856e-07
4.7682466e-07
6.4684199e-07
8.8174364e-07
1.1895045e-06
1.4652255e-06
1.857344e-06
2.434659e-06
2.8025723e-06
3.5526928e-06
4.0934377e-06
4.9258422e-06
6.0854939e-06
7.3366777e-06
9.6758623e-06
1.0081705e-05
1.0754571e-05
1.2945618e-05
1.2980318e-05
1.4791655e-05
1.2725645e-05
1.5861471e-05
8.8697893e-06
7.9292059e-06
6.770562e-06
5.2532496e-06
6.5856375e-06
4.3383143e-06
4.6405725e-06
3.8858822e-06
4.1518031e-06
4.4277501e-06
3.693072e-06
3.3016911e-06
2.9019686e-06
2.4092589e-06
2.5822521e-06
2.6324004e-06
2.6958179e-06
3.9790773e-06
3.6732398e-06
3.6049089e-06
3.3126521e-06
3.3598117e-06
3.4403893e-06
3.2395818e-06
2.6512403e-06
2.4433705e-06
2.627519e-06
3.2848241e-06
3.5830514e-06
3.8100269e-06
3.6007411e-06
3.1950654e-06
3.1532839e-06
3.467197e-06
3.2923971e-06
3.559159e-06
3.5396383e-06
3.6928842e-06
3.6899215e-06
3.8988463e-06
3.8218324e-06
3.8507052e-06
4.0345093e-06
4.0136948e-06
3.9104373e-06
3.6770912e-06
8.8347076e-10
1.24059e-08
3.6958942e-08
8.2421141e-08
1.5429985e-07
2.5979328e-07
4.1713478e-07
6.0170231e-07
9.0324567e-07
1.1778858e-06
1.6409468e-06
2.0859421e-06
2.6071225e-06
3.5665876e-06
4.3577116e-06
5.1175222e-06
6.9501923e-06
7.9949822e-06
1.012277e-05
1.2109416e-05
1.2766753e-05
1.4867562e-05
1.0971068e-05
1.3064878e-05
1.0942816e-05
9.7235751e-06
7.5681669e-06
8.3501199e-06
7.8216998e-06
2.537253e-06
2.6125349e-06
3.0367536e-06
2.7336055e-06
2.7755583e-06
3.1810613e-06
2.4728259e-06
3.230584e-06
2.8971893e-06
3.3229124e-06
3.1355872e-06
2.7952624e-06
2.5295709e-06
2.4218819e-06
2.8873272e-06
2.7723734e-06
2.9269877e-06
4.1627937e-06
3.5877395e-06
3.3528527e-06
2.8804216e-06
3.583409e-06
3.5591617e-06
3.4144644e-06
2.9213916e-06
3.170206e-06
3.4935261e-06
3.6461324e-06
3.8245761e-06
3.8484989e-06
3.7264964e-06
3.2955913e-06
3.3227523e-06
3.3794231e-06
3.3292238e-06
3.3912051e-06
3.831273e-06
3.911973e-06
4.0395102e-06
3.9278968e-06
3.6495186e-06
3.9438785e-06
4.2020538e-06
4.2778111e-06
4.172107e-06
4.1306776e-06
1.053706e-09
2.9098822e-08
8.2067727e-08
1.733025e-07
3.0924108e-07
5.0029786e-07
7.7480484e-07
1.0927173e-06
1.5971913e-06
2.0864235e-06
2.9499802e-06
3.6850912e-06
4.8590409e-06
7.0237869e-06
8.1633762e-06
1.0211225e-05
1.1776595e-05
1.2508018e-05
1.3988567e-05
1.3660425e-05
1.0320751e-05
7.7722787e-06
3.8959764e-06
5.1392819e-06
3.5708317e-06
3.8119604e-06
2.9790957e-06
4.1460884e-06
2.5145313e-06
1.899529e-06
1.6514336e-06
2.7715001e-06
2.3624774e-06
2.0227626e-06
2.5880922e-06
2.4581902e-06
3.774769e-06
3.6660742e-06
3.564294e-06
3.1726425e-06
2.9846453e-06
2.4214906e-06
2.4928269e-06
2.3603922e-06
2.5865325e-06
3.2507822e-06
4.2558194e-06
3.6872507e-06
2.9872779e-06
2.7964569e-06
2.9303901e-06
4.0870641e-06
3.9108513e-06
3.0929123e-06
3.9864221e-06
3.8716104e-06
3.5725223e-06
4.1101443e-06
4.3561278e-06
4.0686398e-06
3.6383194e-06
3.4864432e-06
3.8619104e-06
3.977823e-06
3.6849909e-06
3.5064915e-06
3.6038511e-06
4.2691463e-06
4.1707008e-06
3.9318098e-06
4.2594197e-06
4.9035654e-06
4.7910011e-06
4.980575e-06
5.1888287e-06
6.1576046e-09
6.6103888e-08
1.7210522e-07
3.4180355e-07
5.808055e-07
9.0593724e-07
1.355911e-06
1.9241472e-06
2.7842546e-06
3.7270385e-06
5.4146203e-06
6.969239e-06
9.8580967e-06
1.1936526e-05
1.2038437e-05
1.3076623e-05
1.1358594e-05
1.0539082e-05
9.678368e-06
6.2982192e-06
3.5724426e-06
2.1923539e-06
2.3246077e-06
2.9167043e-06
2.2056191e-06
1.7650563e-06
1.7740325e-06
1.9442172e-06
1.5991528e-06
1.9165051e-06
1.7500671e-06
2.5189033e-06
2.1130848e-06
2.1250737e-06
2.0649133e-06
3.0591308e-06
5.0994293e-06
3.8072542e-06
3.3677945e-06
3.4545584e-06
3.1215491e-06
2.4287143e-06
2.5339386e-06
2.4315541e-06
2.5091917e-06
3.3141999e-06
3.6932885e-06
3.5313789e-06
2.8143794e-06
2.8187361e-06
2.7101261e-06
3.232062e-06
3.3655315e-06
3.3062535e-06
3.4345429e-06
3.6535377e-06
3.5846179e-06
4.1647872e-06
4.6073812e-06
4.4509995e-06
3.6874354e-06
3.8097524e-06
3.8976538e-06
3.9022849e-06
3.896581e-06
4.2457706e-06
3.891762e-06
3.7455021e-06
4.1112668e-06
4.3305389e-06
4.4817284e-06
5.8705013e-06
5.713935e-06
5.713209e-06
7.0336069e-06
1.9546453e-08
1.4147391e-07
3.3966759e-07
6.3307001e-07
1.0290795e-06
1.5684944e-06
2.3299406e-06
3.4036943e-06
4.9851623e-06
7.0542636e-06
1.0636506e-05
1.1461935e-05
1.3215576e-05
1.1616476e-05
7.3889172e-06
6.9942342e-06
4.5403804e-06
4.7443385e-06
3.9146029e-06
1.794559e-06
1.5285508e-06
1.1733581e-06
2.5020031e-06
2.5179823e-06
2.2524977e-06
1.9169486e-06
1.3146759e-06
1.7574954e-06
2.2184896e-06
1.7664544e-06
1.789672e-06
1.6377249e-06
2.2399906e-06
3.1963183e-06
2.4701701e-06
2.7573436e-06
4.9551644e-06
3.8512373e-06
3.2072385e-06
2.980891e-06
2.8898849e-06
2.4769137e-06
2.6187089e-06
2.7195721e-06
2.7126752e-06
2.8445753e-06
3.5460181e-06
3.5409784e-06
2.830051e-06
2.5512105e-06
2.5800803e-06
3.1413006e-06
3.4553738e-06
3.5766906e-06
3.6626758e-06
3.4988355e-06
3.5333387e-06
3.8919861e-06
4.9155571e-06
5.0353634e-06
4.1724022e-06
3.9402861e-06
3.8908864e-06
3.8608322e-06
3.9718677e-06
3.9471185e-06
3.983434e-06
3.7114591e-06
3.7150604e-06
3.8420248e-06
4.5183421e-06
6.1796488e-06
6.0671703e-06
6.3643103e-06
6.3426485e-06
5.2338304e-08
2.8612043e-07
6.3040797e-07
1.107293e-06
1.745599e-06
2.6621819e-06
4.0944617e-06
6.2607806e-06
9.6769432e-06
1.1434665e-05
1.2566777e-05
1.1323379e-05
8.017512e-06
4.2746664e-06
2.5805389e-06
2.6219315e-06
1.636039e-06
2.5960684e-06
1.5829331e-06
8.8638482e-07
1.1231251e-06
1.3490522e-06
1.9197469e-06
3.2531491e-06
2.3877308e-06
1.7009691e-06
1.5276774e-06
1.2509118e-06
3.5146196e-06
1.6980706e-06
1.6137578e-06
1.7631466e-06
2.3619682e-06
2.3229267e-06
3.2199477e-06
2.5245431e-06
4.0774638e-06
3.7347525e-06
3.1254785e-06
3.0552923e-06
2.8520685e-06
2.5145603e-06
2.6905054e-06
2.7648948e-06
2.7604546e-06
2.9785835e-06
4.073595e-06
3.5662451e-06
2.8581172e-06
2.6781567e-06
2.6462986e-06
3.1194843e-06
3.5986683e-06
3.8891894e-06
3.6747549e-06
3.5028771e-06
3.6296434e-06
4.0867491e-06
4.9452407e-06
5.5078401e-06
4.8403967e-06
4.1186048e-06
4.113945e-06
4.0605715e-06
4.1084482e-06
4.0144887e-06
3.8643638e-06
3.8320412e-06
3.8845172e-06
3.9216066e-06
5.0529856e-06
7.8175411e-06
7.4173157e-06
6.6135712e-06
6.3975345e-06
1.2650021e-07
5.4680667e-07
1.1053006e-06
1.8531011e-06
2.9016289e-06
4.5801958e-06
7.6752773e-06
1.0487832e-05
1.229813e-05
1.1391765e-05
6.7351421e-06
5.1051924e-06
2.7667929e-06
1.7602251e-06
1.241267e-06
1.2143075e-06
8.8510232e-07
1.7388559e-06
1.7014218e-06
7.9631583e-07
1.0582727e-06
1.802146e-06
2.0052298e-06
5.1242499e-06
1.755714e-06
1.5346485e-06
1.4303424e-06
1.3843772e-06
3.177225e-06
1.7110817e-06
1.5580572e-06
1.7109359e-06
1.774042e-06
2.7523477e-06
2.4013942e-06
2.2871189e-06
3.7108131e-06
3.647802e-06
3.2782473e-06
3.2813862e-06
2.5828536e-06
2.6737724e-06
2.6540445e-06
2.940618e-06
2.8549005e-06
3.3193702e-06
4.5235198e-06
3.3454762e-06
3.0479777e-06
3.0521706e-06
2.9525799e-06
2.8448372e-06
3.4069482e-06
3.4784469e-06
3.8434655e-06
3.8503599e-06
4.2113221e-06
4.612417e-06
4.9710785e-06
5.0384331e-06
4.8730035e-06
4.3506827e-06
4.202875e-06
4.4314078e-06
4.4755225e-06
4.4084761e-06
3.8621273e-06
3.8620537e-06
4.0964375e-06
4.3998346e-06
6.2164746e-06
1.0166119e-05
9.6024519e-06
7.4128451e-06
7.5044507e-06
2.8359775e-07
9.8857065e-07
1.8493065e-06
3.0246309e-06
4.8850627e-06
8.4110629e-06
1.051833e-05
1.0775431e-05
8.3847534e-06
5.8581508e-06
2.9199387e-06
2.0552845e-06
9.632688e-07
1.2734558e-06
1.0861583e-06
9.24735e-07
6.9289789e-07
1.5536414e-06
1.8700859e-06
7.8629922e-07
1.1836842e-06
1.9400729e-06
2.2770388e-06
5.0413975e-06
1.3756267e-06
1.5333257e-06
1.7295912e-06
1.5469092e-06
1.4292299e-06
1.5731612e-06
1.5623839e-06
1.8677762e-06
1.7692517e-06
1.821071e-06
2.0999803e-06
2.4507568e-06
3.8610342e-06
4.1522368e-06
4.7144512e-06
3.5470493e-06
2.6400338e-06
2.8136928e-06
2.7688457e-06
3.7489099e-06
2.9301506e-06
3.1104501e-06
3.9122244e-06
3.171345e-06
3.2481649e-06
3.1744889e-06
3.0359447e-06
3.1489298e-06
4.020285e-06
4.2312467e-06
4.2962243e-06
4.2598791e-06
4.685978e-06
4.8240138e-06
4.7924294e-06
4.7669153e-06
4.7189793e-06
4.2871755e-06
3.9881795e-06
4.2305237e-06
5.0019969e-06
4.8657965e-06
4.2209391e-06
4.3073319e-06
4.8438496e-06
5.2232597e-06
8.1188718e-06
1.1395099e-05
1.1123575e-05
9.0762391e-06
9.2359809e-06
5.9712048e-07
1.7005065e-06
2.991444e-06
4.9625967e-06
8.6788829e-06
1.0585028e-05
8.6849114e-06
6.0069106e-06
4.5084325e-06
2.7974563e-06
3.1251165e-06
1.289399e-06
7.0057364e-07
9.7675149e-07
1.0284506e-06
8.2214074e-07
6.0538249e-07
1.5392776e-06
1.286337e-06
7.5348295e-07
1.0688692e-06
1.6073787e-06
2.1072458e-06
3.500164e-06
1.4163734e-06
1.3938589e-06
2.5962562e-06
1.7264675e-06
1.3657387e-06
1.6542705e-06
1.5539044e-06
1.7149972e-06
2.0896404e-06
1.9974204e-06
2.0739445e-06
2.3927464e-06
4.0872576e-06
4.1105525e-06
4.9453275e-06
3.5810647e-06
2.7169402e-06
2.752756e-06
2.826643e-06
2.779996e-06
2.4415866e-06
2.5590925e-06
3.2472008e-06
3.165841e-06
3.2626247e-06
3.0156792e-06
2.9655621e-06
3.2850954e-06
5.1695343e-06
4.8400474e-06
4.5496265e-06
4.7809789e-06
4.8779817e-06
4.8572522e-06
4.8971652e-06
4.7381589e-06
4.7166348e-06
4.3737058e-06
3.9670998e-06
4.0821292e-06
4.7239733e-06
4.757854e-06
4.8204704e-06
5.0286362e-06
5.7883262e-06
6.1508504e-06
8.6617519e-06
1.2077239e-05
1.2097569e-05
1.0956958e-05
8.6953293e-06
1.1930194e-06
2.7963942e-06
4.7881144e-06
8.4059199e-06
1.0074761e-05
7.6818839e-06
4.9748775e-06
3.5039339e-06
2.4345039e-06
2.354251e-06
2.0310182e-06
1.4823047e-06
6.5535324e-07
9.4533442e-07
9.6577482e-07
7.811874e-07
5.2890852e-07
1.4543257e-06
8.3761906e-07
8.3496222e-07
1.0854336e-06
1.4168766e-06
1.9883837e-06
2.2358487e-06
1.3357594e-06
1.3056568e-06
2.8163986e-06
1.8293758e-06
1.4917305e-06
1.8525426e-06
1.5592534e-06
1.7190366e-06
2.0256335e-06
2.080922e-06
1.9873337e-06
2.1808429e-06
3.3420127e-06
3.9555744e-06
4.2726612e-06
3.4587533e-06
2.6689302e-06
2.7903644e-06
2.948751e-06
2.6775312e-06
2.4808628e-06
2.5692192e-06
3.2433542e-06
3.2207084e-06
3.1781021e-06
3.0742944e-06
3.1775396e-06
3.3066013e-06
4.6891498e-06
4.6491509e-06
4.6399712e-06
5.1349275e-06
5.0966315e-06
5.1027013e-06
5.0798929e-06
4.8211337e-06
4.743922e-06
4.45628e-06
4.0509985e-06
4.3335907e-06
4.839315e-06
5.6773093e-06
6.1682139e-06
6.5312093e-06
6.5002666e-06
7.0234897e-06
8.6545307e-06
1.2587969e-05
1.3867718e-05
1.089052e-05
8.3130467e-06
2.2876902e-06
4.4207853e-06
7.8772432e-06
9.4170941e-06
6.8300051e-06
4.3175195e-06
2.429607e-06
1.8694813e-06
1.6358176e-06
2.3275343e-06
2.2063644e-06
1.3515775e-06
6.3929433e-07
8.7677539e-07
9.2728256e-07
8.081487e-07
5.5318021e-07
1.1383599e-06
8.1420513e-07
8.9523889e-07
1.0834395e-06
1.5603333e-06
1.5537869e-06
2.2290084e-06
1.2031203e-06
1.2400521e-06
2.5301898e-06
1.8621953e-06
1.7024794e-06
2.0018667e-06
1.6199918e-06
1.6681116e-06
2.0168106e-06
1.9274272e-06
1.9632531e-06
2.367926e-06
2.5260453e-06
3.6724391e-06
3.8163913e-06
3.4863365e-06
2.6991888e-06
2.9709528e-06
3.1612142e-06
2.9447532e-06
2.9281236e-06
2.6695143e-06
3.0745695e-06
3.0738459e-06
3.1566206e-06
3.5579398e-06
3.7879863e-06
3.5254396e-06
3.7497763e-06
4.19186e-06
4.317415e-06
4.7037423e-06
5.1216175e-06
5.3521123e-06
5.2404308e-06
4.9383135e-06
4.6765855e-06
4.7431254e-06
4.2795015e-06
4.8490598e-06
5.8568442e-06
8.2962344e-06
7.6636375e-06
1.1371885e-05
9.1580153e-06
7.8129214e-06
8.6508603e-06
1.3049109e-05
1.5208153e-05
1.160987e-05
8.5255428e-06
3.9086918e-06
7.0180559e-06
9.8727168e-06
7.1421778e-06
3.8340727e-06
2.1286279e-06
1.1118961e-06
1.1965383e-06
1.1626974e-06
1.205009e-06
1.7305979e-06
1.2767099e-06
6.3612186e-07
8.9240693e-07
9.300883e-07
8.3499399e-07
5.9351875e-07
8.1566849e-07
9.8660616e-07
9.7342319e-07
1.0931998e-06
1.7230584e-06
1.2542437e-06
2.5049859e-06
1.1765923e-06
1.339083e-06
1.6781369e-06
1.963068e-06
1.7430643e-06
2.0674418e-06
1.6917221e-06
1.6143577e-06
1.9186127e-06
1.8905828e-06
1.9218517e-06
2.8044603e-06
2.2187542e-06
2.3193837e-06
3.4662711e-06
3.2035465e-06
2.9891872e-06
3.173506e-06
3.4431462e-06
3.1580276e-06
3.4668809e-06
2.9165998e-06
3.0719301e-06
3.1947598e-06
3.3360183e-06
3.4748459e-06
4.0881278e-06
4.0970639e-06
4.1498884e-06
4.3912428e-06
4.6103998e-06
4.7055442e-06
6.0250211e-06
5.9339326e-06
5.3553624e-06
4.9849729e-06
4.6485779e-06
4.8232839e-06
4.3552008e-06
4.5797136e-06
7.1353018e-06
7.1394734e-06
6.9753146e-06
9.8029242e-06
1.0225168e-05
8.3092478e-06
8.7325933e-06
1.2441422e-05