/*--------------------------------*- C++ -*----------------------------------*\
| =========                 |                                                 |
| \\      /  F ield         | OpenFOAM: The Open Source CFD Toolbox           |
|  \\    /   O peration     | Version:  2.3.0                                 |
|   \\  /    A nd           | Web:      www.OpenFOAM.org                      |
|    \\/     M anipulation  |                                                 |
\*---------------------------------------------------------------------------*/
FoamFile
{
    version     2.0;
    format      ascii;
    class       volScalarField;
    location    "1e-05";
    object      p;
}
// * * * * * * * * * * * * * * * * * * * * * * * * * * * * * * * * * * * * * //

dimensions      [1 -1 -2 0 0 0 0];

internalField   nonuniform List<scalar> 
7500
(
-25092.769
28561.457
-10655.934
-28296.092
42432.711
-8728.4646
37836.028
-9383.7489
-2445.5408
41209.426
-17399.561
16008.74
24968.828
14841.328
-1672.2218
31731.391
-225.75488
6218.6333
20014.741
5018.6164
26766.47
13944.864
32344.959
7637.4562
25494.463
19956.58
36767.528
25225.525
38873.199
63774.196
24118.834
84245.168
51171.058
18399.106
44500.917
49483.476
63078.841
108202.96
37147.104
-24833.696
110515.46
92683.024
25697.509
99165.652
25015.287
-45598.668
-20248.077
69436.312
70306.643
49995.083
22680.676
-3625.2008
19302.937
124072.69
-1086.0978
-5640.2877
107073.17
-10126.282
-34513.495
38491.497
-86661.535
-79629.516
150251.52
-9005.6443
63152.175
166697.35
-52457.628
55620.713
303519.39
-58506.494
-25823.181
331672.39
-4901.0414
-148363.56
6002.91
-25361.499
27437.275
-8257.1579
-28794.859
41371.423
-7810.5794
36599.041
-8012.6472
-3629.5757
41780.752
-17104.215
15116.73
26872.181
12541.039
-660.94008
31956.315
-661.72775
6841.2163
19346.081
5838.6976
26178.311
13366.974
33157.674
7369.1959
25813.987
19152.171
35830.998
29548.348
36516.58
60711.08
28223.246
84361.364
48606.71
18147.209
45705.023
51489.185
59889.143
106988.04
41799.38
-26970.583
108559.42
94882.681
27028.185
97424.347
26560.359
-44159.357
-23445.054
70124.22
67452.191
46788.896
28444.064
-1244.2199
16021.938
123835.77
2709.0967
-7314.7901
104660.15
-7523.5798
-32955.314
36089.513
-81411.067
-76322.813
140322.3
-7339.3439
60423.179
167470.52
-44506.923
56017.066
290801.33
-55982.166
-20547.374
327917.42
2970.6145
-150125.94
2134.9694
-23858.87
25042.896
-7586.9482
-26950.971
39518.341
-6708.4779
34670.689
-6476.774
-4130.2316
41392.273
-15589.004
12958.434
28297.244
11447.776
1078.6069
30534.698
-2337.6481
10242.038
17589.573
5769.4579
28206.924
10423.226
34691.632
7604.6204
24183.674
20883.368
32125.489
35103.628
35474.408
55887.546
33329.363
82598.822
47077.984
19716.393
43845.605
56462.407
58654.644
99285.964
47882.206
-24557.241
104377.28
95769.508
30530.994
93210.247
26514.233
-38781.817
-26229.836
68833.287
69603.61
40761.656
26284.669
6497.0233
16059.286
116884.55
8030.7795
-5909.1926
100262.72
-5272.6316
-26224.904
29166.696
-83313.09
-68325.292
126403.05
-2691.3839
60319.266
168522.58
-38252.155
61195.93
271620.71
-60149.97
-6966.157
322613.31
15999.69
-151893.25
-6921.7199
-22335.555
22095.807
-5831.0296
-25108.045
36927.969
-4839.35
31571.966
-3511.2007
-5805.6098
40568.405
-11889.345
9417.1526
30055.05
9410.0092
3780.9623
30094.817
-5403.4648
13136.397
17269.794
4889.5211
29966.205
9320.1446
35255.923
7859.3855
22167.823
22425.281
28405.546
40488.404
34783.393
50244.826
39077.392
80690.367
43720.696
22373.648
42784.975
62089.587
57060.221
90342.832
53562.908
-20521.38
98943.02
97278.118
35830.966
84497.544
26918.498
-28695.777
-30581.723
66260.501
76051.212
33060.863
20628.624
14496.242
17026.174
108849.08
14812.253
-6119.7615
93233.101
-77.646973
-19099.617
17632.521
-84467.674
-55549.538
111359.56
2799.1462
61439.07
163648.08
-32593.952
65927.839
251192.16
-59725.364
16139.72
309603.49
17875.029
-148720.97
-13123.773
-21146.741
18358.583
-2777.2217
-23144.428
33344.359
-1730.8399
27458.775
-380.33106
-6088.9291
37577.484
-7959.1534
7825.7761
31015.476
6132.971
6467.8409
31097.688
-8925.4907
15663.893
17186.285
4046.0386
31892.79
7200.4149
37330.211
7960.935
20208.807
23022.758
25369.298
47801.622
30269.14
45977.13
47171.008
77173.139
40094.929
23412.607
43603.538
69848.691
51798.965
83088.335
59634.392
-16772.964
94074.144
98894.121
43003.042
74391.602
25352.353
-21916.388
-32103.769
65065.253
83401.932
24102.957
15637.883
24687.82
15503.454
99467.481
25423.854
-5660.1399
81826.48
3852.2406
-9504.7677
3812.9244
-86064.435
-42039.161
99225.414
11185.5
62116.32
148167.43
-20809.627
73252.515
227538.59
-58860.438
45714.528
286204.89
3573.0331
-130094.57
-15784.75
-19856.546
14384.685
-338.65581
-19774.287
29245
805.0765
24372.152
1370.3051
-5573.9293
35609.156
-5882.6445
6893.4246
32698.772
3179.1136
8250.2848
31094.608
-10401.425
16941.825
17331.703
3801.3588
32370.768
6523.7436
38544.913
7861.809
19212.375
23397.946
23296.727
53413.846
25937.421
43246.309
53831.074
73137.183
38310.374
22684.918
44120.655
79289.561
44223.324
76469.256
64597.377
-10947.617
88614.73
101290.37
51645.215
61985.101
26204.862
-14247.484
-37416.78
62540.313
90508.402
15437.736
14775.836
35619.277
11854.562
89495.594
37495.943
-5226.4235
70844.803
9577.6383
-6000.0156
-13255.415
-86377.725
-27269.676
85652.535
22389.341
69613.234
128973.94
-16081.857
79893.862
202759.72
-39052.257
76490.511
255675.63
-9780.9029
-114493.32
-18578.978
-18767.256
11221.462
915.68025
-15901.725
25795.678
1789.3888
22769.365
2590.9951
-5867.4929
34499.86
-2978.7111
4660.3392
32932.775
3647.7583
8592.6716
29390.078
-9651.6012
17033.734
17551.518
4785.3871
31401.39
6032.6464
40563.955
6354.8471
19352.016
22596.711
23993.198
58010.982
18202.635
45739.683
59320.967
64141.395
40664.864
22686.166
43158.415
87697.687
37642.911
71178.116
65217.483
-1194.234
83438.795
99534.153
62551.249
49981.924
25406.334
-3623.2869
-40151.967
55457.17
96932.11
10452.149
12321.453
39740.503
16545.225
80714.597
48096.97
-1280.1939
56505.846
17985.268
-1508.249
-35028.364
-90379.875
-14157.628
74140.62
31592.026
78321.761
114888.62
-5572.2691
88016.072
168752.96
-26257.834
102998.11
224218.51
-10982.164
-105249.67
-22454.949
-18017.742
8975.8658
1911.7306
-13054.152
23379.552
2573.9819
20720.065
4279.3205
-5696.1139
31770.816
911.91201
4554.4529
29572.486
5416.4768
10917.66
24734.599
-7011.3653
16851.876
16366.841
7735.2281
29082.804
6833.5953
41252.484
4735.7941
20314.324
21114.185
25530.696
61872.965
10761.026
48243.522
65292.146
53672.419
40983.882
26685.809
43421.704
89948.174
33943.08
68715.628
59546.714
11347.771
81610.385
96481.958
69397.244
40512.957
26149.1
1820.6103
-39395.781
50838.412
98554.149
8004.0799
15272.356
38768.339
16847.085
78233.552
53232.795
1511.8659
54647.265
22691.672
403.59273
-52225.197
-93909.459
-9088.2208
62421.553
37013.825
81303.084
101080.15
10187.194
104194.06
143768.7
-2072.6767
120555.57
183289.82
-22282.351
-94205.427
-24317.923
-17400.281
7241.2916
2857.316
-10492.463
20792.306
4089.5473
18443.464
4898.7945
-3643.9306
28205.353
3268.1733
6563.5322
26405.243
5338.038
13595.623
21878.678
-6794.0314
18086.872
15196.61
9405.0096
27437.679
8019.9215
41909.469
2158.8262
21091.867
20193.493
29214.537
59657.847
8911.1867
54440.264
62939.6
48565.088
41804.617
26415.265
50402.751
87946.361
28845.861
68660.109
51621.613
24839.921
78078.445
96612.889
75202.923
28040.987
30006.521
7069.0019
-39363.598
48161.751
93044.396
9724.8921
20019.978
35482.944
20100.314
73056.254
60000.167
-2138.0428
57122.706
37589.8
-1994.6874
-73761.361
-93615.924
-5409.1557
45665.631
45617.701
77679.391
80356.039
27386.8
112893.28
125432.85
48671.828
137995.29
129826.87
-33017.909
-94643.165
-27840.17
-16838.045
5587.3802
3800.719
-7555.4379
17709.227
5501.1964
17238.551
4226.9935
-1496.606
26158.211
4384.8738
7333.0535
25241.253
6108.5921
12820.887
21225.975
-5085.4665
15760.901
16821.476
10192.338
24947.677
11469.297
39278.039
1349.4135
22593.398
17379.055
35166.182
54623.402
6492.0202
66947.167
55101.113
40735.344
50239.735
22842.685
54559.786
89895.324
25821.759
61988.475
46991.475
41717.937
70642.767
98051.734
76700.277
19414.456
34340.369
7751.3968
-31898.214
45133.116
83034.743
10034.123
31204.914
25086.956
29774.975
71423.193
62199.713
-2417.3297
54565.449
53554.785
3209.1074
-89284.878
-106237.31
2280.4377
27232.821
51049.489
82039.861
49169.939
34900.432
128556.93
101466.66
103912.06
177489.57
76400.117
-41606.136
-95034.718
-44304.209
-16577.767
4334.0299
4330.4705
-4554.9398
15219.333
5934.9261
16659.26
3918.8837
-602.21534
24875.338
6799.1111
6255.7382
23442.566
9876.7615
10384.337
18989.668
-573.63088
12755.322
16821.156
13039.338
20907.403
16999.682
34892.16
-1676.755
27637.706
16217.66
36428.451
49864.109
8673.8109
76247.894
48647.669
32994.553
54843.632
27659.704
52485.967
88317.62
33964.546
45614.212
43286.165
63605.291
57570.245
108892.16
68215.305
8345.2235
50053.55
-4253.2232
-20082.984
46078.792
68246.91
15158.721
41381.841
16943.184
31758.169
75069.256
59156.091
518.86244
50994.613
63884.672
9087.2286
-92421.514
-108046.87
-10007.879
29107.602
51979.364
74890.62
43856.451
38030.187
124989.34
100222.15
114398.59
200907.28
72203.878
-47172.483
-80775.115
-44444.381
-16686.725
3575.4369
4580.0616
-2303.9487
13995.281
5828.331
15624.853
4236.8928
25.082471
23016.558
9865.359
6361.2913
19531.666
13442.064
10411.197
15100.287
3061.8439
11667.132
15530.454
16475.739
17332.982
21382.462
31459.938
-4496.9093
29886.755
19610.01
36377.143
38965.215
21135.184
82760.854
34668.657
35940.08
52067.117
31917.468
55729.343
80505.452
47305.835
25604.708
40178.976
86541.218
41934.362
124608.63
64134.474
-6730.4316
64661.136
-11800.147
-17514.825
56203.062
41908.272
27391.912
39837.875
22539.584
32934.753
74496.134
55131.696
5575.1043
48814.799
70720.7
7552.2237
-94920.974
-106234.88
-8775.3553
30252.957
51792.412
71786.557
41450.483
41449.353
123940.03
103082.79
116275.49
195175.86
77338.192
-48917.933
-89309.349
-42030.152
-17128.856
3218.2387
5024.6293
-1081.9405
13358.244
6156.7457
14166.493
4498.9286
756.6625
21356.677
11747.551
7660.0172
17222.681
13439.303
11085.466
14464.609
3443.6305
11403.177
14369.455
18709.535
17358.852
23845.488
24644.83
-2792.4792
32084.096
20029.571
38179.292
25297.847
35996.936
94281.118
14361.692
40137.107
54408.68
29709.125
59673.48
74970.349
57609.931
10087.557
36047.307
97530.676
36803.567
130732.75
62708.912
-7662.0664
64791.782
-9186.8282
-12865.656
53175.69
39637.193
29002.448
37272.761
24484.087
34114.825
73282.137
52823.053
4719.3412
48863.125
73677.812
10574.097
-97406.768
-110868.37
-7841.3658
32865.109
50563.456
73779.962
42749.318
38807.485
122643.03
100888.26
124149.19
199546.44
70208.233
-51264.428
-87276.41
-43893.897
-17742.122
3074.246
5757.8038
-365.96788
12615.735
6691.4954
13172.313
4387.0842
1285.912
20757.45
12258.46
8247.2033
17377.542
13387.407
8280.7581
16767.613
4431.6252
9139.5383
14756.206
18314.412
19367.542
28620.081
14392.047
-2086.2304
38071.945
20998.966
35421.194
14737.479
47293.976
101245.02
6439.4687
37220.894
55222.841
30439.183
58567.693
74109.073
58796.877
10766.341
37735.631
94988.106
37130.722
130932.65
59668.048
-7013.3877
62469.805
-10613.914
-8889.1772
55796.946
37389.724
31529.9
37495.182
22267.579
37167.525
73641.704
50838.994
6218.3638
48499.622
70912.563
8609.9643
-100813.63
-106740.25
-13369.425
35460.934
52876.116
64867.431
44045.605
54309.068
115503.79
94768.86
128802.58
189186.22
68208.081
-54233.426
-91009.407
-39027.645
-18339.441
2984.9043
6491.2441
455.1467
11796.344
6915.0867
12482.844
4257.2082
1541.7768
21132.063
12580.869
7622.2952
17596.188
15182.141
4449.6352
17902.617
7641.8546
5740.5816
14726.43
19315.843
19434.855
33105.552
6517.2207
-2333.3534
39808.766
26370.367
30207.036
8372.4429
52644.888
100614.5
7147.1945
37834.872
54575.859
31036.774
57966.932
73356.706
57526.036
11702.06
43549.989
93578.413
36782.433
135258.39
54689.797
-2746.0459
61436.883
-18407.862
-4530.914
58403.644
34543.733
30695.892
36922.17
22653.518
34287.841
73219.359
50956.966
7177.3833
43884.231
65226.4
3597.1216
-108338.98
-111785.41
-17568.827
34614.929
52797.906
66204.028
46559.138
56872.323
108978.64
92697.58
129783.64
169431.92
60645.541
-64876.505
-99792.345
-46268.04
-18858.382
2993.1041
6948.1965
1396.0141
11344.462
6859.7117
11781.994
3782.3539
1694.7351
22305.492
12738.193
7538.6095
16660.434
16676.214
2332.5178
16989.133
11743.965
3611.9968
11370.881
21972.789
21423.908
32403.073
828.72692
113.29156
41025.817
26844.74
29806.262
7315.9404
53851.146
100785.47
6505.1669
40084.09
53628.606
32840.151
58379.227
74024.947
58406.524
5325.8142
44628.381
91932.635
35342.289
135600.41
53288.136
-4548.1763
57454.737
-11423.351
-2750.0614
54671.185
34060.583
29965.684
34632.674
17801.383
38282.044
74291.452
52186.552
6105.8714
37725.747
60396.026
-3371.7109
-118099.01
-124156.83
-23944.798
29592.353
50293.596
64988.983
48889.337
59231.498
101287.98
88231.484
129128.64
150102.43
54197.807
-76811.859
-112820.58
-42227.926
-19294.73
3140.0841
7177.7928
2111.358
11338.576
6815.288
11299.24
2882.0446
1238.6023
24192.721
12594.036
7466.9496
16979.538
15725.512
2237.3264
14071.529
14077.654
5364.5213
5903.0768
22444.123
23096.639
32865.111
-676.601
-239.75002
42661.407
27202.787
30191.313
8021.5855
54979.949
99800.364
6121.3478
40336.236
51282.002
31622.406
56457.611
72960.75
59655.755
8076.7032
47024.685
90264.859
32597.628
131928.94
50367.672
1170.7959
43885.661
-27554.812
55.995597
51247.135
32673.323
26573.847
28188.906
13245.231
37148.669
76665.229
54838.497
1467.2773
25119.154
50001.222
-14197.166
-117008.84
-144984.76
-35928.199
22160.27
47300.156
62277.368
46708.21
51484.644
99840.486
80347.511
131639.29
140967.52
38993.99
-92304.531
-123707.49
-44811.758
-19704.893
3360.856
7362.8861
2491.2437
11532.783
6662.2849
11219.816
2144.0116
130.43048
25993.821
12769.413
6364.8314
18035.793
13976.103
3014.8893
11059.495
14594.41
6205.2453
5482.8804
22493.48
24159.892
33536.971
-266.73134
-853.51958
43333.239
27339.071
27519.257
6989.665
53837.856
94885.868
6428.3914
39735.527
51009.224
38728.839
51980.601
70618.59
52400.661
-577.72713
44952.02
88726.283
27531.383
123924.24
46784.24
-5356.0904
32270.646
-39109.654
-5531.7199
42941.587
33258.937
26885.78
20439.26
1297.7162
32814.847
85571.938
56347.72
-2564.979
19319.235
40590.261
-30309.694
-124944.83
-145321.38
-52837.689
8342.5369
38115.229
57514.312
43980.432
35967.201
88298.538
64899.975
130857.56
134122.99
29001.312
-117493.91
-139201.82
-42510.227
-20126.126
3566.4928
7538.5476
2726.3204
11831.956
6341.4003
10931.956
1741.7124
-426.99174
26070.085
13712.075
4911.8912
18164.207
13119.335
4037.093
10718.879
14833.22
6742.7041
6079.7107
22789.92
24198.882
31763.263
-941.79348
-689.54474
42087.153
27668.54
30211.327
9145.9539
53595.008
86329.659
3968.7959
40618.389
50874.089
33103.32
46422.93
71452.963
38759.975
-11630.024
40076.327
84518.895
27337.783
118236.14
38361.05
-2884.2958
27909.509
-46610.24
-7852.5242
45319.649
32661.144
25676.319
18474.241
-3811.2001
32032.948
84906.326
52255.598
834.77737
20964.99
35964.868
-36894.427
-135328.3
-151586.92
-64463.005
-8336.0511
15618.286
56594.558
53399.487
28426.73
64714.291
49565.523
126963.04
130096.7
22238.515
-139972.89
-156630.04
-41729.904
-20545.753
3797.8323
7554.5008
2986.9882
12127.224
6492.5627
9864.238
587.48646
672.49898
24284.442
13819.173
5405.48
18591.584
12873.102
5074.2327
10929.39
14790.102
6256.829
4957.9194
22474.817
24698.559
30897.859
-2958.945
-2384.1375
42449.014
28343.62
27706.783
8301.4833
52349.257
74991.195
3447.5627
41068.07
49606.701
34392.014
41227.096
75103.406
27728.945
-25622.344
36297.545
79152.405
26496.555
116168.9
33058.311
-11505.462
22015.73
-50072.454
-2911.4508
56865.272
35209.478
25307.21
18488.523
597.69224
32567.871
73757.811
47249.854
9395.218
23018.205
27054.277
-45149.141
-142245.88
-158847.11
-75656.89
-10590.076
8774.5814
58624.655
63527.665
37031.728
60896.787
44476.548
131721.5
135826.27
14570.285
-159334.96
-166951.9
-38475.283
-20895.721
4146.2993
7379.3246
3239.1652
11914.204
7914.3407
8338.3787
-1897.6691
1984.2022
24837.783
13456.397
6133.4466
19650.286
12773.755
4513.897
10275.18
14734.042
6956.7873
4976.7722
21472.589
24787.96
29844.516
-6146.6744
-4948.7057
41480.52
28385.523
29042.99
9090.1327
49915.64
58156.758
2791.4012
42153.739
47843.222
31661.62
41196.708
77397.296
24383.894
-23364.391
31192.002
68926.432
28468.643
115211.8
27674.058
-11598.931
13186.066
-57510.165
-3461.8563
66343.707
32970.64
25386.775
22117.812
-4765.9638
32318.528
74049.276
49250.418
11396.11
14685.192
17648.738
-60281.137
-156974.76
-173957.68
-88544.451
4088.0789
30566.581
71397.004
67693.323
45790.821
60251.954
46903.161
163120.16
136355.31
10643.025
-177287.62
-166446.43
-25778.886
-21120.619
4650.8873
7236.0424
3600.3576
10618.01
10292.696
7270.1022
-3068.5948
2024.2406
25986.528
13761.525
5726.289
19240.106
12433.82
4980.3812
10600.563
14681.761
6852.4431
3914.3695
19389.937
24766.453
28523.898
-8028.2083
-4797.3222
41666.16
28654.219
27811.931
7838.1911
46342.35
44302.734
790.51686
41826.802
47938.328
31446.454
45485.827
74996.007
25939.658
-12746.502
25113.732
54526.148
31122.68
111378.91
15620.385
-10992.199
11604.87
-74796.447
-9490.8188
75347.958
28730.923
23338.447
23275.83
-6536.6721
35185.863
75985.533
46628.219
8689.444
8094.7878
9076.1577
-70624.706
-171926.11
-198227.05
-104743.65
19137.535
111581.17
93252.814
72940.135
62677.768
37948.339
57073.036
167426.92
130150.04
5718.1424
-200258.93
-214414.25
-27951.252
-21296.329
5234.654
7462.5114
4463.373
8621.8213
11832.931
7912.5118
-3191.7964
2398.21
25734.527
13648.853
5815.7393
19171.242
11637.668
4852.5087
10375.436
14760.992
6755.8309
3450.9022
17052.73
23920.655
27286.686
-7969.3279
-3334.758
40589.988
28281.647
27550.753
8243.7416
44037.268
37933.215
1145.7676
40346.015
44611.214
31083.903
45801.25
68717.114
29617.771
1422.61
19827.746
42340.926
32246.003
108404.49
1388.6756
-18580.528
12111.623
-84295.662
-13947.253
75500.739
24261.129
22629.598
19281.117
-16891.217
29195.466
74855.087
42548.168
4258.7901
7406.2229
-978.35954
-76914.898
-171820.98
-207551.76
-113802.17
25099.748
135735.86
82205.469
36194.369
80516.456
-10156.989
65423.825
101959.81
125961.22
-3142.9994
-244231.44
-238189.68
-19817.271
-21786.678
5707.3896
8231.4247
5904.135
7574.2988
12145.292
8992.1978
-3610.6818
2019.5481
25695.597
13850.571
5844.69
18638.472
10455.936
5112.5467
10281.581
14786.531
6556.3412
2204.4432
15516.955
23133.046
25991.486
-5071.1186
-1669.5055
38161.013
28531.487
26584.578
7382.5217
44366.087
32335.062
1788.8928
38227.78
42826.238
30255.376
44108.822
62282.155
34542.672
16599.774
14659.409
32627.848
35941.65
104963.57
-7168.5887
-19206
6243.6294
-85694.698
-21099.025
70327.269
22399.072
21863.338
14977.172
-23571.247
23117.117
84814.596
38389.646
276.17016
1155.2483
-11902.81
-81295.327
-162469.11
-187962.27
-111358.43
25256.272
130181.34
74756.071
16045.765
108834.31
85987.445
92559.268
37507.052
102246.7
-20528.151
-296659.9
-297036.5
588.34539
-23249.191
5939.5158
9179.7957
6954.4779
7694.9105
12214.896
8850.2587
-3679.8063
2193.4647
25601.849
13819.413
5957.6805
17971.29
9447.8308
5391.1915
9808.1819
14483.975
6560.8146
2309.7042
14804.274
22275.586
24458.229
290.77274
269.79841
33892.641
28690.548
25203.709
6024.7761
41787.22
28213.747
1118.3441
36436.349
41584.091
29403.392
40428.994
54396.439
39805.078
22773.978
13922.873
31299.66
36550.716
100956.92
-10269.229
-17710.313
-807.45767
-95296.79
-24920.341
68914.335
21145.314
21829.509
12321.236
-38858.099
19615.263
83375.172
29620.709
-5908.1242
-3015.4876
-16756.037
-79967.836
-161193.38
-190061.02
-109859.19
20811.673
120051.63
62835.73
10142.647
144252.06
122931.18
87744.559
48410.786
75138.907
-63748.002
-314858.49
-351398.29
-3567.7366
-25504.919
5845.5422
9250.5001
7379.1786
7695.8421
12069.484
8862.3286
-3751.2842
1994.5446
25249.811
13571.617
5563.4836
17383.615
8547.7808
5663.6948
9465.0159
14212.576
6762.1578
2266.9323
14393.158
21461.758
22750.606
5792.9249
1485.2346
27176.262
28242.599
24328.504
5067.4437
39515.946
25321.697
1742.6219
32496.13
39873.434
28200.068
28990.435
39097.789
49867.552
19009.936
16353.646
35821.055
37482.329
101425.88
-13319.86
-18815.99
-6022.368
-106154.84
-22154.452
66648.499
17317.89
20574.3
17789.334
-27280.783
14053.898
65145.008
19086.985
-9078.1828
-6917.4863
-21966.428
-80246.325
-157577.29
-189013.43
-113704.05
21076.301
119063.15
54022.031
3643.0284
114735.48
136668.4
100489.66
51269.063
31697.392
-118347.66
-320134.06
-370666.9
-2517.9151
-25231.645
4750.4362
8326.2201
7793.8162
7615.8944
11972.831
8842.3997
-3803.0012
1879.4922
24434.734
13038.555
4841.4051
16978.228
7676.6532
5735.5069
9252.5535
13836.541
7010.8968
2565.9025
14260.164
20154.234
20682.613
10230.722
2047.3534
20009.433
27206.501
24205.971
5550.5612
37390.665
21203.055
1689.0155
27018.702
37606.449
24776.099
19366.25
23754.307
63183.05
12935.08
16761.957
41808.109
39389.701
102906.5
-14600.076
-18726.299
-12178.289
-110310.9
-22140.678
64152.235
14656.29
19771.987
17821.393
-10305.802
7280.1707
30744.603
10678.012
-6162.3969
-10872.951
-28410.854
-86613.505
-156716.49
-185161.76
-111134.44
27976.816
132854.58
45342.393
-602.87161
111907.15
130676.03
99975.04
55989.915
-11414.107
-109104.26
-338233.88
-369137.43
7120.1571
-16178.196
2315.3154
7652.2039
7975.571
7621.6397
11860.36
8828.1382
-3928.3629
2078.0334
23530.718
12396.531
4317.9909
16641.054
6926.2895
5785.4902
9133.2568
13457.088
7148.9754
3096.3731
13956.118
18571.414
18542.92
13125.316
2361.7375
14054.46
25918.493
24404.543
7432.0361
34709.169
16864.154
1617.9984
22869.33
37099.464
21126.141
16031.952
33641.616
72149.411
7932.6211
17571.951
45426.21
40016.206
102587.01
-16844.495
-17824.667
-14693.776
-113520.64
-23410.304
71171.047
14207.5
19135.649
9018.7833
4478.456
-1489.4145
-10645.934
5634.5027
-2353.5972
-15930.949
-34093.633
-89991.211
-162815.31
-186045.51
-109051.66
33882.642
119968.82
46117.028
9744.0215
91317.948
129738.78
93603.487
59244.163
46938.69
-54995.314
-304286.87
-329156.54
8173.3668
1733.1282
1371.1504
7524.3715
7927.5685
7700.3879
11752.132
8799.4549
-4153.4172
1920.5674
22519.488
11963.267
4122.5687
16294.536
6420.2328
5913.2208
9056.2369
12947.093
7194.6789
3412.5053
13475.493
17632.29
15899.898
14830.074
2562.0663
10190.091
24436.797
24199.892
9580.1283
33223.172
13182.589
-981.06941
19242.149
37340.218
17381.791
15367.23
33693.505
72583.573
2783.7502
20666.616
50699.681
40932.305
101356.77
-23542.801
-18516.148
-16696.229
-114357.49
-21939.995
20122.796
5218.5811
18506.748
-1784.2893
-1652.531
-13207.723
-34051.038
-739.67176
-434.22198
-19625.591
-39670.606
-94125.269
-161296.53
-181463.99
-104613.98
34727.132
115840.94
57507.975
20863.409
97510.195
121901.48
86687.396
73739.238
81954.552
-47116.612
-252815.23
-205677.79
3297.3751
6672.1558
2970.4052
7411.9978
7959.7445
7682.1029
11704.18
8716.4641
-4421.4699
1463.7386
21363.822
11476.313
3968.8153
15855.264
6316.0297
6253.1084
9139.7956
12681.465
7186.2394
3868.235
13295.923
16665.97
12801.865
15316.052
2573.9938
8157.596
23550.346
23507.965
11033.607
34047.464
9108.2961
-4310.2445
17561.091
35944.002
13143.717
13887.261
32480.466
66910.343
-978.06037
26608.464
55956.703
40654.725
99248.939
-26743.682
-20907.836
-20968.549
-118261.67
-20028.981
11865.932
4440.732
22994.225
88.926499
-28495.66
-30851.245
-38943.673
-4888.1035
-9447.9929
-27393.684
-46909.454
-95817.5
-152326.18
-162540.66
-93205.979
30691.534
127404.26
70787.571
17518.681
85354.305
105352.08
71400.213
81816.905
114313.08
-32093.497
-251000.58
-140308.29
-3670.8323
-2301.6827
3970.8586
7439.8321
7936.1816
7704.1297
11624.701
8611.9403
-4752.6324
1188.474
20179.28
10700.281
3753.3292
15363.042
6530.3106
6772.4344
9331.5422
12444.949
7515.3305
4692.2065
13363.719
15873.093
9593.0968
14290.66
2463.2944
7417.2463
23031.305
22882.484
11579.74
35514.655
5747.1378
-7998.4877
15690.208
33031.917
9424.9298
13759.582
30679.052
64984.198
-3105.0141
32715.192
57611.974
40581.322
98340.189
-27648.277
-25442.446
-26879.378
-124683.42
-14493.987
30068.213
5012.7828
29843.194
9786.6262
-41369.861
-53476.06
-41656.208
-1505.0708
-33413.142
-53514.164
-59044.858
-100938.05
-144200.93
-139847.96
-79096.711
41884.562
130306.19
86257.375
57148.128
90881.847
94711.769
76696.715
84862.58
102343.66
-32792.499
-244349.81
-126952.39
-4449.8465
-2228.4564
3777.6116
7462.8055
7861.0747
7705.3542
11521.77
8490.9245
-5118.1466
838.73874
18977.096
9935.4162
3576.1271
14807.665
6839.1805
7327.9469
9605.2179
12257.603
8366.0905
5763.8779
13620.726
15377.829
6208.8376
12477.816
1886.4108
8255.0621
23065.034
22381.13
10979.932
37148.328
3543.2205
-12461.507
12632.46
31288.254
7429.2031
14424.401
28935.799
61582.851
-3958.4143
39663.106
57650.657
39748.437
99036.437
-35307.92
-26939.483
-37956.821
-124929.23
-4074.5986
15815.696
1468.8781
31705.914
23482.865
-40674.238
-66620.508
-43427.682
-7197.5603
-64330.814
-65995.028
-72677.959
-111852.83
-145553.6
-149128
-68316.251
46280.473
123679.97
88262.201
52894.711
76952.911
89807.012
80534.474
84131.332
88814.753
-49647.858
-229469.04
-109185.81
-4644.1216
-1897.6321
4018.4231
7472.0361
7791.8944
7714.0308
11398.296
8337.1783
-5529.9845
264.65705
17792.356
9365.9441
3502.0143
14291.6
6924.8284
7523.0363
9843.6663
12070.208
9213.7434
6187.5215
13615.474
15224.748
3228.5338
10040.709
1063.6138
10733.579
23550.717
22511.302
11232.672
38325.561
176.90705
-15421.613
11778.441
29651.838
6426.3738
14041.728
29499.248
57537.756
-3615.4881
44863.689
58494.101
38385.862
98636.484
-46964.88
-33541.261
-41178.152
-142086.57
6395.6947
22683.605
3121.0306
29880.446
25756.585
-29926.704
-64659.541
-33122.912
-25805.981
-94415.923
-65784.806
-85667.321
-128051.89
-147563.74
-149873.58
-68706.406
38629.527
108699.35
86032.914
58147.137
76962.782
88434.072
72990.619
72925.094
69681.159
-53982.724
-193607.45
-100865.07
-10831.947
-1431.4883
4165.1749
7470.236
7737.0671
7751.8177
11262.51
8144.3198
-5980.5212
-456.69568
16629.68
8936.8123
3526.9448
13894.23
6953.0172
7221.3375
9599.6676
11367.614
9617.4032
6278.0661
13433.241
15538.251
1112.2584
6995.0152
618.4849
14450.595
24300.225
23054.106
12936.549
38962.604
-2639.0292
-18180.158
11059.182
28630.511
4701.497
11355.047
31757.125
55877.557
-2453.2813
47169.576
55609.182
35467.18
97732.249
-55985.536
-46434.835
-38559.26
-129436.57
18287.964
39307.385
8136.7891
26568.386
22343.414
-22536.299
-55324.289
-12427.358
-48880.6
-114781.89
-59078.654
-92584.238
-142711.62
-151891.84
-140985.15
-64385.966
39154.252
101343.49
82111.85
66404.416
79112.954
67361.284
63893.423
64032.616
51633.989
-62210.96
-161457.36
-91534.125
-4247.0682
-973.92707
4377.5926
7466.2691
7698.8985
7800.8635
11119.379
7906.4679
-6479.4767
-1244.5629
15434.499
8551.1844
3642.0137
13582.524
7014.3479
6667.2623
8962.8762
10229.622
9800.3771
6412.6847
13068.286
16050.496
-423.24147
3920.7689
480.45019
17672.571
24961.469
23649.359
14054.918
38973.763
-97.605912
-20410.43
11333.918
28406.884
2243.211
6321.5777
32532.222
55039.358
-198.86182
46206.37
44919.886
29069.761
97161.802
-61407.14
-62665.152
-38736.709
-100633.53
26190.974
27847.675
8414.9196
25759.118
20937.934
-30404.545
-44641.458
10444.382
-64401.716
-124664.56
-49194.952
-91979.229
-148946.36
-155360.82
-138938.84
-63536.577
36124.461
92812.553
76257.189
63805.78
66131.319
67538.796
58692.395
56536.869
45949.252
-62132.77
-161290.03
-105663.45
-6455.0169
-485.67964
4511.5592
7462.6066
7677.646
7859.2673
10969.333
7627.2634
-7031.3168
-2015.3532
14183.168
8145.3582
3813.7969
13225.007
6956.5335
5992.1345
8310.9961
9171.5373
9957.4149
6760.323
12687.874
16664.871
-1326.8883
622.12081
709.75743
19476.741
24437.496
23411.389
14849.836
38579.608
6421.3557
-18622.008
13952.553
26832.519
-874.21906
720.8978
32492.856
52389.104
2203.5087
49104.373
38758.154
25035.691
100277.78
-62107.264
-75702.195
-43716.359
-96408.029
30303.112
28917.878
8008.5267
28355.258
24490.437
-39292.629
-26001.753
32958.765
-73387.878
-126183.04
-42074.237
-95838.622
-151059.4
-156204.5
-130558.84
-62003.16
32039.004
84797.778
71712.814
66716.259
67676.926
53480.615
51190.924
50658.6
40965.807
-48058.941
-153097.08
-95515.285
5339.4645
-20.005879
4723.2904
7451.8376
7668.5511
7916.6256
10815.586
7307.9366
-7626.0579
-2771.475
12906.91
7684.0024
4009.4231
12778.417
6813.3106
5201.1734
7646.8933
8355.2435
9990.0374
7223.0888
12515.437
17639.827
-1508.0256
-2897.3323
1089.9763
20730.47
23966.027
23157.42
15561.208
37967.747
13511.031
-13937.322
20438.734
26680.061
-3256.7043
-2638.6781
32230.576
50573.521
4192.8885
52173.843
34537.668
31226.726
101997.4
-56725.414
-78744.52
-43248.187
-92533.854
36692.474
39080.588
8675.8197
29210.525
27462.758
-43300.502
2774.9733
58383.661
-75244.8
-126237.43
-38878.449
-113309.76
-155380.32
-160419.91
-140461.86
-60728.12
31380.197
76865.212
67062.246
64917.542
63150.386
47338.606
43431.525
44138.319
36601.575
-34676.552
-127236.34
-75095.707
5654.7116
475.70741
4813.7589
7448.8615
7672.6957
7981.7149
10661.12
6956.9357
-8222.3743
-3514.107
11613.579
7190.6244
4209.267
12357.642
6770.2534
4447.1459
7040.532
7738.054
9960.6636
7731.1849
12401.794
18333.453
-1535.3519
-5136.2082
2367.0354
21388.893
23372.314
22867.252
16145.911
37125.42
17391.022
-9816.824
25976.145
27868.343
-4673.2972
-3992.3865
32473.846
44211.946
4847.6382
53432.821
28429.216
22312.698
99889.316
-49117.175
-61923.134
-41858.833
-87524.206
40582.151
40828.782
9444.181
30918.271
29520.795
-43219.061
24644.766
72910.73
-68052.369
-110184.74
-34773.091
-134861.27
-171126.16
-180449.36
-152587.69
-66543.588
24609.485
67340.468
61265.191
62223.504
54010.799
38027.574
35938.206
39016.834
33638.297
-20376.91
-96897.019
-55283.772
4279.7583
949.85175
5066.6073
7434.9058
7690.9252
8045.4896
10505.168
6574.4397
-8766.1125
-4223.9466
10384.51
6757.0029
4456.7487
12147.69
6855.5898
3756.0923
6531.7945
7215.5073
9787.8486
8184.225
12384.963
18877.518
-1517.4597
-5572.7888
3697.1172
20710.594