/*--------------------------------*- C++ -*----------------------------------*\
| =========                 |                                                 |
| \\      /  F ield         | OpenFOAM: The Open Source CFD Toolbox           |
|  \\    /   O peration     | Version:  2.3.0                                 |
|   \\  /    A nd           | Web:      www.OpenFOAM.org                      |
|    \\/     M anipulation  |                                                 |
\*---------------------------------------------------------------------------*/
FoamFile
{
    version     2.0;
    format      ascii;
    class       surfaceScalarField;
    location    "1e-05";
    object      phi;
}
// * * * * * * * * * * * * * * * * * * * * * * * * * * * * * * * * * * * * * //

dimensions      [0 3 -1 0 0 0 0];

internalField   nonuniform List<scalar> 
14825
(
1.0338954e-09
-2.0133993e-11
1.0554192e-09
-2.1523856e-11
1.0740923e-09
-1.8673034e-11
1.0964952e-09
-2.2402935e-11
1.1160599e-09
-1.9564699e-11
1.1355918e-09
-1.9531872e-11
1.1572119e-09
-2.162016e-11
1.1749528e-09
-1.7740915e-11
1.1971229e-09
-2.2170076e-11
1.2153175e-09
-1.8194627e-11
1.2362926e-09
-2.0975078e-11
1.2552008e-09
-1.8908161e-11
1.2748288e-09
-1.9628036e-11
1.2948503e-09
-2.0021522e-11
1.3116695e-09
-1.6819152e-11
1.3333874e-09
-2.1717913e-11
1.3502668e-09
-1.6879395e-11
1.3696756e-09
-1.9408842e-11
1.3881449e-09
-1.8469236e-11
1.4071175e-09
-1.8972654e-11
1.4246347e-09
-1.7517187e-11
1.4433511e-09
-1.871637e-11
1.4601254e-09
-1.6774301e-11
1.4775424e-09
-1.7417042e-11
1.4957735e-09
-1.8231022e-11
1.5124576e-09
-1.668416e-11
1.529793e-09
-1.7335415e-11
1.54406e-09
-1.4266989e-11
1.5641811e-09
-2.0121112e-11
1.5782543e-09
-1.4073205e-11
1.593826e-09
-1.557171e-11
1.611352e-09
-1.7526006e-11
1.625433e-09
-1.4080964e-11
1.6408821e-09
-1.5449075e-11
1.6555904e-09
-1.4708334e-11
1.669712e-09
-1.412162e-11
1.6862878e-09
-1.6575779e-11
1.6989043e-09
-1.2616466e-11
1.7113402e-09
-1.24359e-11
1.7267509e-09
-1.5410757e-11
1.7405187e-09
-1.37678e-11
1.7511062e-09
-1.0587473e-11
1.7663284e-09
-1.5222201e-11
1.779683e-09
-1.3354603e-11
1.7902649e-09
-1.0581921e-11
1.8035906e-09
-1.332563e-11
1.814613e-09
-1.1022456e-11
1.8278794e-09
-1.3266411e-11
1.8349201e-09
-7.0406899e-12
1.8501483e-09
-1.5228146e-11
1.8531684e-09
-3.0201006e-12
1.8685077e-09
-1.5339323e-11
1.8749582e-09
-6.4505044e-12
1.8866338e-09
-1.1675559e-11
1.8925281e-09
-5.8943126e-12
1.9044375e-09
-1.190945e-11
1.9107439e-09
-6.3063841e-12
1.9210669e-09
-1.032302e-11
1.9255004e-09
-4.4334196e-12
1.9395078e-09
-1.400741e-11
1.9415076e-09
-1.9998808e-12
1.9531487e-09
-1.1641021e-11
1.9651211e-09
-1.1972414e-11
1.9617642e-09
3.3568819e-12
1.9729321e-09
-1.1167929e-11
1.9749484e-09
-2.0162375e-12
1.9807301e-09
-5.7817688e-12
1.9862163e-09
-5.4861716e-12
2.0004001e-09
-1.4183778e-11
1.9868649e-09
1.353521e-11
1.996706e-09
-9.8410783e-12
2.0003254e-09
-3.6194481e-12
2.0015777e-09
-1.2523163e-12
2.0051699e-09
-3.5922039e-12
-4.3785705e-13
2.8611519e-09
-7.9319936e-11
2.9241706e-09
-8.4542622e-11
2.9796163e-09
-7.4118718e-11
3.0448451e-09
-8.7631673e-11
3.1032432e-09
-7.796282e-11
3.1606651e-09
-7.6953833e-11
3.2248046e-09
-8.575962e-11
3.2782375e-09
-7.1173813e-11
3.3434077e-09
-8.7340264e-11
3.3986218e-09
-7.3408705e-11
3.4604679e-09
-8.2821261e-11
3.5178145e-09
-7.6254682e-11
3.576422e-09
-7.8235565e-11
3.6361641e-09
-7.9763648e-11
3.6880509e-09
-6.8705876e-11
3.7520292e-09
-8.5696221e-11
3.8045225e-09
-6.9372725e-11
3.8627682e-09
-7.7654515e-11
3.918899e-09
-7.4600054e-11
3.9771893e-09
-7.726293e-11
4.0304218e-09
-7.0749694e-11
4.0874064e-09
-7.5701021e-11
4.1395453e-09
-6.8913148e-11
4.1932238e-09
-7.1095532e-11
4.249131e-09
-7.4138297e-11
4.3006302e-09
-6.8183331e-11
4.3551004e-09
-7.1805663e-11
4.4004992e-09
-5.9665769e-11
4.4607126e-09
-8.0334516e-11
4.5068152e-09
-6.0175739e-11
4.5564225e-09
-6.5179013e-11
4.6098514e-09
-7.0954922e-11
4.6558774e-09
-6.0106982e-11
4.7048947e-09
-6.446642e-11
4.7517679e-09
-6.1581536e-11
4.7979079e-09
-6.026156e-11
4.8500848e-09
-6.8752702e-11
4.8914112e-09
-5.3942891e-11
4.933634e-09
-5.465865e-11
4.9813749e-09
-6.315164e-11
5.0302524e-09
-6.2645369e-11
5.0656111e-09
-4.5946134e-11
5.1183975e-09
-6.8008617e-11
5.1585475e-09
-5.3504536e-11
5.1962099e-09
-4.8244416e-11
5.2384451e-09
-5.5560763e-11
5.2749132e-09
-4.7490623e-11
5.3196792e-09
-5.8032327e-11
5.3468377e-09
-3.4199242e-11
5.4046222e-09
-7.3012622e-11
5.4182821e-09
-1.6680004e-11
5.4682883e-09
-6.5345489e-11
5.4940088e-09
-3.2171065e-11
5.5354972e-09
-5.3163902e-11
5.5580773e-09
-2.8474411e-11
5.5997502e-09
-5.3582361e-11
5.6223554e-09
-2.8911618e-11
5.6647923e-09
-5.2759902e-11
5.685294e-09
-2.493515e-11
5.7272114e-09
-5.5924825e-11
5.7377748e-09
-1.2563235e-11
5.7696583e-09
-4.3524501e-11
5.8059109e-09
-4.8225024e-11
5.8096323e-09
-3.6456996e-13
5.8435299e-09
-4.5065537e-11
5.8659177e-09
-2.4404002e-11
5.8893147e-09
-2.9178735e-11
5.9095643e-09
-2.5735789e-11
5.9492081e-09
-5.3827635e-11
5.9273778e-09
3.5365545e-11
5.9598007e-09
-4.2263941e-11
5.9831376e-09
-2.6956374e-11
5.993776e-09
-1.1890721e-11
6.0087981e-09
-1.8614319e-11
-1.0080642e-11
4.3647375e-09
-1.7594792e-10
4.4657548e-09
-1.8555991e-10
4.5578628e-09
-1.6622674e-10
4.662924e-09
-1.9269286e-10
4.7594136e-09
-1.7445238e-10
4.8536743e-09
-1.7121462e-10
4.9586894e-09
-1.9077469e-10
5.0481611e-09
-1.6064553e-10
5.1539427e-09
-1.931218e-10
5.2473276e-09
-1.6679362e-10
5.3478122e-09
-1.8330586e-10
5.4434191e-09
-1.7186159e-10
5.5411743e-09
-1.759908e-10
5.6394236e-09
-1.7801291e-10
5.7292399e-09
-1.5852223e-10
5.8331394e-09
-1.8959569e-10
5.9224509e-09
-1.5868418e-10
6.0194305e-09
-1.7463418e-10
6.1133523e-09
-1.6852186e-10
6.2124937e-09
-1.7640429e-10
6.303673e-09
-1.6192905e-10
6.3999831e-09
-1.7201105e-10
6.4907717e-09
-1.5970182e-10
6.581523e-09
-1.6184675e-10
6.676696e-09
-1.6931133e-10
6.7648219e-09
-1.5630923e-10
6.8570091e-09
-1.639929e-10
6.9403025e-09
-1.4295914e-10
7.0389257e-09
-1.7895774e-10
7.1220023e-09
-1.4325232e-10
7.2103949e-09
-1.5357162e-10
7.3015197e-09
-1.6207973e-10
7.3824339e-09
-1.4102113e-10
7.4695021e-09
-1.5153467e-10
7.5517286e-09
-1.4380803e-10
7.6354749e-09
-1.4400782e-10
7.7239961e-09
-1.5727397e-10
7.7997725e-09
-1.2971928e-10
7.8795362e-09
-1.3442232e-10
7.9598473e-09
-1.4346273e-10
8.0494998e-09
-1.5229786e-10
8.1103278e-09
-1.0677414e-10
8.2038948e-09
-1.6157562e-10
8.2737817e-09
-1.2339139e-10
8.3509943e-09
-1.2545704e-10
8.4314101e-09
-1.3597652e-10
8.4980959e-09
-1.1417649e-10
8.5797813e-09
-1.3971771e-10
8.6301818e-09
-8.4599683e-11
8.7373448e-09
-1.8017568e-10
8.7712492e-09
-5.0584366e-11
8.8608514e-09
-1.5494771e-10
8.9110208e-09
-8.2340456e-11
8.9907643e-09
-1.3290738e-10
9.038701e-09
-7.6411162e-11
9.1180962e-09
-1.3297758e-10
9.1639591e-09
-7.4774461e-11
9.244526e-09
-1.3332678e-10
9.2939232e-09
-7.4332382e-11
9.3645742e-09
-1.2657586e-10
9.3981556e-09
-4.614462e-11
9.4633089e-09
-1.0867783e-10
9.5307393e-09
-1.1565541e-10
9.5608388e-09
-3.0464032e-11
9.6249442e-09
-1.0917096e-10
9.674975e-09
-7.4434834e-11
9.7085773e-09
-6.2781048e-11
9.7660034e-09
-8.3161835e-11
9.8273847e-09
-1.1520896e-10
9.8295254e-09
3.3224855e-11
9.8918751e-09
-1.0461365e-10
9.9591219e-09
-9.4203139e-11
9.9727151e-09
-2.5483996e-11
1.0001942e-08
-4.7841505e-11
-4.0879622e-11
5.5877521e-09
-3.0722928e-10
5.7235654e-09
-3.2137326e-10
5.8533184e-09
-2.9597968e-10
5.9947837e-09
-3.3415822e-10
6.1298665e-09
-3.095351e-10
6.2603044e-09
-3.0165256e-10
6.4026356e-09
-3.3310586e-10
6.5290402e-09
-2.8705012e-10
6.6719335e-09
-3.3601511e-10
6.8044949e-09
-2.9935501e-10
6.9413908e-09
-3.202018e-10
7.0763227e-09
-3.0679347e-10
7.2126037e-09
-3.1227179e-10
7.3475973e-09
-3.1300653e-10
7.4761979e-09
-2.8712285e-10
7.6176253e-09
-3.3102312e-10
7.7483523e-09
-2.8941114e-10
7.885203e-09
-3.1148485e-10
8.0171762e-09
-3.0049511e-10
8.1554326e-09
-3.1466064e-10
8.2831806e-09
-2.8967707e-10
8.4206539e-09
-3.0948438e-10
8.554264e-09
-2.9331193e-10
8.6810473e-09
-2.8863002e-10
8.8183643e-09
-3.0662836e-10
8.9461223e-09
-2.8406721e-10
9.0775817e-09
-2.9545231e-10
9.2022858e-09
-2.6766323e-10
9.3371012e-09
-3.1377315e-10
9.4613135e-09
-2.6746453e-10
9.5903091e-09
-2.8256722e-10
9.7217443e-09
-2.9351498e-10
9.8397507e-09
-2.5902753e-10
9.9671445e-09
-2.7892842e-10
1.0085687e-08
-2.623501e-10
1.0213725e-08
-2.7204645e-10
1.0338683e-08
-2.8223158e-10
1.0452952e-08
-2.4398833e-10
1.0575934e-08
-2.5740465e-10
1.0693515e-08
-2.6104361e-10
1.0830151e-08
-2.889337e-10
1.0925323e-08
-2.0194615e-10
1.1071688e-08
-3.0794101e-10
1.1172503e-08
-2.2420593e-10
1.127744e-08
-2.3039401e-10
1.1387077e-08
-2.4561386e-10
1.1494101e-08
-2.2120078e-10
1.1628722e-08
-2.7433842e-10
1.1712695e-08
-1.6857233e-10
1.1867945e-08
-3.3542589e-10
1.1925316e-08
-1.0795532e-10
1.2069191e-08
-2.9882258e-10
1.2149235e-08
-1.6238462e-10
1.227336e-08
-2.5703258e-10
1.2355832e-08
-1.5888292e-10
1.2479515e-08
-2.5666021e-10
1.2555542e-08
-1.5080194e-10
1.2676235e-08
-2.5402015e-10
1.2765208e-08
-1.6330481e-10
1.2872968e-08
-2.3433554e-10
1.2935837e-08
-1.0901362e-10
1.3037396e-08
-2.1023747e-10
1.3143749e-08
-2.2200867e-10
1.320808e-08
-9.4794632e-11
1.3299336e-08
-2.0042659e-10
1.3398453e-08
-1.7355238e-10
1.3456431e-08
-1.2075888e-10
1.3566114e-08
-1.9284501e-10
1.3648599e-08
-1.9769385e-10
1.368249e-08
-6.6615166e-13
1.378313e-08
-2.0525359e-10
1.3888631e-08
-1.9970383e-10
1.3909532e-08
-4.6384939e-11
1.3982952e-08
-1.2126225e-10
-1.0469883e-10
6.5686899e-09
-4.7014783e-10
6.7400091e-09
-4.9269253e-10
6.9050686e-09
-4.6103912e-10
7.0807858e-09
-5.0987542e-10
7.2538955e-09
-4.8264477e-10
7.4172013e-09
-4.6495838e-10
7.5957015e-09
-5.1160607e-10
7.7589993e-09
-4.5034798e-10
7.9345229e-09
-5.1153864e-10
8.1080663e-09
-4.7289844e-10
8.2784385e-09
-4.9057403e-10
8.4516581e-09
-4.8001298e-10
8.6262707e-09
-4.868844e-10
8.7988079e-09
-4.8554378e-10
8.968553e-09
-4.5686794e-10
9.1458442e-09
-5.0831433e-10
9.3169988e-09
-4.6056574e-10
9.4901335e-09
-4.846195e-10
9.6603293e-09
-4.7069097e-10
9.8426577e-09
-4.9698905e-10
1.0012327e-08
-4.5934639e-10
1.0181819e-08
-4.7897667e-10
1.0359307e-08
-4.7079997e-10
1.0526173e-08
-4.554955e-10
1.0705921e-08
-4.8637671e-10
1.0872772e-08
-4.5091825e-10
1.1045515e-08
-4.681949e-10
1.1214175e-08
-4.3632383e-10
1.1383453e-08
-4.8305105e-10
1.1555311e-08
-4.3932232e-10
1.1726622e-08
-4.5387855e-10
1.1897913e-08
-4.6480594e-10
1.2059536e-08
-4.2065036e-10
1.2232513e-08
-4.5190527e-10
1.2386029e-08
-4.15866e-10
1.2559055e-08
-4.4507277e-10
1.2720946e-08
-4.4412248e-10
1.2875141e-08
-3.9818272e-10
1.3039086e-08
-4.2135006e-10
1.3200434e-08
-4.2239183e-10
1.3388481e-08
-4.7698089e-10
1.3522323e-08
-3.3578813e-10
1.3721141e-08
-5.0675901e-10
1.3863751e-08
-3.6681506e-10
1.4027282e-08
-3.9392502e-10
1.4176907e-08
-3.952396e-10
1.4321561e-08
-3.6585426e-10
1.4482064e-08
-4.3484212e-10
1.4584579e-08
-2.7108666e-10
1.4793929e-08
-5.4477595e-10
1.4920935e-08
-2.3496161e-10
1.5114627e-08
-4.9251468e-10
1.5208797e-08
-2.5655477e-10
1.5398851e-08
-4.4708648e-10
1.5529995e-08
-2.9002663e-10
1.5692526e-08
-4.1919131e-10
1.5809593e-08
-2.6786931e-10
1.5976862e-08
-4.2128864e-10
1.6106957e-08
-2.9339943e-10
1.625524e-08
-3.8261936e-10
1.6369023e-08
-2.2279604e-10
1.6501912e-08
-3.4312649e-10
1.6657982e-08
-3.7807902e-10
1.6770017e-08
-2.0682995e-10
1.6905424e-08
-3.3583301e-10
1.7033322e-08
-3.0145058e-10
1.7114878e-08
-2.0231471e-10
1.7274357e-08
-3.5232452e-10
1.7413394e-08
-3.3673029e-10
1.7475806e-08
-6.3077831e-11
1.7660286e-08
-3.8973443e-10
1.7791199e-08
-3.3061655e-10
1.7861913e-08
-1.1709868e-10
1.7958553e-08
-2.1790202e-10
-2.0624147e-10
7.3474023e-09
-6.6770351e-10
7.5491175e-09
-6.944078e-10
7.7455996e-09
-6.5752118e-10
7.9557183e-09
-7.1999414e-10
8.1604062e-09
-6.8733266e-10
8.3595748e-09
-6.64127e-10
8.5704371e-09
-7.2246836e-10
8.7702453e-09
-6.5015619e-10
8.9762571e-09
-7.1755044e-10
9.1896151e-09
-6.8625644e-10
9.391841e-09
-6.9279996e-10
9.6031263e-09
-6.9129826e-10
9.815362e-09
-6.9912014e-10
1.0023666e-08
-6.9384728e-10
1.0235363e-08
-6.6856564e-10
1.0446616e-08
-7.1956672e-10
1.065827e-08
-6.7221966e-10
1.0872048e-08
-6.9839823e-10
1.1081536e-08
-6.8017824e-10
1.1300899e-08
-7.1635263e-10
1.1512152e-08
-6.7059883e-10
1.1723959e-08
-6.9078416e-10
1.1949864e-08
-6.9670503e-10
1.2145655e-08
-6.5128665e-10
1.2370626e-08
-7.1134722e-10
1.2573588e-08
-6.5388064e-10
1.2789114e-08
-6.8372052e-10
1.3004183e-08
-6.5139324e-10
1.3206736e-08
-6.8560423e-10
1.3429083e-08
-6.6166931e-10
1.3646499e-08
-6.7129371e-10
1.3858795e-08
-6.7710261e-10
1.4063605e-08
-6.2546011e-10
1.4287035e-08
-6.7533569e-10
1.4483494e-08
-6.123251e-10
1.4702322e-08
-6.6389982e-10
1.4905503e-08
-6.4730417e-10
1.5120804e-08
-6.1348358e-10
1.5320636e-08
-6.2118198e-10
1.551793e-08
-6.1968551e-10
1.5754468e-08
-7.1351945e-10
1.5923575e-08
-5.0489525e-10
1.6163018e-08
-7.4620128e-10
1.6357394e-08
-5.6119107e-10
1.6576769e-08
-6.1330074e-10
1.6775377e-08
-5.9384684e-10
1.6969167e-08
-5.5964502e-10
1.7194543e-08
-6.6021731e-10
1.7357679e-08
-4.3422352e-10
1.7591741e-08
-7.788377e-10
1.772824e-08
-3.7146075e-10
1.7980785e-08
-7.4505956e-10
1.8136929e-08
-4.1269828e-10
1.8368737e-08
-6.7889498e-10
1.8560029e-08
-4.8131883e-10
1.8784028e-08
-6.4318992e-10
1.8928004e-08
-4.1184521e-10
1.9160315e-08
-6.5359939e-10
1.9350727e-08
-4.8381186e-10
1.9525117e-08
-5.5700938e-10
1.9692541e-08
-3.9021986e-10
1.9893608e-08
-5.4419382e-10
2.0073613e-08
-5.5808329e-10
2.022213e-08
-3.5534692e-10
2.0432713e-08
-5.4641693e-10
2.0629043e-08
-4.9777992e-10
2.0735729e-08
-3.0900061e-10
2.09775e-08
-5.9409594e-10
2.1166821e-08
-5.260508e-10
2.1221488e-08
-1.1774549e-10
2.143645e-08
-6.0469631e-10
2.1631524e-08
-5.2569011e-10
2.1795914e-08
-2.8148909e-10
2.1922195e-08
-3.4418279e-10
-3.5369457e-10
7.9495369e-09
-8.9900385e-10
8.1712553e-09
-9.1612624e-10
8.4062761e-09
-8.9254192e-10
8.6394786e-09
-9.5319669e-10
8.8794096e-09
-9.2726369e-10
9.1184362e-09
-9.0315359e-10
9.3547639e-09
-9.5879608e-10
9.596343e-09
-8.9173527e-10
9.8289212e-09
-9.5012865e-10
1.0074999e-08
-9.3233464e-10
1.0316482e-08
-9.3428216e-10
1.0558099e-08
-9.3291585e-10
1.0806998e-08
-9.4801942e-10
1.1053337e-08
-9.4018606e-10
1.1303819e-08
-9.1904701e-10
1.1548029e-08
-9.6377715e-10
1.180042e-08
-9.2461047e-10
1.2052304e-08
-9.5028237e-10
1.2301292e-08
-9.2916665e-10
1.2565328e-08
-9.8038796e-10
1.2819062e-08
-9.2433356e-10
1.3068518e-08
-9.4023925e-10
1.3348928e-08
-9.7711519e-10
1.3575104e-08
-8.7746267e-10
1.3832436e-08
-9.6867898e-10
1.4073686e-08
-8.9513133e-10
1.433464e-08
-9.4467428e-10
1.4595199e-08
-9.1195226e-10
1.4834813e-08
-9.2521779e-10
1.5111958e-08
-9.3881436e-10
1.5371553e-08
-9.3088896e-10
1.5630214e-08
-9.3576374e-10
1.5885577e-08
-8.8082287e-10
1.6149309e-08
-9.3906783e-10
1.6400683e-08
-8.6369926e-10
1.66674e-08
-9.3061707e-10
1.6898861e-08
-8.7876515e-10
1.7184408e-08
-8.9903063e-10
1.742004e-08
-8.5681412e-10
1.7671531e-08
-8.7117633e-10
1.7970896e-08
-1.0128841e-09
1.8185379e-08
-7.1937829e-10
1.8479536e-08
-1.0403581e-09
1.870643e-08
-7.8808481e-10
1.8966975e-08
-8.73846e-10
1.9200614e-08
-8.2748647e-10
1.9420215e-08
-7.792456e-10
1.9717126e-08
-9.5712859e-10
1.9935543e-08
-6.526407e-10
2.0232187e-08
-1.0754815e-09
2.0462283e-08
-6.015568e-10
2.0749119e-08
-1.0318955e-09
2.0899723e-08
-5.6330248e-10
2.1190982e-08
-9.7015324e-10
2.1428554e-08
-7.1889122e-10
2.1705096e-08
-9.1973176e-10
2.1951333e-08
-6.5808187e-10
2.222704e-08
-9.2930664e-10
2.2486388e-08
-7.4315954e-10
2.2728884e-08
-7.9950612e-10
2.2922863e-08
-5.8419875e-10
2.3179838e-08
-8.0116901e-10
2.3449042e-08
-8.272867e-10
2.3594882e-08
-5.0118676e-10
2.3810786e-08
-7.6232085e-10
2.4087168e-08
-7.7416198e-10
2.423156e-08
-4.5339274e-10
2.4555224e-08
-9.1775992e-10
2.4838121e-08
-8.0894795e-10
2.499778e-08
-2.7740498e-10
2.5277679e-08
-8.8459501e-10
2.5499904e-08
-7.4791489e-10
2.5643905e-08
-4.2548995e-10
2.5866149e-08
-5.6642736e-10
-5.5862295e-10
8.3890198e-09
-1.1513168e-09
8.6418156e-09
-1.168922e-09
8.9100058e-09
-1.1607321e-09
9.1641555e-09
-1.2073464e-09
9.4458754e-09
-1.2089836e-09
9.7137575e-09
-1.1710357e-09
9.9826517e-09
-1.2276903e-09
1.0260746e-08
-1.1698297e-09
1.0522858e-08
-1.2122409e-09
1.0794927e-08
-1.2044032e-09
1.1072943e-08
-1.2122979e-09
1.1345062e-08
-1.2050352e-09
1.1630599e-08
-1.2335562e-09
1.1908896e-08
-1.2184828e-09
1.2203019e-08
-1.2131701e-09
1.2477794e-08
-1.2385524e-09
1.2773882e-08
-1.2206984e-09
1.3067908e-08
-1.2443086e-09
1.3350326e-08
-1.2115848e-09
1.3655872e-08
-1.285934e-09
1.3949949e-08
-1.2184102e-09
1.4233061e-08
-1.2233512e-09
1.4563954e-08
-1.3080088e-09
1.4825866e-08
-1.1393746e-09
1.5134143e-08
-1.2769558e-09
1.5410151e-08
-1.1711395e-09
1.5716857e-08
-1.2513799e-09
1.6012225e-08
-1.2073204e-09
1.6289446e-08
-1.2024383e-09
1.6629736e-08
-1.2791052e-09
1.6933115e-08
-1.2342678e-09
1.7224934e-08
-1.227582e-09
1.7551152e-08
-1.2070411e-09
1.7847999e-08
-1.2359154e-09
1.815154e-08
-1.1672399e-09
1.8474271e-08
-1.2533476e-09
1.8740389e-08
-1.1448838e-09
1.9084724e-08
-1.2433653e-09
1.9351377e-08
-1.1234676e-09
1.9666894e-08
-1.1866925e-09
2.0005584e-08
-1.3515742e-09
2.0275622e-08
-9.8941657e-10
2.0648572e-08
-1.4133077e-09
2.0891882e-08
-1.0313955e-09
2.1248453e-08
-1.2304172e-09
2.1516637e-08
-1.09567e-09
2.1799112e-08
-1.0617207e-09
2.2111504e-08
-1.2695203e-09
2.2358105e-08
-8.9924207e-10
2.2717887e-08
-1.4352637e-09
2.2960272e-08
-8.4394111e-10
2.3395546e-08
-1.4671703e-09
2.3608949e-08
-7.7670517e-10
2.3950445e-08
-1.3116493e-09
2.4248339e-08
-1.0167847e-09
2.451424e-08
-1.1856332e-09
2.4820572e-08
-9.6441398e-10
2.5149929e-08
-1.2586637e-09
2.5491753e-08
-1.0849831e-09
2.5825136e-08
-1.1328898e-09
2.608013e-08
-8.3919229e-10
2.6331929e-08
-1.0529684e-09
2.6720306e-08
-1.2156629e-09
2.6923344e-08
-7.0422483e-10
2.7205535e-08
-1.0445127e-09
2.751891e-08
-1.0875367e-09
2.7716963e-08
-6.5144504e-10
2.800127e-08
-1.2020675e-09
2.8360578e-08
-1.1682558e-09
2.8605727e-08
-5.2255451e-10
2.8977487e-08
-1.2563543e-09
2.9304995e-08
-1.0754236e-09
2.9559276e-08
-6.7977071e-10
2.9769699e-08
-7.7684976e-10
-8.2030984e-10
8.7019006e-09
-1.4255093e-09
8.9904061e-09
-1.4574275e-09
9.2801796e-09
-1.4505057e-09
9.5678773e-09
-1.4950441e-09
9.8724504e-09
-1.5135567e-09
1.0175766e-08
-1.4743513e-09
1.0467399e-08
-1.5193228e-09
1.0781456e-08
-1.483887e-09
1.1076001e-08
-1.5067859e-09
1.1370642e-08
-1.499044e-09
1.1690831e-08
-1.5324872e-09
1.1986844e-08
-1.5010482e-09
1.2307251e-08
-1.5539633e-09
1.2621843e-08
-1.5330746e-09
1.2952812e-08
-1.5441391e-09
1.3263103e-08
-1.5488432e-09
1.3600456e-08
-1.5580515e-09
1.3933487e-08
-1.5773403e-09
1.4248566e-08
-1.5266633e-09
1.4598097e-08
-1.635465e-09
1.4927226e-08
-1.5475394e-09
1.5245101e-08
-1.5412261e-09
1.5618305e-08
-1.6812129e-09
1.5913856e-08
-1.4349251e-09
1.6279535e-08
-1.6426355e-09
1.6600922e-08
-1.4925263e-09
1.6956249e-08
-1.6067064e-09
1.729934e-08
-1.5504123e-09
1.7594001e-08
-1.4970993e-09
1.8001183e-08
-1.6862867e-09
1.834956e-08
-1.5826449e-09
1.8663145e-08
-1.5411675e-09
1.906102e-08
-1.6049158e-09
1.9398328e-08
-1.5732237e-09
1.9755714e-08
-1.5246256e-09
2.0122473e-08
-1.6201069e-09
2.0439885e-08
-1.4622952e-09
2.0841052e-08
-1.6445328e-09
2.112036e-08
-1.4027754e-09
2.1520856e-08
-1.5871888e-09
2.1892508e-08
-1.7232255e-09
2.2209588e-08
-1.3064972e-09
2.2634057e-08
-1.8377765e-09
2.2919396e-08
-1.3167347e-09
2.3330255e-08
-1.6412761e-09
2.367449e-08
-1.4399042e-09
2.401852e-08
-1.4057515e-09
2.4419003e-08
-1.6700027e-09
2.4701969e-08
-1.1822086e-09
2.5101063e-08
-1.8343577e-09
2.5366952e-08
-1.1098296e-09
2.5850139e-08
-1.9503578e-09
2.6112191e-08
-1.0387574e-09
2.6539592e-08
-1.7390499e-09
2.6935029e-08
-1.4122215e-09
2.7283095e-08
-1.533699e-09
2.7561995e-08
-1.243314e-09
2.7955543e-08
-1.6522114e-09
2.831452e-08
-1.4439605e-09
2.8747212e-08
-1.5655817e-09
2.9104032e-08
-1.1960124e-09
2.9332567e-08
-1.2815034e-09
2.9834572e-08
-1.7176683e-09
3.0118526e-08
-9.8817849e-10
3.0422285e-08
-1.3482718e-09
3.0888215e-08
-1.553466e-09
3.1080654e-08
-8.4388499e-10
3.1311625e-08
-1.4330379e-09
3.1792959e-08
-1.6495897e-09
3.2137779e-08
-8.6737474e-10
3.2423853e-08
-1.542428e-09
3.281389e-08
-1.465461e-09
3.3222101e-08
-1.0879814e-09
3.3534847e-08
-1.0895954e-09
-1.1265241e-09
8.9124594e-09
-1.7271887e-09
9.2305511e-09
-1.7755191e-09
9.5409643e-09
-1.7609189e-09
9.8618793e-09
-1.8159591e-09
1.0182339e-08
-1.8340161e-09
1.051384e-08
-1.8058526e-09
1.0830317e-08
-1.8358e-09
1.1175617e-08
-1.8291864e-09
1.1494133e-08
-1.8253026e-09
1.1834394e-08
-1.8393051e-09
1.2174591e-08
-1.8726835e-09
1.2513476e-08
-1.839933e-09
1.2868047e-08
-1.908535e-09
1.3209891e-08
-1.8749186e-09
1.3586453e-08
-1.9207007e-09
1.3923028e-08
-1.8854185e-09
1.4296478e-08
-1.9315009e-09
1.4667949e-08
-1.9488122e-09
1.5013559e-08
-1.8722731e-09
1.5397256e-08
-2.0191613e-09
1.5770849e-08
-1.9211327e-09
1.6124832e-08
-1.8952087e-09
1.6545563e-08
-2.1019442e-09
1.6883626e-08
-1.7729879e-09
1.7286894e-08
-2.0459034e-09
1.7663735e-08
-1.8693677e-09
1.8046689e-08
-1.989661e-09
1.84512e-08
-1.9549229e-09
1.8792944e-08
-1.8388435e-09
1.9217559e-08
-2.1109017e-09
1.9634951e-08
-2.0000371e-09
1.9983769e-08
-1.8899853e-09
2.0425148e-08
-2.0462944e-09
2.0791114e-08
-1.9391894e-09
2.1225261e-08
-1.9587734e-09
2.1592482e-08
-1.9873271e-09
2.1990957e-08
-1.8607704e-09
2.2459173e-08
-2.1127492e-09
2.2737166e-08
-1.6807684e-09
2.3230944e-08
-2.0809662e-09
2.3642318e-08
-2.1346003e-09
2.4008649e-08
-1.6728279e-09
2.4462635e-08
-2.2917627e-09
2.4819871e-08
-1.6739705e-09
2.5256813e-08
-2.0782179e-09
2.5671587e-08
-1.8546779e-09
2.6037882e-08
-1.7720464e-09
2.6495173e-08
-2.127294e-09
2.6833268e-08
-1.5203033e-09
2.729167e-08
-2.2927596e-09
2.7713332e-08
-1.531492e-09
2.8147277e-08
-2.3843028e-09
2.8509115e-08
-1.4005955e-09
2.8849048e-08
-2.0789831e-09
2.9303525e-08
-1.8666989e-09
2.975735e-08
-1.9875239e-09
3.0088973e-08
-1.5749364e-09
3.0596271e-08
-2.1595092e-09
3.0969074e-08
-1.816764e-09
3.1344746e-08
-1.9412534e-09
3.1856469e-08
-1.7077356e-09
3.2097727e-08
-1.5227616e-09
3.2671424e-08
-2.2913651e-09
3.3073334e-08
-1.3900885e-09
3.3409389e-08
-1.6843268e-09
3.3996276e-08
-2.1403531e-09
3.4274086e-08
-1.121695e-09
3.4471012e-08
-1.6299636e-09
3.5041016e-08
-2.219594e-09
3.5560147e-08
-1.386506e-09
3.5630172e-08
-1.6124523e-09
3.6064752e-08
-1.9000419e-09
3.6667953e-08
-1.6911818e-09
3.7104846e-08
-1.5264886e-09
-1.4411404e-09
9.0340044e-09
-2.0582848e-09
9.3770863e-09
-2.118601e-09
9.7041446e-09
-2.0879772e-09
1.0057468e-08
-2.1692829e-09
1.0387271e-08
-2.1638188e-09
1.0746252e-08
-2.1648332e-09
1.1093234e-08
-2.1827827e-09
1.145285e-08
-2.1888023e-09
1.1816151e-08
-2.188603e-09
1.2186313e-08
-2.2094672e-09
1.2553378e-08
-2.2397485e-09
1.2938435e-08
-2.22499e-09
1.3317694e-08
-2.2877945e-09
1.3695805e-08
-2.2530293e-09
1.4102914e-08
-2.3278099e-09
1.4471468e-08
-2.2539724e-09
1.4879032e-08
-2.3390649e-09
1.5279266e-08
-2.3490457e-09
1.5670407e-08
-2.2634146e-09
1.6083455e-08
-2.4322091e-09
1.6498408e-08
-2.3360856e-09
1.6901423e-08
-2.2982241e-09
1.7345573e-08
-2.5460936e-09
1.774299e-08
-2.1704058e-09
1.8174218e-08
-2.4771309e-09
1.8604799e-08
-2.2999485e-09
1.9012762e-08
-2.3976242e-09
1.94593e-08
-2.4014611e-09
1.9866527e-08
-2.2460701e-09
2.0309011e-08
-2.5533858e-09
2.076306e-08
-2.4540862e-09
2.1162161e-08
-2.2890867e-09
2.1639894e-08
-2.5240271e-09
2.2044681e-08
-2.3439765e-09
2.2543319e-08
-2.4574109e-09
2.2939013e-08
-2.3830218e-09
2.3392601e-08
-2.3143577e-09
2.3875371e-08
-2.5955199e-09
2.4204694e-08
-2.0100905e-09
2.4774934e-08
-2.6512072e-09
2.5167008e-08
-2.5266742e-09
2.562257e-08
-2.1283899e-09
2.6125329e-08
-2.7945214e-09
2.6521599e-08
-2.0702405e-09
2.6996291e-08
-2.5529099e-09
2.7458871e-08
-2.3172573e-09
2.7837444e-08
-2.1506197e-09
2.834117e-08
-2.6310201e-09
2.8733831e-08
-1.912964e-09
2.9139118e-08
-2.6980468e-09
2.9651688e-08
-2.0440622e-09
3.0057371e-08
-2.7899855e-09
3.0625377e-08
-1.9686013e-09
3.0985188e-08
-2.4387942e-09
3.1374151e-08
-2.2556623e-09
3.1859496e-08
-2.4728692e-09
3.2188836e-08
-1.9042762e-09
3.2804094e-08
-2.7747672e-09
3.3331508e-08
-2.344178e-09
3.3856239e-08
-2.4659843e-09
3.4249657e-08
-2.1011533e-09
3.4513952e-08
-1.7870565e-09
3.5163801e-08
-2.9412142e-09
3.5782391e-08
-2.0086786e-09
3.6160271e-08
-2.0622069e-09
3.6406362e-08
-2.3864444e-09
3.6871522e-08
-1.586855e-09
3.719813e-08
-1.9565717e-09
3.7547088e-08
-2.5685515e-09
3.8447567e-08
-2.2869849e-09
3.8627555e-08
-1.79244e-09
3.8972017e-08
-2.2445045e-09
4.0315254e-08
-3.0344185e-09
4.0510293e-08
-1.7215282e-09
-1.7748367e-09
9.0777514e-09
-2.4171981e-09
9.4345544e-09
-2.475404e-09
9.7839858e-09
-2.4374086e-09
1.0158828e-08
-2.544125e-09
1.0504881e-08
-2.5098724e-09
1.0896677e-08
-2.5566287e-09
1.1264145e-08
-2.5502511e-09
1.1653317e-08
-2.5779737e-09
1.2054559e-08
-2.5898449e-09
1.244118e-08
-2.5960883e-09
1.2853186e-08
-2.651755e-09
1.3256491e-08
-2.6282947e-09
1.3673303e-08
-2.7046062e-09
1.4077461e-08
-2.6571877e-09
1.4517439e-08
-2.7677879e-09
1.4921824e-08
-2.6583578e-09
1.5360048e-08
-2.7772882e-09
1.5797052e-08
-2.7860496e-09
1.6227111e-08
-2.6934738e-09
1.6669732e-08
-2.8748304e-09
1.7124581e-08
-2.7909348e-09
1.7570815e-08
-2.7444578e-09
1.8030788e-08
-3.006066e-09
1.8483378e-08
-2.6229957e-09
1.8941214e-08
-2.9349674e-09
1.9426363e-08
-2.7850978e-09
1.9862371e-08
-2.8336318e-09
2.0338956e-08
-2.8780463e-09
2.0796503e-08
-2.703617e-09
2.1260003e-08
-3.0168857e-09
2.1748392e-08
-2.9424754e-09
2.2179945e-08
-2.7206396e-09
2.2679964e-08
-3.0240459e-09
2.3145211e-08
-2.8092239e-09
2.3642717e-08
-2.954917e-09
2.411027e-08
-2.8505743e-09
2.4628035e-08
-2.8321225e-09
2.5026467e-08
-2.9939523e-09
2.5469192e-08
-2.4528152e-09
2.603593e-08
-3.2179456e-09
2.6370126e-08
-2.8608701e-09
2.6993547e-08
-2.7518111e-09
2.745197e-08
-3.252944e-09
2.7888165e-08
-2.5064353e-09
2.8460496e-08
-3.125241e-09
2.8852515e-08
-2.709277e-09
2.9378952e-08
-2.6770566e-09
2.9879664e-08
-3.1317316e-09
3.0247699e-08
-2.2809994e-09
3.0689684e-08
-3.1400319e-09
3.1177303e-08
-2.5316805e-09
3.1538987e-08
-3.1516699e-09
3.2192733e-08
-2.6223474e-09
3.2536695e-08
-2.7827565e-09
3.2840536e-08
-2.5595026e-09
3.3119558e-08
-2.7518917e-09
3.2918419e-08
-1.7031372e-09
3.3822425e-08
-3.6787735e-09
3.4606413e-08
-3.1281657e-09
3.5519453e-08
-3.3790242e-09
3.5044369e-08
-1.6260693e-09
3.5119342e-08
-1.8620297e-09
3.5064442e-08
-2.886314e-09
3.6225026e-08
-3.1692629e-09
3.6867847e-08
-2.7050279e-09
3.6764973e-08
-2.2835701e-09
3.7270551e-08
-2.0924333e-09
3.6520667e-08
-1.2066873e-09
3.6098986e-08
-2.1468702e-09
3.5723089e-08
-1.9110885e-09
3.7005462e-08
-3.0748129e-09
3.8674614e-08
-3.9136566e-09
4.2130328e-08
-6.4901319e-09
4.2306314e-08
-1.8975148e-09
-8.5765645e-10
9.050212e-09
-2.7960598e-09
9.4180236e-09
-2.8432155e-09
9.7959089e-09
-2.815294e-09
1.018198e-08
-2.9301962e-09
1.0561722e-08
-2.8896142e-09
1.0972447e-08
-2.9673537e-09
1.13693e-08
-2.9471042e-09
1.1788406e-08
-2.9970796e-09
1.2212033e-08
-3.0134724e-09
1.2623239e-08
-3.0072935e-09
1.3070607e-08
-3.0991234e-09
1.349093e-08
-3.0486175e-09
1.3943023e-08
-3.1566988e-09
1.4381196e-08
-3.0953612e-09
1.4842904e-08
-3.229496e-09
1.5291708e-08
-3.1071619e-09
1.5755996e-08
-3.2415763e-09
1.6225654e-08
-3.2557074e-09
1.6693741e-08
-3.1615602e-09
1.7154015e-08
-3.3351046e-09
1.7653958e-08
-3.290878e-09
1.8134516e-08
-3.2250156e-09
1.8602088e-08
-3.473638e-09
1.9118751e-08
-3.1396593e-09
1.9588019e-08
-3.4042348e-09
2.0110029e-08
-3.307108e-09
2.0584245e-08
-3.3078481e-09
2.1045909e-08
-3.3397101e-09
2.1568566e-08
-3.2262736e-09
2.2026803e-08
-3.4751226e-09
2.2510521e-08
-3.4261941e-09
2.3000089e-08
-3.2102077e-09
2.3479531e-08
-3.5034872e-09
2.39978e-08
-3.3274937e-09
2.4480721e-08
-3.437837e-09
2.4977517e-08
-3.3473713e-09
2.5511198e-08
-3.3658032e-09
2.5825317e-08
-3.3080708e-09
2.6418521e-08
-3.0460199e-09
2.6969593e-08
-3.7690173e-09
2.7144471e-08
-3.0357476e-09
2.7957106e-08
-3.5644467e-09
2.824605e-08
-3.5418883e-09
2.8409762e-08
-2.6701466e-09
2.920578e-08
-3.921259e-09
2.9041727e-08
-2.5452244e-09
2.8437658e-08
-2.0729874e-09
2.9401138e-08
-4.0952119e-09
2.9290852e-08
-2.1707137e-09
2.9531118e-08
-3.3802978e-09
3.0268103e-08
-3.2686651e-09
2.9631442e-08
-2.5150087e-09
2.9690405e-08
-2.6813104e-09
2.9614136e-08
-2.7064881e-09
3.0169615e-08
-3.1149815e-09
2.9234313e-08
-1.81659e-09
2.8155884e-08
-6.2470728e-10
2.9980642e-08
-5.5035314e-09
3.0191873e-08
-3.339397e-09
3.3432725e-08
-6.6198763e-09
3.4325368e-08
-2.518712e-09
3.2537575e-08
-7.4236969e-11
3.2327481e-08
-2.67622e-09
3.2441341e-08
-3.2831228e-09
3.1022812e-08
-1.2864987e-09
3.3122034e-08
-4.3827922e-09
3.1072543e-08
-4.2942627e-11
2.7980661e-08
1.8851949e-09
2.8750222e-08
-2.9164311e-09
2.58567e-08
9.8243334e-10
2.9360107e-08
-6.5782199e-09
3.3990064e-08
-8.5436138e-09
3.6091559e-08
-8.591627e-09
3.4782458e-08
-5.884139e-10
-1.7388746e-10
8.9660994e-09
-3.1906537e-09
9.3494906e-09
-3.2266068e-09
9.7506255e-09
-3.2164288e-09
1.0150781e-08
-3.3303515e-09
1.056325e-08
-3.3020834e-09
1.0985995e-08
-3.3900986e-09
1.1418612e-08
-3.3797217e-09
1.1852488e-08
-3.430955e-09
1.2300302e-08
-3.4612862e-09
1.2742995e-08
-3.4499874e-09
1.3211001e-08
-3.5671287e-09
1.3662474e-08
-3.5000912e-09
1.4148517e-08
-3.6427409e-09
1.4610191e-08
-3.5570352e-09
1.5105447e-08
-3.724752e-09
1.5579672e-08
-3.5813878e-09
1.6074819e-08
-3.736723e-09
1.6573084e-08
-3.7539726e-09
1.7057509e-08
-3.6459848e-09
1.7561152e-08
-3.8387473e-09
1.805881e-08
-3.7885367e-09
1.8593331e-08
-3.7595368e-09
1.9040036e-08
-3.9203425e-09
1.9600663e-08
-3.700286e-09
2.0069515e-08
-3.8730868e-09
2.0599944e-08
-3.8375376e-09
2.109702e-08
-3.8049238e-09
2.1509646e-08
-3.7523364e-09
2.2103653e-08
-3.8202808e-09
2.2518295e-08
-3.8897638e-09
2.29803e-08
-3.8881994e-09
2.3523525e-08
-3.7534333e-09
2.3981968e-08
-3.9619298e-09
2.4448966e-08
-3.7944922e-09
2.4744508e-08
-3.7333785e-09
2.4925404e-08
-3.5282674e-09
2.5068954e-08
-3.5093528e-09
2.4869388e-08
-3.1085049e-09
2.4963782e-08
-3.1404138e-09
2.540316e-08
-4.2083955e-09
2.4369377e-08
-2.0019653e-09
2.5166451e-08
-4.36152e-09
2.4769858e-08
-3.1452955e-09
2.4627646e-08