/*--------------------------------*- C++ -*----------------------------------*\
| =========                 |                                                 |
| \\      /  F ield         | OpenFOAM: The Open Source CFD Toolbox           |
|  \\    /   O peration     | Version:  2.3.0                                 |
|   \\  /    A nd           | Web:      www.OpenFOAM.org                      |
|    \\/     M anipulation  |                                                 |
\*---------------------------------------------------------------------------*/
FoamFile
{
    version     2.0;
    format      ascii;
    class       volVectorField;
    location    "1e-05";
    object      U;
}
// * * * * * * * * * * * * * * * * * * * * * * * * * * * * * * * * * * * * * //

dimensions      [0 1 -1 0 0 0 0];

internalField   nonuniform List<vector> 
7500
(
(460.05812 -0.0097490752 1.2608542e-16)
(459.90706 0.021570641 3.7061187e-15)
(459.91886 0.04059376 4.0067021e-15)
(460.32798 -0.10894076 -3.8395393e-16)
(459.91772 0.076737887 2.1560898e-15)
(460.14409 -0.031514606 6.0569017e-15)
(459.63307 0.011169559 2.4367954e-15)
(460.29527 0.023732221 4.74937e-15)
(459.76356 -0.05194424 4.7371089e-15)
(459.8605 0.081769322 2.4020988e-15)
(460.22505 -0.091082871 6.8254708e-16)
(459.99144 0.07235869 -1.2513461e-15)
(459.82876 -0.046531041 1.252736e-15)
(460.22297 -0.013977809 1.70606e-15)
(459.98591 0.05565694 9.6467203e-16)
(459.54249 -0.024830732 1.0362101e-15)
(460.41835 -0.0033959892 1.359399e-15)
(459.6889 -0.015656416 -1.4534655e-15)
(459.85456 0.046899581 9.3003066e-16)
(460.27228 -0.091404743 9.2120185e-16)
(459.87916 0.073824749 -1.1518928e-15)
(460.06434 -0.032029873 1.3360149e-15)
(460.02861 0.000629256 1.196895e-15)
(459.86065 0.043444812 -1.4667615e-15)
(459.74382 -0.046122519 1.3074917e-15)
(460.19658 0.013578687 6.6095252e-16)
(459.75243 0.0049928832 1.0688126e-15)
(459.99282 0.052651468 -1.7306813e-15)
(459.65612 -0.10201536 -3.8199069e-16)
(459.84114 0.053990289 3.6548649e-15)
(459.99678 0.050689526 -1.3319911e-15)
(459.50743 -0.075265572 6.0232495e-16)
(459.91315 0.012999123 9.5592596e-16)
(459.75586 0.030990051 -1.632591e-15)
(459.84935 0.0080920048 -1.058658e-15)
(459.73127 -0.010983282 1.0412665e-15)
(459.66595 -0.041459125 -7.9935778e-16)
(459.7634 0.078886129 6.7930678e-16)
(459.13149 -0.0031486653 9.2537155e-16)
(460.6078 -0.053676362 5.2182354e-16)
(458.84652 0.037536988 8.9889805e-16)
(460.48528 0.048432801 6.2622018e-16)
(458.76759 -0.064333214 2.4072243e-15)
(461.43087 -0.002585176 2.8185711e-15)
(457.88379 0.060325755 8.8335668e-16)
(462.7115 -0.095985055 -1.4505917e-15)
(457.42056 0.040390788 -1.4132927e-15)
(462.33132 -0.015542447 -1.4884426e-15)
(457.38268 0.030748554 1.0111898e-15)
(461.41293 0.018586595 3.8046129e-16)
(459.3593 0.10788481 1.0161286e-15)
(459.6112 -0.13918558 2.596396e-15)
(461.12747 0.11295028 4.7222636e-16)
(458.00955 -0.055372612 7.9523223e-16)
(460.99894 0.043131379 2.4932742e-16)
(459.48173 -0.025382673 -1.3366383e-15)
(459.08427 0.0118779 8.9029005e-16)
(460.27966 -0.020106075 6.2055261e-16)
(460.37924 0.062486147 -1.029384e-16)
(458.77959 -0.11429541 3.2218062e-16)
(461.42291 0.095777269 -5.8537245e-17)
(459.28172 -0.1268953 2.1625455e-15)
(459.61226 -0.1532403 7.2349781e-16)
(460.91934 0.2132347 -1.0893181e-15)
(458.81516 -0.10953032 -1.5249465e-15)
(459.64909 0.090493432 1.780472e-16)
(461.15981 -0.0011137686 5.3588227e-16)
(459.32961 -0.032007764 9.1130955e-16)
(459.29032 -0.15838634 1.7702664e-16)
(461.33808 0.39885811 -1.8533086e-15)
(459.45582 -0.16245369 -1.4732312e-15)
(458.42667 0.0086550638 6.2239807e-16)
(461.66114 0.033208438 2.1310012e-15)
(460.24311 -0.013684455 6.093402e-16)
(459.33658 0.049535702 2.2620376e-15)
(460.08643 0.034793023 1.12587e-16)
(459.89279 -0.075087385 -1.0419524e-16)
(459.92818 0.10187858 2.5337444e-16)
(460.29457 -0.090058926 -5.8101387e-17)
(459.92801 0.003032878 -9.3029491e-17)
(460.0936 0.085081664 1.0014131e-16)
(459.63042 -0.13006894 1.9785866e-17)
(460.24785 0.1542375 1.9818019e-16)
(459.82335 -0.11759116 -1.3016607e-16)
(459.80033 0.041147765 1.055032e-15)
(460.299 -0.020201267 -4.6504574e-16)
(459.97136 -0.0018525802 1.1237452e-15)
(459.87195 0.022031355 -3.1858056e-16)
(460.19205 -0.065532353 -3.1202951e-16)
(460.03523 0.1565873 -5.7579058e-17)
(459.49306 -0.20656226 -5.5894008e-16)
(460.4199 0.18819517 -5.9140387e-17)
(459.70126 -0.082832804 2.9289862e-16)
(459.82843 -0.036270347 7.9694531e-17)
(460.26905 0.064274626 2.2207878e-16)
(459.89326 -0.089205356 -9.1099685e-17)
(460.05965 0.034530323 2.8689223e-16)
(460.00057 0.048406927 -2.5422599e-16)
(459.88971 -0.033574405 1.2191808e-15)
(459.72328 0.0080851538 -2.0336332e-17)
(460.19261 -0.014756565 -4.3071969e-18)
(459.77305 0.01843685 -3.1844634e-16)
(459.99141 0.083937169 -6.1851023e-16)
(459.63683 -0.16864173 1.6351916e-15)
(459.83802 0.13442898 9.1794288e-17)
(460.05248 -0.034829738 -7.3094522e-17)
(459.47209 -0.036803668 4.7954255e-16)
(459.90585 0.063341067 -4.7635363e-18)
(459.82895 -0.038812956 3.0795848e-17)
(459.78484 0.043527528 3.0985583e-16)
(459.74428 0.0095341697 -9.1790394e-17)
(459.67127 -0.089098712 3.2838036e-16)
(459.79269 0.076727533 -8.5577187e-16)
(459.02283 0.080159627 1.1645237e-16)
(460.73648 -0.095868619 -4.528011e-20)
(458.70806 -0.042009133 1.2707893e-16)
(460.65385 0.10923448 -6.6522562e-16)
(458.52861 -0.10333343 1.6641197e-17)
(461.81891 -0.0057705 4.703825e-16)
(457.32833 0.029738024 -5.2056914e-18)
(463.27654 -0.0077405698 -4.8614253e-16)
(456.94155 7.5803857e-05 -1.0474862e-16)
(462.62619 -0.090439664 -4.9545911e-16)
(457.1189 0.20293828 5.4733653e-16)
(461.56417 -0.33128101 -1.8454722e-16)
(459.32949 0.44437953 9.4241433e-16)
(459.61897 -0.25784165 -8.8506523e-16)
(461.10409 0.067667613 5.0031148e-16)
(458.07593 -0.019092536 -6.4590541e-16)
(460.90203 0.15446903 3.7853448e-16)
(459.704 -0.20794181 -2.0851161e-16)
(458.9898 0.17295006 -1.2831066e-16)
(460.00097 -0.15098456 9.7003042e-17)
(460.8752 0.12799609 -3.2872558e-16)
(458.72112 -0.25467567 -4.7099777e-16)
(461.14753 0.26692083 1.6052503e-16)
(459.58438 -0.19150273 2.2567675e-16)
(459.47594 -0.14931811 -1.3580551e-16)
(460.95003 0.35348148 5.0275737e-16)
(459.18577 -0.22799426 -7.6825712e-16)
(459.20519 0.10721916 -2.3242849e-17)
(460.9875 -0.02394172 1.0272577e-16)
(459.82896 -0.020698255 3.6807218e-16)
(459.08068 -0.43456203 -5.5955298e-16)
(461.06378 0.73202685 2.4203347e-16)
(459.79891 -0.26936344 4.8264376e-16)
(458.46721 -0.03066472 -9.7508634e-16)
(461.31339 0.063506379 3.8292245e-18)
(460.33046 -0.042040733 2.6698942e-16)
(459.46145 0.064483896 2.6296953e-16)
(460.10082 0.042239296 2.4557771e-16)
(459.91488 -0.11604306 -8.780834e-16)
(459.79061 0.16447541 9.0658507e-17)
(460.3511 -0.16805013 1.193307e-16)
(459.81288 0.059545774 -2.7234553e-16)
(460.13137 0.051715403 9.4699575e-16)
(459.57097 -0.11004472 -3.8476028e-16)
(460.27374 0.163992 4.8437584e-16)
(459.81097 -0.16848073 -5.5063434e-16)
(459.84849 0.13980628 3.6794063e-16)
(460.31248 -0.13391919 -2.9296799e-16)
(459.99899 0.069582631 -6.0847031e-16)
(459.88413 -0.017305707 -4.9690816e-16)
(460.21195 -0.0063593694 4.7531869e-16)
(460.00876 0.0860069 8.1942737e-16)
(459.50725 -0.10982795 -1.052002e-15)
(460.40718 0.06838926 9.288304e-16)
(459.69818 0.00023822913 -3.7140365e-16)
(459.82996 0.0121771 3.1289289e-16)
(460.26495 -0.13764694 -4.7963902e-17)
(459.86691 0.17256955 4.5179116e-17)
(460.09106 -0.15984449 6.0022536e-16)
(459.95293 0.094545628 6.3035949e-16)
(459.90452 0.029378033 -1.6512649e-16)
(459.71244 -0.089557257 1.2177763e-16)
(460.2059 0.088119857 -2.3770133e-16)
(459.75947 -0.12782571 -2.6952805e-16)
(459.98245 0.26086416 -3.160101e-16)
(459.66117 -0.24251512 -2.588298e-16)
(459.79432 0.067638307 1.2381224e-16)
(460.07636 0.072493231 1.4078958e-16)
(459.50545 -0.11313336 -2.4747986e-16)
(459.91216 0.11247532 -3.5639741e-16)
(459.8377 -0.023165253 1.4602905e-16)
(459.78406 -0.016474211 1.9110106e-18)
(459.76758 0.078824666 2.7303436e-16)
(459.63016 -0.15553289 -5.6225448e-16)
(459.80995 0.079432816 -1.6280957e-16)
(458.93891 0.10637102 -3.9956525e-16)
(460.83172 -0.067820111 8.701609e-17)
(458.60738 -0.15756197 -2.6707003e-16)
(460.83161 0.23217082 3.0722284e-16)
(458.3091 -0.27383568 -6.4163008e-16)
(462.18559 0.070066617 1.1955937e-16)
(456.85601 0.073140273 -9.8425943e-17)
(463.66689 -0.096306362 1.2872915e-16)
(456.54916 0.08678033 1.7122499e-16)
(462.95982 -0.18462188 7.6598888e-16)
(456.69597 0.25146575 -5.1316531e-16)
(461.87247 -0.4596361 1.139239e-16)
(459.12644 0.45188212 5.8632891e-16)
(459.85057 -0.29957669 8.9721953e-16)
(460.85689 0.29240012 3.5060142e-17)
(458.24559 -0.32103913 3.5999262e-16)
(460.81251 0.28756785 -1.3811569e-16)
(459.8027 -0.12613558 1.3160008e-16)
(459.20223 0.12223076 -8.8905089e-16)
(459.70308 -0.29199839 2.510341e-17)
(461.14613 0.28473961 -9.4869474e-17)
(458.88407 -0.37458443 -7.2033618e-16)
(460.94976 0.35359641 -4.1883432e-16)
(459.71602 -0.12027635 -1.5421396e-16)
(459.55314 -0.3614783 -3.5478761e-17)
(460.74631 0.55289859 1.4536492e-16)
(459.36484 -0.22770581 -2.8511051e-16)
(459.21966 0.046897744 -7.0110091e-16)
(460.70734 -0.060579701 1.1024166e-16)
(459.79283 0.059626305 3.3948618e-17)
(459.13227 -0.4894568 -2.5650115e-16)
(461.0767 0.90917276 -5.3014639e-17)
(459.85192 -0.3454505 7.7947418e-17)
(458.51571 -0.13777406 4.5242569e-17)
(461.00317 0.20955027 -1.1834726e-16)
(460.39414 -0.021482838 2.1502236e-16)
(459.55691 0.092605985 4.1421214e-16)
(459.92682 0.051384637 1.2720776e-17)
(459.94997 -0.090504182 -2.376647e-17)
(459.45802 0.17741847 -5.5081863e-16)
(460.61653 -0.20901441 -6.2534592e-16)
(459.48196 0.04282608 1.1059863e-16)
(460.53244 0.13911898 -7.0345158e-16)
(459.36801 -0.24101672 3.7230924e-17)
(460.47309 0.29834822 1.3464377e-16)
(459.71474 -0.2859858 -4.7945126e-17)
(459.98188 0.16717702 -4.3687358e-16)
(460.22235 -0.087532727 -4.9915268e-16)
(460.05803 -0.0058837307 6.7454997e-16)
(459.84322 0.034171086 4.7512666e-16)
(460.2086 -0.10337586 5.6161823e-16)
(460.04352 0.30674031 2.9707837e-16)
(459.45353 -0.35133449 1.7723381e-16)
(460.45695 0.25437969 -4.0163958e-17)
(459.7342 -0.09796203 -1.3360452e-17)
(459.77692 0.0089927593 -3.5888008e-16)
(460.31125 -0.036744577 -5.7679556e-17)
(459.8465 0.0006305948 2.3244879e-16)
(460.04583 0.0052079979 2.7854841e-16)
(459.99808 0.011771118 1.7698461e-16)
(459.92554 0.045513985 -1.1854809e-16)
(459.69166 -0.10358229 6.0220624e-16)
(460.20622 0.056735764 -1.315374e-17)
(459.77146 -0.03004453 -3.9529361e-16)
(459.9316 0.14282398 -6.1239115e-17)
(459.63012 -0.19886143 4.3236852e-16)
(459.82685 0.12754985 -3.6135981e-16)
(460.04896 -0.023067777 2.9385865e-16)
(459.45714 -0.076420669 8.9165979e-17)
(460.04087 0.10725496 -6.8246285e-17)
(459.82157 -0.0052319243 5.0164668e-16)
(459.75756 0.04679527 -1.8425153e-16)
(459.76045 -0.0028394468 2.2239408e-16)
(459.5989 -0.1138721 -1.525551e-16)
(459.85825 0.1117019 -1.5332809e-16)
(458.75207 0.065085436 1.2638986e-16)
(460.95192 -0.046200894 1.4969745e-16)
(458.6746 -0.24024106 -1.8287268e-16)
(460.83942 0.34639197 1.1130112e-16)
(458.15856 -0.41727477 -2.7547414e-16)
(462.51466 0.10927454 8.8260907e-17)
(456.61666 0.047641471 -2.4299468e-16)
(463.70008 0.0095930499 1.6098177e-16)
(456.4709 0.020055735 -2.7907215e-16)
(463.13719 -0.18545799 1.8350206e-16)
(456.33116 0.44107155 -1.6935979e-16)
(462.07905 -0.87438563 5.1885092e-16)
(458.92494 0.82888398 -1.9915559e-16)
(460.05685 -0.54853686 2.7932265e-16)
(460.61959 0.30126247 2.5380328e-16)
(458.4054 -0.21903044 3.3702685e-17)
(460.72891 0.28188429 5.1188936e-17)
(459.905 -0.45258747 -7.3254809e-17)
(459.51192 0.44857037 -3.2676731e-16)
(459.53939 -0.37702498 8.5318729e-18)
(461.14919 0.13719221 3.4808758e-16)
(459.01479 -0.27959547 -1.4004356e-16)
(461.01904 0.52043855 4.6053999e-17)
(459.47297 -0.29677213 7.4980484e-17)
(459.59043 -0.2738917 -3.9681806e-16)
(460.78138 0.50368281 -3.1976494e-16)
(459.33008 -0.31819158 3.2602051e-16)
(459.13005 0.017017489 9.6991802e-17)
(460.53651 0.24864559 2.6338797e-16)
(459.74242 -0.24882217 6.0979371e-17)
(459.21574 -0.369533 -2.2808008e-16)
(460.93285 1.0238003 -2.3354084e-16)
(459.76282 -0.37363899 3.3729593e-16)
(458.80866 -0.45134745 5.6102297e-17)
(460.79706 0.49124442 -3.6089646e-17)
(460.30372 0.096912559 -8.7854429e-17)
(459.5905 0.127486 -2.7537244e-16)
(459.17489 0.054003296 3.4952312e-17)
(460.45015 -0.079255895 -7.2114761e-17)
(459.03325 0.20060654 3.6579449e-16)
(461.03489 -0.2704912 -7.7100494e-17)
(459.18982 0.078110483 3.9869568e-17)
(461.13752 0.10045145 -1.1452256e-16)
(458.97222 -0.20582966 2.7044752e-17)
(460.97991 0.28790252 -6.164712e-16)
(459.3439 -0.25849526 4.4221986e-17)
(460.22007 0.1140087 -1.0604723e-16)
(460.07397 -0.055224252 -3.6919808e-16)
(460.06684 0.046172557 -3.3748613e-17)
(459.7606 -0.069872521 -5.9310172e-17)
(460.17759 -0.00064074446 8.3093526e-17)
(460.12573 0.16748351 -1.2284128e-16)
(459.33556 -0.13335393 2.646374e-17)
(460.55328 0.020719175 4.28233e-16)
(459.71019 0.054662368 6.4885282e-18)
(459.78204 -0.0021158393 5.7003403e-17)
(460.25091 -0.17103291 2.7935333e-16)
(459.86558 0.20560145 4.6286119e-16)
(460.039 -0.17658614 -1.1974415e-16)
(460.00618 0.11700526 5.7012826e-17)
(460.03938 0.041701463 -2.2195873e-17)
(459.78134 -0.13393044 -7.7612179e-17)
(460.08813 0.064829258 3.4042151e-16)
(459.78354 -0.06676316 -5.6756355e-17)
(459.84763 0.23334658 1.5808857e-16)
(459.56975 -0.29972101 7.7900511e-18)
(459.75835 0.15040491 -4.07457e-16)
(460.08473 0.041781699 3.7146576e-16)
(459.35634 -0.17337399 3.6003197e-16)
(460.03857 0.15662134 1.9272129e-16)
(459.933 -0.032583803 -3.5757358e-16)
(459.77878 0.11331269 -3.4312878e-16)
(459.54572 -0.037135193 -1.5708237e-16)
(459.62208 -0.13761016 -4.360572e-16)
(460.06594 0.19959436 1.6715034e-16)
(458.35605 0.022034524 -1.0007566e-16)
(461.1674 -0.035114225 2.7622622e-16)
(458.6707 -0.29274948 -1.5307621e-16)
(460.92989 0.44187578 4.3938145e-16)
(458.05975 -0.56619186 -6.8633794e-18)
(462.60117 0.19634783 2.4448504e-16)
(456.69077 0.043451215 -3.5211524e-16)
(463.89614 -0.13945126 1.5481949e-16)
(456.00276 0.27897347 1.822315e-16)
(463.49353 -0.36431975 2.4713064e-16)
(456.12504 0.54440378 9.6222073e-17)
(461.99005 -0.88678536 -7.6429706e-17)
(458.73384 0.83715466 4.6925019e-18)
(460.38624 -0.68212801 3.7115354e-16)
(460.36374 0.56132183 -4.1421253e-17)
(458.42216 -0.54331399 3.7961111e-16)
(460.84327 0.4301113 7.0720774e-17)
(459.85961 -0.40604165 -3.0360699e-16)
(459.56701 0.27493961 -1.6444887e-16)
(459.58734 -0.45097173 2.6371844e-16)
(461.07136 0.38200201 4.7327205e-17)
(458.77628 -0.44697229 2.8640332e-16)
(461.23648 0.62596224 -1.2738076e-17)
(459.35597 -0.15237742 -9.6488254e-18)
(459.43671 -0.39878711 2.5463053e-16)
(460.67986 0.55932907 -4.3946458e-17)
(459.52527 -0.25120762 1.0932628e-16)
(459.26118 -0.17787444 -1.4751137e-16)
(460.10455 0.41039998 1.8994125e-17)
(459.54086 -0.32973222 -8.6202079e-18)
(459.73011 -0.30166155 -4.2665284e-17)
(460.90316 1.0606719 1.2154726e-17)
(459.4574 -0.55408771 4.9742136e-17)
(459.1672 -0.54078439 2.6799606e-16)
(460.75386 0.67306061 -2.0944138e-16)
(460.16993 0.13427557 -2.3016496e-17)
(459.5932 0.15170128 -6.9998418e-18)
(458.50237 0.094154053 1.1351234e-16)
(461.535 -0.11925692 -3.3885322e-16)
(458.2441 0.19035028 8.7072642e-17)
(461.74498 -0.21649643 -9.0481341e-17)
(458.74 -0.073468267 1.3223798e-17)
(461.47915 0.25559449 3.2186223e-16)
(458.84188 -0.30407868 -1.3232559e-16)
(461.17218 0.32928815 -2.6363586e-16)
(459.22327 -0.21913553 -6.8246162e-17)
(460.14638 0.073466877 4.1360779e-16)
(460.10281 -0.062138105 -4.1260662e-16)
(459.81562 0.063446633 4.3156199e-16)
(459.82966 -0.025955606 -1.4037464e-16)
(459.9394 -0.095310921 -2.169871e-16)
(460.22608 0.29289001 -5.2811255e-17)
(459.25455 -0.32041111 9.8406389e-17)
(460.53614 0.25690591 1.9693448e-17)
(459.58353 -0.13740391 -1.6051245e-17)
(459.83764 0.085446169 7.370515e-17)
(460.11838 -0.14413407 -3.2195477e-17)
(459.87516 0.050585022 4.4097048e-16)
(460.05598 0.039750436 -8.3513504e-17)
(460.15685 -0.10639182 1.0668015e-16)
(460.18555 0.20099461 2.5031901e-19)
(459.87142 -0.19763883 2.3030712e-17)
(460.09719 0.13835178 1.288485e-16)
(459.54023 -0.089082983 2.5111277e-16)
(459.79721 0.1482391 1.0888222e-16)
(459.44255 -0.12437468 -4.2250308e-16)
(459.65345 0.010507153 1.0243308e-16)
(459.87688 -0.0052888281 -3.2787066e-17)
(459.49622 -0.055215339 -1.4142762e-16)
(459.84026 0.095177978 -4.4834804e-17)
(460.0126 -0.079548467 2.1140001e-17)
(459.85837 0.22646854 2.6758329e-16)
(459.57855 -0.088815756 4.3212549e-18)
(459.35345 -0.12629941 8.3968839e-17)
(460.32934 0.24014249 2.2151688e-17)
(458.27516 0.021795869 2.9839237e-16)
(461.22562 -0.030693108 -1.3067125e-16)
(458.33709 -0.42432954 -2.3159078e-16)
(461.61989 0.65396467 -2.2476172e-17)
(457.58949 -0.77225041 3.6504857e-17)
(462.8505 0.31909858 2.1279621e-16)
(456.87267 -0.048466195 6.0040036e-17)
(463.84665 0.096102538 2.4104105e-16)
(456.01733 -0.0026865664 6.0871739e-17)
(463.5194 -0.22827878 3.994902e-17)
(455.72192 0.71728028 -4.2012334e-17)
(462.47182 -1.1406916 1.9886824e-16)
(458.29343 0.97623643 1.1657982e-16)
(460.30979 -0.75374846 9.0737357e-17)
(460.60048 0.58920405 -2.6334189e-16)
(458.39687 -0.49242949 1.6633791e-16)
(460.3454 0.33783438 2.3641819e-16)
(460.27495 -0.57035295 -1.9201138e-16)
(459.62725 0.56014354 1.4814282e-16)
(458.96723 -0.63631414 2.2758796e-16)
(461.52582 0.095768741 -5.288078e-17)
(458.90217 -0.17400816 -1.2366265e-16)
(460.75709 0.57873566 -1.7540621e-16)
(459.418 -0.14554417 1.8532351e-17)
(460.12067 -0.40635105 3.07979e-16)
(460.08239 0.64399664 1.4555519e-17)
(459.23524 -0.29106596 -3.0102455e-16)
(460.10293 -0.100871 2.824064e-16)
(459.90635 0.44380529 -1.5026143e-16)
(458.8821 -0.60998358 6.2466005e-17)
(460.38335 -0.37006033 2.5039853e-16)
(461.20032 1.4134757 3.2051418e-17)
(459.05397 -0.83257531 6.3392138e-17)
(459.4438 -0.443138 7.4438566e-17)
(460.76331 0.7249842 2.712202e-17)
(460.0273 0.18643536 -1.1117419e-16)
(459.51737 0.1565716 5.6584797e-17)
(459.68306 0.05383731 1.0660886e-16)
(460.80164 -0.075977392 -3.2341147e-16)
(458.40268 0.1789739 1.2710184e-16)
(461.67432 -0.25401391 1.7965332e-16)
(458.13538 -0.010424859 -3.7641663e-17)
(461.75277 0.15149188 1.1636299e-16)
(458.95028 -0.18705359 -1.6789275e-16)
(460.75551 0.2444314 2.0553958e-16)
(460.14031 -0.12976821 -4.4942104e-16)
(459.2095 0.027991644 3.9357881e-16)
(460.60055 0.0094760611 -2.2602419e-16)
(459.39043 -0.02010677 2.6122885e-16)
(459.85308 -0.011685747 6.525094e-17)
(459.61635 0.028740068 -1.1013842e-16)
(460.33563 0.035214599 -8.5403741e-17)
(458.9964 -0.015024263 2.3388774e-16)
(460.49603 -0.023127788 -7.2349523e-17)
(459.43812 0.050912037 1.4221017e-16)
(459.86356 0.035058686 -3.2538206e-16)
(459.93938 -0.22012906 7.3816458e-17)
(460.19668 0.1618652 -2.7890125e-17)
(459.95025 -0.12294624 1.1316448e-16)
(460.28004 -0.0067967223 -2.8351521e-18)
(460.68957 0.15959775 8.8142437e-17)
(459.60763 -0.14539223 -3.141358e-16)
(460.19491 0.13657515 4.8012918e-16)
(459.48629 0.0165844 -1.0399989e-16)
(459.52113 0.046233467 -6.9687096e-17)
(459.3878 -0.11722963 -3.3538568e-16)
(459.51862 0.077403167 -1.1045179e-16)
(459.76415 -0.10202206 1.9751099e-16)
(459.37127 -0.14032521 1.8108842e-16)
(460.06298 0.27298623 4.223128e-18)
(459.94505 -0.24116928 1.137029e-16)
(459.87534 0.26594526 -5.5399903e-17)
(459.8777 -0.089364383 -1.759521e-16)
(459.35903 -0.023619978 2.042394e-16)
(460.13103 0.086734458 3.590277e-16)
(458.80027 0.11231253 -6.8117323e-18)
(460.94547 0.050030596 2.0024829e-16)
(458.42438 -0.60307352 -1.0309838e-16)
(461.79579 0.65782067 -1.9764273e-17)
(457.41273 -0.63053737 1.7924418e-16)
(463.43773 0.19086269 2.494018e-16)
(456.23165 -0.0056806917 -1.4553476e-17)
(464.59696 0.080180007 2.5103385e-16)
(455.51944 0.24087642 1.7296691e-17)
(463.71122 -0.50377995 2.7086718e-16)
(455.478 0.8426227 1.0874547e-16)
(462.71081 -1.1016345 1.0676866e-18)
(457.61742 0.96297225 -1.1257666e-16)
(460.99623 -1.0425734 1.6430238e-16)
(459.74205 1.0538672 -1.3013586e-16)
(458.65698 -0.8508138 1.4847834e-16)
(460.63534 0.45701086 -2.7886389e-17)
(459.47193 -0.57842351 -1.7978879e-16)
(460.44434 0.50704034 3.2203539e-17)
(459.0142 -0.66775859 6.7810401e-17)
(460.9418 0.14875005 6.8305889e-17)
(459.7204 -0.32485745 -1.0083393e-16)
(461.14153 0.60626431 2.5075179e-17)
(458.41262 -0.22554106 -3.6806723e-17)
(460.71129 -0.27444789 -9.547422e-17)
(460.2766 0.71597436 2.3646558e-17)
(458.27126 -0.26084356 5.4761609e-17)
(460.23521 -0.15436065 1.8926896e-16)
(460.21363 0.93549599 -1.7267694e-16)
(458.34571 -0.96737238 1.6268304e-16)
(460.42557 -0.62253469 -1.0549445e-16)
(461.29394 1.5668046 -1.4297244e-16)
(458.85646 -0.90216771 5.6195202e-17)
(459.59055 -0.46726853 5.8296028e-17)
(460.50912 0.71209406 -1.277568e-16)
(459.81678 0.24272651 1.5455109e-17)
(459.32235 0.19146706 1.6536858e-16)
(461.01651 0.061645877 4.4797877e-18)
(458.67764 -0.0067850663 -1.7384203e-16)
(460.24079 0.085709889 2.4402571e-16)
(459.76878 -0.1624646 6.5859166e-17)
(459.24313 -0.092516281 -2.6929267e-16)
(460.97035 0.13508625 2.2852598e-16)
(459.81504 -0.17870538 -1.8848027e-16)
(460.14209 0.22557863 3.4823356e-16)
(461.22955 -0.070446078 -1.280816e-16)
(458.49002 0.0064124191 3.5883943e-16)
(461.07628 0.043636396 -6.0164942e-17)
(458.86797 0.023676843 3.1809433e-16)
(460.07969 -0.097433272 -2.1557212e-16)
(459.12622 0.031855749 1.5894541e-16)
(460.23084 0.16646977 -2.4021577e-16)
(459.10938 -0.28241851 4.0233766e-16)
(459.96371 0.29624474 -1.9883707e-16)
(459.74591 -0.24506575 2.6095824e-16)
(459.84025 0.18812376 -3.0837382e-16)
(459.7674 -0.25143973 8.0942853e-17)
(460.56911 0.025680951 6.3795404e-17)
(459.86584 0.11036945 2.6015303e-16)
(460.22643 -0.37085956 -5.2233934e-18)
(460.81507 0.48962173 -8.1544493e-17)
(459.56341 -0.27207736 -3.7770338e-16)
(460.15283 0.28055262 2.9642864e-16)
(459.47031 -0.089215223 -1.7939624e-16)
(459.72345 0.17192374 5.0172057e-16)
(459.26181 -0.076413063 5.0828872e-17)
(459.277 -0.13456892 -3.7293667e-18)
(460.28477 0.04237983 -1.7929939e-16)
(459.01687 -0.20505391 2.3085798e-16)
(460.1744 0.14570232 -1.2448223e-16)
(460.37871 -0.035366578 -6.8956536e-17)
(459.58715 0.092341998 -5.6386198e-17)
(460.22635 -0.12395472 -1.6574216e-16)
(459.65214 0.18941394 2.828379e-17)
(460.02308 -0.070818787 -1.0326386e-16)
(459.03631 0.1253376 3.6768127e-17)
(460.71944 0.13827587 2.9082711e-16)
(458.64876 -0.67989959 4.1908836e-17)
(461.40302 0.75991271 2.718284e-17)
(457.57135 -0.96133726 -2.9738665e-17)
(463.56518 0.63552978 3.0932394e-16)
(455.52324 -0.33066557 -3.1043943e-16)
(465.59076 0.26032007 1.5633054e-16)
(453.77859 0.25532113 -2.1673448e-16)
(465.79311 -0.4579512 1.1215422e-16)
(452.90488 0.8419696 -3.1659095e-17)
(464.63167 -1.1067077 1.5784854e-16)
(455.9148 0.98916471 -1.1776887e-16)
(461.05748 -1.0617465 4.935903e-17)
(460.31445 1.0305894 -1.3653273e-16)
(457.49933 -0.71280721 7.4615873e-17)
(461.24433 0.2095346 5.535749e-17)
(459.17611 -0.41652722 4.4198025e-17)
(460.10274 0.56271222 -1.368712e-16)
(459.36028 -0.78434878 -1.4405764e-16)
(460.61398 0.011455241 2.0587549e-16)
(459.20706 -0.21884163 8.6025636e-18)
(462.10059 0.75802436 1.5498032e-16)
(457.26101 -0.38726538 -1.0029067e-16)
(459.98769 -0.48260546 1.2778223e-17)
(460.57885 1.0210304 -3.6194079e-17)
(457.33156 -0.15784958 -1.3596797e-16)
(459.46023 -0.33950096 -7.0765879e-17)
(460.28098 1.2224732 -1.1543346e-17)
(457.45532 -0.8665382 -8.9334435e-17)
(459.46248 -0.60770615 -9.2966632e-17)
(460.84576 1.4891788 -1.7883794e-16)
(458.27759 -1.240197 6.724504e-18)
(459.04568 -0.49147466 1.8363889e-16)
(459.80107 0.84777149 -2.6584372e-17)
(459.19315 0.40447573 -2.7466428e-17)
(458.55161 0.25128086 1.3670659e-16)
(459.75968 0.091895965 -1.0303566e-16)
(459.52574 -0.016274261 2.8246812e-16)
(460.01659 0.080720685 -1.0892621e-16)
(459.88122 -0.13281189 2.0145029e-16)
(459.68978 -0.16409421 3.8205122e-17)
(460.52252 0.12659618 -4.9142053e-17)
(460.69597 -0.16978875 -1.5141089e-17)
(459.1769 0.16228404 1.6996834e-16)
(462.39969 0.046498927 -6.9509676e-17)
(457.72761 -0.02162715 3.7495786e-16)
(461.48096 0.065280672 -2.4520663e-16)
(458.7291 0.081134879 2.4061963e-16)
(459.9091 -0.11810475 -9.2939757e-17)
(459.14408 0.066565598 4.9684316e-16)
(460.03773 -0.0068312256 -3.161506e-16)
(459.29641 0.065795184 4.0358713e-16)
(459.77999 -0.17088241 -3.4821222e-16)
(460.0665 0.14776252 1.6279411e-16)
(459.82294 -0.065252927 9.347701e-17)
(459.65859 -0.20450497 1.2347213e-16)
(460.67102 0.054396132 -4.6339779e-17)
(459.56113 0.051075843 3.4506227e-17)
(460.06581 -0.31097839 -4.636765e-17)
(460.68143 0.40439073 7.2376836e-17)
(459.29166 -0.17846384 7.7102286e-17)
(460.71561 0.3248323 1.7823971e-16)
(459.24315 -0.094965124 -3.280041e-16)
(459.99515 0.053667731 2.9253006e-16)
(460.06767 0.27916074 -1.0186927e-16)
(458.36043 -0.44462785 -9.6172318e-17)
(461.33641 -0.0030138313 -1.1262246e-16)
(458.79029 0.066315751 1.3797678e-16)
(460.01774 -0.14714644 1.2232982e-16)
(460.69299 -0.0077681853 1.1099131e-16)
(459.40092 0.27638715 -1.8423862e-16)
(460.37315 -0.39729079 -3.1550175e-16)
(459.53719 0.38754892 2.0662181e-16)
(460.18305 -0.16615793 6.2437546e-17)
(458.91179 0.29486208 1.1187623e-16)
(459.99278 -0.024249795 -3.4974581e-17)
(458.86099 -0.64768955 -5.8605797e-17)
(460.97416 0.80635139 1.3323442e-16)
(457.09429 -0.99049572 -2.0540566e-16)
(463.41217 0.59228522 2.5051648e-16)
(455.20854 -0.2897514 -2.0084604e-16)
(464.91124 0.34967191 1.9087382e-16)
(453.89515 0.21726649 -9.1000718e-17)
(465.2553 -0.47787633 4.8128888e-17)
(452.76374 0.91856541 -1.708628e-16)
(463.80151 -1.0899818 5.7394384e-17)
(455.48101 1.1309147 -8.2367944e-17)
(460.42037 -1.5107639 3.3397001e-16)
(459.86216 1.4839054 -2.7911078e-16)
(457.24057 -1.0199384 4.170382e-17)
(459.72063 0.26278401 1.7703207e-17)
(458.8393 -0.44541988 -1.579692e-17)
(459.26872 0.52613294 -1.4267561e-16)
(457.36816 -0.72673767 -1.5857186e-16)
(460.77914 -0.16854751 -1.173768e-16)
(456.95195 -0.47025747 2.2709661e-17)
(462.16006 0.83341749 -9.9011832e-17)
(455.38714 -0.022944931 -2.3708296e-18)
(457.98355 -0.97197604 -8.2978754e-17)
(459.74712 1.2075308 -2.0357301e-16)
(455.60865 -0.3244729 -1.1417895e-17)
(457.59623 -0.36320896 7.8582483e-17)
(459.59997 1.3546653 -1.9628492e-17)
(454.7379 -0.79888446 -1.277649e-16)
(456.46059 -0.71942555 -6.4869694e-17)
(459.80844 1.672422 -8.663135e-18)
(456.02252 -1.4243271 -4.5933594e-17)
(456.07722 -0.61298909 -1.6294279e-16)
(457.92796 0.69610265 -4.9669386e-17)
(457.33695 0.31059288 -2.9183628e-17)
(455.93238 0.34164393 -8.1730503e-19)
(457.42814 0.075313242 -1.0682258e-16)
(462.24582 0.0038522942 -7.870375e-17)
(458.14793 0.053072528 -2.0882277e-16)
(462.02687 -0.090339361 -2.0819213e-16)
(458.48258 -0.2098634 5.8492937e-17)
(461.72012 0.099182562 -7.4265533e-17)
(459.34325 -0.093174574 -3.5387587e-17)
(460.25612 0.050476935 1.4095334e-16)
(461.02051 0.10494361 1.3251243e-16)
(458.43618 0.089050287 -1.6256669e-16)
(461.36682 -0.081088542 -5.3166687e-17)
(458.37352 0.19921351 4.075155e-17)
(460.7362 -0.071494004 3.1294839e-17)
(458.81026 -0.049911962 3.0041061e-16)
(460.34543 0.075983344 -1.5514221e-16)
(459.79217 -0.062707959 1.6247981e-16)
(459.46811 0.064766703 -1.9526871e-16)
(460.57534 -0.26954233 2.0763637e-16)
(459.58213 0.3900338 -1.5337409e-16)
(459.65223 -0.53211556 1.3269883e-16)
(460.26868 0.18227061 -5.674138e-17)
(459.87159 0.11454028 7.1712292e-17)
(459.17785 -0.57108422 2.3090561e-17)
(461.35494 0.75352728 1.9178445e-17)
(458.78536 -0.47542463 -1.5160421e-16)
(461.0661 0.41733362 1.7326835e-17)
(459.81778 -0.055808593 3.9672234e-17)
(459.13046 -0.031270948 2.1783247e-16)
(461.67856 0.42465144 5.0551461e-17)
(457.3754 -0.46831522 4.0474591e-17)
(461.70673 -0.16753427 1.7487225e-17)
(458.76832 0.22762302 5.6830586e-17)
(459.8673 -0.13351053 -2.3373421e-16)
(460.11335 -0.15117328 3.3684652e-16)
(459.10854 0.2448624 -1.5390581e-16)
(460.4812 -0.19605181 1.4920669e-16)
(458.18028 0.27918804 -4.435327e-17)
(460.48543 -0.31358686 5.9087574e-17)
(458.61259 0.6911876 1.7586062e-16)
(458.2241 -0.30228478 2.38641e-17)
(459.26913 -0.63189633 -5.861406e-17)
(459.76236 0.81868009 2.7947019e-16)
(456.41722 -1.1785117 -9.9622336e-17)
(461.92453 0.99217993 1.2333659e-16)
(455.74675 -0.68577067 -8.4309276e-17)
(461.44746 0.52109314 1.0168756e-16)
(456.27151 0.35329168 4.6354865e-17)
(460.31204 -0.69467381 2.3412427e-16)
(455.41435 1.2108074 -9.590694e-17)
(458.86567 -1.4189289 -3.71711e-16)
(455.93284 1.5013665 -1.3762944e-16)
(457.84677 -1.9845247 7.9621318e-17)
(457.36923 1.8156217 7.4372673e-17)
(456.79784 -1.0553295 2.9555941e-17)
(454.81774 0.20050139 -2.3811642e-17)
(457.41604 -0.39503404 7.3937055e-17)
(456.40065 0.71798897 -1.1646251e-16)
(452.10181 -0.92488399 -2.5346558e-16)
(460.36175 0.049665191 4.1747185e-17)
(451.16316 -0.6975548 1.1615287e-16)
(460.63512 0.59582831 -2.1712769e-16)
(451.53771 0.67378334 -2.4771039e-16)
(454.26922 -1.7339129 -1.1605287e-16)
(455.35892 1.5167741 1.0144072e-16)
(452.68829 0.085572216 -9.6007682e-17)
(453.12026 -1.3474212 -3.1969348e-17)
(456.82256 1.9029648 -1.6741434e-17)
(449.87236 -0.19135345 -9.8764693e-17)
(449.66571 -1.6903923 8.4930562e-18)
(457.55792 1.6023277 7.6766897e-17)
(451.86625 -0.2913348 -2.2099828e-16)
(449.40353 -1.1754015 3.3433386e-17)
(453.25456 0.46819546 -4.1751501e-17)
(453.96193 0.33789814 -5.7965753e-17)
(451.08258 0.058352143 -7.0856245e-17)
(456.14144 0.041806949 -4.6013442e-17)
(464.27217 -0.0030111416 2.9503126e-16)
(457.0007 0.042304459 5.0529354e-16)
(463.29596 -0.061589854 1.8175026e-16)
(458.01897 -0.20213123 -5.8594145e-17)
(461.64286 0.084013442 2.1620986e-16)
(458.84239 -0.051880139 6.2701604e-17)
(460.63855 0.022808379 1.8832002e-16)
(459.26683 0.13073294 3.6268004e-17)
(460.23777 0.051844075 1.8800271e-16)
(459.62794 0.010116383 2.1080145e-16)
(459.83838 0.086060365 9.4921177e-17)
(460.21953 -0.064068274 5.6899009e-17)
(459.62661 0.14816778 -5.2737363e-17)
(459.98674 -0.29826933 9.2575009e-17)
(460.5937 0.34214842 1.3836785e-16)