/*--------------------------------*- C++ -*----------------------------------*\
| =========                 |                                                 |
| \\      /  F ield         | OpenFOAM: The Open Source CFD Toolbox           |
|  \\    /   O peration     | Version:  2.3.0                                 |
|   \\  /    A nd           | Web:      www.OpenFOAM.org                      |
|    \\/     M anipulation  |                                                 |
\*---------------------------------------------------------------------------*/
FoamFile
{
    version     2.0;
    format      ascii;
    class       volScalarField;
    location    "1.75";
    object      epsilon;
}
// * * * * * * * * * * * * * * * * * * * * * * * * * * * * * * * * * * * * * //

dimensions      [0 2 -3 0 0 0 0];

internalField   nonuniform List<scalar> 
2268
(
0.011895
0.0643935
0.122771
0.175468
0.223413
0.268883
0.31251
0.353873
0.391626
0.424036
0.449529
0.467004
0.475866
0.47578
0.466234
0.446067
0.418213
0.378934
0.328716
0.271947
0.204299
0.124518
0.0455163
0.0196488
0.0404536
0.0645592
0.0868598
0.107501
0.126921
0.145229
0.162214
0.177397
0.19021
0.200167
0.206974
0.210532
0.210869
0.20804
0.202215
0.194931
0.185579
0.174154
0.158786
0.134906
0.0970475
0.0735947
0.0326498
0.0424788
0.0591435
0.0753742
0.0906799
0.105091
0.118572
0.130926
0.141813
0.150853
0.157743
0.162332
0.164641
0.164818
0.163089
0.159807
0.155919
0.15155
0.146659
0.140013
0.128714
0.111701
0.133309
0.0480652
0.0487548
0.0616268
0.0752047
0.0883656
0.100872
0.112578
0.123252
0.132573
0.140198
0.145868
0.149485
0.151139
0.151078
0.149655
0.14733
0.144847
0.142561
0.140483
0.137972
0.134033
0.132848
0.207547
0.0649282
0.0570083
0.0671245
0.0791055
0.091148
0.102769
0.113709
0.123688
0.132353
0.139346
0.144398
0.147426
0.148579
0.148216
0.146824
0.14497
0.143344
0.142432
0.142384
0.143124
0.14551
0.159568
0.297193
0.0825484
0.0664909
0.0743587
0.0852393
0.0966526
0.107879
0.118552
0.128329
0.136806
0.143567
0.148297
0.1509
0.151578
0.150822
0.149292
0.147692
0.146744
0.147063
0.149007
0.153118
0.16221
0.193368
0.408642
0.10035
0.07685
0.0828333
0.0929213
0.104001
0.115133
0.125856
0.135761
0.144372
0.151186
0.155797
0.158062
0.158232
0.156956
0.155127
0.153651
0.153351
0.154993
0.159201
0.167199
0.18402
0.236655
0.569672
0.118896
0.0879637
0.0923241
0.101842
0.112792
0.124046
0.13506
0.145365
0.154399
0.16153
0.166214
0.168211
0.167798
0.165822
0.163502
0.162036
0.162424
0.165612
0.172521
0.185068
0.210463
0.289338
0.956668
0.119264
0.47312
0.993191
1.24438
1.24892
1.14066
0.994644
0.853585
0.724476
0.591762
0.445699
0.315094
0.236545
0.207767
0.18982
0.159139
0.118154
0.0772992
0.0274204
0.129856
0.301193
0.512953
0.592546
0.580975
0.529564
0.468887
0.412169
0.360647
0.311402
0.262283
0.216486
0.174887
0.141192
0.118319
0.0973802
0.0742808
0.0520388
0.0376462
0.171732
0.341395
0.490242
0.531709
0.507784
0.456768
0.402102
0.352913
0.308456
0.266119
0.22751
0.195283
0.164315
0.133217
0.110555
0.0920349
0.0737912
0.0577585
0.0578003
0.215541
0.423788
0.529685
0.544561
0.509888
0.45511
0.398583
0.347919
0.301522
0.257096
0.21774
0.186935
0.160179
0.133074
0.111915
0.0948294
0.0792448
0.0677666
0.0822427
0.301028
0.537613
0.593061
0.580208
0.534086
0.474296
0.414097
0.359878
0.308915
0.259699
0.216619
0.183696
0.158293
0.135163
0.11606
0.100225
0.0867397
0.0793926
0.11251
0.505523
0.690602
0.671065
0.626886
0.568131
0.501838
0.436719
0.378
0.321704
0.267054
0.219958
0.184238
0.158439
0.138257
0.121262
0.106666
0.0951555
0.091969
0.146796
1.10776
0.885222
0.754681
0.678257
0.606819
0.532848
0.461585
0.397396
0.335942
0.276699
0.22612
0.187774
0.160864
0.142266
0.126962
0.113552
0.10395
0.105175
0.185773
2.11927
1.05625
0.826492
0.729477
0.647416
0.56472
0.486202
0.415894
0.349967
0.287462
0.234026
0.193408
0.165361
0.147336
0.133152
0.120728
0.112851
0.118742
0.224418
0.14455
0.104938
0.107792
0.116929
0.12803
0.139792
0.151614
0.162956
0.173105
0.181181
0.186331
0.188066
0.186641
0.183252
0.179831
0.178243
0.179903
0.185966
0.197937
0.218636
0.256416
0.341639
0.61912
0.179078
0.129734
0.131941
0.141368
0.153258
0.166389
0.180265
0.194319
0.207613
0.218726
0.226005
0.228129
0.224888
0.217904
0.211095
0.208192
0.211622
0.222988
0.244014
0.278253
0.333021
0.424855
0.585682
0.21326
0.155556
0.158369
0.168666
0.181677
0.196784
0.213736
0.232064
0.25079
0.267835
0.280229
0.285071
0.280419
0.266801
0.252714
0.246056
0.250837
0.26956
0.304403
0.358766
0.440197
0.5602
0.722608
0.240574
0.180885
0.184092
0.195599
0.210272
0.228207
0.249121
0.27304
0.29982
0.326833
0.349181
0.362926
0.362189
0.336383
0.306838
0.292091
0.297141
0.325987
0.381321
0.466292
0.590785
0.772804
1.01408
0.243151
0.201776
0.203559
0.215121
0.232529
0.254681
0.278715
0.303686
0.329573
0.353558
0.37346
0.388346
0.392345
0.386093
0.356473
0.338507
0.347034
0.390174
0.476478
0.605397
0.795903
1.09346
1.51484
0.258671
0.215937
0.215868
0.22839
0.245662
0.266668
0.28614
0.303685
0.320061
0.332513
0.341091
0.349986
0.361356
0.370818
0.366119
0.36667
0.396364
0.467348
0.568424
0.71251
0.950417
1.36022
1.8778
0.345603
0.247147
0.235598
0.243587
0.258035
0.273879
0.28803
0.299692
0.310105
0.31781
0.323512
0.330493
0.340516
0.352691
0.363166
0.380256
0.420356
0.503877
0.616872
0.758225
0.991421
1.34252
1.64655
0.45253
0.278988
0.263124
0.266812
0.275002
0.283822
0.292453
0.301105
0.309776
0.316041
0.317537
0.319947
0.329316
0.343574
0.361382
0.386579
0.426602
0.499332
0.615796
0.767801
0.974077
1.21039
1.30722
0.542236
0.294985
0.267133
0.268916
0.276962
0.2855
0.29278
0.29916
0.304688
0.307203
0.306483
0.309249
0.319785
0.335051
0.353838
0.378463
0.416882
0.483755
0.589109
0.73575
0.917237
1.05833
1.08322
0.609668
0.303149
0.260925
0.257315
0.263706
0.271306
0.277407
0.282027
0.285452
0.287423
0.289691
0.2957
0.306921
0.321831
0.339617
0.363375
0.400598
0.460999
0.551456
0.674717
0.817226
0.912354
0.92561
0.653284
0.306394
0.253611
0.243281
0.245237
0.250206
0.25487
0.258667
0.262033
0.265651
0.270839
0.279137
0.291172
0.306276
0.324449
0.348323
0.383187
0.435151
0.509769
0.609307
0.717093
0.79171
0.808947
0.670549
0.304845
0.245842
0.229951
0.227253
0.229064
0.232089
0.235445
0.239339
0.244389
0.251413
0.261174
0.273978
0.289515
0.30812
0.331676
0.363539
0.407428
0.467048
0.54424
0.627795
0.691605
0.716975
0.662114
0.297647
0.236623
0.217333
0.211193
0.21041
0.211985
0.2149
0.219077
0.224831
0.232606
0.242805
0.255649
0.271014
0.289323
0.311867
0.340699
0.378085
0.426218
0.485788
0.550288
0.604485
0.63337
0.630787
0.284424
0.225048
0.204608
0.196618
0.194204
0.194732
0.197168
0.201233
0.206996
0.21466
0.224456
0.236603
0.251146
0.268479
0.28949
0.315444
0.347691
0.387334
0.434134
0.483735
0.526789
0.552093
0.581105
0.265636
0.210789
0.191082
0.182667
0.17956
0.179493
0.181503
0.185223
0.190583
0.197655
0.206587
0.217585
0.230929
0.246861
0.266011
0.289154
0.317004
0.349879
0.386908
0.424648
0.456653
0.475247
0.51847
0.242365
0.194081
0.176475
0.168705
0.165649
0.165405
0.167136
0.170476
0.175304
0.18164
0.189597
0.199375
0.21128
0.225613
0.242729
0.26307
0.286906
0.314038
0.343267
0.371722
0.394793
0.407619
0.446428
0.2159
0.175513
0.160876
0.154445
0.151956
0.151869
0.153504
0.156551
0.160894
0.166539
0.173587
0.18222
0.192699
0.205346
0.220391
0.238003
0.258167
0.280412
0.303491
0.325093
0.342016
0.35125
0.376675
0.188035
0.15586
0.144594
0.13987
0.138248
0.138542
0.140243
0.143118
0.147082
0.15215
0.158413
0.166032
0.175218
0.186208
0.199221
0.21428
0.231186
0.249388
0.267768
0.284565
0.297599
0.304968
0.310454
0.160003
0.135818
0.128016
0.125122
0.124494
0.125284
0.127153
0.129953
0.133639
0.138237
0.143833
0.150561
0.158586
0.168078
0.179169
0.191887
0.205984
0.220904
0.235738
0.249185
0.259741
0.266111
0.246916
0.133351
0.116079
0.11159
0.110455
0.110805
0.112111
0.114186
0.116964
0.120436
0.124642
0.129659
0.135596
0.14258
0.15073
0.16012
0.170734
0.182408
0.19467
0.206781
0.217791
0.226635
0.232363
0.184803
0.108192
0.0975785
0.0958129
0.0961964
0.0974063
0.0991734
0.101439
0.104203
0.10749
0.11135
0.115852
0.121081
0.127134
0.134091
0.141995
0.150815
0.160402
0.17046
0.180417
0.189553
0.197096
0.202326
0.133845
0.0863826
0.0808256
0.0810806
0.0826857
0.0845865
0.0867196
0.0891272
0.0918605
0.0949703
0.098511
0.102544
0.107139
0.112363
0.118276
0.1249
0.132202
0.140066
0.148267
0.156461
0.164097
0.170586
0.175384
0.0935295
0.0672312
0.065957
0.0678601
0.0702834
0.0726784
0.0750643
0.0775554
0.0802298
0.0831563
0.0863947
0.09
0.0940263
0.098525
0.103536
0.109073
0.11511
0.12156
0.128262
0.134971
0.14137
0.146981
0.151374
0.0663926
0.0523029
0.0537497
0.0566203
0.0594494
0.0620973
0.0645955
0.0670793
0.0696493
0.0723795
0.0753272
0.0785405
0.0820623
0.085931
0.0901751
0.0948047
0.0998007
0.105102
0.110598
0.116117
0.121438
0.126288
0.130313
0.0524184
0.0425202
0.0447463
0.0477616
0.0505847
0.0531874
0.0556352
0.0580247
0.060444
0.06296
0.0656231
0.0684737
0.0715456
0.0748677
0.0784612
0.0823343
0.0864756
0.0908458
0.0953708
0.0999378
0.104396
0.108562
0.112238
0.0474493
0.0367708
0.038486
0.0411238
0.0436736
0.0460649
0.0483467
0.0505712
0.0528015
0.0550896
0.0574757
0.0599918
0.0626642
0.0655148
0.0685599
0.0718074
0.0752522
0.0788711
0.0826183
0.0864219
0.090184
0.0937841
0.0970879
0.0464579
0.0333755
0.0341419
0.0362451
0.0384564
0.0406124
0.0426917
0.0447253
0.046755
0.0488179
0.0509442
0.0531582
0.0554802
0.0579274
0.0605131
0.0632451
0.0661234
0.0691364
0.0722581
0.0754455
0.0786377
0.0817574
0.0847152
0.0468354
0.0314183
0.0312099
0.0327864
0.0346875
0.0366138
0.0385028
0.0403588
0.0422044
0.0440642
0.0459602
0.047911
0.0499329
0.05204
0.0542438
0.0565527
0.0589702
0.0614928
0.064108
0.0667923
0.0695103
0.0722141
0.0748456
0.0481062
0.0304236
0.0293953
0.0305122
0.0321288
0.0338569
0.0355866
0.0372943
0.0389854
0.040674
0.0423758
0.0441056
0.045877
0.0477021
0.0495917
0.0515547
0.0535972
0.0557211
0.0579228
0.0601917
0.062509
0.0648473
0.0671699
0.0503685
0.0302578
0.0285228
0.0292615
0.0306393
0.0321991
0.0337934
0.0353755
0.0369366
0.0384821
0.0400226
0.0415696
0.0431345
0.0447282
0.0463609
0.0480417
0.0497783
0.0515761
0.0534372
0.0553591
0.0573341
0.0593479
0.0613792
0.0538774
0.0309864
0.0285956
0.0290064
0.0301711
0.0315725
0.0330353
0.0344964
0.0359365
0.0373541
0.0387547
0.0401467
0.0415392
0.0429414
0.0443625
0.0458115
0.0472967
0.0488253
0.0504026
0.0520314
0.0537106
0.0554346
0.0571922
0.0589688
0.0327782
0.0297122
0.0297989
0.030742
0.0319671
0.0332785
0.0346024
0.0359122
0.0372005
0.0384683
0.0397199
0.0409615
0.0421998
0.0434424
0.0446971
0.045972
0.0472746
0.048612
0.0499894
0.0514099
0.0528731
0.0543745
0.066065
0.0358823
0.0320421
0.0317492
0.0324176
0.0334149
0.0345292
0.0356792
0.0368323
0.0379754
0.039104
0.0402174
0.0413175
0.0424078
0.0434931
0.0445793
0.0456731
0.0467816
0.0479117
0.0490697
0.0502607
0.0514871
0.0527481
0.0757375
0.0406355
0.0358188
0.0350133
0.0352966
0.0359746
0.0368191
0.0377401
0.0386968
0.0396679
0.040641
0.0416089
0.0425677
0.0435164
0.0444562
0.0453899
0.0463223
0.0472587
0.0482052
0.0491679
0.0501519
0.0511608
0.0521956
0.088829
0.0474929
0.0413396
0.0397773
0.0394904
0.0397123
0.0401889
0.0408124
0.0415254
0.0422926
0.0430897
0.0439001
0.0447124
0.0455198
0.046319
0.0471093
0.0478925
0.0486719
0.0494519
0.050237
0.0510317
0.0518392
0.0526601
0.106654
0.0570886
0.0489644
0.046231
0.0450931
0.0446761
0.0446698
0.0449239
0.0453483
0.0458829
0.0464857
0.0471272
0.0477868
0.0484509
0.0491112
0.0497631
0.0504051
0.0510381
0.0516639
0.0522856
0.0529058
0.053526
0.0541454
0.131392
0.0703496
0.0591008
0.0545152
0.0521334
0.0508642
0.0502645
0.0500934
0.0502008
0.0504878
0.0508877
0.0513552
0.0518595
0.0523799
0.0529029
0.0534203
0.0539275
0.0544224
0.054905
0.0553758
0.0558354
0.056283
0.056715
0.167123
0.0887219
0.0721372
0.0646167
0.0605041
0.0581896
0.0569342
0.0563277
0.056125
0.0561745
0.0563803
0.0566804
0.0570344
0.0574154
0.0578058
0.0581942
0.0585735
0.0589395
0.0592899
0.0596232
0.0599379
0.0602307
0.0604946
0.223298
0.114589
0.0881744
0.0761473
0.069862
0.0664514
0.0646005
0.0636336
0.0631831
0.0630408
0.0630841
0.0632385
0.0634572
0.0637102
0.0639775
0.0642463
0.0645078
0.0647564
0.0649883
0.0652006
0.06539
0.0655513
0.0656745
0.325412
0.151029
0.106065
0.0879156
0.0795216
0.0753439
0.0731812
0.0720527
0.0714854
0.071236
0.0711722
0.0712179
0.0713272
0.0714713
0.0716314
0.0717948
0.071953
0.0721001
0.0722317
0.0723443
0.0724339
0.0724945
0.0725154
0.572105
0.197297
0.120607
0.0973669
0.0884888
0.0845758
0.0826866
0.0817262
0.0812329
0.0809919
0.0808941
0.0808799
0.0809143
0.0809759
0.0810504
0.0811283
0.0812031
0.0812699
0.0813251
0.0813655
0.081388
0.0813876
0.0813559
1.60123
0.213499
0.11792
0.100941
0.0960538
0.0942143
0.0933913
0.0929824
0.0927687
0.0926573
0.0926031
0.0925825
0.0925815
0.0925917
0.0926074
0.0926249
0.0926414
0.092655
0.0926641
0.0926674
0.0926637
0.0926511
0.0926266
2.02882
1.91793
2.01025
2.36023
0.771307
0.869287
0.952661
1.02253
0.854516
0.948611
1.03581
1.111
1.19024
1.3094
1.41318
1.49481
1.78644
1.9472
2.06603
2.12014
2.00195
1.99586
1.97169
1.93179
1.59692
1.52961
1.45546
1.38292
1.26772
1.20505
1.13425
1.06569
1.04408
0.989721
0.931025
0.873709
0.895308
0.850639
0.802853
0.756703
0.794063
0.763439
0.723432
0.686305
0.711179
0.695516
0.669287
0.643217
0.63511
0.627872
0.612931
0.597241
0.555208
0.552096
0.543947
0.531202
0.476874
0.474425
0.468665
0.45867
0.408154
0.405934
0.401147
0.393758
0.351629
0.350003
0.346525
0.341272
0.305676
0.304707
0.302352
0.298698
0.267241
0.266854
0.265392
0.262942
0.233861
0.233953
0.233207
0.231693
0.204107
0.204581
0.204408
0.203637
0.177365
0.178133
0.178408
0.178223
0.153477
0.154466
0.155088
0.155362
0.132479
0.133622
0.134497
0.135115
0.114405
0.115637
0.116679
0.117536
0.099199
0.100461
0.101594
0.102597
0.0867047
0.0879451
0.089102
0.0901729
0.0766819
0.0778558
0.0789855
0.0800618
0.0688362
0.0699199
0.0709809
0.0720164
0.0628666
0.0638458
0.0648165
0.0657762
0.0584984
0.0593653
0.0602323
0.0610976
0.0555011
0.0562524
0.057008
0.0577669
0.0536989
0.0543339
0.0549747
0.0556203
0.0529751
0.0534948
0.0540192
0.0545477
0.0532734
0.0536795
0.0540875
0.0544965
0.0545982
0.0548937
0.0551864
0.0554752
0.057016
0.0572061
0.0573873
0.0575577
0.0606581
0.0607522
0.0608305
0.0608899
0.0657241
0.0657387
0.0657315
0.0656973
0.0724866
0.0724482
0.072385
0.0722901
0.0812969
0.0812424
0.0811668
0.0810632
0.0925948
0.0925678
0.0925323
0.0924852
1.34332
1.0154
0.884825
0.797501
0.706409
0.610714
0.521573
0.442286
0.370775
0.304774
0.247798
0.204347
0.174941
0.157093
0.144051
0.132607
0.126762
0.140625
0.290424
1.04861
1.03696
0.989895
0.912654
0.798209
0.668995
0.557589
0.467
0.39161
0.324296
0.264901
0.219192
0.189363
0.173097
0.162345
0.150602
0.143029
0.163125
0.36197
1.20774
1.24029
1.17306
1.06681
0.898873
0.714533
0.578512
0.480111
0.40439
0.338765
0.27896
0.232018
0.202509
0.189065
0.181394
0.169767
0.156899
0.172558
0.380507
1.59172
1.59812
1.40462
1.18644
0.955167
0.731869
0.581479
0.480945
0.407607
0.345285
0.286237
0.238495
0.208047
0.194267
0.188457
0.179289
0.163477
0.173427
0.342428
2.12719
1.81917
1.39744
1.10586
0.898088
0.709607
0.563784
0.46889
0.40001
0.341576
0.287538
0.242595
0.212171
0.195823
0.190164
0.183818
0.16679
0.170832
0.280462
1.80218
1.45189
1.16381
0.952071
0.787224
0.636255
0.523412
0.44851
0.391605
0.338136
0.288474
0.249481
0.2205
0.201249
0.195612
0.194723
0.175661
0.166447
0.226013
1.27468
1.08635
0.910891
0.767378
0.650868
0.552794
0.47784
0.423845
0.378138
0.332799
0.287238
0.249869
0.226994
0.206089
0.200492
0.212737
0.199734
0.171663
0.193977
0.969262
0.844949
0.730617
0.63037
0.54825
0.481983
0.430944
0.391749
0.355347
0.316163
0.276813
0.243112
0.221284
0.203338
0.194063
0.198948
0.204951
0.174767
0.203252
0.792387
0.698888
0.61334
0.536067
0.472699
0.422532
0.384441
0.35475
0.326485
0.293937
0.260362
0.232189
0.214096
0.200365
0.188439
0.186136
0.185425
0.177072
0.261295
0.690178
0.615853
0.541211
0.470165
0.41449
0.372095
0.340668
0.316712
0.293771
0.266732
0.239732
0.219264
0.207558
0.195861
0.181379
0.172573
0.170836
0.168107
0.261526
0.632715
0.569396
0.494688
0.425237
0.37191
0.331182
0.299852
0.275589
0.254814
0.234714
0.216231
0.203081
0.194747
0.183639
0.168953
0.157794
0.154945
0.15066
0.205241
0.602892
0.533008
0.456245
0.391889
0.341364
0.301309
0.268938
0.24328
0.223211
0.206873
0.193207
0.182616
0.174141
0.163371
0.150344
0.140223
0.135646
0.128603
0.14839
0.563826
0.490846
0.421397
0.363573
0.316759
0.278422
0.246717
0.221396
0.202076
0.186791
0.173668
0.162053
0.151851
0.141362
0.130557
0.121901
0.115873
0.106191
0.102291
0.500871
0.442463
0.385891
0.33685
0.295501
0.260542
0.230996
0.206945
0.188319
0.173287
0.159596
0.146562
0.134681
0.123945
0.114495
0.1072
0.101968
0.0946103
0.0876967
0.43578
0.393195
0.350051
0.310563
0.275632
0.245036
0.218589
0.196605
0.179111
0.164688
0.151029
0.137501
0.124964
0.114059
0.105243
0.0993436
0.0974214
0.097908
0.105138
0.377886
0.348016
0.316098
0.28519
0.256486
0.230429
0.207407
0.187978
0.172144
0.15874
0.14576
0.132803
0.120827
0.110566
0.102617
0.0978793
0.0983015
0.105426
0.132087
0.330026
0.308872
0.28533
0.261323
0.238003
0.216129
0.196403
0.179542
0.165561
0.153289
0.141363
0.129638
0.118901
0.109876
0.103192
0.0995916
0.100941
0.112091
0.160782
0.290788
0.275444
0.257791
0.239074
0.220203
0.201989
0.185232
0.170641
0.158261
0.147158
0.136462
0.126133
0.116775
0.109079
0.103713
0.101445
0.104008
0.117936
0.188055
0.257458
0.246315
0.232977
0.218322
0.203101
0.188054
0.173921
0.161307
0.150292
0.140311
0.130809
0.12178
0.1137
0.107211
0.103027
0.102078
0.106256
0.122605
0.211171
0.22806
0.220106
0.210126
0.198764
0.186634
0.17437
0.162602
0.151809
0.142098
0.133198
0.124803
0.116941
0.110005
0.104588
0.101431
0.101593
0.107228
0.125945
0.224672
0.201468
0.196053
0.188814
0.18022
0.17077
0.160987
0.151378
0.142317
0.133941
0.126158
0.118843
0.112075
0.106201
0.101769
0.0995135
0.100528
0.10708
0.126789
0.227129
0.17722
0.173873
0.168924
0.162709
0.155612
0.148049
0.140412
0.133002
0.125983
0.119365
0.113142
0.107441
0.102588
0.0990874
0.0976389
0.0993153
0.106317
0.126361
0.226682
0.155283
0.153604
0.150553
0.146357
0.141295
0.135688
0.129844
0.124008
0.118334
0.112897
0.107768
0.103112
0.0992423
0.0966234
0.0959003
0.0980757
0.105325
0.125635
0.228289
0.135743
0.135371
0.133859
0.13134
0.128006
0.124091
0.119832
0.115432
0.111037
0.106755
0.1027
0.0990569
0.0961198
0.0943092
0.094213
0.0967885
0.104247
0.124978
0.231924
0.118672
0.11928
0.118967
0.117796
0.115885
0.113396
0.110507
0.107381
0.104156
0.100952
0.097904
0.0952009
0.0931151
0.0920254
0.0924737
0.0953968
0.10307
0.124265
0.234945
0.104064
0.10536
0.105935
0.105801
0.10502
0.103696
0.101954
0.0999254
0.0977317
0.095495
0.0933544
0.0914929
0.0901602
0.0896994
0.0906183
0.0938477
0.101721
0.123287
0.236579
0.0918213
0.0935557
0.0947445
0.0953677
0.0954449
0.0950345
0.0942216
0.0931051
0.09179
0.0903898
0.0890385
0.0879071
0.0872226
0.0872984
0.0886163
0.0921007
0.100133
0.121902
0.237119
0.0817716
0.0837419
0.0853145
0.0864509
0.0871434
0.0874175
0.0873255
0.0869395
0.0863451
0.085643
0.0849554
0.0844378
0.0842958
0.084817
0.0864613
0.0901422
0.0982607
0.120022
0.236443
0.0736965
0.0757451
0.0775162
0.0789636
0.0800636
0.0808192
0.0812585
0.081431
0.0814036
0.0812614
0.081112
0.0810936
0.0813908
0.0822685
0.0841651
0.0879775
0.0960913
0.117659
0.234157
0.0673616
0.069371
0.0711972
0.0727935
0.0741286
0.075192
0.0759952
0.0765695
0.0769653
0.0772518
0.0775204
0.0778918
0.0785308
0.0796807
0.0817581
0.0856349
0.0936501
0.114911
0.230621
0.0625423
0.0644278
0.0662012
0.0678194
0.0692499
0.0704761
0.0714987
0.0723362
0.0730248
0.073619
0.0741944
0.0748549
0.0757463
0.0770925
0.0792886
0.0831784
0.0910459
0.111877
0.226616
0.0590416
0.0607441
0.0623841
0.0639256
0.0653393
0.0666077
0.0677269
0.0687068
0.0695727
0.0703659
0.0711479
0.0720065
0.0730708
0.0745467
0.0768091
0.080671
0.0883416
0.108585
0.222271
0.0567086
0.0581834
0.0596279
0.0610137
0.0623181
0.0635275
0.0646378
0.0656551
0.0665966
0.0674928
0.0683925
0.0693691
0.0705364
0.0720843
0.0743685
0.0781713
0.0856232
0.105191
0.216131
0.0554389
0.0566515
0.0578492
0.0590117
0.0601257
0.0611861
0.062194
0.0631555
0.0640827
0.0649976
0.0659372
0.066962
0.0681724
0.0697429
0.0720113
0.0757296
0.0829609
0.101904
0.209233
0.0551824
0.0561044
0.0570078
0.0578817
0.0587253
0.0595489
0.0603651
0.0611845
0.0620165
0.0628755
0.0637875
0.0648012
0.0660039
0.0675571
0.0697814
0.0734009
0.0804261
0.0989445
0.204688
0.0559505
0.056557
0.0571155
0.0576274
0.0581092
0.0585981
0.0591287
0.0597207
0.0603822
0.0611191
0.061946
0.0628986
0.0640526
0.0655573
0.067719
0.0712356
0.0780586
0.0961291
0.199737
0.0578215
0.0580903
0.0582483
0.0583055
0.0583032
0.0583322
0.0584669
0.0587417
0.059161
0.0597178
0.0604116
0.0612636
0.0623366
0.0637694
0.0658557
0.0692679
0.0758841
0.0934168
0.194144
0.0609512
0.0608703
0.0605701
0.0600445
0.0593706
0.0587593
0.0583586
0.0582178
0.0583268
0.0586553
0.0591799
0.0599031
0.0608734
0.0622189
0.0642227
0.0675315
0.0739436
0.0909257
0.188883
0.0655838
0.0651726
0.064374
0.0630841
0.0614103
0.0598774
0.0587593
0.0580987
0.0578396
0.0579065
0.0582415
0.0588222
0.0596808
0.0609351
0.0628602
0.0660795
0.072312
0.0888142
0.184613
0.0720624
0.0714087
0.0701381
0.0678681
0.0645284
0.0616199
0.0595643
0.0582938
0.0576356
0.0574337
0.0575801
0.0580225
0.0587755
0.059949
0.0618143
0.0649766
0.0710752
0.0872141
0.181797
0.0808258
0.0801465
0.0786576
0.0753273
0.0686868
0.0637208
0.0605427
0.0586463
0.0576181
0.0571821
0.0571701
0.057499
0.0581687
0.0592856
0.0611217
0.0642611
0.0702663
0.0861961
0.180743
0.0923783
0.0920484
0.0911142
0.0877685
0.0730228
0.0654407
0.0612697
0.058923
0.0576578
0.057081
0.0569764
0.0572398
0.0578627
0.0589532
0.0607832
0.0638651
0.0696808
0.0855144
0.181146
)
;

boundaryField
{
    leftWall
    {
        type            epsilonWallFunction;
        value           nonuniform List<scalar> 
50
(
0.011895
0.0196488
0.0326498
0.0480652
0.0649282
0.0825484
0.10035
0.118896
0.14455
0.179078
0.21326
0.240574
0.243151
0.258671
0.345603
0.45253
0.542236
0.609668
0.653284
0.670549
0.662114
0.630787
0.581105
0.51847
0.446428
0.376675
0.310454
0.246916
0.184803
0.133845
0.0935295
0.0663926
0.0524184
0.0474493
0.0464579
0.0468354
0.0481062
0.0503685
0.0538774
0.0589688
0.066065
0.0757375
0.088829
0.106654
0.131392
0.167123
0.223298
0.325412
0.572105
1.60123
)
;
        Cmu             0.09;
        kappa           0.41;
        E               9.8;
        value           nonuniform List<scalar> 
50
(
0.011895
0.0196488
0.0326498
0.0480652
0.0649282
0.0825484
0.10035
0.118896
0.14455
0.179078
0.21326
0.240574
0.243151
0.258671
0.345603
0.45253
0.542236
0.609668
0.653284
0.670549
0.662114
0.630787
0.581105
0.51847
0.446428
0.376675
0.310454
0.246916
0.184803
0.133845
0.0935295
0.0663926
0.0524184
0.0474493
0.0464579
0.0468354
0.0481062
0.0503685
0.0538774
0.0589688
0.066065
0.0757375
0.088829
0.106654
0.131392
0.167123
0.223298
0.325412
0.572105
1.60123
)
;
    }
    rightWall
    {
        type            epsilonWallFunction;
        value           nonuniform List<scalar> 
50
(
0.0274204
0.0376462
0.0578003
0.0822427
0.11251
0.146796
0.185773
0.224418
0.290424
0.36197
0.380507
0.342428
0.280462
0.226013
0.193977
0.203252
0.261295
0.261526
0.205241
0.14839
0.102291
0.0876967
0.105138
0.132087
0.160782
0.188055
0.211171
0.224672
0.227129
0.226682
0.228289
0.231924
0.234945
0.236579
0.237119
0.236443
0.234157
0.230621
0.226616
0.222271
0.216131
0.209233
0.204688
0.199737
0.194144
0.188883
0.184613
0.181797
0.180743
0.181146
)
;
        Cmu             0.09;
        kappa           0.41;
        E               9.8;
        value           nonuniform List<scalar> 
50
(
0.0274204
0.0376462
0.0578003
0.0822427
0.11251
0.146796
0.185773
0.224418
0.290424
0.36197
0.380507
0.342428
0.280462
0.226013
0.193977
0.203252
0.261295
0.261526
0.205241
0.14839
0.102291
0.0876967
0.105138
0.132087
0.160782
0.188055
0.211171
0.224672
0.227129
0.226682
0.228289
0.231924
0.234945
0.236579
0.237119
0.236443
0.234157
0.230621
0.226616
0.222271
0.216131
0.209233
0.204688
0.199737
0.194144
0.188883
0.184613
0.181797
0.180743
0.181146
)
;
    }
    lowerWall
    {
        type            epsilonWallFunction;
        value           nonuniform List<scalar> 
62
(
0.011895
0.0643935
0.122771
0.175468
0.223413
0.268883
0.31251
0.353873
0.391626
0.424036
0.449529
0.467004
0.475866
0.47578
0.466234
0.446067
0.418213
0.378934
0.328716
0.271947
0.204299
0.124518
0.0455163
0.0455163
0.0735947
0.133309
0.207547
0.297193
0.408642
0.569672
0.956668
2.02882
1.91793
2.01025
2.36023
0.119264
0.129856
0.171732
0.215541
0.301028
0.505523
1.10776
2.11927
0.119264
0.47312
0.993191
1.24438
1.24892
1.14066
0.994644
0.853585
0.724476
0.591762
0.445699
0.315094
0.236545
0.207767
0.18982
0.159139
0.118154
0.0772992
0.0274204
)
;
        Cmu             0.09;
        kappa           0.41;
        E               9.8;
        value           nonuniform List<scalar> 
62
(
0.011895
0.0643935
0.122771
0.175468
0.223413
0.268883
0.31251
0.353873
0.391626
0.424036
0.449529
0.467004
0.475866
0.47578
0.466234
0.446067
0.418213
0.378934
0.328716
0.271947
0.204299
0.124518
0.0455163
0.0455163
0.0735947
0.133309
0.207547
0.297193
0.408642
0.569672
0.956668
2.02882
1.91793
2.01025
2.36023
0.119264
0.129856
0.171732
0.215541
0.301028
0.505523
1.10776
2.11927
0.119264
0.47312
0.993191
1.24438
1.24892
1.14066
0.994644
0.853585
0.724476
0.591762
0.445699
0.315094
0.236545
0.207767
0.18982
0.159139
0.118154
0.0772992
0.0274204
)
;
    }
    atmosphere
    {
        type            inletOutlet;
        inletValue      uniform 0.1;
        value           nonuniform List<scalar> 
46
(
0.1
0.1
0.1
0.1
0.1
0.1
0.1
0.1
0.1
0.1
0.1
0.1
0.1
0.1
0.1
0.1
0.1
0.1
0.1
0.1
0.1
0.1
0.1
0.1
0.1
0.1
0.1
0.1
0.1
0.1
0.1
0.0730228
0.0654407
0.0612697
0.058923
0.0576578
0.057081
0.0569764
0.0572398
0.0578627
0.0589532
0.0607832
0.0638651
0.0696808
0.0855144
0.181146
)
;
    }
    defaultFaces
    {
        type            empty;
    }
}


// ************************************************************************* //
