/*--------------------------------*- C++ -*----------------------------------*\
| =========                 |                                                 |
| \\      /  F ield         | OpenFOAM: The Open Source CFD Toolbox           |
|  \\    /   O peration     | Version:  2.3.0                                 |
|   \\  /    A nd           | Web:      www.OpenFOAM.org                      |
|    \\/     M anipulation  |                                                 |
\*---------------------------------------------------------------------------*/
FoamFile
{
    version     2.0;
    format      ascii;
    class       volScalarField;
    location    "1.75";
    object      k;
}
// * * * * * * * * * * * * * * * * * * * * * * * * * * * * * * * * * * * * * //

dimensions      [0 2 -2 0 0 0 0];

internalField   nonuniform List<scalar> 
2268
(
0.00242803
0.00610712
0.00937293
0.011881
0.0139516
0.0157837
0.0174482
0.0189584
0.0202897
0.0214036
0.0222648
0.0228507
0.0231512
0.0231608
0.0228632
0.0222211
0.0213073
0.0199721
0.0181658
0.0159891
0.0131951
0.00947405
0.00490733
0.0045689
0.0138928
0.0205474
0.0258264
0.0302949
0.0342292
0.0377543
0.0408962
0.0436192
0.0458631
0.0475753
0.0487275
0.0493195
0.0493675
0.0488825
0.047836
0.0461761
0.0438432
0.040758
0.0370773
0.0322337
0.024454
0.0110559
0.00641189
0.0183389
0.0264993
0.0330876
0.0387111
0.0436698
0.0481031
0.0520414
0.0554446
0.0582446
0.0603815
0.0618266
0.06259
0.0627095
0.0622265
0.0611553
0.0594765
0.0571487
0.0540246
0.0499885
0.0442943
0.0350485
0.0163441
0.00828641
0.0219687
0.0311632
0.0386113
0.0450106
0.0506731
0.055741
0.0602423
0.0641309
0.0673297
0.069771
0.0714254
0.0723152
0.0725043
0.0720703
0.0710701
0.0695184
0.0673937
0.0644996
0.0605122
0.054532
0.0444651
0.0219558
0.010111
0.0253266
0.0353449
0.043457
0.0504673
0.0567001
0.0622956
0.0672762
0.0715854
0.0751331
0.0778398
0.0796728
0.0806677
0.0809203
0.0805529
0.0796685
0.0783155
0.0764944
0.0739833
0.0703254
0.0644805
0.0540169
0.0278564
0.0118377
0.0285475
0.0392873
0.0479647
0.0555028
0.0622423
0.0683213
0.0737542
0.0784704
0.0823606
0.0853271
0.087329
0.0884148
0.0887193
0.0884215
0.087681
0.0865852
0.0851632
0.0831936
0.0801554
0.0749064
0.0645645
0.0345881
0.0134571
0.0316692
0.0430825
0.0522759
0.0603005
0.0675192
0.0740709
0.0799612
0.085101
0.0893547
0.092597
0.0947705
0.0959343
0.09627
0.0960315
0.0954519
0.0946702
0.0937547
0.0925101
0.0904209
0.0863554
0.0771062
0.0433552
0.0150421
0.0347085
0.0467707
0.056458
0.064952
0.0726449
0.0796807
0.0860564
0.0916605
0.0963217
0.099875
0.102234
0.103462
0.103796
0.103589
0.103175
0.102763
0.102473
0.10216
0.101384
0.0992046
0.0928644
0.0618776
0.00947679
0.0234175
0.0383521
0.0447553
0.0449105
0.0422935
0.0385447
0.0347163
0.031051
0.0271596
0.0225594
0.0179121
0.0146115
0.0132034
0.0124197
0.0110719
0.00909816
0.00683654
0.00429386
0.017688
0.0511371
0.0792664
0.090577
0.0906017
0.0850654
0.0777294
0.0705905
0.0636636
0.0556762
0.046586
0.0385672
0.0333873
0.0305364
0.0286933
0.0257821
0.0214426
0.0159445
0.00749227
0.0212284
0.0679562
0.0995724
0.112929
0.113506
0.107269
0.0986495
0.0900866
0.0815963
0.0720025
0.0613161
0.0516867
0.0451705
0.0411318
0.0381816
0.0344139
0.0291544
0.0221371
0.00999769
0.0244786
0.0819786
0.114785
0.12912
0.130249
0.123865
0.114508
0.104937
0.0951052
0.0841278
0.0722409
0.0615243
0.0541203
0.0493794
0.045651
0.0412517
0.0354045
0.0276138
0.0127195
0.0303842
0.0956159
0.128944
0.143555
0.144859
0.138283
0.128274
0.117783
0.106659
0.0943218
0.081329
0.0696849
0.0615584
0.0564399
0.0521992
0.0473032
0.0410426
0.0326667
0.0156857
0.0428324
0.111593
0.144257
0.158242
0.158985
0.151723
0.140827
0.129301
0.116934
0.103325
0.089422
0.0770424
0.0682076
0.0627742
0.0581715
0.0528705
0.046306
0.0374671
0.0187279
0.0727496
0.132321
0.162109
0.174106
0.173296
0.164667
0.152478
0.139689
0.126147
0.111522
0.096925
0.0839896
0.0745184
0.0686796
0.0637309
0.0580695
0.0512536
0.042061
0.0218828
0.112759
0.15828
0.182852
0.191368
0.187962
0.177226
0.163309
0.149064
0.134459
0.119115
0.103991
0.0906371
0.0806742
0.0743561
0.0690131
0.0629758
0.0558957
0.0464528
0.0247656
0.0170946
0.0390568
0.0521872
0.0626733
0.0719183
0.080378
0.0882158
0.0954185
0.101836
0.10723
0.111352
0.114048
0.11537
0.115646
0.115442
0.115311
0.115609
0.116486
0.117966
0.119812
0.121593
0.122277
0.115268
0.0196668
0.0445616
0.0591423
0.0707582
0.0810925
0.0907259
0.0998752
0.108524
0.116461
0.123312
0.128626
0.132035
0.133452
0.133276
0.132615
0.132596
0.133907
0.136828
0.141422
0.147837
0.156279
0.167315
0.181441
0.0219941
0.0495148
0.0654879
0.0783335
0.0898867
0.100902
0.111653
0.122153
0.132187
0.141224
0.148506
0.153296
0.155052
0.153741
0.151627
0.151058
0.153208
0.15861
0.16736
0.179496
0.195665
0.21689
0.242545
0.0236219
0.0523262
0.0700514
0.0846097
0.0977839
0.110523
0.123119
0.135768
0.148498
0.16065
0.171014
0.178734
0.182398
0.178749
0.173078
0.170796
0.173372
0.181684
0.195636
0.214726
0.239695
0.272584
0.312337
0.0237899
0.0511184
0.0708377
0.0879582
0.103576
0.11851
0.132662
0.146153
0.159096
0.170766
0.180654
0.18874
0.193676
0.196062
0.191497
0.189231
0.193245
0.205273
0.226295
0.253823
0.289639
0.339766
0.404165
0.0254126
0.0503369
0.0710332
0.0904497
0.107733
0.123401
0.13699
0.148937
0.159659
0.168425
0.17531
0.181758
0.18873
0.195515
0.198201
0.201515
0.211694
0.230829
0.253582
0.28155
0.323166
0.387951
0.461717
0.0309396
0.058826
0.0792103
0.097213
0.113625
0.128213
0.140729
0.151202
0.160298
0.167714
0.173746
0.179599
0.186175
0.193589
0.200487
0.208465
0.221308
0.243237
0.267955
0.293929
0.333745
0.389355
0.433416
0.0367493
0.0719199
0.092482
0.108797
0.123008
0.135383
0.146126
0.155561
0.163924
0.170719
0.175378
0.179743
0.185957
0.193723
0.20239
0.212339
0.224686
0.243164
0.268675
0.297424
0.333131
0.37117
0.384467
0.0411881
0.0794532
0.100204
0.116134
0.129703
0.141324
0.151108
0.159398
0.166406
0.17168
0.175277
0.179409
0.185707
0.193425
0.201902
0.21115
0.222589
0.239301
0.262544
0.291478
0.324287
0.347247
0.349733
0.0444022
0.0839146
0.103724
0.118869
0.131696
0.142423
0.151183
0.158318
0.164139
0.168724
0.172783
0.177596
0.183834
0.191073
0.198764
0.207278
0.218132
0.233275
0.253559
0.278797
0.305815
0.322046
0.323532
0.0464244
0.0868137
0.105642
0.119262
0.130613
0.140106
0.147858
0.154168
0.159449
0.164123
0.16879
0.174109
0.180384
0.187374
0.194808
0.203045
0.213143
0.226277
0.243339
0.264474
0.285885
0.299667
0.302754
0.0472216
0.0882136
0.106158
0.118277
0.128024
0.136165
0.142957
0.148699
0.15379
0.158657
0.163738
0.169397
0.175762
0.182665
0.18998
0.197955
0.207231
0.218513
0.232497
0.249515
0.267014
0.279839
0.285216
0.046849
0.0880024
0.105219
0.116148
0.124572
0.131575
0.137574
0.142889
0.147857
0.152811
0.158047
0.163771
0.170046
0.176748
0.183831
0.19146
0.200012
0.209927
0.221662
0.235383
0.24964
0.26135
0.267936
0.04541
0.0861431
0.102762
0.112877
0.120395
0.126596
0.13202
0.136999
0.14181
0.146695
0.151847
0.157392
0.163378
0.169741
0.176477
0.183706
0.191658
0.200602
0.210779
0.222147
0.233736
0.243605
0.249639
0.0430572
0.0827348
0.0988207
0.108439
0.115434
0.121159
0.126217
0.130946
0.13558
0.140298
0.145232
0.150468
0.156055
0.162022
0.168358
0.17516
0.182571
0.190729
0.19969
0.20924
0.218579
0.226312
0.230874
0.0399736
0.0779818
0.0935375
0.102877
0.109636
0.115143
0.120015
0.124588
0.129071
0.133608
0.138299
0.143217
0.148421
0.153972
0.159906
0.166274
0.173153
0.180579
0.188472
0.19651
0.203988
0.209849
0.213049
0.0362458
0.0721311
0.0871278
0.096317
0.103024
0.10849
0.113316
0.117828
0.122221
0.12662
0.131114
0.135774
0.140661
0.145842
0.151389
0.157333
0.163685
0.17041
0.177349
0.184145
0.190199
0.194736
0.197079
0.0324354
0.0654331
0.0798372
0.0889354
0.0956904
0.101225
0.106101
0.110631
0.115
0.119327
0.123696
0.128174
0.132826
0.137717
0.142906
0.14844
0.154292
0.160372
0.166493
0.172322
0.177375
0.181097
0.183042
0.0285655
0.0581731
0.0719121
0.0809363
0.0877816
0.0934365
0.0984181
0.103021
0.107422
0.111734
0.116039
0.120404
0.124889
0.129554
0.134444
0.139588
0.144971
0.150485
0.155935
0.161037
0.165412
0.168662
0.170465
0.0245775
0.0507619
0.0635996
0.0725496
0.0794875
0.0852755
0.090383
0.0950844
0.0995473
0.103881
0.108163
0.112458
0.116822
0.121303
0.125939
0.130743
0.135691
0.140707
0.145614
0.150167
0.154078
0.157045
0.158823
0.0203293
0.043201
0.0552458
0.0640354
0.0710445
0.0769503
0.0821761
0.0869758
0.0915067
0.0958723
0.100148
0.104392
0.108654
0.112977
0.117387
0.121891
0.126463
0.131035
0.135486
0.139614
0.143187
0.145974
0.147776
0.0164319
0.0355026
0.0470077
0.0556516
0.0627342
0.0687263
0.0740413
0.0789182
0.0835012
0.0878881
0.0921498
0.0963409
0.100505
0.104677
0.108878
0.113112
0.117354
0.121548
0.125601
0.129379
0.132692
0.135353
0.137201
0.0129691
0.0288261
0.039607
0.0479711
0.0549309
0.060929
0.066279
0.0711962
0.0757971
0.080175
0.0843988
0.0885188
0.0925733
0.0965914
0.100591
0.104573
0.10852
0.112389
0.116106
0.119573
0.122672
0.125237
0.127134
0.0103229
0.0240561
0.0337455
0.0415423
0.0481769
0.054027
0.0592968
0.0641526
0.0687016
0.0730208
0.0771679
0.0811861
0.0851089
0.0889609
0.0927572
0.0965004
0.100177
0.103756
0.107183
0.110386
0.113276
0.115754
0.117697
0.00879457
0.0211678
0.0296963
0.0367253
0.0428597
0.0483813
0.0534374
0.0581329
0.0625465
0.0667373
0.0707504
0.0746212
0.0783772
0.0820393
0.0856206
0.0891246
0.0925432
0.0958544
0.0990211
0.101991
0.1047
0.107077
0.109048
0.00820018
0.019628
0.0272047
0.0334882
0.0390646
0.0441666
0.0489078
0.053352
0.0575505
0.0615442
0.0653659
0.0690423
0.0725951
0.0760412
0.0793922
0.0826524
0.0858179
0.0888749
0.0917983
0.0945526
0.0970927
0.0993672
0.101324
0.00807615
0.0189015
0.0258344
0.0315433
0.0366335
0.0413295
0.0457237
0.0498683
0.0538002
0.0575476
0.0611335
0.0645777
0.0678969
0.0711049
0.0742115
0.077222
0.0801356
0.0829446
0.0856334
0.0881786
0.0905495
0.0927102
0.0946222
0.0081265
0.018681
0.025245
0.0305772
0.0353122
0.0396691
0.0437457
0.0475945
0.0512482
0.0547303
0.0580593
0.0612511
0.0643195
0.0672762
0.0701303
0.0728878
0.0755506
0.0781153
0.0805734
0.0829103
0.0851061
0.087136
0.0889721
0.00828538
0.0188126
0.0252205
0.0303421
0.0348438
0.0389533
0.042775
0.0463661
0.0497622
0.0529877
0.0560617
0.0589997
0.061815
0.0645189
0.0671209
0.0696278
0.0720436
0.0743686
0.0765992
0.0787273
0.0807407
0.0826228
0.0843538
0.00855893
0.0192589
0.0256572
0.0306914
0.0350613
0.0390058
0.0426365
0.0460171
0.0491889
0.0521814
0.0550167
0.0577126
0.060284
0.0627434
0.0651012
0.0673657
0.0695426
0.071635
0.073643
0.0755633
0.0773891
0.0791099
0.0807121
0.00896877
0.0200361
0.0265389
0.0315757
0.0358871
0.039726
0.0432136
0.0464219
0.0493999
0.0521833
0.0547994
0.0572697
0.0596117
0.0618398
0.0639659
0.0659998
0.0679489
0.0698186
0.0716114
0.0733276
0.074964
0.0765149
0.0779708
0.00954066
0.0211825
0.0278935
0.0330037
0.0373069
0.0410767
0.0444486
0.0475062
0.0503083
0.0528984
0.0553096
0.057568
0.059694
0.061704
0.0636117
0.065428
0.0671617
0.0688197
0.0704065
0.0719244
0.0733732
0.07475
0.0760487
0.0103033
0.0227537
0.0297789
0.0350223
0.0393495
0.0430659
0.0463289
0.0492391
0.0518678
0.0542681
0.0564798
0.0585331
0.0604516
0.0622535
0.0639536
0.0655638
0.0670938
0.068551
0.0699413
0.0712683
0.0725335
0.0737359
0.0748715
0.0112927
0.0248278
0.0322814
0.0377087
0.0420742
0.0457321
0.0488728
0.0516206
0.0540634
0.056265
0.0582723
0.0601197
0.0618331
0.063432
0.0649319
0.0663447
0.0676803
0.0689465
0.0701495
0.0712934
0.0723805
0.0734107
0.0743812
0.0125604
0.0275139
0.0355178
0.0411652
0.0455601
0.0491306
0.0521148
0.0546686
0.0568995
0.0588831
0.060673
0.0623071
0.0638125
0.0652093
0.0665124
0.0677336
0.0688822
0.0699655
0.0709894
0.0719579
0.0728733
0.0737356
0.074542
0.0141845
0.0309638
0.0396392
0.0455139
0.0498956
0.0533207
0.056093
0.0584063
0.0603895
0.0621292
0.0636839
0.0650934
0.0663848
0.0675774
0.0686852
0.0697185
0.0706856
0.0715929
0.0724452
0.073246
0.0739969
0.0746972
0.0753434
0.0162903
0.0353952
0.0448383
0.0508911
0.0551656
0.0583525
0.0608366
0.0628524
0.0645473
0.0660153
0.0673166
0.0684901
0.0695615
0.0705478
0.071461
0.0723097
0.0731003
0.0738379
0.0745261
0.0751672
0.075762
0.0763085
0.0768018
0.0191064
0.0411427
0.0513634
0.0574371
0.0614354
0.0642513
0.066355
0.068013
0.0693818
0.0705548
0.0715891
0.0725196
0.073368
0.0741481
0.0748692
0.0755375
0.0761575
0.0767326
0.0772651
0.077756
0.0782048
0.0786085
0.0789604
0.0231523
0.0487553
0.0595289
0.0652698
0.068724
0.0710018
0.0726299
0.0738791
0.0748959
0.0757626
0.0765262
0.0772143
0.0778428
0.0784216
0.0789566
0.0794515
0.079909
0.0803306
0.0807175
0.0810697
0.0813855
0.0816612
0.0818886
0.0297245
0.0592267
0.0696684
0.0744093
0.0769596
0.0785305
0.0796125
0.0804294
0.0810923
0.0816596
0.082163
0.0826199
0.0830398
0.0834281
0.0837876
0.08412
0.084426
0.0847062
0.0849605
0.0851882
0.0853874
0.085554
0.0856798
0.0432897
0.074151
0.081857
0.0846003
0.0859174
0.0866972
0.0872333
0.0876444
0.0879851
0.088283
0.0885524
0.0888007
0.0890316
0.0892467
0.0894466
0.0896314
0.0898009
0.0899547
0.0900925
0.0902133
0.0903155
0.090396
0.0904487
0.0863056
0.0942123
0.094833
0.0950451
0.0951999
0.0953277
0.0954364
0.0955319
0.0956185
0.095699
0.095775
0.0958472
0.0959156
0.0959802
0.0960407
0.0960966
0.0961477
0.0961938
0.0962343
0.0962691
0.0962974
0.096318
0.0963289
0.103046
0.0996783
0.103018
0.114457
0.194069
0.203826
0.214429
0.225875
0.261868
0.275435
0.288249
0.299715
0.339362
0.356562
0.37097
0.381854
0.442353
0.463182
0.477265
0.482153
0.477737
0.476478
0.472398
0.465685
0.425623
0.415323
0.403616
0.391711
0.378087
0.367889
0.356006
0.344064
0.343193
0.333745
0.323231
0.312601
0.318414
0.310246
0.301212
0.292181
0.300529
0.294789
0.286918
0.27936
0.284741
0.281896
0.276651
0.271225
0.268953
0.267735
0.264685
0.261302
0.250774
0.250286
0.248521
0.245529
0.231441
0.230929
0.229526
0.226959
0.213157
0.212548
0.211228
0.20916
0.197036
0.196485
0.195401
0.193788
0.183058
0.182642
0.181805
0.180564
0.170626
0.17037
0.169767
0.168838
0.159156
0.159065
0.158683
0.158031
0.148286
0.148358
0.148185
0.147786
0.137883
0.138109
0.13813
0.137962
0.127975
0.128343
0.128543
0.128583
0.118679
0.119173
0.119529
0.119752
0.110142
0.110739
0.111223
0.111597
0.102493
0.103165
0.103745
0.104235
0.0958195
0.0965348
0.0971766
0.0977452
0.0901601
0.0908861
0.0915568
0.0921688
0.0855008
0.0862127
0.086881
0.0875048
0.081792
0.0824694
0.0831125
0.0837202
0.0789639
0.0795911
0.080191
0.0807627
0.0769409
0.0775063
0.0780496
0.0785697
0.0756536
0.0761494
0.0766265
0.0770838
0.0750477
0.075469
0.0758735
0.0762602
0.0750906
0.0754346
0.0757626
0.0760734
0.0757745
0.0760409
0.0762908
0.0765227
0.0771193
0.0773101
0.077483
0.0776361
0.0791727
0.0792934
0.0793945
0.0794731
0.08201
0.0820708
0.0821106
0.0821255
0.0857315
0.0857482
0.0857445
0.0857156
0.0904582
0.0904517
0.0904294
0.090387
0.0963262
0.0963198
0.0963073
0.0962868
0.160746
0.196601
0.213993
0.217222
0.209555
0.195277
0.178789
0.162343
0.146319
0.130163
0.114405
0.100594
0.0901075
0.0830664
0.077066
0.0703166
0.0626712
0.0530459
0.0293565
0.245141
0.260348
0.264029
0.257323
0.240474
0.217822
0.195873
0.176288
0.158888
0.142192
0.125864
0.111567
0.100776
0.0935085
0.0871474
0.0790919
0.0695632
0.0592385
0.0338901
0.315782
0.323382
0.314801
0.29812
0.269635
0.235995
0.208529
0.186661
0.168601
0.151935
0.135376
0.120669
0.109654
0.10247
0.0958266
0.086388
0.0739329
0.061037
0.0351468
0.394135
0.393363
0.363347
0.327739
0.288214
0.247231
0.216433
0.193473
0.175265
0.158863
0.142159
0.126895
0.115047
0.106873
0.0995636
0.0892706
0.0743796
0.0589725
0.0329191
0.478892
0.433532
0.371843
0.324095
0.286529
0.250156
0.219182
0.196647
0.178704
0.162529
0.146532
0.131567
0.119163
0.109383
0.100906
0.0895211
0.0720525
0.0537486
0.0288925
0.445005
0.390987
0.34357
0.305434
0.273361
0.241986
0.216119
0.196998
0.181175
0.165558
0.150071
0.136359
0.124001
0.112713
0.103178
0.0914485
0.0713749
0.0488496
0.0250907
0.372996
0.339667
0.306506
0.277237
0.251927
0.229252
0.210279
0.195149
0.18147
0.167339
0.152299
0.138501
0.127712
0.115557
0.105625
0.0966837
0.0769394
0.0494709
0.0225996
0.326249
0.301606
0.277088
0.25404
0.234048
0.216868
0.202429
0.190204
0.178246
0.16506
0.151053
0.137715
0.126828
0.115496
0.104674
0.0951049
0.0823565
0.054682
0.0230558
0.296627
0.276482
0.25623
0.236615
0.219534
0.205036
0.192966
0.18258
0.172124
0.160038
0.147001
0.134769
0.124682
0.11462
0.103251
0.0925594
0.0799427
0.059896
0.0269293
0.278447
0.261419
0.242546
0.223294
0.207077
0.193655
0.182615
0.173179
0.16359
0.152338
0.140555
0.130204
0.121896
0.112351
0.100257
0.0881399
0.0760638
0.0585528
0.0273705
0.267896
0.252691
0.233057
0.213468
0.197133
0.183445
0.171736
0.161547
0.151934
0.142065
0.132264
0.123724
0.116114
0.106506
0.0943171
0.0817361
0.070014
0.0532611
0.0236174
0.26238
0.24501
0.224343
0.205545
0.189455
0.175429
0.162858
0.151671
0.141702
0.132443
0.123598
0.115311
0.107131
0.0972584
0.0854499
0.0733371
0.061527
0.0452703
0.0192213
0.253602
0.234937
0.215649
0.198197
0.182769
0.168868
0.156118
0.144651
0.134534
0.125198
0.116017
0.106794
0.0974561
0.0872425
0.0759678
0.0643976
0.0525281
0.0371512
0.0150022
0.238052
0.222411
0.206052
0.190688
0.176567
0.163453
0.151175
0.139921
0.129824
0.120312
0.110582
0.100425
0.0900379
0.0793549
0.0683226
0.0571504
0.0456218
0.0317424
0.0131969
0.220886
0.208819
0.19572
0.182802
0.1704
0.158513
0.147161
0.136549
0.126787
0.117404
0.107553
0.0970406
0.0862266
0.0753247
0.0644147
0.0536327
0.0429693
0.0310408
0.0147174
0.204614
0.195599
0.185369
0.174767
0.164146
0.15365
0.143438
0.133756
0.124649
0.115703
0.106174
0.0959572
0.0854715
0.0749857
0.0646326
0.0545076
0.0446797
0.0339129
0.01715
0.190307
0.183493
0.175506
0.166855
0.15785
0.148706
0.139659
0.130981
0.122687
0.114335
0.10541
0.0959266
0.0862463
0.0766524
0.0672913
0.0581481
0.049003
0.0382665
0.0195906
0.177897
0.172614
0.166272
0.159178
0.151563
0.14365
0.135693
0.127942
0.120406
0.112712
0.104542
0.0959449
0.0872156
0.0786259
0.0703235
0.0622346
0.0538756
0.0431589
0.021775
0.166811
0.162689
0.157599
0.151746
0.145314
0.138499
0.13153
0.124608
0.117745
0.110708
0.103299
0.0955679
0.0877459
0.0800677
0.0726581
0.0653992
0.0576343
0.0469002
0.0234979
0.156544
0.153363
0.149294
0.144487
0.139088
0.133265
0.127205
0.121057
0.11484
0.108438
0.101743
0.0947991
0.0877819
0.0808735
0.0741504
0.0674266
0.0598826
0.0489583
0.0244479
0.14678
0.144412
0.141229
0.137343
0.132874
0.12796
0.122748
0.117347
0.111785
0.106019
0.100001
0.0937771
0.087475
0.0812208
0.0750301
0.0686453
0.0611518
0.0500677
0.0246329
0.13739
0.135751
0.133366
0.130317
0.126703
0.122633
0.118219
0.113543
0.108648
0.103524
0.0981656
0.0926159
0.0869657
0.0812876
0.0755357
0.0693851
0.0619382
0.0506894
0.0246523
0.128403
0.127416
0.125749
0.123462
0.120628
0.117337
0.113675
0.109711
0.105482
0.101003
0.0962865
0.0913746
0.0863272
0.0811715
0.0758121
0.0698869
0.062482
0.0511196
0.0248351
0.119916
0.1195
0.118471
0.116867
0.114741
0.112161
0.109196
0.105903
0.102319
0.09847
0.094377
0.0900739
0.0855929
0.0809209
0.0759207
0.0702025
0.0628618
0.0514764
0.0251448
0.112048
0.112113
0.111633
0.110627
0.109129
0.107188
0.104858
0.102187
0.0992119
0.0959591
0.0924526
0.0887149
0.0847532
0.0805207
0.0758491
0.0703348
0.0630936
0.0517582
0.0253888
0.104908
0.105359
0.105332
0.10483
0.103872
0.102491
0.100727
0.098619
0.0961998
0.0934951
0.0905247
0.0872987
0.0838028
0.0799638
0.0755918
0.0702792
0.0631611
0.051912
0.0255275
0.0985766
0.099315
0.0996409
0.0995458
0.0990353
0.0981289
0.096854
0.0952405
0.0933152
0.0910992
0.0886053
0.0858313
0.0827447
0.0792523
0.0751503
0.0700311
0.0630448
0.0518866
0.0255842
0.0930956
0.0940287
0.0946104
0.0948248
0.0946677
0.0941469
0.0932794
0.0920853
0.0905843
0.0887904
0.086708
0.084323
0.0815881
0.0783954
0.0745319
0.0695915
0.0627372
0.0516674
0.0255491
0.0884706
0.0895139
0.0902617
0.0906935
0.0907982
0.090575
0.0900313
0.0891786
0.0880281
0.0865861
0.0848476
0.0827879
0.0803475
0.0774076
0.0737497
0.0689703
0.0622457
0.0512847
0.0253949
0.0846773
0.0857579
0.086592
0.0871574
0.0874386
0.0874284
0.0871268
0.0865372
0.085663
0.0845018
0.08304
0.081243
0.0790415
0.0763092
0.0728239
0.0681862
0.0615852
0.0507674
0.0251488
0.0816718
0.0827289
0.0835812
0.0842062
0.0845864
0.0847107
0.0845734
0.0841716
0.083501
0.0825516
0.0813013
0.0797072
0.0776922
0.0751248
0.0717815
0.067268
0.0607866
0.0501202
0.024867
0.0794007
0.0803859
0.0811992
0.0818196
0.0822297
0.0824168
0.0823716
0.0820864
0.0815507
0.0807475
0.0796475
0.0782004
0.0763235
0.0738815
0.070652
0.0662459
0.0598748
0.0493438
0.0245603
0.0778155
0.0786885
0.0794147
0.0799749
0.0803531
0.0805374
0.0805177
0.0802829
0.0798181
0.0791005
0.0780941
0.076743
0.0749598
0.0726073
0.0694645
0.0651491
0.0588838
0.0484937
0.0241187
0.0768767
0.0776054
0.0782032
0.0786531
0.0789426
0.0790631
0.0790064
0.0787606
0.0783077
0.0776199
0.076656
0.075355
0.0736258
0.07133
0.0682487
0.0640058
0.0578406
0.0476185
0.023607
0.0765633
0.0771216
0.0775539
0.077846
0.077991
0.0779877
0.0778334
0.0775184
0.0770227
0.0763145
0.0753476
0.0740563
0.0723465
0.0700789
0.0670364
0.0628485
0.0567714
0.0467352
0.0232728
0.0768786
0.077246
0.0774772
0.0775621
0.0775019
0.0773101
0.076996
0.0765547
0.0759654
0.0751919
0.0741825
0.0728665
0.0711469
0.0688838
0.0658619
0.0617142
0.0557064
0.0458206
0.0229084
0.0778558
0.0780168
0.0780122
0.077833
0.0774928
0.0770351
0.0764916
0.0758661
0.0751358
0.074258
0.0731734
0.0718052
0.0700527
0.0677753
0.0647593
0.0606391
0.0546803
0.0448966
0.0224867
0.0795617
0.0795108
0.0792391
0.0787244
0.0779975
0.0771692
0.0763136
0.0754438
0.0745295
0.0735158
0.0723315
0.0708916
0.0690902
0.0667857
0.0637658
0.0596642
0.0537404
0.0440319
0.0220852
0.082101
0.0818537
0.081299
0.0803556
0.0790641
0.0777101
0.0764403
0.075266
0.0741332
0.0729627
0.0716653
0.0701438
0.0682861
0.0659495
0.0629234
0.0588394
0.0529444
0.0432941
0.0217571
0.085615
0.0852288
0.0844195
0.0829465
0.0807386
0.0786164
0.0768142
0.0752871
0.0739193
0.0725881
0.071178
0.0695765
0.0676648
0.0652997
0.0622736
0.0582146
0.0523454
0.0427297
0.0215394
0.0902714
0.0898767
0.0889736
0.0869624
0.0829817
0.0797344
0.0773065
0.0754229
0.0738395
0.0723696
0.0708651
0.0691982
0.067244
0.0648609
0.0618459
0.0578173
0.0519605
0.0423501
0.0214541
0.0962336
0.0960443
0.0954959
0.0935747
0.0853072
0.0806522
0.0776804
0.0755444
0.073825
0.0722725
0.0707134
0.069009
0.0670312
0.0646418
0.0616412
0.0576116
0.0516951
0.0420409
0.0214654
)
;

boundaryField
{
    leftWall
    {
        type            kqRWallFunction;
        value           nonuniform List<scalar> 
50
(
0.00242803
0.0045689
0.00641189
0.00828641
0.010111
0.0118377
0.0134571
0.0150421
0.0170946
0.0196668
0.0219941
0.0236219
0.0237899
0.0254126
0.0309396
0.0367493
0.0411881
0.0444022
0.0464244
0.0472216
0.046849
0.04541
0.0430572
0.0399736
0.0362458
0.0324354
0.0285655
0.0245775
0.0203293
0.0164319
0.0129691
0.0103229
0.00879457
0.00820018
0.00807615
0.0081265
0.00828538
0.00855893
0.00896877
0.00954066
0.0103033
0.0112927
0.0125604
0.0141845
0.0162903
0.0191064
0.0231523
0.0297245
0.0432897
0.0863056
)
;
    }
    rightWall
    {
        type            kqRWallFunction;
        value           nonuniform List<scalar> 
50
(
0.00429386
0.00749227
0.00999769
0.0127195
0.0156857
0.0187279
0.0218828
0.0247656
0.0293565
0.0338901
0.0351468
0.0329191
0.0288925
0.0250907
0.0225996
0.0230558
0.0269293
0.0273705
0.0236174
0.0192213
0.0150022
0.0131969
0.0147174
0.01715
0.0195906
0.021775
0.0234979
0.0244479
0.0246329
0.0246523
0.0248351
0.0251448
0.0253888
0.0255275
0.0255842
0.0255491
0.0253949
0.0251488
0.024867
0.0245603
0.0241187
0.023607
0.0232728
0.0229084
0.0224867
0.0220852
0.0217571
0.0215394
0.0214541
0.0214654
)
;
    }
    lowerWall
    {
        type            kqRWallFunction;
        value           nonuniform List<scalar> 
62
(
0.00242803
0.00610712
0.00937293
0.011881
0.0139516
0.0157837
0.0174482
0.0189584
0.0202897
0.0214036
0.0222648
0.0228507
0.0231512
0.0231608
0.0228632
0.0222211
0.0213073
0.0199721
0.0181658
0.0159891
0.0131951
0.00947405
0.00490733
0.00490733
0.0110559
0.0163441
0.0219558
0.0278564
0.0345881
0.0433552
0.0618776
0.103046
0.0996783
0.103018
0.114457
0.00947679
0.017688
0.0212284
0.0244786
0.0303842
0.0428324
0.0727496
0.112759
0.00947679
0.0234175
0.0383521
0.0447553
0.0449105
0.0422935
0.0385447
0.0347163
0.031051
0.0271596
0.0225594
0.0179121
0.0146115
0.0132034
0.0124197
0.0110719
0.00909816
0.00683654
0.00429386
)
;
    }
    atmosphere
    {
        type            inletOutlet;
        inletValue      uniform 0.1;
        value           nonuniform List<scalar> 
46
(
0.1
0.1
0.1
0.1
0.1
0.1
0.1
0.1
0.1
0.1
0.1
0.1
0.1
0.1
0.1
0.1
0.1
0.1
0.1
0.1
0.1
0.1
0.1
0.1
0.1
0.1
0.1
0.1
0.1
0.1
0.1
0.0853072
0.0806522
0.0776804
0.0755444
0.073825
0.0722725
0.0707134
0.069009
0.0670312
0.0646418
0.0616412
0.0576116
0.0516951
0.0420409
0.0214654
)
;
    }
    defaultFaces
    {
        type            empty;
    }
}


// ************************************************************************* //
