/*--------------------------------*- C++ -*----------------------------------*\
| =========                 |                                                 |
| \\      /  F ield         | OpenFOAM: The Open Source CFD Toolbox           |
|  \\    /   O peration     | Version:  2.3.0                                 |
|   \\  /    A nd           | Web:      www.OpenFOAM.org                      |
|    \\/     M anipulation  |                                                 |
\*---------------------------------------------------------------------------*/
FoamFile
{
    version     2.0;
    format      ascii;
    class       volScalarField;
    location    "1.75";
    object      nut;
}
// * * * * * * * * * * * * * * * * * * * * * * * * * * * * * * * * * * * * * //

dimensions      [0 2 -1 0 0 0 0];

internalField   nonuniform List<scalar> 
2268
(
4.46054e-05
5.21284e-05
6.44018e-05
7.24015e-05
7.84116e-05
8.33867e-05
8.76762e-05
9.14111e-05
9.46073e-05
9.72326e-05
9.92481e-05
0.000100628
0.000101369
0.000101471
0.000100905
9.96263e-05
9.77019e-05
9.47388e-05
9.03505e-05
8.46065e-05
7.67009e-05
6.48754e-05
4.76175e-05
9.56156e-05
0.0004294
0.000588569
0.000691117
0.000768372
0.000830812
0.000883324
0.000927945
0.000965273
0.000995259
0.00101768
0.00103246
0.00103983
0.00104019
0.00103372
0.00101845
0.000984458
0.000932222
0.000858489
0.000779197
0.000693156
0.000554571
0.00014948
0.000113327
0.000712555
0.00106858
0.00130723
0.00148732
0.00163321
0.00175634
0.00186172
0.00195094
0.00202395
0.00208019
0.00211928
0.00214148
0.00214737
0.00213682
0.00210628
0.0020419
0.00193954
0.00179109
0.00160626
0.00137187
0.000989751
0.000180345
0.000128571
0.000890914
0.00141826
0.00178413
0.00206342
0.002291
0.00248393
0.00265003
0.00279205
0.00291015
0.00300353
0.0030715
0.00311405
0.00313162
0.00312365
0.0030855
0.00300285
0.00286734
0.00266522
0.00238856
0.0019968
0.00133945
0.000209037
0.000141709
0.00101264
0.001675
0.0021486
0.00251487
0.00281546
0.00307159
0.00329336
0.00348464
0.00364595
0.00377645
0.00387515
0.0039417
0.00397616
0.00397748
0.00394039
0.00385088
0.00369737
0.00345978
0.00310997
0.00257162
0.00164572
0.000234993
0.00015278
0.00110311
0.00186816
0.0024291
0.00286853
0.00323204
0.0035436
0.00381496
0.00405087
0.00425232
0.00441858
0.00454854
0.00464147
0.00469691
0.00471327
0.00468486
0.00459799
0.00443857
0.00418037
0.00377643
0.00311317
0.00194019
0.000263483
0.000162415
0.00117456
0.00201669
0.00264686
0.00314665
0.00356366
0.00392342
0.00423865
0.0045147
0.00475298
0.00495309
0.00511399
0.00523476
0.00531431
0.00535037
0.00533674
0.00525996
0.00510406
0.00483811
0.00440097
0.00364718
0.00226103
0.000296961
0.000171274
0.00123256
0.00213243
0.00281688
0.00336626
0.00382887
0.00423081
0.0045851
0.00489737
0.00516937
0.00540116
0.00559214
0.00574144
0.00584738
0.00590674
0.00591261
0.00585153
0.00570651
0.00544456
0.00499862
0.00420853
0.00268247
0.000360203
6.77727e-05
0.000104316
0.000133287
0.00014487
0.000145346
0.000141135
0.000134433
0.000127076
0.000119776
0.000112187
0.000102768
9.16417e-05
8.123e-05
7.55159e-05
7.31348e-05
6.9328e-05
6.30524e-05
5.44177e-05
6.05151e-05
0.000216839
0.000781396
0.00110241
0.00124611
0.00127162
0.00122979
0.0011597
0.00108807
0.00101145
0.000895902
0.000744703
0.000618371
0.000573652
0.000594388
0.000626256
0.000614341
0.000557083
0.000439683
0.000134199
0.000236171
0.00121743
0.00182016
0.00215862
0.00228352
0.00226724
0.00217819
0.00206964
0.00194263
0.00175332
0.00148727
0.00123122
0.00111757
0.00114298
0.00118678
0.00115813
0.00103669
0.000763607
0.000155637
0.0002502
0.00142723
0.00223871
0.00275537
0.00299446
0.00303406
0.00296069
0.00284852
0.00269981
0.00247758
0.00215711
0.00182241
0.00164573
0.00164908
0.00167592
0.00161504
0.0014236
0.00101269
0.000177047
0.000276015
0.0015305
0.00252315
0.00319665
0.0035361
0.00362853
0.00357616
0.0034694
0.00331432
0.00308316
0.00274813
0.00237914
0.00215455
0.00212107
0.00211293
0.0020093
0.00174781
0.00120969
0.000196814
0.000326623
0.00162288
0.00279096
0.003595
0.00400411
0.00412841
0.00408705
0.00398068
0.00382532
0.00359792
0.00327184
0.0028995
0.00264269
0.00256518
0.00251153
0.00235853
0.00202807
0.00137373
0.000215034
0.000429989
0.00178012
0.00313398
0.0040223
0.00445408
0.00457984
0.0045332
0.00441921
0.00426314
0.00404535
0.00373917
0.00338109
0.00310677
0.00298399
0.00287917
0.00267267
0.0022744
0.00151387
0.000231988
0.000539954
0.00213466
0.00364085
0.00451826
0.00491136
0.00500567
0.00493682
0.00480842
0.00464939
0.00444214
0.00415878
0.00382278
0.00354225
0.00337729
0.00321927
0.00295651
0.00249169
0.00163554
0.000245971
0.000181946
0.00130829
0.00227397
0.00302333
0.00363587
0.00415944
0.00461949
0.00502849
0.00539181
0.00571163
0.00598899
0.00622455
0.00641838
0.00656834
0.00666969
0.00671381
0.00668633
0.0065669
0.00632748
0.00590908
0.00518936
0.00393878
0.00193144
0.000194387
0.00137755
0.00238594
0.00318747
0.00386171
0.00445227
0.00498019
0.00545477
0.00587965
0.00625679
0.00658841
0.00687761
0.00712736
0.00733632
0.00749807
0.00760041
0.00762579
0.00755629
0.00737667
0.0070692
0.00660043
0.00593023
0.00505883
0.000204149
0.00141849
0.00243722
0.00327424
0.00400253
0.00465645
0.00524937
0.00578684
0.0062706
0.00670185
0.00708303
0.00741909
0.00771593
0.00797319
0.00818781
0.0083463
0.00842198
0.00839935
0.00828127
0.00808244
0.00782749
0.0075575
0.00732697
0.000208749
0.00136232
0.00239906
0.00329394
0.00409258
0.00481746
0.0054762
0.00607589
0.00661948
0.00710685
0.00753794
0.00792204
0.008267
0.00854858
0.00878651
0.0089883
0.0091041
0.00911329
0.00903337
0.00889924
0.00875246
0.00865314
0.00865797
0.000209485
0.00116554
0.00221861
0.00323677
0.00415224
0.00496314
0.00568293
0.00633045
0.00691206
0.00742308
0.00786492
0.00825569
0.00860449
0.00896061
0.00925849
0.00952054
0.0096847
0.00971957
0.00967275
0.00957778
0.00948628
0.00950166
0.00970492
0.000224695
0.00105606
0.00210367
0.00322388
0.00425205
0.0051394
0.0059026
0.00657389
0.00716797
0.00767796
0.00810932
0.00849528
0.00887129
0.00927775
0.0096568
0.00996741
0.0101757
0.0102609
0.0101814
0.010013
0.00988963
0.00995831
0.0102175
0.000249283
0.00126016
0.00239681
0.0034917
0.00450307
0.00540189
0.00618832
0.00686565
0.00745749
0.00796546
0.00839811
0.00878392
0.00916111
0.00956333
0.00996113
0.0102857
0.0104862
0.0105676
0.0104755
0.0102549
0.0101114
0.0101628
0.0102678
0.000268591
0.00166861
0.00292547
0.00399276
0.00495194
0.00581199
0.00657115
0.00723317
0.00780692
0.00829972
0.00871765
0.00908797
0.00945046
0.00983069
0.0102013
0.010497
0.0106505
0.0106574
0.0105502
0.0103692
0.0102537
0.0102438
0.0101768
0.000281578
0.00192604
0.00338287
0.0045138
0.00546664
0.00629603
0.00701906
0.00764373
0.00817943
0.00863485
0.00902168
0.00936744
0.00970606
0.0100498
0.0103686
0.0106024
0.0106963
0.0106538
0.0105305
0.0103926
0.0103186
0.0102542
0.0101624
0.000291043
0.00209055
0.00371098
0.00494214
0.00591924
0.00672893
0.00741534
0.00799858
0.00849442
0.00891402
0.00927491
0.00959965
0.00990985
0.0102098
0.0104696
0.0106413
0.0106899
0.0106238
0.0104927
0.0103681
0.0102995
0.0102309
0.0101777
0.000296915
0.0022138
0.00396044
0.00526185
0.00626077
0.00706087
0.00771992
0.00826966
0.00873226
0.00912572
0.00946732
0.00977391
0.0100574
0.0103169
0.0105271
0.0106523
0.0106702
0.0105897
0.0104542
0.0103317
0.0102577
0.0102083
0.0101977
0.000299291
0.00229739
0.00412563
0.0054753
0.00649101
0.00728482
0.00792497
0.0084522
0.00889373
0.00927002
0.00959742
0.00988833
0.0101479
0.0103725
0.0105424
0.0106331
0.0106317
0.0105474
0.0104164
0.0102955
0.010221
0.0101906
0.0102114
0.000298339
0.00234169
0.0042109
0.00558648
0.00661308
0.00740494
0.00803547
0.00855075
0.00898107
0.00934751
0.00966476
0.00994164
0.0101796
0.0103744
0.0105123
0.0105786
0.0105678
0.0104903
0.0103751
0.0102647
0.0101925
0.0101695
0.0102011
0.000294214
0.0023481
0.00422313
0.0056044
0.00663492
0.00742718
0.00805532
0.00856722
0.00899409
0.00935649
0.00966731
0.00993293
0.0101534
0.0103251
0.0104402
0.0104919
0.0104803
0.0104164
0.0103231
0.0102306
0.0101645
0.0101386
0.0101591
0.00028713
0.00231917
0.00416957
0.00553848
0.0065652
0.00735773
0.00798784
0.00850241
0.00893182
0.00929531
0.00960415
0.0098634
0.0100733
0.0102309
0.0103337
0.0103804
0.0103747
0.0103279
0.0102574
0.0101841
0.0101259
0.0100942
0.0100942
0.000277373
0.00225818
0.00405723
0.00539757
0.00641242
0.00720323
0.00783725
0.00835843
0.00879506
0.00916461
0.00947696
0.00973651
0.00994406
0.0100987
0.0102002
0.010251
0.0102573
0.0102291
0.0101801
0.0101246
0.0100747
0.0100389
0.0100219
0.000264855
0.00216888
0.00389266
0.00518988
0.00618505
0.00697121
0.00760958
0.00813994
0.00858766
0.00896821
0.00929023
0.00955776
0.0097722
0.00993413
0.010045
0.0101085
0.0101317
0.0101236
0.0100949
0.0100558
0.010015
0.00997905
0.00995192
0.000251371
0.00204927
0.0036806
0.00492312
0.0058919
0.00667049
0.00731307
0.00785446
0.00831662
0.00871287
0.00905063
0.00933362
0.00956355
0.00974182
0.0098707
0.00995423
0.00999873
0.0100124
0.0100037
0.00998082
0.00995048
0.00991816
0.0098876
0.000236552
0.00190353
0.00342681
0.00460538
0.00554261
0.00631145
0.00695821
0.0075122
0.0079917
0.00840772
0.00876647
0.00907117
0.00932358
0.00952526
0.00967865
0.00978758
0.00985729
0.00989451
0.00990668
0.00990061
0.0098823
0.00985674
0.00982769
0.000220175
0.0017391
0.00313616
0.0042451
0.00514819
0.0059065
0.00655794
0.00712601
0.00762518
0.00806411
0.0084477
0.00877857
0.00905823
0.00928809
0.00947025
0.00960797
0.00970565
0.00976854
0.0098028
0.00981485
0.00981032
0.00979412
0.00977016
0.000201269
0.00155251
0.00281505
0.00385176
0.00472221
0.00547111
0.00612828
0.00671174
0.00723218
0.0076959
0.00810649
0.0084659
0.00877527
0.00903567
0.00924871
0.00941694
0.00954391
0.00963398
0.00969196
0.00972359
0.00973464
0.00973007
0.00971403
0.000181558
0.00131322
0.00246055
0.0034378
0.00428371
0.00502559
0.0056895
0.00628908
0.00683124
0.00732006
0.00775795
0.00814616
0.00848545
0.0087765
0.00902047
0.00921924
0.00937558
0.0094931
0.00957595
0.00962863
0.0096568
0.00966574
0.00965987
0.000161851
0.00111236
0.00214055
0.00305202
0.00386387
0.00459711
0.00526697
0.00588227
0.00644483
0.00695705
0.00742042
0.00783557
0.00820285
0.00852262
0.00879565
0.0090233
0.0092077
0.00935178
0.00945913
0.00953381
0.00958014
0.00960383
0.00960981
0.000144454
0.000995786
0.00190677
0.00274316
0.00351376
0.00423049
0.00489895
0.00552182
0.00609901
0.00663011
0.00711482
0.00755288
0.00794417
0.00828879
0.00858719
0.00884037
0.00904997
0.00921838
0.00934864
0.00944439
0.00950965
0.00954878
0.00956724
0.000132797
0.000948418
0.00177374
0.00254153
0.00326829
0.00396086
0.00461938
0.00524171
0.00582499
0.00636671
0.00686504
0.00731885
0.0077275
0.00809081
0.00840899
0.00868273
0.00891328
0.00910253
0.00925299
0.0093678
0.00945051
0.00950505
0.00953544
0.000127544
0.000942952
0.00173073
0.00245433
0.00314478
0.00381118
0.0044528
0.00506571
0.0056454
0.00618797
0.00669053
0.00715123
0.00756898
0.00794331
0.00827423
0.00856218
0.00880805
0.00901328
0.00917986
0.00931034
0.00940775
0.00947545
0.00951695
0.000126355
0.000963402
0.00175935
0.00247062
0.00314073
0.00378534
0.00440739
0.00500425
0.00557163
0.00610544
0.00660247
0.00706054
0.00747833
0.0078552
0.00819097
0.00848588
0.00874054
0.00895595
0.00913361
0.00927546
0.00938391
0.00946173
0.00951189
0.000126904
0.000999677
0.00183782
0.00256652
0.00323533
0.00386814
0.00447323
0.00505147
0.0056007
0.00611803
0.00660093
0.00704751
0.0074566
0.00782758
0.00816026
0.00845472
0.00871135
0.0089308
0.0091141
0.0092626
0.0093781
0.00946271
0.00951884
0.00012843
0.00104696
0.00194747
0.00271557
0.00340094
0.00403352
0.00462739
0.00518802
0.00571661
0.00621264
0.0066751
0.00710311
0.0074961
0.00785379
0.00817615
0.00846329
0.00871548
0.0089331
0.00911678
0.00926738
0.00938608
0.00947437
0.00953405
0.000130895
0.00110323
0.00207714
0.0028972
0.00361094
0.00425262
0.00484142
0.00538738
0.00589551
0.00636817
0.00680652
0.0072112
0.00758267
0.00792132
0.00822753
0.00850161
0.00874386
0.00895456
0.00913403
0.00928273
0.00940132
0.00949071
0.00955209
0.00013437
0.001166
0.00221672
0.00309354
0.00384175
0.00449867
0.0050875
0.0056223
0.00611166
0.00656097
0.0069738
0.00735261
0.00769923
0.00801498
0.00830087
0.00855762
0.00878571
0.00898544
0.00915702
0.00930062
0.00941648
0.00950503
0.00956687
0.000138924
0.001232
0.00235676
0.00328979
0.00407463
0.0047504
0.00534312
0.00586999
0.00634279
0.00676984
0.00715717
0.00750925
0.00782939
0.00812007
0.00838307
0.00861967
0.00883067
0.00901654
0.0091775
0.00931358
0.00942477
0.00951108
0.00957262
0.000144618
0.00129857
0.0024908
0.00347696
0.00429872
0.00499539
0.0055945
0.00611572
0.0065737
0.00697957
0.00734188
0.00766712
0.00796021
0.0082248
0.00846356
0.00867836
0.00887045
0.00904056
0.00918901
0.00931584
0.00942089
0.00950391
0.00956463
0.000151539
0.00136526
0.0026184
0.00365506
0.00451379
0.00523225
0.00583854
0.00635457
0.00679789
0.00718257
0.00751972
0.0078179
0.00808358
0.0083216
0.00853545
0.0087276
0.00889973
0.00905286
0.00918751
0.0093038
0.00940154
0.00948036
0.00953971
0.000159843
0.00143455
0.00274643
0.00383414
0.00473064
0.00547043
0.00608217
0.00659062
0.00701689
0.00737837
0.00768883
0.00795888
0.00819646
0.00840738
0.00859585
0.00876485
0.00891638
0.00905174
0.00917164
0.00927633
0.00936569
0.00943929
0.00949648
0.000169783
0.00151147
0.0028881
0.00403272
0.00496886
0.00572743
0.00633937
0.00683416
0.00723776
0.00757152
0.00785204
0.00809179
0.00829988
0.00848289
0.00864546
0.00879087
0.00892134
0.00903833
0.00914269
0.00923481
0.00931463
0.00938181
0.00943565
0.000181774
0.00160277
0.00306159
0.00427572
0.00525368
0.00602489
0.0066269
0.0070975
0.00746945
0.00776865
0.00801445
0.0082208
0.00839754
0.00855155
0.00868762
0.00880905
0.00891807
0.00901619
0.00910432
0.0091829
0.009252
0.00931132
0.00936025
0.000196591
0.00171711
0.00329148
0.00459496
0.00561429
0.00638499
0.00696011
0.00739103
0.00771929
0.00797548
0.00818105
0.00835064
0.00849412
0.00861816
0.00872726
0.00882446
0.00891184
0.00899076
0.00906209
0.0091263
0.00918349
0.00923345
0.00927566
0.000216045
0.001867
0.00361707
0.00503515
0.00608442
0.00682774
0.00734916
0.00771968
0.0079902
0.00819466
0.00835494
0.00848508
0.00859406
0.00868771
0.00876985
0.00884299
0.00890885
0.00896855
0.00902284
0.00907209
0.00911645
0.00915573
0.00918952
0.000244365
0.00209034
0.00411852
0.00566802
0.00670321
0.00736667
0.0077948
0.00808019
0.00827913
0.00842477
0.0085366
0.00862625
0.00870081
0.00876466
0.00882062
0.0088705
0.00891552
0.00895648
0.00899391
0.00902811
0.00905916
0.00908694
0.00911107
0.000294805
0.00250817
0.00500012
0.00661568
0.00750787
0.00799846
0.00828271
0.0084592
0.00857687
0.00866075
0.00872422
0.00877476
0.00881669
0.00885261
0.00888413
0.0089123
0.0089378
0.00896109
0.00898246
0.00900209
0.00902001
0.00903614
0.00905019
0.000418665
0.00374164
0.00686396
0.00805442
0.00849182
0.00868088
0.00877736
0.00883361
0.00887002
0.00889565
0.008915
0.00893043
0.00894329
0.00895435
0.00896411
0.00897286
0.00898081
0.00898809
0.0089948
0.00900097
0.00900662
0.0090117
0.00901612
0.000471048
0.000466243
0.000475134
0.000499541
0.0043947
0.0043013
0.00434382
0.00449056
0.0072225
0.0071977
0.00721937
0.0072769
0.00870832
0.00873856
0.00876443
0.00877911
0.00985807
0.00991601
0.00992257
0.00986839
0.0102604
0.0102376
0.0101864
0.0101034
0.0102096
0.0101492
0.0100735
0.00998567
0.0101485
0.0101082
0.0100565
0.00999747
0.0101528
0.0101288
0.0100997
0.010066
0.0101919
0.0101838
0.0101707
0.0101536
0.0102367
0.0102445
0.0102414
0.0102342
0.0102604
0.0102828
0.0102919
0.010293
0.0102506
0.010275
0.010287
0.0102892
0.0101942
0.0102118
0.0102191
0.0102139
0.0101093
0.0101165
0.0101168
0.0101073
0.0100189
0.0100161
0.0100102
0.00999935
0.00993691
0.00992727
0.00991654
0.00990363
0.0098664
0.00985282
0.00983879
0.00982364
0.00980458
0.00978939
0.0097737
0.00975716
0.00974829
0.00973339
0.00971766
0.00970097
0.00969582
0.00968273
0.00966838
0.00965278
0.00964713
0.00963703
0.00962516
0.00961163
0.00960386
0.00959743
0.00958868
0.00957777
0.00956842
0.00956586
0.0095604
0.00955222
0.00954338
0.00954445
0.00954202
0.00953628
0.00953061
0.00953471
0.00953471
0.00953085
0.00953032
0.00953671
0.00953846
0.0095358
0.00954065
0.00954876
0.0095516
0.00954959
0.00955798
0.00956719
0.00957085
0.00956918
0.00957733
0.00958729
0.00959157
0.00959035
0.00959303
0.0096037
0.0096087
0.00960815
0.00959965
0.00961117
0.00961719
0.00961776
0.00959259
0.00960516
0.00961253
0.00961471
0.00956854
0.00958227
0.00959123
0.00959537
0.00952584
0.0095406
0.00955115
0.00955739
0.00946479
0.00948014
0.00949193
0.00950002
0.00938796
0.00940314
0.00941543
0.00942469
0.00930045
0.0093144
0.00932613
0.00933549
0.00920983
0.00922144
0.00923139
0.00923956
0.0091257
0.00913408
0.00914126
0.00914711
0.00905866
0.00906343
0.00906742
0.0090705
0.00901872
0.00902015
0.00902127
0.00902202
0.00173118
0.00342589
0.00465784
0.00532501
0.00559476
0.00561962
0.00551581
0.00536301
0.00519675
0.00500311
0.00475374
0.00445674
0.00417709
0.00395309
0.00371066
0.00335577
0.00278862
0.00180088
0.000267066
0.00515774
0.00588284
0.00633808
0.00652973
0.0065202
0.00638297
0.00619267
0.00598926
0.00580193
0.00561113
0.00538227
0.0051108
0.0048268
0.00454628
0.00421029
0.0037383
0.00304492
0.00193611
0.000285572
0.00743094
0.00758846
0.00760319
0.00749791
0.0072794
0.00701495
0.00676494
0.00653141
0.0063265
0.0061328
0.00591266
0.00564823
0.00534379
0.00499835
0.00455609
0.00395636
0.00313545
0.00194309
0.000292181
0.00878347
0.00871405
0.00845916
0.00814805
0.00782695
0.00751646
0.00725029
0.00700465
0.00678255
0.00657827
0.0063543
0.0060765
0.00572577
0.00529147
0.00473404
0.00400041
0.00304575
0.00180479
0.00028482
0.00970314
0.00929845
0.0089049
0.00854845
0.00822736
0.00793683
0.007669
0.00742243
0.00718523
0.00696016
0.0067207
0.00642175
0.00602336
0.00549895
0.0048189
0.00392378
0.00280136
0.00152198
0.000267879
0.00988949
0.00947616
0.0091283
0.00881876
0.00854311
0.00828306
0.00803125
0.0077874
0.00754386
0.00729547
0.00702632
0.00670767
0.00627605
0.00568143
0.004898
0.00386526
0.0026101
0.0012903
0.000250687
0.00982312
0.00955824
0.00928227
0.00901436
0.00877608
0.00855665
0.0083282
0.00808667
0.00783795
0.00757276
0.00726769
0.00690935
0.00646683
0.00583153
0.00500818
0.00395463
0.00266739
0.00128311
0.000236969
0.00988327
0.00968929
0.00945774
0.00921407
0.00899233
0.00878216
0.00855791
0.00831141
0.00804693
0.00775558
0.00741846
0.00702097
0.00654222
0.00590416
0.00508134
0.00409176
0.00297843
0.00153983
0.000235379
0.00999373
0.00984395
0.00963389
0.00939953
0.00917619
0.00895452
0.00871716
0.00845721
0.00816699
0.00784213
0.0074697
0.00704019
0.00653495
0.00590118
0.00509166
0.00414241
0.00310193
0.00182343
0.000249782
0.0101104
0.00998712
0.00978284
0.00954433
0.00931088
0.00907084
0.00881019
0.00852255
0.00819878
0.00783041
0.00741667
0.00695864
0.00644287
0.00580032
0.00498751
0.0040515
0.00304803
0.00183549
0.000257805
0.0102086
0.0100927
0.00988183
0.00964439
0.00940426
0.00914508
0.00885237
0.00852276
0.00815325
0.00773882
0.0072813
0.0067839
0.00623074
0.00555934
0.00473867
0.00381047
0.00284731
0.00169459
0.000244592
0.010277
0.0101362
0.00992822
0.00970268
0.00946316
0.00919246
0.00887582
0.00851025
0.00809614
0.00763121
0.00711609
0.00655302
0.00593162
0.00521102
0.00437098
0.003452
0.00251169
0.00143423
0.000224081
0.010266
0.0101204
0.00993225
0.00972396
0.00949108
0.00921789
0.00889093
0.0085058
0.00806109
0.00755232
0.00697541
0.00633401
0.00562916
0.0048458
0.00397835
0.00306178
0.00214311
0.00116977
0.000198023
0.0101827
0.0100619
0.00990223
0.00971525
0.00949522
0.00922896
0.00890423
0.00851439
0.00805487
0.00751786
0.00689589
0.00619304
0.00541734
0.00457256
0.00366931
0.00274211
0.00183706
0.000958484
0.000178733
0.0100766
0.00998103
0.00984878
0.00968398
0.00948093
0.0092288
0.00891653
0.00853541
0.00807735
0.00753263
0.00689331
0.00616374
0.00535475
0.00447699
0.00354829
0.00260592
0.00170571
0.000885709
0.000185416
0.00997129
0.00989406
0.00978349
0.00963892
0.00945449
0.00922085
0.00892784
0.00856565
0.00812321
0.00759013
0.00696043
0.00624005
0.00544153
0.00457698
0.00366375
0.00273191
0.00182769
0.0009818
0.000200406
0.00987653
0.00981079
0.00971582
0.00958835
0.00942211
0.00920849
0.00893782
0.00859985
0.00818245
0.00767521
0.00707412
0.00638832
0.0056304
0.00481272
0.00394924
0.00305556
0.00214102
0.00117573
0.000214834
0.009795
0.00973563
0.00965185
0.0095384
0.00938875
0.00919451
0.00894619
0.00863341
0.00824449
0.00776964
0.00720791
0.00656837
0.00586247
0.00510072
0.0042915
0.00343618
0.00251165
0.00142146
0.000226921
0.00972715
0.00967095
0.00959479
0.00949254
0.00935712
0.0091802
0.00895235
0.00866324
0.00830214
0.00786152
0.0073417
0.00674981
0.00609445
0.00538169
0.00461167
0.00377098
0.00281354
0.00161468
0.000235325
0.00967094
0.00961727
0.00954659
0.00945288
0.00932894
0.00916646
0.00895614
0.00868806
0.00835299
0.00794524
0.0074649
0.00691647
0.00630431
0.00562826
0.00487866
0.00402755
0.00300979
0.00171284
0.000239428
0.00962431
0.00957358
0.00950731
0.00942002
0.00930486
0.00915382
0.00895796
0.00870813
0.00839655
0.00801849
0.00757316
0.007062
0.00648456
0.00583393
0.00509133
0.00421869
0.00314307
0.00177941
0.000240437
0.00958607
0.00953884
0.00947629
0.00939363
0.00928474
0.00914229
0.00895804
0.00872376
0.00843282
0.00808075
0.00766548
0.00718528
0.00663502
0.00600169
0.00525926
0.00436273
0.00324756
0.00183006
0.00024129
0.00955588
0.00951238
0.00945287
0.00937337
0.00926858
0.00913209
0.00895676
0.00873553
0.00846233
0.00813257
0.00774257
0.00728758
0.00675835
0.00613716
0.00539385
0.00448201
0.00333598
0.001872
0.000243158
0.00953409
0.00949401
0.00943669
0.00935901
0.00925659
0.00912403
0.0089553
0.00874438
0.00848577
0.00817455
0.00780559
0.0073715
0.0068597
0.00624899
0.0055062
0.00458273
0.00341155
0.00190821
0.000245355
0.00952141
0.0094839
0.00942769
0.00935054
0.00924903
0.00911879
0.00895484
0.00875202
0.00850524
0.0082092
0.00785742
0.00744037
0.0069428
0.00634088
0.00559919
0.00466712
0.00347599
0.00194022
0.000246923
0.00951833
0.00948219
0.00942589
0.00934807
0.00924624
0.009117
0.0089563
0.00875968
0.00852226
0.00823834
0.00790026
0.00749672
0.00701044
0.00641564
0.00567513
0.00473666
0.00352965
0.00196725
0.000247904
0.00952461
0.00948861
0.00943113
0.00935163
0.00924848
0.00911916
0.0089604
0.00876824
0.00853792
0.00826327
0.00793567
0.00754241
0.0070647
0.0064753
0.00573575
0.00479249
0.00357245
0.00198766
0.000248439
0.00953889
0.00950212
0.00944273
0.00936089
0.00925574
0.0091255
0.00896752
0.00877822
0.00855284
0.00828482
0.0079647
0.00757875
0.00710706
0.00652139
0.00578235
0.00483533
0.00360506
0.00200177
0.000248466
0.00955857
0.00952071
0.00945925
0.00937491
0.00926747
0.00913576
0.0089776
0.00878969
0.00856726
0.00830337
0.00798798
0.00760659
0.00713857
0.00655506
0.00581609
0.00486626
0.00362893
0.00201184
0.000247874
0.00957997
0.00954142
0.00947841
0.009392
0.00928245
0.00914905
0.00899
0.00880223
0.00858092
0.00831891
0.00800575
0.00762645
0.00716
0.00657723
0.00583794
0.00488635
0.00364491
0.0020186
0.000246818
0.0095987
0.00956057
0.00949717
0.00940972
0.00929873
0.00916383
0.00900352
0.0088149
0.0085932
0.00833112
0.00801801
0.00763866
0.00717194
0.00658865
0.00584867
0.00489609
0.00365256
0.00202082
0.000245584
0.00961022
0.00957409
0.009512
0.00942504
0.00931378
0.00917802
0.00901648
0.00882642
0.00860318
0.00833948
0.00802462
0.00764344
0.00717489
0.00659001
0.00584895
0.00489601
0.00365229
0.00201807
0.000244246
0.00961005
0.00957781
0.00951908
0.00943458
0.00932468
0.00918917
0.00902689
0.00883528
0.00860982
0.00834339
0.00802546
0.00764107
0.00716944
0.00658206
0.00583956
0.00488666
0.00364453
0.00201203
0.000242234
0.0095944
0.00956788
0.00951468
0.00943487
0.00932836
0.00919471
0.00903271
0.00883995
0.00861213
0.00834241
0.00802056
0.00763199
0.00715639
0.00656579
0.00582144
0.00486873
0.00362939
0.00200265
0.000239714
0.00956055
0.0095411
0.00949545
0.00942268
0.00932194
0.00919223
0.00903209
0.00883915
0.0086094
0.00833635
0.00801024
0.00761699
0.00713687
0.00654253
0.00579595
0.00484319
0.00360666
0.00198673
0.000238149
0.00950714
0.0094953
0.00945881
0.00939533
0.00930299
0.00917976
0.00902361
0.00883205
0.00860132
0.00832545
0.00799525
0.00759727
0.00711244
0.00651413
0.00576501
0.00481189
0.00357793
0.00196566
0.000236469
0.00943484
0.00943008
0.00940339
0.00935105
0.00926986
0.00915611
0.00900658
0.00881843
0.00858819
0.00831046
0.0079768
0.00757446
0.00708515
0.00648296
0.00573129
0.00477766
0.00354612
0.00194198
0.000234405
0.00934693
0.00934737
0.00932962
0.00928941
0.00922216
0.00912124
0.00898136
0.008799
0.00857099
0.00829271
0.00795654
0.00755062
0.00705744
0.00645189
0.00569809
0.0047442
0.00351515
0.00191907
0.000232408
0.00925002
0.0092524
0.00924063
0.00921201
0.00916136
0.00907684
0.00894973
0.00877553
0.00855152
0.00827403
0.00793649
0.00752799
0.00703189
0.00642388
0.0056688
0.00471533
0.00348877
0.0018994
0.000230772
0.00915447
0.00915513
0.0091448
0.00912375
0.0090919
0.00902709
0.00891537
0.00875107
0.00853231
0.0082567
0.00791884
0.00750882
0.00701087
0.00640151
0.00564627
0.00469407
0.00346962
0.00188415
0.000229681
0.00907387
0.00907093
0.00905784
0.00903552
0.00902265
0.00897951
0.00888409
0.00872988
0.00851651
0.00824317
0.00790567
0.007495
0.00699616
0.00638644
0.00563209
0.00468176
0.00345814
0.00187268
0.000229193
0.00902249
0.00901924
0.00900796
0.00897885
0.00896924
0.00894597
0.0088638
0.00871691
0.00850728
0.00823563
0.00789863
0.00748783
0.00698873
0.00637915
0.00562602
0.00467733
0.00345166
0.00186014
0.000228923
)
;

boundaryField
{
    leftWall
    {
        type            nutkWallFunction;
        Cmu             0.09;
        kappa           0.41;
        E               9.8;
        value           nonuniform List<scalar> 
50
(
8.45901e-06
1.14457e-05
1.3428e-05
1.51404e-05
1.6611e-05
1.78728e-05
1.89665e-05
1.99687e-05
2.11834e-05
2.25973e-05
2.3822e-05
2.57725e-05
2.57352e-05
2.7361e-05
2.69648e-05
3.00741e-05
3.22663e-05
3.37708e-05
3.46862e-05
3.50409e-05
3.48756e-05
3.42303e-05
3.31492e-05
3.16803e-05
2.98156e-05
2.77943e-05
2.57031e-05
2.34071e-05
2.05211e-05
1.7359e-05
1.43504e-05
1.1751e-05
1.00721e-05
9.37426e-06
9.22503e-06
9.28577e-06
9.47603e-06
9.79878e-06
1.02715e-05
1.09109e-05
1.17304e-05
1.27434e-05
1.39701e-05
1.54425e-05
1.7215e-05
1.93922e-05
2.22218e-05
2.62728e-05
3.32569e-05
4.9463e-05
)
;
    }
    rightWall
    {
        type            nutkWallFunction;
        Cmu             0.09;
        kappa           0.41;
        E               9.8;
        value           nonuniform List<scalar> 
50
(
1.2278e-05
1.59365e-05
1.82219e-05
2.03689e-05
2.24362e-05
2.43429e-05
2.61475e-05
2.76754e-05
2.99261e-05
3.21438e-05
3.27833e-05
3.18145e-05
2.98475e-05
2.80211e-05
2.74623e-05
2.69699e-05
2.88844e-05
2.91037e-05
2.65481e-05
2.3558e-05
2.00699e-05
1.83636e-05
1.93502e-05
2.17336e-05
2.37271e-05
2.53024e-05
2.58563e-05
2.65328e-05
2.66628e-05
2.6894e-05
2.72186e-05
2.74325e-05
2.75996e-05
2.76938e-05
2.77316e-05
2.77064e-05
2.75995e-05
2.74294e-05
2.72339e-05
2.70195e-05
2.65422e-05
2.62093e-05
2.59452e-05
2.54546e-05
2.5119e-05
2.48211e-05
2.45755e-05
2.44113e-05
2.43471e-05
2.43558e-05
)
;
    }
    lowerWall
    {
        type            nutkWallFunction;
        Cmu             0.09;
        kappa           0.41;
        E               9.8;
        value           nonuniform List<scalar> 
62
(
3.97211e-06
6.37604e-06
7.8716e-06
8.82975e-06
9.5386e-06
1.01184e-05
1.06135e-05
1.10404e-05
1.14014e-05
1.16934e-05
1.19135e-05
1.20605e-05
1.21351e-05
1.21374e-05
1.20636e-05
1.19024e-05
1.16685e-05
1.13165e-05
1.0819e-05
1.01811e-05
9.28693e-06
7.91284e-06
5.71479e-06
5.71479e-06
1.73152e-05
2.07493e-05
2.37717e-05
2.65183e-05
2.92844e-05
3.24741e-05
3.82039e-05
4.84339e-05
4.77063e-05
4.84278e-05
5.08069e-05
7.91395e-06
2.3711e-05
2.57846e-05
2.75262e-05
3.0391e-05
3.55589e-05
4.5276e-05
5.52765e-05
7.91395e-06
1.22008e-05
1.53765e-05
1.65229e-05
1.65495e-05
1.60936e-05
1.54124e-05
1.46778e-05
1.39311e-05
1.30828e-05
1.19877e-05
1.07468e-05
9.75234e-06
9.29021e-06
9.02088e-06
8.53454e-06
7.75859e-06
6.74294e-06
5.34128e-06
)
;
    }
    atmosphere
    {
        type            calculated;
        value           nonuniform List<scalar> 
46
(
0.009
0.009
0.009
0.009
0.009
0.009
0.009
0.009
0.009
0.009
0.009
0.009
0.009
0.009
0.009
0.009
0.009
0.009
0.009
0.009
0.009
0.009
0.009
0.009
0.009
0.009
0.009
0.009
0.009
0.009
0.009
0.00896924
0.00894597
0.0088638
0.00871691
0.00850728
0.00823563
0.00789863
0.00748783
0.00698873
0.00637915
0.00562602
0.00467733
0.00345166
0.00186014
0.000228923
)
;
    }
    defaultFaces
    {
        type            empty;
    }
}


// ************************************************************************* //
