/*--------------------------------*- C++ -*----------------------------------*\
| =========                 |                                                 |
| \\      /  F ield         | OpenFOAM: The Open Source CFD Toolbox           |
|  \\    /   O peration     | Version:  2.3.0                                 |
|   \\  /    A nd           | Web:      www.OpenFOAM.org                      |
|    \\/     M anipulation  |                                                 |
\*---------------------------------------------------------------------------*/
FoamFile
{
    version     2.0;
    format      ascii;
    class       volScalarField;
    location    "1.75";
    object      p;
}
// * * * * * * * * * * * * * * * * * * * * * * * * * * * * * * * * * * * * * //

dimensions      [1 -1 -2 0 0 0 0];

internalField   nonuniform List<scalar> 
2268
(
750.675
750.966
751.772
752.313
752.414
752.258
752.103
752.198
752.76
753.962
755.915
758.681
762.293
766.789
772.232
778.735
786.438
795.389
804.948
815.293
825.931
833.899
840.762
691.852
691.761
692.269
692.678
692.728
692.533
692.305
692.287
692.719
693.801
695.679
698.437
702.127
706.803
712.543
719.48
727.828
737.81
749.268
760.559
770.367
775.977
782.528
633.009
633.001
633.091
633.181
633.033
632.67
632.256
632.025
632.239
633.138
634.904
637.647
641.441
646.357
652.495
659.999
669.09
680.104
693.082
705.087
714.444
718.672
725.646
574.115
574.472
574.333
574.075
573.632
572.99
572.288
571.767
571.711
572.393
574.029
576.744
580.623
585.746
592.223
600.19
609.824
621.38
634.944
647.526
656.792
661.804
670.214
515.18
515.929
515.777
515.249
514.496
513.516
512.461
511.594
511.227
511.667
513.157
515.826
519.759
525.036
531.763
540.054
550.026
561.792
575.23
588.059
597.585
605.081
615.763
456.236
457.319
457.29
456.581
455.528
454.177
452.712
451.437
450.705
450.863
452.185
454.79
458.751
464.141
471.061
479.593
489.79
501.64
514.835
527.547
537.404
548.245
561.569
397.312
398.69
398.855
398.029
396.684
394.931
393.001
391.251
390.089
389.916
391.046
393.575
397.547
403.019
410.09
418.812
429.182
441.088
454.081
466.614
476.451
490.008
506.1
338.42
340.058
340.435
339.532
337.9
335.735
333.311
331.044
329.411
328.887
329.834
332.308
336.286
341.789
348.926
357.736
368.18
380.069
392.829
405.002
414.21
426.254
444.276
696.709
706.072
734.552
755.83
757.414
745.209
727.519
710.58
696.252
684.987
678.301
675.182
669.755
660.645
653.74
649.368
646.578
647.611
650.122
636.415
640.361
666.286
686.082
688.257
678.399
664.117
650.128
637.18
626.474
621.317
621.001
617.661
609.553
601.741
596.89
593.246
591.625
592.987
574.479
578.422
604.832
623.115
625.66
616.57
602.675
590.985
579.742
569.395
564.112
564.438
562.261
556.955
549.469
544.087
539.345
535.712
536.013
512.467
520.376
545.88
562.837
567.814
561.689
545.711
533.12
522.416
512.427
508.704
509.173
505.238
500.698
495.44
489.506
484.157
478.717
479.043
451.384
462.999
488.536
503.216
508.739
506.639
494.643
479.641
470.505
463.973
462.368
462.397
456.197
447.288
440.196
433.01
426.746
420.745
421.965
391.745
409.01
433.783
444.531
448.661
450.577
448.156
435.859
428.934
425.576
422.325
420.147
413.462
400.238
385.469
375.799
367.708
361.935
364.527
325.679
358.526
381.478
387.643
390.778
394.474
400.312
396.31
391.357
387.337
382.865
377.874
370.704
351.561
330.813
318.42
308.081
302.117
306.462
259.339
308.218
329.501
332.244
334.573
339.769
350.161
355.369
352.591
345.697
340.098
334.175
323.155
298.029
275.307
260.607
247.25
240.508
247.328
246.402
248.444
249.129
248.156
246.095
243.271
240.035
236.927
234.542
233.491
234.221
236.666
240.657
246.144
253.26
262.004
272.28
283.847
295.944
307.163
315.309
319.054
310.088
121.988
125.318
126.632
125.618
122.978
119.068
114.597
110.476
107.345
105.8
106.195
108.114
111.469
116.475
123.477
132.357
142.508
153.391
164.291
174.055
181.578
185.473
184.359
31.7445
34.1446
35.5606
35.3008
33.3424
30.8198
28.2709
26.3549
25.2205
24.7743
24.5692
24.036
23.983
25.6332
28.9244
33.4755
39.1146
45.0485
50.4314
55.624
61.0314
64.8628
62.0319
2.52472
2.51471
2.82925
3.30853
3.18269
3.18428
3.4057
3.97522
4.7372
5.26638
4.83709
3.07248
0.960119
0.110588
-0.115797
-0.208784
0.458931
1.66435
3.34152
5.43982
8.01406
10.6781
10.8696
0.669093
0.817855
0.782005
0.992332
1.37015
1.77292
2.13406
2.49864
2.9432
3.10016
2.40579
1.17755
0.442643
0.104985
-0.0299731
-0.116305
-0.274911
-0.483714
-0.42924
-0.528673
-0.869022
-0.993624
-0.218288
-0.749795
-0.625544
-0.699749
-0.833445
-0.753271
-0.354361
0.0231864
0.297328
0.648011
0.822938
0.448483
-0.092966
-0.165025
-0.168493
-0.255228
-0.348458
-0.389945
-0.384875
-0.262303
-0.00449557
0.266069
0.526365
0.917934
-1.20062
-1.19218
-1.17129
-1.16759
-1.1996
-1.26147
-1.23391
-1.15179
-0.967104
-0.696129
-0.756345
-0.897968
-0.70438
-0.610842
-0.691241
-0.743335
-0.695644
-0.640863
-0.624014
-0.573406
-0.293204
0.070282
0.407103
-1.33566
-1.33397
-1.32317
-1.31972
-1.32969
-1.34922
-1.3795
-1.40417
-1.42952
-1.42298
-1.36282
-1.26737
-1.16557
-1.10831
-1.11992
-1.08891
-1.01468
-0.932654
-0.932658
-0.971986
-0.847762
-0.630506
-0.317624
-1.46954
-1.4724
-1.46693
-1.46526
-1.47271
-1.48691
-1.50347
-1.52178
-1.53905
-1.5483
-1.5459
-1.53555
-1.48793
-1.42496
-1.36077
-1.3011
-1.2465
-1.1883
-1.1827
-1.22277
-1.22096
-1.11972
-1.01501
-1.59756
-1.60459
-1.60596
-1.60752
-1.61422
-1.62617
-1.63992
-1.65344
-1.66582
-1.67644
-1.68259
-1.67745
-1.64361
-1.58546
-1.52741
-1.48464
-1.44856
-1.42171
-1.43131
-1.47187
-1.48452
-1.4614
-1.49072
-1.72199
-1.7328
-1.73955
-1.74398
-1.75028
-1.75977
-1.77069
-1.78029
-1.78813
-1.79373
-1.79393
-1.78368
-1.75709
-1.72064
-1.68423
-1.65493
-1.63482
-1.63047
-1.65476
-1.69354
-1.72649
-1.74525
-1.79805
-1.84453
-1.85806
-1.86849
-1.87503
-1.88111
-1.88834
-1.89608
-1.90296
-1.90802
-1.91027
-1.90793
-1.8986
-1.88008
-1.85605
-1.83206
-1.81338
-1.80356
-1.80747
-1.82951
-1.86333
-1.90365
-1.9414
-1.99532
-1.96728
-1.98216
-1.99474
-2.00259
-2.00859
-2.01439
-2.02002
-2.02477
-2.02787
-2.02848
-2.02553
-2.01791
-2.00507
-1.98915
-1.97377
-1.96267
-1.95885
-1.96525
-1.98384
-2.01151
-2.04408
-2.08018
-2.12774
-2.09172
-2.10664
-2.11993
-2.12828
-2.1341
-2.139
-2.14328
-2.14661
-2.1485
-2.1484
-2.14568
-2.13988
-2.13113
-2.12088
-2.1115
-2.10554
-2.10519
-2.11229
-2.12777
-2.15002
-2.17658
-2.20596
-2.24202
-2.21842
-2.23234
-2.2451
-2.25324
-2.25869
-2.26294
-2.26635
-2.26884
-2.27012
-2.26986
-2.26776
-2.2637
-2.25802
-2.25175
-2.24646
-2.24387
-2.24551
-2.25252
-2.2653
-2.28304
-2.30438
-2.32813
-2.35557
-2.3472
-2.35939
-2.37075
-2.37814
-2.38308
-2.3868
-2.38968
-2.3917
-2.39275
-2.39264
-2.39127
-2.38871
-2.38531
-2.38181
-2.37925
-2.37879
-2.38148
-2.38802
-2.39855
-2.41261
-2.42943
-2.44814
-2.46871
-2.47746
-2.48749
-2.49693
-2.50331
-2.50768
-2.51097
-2.5135
-2.5153
-2.51631
-2.51647
-2.51579
-2.51441
-2.51265
-2.51103
-2.51023
-2.51106
-2.5142
-2.52009
-2.52877
-2.53989
-2.55292
-2.56704
-2.58132
-2.60823
-2.61605
-2.6235
-2.62887
-2.63271
-2.63566
-2.63795
-2.63962
-2.64067
-2.64109
-2.64097
-2.64045
-2.63982
-2.63943
-2.63975
-2.64129
-2.64453
-2.64973
-2.65687
-2.6657
-2.67575
-2.68617
-2.6959
-2.73958
-2.74501
-2.7504
-2.7549
-2.75827
-2.76091
-2.76299
-2.76457
-2.76566
-2.76629
-2.76656
-2.76664
-2.76673
-2.76712
-2.76811
-2.77003
-2.77317
-2.7777
-2.7836
-2.79065
-2.79846
-2.80626
-2.81335
-2.87224
-2.87533
-2.87819
-2.88155
-2.88436
-2.88664
-2.88849
-2.88997
-2.89108
-2.89186
-2.8924
-2.89286
-2.8934
-2.89425
-2.89561
-2.89768
-2.90064
-2.90459
-2.9095
-2.91519
-2.92135
-2.92739
-2.93284
-3.00503
-3.00611
-3.00689
-3.00877
-3.0108
-3.01265
-3.01425
-3.0156
-3.01671
-3.0176
-3.01834
-3.01904
-3.01986
-3.02096
-3.02249
-3.02458
-3.02733
-3.0308
-3.03494
-3.03961
-3.04458
-3.04941
-3.0538
-3.13482
-3.13508
-3.13516
-3.13592
-3.13721
-3.13864
-3.14001
-3.14127
-3.14237
-3.14334
-3.14423
-3.14511
-3.14611
-3.14735
-3.14895
-3.15098
-3.15353
-3.1566
-3.16014
-3.16407
-3.16819
-3.17219
-3.17586
-3.26213
-3.26185
-3.26171
-3.26223
-3.26323
-3.26443
-3.26565
-3.26683
-3.26793
-3.26897
-3.26998
-3.271
-3.27213
-3.27346
-3.27508
-3.27705
-3.2794
-3.28215
-3.28525
-3.28862
-3.29213
-3.29554
-3.2987
-3.38901
-3.38796
-3.38762
-3.38815
-3.38905
-3.39009
-3.39119
-3.39229
-3.39339
-3.39447
-3.39556
-3.39669
-3.39793
-3.39933
-3.40095
-3.40285
-3.40506
-3.40755
-3.41031
-3.41327
-3.41633
-3.41931
-3.42207
-3.51601
-3.51482
-3.5142
-3.51438
-3.515
-3.51582
-3.51676
-3.51776
-3.51881
-3.51989
-3.52102
-3.52223
-3.52353
-3.52499
-3.52662
-3.52847
-3.53055
-3.53286
-3.53537
-3.53802
-3.54073
-3.54338
-3.54586
-3.64303
-3.64186
-3.64102
-3.64085
-3.64115
-3.64173
-3.64247
-3.64334
-3.6443
-3.64534
-3.64647
-3.6477
-3.64904
-3.65052
-3.65215
-3.65396
-3.65595
-3.65812
-3.66043
-3.66285
-3.66531
-3.66772
-3.66998
-3.76993
-3.76879
-3.76782
-3.76741
-3.76746
-3.76781
-3.76837
-3.76908
-3.76993
-3.7709
-3.77199
-3.7732
-3.77454
-3.77601
-3.77763
-3.77939
-3.78131
-3.78336
-3.78552
-3.78776
-3.79004
-3.79226
-3.79437
-3.89669
-3.8956
-3.89458
-3.89402
-3.89388
-3.89404
-3.89444
-3.89502
-3.89576
-3.89664
-3.89766
-3.89882
-3.90012
-3.90156
-3.90313
-3.90484
-3.90668
-3.90863
-3.91067
-3.91277
-3.91489
-3.91698
-3.91896
-4.02335
-4.02231
-4.02128
-4.02063
-4.02037
-4.0204
-4.02067
-4.02113
-4.02177
-4.02256
-4.02351
-4.0246
-4.02583
-4.02721
-4.02872
-4.03035
-4.0321
-4.03395
-4.03588
-4.03786
-4.03985
-4.0418
-4.04368
-4.14994
-4.14896
-4.14794
-4.14725
-4.14691
-4.14685
-4.14702
-4.14739
-4.14794
-4.14866
-4.14953
-4.15054
-4.1517
-4.15299
-4.15442
-4.15596
-4.15761
-4.15935
-4.16116
-4.163
-4.16486
-4.1667
-4.16846
-4.27647
-4.27558
-4.27458
-4.27387
-4.27349
-4.27337
-4.27347
-4.27377
-4.27426
-4.2749
-4.27569
-4.27663
-4.2777
-4.2789
-4.28023
-4.28166
-4.28319
-4.28481
-4.28648
-4.2882
-4.28992
-4.29163
-4.29328
-4.40297
-4.40215
-4.4012
-4.4005
-4.4001
-4.39994
-4.4
-4.40025
-4.40067
-4.40125
-4.40198
-4.40283
-4.40382
-4.40492
-4.40613
-4.40744
-4.40884
-4.41032
-4.41186
-4.41343
-4.41501
-4.41658
-4.41811
-4.52942
-4.5287
-4.52782
-4.52714
-4.52673
-4.52655
-4.52658
-4.52679
-4.52717
-4.52769
-4.52835
-4.52913
-4.53002
-4.53101
-4.53211
-4.53329
-4.53456
-4.53589
-4.53727
-4.53869
-4.54013
-4.54155
-4.54295
-4.65583
-4.65522
-4.65442
-4.65378
-4.65338
-4.65319
-4.6532
-4.65338
-4.65372
-4.65419
-4.65478
-4.65547
-4.65627
-4.65716
-4.65813
-4.65919
-4.66031
-4.6615
-4.66273
-4.66399
-4.66527
-4.66655
-4.66781
-4.78222
-4.78172
-4.781
-4.78041
-4.78003
-4.77985
-4.77985
-4.78001
-4.7803
-4.78072
-4.78124
-4.78186
-4.78256
-4.78334
-4.78419
-4.78512
-4.7861
-4.78713
-4.78821
-4.78932
-4.79045
-4.79158
-4.79271
-4.90857
-4.90819
-4.90758
-4.90704
-4.90669
-4.90651
-4.90651
-4.90664
-4.9069
-4.90727
-4.90772
-4.90826
-4.90886
-4.90954
-4.91027
-4.91106
-4.91191
-4.9128
-4.91372
-4.91468
-4.91565
-4.91664
-4.91763
-5.03489
-5.03465
-5.03414
-5.03366
-5.03334
-5.03317
-5.03316
-5.03328
-5.03351
-5.03382
-5.03421
-5.03466
-5.03517
-5.03573
-5.03635
-5.03702
-5.03772
-5.03847
-5.03925
-5.04005
-5.04088
-5.04172
-5.04257
-5.16118
-5.1611
-5.16069
-5.16027
-5.15997
-5.15982
-5.15982
-5.15992
-5.1601
-5.16036
-5.16068
-5.16105
-5.16146
-5.16192
-5.16242
-5.16296
-5.16354
-5.16415
-5.16478
-5.16544
-5.16611
-5.16681
-5.16752
-5.2875
-5.28761
-5.28728
-5.28686
-5.28658
-5.28645
-5.28644
-5.28652
-5.28667
-5.28687
-5.28712
-5.2874
-5.28773
-5.28808
-5.28847
-5.2889
-5.28934
-5.28981
-5.2903
-5.29081
-5.29134
-5.29189
-5.29246
-5.41399
-5.41436
-5.41402
-5.41342
-5.41311
-5.41301
-5.41302
-5.41308
-5.41318
-5.41332
-5.4135
-5.41371
-5.41394
-5.4142
-5.41448
-5.41479
-5.41511
-5.41545
-5.4158
-5.41617
-5.41654
-5.41694
-5.41736
-5.54039
-5.54203
-5.5412
-5.53997
-5.53959
-5.53953
-5.53954
-5.53958
-5.53964
-5.53972
-5.53983
-5.53996
-5.54011
-5.54027
-5.54045
-5.54065
-5.54085
-5.54106
-5.54127
-5.54149
-5.54171
-5.54194
-5.54219
-5.6651
-5.67181
-5.66894
-5.66713
-5.66673
-5.66662
-5.66656
-5.66652
-5.66651
-5.66652
-5.66654
-5.66657
-5.66662
-5.66668
-5.66674
-5.6668
-5.66687
-5.66693
-5.66698
-5.66703
-5.66708
-5.66711
-5.66715
266.133
261.201
263.445
256.215
174.814
166.54
159.282
149.738
52.9793
50.3403
50.9311
50.9522
11.282
12.7893
15.7037
18.253
0.161513
1.14867
3.3206
7.01568
1.47785
1.89809
2.423
3.36915
0.714803
0.816615
0.831711
1.01612
-0.037016
0.0766935
-0.00442245
0.158884
-0.983183
-0.92809
-0.802274
-0.494612
-1.61111
-1.54042
-1.15564
-0.929396
-1.9066
-1.94717
-1.85947
-1.66867
-2.08131
-2.15863
-2.23166
-2.23086
-2.19299
-2.25738
-2.28504
-2.25729
-2.29125
-2.32988
-2.3388
-2.312
-2.38628
-2.40308
-2.40401
-2.39722
-2.48586
-2.49302
-2.49546
-2.49704
-2.59116
-2.59687
-2.60154
-2.60453
-2.70286
-2.70784
-2.71242
-2.7158
-2.8187
-2.82279
-2.82687
-2.83014
-2.93705
-2.94035
-2.94381
-2.94674
-3.05719
-3.05982
-3.06265
-3.06511
-3.17864
-3.18071
-3.18292
-3.18489
-3.301
-3.30259
-3.30428
-3.3058
-3.42399
-3.42522
-3.42648
-3.42763
-3.54749
-3.54845
-3.5494
-3.55028
-3.67142
-3.67221
-3.67295
-3.67365
-3.79569
-3.79639
-3.79701
-3.79759
-3.92022
-3.92088
-3.92145
-3.92197
-4.0449
-4.04556
-4.04612
-4.04663
-4.16966
-4.17033
-4.1709
-4.17142
-4.29444
-4.29512
-4.29572
-4.29626
-4.41921
-4.4199
-4.42052
-4.4211
-4.54399
-4.54467
-4.54531
-4.5459
-4.66878
-4.66944
-4.67008
-4.67067
-4.79359
-4.79421
-4.79484
-4.79543
-4.91843
-4.91901
-4.9196
-4.92017
-5.04328
-5.0438
-5.04435
-5.04489
-5.16813
-5.16859
-5.16908
-5.16957
-5.29295
-5.29334
-5.29376
-5.29419
-5.41773
-5.41803
-5.41836
-5.4187
-5.5424
-5.54258
-5.54279
-5.54302
-5.66719
-5.66724
-5.66731
-5.66739
217.266
232.689
246.206
244.857
246.049
254.167
266.099
276.59
277.927
270.505
261.727
251.904
235.114
209.906
189.503
175.581
163.656
157.485
163.719
128
127.917
128.491
112.998
116.198
135.295
152.538
164.914
170.151
166.915
158.408
145.536
129.631
116.777
109.361
104.13
98.9161
95.233
97.1129
48.5613
47.2746
39.425
26.6818
30.4949
46.5192
64.0458
72.3958
75.3996
79.0123
80.5385
76.5869
72.6236
72.4522
76.0204
76.8039
75.2226
73.192
75.0243
16.3555
12.2878
12.9014
14.0069
13.7958
14.8078
20.8508
22.3126
22.3762
26.3098
33.4441
39.5173
43.7092
46.6474
50.8557
53.4065
54.1583
54.741
57.1307
12.1687
11.951
11.0506
10.9976
10.6196
9.52667
8.66208
8.60712
9.86292
11.1425
12.7164
16.3451
19.6191
21.5185
24.5385
28.3061
31.1358
33.2631
35.277
6.16176
8.99686
8.98416
9.11882
8.88115
8.04845
7.47696
7.47627
7.73253
7.77352
6.79244
5.29386
4.57838
4.51077
5.49036
7.53818
9.97627
10.8554
11.5722
2.45103
4.77201
5.0455
5.02846
5.03324
4.64287
4.29907
4.26239
4.35786
4.16626
2.91355
1.06427
-0.183308
-0.341266
-0.154841
-0.0355969
0.0584646
0.101006
0.421341
0.908692
1.80862
1.01127
0.218856
0.315595
0.682301
0.712497
0.575156
0.601283
0.581526
0.0428249
-0.641918
-0.926155
-0.951415
-0.897602
-0.887838
-1.01687
-1.15749
-1.14948
0.211796
-0.02118
-1.30322
-1.72705
-1.70584
-1.41646
-1.28455
-1.30682
-1.35836
-1.27435
-1.32389
-1.31295
-1.26706
-1.25682
-1.24807
-1.2324
-1.27254
-1.29306
-1.28733
-0.899596
-1.65945
-1.78478
-1.8099
-1.84088
-1.88769
-1.89447
-1.88032
-1.82347
-1.72861
-1.61391
-1.54028
-1.47709
-1.46047
-1.4679
-1.45264
-1.44075
-1.44175
-1.43668
-1.91993
-1.92178
-1.91383
-1.91995
-1.91913
-1.91199
-1.89472
-1.86477
-1.82743
-1.7805
-1.73198
-1.68464
-1.64357
-1.62367
-1.61833
-1.61229
-1.59041
-1.58506
-1.58158
-2.13175
-2.06918
-2.04184
-2.03604
-2.03089
-2.02252
-2.00717
-1.98096
-1.94941
-1.91349
-1.8752
-1.833
-1.79568
-1.77527
-1.76538
-1.7538
-1.73604
-1.72818
-1.72681
-2.20723
-2.17428
-2.15626
-2.14692
-2.14039
-2.13295
-2.12198
-2.10246
-2.07461
-2.04404
-2.01518
-1.98324
-1.94882
-1.92561
-1.91171
-1.90071
-1.88554
-1.87687
-1.87721
-2.29191
-2.27731
-2.26595
-2.25765
-2.25079
-2.24355
-2.23584
-2.2218
-2.19746
-2.17311
-2.1524
-2.12892
-2.10292
-2.07803
-2.06018
-2.04796
-2.03662
-2.02967
-2.0306
-2.39232
-2.38453
-2.37663
-2.36974
-2.36339
-2.35673
-2.35029
-2.34214
-2.32282
-2.30333
-2.28276
-2.26131
-2.2421
-2.22406
-2.20811
-2.19429
-2.18396
-2.17927
-2.18174
-2.498
-2.49445
-2.48932
-2.48397
-2.47829
-2.47229
-2.46656
-2.46159
-2.45009
-2.43231
-2.40992
-2.39023
-2.37405
-2.36098
-2.34955
-2.34038
-2.33481
-2.33213
-2.33278
-2.60733
-2.60666
-2.60403
-2.60022
-2.59538
-2.58993
-2.58442
-2.57996
-2.57313
-2.55711
-2.53715
-2.52017
-2.50675
-2.49628
-2.4887
-2.48525
-2.48689
-2.48875
-2.48556
-2.71947
-2.72075
-2.72017
-2.71757
-2.71381
-2.70911
-2.70388
-2.69888
-2.69137
-2.67826
-2.66312
-2.64983
-2.6393
-2.63153
-2.62678
-2.62631
-2.63103
-2.63621
-2.63331
-2.83396
-2.83619
-2.83699
-2.8359
-2.8332
-2.8293
-2.82454
-2.81901
-2.81108
-2.80055
-2.78919
-2.77906
-2.77097
-2.76519
-2.76205
-2.76221
-2.76575
-2.77021
-2.76914
-2.95034
-2.95292
-2.95422
-2.95425
-2.95261
-2.9496
-2.94541
-2.93985
-2.93257
-2.92414
-2.91552
-2.9078
-2.90156
-2.89709
-2.89462
-2.89437
-2.89587
-2.8974
-2.89562
-3.0683
-3.0709
-3.07234
-3.0726
-3.07157
-3.06932
-3.06581
-3.06091
-3.05497
-3.04838
-3.04181
-3.03591
-3.03104
-3.02741
-3.02516
-3.0242
-3.02396
-3.02324
-3.0203
-3.18757
-3.19004
-3.1915
-3.19189
-3.19115
-3.18932
-3.18646
-3.1826
-3.178
-3.17296
-3.16793
-3.16336
-3.15948
-3.15644
-3.15425
-3.15272
-3.15127
-3.14931
-3.14522
-3.308
-3.31025
-3.31164
-3.31213
-3.31166
-3.31028
-3.30806
-3.30508
-3.30155
-3.29772
-3.29386
-3.29026
-3.28711
-3.2845
-3.28236
-3.28048
-3.2784
-3.27582
-3.27227
-3.42943
-3.43145
-3.43276
-3.43332
-3.43309
-3.43211
-3.43045
-3.42819
-3.42551
-3.42258
-3.4196
-3.41673
-3.41412
-3.41182
-3.40977
-3.40778
-3.4055
-3.40272
-3.39993
-3.55177
-3.55359
-3.55482
-3.55542
-3.55538
-3.55472
-3.55351
-3.55183
-3.54978
-3.54751
-3.54516
-3.54284
-3.54064
-3.53859
-3.53665
-3.53468
-3.53243
-3.52967
-3.52657
-3.6749
-3.67656
-3.67772
-3.67835
-3.67845
-3.67804
-3.67717
-3.6759
-3.67432
-3.67252
-3.67062
-3.66869
-3.66679
-3.66493
-3.66309
-3.66116
-3.65895
-3.65617
-3.65247
-3.79869
-3.80022
-3.80133
-3.80198
-3.80217
-3.80193
-3.8013
-3.80033
-3.79907
-3.79762
-3.79603
-3.79437
-3.79268
-3.79096
-3.78918
-3.78724
-3.78491
-3.7818
-3.77781
-3.92297
-3.92439
-3.92546
-3.92613
-3.92639
-3.92627
-3.9258
-3.92503
-3.924
-3.92278
-3.92141
-3.91995
-3.91841
-3.9168
-3.91506
-3.91307
-3.91049
-3.9068
-3.90284
-4.04756
-4.04892
-4.04995
-4.05063
-4.05094
-4.0509
-4.05055
-4.04992
-4.04905
-4.04799
-4.04679
-4.04547
-4.04406
-4.04254
-4.04085
-4.03885
-4.03615
-4.03211
-4.0279
-4.17234
-4.17363
-4.17464
-4.17532
-4.17567
-4.1757
-4.17543
-4.17491
-4.17416
-4.17323
-4.17215
-4.17096
-4.16966
-4.16823
-4.16662
-4.16468
-4.16206
-4.15802
-4.15326
-4.29717
-4.29842
-4.2994
-4.30009
-4.30047
-4.30055
-4.30036
-4.29992
-4.29927
-4.29845
-4.29749
-4.29641
-4.29521
-4.29388
-4.29237
-4.29054
-4.28803
-4.2841
-4.27896
-4.42201
-4.42321
-4.42417
-4.42486
-4.42527
-4.4254
-4.42526
-4.4249
-4.42434
-4.42361
-4.42276
-4.42178
-4.4207
-4.41948
-4.41807
-4.41633
-4.41385
-4.40981
-4.40519
-4.54681
-4.54797
-4.54891
-4.54961
-4.55004
-4.5502
-4.55012
-4.54982
-4.54934
-4.5487
-4.54794
-4.54708
-4.5461
-4.545
-4.5437
-4.54206
-4.53959
-4.53529
-4.53101
-4.67157
-4.67269
-4.67362
-4.67432
-4.67477
-4.67497
-4.67492
-4.67467
-4.67425
-4.67369
-4.67302
-4.67226
-4.67141
-4.67043
-4.66928
-4.66781
-4.66556
-4.66146
-4.65663
-4.79631
-4.79738
-4.7983
-4.79901
-4.79949
-4.7997
-4.79967
-4.79945
-4.79907
-4.79858
-4.79799
-4.79733
-4.79659
-4.79575
-4.79475
-4.79349
-4.79157
-4.78821
-4.7835
-4.92101
-4.92205
-4.92296
-4.92371
-4.92422
-4.92442
-4.92439
-4.92417
-4.92381
-4.92336
-4.92283
-4.92226
-4.92163
-4.92091
-4.92005
-4.91892
-4.91707
-4.91382
-4.90938
-5.04568
-5.04669
-5.04762
-5.04844
-5.04898
-5.04916
-5.04909
-5.04883
-5.04847
-5.04803
-5.04755
-5.04705
-5.04652
-5.04593
-5.0452
-5.04411
-5.04213
-5.03854
-5.03407
-5.17031
-5.17128
-5.17227
-5.17321
-5.17383
-5.17394
-5.17377
-5.17345
-5.17303
-5.17258
-5.17213
-5.1717
-5.17128
-5.17084
-5.17029
-5.16934
-5.16732
-5.16365
-5.15933
-5.29485
-5.29579
-5.29686
-5.29808
-5.29891
-5.29884
-5.29849
-5.29803
-5.29753
-5.29704
-5.29659
-5.2962
-5.2959
-5.29567
-5.29543
-5.29481
-5.29297
-5.28938
-5.28523
-5.41925
-5.42012
-5.42138
-5.42337
-5.42487
-5.4243
-5.42351
-5.42278
-5.42211
-5.4215
-5.42099
-5.42061
-5.4204
-5.42041
-5.4206
-5.42058
-5.41919
-5.41571
-5.41167
-5.54342
-5.54418
-5.54586
-5.54968
-5.55256
-5.55064
-5.549
-5.54783
-5.54688
-5.54607
-5.54541
-5.54493
-5.5447
-5.5449
-5.54571
-5.54667
-5.54595
-5.54268
-5.53867
-5.66755
-5.66809
-5.66999
-5.67603
-5.67689
-5.67391
-5.67214
-5.67105
-5.67022
-5.66953
-5.66897
-5.66853
-5.66823
-5.66837
-5.67049
-5.67507
-5.67539
-5.67057
-5.6655
)
;

boundaryField
{
    leftWall
    {
        type            calculated;
        value           nonuniform List<scalar> 
50
(
750.675
691.852
633.009
574.115
515.18
456.236
397.312
338.42
246.402
121.988
31.7445
2.52472
0.669093
-0.749795
-1.20062
-1.33566
-1.46954
-1.59756
-1.72199
-1.84453
-1.96728
-2.09172
-2.21842
-2.3472
-2.47746
-2.60823
-2.73958
-2.87224
-3.00503
-3.13482
-3.26213
-3.38901
-3.51601
-3.64303
-3.76993
-3.89669
-4.02335
-4.14994
-4.27647
-4.40297
-4.52942
-4.65583
-4.78222
-4.90857
-5.03489
-5.16118
-5.2875
-5.41399
-5.54039
-5.6651
)
;
    }
    rightWall
    {
        type            calculated;
        value           nonuniform List<scalar> 
50
(
650.122
592.987
536.013
479.043
421.965
364.527
306.462
247.328
163.719
97.1129
75.0243
57.1307
35.277
11.5722
0.421341
-1.14948
-1.28733
-1.43668
-1.58158
-1.72681
-1.87721
-2.0306
-2.18174
-2.33278
-2.48556
-2.63331
-2.76914
-2.89562
-3.0203
-3.14522
-3.27227
-3.39993
-3.52657
-3.65247
-3.77781
-3.90284
-4.0279
-4.15326
-4.27896
-4.40519
-4.53101
-4.65663
-4.7835
-4.90938
-5.03407
-5.15933
-5.28523
-5.41167
-5.53867
-5.6655
)
;
    }
    lowerWall
    {
        type            calculated;
        value           nonuniform List<scalar> 
62
(
780.104
780.396
781.202
781.743
781.843
781.687
781.533
781.627
782.19
783.391
785.344
788.11
791.722
796.218
801.661
808.164
815.867
824.813
833.75
844.054
855.07
863.075
869.856
840.762
782.528
725.646
670.214
615.763
561.569
506.1
444.276
328.42
323.476
325.644
318.213
696.709
636.415
574.479
512.467
451.384
391.745
325.679
259.339
725.902
735.275
763.755
785.027
786.679
774.498
756.813
739.88
725.55
714.284
707.598
704.48
697.769
687.345
680.439
676.066
673.293
675.917
678.438
)
;
    }
    atmosphere
    {
        type            calculated;
        value           nonuniform List<scalar> 
46
(
-5.72985
-5.73162
-5.73126
-5.73093
-5.73071
-5.73055
-5.73042
-5.73033
-5.73025
-5.7302
-5.73017
-5.73015
-5.73013
-5.73012
-5.73011
-5.7301
-5.73009
-5.73006
-5.73002
-5.72997
-5.72991
-5.72983
-5.72973
-5.72965
-5.7296
-5.72954
-5.72949
-5.72939
-5.72926
-5.72916
-5.72907
-5.72904
-5.72904
-5.72904
-5.72904
-5.72904
-5.72904
-5.72904
-5.72904
-5.72904
-5.72904
-5.73278
-5.74473
-5.74749
-5.73807
-5.72981
)
;
    }
    defaultFaces
    {
        type            empty;
    }
}


// ************************************************************************* //
