/*--------------------------------*- C++ -*----------------------------------*\
| =========                 |                                                 |
| \\      /  F ield         | OpenFOAM: The Open Source CFD Toolbox           |
|  \\    /   O peration     | Version:  2.3.0                                 |
|   \\  /    A nd           | Web:      www.OpenFOAM.org                      |
|    \\/     M anipulation  |                                                 |
\*---------------------------------------------------------------------------*/
FoamFile
{
    version     2.0;
    format      ascii;
    class       volScalarField;
    location    "1.75";
    object      p_rgh;
}
// * * * * * * * * * * * * * * * * * * * * * * * * * * * * * * * * * * * * * //

dimensions      [1 -1 -2 0 0 0 0];

internalField   nonuniform List<scalar> 
2268
(
780.104
780.396
781.202
781.743
781.843
781.687
781.533
781.627
782.19
783.391
785.344
788.11
791.722
796.218
801.661
808.164
815.867
824.813
833.75
844.054
855.07
863.075
869.856
780.141
780.05
780.557
780.966
781.016
780.821
780.593
780.576
781.007
782.089
783.967
786.725
790.415
795.091
800.832
807.768
816.116
825.772
835.55
846.841
857.29
864.015
869.811
780.156
780.148
780.238
780.328
780.18
779.817
779.402
779.172
779.386
780.285
782.051
784.794
788.588
793.504
799.641
807.146
816.237
827.207
837.211
848.89
859.164
865.721
871.28
780.121
780.478
780.339
780.08
779.638
778.995
778.294
777.772
777.716
778.399
780.034
782.749
786.629
791.752
798.229
806.195
815.829
827.385
840.211
850.407
861.197
867.736
875.166
780.045
780.794
780.642
780.114
779.36
778.38
777.326
776.458
776.091
776.531
778.021
780.691
784.624
789.9
796.627
804.918
814.89
826.656
840.094
852.851
862.43
869.902
880.056
779.959
781.043
781.013
780.304
779.251
777.899
776.435
775.16
774.428
774.586
775.908
778.513
782.474
787.864
794.784
803.316
813.512
825.363
838.558
851.268
861.12
871.906
885.277
779.894
781.272
781.437
780.61
779.266
777.513
775.582
773.832
772.671
772.498
773.627
776.156
780.129
785.601
792.671
801.394
811.764
823.662
836.655
849.189
859.025
872.579
888.672
779.86
781.498
781.875
780.972
779.34
777.175
774.751
772.484
770.851
770.326
771.273
773.748
777.726
783.229
790.366
799.177
809.62
821.506
834.253
846.431
855.64
867.684
885.705
725.902
735.275
763.755
785.027
786.679
774.498
756.813
739.88
725.55
714.284
707.598
704.48
697.769
687.345
680.439
676.066
673.293
675.917
678.438
724.031
727.9
749.329
766.635
770.225
764.761
751.929
738.027
725.076
714.369
709.212
708.895
705.376
689.752
681.838
676.987
673.343
672.493
677.935
720.759
716.678
731.062
748.815
751.38
746.22
745.877
737.408
726.225
715.887
710.604
710.929
708.752
700.148
683.373
677.582
672.85
674.796
677.593
717.264
710.19
741.147
753.211
745.217
737.438
730.359
734.4
727.371
713.082
682.26
670.273
686.413
698.106
692.529
684.241
673.268
676.593
677.264
714.691
725.275
752.509
767.189
771.743
749.763
702.357
697.186
675.842
638.911
631.294
631.802
624.844
671.912
695.029
687.981
681.797
675.716
676.942
700.149
730.423
756.397
767.173
771.272
771.996
686.511
644.269
636.305
632.758
629.23
626.836
620.417
643.272
697.054
687.538
679.412
673.579
676.163
707.122
739.994
762.881
768.917
772.047
775.641
723.251
643.651
637.666
647.711
626.918
622.253
613.964
682.52
699.136
686.822
676.419
670.414
674.751
699.515
748.305
769.473
771.954
774.351
779.517
760.468
656.413
650.549
705.802
676.346
616.026
664.201
722.363
700.346
685.719
672.342
665.467
663.784
779.86
781.903
782.59
781.619
779.557
776.733
773.496
770.386
767.997
766.942
767.67
770.117
774.111
779.604
786.724
795.47
805.747
817.311
829.407
840.626
840.426
840.113
840.895
774.519
781.169
783.124
781.709
778.378
772.124
763.027
753.066
744.062
737.958
737.765
742.031
751.137
763.895
778.334
790.784
801.159
812.048
822.929
832.677
820.066
799.219
805.243
387.491
434.473
451.305
442.611
424.949
385.412
342.483
306.974
281.198
265.925
264.786
273.669
296.861
336.898
399.994
488.972
584.751
678.891
755.738
797.499
804.038
803.899
802.889
16.0004
13.9117
25.7996
26.6364
9.07881
5.62245
5.6731
6.05413
6.50627
6.63397
5.93711
4.09763
1.96468
1.10695
0.872145
0.762921
18.451
56.3017
113.33
199.134
307.746
433.249
422.45
18.7047
13.4155
16.7185
28.8306
29.4147
18.9884
11.8403
13.2244
17.4777
22.1795
18.8197
8.25766
1.60684
1.23744
1.07734
0.978895
0.801917
0.587523
0.642738
0.54289
0.287969
0.302986
1.13704
6.43418
8.26905
5.5618
2.91191
6.83695
19.9857
22.1746
22.8329
23.4375
23.6366
23.2556
20.6792
2.83592
1.30852
2.47793
3.32107
1.68789
0.819418
0.934978
3.76949
5.2376
3.15541
2.43193
0.0841526
0.0925989
0.113511
0.117261
0.0853781
0.0237098
2.02969
3.49129
8.22177
16.3892
13.2562
3.62448
2.45055
2.73067
3.37448
3.32209
2.81294
0.711539
0.695422
5.19552
6.37139
5.94601
2.11194
0.074307
0.076067
0.0870297
0.0921033
0.0810707
0.061508
0.0315503
0.00844272
-0.0142892
-0.00709405
0.0570853
2.83876
3.29144
3.32207
2.13715
0.875132
0.672356
0.501705
0.504579
0.996489
5.38053
1.54014
1.75594
0.065625
0.0641114
0.0745978
0.0797498
0.0651384
0.0528071
0.0630963
0.0555582
0.00327309
0.0773375
0.471441
1.25927
1.67233
1.04268
0.227071
0.238035
0.291229
0.353706
0.618686
1.78071
1.07022
1.01667
1.16978
0.062697
0.0577905
0.0645811
0.0635063
0.0524135
0.0517281
0.0811088
0.0684521
0.00647515
-0.01622
-0.0223714
-0.017162
0.0179395
0.0774156
0.13501
0.177208
0.212842
0.241673
1.05227
1.84434
1.83199
0.774901
0.361143
0.0634293
0.052911
0.0466478
0.0435559
0.0367318
0.0297468
0.0147263
0.00714272
-0.00271814
-0.00831539
-0.00850637
0.00199181
0.0284021
0.0653479
0.102769
0.131885
0.1516
0.158101
0.256752
0.445237
0.940241
0.61916
0.0639883
0.0660819
0.0525467
0.0421195
0.0355831
0.0294972
0.0222671
0.0145292
0.00764804
0.00259
0.000339276
0.00267289
0.0120125
0.0305316
0.0550751
0.0803191
0.0989464
0.107994
0.103725
0.0817434
0.0490948
0.0150067
0.0599158
-0.0753935
0.0685416
0.0536416
0.0410654
0.0332107
0.027219
0.0214139
0.0157859
0.0110304
0.00792883
0.00732472
0.0102683
0.017891
0.0307383
0.0467227
0.0622649
0.0734165
0.0771091
0.0706145
0.0521338
0.024593
-0.0076737
-0.0430383
-0.0901017
0.0694256
0.0543571
0.0410782
0.0327186
0.0269028
0.0219972
0.0177261
0.0143951
0.0124962
0.0126
0.0153164
0.0211125
0.0298673
0.0401159
0.0494976
0.0554587
0.05581
0.0487261
0.0332542
0.0110065
-0.0155088
-0.0446246
-0.0798767
0.0679765
0.0538647
0.0410915
0.0329541
0.0275043
0.0232565
0.0198423
0.0173585
0.0160784
0.0163359
0.0184356
0.0224916
0.0281758
0.0344435
0.0397316
0.0423207
0.0406809
0.0336737
0.0208932
0.00316041
-0.0181641
-0.0418627
-0.0451279
0.0644086
0.0520384
0.0406759
0.0332437
0.0283118
0.0245882
0.0217118
0.0196861
0.0186441
0.0187515
0.0201141
0.0226718
0.0260729
0.029577
0.03214
0.0325979
0.0299052
0.0233685
0.0128376
-0.00122011
-0.0180383
-0.0365745
0.0224643
0.0591433
0.0491636
0.0397802
0.0332828
0.0289062
0.0256082
0.0230777
0.0212819
0.0202745
0.0201137
0.0207903
0.022166
0.0239269
0.0255521
0.0263463
0.0255245
0.0223809
0.0164869
0.00781259
-0.00331155
-0.0163301
-0.0250779
-0.0248318
0.0535782
0.0457551
0.0384068
0.0329354
0.0290698
0.0261174
0.0238294
0.0221568
0.0211087
0.0206818
0.0208076
0.0213214
0.0219557
0.0223419
0.0220222
0.0204806
0.017246
0.0120464
0.00490074
-0.00392938
-0.0138035
-0.0234668
-0.0341128
0.0870993
0.0646552
0.0365754
0.0320714
0.0287022
0.026065
0.0239854
0.0224067
0.0213148
0.0206787
0.0204066
0.0203341
0.0202364
0.0198446
0.0188559
0.016942
0.013803
0.00926701
0.00336783
-0.00368313
-0.0114752
-0.0192937
-0.026384
0.139732
0.137668
0.0837688
0.0306202
0.027807
0.0255257
0.0236747
0.0222019
0.0210899
0.0203055
0.0197604
0.0193076
0.0187589
0.0179098
0.0165536
0.0144851
0.0115232
0.00757093
0.00266574
-0.00302602
-0.00918277
-0.015223
-0.0206807
0.125103
0.13641
0.135639
0.0422821
0.0265584
0.0247134
0.0231141
0.0217587
0.0206475
0.0197573
0.0190196
0.0183163
0.0174952
0.0163948
0.0148653
0.0127765
0.0100232
0.00655817
0.00242265
-0.00225295
-0.00722391
-0.0120572
-0.0164445
0.0387442
0.124205
0.109816
0.0458184
0.0261971
0.0239266
0.0225421
0.0212896
0.020182
0.0192086
0.018323
0.0174392
0.016441
0.0152019
0.0136072
0.0115684
0.00902423
0.00595685
0.00240781
-0.00151964
-0.00564185
-0.00964144
-0.0133079
0.0256314
0.0352296
0.0306119
0.0272607
0.0251134
0.0234698
0.022101
0.0209232
0.019815
0.0187739
0.0177695
0.0167432
0.0156127
0.0142835
0.0126678
0.0107012
0.00834591
0.00559832
0.00249652
-0.00087803
-0.00438723
-0.00779572
-0.0109488
0.0239356
0.0249886
0.0253238
0.0247924
0.0238902
0.0228496
0.0217568
0.020651
0.0195565
0.018474
0.0173836
0.016248
0.0150133
0.0136143
0.0119876
0.0100864
0.00788609
0.005389
0.00262787
-0.000333418
-0.00339063
-0.00636531
-0.00913321
0.0221223
0.0233132
0.0239334
0.0237539
0.0231372
0.0223128
0.0213756
0.0203736
0.0193294
0.018246
0.0171129
0.0159084
0.014601
0.0131503
0.0115149
0.00966364
0.00758173
0.00527471
0.00277057
0.000119856
-0.00259839
-0.00524865
-0.00772606
0.0202955
0.0214697
0.0223148
0.0224823
0.02218
0.0216049
0.0208582
0.0199924
0.019034
0.0179915
0.0168617
0.0156338
0.014292
0.0128151
0.0111801
0.00936998
0.00737872
0.00521496
0.0029035
0.0004852
-0.00197926
-0.00438746
-0.00665028
0.0185986
0.019736
0.0207018
0.0211112
0.0210631
0.0207161
0.0201588
0.0194411
0.0185906
0.0176201
0.0165321
0.0153229
0.0139866
0.012515
0.0108991
0.00913295
0.00721852
0.00516765
0.00300366
0.000760985
-0.0015123
-0.00373888
-0.00584373
0.017033
0.018124
0.0191418
0.0197031
0.0198403
0.0196751
0.019281
0.018701
0.0179617
0.0170781
0.0160563
0.0148969
0.0135996
0.0121643
0.0105906
0.00888092
0.00704302
0.00509173
0.0030499
0.000948076
-0.00117378
-0.00325676
-0.00523864
0.0155669
0.0166037
0.0176358
0.0182844
0.0185459
0.0185141
0.0182483
0.0177843
0.0171464
0.0163507
0.0154053
0.0143138
0.013079
0.011705
0.0101967
0.00856112
0.00680975
0.0049593
0.00303229
0.00105673
-0.000932478
-0.00288944
-0.00476331
0.0141713
0.0151448
0.0161685
0.0168616
0.0172006
0.0172604
0.0170894
0.0167171
0.0161653
0.0154503
0.0145823
0.0135667
0.0124088
0.0111146
0.00969151
0.00814882
0.0064994
0.00476037
0.00295335
0.00110415
-0.00075569
-0.00258928
-0.00435561
0.012829
0.0137275
0.0147236
0.0154324
0.0158157
0.0159354
0.0158315
0.0155288
0.0150475
0.0144041
0.0136102
0.0126734
0.0116005
0.0103987
0.00907617
0.00764269
0.00611091
0.00449698
0.00282081
0.00110584
-0.000619231
-0.00232385
-0.00397544
0.0115316
0.0123433
0.0132925
0.0139952
0.0143998
0.0145563
0.0144983
0.0142478
0.013824
0.0132438
0.0125203
0.0116629
0.0106797
0.00957832
0.0083668
0.00705436
0.00565249
0.00417559
0.0026412
0.00107
-0.000512238
-0.00207985
-0.00360769
0.0102748
0.0109891
0.0118737
0.0125521
0.0129611
0.0131378
0.0131101
0.0128986
0.0125227
0.0119997
0.011344
0.0105664
0.00967567
0.00867937
0.00758491
0.00640049
0.00513608
0.003804
0.00241915
0.000999091
-0.000433694
-0.00185774
-0.00325464
0.00905426
0.00966301
0.0104684
0.0111076
0.011508
0.0116925
0.0116838
0.0115022
0.0111675
0.010698
0.0101089
0.00941173
0.00861522
0.00772645
0.00675192
0.00569862
0.00457497
0.00339121
0.00215958
0.000894358
-0.000385598
-0.00166272
-0.0029247
0.00786436
0.00836228
0.00907748
0.00966644
0.0100482
0.0102311
0.0102334
0.0100755
0.00977822
0.0093606
0.00883809
0.00822214
0.00752092
0.00674061
0.00588663
0.00496483
0.00398214
0.00294686
0.00186866
0.000758593
-0.000368248
-0.00149806
-0.00262407
0.00670228
0.00708368
0.00769987
0.00823188
0.00858836
0.00876281
0.00877053
0.00863276
0.00837139
0.00800566
0.00755057
0.0070167
0.00641116
0.00573901
0.00500467
0.00421288
0.00336928
0.00248041
0.00155358
0.000596848
-0.000378418
-0.00136214
-0.00235264
0.00557528
0.00582344
0.00633286
0.00680636
0.00713441
0.00729608
0.00730567
0.00718647
0.00696128
0.0066487
0.00626235
0.00581126
0.0053011
0.00473586
0.00411903
0.00345452
0.00274686
0.00200111
0.00122255
0.000416577
-0.000408954
-0.00124771
-0.00210274
0.00448422
0.00456291
0.00496966
0.00539195
0.00569293
0.00583971
0.00584932
0.00574885
0.00556146
0.005304
0.00498773
0.00461958
0.00420377
0.0037433
0.00324107
0.00270035
0.00212493
0.00151868
0.000885235
0.000227821
-0.000448928
-0.00114233
-0.00185972
0.00335992
0.0032443
0.00358213
0.00399425
0.00428045
0.0044099
0.00441742
0.00433682
0.00418962
0.00398915
0.00374354
0.00345751
0.003134
0.0027754
0.00238428
0.00196361
0.00151662
0.00104637
0.000555299
4.49613e-05
-0.000482628
-0.00102807
-0.00160235
0.00206362
0.00169828
0.00203127
0.00263028
0.00293966
0.00303972
0.00303865
0.00297867
0.00287354
0.00273063
0.00255461
0.00234833
0.00211391
0.00185345
0.0015694
0.00126459
0.000941909
0.000603922
0.000252375
-0.000112091
-0.000489174
-0.000881756
-0.00130365
0.000862746
-0.000783008
5.208e-05
0.00128281
0.00165637
0.00171346
0.00170431
0.00166986
0.00160994
0.00152535
0.00141792
0.00128931
0.00114123
0.000975749
0.000795345
0.000602792
0.000400941
0.000192314
-2.13509e-05
-0.000239447
-0.000462314
-0.000692894
-0.000939864
0.00134522
-0.00536699
-0.00249559
-0.000691562
-0.000287029
-0.000173346
-0.000115363
-8.08471e-05
-6.73762e-05
-7.25912e-05
-9.40592e-05
-0.000129481
-0.000176453
-0.000232316
-0.000294163
-0.000358886
-0.000423341
-0.000484665
-0.000540611
-0.000589868
-0.000632347
-0.000669951
-0.0007088
796.952
791.919
793.523
784.577
821.36
821.722
783.127
730.675
795.247
788.533
774.725
755.581
385.373
344.474
315.347
285.623
1.512
2.507
4.71458
8.48823
3.00165
3.46081
4.31549
7.06847
2.59065
3.13506
9.34347
33.0458
2.56207
16.7096
55.1447
55.95
2.9321
37.014
59.112
60.2089
0.634843
23.5167
62.942
63.8714
0.423651
0.903386
20.3829
40.2002
-0.0284066
0.0733158
6.2794
2.44709
-0.15252
-0.184307
3.6847
0.355393
-0.0239509
0.788707
0.666009
-0.149538
0.391236
0.539564
-0.117713
-0.110976
0.0790999
-0.0719726
-0.0840729
-0.0856135
-0.0544374
-0.0602908
-0.0649603
-0.0679433
-0.0410789
-0.0460695
-0.0506495
-0.0540266
-0.0317343
-0.0358187
-0.0399025
-0.0431712
-0.0248831
-0.0281823
-0.0316476
-0.0345718
-0.0198336
-0.0224667
-0.025288
-0.0277514
-0.0160893
-0.0181576
-0.0203692
-0.0223371
-0.0132486
-0.0148476
-0.0165316
-0.0180503
-0.0110482
-0.0122765
-0.0135385
-0.0146929
-0.00935396
-0.0103147
-0.0112663
-0.0121487
-0.00808616
-0.00887532
-0.0096198
-0.0103151
-0.00716609
-0.00786191
-0.00848585
-0.00906613
-0.00649983
-0.0071583
-0.00772785
-0.00825077
-0.005989
-0.0066443
-0.00720458
-0.00771263
-0.00555065
-0.00621794
-0.00679486
-0.00731544
-0.00513231
-0.00581216
-0.00641552
-0.00696199
-0.00471396
-0.0053979
-0.00602519
-0.0065988
-0.00429781
-0.00497344
-0.00561415
-0.00620714
-0.00389443
-0.00454878
-0.00518854
-0.00578804
-0.00351244
-0.00413363
-0.00475732
-0.00534878
-0.00315349
-0.00373108
-0.00432446
-0.00489373
-0.0028099
-0.00333435
-0.0038843
-0.00441841
-0.00246527
-0.00292672
-0.00342028
-0.00390687
-0.00209571
-0.00248259
-0.00290491
-0.00332902
-0.00167656
-0.00197601
-0.0023071
-0.0026435
-0.0011511
-0.00133418
-0.00154577
-0.00176934
-0.000747338
-0.00079951
-0.000871175
-0.00094926
748.847
763.91
776.972
774.94
776.402
784.918
782.325
750.876
745.139
738.088
721.432
695.361
706.858
694.827
677.245
637.143
566.246
533.098
575.7
775.054
780.401
751.644
624.435
636.462
733.394
734.206
724.109
746.335
724.182
662.803
609.3
550.256
455.682
332.468
262.817
220.668
188.144
199.784
690.131
512.793
285.064
90.385
121.682
359.744
550.803
585.202
606.054
583.314
505.913
385.074
272.872
220.678
218.25
218.869
191.118
161.635
159.655
108.068
13.9372
14.7893
16.8786
17.4133
80.9201
244.833
245
176.707
193.978
269.151
246.747
216.331
190.235
227.898
236.06
236.765
159.571
155.278
13.7694
13.7207
12.9272
14.7358
14.7125
13.7108
20.7583
20.1089
23.5119
28.2282
69.1156
154.271
179.094
165.764
219.442
236.062
238.979
241.128
224.774
16.9257
26.9704
28.6889
29.9533
28.1744
19.8349
19.4184
19.5787
20.6408
23.3396
32.0345
55.9739
75.0334
68.964
82.6968
111.541
164.392
198.763
178.758
54.3532
57.0986
57.1308
57.0654
57.0111
55.2666
52.8541
52.8591
55.4616
56.2497
37.0921
14.5983
4.51495
4.04347
5.14891
4.12513
15.34
26.9133
31.6243
57.7967
58.9807
57.2642
53.1441
56.3137
57.7458
58.19
58.0527
58.0789
58.0342
41.4137
12.8176
1.70068
2.45347
4.0435
2.43022
0.804292
0.525331
0.620263
60.9572
49.5068
8.06438
-0.188861
4.21682
19.0927
24.6631
25.1374
20.5508
19.5463
8.91917
3.4817
0.629402
0.818508
2.59998
2.63852
0.47345
0.397758
0.40636
52.5787
0.362912
-0.122099
-0.146665
-0.177222
-0.223322
-0.228815
-0.210853
-0.136331
0.0793752
0.393434
0.342856
0.377297
0.374801
0.414247
1.40749
0.375566
0.36941
0.374366
6.66381
-0.13471
-0.126266
-0.131168
-0.129848
-0.11567
-0.0589865
-0.0142148
0.0469977
0.254966
0.502854
0.311748
0.332202
0.336368
0.338353
0.341033
0.357296
0.362558
0.366033
-0.220214
-0.157276
-0.12683
-0.118429
-0.113493
-0.103457
0.00166635
0.426593
0.476626
0.513245
0.552082
0.514557
0.324017
0.318686
0.323306
0.326432
0.358743
0.42828
0.458494
-0.170529
-0.135122
-0.113542
-0.104035
-0.0968639
-0.0877565
0.0691227
0.480315
0.510612
0.541487
0.571273
0.605452
0.633707
0.463587
0.303671
0.30655
0.474663
0.485101
0.484761
-0.130122
-0.109617
-0.0935478
-0.0882331
-0.0810599
-0.0726285
-0.00955718
0.47203
0.544588
0.571918
0.357916
0.239056
0.429921
0.477899
0.442714
0.218904
0.276786
0.399033
0.476626
-0.105814
-0.0888691
-0.0702658
-0.0649353
-0.0660882
-0.0589131
-0.0451302
0.315392
0.573196
0.383211
0.00369789
0.025693
0.0836676
0.231119
0.25335
0.165166
0.17946
0.191198
0.304691
-0.0865569
-0.0718611
-0.0153698
-0.00550292
-0.0308412
-0.0469647
-0.0400344
0.110456
0.496793
0.201799
0.00152478
0.0212614
0.0375738
0.0508984
0.0628923
0.079763
0.231274
0.374411
0.373786
-0.070718
-0.0490731
0.0031064
0.00696153
0.0118113
-0.00267997
-0.026129
0.0353694
0.0804709
0.0105551
-0.000510325
0.0164687
0.0299036
0.0403913
0.0479686
0.0525462
0.207474
0.358412
0.361494
-0.0576925
-0.0521463
0.00577817
0.0182978
0.022063
0.0267572
0.0319606
0.0214926
-0.0266464
-0.0164302
-0.0012886
0.0120081
0.0225335
0.0303062
0.0349963
0.0355578
0.0531962
0.129506
0.311661
-0.0469946
-0.0492107
-0.0335596
0.0232634
0.0313463
0.0352531
0.0400092
0.0165328
-0.0236025
-0.0131552
-0.000559191
0.0113969
0.0180872
0.0220368
0.0249225
0.0247615
0.021224
0.0167613
0.0178275
-0.0381792
-0.0407546
-0.0420502
-0.0351646
-0.0175197
0.00376388
0.0122069
-0.0161215
-0.0181723
-0.0113593
-0.00101925
0.00820784
0.014454
0.015817
0.0175433
0.0177944
0.0162983
0.0147643
0.0165482
-0.0309472
-0.0335381
-0.0349821
-0.035238
-0.0342104
-0.0319398
-0.028204
-0.0235381
-0.0148807
-0.00857702
-0.00274819
0.00471343
0.00860234
0.0102222
0.0122042
0.0131692
0.0133968
0.0141165
0.0170689
-0.0250207
-0.0274917
-0.0289437
-0.0293329
-0.0285933
-0.0267716
-0.0239082
-0.0200515
-0.0149372
-0.00788498
-0.00291946
-0.000313025
0.00311183
0.00612081
0.00831455
0.009844
0.0112855
0.0132411
0.114567
-0.0202496
-0.0225003
-0.0238954
-0.0243837
-0.0239168
-0.0225375
-0.0203115
-0.0173323
-0.0138035
-0.00884824
-0.0036433
-0.00116246
0.000687161
0.00325726
0.00539082
0.00726899
0.00934498
0.0168631
0.215615
-0.01649
-0.0185095
-0.0198229
-0.0203796
-0.0201483
-0.019168
-0.0175041
-0.0152505
-0.0125658
-0.00963871
-0.00608507
-0.00269617
-0.000293341
0.00138028
0.00316835
0.0051609
0.00744214
0.0521025
0.220769
-0.0136353
-0.0154516
-0.0166844
-0.0172878
-0.0172436
-0.0165876
-0.0153765
-0.0136898
-0.0116449
-0.0093773
-0.00702477
-0.00464325
-0.00220131
-0.000219028
0.00153765
0.00345955
0.00570722
0.0798495
0.226769
-0.0115735
-0.0132256
-0.0143902
-0.0150243
-0.0151188
-0.0147068
-0.0138347
-0.0125659
-0.0109864
-0.00919454
-0.00728944
-0.00535744
-0.00345641
-0.00158274
0.000252712
0.00217304
0.00438313
0.0689448
0.233314
-0.010165
-0.0116903
-0.0128011
-0.0134544
-0.0136468
-0.0134079
-0.0127761
-0.0118013
-0.0105484
-0.00909041
-0.00750073
-0.00584146
-0.00415178
-0.00243626
-0.000657934
0.00128066
0.00361729
0.0373419
0.240279
-0.00924644
-0.0106754
-0.0117442
-0.0124094
-0.0126696
-0.0125505
-0.0120843
-0.0113119
-0.0102844
-0.00905884
-0.0076914
-0.00622758
-0.00469214
-0.00307909
-0.00134179
0.000648324
0.00322591
0.0395752
0.247242
-0.00865025
-0.010005
-0.0110407
-0.0117138
-0.0120226
-0.0119881
-0.011638
-0.0110073
-0.0101389
-0.00907976
-0.00787517
-0.00655947
-0.00514703
-0.00362349
-0.0019344
6.71992e-05
0.00276452
0.0917139
0.253936
-0.00822838
-0.00952414
-0.0105326
-0.0112119
-0.0115584
-0.0115878
-0.0113246
-0.0107999
-0.0100517
-0.00912089
-0.00804568
-0.00685332
-0.00555166
-0.0041216
-0.00250789
-0.000573475
0.00205066
0.111244
0.260496
-0.00787055
-0.00911693
-0.010102
-0.0107868
-0.0111648
-0.0112467
-0.0110539
-0.0106157
-0.00996689
-0.00914458
-0.0081822
-0.00710232
-0.00590869
-0.00457986
-0.0030616
-0.00123107
0.00126908
0.0970958
0.266833
-0.00751022
-0.00871219
-0.00967585
-0.0103658
-0.0107715
-0.0108983
-0.0107656
-0.0104019
-0.00984045
-0.00911585
-0.00825829
-0.00728682
-0.00620213
-0.00498053
-0.00356619
-0.00182855
0.000644815
0.0656263
0.272357
-0.00711789
-0.00827702
-0.00922066
-0.00991594
-0.0103463
-0.0105108
-0.0104284
-0.0101282
-0.0096436
-0.00900798
-0.00824949
-0.00738473
-0.00641208
-0.00530508
-0.00400612
-0.00236815
0.000100409
0.110245
0.163588
-0.00668792
-0.00780433
-0.00873042
-0.0094333
-0.00988611
-0.0100793
-0.0100342
-0.00978323
-0.00936194
-0.00880414
-0.00813727
-0.00737682
-0.0065205
-0.00554061
-0.00438264
-0.00291541
-0.000669823
0.161923
0.188686
-0.00622505
-0.00729968
-0.00821421
-0.00893213
-0.00940755
-0.00961682
-0.00959043
-0.00936858
-0.00899169
-0.00849581
-0.00790894
-0.00724658
-0.00650652
-0.00566011
-0.00466057
-0.00340278
-0.00149116
0.115508
0.17486
-0.00573399
-0.00677027
-0.00768553
-0.00843599
-0.00893951
-0.00914673
-0.0091127
-0.00889269
-0.0085352
-0.0080801
-0.00755693
-0.0069814
-0.00634973
-0.00562878
-0.00476865
-0.00363538
-0.00178841
0.0178476
0.0229723
-0.00521226
-0.00621604
-0.0071522
-0.00796882
-0.00851459
-0.00869247
-0.00861547
-0.00836311
-0.00799493
-0.00755571
-0.00707715
-0.00657519
-0.00604501
-0.00545203
-0.00471836
-0.00363939
-0.00165484
0.00193507
0.00652783
-0.00464459
-0.00561984
-0.00660329
-0.00754748
-0.00816868
-0.00827298
-0.00810567
-0.00778045
-0.00736841
-0.00691863
-0.00646489
-0.00602616
-0.00560521
-0.00516878
-0.0046213
-0.0036729
-0.00165204
0.00201572
0.00651337
-0.00399421
-0.00493235
-0.00600115
-0.00722517
-0.00805103
-0.00798196
-0.00763197
-0.00717309
-0.00667423
-0.00618035
-0.00572652
-0.00533949
-0.0050375
-0.0048085
-0.00456753
-0.00394845
0.00310312
0.00213238
0.00593201
-0.00319586
-0.00406801
-0.00532838
-0.007315
-0.00882071
-0.00824602
-0.00745637
-0.0067289
-0.00605662
-0.00544903
-0.00493614
-0.00455266
-0.00434433
-0.00435288
-0.00454618
0.00441552
0.0143061
0.00539565
0.00474975
-0.00217594
-0.00293471
-0.00460759
-0.00843571
-0.0113124
-0.00939131
-0.007751
-0.00658222
-0.00563055
-0.00482101
-0.00416269
-0.00368443
-0.00345354
-0.00364465
0.00460915
0.0124196
0.0131464
0.0134518
0.00322637
-0.00111046
-0.00164747
-0.00354895
-0.00958966
-0.0104476
-0.00746771
-0.00569591
-0.00460694
-0.00377708
-0.00308802
-0.00252439
-0.00208383
-0.00178682
-0.00192095
-0.000345699
0.00688962
0.00929899
0.00479978
0.00169885
)
;

boundaryField
{
    leftWall
    {
        type            fixedFluxPressure;
        gradient        uniform 0;
        value           nonuniform List<scalar> 
50
(
780.104
780.141
780.156
780.121
780.045
779.959
779.894
779.86
779.86
774.519
387.491
16.0004
18.7047
6.43418
0.0841526
0.074307
0.065625
0.062697
0.0634293
0.0660819
0.0685416
0.0694256
0.0679765
0.0644086
0.0591433
0.0535782
0.0870993
0.139732
0.125103
0.0387442
0.0256314
0.0239356
0.0221223
0.0202955
0.0185986
0.017033
0.0155669
0.0141713
0.012829
0.0115316
0.0102748
0.00905426
0.00786436
0.00670228
0.00557528
0.00448422
0.00335992
0.00206362
0.000862746
0.00134522
)
;
    }
    rightWall
    {
        type            fixedFluxPressure;
        gradient        uniform 0;
        value           nonuniform List<scalar> 
50
(
678.438
677.935
677.593
677.264
676.942
676.163
674.751
663.784
575.7
199.784
159.655
155.278
224.774
178.758
31.6243
0.620263
0.40636
0.374366
0.366033
0.458494
0.484761
0.476626
0.304691
0.373786
0.361494
0.311661
0.0178275
0.0165482
0.0170689
0.114567
0.215615
0.220769
0.226769
0.233314
0.240279
0.247242
0.253936
0.260496
0.266833
0.272357
0.163588
0.188686
0.17486
0.0229723
0.00652783
0.00651337
0.00593201
0.00474975
0.00322637
0.00169885
)
;
    }
    lowerWall
    {
        type            fixedFluxPressure;
        gradient        uniform 0;
        value           nonuniform List<scalar> 
62
(
780.104
780.396
781.202
781.743
781.843
781.687
781.533
781.627
782.19
783.391
785.344
788.11
791.722
796.218
801.661
808.164
815.867
824.813
833.75
844.054
855.07
863.075
869.856
869.856
869.811
871.28
875.166
880.056
885.277
888.672
885.705
796.952
791.919
793.523
784.577
725.902
724.031
720.759
717.264
714.691
700.149
707.122
699.515
725.902
735.275
763.755
785.027
786.679
774.498
756.813
739.88
725.55
714.284
707.598
704.48
697.769
687.345
680.439
676.066
673.293
675.917
678.438
)
;
    }
    atmosphere
    {
        type            totalPressure;
        rho             rho;
        psi             none;
        gamma           1;
        p0              uniform 0;
        value           nonuniform List<scalar> 
46
(
-0.000807341
-0.00258023
-0.00221657
-0.00188959
-0.00166936
-0.00150571
-0.00138055
-0.00128526
-0.00121436
-0.00116339
-0.00112832
-0.00110534
-0.00109077
-0.001081
-0.0010725
-0.00106178
-0.0010455
-0.00102046
-0.000983853
-0.000933412
-0.000867805
-0.00078701
-0.000692741
-0.000614551
-0.000561205
-0.000504492
-0.000445861
-0.000349813
-0.00022379
-0.000119642
-3.39938e-05
0
0
0
0
0
0
0
0
0
0
0
0
0
0
0
)
;
    }
    defaultFaces
    {
        type            empty;
    }
}


// ************************************************************************* //
