/*--------------------------------*- C++ -*----------------------------------*\
| =========                 |                                                 |
| \\      /  F ield         | OpenFOAM: The Open Source CFD Toolbox           |
|  \\    /   O peration     | Version:  2.3.0                                 |
|   \\  /    A nd           | Web:      www.OpenFOAM.org                      |
|    \\/     M anipulation  |                                                 |
\*---------------------------------------------------------------------------*/
FoamFile
{
    version     2.0;
    format      ascii;
    class       surfaceScalarField;
    location    "1.75";
    object      phi;
}
// * * * * * * * * * * * * * * * * * * * * * * * * * * * * * * * * * * * * * //

dimensions      [0 3 -1 0 0 0 0];

internalField   nonuniform List<scalar> 
4432
(
-1.28064e-06
1.28064e-06
-6.90262e-07
-5.90361e-07
3.98616e-07
-1.08887e-06
1.39157e-06
-9.92956e-07
2.21509e-06
-8.23516e-07
2.90596e-06
-6.90872e-07
3.52903e-06
-6.23086e-07
4.14238e-06
-6.13352e-07
4.78146e-06
-6.39087e-07
5.45609e-06
-6.74637e-07
6.15336e-06
-6.97276e-07
6.84119e-06
-6.87826e-07
7.47251e-06
-6.31325e-07
7.9835e-06
-5.1099e-07
8.28184e-06
-2.9834e-07
8.21854e-06
6.32822e-08
7.58121e-06
6.37318e-07
6.08822e-06
1.49299e-06
3.28129e-06
2.80695e-06
-3.63273e-07
3.64458e-06
-3.96002e-06
3.59676e-06
-5.03157e-06
1.07155e-06
-5.03157e-06
-3.37027e-07
1.61768e-06
3.21723e-07
-1.24909e-06
1.09133e-06
-1.85848e-06
1.82762e-06
-1.72925e-06
2.49631e-06
-1.49222e-06
3.11559e-06
-1.31016e-06
3.7197e-06
-1.2272e-06
4.3406e-06
-1.23427e-06
4.99677e-06
-1.29526e-06
5.68891e-06
-1.36677e-06
6.40052e-06
-1.4089e-06
7.09931e-06
-1.38661e-06
7.73995e-06
-1.27196e-06
8.26385e-06
-1.0349e-06
8.59557e-06
-6.30069e-07
8.63959e-06
1.92456e-08
8.26314e-06
1.01379e-06
7.26284e-06
2.4933e-06
5.44211e-06
4.6277e-06
2.77915e-06
6.30755e-06
-9.14481e-08
6.46734e-06
-1.74857e-06
2.72868e-06
-6.78015e-06
4.37075e-07
1.18061e-06
9.61354e-07
-1.77337e-06
1.53934e-06
-2.43646e-06
2.12407e-06
-2.31398e-06
2.69632e-06
-2.06448e-06
3.26296e-06
-1.8768e-06
3.84206e-06
-1.80629e-06
4.45155e-06
-1.84376e-06
5.10045e-06
-1.94415e-06
5.78473e-06
-2.05105e-06
6.48678e-06
-2.11094e-06
7.17533e-06
-2.07516e-06
7.8082e-06
-1.90482e-06
8.33301e-06
-1.55972e-06
8.68468e-06
-9.81751e-07
8.78462e-06
-8.06961e-08
8.53597e-06
1.26245e-06
7.83713e-06
3.19213e-06
6.67843e-06
5.78641e-06
4.93589e-06
8.05009e-06
2.79812e-06
8.6051e-06
7.81044e-07
4.74576e-06
-5.99912e-06
8.96013e-07
2.84602e-07
1.40684e-06
-2.2842e-06
1.88524e-06
-2.91486e-06
2.38053e-06
-2.80929e-06
2.88932e-06
-2.57327e-06
3.41466e-06
-2.40213e-06
3.96614e-06
-2.35776e-06
4.55389e-06
-2.43151e-06
5.1818e-06
-2.57205e-06
5.84381e-06
-2.71305e-06
6.52291e-06
-2.79005e-06
7.18993e-06
-2.74217e-06
7.80681e-06
-2.52171e-06
8.3287e-06
-2.08163e-06
8.70314e-06
-1.35619e-06
8.8699e-06
-2.4746e-07
8.76491e-06
1.36744e-06
8.34332e-06
3.61371e-06
7.64827e-06
6.48145e-06
6.55206e-06
9.1463e-06
4.93022e-06
1.02269e-05
2.69351e-06
6.98247e-06
-3.30561e-06
1.13039e-06
-8.45789e-07
1.71187e-06
-2.8657e-06
2.17089e-06
-3.37389e-06
2.62696e-06
-3.26536e-06
3.09863e-06
-3.04494e-06
3.59162e-06
-2.89512e-06
4.11253e-06
-2.87867e-06
4.66825e-06
-2.98723e-06
5.26085e-06
-3.16466e-06
5.88475e-06
-3.33695e-06
6.52549e-06
-3.43079e-06
7.15715e-06
-3.37383e-06
7.74704e-06
-3.1116e-06
8.25928e-06
-2.59387e-06
8.65535e-06
-1.75225e-06
8.89432e-06
-4.86432e-07
8.94011e-06
1.32165e-06
8.78384e-06
3.76998e-06
8.46274e-06
6.80255e-06
7.86433e-06
9.74472e-06
6.67953e-06
1.14117e-05
4.34688e-06
9.31512e-06
1.04128e-06
1.23947e-06
-2.08527e-06
1.92935e-06
-3.55559e-06
2.42711e-06
-3.87166e-06
2.88498e-06
-3.72322e-06
3.34262e-06
-3.50258e-06
3.8115e-06
-3.36401e-06
4.29883e-06
-3.366e-06
4.81175e-06
-3.50015e-06
5.35347e-06
-3.70637e-06
5.92127e-06
-3.90475e-06
6.50539e-06
-4.0149e-06
7.08449e-06
-3.95294e-06
7.63246e-06
-3.65957e-06
8.12376e-06
-3.08517e-06
8.5348e-06
-2.16329e-06
8.84365e-06
-7.95284e-07
9.03786e-06
1.12744e-06
9.12952e-06
3.67832e-06
9.15083e-06
6.78123e-06
8.98895e-06
9.9066e-06
8.26176e-06
1.21389e-05
5.97433e-06
1.16026e-05
7.0156e-06
1.29132e-06
-3.3766e-06
2.10568e-06
-4.36995e-06
2.68031e-06
-4.44629e-06
3.17255e-06
-4.21546e-06
3.63662e-06
-3.96665e-06
4.08941e-06
-3.81679e-06
4.54055e-06
-3.81714e-06
5.00012e-06
-3.95971e-06
5.4749e-06
-4.18114e-06
5.96735e-06
-4.39719e-06
6.47446e-06
-4.52202e-06
6.981e-06
-4.45949e-06
7.46862e-06
-4.14719e-06
7.92341e-06
-3.53996e-06
8.33765e-06
-2.57753e-06
8.70765e-06
-1.1653e-06
9.04073e-06
7.94351e-07
9.36432e-06
3.35474e-06
9.71182e-06
6.43373e-06
9.98962e-06
9.62881e-06
9.82854e-06
1.23e-05
7.77071e-06
1.36604e-05
1.47863e-05
1.3269e-06
-4.7035e-06
2.27262e-06
-5.31567e-06
2.94504e-06
-5.11872e-06
3.4946e-06
-4.765e-06
3.98227e-06
-4.45432e-06
4.42687e-06
-4.2614e-06
4.84082e-06
-4.23108e-06
5.239e-06
-4.35789e-06
5.63356e-06
-4.5757e-06
6.03372e-06
-4.79736e-06
6.44498e-06
-4.93329e-06
6.85942e-06
-4.87393e-06
7.26765e-06
-4.55541e-06
7.66873e-06
-3.94105e-06
8.07188e-06
-2.98067e-06
8.49074e-06
-1.58415e-06
8.94911e-06
3.35978e-07
9.48751e-06
2.81635e-06
1.01487e-05
5.7725e-06
1.08895e-05
8.88803e-06
1.14329e-05
1.17567e-05
1.0588e-05
1.45053e-05
2.53743e-05
-8.44753e-06
8.44753e-06
-6.90554e-06
-1.54198e-06
2.26758e-06
-9.17313e-06
1.2617e-05
-1.03494e-05
2.10963e-05
-8.47934e-06
2.69998e-05
-5.90352e-06
3.02412e-05
-3.24133e-06
3.14189e-05
-1.17771e-06
3.09051e-05
5.13778e-07
2.82117e-05
2.69336e-06
2.2271e-05
5.94077e-06
1.42046e-05
8.06639e-06
7.22598e-06
6.97859e-06
2.46045e-06
4.76554e-06
-2.53697e-07
2.71415e-06
-2.40232e-06
2.14863e-06
-4.34114e-06
1.93881e-06
-3.67407e-06
-6.67074e-07
-3.67406e-06
-5.17015e-06
1.36177e-05
-9.055e-07
-5.80661e-06
7.34166e-06
-1.74203e-05
1.62504e-05
-1.92581e-05
2.33201e-05
-1.5549e-05
2.78076e-05
-1.0391e-05
2.97811e-05
-5.21479e-06
3.00296e-05
-1.42622e-06
2.93625e-05
1.18081e-06
2.77755e-05
4.28036e-06
2.37808e-05
9.93544e-06
1.67099e-05
1.51373e-05
9.3225e-06
1.4366e-05
4.67221e-06
9.41584e-06
1.9166e-06
5.46975e-06
-3.41908e-08
4.09943e-06
-1.5764e-06
3.48101e-06
-2.01273e-06
-2.30747e-07
-5.6868e-06
-1.75719e-06
1.53748e-05
3.51845e-06
-1.10822e-05
1.16289e-05
-2.55307e-05
1.9289e-05
-2.69183e-05
2.50967e-05
-2.13567e-05
2.84201e-05
-1.37145e-05
2.92695e-05
-6.06418e-06
2.86406e-05
-7.97298e-07
2.72961e-05
2.52522e-06
2.53758e-05
6.20069e-06
2.19405e-05
1.33707e-05
1.63342e-05
2.07436e-05
1.0122e-05
2.05782e-05
6.11417e-06
1.34237e-05
3.7244e-06
7.85953e-06
2.03708e-06
5.78677e-06
5.96967e-07
4.92114e-06
-3.59883e-07
7.26075e-07
-6.04668e-06
1.51417e-06
1.38607e-05
8.28171e-06
-1.78498e-05
1.58364e-05
-3.30854e-05
2.20381e-05
-3.31201e-05
2.65537e-05
-2.58723e-05
2.89473e-05
-1.61081e-05
2.89049e-05
-6.02177e-06
2.75047e-05
6.02935e-07
2.55844e-05
4.4455e-06
2.33325e-05
8.45262e-06
2.03566e-05
1.63466e-05
1.60999e-05
2.50003e-05
1.10635e-05
2.56146e-05
7.52387e-06
1.69633e-05
5.40132e-06
9.98206e-06
3.85809e-06
7.33e-06
2.58398e-06
6.19525e-06
1.06959e-06
2.24044e-06
-4.97707e-06
5.11199e-06
8.74869e-06
1.3323e-05
-2.60608e-05
1.98855e-05
-3.96478e-05
2.44771e-05
-3.77117e-05
2.75632e-05
-2.89584e-05
2.91156e-05
-1.76605e-05
2.85631e-05
-5.46931e-06
2.64694e-05
2.6967e-06
2.39923e-05
6.92253e-06
2.1522e-05
1.0923e-05
1.90806e-05
1.8788e-05
1.61489e-05
2.79321e-05
1.2399e-05
2.93645e-05
9.24187e-06
2.01204e-05
7.1341e-06
1.20898e-05
5.61319e-06
8.85089e-06
4.3327e-06
7.47574e-06
2.40061e-06
4.17252e-06
-2.57645e-06
9.70522e-06
-9.5652e-07
1.86403e-05
-3.49959e-05
2.36906e-05
-4.46982e-05
2.65627e-05
-4.05839e-05
2.81997e-05
-3.05953e-05
2.88217e-05
-1.82825e-05
2.79961e-05
-4.64372e-06
2.53768e-05
5.31606e-06
2.24663e-05
9.83295e-06
2.01614e-05
1.32279e-05
1.82667e-05
2.06828e-05
1.63243e-05
2.98744e-05
1.38275e-05
3.18613e-05
1.11794e-05
2.27685e-05
8.94609e-06
1.43232e-05
7.37788e-06
1.04191e-05
5.95156e-06
8.90205e-06
3.68095e-06
6.44312e-06
1.10447e-06
1.5864e-05
-1.68205e-05
2.3914e-05
-4.30459e-05
2.6936e-05
-4.77201e-05
2.81588e-05
-4.18067e-05
2.84735e-05
-3.091e-05
2.8114e-05
-1.7923e-05
2.6961e-05
-3.49073e-06
2.4286e-05
7.99099e-06
2.13587e-05
1.27603e-05
1.92291e-05
1.53575e-05
1.7853e-05
2.20589e-05
1.66143e-05
3.11131e-05
1.52207e-05
3.32549e-05
1.29882e-05
2.50009e-05
1.07127e-05
1.65987e-05
9.09341e-06
1.20384e-05
7.5016e-06
1.04939e-05
4.86454e-06
9.08016e-06
5.96902e-06
2.3381e-05
-4.02015e-05
2.82837e-05
-4.79485e-05
2.9286e-05
-4.87224e-05
2.91265e-05
-4.16472e-05
2.82941e-05
-3.00776e-05
2.71302e-05
-1.67591e-05
2.55972e-05
-1.95773e-06
2.32099e-05
1.03783e-05
2.06089e-05
1.53613e-05
1.86327e-05
1.73337e-05
1.75955e-05
2.30962e-05
1.70159e-05
3.16927e-05
1.63311e-05
3.39398e-05
1.44167e-05
2.69153e-05
1.2289e-05
1.87264e-05
1.06951e-05
1.36323e-05
8.946e-06
1.2243e-05
5.79758e-06
1.22286e-05
1.17666e-05
2.90396e-06
-7.60746e-06
5.34253e-06
-7.75425e-06
7.14712e-06
-6.92331e-06
8.55727e-06
-6.17515e-06
9.71697e-06
-5.61402e-06
1.06605e-05
-5.20493e-06
1.14233e-05
-4.99391e-06
1.20624e-05
-4.997e-06
1.26247e-05
-5.13799e-06
1.31505e-05
-5.32309e-06
1.36845e-05
-5.46731e-06
1.42276e-05
-5.41704e-06
1.4793e-05
-5.1208e-06
1.54282e-05
-4.57632e-06
1.6217e-05
-3.7695e-06
1.72416e-05
-2.6087e-06
1.85938e-05
-1.01625e-06
2.04004e-05
1.00979e-06
2.27911e-05
3.38179e-06
2.58932e-05
5.78592e-06
2.97022e-05
7.94762e-06
3.53059e-05
8.90165e-06
7.73089e-06
5.29493e-05
2.78486e-06
-1.03923e-05
5.6328e-06
-1.06022e-05
7.92985e-06
-9.22036e-06
9.74595e-06
-7.99124e-06
1.115e-05
-7.01807e-06
1.21339e-05
-6.18886e-06
1.27932e-05
-5.65317e-06
1.32638e-05
-5.46764e-06
1.36235e-05
-5.49769e-06
1.39063e-05
-5.60581e-06
1.41441e-05
-5.70519e-06
1.42991e-05
-5.572e-06
1.44633e-05
-5.285e-06
1.48093e-05
-4.92233e-06
1.55235e-05
-4.48368e-06
1.67602e-05
-3.84541e-06
1.86291e-05
-2.88506e-06
2.12368e-05
-1.59794e-06
2.47072e-05
-8.86374e-08
2.91792e-05
1.31397e-06
3.51104e-05
2.01645e-06
4.30738e-05
9.38239e-07
-2.63861e-06
5.34433e-05
2.07253e-06
-1.24648e-05
4.98535e-06
-1.3515e-05
7.82558e-06
-1.20606e-05
1.02559e-05
-1.04216e-05
1.18982e-05
-8.66037e-06
1.29419e-05
-7.23256e-06
1.35813e-05
-6.29253e-06
1.4096e-05
-5.98235e-06
1.4667e-05
-6.06872e-06
1.52619e-05
-6.20069e-06
1.55997e-05
-6.043e-06
1.53045e-05
-5.27678e-06
1.47681e-05
-4.7486e-06
1.47041e-05
-4.85836e-06
1.53801e-05
-5.15974e-06
1.68478e-05
-5.31304e-06
1.92433e-05
-5.28063e-06
2.26161e-05
-4.9707e-06
2.69934e-05
-4.46588e-06
3.25868e-05
-4.27945e-06
3.97359e-05
-5.13271e-06
4.86173e-05
-7.94309e-06
-1.23723e-05
5.8351e-05
4.40745e-06
-1.68723e-05
4.35731e-06
-1.3465e-05
6.56488e-06
-1.42681e-05
9.82935e-06
-1.36861e-05
1.14012e-05
-1.02322e-05
1.23027e-05
-8.13402e-06
1.26947e-05
-6.68458e-06
1.35567e-05
-6.84432e-06
1.58597e-05
-8.37159e-06
1.93622e-05
-9.70326e-06
2.15681e-05
-8.24894e-06
2.0118e-05
-3.82667e-06
1.62981e-05
-9.28599e-07
1.49009e-05
-3.46112e-06
1.51732e-05
-5.43212e-06
1.61625e-05
-6.30248e-06
1.88454e-05
-7.96346e-06
2.2951e-05
-9.07635e-06
2.86647e-05
-1.01796e-05
3.58391e-05
-1.14539e-05
4.39994e-05
-1.3293e-05
5.30294e-05
-1.69731e-05
-2.15192e-05
6.21763e-05
1.05976e-05
-2.74699e-05
1.53771e-05
-1.82446e-05
1.25509e-05
-1.14419e-05
1.21934e-05
-1.33286e-05
1.38459e-05
-1.18848e-05
1.82497e-05
-1.25378e-05
2.40655e-05
-1.25003e-05
3.20552e-05
-1.4834e-05
4.24232e-05
-1.87396e-05
5.42609e-05
-2.15409e-05
6.63127e-05
-2.03007e-05
7.56057e-05
-1.31197e-05
6.75225e-05
7.15461e-06
4.9957e-05
1.41044e-05
3.74062e-05
7.11877e-06
2.95262e-05
1.57749e-06
2.29731e-05
-1.41055e-06
2.24767e-05
-8.57992e-06
2.879e-05
-1.64928e-05
3.7153e-05
-1.98168e-05
4.65033e-05
-2.26433e-05
5.62999e-05
-2.67699e-05
-3.32181e-05
6.79988e-05
1.58814e-05
-4.33513e-05
2.45827e-05
-2.69461e-05
2.25853e-05
-9.44458e-06
1.72037e-05
-7.94712e-06
1.83007e-05
-1.29817e-05
2.47653e-05
-1.90024e-05
3.1427e-05
-1.9162e-05
3.78344e-05
-2.12414e-05
4.52349e-05
-2.61401e-05
5.28263e-05
-2.91322e-05
5.75385e-05
-2.50129e-05
5.7662e-05
-1.32432e-05
5.37579e-05
1.10585e-05
4.62874e-05
2.15748e-05
3.79929e-05
1.54136e-05
3.08509e-05
8.71964e-06
2.18954e-05
7.54504e-06
6.17053e-06
7.14509e-06
-4.01516e-06
-6.30703e-06
-3.67799e-06
-2.01541e-05
-6.40498e-06
-1.99164e-05
-2.27374e-05
-1.04373e-05
1.56482e-06
-5.75201e-05
1.01018e-05
-5.3453e-05
1.45671e-05
-3.14118e-05
2.07557e-05
-1.56335e-05
2.5195e-05
-1.23865e-05
2.83052e-05
-1.60922e-05
2.96852e-05
-2.03825e-05
3.48329e-05
-2.43097e-05
3.8744e-05
-2.51525e-05
4.15373e-05
-2.89335e-05
4.37057e-05
-3.13007e-05
4.29241e-05
-2.42313e-05
3.73594e-05
-7.6784e-06
3.66012e-05
1.18167e-05
3.68834e-05
2.12925e-05
3.26251e-05
1.96719e-05
2.55747e-05
1.57701e-05
1.71052e-05
1.60146e-05
4.28532e-06
1.9965e-05
-7.73744e-06
5.71588e-06
-1.49053e-05
-1.29862e-05
-2.3076e-05
-1.17457e-05
-3.94183e-05
5.90501e-06
2.60989e-05
-6.39522e-05
1.81175e-06
-5.52649e-05
7.5733e-06
-3.71735e-05
1.57846e-05
-2.3845e-05
2.28025e-05
-1.94045e-05
2.76055e-05
-2.08952e-05
3.16705e-05
-2.44474e-05
3.42669e-05
-2.69061e-05
3.69504e-05
-2.78359e-05
3.59233e-05
-2.79064e-05
2.98555e-05
-2.52329e-05
2.2812e-05
-1.71878e-05
2.06719e-05
-5.53822e-06
2.28253e-05
9.66341e-06
2.50881e-05
1.90298e-05
2.26435e-05
2.21164e-05
1.5553e-05
2.28607e-05
6.75614e-06
2.48114e-05
5.22733e-07
2.61986e-05
-8.33574e-06
1.45743e-05
-2.08133e-05
-5.08702e-07
-3.27801e-05
2.21193e-07
-5.07642e-05
2.38891e-05
3.36431e-05
-5.83087e-05
-1.47691e-06
-5.37882e-05
1.35698e-06
-4.00078e-05
7.14596e-06
-2.96341e-05
1.27866e-05
-2.50456e-05
1.65253e-05
-2.46337e-05
1.82459e-05
-2.61679e-05
1.86559e-05
-2.73161e-05
1.76964e-05
-2.68764e-05
1.4505e-05
-2.47149e-05
9.83337e-06
-2.05612e-05
6.43674e-06
-1.37911e-05
5.24622e-06
-4.34771e-06
7.14674e-06
7.76303e-06
8.45245e-06
1.77242e-05
6.64969e-06
2.39193e-05
2.49952e-06
2.70111e-05
-1.90557e-06
2.92168e-05
-4.49788e-06
2.87911e-05
-8.98179e-06
1.90582e-05
-1.91584e-05
9.66801e-06
-3.36268e-05
1.46896e-05
-4.38283e-05
3.40906e-05
3.43538e-05
-4.45388e-05
-3.98674e-06
-4.98017e-05
-4.18489e-06
-3.98097e-05
-1.64281e-06
-3.21763e-05
1.32454e-06
-2.80131e-05
3.2548e-06
-2.6564e-05
3.60196e-06
-2.65152e-05
2.61161e-06
-2.63261e-05
5.74124e-07
-2.4839e-05
-2.28684e-06
-2.18538e-05
-5.50408e-06
-1.73437e-05
-8.2677e-06
-1.10272e-05
-9.86895e-06
-2.74641e-06
-9.3856e-06
7.27973e-06
-7.86407e-06
1.62028e-05
-6.62899e-06
2.26843e-05
-6.33755e-06
2.67198e-05
-6.18139e-06
2.90608e-05
-5.89037e-06
2.85e-05
-8.67281e-06
2.18407e-05
-1.59942e-05
1.69893e-05
-2.44292e-05
2.31247e-05
-2.78649e-05
3.75264e-05
3.42606e-05
-2.77718e-05
-6.28837e-06
-4.35136e-05
-8.93197e-06
-3.7166e-05
-9.24847e-06
-3.18601e-05
-8.76237e-06
-2.84992e-05
-8.60473e-06
-2.6722e-05
-9.36371e-06
-2.57562e-05
-1.10794e-05
-2.46103e-05
-1.33766e-05
-2.25418e-05
-1.59343e-05
-1.9296e-05
-1.84593e-05
-1.48186e-05
-2.04785e-05
-9.00779e-06
-2.13473e-05
-1.87757e-06
-2.02567e-05
6.18923e-06
-1.76925e-05
1.36386e-05
-1.44984e-05
1.94903e-05
-1.12766e-05
2.34982e-05
-8.08179e-06
2.58661e-05
-5.60624e-06
2.60243e-05
-7.1847e-06
2.34192e-05
-1.24291e-05
2.22337e-05
-1.6265e-05
2.69606e-05
-1.4051e-05
3.53122e-05
3.03215e-05
-1.01117e-05
-7.92293e-06
-3.55907e-05
-1.25067e-05
-3.25825e-05
-1.49543e-05
-2.94127e-05
-1.63921e-05
-2.70614e-05
-1.76693e-05
-2.54449e-05
-1.92788e-05
-2.41465e-05
-2.12884e-05
-2.26006e-05
-2.34825e-05
-2.03477e-05
-2.55945e-05
-1.71839e-05
-2.73563e-05
-1.30566e-05
-2.84081e-05
-7.95597e-06
-2.82951e-05
-1.99055e-06
-2.6544e-05
4.4381e-06
-2.33643e-05
1.0459e-05
-1.92846e-05
1.54105e-05
-1.48419e-05
1.90556e-05
-1.04299e-05
2.14541e-05
-6.93953e-06
2.25339e-05
-6.0813e-06
2.25609e-05
-7.42123e-06
2.35737e-05
-7.58638e-06
2.71259e-05
-2.79455e-06
3.05201e-05
2.40364e-05
3.49013e-06
-8.79735e-06
-2.67929e-05
-1.46318e-05
-2.67482e-05
-1.85028e-05
-2.55415e-05
-2.12516e-05
-2.43127e-05
-2.351e-05
-2.31863e-05
-2.56528e-05
-2.20039e-05
-2.77747e-05
-2.04786e-05
-2.97643e-05
-1.83577e-05
-3.14336e-05
-1.55144e-05
-3.25655e-05
-1.19248e-05
-3.28942e-05
-7.62728e-06
-3.21188e-05
-2.76586e-06
-3.00074e-05
2.32681e-06
-2.66782e-05
7.12996e-06
-2.24962e-05
1.12287e-05
-1.78968e-05
1.44563e-05
-1.33027e-05
1.68601e-05
-9.32685e-06
1.8558e-05
-6.66315e-06
1.98972e-05
-4.8457e-06
2.17563e-05
-1.95927e-06
2.42396e-05
3.57604e-06
2.4985e-05
1.8488e-05
9.12429e-06
-8.95623e-06
-1.78369e-05
-1.53655e-05
-2.03387e-05
-2.00195e-05
-2.08875e-05
-2.35384e-05
-2.07938e-05
-2.63811e-05
-2.03432e-05
-2.8829e-05
-1.9556e-05
-3.0978e-05
-1.83299e-05
-3.27814e-05
-1.65543e-05
-3.41202e-05
-1.41755e-05
-3.48415e-05
-1.12035e-05
-3.47651e-05
-7.70366e-06
-3.37113e-05
-3.8196e-06
-3.15817e-05
1.97199e-07
-2.84732e-05
4.02125e-06
-2.46433e-05
7.39867e-06
-2.04164e-05
1.02292e-05
-1.6118e-05
1.25617e-05
-1.20948e-05
1.45347e-05
-8.58566e-06
1.6388e-05
-5.22087e-06
1.83914e-05
-1.1161e-06
2.01348e-05
4.01957e-06
1.98493e-05
1.46186e-05
7.88905e-06
-8.505e-06
-9.33211e-06
-1.4919e-05
-1.39244e-05
-1.98327e-05
-1.59738e-05
-2.36885e-05
-1.69379e-05
-2.68074e-05
-1.72243e-05
-2.93919e-05
-1.69715e-05
-3.15262e-05
-1.61957e-05
-3.31999e-05
-1.48807e-05
-3.43457e-05
-1.30297e-05
-3.48678e-05
-1.06815e-05
-3.46564e-05
-7.91509e-06
-3.36159e-05
-4.86003e-06
-3.17165e-05
-1.7021e-06
-2.90441e-05
1.34876e-06
-2.57813e-05
4.13551e-06
-2.21528e-05
6.60056e-06
-1.83773e-05
8.78603e-06
-1.46378e-05
1.07955e-05
-1.09965e-05
1.27468e-05
-7.24629e-06
1.46411e-05
-3.11511e-06
1.60034e-05
1.06333e-06
1.56707e-05
1.22221e-05
3.45977e-06
-7.57159e-06
-1.76016e-06
-1.35469e-05
-7.94916e-06
-1.8318e-05
-1.12026e-05
-2.2185e-05
-1.30706e-05
-2.53518e-05
-1.4058e-05
-2.79502e-05
-1.43732e-05
-3.0044e-05
-1.41018e-05
-3.16391e-05
-1.32856e-05
-3.27026e-05
-1.19662e-05
-3.31806e-05
-1.02035e-05
-3.3014e-05
-8.08176e-06
-3.21596e-05
-5.7145e-06
-3.06209e-05
-3.2409e-06
-2.84703e-05
-8.01874e-07
-2.58366e-05
1.50154e-06
-2.28705e-05
3.63444e-06
-1.97103e-05
5.62576e-06
-1.64523e-05
7.53765e-06
-1.31145e-05
9.40897e-06
-9.62577e-06
1.11523e-05
-6.01172e-06
1.23893e-05
-2.77827e-06
1.24373e-05
1.07475e-05
-1.30354e-06
-6.30997e-06
4.55011e-06
-1.14923e-05
-2.76706e-06
-1.58269e-05
-6.86799e-06
-1.94748e-05
-9.42282e-06
-2.25268e-05
-1.10065e-05
-2.50484e-05
-1.18516e-05
-2.70778e-05
-1.20723e-05
-2.86235e-05
-1.17398e-05
-2.96713e-05
-1.09183e-05
-3.01947e-05
-9.68007e-06
-3.01663e-05
-8.11021e-06
-2.95725e-05
-6.30837e-06
-2.84308e-05
-4.38273e-06
-2.67992e-05
-2.43352e-06
-2.47675e-05
-5.30105e-07
-2.24361e-05
1.30296e-06
-1.98918e-05
3.08128e-06
-1.71902e-05
4.83585e-06
-1.4349e-05
6.56747e-06
-1.13786e-05
8.1817e-06
-8.41276e-06
9.42334e-06
-5.89973e-06
9.92435e-06
9.55426e-06
-4.70647e-06
-4.8042e-06
9.3541e-06
-8.97304e-06
1.40166e-06
-1.26802e-05
-3.16095e-06
-1.59514e-05
-6.15182e-06
-1.87752e-05
-8.18286e-06
-2.11507e-05
-9.47605e-06
-2.30877e-05
-1.01352e-05
-2.45888e-05
-1.02385e-05
-2.56475e-05
-9.8597e-06
-2.62515e-05
-9.07615e-06
-2.63904e-05
-7.9713e-06
-2.60651e-05
-6.63367e-06
-2.52967e-05
-5.15126e-06
-2.413e-05
-3.6005e-06
-2.2627e-05
-2.03323e-06
-2.08539e-05
-4.70169e-07
-1.88664e-05
1.09383e-06
-1.67012e-05
2.6704e-06
-1.43802e-05
4.2464e-06
-1.19454e-05
5.74684e-06
-9.53493e-06
7.0128e-06
-7.46552e-06
7.85494e-06
8.22599e-06
-6.13721e-06
-3.35066e-06
1.27045e-05
-6.32133e-06
4.3724e-06
-9.19257e-06
-2.8965e-07
-1.19772e-05
-3.36713e-06
-1.44842e-05
-5.67568e-06
-1.66534e-05
-7.30682e-06
-1.84638e-05
-8.32479e-06
-1.99064e-05
-8.79602e-06
-2.0973e-05
-8.7933e-06
-2.16557e-05
-8.39352e-06
-2.1951e-05
-7.67607e-06
-2.18643e-05
-6.72035e-06
-2.14148e-05
-5.60083e-06
-2.06356e-05
-4.37974e-06
-1.95693e-05
-3.09957e-06
-1.82593e-05
-1.7802e-06
-1.67414e-05
-4.2388e-07
-1.50416e-05
9.70507e-07
-1.31816e-05
2.38643e-06
-1.1205e-05
3.77025e-06
-9.21678e-06
5.02459e-06
-7.40354e-06
6.04179e-06
6.77631e-06
-5.95375e-06
-1.96622e-06
1.46707e-05
-3.7923e-06
6.19863e-06
-5.69418e-06
1.61239e-06
-7.88002e-06
-1.18103e-06
-9.99355e-06
-3.56197e-06
-1.18989e-05
-5.40146e-06
-1.35439e-05
-6.67979e-06
-1.49018e-05
-7.43824e-06
-1.59556e-05
-7.73969e-06
-1.66943e-05
-7.65489e-06
-1.71137e-05
-7.25666e-06
-1.72182e-05
-6.61586e-06
-1.7022e-05
-5.79701e-06
-1.65485e-05
-4.85321e-06
-1.58264e-05
-3.82169e-06
-1.48839e-05
-2.72269e-06
-1.37443e-05
-1.56346e-06
-1.24254e-05
-3.48504e-07
-1.09457e-05
9.06735e-07
-9.3397e-06
2.1643e-06
-7.67715e-06
3.36219e-06
-6.06571e-06
4.43054e-06
5.31881e-06
-4.6081e-06
-2.99689e-07
1.49705e-05
-1.11929e-06
7.01829e-06
-2.34512e-06
2.83839e-06
-3.90934e-06
3.83402e-07
-5.58024e-06
-1.89111e-06
-7.17851e-06
-3.80322e-06
-8.62325e-06
-5.23503e-06
-9.86686e-06
-6.19471e-06
-1.08789e-05
-6.72767e-06
-1.16407e-05
-6.89307e-06
-1.2143e-05
-6.75422e-06
-1.23859e-05
-6.37298e-06
-1.23776e-05
-5.80535e-06
-1.21331e-05
-5.09761e-06
-1.16714e-05
-4.28347e-06
-1.10107e-05
-3.38351e-06
-1.0166e-05
-2.40821e-06
-9.14958e-06
-1.365e-06
-7.97556e-06
-2.67358e-07
-6.66898e-06
8.5773e-07
-5.27535e-06
1.96857e-06
-3.86037e-06
3.01555e-06
3.94847e-06
-2.4901e-06
2.11731e-06
1.28533e-05
1.82575e-06
7.30981e-06
8.78539e-07
3.78583e-06
-2.15622e-07
1.4776e-06
-1.45822e-06
-6.48626e-07
-2.73931e-06
-2.52212e-06
-3.96289e-06
-4.01151e-06
-5.06542e-06
-5.09234e-06
-6.00432e-06
-5.7888e-06
-6.75218e-06
-6.14511e-06
-7.29349e-06
-6.21284e-06
-7.62245e-06
-6.04404e-06
-7.74125e-06
-5.68654e-06
-7.65811e-06
-5.18065e-06
-7.38468e-06
-4.55691e-06
-6.93253e-06
-3.83567e-06
-6.31162e-06
-3.02916e-06
-5.53067e-06
-2.14612e-06
-4.60019e-06
-1.198e-06
-3.53846e-06
-2.04112e-07
-2.37666e-06
8.06665e-07
-1.15908e-06
1.79785e-06
2.72528e-06
6.39695e-08
3.90213e-06
8.95125e-06
4.30552e-06
6.90639e-06
3.75859e-06
4.33291e-06
3.03163e-06
2.20443e-06
2.15497e-06
2.28023e-07
1.18278e-06
-1.54988e-06
1.95827e-07
-3.02473e-06
-7.38056e-07
-4.15876e-06
-1.56908e-06
-4.95789e-06
-2.26297e-06
-5.45116e-06
-2.79803e-06
-5.67775e-06
-3.16264e-06
-5.67945e-06
-3.35327e-06
-5.49592e-06
-3.37235e-06
-5.16148e-06
-3.22603e-06
-4.70323e-06
-2.92132e-06
-4.14041e-06
-2.4649e-06
-3.48563e-06
-1.86326e-06
-2.74786e-06
-1.12479e-06
-1.93654e-06
-2.63553e-07
-1.06534e-06
6.97248e-07
-1.54101e-07
1.72431e-06
7.70799e-07
1.67437e-06
2.77516e-06
3.92981e-06
5.02137e-06
5.40011e-06
5.43601e-06
5.64461e-06
4.08821e-06
5.43437e-06
2.41439e-06
4.97194e-06
6.90514e-07
4.34261e-06
-9.20512e-07
3.62962e-06
-2.31199e-06
2.9047e-06
-3.43414e-06
2.224e-06
-4.27728e-06
1.62843e-06
-4.85555e-06
1.14602e-06
-5.19534e-06
7.94262e-07
-5.32777e-06
5.82249e-07
-5.28398e-06
5.12706e-07
-5.09195e-06
5.84074e-07
-4.77465e-06
7.92826e-07
-4.34921e-06
1.13465e-06
-3.82745e-06
1.60446e-06
-3.21766e-06
2.19519e-06
-2.52723e-06
2.89532e-06
-1.76537e-06
3.68635e-06
-9.45022e-07
4.54118e-06
-8.39531e-08
7.92759e-07
5.42283e-06
3.14326e-06
1.87786e-06
5.2352e-06
3.34384e-06
6.29432e-06
3.02855e-06
6.73787e-06
1.97053e-06
6.78339e-06
6.45037e-07
6.56239e-06
-6.99497e-07
6.17729e-06
-1.92709e-06
5.71084e-06
-2.96787e-06
5.22783e-06
-3.79425e-06
4.77689e-06
-4.40451e-06
4.39299e-06
-4.81139e-06
4.09979e-06
-5.03465e-06
3.91197e-06
-5.09628e-06
3.83727e-06
-5.01731e-06
3.87836e-06
-4.81581e-06
4.03488e-06
-4.50578e-06
4.30461e-06
-4.09719e-06
4.68371e-06
-3.59678e-06
5.16617e-06
-3.00972e-06
5.74221e-06
-2.34141e-06
6.39643e-06
-1.59924e-06
7.10613e-06
-7.93661e-07
5.94645e-08
7.83942e-06
2.39338e-06
-5.15739e-07
4.57705e-06
1.15987e-06
6.12398e-06
1.48109e-06
7.10422e-06
9.90128e-07
7.63651e-06
1.12791e-07
7.8358e-06
-8.98761e-07
7.80439e-06
-1.89578e-06
7.62897e-06
-2.79245e-06
7.37969e-06
-3.54487e-06
7.11114e-06
-4.13585e-06
6.86428e-06
-4.56445e-06
6.6684e-06
-4.83882e-06
6.54341e-06
-4.9714e-06
6.50173e-06
-4.97572e-06
6.55006e-06
-4.86421e-06
6.6911e-06
-4.64688e-06
6.9248e-06
-4.3309e-06
7.24874e-06
-3.92076e-06
7.65806e-06
-3.4191e-06
8.14453e-06
-2.82797e-06
8.69532e-06
-2.15012e-06
9.29152e-06
-1.38997e-06
-5.55591e-07
9.90647e-06
1.91185e-06
-2.42769e-06
3.92188e-06
-8.50368e-07
5.61173e-06
-2.09017e-07
6.88978e-06
-2.87896e-07
7.77227e-06
-7.69637e-07
8.3214e-06
-1.44786e-06
8.61313e-06
-2.18753e-06
8.72232e-06
-2.90157e-06
8.71498e-06
-3.53746e-06
8.64595e-06
-4.06678e-06
8.55862e-06
-4.47708e-06
8.48573e-06
-4.76598e-06
8.45102e-06
-4.93679e-06
8.47074e-06
-4.99548e-06
8.55504e-06
-4.94851e-06
8.70952e-06
-4.80133e-06
8.93629e-06
-4.5576e-06
9.23458e-06
-4.219e-06
9.60093e-06
-3.78545e-06
1.00288e-05
-3.25585e-06
1.05077e-05
-2.62911e-06
1.10224e-05
-1.9048e-06
-1.08485e-06
1.15516e-05
1.62488e-06
-4.0526e-06
3.40224e-06
-2.62776e-06
5.0347e-06
-1.84144e-06
6.40325e-06
-1.65638e-06
7.47105e-06
-1.83738e-06
8.25312e-06
-2.22993e-06
8.79164e-06
-2.72607e-06
9.1395e-06
-3.2494e-06
9.34994e-06
-3.74791e-06
9.47134e-06
-4.18821e-06
9.54475e-06
-4.55046e-06
9.60306e-06
-4.82427e-06
9.67153e-06
-5.00526e-06
9.76866e-06
-5.09256e-06
9.90708e-06
-5.08685e-06
1.00947e-05
-4.98884e-06
1.03356e-05
-4.79843e-06
1.06308e-05
-4.5141e-06
1.09783e-05
-4.13295e-06
1.13734e-05
-3.65094e-06
1.18079e-05
-3.06373e-06
1.22701e-05
-2.36711e-06
-1.55845e-06
1.27437e-05
1.43068e-06
-5.48322e-06
2.98843e-06
-4.18542e-06
4.48464e-06
-3.33742e-06
5.82006e-06
-2.99174e-06
6.9442e-06
-2.96144e-06
7.84586e-06
-3.13161e-06
8.54088e-06
-3.42108e-06
9.06028e-06
-3.76875e-06
9.44145e-06
-4.12909e-06
9.72241e-06
-4.46919e-06
9.93817e-06
-4.76614e-06
1.01187e-05
-5.00464e-06
1.02882e-05
-5.17475e-06
1.04659e-05
-5.27008e-06
1.06653e-05
-5.28622e-06
1.0896e-05
-5.21948e-06
1.11636e-05
-5.06598e-06
1.14704e-05
-4.82104e-06
1.18163e-05
-4.4789e-06
1.2198e-05
-4.03284e-06
1.26099e-05
-3.47576e-06
1.30433e-05
-2.80057e-06
-2.00145e-06
1.34862e-05
1.26571e-06
-6.74876e-06
2.62772e-06
-5.54728e-06
3.96923e-06
-4.67866e-06
5.21431e-06
-4.23672e-06
6.31584e-06
-4.06282e-06
7.25279e-06
-4.06852e-06
8.02544e-06
-4.19364e-06
8.64861e-06
-4.39182e-06
9.14575e-06
-4.62617e-06
9.54414e-06
-4.86752e-06
9.87126e-06
-5.09313e-06
1.01523e-05
-5.28554e-06
1.0409e-05
-5.43138e-06
1.06592e-05
-5.52023e-06
1.09167e-05
-5.54365e-06
1.11913e-05
-5.49418e-06
1.14898e-05
-5.36455e-06
1.18156e-05
-5.14708e-06
1.21699e-05
-4.83337e-06
1.25511e-05
-4.41429e-06
1.29556e-05
-3.88041e-06
1.33773e-05
-3.22245e-06
-2.43241e-06
1.38082e-05
1.10419e-06
-7.85282e-06
2.28915e-06
-6.7321e-06
3.4787e-06
-5.86809e-06
4.6124e-06
-5.37025e-06
5.64983e-06
-5.10009e-06
6.56822e-06
-4.98682e-06
7.36031e-06
-4.98556e-06
8.03087e-06
-5.06218e-06
8.59323e-06
-5.18838e-06
9.06579e-06
-5.33994e-06
9.46895e-06
-5.49614e-06
9.82277e-06
-5.63924e-06
1.01456e-05
-5.75412e-06
1.04531e-05
-5.82779e-06
1.07582e-05
-5.84883e-06
1.10707e-05
-5.80678e-06
1.13976e-05
-5.69153e-06
1.17432e-05
-5.49283e-06
1.21097e-05
-5.19993e-06
1.24968e-05
-4.80161e-06
1.29028e-05
-4.28649e-06
1.33239e-05
-3.64361e-06
-2.8635e-06
1.3755e-05
9.41239e-07
-8.79409e-06
1.96237e-06
-7.75313e-06
3.00769e-06
-6.91347e-06
4.02474e-06
-6.38713e-06
4.97833e-06
-6.05354e-06
5.84656e-06
-5.85492e-06
6.619e-06
-5.75781e-06
7.29495e-06
-5.73789e-06
7.88125e-06
-5.77445e-06
8.38988e-06
-5.84835e-06
8.83551e-06
-5.94159e-06
9.23363e-06
-6.03724e-06
9.5991e-06
-6.11956e-06
9.94536e-06
-6.17406e-06
1.02838e-05
-6.18731e-06
1.06236e-05
-6.14661e-06
1.09717e-05
-6.03966e-06
1.13329e-05
-5.85408e-06
1.17102e-05
-5.57718e-06
1.21045e-05
-5.19599e-06
1.25156e-05
-4.69752e-06
1.29414e-05
-4.06946e-06
-3.30132e-06
1.33793e-05
7.80472e-07
-9.57465e-06
1.64806e-06
-8.62066e-06
2.55692e-06
-7.82239e-06
3.45793e-06
-7.28796e-06
4.31894e-06
-6.91442e-06
5.11911e-06
-6.65494e-06
5.84685e-06
-6.48537e-06
6.49875e-06
-6.38955e-06
7.07789e-06
-6.35332e-06
7.59196e-06
-6.36218e-06
8.05146e-06
-6.40091e-06
8.46819e-06
-6.45384e-06
8.85397e-06
-6.5053e-06
9.21995e-06
-6.54002e-06
9.57598e-06
-6.54332e-06
9.93035e-06
-6.50097e-06
1.02898e-05
-6.39903e-06
1.06592e-05
-6.22351e-06
1.10423e-05
-5.96021e-06
1.14411e-05
-5.59473e-06
1.18564e-05
-5.1128e-06
1.2288e-05
-4.50102e-06
-3.74803e-06
1.27348e-05
6.27637e-07
-1.02023e-05
1.35089e-06
-9.34381e-06
2.13008e-06
-8.60142e-06
2.91761e-06
-8.07526e-06
3.68264e-06
-7.67925e-06
4.40473e-06
-7.37684e-06
5.07201e-06
-7.15246e-06
5.67989e-06
-6.99723e-06
6.22943e-06
-6.90263e-06
6.72568e-06
-6.85823e-06
7.17627e-06
-6.85134e-06
7.59014e-06
-6.8676e-06
7.97666e-06
-6.89173e-06
8.3449e-06
-6.9082e-06
8.70324e-06
-6.9016e-06
9.05907e-06
-6.85675e-06
9.41867e-06
-6.7586e-06
9.78723e-06
-6.59203e-06
1.01688e-05
-6.34175e-06
1.05664e-05
-5.99231e-06
1.0982e-05
-5.52844e-06
1.14168e-05
-4.93581e-06
-4.20226e-06
1.18711e-05
4.87067e-07
-1.06892e-05
1.07473e-06
-9.93121e-06
1.7306e-06
-9.25692e-06
2.40842e-06
-8.75279e-06
3.07703e-06
-8.34759e-06
3.71576e-06
-8.01534e-06
4.31279e-06
-7.74931e-06
4.86332e-06
-7.54757e-06
5.36753e-06
-7.40666e-06
5.82894e-06
-7.3195e-06
6.2532e-06
-7.27551e-06
6.64716e-06
-7.26148e-06
7.01816e-06
-7.26265e-06
7.37356e-06
-7.2635e-06
7.72037e-06
-7.24833e-06
8.06514e-06
-7.20144e-06
8.41374e-06
-7.10716e-06
8.77141e-06
-6.9497e-06
9.14271e-06
-6.71307e-06
9.53151e-06
-6.38114e-06
9.94101e-06
-5.93797e-06
1.03737e-05
-5.36851e-06
-4.65976e-06
1.08311e-05
3.59332e-07
-1.10483e-05
8.1918e-07
-1.03906e-05
1.35933e-06
-9.79667e-06
1.93341e-06
-9.3266e-06
2.5078e-06
-8.9217e-06
3.06112e-06
-8.56841e-06
3.58214e-06
-8.27013e-06
4.06664e-06
-8.03188e-06
4.5147e-06
-7.85457e-06
4.92906e-06
-7.73377e-06
5.31406e-06
-7.66044e-06
5.67492e-06
-7.62229e-06
6.01738e-06
-7.60501e-06
6.3473e-06
-7.5933e-06
6.67054e-06
-7.57144e-06
6.99281e-06
-7.52362e-06
7.31963e-06
-7.43392e-06
7.65624e-06
-7.2863e-06
8.00765e-06
-7.06449e-06
8.37857e-06
-6.7521e-06
8.77341e-06
-6.33286e-06
9.1961e-06
-5.79127e-06
-5.11358e-06
9.64984e-06
2.3804e-07
-1.12861e-05
5.76879e-07
-1.0729e-05
1.01357e-06
-1.02331e-05
1.49408e-06
-9.80693e-06
1.97943e-06
-9.40684e-06
2.44792e-06
-9.03669e-06
2.89001e-06
-8.71201e-06
3.30303e-06
-8.4447e-06
3.68768e-06
-8.2391e-06
4.04645e-06
-8.09248e-06
4.38273e-06
-7.99669e-06
4.70052e-06
-7.94002e-06
5.00417e-06
-7.90855e-06
5.29829e-06
-7.88727e-06
5.5877e-06
-7.8607e-06
5.87733e-06
-7.81315e-06
6.17229e-06
-7.72882e-06
6.47779e-06
-7.59177e-06
6.79916e-06
-7.38587e-06
7.14191e-06
-7.09488e-06
7.51165e-06