/*--------------------------------*- C++ -*----------------------------------*\
| =========                 |                                                 |
| \\      /  F ield         | OpenFOAM: The Open Source CFD Toolbox           |
|  \\    /   O peration     | Version:  2.3.0                                 |
|   \\  /    A nd           | Web:      www.OpenFOAM.org                      |
|    \\/     M anipulation  |                                                 |
\*---------------------------------------------------------------------------*/
FoamFile
{
    version     2.0;
    format      ascii;
    class       volVectorField;
    location    "1.75";
    object      U;
}
// * * * * * * * * * * * * * * * * * * * * * * * * * * * * * * * * * * * * * //

dimensions      [0 1 -1 0 0 0 0];

internalField   nonuniform List<vector> 
2268
(
(-0.0171122 0.00474926 0)
(-0.0131877 -0.00294476 0)
(-0.00108263 -0.00534291 0)
(0.0104893 -0.00468153 0)
(0.0207751 -0.00378649 0)
(0.0293021 -0.00310544 0)
(0.0366734 -0.00275662 0)
(0.043645 -0.00269788 0)
(0.050771 -0.00281251 0)
(0.0583045 -0.00297511 0)
(0.0662117 -0.00308134 0)
(0.0742241 -0.0030501 0)
(0.0818862 -0.00282165 0)
(0.0885803 -0.00232883 0)
(0.0934379 -0.00144699 0)
(0.0953776 0.000165794 0)
(0.0921807 0.00252702 0)
(0.0813499 0.00643553 0)
(0.057536 0.0124742 0)
(0.0191787 0.0162742 0)
(-0.0264329 0.0157316 0)
(-0.0651171 0.00234164 0)
(-0.0387996 -0.0215266 0)
(-0.00834296 0.00938973 0)
(-0.000348282 -0.00496417 0)
(0.00829013 -0.00843428 0)
(0.0168256 -0.00787699 0)
(0.0247943 -0.00670039 0)
(0.0320551 -0.00577151 0)
(0.038938 -0.00532153 0)
(0.045865 -0.00530766 0)
(0.0531435 -0.00555741 0)
(0.0608798 -0.00586739 0)
(0.0689735 -0.00605406 0)
(0.0771372 -0.0059608 0)
(0.0849236 -0.00546371 0)
(0.0917489 -0.0044259 0)
(0.0968596 -0.0026319 0)
(0.0992554 0.000322815 0)
(0.0978782 0.00485588 0)
(0.0909296 0.0117351 0)
(0.075591 0.0218369 0)
(0.0495935 0.0293115 0)
(0.0156656 0.0293175 0)
(-0.019957 0.0101169 0)
(-0.0133331 -0.0368733 0)
(0.00202117 0.00842446 0)
(0.00768419 -0.00795469 0)
(0.0142973 -0.0116234 0)
(0.0209486 -0.0110012 0)
(0.0275263 -0.0096864 0)
(0.0339727 -0.0086789 0)
(0.0404499 -0.00825955 0)
(0.0471947 -0.00838101 0)
(0.0543783 -0.00882215 0)
(0.0620295 -0.00931002 0)
(0.0700208 -0.00958869 0)
(0.0780663 -0.00942972 0)
(0.08574 -0.00864969 0)
(0.0925068 -0.00705475 0)
(0.0977089 -0.00435832 0)
(0.100508 -0.000105844 0)
(0.0999561 0.00630592 0)
(0.0949526 0.0156757 0)
(0.0847572 0.0286322 0)
(0.0683169 0.0394632 0)
(0.0453409 0.0412385 0)
(0.0153819 0.0200918 0)
(0.00856913 -0.0366121 0)
(0.00809958 0.00431676 0)
(0.0131438 -0.0107963 0)
(0.0187334 -0.0144114 0)
(0.0243196 -0.0138359 0)
(0.0300288 -0.012532 0)
(0.0358992 -0.0115625 0)
(0.0420071 -0.0112514 0)
(0.0484872 -0.0115522 0)
(0.0554345 -0.0122044 0)
(0.062838 -0.0128751 0)
(0.0705662 -0.0132445 0)
(0.0783497 -0.0130163 0)
(0.0857943 -0.0119546 0)
(0.0924278 -0.00982024 0)
(0.0977036 -0.00627381 0)
(0.100965 -0.000802352 0)
(0.101493 0.0072568 0)
(0.0986072 0.0186297 0)
(0.0924688 0.033471 0)
(0.0826849 0.0468707 0)
(0.0672073 0.0512111 0)
(0.0430694 0.0315007 0)
(0.0266273 -0.0263432 0)
(0.0106109 -0.00140746 0)
(0.0166291 -0.0137867 0)
(0.0221463 -0.0169271 0)
(0.0273557 -0.0163866 0)
(0.032615 -0.0151697 0)
(0.0380965 -0.0143116 0)
(0.0438564 -0.0141541 0)
(0.0499868 -0.0146523 0)
(0.056551 -0.0155157 0)
(0.06353 -0.0163645 0)
(0.0708133 -0.0168253 0)
(0.0781647 -0.0165383 0)
(0.0852343 -0.0152252 0)
(0.091628 -0.0126191 0)
(0.0969276 -0.00835286 0)
(0.100667 -0.00188689 0)
(0.102382 0.0074363 0)
(0.101749 0.020213 0)
(0.0991485 0.0362405 0)
(0.0945416 0.0514737 0)
(0.084805 0.0588786 0)
(0.0664089 0.0440484 0)
(0.0422497 -0.00707284 0)
(0.0112601 -0.00791592 0)
(0.0188137 -0.0171929 0)
(0.024959 -0.0194663 0)
(0.0303414 -0.0188204 0)
(0.0355086 -0.0176601 0)
(0.0407704 -0.0169069 0)
(0.0462023 -0.0168905 0)
(0.0518958 -0.0175644 0)
(0.0579199 -0.0186144 0)
(0.0642771 -0.0196243 0)
(0.0709043 -0.0201774 0)
(0.0776179 -0.0198528 0)
(0.084125 -0.0183397 0)
(0.0901248 -0.0153632 0)
(0.0953434 -0.0105546 0)
(0.0995109 -0.00337455 0)
(0.102401 0.00679037 0)
(0.103983 0.0203983 0)
(0.104692 0.0370712 0)
(0.104582 0.0535784 0)
(0.100039 0.0642178 0)
(0.0882345 0.0572102 0)
(0.058009 0.0217272 0)
(0.011113 -0.0147704 0)
(0.0203311 -0.0211995 0)
(0.0275365 -0.0222899 0)
(0.0335091 -0.0213257 0)
(0.0388925 -0.0201069 0)
(0.0440934 -0.0193743 0)
(0.0492205 -0.0194232 0)
(0.0543943 -0.0202058 0)
(0.0597204 -0.0213885 0)
(0.0652487 -0.0225268 0)
(0.0709893 -0.02317 0)
(0.0768311 -0.0228331 0)
(0.0825518 -0.0211831 0)
(0.0879593 -0.0179576 0)
(0.0929393 -0.0128107 0)
(0.0974216 -0.00521965 0)
(0.101397 0.00537048 0)
(0.105064 0.0192953 0)
(0.108911 0.0361213 0)
(0.113109 0.0533702 0)
(0.114065 0.0668945 0)
(0.11046 0.0699579 0)
(0.076838 0.0632614 0)
(0.0109197 -0.0219461 0)
(0.021635 -0.0260185 0)
(0.0301017 -0.0256957 0)
(0.03694 -0.0241615 0)
(0.0427892 -0.022698 0)
(0.0480742 -0.0218138 0)
(0.0529297 -0.0217688 0)
(0.0575261 -0.0225298 0)
(0.0620294 -0.0237442 0)
(0.066555 -0.0249453 0)
(0.0712044 -0.0256567 0)
(0.0759512 -0.0253214 0)
(0.080659 -0.0236027 0)
(0.0852623 -0.0202771 0)
(0.0898233 -0.0150389 0)
(0.0944742 -0.00738397 0)
(0.0994018 0.00319096 0)
(0.104986 0.0169214 0)
(0.111802 0.0333575 0)
(0.120227 0.0506067 0)
(0.127556 0.0659479 0)
(0.132767 0.0775116 0)
(0.118884 0.118338 0)
(-0.09265 0.0234415 0)
(-0.107405 -0.00815323 0)
(-0.0264938 -0.0400339 0)
(0.0868347 -0.0434212 0)
(0.195109 -0.0356977 0)
(0.279369 -0.0254773 0)
(0.332292 -0.0149913 0)
(0.356646 -0.00692014 0)
(0.35969 -0.000610489 0)
(0.34407 0.00723371 0)
(0.300981 0.0200266 0)
(0.214127 0.0283089 0)
(0.111342 0.0235242 0)
(0.046533 0.015389 0)
(0.0104375 0.00892915 0)
(-0.0154201 0.00767076 0)
(-0.0430309 0.00642609 0)
(-0.0523521 -0.00534362 0)
(-0.02389 -0.0147926 0)
(-0.0823137 0.055786 0)
(-0.0459929 -0.0161525 0)
(0.0338172 -0.0667837 0)
(0.137573 -0.0758702 0)
(0.231194 -0.0620488 0)
(0.298603 -0.0425466 0)
(0.334755 -0.0225942 0)
(0.344828 -0.00732343 0)
(0.340097 0.00387691 0)
(0.328807 0.0175312 0)
(0.305687 0.0412736 0)
(0.241245 0.0608341 0)
(0.1405 0.055717 0)
(0.0703759 0.0362852 0)
(0.0345205 0.0208163 0)
(0.0103052 0.015915 0)
(-0.0119187 0.0136663 0)
(-0.0250837 -0.00308057 0)
(-0.0160164 -0.0243374 0)
(-0.0498372 0.0723013 0)
(0.00309952 -0.0392439 0)
(0.0868749 -0.104256 0)
(0.180362 -0.112882 0)
(0.258931 -0.0902475 0)
(0.312446 -0.0590729 0)
(0.335075 -0.0280608 0)
(0.333521 -0.00596662 0)
(0.320115 0.00877793 0)
(0.301988 0.0255476 0)
(0.277148 0.0569451 0)
(0.226498 0.0878145 0)
(0.146227 0.0861127 0)
(0.0848811 0.0561394 0)
(0.0533452 0.0325269 0)
(0.0321008 0.024116 0)
(0.0140292 0.0204031 0)
(-0.00144959 0.000707694 0)
(-0.00430864 -0.03002 0)
(-0.022588 0.074995 0)
(0.0552618 -0.0692069 0)
(0.141476 -0.143111 0)
(0.220515 -0.147486 0)
(0.282455 -0.116266 0)
(0.323296 -0.0732414 0)
(0.335625 -0.0298806 0)
(0.324565 -0.00116267 0)
(0.303406 0.0162253 0)
(0.279625 0.0350042 0)
(0.253447 0.0718665 0)
(0.213724 0.111317 0)
(0.152502 0.112276 0)
(0.100336 0.0739758 0)
(0.0712759 0.0432775 0)
(0.0518113 0.0318139 0)
(0.0364133 0.0268921 0)
(0.020037 0.00685411 0)
(0.0074535 -0.0282738 0)
(0.00587446 0.0624024 0)
(0.113966 -0.105394 0)
(0.195963 -0.177696 0)
(0.257599 -0.173745 0)
(0.300945 -0.134886 0)
(0.328926 -0.0832284 0)
(0.334421 -0.0285326 0)
(0.316606 0.00702951 0)
(0.288096 0.0266611 0)
(0.259152 0.0464843 0)
(0.232996 0.0858202 0)
(0.204712 0.129893 0)
(0.162713 0.134703 0)
(0.119724 0.0901228 0)
(0.0912772 0.0535475 0)
(0.0715511 0.0392157 0)
(0.0567638 0.0330556 0)
(0.0394961 0.0151808 0)
(0.0196875 -0.0193484 0)
(0.0504572 0.032317 0)
(0.180596 -0.14679 0)
(0.249005 -0.206646 0)
(0.290654 -0.192038 0)
(0.315236 -0.146108 0)
(0.329194 -0.0883853 0)
(0.329303 -0.0252803 0)
(0.307435 0.0190007 0)
(0.272468 0.0403318 0)
(0.241119 0.0588912 0)
(0.218957 0.096655 0)
(0.199429 0.141755 0)
(0.173492 0.150293 0)
(0.141209 0.104858 0)
(0.112918 0.0641995 0)
(0.091853 0.0467275 0)
(0.0763609 0.0396583 0)
(0.0573601 0.0254683 0)
(0.0322418 -0.00433016 0)
(0.130908 -0.0472939 0)
(0.250906 -0.191069 0)
(0.295654 -0.226664 0)
(0.317473 -0.201946 0)
(0.324997 -0.150811 0)
(0.325035 -0.0888265 0)
(0.318533 -0.0200377 0)
(0.295263 0.0325216 0)
(0.25925 0.0551592 0)
(0.228642 0.0698666 0)
(0.210464 0.104361 0)
(0.197503 0.149056 0)
(0.183896 0.159407 0)
(0.161093 0.116746 0)
(0.133978 0.0752524 0)
(0.111706 0.0545707 0)
(0.0953335 0.0470832 0)
(0.0739014 0.0376177 0)
(0.0441982 0.0165105 0)
(0.24642 -0.15446 0)
(0.312972 -0.227782 0)
(0.330359 -0.236247 0)
(0.335861 -0.203544 0)
(0.328738 -0.148842 0)
(0.317013 -0.0847982 0)
(0.303871 -0.01319 0)
(0.28088 0.0452235 0)
(0.248533 0.0689977 0)
(0.220948 0.0797428 0)
(0.204924 0.109868 0)
(0.197789 0.15287 0)
(0.192329 0.163522 0)
(0.176898 0.126457 0)
(0.151804 0.0860655 0)
(0.129924 0.0623398 0)
(0.112949 0.0546836 0)
(0.0885675 0.0505843 0)
(0.0546608 0.041243 0)
(0.0114174 -0.0335635 0)
(0.0233437 -0.0351752 0)
(0.0338871 -0.0323338 0)
(0.0424004 -0.0294609 0)
(0.0492795 -0.0272429 0)
(0.0548785 -0.0257282 0)
(0.0593792 -0.0251737 0)
(0.0630736 -0.0256094 0)
(0.0662602 -0.0266479 0)
(0.0691666 -0.0277818 0)
(0.0720233 -0.0285184 0)
(0.0749063 -0.0281633 0)
(0.0778185 -0.0264331 0)
(0.0809455 -0.0232226 0)
(0.0846656 -0.0183182 0)
(0.0894283 -0.0112068 0)
(0.0956943 -0.00141023 0)
(0.104055 0.011161 0)
(0.115235 0.026007 0)
(0.129945 0.041713 0)
(0.148378 0.057043 0)
(0.173526 0.0711583 0)
(0.223323 0.0962337 0)
(0.0120931 -0.0476425 0)
(0.0232504 -0.0487105 0)
(0.0366474 -0.042759 0)
(0.0478674 -0.0375532 0)
(0.0565564 -0.0336797 0)
(0.0628297 -0.0307027 0)
(0.0671057 -0.029092 0)
(0.0700289 -0.0289318 0)
(0.0722011 -0.0296434 0)
(0.0739645 -0.0305917 0)
(0.0754294 -0.031283 0)
(0.0764079 -0.0308401 0)
(0.0770275 -0.0291947 0)
(0.0781638 -0.0265233 0)
(0.080846 -0.022856 0)
(0.0859168 -0.017796 0)
(0.094101 -0.0108903 0)
(0.106004 -0.00207762 0)
(0.122204 0.00822103 0)
(0.143222 0.0183889 0)
(0.170453 0.0260604 0)
(0.206699 0.0249632 0)
(0.257758 0.00680188 0)
(0.00918679 -0.0601461 0)
(0.0187766 -0.0607661 0)
(0.0344941 -0.0532043 0)
(0.0491559 -0.0459024 0)
(0.0601115 -0.0396115 0)
(0.0671082 -0.0346608 0)
(0.0714244 -0.0314502 0)
(0.074287 -0.030009 0)
(0.0771163 -0.0297344 0)
(0.0805862 -0.0301096 0)
(0.0835336 -0.0308789 0)
(0.0833739 -0.0306745 0)
(0.0803959 -0.0296249 0)
(0.0782793 -0.028118 0)
(0.0797902 -0.0263251 0)
(0.0854246 -0.0236417 0)
(0.095717 -0.0197509 0)
(0.11102 -0.014731 0)
(0.131624 -0.00935158 0)
(0.158078 -0.00598022 0)
(0.192195 -0.00780278 0)
(0.235377 -0.0197687 0)
(0.28692 -0.042369 0)
(0.0249603 -0.0756795 0)
(0.0202477 -0.0701463 0)
(0.0292857 -0.0672803 0)
(0.0447036 -0.0607895 0)
(0.0575598 -0.047247 0)
(0.0641047 -0.0372314 0)
(0.067225 -0.0306419 0)
(0.0699231 -0.0287096 0)
(0.0780261 -0.029743 0)
(0.0962013 -0.0315419 0)
(0.113493 -0.0283425 0)
(0.112629 -0.0228665 0)
(0.0957181 -0.0244857 0)
(0.0826133 -0.0262759 0)
(0.0793497 -0.0267611 0)
(0.0820389 -0.0259003 0)
(0.0925675 -0.0261187 0)
(0.110097 -0.026373 0)
(0.136478 -0.0260924 0)
(0.171363 -0.028314 0)
(0.213648 -0.0360874 0)
(0.259425 -0.0530939 0)
(0.308802 -0.0774224 0)
(0.0431883 -0.107824 0)
(0.0802931 -0.0872971 0)
(0.072964 -0.0823892 0)
(0.0648431 -0.0831585 0)
(0.0687256 -0.068911 0)
(0.0822611 -0.0599064 0)
(0.109519 -0.0501169 0)
(0.149574 -0.0552041 0)
(0.20104 -0.0721512 0)
(0.259857 -0.0865498 0)
(0.317385 -0.0815792 0)
(0.37321 -0.0491713 0)
(0.412948 0.0184482 0)
(0.325915 0.0193139 0)
(0.230419 -0.00966102 0)
(0.185348 -0.0298054 0)
(0.125626 -0.0457004 0)
(0.11321 -0.0510566 0)
(0.135064 -0.0519382 0)
(0.173845 -0.0572215 0)
(0.222508 -0.0646232 0)
(0.274778 -0.07969 0)
(0.333167 -0.102474 0)
(0.0703978 -0.176869 0)
(0.122002 -0.127306 0)
(0.129309 -0.0640114 0)
(0.0974245 -0.063626 0)
(0.0900862 -0.0620447 0)
(0.117067 -0.0769461 0)
(0.149718 -0.0874162 0)
(0.185537 -0.102939 0)
(0.223736 -0.125153 0)
(0.264717 -0.138982 0)
(0.297686 -0.121213 0)
(0.312836 -0.0605586 0)
(0.312453 0.0515278 0)
(0.27137 0.106897 0)
(0.218955 0.0657066 0)
(0.185345 0.0309802 0)
(0.145652 0.0125457 0)
(0.0755441 -0.0334555 0)
(-0.0103088 -0.115247 0)
(-0.0201581 -0.168492 0)
(-0.0177157 -0.18229 0)
(-0.0580028 -0.176368 0)
(-0.212095 -0.182319 0)
(0.0397549 -0.280585 0)
(0.0704952 -0.153292 0)
(0.0991598 -0.0495157 0)
(0.125792 -0.0402804 0)
(0.140148 -0.0727758 0)
(0.150432 -0.0998917 0)
(0.174043 -0.106834 0)
(0.19886 -0.120592 0)
(0.21961 -0.151469 0)
(0.231838 -0.164058 0)
(0.232637 -0.132828 0)
(0.218219 -0.0626399 0)
(0.198778 0.0667512 0)
(0.196261 0.116688 0)
(0.187896 0.0944491 0)
(0.159562 0.0641176 0)
(0.120078 0.0638016 0)
(0.0670708 0.0764422 0)
(-0.0274779 -0.00836276 0)
(-0.0606861 -0.0929209 0)
(-0.0934484 -0.0872281 0)
(-0.150044 -0.0159503 0)
(-0.280948 0.0935861 0)
(-0.00909961 -0.311573 0)
(0.0258895 -0.189829 0)
(0.0645294 -0.104684 0)
(0.106092 -0.08401 0)
(0.137214 -0.103167 0)
(0.159052 -0.133916 0)
(0.17692 -0.148819 0)
(0.192128 -0.148573 0)
(0.200698 -0.157842 0)
(0.184625 -0.164413 0)
(0.136803 -0.125256 0)
(0.11074 -0.0352933 0)
(0.114775 0.0600883 0)
(0.129986 0.109333 0)
(0.133729 0.115244 0)
(0.107964 0.104745 0)
(0.0621403 0.109376 0)
(0.0214995 0.130642 0)
(-0.0212272 0.066888 0)
(-0.0829986 -0.0434093 0)
(-0.133526 -0.0361413 0)
(-0.219582 0.0705284 0)
(-0.324649 0.170986 0)
(-0.017646 -0.297754 0)
(-0.00358137 -0.21112 0)
(0.0227938 -0.148822 0)
(0.0553293 -0.124085 0)
(0.0808944 -0.126113 0)
(0.0953076 -0.140326 0)
(0.100377 -0.152207 0)
(0.0992617 -0.153028 0)
(0.0892905 -0.145255 0)
(0.0661873 -0.122162 0)
(0.0399829 -0.078307 0)
(0.0267586 -0.0244648 0)
(0.0319507 0.0492784 0)
(0.0458428 0.101854 0)
(0.0458486 0.127371 0)
(0.0251987 0.140105 0)
(0.000589138 0.15326 0)
(-0.0152961 0.153763 0)
(-0.0344372 0.0961938 0)
(-0.0709804 0.033436 0)
(-0.139082 0.0408873 0)
(-0.214455 0.174884 0)
(-0.25116 0.179534 0)
(-0.0247828 -0.281999 0)
(-0.0256462 -0.218444 0)
(-0.0162867 -0.170819 0)
(8.28808e-05 -0.146802 0)
(0.0139946 -0.140726 0)
(0.0201051 -0.14373 0)
(0.018031 -0.145933 0)
(0.00981412 -0.139954 0)
(-0.00373301 -0.125124 0)
(-0.0213575 -0.100646 0)
(-0.038981 -0.0654203 0)
(-0.0520017 -0.0194434 0)
(-0.0528304 0.0400474 0)
(-0.0444826 0.0917933 0)
(-0.0380651 0.12873 0)
(-0.0343984 0.150223 0)
(-0.0332321 0.162276 0)
(-0.0295398 0.156471 0)
(-0.0353888 0.110623 0)
(-0.0635325 0.0755079 0)
(-0.108877 0.111682 0)
(-0.144933 0.200704 0)
(-0.144688 0.191437 0)
(-0.0323943 -0.253248 0)
(-0.0448621 -0.210267 0)
(-0.0498589 -0.175809 0)
(-0.0481134 -0.155212 0)
(-0.0456737 -0.145739 0)
(-0.0471337 -0.142076 0)
(-0.0539485 -0.13778 0)
(-0.0650579 -0.127745 0)
(-0.0786207 -0.110226 0)
(-0.0929585 -0.085333 0)
(-0.106035 -0.0524479 0)
(-0.114509 -0.0115142 0)
(-0.113443 0.0363628 0)
(-0.10253 0.0812707 0)
(-0.0864473 0.115844 0)
(-0.0689481 0.13821 0)
(-0.0511808 0.15097 0)
(-0.0338207 0.149811 0)
(-0.0284724 0.124965 0)
(-0.0511498 0.108178 0)
(-0.0831873 0.139492 0)
(-0.0861396 0.201515 0)
(-0.0567138 0.180736 0)
(-0.0374251 -0.213709 0)
(-0.0592108 -0.189813 0)
(-0.0749833 -0.167355 0)
(-0.0844275 -0.151806 0)
(-0.0911492 -0.142157 0)
(-0.0986729 -0.135386 0)
(-0.108538 -0.12748 0)
(-0.120145 -0.115328 0)
(-0.132076 -0.0976551 0)
(-0.142936 -0.0742002 0)
(-0.151085 -0.0446876 0)
(-0.154088 -0.00945259 0)
(-0.148992 0.029299 0)
(-0.135112 0.0656009 0)
(-0.11497 0.0948846 0)
(-0.0915652 0.115711 0)
(-0.0670817 0.128694 0)
(-0.0442731 0.132757 0)
(-0.031101 0.127606 0)
(-0.0348915 0.128597 0)
(-0.0459986 0.15073 0)
(-0.0330519 0.182158 0)
(0.00926849 0.150539 0)
(-0.0397768 -0.168086 0)
(-0.0673966 -0.160904 0)
(-0.0903074 -0.149455 0)
(-0.107326 -0.13977 0)
(-0.120371 -0.132077 0)
(-0.131986 -0.124955 0)
(-0.143503 -0.116233 0)
(-0.154762 -0.104085 0)
(-0.164859 -0.0876395 0)
(-0.172705 -0.0666965 0)
(-0.177015 -0.0413407 0)
(-0.176106 -0.012285 0)
(-0.168295 0.0184824 0)
(-0.153272 0.0474129 0)
(-0.132577 0.071708 0)
(-0.108493 0.0902763 0)
(-0.0832009 0.103412 0)
(-0.0593141 0.111529 0)
(-0.041221 0.116596 0)
(-0.0308731 0.125729 0)
(-0.0213379 0.1415 0)
(0.00150427 0.1505 0)
(0.0406359 0.114515 0)
(-0.0396363 -0.119964 0)
(-0.0696602 -0.127235 0)
(-0.096326 -0.125778 0)
(-0.117704 -0.122269 0)
(-0.134533 -0.117877 0)
(-0.148575 -0.11232 0)
(-0.160927 -0.104643 0)
(-0.17167 -0.0939353 0)
(-0.180291 -0.0797337 0)
(-0.186041 -0.0620088 0)
(-0.188006 -0.0410604 0)
(-0.185118 -0.0176784 0)
(-0.1765 0.00659936 0)
(-0.162148 0.0296024 0)
(-0.143126 0.0496182 0)
(-0.121094 0.0659591 0)
(-0.0977951 0.0788998 0)
(-0.0750776 0.089241 0)
(-0.0549646 0.0986343 0)
(-0.0375227 0.109599 0)
(-0.0187175 0.120469 0)
(0.0073045 0.119987 0)
(0.0389864 0.0872828 0)
(-0.0373305 -0.0728326 0)
(-0.0668655 -0.092133 0)
(-0.0944996 -0.0994382 0)
(-0.117637 -0.101924 0)
(-0.136231 -0.101474 0)
(-0.151426 -0.0985751 0)
(-0.164076 -0.0930649 0)
(-0.174367 -0.0846505 0)
(-0.182048 -0.0732197 0)
(-0.186657 -0.0589159 0)
(-0.187618 -0.0421402 0)
(-0.184317 -0.0236295 0)
(-0.176348 -0.00452526 0)
(-0.163864 0.0138009 0)
(-0.14765 0.030299 0)
(-0.12887 0.0445691 0)
(-0.108754 0.0568695 0)
(-0.0884438 0.0678763 0)
(-0.0687854 0.0784912 0)
(-0.0494339 0.0891399 0)
(-0.0285155 0.0970886 0)
(-0.0047178 0.0944836 0)
(0.0178927 0.0704249 0)
(-0.0332396 -0.029328 0)
(-0.0600703 -0.0582998 0)
(-0.0865365 -0.0729019 0)
(-0.109463 -0.0807556 0)
(-0.128312 -0.0842866 0)
(-0.143718 -0.0844739 0)
(-0.156289 -0.0816423 0)
(-0.16622 -0.075899 0)
(-0.173415 -0.0673863 0)
(-0.177623 -0.0563824 0)
(-0.178518 -0.0433328 0)
(-0.175789 -0.0288867 0)
(-0.169293 -0.0138921 0)
(-0.159234 0.000750012 0)
(-0.146196 0.0143782 0)
(-0.130982 0.0267595 0)
(-0.114407 0.0380881 0)
(-0.0971363 0.0487951 0)
(-0.0795238 0.0592311 0)
(-0.0613528 0.069019 0)
(-0.0420978 0.0757853 0)
(-0.0224082 0.0747723 0)
(-0.00723535 0.06174 0)
(-0.0277694 0.00836572 0)
(-0.0503094 -0.0278746 0)
(-0.0740567 -0.0480252 0)
(-0.0953586 -0.0602446 0)
(-0.113391 -0.0673501 0)
(-0.128327 -0.0705737 0)
(-0.140525 -0.0704967 0)
(-0.15013 -0.067455 0)
(-0.157117 -0.061753 0)
(-0.161366 -0.0537559 0)
(-0.162715 -0.043924 0)
(-0.161033 -0.0328257 0)
(-0.156312 -0.021109 0)
(-0.148756 -0.00939728 0)
(-0.138789 0.00187137 0)
(-0.126961 0.0125453 0)
(-0.113804 0.0227387 0)
(-0.0997076 0.0326813 0)
(-0.0848569 0.0424323 0)
(-0.0692432 0.0514464 0)
(-0.0530156 0.0580494 0)
(-0.0374232 0.0596683 0)
(-0.0260027 0.0549067 0)
(-0.0210745 0.0386907 0)
(-0.038554 -0.00239002 0)
(-0.058543 -0.0261119 0)
(-0.0772612 -0.0413998 0)
(-0.0937445 -0.0513836 0)
(-0.107719 -0.0572924 0)
(-0.119292 -0.059766 0)
(-0.128524 -0.059234 0)
(-0.135405 -0.0560846 0)
(-0.139878 -0.0507287 0)
(-0.141872 -0.0436235 0)
(-0.141353 -0.0352721 0)
(-0.138368 -0.0261925 0)
(-0.133095 -0.0168452 0)
(-0.125838 -0.00754503 0)
(-0.116969 0.00159032 0)
(-0.106835 0.0106108 0)
(-0.0956784 0.019614 0)
(-0.0836286 0.0285433 0)
(-0.0707971 0.036932 0)
(-0.0575532 0.0437178 0)
(-0.0449564 0.0475589 0)
(-0.035065 0.0480737 0)
(-0.0148871 0.0608145 0)
(-0.0265357 0.0169951 0)
(-0.0417033 -0.00822455 0)
(-0.057011 -0.0249324 0)
(-0.0713988 -0.0369063 0)
(-0.0840156 -0.0449684 0)
(-0.0947194 -0.0496176 0)
(-0.103461 -0.0512706 0)
(-0.110203 -0.050336 0)
(-0.1149 -0.047237 0)
(-0.117519 -0.0424153 0)
(-0.11806 -0.0363216 0)
(-0.116584 -0.0293884 0)
(-0.113232 -0.0219816 0)
(-0.108219 -0.0143494 0)
(-0.101792 -0.0065998 0)
(-0.0941762 0.00127062 0)
(-0.08553 0.00928675 0)
(-0.0759565 0.0173596 0)
(-0.0655953 0.0251475 0)
(-0.0547953 0.0320018 0)
(-0.0442476 0.0371933 0)
(-0.0350505 0.0405021 0)
(-0.00932025 0.0754127 0)
(-0.0150367 0.0297873 0)
(-0.0251477 0.00463658 0)
(-0.036403 -0.0115082 0)
(-0.0481701 -0.0243785 0)
(-0.0590604 -0.0339209 0)
(-0.0686423 -0.0402527 0)
(-0.0767287 -0.0436814 0)
(-0.0832156 -0.0445835 0)
(-0.0880313 -0.0433637 0)
(-0.0911352 -0.0404353 0)
(-0.0925271 -0.0362035 0)
(-0.0922557 -0.0310404 0)
(-0.090423 -0.0252538 0)
(-0.0871752 -0.0190567 0)
(-0.0826763 -0.0125575 0)
(-0.0770715 -0.0057853 0)
(-0.0704643 0.00124585 0)
(-0.0629348 0.00844806 0)
(-0.0546061 0.0155811 0)
(-0.0457385 0.0222403 0)
(-0.0367401 0.0279781 0)
(-0.0282137 0.0325365 0)
(-0.00186615 0.0835258 0)
(-0.00224577 0.0367617 0)
(-0.00893047 0.0128404 0)
(-0.0166259 -0.0015142 0)
(-0.0255073 -0.0141803 0)
(-0.0344008 -0.024438 0)
(-0.0426475 -0.0318789 0)
(-0.0499104 -0.0366234 0)
(-0.0559917 -0.0389673 0)
(-0.0607655 -0.039266 0)
(-0.0641601 -0.0378893 0)
(-0.0661529 -0.0351957 0)
(-0.0667671 -0.0315092 0)
(-0.0660672 -0.027097 0)
(-0.0641482 -0.0221506 0)
(-0.0611161 -0.0167817 0)
(-0.0570646 -0.011041 0)
(-0.0520626 -0.00496363 0)
(-0.0461689 0.00137235 0)
(-0.0394792 0.00779745 0)
(-0.0321757 0.0140451 0)
(-0.0244983 0.0198064 0)
(-0.0168139 0.0248036 0)
(0.00938845 0.0792588 0)
(0.0127456 0.0404963 0)
(0.00745433 0.0185909 0)
(0.00193845 0.00559249 0)
(-0.004414 -0.00634656 0)
(-0.0113041 -0.0166569 0)
(-0.018117 -0.0246459 0)
(-0.0244236 -0.030249 0)
(-0.0299435 -0.0336516 0)
(-0.0344941 -0.0351343 0)
(-0.0379642 -0.0350085 0)
(-0.0403001 -0.0335819 0)
(-0.0414948 -0.0311342 0)
(-0.0415788 -0.0278989 0)
(-0.0406081 -0.0240503 0)
(-0.0386491 -0.019701 0)
(-0.0357619 -0.0149149 0)
(-0.0319936 -0.00973766 0)
(-0.0273888 -0.00423671 0)
(-0.0220191 0.00146678 0)
(-0.0160153 0.00718944 0)
(-0.00952943 0.0127047 0)
(-0.00282337 0.017755 0)
(0.0183047 0.0607233 0)
(0.0247371 0.0399689 0)
(0.0218375 0.0227696 0)
(0.0183351 0.0106294 0)
(0.0140564 -0.000577184 0)
(0.00901233 -0.0105338 0)
(0.0036619 -0.018631 0)
(-0.00156591 -0.0246973 0)
(-0.00635379 -0.0288134 0)
(-0.0104798 -0.0311771 0)
(-0.0137969 -0.0320342 0)
(-0.0162192 -0.0316381 0)
(-0.0177096 -0.030225 0)
(-0.0182678 -0.0279965 0)
(-0.0179195 -0.0251091 0)
(-0.0167024 -0.0216715 0)
(-0.0146547 -0.0177532 0)
(-0.0118099 -0.0134037 0)
(-0.00820364 -0.00867951 0)
(-0.00389255 -0.00366777 0)
(0.00102386 0.00150399 0)
(0.00643533 0.00666978 0)
(0.012126 0.0116164 0)
(0.0173282 0.0363549 0)
(0.0278022 0.0338594 0)
(0.0301894 0.0237006 0)
(0.0300221 0.0133219 0)
(0.028179 0.00315377 0)
(0.0251503 -0.00612316 0)
(0.0214474 -0.0139677 0)
(0.0175068 -0.0201505 0)
(0.0136733 -0.0246643 0)
(0.0102048 -0.0276275 0)
(0.00728391 -0.0292184 0)
(0.00502957 -0.0296349 0)
(0.00350961 -0.0290685 0)
(0.00275261 -0.0276882 0)
(0.0027593 -0.0256298 0)
(0.00351415 -0.0229932 0)
(0.00499522 -0.0198461 0)
(0.00717824 -0.0162366 0)
(0.0100331 -0.0122104 0)
(0.0135125 -0.00782791 0)
(0.0175353 -0.00317543 0)
(0.0220136 0.00163045 0)
(0.0267534 0.0064293 0)
(0.0119944 0.0170348 0)
(0.0246154 0.0237505 0)
(0.0317628 0.0199742 0)
(0.0354998 0.0126482 0)
(0.0366827 0.00431578 0)
(0.0360814 -0.00377448 0)
(0.0343388 -0.0109461 0)
(0.0319598 -0.0168752 0)
(0.0293392 -0.0214619 0)
(0.026779 -0.0247407 0)
(0.0245012 -0.0268183 0)
(0.0226601 -0.027833 0)
(0.0213554 -0.0279291 0)
(0.0206439 -0.0272395 0)
(0.0205511 -0.0258758 0)
(0.0210815 -0.0239234 0)
(0.0222275 -0.0214425 0)
(0.023973 -0.0184748 0)
(0.0262931 -0.0150547 0)
(0.0291471 -0.0112208 0)
(0.0324663 -0.00702647 0)
(0.0361757 -0.00254591 0)
(0.040101 0.00211284 0)
(0.00812809 0.00287571 0)
(0.0200173 0.0119666 0)
(0.0294539 0.0125091 0)
(0.0360871 0.00852799 0)
(0.0400393 0.00261879 0)
(0.0418766 -0.00377183 0)
(0.0422082 -0.00983367 0)
(0.0415529 -0.0151291 0)
(0.0403326 -0.0194567 0)
(0.0388809 -0.0227617 0)
(0.0374521 -0.0250742 0)
(0.0362322 -0.0264691 0)
(0.0353505 -0.0270395 0)
(0.0348908 -0.0268792 0)
(0.0349018 -0.026071 0)
(0.0354072 -0.0246808 0)
(0.0364131 -0.0227557 0)
(0.037913 -0.0203269 0)
(0.0398877 -0.0174159 0)
(0.0423033 -0.0140424 0)
(0.045102 -0.0102324 0)
(0.0482188 -0.00602438 0)
(0.0515027 -0.00148021 0)
(0.00620523 -0.00835515 0)
(0.0163951 0.000543431 0)
(0.0260871 0.00343152 0)
(0.0340391 0.00211558 0)
(0.0398086 -0.00142772 0)
(0.043569 -0.0059385 0)
(0.0457283 -0.0106234 0)
(0.0467125 -0.0149958 0)
(0.0469069 -0.0187818 0)
(0.0466375 -0.0218503 0)
(0.0461678 -0.0241601 0)
(0.0457008 -0.0257243 0)
(0.0453861 -0.026584 0)
(0.0453286 -0.0267917 0)
(0.045597 -0.0263982 0)
(0.046232 -0.0254458 0)
(0.0472534 -0.0239642 0)
(0.0486643 -0.0219705 0)
(0.0504534 -0.0194721 0)
(0.0525945 -0.0164709 0)
(0.0550405 -0.0129707 0)
(0.0577366 -0.00898029 0)
(0.0605599 -0.00452418 0)
(0.00529378 -0.0177288 0)
(0.0139412 -0.00966631 0)
(0.0229461 -0.00568427 0)
(0.0310405 -0.00523708 0)
(0.0376098 -0.00689339 0)
(0.0425428 -0.00969709 0)
(0.0460243 -0.0129883 0)
(0.0483328 -0.0163157 0)
(0.0497637 -0.0193868 0)
(0.050595 -0.0220261 0)
(0.0510687 -0.0241403 0)
(0.0513835 -0.0256909 0)
(0.0516949 -0.0266726 0)
(0.0521187 -0.0270977 0)
(0.052737 -0.0269848 0)
(0.0536036 -0.0263505 0)
(0.0547498 -0.0252044 0)
(0.0561885 -0.0235471 0)
(0.0579169 -0.0213707 0)
(0.0599172 -0.0186608 0)
(0.0621537 -0.015402 0)
(0.064582 -0.0115803 0)
(0.067109 -0.00719145 0)
(0.00473864 -0.0259271 0)
(0.0121866 -0.0186372 0)
(0.0202352 -0.0141679 0)
(0.027877 -0.0126365 0)
(0.034533 -0.0129403 0)
(0.0399725 -0.014374 0)
(0.0442267 -0.0164354 0)
(0.0474398 -0.0187528 0)
(0.0498061 -0.0210584 0)
(0.0515342 -0.0231674 0)
(0.0528237 -0.0249594 0)
(0.0538506 -0.0263609 0)
(0.0547612 -0.0273303 0)
(0.0556711 -0.027846 0)
(0.0566674 -0.0278968 0)
(0.0578114 -0.0274741 0)
(0.0591427 -0.0265667 0)
(0.0606826 -0.0251578 0)
(0.062436 -0.0232237 0)
(0.0643937 -0.0207352 0)
(0.0665315 -0.0176605 0)
(0.068815 -0.0139681 0)
(0.0711802 -0.00963319 0)
(0.00422668 -0.0331987 0)
(0.0107225 -0.0264931 0)
(0.0178133 -0.0218271 0)
(0.0247826 -0.0196407 0)
(0.0311385 -0.0190174 0)
(0.0366289 -0.0194234 0)
(0.0412075 -0.0204865 0)
(0.0449274 -0.0219204 0)
(0.0478997 -0.0235021 0)
(0.0502662 -0.0250615 0)
(0.0521777 -0.0264721 0)
(0.0537781 -0.0276425 0)
(0.0551946 -0.0285072 0)
(0.0565337 -0.0290188 0)
(0.0578799 -0.0291412 0)
(0.0592965 -0.0288433 0)
(0.0608274 -0.0280946 0)
(0.0624995 -0.0268612 0)
(0.0643247 -0.0251045 0)
(0.0663013 -0.0227814 0)
(0.0684155 -0.0198466 0)
(0.0706429 -0.0162552 0)
(0.0729448 -0.0119683 0)
(0.00366912 -0.0395967 0)
(0.00934549 -0.0333479 0)
(0.0155465 -0.0286472 0)
(0.0217951 -0.026071 0)
(0.0276744 -0.024823 0)
(0.0329489 -0.0244816 0)
(0.0375418 -0.0247701 0)
(0.0414547 -0.0254751 0)
(0.0447419 -0.0264221 0)
(0.0474931 -0.0274666 0)
(0.0498159 -0.0284896 0)
(0.0518212 -0.0293944 0)
(0.0536139 -0.0301022 0)
(0.0552861 -0.0305482 0)
(0.0569149 -0.0306775 0)
(0.0585609 -0.0304406 0)
(0.060269 -0.02979 0)
(0.0620691 -0.0286766 0)
(0.0639783 -0.0270484 0)
(0.0660015 -0.02485 0)
(0.0681337 -0.0220247 0)
(0.0703597 -0.0185172 0)
(0.0726614 -0.0142798 0)
(0.00307332 -0.0451147 0)
(0.00799563 -0.0392852 0)
(0.0133767 -0.0346667 0)
(0.0189176 -0.031874 0)
(0.0242518 -0.0302097 0)
(0.0291675 -0.0293309 0)
(0.0335787 -0.0290302 0)
(0.0374614 -0.0291526 0)
(0.0408361 -0.0295675 0)
(0.0437565 -0.0301585 0)
(0.046297 -0.0308205 0)
(0.0485407 -0.0314593 0)
(0.0505707 -0.0319903 0)
(0.0524638 -0.0323384 0)
(0.0542873 -0.0324351 0)
(0.0560964 -0.0322173 0)
(0.0579343 -0.0316235 0)
(0.0598325 -0.0305922 0)
(0.0618113 -0.0290596 0)
(0.063881 -0.0269598 0)
(0.0660441 -0.0242268 0)
(0.0682938 -0.0207974 0)
(0.0706276 -0.0166173 0)
(0.00247225 -0.0497497 0)
(0.00668173 -0.044367 0)
(0.0113006 -0.0399296 0)
(0.0161622 -0.0370448 0)
(0.0209306 -0.0351109 0)
(0.0254139 -0.0338477 0)
(0.0295249 -0.0331015 0)
(0.0332275 -0.0327648 0)
(0.036524 -0.0327446 0)
(0.0394455 -0.0329513 0)
(0.0420431 -0.0332952 0)
(0.0443786 -0.0336882 0)
(0.0465166 -0.0340449 0)
(0.0485198 -0.0342844 0)
(0.050445 -0.0343297 0)
(0.0523412 -0.0341077 0)
(0.0542486 -0.0335466 0)
(0.0561986 -0.0325747 0)
(0.0582141 -0.031119 0)
(0.0603097 -0.0291051 0)
(0.0624946 -0.0264592 0)
(0.0647691 -0.0231115 0)
(0.067143 -0.019003 0)
(0.0018983 -0.0535304 0)
(0.00543507 -0.0486454 0)
(0.0093376 -0.0444742 0)
(0.0135491 -0.0415943 0)
(0.0177512 -0.0394984 0)
(0.0217659 -0.0379624 0)
(0.0255056 -0.0368796 0)
(0.0289299 -0.036183 0)
(0.032032 -0.0358124 0)
(0.0348301 -0.0357015 0)
(0.03736 -0.0357755 0)
(0.0396676 -0.0359534 0)
(0.041803 -0.0361516 0)
(0.0438166 -0.0362864 0)
(0.0457557 -0.0362761 0)
(0.0476629 -0.0360406 0)
(0.0495749 -0.0355011 0)
(0.0515227 -0.0345785 0)
(0.0535307 -0.0331926 0)
(0.0556177 -0.0312625 0)
(0.0577984 -0.028708 0)
(0.0600806 -0.0254542 0)
(0.062483 -0.0214375 0)
(0.00137436 -0.0565313 0)
(0.0042798 -0.0521702 0)
(0.00750595 -0.0483346 0)
(0.0110975 -0.0455393 0)
(0.014744 -0.0433631 0)
(0.0182747 -0.0416366 0)
(0.0216018 -0.0402988 0)
(0.0246845 -0.0393207 0)
(0.0275127 -0.0386708 0)
(0.0300981 -0.0383028 0)
(0.0324666 -0.0381545 0)
(0.034653 -0.0381518 0)
(0.036696 -0.0382138 0)
(0.0386356 -0.0382563 0)
(0.0405108 -0.0381951 0)
(0.0423582 -0.0379462 0)
(0.0442112 -0.0374262 0)
(0.0460999 -0.0365511 0)
(0.0480503 -0.0352361 0)
(0.0500847 -0.0333954 0)
(0.0522237 -0.0309444 0)
(0.0544819 -0.0278036 0)
(0.056886 -0.023905 0)
(0.000904714 -0.0588301 0)
(0.00321166 -0.0549847 0)
(0.00580622 -0.0515464 0)
(0.00881749 -0.0489044 0)
(0.0119316 -0.0467095 0)
(0.0149786 -0.0448514 0)
(0.0178714 -0.0433191 0)
(0.0205725 -0.0421207 0)
(0.0230735 -0.0412503 0)
(0.0253834 -0.040678 0)
(0.0275224 -0.0403516 0)
(0.0295168 -0.0402027 0)
(0.0313965 -0.0401531 0)
(0.0331929 -0.0401195 0)
(0.0349378 -0.0400168 0)
(0.0366624 -0.0397595 0)
(0.038397 -0.0392619 0)
(0.0401704 -0.0384377 0)
(0.0420101 -0.0371993 0)
(0.0439419 -0.0354583 0)
(0.0459916 -0.0331275 0)
(0.0481818 -0.0301238 0)
(0.0505467 -0.026375 0)
(0.000431457 -0.0604037 0)
(0.00218303 -0.0571153 0)
(0.00421256 -0.054157 0)
(0.00670776 -0.0517306 0)
(0.00933103 -0.0495577 0)
(0.0119086 -0.0476042 0)
(0.0143594 -0.0459182 0)
(0.0166555 -0.0445461 0)
(0.0187944 -0.0435035 0)
(0.0207859 -0.0427724 0)
(0.0226465 -0.0423075 0)
(0.0243963 -0.0420445 0)
(0.026058 -0.0419074 0)
(0.0276558 -0.0418145 0)
(0.0292151 -0.0416812 0)
(0.0307622 -0.0414223 0)
(0.032324 -0.0409519 0)
(0.0339283 -0.0401831 0)
(0.0356032 -0.0390282 0)
(0.0373775 -0.0373985 0)
(0.0392823 -0.0352059 0)
(0.0413482 -0.032366 0)