/*--------------------------------*- C++ -*----------------------------------*\
| =========                 |                                                 |
| \\      /  F ield         | OpenFOAM: The Open Source CFD Toolbox           |
|  \\    /   O peration     | Version:  2.3.0                                 |
|   \\  /    A nd           | Web:      www.OpenFOAM.org                      |
|    \\/     M anipulation  |                                                 |
\*---------------------------------------------------------------------------*/
FoamFile
{
    version     2.0;
    format      ascii;
    class       volScalarField;
    location    "2";
    object      p_rgh;
}
// * * * * * * * * * * * * * * * * * * * * * * * * * * * * * * * * * * * * * //

dimensions      [1 -1 -2 0 0 0 0];

internalField   nonuniform List<scalar> 
2268
(
703.623
703.782
713.587
713.444
685.319
697.441
707.753
703.84
710.727
709.276
705.726
701.438
697.276
691.362
682.488
672.107
659.994
649.892
641.082
632.415
627.825
629.333
631.453
702.178
700.561
705.558
704.655
678.996
695.381
708.053
703.168
711.004
709.733
706.028
701.443
697.505
691.984
683.019
671.893
658.734
648.316
640.239
631.492
626.121
627.354
630.67
692.88
691.585
710.941
703.132
677.705
692.998
706.335
701.73
711.59
710.669
706.674
701.384
697.963
692.629
683.96
672.604
658.857
647.944
640.569
630.672
623.871
624.111
629.328
680.42
687.01
712.098
699.233
670.443
672.039
702.497
699.579
712.243
712.037
707.656
702.03
698.227
693.403
684.272
672.393
659.102
648.211
639.495
625.441
618.566
618.462
626.884
676.028
694.219
703.15
696.332
632.451
618.596
698.113
697.088
712.978
713.839
709.026
702.664
698.262
693.342
683.723
671.554
657.741
642.558
632.376
619.458
610.464
610.024
623.546
669.808
695.844
695.831
700.454
648.461
615.174
697.542
694.243
713.374
715.983
710.507
703.126
697.33
691.498
681.929
670.381
653.04
638.695
630.506
616.893
610.811
604.927
622.073
664.296
658.242
690.909
704.918
687.242
619.547
686.12
668.561
712.485
718.009
711.633
703.205
695.515
687.814
678.588
668.222
654.478
641.875
633.6
624.281
609.155
604.215
623.984
675.351
650.688
678.294
711.058
704.621
625.009
605.254
649.994
718.704
719.189
711.235
699.182
692.385
684.274
674.779
664.829
653.551
649.548
641.273
625.13
605.215
597.704
626.833
754.471
749.618
730.475
719.061
738.306
750.023
749.108
746.137
758.21
797.109
852.055
895.151
917.626
931.611
941.201
949.001
959.525
973.98
991.212
754.058
747.442
719.528
706.386
737.48
755.242
751.158
743.837
752.788
795.061
851.63
895.366
918.031
930.387
940.894
947.798
955.881
968.536
987.842
759.57
748.528
711.433
700.46
730.506
751.866
752.673
743.344
750.885
789.472
847.489
893.846
923.536
939.015
940.937
948.655
956.967
967.033
986.749
762.152
746.924
703.21
692.391
710.067
717.086
730.515
737.774
745.459
785.159
845.536
891.828
921.07
943.669
960.426
956.169
960.159
969.731
992.99
751.57
735.567
701.751
683.315
642.759
613.772
688.14
728.418
750.947
793.048
849.88
892.222
918.396
933.703
958.198
975.649
968.172
975.379
1012.6
738.127
727.485
723.307
694.819
588.842
552.661
582.8
722.514
769.533
813.569
859.544
894.887
906.96
921.672
942.961
974.319
990.816
986.498
1019.7
750.302
733.264
755.181
706.893
589.761
552.847
555.506
648.224
772.698
834.488
868.607
897.051
900.294
920.032
943.241
963.627
1000.55
1020.9
1031.55
756.004
747.705
768.169
708.74
640.085
646.782
600.113
638.186
757.802
843.682
871.282
896.862
918.787
919.139
943.894
966.717
1002.45
1029.53
1036.25
700.22
682.47
705.656
722.46
736.017
739.694
678.117
714.082
725.509
720.622
700.521
649.793
688.335
680.896
669.294
652.873
613.644
613.311
607.454
500.169
428.978
429.069
523.89
649.382
654.819
658.345
683.654
734.613
742.752
734.002
697.662
670.401
634.9
537.989
616.729
534.65
437.053
339.314
230.111
182.393
199.515
208.832
175.983
122.344
92.0641
125.271
77.6703
113.427
138.789
227.013
363.808
426.252
364.412
257.417
240.216
301.33
275.176
160.192
62.2645
29.4818
19.2181
12.9818
11.2882
9.61178
8.19411
7.41739
7.18905
9.18601
121.579
2.6933
2.35653
2.88509
7.39592
2.08119
1.80759
0.895821
8.13309
10.6504
1.80767
0.450769
2.32641
9.20871
16.0906
18.6942
11.6773
10.3223
8.62171
7.4341
6.85511
6.36669
9.88625
15.5925
2.44652
2.18962
2.00385
1.81139
1.72738
1.58119
1.25017
0.971878
0.858657
0.801543
0.794362
1.86626
10.2658
18.7045
20.3527
19.623
13.0257
11.5715
6.85203
6.25948
5.93971
5.64982
5.28023
2.15911
2.03597
1.87971
1.76945
1.61084
1.38708
1.09059
0.79579
0.498473
0.233981
0.246538
1.93705
13.6091
17.9745
19.3892
19.9246
19.3313
17.8513
13.3001
9.81
9.25066
5.56595
5.17948
2.02998
1.95068
1.996
2.14907
1.50127
1.27722
0.951532
0.574569
0.232299
-0.00537032
-0.00845868
1.62603
15.1558
17.9709
18.6891
18.3439
12.1491
6.51193
11.6385
13.3378
13.3945
6.11132
4.42324
1.95122
1.81299
2.35726
2.33591
1.78599
1.13502
0.803282
0.39589
0.0512618
-0.132164
-0.137896
1.5083
16.5159
18.6218
18.7602
10.3827
1.4483
1.15716
0.951166
10.9008
11.3681
3.52074
2.84032
2.16486
1.74399
2.04487
2.23505
2.12542
1.38915
0.687594
0.317181
-0.00316448
-0.151506
-0.154742
1.32811
17.0431
19.5563
16.1666
1.48686
1.3949
1.0869
0.605861
4.29585
7.51748
1.32432
2.08962
2.40805
2.31777
1.9392
1.8649
2.04115
1.92547
0.64102
0.334153
0.0638936
-0.0645519
-0.0620137
0.970549
15.9115
20.4193
4.14188
1.64639
1.60828
1.38778
0.956702
0.599766
0.582716
1.37548
1.7278
2.30595
2.29849
1.94854
1.7308
1.97873
1.8895
1.63779
0.439026
0.214148
0.113177
0.108471
0.590407
13.7449
19.9851
1.8419
1.86629
1.93118
2.17005
1.68638
1.43699
1.36972
1.49588
1.45024
1.56469
2.14041
2.10553
1.9
1.53195
1.88558
1.79046
1.05775
0.39457
0.336034
0.317064
0.561082
10.4375
14.3166
2.07432
3.12996
5.07335
3.21021
2.0819
1.93909
1.72024
1.4839
1.64589
1.37161
1.92647
1.96067
1.82686
1.25121
0.827696
1.81238
1.73715
0.824409
0.552065
0.500578
1.3521
7.27338
4.69567
2.79639
6.68793
6.82844
4.28261
2.89635
2.4022
1.78229
1.70119
2.15461
1.18852
1.7108
1.47223
1.4151
0.706384
0.624936
1.82909
1.81246
1.15926
0.749233
0.688266
1.33459
6.77848
1.44296
4.17362
7.1727
4.46745
3.05381
2.79764
1.94175
2.42485
2.30046
2.10863
0.80778
0.750801
0.589214
0.499075
0.497358
0.599396
1.40106
1.93843
1.07694
0.925116
0.878305
1.49963
1.48079
1.53548
8.51309
7.60986
0.906629
0.946279
1.41175
1.11132
2.08718
2.21086
1.26003
0.821311
0.746496
0.662157
0.578823
0.566042
0.648766
0.765177
1.02514
1.11716
1.2417
1.40347
1.37886
1.47221
3.00577
9.45984
4.8529
0.861319
0.836938
0.887004
0.913777
0.861949
0.930904
0.263149
0.863778
0.824469
1.01932
1.32066
1.31049
0.760808
0.869001
1.05443
1.2203
1.272
1.72697
10.0129
11.7908
11.6294
8.76414
0.826572
0.798681
0.773697
0.75826
0.735963
0.524837
0.290599
0.166098
0.899499
0.881393
0.885207
2.77087
2.7284
1.51781
0.941977
1.12665
1.78537
10.2962
12.4317
12.2039
12.0033
7.00457
0.446888
0.608405
0.705976
0.70107
0.668254
0.584369
0.428388
0.220705
0.161885
0.917502
1.54353
5.73774
5.61101
2.6864
1.05917
0.906428
4.70508
12.6018
12.4869
12.401
8.28772
1.43629
0.290474
0.387329
0.488957
0.565081
0.588689
0.561674
0.488296
0.361041
0.184533
0.0253308
0.950009
2.03966
6.04342
4.39331
1.40569
1.12101
2.40117
12.6039
12.5336
11.8653
2.29938
0.151934
0.198456
0.253389
0.314728
0.376949
0.424183
0.438397
0.417875
0.355116
0.2606
0.168632
0.0468669
1.53611
5.781
5.71455
1.67707
1.44343
1.76384
12.475
12.4777
10.2133
0.380126
0.0296768
0.0899781
0.150683
0.204974
0.250711
0.28931
0.315378
0.319132
0.291075
0.227182
0.135521
0.0900897
-0.00540665
2.74622
12.2201
2.58979
1.98944
1.73512
10.3256
12.3169
9.72964
0.192138
-0.144451
-0.0457641
0.0329689
0.0977133
0.147633
0.184722
0.210478
0.22168
0.227682
0.191714
0.120702
0.0319064
-0.0497767
-0.118415
5.05016
12.9391
5.58298
2.26493
1.92027
6.72973
6.48896
0.308428
-0.222733
-0.190124
-0.100744
-0.0266002
0.0345559
0.0807341
0.11238
0.130794
0.134893
0.132059
0.0868689
0.0226893
-0.0579534
-0.138527
-0.199589
14.0687
13.587
12.8505
4.72949
4.19239
0.00639218
-0.152401
0.203346
-0.303785
-0.231023
-0.161839
-0.0966568
-0.0368195
0.00830548
0.0373615
0.0524145
0.0516779
0.0311738
-0.000810569
-0.0668709
-0.141748
-0.196251
-0.201893
13.3855
13.764
13.1568
11.9236
1.00843
-0.174104
-0.230515
-0.242325
-0.350471
-0.297609
-0.242713
-0.177274
-0.0972305
-0.0510542
-0.0295239
-0.0159937
-0.0143969
-0.0325
-0.0709784
-0.125416
-0.18131
-0.230154
-0.268768
3.69198
13.4913
13.0578
12.3544
-0.316524
-0.284331
-0.264897
-0.456551
-0.420286
-0.390932
-0.348405
-0.11861
0.461424
0.409332
-0.0348533
-0.056356
-0.0612237
-0.0710408
-0.0980413
-0.139831
-0.18718
-0.231482
-0.266581
1.70965
12.2382
12.9189
12.7981
1.01954
-0.305092
-0.512446
-0.529991
-0.506182
-0.499286
-0.430016
0.325988
0.718467
0.806334
0.568983
0.0154872
-0.0945521
-0.0923937
-0.104577
-0.130542
-0.165094
-0.200547
-0.228183
1.3474
2.04917
12.5995
12.7271
6.44424
-0.0307103
-0.651098
-0.578763
-0.58508
-0.600876
-0.398453
0.553211
0.672083
0.772061
0.844439
0.112618
-0.116073
-0.103237
-0.10027
-0.109536
-0.127998
-0.150182
-0.167271
0.948997
-0.345762
2.74713
10.0869
5.74188
0.119702
-0.634863
-0.599738
-0.644885
-0.661384
-0.52928
0.493102
0.647729
0.746669
0.808264
0.108621
-0.129943
-0.106672
-0.0922327
-0.0883587
-0.0926915
-0.100685
-0.105103
0.703285
-0.753529
-0.587209
0.54126
0.402637
-0.155231
-0.58362
-0.607836
-0.599528
-0.697812
-0.675818
0.431737
0.636131
0.67558
0.171975
-0.114493
-0.130744
-0.10325
-0.0823872
-0.0709262
-0.0667395
-0.065306
-0.0611337
0.0857498
-0.85955
-0.711223
-0.489199
-0.497512
-0.533796
-0.557241
-0.589199
-0.573749
-0.710958
-0.615259
0.431583
0.686509
-0.127407
-0.251255
-0.175817
-0.115256
-0.0492714
-0.0674323
-0.056638
-0.0486076
-0.0427819
-0.0348012
0.122954
-0.739624
-0.646458
-0.511814
-0.486898
-0.508119
-0.53904
-0.409839
-0.581901
-0.690596
-0.429034
0.474664
0.135913
-0.345465
-0.253046
-0.17631
-0.0456068
0.0342521
0.00449583
-0.0454066
-0.0372078
-0.029426
-0.0202718
0.666377
-0.562866
-0.526799
-0.467221
-0.457067
-0.474902
-0.461313
-0.363055
-0.542481
-0.634367
-0.252678
0.512729
-0.31606
-0.340977
-0.257249
-0.184137
-0.0384766
0.0366004
0.066547
-0.0222249
-0.0328564
-0.0237922
-0.0141122
0.981557
-0.417544
-0.421935
-0.411587
-0.413394
-0.431135
-0.250842
-0.302415
-0.463914
-0.179002
0.122723
0.142461
-0.32909
-0.335168
-0.269163
-0.206812
-0.147577
0.0188364
0.0595968
-0.00644851
-0.0351988
-0.0243527
-0.0138257
1.13503
-0.304383
-0.341474
-0.35734
-0.360605
-0.225527
-0.169133
-0.293294
-0.358929
0.163002
0.235967
0.0215801
-0.35897
-0.330933
-0.29315
-0.249119
-0.196962
-0.0624397
0.0415262
-0.0250063
-0.0426572
-0.029161
-0.0171787
1.24872
-0.17267
-0.273166
-0.299326
-0.267757
-0.0715452
-0.0845478
-0.267814
0.0746544
0.334217
0.355254
-0.135505
-0.329432
-0.328446
-0.333139
-0.312666
-0.259006
-0.102978
-0.0146773
-0.0663041
-0.0524637
-0.0358527
-0.022135
0.371204
-0.0764249
-0.212193
-0.23887
-0.185809
-0.000903772
-0.15262
-0.160072
0.413712
0.447266
0.20663
-0.267644
-0.290129
-0.309637
-0.341592
-0.380479
-0.312029
-0.106568
-0.0617395
-0.0881394
-0.0611409
-0.0418347
-0.0267495
0.154268
-0.0924608
-0.161835
-0.183973
-0.155529
-0.108895
-0.10942
0.26857
0.586666
0.544601
-0.149568
-0.204183
-0.250084
-0.245547
-0.324158
-0.4097
-0.282206
-0.109604
-0.0919674
-0.095323
-0.0650366
-0.0446222
-0.0293687
0.326673
0.0771367
-0.124482
-0.141033
-0.132488
-0.10381
0.0776458
0.725949
0.702115
-0.0180128
-0.102869
-0.139191
-0.181367
-0.192301
-0.286198
-0.36024
-0.247809
-0.138401
-0.12106
-0.086983
-0.060855
-0.0426367
-0.02897
0.0992974
0.241989
-0.0769168
-0.11203
-0.0958024
-0.0582149
0.759477
0.795338
0.174581
-0.0335012
-0.0561299
-0.0883415
-0.0906365
-0.09797
-0.241126
-0.239861
-0.189954
-0.138201
-0.0965651
-0.0687898
-0.050015
-0.0361069
-0.0254645
-0.0643481
0.255925
0.0861489
-0.0977719
-0.100579
0.377988
0.871147
0.257568
0.00550174
-0.0198589
-0.0456825
-0.0698403
-0.0477254
-0.026399
-0.146014
-0.125788
-0.102229
-0.0806983
-0.0613515
-0.0461745
-0.0344164
-0.0262484
-0.0195035
-0.070144
0.0683055
0.0538441
-0.0223023
0.110296
0.377675
0.0562662
-0.00943891
-0.0141872
-0.038835
-0.0681001
-0.0934741
-0.0809503
-0.0439055
-0.0986099
-0.0652786
-0.044752
-0.0347743
-0.0268045
-0.021026
-0.0167667
-0.0137516
-0.0118018
639.012
660.825
674.915
692.951
404.21
660.877
688.278
697.639
491.772
562.651
567.747
582.586
4.91548
4.61264
34.4173
64.8319
4.95289
4.74903
4.51964
4.44525
6.52183
7.22366
6.90908
6.83717
6.97299
6.64446
6.50657
6.43728
3.23793
3.39766
5.05179
6.08656
2.11969
2.12401
1.85924
1.76261
1.78847
2.07142
2.81667
1.84922
2.49588
2.6274
2.68706
2.08532
2.38013
2.42201
1.34549
0.596141
2.11662
0.374597
0.319781
0.279664
0.435307
0.171121
0.125066
0.0701298
0.099564
0.0473953
-0.0108257
-0.065189
0.0710158
0.0639579
-0.076976
-0.216411
0.137787
0.0607071
-0.0190232
-0.264279
0.115292
0.0236114
-0.123036
-0.372916
0.0702234
-0.045081
-0.333248
-0.438906
-0.0890201
-0.232967
-0.352877
-0.429609
-0.0892925
-0.212643
-0.295458
-0.350514
-0.191843
-0.24388
-0.231622
-0.265152
-0.233085
-0.249699
-0.175599
0.251677
0.218433
0.319322
0.32791
0.315765
0.242622
0.339283
0.336919
-0.0328692
-0.279125
-0.195414
-0.155215
-0.127652
-0.229549
-0.240555
-0.0529832
0.227627
-0.170734
-0.169928
-0.142916
-0.0482057
-0.10109
-0.0963105
-0.0893157
-0.0762861
-0.0524806
-0.0442202
-0.0329855
-0.0185556
-0.0250871
-0.0170746
-0.00706511
0.00483622
-0.0110992
-0.00417415
0.00395106
0.0132015
-0.0056344
0.000375459
0.00707925
0.0144065
-0.00568337
-0.000227439
0.00558996
0.0116748
-0.00889313
-0.00361498
0.00172998
0.00709599
-0.0134407
-0.00813499
-0.00299841
0.001951
-0.0177533
-0.0124299
-0.00745488
-0.0028091
-0.0205757
-0.0154687
-0.0108064
-0.006536
-0.0211372
-0.0166284
-0.0125685
-0.0088953
-0.0193206
-0.0157934
-0.0126396
-0.00980459
-0.0155869
-0.0133426
-0.0113452
-0.00955458
-0.0105402
-0.00982173
-0.00918825
-0.00861538
745.253
785.641
784.006
757.862
721.547
681.757
685.218
732.72
796.355
833.468
862.063
889.998
920.135
937.727
949.486
994.837
1020.57
1044.88
1026.6
742.82
772.473
701.604
400.638
263.105
468.533
618.278
708.114
755.836
792.989
832.049
865.521
904.031
942.401
976.584
1010.62
1045.12
1054.1
1045.24
612.213
518.509
243.626
71.9817
103.847
84.3915
28.5837
147.672
260.393
341.15
413.637
514.471
686.558
881.259
970.513
1024.25
1075.89
1074.96
1076.48
75.9255
69.2772
54.8147
57.7214
45.3682
7.26936
6.78438
5.87988
5.44912
4.97914
5.48094
10.7462
36.9945
373.496
787.981
1031.21
1097.47
1145.51
1128.44
4.39375
4.11244
3.73537
5.8353
4.21284
4.90792
4.74932
4.79154
4.75489
4.35031
4.22453
7.51775
21.5489
28.2219
112.452
617.742
989.28
1158.13
1173.43
5.9634
4.40084
4.29098
4.28742
4.51459
4.55759
4.35943
4.46932
4.424
3.98779
3.59035
19.0909
46.0364
45.2167
41.16
31.0929
195.138
734.966
1192.52
6.44085
6.40499
6.64059
7.21134
5.35373
4.9597
4.99921
5.67787
4.50078
3.9601
3.38444
17.6339
48.1314
51.6558
42.9385
25.5297
12.0066
28.4159
528.341
4.28575
2.46646
4.55943
7.10581
7.92301
8.07989
7.84737
7.65787
7.45116
6.98058
3.48123
3.93926
25.4149
52.8062
53.5307
48.6642
9.2037
10.8073
11.8935
1.69753
1.80636
2.06409
3.20228
4.74947
4.98435
4.44805
3.83625
4.63984
6.13844
5.2922
4.18213
8.45263
38.7053
39.7955
8.4485
7.47285
10.1359
11.142
1.468
1.60268
1.92177
2.40072
2.89123
2.88911
2.60877
2.35057
2.06881
1.84032
1.86061
1.14189
8.93466
0.923493
0.809305
1.10865
1.30388
18.9274
26.5787
1.07595
1.26843
1.91677
4.04733
5.23156
5.20607
4.19353
2.39643
2.01724
1.74148
1.46245
1.24314
3.98156
5.6526
2.1451
0.944757
1.45422
13.2029
30.5805
0.664731
2.64442
4.39161
5.29893
5.60121
5.74185
5.74858
5.24304
2.33854
2.2921
2.71688
1.54882
1.46466
3.12578
2.37821
0.929349
1.42632
0.917378
32.1195
0.246741
1.46034
4.72709
5.07141
5.28994
5.4251
5.49156
5.51466
5.09612
2.69798
2.55411
2.78357
2.49196
1.05234
0.928621
0.958521
1.08111
1.23718
33.8295
-0.0198736
0.811781
4.58905
4.83776
4.98317
5.1314
5.24039
5.32813
5.29989
4.61233
2.60371
2.62537
2.98634
2.75081
1.49794
1.08226
1.21648
1.40585
28.9328
-0.0714944
3.32998
4.58638
4.61806
4.30322
4.31284
3.76469
5.09403
5.09808
5.00305
3.21289
2.57991
2.98865
3.09434
3.20171
3.19446
1.30862
1.31571
9.76299
-0.33139
4.19494
4.57171
1.5004
0.1584
0.15535
0.767823
2.03085
4.04238
4.7376
4.3185
3.81242
2.45077
2.98185
3.09076
3.22627
2.19343
1.15296
5.09625
-0.400971
4.06454
4.07944
-0.275445
-0.21787
-0.0535023
1.02898
1.25993
1.35713
1.28284
3.71325
3.12482
0.90012
2.69886
2.99743
3.17074
2.48614
1.0071
3.82712
0.0300265
3.9533
0.779213
-0.370129
-0.350743
0.0674314
1.49957
2.30291
1.87631
0.592078
-0.0270573
0.61168
0.0819531
0.65953
1.74377
3.06263
2.07453
0.813704
1.44316
-0.570114
2.08158
0.227789
-0.461317
-0.466756
-0.346267
-0.200523
1.82448
3.34998
3.4173
-0.11422
-0.356607
-0.254471
0.0214279
0.230292
0.412235
0.707313
0.5756
0.661592
-0.537553
-0.369186
0.200028
-0.456345
-0.563227
-0.463476
-0.338917
-0.28178
2.9142
3.60543
1.17845
-0.303136
-0.219454
0.0141434
0.198083
0.276933
0.338592
0.442135
0.776708
-0.423132
-0.454035
0.0538999
-0.432759
-0.547988
-0.459699
-0.352162
-0.294145
-0.111882
3.81113
2.91069
-0.142125
-0.160451
0.0173583
0.17033
0.230545
0.278876
0.485891
1.41479
-0.31365
-0.175498
0.349501
0.196924
-0.19931
-0.350803
-0.325371
-0.297381
-0.280995
2.92229
3.83479
0.292869
-0.126552
0.00304672
0.534143
0.36125
0.198941
1.38198
1.48332
-0.186174
0.0189851
1.67927
1.66359
0.728747
-0.292545
-0.28028
-0.295398
-0.292187
1.18973
4.10739
0.661189
-0.154631
0.18324
2.51248
0.894031
0.0998491
1.35755
1.33389
-0.141278
1.04103
1.91303
1.82477
1.12099
-0.17731
-0.22454
-0.283317
-0.312683
1.61531
4.25728
1.04398
-0.232129
1.17309
2.52084
1.27403
0.0381192
1.28451
0.468197
0.377572
2.04068
2.12562
2.13832
0.42467
-0.0564988
-0.131818
-0.262337
-0.348333
4.46106
4.28844
0.967036
-0.323824
2.34628
2.50669
1.36281
-0.121911
1.23008
0.0489249
0.845741
2.2335
2.42728
1.38913
0.234449
0.109901
-0.040048
-0.228787
-0.238368
4.96339
3.94279
0.183287
-0.369456
2.27563
2.52364
1.32985
-0.245734
0.221892
-0.130179
0.515782
1.33783
1.16547
0.41603
0.404123
0.233521
0.021054
-0.186047
2.01209
5.08486
1.13493
-0.314074
-0.341446
1.99296
2.5624
1.18882
-0.329586
-0.257927
-0.199008
-0.113024
0.0711953
0.248257
0.351569
0.456529
0.249366
0.0488414
-0.150499
3.16637
5.32242
-0.226368
-0.16377
-0.0227106
2.60821
2.60757
0.724549
-0.378578
-0.280121
-0.220474
-0.0327915
0.0920241
0.206193
0.389655
0.411942
0.197134
0.0523724
-0.128663
0.856147
5.5874
3.49712
0.0151819
2.50043
2.66797
2.3941
-0.158042
-0.370868
-0.274609
-0.21805
0.0139769
0.0852648
0.159733
0.347378
0.356166
0.147803
0.0473
-0.106926
-0.21877
4.47564
5.95249
5.99044
3.2912
1.76575
-0.0881936
-0.443009
-0.324545
-0.241362
-0.200825
0.028982
0.0755143
0.118445
0.168531
0.165026
0.113191
0.0461791
-0.0695995
-0.237575
-0.418319
1.15841
1.93537
0.104234
-0.42768
-0.450551
-0.343285
-0.249429
-0.191642
-0.17677
0.0308146
0.0616779
0.0886553
0.104382
0.105902
0.0890237
0.047333
-0.0263415
-0.139927
-0.26858
-0.367417
-0.421013
-0.422263
-0.393446
-0.330997
-0.234746
-0.181736
-0.154486
-0.148876
0.0276966
0.048994
0.0671412
0.0787899
0.0805238
0.0714941
0.0463734
0.00189762
-0.0633703
-0.139259
-0.202312
-0.231054
-0.247233
-0.235228
-0.20094
-0.158349
-0.132788
-0.121881
-0.121377
0.0222996
0.0379887
0.0512057
0.060137
0.0626386
0.0584629
0.0433288
0.0157488
-0.0230424
-0.0658801
-0.101489
-0.121188
-0.128404
-0.124204
-0.11197
-0.0996723
-0.0922613
-0.0913764
-0.0968552
0.0161394
0.0285876
0.0389126
0.0461479
0.0492748
0.0474601
0.038634
0.0218192
-0.00230378
-0.0282904
-0.0504531
-0.066099
-0.0703549
-0.068781
-0.0645173
-0.061581
-0.0623954
-0.0678432
-0.075628
0.00995876
0.0206338
0.029064
0.0352194
0.0386022
0.0379188
0.0334499
0.0233522
0.00840968
-0.00789
-0.022318
-0.0331665
-0.0384922
-0.0394728
-0.0383463
-0.0380316
-0.0410578
-0.0487788
-0.0573563
0.00448045
0.0137684
0.0209422
0.0262592
0.0296094
0.0301758
0.0279643
0.0222663
0.0133648
0.00320975
-0.00627914
-0.0138659
-0.0185488
-0.0205966
-0.0210061
-0.0215645
-0.0252336
-0.0330307
-0.0417021
5.24746e-05
0.0078823
0.0141011
0.0187743
0.0218135
0.0231395
0.0225754
0.0197295
0.0147968
0.00877285
0.00275204
-0.00248371
-0.00619062
-0.0083188
-0.00934832
-0.0105042
-0.013836
-0.0205132
-0.0283556
-0.00329946
0.00311672
0.00829366
0.0123142
0.0151801
0.0168601
0.0172766
0.0162783
0.0139244
0.0106369
0.00701854
0.00346329
0.000627173
-0.00130089
-0.00250945
-0.0038858
-0.00683895
-0.0118456
-0.0179089
-0.00551715
-0.000684661
0.00328644
0.0065076
0.00903894
0.0108741
0.0119555
0.0121865
0.0114955
0.00992974
0.00777476
0.0055526
0.00351021
0.00190026
0.000723273
-0.000513316
-0.00274458
-0.00611575
-0.0103856
-0.00685198
-0.00382846
-0.00121763
0.00103745
0.00302292
0.00477429
0.0062706
0.00741217
0.00795486
0.00756249
0.0064495
0.00511737
0.003786
0.00264187
0.00174026
0.000872186
-0.000488245
-0.00244797
-0.00512835
-0.00772392
-0.00673945
-0.00561575
-0.00444533
-0.00316539
-0.00175851
-0.000221934
0.00139595
0.00290777
0.00368297
0.00346671
0.00284307
0.00220775
0.00161111
0.00109231
0.000576028
-0.000109261
-0.000834243
-0.00158263
)
;

boundaryField
{
    leftWall
    {
        type            fixedFluxPressure;
        gradient        uniform 0;
        value           nonuniform List<scalar> 
50
(
703.623
702.178
692.88
680.42
676.028
669.808
664.296
675.351
700.22
649.382
77.6703
2.6933
2.44652
2.15911
2.02998
1.95122
2.16486
2.40805
2.30595
1.56469
1.37161
1.18852
0.80778
0.821311
0.863778
0.899499
0.917502
0.950009
1.53611
2.74622
5.05016
14.0687
13.3855
3.69198
1.70965
1.3474
0.948997
0.703285
0.0857498
0.122954
0.666377
0.981557
1.13503
1.24872
0.371204
0.154268
0.326673
0.0992974
-0.0643481
-0.070144
)
;
    }
    rightWall
    {
        type            fixedFluxPressure;
        gradient        uniform 0;
        value           nonuniform List<scalar> 
50
(
991.212
987.842
986.749
992.99
1012.6
1019.7
1031.55
1036.25
1026.6
1045.24
1076.48
1128.44
1173.43
1192.52
528.341
11.8935
11.142
26.5787
30.5805
32.1195
33.8295
28.9328
9.76299
5.09625
3.82712
1.44316
0.661592
0.776708
1.41479
1.48332
1.33389
0.468197
0.0489249
-0.130179
-0.199008
-0.220474
-0.21805
-0.200825
-0.17677
-0.148876
-0.121377
-0.0968552
-0.075628
-0.0573563
-0.0417021
-0.0283556
-0.0179089
-0.0103856
-0.00512835
-0.00158263
)
;
    }
    lowerWall
    {
        type            fixedFluxPressure;
        gradient        uniform 0;
        value           nonuniform List<scalar> 
62
(
703.623
703.782
713.587
713.444
685.319
697.441
707.753
703.84
710.727
709.276
705.726
701.438
697.276
691.362
682.488
672.107
659.994
649.892
641.082
632.415
627.825
629.333
631.453
631.453
630.67
629.328
626.884
623.546
622.073
623.984
626.833
639.012
660.825
674.915
692.951
754.471
754.058
759.57
762.152
751.57
738.127
750.302
756.004
754.471
749.618
730.475
719.061
738.306
750.023
749.108
746.137
758.21
797.109
852.055
895.151
917.626
931.611
941.201
949.001
959.525
973.98
991.212
)
;
    }
    atmosphere
    {
        type            totalPressure;
        rho             rho;
        psi             none;
        gamma           1;
        p0              uniform 0;
        value           nonuniform List<scalar> 
46
(
-0.0149333
0
0
0
0
0
-0.000990956
-0.0087752
-0.0259567
-0.0553549
-0.0901558
-0.121222
-0.0881809
-0.0282066
-0.0982361
-0.0671357
-0.0324208
-0.0192545
-0.0110451
-0.0078017
-0.00699849
-0.0069816
-0.00725525
-0.00753231
-0.007684
-0.00782799
-0.00795199
-0.00810404
-0.00813227
-0.00787966
-0.00731943
-0.00643294
-0.0052589
-0.00385149
-0.00230303
-0.000864243
-4.86598e-05
0
0
0
0
0
0
0
0
0
)
;
    }
    defaultFaces
    {
        type            empty;
    }
}


// ************************************************************************* //
