/*--------------------------------*- C++ -*----------------------------------*\
| =========                 |                                                 |
| \\      /  F ield         | OpenFOAM: The Open Source CFD Toolbox           |
|  \\    /   O peration     | Version:  2.3.0                                 |
|   \\  /    A nd           | Web:      www.OpenFOAM.org                      |
|    \\/     M anipulation  |                                                 |
\*---------------------------------------------------------------------------*/
FoamFile
{
    version     2.0;
    format      ascii;
    class       surfaceScalarField;
    location    "2";
    object      phi;
}
// * * * * * * * * * * * * * * * * * * * * * * * * * * * * * * * * * * * * * //

dimensions      [0 3 -1 0 0 0 0];

internalField   nonuniform List<scalar> 
4432
(
4.31007e-06
-4.31007e-06
3.02245e-06
1.28761e-06
4.1947e-06
-1.17225e-06
1.27707e-05
-8.57604e-06
6.33028e-06
6.44046e-06
-4.10293e-06
1.04332e-05
-5.95946e-06
1.85653e-06
-6.59723e-06
6.37765e-07
-3.94283e-06
-2.65439e-06
-2.09863e-06
-1.8442e-06
-1.92859e-06
-1.70046e-07
-1.51713e-06
-4.11459e-07
9.1676e-09
-1.52629e-06
1.06274e-06
-1.05357e-06
-2.64532e-07
1.32727e-06
-4.20974e-06
3.94522e-06
-9.2582e-06
5.04846e-06
-1.19256e-05
2.66742e-06
-1.18822e-05
-4.344e-08
-1.14394e-05
-4.42803e-07
-9.76947e-06
-1.6699e-06
-5.33957e-06
-4.42991e-06
-5.33956e-06
-1.11171e-06
-3.19836e-06
-6.75783e-06
6.93372e-06
-4.0417e-06
-3.88837e-06
9.28068e-06
-2.18984e-05
9.98493e-06
5.7362e-06
-3.03008e-06
2.34482e-05
-7.79e-06
6.61646e-06
-6.5419e-06
-6.10345e-07
-3.72294e-06
-5.47335e-06
-2.96228e-06
-2.60487e-06
-2.92883e-06
-2.03489e-07
-2.24122e-06
-1.09907e-06
-6.80801e-07
-3.08671e-06
1.44183e-07
-1.87855e-06
-1.68653e-06
3.15797e-06
-5.06667e-06
7.32536e-06
-7.44745e-06
7.42923e-06
-7.69699e-06
2.91695e-06
-8.01899e-06
2.78569e-07
-9.2945e-06
8.32697e-07
-8.78324e-06
-2.18116e-06
-5.11866e-06
-8.09448e-06
-1.04582e-05
-7.22829e-06
4.02994e-06
-1.18115e-05
1.15169e-05
-5.77757e-06
-9.92227e-06
3.34402e-06
-3.102e-05
7.38268e-06
1.69754e-06
-3.82614e-06
3.4657e-05
-7.82111e-06
1.06114e-05
-5.39873e-06
-3.03274e-06
-2.76743e-06
-8.10464e-06
-2.04855e-06
-3.32375e-06
-1.3828e-06
-8.69234e-07
1.77682e-07
-2.65956e-06
1.49999e-06
-4.40902e-06
1.72508e-06
-2.10364e-06
1.22266e-06
3.66039e-06
2.5183e-07
8.29619e-06
-4.22596e-07
8.10366e-06
-1.51139e-06
4.00574e-06
-4.15087e-06
2.91805e-06
-7.44535e-06
4.12718e-06
-8.48619e-06
-1.1403e-06
-5.7226e-06
-1.08581e-05
-1.61808e-05
-9.07461e-06
1.31045e-05
-1.23528e-05
1.47951e-05
-8.12344e-06
-1.41517e-05
-3.77721e-06
-3.53662e-05
1.07127e-06
-3.15093e-06
-5.76894e-06
4.14972e-05
-7.66289e-06
1.25054e-05
-4.49205e-06
-6.20359e-06
-1.30168e-06
-1.1295e-05
1.08152e-07
-4.73359e-06
2.23228e-06
-2.99336e-06
5.02135e-06
-5.44863e-06
6.63162e-06
-6.01929e-06
5.28361e-06
-7.55624e-07
3.49622e-06
5.44777e-06
4.09261e-06
7.6998e-06
4.37628e-06
7.81999e-06
1.28571e-06
7.09631e-06
-3.83495e-06
8.03872e-06
-7.5074e-06
7.79962e-06
-8.47165e-06
-1.76046e-07
-6.32948e-06
-1.30003e-05
-2.25103e-05
-7.62817e-06
2.07327e-05
-1.08576e-05
1.80245e-05
-1.03833e-05
-1.4626e-05
-8.38719e-06
-3.73623e-05
-2.51304e-06
-9.02507e-06
-4.84148e-06
4.38257e-05
-5.84246e-06
1.35064e-05
-2.84129e-06
-9.20476e-06
5.59858e-07
-1.46962e-05
3.45181e-06
-7.62554e-06
6.98001e-06
-6.52157e-06
1.04844e-05
-8.95306e-06
1.20252e-05
-7.56004e-06
1.00848e-05
1.18475e-06
5.83669e-06
9.6959e-06
4.1067e-06
9.4298e-06
3.51286e-06
8.41382e-06
6.71169e-08
1.0542e-05
-4.81788e-06
1.29237e-05
-6.6785e-06
9.66024e-06
-5.22492e-06
-1.62963e-06
-3.34036e-06
-1.48848e-05
-2.58507e-05
-4.21502e-06
2.49477e-05
-7.42389e-06
2.12334e-05
-9.82588e-06
-1.2224e-05
-1.17338e-05
-3.54544e-05
-4.29759e-06
-1.64613e-05
2.56663e-07
3.92714e-05
-9.95979e-07
1.4759e-05
9.6502e-07
-1.11658e-05
3.30649e-06
-1.70376e-05
7.11462e-06
-1.14337e-05
1.19707e-05
-1.13776e-05
1.5475e-05
-1.24574e-05
1.58491e-05
-7.93419e-06
1.29497e-05
4.08417e-06
7.74393e-06
1.49017e-05
3.27435e-06
1.38994e-05
5.02982e-07
1.11852e-05
-2.43661e-06
1.34816e-05
-4.32098e-06
1.48081e-05
-2.02326e-06
7.36252e-06
2.53366e-06
-6.18654e-06
3.9089e-06
-1.62601e-05
-2.19418e-05
-3.71858e-07
2.53196e-05
-2.33596e-06
2.31975e-05
-6.30913e-06
-8.25082e-06
-1.19294e-05
-2.98341e-05
-5.21096e-06
-2.31798e-05
6.75182e-06
2.73086e-05
6.49299e-06
1.50179e-05
6.34755e-06
-1.10203e-05
7.60433e-06
-1.82944e-05
1.11506e-05
-1.49799e-05
1.64406e-05
-1.66676e-05
1.87101e-05
-1.47269e-05
1.69399e-05
-6.16404e-06
1.29557e-05
8.06836e-06
8.14717e-06
1.97103e-05
2.35743e-06
1.96891e-05
-2.33521e-06
1.58778e-05
-3.54666e-06
1.46931e-05
-1.71357e-06
1.2975e-05
5.48397e-06
1.64978e-07
1.24409e-05
-1.31435e-05
1.08688e-05
-1.46879e-05
-1.1073e-05
3.5894e-06
2.17302e-05
2.97801e-06
2.38089e-05
-1.05506e-06
-4.21775e-06
-9.16522e-06
-2.17239e-05
-8.13039e-06
-2.42146e-05
7.50513e-06
1.16731e-05
1.1658e-05
1.0865e-05
1.21862e-05
-1.15486e-05
1.24324e-05
-1.85405e-05
1.5472e-05
-1.80196e-05
1.95127e-05
-2.07083e-05
1.90305e-05
-1.42447e-05
1.48466e-05
-1.98013e-06
1.06662e-05
1.22488e-05
7.66049e-06
2.2716e-05
3.36607e-06
2.39836e-05
-6.77059e-07
1.9921e-05
-1.73351e-06
1.57495e-05
3.40711e-06
7.83439e-06
1.01337e-05
-6.56163e-06
1.43325e-05
-1.73423e-05
1.18531e-05
-1.22085e-05
7.80049e-07
4.0256e-06
-4.0256e-06
-6.13311e-06
1.01587e-05
-2.68631e-05
2.073e-05
-3.66668e-05
9.80374e-06
-3.1857e-05
-4.80977e-06
-2.79614e-05
-3.89566e-06
-2.98563e-05
1.89495e-06
-3.50955e-05
5.2392e-06
-3.87397e-05
3.64417e-06
-3.53471e-05
-3.39259e-06
-2.57417e-05
-9.60536e-06
-1.51671e-05
-1.05747e-05
-9.85953e-06
-5.30753e-06
-1.21204e-05
2.26086e-06
-1.6301e-05
4.18061e-06
-1.83453e-05
2.04426e-06
-1.65294e-05
-1.81588e-06
-1.06445e-05
-5.88484e-06
-1.06445e-05
-4.46205e-06
4.36452e-07
-1.90223e-05
2.47189e-05
-2.95964e-05
3.13041e-05
-2.32015e-05
3.40882e-06
-1.47234e-05
-1.32878e-05
-2.00474e-05
1.42831e-06
-2.92825e-05
1.113e-05
-3.54525e-05
1.14092e-05
-3.66994e-05
4.89112e-06
-3.23808e-05
-7.71126e-06
-2.40486e-05
-1.79375e-05
-1.52851e-05
-1.93381e-05
-7.93615e-06
-1.26565e-05
-5.52392e-06
-1.51377e-07
-8.72873e-06
7.38542e-06
-1.20501e-05
5.36568e-06
-1.26979e-05
-1.16811e-06
-8.76963e-06
-9.81314e-06
-1.94142e-05
-1.05287e-05
1.09651e-05
-2.04959e-05
3.46861e-05
-1.80943e-05
2.89025e-05
-1.30235e-06
-1.33831e-05
1.00297e-05
-2.46199e-05
5.5846e-06
5.87345e-06
-1.25701e-05
2.92847e-05
-2.52863e-05
2.41254e-05
-2.77642e-05
7.36907e-06
-2.40402e-05
-1.14353e-05
-1.7287e-05
-2.46906e-05
-1.16121e-05
-2.50131e-05
-7.49024e-06
-1.67784e-05
-2.23053e-06
-5.41108e-06
1.97249e-06
3.18239e-06
1.40941e-06
5.92876e-06
-2.82918e-06
3.07048e-06
-4.86316e-06
-7.77917e-06
-2.42773e-05
-1.09071e-05
2.18722e-05
-1.51014e-05
3.88804e-05
-3.57364e-06
1.73748e-05
1.50539e-05
-3.20106e-05
2.41889e-05
-3.37549e-05
2.34687e-05
6.59366e-06
8.52386e-06
4.42296e-05
-8.69742e-06
4.13467e-05
-1.54166e-05
1.40883e-05
-1.35965e-05
-1.32555e-05
-9.46202e-06
-2.88251e-05
-7.17177e-06
-2.73033e-05
-4.71764e-06
-1.92325e-05
-1.10174e-06
-9.02697e-06
3.92974e-06
-1.84909e-06
7.58103e-06
2.27748e-06
5.98273e-06
4.66878e-06
1.40553e-06
-3.20199e-06
-2.28718e-05
-7.79702e-06
2.96692e-05
-7.51974e-06
3.86031e-05
8.01144e-06
1.84365e-06
2.15032e-05
-4.55024e-05
2.37314e-05
-3.59831e-05
2.41269e-05
6.19816e-06
1.97747e-05
4.85818e-05
8.88142e-06
5.224e-05
5.36088e-07
2.24336e-05
-1.63174e-06
-1.10877e-05
-3.96412e-06
-2.64927e-05
-5.94446e-06
-2.5323e-05
-4.18751e-06
-2.09895e-05
-8.44338e-07
-1.23701e-05
2.50079e-06
-5.19421e-06
6.66089e-06
-1.88262e-06
7.78678e-06
3.54289e-06
4.29878e-06
2.85997e-07
-1.8573e-05
-3.66433e-06
3.33336e-05
8.25993e-08
3.48562e-05
1.35632e-05
-1.16369e-05
1.19882e-05
-4.39274e-05
1.75206e-06
-2.5747e-05
7.62582e-06
3.24398e-07
1.71403e-05
3.90673e-05
1.57404e-05
5.36399e-05
1.04625e-05
2.77115e-05
3.74005e-06
-4.36522e-06
-4.45766e-06
-1.8295e-05
-8.73882e-06
-2.10418e-05
-6.62988e-06
-2.30984e-05
-1.95838e-06
-1.70416e-05
1.64799e-06
-8.80057e-06
4.33495e-06
-4.56958e-06
6.52612e-06
1.35173e-06
5.22047e-06
1.59164e-06
-1.33525e-05
-2.14169e-06
3.54753e-05
5.40938e-06
2.73051e-05
1.04266e-05
-1.66542e-05
-7.06445e-06
-2.64363e-05
-1.90506e-05
-1.37608e-05
-1.15209e-05
-7.20534e-06
3.42022e-06
2.41262e-05
1.03408e-05
4.67193e-05
8.48448e-06
2.95678e-05
-1.0397e-07
4.22324e-06
-1.0899e-05
-7.50003e-06
-1.40308e-05
-1.791e-05
-1.13119e-05
-2.58173e-05
-5.84275e-06
-2.25108e-05
-4.19815e-07
-1.42235e-05
2.78686e-06
-7.77626e-06
4.75613e-06
-6.17537e-07
4.82102e-06
1.52676e-06
-8.53152e-06
-2.4287e-06
3.7904e-05
6.26124e-06
1.86152e-05
-8.80122e-07
-9.51282e-06
-2.42539e-05
-3.06247e-06
-3.16119e-05
-6.40279e-06
-2.83361e-05
-1.04812e-05
-1.67625e-05
1.25526e-05
-5.13187e-06
3.50886e-05
-5.42366e-06
2.98596e-05
-1.38497e-05
1.26493e-05
-1.93932e-05
-1.95657e-06
-1.97558e-05
-1.75474e-05
-1.82104e-05
-2.73627e-05
-1.28797e-05
-2.78414e-05
-5.77048e-06
-2.13328e-05
1.32029e-07
-1.36788e-05
3.09452e-06
-3.58002e-06
3.87273e-06
7.4854e-07
-4.65879e-06
1.02767e-05
1.14535e-05
1.64829e-05
1.76027e-05
9.97138e-06
2.29374e-06
-5.43358e-06
-6.31899e-06
-1.84787e-05
-1.11695e-05
3.0612e-06
-9.86681e-06
2.5469e-05
-1.15427e-05
3.33419e-05
-1.94216e-05
3.5961e-05
-2.11596e-05
3.99065e-05
-2.1965e-05
3.97589e-05
-2.05607e-05
3.14669e-05
-5.95271e-06
1.81585e-05
1.13283e-05
9.34738e-06
2.10599e-05
6.97107e-06
2.50923e-05
3.35214e-06
2.76025e-05
-3.09749e-06
2.63706e-05
-9.07654e-06
2.17286e-05
-1.21474e-05
1.09053e-05
-1.44096e-05
-4.29943e-06
-1.2642e-05
-1.91099e-05
-4.47007e-06
-2.03804e-05
5.84517e-06
-9.53519e-06
8.65723e-06
2.79625e-06
2.03463e-05
5.9137e-06
2.10627e-05
1.57735e-06
1.53114e-05
-5.67684e-07
1.06667e-05
-6.52478e-06
1.83001e-05
-1.75003e-05
3.20316e-05
-2.52742e-05
3.48811e-05
-2.22711e-05
3.37313e-05
-2.00097e-05
3.16718e-05
-1.99056e-05
1.60353e-05
-4.92424e-06
5.71783e-08
1.00254e-05
-7.0892e-06
1.84746e-05
-1.16176e-05
2.55883e-05
-2.29812e-05
3.64558e-05
-4.73613e-05
5.19826e-05
-7.22031e-05
5.12124e-05
-9.05331e-05
4.00585e-05
-0.00010268
2.30526e-05
-0.000112592
5.61248e-06
-0.000116938
-1.47646e-05
-0.000102697
-3.46208e-05
-2.21548e-05
-7.46972e-05
-4.67836e-06
7.47461e-06
-1.37457e-05
1.49811e-05
-2.9188e-05
1.70196e-05
-2.20457e-05
-7.70995e-06
-9.29427e-06
-1.92763e-05
-4.14841e-06
-2.26462e-05
-5.2672e-06
-2.41554e-05
-1.96168e-05
-7.92149e-06
-3.72967e-05
-2.32983e-06
-3.02026e-05
-2.69996e-05
-1.57856e-05
-1.93413e-05
-2.10219e-05
1.52617e-05
-3.35663e-05
3.10191e-05
-2.02377e-05
1.22597e-05
-2.31996e-06
1.8538e-05
-1.30778e-05
6.27404e-05
-2.60329e-05
6.41677e-05
-5.17571e-05
6.57828e-05
-9.30035e-05
6.42988e-05
-0.000142893
5.55015e-05
-0.000181733
2.40759e-05
-0.000184905
-3.14486e-05
-5.91509e-05
-0.000147909
-6.00816e-05
6.75562e-05
-9.04936e-05
4.53931e-05
-9.14492e-05
1.79752e-05
-0.000117145
1.79854e-05
-0.000171815
3.53945e-05
-0.000180938
-1.35236e-05
-0.000174431
-3.06622e-05
-0.000189643
7.29034e-06
-0.000254964
6.29908e-05
-0.000300971
1.90073e-05
-0.000297524
-2.27879e-05
-0.000271893
-1.03691e-05
-0.000212004
-2.887e-05
-0.000134079
-6.56658e-05
-5.32251e-05
-6.23157e-05
2.73904e-05
-1.78751e-05
7.59497e-05
1.56084e-05
9.5918e-05
4.58145e-05
6.09272e-05
9.929e-05
4.09688e-06
0.000112332
-6.67435e-05
9.49162e-05
-0.000130633
3.24408e-05
-4.85763e-05
-0.000141208
-4.0756e-05
0.000108312
-6.7749e-05
7.23862e-05
-9.64843e-05
4.67107e-05
-0.000136194
5.76947e-05
-0.000159326
5.85268e-05
-0.000195804
2.29551e-05
-0.000245442
1.8976e-05
-0.000307825
6.96735e-05
-0.000327705
8.28705e-05
-0.000340508
3.18103e-05
-0.000344055
-1.92418e-05
-0.000297081
-5.73423e-05
-0.000210921
-0.000115031
-0.000147806
-0.00012878
-0.00010005
-0.000110072
-3.57471e-05
-8.21775e-05
2.85954e-05
-4.87342e-05
8.53858e-05
-1.09759e-05
0.000109355
7.53206e-05
9.65896e-05
0.000125098
6.09703e-05
0.000130535
-3.65763e-05
0.000129988
3.60427e-05
-0.000121195
-3.05475e-05
0.00013886
-6.05502e-05
0.000102389
-9.33207e-05
7.94813e-05
-0.000116927
8.13014e-05
-0.0001467
8.82999e-05
-0.000198742
7.4997e-05
-0.000255713
7.59461e-05
-0.000276542
9.0503e-05
-0.000270752
7.70804e-05
-0.000257597
1.86552e-05
-0.000231079
-4.57602e-05
-0.000179155
-0.000109267
-0.000138992
-0.000155194
-0.000116522
-0.00015125
-9.41182e-05
-0.000132477
-6.06829e-05
-0.000115613
-2.32717e-05
-8.61454e-05
3.67889e-06
-3.79265e-05
4.5268e-05
3.37315e-05
8.03912e-05
8.99745e-05
8.75641e-05
0.000123362
3.41097e-06
0.000214141
0.000149536
-0.000110082
-1.80945e-05
0.000156954
-4.78048e-05
0.000132099
-6.95736e-05
0.00010125
-8.3754e-05
9.54813e-05
-0.000105438
0.000109984
-0.00014869
0.000118248
-0.000187825
0.000115081
-0.000201066
0.000103744
-0.00018865
6.46643e-05
-0.00016917
-8.24908e-07
-0.000146701
-6.82296e-05
-0.000123109
-0.000132859
-0.000113444
-0.000164859
-0.000107454
-0.00015724
-9.25734e-05
-0.000147357
-6.87039e-05
-0.000139482
-4.27681e-05
-0.000112081
-2.16743e-05
-5.90203e-05
2.04593e-06
1.00112e-05
3.37112e-05
5.83092e-05
3.828e-05
0.000118794
-2.23846e-05
0.000274806
0.000219661
-9.25093e-05
3.34631e-06
0.000153608
-1.70263e-05
0.000152472
-3.64056e-05
0.00012063
-4.4939e-05
0.000104015
-4.86535e-05
0.000113699
-7.03038e-05
0.000139899
-0.000101995
0.000146772
-0.000117243
0.000118992
-0.000118029
6.54497e-05
-0.0001117
-7.15434e-06
-0.000103098
-7.68312e-05
-0.000100533
-0.000135424
-0.000107787
-0.000157605
-0.000109521
-0.000155506
-0.000100767
-0.000156111
-8.85731e-05
-0.000151676
-6.66431e-05
-0.000134011
-2.88426e-05
-9.68205e-05
-1.21522e-05
-6.67926e-06
-2.02541e-05
6.64112e-05
-5.44132e-05
0.000152953
-9.1572e-05
0.000311965
0.000227474
-9.93853e-05
2.78055e-05
0.000125803
2.84862e-05
0.000151791
1.17133e-05
0.000137403
-5.36413e-06
0.000121092
-1.15223e-06
0.000109487
4.12486e-06
0.000134622
-1.49281e-05
0.000165825
-3.88437e-05
0.000142908
-5.64574e-05
8.30632e-05
-6.77559e-05
4.14393e-06
-7.45851e-05
-7.00021e-05
-8.62439e-05
-0.000123765
-0.000104317
-0.000139531
-0.000110352
-0.000149471
-0.000103415
-0.000163049
-0.000100662
-0.000154429
-9.99196e-05
-0.000134753
-9.39728e-05
-0.000102768
-8.14262e-05
-1.9226e-05
-0.00010361
8.85949e-05
-0.000153476
0.000202818
-0.000157274
0.000315763
0.000196391
-0.00012619
3.4822e-05
9.09809e-05
6.37674e-05
0.000122846
6.6045e-05
0.000135125
4.60382e-05
0.000141099
3.12188e-05
0.000124306
4.56774e-05
0.000120163
5.62643e-05
0.000155238
3.59606e-05
0.000163212
3.47175e-06
0.000115552
-2.51106e-05
3.27262e-05
-4.80837e-05
-4.70292e-05
-7.05897e-05
-0.000101259
-9.5647e-05
-0.000114474
-0.000108377
-0.000136741
-0.000102178
-0.000169248
-0.000104473
-0.000152134
-0.000123497
-0.000115729
-0.000149578
-7.66862e-05
-0.000170259
1.45503e-06
-0.000194139
0.000112475
-0.000216192
0.000224871
-0.000175624
0.000275195
0.00015045
-0.000129683
2.64367e-05
6.45445e-05
7.04236e-05
7.8859e-05
9.75878e-05
0.000107961
9.69664e-05
0.00014172
7.53195e-05
0.000145953
7.04477e-05
0.000125035
8.93186e-05
0.000136367
8.79713e-05
0.000164559
5.79499e-05
0.000145573
1.80557e-05
7.26203e-05
-2.00225e-05
-8.95097e-06
-5.32076e-05
-6.80743e-05
-8.1736e-05
-8.59457e-05
-0.000100586
-0.00011789
-9.73257e-05
-0.000172508
-0.000101121
-0.000148339
-0.000117478
-9.93723e-05
-0.000157777
-3.63873e-05
-0.000194641
3.83182e-05
-0.000214234
0.000132068
-0.000202701
0.000213339
-0.000146066
0.000218559
0.000109991
-0.000105606
2.49162e-05
3.9628e-05
6.51135e-05
3.86617e-05
9.91598e-05
7.39146e-05
0.000119972
0.000120908
0.000114217
0.000151708
9.73557e-05
0.000141897
0.000102112
0.000131611
0.000106077
0.000160594
8.67645e-05
0.000164886
5.2302e-05
0.000107083
1.08487e-05
3.25022e-05
-2.78347e-05
-2.9391e-05
-5.9052e-05
-5.47285e-05
-7.66942e-05
-0.000100248
-8.08174e-05
-0.000168385
-8.47745e-05
-0.000144382
-9.30646e-05
-9.10822e-05
-0.00012599
-3.46219e-06
-0.000161724
7.40531e-05
-0.000168303
0.000138647
-0.000143804
0.000188839
-9.71546e-05
0.00017191
8.94046e-05
-7.65688e-05
3.86585e-05
9.69385e-07
6.81249e-05
9.19511e-06
9.02198e-05
5.18196e-05
0.00011307
9.80572e-05
0.000122724
0.000142055
0.000111307
0.000153313
0.000102199
0.000140719
9.75176e-05
0.000165275
8.6831e-05
0.000175572
6.65201e-05
0.000127393
3.99384e-05
5.9084e-05
1.04177e-05
1.2953e-07
-2.28662e-05
-2.14446e-05
-3.66993e-05
-8.6415e-05
-5.20153e-05
-0.000153069
-5.94717e-05
-0.000136925
-6.42291e-05
-8.63249e-05
-7.74386e-05
9.74713e-06
-0.000100362
9.6976e-05
-0.000105162
0.000143447
-8.01476e-05
0.000163825
-5.27622e-05
0.000144525
8.81268e-05
-5.14842e-05
3.01673e-05
-2.9198e-05
4.59802e-05
-6.61765e-06
6.43172e-05
3.34827e-05
8.22468e-05
8.01276e-05
9.43483e-05
0.000129953
9.10198e-05
0.000156642
7.6876e-05
0.000154862
6.6765e-05
0.000175386
6.40796e-05
0.000178257
6.30457e-05
0.000128427
5.86796e-05
6.34503e-05
4.56642e-05
1.31449e-05
2.6404e-05
-2.18441e-06
4.77693e-06
-6.47881e-05
-2.17046e-05
-0.000126588
-3.7541e-05
-0.000121089
-5.50237e-05
-6.8842e-05
-5.48654e-05
9.58899e-06
-5.41144e-05
9.62251e-05
-5.93381e-05
0.000148671
-4.10263e-05
0.000145513
-2.63009e-05
0.0001298
9.27557e-05
-3.09297e-05
1.11491e-06
-3.03128e-05
5.95293e-08
-5.56212e-06
8.52657e-06
2.50158e-05
2.24715e-05
6.61825e-05
3.45668e-05
0.000117857
3.48848e-05
0.000156324
2.33786e-05
0.000166369
1.83194e-05
0.000180446
3.07374e-05
0.00016584
5.4275e-05
0.00010489
6.82621e-05
4.9463e-05
6.75366e-05
1.38702e-05
5.57462e-05
9.6061e-06
2.82948e-05
-3.73368e-05
-2.99903e-06
-9.52937e-05
-2.26651e-05
-0.000101423
-5.40701e-05
-3.74369e-05
-4.76694e-05
3.18841e-06
-2.51145e-05
7.36705e-05
-1.54872e-05
0.000139044
-8.49601e-06
0.000138522
-1.44563e-06
0.000122749
9.45236e-05
-3.21358e-06
-2.16769e-05
-8.63575e-06
-3.92238e-05
1.19847e-05
-4.30733e-05
2.88653e-05
-3.89722e-05
6.20812e-05
-3.48048e-05
0.00011369
-3.55359e-05
0.000157055
-4.03033e-05
0.000171136
-2.86254e-05
0.000168768
5.48534e-06
0.000131729
3.90035e-05
7.13719e-05
5.13559e-05
3.71105e-05
5.04706e-05
1.47553e-05
4.81052e-05
1.19716e-05
2.96602e-05
-1.88918e-05
3.80257e-06
-6.94362e-05
-2.18121e-05
-7.58081e-05
-4.95438e-05
-9.70525e-06
-4.87783e-05
2.42311e-06
-1.42469e-05
3.91392e-05
2.25269e-05
0.00010227
3.83034e-05
0.000122746
4.24799e-05
0.000118573
9.86157e-05
3.83878e-05
-2.55468e-05
1.6911e-05
-4.48878e-05
3.13256e-05
-5.62315e-05
4.02089e-05
-6.59181e-05
7.17678e-05
-7.51889e-05
0.000122961
-8.02748e-05
0.000162141
-7.79116e-05
0.000168773
-5.47045e-05
0.000145561
-2.21548e-05
9.9179e-05
-6.88818e-06
5.61055e-05
-1.47953e-05
4.50177e-05
-2.31527e-05
2.31129e-05
-9.30531e-06
-1.87585e-06
4.89325e-06
-3.30903e-05
7.86932e-06
-7.24124e-05
-1.12547e-05
-5.6684e-05
-1.66187e-05
-4.34126e-06
-2.79996e-05
1.3804e-05
-1.95253e-05
3.0665e-05
2.22696e-05
6.04751e-05
5.68974e-05
8.81176e-05
6.91067e-05
0.000106363
0.00010139
6.63324e-05
-1.48823e-05
3.17932e-05
-2.03061e-05
3.67496e-05
-3.11301e-05
5.10331e-05
-5.81738e-05
9.88116e-05
-8.30754e-05
0.000147863
-9.9411e-05
0.000178476
-0.000103728
0.00017309
-9.01634e-05
0.000131996
-7.28732e-05
8.18887e-05
-6.25218e-05
4.57541e-05
-4.01366e-05
2.26325e-05
-1.73964e-05
3.72529e-07
7.46981e-06
-2.6742e-05
3.30925e-05
-5.8713e-05
2.87122e-05
-6.80321e-05
2.63809e-05
-5.43526e-05
4.21581e-05
-2.01184e-05
4.55962e-05
1.03659e-05
3.78026e-05
3.84588e-05
4.02224e-05
5.80552e-05
5.47756e-05
7.35642e-05
7.05287e-05
9.06098e-05
9.56955e-05
7.62231e-05
-4.13208e-06
3.59253e-05
-2.06527e-06
3.4683e-05
-2.13597e-05
7.03276e-05
-5.98407e-05
0.000137293
-9.69027e-05
0.000184925
-0.000122095
0.000203669
-0.000124734
0.000175728
-0.00010637
0.000113633
-7.89945e-05
5.45128e-05
-4.3252e-05
1.00116e-05
-6.9338e-06
-1.36857e-05
2.87618e-05
-3.53231e-05
5.1304e-05
-4.92842e-05
5.72109e-05
-6.46201e-05
5.95149e-05
-7.03361e-05
6.45423e-05
-5.93802e-05
8.00035e-05
-3.55795e-05
9.7834e-05
-7.46445e-06
0.000111272
2.50212e-05
0.000114765
5.45613e-05
0.000112609
7.57207e-05
0.000112434
9.07847e-05
9.61121e-05
0.000112017
5.65873e-06
3.02666e-05
-1.84881e-06
4.21907e-05
-3.69154e-05
0.000105394
-8.46163e-05
0.000184994
-0.000122176
0.000222484
-0.000135448
0.00021694
-0.000118329
0.00015861
-8.7395e-05
8.26986e-05
-4.50825e-05
1.22002e-05
1.13415e-06
-3.62049e-05
2.71065e-05
-3.96582e-05
3.77871e-05
-4.60036e-05
4.69407e-05
-5.84378e-05
5.09619e-05
-6.86414e-05
5.40018e-05
-7.33761e-05
6.35891e-05
-6.89674e-05
8.28515e-05
-5.48419e-05
0.000108079
-3.26919e-05
0.000136658
-3.55772e-06
0.000161697
2.95216e-05
0.000177376
6.00422e-05
0.00018478
8.33806e-05
9.51676e-05
0.000185724
-4.77051e-06
3.50372e-05
-3.23869e-05
6.98073e-05
-7.40065e-05
0.000147014
-0.000113761
0.000224749
-0.000134584
0.000243307
-0.000122526
0.000204882
-9.26781e-05
0.000128763
-5.36542e-05
4.36746e-05
-1.2342e-05
-2.9112e-05
5.96261e-07
-4.91431e-05
7.63638e-06
-4.66983e-05
1.35817e-05
-5.19489e-05
1.63599e-05
-6.12159e-05
2.00384e-05
-7.23199e-05
2.7256e-05
-8.05936e-05
4.11534e-05
-8.28648e-05
6.30231e-05
-7.67116e-05
9.14121e-05
-6.10809e-05
0.000124082
-3.62282e-05
0.000158208
-4.60414e-06
0.000189722
2.8528e-05
0.00021465
5.84531e-05
7.95167e-05
0.000230301
-3.22532e-05
6.72906e-05
-7.15957e-05
0.00010915
-0.000101765
0.000177183
-0.000116983
0.000239967
-0.000111831
0.000238155
-8.63668e-05
0.000179418
-5.41851e-05
9.6581e-05
-2.00299e-05
9.51929e-06
-1.26653e-05
-3.64765e-05
-1.7125e-05
-4.46835e-05
-1.95158e-05
-4.43079e-05
-2.1233e-05
-5.02317e-05
-1.76259e-05
-6.48231e-05
-9.17871e-06
-8.07671e-05
2.85207e-06
-9.26243e-05
1.89558e-05
-9.89686e-05
4.06419e-05
-9.83978e-05
6.80434e-05
-8.84825e-05
9.93454e-05
-6.75301e-05
0.000132388
-3.76465e-05
0.00016503
-4.11426e-06
0.000195246
2.82369e-05
5.47724e-05
0.000219991
-6.21561e-05
0.000129447
-0.000100371
0.000147365
-0.000110739
0.000187551
-9.35748e-05
0.000222802
-6.73884e-05
0.000211968
-4.44002e-05
0.000156429
-2.10377e-05
7.32186e-05
-8.66621e-06
-2.85248e-06
-1.59622e-05
-2.91803e-05
-3.21095e-05
-2.85364e-05
-4.55994e-05
-3.0818e-05
-4.6753e-05
-4.9078e-05
-3.82551e-05
-7.33211e-05
-2.64784e-05
-9.25438e-05
-1.42153e-05
-0.000104887
-4.20504e-07
-0.000112763
1.70755e-05
-0.000115894
3.95466e-05
-0.000110953
6.6817e-05
-9.48003e-05
9.69384e-05
-6.77678e-05
0.000127268
-3.44442e-05
0.000156048
-5.42447e-07
2.88395e-05
0.000181981
-7.76614e-05
0.000207108
-0.000109339
0.000179043
-0.000105742
0.000183954
-6.98316e-05
0.000186892
-3.42226e-05
0.00017636
-1.82138e-05
0.000140421
-5.57304e-06
6.05779e-05
-8.90752e-06
4.82027e-07
-3.18288e-05
-6.25887e-06
-5.56223e-05
-4.74264e-06
-6.49999e-05
-2.14402e-05
-5.93609e-05
-5.47168e-05
-4.65685e-05
-8.61136e-05
-3.38559e-05
-0.000105256
-2.37027e-05
-0.000115041
-1.46088e-05
-0.000121857
-3.7533e-06
-0.000126749
1.12015e-05
-0.000125908
3.14442e-05
-0.000115043
5.67016e-05
-9.30252e-05
8.52029e-05
-6.29456e-05
0.000114268
-2.96078e-05
1.66807e-06
0.00014144
-6.60721e-05
0.00027318
-0.000103586
0.000216557
-0.000103151
0.000183519
-7.4781e-05
0.000158522
-4.95769e-05
0.000151155
-2.77158e-05
0.00011856
-1.38228e-05
4.66849e-05
-2.71863e-05
1.38455e-05
-5.27051e-05
1.92598e-05
-7.10323e-05
1.35847e-05
-7.1887e-05
-2.05854e-05
-6.05558e-05
-6.60479e-05
-4.4561e-05
-0.000102108
-3.15671e-05
-0.00011825
-2.39208e-05
-0.000122687
-2.01914e-05
-0.000125586
-1.64452e-05
-0.000130495
-1.02982e-05
-0.000132055
8.10143e-07
-0.000126151
1.82523e-05
-0.000110467
4.17398e-05
-8.64332e-05
6.97539e-05
-5.76218e-05
-2.7791e-05
9.9213e-05
-1.99998e-05
0.00029318
-6.67638e-05
0.000263321
-8.91933e-05
0.000205949
-8.92399e-05
0.000158568
-7.16029e-05
0.000133518
-4.13726e-05
8.83294e-05
-2.78603e-05
3.31727e-05
-4.15425e-05
2.75277e-05
-6.33426e-05
4.10597e-05
-7.29178e-05
2.316e-05
-6.75762e-05
-2.5927e-05
-5.16528e-05
-8.19712e-05
-3.4664e-05
-0.000119097
-2.26293e-05
-0.000130285
-1.65986e-05
-0.000128717
-1.74251e-05
-0.00012476
-1.97609e-05
-0.000128159
-2.10031e-05
-0.000130813
-1.91106e-05
-0.000128044
-1.16854e-05
-0.000117893
2.25281e-06
-0.000100371
2.25869e-05
-7.79558e-05
-5.29434e-05
4.77394e-05
4.92078e-05
0.000243972
1.39599e-05
0.000298568
-2.67769e-05
0.000246686
-5.35852e-05
0.000185377
-5.11909e-05
0.000131124
-3.24644e-05
6.9603e-05
-2.82189e-05
2.89274e-05
-4.40244e-05
4.33333e-05
-6.12675e-05
5.83029e-05
-6.37702e-05
2.56628e-05
-5.43972e-05
-3.52999e-05
-3.62388e-05
-0.00010013
-2.17259e-05
-0.00013361
-1.18824e-05
-0.000140128
-6.54156e-06
-0.000134058
-9.5276e-06
-0.000121774
-1.56633e-05
-0.000122024
-2.16818e-05
-0.000124794
-2.6683e-05
-0.000123043
-2.83875e-05
-0.000116188
-2.50446e-05
-0.000103714
-1.64398e-05
-8.65606e-05
-6.6939e-05
-2.44422e-06
8.48896e-05
0.000159082
9.15745e-05
0.000291883
5.82396e-05
0.000280021
2.30781e-05
0.000220538
4.26874e-06
0.000149933
-2.14058e-06
7.60124e-05
-1.43555e-05
4.11423e-05
-3.58639e-05
6.48416e-05
-4.88417e-05
7.12808e-05
-4.63532e-05
2.31745e-05
-3.534e-05
-4.63131e-05
-1.99635e-05
-0.000115506
-8.96771e-06
-0.000144606
-1.0271e-06
-0.000148069
2.66603e-06
-0.000137751
2.82196e-08
-0.000119136
-7.101e-06
-0.000114895
-1.50279e-05
-0.000116867
-2.32435e-05
-0.000114827
-3.07559e-05
-0.000108676
-3.547e-05
-9.90002e-05
-3.62979e-05
-8.57328e-05
-7.01278e-05
-3.31092e-05
7.71534e-05
8.19291e-05
0.000118628
0.000250409
0.000106996
0.000291652
7.9316e-05
0.000248218
5.33931e-05
0.000175856
2.92836e-05
0.000100122
2.37765e-06
6.80483e-05
-2.24038e-05
8.96231e-05
-3.08452e-05
7.97223e-05
-2.53808e-05
1.77102e-05
-1.34688e-05
-5.82251e-05
-2.31284e-06
-0.000126662
4.28974e-06
-0.000151208
9.13206e-06
-0.000152911
1.13965e-05
-0.000140016
1.07607e-05
-0.0001185
4.46074e-06
-0.000108595
-4.14742e-06
-0.000108259
-1.29208e-05
-0.000106054
-2.20545e-05
-9.95423e-05
-3.03511e-05
-9.07036e-05
-3.633e-05
-7.9754e-05
-6.68088e-05
-3.96491e-05
4.58391e-05
3.609e-05
9.18893e-05
0.000204359
0.000103016
0.000280526
8.99134e-05
0.000261321
6.99507e-05
0.000195819
4.46281e-05
0.000125445
1.31089e-05
9.95676e-05
-9.21512e-06
0.000111947
-1.20892e-05
8.25963e-05
-3.17812e-06
8.79901e-06
8.66149e-06
-7.00646e-05
1.51508e-05
-0.000133151
1.94276e-05
-0.000155485
2.09917e-05
-0.000154475
2.18215e-05
-0.000140846
2.30938e-05
-0.000119773
1.87423e-05
-0.000104243
9.42468e-06
-9.89418e-05
-1.69182e-07
-9.646e-05
-9.10332e-06
-9.06082e-05
-1.76404e-05
-8.21666e-05
-2.47802e-05
-7.26143e-05
-6.18166e-05
-2.97726e-05
1.18562e-05
2.42339e-05
4.11304e-05
0.000175086
5.93579e-05
0.000262298
6.40401e-05
0.000256639
6.00762e-05
0.000199783
4.28179e-05
0.000142703
1.61111e-05
0.000126275
1.86256e-06
0.000126196
7.48016e-06
7.69786e-05
1.93416e-05
-3.06238e-06
3.12007e-05
-8.19236e-05
3.57627e-05
-0.000137713
3.6806e-05
-0.000156528
3.62694e-05
-0.000153939
3.73061e-05
-0.000141882
3.93061e-05
-0.000121773
3.58936e-05
-0.000100831
2.55506e-05
-8.85988e-05
1.34292e-05
-8.43386e-05
3.09937e-06
-8.02784e-05
-5.39131e-06
-7.36759e-05
-1.23668e-05
-6.56389e-05
-5.6942e-05
-1.72415e-05
-9.2507e-06
3.34846e-05
-1.8196e-06
0.000167655
1.62718e-05
0.000244207
3.35749e-05
0.000239336
4.27674e-05
0.000190591
3.37812e-05
0.000151689
1.72606e-05
0.000142795
1.62131e-05
0.000127243
2.76723e-05
6.55194e-05
4.24991e-05
-1.78891e-05
5.39414e-05
-9.33657e-05
5.72367e-05
-0.000141008
5.63615e-05
-0.000155653
5.65044e-05
-0.000154082
5.84361e-05
-0.000143814
5.93493e-05
-0.000122686
5.47785e-05
-9.62599e-05
4.28044e-05
-7.66247e-05
2.77101e-05
-6.92443e-05
1.4678e-05
-6.72463e-05
4.66109e-06
-6.3659e-05
-2.91438e-06
-5.80635e-05
-5.16867e-05
-8.16983e-06
-1.67168e-05
5.02013e-05
-2.17165e-05
0.000172655
-6.62131e-06
0.000229112
1.65406e-05
0.000216174
2.97819e-05
0.000177349
2.60176e-05
0.000155454
2.09038e-05
0.000147909
3.04741e-05
0.000117673
4.72988e-05
4.86948e-05
6.48899e-05
-3.548e-05
7.54898e-05
-0.000103966
7.7608e-05
-0.000143127
7.72956e-05
-0.000155341
7.89903e-05
-0.000155776
8.08571e-05
-0.000145681
7.97006e-05
-0.00012153
7.2351e-05
-8.89103e-05
5.80124e-05
-6.22862e-05
4.03547e-05
-5.15867e-05
2.47417e-05
-5.16332e-05
1.32627e-05
-5.21801e-05
4.8149e-06
-4.96157e-05
-4.5762e-05
-1.11001e-06
-1.30626e-05
6.3264e-05
-2.02038e-05
0.000179796
-7.8811e-06
0.000216789
1.29132e-05
0.00019538
2.30975e-05
0.000167165
2.3174e-05
0.000155377
2.82641e-05
0.000142819
4.54552e-05
0.000100482
6.64848e-05
2.76655e-05
8.4688e-05
-5.36831e-05
9.35839e-05
-0.000112861
9.48354e-05
-0.000144378
9.59421e-05
-0.000156448
9.8775e-05
-0.000158609
9.97994e-05
-0.000146705
9.55207e-05
-0.000117251
8.44421e-05
-7.78319e-05
6.74961e-05
-4.53403e-05
4.81758e-05
-3.22665e-05
3.12802e-05
-3.47377e-05
1.90788e-05
-3.99788e-05
1.03506e-05
-4.08877e-05
-3.94427e-05
4.0311e-06
-5.63185e-06
6.88959e-05
-7.54325e-06
0.000181707
2.33585e-06
0.00020691
1.58548e-05
0.000181861
2.14727e-05
0.000161547
2.53026e-05
0.000151547
3.80657e-05
0.000130056
5.97273e-05
7.88205e-05
8.32289e-05
4.16403e-06
9.88874e-05
-6.93415e-05
0.00010507
-0.000119044
0.000105846
-0.000145154
0.000108269
-0.000158871
0.000112032
-0.000162372
0.000111206
-0.00014588
0.000102407
-0.000108451
8.68623e-05
-6.22878e-05
6.78495e-05
-2.63276e-05
4.86214e-05
-1.30386e-05
3.26455e-05
-1.87619e-05
2.12453e-05
-2.85787e-05
1.30977e-05
-3.27401e-05
-3.33809e-05
7.03583e-06
1.84325e-06
6.70527e-05
7.19396e-06
0.000176357
1.50868e-05
0.000199017
2.10425e-05
0.000175905
2.36318e-05
0.000158958
3.0689e-05
0.00014449
4.7626e-05
0.000113119
7.13089e-05
5.51378e-05
9.38295e-05
-1.83565e-05
0.000105367
-8.08787e-05
0.000108209
-0.000121887
0.000108032
-0.000144977
0.000111454
-0.000162294
0.000114628
-0.000165546
0.000109755
-0.000141008
9.52887e-05
-9.3985e-05
7.57502e-05
-4.27493e-05
5.66983e-05
-7.27582e-06
4.06168e-05
3.04299e-06
2.84365e-05
-6.58164e-06
1.97174e-05
-1.98598e-05
1.31301e-05
-2.61529e-05
-2.82456e-05
7.99476e-06
9.12378e-06
5.7929e-05
1.92276e-05
0.000166253
2.54482e-05
0.000192797
2.63906e-05
0.000174963
2.77189e-05
0.00015763
3.65739e-05
0.000135635
5.50862e-05
9.46068e-05
7.88495e-05
3.13743e-05
9.63096e-05
-3.58168e-05
0.000102759
-8.73286e-05
0.000101138
-0.000120266
9.95075e-05
-0.000143347
0.000101989
-0.000164775
9.9961e-05
-0.000163518
8.76594e-05
-0.000128707
6.8236e-05
-7.45617e-05
4.87625e-05
-2.3276e-05
3.4044e-05
7.44262e-06