/*--------------------------------*- C++ -*----------------------------------*\
| =========                 |                                                 |
| \\      /  F ield         | OpenFOAM: The Open Source CFD Toolbox           |
|  \\    /   O peration     | Version:  2.3.0                                 |
|   \\  /    A nd           | Web:      www.OpenFOAM.org                      |
|    \\/     M anipulation  |                                                 |
\*---------------------------------------------------------------------------*/
FoamFile
{
    version     2.0;
    format      ascii;
    class       volVectorField;
    location    "2";
    object      U;
}
// * * * * * * * * * * * * * * * * * * * * * * * * * * * * * * * * * * * * * //

dimensions      [0 1 -1 0 0 0 0];

internalField   nonuniform List<vector> 
2268
(
(0.030819 -0.0198316 0)
(0.0562008 -0.0122771 0)
(0.026235 -0.00711123 0)
(0.0834649 -0.00943941 0)
(0.16186 0.0334301 0)
(0.00919656 0.0304245 0)
(-0.0911924 0.00188152 0)
(-0.0646389 0.0041598 0)
(-0.0680621 -0.00791353 0)
(-0.0290469 -0.00791447 0)
(-0.0230407 -0.00126934 0)
(-0.023078 -0.000334949 0)
(-0.00893108 -0.00334447 0)
(0.00969187 -0.00343023 0)
(0.0136715 0.00112413 0)
(-0.0187553 0.0113788 0)
(-0.0831417 0.0160905 0)
(-0.129356 0.00724602 0)
(-0.139285 -0.00264979 0)
(-0.136814 -0.00504386 0)
(-0.125727 -0.00799116 0)
(-0.0869241 -0.015204 0)
(-0.0303015 -0.0163068 0)
(-0.00029728 -0.0325761 0)
(-0.030192 0.0263103 0)
(-0.0992811 -0.00210557 0)
(0.000498144 -0.0927817 0)
(0.180277 0.0296955 0)
(0.0682759 0.0905082 0)
(-0.127568 0.0217816 0)
(-0.0735993 0.00280745 0)
(-0.056747 -0.0211908 0)
(-0.0348958 -0.0121276 0)
(-0.0378198 -0.000525357 0)
(-0.0320397 -0.00398215 0)
(-0.0159704 -0.0129173 0)
(0.00147428 -0.00697775 0)
(0.00159382 0.0146643 0)
(-0.037533 0.0321899 0)
(-0.0851797 0.0342721 0)
(-0.0883831 0.0172934 0)
(-0.0806411 0.00164695 0)
(-0.106146 -0.000877419 0)
(-0.10958 -0.012224 0)
(-0.0824772 -0.0355724 0)
(-0.0279133 -0.0434991 0)
(-0.0551382 0.0020646 0)
(-0.123622 0.0534057 0)
(-0.111302 -0.0414643 0)
(-0.0394924 -0.152075 0)
(0.101782 0.0209904 0)
(0.0694678 0.150894 0)
(-0.142085 0.0465332 0)
(-0.0616304 -0.00988721 0)
(-0.0430129 -0.037123 0)
(-0.026953 -0.0155696 0)
(-0.0246708 -0.00175172 0)
(-0.010425 -0.00911268 0)
(0.0149723 -0.0203849 0)
(0.020618 -0.0129505 0)
(0.0172906 0.0194774 0)
(0.0112328 0.0464284 0)
(-0.00665616 0.0459063 0)
(-0.00414654 0.0165042 0)
(-0.0247816 0.00253719 0)
(-0.0757962 0.011368 0)
(-0.0987179 -0.008956 0)
(-0.0888952 -0.0483236 0)
(-0.0328161 -0.0681117 0)
(-0.0753024 0.045774 0)
(-0.146826 0.0694121 0)
(-0.108822 -0.0724187 0)
(-0.0893238 -0.181439 0)
(-0.011379 -0.00359767 0)
(0.0340787 0.206314 0)
(-0.144193 0.0618373 0)
(-0.0559497 -0.0242273 0)
(-0.0288678 -0.0513148 0)
(-0.00622165 -0.0201004 0)
(0.00831189 -0.00798477 0)
(0.0402529 -0.0192047 0)
(0.078311 -0.0254642 0)
(0.0778101 -0.00770334 0)
(0.0388116 0.0215179 0)
(0.0397017 0.0424622 0)
(0.0486897 0.0453313 0)
(0.0503011 0.0298547 0)
(-0.0170294 0.0291359 0)
(-0.0765064 0.0330484 0)
(-0.100244 -0.0015356 0)
(-0.0925537 -0.0655782 0)
(-0.0385281 -0.105264 0)
(-0.0628928 0.0918228 0)
(-0.129074 0.0835742 0)
(-0.103799 -0.0874877 0)
(-0.127871 -0.200043 0)
(-0.0779763 -0.0262799 0)
(0.0182456 0.238236 0)
(-0.114419 0.0644347 0)
(-0.0373414 -0.0447848 0)
(-0.012627 -0.0709044 0)
(0.021587 -0.0315447 0)
(0.0516901 -0.0237978 0)
(0.103351 -0.0383841 0)
(0.140519 -0.037238 0)
(0.139566 0.000529972 0)
(0.084705 0.0391103 0)
(0.0469676 0.0417058 0)
(0.0421867 0.0391459 0)
(0.0394073 0.0453046 0)
(-0.0354364 0.0573051 0)
(-0.0800584 0.0489353 0)
(-0.0792515 -0.00257413 0)
(-0.0501929 -0.0853001 0)
(-0.0100296 -0.144528 0)
(-0.0252997 0.125031 0)
(-0.0893564 0.102735 0)
(-0.0722582 -0.0768334 0)
(-0.138871 -0.202667 0)
(-0.138373 -0.0696887 0)
(0.0472833 0.240532 0)
(-0.0451954 0.0759456 0)
(0.0160965 -0.0640936 0)
(0.016118 -0.0882514 0)
(0.0511443 -0.049736 0)
(0.103379 -0.0452297 0)
(0.165069 -0.057788 0)
(0.191671 -0.0452033 0)
(0.172034 0.011333 0)
(0.119882 0.0659569 0)
(0.0563632 0.0623816 0)
(0.0138523 0.0525515 0)
(-0.00122533 0.0686046 0)
(-0.0473934 0.0770811 0)
(-0.0559976 0.0478796 0)
(0.00217325 -0.0185833 0)
(0.0487583 -0.0846991 0)
(0.0574522 -0.142178 0)
(0.0242125 0.14048 0)
(-0.0389733 0.12306 0)
(-0.0160204 -0.0568828 0)
(-0.110703 -0.181165 0)
(-0.175213 -0.114261 0)
(0.0767289 0.193611 0)
(0.0513291 0.093113 0)
(0.0906798 -0.059627 0)
(0.0759463 -0.0986027 0)
(0.0905299 -0.0719163 0)
(0.156231 -0.0737195 0)
(0.214541 -0.0727113 0)
(0.215147 -0.0425112 0)
(0.169543 0.0282759 0)
(0.125658 0.0912943 0)
(0.0607381 0.0877223 0)
(-0.0115042 0.0687291 0)
(-0.0353822 0.0756749 0)
(-0.0383999 0.0783575 0)
(-0.00342357 0.0287734 0)
(0.118109 -0.0496164 0)
(0.151849 -0.0768909 0)
(0.123829 -0.0872754 0)
(0.0493173 0.130626 0)
(0.0192317 0.133527 0)
(0.0367454 -0.0383683 0)
(-0.0518203 -0.135542 0)
(-0.174609 -0.12938 0)
(0.0244589 0.10724 0)
(0.113898 0.0846787 0)
(0.154403 -0.0480646 0)
(0.139948 -0.0958643 0)
(0.146778 -0.0908709 0)
(0.199891 -0.107473 0)
(0.240132 -0.085325 0)
(0.200309 -0.02628 0)
(0.134232 0.0578225 0)
(0.109706 0.121965 0)
(0.0654749 0.128071 0)
(0.00415265 0.107045 0)
(-0.015484 0.0891117 0)
(-0.0176061 0.0614715 0)
(0.0904054 -0.0281938 0)
(0.135397 -0.0787269 0)
(0.167447 -0.0691074 0)
(0.141819 -0.00756252 0)
(0.0354165 -0.0270644 0)
(0.0665616 0.00720396 0)
(-0.222415 0.0549748 0)
(-0.41815 0.0237428 0)
(-0.387359 -0.0221225 0)
(-0.324456 -0.0194921 0)
(-0.325955 0.00128442 0)
(-0.375024 0.0144568 0)
(-0.439753 0.0114448 0)
(-0.436044 -0.00693726 0)
(-0.346506 -0.0229942 0)
(-0.226823 -0.0217665 0)
(-0.126752 -0.00204035 0)
(-0.107011 0.0121746 0)
(-0.173867 0.00151439 0)
(-0.207844 -0.000599943 0)
(-0.213865 -0.00404316 0)
(-0.16501 -0.0169384 0)
(-0.0561255 -0.0289443 0)
(0.00281103 -0.0199114 0)
(-0.092255 0.0887301 0)
(-0.363368 0.133369 0)
(-0.345944 0.0491567 0)
(-0.140741 -0.0272195 0)
(-0.178921 -0.0107036 0)
(-0.295043 0.0217348 0)
(-0.393514 0.0398295 0)
(-0.432253 0.0195691 0)
(-0.396967 -0.0304071 0)
(-0.317862 -0.0725915 0)
(-0.221021 -0.0796585 0)
(-0.132682 -0.0467254 0)
(-0.0519064 0.0133658 0)
(-0.0793799 0.0370751 0)
(-0.126378 0.0162075 0)
(-0.154073 -0.0182418 0)
(-0.142503 -0.0490471 0)
(-0.0356995 -0.0811002 0)
(-0.0420233 0.0275084 0)
(-0.184464 0.151487 0)
(-0.315136 0.151095 0)
(-0.119838 -0.0130463 0)
(0.105317 -0.0878951 0)
(0.141739 0.031393 0)
(-0.0308592 0.102321 0)
(-0.267604 0.0732041 0)
(-0.328032 0.0219589 0)
(-0.298329 -0.05015 0)
(-0.225654 -0.109952 0)
(-0.159768 -0.113456 0)
(-0.110934 -0.0752006 0)
(-0.06316 -0.0156924 0)
(0.011299 0.0355951 0)
(0.0259969 0.0392933 0)
(0.00734712 0.00813092 0)
(-0.0786825 -0.0517094 0)
(-0.0141534 -0.115912 0)
(-0.0554428 0.0809615 0)
(-0.183395 0.183577 0)
(-0.194611 0.121049 0)
(0.112821 -0.11388 0)
(0.251613 -0.158756 0)
(0.303657 0.0209769 0)
(0.225195 0.181903 0)
(-0.030947 0.160735 0)
(-0.181524 0.0381351 0)
(-0.172387 -0.0742025 0)
(-0.1126 -0.139478 0)
(-0.0968819 -0.134747 0)
(-0.0743348 -0.0922217 0)
(-0.0364422 -0.0395277 0)
(0.0117871 -0.00233736 0)
(0.0717416 0.0220039 0)
(0.0987199 0.0249381 0)
(0.0260033 -0.0205488 0)
(0.016472 -0.11835 0)
(-0.0441896 0.126493 0)
(-0.130246 0.190063 0)
(-0.0595817 0.0543938 0)
(0.250277 -0.203802 0)
(0.251332 -0.197028 0)
(0.256507 0.0226327 0)
(0.303992 0.211637 0)
(0.169945 0.231867 0)
(0.0194411 0.0972059 0)
(-0.0132784 -0.0599299 0)
(-0.0173782 -0.136809 0)
(-0.0728144 -0.130711 0)
(-0.0699652 -0.0978989 0)
(-0.0274489 -0.0515099 0)
(0.00779281 -0.0181128 0)
(0.0503745 -0.00128284 0)
(0.10197 0.0205918 0)
(0.0683293 -0.00629149 0)
(0.0433947 -0.0988767 0)
(-0.0210934 0.156958 0)
(-0.0635658 0.182937 0)
(0.0680696 -0.026209 0)
(0.238319 -0.233906 0)
(0.0457334 -0.155324 0)
(-0.025861 0.0277462 0)
(0.198416 0.232874 0)
(0.226654 0.264779 0)
(0.142801 0.137097 0)
(0.0856494 -0.0339968 0)
(0.00609929 -0.106363 0)
(-0.106698 -0.107094 0)
(-0.100484 -0.102045 0)
(-0.0511143 -0.0679558 0)
(0.00504199 -0.031633 0)
(0.0298266 -0.0165919 0)
(0.0753638 0.0122672 0)
(0.0757132 0.00634861 0)
(0.0538906 -0.0761555 0)
(-0.0188904 0.162558 0)
(-0.0247916 0.154977 0)
(0.150803 -0.0823237 0)
(0.0834059 -0.175849 0)
(-0.24088 -0.0735464 0)
(-0.239831 -0.0106995 0)
(-0.0439637 0.172166 0)
(0.138849 0.262542 0)
(0.120733 0.149919 0)
(0.0673142 -0.000202596 0)
(-0.0749486 -0.0583725 0)
(-0.173535 -0.0868353 0)
(-0.153145 -0.118242 0)
(-0.10589 -0.0968846 0)
(-0.0276009 -0.0545142 0)
(0.0166969 -0.0286442 0)
(0.0504214 0.0010392 0)
(0.0668668 0.00867658 0)
(0.0513637 -0.0522588 0)
(-0.0312698 0.195595 0)
(-0.0109461 0.119395 0)
(0.141184 -0.083212 0)
(-0.159412 -0.0548178 0)
(-0.384397 -0.0412054 0)
(-0.386337 -0.0532368 0)
(-0.27994 0.073019 0)
(-0.0728107 0.198345 0)
(-0.0228022 0.141854 0)
(-0.107223 0.0468641 0)
(-0.221452 -0.00950246 0)
(-0.228605 -0.0894672 0)
(-0.224539 -0.132637 0)
(-0.190215 -0.123744 0)
(-0.10505 -0.0849407 0)
(-0.0257401 -0.0488247 0)
(0.0275814 -0.00673355 0)
(0.0526703 0.00609099 0)
(0.0430945 -0.0292414 0)
(0.0423815 0.101931 0)
(0.0690681 0.138287 0)
(0.0851921 0.027864 0)
(0.0401275 -0.0604789 0)
(-0.0994513 -0.105976 0)
(-0.073816 -0.0416813 0)
(0.0977133 -0.0127102 0)
(0.168219 -0.0814437 0)
(0.186347 -0.103023 0)
(0.208434 -0.117346 0)
(0.216671 -0.130745 0)
(0.205775 -0.0808642 0)
(0.13607 0.019694 0)
(0.0565051 0.0887893 0)
(0.043651 0.116637 0)
(0.0303357 0.113871 0)
(0.00157718 0.0860667 0)
(-0.0347536 0.0667269 0)
(-0.0466992 0.0353321 0)
(-0.0647411 -0.0122215 0)
(-0.114038 -0.108327 0)
(-0.0454184 -0.0969284 0)
(-0.00678319 0.0184071 0)
(0.0213149 0.0142005 0)
(0.0793961 0.0426195 0)
(0.120998 -0.00167145 0)
(0.111144 -0.0159772 0)
(0.0686804 -0.029752 0)
(0.0554229 -0.0811086 0)
(0.136256 -0.123952 0)
(0.187815 -0.137358 0)
(0.186483 -0.121794 0)
(0.188704 -0.124555 0)
(0.145785 -0.0952271 0)
(0.0314478 0.0260878 0)
(-0.0339971 0.101848 0)
(-0.0450676 0.124098 0)
(-0.0734929 0.131808 0)
(-0.18349 0.147523 0)
(-0.333227 0.154892 0)
(-0.438594 0.122612 0)
(-0.520129 0.0387846 0)
(-0.573296 -0.0719004 0)
(-0.628688 -0.149216 0)
(-0.650173 -0.116837 0)
(-0.48752 0.0298969 0)
(-0.0343481 0.00708898 0)
(-0.00918507 0.0100523 0)
(-0.146062 0.0214672 0)
(-0.151796 0.0119749 0)
(-0.0626157 -0.025143 0)
(-0.02937 -0.0770676 0)
(-0.0203504 -0.125603 0)
(-0.0424589 -0.097869 0)
(-0.152513 -0.0713371 0)
(-0.227312 -0.0566657 0)
(-0.116697 0.054135 0)
(-0.0796696 0.107075 0)
(-0.155255 0.157573 0)
(-0.155537 0.227962 0)
(-0.050493 0.298833 0)
(-0.00853612 0.395199 0)
(-0.100739 0.366193 0)
(-0.202698 0.295927 0)
(-0.392063 0.21789 0)
(-0.583834 0.148795 0)
(-0.943227 -0.0293728 0)
(-1.06147 -0.23657 0)
(-0.893071 -0.225649 0)
(-0.257851 0.125104 0)
(-0.494954 0.1869 0)
(-0.461277 0.087888 0)
(-0.476068 -0.101057 0)
(-0.773942 -0.08306 0)
(-0.984032 -0.121006 0)
(-1.03481 -0.108398 0)
(-0.889055 0.0055737 0)
(-0.99758 0.0478019 0)
(-1.69809 -0.124156 0)
(-1.74801 -0.142184 0)
(-1.46414 0.114036 0)
(-1.24535 0.0917327 0)
(-0.963127 -0.159088 0)
(-0.540326 -0.13293 0)
(0.00360323 0.23665 0)
(0.276771 0.373688 0)
(0.468935 0.481323 0)
(0.494087 0.55098 0)
(0.192806 0.476344 0)
(-0.125448 0.319406 0)
(-0.64743 -0.128806 0)
(-0.739113 -0.353966 0)
(-0.172294 0.464059 0)
(-0.32029 0.279488 0)
(-0.406646 0.169813 0)
(-0.644311 0.279695 0)
(-0.771182 0.305602 0)
(-0.893645 -0.0649231 0)
(-1.23149 -0.167999 0)
(-1.53566 0.179929 0)
(-1.66042 0.529794 0)
(-1.85825 0.185477 0)
(-1.93677 -0.141208 0)
(-1.79279 -0.215016 0)
(-1.27308 -0.413377 0)
(-0.902157 -0.577993 0)
(-0.663376 -0.526855 0)
(-0.374403 -0.357758 0)
(-0.000112238 -0.16198 0)
(0.251352 0.0537257 0)
(0.623045 0.547588 0)
(0.590502 0.781683 0)
(0.508032 0.774647 0)
(0.0797459 0.536876 0)
(-0.436698 -0.120124 0)
(-0.111948 0.685963 0)
(-0.247403 0.47066 0)
(-0.405116 0.349486 0)
(-0.567373 0.374831 0)
(-0.672252 0.414448 0)
(-0.909552 0.317374 0)
(-1.264 0.312628 0)
(-1.47095 0.400534 0)
(-1.4961 0.455933 0)
(-1.46043 0.190179 0)
(-1.36763 -0.151194 0)
(-1.08623 -0.511558 0)
(-0.784063 -0.779473 0)
(-0.654273 -0.78163 0)
(-0.573748 -0.671752 0)
(-0.421299 -0.563684 0)
(-0.227699 -0.425432 0)
(-0.0849875 -0.218202 0)
(0.139433 0.268732 0)
(0.367383 0.590814 0)
(0.490084 0.685361 0)
(0.431982 0.93645 0)
(-0.353684 0.513103 0)
(-0.0592121 0.820141 0)
(-0.163016 0.628882 0)
(-0.33875 0.494982 0)
(-0.403625 0.47943 0)
(-0.460134 0.541128 0)
(-0.670993 0.527241 0)
(-0.943805 0.531105 0)
(-1.09694 0.510536 0)
(-1.08304 0.347323 0)
(-0.977114 0.0291607 0)
(-0.851362 -0.326986 0)
(-0.692721 -0.688187 0)
(-0.598523 -0.889373 0)
(-0.585837 -0.845497 0)
(-0.545536 -0.767149 0)
(-0.443006 -0.712375 0)
(-0.318915 -0.572665 0)
(-0.172711 -0.283737 0)
(-0.071925 0.0218725 0)
(0.114425 0.268963 0)
(0.183961 0.516859 0)
(0.29522 1.22319 0)
(-0.446183 0.964183 0)
(0.0157544 0.884436 0)
(-0.00641651 0.779489 0)
(-0.163162 0.586213 0)
(-0.243287 0.528548 0)
(-0.203784 0.625556 0)
(-0.285052 0.730827 0)
(-0.497298 0.689413 0)
(-0.63942 0.586001 0)
(-0.665591 0.326448 0)
(-0.617742 -0.0527283 0)
(-0.555653 -0.42169 0)
(-0.520748 -0.749181 0)
(-0.545416 -0.882439 0)
(-0.593222 -0.845312 0)
(-0.569218 -0.821076 0)
(-0.520103 -0.792866 0)
(-0.440681 -0.660114 0)
(-0.257955 -0.407704 0)
(-0.0389548 0.0608918 0)
(-0.110748 0.302873 0)
(-0.198532 0.733273 0)
(-0.224206 1.62118 0)
(-0.687056 1.30026 0)
(0.0952076 0.786882 0)
(0.173903 0.875875 0)
(0.131445 0.714096 0)
(-0.0222727 0.592893 0)
(-0.0303604 0.585038 0)
(0.0308651 0.778027 0)
(-0.00580112 0.878226 0)
(-0.183164 0.69302 0)
(-0.285405 0.3773 0)
(-0.33169 -0.0298157 0)
(-0.353468 -0.417259 0)
(-0.416391 -0.710378 0)
(-0.505002 -0.807148 0)
(-0.601602 -0.825962 0)
(-0.581087 -0.850998 0)
(-0.531533 -0.826955 0)
(-0.528115 -0.758681 0)
(-0.535214 -0.584407 0)
(-0.467285 -0.112038 0)
(-0.536474 0.439918 0)
(-0.641619 1.02929 0)
(-0.833626 1.80616 0)
(-0.853029 1.20052 0)
(0.105916 0.577196 0)
(0.275648 0.782755 0)
(0.395129 0.784102 0)
(0.295787 0.726541 0)
(0.185929 0.606674 0)
(0.189003 0.664604 0)
(0.313055 0.908852 0)
(0.253067 0.861876 0)
(0.0904551 0.539302 0)
(-0.0580431 0.088839 0)
(-0.169851 -0.32526 0)
(-0.31479 -0.605189 0)
(-0.437206 -0.683771 0)
(-0.58739 -0.778977 0)
(-0.566396 -0.885637 0)
(-0.52919 -0.833789 0)
(-0.580435 -0.669382 0)
(-0.735463 -0.473265 0)
(-0.902364 -0.032031 0)
(-1.01761 0.59566 0)
(-1.08572 1.21991 0)
(-1.10196 1.65226 0)
(-0.81964 0.94511 0)
(0.062108 0.390089 0)
(0.254482 0.542795 0)
(0.479575 0.68136 0)
(0.551833 0.801466 0)
(0.469896 0.745351 0)
(0.360199 0.632763 0)
(0.423766 0.779815 0)
(0.508627 0.911132 0)
(0.408595 0.731694 0)
(0.200324 0.303145 0)
(0.0121768 -0.154696 0)
(-0.200797 -0.457177 0)
(-0.356127 -0.532645 0)
(-0.533249 -0.683575 0)
(-0.525253 -0.937149 0)
(-0.527979 -0.814001 0)
(-0.547544 -0.571746 0)
(-0.71414 -0.307387 0)
(-0.983847 0.102387 0)
(-1.14752 0.689996 0)
(-1.15413 1.20987 0)
(-0.97783 1.32471 0)
(-0.636303 0.678807 0)
(0.0785162 0.31458 0)
(0.224858 0.314146 0)
(0.437552 0.487009 0)
(0.612679 0.730473 0)
(0.663471 0.839746 0)
(0.568265 0.726903 0)
(0.503332 0.697335 0)
(0.574384 0.866544 0)
(0.558068 0.850147 0)
(0.373336 0.507627 0)
(0.166015 0.0697682 0)
(-0.0305367 -0.271983 0)
(-0.253972 -0.375019 0)
(-0.407611 -0.574425 0)
(-0.403261 -0.942208 0)
(-0.456971 -0.798233 0)
(-0.442171 -0.497468 0)
(-0.55354 -0.0837935 0)
(-0.809989 0.291901 0)
(-0.926196 0.717995 0)
(-0.890175 1.06886 0)
(-0.663523 1.01897 0)
(-0.411103 0.508242 0)
(0.130482 0.105267 0)
(0.274074 0.0984466 0)
(0.408789 0.286821 0)
(0.552351 0.55567 0)
(0.662297 0.782213 0)
(0.663061 0.801972 0)
(0.543993 0.71964 0)
(0.534234 0.863943 0)
(0.531584 0.924557 0)
(0.411572 0.651292 0)
(0.257611 0.25936 0)
(0.208009 -0.0681442 0)
(-0.0978578 -0.215472 0)
(-0.180345 -0.496405 0)
(-0.211069 -0.898449 0)
(-0.311059 -0.771444 0)
(-0.337366 -0.490549 0)
(-0.334566 0.0491469 0)
(-0.494521 0.487001 0)
(-0.596004 0.733572 0)
(-0.530958 0.934329 0)
(-0.352303 0.829095 0)
(-0.232435 0.468701 0)
(0.103747 -0.1186 0)
(0.17273 -0.0234472 0)
(0.291338 0.207734 0)
(0.393026 0.455594 0)
(0.490838 0.714704 0)
(0.549759 0.830478 0)
(0.418503 0.793653 0)
(0.390441 0.917488 0)
(0.364711 0.970648 0)
(0.327622 0.716725 0)
(0.298475 0.365498 0)
(0.356244 0.075363 0)
(0.1462 -0.00534605 0)
(0.102244 -0.427823 0)
(-0.0376329 -0.780601 0)
(-0.155245 -0.696209 0)
(-0.272475 -0.440469 0)
(-0.314796 0.0394281 0)
(-0.253745 0.514428 0)
(-0.334428 0.772166 0)
(-0.297984 0.810373 0)
(-0.171013 0.722634 0)
(-0.133211 0.482383 0)
(0.00607732 -0.176973 0)
(-0.00983071 -0.0458213 0)
(0.00292479 0.17179 0)
(0.0779743 0.408859 0)
(0.160695 0.676552 0)
(0.238018 0.84988 0)
(0.123623 0.873445 0)
(0.123646 0.987249 0)
(0.10048 0.965002 0)
(0.214363 0.667247 0)
(0.329869 0.326812 0)
(0.412001 0.0713364 0)
(0.297872 -0.012033 0)
(0.283266 -0.290215 0)
(0.0315206 -0.55747 0)
(-0.0509001 -0.591179 0)
(-0.215752 -0.282984 0)
(-0.342968 0.0622927 0)
(-0.162759 0.503202 0)
(-0.0866262 0.819597 0)
(-0.0903306 0.754864 0)
(-0.0282847 0.67004 0)
(0.00137426 0.50288 0)
(-0.0837756 -0.105109 0)
(-0.191468 0.0101523 0)
(-0.246156 0.14641 0)
(-0.233948 0.349072 0)
(-0.194845 0.633294 0)
(-0.165701 0.861886 0)
(-0.228236 0.940296 0)
(-0.177062 0.977832 0)
(-0.0896718 0.829534 0)
(0.137345 0.471602 0)
(0.250486 0.210723 0)
(0.293811 0.0477577 0)
(0.260982 0.101609 0)
(0.262277 -0.0765018 0)
(0.0301489 -0.400934 0)
(0.00636591 -0.472664 0)
(-0.209727 -0.124889 0)
(-0.323635 -0.0154388 0)
(-0.189954 0.309937 0)
(0.0572005 0.697937 0)
(0.169049 0.736905 0)
(0.208152 0.666511 0)
(0.229138 0.536006 0)
(-0.103635 0.0267688 0)
(-0.20428 0.125076 0)
(-0.272337 0.194308 0)
(-0.336471 0.360637 0)
(-0.390096 0.629974 0)
(-0.421623 0.859519 0)
(-0.445208 0.926409 0)
(-0.358967 0.851708 0)
(-0.201262 0.600843 0)
(-0.0391818 0.297601 0)
(-0.0267759 0.235196 0)
(-0.172125 0.152852 0)
(-0.0758006 0.0284476 0)
(-0.0240172 -0.164572 0)
(0.0633721 -0.387631 0)
(0.0359083 -0.339833 0)
(-0.118574 0.0299011 0)
(-0.104388 0.0495541 0)
(-0.187573 0.121851 0)
(-0.0103139 0.409059 0)
(0.235033 0.599892 0)
(0.354312 0.635904 0)
(0.376262 0.556726 0)
(-0.0882518 0.137767 0)
(-0.0928556 0.18983 0)
(-0.0988174 0.218759 0)
(-0.25635 0.425807 0)
(-0.386484 0.704604 0)
(-0.506369 0.898542 0)
(-0.567537 0.909189 0)
(-0.513376 0.737042 0)
(-0.420042 0.480113 0)
(-0.406908 0.311384 0)
(-0.267914 0.196531 0)
(-0.176232 0.0713708 0)
(-0.0331145 -0.048007 0)
(0.109592 -0.216524 0)
(0.212229 -0.368572 0)
(0.158497 -0.291373 0)
(0.162113 -0.078017 0)
(0.235375 0.113601 0)
(0.243408 0.234961 0)
(0.188697 0.288934 0)
(0.225281 0.387329 0)
(0.343211 0.509102 0)
(0.40221 0.520243 0)
(-0.0548168 0.194972 0)
(0.0205032 0.197372 0)
(-0.0503798 0.321164 0)
(-0.205223 0.614175 0)
(-0.431577 0.88002 0)
(-0.6077 1.0296 0)
(-0.690716 0.965075 0)
(-0.635318 0.663541 0)
(-0.517457 0.376458 0)
(-0.335556 0.167964 0)
(-0.136153 0.0496436 0)
(0.0517692 -0.0690217 0)
(0.230948 -0.207334 0)
(0.312713 -0.358244 0)
(0.327231 -0.387615 0)
(0.33608 -0.316057 0)
(0.381057 -0.167608 0)
(0.47076 -0.00502957 0)
(0.572259 0.17755 0)
(0.623584 0.320607 0)
(0.608805 0.402727 0)
(0.591785 0.472482 0)
(0.597215 0.499831 0)
(-0.000864943 0.176469 0)
(0.0795644 0.165005 0)
(-0.126076 0.445201 0)
(-0.292634 0.857871 0)
(-0.585744 1.11049 0)
(-0.725019 1.16079 0)
(-0.711069 0.89872 0)
(-0.588165 0.528931 0)
(-0.359968 0.178467 0)
(-0.0976691 -0.0673152 0)
(0.10212 -0.180828 0)
(0.182995 -0.266313 0)
(0.234554 -0.329203 0)
(0.266163 -0.378257 0)
(0.280991 -0.386665 0)
(0.31063 -0.339748 0)
(0.385541 -0.238821 0)
(0.505 -0.100315 0)
(0.655028 0.0647258 0)
(0.810138 0.242369 0)
(0.925022 0.392496 0)
(0.977896 0.494977 0)
(0.995187 0.537179 0)
(0.0270414 0.159052 0)
(-0.110765 0.283593 0)
(-0.295036 0.68199 0)
(-0.4835 1.12948 0)
(-0.712017 1.28082 0)
(-0.727667 1.15105 0)
(-0.611126 0.78766 0)
(-0.406718 0.355405 0)
(-0.14852 -0.0185788 0)
(0.0145392 -0.294267 0)
(0.00868513 -0.265162 0)
(0.0582128 -0.283184 0)
(0.080035 -0.324167 0)
(0.0935389 -0.371695 0)
(0.12022 -0.404041 0)
(0.176336 -0.398913 0)
(0.272523 -0.346503 0)
(0.408398 -0.247449 0)
(0.572422 -0.103944 0)
(0.755552 0.0703768 0)
(0.938871 0.247104 0)
(1.09572 0.398434 0)
(1.20168 0.4926 0)
(-0.0809259 0.262231 0)
(-0.348308 0.494679 0)
(-0.464241 0.905063 0)
(-0.589219 1.29981 0)
(-0.658607 1.33062 0)
(-0.561443 1.059 0)
(-0.390917 0.630154 0)
(-0.181809 0.1699 0)
(-0.0346562 -0.264871 0)
(-0.0867333 -0.270182 0)
(-0.0996614 -0.259163 0)
(-0.116945 -0.275452 0)
(-0.113439 -0.332363 0)
(-0.0783012 -0.406253 0)
(-0.0211604 -0.463339 0)
(0.0537126 -0.489282 0)
(0.153615 -0.474267 0)
(0.284303 -0.407986 0)
(0.443185 -0.285403 0)
(0.618907 -0.119912 0)
(0.797203 0.060131 0)
(0.97103 0.229957 0)
(1.12012 0.36331 0)
(-0.22903 0.483647 0)
(-0.510208 0.709012 0)
(-0.599216 1.01462 0)
(-0.550427 1.30243 0)
(-0.458019 1.25797 0)
(-0.301544 0.918427 0)
(-0.176026 0.468053 0)
(-0.0493315 -0.0262089 0)
(-0.0335532 -0.174711 0)
(-0.122933 -0.204823 0)
(-0.225839 -0.195081 0)
(-0.266152 -0.252555 0)
(-0.236378 -0.363557 0)
(-0.175688 -0.465789 0)
(-0.109527 -0.53623 0)
(-0.0413999 -0.57794 0)
(0.0390972 -0.587586 0)
(0.142877 -0.549198 0)
(0.275927 -0.44879 0)
(0.434694 -0.292893 0)
(0.602229 -0.107667 0)
(0.763225 0.074284 0)
(0.910188 0.226444 0)
(-0.320139 0.909449 0)
(-0.571762 0.881758 0)
(-0.626599 1.01639 0)
(-0.477687 1.10017 0)
(-0.28117 1.03596 0)
(-0.108749 0.796338 0)
(-0.0686676 0.341463 0)
(0.00388109 -0.0159047 0)
(-0.0849063 -0.116051 0)
(-0.241729 -0.0865765 0)
(-0.350443 -0.122135 0)
(-0.34766 -0.269214 0)
(-0.286707 -0.426948 0)
(-0.212835 -0.536037 0)
(-0.150977 -0.599963 0)
(-0.101817 -0.642578 0)
(-0.0523698 -0.665934 0)
(0.0115693 -0.651816 0)
(0.102543 -0.578723 0)
(0.227077 -0.444924 0)
(0.377501 -0.270986 0)
(0.538391 -0.0851183 0)
(0.689367 0.0801761 0)
(-0.254035 1.31385 0)
(-0.525893 1.03007 0)
(-0.599109 0.960093 0)
(-0.489531 0.903241 0)
(-0.310705 0.864525 0)
(-0.202564 0.69796 0)
(-0.099996 0.263232 0)
(-0.0733109 0.0235555 0)
(-0.201691 0.0335087 0)
(-0.360548 0.0365047 0)
(-0.409098 -0.105407 0)
(-0.36343 -0.322365 0)
(-0.278426 -0.50658 0)
(-0.19765 -0.605408 0)
(-0.142199 -0.646373 0)
(-0.114446 -0.67609 0)
(-0.0996996 -0.703521 0)
(-0.0777868 -0.70628 0)
(-0.0365029 -0.661923 0)
(0.0395821 -0.559647 0)
(0.152214 -0.412812 0)
(0.294674 -0.242792 0)
(0.452843 -0.0711758 0)
(0.000176956 1.63219 0)
(-0.277224 1.29391 0)
(-0.457367 0.997657 0)
(-0.474273 0.805031 0)
(-0.454489 0.740224 0)
(-0.309663 0.536761 0)
(-0.140222 0.189721 0)
(-0.160827 0.103603 0)
(-0.29455 0.167351 0)
(-0.405413 0.105597 0)
(-0.395335 -0.124672 0)
(-0.323067 -0.398544 0)
(-0.22007 -0.601167 0)
(-0.1458 -0.673686 0)
(-0.0970321 -0.679783 0)
(-0.0854274 -0.679754 0)
(-0.0994532 -0.703139 0)
(-0.112853 -0.715383 0)
(-0.116558 -0.693657 0)
(-0.0942378 -0.62482 0)
(-0.0357666 -0.512765 0)
(0.0566505 -0.376128 0)
(0.180313 -0.231421 0)
(0.276176 1.5339 0)
(0.147806 1.59469 0)
(-0.0592767 1.22885 0)
(-0.206735 0.901348 0)
(-0.332907 0.678356 0)
(-0.225883 0.396743 0)
(-0.11719 0.155498 0)
(-0.181303 0.188549 0)
(-0.318731 0.271496 0)
(-0.371912 0.132549 0)
(-0.330675 -0.167592 0)
(-0.23518 -0.496018 0)
(-0.142495 -0.68848 0)
(-0.0829293 -0.73235 0)
(-0.03989 -0.709696 0)
(-0.0371793 -0.664571 0)
(-0.0658603 -0.676311 0)
(-0.101101 -0.690953 0)
(-0.134048 -0.680352 0)
(-0.156688 -0.636497 0)
(-0.153521 -0.556101 0)
(-0.121412 -0.449308 0)
(-0.0616577 -0.329648 0)
(0.321181 1.08695 0)
(0.520451 1.64327 0)
(0.412022 1.47606 0)
(0.225855 1.13311 0)
(0.050373 0.777257 0)
(0.00479383 0.38529 0)
(-0.00771344 0.180309 0)
(-0.144653 0.289348 0)
(-0.276432 0.351146 0)
(-0.283075 0.131595 0)
(-0.228551 -0.228067 0)
(-0.127469 -0.591452 0)
(-0.0711379 -0.755549 0)
(-0.0226632 -0.780552 0)
(0.0133846 -0.734345 0)
(0.012523 -0.646258 0)
(-0.0146545 -0.63818 0)
(-0.0594204 -0.65143 0)
(-0.103193 -0.640651 0)
(-0.149258 -0.606887 0)
(-0.18556 -0.54826 0)
(-0.202172 -0.465774 0)
(-0.195065 -0.370044 0)
(0.134569 0.58662 0)
(0.605881 1.45542 0)
(0.664868 1.56281 0)
(0.51283 1.29487 0)
(0.340082 0.899935 0)
(0.227291 0.480925 0)
(0.115747 0.286603 0)
(-0.0845199 0.413368 0)
(-0.193181 0.408417 0)
(-0.166974 0.107371 0)
(-0.109037 -0.285595 0)
(-0.0205256 -0.66184 0)
(0.0045061 -0.80235 0)
(0.0395634 -0.816059 0)
(0.0618312 -0.749576 0)
(0.0612071 -0.63746 0)
(0.0465195 -0.600079 0)
(0.00135499 -0.608097 0)
(-0.0461564 -0.595446 0)
(-0.0950455 -0.560503 0)
(-0.14571 -0.511135 0)
(-0.186144 -0.446251 0)
(-0.20848 -0.370574 0)
(-0.0105155 0.282357 0)
(0.418883 1.21488 0)
(0.602638 1.54954 0)
(0.539551 1.37796 0)
(0.41672 1.00594 0)
(0.318971 0.610464 0)
(0.176833 0.447585 0)
(-0.0312264 0.545324 0)
(-0.0978721 0.440879 0)
(-0.0512859 0.0755097 0)
(0.0190056 -0.347599 0)
(0.0881502 -0.703278 0)
(0.0985722 -0.831724 0)
(0.109988 -0.831014 0)
(0.116122 -0.756215 0)
(0.120896 -0.640037 0)
(0.119644 -0.571048 0)
(0.0791366 -0.560045 0)
(0.0223732 -0.549195 0)
(-0.0262841 -0.514356 0)
(-0.0751687 -0.467712 0)
(-0.118968 -0.413676 0)
(-0.149662 -0.350872 0)
(-0.0602698 0.147575 0)
(0.150018 1.01641 0)
(0.326356 1.46882 0)
(0.346858 1.40955 0)
(0.329876 1.07853 0)
(0.298669 0.726728 0)
(0.168586 0.613483 0)
(0.0076997 0.652003 0)
(0.00153972 0.435625 0)
(0.0707016 0.0162041 0)
(0.148379 -0.409872 0)
(0.202769 -0.730365 0)
(0.202846 -0.842361 0)
(0.194089 -0.830908 0)
(0.195744 -0.761356 0)
(0.206883 -0.65058 0)
(0.209439 -0.551596 0)
(0.172258 -0.506266 0)
(0.101834 -0.491638 0)
(0.040667 -0.464836 0)
(-0.00911759 -0.423535 0)
(-0.0520707 -0.376634 0)
(-0.0824853 -0.32534 0)
(-0.0766029 0.154758 0)
(-0.0588903 0.91209 0)
(0.0581639 1.36904 0)
(0.137191 1.35043 0)
(0.215891 1.06143 0)
(0.233092 0.798653 0)
(0.133442 0.737751 0)
(0.0475201 0.699089 0)
(0.099653 0.393339 0)
(0.193477 -0.0488742 0)
(0.27482 -0.471795 0)
(0.320131 -0.75221 0)
(0.309547 -0.840706 0)
(0.297846 -0.829246 0)
(0.30919 -0.769296 0)
(0.319911 -0.659435 0)
(0.313719 -0.532017 0)
(0.270595 -0.446278 0)
(0.188125 -0.417269 0)
(0.106802 -0.402089 0)
(0.0473184 -0.373769 0)
(0.000365761 -0.33691 0)
(-0.0327732 -0.296488 0)
(-0.0642037 0.23 0)
(-0.135261 0.909005 0)
(-0.0893706 1.27335 0)
(0.0322845 1.23047 0)
(0.144846 0.990586 0)
(0.170666 0.833394 0)
(0.109559 0.799796 0)
(0.104604 0.67517 0)
(0.19744 0.315739 0)
(0.311669 -0.139208 0)
(0.394562 -0.529614 0)
(0.428129 -0.764348 0)
(0.414774 -0.837658 0)
(0.415907 -0.833977 0)
(0.43269 -0.780433 0)
(0.437614 -0.660283 0)
(0.41609 -0.501404 0)
(0.358148 -0.376285 0)
(0.263822 -0.327978 0)
(0.16632 -0.323707 0)
(0.0955401 -0.315157 0)
(0.0440645 -0.29295 0)
(0.00684264 -0.265771 0)
(-0.0429087 0.312285 0)
(-0.107448 0.950452 0)
(-0.109523 1.19633 0)
(0.0288191 1.10074 0)
(0.115216 0.923076 0)
(0.13132 0.844458 0)
(0.116371 0.799146 0)
(0.175576 0.599729 0)
(0.294979 0.215595 0)
(0.421499 -0.236863 0)
(0.496087 -0.586426 0)
(0.515484 -0.77655 0)
(0.508293 -0.839807 0)
(0.521154 -0.84616 0)
(0.539743 -0.789505 0)
(0.533404 -0.648255 0)
(0.49163 -0.454612 0)
(0.415254 -0.29339 0)
(0.309751 -0.227445 0)
(0.203801 -0.234027 0)
(0.127457 -0.249725 0)
(0.074736 -0.245192 0)
(0.0359466 -0.231218 0)
(-0.0244407 0.36803 0)
(-0.0380012 0.983668 0)
(-0.0479365 1.13917 0)
(0.0703418 1.00638 0)
(0.109656 0.882234 0)
(0.119682 0.834819 0)
(0.150481 0.746367 0)
(0.248651 0.490653 0)
(0.385904 0.0881539 0)
(0.506064 -0.332255 0)
(0.561936 -0.626747 0)
(0.569688 -0.781376 0)
(0.569379 -0.848809 0)
(0.591783 -0.864344 0)
(0.609081 -0.791867 0)
(0.584619 -0.615907 0)
(0.516539 -0.385934 0)
(0.421509 -0.197687 0)
(0.310239 -0.12246 0)
(0.207188 -0.142798 0)
(0.136716 -0.183876 0)
(0.0883913 -0.198316 0)
(0.0518573 -0.196589 0)
(0.0005088 0.380525 0)
(0.0241724 0.975748 0)
(0.0408833 1.09348 0)
(0.116604 0.958214 0)
(0.119641 0.863724 0)
(0.133205 0.804365 0)
(0.195706 0.662056 0)
(0.311769 0.36681 0)
(0.452421 -0.0401477 0)
(0.550788 -0.40819 0)
(0.584303 -0.65299 0)
(0.579359 -0.783825 0)
(0.583257 -0.864471 0)
(0.609663 -0.886413 0)
(0.613563 -0.782546 0)
(0.56206 -0.55829 0)
(0.46749 -0.294015 0)
(0.360766 -0.0939472 0)
(0.255756 -0.0230197 0)
(0.172711 -0.0633629 0)
(0.122609 -0.127373 0)
(0.0853959 -0.15739 0)
(0.0549982 -0.165476 0)
(0.037691 0.34361 0)
(0.0716047 0.930239 0)
(0.116699 1.05545 0)
(0.153216 0.942886 0)
(0.138206 0.854678 0)
(0.159655 0.759088 0)
(0.235964 0.563532 0)
(0.35838 0.234686 0)
(0.48278 -0.149861 0)
(0.549511 -0.459224 0)
(0.554724 -0.658821 0)
(0.534187 -0.780075 0)
(0.538815 -0.885684 0)
(0.545955 -0.902805 0)
(0.510673 -0.749618 0)
(0.427627 -0.473597 0)
(0.323311 -0.187237 0)
(0.227157 0.00325813 0)
(0.148617 0.0513875 0)
(0.10787 -0.0125463 0)
(0.0907505 -0.0907425 0)
(0.069086 -0.127613 0)
(0.0479068 -0.141175 0)
(0.0657479 0.273067 0)
(0.116022 0.863595 0)
(0.170369 1.0256 0)
(0.178797 0.947564 0)
(0.157519 0.850187 0)
(0.182764 0.707743 0)
(0.260889 0.458453 0)
(0.378027 0.107563 0)
(0.473371 -0.229738 0)
(0.497364 -0.47773 0)
(0.470363 -0.637857 0)
(0.432204 -0.76656 0)
(0.424503 -0.896617 0)
(0.36404 -0.876075 0)
(0.268343 -0.664308 0)
(0.170822 -0.361757 0)
(0.093136 -0.0862272 0)
(0.0403617 0.0665741 0)
(0.0215398 0.0733321 0)
(0.041097 -0.00735634 0)
(0.0531087 -0.0793713 0)
(0.0458499 -0.111075 0)
(0.0349313 -0.125497 0)
(0.0535741 0.177718 0)
(0.150082 0.789037 0)
(0.20959 1.01015 0)
(0.202835 0.963216 0)
(0.174686 0.845032 0)
(0.188076 0.661512 0)
(0.261476 0.363217 0)
(0.364783 0.0167839 0)
(0.418277 -0.264855 0)
(0.392715 -0.452236 0)
(0.344994 -0.588973 0)
(0.283529 -0.732873 0)
(0.242794 -0.846259 0)
(0.0678237 -0.745578 0)
(-0.0650008 -0.514319 0)
(-0.128656 -0.24997 0)
(-0.145196 -0.0282573 0)
(-0.119657 0.066133 0)
(-0.0578635 0.0361119 0)
(0.00227866 -0.0393318 0)
(0.021619 -0.0847957 0)
(0.0235246 -0.105371 0)
(0.0209203 -0.11788 0)
(0.0245223 0.0610341 0)
(0.162163 0.672215 0)
(0.235097 0.973838 0)
(0.225515 0.995105 0)
(0.179281 0.88743 0)
(0.172288 0.632101 0)
(0.23739 0.245051 0)
(0.309483 -0.0583957 0)
(0.310732 -0.254168 0)