/*--------------------------------*- C++ -*----------------------------------*\
| =========                 |                                                 |
| \\      /  F ield         | OpenFOAM: The Open Source CFD Toolbox           |
|  \\    /   O peration     | Version:  2.3.0                                 |
|   \\  /    A nd           | Web:      www.OpenFOAM.org                      |
|    \\/     M anipulation  |                                                 |
\*---------------------------------------------------------------------------*/
FoamFile
{
    version     2.0;
    format      ascii;
    class       volScalarField;
    location    "3.4e-05";
    object      nuSgs;
}
// * * * * * * * * * * * * * * * * * * * * * * * * * * * * * * * * * * * * * //

dimensions      [0 2 -1 0 0 0 0];

internalField   nonuniform List<scalar> 
7500
(
4.1404945e-10
4.1899225e-10
4.2390478e-10
4.287431e-10
4.3355975e-10
4.3831182e-10
4.4304542e-10
4.4771088e-10
4.5234648e-10
4.5692421e-10
4.6147181e-10
4.6596907e-10
4.7042553e-10
4.748329e-10
4.7919304e-10
4.8351075e-10
4.877814e-10
4.9201182e-10
4.9620631e-10
5.0036963e-10
5.044916e-10
5.0855895e-10
5.1257794e-10
5.1654938e-10
5.2047385e-10
5.2435411e-10
5.2819568e-10
5.3199825e-10
5.3576702e-10
5.3948538e-10
5.4316356e-10
5.4680323e-10
5.5037982e-10
5.5390872e-10
5.573966e-10
5.6085071e-10
5.6426561e-10
5.6764884e-10
5.7102246e-10
5.8009449e-10
5.8372047e-10
5.8727299e-10
5.907916e-10
5.9426752e-10
5.9772787e-10
6.0115178e-10
6.0458925e-10
6.0796931e-10
6.1139426e-10
6.1472119e-10
6.1812443e-10
6.2143632e-10
6.2489533e-10
6.2821814e-10
6.3176882e-10
6.3513419e-10
6.3884385e-10
6.4229021e-10
6.4623193e-10
6.4981153e-10
6.5408596e-10
6.5784538e-10
6.6253837e-10
6.6652455e-10
6.7173879e-10
6.7600464e-10
6.8186832e-10
6.864769e-10
6.9309674e-10
6.9808644e-10
7.0550292e-10
7.1085016e-10
7.1905879e-10
7.2476119e-10
7.3580647e-10
4.5545794e-10
4.6089858e-10
4.6630263e-10
4.7165415e-10
4.7695524e-10
4.8220412e-10
4.8740958e-10
4.925562e-10
4.9766317e-10
5.0270882e-10
5.077168e-10
5.12665e-10
5.1757504e-10
5.2243348e-10
5.2724899e-10
5.3201555e-10
5.3673843e-10
5.4140187e-10
5.4602118e-10
5.5058673e-10
5.5510584e-10
5.5958215e-10
5.6401485e-10
5.6840278e-10
5.7274915e-10
5.77056e-10
5.8133149e-10
5.8555938e-10
5.8975589e-10
5.9388705e-10
5.9799519e-10
6.0204617e-10
6.0608943e-10
6.10074e-10
6.1407683e-10
6.1800838e-10
6.2198402e-10
6.2588887e-10
6.2988292e-10
6.4018008e-10
6.4464299e-10
6.4903218e-10
6.5367558e-10
6.582433e-10
6.6322836e-10
6.6808853e-10
6.7360758e-10
6.7890802e-10
6.8521209e-10
6.9112979e-10
6.985299e-10
7.0530078e-10
7.1423387e-10
7.2211103e-10
7.3296392e-10
7.42214e-10
7.5543926e-10
7.6628219e-10
7.8226584e-10
7.9501524e-10
8.1426793e-10
8.2892829e-10
8.5138738e-10
8.6823904e-10
8.9439734e-10
9.1344789e-10
9.4365171e-10
9.6507253e-10
9.9948872e-10
1.0231889e-09
1.0612522e-09
1.0866373e-09
1.1278078e-09
1.1546439e-09
1.2113762e-09
5.010356e-10
5.0708091e-10
5.1309304e-10
5.1904803e-10
5.2495766e-10
5.3082517e-10
5.3662784e-10
5.4237381e-10
5.4805618e-10
5.5367304e-10
5.5923192e-10
5.64729e-10
5.701738e-10
5.7556603e-10
5.8091087e-10
5.8620782e-10
5.9146077e-10
5.966655e-10
6.018358e-10
6.069554e-10
6.1206422e-10
6.1712901e-10
6.2223698e-10
6.2728165e-10
6.3244e-10
6.3748687e-10
6.4271719e-10
6.4778727e-10
6.5311464e-10
6.5827101e-10
6.638114e-10
6.6920432e-10
6.7523303e-10
6.8110375e-10
6.8802291e-10
6.94731e-10
7.0315227e-10
7.1122955e-10
7.220247e-10
7.3960391e-10
7.5445578e-10
7.6837984e-10
7.8827478e-10
8.0667408e-10
8.3358428e-10
8.5765253e-10
8.9337908e-10
9.2410283e-10
9.6993861e-10
1.008031e-09
1.0650856e-09
1.1113814e-09
1.1814946e-09
1.2363338e-09
1.3197122e-09
1.3832485e-09
1.4798401e-09
1.5514553e-09
1.6608348e-09
1.74067e-09
1.86231e-09
1.9485827e-09
2.0796614e-09
2.1727007e-09
2.3141718e-09
2.413426e-09
2.5658943e-09
2.6714498e-09
2.8348805e-09
2.9456812e-09
3.1155128e-09
3.2289441e-09
3.4031309e-09
3.5178132e-09
3.7488609e-09
5.513222e-10
5.5840956e-10
5.6540367e-10
5.7248235e-10
5.7928772e-10
5.8630693e-10
5.929066e-10
5.9970381e-10
6.0610645e-10
6.1242521e-10
6.1866566e-10
6.2483047e-10
6.3099169e-10
6.3710947e-10
6.4323342e-10
6.4929218e-10
6.5543701e-10
6.6154413e-10
6.678751e-10
6.7414097e-10
6.8086495e-10
6.8745759e-10
6.9488008e-10
7.0201662e-10
7.1049556e-10
7.1855625e-10
7.2865735e-10
7.3841592e-10
7.5139013e-10
7.6428188e-10
7.8272321e-10
8.0126055e-10
8.2944172e-10
8.568613e-10
8.9988112e-10
9.4011404e-10
1.0043396e-09
1.0611992e-09
1.1519905e-09
1.2410283e-09
1.3638239e-09
1.4647806e-09
1.6206058e-09
1.7466076e-09
1.9387883e-09
2.0901392e-09
2.3194759e-09
2.4949105e-09
2.7582666e-09
2.9563177e-09
3.2524488e-09
3.4738561e-09
3.8075517e-09
4.0512138e-09
4.4206031e-09
4.6863069e-09
5.0880473e-09
5.3731341e-09
5.8070092e-09
6.1108806e-09
6.5704813e-09
6.888222e-09
7.3664828e-09
7.6980685e-09
8.197346e-09
8.5430903e-09
9.0661377e-09
9.4261701e-09
9.9749998e-09
1.0344486e-08
1.0900866e-08
1.1273607e-08
1.1831412e-08
1.2201024e-08
1.2923154e-08
5.9783742e-10
6.0684336e-10
6.1533839e-10
6.2427248e-10
6.3247532e-10
6.4141868e-10
6.4943282e-10
6.5795034e-10
6.6614545e-10
6.7434784e-10
6.8273749e-10
6.9088189e-10
6.9940093e-10
7.0798266e-10
7.1676603e-10
7.2551916e-10
7.3519412e-10
7.4512992e-10
7.5598162e-10
7.6826276e-10
7.8128696e-10
7.9803514e-10
8.1662915e-10
8.3967499e-10
8.7050833e-10
9.0457408e-10
9.5722885e-10
1.012799e-09
1.1001846e-09
1.1896661e-09
1.3320704e-09
1.467108e-09
1.6796614e-09
1.8661683e-09
2.157851e-09
2.4011083e-09
2.7828786e-09
3.0849297e-09
3.5600938e-09
3.9223116e-09
4.4917481e-09
4.9167597e-09
5.5808834e-09
6.0732236e-09
6.8383088e-09
7.3985341e-09
8.2653575e-09
8.8870421e-09
9.8388173e-09
1.0516368e-08
1.1546913e-08
1.2282099e-08
1.3405027e-08
1.4192777e-08
1.5404291e-08
1.6243212e-08
1.7526079e-08
1.8409337e-08
1.9769181e-08
2.0689607e-08
2.2094459e-08
2.3041892e-08
2.4477801e-08
2.5446697e-08
2.6915918e-08
2.7911292e-08
2.9418115e-08
3.0442038e-08
3.2001382e-08
3.3034364e-08
3.4591844e-08
3.5622205e-08
3.7154281e-08
3.8160348e-08
4.0093305e-08
6.3146099e-10
6.4041057e-10
6.496204e-10
6.5878647e-10
6.685599e-10
6.7823292e-10
6.8907686e-10
6.9935248e-10
7.1163847e-10
7.2282141e-10
7.3704973e-10
7.4945974e-10
7.6503246e-10
7.8154835e-10
7.9726353e-10
8.1804934e-10
8.3769267e-10
8.6651163e-10
8.9514242e-10
9.4020141e-10
9.9023526e-10
1.0738466e-09
1.1674456e-09
1.323685e-09
1.4876815e-09
1.733459e-09
2.0385007e-09
2.3710645e-09
2.8483615e-09
3.3030235e-09
3.9901503e-09
4.5724306e-09
5.4719663e-09
6.1966846e-09
7.3274979e-09
8.2056784e-09
9.5904471e-09
1.0622015e-08
1.2260893e-08
1.3445805e-08
1.5338095e-08
1.6675013e-08
1.8813528e-08
2.0312337e-08
2.2704263e-08
2.4368189e-08
2.700955e-08
2.8812999e-08
3.1640167e-08
3.3563934e-08
3.6549004e-08
3.8597755e-08
4.1770132e-08
4.3926722e-08
4.7285795e-08
4.9541512e-08
5.3026365e-08
5.5369301e-08
5.9006789e-08
6.1404915e-08
6.5092811e-08
6.7529636e-08
7.1241492e-08
7.369185e-08
7.7428291e-08
7.9910585e-08
8.3664275e-08
8.6197672e-08
9.0031383e-08
9.2556816e-08
9.6354846e-08
9.8850856e-08
1.0252956e-07
1.0494061e-07
1.0945386e-07
6.5651029e-10
6.6780412e-10
6.7887597e-10
6.9221323e-10
7.0517455e-10
7.2037187e-10
7.3793317e-10
7.5466805e-10
7.7742683e-10
7.9705921e-10
8.2575887e-10
8.4923214e-10
8.8482423e-10
9.1555744e-10
9.6327736e-10
1.0145049e-09
1.0893341e-09
1.1970418e-09
1.3412438e-09
1.5761857e-09
1.8591662e-09
2.3154041e-09
2.7912257e-09
3.5467451e-09
4.2542996e-09
5.379851e-09
6.3563398e-09
7.8289603e-09
9.2691001e-09
1.1018457e-08
1.3164332e-08
1.5052727e-08
1.789738e-08
2.0087208e-08
2.3536675e-08
2.6078187e-08
3.0135656e-08
3.3026019e-08
3.7675687e-08
4.090547e-08
4.6121604e-08
4.9653812e-08
5.5398874e-08
5.9248622e-08
6.5517924e-08
6.969208e-08
7.6447862e-08
8.0867554e-08
8.7930859e-08
9.2549086e-08
9.9836021e-08
1.0467348e-07
1.1223175e-07
1.1725076e-07
1.2511397e-07
1.3028044e-07
1.3829736e-07
1.4360128e-07
1.5183339e-07
1.571861e-07
1.6541274e-07
1.7079463e-07
1.7896272e-07
1.8430343e-07
1.9242021e-07
1.9775736e-07
2.0575097e-07
2.1118062e-07
2.1926179e-07
2.2466142e-07
2.3263631e-07
2.3793747e-07
2.4552379e-07
2.5060551e-07
2.5978421e-07
6.7644321e-10
6.9824051e-10
7.1888021e-10
7.4982132e-10
7.7735537e-10
8.1702317e-10
8.5897213e-10
9.0313956e-10
9.5551969e-10
1.0021841e-09
1.0663617e-09
1.1217123e-09
1.208326e-09
1.3075952e-09
1.4687424e-09
1.6968843e-09
2.0660333e-09
2.5558379e-09
3.2453202e-09
4.2753565e-09
5.3833742e-09
7.1199332e-09
8.7430661e-09
1.1332713e-08
1.3543535e-08
1.7125854e-08
1.9997679e-08
2.4704983e-08
2.8288778e-08
3.4223541e-08
3.8566822e-08
4.5166074e-08
5.1615553e-08
5.7842941e-08
6.6458856e-08
7.2848894e-08
8.2896816e-08
8.9862361e-08
1.0110294e-07
1.0864972e-07
1.2086688e-07
1.2890428e-07
1.4205322e-07
1.5059634e-07
1.6462654e-07
1.7367438e-07
1.8843436e-07
1.9781886e-07
2.1296129e-07
2.2261503e-07
2.3798112e-07
2.4798697e-07
2.6363419e-07
2.7394305e-07
2.8999431e-07
3.0050826e-07
3.1671921e-07
3.2746724e-07
3.4391248e-07
3.5473599e-07
3.7113569e-07
3.820189e-07
3.9822906e-07
4.0901176e-07
4.2506838e-07
4.3575283e-07
4.5144206e-07
4.6243308e-07
4.7814795e-07
4.8911547e-07
5.0476363e-07
5.15568e-07
5.3053392e-07
5.4108409e-07
5.595005e-07
7.1143599e-10
8.0822711e-10
8.5591611e-10
9.385569e-10
9.9196836e-10
1.0511229e-09
1.1233045e-09
1.1675479e-09
1.2340614e-09
1.3070446e-09
1.4280307e-09
1.609752e-09
1.9133774e-09
2.3782435e-09
3.1142947e-09
4.1163023e-09
5.6743268e-09
7.4287346e-09
9.9354771e-09
1.3174366e-08
1.6603593e-08
2.1870304e-08
2.6422462e-08
3.3809089e-08
3.9640303e-08
4.9305113e-08
5.6541122e-08
6.8598745e-08
7.7231846e-08
9.1749386e-08
1.0178938e-07
1.1868611e-07
1.3006915e-07
1.4887561e-07
1.6256417e-07
1.8049296e-07
1.9912779e-07
2.1547802e-07
2.3815308e-07
2.5387368e-07
2.7867272e-07
2.9498019e-07
3.2133112e-07
3.3826641e-07
3.6588251e-07
3.8357058e-07
4.1224951e-07
4.3050973e-07
4.5988446e-07
4.7865997e-07
5.0850515e-07
5.279799e-07
5.5819557e-07
5.7834159e-07
6.0909428e-07
6.2981164e-07
6.6122529e-07
6.8283224e-07
7.1494071e-07
7.3720697e-07
7.6997588e-07
7.9261538e-07
8.2515734e-07
8.476975e-07
8.7988165e-07
9.0222699e-07
9.3460437e-07
9.5772796e-07
9.8981448e-07
1.0140276e-06
1.0472379e-06
1.0720902e-06
1.1058353e-06
1.131627e-06
1.1763703e-06
7.1792959e-10
8.4884014e-10
9.1127067e-10
1.0582837e-09
1.1187776e-09
1.2593238e-09
1.330252e-09
1.4866811e-09
1.6432127e-09
1.9261864e-09
2.4018516e-09
3.1766999e-09
4.3818346e-09
6.104728e-09
8.7442292e-09
1.1906379e-08
1.6846827e-08
2.1795872e-08
2.984234e-08
3.7034181e-08
4.743007e-08
6.0118383e-08
7.1700464e-08
8.9773895e-08
1.0314976e-07
1.2584365e-07
1.4171655e-07
1.6842481e-07
1.866451e-07
2.1748704e-07
2.3789369e-07
2.7237673e-07
2.9491077e-07
3.3296024e-07
3.5737562e-07
3.9827386e-07
4.2437991e-07
4.6642115e-07
4.9781615e-07
5.3722425e-07
5.7696844e-07
6.1175307e-07
6.5904458e-07
6.9158337e-07
7.4335612e-07
7.7770569e-07
8.3240413e-07
8.6871244e-07
9.261318e-07
9.6393096e-07
1.0233781e-06
1.0627872e-06
1.122654e-06
1.1638796e-06
1.2257267e-06
1.2710559e-06
1.3380143e-06
1.3889406e-06
1.4583684e-06
1.5124877e-06
1.5821128e-06
1.6365103e-06
1.7052865e-06
1.7578534e-06
1.8283994e-06
1.8819879e-06
1.9597819e-06
2.0157074e-06
2.0952815e-06
2.1604576e-06
2.2533379e-06
2.3281358e-06
2.4335124e-06
2.5120534e-06
2.6442239e-06
7.0616259e-10
7.4906788e-10
7.9401693e-10
8.7973702e-10
9.5635389e-10
1.0966502e-09
1.3285641e-09
1.7730503e-09
2.5395679e-09
3.777594e-09
5.6536479e-09
8.3450326e-09
1.228751e-08
1.7464355e-08
2.5509081e-08
3.3762167e-08
4.7183838e-08
5.9226295e-08
7.9480378e-08
9.5874631e-08
1.2389012e-07
1.4463115e-07
1.7697888e-07
2.0946393e-07
2.3832222e-07
2.8526749e-07
3.1568266e-07
3.6753273e-07
4.0238461e-07
4.6069871e-07
4.9856902e-07
5.6223925e-07
6.0406936e-07
6.7425891e-07
7.192697e-07
7.9435564e-07
8.4292584e-07
9.2343453e-07
9.7650438e-07
1.0642343e-06
1.1211794e-06
1.2104534e-06
1.2809135e-06
1.3584801e-06
1.4622096e-06
1.5369078e-06
1.653122e-06
1.7335072e-06
1.8571873e-06
1.9405633e-06
2.0720956e-06
2.1588299e-06
2.2833357e-06
2.3827281e-06
2.5441769e-06
2.669094e-06
2.8412128e-06
2.98231e-06
3.1588075e-06
3.2789584e-06
3.4464375e-06
3.5883077e-06
3.7455903e-06
3.8963906e-06
4.1019626e-06
4.2405815e-06
4.4967508e-06
4.6371292e-06
4.9431166e-06
5.1430373e-06
5.5577465e-06
5.7837227e-06
6.1778865e-06
6.3605745e-06
6.7049238e-06
7.8640699e-10
8.7901825e-10
9.9888217e-10
1.0817307e-09
1.2486444e-09
1.6405734e-09
2.4651983e-09
3.954938e-09
6.348536e-09
9.9484982e-09
1.5266047e-08
2.2619849e-08
3.3871065e-08
4.683623e-08
6.7475448e-08
8.6526247e-08
1.184014e-07
1.4456358e-07
1.893231e-07
2.227552e-07
2.8022564e-07
3.2009208e-07
3.8882551e-07
4.3507039e-07
5.078531e-07
5.7865512e-07
6.3571644e-07
7.3169613e-07
7.9511237e-07
8.9788232e-07
9.6807928e-07
1.0838168e-06
1.1640177e-06
1.2928693e-06
1.3793452e-06
1.5235566e-06
1.6235147e-06
1.7866848e-06
1.8974951e-06
2.0803075e-06
2.2000936e-06
2.394145e-06
2.5308441e-06
2.7736665e-06
2.990123e-06
3.1784225e-06
3.4669663e-06
3.6473325e-06
3.9637174e-06
4.1420681e-06
4.5171245e-06
4.6869155e-06
4.9879943e-06
5.3470821e-06
5.9967329e-06
6.318691e-06
6.6888777e-06
7.168865e-06
7.343188e-06
7.6443408e-06
8.170643e-06
8.6221206e-06
8.9420387e-06
9.5865618e-06
1.0104504e-05
1.0374308e-05
1.1256384e-05
1.1377621e-05
1.180159e-05
1.2087028e-05
1.269451e-05
1.2919567e-05
1.3464134e-05
1.367998e-05
1.4091271e-05
7.9983686e-10
9.5968455e-10
1.0919079e-09
1.3912914e-09
2.1102525e-09
3.6409841e-09
6.3144992e-09
1.0637833e-08
1.7125965e-08
2.655956e-08
4.0473044e-08
5.8629348e-08
8.716816e-08
1.1568586e-07
1.6152543e-07
2.0091568e-07
2.6750529e-07
3.1825426e-07
4.0532766e-07
4.6684694e-07
5.708127e-07
6.4208338e-07
7.6378744e-07
8.4564768e-07
9.8345573e-07
1.082079e-06
1.2208295e-06
1.3760252e-06
1.496375e-06
1.692911e-06
1.8389642e-06
2.0697554e-06
2.2389056e-06
2.4823534e-06
2.6718848e-06
3.0146773e-06
3.2464137e-06
3.6206485e-06
3.8655166e-06
4.3236386e-06
4.5688808e-06
5.071203e-06
5.4497893e-06
6.3676701e-06
6.7130103e-06
7.2372777e-06
7.8272302e-06
8.3113188e-06
9.237082e-06
9.5242308e-06
1.0743824e-05
1.0734442e-05
1.1789736e-05
1.192993e-05
1.2690759e-05
1.2827787e-05
1.3424088e-05
1.4344619e-05
1.3893146e-05
1.4087187e-05
1.4671156e-05
1.4572686e-05
1.471459e-05
1.5633047e-05
1.4653665e-05
1.4980698e-05
1.4771856e-05
1.3929024e-05
1.3656576e-05
1.3858743e-05
1.3488103e-05
1.361725e-05
1.2795706e-05
1.2560903e-05
1.182723e-05
7.6098285e-10
9.5544618e-10
1.3451218e-09
2.5076192e-09
4.9398532e-09
9.354496e-09
1.6472844e-08
2.7462486e-08
4.3364007e-08
6.6014007e-08
1.0076072e-07
1.3953215e-07
2.0236289e-07
2.5916279e-07
3.4771607e-07
4.2460656e-07
5.4750144e-07
6.3936556e-07
7.9335331e-07
9.0131744e-07
1.0739749e-06
1.207013e-06
1.4180143e-06
1.570056e-06
1.8250698e-06
2.0146938e-06
2.3198911e-06
2.5600571e-06
2.8635908e-06
3.3127165e-06
3.6413251e-06
4.1478418e-06
4.501558e-06
5.0510036e-06
5.5550751e-06
6.6437143e-06
7.075885e-06
7.8546683e-06
8.5414612e-06
9.7202195e-06
1.0130663e-05
1.1631621e-05
1.1723957e-05
1.2860845e-05
1.3094141e-05
1.4111209e-05
1.3774779e-05
1.4920061e-05
1.4459705e-05
1.5382487e-05
1.49904e-05
1.3601893e-05
1.4361043e-05
1.3095328e-05
1.2364621e-05
1.1644379e-05
1.1972073e-05
1.0863988e-05
1.0396138e-05
1.0332224e-05
1.0094425e-05
9.2627823e-06
9.1586978e-06
8.0493374e-06
7.0569004e-06
7.7942087e-06
5.7361118e-06
5.7676495e-06
5.2635284e-06
5.6883667e-06
4.856751e-06
4.7839085e-06
3.7076987e-06
3.6894057e-06
3.3576525e-06
7.0237305e-10
1.0676902e-09
2.4997981e-09
5.9967107e-09
1.2554533e-08
2.3547708e-08
4.062093e-08
6.6231483e-08
1.0188841e-07
1.5261457e-07
2.2728403e-07
3.0279292e-07
4.2533884e-07
5.3050473e-07
6.8053362e-07
8.3835545e-07
1.0242892e-06
1.2043357e-06
1.4591545e-06
1.6605513e-06
1.9455986e-06
2.2577582e-06
2.5951054e-06
2.9409027e-06
3.4849473e-06
3.9053833e-06
4.567664e-06
5.0690099e-06
6.0645349e-06
7.0242181e-06
7.8128311e-06
8.9191052e-06
9.7137659e-06
1.1097795e-05
1.1714433e-05
1.3024033e-05
1.3235541e-05
1.3540621e-05
1.4770122e-05
1.4355241e-05
1.4701723e-05
1.4344566e-05
1.3147981e-05
1.2522625e-05
1.2040514e-05
1.1854491e-05
9.7929717e-06
1.0831763e-05
8.1652871e-06
9.3860928e-06
5.7398669e-06
6.4623063e-06
5.9007114e-06
4.5315524e-06
3.7181794e-06
3.7636178e-06
3.8987195e-06
2.9142589e-06
3.1098925e-06
3.4307235e-06
3.0373425e-06
2.8770103e-06
3.5321646e-06
2.2706337e-06
2.0018436e-06
2.2450657e-06
1.5155445e-06
1.7176058e-06
1.8393329e-06
2.0703965e-06
1.5416149e-06
1.3189224e-06
1.0166276e-06
1.0507356e-06
1.0074664e-06
6.7908815e-10
1.9511278e-09
6.1989691e-09
1.4988906e-08
3.0756655e-08
5.5832354e-08
9.337663e-08
1.4895755e-07
2.2173708e-07
3.3098922e-07
4.6088376e-07
6.0600222e-07
8.2131652e-07
9.9743236e-07
1.2716802e-06
1.5429937e-06
1.8343556e-06
2.2384088e-06
2.6292336e-06
3.0370106e-06
3.685682e-06
4.3248808e-06
4.9763672e-06
6.008669e-06
7.2078569e-06
8.2130897e-06
9.7163417e-06
1.0760998e-05
1.2164413e-05
1.2864667e-05
1.3630714e-05
1.4124015e-05
1.4492412e-05
1.424944e-05
1.3396423e-05
1.1972877e-05
1.1722005e-05
1.0458669e-05
9.878898e-06
7.574946e-06
8.2481975e-06
5.2999476e-06
5.7698837e-06
4.4774212e-06
5.1081387e-06
3.5115666e-06
3.5159729e-06
3.5223041e-06
2.3903806e-06
2.6112451e-06
1.4505678e-06
2.2199837e-06
1.7189435e-06
1.2332264e-06
1.2141381e-06
1.404541e-06
1.4805416e-06
1.1072753e-06
1.3052228e-06
1.8597869e-06
1.5351981e-06
1.3225998e-06
2.0075743e-06
1.2866723e-06
1.1565172e-06
9.8869401e-07
9.2175084e-07
1.2175346e-06
1.8901696e-06
1.3319735e-06
8.807675e-07
7.8720452e-07
7.8717071e-07
6.9228539e-07
6.4204094e-07
6.9341839e-10
4.9217593e-09
1.5513052e-08
3.5962065e-08
7.0791598e-08
1.236587e-07
1.9984806e-07
3.1437564e-07
4.4661116e-07
6.6406744e-07
8.5667735e-07
1.1615573e-06
1.4607276e-06
1.8093258e-06
2.3193296e-06
2.7384718e-06
3.4216584e-06
4.1838087e-06
4.8929019e-06
6.0014898e-06
7.6029433e-06
8.8769082e-06
1.0433066e-05
1.1764653e-05
1.2701689e-05
1.3506741e-05
1.4416621e-05
1.3852161e-05
1.2927655e-05
1.1778037e-05
1.0143054e-05
9.2704026e-06
7.6098785e-06
6.8928635e-06
5.0036906e-06
4.0116665e-06
4.2187714e-06
3.7732935e-06
2.8271206e-06
2.2151848e-06
2.457587e-06
1.3897456e-06
1.9830444e-06
1.7323108e-06
3.1760455e-06
1.5023284e-06
1.9931665e-06
1.1864035e-06
1.0918985e-06
9.7354351e-07
9.3629821e-07
1.260926e-06
9.7328671e-07
8.5176116e-07
8.8596192e-07
1.0049548e-06
1.0030098e-06
9.1912859e-07
9.8608428e-07
1.2545475e-06
1.0856045e-06
1.0822501e-06
1.2670799e-06
1.0054479e-06
1.1512119e-06
9.3646e-07
8.6903773e-07
1.4297806e-06
1.9284688e-06
1.0263558e-06
8.5314656e-07
8.0354599e-07
8.2986923e-07
7.6564595e-07
6.9472225e-07
7.8169452e-10
1.2262388e-08
3.6750898e-08
8.1140456e-08
1.5222265e-07
2.552261e-07
3.9862691e-07
6.0706015e-07
8.388137e-07
1.2109741e-06
1.5459404e-06
2.0868061e-06
2.5659746e-06
3.3635699e-06
4.2034034e-06
5.1346774e-06
6.8396651e-06
8.245065e-06
9.9137219e-06
1.1943743e-05
1.2839446e-05
1.3653156e-05
1.3401382e-05
1.2586129e-05
1.1413461e-05
9.6466909e-06
9.206186e-06
6.4045723e-06
4.930826e-06
4.0894946e-06
3.3230692e-06
3.2272877e-06
2.2750064e-06
1.8053259e-06
1.2394005e-06
1.3530578e-06
1.4529406e-06
1.6967471e-06
1.0223335e-06
9.4751462e-07
7.8618587e-07
7.1558819e-07
8.0572185e-07
1.0635633e-06
1.2436168e-06
1.0132493e-06
1.4346058e-06
1.2838711e-06
1.1884223e-06
8.8688386e-07
1.0118536e-06
9.6427731e-07
8.2820807e-07
8.5194293e-07
1.014038e-06
1.6225731e-06
1.3721193e-06
9.7246796e-07
9.8005526e-07
1.0324216e-06
1.0560898e-06
9.5809897e-07
1.0477693e-06
9.7584593e-07
9.2757752e-07
8.2388689e-07
8.8792184e-07
1.5358198e-06
1.293164e-06
8.4460624e-07
8.8807358e-07
7.8943461e-07
8.0407417e-07
8.0449948e-07
7.9995164e-07
3.7725757e-10
2.8666083e-08
8.1541598e-08
1.7106921e-07
3.0560913e-07
4.9232473e-07
7.465129e-07
1.0926245e-06
1.5084046e-06
2.135671e-06
2.7523643e-06
3.7217791e-06
4.7115882e-06
6.519908e-06
8.1642869e-06
1.0465024e-05
1.1806104e-05
1.287807e-05
1.339619e-05
1.3190999e-05
1.0763516e-05
9.2246304e-06
6.3927689e-06
5.3602378e-06
4.3165657e-06
3.4840368e-06
3.0342417e-06
1.6921442e-06
1.4810676e-06
1.2310088e-06
1.4281319e-06
1.2920082e-06
7.0831904e-07
6.213327e-07
5.0469485e-07
6.5914196e-07
7.5525017e-07
6.5977978e-07
8.5548089e-07
7.173952e-07
5.0846765e-07
7.1283523e-07
6.7958917e-07
8.6736633e-07
1.4215726e-06
9.7754972e-07
1.197847e-06
1.3675318e-06
1.040388e-06
1.1248163e-06
1.0820756e-06
9.4728806e-07
8.69196e-07
9.1836516e-07
1.0670359e-06
1.5151092e-06
1.1380938e-06
1.0190532e-06
9.4227293e-07
1.0196574e-06
9.7862416e-07
1.1282431e-06
1.1850743e-06
9.9617683e-07
8.5657401e-07
8.3672804e-07
9.45741e-07
1.3238567e-06
9.6039913e-07
9.0709404e-07
9.0409589e-07
8.5865736e-07
8.1984376e-07
8.1577668e-07
8.6256679e-07
5.5133542e-09
6.5077771e-08
1.708339e-07
3.3771904e-07
5.7425112e-07
8.9222219e-07
1.3302598e-06
1.9004861e-06
2.6936041e-06
3.7821371e-06
5.0316614e-06
7.1033678e-06
9.291978e-06
1.141767e-05
1.2739078e-05
1.3016737e-05
1.1750612e-05
9.887316e-06
8.270785e-06
5.9275465e-06
3.6578274e-06
2.996173e-06
1.8065486e-06
1.9544626e-06
1.6781879e-06
1.6445438e-06
1.0823723e-06
6.753766e-07
7.0914039e-07
6.1106455e-07
7.9596228e-07
6.352261e-07
4.3775002e-07
6.566384e-07
6.567304e-07
5.7510724e-07
5.8029837e-07
4.2014918e-07
6.221803e-07
5.9077943e-07
4.8083976e-07
8.6469509e-07
9.8279015e-07
7.4510792e-07
1.2695271e-06
1.0012012e-06
1.0685444e-06
9.203444e-07
7.3051772e-07
1.1032628e-06
9.6765098e-07
9.6172526e-07
8.5164856e-07
9.9912162e-07
1.0358397e-06
1.1162539e-06
1.0487843e-06
1.3327719e-06
1.0529548e-06
1.320712e-06
1.1995517e-06
1.2743665e-06
1.2407636e-06
1.0273313e-06
8.4526922e-07
7.8862154e-07
9.3071952e-07
1.0457056e-06
8.7715755e-07
9.2530306e-07
8.5193808e-07
8.6918974e-07
8.8648031e-07
8.4365352e-07
8.9779703e-07
1.8276481e-08
1.3950461e-07
3.3739505e-07
6.2582505e-07
1.0179123e-06
1.5448892e-06
2.2881774e-06
3.3646189e-06
4.9152302e-06
7.1029659e-06
9.864077e-06
1.151344e-05
1.2245597e-05
1.1792924e-05
9.8535173e-06
6.6020181e-06
4.8134423e-06
3.9956486e-06
3.1448077e-06
1.7061621e-06
1.1916677e-06
9.5297125e-07
5.3190661e-07
7.4413648e-07
7.880551e-07
1.0629747e-06
1.3339712e-06
5.8389236e-07
7.6421839e-07
5.5494197e-07
6.3040305e-07
4.7154314e-07
4.1669988e-07
6.4708705e-07
1.0628084e-06
6.4862227e-07
5.1500013e-07
3.8043393e-07
6.5717248e-07
5.3315971e-07
5.0074431e-07
1.0026523e-06
1.3253058e-06
7.6411537e-07
9.6614637e-07
1.0183067e-06
1.0275444e-06
9.7284087e-07
6.969303e-07
1.4889187e-06
7.9682908e-07
9.1503207e-07
8.767863e-07
9.4298262e-07
9.8688228e-07
9.998365e-07
1.2248762e-06
1.4081994e-06
1.1682375e-06
1.8291519e-06
1.2917414e-06
1.1861125e-06
1.1194414e-06
1.0142178e-06
9.1887452e-07
8.1120966e-07
9.0123769e-07
9.9749288e-07
8.8102536e-07
9.4854646e-07
8.6926072e-07
8.5122593e-07
9.2516449e-07
9.4773234e-07
9.4799664e-07
4.9702268e-08
2.8248524e-07
6.2662484e-07
1.0940573e-06
1.7267668e-06
2.6200621e-06
4.0081056e-06
6.2083206e-06
9.6104397e-06
1.1076198e-05
1.1798306e-05
1.0637115e-05
7.2610746e-06
5.4804827e-06
3.7129803e-06
2.0687229e-06
1.6748572e-06
1.7219352e-06
9.2325189e-07
5.6046346e-07
6.2005711e-07
4.3333555e-07
3.7520225e-07
5.5366511e-07
5.6014722e-07
8.0754753e-07
1.112384e-06
6.2166558e-07
5.8833184e-07
4.8808198e-07
5.479656e-07
3.7430512e-07
4.4290271e-07
7.0643811e-07
1.3257112e-06
7.3937975e-07
4.9492446e-07
3.9091444e-07
4.7817031e-07
5.1441746e-07
4.7318977e-07
1.0712944e-06
1.4321078e-06
1.3280665e-06
1.025402e-06
8.7299607e-07
1.0163501e-06
1.0044588e-06
8.0730668e-07
1.047852e-06
7.0089335e-07
9.4989365e-07
8.6401407e-07
9.2903949e-07
9.4522786e-07
9.7958969e-07
1.3263058e-06
1.304771e-06
1.1443492e-06
1.455722e-06
1.12766e-06
1.1118533e-06
1.1172746e-06
1.0062216e-06
1.0091708e-06
8.9038757e-07
9.2001184e-07
9.3497679e-07
8.9948427e-07
9.4117711e-07
9.2798598e-07
8.7702631e-07
9.4913909e-07
1.0275769e-06
9.9544047e-07
1.2111242e-07
5.4063937e-07
1.0992996e-06
1.8270119e-06
2.8707286e-06
4.4986188e-06
7.4811437e-06
1.026822e-05
1.229404e-05
1.0135861e-05
6.4768623e-06
4.6393705e-06
2.8223555e-06
2.2908412e-06
1.1178785e-06
5.3964305e-07
6.6192435e-07
8.311074e-07
4.2482862e-07
4.532978e-07
3.2792736e-07
3.0870671e-07
4.0396468e-07
4.5940395e-07
4.8403464e-07
6.4568278e-07
7.1864558e-07
5.0801671e-07
4.3784997e-07
4.1510988e-07
4.962088e-07
3.7491457e-07
4.1590937e-07
9.2106198e-07
1.1213622e-06
7.2770964e-07
4.5211599e-07
4.0921094e-07
4.4627089e-07
5.2712463e-07
4.8128474e-07
1.0502006e-06
1.8247988e-06
2.0806907e-06
1.0709446e-06
6.5518647e-07
1.0208896e-06
1.0981258e-06
9.4736602e-07
7.0280209e-07
6.723762e-07
8.9950724e-07
8.2375425e-07
1.0140394e-06
9.9410673e-07
1.1241656e-06
1.3856129e-06
1.4118451e-06
1.0853253e-06
1.9681444e-06
1.25618e-06
1.0433543e-06
1.322861e-06
1.114468e-06
9.6361172e-07
9.5443202e-07
9.1567282e-07
8.4992761e-07
9.8552302e-07
1.0221209e-06
9.4686762e-07
1.0022963e-06
1.0465356e-06
1.0525979e-06
9.9201022e-07
2.7283051e-07
9.7956568e-07
1.839606e-06
2.9685591e-06
4.8399475e-06
8.2342589e-06
1.0305184e-05
1.0419967e-05
7.9742264e-06
4.2588133e-06
2.5956649e-06
1.6903622e-06
9.6871233e-07
7.9680401e-07
2.99121e-07
1.8361992e-07
4.1729546e-07
5.43066e-07
3.8941219e-07
4.8900864e-07
2.6201778e-07
2.5325608e-07
4.2770823e-07
4.3111444e-07
5.6838285e-07
7.1325679e-07
7.2615072e-07
4.9900828e-07
4.2005521e-07
3.8930268e-07
4.6828587e-07
3.9774583e-07
3.8620461e-07
8.3713565e-07
6.5981059e-07
6.8936746e-07
4.3766366e-07
4.3306734e-07
4.2186178e-07
6.2244302e-07
6.5574223e-07
8.4350257e-07
1.5272823e-06
1.0069663e-06
7.697675e-07
6.5278835e-07
1.0111839e-06
9.4827853e-07
8.6703175e-07
6.6025238e-07
6.9685738e-07
7.7918587e-07
7.4047189e-07
9.7101469e-07
2.1354574e-06
1.8637772e-06
1.5850414e-06
1.6030812e-06
1.1351281e-06
1.661441e-06
1.2860751e-06
1.0758323e-06
1.2591899e-06
1.1934581e-06
8.5358549e-07
8.8589128e-07
8.0537828e-07
8.2599778e-07
1.0975428e-06
1.0901128e-06
9.7969964e-07
1.1143712e-06
1.131068e-06
1.0795909e-06
9.811371e-07
5.7610817e-07
1.6903825e-06
2.9731247e-06
4.8369561e-06
8.6182217e-06
1.038915e-05
8.7302014e-06
5.6110147e-06
3.3784942e-06
1.3290766e-06
9.2289342e-07
5.2827807e-07
3.869603e-07
3.6300764e-07
1.7616561e-07
1.5829038e-07
3.4506189e-07
4.2626616e-07
3.946926e-07
4.3717616e-07
2.6126629e-07
2.4617602e-07
3.2713709e-07
4.1970886e-07
6.4057117e-07
1.2078452e-06
8.1637714e-07
4.9757615e-07
4.4332477e-07
3.9279886e-07
4.5373879e-07
4.2843301e-07
3.9437058e-07
6.3531599e-07
5.8203097e-07
6.1776935e-07
4.4515706e-07
4.387607e-07
4.2644802e-07
4.656272e-07
5.4578651e-07
6.872228e-07
9.6328477e-07
1.1051806e-06
7.6176012e-07
7.8662814e-07
9.3301143e-07
1.0237462e-06
7.4660583e-07
6.4815398e-07
7.2595583e-07
8.7539085e-07
7.5523897e-07
9.2345622e-07
1.7901589e-06
1.6793172e-06
1.5693976e-06
1.6050896e-06
1.1845901e-06
1.0716566e-06
9.9019093e-07
1.2821774e-06
1.2162994e-06
1.2241571e-06
1.0133846e-06
8.6193179e-07
8.7037698e-07
8.5051419e-07
1.0447404e-06
1.1497213e-06
1.0257785e-06
1.1404635e-06
1.2734333e-06
1.2321889e-06
1.0238296e-06
1.153127e-06
2.7924571e-06
4.7456572e-06
8.2181061e-06
9.9361508e-06
7.7291281e-06
5.1512381e-06
2.8945148e-06
1.0247514e-06
3.7377879e-07
3.8151885e-07
2.2054728e-07
2.1709726e-07
2.5106716e-07
1.7534539e-07
1.8302834e-07
3.1334373e-07
3.7221286e-07
3.7109642e-07
3.5034342e-07
2.9222737e-07
2.1566534e-07
2.8080283e-07
3.8516465e-07
5.8704115e-07
1.2399371e-06
7.9707436e-07
4.8025447e-07
4.8885495e-07
4.4010456e-07
4.2750703e-07
5.023861e-07
3.9011908e-07
4.981942e-07
5.861173e-07
6.0143323e-07
4.9346914e-07
4.4455827e-07
4.4531406e-07
3.6668397e-07
5.721507e-07
6.5191119e-07
7.5665428e-07
6.7363702e-07
5.9224346e-07
9.4379519e-07
8.5957057e-07
8.4946352e-07
6.650844e-07
6.3438915e-07
6.6086892e-07
8.5071797e-07
7.4155888e-07
8.0696799e-07
1.7608892e-06
1.5421052e-06
1.4542641e-06
1.4409871e-06
1.1872158e-06
9.1175051e-07
9.1942683e-07
1.2442896e-06
1.1873089e-06
1.0989459e-06
1.0342147e-06
8.5572567e-07
1.0261191e-06
8.8741048e-07
1.0645742e-06
1.1965829e-06
1.0528698e-06
1.1880761e-06
1.3262677e-06
1.3011397e-06
1.1296972e-06
2.2133714e-06
4.4467998e-06
7.7613323e-06
9.267372e-06
6.8195932e-06
4.5185747e-06
2.5111001e-06
1.0718673e-06
3.0988649e-07
2.4514699e-07
2.4119726e-07
1.6661388e-07
1.7522917e-07
2.269641e-07
1.7751557e-07
2.0628631e-07
2.9611029e-07
3.4247495e-07
3.4412947e-07
3.3436444e-07
3.188508e-07
2.0959899e-07
2.6845089e-07
4.1655796e-07
7.3685903e-07
7.0291571e-07
5.4566076e-07
4.3274583e-07
5.7083587e-07
6.1757764e-07
4.1689778e-07
5.4642832e-07
4.2722908e-07
4.5389225e-07
6.2789407e-07
6.2960787e-07
5.3078801e-07
4.7983677e-07
5.2819339e-07
3.8777077e-07
4.3621653e-07
5.9364314e-07
8.0884436e-07
6.0369537e-07
5.8768424e-07
9.8369178e-07
8.6076125e-07
7.6678397e-07
6.5009486e-07
6.6684216e-07
6.5323851e-07
7.4591533e-07
7.2393169e-07
9.5668982e-07
1.9353924e-06
1.527377e-06
1.3202515e-06
1.5644582e-06
1.200572e-06
9.5160853e-07
1.0587409e-06
1.1495339e-06
1.1154536e-06
1.0677958e-06
9.0141953e-07
7.0025597e-07
8.7677231e-07
9.4443312e-07
1.0911644e-06
1.0481611e-06
1.1305589e-06
1.2640977e-06
1.3822722e-06
1.3259178e-06
1.2032327e-06
3.847754e-06
7.0906473e-06
9.5953374e-06
7.1535963e-06
4.1260608e-06
2.2750729e-06
9.1161171e-07
3.7227447e-07
1.965582e-07
2.5082248e-07
2.03701e-07
1.6147682e-07
1.6305226e-07
2.1757941e-07
1.7203586e-07
2.0935106e-07
2.8614718e-07
3.2627892e-07
3.1590448e-07
3.4078108e-07
3.2084718e-07
2.0897782e-07
2.5613615e-07
3.9143682e-07
5.0287238e-07
6.5274418e-07
5.0880577e-07
4.3338144e-07
6.8086549e-07
1.1983383e-06
4.6140145e-07
5.5857009e-07
4.4981749e-07
4.4432842e-07
6.4856387e-07
7.5487672e-07
6.0096712e-07
4.777489e-07
6.1682492e-07
4.9803878e-07
4.1452414e-07
5.0572593e-07
5.0641904e-07
6.4392951e-07
6.379432e-07
7.0918567e-07
8.2995227e-07
7.4698827e-07
6.5823217e-07
6.7269235e-07
6.5830178e-07
7.3784541e-07
7.1749928e-07
7.4612018e-07
1.7813248e-06
1.1958316e-06
1.2240033e-06
1.4082945e-06
1.1905601e-06
1.0097744e-06
1.0402961e-06
1.0852143e-06
1.0816981e-06
1.1816867e-06
1.0061153e-06
6.8497916e-07
7.7424449e-07
9.0481854e-07
9.0624292e-07
1.0226789e-06
1.1563893e-06
1.2321033e-06