/*--------------------------------*- C++ -*----------------------------------*\
| =========                 |                                                 |
| \\      /  F ield         | OpenFOAM: The Open Source CFD Toolbox           |
|  \\    /   O peration     | Version:  2.3.0                                 |
|   \\  /    A nd           | Web:      www.OpenFOAM.org                      |
|    \\/     M anipulation  |                                                 |
\*---------------------------------------------------------------------------*/
FoamFile
{
    version     2.0;
    format      ascii;
    class       volScalarField;
    location    "3.4e-05";
    object      p;
}
// * * * * * * * * * * * * * * * * * * * * * * * * * * * * * * * * * * * * * //

dimensions      [1 -1 -2 0 0 0 0];

internalField   nonuniform List<scalar> 
7500
(
-13275.902
-10961.636
-7178.5428
-1279.057
2493.7438
2213.9032
2321.2059
48.133051
2499.7253
1265.3526
4608.992
589.97184
2348.8074
-432.81338
1776.7331
903.53437
779.97609
2297.2872
730.47702
3065.9268
-525.05606
3028.2492
-1417.0142
3157.8741
-1543.0723
2107.383
765.93634
1292.5089
2577.9982
390.12319
2831.5655
-696.83655
3802.9309
849.83482
3686.5829
1262.0573
4249.7388
473.80249
767.81309
2216.6092
816.95137
4400.1987
738.66436
3059.3496
1583.0259
2948.7933
3167.322
2711.6712
2574.48
786.88313
16.862962
114.23962
1735.5803
57.252111
-3065.8479
-4614.2417
-4963.4211
-6554.4518
-3854.7547
1768.69
6243.5256
5924.0977
3984.3595
5896.2499
8139.0803
8096.2871
6900.8436
4539.9439
3553.6056
5446.6749
5726.0748
3770.217
4243.8566
6519.4806
2811.5037
-13497.982
-10942.597
-6853.965
-1243.3447
2574.8941
1906.4545
2293.9499
-7.181905
2634.6492
1159.1545
4693.33
652.97088
2224.3365
-265.13202
1517.0157
1144.9026
582.7045
2529.4823
505.55262
3162.5738
-462.77941
2891.8945
-1224.7221
2904.5511
-1299.3375
1892.8685
1013.666
1095.6534
2600.535
379.45094
2770.4819
-365.56492
3495.3606
1149.8995
3303.9267
1465.791
4072.3414
564.78141
913.53688
2033.3367
1102.5637
4010.0571
1069.295
2766.8819
1814.4405
2799.7809
3223.4287
2873.0974
2160.7088
1159.4221
-150.95222
292.9045
1771.7241
-262.8869
-3004.2313
-4651.9226
-5062.19
-6407.7307
-3475.9688
1845.3135
5550.6501
5751.7851
4734.262
5998.1567
7598.7218
8038.3105
7129.5316
4680.2224
3599.9331
5128.2798
5446.3104
4269.6438
4605.5642
6162.7985
2633.2679
-13590.693
-11211.769
-6415.8249
-1037.6402
2643.939
1568.627
2319.6048
-129.36016
2696.8316
1313.034
4463.983
960.02174
1911.9136
8.5498346
1244.9985
1344.7748
484.8351
2576.3619
519.4867
3021.2924
-218.52663
2572.589
-789.68587
2445.9462
-978.03851
1687.6932
1052.2421
1293.6762
2281.9082
693.39881
2272.1673
197.11668
3168.2751
1466.6082
3138.4996
1461.262
3922.7672
508.96095
1271.8353
1527.2111
1703.1595
3539.419
1452.0802
2551.4859
1787.8393
2851.5715
3082.1188
3145.7715
1916.1209
1421.0646
-266.49249
398.61597
1727.8685
-426.9633
-2986.8043
-4689.4346
-5329.4384
-6353.0592
-2943.0272
2029.7458
4852.3069
5384.3039
5487.2631
6290.4701
7228.2374
7817.4193
7097.7004
4915.1328
3877.8557
4774.5882
5058.9832
4633.2604
5042.0781
5936.0616
2430.9734
-13684.46
-11637.912
-5840.8024
-902.65258
2864.5
1209.7163
2218.0566
-61.353039
2573.1087
1657.4204
4138.4923
1313.3187
1499.263
405.8365
859.6046
1615.2434
432.523
2500.0194
717.29045
2641.0838
257.90142
2083.867
-238.45129
1907.6621
-606.10572
1455.7553
1031.2115
1606.3297
1796.8926
1259.339
1604.0488
784.49121
2764.2069
1918.9315
2963.8826
1523.8941
3668.9198
347.34741
1738.0146
923.42873
2434.3512
2981.3499
1935.7
2348.3323
1622.8617
2911.2715
3004.8545
3362.7782
1721.0608
1622.9899
-130.81516
527.19787
1400.3389
-507.65764
-3005.1059
-4736.6321
-5644.7979
-6269.716
-2402.797
2141.2077
4243.3595
5026.2547
6141.0351
6585.0042
7177.856
7709.2319
6774.7279
4974.8302
4152.9413
4502.8279
4872.775
4999.4929
5355.543
5655.1178
2197.254
-13890.069
-12034.449
-5244.4328
-770.19492
3099.3925
906.18887
2007.6213
117.60086
2430.2094
2008.6924
3826.6856
1673.5714
1043.7601
815.96412
514.77031
1770.3372
540.44159
2334.0578
969.98354
2186.2178
788.8939
1596.8411
323.25581
1327.5194
-226.53143
1227.4792
1043.6939
1859.3978
1338.4695
1775.7094
985.07441
1466.7279
2151.6293
2551.611
2689.4385
1759.6293
3254.2403
197.79821
2042.6814
576.5459
3119.2505
2322.63
2593.8874
2040.6852
1549.0529
2758.8185
3037.9925
3427.9748
1691.3915
1731.1878
170.97179
904.68632
821.14471
-649.4742
-3062.4179
-4805.9951
-5962.2177
-6112.5869
-1927.5268
2147.0252
3680.3115
4703.9649
6744.3929
6856.1765
7330.0089
7745.4881
6373.5749
4987.0962
4284.3148
4171.4835
4958.1101
5435.0957
5556.5117
5305.5138
1919.9384
-14218.894
-12294.738
-4737.1564
-498.82404
3139.8246
736.43558
1743.6712
296.53192
2363.6605
2289.0995
3565.5856
1924.2488
762.39489
977.7084
459.88995
1652.8171
799.91191
2128.941
1201.1571
1821.4193
1171.6108
1292.3585
740.42004
890.43977
8.8313538
1005.3092
1113.3193
2126.472
930.03117
2127.5277
412.79435
2138.5168
1640.5639
3128.3333
2481.2146
2062.193
2624.9691
260.32329
1972.7795
574.67897
3660.6254
1727.0368
3335.6128
1636.7032
1690.9095
2360.1051
3124
3182.8264
1960.3673
1812.1471
490.91942
1444.8133
168.60443
-771.92084
-3159.8309
-4957.567
-6256.859
-5813.5066
-1667.6147
1931.4308
3246.4781
4504.066
7205.6299
7157.3121
7573.8084
7650.5259
6165.1835
5212.379
4205.2438
3792.6508
5238.3633
5893.7184
5670.2086
4862.5846
1608.4064
-14631.092
-12385.349
-4306.0595
-117.5667
2985.3824
668.93718
1429.2428
512.36464
2302.5892
2546.0668
3375.6515
1958.2219
749.59863
892.35752
613.29861
1428.1656
1076.9252
1905.41
1396.2303
1574.944
1408.4761
1177.3725
953.81354
698.90813
36.778632
835.27247
1119.6887
2463.4701
694.25349
2186.3645
73.4155
2403.3504
1507.0811
3563.6944
2461.6701
2336.65
1840.8982
506.79822
1562.2345
922.04122
3808.9468
1502.3438
3888.0501
1356.9142
1995.2011
1869.3128
3160.1672
2510.7456
2489.7082
1888.3641
1000.396
1834.1435
-501.79347
-744.9448
-3265.5676
-5226.0192
-6395.882
-5162.7607
-1800.4594
1245.5826
3003.2321
4527.3249
7415.2832
7539.1562
7948.6031
7229.3695
6314.9227
5572.8167
3769.8861
3725.2628
5822.0711
6249.5233
5701.0166
4296.9576
1215.4862
-15117.151
-12305.71
-3881.8131
272.30998
2696.4087
669.05172
1071.2982
796.17353
2234.8974
2793.8395
3248.7452
1876.2168
799.62095
795.74462
795.40991
1194.8135
1398.4029
1573.9885
1638.439
1323.8531
1619.5144
1151.3565
1065.8069
676.71307
-134.27519
761.98808
1107.5666
2648.8421
848.80164
1886.7435
-10.279237
2316.8366
1570.4419
3906.5448
2670.7538
2512.5985
1049.7998
748.0621
1012.7702
1676.2101
3329.9447
1837.7324
3911.3206
1477.2148
2409.54
1525.5836
3010.5915
1519.6109
3053.3583
1837.443
1978.359
1805.1575
-1053.6627
-657.13296
-3465.565
-5592.4777
-6106.5952
-4047.3584
-2390.7881
188.79839
2968.198
4581.1312
7276.2552
8106.2908
8317.7012
6643.8914
7037.9506
5559.978
2953.8969
4302.2287
6737.9057
6424.2496
5686.6655
3707.6822
744.81982
-15695.677
-12057.52
-3421.493
599.10071
2335.8036
698.94115
743.26698
1095.7928
2219.8044
3009.7291
3125.1078
1827.993
768.93335
747.439
990.22839
959.0729
1746.3424
1168.7469
1929.49
1054.6236
1796.3929
1160.9812
1158.1528
751.33703
-388.47964
588.23682
1263.8169
2678.5423
1227.9799
1522.5232
-126.14833
2107.9826
1780.0448
4096.2684
3036.1479
2665.9995
315.00302
781.69464
572.4447
2672.3043
2424.5764
2695.8832
3287.8595
1946.0497
2983.5654
1566.1087
2526.3574
664.62555
3222.6529
1569.7007
3534.4709
1024.7011
-1137.8398
-571.44194
-3938.3051
-6134.4072
-5194.9443
-2579.1722
-3557.4667
-817.33052
3284.622
4344.0611
6731.1537
8913.2418
7986.7324
6237.7804
8821.0699
4676.0836
2078.9812
5697.3305
7648.4339
6400.204
5746.0978
3163.3752
452.6828
-16379.037
-11665.175
-2935.3578
842.90678
1951.5666
717.91717
499.76729
1367.8672
2249.7599
3213.7287
2949.2049
1814.1075
738.4854
683.1575
1165.7929
830.32772
1973.5547
816.52605
2166.1303
925.68573
1833.6916
1161.9222
1309.2892
822.81302
-563.39164
243.98572
1430.1699
2837.3718
1644.1184
1157.8049
-247.17011
1732.4574
2106.8
4270.0846
3362.6822
2899.92
-233.32143
371.15748
613.5974
3271.0748
1697.5527
3767.1827
2174.86
2583.6687
3625.6781
2311.5845
1483.7085
444.66215
2777.0028
1220.4657
5398.9778
-679.44443
-656.6816
-474.81957
-4700.2405
-6859.0786
-3595.1582
-1011.2138
-5057.6743
-1440.2625
3908.3812
3530.4485
6001.1304
9941.7725
6012.1996
6180.041
11273.453
2746.1226
1662.3118
7498.0305
8209.1734
6244.2216
5939.1547
2740.4472
365.9954
-17164.985
-11173.17
-2430.725
980.1138
1572.9542
706.88694
325.82771
1627.0397
2288.7808
3397.6518
2777.5195
1731.5937
786.29907
626.30479
1250.4513
881.16982
2033.3357
524.62978
2306.7603
1052.9388
1725.4345
1058.1532
1585.456
890.75877
-741.59456
-70.457684
1401.6417
3085.0668
2252.4691
678.01498
-343.96847
1367.2849
2268.8924
4505.9978
3661.7201
3128.0215
-453.37189
-585.15021
1471.4754
2864.1365
1477.0164
4644.8507
673.85517
3359.3991
4080.1304
3993.4952
-9.8076722
907.98658
1603.432
1290.8349
6797.7407
-2946.3827
180.90938
-644.8656
-5709.0548
-7462.4947
-2037.0207
210.58705
-5731.6753
-1439.744
4366.3555
1859.3077
5405.8771
10508.725
2346.3061
6716.8112
11443.888
32.559839
2015.2563
7654.5004
7806.4214
6017.7357
5795.282
2383.6385
936.35432
-18036.181
-10605.171
-1910.1044
978.32191
1236.1838
661.03571
203.64868
1894.9464
2350.7535
3509.697
2680.2501
1550.848
880.86848
604.81156
1267.7259
1076.3167
1978.3921
220.89268
2353.0952
1450.6625
1538.4207
830.14322
1889.0917
1061.498
-968.45872
-345.92981
1245.2325
3306.9562
2903.5432
342.81979
-585.59426
1127.2158
2302.0254
4470.2807
3885.9906
3341.0285
-336.19218
-1891.879
2942.2573
1466.0088
1691.7897
4860.1632
-1030.0719
3720.7694
4040.0055
6426.5548
-1324.9978
1635.9611
-486.23364
1943.5069
6620.1454
-4652.6867
302.605
-1734.8526
-6830.4685
-7589.291
-2395.3819
383.56819
-3470.2477
-491.03758
4115.8565
1212.5567
5205.17
9663.5875
1975.2958
7630.7798
9814.9479
-525.18006
2484.3577
7070.819
7282.9572
5906.8163
5589.5269
1799.3538
913.89024
-18976.211
-9963.7598
-1401.171
862.6793
950.16371
590.0378
131.45426
2163.4966
2458.2697
3548.3288
2625.3955
1323.1327
1006.974
570.30492
1260.8854
1406.4878
1846.8627
-140.72482
2297.9218
2083.5141
1308.512
531.90839
2154.9808
1174.7112
-1018.8104
-650.88907
859.46691
3645.1448
3159.1788
252.43771
-754.60887
730.22634
2365.5727
3966.4284
3642.5233
3127.1907
132.64751
-2777.7666
3854.4962
-583.82137
2028.5071
3687.2624
-2047.3624
2561.9018
3025.5867
8823.1841
-525.92322
1812.3275
-1064.9092
2593.4946
5647.8619
-4764.324
199.1518
-2746.5891
-7380.1379
-7816.0839
-3229.8176
-1646.7092
-2367.5001
1503.301
4604.682
2408.704
6008.777
9087.3771
2371.1362
8939.7213
9919.9237
-328.32389
3137.8546
7251.4073
7208.0504
5925.8077
5838.2447
1460.417
994.90058
-19931.86
-9256.0878
-936.20143
687.52196
713.98933
480.15881
112.8561
2433.4488
2577.5995
3563.1858
2570.4081
1060.913
1196.208
506.11051
1183.5758
1909.9918
1665.5649
-570.99485
2080.6238
2922.419
1067.253
106.65277
2401.8677
969.87948
-880.20101
-834.18066
61.017518
3910.6746
2816.591
107.86524
-509.52037
156.0112
2169.2245
2982.7202
2745.5843
1604.3867
1509.8023
-1794.8019
3822.3934
-749.61042
2393.625
3001.9305
-2194.1319
1368.1858
983.10189
9894.6746
574.94779
2568.0324
-780.35497
3373.1366
6924.5423
-4399.7358
965.22692
-2591.2655
-7187.5102
-7647.7201
-3317.5667
-2568.765
-2506.8077
2247.859
2787.4428
901.76444
8730.7887
7858.3753
1253.8201
9387.7939
8560.1435
-605.94069
3483.483
6957.3575
7158.0606
5849.2275
5694.8393
1402.4802
1109.0028
-20847.27
-8485.5464
-546.36523
495.39428
550.14274
300.19318
136.07379
2751.454
2659.0973
3548.4292
2551.6305
739.12688
1425.198
492.97595
946.94078
2563.1082
1466.9934
-1003.0226
1477.5411
3841.4544
904.6068
-459.7837
2254.8987
376.50755
-642.4927
-911.41904
-914.0642
3536.9369
1701.939
363.359
416.56112
468.5486
2305.5037
2826.8521
2270.6649
-331.4696
1812.1141
-222.21492
4172.8251
-116.01457
3160.2434
3481.6648
-1180.169
1358.7686
595.15815
10165.707
483.25554
1726.2625
-1825.1229
2868.433
5248.8471
-4482.8823
753.14452
-2972.7788
-7202.6131
-7834.2353
-3174.5401
-2319.8018
-2543.9934
1275.1201
3662.6458
1801.8734
6383.1918
8167.1176
1963.529
8526.3411
8364.4982
-759.31771
3038.9225
7408.7397
7270.3879
5822.1372
5397.4192
1204.972
1087.8508
-21684.139
-7659.2614
-257.80066
317.48344
474.94757
61.001274
139.64175
3174.9366
2723.2065
3426.0038
2605.7253
367.2492
1587.4666
572.75645
569.67551
3092.3655
1282.7789
-1342.1526
283.64139
4369.3618
906.70874
-882.93129
1238.0324
-754.17448
318.36226
-474.14429
-729.98854
3525.2478
687.16566
176.04558
1198.0029
1292.813
2776.9933
3578.5238
2575.994
-541.00497
1792.5621
86.901499
3615.7202
-1339.6206
2852.949
2331.679
-2059.8552
1370.9641
893.48798
10182.108
208.72459
2730.315
-899.7803
2687.6792
4227.2745
-4524.4342
448.97071
-3863.9458
-7596.985
-7602.2572
-3092.2366
-2872.094
-2820.4643
1334.5598
2597.0904
1908.1741
6703.4203
8330.5147
1841.2805
8230.3178
7002.8333
-1135.8464
2772.6797
7077.8409
6802.3199
5787.1069
5082.727
884.75718
1117.0053
-22393.558
-6826.681
-54.612778
129.4005
515.27079
-221.62852
77.068792
3688.0111
2854.8356
3175.4786
2631.5575
53.893051
1429.3602
662.21035
197.10135
2897.5571
1185.3761
-1578.7864
-1342.415
4051.0676
1780.9857
-360.67248
1123.8943
-1831.0487
940.58036
305.83993
-78.522013
4314.8077
680.63929
104.70747
1275.8052
838.02467
1898.2467
2777.9155
2242.1097
-662.00115
1922.32
-19.171201
3947.1489
-552.89301
2943.8016
2138.1118
-1523.1321
1325.8164
337.56161
10408.78
372.55033
1577.8411
-1869.312
1882.7625
2924.1763
-4987.6299
294.37795
-4928.0271
-8785.0116
-8339.2756
-2773.1643
-3014.2305
-2883.2539
1835.6648
4065.5875
2771.8133
5164.3086
6410.7335
2278.1472
7617.9433
6158.2712
-748.32488
2740.2564
7746.5795
6513.3417
5549.1262
4687.0974
780.42459
1159.8582
-23009.648
-6043.4368
93.351762
-131.5242
720.91877
-598.56431
28.517982
4096.4933
3211.1919
2789.0381
2425.4455
-36.156797
494.1153
693.31397
-95.601121
1808.9308
1393.8894
-880.15749
-1360.1961
3602.2116
2479.3547
499.80191
1721.8926
-1789.389
955.72314
-90.24734
-1133.3681
3551.5433
388.19328
147.75025
1344.7587
1254.972
2442.0931
2798.3094
2144.5392
-912.47832
2040.8475
-160.05577
3613.635
-691.8428
2940.2974
1548.0433
-1590.1074
1400.8697
487.85064
9211.9503
-912.70039
2184.6745
-2669.1906
960.05702
2038.1237
-4424.8227
393.98974
-5920.5428
-10092.987
-8300.4169
-2325.9593
-3207.6414
-3398.3434
1833.5851
2428.5962
2017.8019
4219.9651
6461.3673
2600.6016
7315.5163
6034.6556
181.57494
3100.5524
6911.1175
6392.0812
5294.7022
4216.3622
743.79993
1171.0832
-23607.495
-5312.9653
164.01837
-455.87466
1053.3699
-1082.7858
100.10177
4070.7504
3971.9837
2080.6327
1929.682
56.359984
-1113.0067
658.51791
714.36557
1585.422
1477.8494
-213.56932
-576.31201
3616.5703
2235.6182
-145.68692
961.50592
-2096.965
1071.5262
400.72458
-727.53082
3664.4974
461.09208
45.367355
1316.4872
1080.6286
1944.6936
2840.1254
1845.2097
-1563.1555
2318.9644
35.209816
3409.8441
-425.15924
2931.5974
1248.6182
-1302.1884
730.52138
378.88078
7796.5613
-3298.4085
1195.1563
-3633.3602
659.89634
1167.0986
-4754.7161
72.88042
-6339.3789
-10501.933
-8401.647
-2889.2583
-3521.8979
-3294.0343
1868.2401
3081.3885
1866.4116
4082.8792
6513.2986
2511.7425
6937.9827
6274.4593
1354.1713
3975.1964
6394.2446
6168.2938
5127.4416
3881.8915
723.12795
1166.5391
-24198.236
-4584.8755
95.172645
-733.44793
1306.34
-1458.4001
142.15394
3486.5845
4911.1289
1154.0364
1144.9552
835.94916
-1106.6781
547.78482
1669.4525
1942.36
1351.3472
-695.61008
-1333.4849
3385.507
2421.7359
100.42067
1067.9672
-1986.2951
1005.9753
-16.87171
-1142.9831
2862.1215
311.5427
-3.6372251
1080.2772
1145.3951
2162.1639
2893.9707
1435.1524
-2137.6567
2396.7631
105.33933
3171.4495
-537.82901
2856.4786
1092.9963
-1294.5927
391.88274
511.275
6700.3051
-4797.8558
1455.2016
-2913.9808
1159.0371
-1040.8524
-4726.3673
953.98535
-5950.0188
-9775.6116
-8114.4506
-2817.6748
-4227.8284
-4134.9683
1602.2515
2154.2253
1592.1469
4149.8221
6084.8286
2442.0595
6487.8952
6177.0702
1965.0935
4064.8132
5922.8088
5902.7128
4965.6668
3575.3275
460.30377
1125.3859
-24721.999
-3794.4609
-141.08517
-852.89296
1210.0412
-1363.2957
-245.52401
2610.2618
5143.4369
1935.6404
727.07015
1753.5647
-461.96839
429.34103
1106.0253
1470.7706
1256.1242
-440.5869
-923.76863
3327.9779
2258.2664
5.0200186
953.97201
-2013.8513
1103.7163
55.513478
-1369.9138
2288.033
185.13451
-186.29001
672.45017
1094.4214
1783.2837
2868.1845
654.19084
-3329.9796
2355.6003
129.27083
2929.5034
-468.86877
2748.4793
1040.2631
-1038.0511
1073.3001
995.92413
5948.7254
-5639.0566
1001.755
-2600.0398
1443.9646
-3430.1456
-4949.8319
788.22328
-5868.5709
-9163.0923
-7813.0083
-3623.7308
-4839.1852
-5011.0293
1971.6216
3319.0445
2056.7722
4170.6491
5261.7121
2649.0407
6003.3663
6293.9005
2661.1135
4055.7757
5574.9058
5660.4571
4663.1973
3170.8108
306.36336
1102.4097
-25110.173
-2914.6018
-441.77248
-803.79255
665.11309
-759.20225
-1033.1308
2216.9977
5174.802
3113.3577
757.46776
1336.1097
-910.17082
349.15656
1361.8134
1599.7183
1271.1533
-679.72863
-1290.6875
3036.0107
2146.437
31.360597
1000.8815
-1909.7371
1107.5671
45.620877
-1653.6218
2169.7454
159.55167
-269.41357
452.4954
1080.639
1708.8554
2796.2195
-318.85779
-4357.621
2285.4359
87.146093
2687.2961
-393.27393
2492.0011
876.0319
-919.69791
1828.648
1466.7061
5674.3725
-6413.5553
103.84372
-3096.223
1434.9213
-3754.7092
-5060.8853
292.41932
-5460.5822
-8264.5767
-7402.0344
-4002.5668
-4005.3276
-2011.437
1534.6393
3049.679
2324.2673
3193.4864
3305.1803
2634.1155
5609.6081
5879.4623
3053.5474
3810.1119
5158.0481
5302.5751
4211.0334
2835.7288
235.10416
1061.9688
-25422.081
-1969.4679
-519.50015
-668.43588
-80.018398
-329.26139
-446.09937
2319.0017
5263.7921
2840.6329
572.68553
1334.7857
-743.81585
332.86239
1221.3999
1509.3593
1319.095
-678.13837
-1264.6724
2725.1274
2013.2598
25.271095
982.70232
-1965.2609
1198.5269
328.00297
-1447.0031
2273.4213
-87.156209
-277.63405
163.53296
982.75069
1079.9849
2404.0987
-948.6801
-4606.7971
2242.9903
7.5846989
2504.514
-312.19309
2321.3214
702.53371
-680.08742
2273.969
1427.9615
5674.5556
-5930.0522
-173.22716
-3243.3498
1615.7151
-3375.9191
-4611.3818
182.28956
-5549.4801
-6665.168
-6824.6278
-4689.3056
-3611.7699
-979.61008
1210.7978
2484.9712
2193.95
2883.6968
2624.0211
2978.0156
5430.6394
5585.4462
3251.087
3387.4005
4821.6172
4858.516
3737.5114
2725.8664
273.85728
1000.9454
-26044.71
-1032.4519
3.0515151
-565.26152
-428.37181
-232.53225
583.14551
2124.6302
4823.8008
2854.4637
626.22566
1281.8583
-792.82388
303.49409
1155.5885
1480.0705
1308.8732
-908.40455
-1415.4711
2433.4345
1872.6799
48.711499
1019.4195
-2014.0387
1179.6784
415.40359
-1592.2154
2372.202
-144.84269
-319.56869
-173.01398
853.83618
1266.3591
1971.0851
-951.86487
-3991.1546
2126.4736
-49.555066
2421.1009
-235.91651
2184.181
566.80146
-583.90075
2039.983
1221.0807
5293.3727
-5125.913
101.6075
-2671.9567
1787.1744
-2836.656
-4701.5023
-412.57236
-6272.6056
-6652.6772
-6170.375
-4624.3839
-3665.3072
-965.43645
1084.6264
2692.9826
2320.1668
2680.0998
2805.5985
3501.7266
5526.3193
5194.918
3606.7305
3505.9839
4524.9066
4585.6602
3395.1681
2632.8707
350.74026
926.56649
-27675.297
-197.43361
1141.0848
-530.35091
-213.6828
-242.76547
418.92546
2195.3348
4853.5808
2748.292
628.34195
1274.3678
-745.68374
277.64008
1024.0599
1419.2774
1256.7578
-1051.1602
-1477.577
2178.4459
1691.3298
22.234752
1038.7997
-2010.6679
1198.3028
538.25997
-1642.7983
2469.2621
-198.72853
-388.42294
-535.23008
707.94732
1288.0566
1532.9156
-602.47495
-3066.3473
1997.249
-83.704334
2390.0456
-58.838607
2057.6787
373.64612
-632.46191
2188.1159
1120.0953
4619.7
-4327.1254
851.26562
-2344.0798
1793.4903
-2337.1429
-4919.3572
-196.95184
-5220.2397
-7308.5635
-6576.3113
-4607.8722
-3409.1166
-1094.3569
980.00698
2879.8573
2491.3599
2765.5047
3168.9217
3780.9357
5511.2677
5036.0337
3381.3096
3150.5125
4182.2909
4399.827
3088.1169
2522.9589
373.62393
838.76361
-30121.824
280.05707
1811.2606
-313.58138
-152.07153
-418.86802
407.93408
2169.8507
4787.3914
2576.1234
637.59104
1258.2859
-750.52115
196.96637
900.85221
1360.858
1142.8115
-1232.1165
-1541.3455
1981.269
1508.5956
35.397244
1124.0378
-1958.7177
1223.5459
655.03136
-1624.3853
2521.4649
-309.01698
-430.81604
-919.69083
534.55174
1311.614
1171.7206
-90.265558
-2085.4007
1815.1632
-70.531461
2324.4706
55.078643
1986.0749
147.8744
-569.5765
1800.4314
1012.6734
3924.6605
-3467.4475
1023.9371
-2350.9836
1517.6512
-1900.3197
-4000.0788
-750.92035
-4625.4027
-7293.4619
-7035.2857
-5056.2618
-4031.3764
-1436.8118
824.57474
2780.8395
2512.5039
3321.1321
3394.4661
3871.2177
5318.9418
4832.8167
2843.0035
2638.2608
3849.6724
4190.7627
2782.1625
2168.0998
210.70147
765.18624
-29963.176
-561.75694
1236.7816
35.915823
-166.46264
-487.47129
385.9766
2154.6258
4690.2396
2402.3989
621.75873
1232.6599
-738.81221
114.79068
778.44058
1292.5155
1003.4179
-1404.7608
-1618.287
1786.4231
1312.5763
32.031262
1167.3086
-1976.0064
1259.8028
706.5136
-1616.3841
2540.7827
-388.38761
-456.03837
-1235.9143
350.11695
1286.4416
862.22674
411.90343
-1277.3469
1628.2236
60.672519
2254.7654
156.31273
1985.1869
47.658233
-542.43638
1609.6859
1020.1493
3011.7864
-3324.6437
1281.4809
-2289.9063
1089.9886
-1615.6585
-3152.1994
-951.25213
-4123.9914
-8097.029
-7862.8727
-5545.0172
-3943.1246
-1510.7473
621.48064
2504.7743
2423.0057
3775.1841
3532.592
3992.2722
5393.2181
4591.3713
2576.1992
2096.4938
3435.6555
4020.7011
2457.5982
1707.3599
-8.9314577
696.16668
-20901.003
-3010.9828
707.09006
196.47708
-140.98844
-514.18466
385.40953
2148.5682
4561.492
2223.7661
609.81761
1200.4685
-757.03845
15.729133
678.74586
1228.1574
868.68717
-1553.9619
-1700.2119
1613.4041
1112.3135
34.017342
1232.9699
-2191.3619
1093.0214
519.18247
-1771.8542
2493.7135
-462.2344
-505.25332
-1392.6418
224.42338
1192.4091
628.24307
784.73222
-820.79057
1516.9986
199.57926
2141.0695
248.26917
1950.5711
-73.917205
-498.23712
1531.5225
1169.978
2094.0314
-3757.1181
1602.5216
-2425.1462
772.12971
-1342.8805
-2480.5984
-953.54821
-4003.76
-7757.9604
-8116.3719
-5459.655
-4182.8748
-1492.2261
-268.19069
1957.8553
2350.555
4235.8396
3432.9062
3985.5945
5443.3262
4337.4771
2244.6189
1669.5683
2876.0919
3864.0802
2127.9378
1289.5125
-22.609713
632.33941
-3128.5155
-3997.334
611.97306
94.344998
-127.9249
-516.57864
380.90588
2135.7966
4428.3629
2055.5445
576.28139
1161.7817
-774.13613
-78.61276
599.63846
1158.8783
756.09744
-1682.1062
-1811.4565
1467.0197
941.36028
27.703711
1294.7619
-2462.961
817.6628
273.75904
-1920.3942
2403.6788
-511.43491
-429.40245
-1240.4644
83.74239
1101.4545
369.22872
1011.7263
-654.83649
1392.9236
294.2979
2074.0791
312.42031
1855.0825
-202.27535
-457.2885
1328.0336
1380.7537
1277.2944
-4306.1971
1900.0326
-2610.2863
549.24525
-976.72244
-1957.6716
-896.17522
-4490.9094
-7744.5257
-7425.6942
-4840.4851
-3958.3133
-1486.7904
-1096.9476
1135.936
2171.6453
4742.8084
3418.7243
3962.1945
5697.082
3953.7785
1976.0122
2129.4421
2323.3629
3566.9743
1770.7649
923.17753
-45.089381
519.38775
1257.8802
-2457.0154
547.30076
66.406534
-99.231213
-506.13195
372.03478
2122.751
4293.389
1899.5516
587.71049
1120.7431
-800.66548
-189.32133
540.85352
1088.2939
658.79199
-1770.8652
-1904.6437
1332.4963
784.40388
7.7836446
1353.3743
-2611.1644
493.23097
49.0734
-1993.6936
2281.5897
-523.89706
-227.23351
-748.02719
13.375054
958.0908
363.02897
975.57413
-724.82212
1246.6116
423.50677
2025.4638
304.4755
1810.0339
-266.53593
-349.04562
1371.1021
1525.8335
418.44672
-4768.6906
2175.6088
-2579.741
320.49825
-627.17737
-1611.4009
-1027.2449
-4955.4466
-7082.2232
-6987.3507
-5818.7244
-3576.5288
-1453.344
-1329.7001
-38.282928
1932.7196
5492.3969
3173.4579
3844.6701
5570.4046
3436.4638
1653.0785
2401.1949
1698.4171
3119.2716
1459.4363
630.66382
-194.00445
375.34865
-7866.8267
-1520.5052
593.34054
67.056985
-70.167569
-497.11765
360.01746
2107.9211
4159.484
1747.5047
601.66979
1078.9988
-829.50133
-285.52875
488.66554
1009.3948
574.45799
-1835.7836
-1982.75
1155.0976
667.07666
-2.222289
1410.2274
-2657.3239
204.14081
-132.24076
-1995.1589
2106.9817
-594.08602
-24.046951
8.7612316
15.654443
849.2683
425.83219
797.42811
-990.93584
1101.4046
625.93511
1986.5882
290.8617
1779.6066
-277.79458
-234.33026
1229.9745
1646.5171
-263.72512
-5077.0048
2494.9308
-2413.0341
56.404462
-314.27045
-1420.4912
-1197.1281
-5180.9684
-7090.5345
-6909.8357
-5509.2706
-3554.2994
-1670.9269
-519.70965
-434.82684
2084.9522
6317.4062
2480.936
3551.2995
5704.7227
3115.4294
1260.4946
2683.0131
1373.4096
2800.0515
1489.5911
347.29005
-420.33677
334.26931
-7907.656
-1742.6109
609.91236
77.481948
-40.91451
-492.83887
344.11955
2091.2023
4019.6649
1601.1757
635.20077
1045.0481
-852.63758
-365.60592
445.09439
928.47365
498.14372
-1878.9809
-2052.8028
993.36325
578.65531
-17.041194
1438.5175
-2576.047
-27.942494
-234.51522
-1927.227
1914.342
-736.19763
74.284531
635.29192
76.658192
743.20212
488.79437
460.53822
-1409.008
934.57978
874.07079
1932.2999
260.08105
1848.1734
-230.14412
38.645081
1131.5196
1749.2351
-582.25659
-5004.5452
2739.9308
-2304.052
-238.49656
71.515064
-1310.3187
-1345.8504
-5183.2071
-7163.3245
-7097.7348
-5535.0845
-3543.7739
-1698.5263
-1261.7539
-695.69664
2016.9481
6742.1468
2108.0536
3106.8231
5775.8128
2525.9483
1144.3784
3038.8108
1456.8343
2603.5421
1548.4548
-91.893921
-837.94381
298.11628
-7677.7425
-1608.2705
625.17446
89.493012
-14.770493
-493.82263
324.60068
2075.583
3874.4934
1462.1021
694.37748
1023.6572
-876.10135
-416.41537
403.63411
833.05792
419.68708
-1901.1263
-2093.4151
829.64609
492.90387
-31.82234
1438.633
-2383.5197
-202.08798
-280.64627
-1768.9448
1772.5907
-829.31139
33.400282
898.93748
251.13043
645.05733
553.29877
-9.399602
-1876.9652
686.34189
1091.1253
1864.6238
248.35203
1770.7437
-201.69624
171.23489
1193.841
1820.8715
-951.08943
-4739.0088
2828.749
-2279.4533
-374.66582
-3.7116204
-1152.4065
-1357.4613
-5168.4469
-7059.2603
-7338.384
-5653.2918
-3601.8573
-1807.5952
-1207.6547
-902.48063
1883.2686
7174.0124
1193.3228
2415.4744
5820.9479
2432.7721
1300.7732
3102.2489
1662.1329
2406.5086
1228.2184
-607.77311
-1380.392
258.47789
-7275.8037
-1545.4634
638.91572
102.22923
7.9169579
-500.75667
300.92569
2061.5283
3723.1678
1332.064
777.3213
1013.6787
-873.11043
-432.29717
364.6579
727.14514
356.3715
-1905.2844
-2090.885
683.25945
441.13949
-44.525255
1458.6884
-2210.6077
-446.32762
-292.14602
-1602.6926
1675.8929
-801.5353
-48.818055
973.89181
502.22752
542.9976
607.05377
-479.71224
-2388.776
400.63831
1287.7879
1781.7091
241.41812
1829.5528
-99.528177
384.78022
1216.0485
1788.0928
-1237.3142
-4461.1583
2799.7321
-2097.5213
-417.55189
-99.562048
-943.13222
-1327.8274
-5143.3346
-7316.9192
-7517.605
-5502.3965
-3494.855
-1968.1386
-1783.6824
-1242.6918
998.3301
7563.1017
355.59735
642.9055
5633.5967
2494.981
1572.0418
2677.0419
1634.739
2177.3806
902.92348
-1065.413
-1818.2387
264.38001
-6864.7661
-1420.1744
653.14033
114.90055
26.660036
-514.42309
272.54272
2049.5036
3566.8305
1211.9918
876.35423
1009.2767
-859.87031
-403.11703
329.77244
613.90533
301.22157
-1853.7206
-2040.4991
554.88979
375.36528
-60.095906
1490.1354
-2046.0418
-617.36251
-225.5372
-1455.7371
1602.34
-757.95136
-56.703113
948.28593
586.07538
463.79339
595.2324
-905.77246
-2732.7105
100.85723
1384.4827
1675.3668
221.47609
1894.4195
40.298615
661.32863
1246.7529
1611.9966
-1236.7206
-3926.1144
2783.0326
-1877.907
-41.303534
43.790315
-828.8373
-1218.6105
-5065.3085
-7480.5963
-7821.481
-5260.6477
-3008.5502
-2364.6169
-2085.1129
-1288.969
-838.47762
6756.0148
-1098.9008
-1640.6573
5378.5831
2547.3883
1565.4799
2145.2756
1541.2615
1914.2579
819.98895
-1387.5709
-2272.0716
290.12074
-6403.157
-1365.1487
664.76647
128.79378
43.192966
-535.60449
238.85473
2039.892
3409.1947
1100.0488
981.34215
1002.7213
-837.03543
-357.22084
296.21973
494.07087
254.96439
-1844.889
-2023.3766
419.10309
339.12626
-61.600128
1488.3036
-1866.4315
-629.15033
-105.87974
-1379.6886
1533.664
-626.04923
48.382653
852.28599
597.33953
366.95639
500.75526
-1154.4062
-2937.1416
-224.1231
1433.1459
1552.9793
170.99621
1921.0683
137.31649
802.0438
1197.2756
1259.8871
-1098.808
-3434.9759
2799.4729
-1597.3231
162.22567
51.034211
-725.74165
-1193.0026
-5131.9059
-7892.7894
-8372.6282
-4811.9941
-2256.0989
-2916.5391
-2316.9079
-894.22164
-3491.0624
4759.0712
-1747.0417
-3129.5283
5032.7391
2569.6792
1433.7889
1754.6849
1477.4464
1668.5446
711.94506
-1584.247
-2640.1817
255.23724
-5965.9568
-1227.9618
680.54127
140.26342
50.872393
-565.36676
199.08323
2033.3834
3256.54
998.559
1073.8745
981.71756
-822.03688
-306.27493
262.53868
375.19629
225.41523
-1844.3054
-1973.2719
299.52592
326.49455
-77.41174
1401.5146
-1610.1477
-431.40814
50.396777
-1275.895
1499.0977
-488.05993
226.73038
784.91684
570.90176
287.25401
450.23984
-1275.8822
-3021.2761
-484.0857
1491.3021
1494.1905
128.87537
1929.7781
187.4954
952.86571
1094.9502
1187.9914
-879.26573
-3250.2393
2744.044
-1263.2277
301.36291
-43.675591
-655.36613
-1233.4489
-5108.8519
-8182.7773
-9072.2318
-4558.3054
-1935.6272
-3483.9157
-2507.0607
-471.49882
-5019.6819
3323.1357
-680.12751
-2129.458
4272.5422
2632.5014
1495.4191
1551.3965
1628.3324
1497.4
528.47574
-1739.415
-2681.9865
290.23883
-5492.7411
-1196.0305
695.44313
151.44972
57.185905
-604.85971
152.36526
2030.4264
3114.143
909.00053
1146.497
955.30326
-815.62438
-252.5951
234.93049
255.90953
203.07777
-1834.2341
-1904.7748
178.62172
312.10818
-100.1328
1262.4744
-1327.5739
-193.42591
183.96503
-1140.437
1443.4168
-371.8208
341.77511
736.16437
540.73571
168.69075
314.35665
-1282.0384
-2885.3733
-574.15051
1488.1521
1480.2808
118.18866
1922.4543
179.27139
919.05254
1097.5997
1132.946
-515.24728
-2879.8831
2696.4915
-1054.8562
296.72675
30.070729
-572.68937
-1247.788
-4816.6631
-8163.686
-9392.9363
-4586.6086
-1775.5828
-4090.5739
-2746.9271
-143.70836
-3674.8221
3159.2445
-134.86607
-329.73918
3861.5987
2717.9543
1736.862
1452.6601
1850.4064
1411.1269
412.78261
-1683.9705
-2601.097
249.5968
-5064.872
-1028.8123
712.40376
161.7358
59.655885
-655.73063
97.27141
2029.1137
2986.3458
837.05411
1179.7157
917.69262