/*--------------------------------*- C++ -*----------------------------------*\
| =========                 |                                                 |
| \\      /  F ield         | OpenFOAM: The Open Source CFD Toolbox           |
|  \\    /   O peration     | Version:  2.3.0                                 |
|   \\  /    A nd           | Web:      www.OpenFOAM.org                      |
|    \\/     M anipulation  |                                                 |
\*---------------------------------------------------------------------------*/
FoamFile
{
    version     2.0;
    format      ascii;
    class       surfaceScalarField;
    location    "3.4e-05";
    object      phi;
}
// * * * * * * * * * * * * * * * * * * * * * * * * * * * * * * * * * * * * * //

dimensions      [0 3 -1 0 0 0 0];

internalField   nonuniform List<scalar> 
14825
(
1.034299e-09
-2.0537654e-11
1.0547993e-09
-2.0500312e-11
1.0750451e-09
-2.0245765e-11
1.0955653e-09
-2.05202e-11
1.1157633e-09
-2.0198021e-11
1.1362093e-09
-2.0445934e-11
1.1561123e-09
-1.9903014e-11
1.1762868e-09
-2.0174574e-11
1.1960227e-09
-1.9735817e-11
1.2159331e-09
-1.9910394e-11
1.2355873e-09
-1.9654209e-11
1.2551221e-09
-1.953484e-11
1.2746942e-09
-1.9572096e-11
1.2937558e-09
-1.9061553e-11
1.3132187e-09
-1.9462986e-11
1.3318013e-09
-1.8582534e-11
1.3510694e-09
-1.9268109e-11
1.3693102e-09
-1.8240846e-11
1.388217e-09
-1.8906735e-11
1.4062066e-09
-1.7989639e-11
1.4245799e-09
-1.8373303e-11
1.4424151e-09
-1.7835221e-11
1.4601591e-09
-1.7743988e-11
1.4779167e-09
-1.7757547e-11
1.4949478e-09
-1.7031181e-11
1.5125364e-09
-1.7588562e-11
1.5289682e-09
-1.6431841e-11
1.5461759e-09
-1.7207675e-11
1.5622275e-09
-1.6051558e-11
1.5788099e-09
-1.6582448e-11
1.5946142e-09
-1.5804309e-11
1.6104332e-09
-1.581899e-11
1.6261074e-09
-1.56742e-11
1.6411054e-09
-1.4997925e-11
1.6565333e-09
-1.5427989e-11
1.6708163e-09
-1.4282938e-11
1.6859002e-09
-1.5083919e-11
1.6994985e-09
-1.3598337e-11
1.7140504e-09
-1.4551878e-11
1.7272759e-09
-1.3225438e-11
1.7409467e-09
-1.3670794e-11
1.753998e-09
-1.3051383e-11
1.7667114e-09
-1.2713381e-11
1.779515e-09
-1.2803589e-11
1.7914976e-09
-1.1982579e-11
1.8037521e-09
-1.2254511e-11
1.815109e-09
-1.1356945e-11
1.8267443e-09
-1.1635287e-11
1.8375949e-09
-1.0850621e-11
1.8484016e-09
-1.0806642e-11
1.8587708e-09
-1.0369219e-11
1.8688527e-09
-1.0081914e-11
1.8787618e-09
-9.9091138e-12
1.8881429e-09
-9.3810688e-12
1.8972762e-09
-9.1333042e-12
1.9060111e-09
-8.7348913e-12
1.9145077e-09
-8.4965788e-12
1.9224537e-09
-7.9460145e-12
1.930304e-09
-7.8502582e-12
1.9378956e-09
-7.591685e-12
1.9451409e-09
-7.245237e-12
1.9516431e-09
-6.5022149e-12
1.9581193e-09
-6.4761943e-12
1.9643533e-09
-6.2340375e-12
1.9700486e-09
-5.6953231e-12
1.9753508e-09
-5.3021667e-12
1.9805266e-09
-5.1758063e-12
1.9851419e-09
-4.6152961e-12
1.9895779e-09
-4.4359997e-12
1.9936316e-09
-4.0536424e-12
1.9971843e-09
-3.552785e-12
2.0003469e-09
-3.1625561e-12
2.0035023e-09
-3.1554369e-12
2.0061613e-09
-2.6589999e-12
-2.1896247e-12
2.8622128e-09
-8.0784479e-11
2.922432e-09
-8.071954e-11
2.9821199e-09
-7.9933733e-11
3.0426237e-09
-8.1023919e-11
3.1023509e-09
-7.9925273e-11
3.1627123e-09
-8.0807342e-11
3.2219038e-09
-7.9094499e-11
3.2816766e-09
-7.9947316e-11
3.3406584e-09
-7.8717708e-11
3.3998485e-09
-7.9100496e-11
3.4588091e-09
-7.8614721e-11
3.5171289e-09
-7.7854721e-11
3.5760032e-09
-7.8446351e-11
3.6332679e-09
-7.6326303e-11
3.6919287e-09
-7.8123782e-11
3.7481869e-09
-7.4840707e-11
3.8063347e-09
-7.7415918e-11
3.8619593e-09
-7.3865379e-11
3.9191389e-09
-7.6086418e-11
3.9743587e-09
-7.32094e-11
4.0301679e-09
-7.4182489e-11
4.0851394e-09
-7.2806764e-11
4.1394293e-09
-7.2033884e-11
4.194235e-09
-7.2563243e-11
4.2468656e-09
-6.9661736e-11
4.3012512e-09
-7.1974226e-11
4.3524853e-09
-6.7665898e-11
4.4058485e-09
-7.0570899e-11
4.4562693e-09
-6.6472327e-11
4.5080066e-09
-6.8319781e-11
4.5579468e-09
-6.5744521e-11
4.6077409e-09
-6.5613071e-11
4.6573724e-09
-6.5305649e-11
4.7051422e-09
-6.2767783e-11
4.7541151e-09
-6.4400841e-11
4.8001986e-09
-6.0366462e-11
4.8482707e-09
-6.3156019e-11
4.8926278e-09
-5.7955427e-11
4.9393694e-09
-6.129351e-11
4.9826877e-09
-5.6543751e-11
5.0273158e-09
-5.8298863e-11
5.0701423e-09
-5.5877833e-11
5.1123708e-09
-5.4941895e-11
5.1545386e-09
-5.4971424e-11
5.1948942e-09
-5.2338199e-11
5.2355968e-09
-5.2957066e-11
5.2744617e-09
-5.0221862e-11
5.3135576e-09
-5.0731232e-11
5.3509399e-09
-4.823286e-11
5.3881162e-09
-4.7982927e-11
5.4240158e-09
-4.6268867e-11
5.459514e-09
-4.5580046e-11
5.4941709e-09
-4.4566067e-11
5.5276641e-09
-4.287422e-11
5.5604494e-09
-4.1918671e-11
5.5922009e-09
-4.0486323e-11
5.6232335e-09
-3.9529262e-11
5.6529071e-09
-3.7619546e-11
5.6824595e-09
-3.7402647e-11
5.7109922e-09
-3.6124464e-11
5.7386546e-09
-3.4907636e-11
5.7646644e-09
-3.2511958e-11
5.7903396e-09
-3.2151393e-11
5.8151853e-09
-3.1079768e-11
5.8389475e-09
-2.9457495e-11
5.8616545e-09
-2.8009221e-11
5.883766e-09
-2.7287286e-11
5.9045224e-09
-2.5371629e-11
5.9248359e-09
-2.4749593e-11
5.9439307e-09
-2.3148413e-11
5.9617747e-09
-2.1396775e-11
5.9788323e-09
-2.0220139e-11
5.9954427e-09
-1.9765858e-11
6.010851e-09
-1.8067287e-11
-1.6335742e-11
4.366009e-09
-1.7868395e-10
4.4639318e-09
-1.7864237e-10
4.5615568e-09
-1.7755868e-10
4.660228e-09
-1.7969512e-10
4.7582623e-09
-1.7795963e-10
4.8568263e-09
-1.7937134e-10
4.9545544e-09
-1.7682255e-10
5.0525376e-09
-1.7793052e-10
5.1503712e-09
-1.765513e-10
5.2478122e-09
-1.7654149e-10
5.3458781e-09
-1.7668064e-10
5.4424452e-09
-1.7442182e-10
5.5404931e-09
-1.7649425e-10
5.6360522e-09
-1.7188542e-10
5.733853e-09
-1.7592456e-10
5.8285117e-09
-1.694994e-10
5.9255962e-09
-1.7450041e-10
6.0198122e-09
-1.6808136e-10
6.1155733e-09
-1.7184756e-10
6.2095472e-09
-1.671833e-10
6.3035896e-09
-1.6822486e-10
6.3973745e-09
-1.6659163e-10
6.4896435e-09
-1.6430292e-10
6.583153e-09
-1.6607276e-10
6.6735582e-09
-1.6006691e-10
6.7665225e-09
-1.6493851e-10
6.8552392e-09
-1.5638261e-10
6.9468389e-09
-1.6217063e-10
7.034521e-09
-1.5415443e-10
7.1241487e-09
-1.5794748e-10
7.2111726e-09
-1.5276845e-10
7.2983814e-09
-1.5282183e-10
7.3849032e-09
-1.5182747e-10
7.4695437e-09
-1.4740832e-10
7.5552132e-09
-1.500703e-10
7.6376467e-09
-1.428e-10
7.7222562e-09
-1.4776545e-10
7.8021762e-09
-1.3787548e-10
7.8852149e-09
-1.443322e-10
7.9632967e-09
-1.3462553e-10
8.0439863e-09
-1.3898847e-10
8.1210772e-09
-1.3296874e-10
8.1986864e-09
-1.3255107e-10
8.2748834e-09
-1.3116849e-10
8.3498337e-09
-1.2728846e-10
8.4242281e-09
-1.2735147e-10
8.4970453e-09
-1.2303908e-10
8.5693777e-09
-1.2306363e-10
8.6396927e-09
-1.1854781e-10
8.7098146e-09
-1.1810484e-10
8.7777507e-09
-1.1420498e-10
8.8457533e-09
-1.1358258e-10
8.9118821e-09
-1.106949e-10
8.9767745e-09
-1.0776665e-10
9.0406246e-09
-1.0576878e-10
9.1029706e-09
-1.028323e-10
9.1640761e-09
-1.0063472e-10
9.2236469e-09
-9.7190388e-11
9.2830699e-09
-9.6825611e-11
9.3405403e-09
-9.3594904e-11
9.3968342e-09
-9.1201534e-11
9.4513288e-09
-8.7006556e-11
9.5048702e-09
-8.5692768e-11
9.5570279e-09
-8.3237463e-11
9.6080082e-09
-8.0437807e-11
9.6575079e-09
-7.7508945e-11
9.7057362e-09
-7.5515602e-11
9.7523138e-09
-7.1949167e-11
9.7982948e-09
-7.0730663e-11
9.8421098e-09
-6.6963384e-11
9.8845619e-09
-6.3848817e-11
9.9260436e-09
-6.170191e-11
9.9662204e-09
-5.9942617e-11
1.0004727e-08
-5.6573715e-11
-5.3094167e-11
5.5899097e-09
-3.1212296e-10
5.7235659e-09
-3.1229853e-10
5.8575566e-09
-3.1154936e-10
5.9924748e-09
-3.1461339e-10
6.1275555e-09
-3.1304029e-10
6.2624781e-09
-3.1429398e-10
6.3979182e-09
-3.1226263e-10
6.5325873e-09
-3.1259964e-10
6.6686785e-09
-3.1264245e-10
6.8032289e-09
-3.1109189e-10
6.9398921e-09
-3.1334386e-10
7.0740484e-09
-3.0857816e-10
7.2107935e-09
-3.1323929e-10
7.3445892e-09
-3.056812e-10
7.4811029e-09
-3.1243823e-10
7.6146825e-09
-3.0307902e-10
7.7504098e-09
-3.1022769e-10
7.8841331e-09
-3.0180461e-10
8.0184622e-09
-3.0617666e-10
8.1522501e-09
-3.0097128e-10
8.2850653e-09
-3.0104001e-10
8.4187694e-09
-3.0029572e-10
8.5501702e-09
-2.9570375e-10
8.6834275e-09
-2.9933e-10
8.8134535e-09
-2.9009295e-10
8.9461692e-09
-2.9765422e-10
9.0746511e-09
-2.8486448e-10
9.2060166e-09
-2.9353616e-10
9.3332928e-09
-2.8143061e-10
9.4630767e-09
-2.8773135e-10
9.589437e-09
-2.7912874e-10
9.7170221e-09
-2.8040697e-10
9.8425723e-09
-2.773777e-10
9.967779e-09
-2.7261497e-10
1.0092444e-08
-2.7473578e-10
1.021533e-08
-2.6568563e-10
1.0339118e-08
-2.7155347e-10
1.0458932e-08
-2.5768971e-10
1.058144e-08
-2.6684e-10
1.069848e-08
-2.5166527e-10
1.0819477e-08
-2.5998523e-10
1.0934643e-08
-2.4813481e-10
1.1052901e-08
-2.508098e-10
1.1166806e-08
-2.4507336e-10
1.1281846e-08
-2.4232805e-10
1.1394242e-08
-2.3974716e-10
1.150669e-08
-2.3548709e-10
1.1617289e-08
-2.3366293e-10
1.1726291e-08
-2.2755025e-10
1.1834931e-08
-2.2674416e-10
1.1940781e-08
-2.2005508e-10
1.2047386e-08
-2.2018778e-10
1.215096e-08
-2.1426867e-10
1.2253675e-08
-2.1048155e-10
1.2355121e-08
-2.0721553e-10
1.2454779e-08
-2.0248963e-10
1.2552592e-08
-1.9844801e-10
1.2649443e-08
-1.9404091e-10
1.2745913e-08
-1.9329618e-10
1.2839496e-08
-1.8717788e-10
1.293191e-08
-1.8361569e-10
1.3022816e-08
-1.7791274e-10
1.311199e-08
-1.7486648e-10
1.3199425e-08
-1.7067274e-10
1.3285896e-08
-1.6690814e-10
1.3370635e-08
-1.6224867e-10
1.345328e-08
-1.5816005e-10
1.3534815e-08
-1.5348414e-10
1.3615119e-08
-1.5103451e-10
1.3692397e-08
-1.4424179e-10
1.3769033e-08
-1.4048451e-10
1.3844298e-08
-1.3696702e-10
1.3917424e-08
-1.3306816e-10
1.3988705e-08
-1.2785505e-10
-1.2223525e-10
6.5726289e-09
-4.7898053e-10
6.7401093e-09
-4.7977892e-10
6.9087519e-09
-4.8019197e-10
7.0781245e-09
-4.8398598e-10
7.2487677e-09
-4.8368352e-10
7.4184467e-09
-4.8397302e-10
7.5903934e-09
-4.8420933e-10
7.7604718e-09
-4.8267802e-10
7.9337425e-09
-4.8591317e-10
8.1044411e-09
-4.817905e-10
8.2787607e-09
-4.8766343e-10
8.4498693e-09
-4.7968675e-10
8.6245348e-09
-4.8790474e-10
8.7963186e-09
-4.7746506e-10
8.9709826e-09
-4.8710221e-10
9.1435522e-09
-4.7564859e-10
9.3176486e-09
-4.8432411e-10
9.4912109e-09
-4.7536693e-10
9.6641369e-09
-4.791027e-10
9.8381788e-09
-4.750132e-10
1.0010267e-08
-4.7312848e-10
1.0184422e-08
-4.7445061e-10
1.0355871e-08
-4.6715298e-10
1.0529459e-08
-4.7291707e-10
1.0700496e-08
-4.6113067e-10
1.0873694e-08
-4.708523e-10
1.104373e-08
-4.549006e-10
1.1215971e-08
-4.6577647e-10
1.1384749e-08
-4.5020864e-10
1.1556376e-08
-4.5935833e-10
1.1723962e-08
-4.4671536e-10
1.1894174e-08
-4.5061814e-10
1.2060523e-08
-4.4372769e-10
1.2229338e-08
-4.4142978e-10
1.239481e-08
-4.4020707e-10
1.2561631e-08
-4.3250711e-10
1.2726494e-08
-4.3641631e-10
1.2890204e-08
-4.2139932e-10
1.3054269e-08
-4.309054e-10
1.3214666e-08
-4.1206235e-10
1.3378752e-08
-4.2407085e-10
1.3536012e-08
-4.053952e-10
1.3698906e-08
-4.1370394e-10
1.3854064e-08
-4.0023102e-10
1.4013979e-08
-4.0224338e-10
1.4168196e-08
-3.9396379e-10
1.432531e-08
-3.9260109e-10
1.4477932e-08
-3.862855e-10
1.4631088e-08
-3.8070594e-10
1.4782595e-08
-3.7825129e-10
1.4932261e-08
-3.6972052e-10
1.5082481e-08
-3.7040853e-10
1.522877e-08
-3.6055776e-10
1.5375148e-08
-3.5685921e-10
1.5519956e-08
-3.5202376e-10
1.5662897e-08
-3.4543075e-10
1.5803396e-08
-3.3894705e-10
1.5944199e-08
-3.348432e-10
1.6083919e-08
-3.3301668e-10
1.6220208e-08
-3.2346698e-10
1.6355694e-08
-3.191012e-10
1.6489946e-08
-3.1216518e-10
1.6622065e-08
-3.0698511e-10
1.6751923e-08
-3.0053086e-10
1.688172e-08
-2.967049e-10
1.7008688e-08
-2.8921727e-10
1.7133222e-08
-2.8269346e-10
1.7258055e-08
-2.7831724e-10
1.7380059e-08
-2.7303845e-10
1.7499247e-08
-2.6343008e-10
1.761901e-08
-2.60247e-10
1.7736344e-08
-2.5430101e-10
1.7850916e-08
-2.4764088e-10
1.7963647e-08
-2.40586e-10
-2.3272896e-10
7.3482436e-09
-6.7737753e-10
7.5474904e-09
-6.7902576e-10
7.7491406e-09
-6.8184214e-10
7.9511457e-09
-6.8599106e-10
8.1557211e-09
-6.8825897e-10
8.358715e-09
-6.869669e-10
8.5656085e-09
-6.9110285e-10
8.7700297e-09
-6.8709922e-10
8.9789921e-09
-6.9487551e-10
9.1850556e-09
-6.8785405e-10
9.3957271e-09
-6.983349e-10
9.60318e-09
-6.8713965e-10
9.8147782e-09
-6.9950299e-10
1.0024012e-08
-6.8669883e-10
1.0236263e-08
-6.9935297e-10
1.0447265e-08
-6.8665112e-10
1.0659624e-08
-6.9668248e-10
1.0872589e-08
-6.8833252e-10
1.1084376e-08
-6.9088966e-10
1.1298386e-08
-6.890231e-10
1.1510328e-08
-6.8507078e-10
1.1724942e-08
-6.890642e-10
1.1937164e-08
-6.7937449e-10
1.2151406e-08
-6.8715971e-10
1.2364249e-08
-6.739734e-10
1.2578515e-08
-6.8511854e-10
1.2791149e-08
-6.6753488e-10
1.3005371e-08
-6.7999804e-10
1.3216881e-08
-6.6171872e-10
1.3431842e-08
-6.7431938e-10
1.3642039e-08
-6.5691212e-10
1.3856659e-08
-6.652382e-10
1.4065351e-08
-6.524193e-10
1.4280137e-08
-6.5621607e-10
1.4488163e-08
-6.4823317e-10
1.4701651e-08
-6.4599549e-10
1.4909312e-08
-6.4407664e-10
1.512043e-08
-6.3251747e-10
1.5327548e-08
-6.3802331e-10
1.5535904e-08
-6.2041902e-10
1.5744493e-08
-6.3265926e-10
1.5948467e-08
-6.0936971e-10
1.6158526e-08
-6.2376223e-10
1.6358766e-08
-6.0047183e-10
1.6567183e-08
-6.1066043e-10
1.6766693e-08
-5.934734e-10
1.6972877e-08
-5.987847e-10
1.7170886e-08
-5.8429432e-10
1.7373727e-08
-5.8354709e-10
1.7571044e-08
-5.7556877e-10
1.7769998e-08
-5.6867472e-10
1.7967775e-08
-5.681849e-10
1.8161902e-08
-5.5468519e-10
1.8357121e-08
-5.5207801e-10
1.8550327e-08
-5.4522956e-10
1.8741793e-08
-5.36897e-10
1.8930721e-08
-5.2787555e-10
1.9121258e-08
-5.2537962e-10
1.9309349e-08
-5.2110734e-10
1.9494473e-08
-5.0859108e-10
1.9679301e-08
-5.0393e-10
1.9862891e-08
-4.9575438e-10
2.0044434e-08
-4.8852873e-10
2.0222948e-08
-4.7904488e-10
2.0403413e-08
-4.7716943e-10
2.0578229e-08
-4.6403387e-10
2.0752423e-08
-4.5688747e-10
2.0927766e-08
-4.5366027e-10
2.1097249e-08
-4.425212e-10
2.1266094e-08
-4.3227474e-10
2.1435932e-08
-4.3008519e-10
2.1602493e-08
-4.2086229e-10
2.1766882e-08
-4.1202994e-10
2.1929065e-08
-4.0276857e-10
-3.927709e-10
7.9463163e-09
-9.0545728e-10
8.1752344e-09
-9.0794386e-10
8.4082543e-09
-9.1486209e-10
8.6408955e-09
-9.1863218e-10
8.8778188e-09
-9.2518235e-10
9.1124132e-09
-9.2156128e-10
9.352844e-09
-9.3153367e-10
9.5901426e-09
-9.2439778e-10
9.8335789e-09
-9.3831184e-10
1.007381e-08
-9.2808485e-10
1.0319808e-08
-9.4433327e-10
1.0562536e-08
-9.2986806e-10
1.0810369e-08
-9.4733551e-10
1.1055924e-08
-9.3225424e-10
1.1305467e-08
-9.4889507e-10
1.1553699e-08
-9.3488385e-10
1.1804425e-08
-9.4740821e-10
1.2055703e-08
-9.3961037e-10
1.2306833e-08
-9.420196e-10
1.255994e-08
-9.4213033e-10
1.2812469e-08
-9.3759963e-10
1.3067123e-08
-9.437181e-10
1.3320812e-08
-9.3306378e-10
1.3576013e-08
-9.4236102e-10
1.3831036e-08
-9.289958e-10
1.4087143e-08
-9.4122579e-10
1.4342732e-08
-9.2312362e-10
1.4600305e-08
-9.3757108e-10
1.4855213e-08
-9.1662657e-10
1.5114928e-08
-9.3403481e-10
1.5368823e-08
-9.1080743e-10
1.5629225e-08
-9.2563934e-10
1.5881962e-08
-9.0515697e-10
1.6144284e-08
-9.1853759e-10
1.639706e-08
-9.0100947e-10
1.6659005e-08
-9.0794034e-10
1.6911571e-08
-8.9664258e-10
1.7172446e-08
-8.9339297e-10
1.742429e-08
-8.8986663e-10
1.7684613e-08
-8.807428e-10
1.793841e-08
-8.8645622e-10
1.8194017e-08
-8.6497602e-10
1.8451979e-08
-8.8172489e-10
1.8701909e-08
-8.504019e-10
1.8960769e-08
-8.6952009e-10
1.9209278e-08
-8.419827e-10
1.9467319e-08
-8.5682574e-10
1.9713775e-08
-8.3074988e-10
1.9970689e-08
-8.4046145e-10
2.0216407e-08
-8.2128613e-10
2.0470151e-08
-8.2241911e-10
2.0718068e-08
-8.1610134e-10
2.0964668e-08
-8.0128584e-10
2.1212645e-08
-8.000545e-10
2.1458161e-08
-7.9074589e-10
2.1702567e-08
-7.8130307e-10
2.194557e-08
-7.7087869e-10
2.2190064e-08
-7.6987333e-10
2.2430343e-08
-7.6138622e-10
2.2669823e-08
-7.480714e-10
2.2908854e-08
-7.4296051e-10
2.3146862e-08
-7.3376273e-10
2.3382992e-08
-7.2465861e-10
2.3615639e-08
-7.1169163e-10
2.3852226e-08
-7.1375675e-10
2.4078647e-08
-6.9045514e-10
2.431055e-08
-6.8879064e-10
2.4540903e-08
-6.8401259e-10
2.4763948e-08
-6.655668e-10
2.4991112e-08
-6.5943866e-10
2.5216652e-08
-6.5562513e-10
2.543811e-08
-6.4232034e-10
2.5658655e-08
-6.3257478e-10
2.5877308e-08
-6.2142151e-10
-6.0929855e-10
8.3914901e-09
-1.1602405e-09
8.6492249e-09
-1.1656787e-09
8.9108273e-09
-1.1764644e-09
9.1732326e-09
-1.1810375e-09
9.4400121e-09
-1.1919619e-09
9.7053134e-09
-1.1868626e-09
9.9773945e-09
-1.2036147e-09
1.0246382e-08
-1.1933855e-09
1.05231e-08
-1.21503e-09
1.0796155e-08
-1.2011398e-09
1.1076758e-08
-1.2249365e-09
1.1353367e-08
-1.2064766e-09
1.1637133e-08
-1.2311011e-09
1.1917505e-08
-1.212627e-09
1.2204499e-08
-1.2358884e-09
1.2488312e-08
-1.2186976e-09
1.2778097e-08
-1.2371933e-09
1.3065881e-08
-1.2273939e-09
1.3357617e-08
-1.233756e-09
1.364803e-08
-1.2325429e-09
1.3942717e-08
-1.2322868e-09
1.4235977e-08
-1.2369782e-09
1.4532609e-08
-1.2296956e-09
1.4828374e-08
-1.2381257e-09
1.5126367e-08
-1.2269889e-09
1.5424606e-08
-1.2394652e-09
1.5723733e-08
-1.2222507e-09
1.602538e-08
-1.2392173e-09
1.632478e-08
-1.2160267e-09
1.6629682e-08
-1.2389376e-09
1.6928667e-08
-1.2097918e-09
1.7235244e-08
-1.2322161e-09
1.7534039e-08
-1.2039519e-09
1.7844305e-08
-1.2288044e-09
1.8144181e-08
-1.2008853e-09
1.8455387e-08
-1.2191466e-09
1.8754942e-08
-1.1961969e-09
1.9066319e-08
-1.2047699e-09
1.9364871e-08
-1.1884193e-09
1.9679339e-08
-1.19521e-09
1.9978499e-08
-1.1856164e-09
2.0290072e-08
-1.1765496e-09
2.0594362e-08
-1.1860148e-09
2.089945e-08
-1.1554898e-09
2.1208301e-08
-1.1783713e-09
2.151032e-08
-1.1440012e-09
2.1820446e-08
-1.1669526e-09
2.2119325e-08
-1.1296282e-09
2.2431726e-08
-1.1528624e-09
2.2728531e-08
-1.1180917e-09
2.3040216e-08
-1.1341036e-09
2.3339436e-08
-1.1153216e-09
2.3643409e-08
-1.1052592e-09
2.3946116e-08
-1.1027608e-09
2.424601e-08
-1.09064e-09
2.454614e-08
-1.0814329e-09
2.4847739e-08
-1.0724779e-09
2.5147877e-08
-1.0700116e-09
2.544281e-08
-1.0563186e-09
2.574054e-08
-1.0458018e-09
2.6036761e-08
-1.0391818e-09
2.6332434e-08
-1.0294351e-09
2.6625813e-08
-1.0180384e-09
2.691863e-08
-1.0045083e-09
2.721287e-08
-1.0079965e-09
2.74946e-08
-9.7218569e-10
2.7790954e-08
-9.8514469e-10
2.8074653e-08
-9.6771101e-10
2.8357392e-08
-9.4830621e-10
2.8647195e-08
-9.4924113e-10
2.8930899e-08
-9.3932938e-10
2.9212003e-08
-9.2342413e-10
2.9494085e-08
-9.1465683e-10
2.9772557e-08
-8.9989375e-10
-8.8621787e-10
8.7059569e-09
-1.4384893e-09
8.9927458e-09
-1.4524676e-09
9.2792058e-09
-1.4629244e-09
9.5722955e-09
-1.4741273e-09
9.8648602e-09
-1.4845265e-09
1.0162345e-08
-1.4843471e-09
1.0462026e-08
-1.5032961e-09
1.0763983e-08
-1.4953429e-09
1.1070551e-08
-1.5215976e-09
1.137728e-08
-1.5078688e-09
1.1689739e-08
-1.5373953e-09
1.2000743e-08
-1.5174809e-09
1.2318416e-08
-1.5487738e-09
1.2633701e-08
-1.5279118e-09
1.2956998e-08
-1.5591858e-09
1.327581e-08
-1.5375091e-09
1.360466e-08
-1.5660433e-09
1.3927319e-08
-1.5500529e-09
1.4260866e-08
-1.5673029e-09
1.4586294e-08
-1.5579717e-09
1.4925001e-08
-1.5709931e-09
1.5254103e-08
-1.5660807e-09
1.5595914e-08
-1.5715065e-09
1.5930025e-08
-1.5722369e-09
1.6272835e-08
-1.5697981e-09
1.661126e-08
-1.5778906e-09
1.6955865e-08
-1.5668558e-09
1.7299657e-08
-1.5830089e-09
1.7646308e-08
-1.5626781e-09
1.7994068e-08
-1.5866972e-09
1.8340584e-08
-1.5563085e-09
1.8691405e-08
-1.5830367e-09
1.903893e-08
-1.5514768e-09
1.9395328e-08
-1.5852025e-09
1.9744523e-08
-1.5500799e-09
2.0104459e-08
-1.5790827e-09
2.045243e-08
-1.5441679e-09
2.0813196e-08
-1.5655361e-09
2.1160712e-08
-1.5359352e-09
2.1528703e-08
-1.563201e-09
2.1873823e-08
-1.5307365e-09
2.2243624e-08
-1.5463509e-09
2.2591024e-08
-1.5334142e-09
2.2956208e-08
-1.5206738e-09
2.3311943e-08
-1.5341071e-09
2.3671305e-08
-1.5033626e-09
2.4030463e-08
-1.5261106e-09
2.4386349e-08
-1.4855146e-09
2.4750628e-08
-1.5171409e-09
2.5102236e-08
-1.4696999e-09
2.5470542e-08
-1.5024095e-09
2.5819714e-08
-1.464494e-09
2.6183975e-08
-1.4695197e-09
2.6539204e-08
-1.4579901e-09
2.6893485e-08
-1.4449211e-09
2.7248517e-08
-1.4364651e-09
2.761065e-08
-1.4346106e-09
2.7964515e-08
-1.4238766e-09
2.8312885e-08
-1.4046883e-09
2.8668556e-08
-1.4014734e-09
2.9021822e-08
-1.3924477e-09
2.9373052e-08
-1.3806647e-09
2.9722449e-08
-1.3674357e-09
3.0079109e-08
-1.3611684e-09
3.0421308e-08
-1.3501952e-09
3.0764141e-08
-1.3150191e-09
3.1124226e-08
-1.3452289e-09
3.1453131e-08
-1.2966162e-09
3.1801542e-08
-1.2967175e-09
3.2149447e-08
-1.2971459e-09
3.2488776e-08
-1.2786582e-09
3.2827167e-08
-1.2618156e-09
3.3169415e-08
-1.2569048e-09
3.3507154e-08
-1.2376331e-09
-1.2217604e-09
8.9127995e-09
-1.7405088e-09
9.225726e-09
-1.7653941e-09
9.5364812e-09
-1.7736796e-09
9.8584469e-09
-1.7960929e-09
1.0175005e-08
-1.801085e-09
1.0504558e-08
-1.8138996e-09
1.0828365e-08
-1.8271035e-09
1.1164681e-08
-1.8316582e-09
1.1496414e-08
-1.8533311e-09
1.1839249e-08
-1.8507036e-09
1.2178227e-08
-1.8763735e-09
1.2526693e-08
-1.8659469e-09
1.2872736e-08
-1.8948173e-09
1.3226283e-08
-1.8814583e-09
1.3580353e-08
-1.9132556e-09
1.3937449e-08
-1.8946053e-09
1.430043e-08
-1.9290247e-09
1.4660295e-08
-1.9099173e-09
1.5031923e-08
-1.9389309e-09
1.5393817e-08
-1.9198663e-09
1.5773934e-08
-1.9511099e-09
1.6138765e-08
-1.9309111e-09
1.6524966e-08
-1.9577079e-09
1.689617e-08
-1.943441e-09
1.7284466e-08
-1.9580937e-09
1.7660451e-08
-1.9538763e-09
1.8052594e-08
-1.9589988e-09
1.8434648e-08
-1.9650625e-09
1.8832381e-08
-1.960411e-09
1.9218102e-08
-1.9724181e-09
1.9615817e-08
-1.954024e-09
2.0006141e-08
-1.9733606e-09
2.0406425e-08
-1.9517602e-09
2.08037e-08
-1.9824779e-09
2.1205087e-08
-1.9514674e-09
2.1610348e-08
-1.9843435e-09
2.200824e-08
-1.9420597e-09
2.2413628e-08
-1.9709237e-09
2.2813296e-08
-1.9356034e-09
2.3228025e-08
-1.97793e-09
2.3621868e-08
-1.9245799e-09
2.4045239e-08
-1.9697216e-09
2.4432774e-08
-1.920949e-09
2.4857372e-08
-1.9452722e-09
2.5254502e-08
-1.9312362e-09
2.5670376e-08
-1.9192373e-09
2.6071213e-08
-1.9269475e-09
2.6484399e-08
-1.8987002e-09
2.6889557e-08
-1.9222994e-09
2.7297673e-08
-1.8778151e-09
2.7713449e-08
-1.9181858e-09
2.8107349e-08
-1.858394e-09
2.8529444e-08
-1.891615e-09
2.8927602e-08
-1.8561479e-09
2.9331524e-08
-1.8488435e-09
2.9733149e-08
-1.8380896e-09
3.0150755e-08
-1.8522171e-09
3.0549367e-08
-1.8224882e-09
3.0944209e-08
-1.7995306e-09
3.134766e-08
-1.8049246e-09
3.1753094e-08
-1.797881e-09
3.2147931e-08
-1.7755022e-09
3.2549613e-08
-1.769118e-09
3.2968159e-08
-1.7797136e-09
3.3337864e-08
-1.7199005e-09
3.3751546e-08
-1.7287014e-09
3.4158663e-08
-1.7523453e-09
3.4521365e-08
-1.6593181e-09
3.4939622e-08
-1.7149747e-09
3.532628e-08
-1.6838037e-09
3.5719093e-08
-1.6714716e-09
3.6105712e-08
-1.6484347e-09
3.6498075e-08
-1.6492677e-09
3.6886667e-08
-1.6262251e-09
-1.6051531e-09
9.0307331e-09
-2.0683336e-09
9.3638757e-09
-2.0985367e-09
9.7015559e-09
-2.1113598e-09
1.004588e-08
-2.1404167e-09
1.0389576e-08
-2.1447808e-09
1.0744878e-08
-2.1692018e-09
1.1095369e-08
-2.1775947e-09
1.1460934e-08
-2.1972236e-09
1.1818967e-08
-2.2113637e-09
1.2194518e-08
-2.2262542e-09
1.2559516e-08
-2.2413714e-09
1.2943741e-08
-2.2501718e-09
1.3315999e-08
-2.2670758e-09
1.3708052e-08
-2.2735112e-09
1.4088502e-08
-2.2937054e-09
1.4486779e-08
-2.2928824e-09
1.4877234e-08
-2.3194799e-09
1.5279354e-08
-2.3120376e-09
1.5680735e-08
-2.3403118e-09
1.6086138e-08
-2.3252692e-09
1.6498344e-08
-2.3633158e-09
1.6906198e-08
-2.3387646e-09
1.7328295e-08
-2.3798051e-09
1.7743097e-08
-2.3582437e-09
1.816995e-08
-2.3849467e-09
1.8587907e-08
-2.3718324e-09
1.9022304e-08
-2.3933966e-09
1.9444422e-08
-2.3871798e-09
1.9890287e-08
-2.4062768e-09
2.0312977e-08
-2.3951073e-09
2.0759852e-08
-2.4008993e-09
2.118633e-08
-2.3998389e-09
2.1638669e-08
-2.4040984e-09
2.2069801e-08
-2.4136102e-09
2.2522465e-08
-2.4041318e-09
2.2964692e-08
-2.4265702e-09
2.3411429e-08
-2.3887966e-09
2.3849061e-08
-2.4085554e-09
2.430241e-08
-2.3889527e-09
2.4745255e-08
-2.4207753e-09
2.5191526e-08
-2.3708512e-09
2.5649299e-08
-2.4274945e-09
2.6074853e-08
-2.3465029e-09
2.654416e-08
-2.4145793e-09
2.6973885e-08
-2.3609608e-09
2.7434201e-08
-2.3795537e-09
2.7863064e-08
-2.3558107e-09
2.8324517e-08
-2.360153e-09
2.8754715e-08
-2.3524969e-09
2.9215748e-08
-2.3388484e-09
2.9662072e-08
-2.36451e-09
3.0092671e-08
-2.2889933e-09
3.0562154e-08
-2.3610978e-09
3.0985348e-08
-2.2793414e-09
3.143125e-08
-2.2947456e-09
3.1861288e-08
-2.2681279e-09
3.2314508e-08
-2.3054368e-09
3.273607e-08
-2.2440499e-09
3.315317e-08
-2.2166311e-09
3.3601955e-08
-2.2537092e-09
3.4073669e-08
-2.2695951e-09
3.4495176e-08
-2.1970095e-09
3.495462e-08
-2.2285618e-09
3.5444205e-08
-2.2692986e-09
3.5786571e-08
-2.0622663e-09
3.628771e-08
-2.2298405e-09
3.6716269e-08
-2.1809044e-09
3.703328e-08
-1.9763288e-09
3.7509612e-08
-2.1913074e-09
3.7856367e-08
-2.030558e-09
3.8241941e-08
-2.0570464e-09
3.8546818e-08
-1.9533115e-09
3.889818e-08
-2.0006301e-09
3.9147854e-08
-1.8758985e-09
-1.8717429e-09
9.0706118e-09
-2.4201073e-09
9.4219909e-09
-2.4499158e-09
9.7854736e-09
-2.4748425e-09
1.0148999e-08
-2.503942e-09
1.0520394e-08
-2.5161763e-09
1.0896473e-08
-2.5452809e-09
1.1276131e-08
-2.5572521e-09
1.1664355e-08
-2.5854478e-09
1.2052705e-08
-2.5997141e-09
1.2453193e-08
-2.6267415e-09
1.2849434e-08
-2.6376123e-09
1.326083e-08
-2.6615677e-09
1.3665338e-08
-2.6715847e-09
1.4087435e-08
-2.6956074e-09
1.4500092e-08
-2.7063624e-09
1.4932656e-08
-2.7254467e-09
1.535509e-08
-2.741914e-09
1.5795005e-08
-2.7519526e-09
1.6227582e-08
-2.7728885e-09
1.6675922e-08
-2.7736098e-09
1.7117796e-08
-2.8051893e-09
1.75711e-08
-2.7920685e-09
1.8022595e-08
-2.8313004e-09
1.8485945e-08
-2.821594e-09
1.8940849e-08
-2.8398505e-09
1.9407016e-08
-2.8379991e-09
1.9868868e-08
-2.8552492e-09
2.0337471e-08
-2.8557822e-09
2.0813602e-08
-2.8824085e-09
2.1278484e-08
-2.8599887e-09
2.1754319e-08
-2.8767342e-09
2.2219584e-08
-2.8651044e-09
2.2702535e-08
-2.8870487e-09
2.3166775e-08
-2.8778504e-09
2.3648457e-08
-2.8858137e-09
2.4122542e-08
-2.9006552e-09
2.4597538e-08
-2.8637928e-09
2.5054614e-08
-2.8656317e-09
2.5549131e-08
-2.8834697e-09
2.6000604e-08
-2.8722483e-09
2.6495446e-08
-2.865693e-09
2.6960395e-08
-2.8924434e-09
2.7418894e-08
-2.8050026e-09
2.7906571e-08
-2.902256e-09
2.8349301e-08
-2.8036907e-09
2.8819097e-08
-2.8493501e-09
2.9274165e-08
-2.8108787e-09
2.9794144e-08
-2.8801321e-09
3.0232943e-08
-2.7912956e-09
3.0746657e-08
-2.8525621e-09
3.1200765e-08
-2.8186183e-09
3.1604905e-08
-2.6931328e-09
3.2110417e-08
-2.8666105e-09
3.2429083e-08
-2.5980067e-09
3.2803778e-08
-2.6694407e-09
3.3006755e-08
-2.4711051e-09
3.3261082e-08
-2.5597638e-09
3.3105965e-08
-2.0889333e-09
3.2875258e-08
-1.9859238e-09
3.3268338e-08
-2.6467891e-09
3.3814172e-08
-2.8154287e-09
3.3874828e-08
-2.2576659e-09
3.4083703e-08
-2.4374366e-09
3.4511478e-08
-2.697074e-09
3.4284043e-08
-1.8348309e-09
3.4445137e-08
-2.3909344e-09
3.4682335e-08
-2.4181025e-09
3.4296831e-08
-1.5908255e-09
3.4309946e-08
-2.2044223e-09
3.4140985e-08
-1.8615961e-09
3.3957338e-08
-1.8734001e-09
3.3553842e-08
-1.5498153e-09
3.3405692e-08
-1.8524803e-09
3.2937753e-08
-1.4079594e-09
-1.492532e-09
9.0442811e-09
-2.7930381e-09
9.4135902e-09
-2.8192249e-09
9.799486e-09
-2.8607383e-09
1.0182357e-08
-2.8868128e-09
1.0577685e-08
-2.9115045e-09
1.0974921e-08
-2.9425172e-09
1.1380164e-08
-2.9624953e-09
1.1791355e-08
-2.9966384e-09
1.2207225e-08
-3.0155838e-09
1.2632348e-08
-3.0518645e-09
1.3058532e-08
-3.0637971e-09
1.3495714e-08
-3.0987494e-09
1.3933226e-08
-3.1090963e-09
1.4382582e-08
-3.1449634e-09
1.4830567e-08
-3.1543475e-09
1.5292127e-08
-3.1870065e-09
1.5752562e-08
-3.2023492e-09
1.6221379e-08
-3.22077e-09
1.669231e-08
-3.2438197e-09
1.7171967e-08
-3.2532663e-09
1.7650376e-08
-3.2835987e-09
1.8134075e-08
-3.2757672e-09
1.8619338e-08
-3.316563e-09
1.9113248e-08
-3.315505e-09
1.959705e-08
-3.3236516e-09
2.0091917e-08
-3.332867e-09
2.0575693e-08
-3.3390246e-09
2.1072337e-08
-3.3524259e-09
2.1565881e-08
-3.3759531e-09
2.2055982e-08
-3.3500896e-09
2.2541203e-08
-3.3619548e-09
2.3032381e-08
-3.3562822e-09
2.3524479e-08
-3.3791471e-09
2.4012275e-08
-3.3656467e-09
2.4493412e-08
-3.3669507e-09
2.4989572e-08
-3.3968145e-09
2.543961e-08
-3.3138318e-09
2.5937835e-08
-3.3638562e-09
2.6460978e-08
-3.4066126e-09
2.6910522e-08
-3.3217925e-09
2.7417564e-08
-3.3727352e-09
2.7853272e-08
-3.328151e-09
2.8163743e-08
-3.1154741e-09
2.855832e-08
-3.2968325e-09
2.8401084e-08
-2.646455e-09
2.8261677e-08
-2.7099428e-09
2.854578e-08
-3.0949815e-09
2.891939e-08
-3.2537418e-09
2.9026876e-08
-2.8987818e-09
2.9065531e-08
-2.8912176e-09
2.9231801e-08
-2.9848877e-09
2.8872206e-08
-2.3335377e-09
2.8799795e-08
-2.7941994e-09
2.8458785e-08
-2.2569972e-09
2.7961505e-08
-2.1721611e-09
2.7440603e-08
-1.9502023e-09
2.6832809e-08
-1.9519699e-09
2.6040211e-08
-1.2963357e-09
2.5236951e-08
-1.1826635e-09
2.4157375e-08
-1.5672136e-09
2.2955109e-08
-1.6131627e-09
2.1527317e-08
-8.2987383e-10
2.0324327e-08
-1.2344462e-09
1.9038877e-08
-1.4116245e-09
1.7837306e-08
-6.3325952e-10
1.6398929e-08
-9.5255766e-10
1.5309566e-08
-1.328739e-09
1.4354433e-08
-6.3569303e-10
1.313472e-08
-9.8470863e-10
1.1894651e-08
-6.2152736e-10
1.096275e-08
-9.4149947e-10
9.8425159e-09
-4.2958111e-10
9.0939725e-09
-1.1039369e-09
8.3853377e-09
-6.9932466e-10
-9.9795434e-10
8.963213e-09
-3.1847456e-09
9.3483856e-09
-3.2043975e-09
9.7552633e-09
-3.267616e-09
1.0155092e-08
-3.2866413e-09
1.0573607e-08
-3.3300197e-09
1.0990064e-08
-3.3589739e-09
1.1420435e-08
-3.392867e-09
1.1853395e-08
-3.4295981e-09
1.2296282e-08
-3.4584703e-09
1.2745884e-08
-3.5014671e-09
1.3200843e-08
-3.5187558e-09
1.3665483e-08
-3.5633889e-09
1.4132832e-08
-3.5764461e-09
1.4613218e-08
-3.6253485e-09
1.5089836e-08
-3.6309663e-09
1.5584589e-08
-3.6817589e-09
1.6072761e-08
-3.6905217e-09
1.6572179e-08
-3.7201877e-09
1.7067561e-08
-3.7392022e-09
1.7575209e-08
-3.7609141e-09
1.8074008e-08
-3.782398e-09
1.8577904e-08
-3.7796631e-09
1.9078549e-08
-3.8172079e-09
1.9585893e-08
-3.8228486e-09
2.0081322e-08
-3.8190813e-09
2.0578653e-08
-3.8301972e-09
2.107611e-08
-3.836482e-09
2.1570044e-08
-3.8463598e-09
2.2073922e-08
-3.8798315e-09
2.2544441e-08
-3.8206086e-09
2.3048949e-08
-3.8664621e-09
2.3540911e-08
-3.8482444e-09
2.4043276e-08
-3.8815126e-09
2.4452607e-08
-3.7749774e-09
2.4832665e-08
-3.7470086e-09
2.4882152e-08
-3.4463017e-09
2.4569598e-08
-3.0012775e-09
2.4893002e-08
-3.6872606e-09
2.5145561e-08
-3.6591709e-09
2.511634e-08
-3.2925719e-09
2.501181e-08
-3.2682056e-09
2.473316e-08
-3.049501e-09
2.4159527e-08
-2.5418403e-09
2.3542714e-08