/*--------------------------------*- C++ -*----------------------------------*\
| =========                 |                                                 |
| \\      /  F ield         | OpenFOAM: The Open Source CFD Toolbox           |
|  \\    /   O peration     | Version:  2.3.0                                 |
|   \\  /    A nd           | Web:      www.OpenFOAM.org                      |
|    \\/     M anipulation  |                                                 |
\*---------------------------------------------------------------------------*/
FoamFile
{
    version     2.0;
    format      ascii;
    class       volVectorField;
    location    "3.4e-05";
    object      U;
}
// * * * * * * * * * * * * * * * * * * * * * * * * * * * * * * * * * * * * * //

dimensions      [0 1 -1 0 0 0 0];

internalField   nonuniform List<vector> 
7500
(
(459.98247 -0.0010167104 2.7791591e-17)
(460.01174 0.0092637013 3.1437822e-15)
(459.97418 -0.0035162514 2.6746723e-15)
(459.97439 -0.0025356118 -5.8816369e-16)
(459.95358 -0.0017390758 3.8850149e-15)
(459.95682 -0.0067639226 5.7974693e-15)
(459.95177 0.0072665018 1.6891438e-15)
(459.95971 -0.0028692115 5.7761512e-15)
(459.94616 0.0047668889 4.4560137e-15)
(459.95644 -0.0049816589 1.2740879e-15)
(459.93885 0.0085243514 1.1436086e-15)
(459.95845 -0.0091003096 -1.5750191e-15)
(459.95194 0.0075498217 1.3765425e-15)
(459.95649 -0.0051465872 1.2005017e-15)
(459.96075 0.0008857724 1.2043765e-15)
(459.95053 0.0048940552 1.4226874e-15)
(459.95969 -0.0079283758 1.0708345e-15)
(459.95081 0.011302518 -1.6976107e-15)
(459.95454 -0.014833506 1.2529865e-15)
(459.94449 0.017351113 1.2282812e-15)
(459.9664 -0.015625955 -1.1047008e-15)
(459.93735 0.011924509 7.0864105e-16)
(459.97807 -0.008852411 1.4349641e-15)
(459.93888 0.0048005754 -1.2308317e-15)
(459.97656 -0.00041226065 8.4046125e-16)
(459.95445 -0.0038089964 6.7562227e-16)
(459.95976 0.0076384069 1.1294778e-15)
(459.96924 -0.013701633 -1.5476961e-15)
(459.95163 0.016649701 -1.1111961e-15)
(459.97696 -0.01547181 3.2036688e-15)
(459.95658 0.015996673 -9.7626705e-16)
(459.97635 -0.012008285 1.3593639e-15)
(459.95554 0.0047398497 1.4777095e-15)
(459.97254 -0.00071991097 -1.5977433e-15)
(459.9604 -0.0066966879 -1.4490755e-15)
(459.97437 0.014041693 6.4256795e-16)
(459.95526 -0.016236922 -8.8221218e-16)
(459.97474 0.021049419 1.2049223e-15)
(459.96166 -0.019633152 8.7960626e-16)
(459.96975 0.017015113 8.3036318e-16)
(459.96544 -0.014718871 9.4345552e-16)
(459.96313 0.0078607377 6.4510674e-16)
(459.96958 -0.0013680122 2.5475423e-15)
(459.96324 -0.0034724716 2.7553502e-15)
(459.97253 0.0085413024 6.9711294e-16)
(459.96354 -0.012228847 -1.6425707e-15)
(459.97086 0.013469859 -1.1146031e-15)
(459.97156 -0.014785566 -1.2583901e-15)
(459.97636 0.0090292124 3.3377585e-16)
(459.98171 -0.00099987313 8.7515176e-16)
(459.98664 -0.0020352577 5.0438127e-16)
(459.97879 0.0030634895 2.1732964e-15)
(459.97489 -0.0069837344 8.5452832e-16)
(459.96817 0.0025359228 7.6023651e-16)
(459.98052 0.0021302724 7.2264323e-16)
(459.97877 0.00058720135 -7.6928738e-16)
(459.97448 0.0028492025 5.7281233e-16)
(459.98402 0.0025356939 4.9700965e-16)
(459.97105 -0.0022916129 1.4662657e-16)
(459.95649 -0.0058696267 3.0607783e-16)
(459.94894 -0.0036016653 7.1581148e-16)
(459.95142 0.010854916 1.9626431e-15)
(459.96746 0.00040200013 -6.712222e-17)
(459.95118 -0.0073043355 -7.6573965e-16)
(459.95959 -0.0010501371 -1.2925465e-15)
(459.93943 0.0058764205 1.5169132e-16)
(459.95734 -0.0011583642 1.702811e-16)
(459.95159 -0.00031545745 5.4783497e-16)
(459.96883 -0.0031198323 5.2992858e-16)
(459.95593 -0.00065462679 -1.1579573e-15)
(459.96861 0.0039443129 -1.2946295e-15)
(459.96975 0.0051084917 3.0236903e-16)
(459.98471 -0.0092382605 2.0420069e-15)
(459.96583 -0.0038234166 4.8032003e-16)
(459.98773 0.0012174753 1.7518885e-15)
(459.97828 0.0016778955 -1.598785e-17)
(460.01505 0.0027418034 2.3378432e-17)
(459.96941 0.0069854981 -9.1020534e-17)
(459.97716 -0.0085581878 8.5272134e-17)
(459.95075 -0.00057544187 7.2399518e-17)
(459.95887 -0.0066552817 8.9378767e-17)
(459.95058 0.0066052775 6.0111065e-17)
(459.95959 -0.0057422344 1.8958644e-16)
(459.94502 0.0086462272 1.4248107e-16)
(459.95601 -0.0071062929 2.5635883e-16)
(459.93801 0.0036688935 2.1362449e-16)
(459.95701 0.0011194168 2.0529394e-16)
(459.95238 -0.007776588 1.4076509e-16)
(459.95417 0.011698105 -6.1857403e-16)
(459.96231 -0.016449478 1.085575e-16)
(459.948 0.019602331 -9.9606191e-16)
(459.96121 -0.020085947 2.892587e-16)
(459.94853 0.019455008 3.788878e-16)
(459.95604 -0.018366662 1.9412656e-16)
(459.94234 0.016037286 4.1115073e-16)
(459.9668 -0.011988078 9.2620768e-17)
(459.93529 0.0061417193 3.2884676e-16)
(459.97842 -8.8797556e-05 4.3098608e-17)
(459.93699 -0.0094371078 1.1802997e-15)
(459.97691 0.016703405 1.7837329e-16)
(459.95341 -0.021853959 4.0862091e-16)
(459.9599 0.024092351 -6.2382148e-16)
(459.96925 -0.024423025 -5.4056364e-16)
(459.95204 0.020006594 1.4453308e-15)
(459.97631 -0.016288076 2.5847308e-16)
(459.95679 0.012317953 1.0240863e-16)
(459.97443 -0.0017173324 5.1592583e-16)
(459.95611 -0.0077501824 1.8672201e-16)
(459.97061 0.012383183 1.7883303e-16)
(459.96147 -0.019907747 -4.4253372e-17)
(459.97302 0.021997877 1.1154134e-16)
(459.95585 -0.023940375 2.5140846e-16)
(459.9742 0.028714977 -4.679468e-16)
(459.96091 -0.025375715 -2.1477111e-17)
(459.9696 0.020143273 8.2887307e-17)
(459.96328 -0.012737691 3.4359842e-17)
(459.96299 0.0032565633 -5.8254122e-16)
(459.96627 0.0039217432 1.6546993e-16)
(459.96212 -0.010329102 3.0386306e-16)
(459.96919 0.012592782 2.1507964e-16)
(459.96181 -0.013800512 -4.8961716e-16)
(459.9684 0.012499879 1.0205916e-16)
(459.96879 -0.010240841 -4.0799867e-16)
(459.97588 0.0054519582 1.3563974e-18)
(459.97768 -0.0029816308 -2.0150323e-17)
(459.98481 -0.00048504169 1.137243e-16)
(459.97454 0.0022981628 -2.8858758e-16)
(459.97198 -0.0045179922 1.2017844e-16)
(459.9651 0.0027201131 -4.0595481e-16)
(459.97727 0.00035767914 2.2110949e-16)
(459.97529 0.0016248153 2.4122063e-16)
(459.97202 0.00042657495 3.1089367e-16)
(459.98057 0.0076282062 1.4977443e-16)
(459.96753 -0.0019177023 4.3788169e-17)
(459.95325 -0.0048513443 -4.8593462e-16)
(459.94735 -0.007144608 3.3213284e-16)
(459.94742 0.011920488 2.0770569e-16)
(459.96013 0.002027422 1.1833516e-16)
(459.94482 -0.0065062132 2.3830759e-16)
(459.95415 -0.0032326712 -4.7802036e-16)
(459.93208 0.0049067565 1.6175996e-17)
(459.94885 0.00069637579 -4.8323484e-16)
(459.94404 0.0034531335 3.4025323e-16)
(459.96118 -0.0062065648 3.3115889e-16)
(459.95039 -0.0034141848 2.7370192e-16)
(459.96255 0.002921773 7.4780967e-16)
(459.96319 0.0060431598 -6.5267848e-16)
(459.97811 -0.0056147836 1.6438357e-16)
(459.96299 -0.0039127438 2.0463785e-16)
(459.9835 0.00078736938 1.8015898e-16)
(459.95997 0.0030071122 5.3848742e-17)
(460.02932 -0.00039492302 -8.8210504e-16)
(459.95389 0.017184459 3.398099e-18)
(459.98649 -0.016795193 4.7402255e-17)
(459.93979 0.0092894176 1.1707931e-16)
(459.96746 -0.016865697 6.7518766e-16)
(459.9416 0.015409992 2.6196205e-17)
(459.96591 -0.01094122 -4.242486e-17)
(459.93779 0.010414997 -1.015611e-17)
(459.95864 -0.0037296432 -1.1452961e-16)
(459.93356 -0.0050040846 5.2302462e-17)
(459.9565 0.011815874 -5.9842742e-16)
(459.94946 -0.020255434 -7.0166905e-16)
(459.95262 0.02596501 5.5082396e-16)
(459.96086 -0.032195531 8.1624052e-16)
(459.94714 0.03628522 -7.6513801e-16)
(459.96095 -0.0365782 6.3201316e-16)
(459.94876 0.033136467 -1.7148411e-16)
(459.95659 -0.027293967 -1.0445952e-16)
(459.94172 0.019019983 -7.725968e-17)
(459.96712 -0.0095943803 6.3728082e-17)
(459.93286 -0.0012080919 3.8341138e-16)
(459.97782 0.010603891 6.1933773e-16)
(459.93435 -0.023495004 2.9550428e-17)
(459.97736 0.031326172 1.030388e-16)
(459.95098 -0.037970304 1.3493288e-17)
(459.96256 0.040070882 -5.2551579e-16)
(459.96728 -0.037456944 -4.0464382e-17)
(459.95547 0.028422024 -4.0776163e-16)
(459.97494 -0.020106824 3.9110737e-16)
(459.95942 0.0086254867 -1.5555414e-17)
(459.97089 0.0064278467 -3.95093e-17)
(459.95675 -0.015559047 -3.7149011e-16)
(459.96813 0.02127215 1.5151746e-17)
(459.9612 -0.030108465 1.2460968e-17)
(459.9727 0.029629604 -2.1322292e-17)
(459.95623 -0.033997131 -3.9212928e-16)
(459.9745 0.039917146 -4.9989702e-16)
(459.9587 -0.0341041 6.5044317e-17)
(459.97032 0.026651722 -1.6143307e-16)
(459.9572 -0.014193604 1.2677016e-16)
(459.96091 0.0030796014 -1.5482049e-17)
(459.95766 0.0055618924 -3.4554924e-16)
(459.95645 -0.013459017 8.8546414e-17)
(459.9608 0.013275688 -4.5756429e-17)
(459.95438 -0.011990911 -2.0735828e-17)
(459.9617 0.010020461 5.033473e-16)
(459.96123 -0.0083481877 3.194589e-16)
(459.97017 0.0044661566 -3.6436762e-16)
(459.97033 -0.0036958523 -6.2564588e-17)
(459.97926 0.0013597143 4.8515506e-16)
(459.96554 -0.003187548 8.9307281e-16)
(459.96421 -0.00072840895 6.2293362e-17)
(459.95534 0.0031649518 -4.0224195e-17)
(459.96799 -0.00098350527 -1.4591329e-16)
(459.9653 0.0032208343 2.1159361e-16)
(459.96376 -0.0011531861 -7.5246778e-16)
(459.97144 0.011535261 1.9070874e-16)
(459.95668 -0.0034862955 1.0634129e-17)
(459.94296 -0.0021508631 -4.3414834e-16)
(459.93848 -0.0079998291 -3.246444e-16)
(459.93677 0.011662387 -2.7897052e-16)
(459.94378 0.002208721 3.5940494e-17)
(459.92844 -0.0035043963 3.7265345e-17)
(459.93817 -0.0038966315 -2.4033921e-16)
(459.91534 0.0017862583 -6.1187123e-16)
(459.93068 -0.0010872398 -7.4940404e-17)
(459.9265 0.0064018574 -8.7054539e-17)
(459.94293 -0.0057081222 -2.2691107e-17)
(459.9386 -0.0032308012 -6.4516668e-18)
(459.94995 0.0012331785 2.0944026e-17)
(459.95323 0.0035327456 2.4437125e-17)
(459.96623 -0.0058807682 9.3441562e-17)
(459.95649 -0.0042916418 4.513104e-16)
(459.97546 0.0016727272 3.8795427e-16)
(459.89636 0.0032663838 5.9939998e-18)
(460.0787 0.0022469271 -3.9697495e-17)
(459.89964 0.019908533 -7.1233855e-16)
(460.02631 -0.018714982 -4.9037736e-16)
(459.89565 0.015702348 7.6899656e-17)
(460.00488 -0.023334142 -4.6784577e-16)
(459.90602 0.021657703 7.7210246e-19)
(459.99854 -0.010870851 -4.6823998e-17)
(459.9084 0.0084881773 1.2500837e-16)
(459.98426 0.0016483648 -4.4624773e-16)
(459.90918 -0.011201537 -4.2270063e-16)
(459.9748 0.018193141 4.0644558e-16)
(459.9295 -0.027604629 4.1020435e-16)
(459.96563 0.035733883 5.3480088e-16)
(459.94655 -0.044148101 5.4072056e-16)
(459.95984 0.049909181 -5.6444284e-18)
(459.95211 -0.049193542 -2.3125278e-17)
(459.96359 0.04271495 -3.3593405e-19)
(459.9521 -0.034359264 -5.4014322e-16)
(459.955 0.022920827 1.774095e-17)
(459.96442 -0.0090957558 8.3186389e-17)
(459.94124 -0.0048114483 5.3771715e-16)
(459.97546 0.015712821 -1.9391855e-17)
(459.93911 -0.030745627 4.3401055e-17)
(459.97651 0.040057869 2.9627751e-16)
(459.95509 -0.048520702 3.1333859e-17)
(459.9651 0.05028683 -4.4186673e-16)
(459.97065 -0.047969992 1.1928151e-16)
(459.96123 0.039429742 4.269089e-16)
(459.97624 -0.02911092 -3.6987281e-16)
(459.96503 0.017056927 3.699275e-16)
(459.96957 -0.0018672091 1.6423446e-17)
(459.95816 -0.009368557 -1.0453858e-16)
(459.96547 0.019970646 3.6746657e-16)
(459.96061 -0.032337348 2.4241062e-18)
(459.97085 0.034020347 7.0819637e-17)
(459.95544 -0.043404538 2.6375919e-17)
(459.97296 0.050593109 -3.2923538e-16)
(459.95297 -0.042809786 3.1105394e-16)
(459.96841 0.038194543 -3.8197184e-17)
(459.94569 -0.025971251 -3.4049674e-17)
(459.95382 0.014326449 1.6810905e-17)
(459.94155 -0.0023166681 -1.3637261e-17)
(459.94345 -0.007793807 3.7061156e-17)
(459.94418 0.007492017 -4.5074453e-17)
(459.93876 -0.0075077716 -2.799642e-17)
(459.94578 0.0078914056 5.3627491e-18)
(459.94666 -0.0083597931 -8.4439796e-18)
(459.95693 0.0057797739 -2.0143901e-17)
(459.95657 -0.0051928933 4.0101251e-16)
(459.96553 0.0065845468 -2.7942327e-18)
(459.95061 -0.011425118 -2.7093944e-17)
(459.94982 0.00047600176 2.5675531e-16)
(459.93774 0.0037861581 1.5321181e-17)
(459.9499 -0.000289461 3.3714299e-17)
(459.94661 0.0042818685 2.9700312e-17)
(459.94593 -0.00054434777 -3.8189439e-16)
(459.95298 0.012685632 6.3513317e-17)
(459.93718 -0.0055007761 2.7000701e-16)
(459.92536 0.00018196512 -4.669411e-17)
(459.92214 -0.0068361741 7.5606332e-17)
(459.91963 0.012919997 -3.5866458e-17)
(459.92284 0.0024080188 -2.8942308e-16)
(459.90737 -0.00042539291 -2.3152804e-16)
(459.91696 -0.0023973957 2.9846616e-16)
(459.89417 -0.0013294569 2.8018227e-17)
(459.90973 -0.0051930633 1.8515696e-16)
(459.90762 0.0067699497 -2.8996988e-17)
(459.92237 -0.0063596869 -2.6907301e-16)
(459.9257 -0.00079640937 -2.6936381e-16)
(459.93545 -0.00045292569 2.4484324e-16)
(459.94403 -0.0009192806 -3.034988e-17)
(459.95497 -0.0084368236 2.0131062e-17)
(459.95205 -0.0059511635 4.1266803e-17)
(459.96788 0.0021659456 -2.3204557e-16)
(459.74987 0.0029919542 -2.0964078e-17)
(460.20465 0.0076427743 6.1986174e-17)
(459.76567 0.015880842 2.1386885e-16)
(460.14324 -0.011488596 -6.556611e-17)
(459.77554 0.0069020478 1.1184824e-17)
(460.12127 -0.011152632 -1.6049174e-17)
(459.80112 0.0091360987 -5.1895179e-17)
(460.10767 0.003257003 -4.8638043e-16)
(459.81778 -0.0033351168 2.2052501e-17)
(460.07894 0.011800931 -6.3708986e-17)
(459.83105 -0.020033885 -5.0651383e-16)
(460.05331 0.02671587 2.0790542e-17)
(459.86156 -0.035921415 4.5141832e-17)
(460.03275 0.042623047 -1.6693294e-17)
(459.88894 -0.04888106 -3.8478906e-17)
(460.02293 0.05004307 2.7970653e-17)
(459.90595 -0.044961045 4.1505284e-16)
(460.02403 0.03542837 3.3280183e-17)
(459.91904 -0.026274594 4.8971856e-17)
(460.00855 0.015045728 3.4102769e-16)
(459.9396 -0.00098013809 2.8885135e-16)
(459.98454 -0.01020173 -1.0195852e-16)
(459.95349 0.019892513 1.0125462e-16)
(459.97312 -0.03487876 7.7903426e-18)
(459.95572 0.04389752 -2.5597581e-17)
(459.98022 -0.051810952 3.1228194e-16)
(459.94905 0.054143557 -1.5007534e-17)
(459.98775 -0.054251899 -2.6031483e-17)
(459.95115 0.046941272 7.1972279e-17)
(459.98583 -0.038653801 -3.6702721e-16)
(459.95779 0.031059375 1.5353159e-16)
(459.97108 -0.012622467 4.2848181e-16)
(459.94954 -0.0012785882 3.6486796e-16)
(459.96011 0.014236909 -4.3905388e-16)
(459.94771 -0.028013219 -2.3893829e-16)
(459.96174 0.030604918 -3.2040872e-16)
(459.94015 -0.044257467 -2.7826273e-16)
(459.96234 0.055236099 -8.2677756e-18)
(459.93304 -0.049547273 6.0978763e-17)
(459.95654 0.053717198 5.3929244e-17)
(459.92306 -0.043527313 2.0949858e-18)
(459.94039 0.0330515 2.7035956e-16)
(459.91668 -0.017680233 7.7275852e-18)
(459.92577 0.0055537007 2.1121957e-16)
(459.92046 -0.0044118752 -2.2385299e-16)
(459.91931 -0.0011227206 2.7314213e-18)
(459.92229 0.0031167873 2.7728056e-16)
(459.92795 -0.0052115827 2.7956344e-16)
(459.93585 0.0080106377 2.8035852e-16)
(459.94061 -0.010053708 -2.7915094e-16)
(459.94539 0.013620567 2.5018222e-16)
(459.93449 -0.016597018 2.2715014e-16)
(459.93355 0.00073858086 1.0311441e-17)
(459.92242 0.002253823 2.4313227e-16)
(459.93139 0.0012558992 -1.2846311e-17)
(459.93067 0.0035981517 -1.9174356e-16)
(459.92951 0.0014185153 -1.7642253e-16)
(459.93803 0.01139703 2.4359392e-16)
(459.92231 -0.0058303707 6.4902709e-17)
(459.91531 0.0014662808 2.3199404e-16)
(459.91552 -0.0047428995 -3.0114452e-17)
(459.9153 0.01320196 6.2007491e-18)
(459.91698 0.00421821 2.1299591e-16)
(459.90408 0.0028392451 2.0808036e-18)
(459.91334 -0.001327455 1.6926185e-16)
(459.89138 -0.00039107479 -2.4797685e-16)
(459.90634 -0.0056711602 1.1809702e-17)
(459.90535 0.0046846372 5.5460865e-17)
(459.91576 -0.0106014 -1.5068538e-16)
(459.92434 -0.00033292458 7.3872553e-18)
(459.92879 -0.0022211142 6.896819e-17)
(459.94073 -0.0049573715 2.2856859e-16)
(459.94818 -0.010597848 -1.9631405e-16)
(459.95028 -0.0073048223 6.7680924e-18)
(459.96203 0.0022984309 1.0546794e-17)
(459.58577 0.0033336755 2.3255857e-17)
(460.37093 0.012323815 -2.8325315e-16)
(459.5905 0.0084114969 4.5089564e-17)
(460.3238 -0.0030186942 -7.3551664e-17)
(459.5918 -0.0085263471 -7.0025386e-17)
(460.3215 0.0059607866 3.8943288e-16)
(459.61338 -0.010332177 -1.8126266e-16)
(460.31361 0.021575781 -1.7357237e-16)
(459.63484 -0.020651419 3.2267661e-17)
(460.2748 0.026789224 4.2579004e-16)
(459.65777 -0.033533103 -4.0564348e-16)
(460.23422 0.037638777 3.3701045e-16)
(459.6952 -0.041056227 -1.8268246e-17)
(460.2024 0.041076554 -3.5993599e-16)
(459.7289 -0.041630258 -3.9979416e-17)
(460.18253 0.03618337 6.5017967e-17)
(459.75819 -0.029762571 3.5433475e-17)
(460.16835 0.019046288 7.3559298e-17)
(459.79104 -0.010159241 -2.1975125e-17)
(460.13571 0.00083653846 6.4008479e-17)
(459.82789 0.010565151 3.5184391e-16)
(460.09473 -0.016586724 -4.0373499e-17)
(459.85018 0.022955635 4.4704714e-17)
(460.06598 -0.033310269 3.5393818e-17)
(459.85703 0.038180094 -2.43376e-17)
(460.05158 -0.045043331 1.2133509e-16)
(459.85825 0.050061949 2.8092624e-16)
(460.03697 -0.050787944 -4.3748433e-17)
(459.87442 0.042689395 -2.7676062e-16)
(460.01736 -0.038315747 6.0434447e-17)
(459.89371 0.034235422 6.3719079e-17)
(459.98761 -0.014951581 -2.553027e-16)
(459.89133 0.0093747746 3.4245654e-18)
(459.96652 0.00044465233 -1.9724504e-17)
(459.89075 -0.012230364 3.1795252e-16)
(459.95994 0.013163121 5.2965441e-17)
(459.88787 -0.030982907 3.4399106e-17)
(459.95671 0.047664693 7.5212449e-17)
(459.88603 -0.047331941 2.7676621e-16)
(459.95253 0.060769491 -2.2116062e-16)
(459.88486 -0.053266468 -2.4122007e-16)
(459.94206 0.049455216 2.7984702e-17)
(459.88772 -0.035178447 5.3413192e-17)
(459.92908 0.0235002 2.5420701e-16)
(459.89918 -0.021952952 1.836003e-17)
(459.92328 0.0096179334 3.2721973e-16)
(459.90383 -0.009211483 3.8400422e-17)
(459.93169 0.0030850332 -1.0368798e-17)
(459.91891 0.0074683917 7.2250023e-17)
(459.94537 -0.010441641 9.1897718e-18)
(459.93308 0.014680673 1.8069312e-16)
(459.93997 -0.018414956 7.6340414e-17)
(459.92937 0.0039369869 -1.1268629e-16)
(459.93291 -0.00029076509 3.2220654e-17)
(459.93033 0.0013453111 1.8287123e-16)
(459.94306 0.00097783809 -1.3389052e-16)
(459.93323 0.0042602974 8.1963609e-17)
(459.95092 0.0064001218 2.0732241e-16)
(459.92907 -0.009547859 3.4434423e-17)
(459.93239 0.0034028272 -1.1642449e-16)
(459.92973 -0.00012273572 -1.2067898e-16)
(459.93704 0.010532008 4.118286e-17)
(459.93252 0.0034666319 2.5463158e-16)
(459.92555 0.0080685131 6.4510019e-17)
(459.92767 -0.003003574 -3.4018317e-16)
(459.90915 0.0034880181 1.3518029e-16)
(459.91326 -0.000205588 -1.6467985e-16)
(459.91254 -0.00015950319 1.3010249e-16)
(459.91052 -0.011667939 2.2542523e-16)
(459.9199 0.00040039085 2.7565809e-17)
(459.91144 -0.0063577796 3.8182969e-17)
(459.92098 -0.0083875109 6.7245176e-17)
(459.92166 -0.013570004 4.8452405e-17)
(459.9248 -0.0084685241 -1.2079498e-16)
(459.93066 0.0034439806 5.3688219e-17)
(459.61182 0.0041895256 1.3961638e-17)
(460.35956 0.016002243 -2.4975288e-16)
(459.58237 0.0001686449 1.1384803e-17)
(460.34464 0.0028283352 2.2262818e-16)
(459.53624 -0.021684654 -1.3076293e-17)
(460.39041 0.019153131 7.4074409e-18)
(459.50132 -0.025609713 5.3546594e-18)
(460.43076 0.03687811 -3.4087711e-18)
(459.47503 -0.036497586 -1.5630824e-16)
(460.431 0.042331106 2.0514444e-16)
(459.46202 -0.048301214 4.8215393e-17)
(460.42254 0.049535897 2.9805288e-17)
(459.46559 -0.04704277 3.9620739e-16)
(460.4158 0.043188312 -3.294497e-16)
(459.47021 -0.04138197 4.3540461e-17)
(460.40698 0.032734563 -1.734106e-17)
(459.48496 -0.027412499 4.0799954e-17)
(460.38909 0.013164058 1.4013217e-18)
(459.51984 -0.0035752934 -2.5416704e-16)
(460.35103 -0.0052232835 3.5247708e-17)
(459.56238 0.015018054 5.1351853e-17)
(460.30875 -0.018122074 1.0153812e-16)
(459.5913 0.021777207 4.7032643e-17)
(460.27221 -0.027730628 1.4814836e-17)
(459.61075 0.029585373 -1.7662684e-16)
(460.23537 -0.033808144 2.8944241e-16)
(459.63467 0.038632479 1.5099091e-17)
(460.18864 -0.037394084 -1.5905841e-16)
(459.68211 0.032954791 -1.7857426e-16)
(460.14488 -0.037326455 -1.7636542e-16)
(459.72951 0.039943426 3.7155342e-16)
(460.09915 -0.026885061 4.614634e-17)
(459.74823 0.032636001 2.2349412e-17)
(460.06696 -0.022678304 -8.4087304e-18)
(459.76891 0.013208178 3.5440703e-17)
(460.05095 -0.01496989 -1.5718016e-16)
(459.79059 -0.0057378518 2.2747363e-16)
(460.04077 0.023746424 2.3843109e-16)
(459.81031 -0.028548009 2.4116997e-17)
(460.03365 0.04681338 6.4723583e-17)
(459.83121 -0.049187711 3.0271331e-17)
(460.02295 0.055962637 -1.4080702e-16)
(459.85176 -0.04885162 2.6432083e-16)
(460.00679 0.042942075 2.2589727e-16)
(459.87387 -0.04485038 8.5866938e-19)
(459.99523 0.026645961 2.3178051e-16)
(459.8827 -0.033510658 2.7532677e-17)
(459.99427 0.021685602 1.7658735e-16)
(459.89768 -0.0046748196 2.1963654e-16)
(459.9956 0.0016666927 -1.7299872e-16)
(459.91342 0.0067555175 6.134027e-17)
(459.98091 -0.016985424 4.7389345e-17)
(459.91384 0.0062267074 2.2140229e-17)
(459.96755 -0.0001726725 1.9602704e-16)
(459.9118 0.00093147022 -1.3426076e-16)
(459.96989 0.0003972825 -1.4158341e-16)
(459.91065 0.0066666879 2.0806785e-17)
(459.96161 -0.0014473191 1.3410512e-17)
(459.89829 -0.01876684 5.7093288e-17)
(459.93025 0.0045010371 -1.1279722e-16)
(459.88731 0.0036045856 3.7340275e-17)
(459.91547 0.0078487967 6.0635159e-17)
(459.87509 0.0022225119 -1.3547912e-16)
(459.88489 0.014917786 -7.1222539e-18)
(459.85088 -0.0064731105 3.969684e-17)
(459.84792 0.0091648927 1.3080914e-16)
(459.81215 0.0040887114 -1.2443774e-16)
(459.82078 -0.0034494902 1.5660643e-16)
(459.78425 -0.0049457042 -1.2501528e-16)
(459.79758 0.0050139799 -8.645316e-17)
(459.75567 -0.012023825 6.7554803e-17)
(459.76606 -0.012697817 5.1284114e-17)
(459.74084 -0.015759828 -1.3832547e-16)
(459.74717 -0.011033739 -9.8760043e-19)
(459.72862 0.003160916 1.5837472e-16)
(459.74274 0.0058410718 2.7567867e-18)
(460.1249 0.021651414 -1.8659247e-16)
(459.78928 -0.0068826919 2.2494892e-16)
(460.03591 0.0076854574 3.4415373e-17)
(459.78292 -0.029741059 -1.2131183e-16)
(460.05516 0.030655326 2.8293496e-17)
(459.73827 -0.036406792 4.0625926e-17)
(460.12533 0.049688213 5.4891225e-17)
(459.66284 -0.048715297 2.4495258e-16)
(460.19904 0.053764691 3.754869e-17)
(459.58029 -0.059442373 2.2677131e-16)
(460.28263 0.05968683 2.0779047e-17)
(459.5029 -0.057106557 1.1210627e-16)
(460.36746 0.055279166 -1.4380454e-16)
(459.42253 -0.053339206 7.4497888e-17)
(460.44273 0.043083146 2.2735536e-17)
(459.35761 -0.036454756 8.2044881e-17)
(460.50204 0.017568812 6.8091449e-17)
(459.32375 -0.0060668117 -1.8347362e-16)
(460.54383 -0.0042436308 2.5652816e-17)
(459.30121 0.014308414 3.0935521e-17)
(460.58506 -0.01637104 3.4929481e-16)
(459.28071 0.019465013 2.6979331e-17)
(460.60779 -0.024086742 -2.0439045e-16)
(459.28474 0.024358372 -1.187422e-16)
(460.58694 -0.025513896 2.3094415e-17)
(459.32392 0.033045635 1.6559095e-17)
(460.52898 -0.035032736 2.8501422e-16)
(459.39737 0.038162487 2.8845964e-16)
(460.47462 -0.050210087 -2.7374203e-16)
(459.4665 0.055062329 -1.6407535e-18)
(460.42121 -0.043848189 2.4479694e-17)
(459.50443 0.053042762 2.4377077e-17)
(460.37714 -0.043573913 -1.6268448e-16)
(459.55105 0.037853747 4.2267937e-17)
(460.34252 -0.044158965 -2.07695e-16)
(459.6046 0.02266671 1.999142e-17)
(460.30413 -0.0067996245 -1.3209997e-16)
(459.64829 0.00066593761 1.9141187e-17)
(460.26223 0.019226053 3.9668589e-16)
(459.68815 -0.035383304 5.7572311e-17)
(460.21566 0.051787804 3.6908068e-17)
(459.71652 -0.055823328 4.3678027e-17)
(460.16234 0.062199688 1.8188349e-16)
(459.73454 -0.067123284 -2.3346737e-16)
(460.11571 0.045350932 4.553576e-17)
(459.73522 -0.064229064 -1.1130901e-16)
(460.07607 0.046725857 4.2652713e-17)
(459.73584 -0.030948977 1.2539596e-17)
(460.03005 0.029407537 3.3694968e-17)
(459.73349 -0.012264839 -5.2373583e-19)
(459.96956 -0.005198034 -1.0735812e-16)
(459.71247 0.0045455812 3.7072088e-18)
(459.90821 0.0018888427 3.9044133e-17)
(459.67398 0.0025207962 -2.0145436e-17)
(459.8585 0.006470133 2.2431261e-17)
(459.63132 0.012353662 -1.3074985e-16)
(459.78442 -0.0093862164 -1.0704385e-16)
(459.57424 -0.022917636 1.6622873e-16)
(459.69129 0.0074859918 -1.1463934e-18)
(459.50742 0.0031323916 2.0003038e-16)
(459.60129 0.0054179584 -1.1822407e-16)
(459.4362 0.004683167 -3.7887911e-17)
(459.49872 0.025197517 3.4742603e-17)
(459.34603 -0.0092437061 -1.3764826e-16)
(459.3907 0.027818903 -1.6919848e-16)
(459.23535 -0.00013866177 1.889552e-18)
(459.28159 -0.0034279084 -1.3699669e-16)
(459.13567 0.0080008227 -1.135333e-16)
(459.17053 0.009477849 -7.8098458e-17)
(459.02267 -0.015537722 2.6271228e-17)
(459.0506 -0.013255031 1.4760557e-16)
(458.92717 -0.016619198 3.5877797e-18)
(458.94565 -0.011049686 6.394612e-18)
(458.83098 0.0017899021 1.4440702e-16)
(459.29174 0.010809234 3.3321016e-18)
(460.34063 0.025633695 1.8613966e-16)
(459.60094 -0.0092120406 -4.6370004e-17)
(460.00228 0.0085116603 7.804515e-17)
(459.87077 -0.029614698 1.0238848e-16)
(459.77939 0.034764367 -1.3180425e-16)
(460.07154 -0.037962768 5.4042023e-17)
(459.66173 0.051764082 6.1083377e-17)
(460.16829 -0.050902493 1.1399525e-16)
(459.6335 0.053603757 1.7570389e-16)
(460.18331 -0.061345592 -1.2045804e-16)
(459.68207 0.062512159 2.400711e-17)
(460.1469 -0.062098013 2.3283407e-16)
(459.77822 0.061966337 1.3352175e-16)
(460.05485 -0.058866566 4.7739026e-17)
(459.91341 0.049125919 4.0411622e-17)
(459.9222 -0.043574759 -1.3059843e-17)
(460.08554 0.024947654 -1.3029551e-16)
(459.76718 -0.014385566 2.9788015e-16)
(460.28946 0.0046119812 -1.3497661e-17)
(459.58021 0.0023586968 1.8577765e-17)
(460.52061 -0.0041356681 -9.4886386e-18)
(459.3849 0.0084016436 1.2985282e-17)
(460.7127 -0.014638601 -4.2590401e-18)
(459.25144 0.01610825 2.5385864e-16)
(460.80439 -0.021508176 -2.0376111e-17)
(459.19548 0.036567326 -2.0657159e-16)
(460.8186 -0.040546907 2.5642732e-16)
(459.19013 0.043423276 5.5759794e-17)
(460.82478 -0.056913924 -2.2322592e-16)
(459.17857 0.057679949 3.6974223e-17)
(460.81978 -0.047064989 3.5364122e-18)
(459.14449 0.061824919 1.649909e-16)
(460.79363 -0.05759294 -3.1920027e-17)
(459.14822 0.055037168 -1.4032202e-16)
(460.73964 -0.062399211 -2.3224312e-16)
(459.18471 0.040580544 4.0262737e-17)
(460.6482 -0.028525428 2.0184716e-16)
(459.2129 0.029386777 1.4794853e-17)
(460.52578 -0.0095146636 -1.3975094e-17)
(459.23739 -0.0087590624 1.0124592e-17)
(460.38811 0.032440366 1.7183346e-17)
(459.23891 -0.045187851 4.8191456e-17)
(460.23703 0.067168745 3.7648215e-18)
(459.20797 -0.068305023 1.2645791e-17)
(460.09432 0.051559143 -2.5435541e-17)
(459.14976 -0.083344168 5.0491965e-17)
(459.94892 0.067978849 -1.1878356e-17)
(459.0804 -0.064883834 -1.4251554e-16)
(459.77516 0.06756788 1.3159729e-17)
(458.99292 -0.040460205 6.8059096e-17)
(459.5811 0.019270183 1.5112417e-16)
(458.87183 0.0034822492 -1.5199283e-16)
(459.37233 0.009064024 -3.7569381e-17)
(458.70811 0.0038567972 -4.2669721e-19)
(459.16313 0.020826923 1.5014044e-17)
(458.52334 0.021105555 -1.4102394e-16)
(458.90584 -0.013100225 -1.4302141e-16)
(458.32202 -0.017147081 -1.4121864e-16)
(458.62926 0.01549186 2.2486789e-17)
(458.08441 0.0014002501 1.7891554e-17)
(458.33527 0.0031029786 -3.7345914e-18)
(457.83784 0.011137015 -1.5214028e-16)
(458.02803 0.033036846 -1.4241059e-16)
(457.55712 -0.0074526325 -2.5319273e-17)
(457.71237 0.065796899 1.8283622e-19)
(457.24066 -0.0066176417 -2.7578333e-18)
(457.37597 0.01013009 -1.6631576e-16)
(456.9388 0.025340005 -1.5745165e-16)
(457.01959 0.016448201 2.3945538e-17)
(456.59863 -0.011601416 2.9415209e-19)
(456.66155 -0.00023576887 -1.5612633e-16)
(456.28043 -0.0092274053 -1.0211299e-17)
(456.31963 0.00049176836 2.625565e-18)
(455.95625 0.010007516 -1.1896202e-17)
(458.17169 0.012865813 -8.2895821e-17)
(461.46196 0.027830423 -1.3723494e-16)
(458.57445 -0.011363424 -1.8164966e-16)
(461.02491 0.005291373 -2.4587905e-16)
(459.05559 -0.025805664 1.0879885e-16)
(460.575 0.030676633 -7.2155701e-17)
(459.57238 -0.032113804 -1.1018991e-16)
(460.12832 0.043919965 1.5757612e-16)
(460.03354 -0.044488265 1.6166828e-16)
(459.7455 0.044995496 -2.0302972e-16)
(460.41002 -0.055175097 -2.5054578e-17)
(459.45315 0.056557854 -1.4734989e-17)
(460.70813 -0.055135322 1.5301246e-16)
(459.23942 0.054747174 7.403396e-17)
(460.89839 -0.052679019 3.9671603e-17)
(459.12103 0.047952749 1.2482942e-17)
(460.963 -0.048607658 4.3168663e-17)
(459.13023 0.034996444 -4.2477227e-17)
(460.89012 -0.028630167 -6.1033927e-18)
(459.28483 0.024342988 -3.6556731e-18)
(460.66607 -0.025163938 6.9238283e-17)
(459.56507 0.023736271 -6.7034991e-18)
(460.33713 -0.015845608 6.1341804e-17)
(459.87405 0.0051977013 1.4070505e-18)
(460.02033 0.0015350245 -1.4360095e-16)
(460.11092 -0.012354031 2.3285201e-17)
(459.75554 0.030043967 4.3597808e-17)
(460.28518 -0.028358466 2.2345315e-16)
(459.50943 0.030661826 6.0296109e-17)
(460.47009 -0.046738957 2.7309767e-17)
(459.23011 0.049657678 5.7641652e-17)
(460.63595 -0.041342145 -1.6867516e-17)
(458.93103 0.063657698 -1.6695702e-16)
(460.72971 -0.057398131 2.0670669e-16)
(458.70103 0.058860853 3.7866177e-17)
(460.73124 -0.063158137 1.2085107e-17)
(458.53633 0.050017484 1.7943554e-17)
(460.62383 -0.04196532 3.2712475e-17)
(458.38414 0.059564165 2.2203459e-16)
(460.40047 -0.04519522 -3.1141348e-17)
(458.2441 0.045387013 -2.7030927e-19)
(460.1065 -0.012979339 1.6816926e-16)
(458.07657 0.0057111696 6.3188453e-18)
(459.75675 0.040290242 7.1329091e-18)
(457.84466 -0.028262079 -1.4386113e-17)
(459.38227 0.035403391 2.1402976e-17)
(457.55814 -0.073341701 1.7640311e-16)
(458.97353 0.073798225 9.669432e-17)
(457.23071 -0.080518983 1.1155693e-17)
(458.4904 0.0939146 -2.8987227e-16)
(456.87112 -0.064097839 -1.9968567e-16)
(457.96065 0.050187799 -3.4941957e-17)
(456.46194 0.00085704674 1.7388427e-16)
(457.38765 0.025739971 -2.5398758e-17)
(455.97092 0.0047885076 1.2054438e-17)
(456.80016 0.039506783 5.7608651e-17)
(455.42413 0.025664746 -1.6099875e-16)
(456.12508 -0.0087749581 -1.9790227e-16)
(454.84731 -0.0042389208 1.2976979e-16)
(455.41501 0.016663515 1.5203687e-16)
(454.17467 -0.0038896011 -2.3286207e-16)
(454.70881 -0.0013042219 -2.0134621e-16)
(453.53583 0.015471467 -1.4816836e-16)
(454.01565 0.024328203 6.5615515e-17)
(452.87201 -0.0060009831 2.0130036e-18)
(453.32199 0.099382895 -3.157549e-17)
(452.16252 -0.021393135 5.7577413e-18)
(452.55863 0.052054576 -9.1615091e-17)
(451.49001 0.028632171 -1.1297819e-16)
(451.7289 0.030882357 4.9343083e-17)