/*--------------------------------*- C++ -*----------------------------------*\
| =========                 |                                                 |
| \\      /  F ield         | OpenFOAM: The Open Source CFD Toolbox           |
|  \\    /   O peration     | Version:  2.3.0                                 |
|   \\  /    A nd           | Web:      www.OpenFOAM.org                      |
|    \\/     M anipulation  |                                                 |
\*---------------------------------------------------------------------------*/
FoamFile
{
    version     2.0;
    format      ascii;
    class       volScalarField;
    location    "0.034";
    object      alpha.water;
}
// * * * * * * * * * * * * * * * * * * * * * * * * * * * * * * * * * * * * * //

dimensions      [0 0 0 0 0 0 0];

internalField   nonuniform List<scalar> 
725
(
1
1
1
1.00003
0.999716
1
1
1
1.00008
0.999599
1
1
1
1.00004
1
1
1
1
1.0001
1
1
1
1
1.00001
0.95131
0.999722
0.999719
0.999501
0.985602
0.985525
0.999431
0.999967
1.00002
1.00002
1.00002
1.00002
1.00004
1.00001
0.865111
0.21211
0.00104168
0.00101308
0.00100701
0.0581258
0.800366
1
1.00005
1.00003
1.00003
1.00003
1.00003
1.00003
1.00003
1.00003
1.00003
1.00003
1.00003
1.00002
1.00002
1.00002
1.00001
0.999984
0.999969
0.999969
0.999981
0.999988
0.999924
1
0.991346
0.31961
0.998238
0.99378
0.985903
0.977794
0.988658
0.999384
0.999804
0.999951
1.00003
1.00002
1.00002
1.00003
1.00001
0.868425
0.209218
0.00103471
0.00100911
0.00100664
0.0589737
0.789934
0.999867
0.999724
0.999794
0.999775
0.999747
0.999727
0.999722
0.999727
0.999741
0.999761
0.999781
0.999811
0.999854
0.999892
0.999912
0.999921
0.999925
0.999931
0.999934
0.999927
0.999883
0.99984
1.00001
0.979924
0.222319
0.989562
0.715178
0.871006
0.97203
0.991353
0.998473
0.999884
0.999883
0.999908
0.999988
1.00003
1.00004
1.00001
0.87019
0.199607
0.00102518
0.00100862
0.0010063
0.0539936
0.784446
0.999788
0.999762
0.999796
0.999784
0.999722
0.999641
0.999556
0.999474
0.999409
0.999367
0.999348
0.999367
0.999438
0.999544
0.999646
0.999728
0.999788
0.999831
0.999849
0.999847
0.999806
0.999763
1.00001
0.901015
0.130015
0.760747
0.363961
0.762434
0.936441
0.992582
0.999908
0.999796
0.999838
0.999851
0.999911
0.999957
1.00004
1.00002
0.872023
0.190312
0.00101548
0.00100765
0.00100613
0.0541566
0.770408
0.999866
0.999815
0.999954
0.999805
0.999752
0.999664
0.999551
0.999424
0.999284
0.999147
0.999032
0.99896
0.998957
0.999031
0.999154
0.999302
0.999443
0.999569
0.99965
0.999695
0.99968
0.999668
1
0.893014
0.18261
0.175863
0.236004
0.634381
0.827735
0.989824
1
1.00002
0.99986
0.999803
0.999831
0.999897
1.00002
1.00001
0.874558
0.178376
0.00100978
0.00100652
0.00100606
0.0517604
0.768289
0.999916
0.999911
0.999835
0.999793
0.999831
0.999788
0.999751
0.999677
0.99955
0.99936
0.99913
0.998909
0.998768
0.998733
0.998798
0.998937
0.999104
0.999278
0.999408
0.9995
0.999516
0.999559
1
0.940888
0.198679
1.33389e-05
0.135601
0.487238
0.739798
0.996882
0.999942
0.999809
0.999822
0.999774
0.999788
0.999858
1.00011
1.00003
0.876715
0.171711
0.0010337
0.00100618
0.00100604
0.0545258
0.762249
0.999517
0.999309
0.999469
0.999563
0.99959
0.999604
0.999545
0.999453
0.999328
0.999161
0.998943
0.998742
0.998617
0.9986
0.998681
0.998829
0.998998
0.999182
0.999296
0.999402
0.999403
0.999525
1.00001
0.950032
0.194165
0.000485208
0.082103
0.410767
0.759634
0.99974
0.999836
0.999754
0.999798
0.999747
0.99975
0.999836
0.999961
1.00002
0.877835
0.169044
0.00100866
0.0010067
0.00100604
0.0553727
0.762316
0.999245
0.999119
0.999491
0.999825
0.99966
0.999628
0.999564
0.999461
0.999311
0.999124
0.998915
0.998725
0.998596
0.998558
0.998617
0.998751
0.998918
0.999097
0.999215
0.999302
0.999312
0.999474
1
0.957491
0.175495
0.00348458
0.00514399
0.305946
0.7689
0.99958
0.999688
0.999693
0.999779
0.999719
0.99971
0.999799
0.999941
1
0.879012
0.166663
0.00101015
0.00101403
0.00100605
0.0569775
0.759858
0.999256
0.999187
0.999422
0.999562
0.999631
0.999629
0.999591
0.999498
0.999339
0.999138
0.998922
0.998727
0.998594
0.998546
0.998592
0.998714
0.998875
0.999041
0.999164
0.999235
0.999259
0.999421
0.999999
0.956239
0.159889
0.000327381
0.00160812
0.14456
0.756648
0.999752
0.999808
0.999689
0.999769
0.99969
0.999662
0.999756
0.999945
1.00001
0.88051
0.164106
0.00100795
0.0013029
0.00100616
0.058247
0.759641
0.999321
0.999266
0.99948
0.999596
0.999643
0.999662
0.999643
0.999557
0.999387
0.999168
0.998933
0.998719
0.998586
0.998543
0.998586
0.998704
0.99886
0.99902
0.999146
0.999214
0.999242
0.999377
0.999997
0.957499
0.153816
1.32461e-05
0.000645413
0.05404
0.748906
0.999956
0.999968
0.999724
0.999756
0.999652
0.999602
0.999708
0.999881
1
0.881841
0.161596
0.00100656
0.00130234
0.0010061
0.0606621
0.757038
0.999525
0.999324
0.999538
0.999647
0.999661
0.999688
0.999701
0.999629
0.999443
0.99917
0.998898
0.998658
0.998546
0.998532
0.998592
0.998717
0.998877
0.999037
0.999129
0.999138
0.999235
0.999344
0.999996
0.944352
0.135533
1
1
0.999998
1.00001
1
1
1
0.999999
1.00002
1
1
1
0.999999
1.00001
1
1
1
0.999998
1
0.999996
1
1
0.999999
1
0.991064
0.0028233
0.00646207
0.0466377
0.581368
0.99997
0.999952
0.999887
0.999784
0.999608
0.999519
0.999624
0.999876
1
0.886788
0.154179
0.00100634
0.00100755
0.00100609
0.0654664
0.757122
0.999897
0.999785
0.999818
0.999773
0.99979
0.999823
0.999759
0.999693
0.999585
0.999439
0.998934
0.998465
0.998463
0.99852
0.998644
0.998811
0.998978
0.99904
0.999377
0.999636
0.999379
0.99941
0.999994
0.937452
0.123407
0.390948
0.0190397
0.0437633
0.397075
0.99997
0.999945
0.999922
0.999727
0.999536
0.999484
0.999602
0.99985
1
0.895638
0.142333
0.00100633
0.00100631
0.00100609
0.0823029
0.744962
1.00001
1.00003
0.99994
0.99985
0.999751
0.999627
0.999479
0.999298
0.999088
0.998889
0.998755
0.998716
0.99875
0.998832
0.99897
0.999141
0.999308
0.999463
0.999584
0.999571
0.99936
0.999325
0.999933
0.933072
0.107571
0.913037
0.0783158
0.0451127
0.356306
0.999969
0.999926
0.999772
0.999551
0.99951
0.999588
0.999692
0.999869
1
0.902384
0.133658
0.00100634
0.00104565
0.0010061
0.0907233
0.748097
0.999868
0.999735
0.999806
0.999753
0.999664
0.999563
0.999459
0.999346
0.99924
0.999186
0.999195
0.999258
0.999338
0.99942
0.999525
0.999636
0.999747
0.99982
0.999797
0.999651
0.999377
0.999221
0.999981
0.936012
0.135452
0.757436
0.225977
0.0551654
0.145249
0.999968
0.999867
0.999555
0.99957
0.999708
0.999806
0.999861
0.999927
1
0.908074
0.1251
0.00100638
0.00101283
0.00100676
0.10328
0.743329
0.999758
0.999745
0.999781
0.999725
0.999684
0.999668
0.999658
0.999654
0.999663
0.999691
0.999729
0.999771
0.999802
0.999827
0.99986
0.999894
0.999913
0.999908
0.999854
0.999678
0.999362
0.999224
0.999979
0.920323
0.119686
0.779504
0.541345
0.0689617
0.171885
0.97631
0.999905
0.999741
0.999887
0.999965
1.00001
1.00001
1.00001
1
0.909905
0.12303
0.0010065
0.0010155
0.00101161
0.103963
0.750388
0.999764
0.999759
0.999913
0.99994
0.999957
0.999974
1.00001
1.00002
1.00002
1.00003
1.00003
1.00003
1.00003
1.00003
1.00003
1.00003
1.00002
1.00003
1.00004
1.00005
0.999793
0.999616
0.999977
0.915728
0.207885
)
;

boundaryField
{
    AirInlet
    {
        type            fixedValue;
        value           uniform 0;
    }
    WaterInlet
    {
        type            fixedValue;
        value           uniform 1;
    }
    ChannelWall
    {
        type            zeroGradient;
    }
    Outlet
    {
        type            inletOutlet;
        inletValue      uniform 0;
        value           nonuniform List<scalar> 
15
(
0.31961
0
0.130015
0.18261
0.198679
0.194165
0.175495
0.159889
0.153816
0.135533
0
0
0
0.119686
0.207885
)
;
    }
    FrontAndBack
    {
        type            empty;
    }
}


// ************************************************************************* //
