/*--------------------------------*- C++ -*----------------------------------*\
| =========                 |                                                 |
| \\      /  F ield         | OpenFOAM: The Open Source CFD Toolbox           |
|  \\    /   O peration     | Version:  2.3.0                                 |
|   \\  /    A nd           | Web:      www.OpenFOAM.org                      |
|    \\/     M anipulation  |                                                 |
\*---------------------------------------------------------------------------*/
FoamFile
{
    version     2.0;
    format      ascii;
    class       volScalarField;
    location    "0.034";
    object      p;
}
// * * * * * * * * * * * * * * * * * * * * * * * * * * * * * * * * * * * * * //

dimensions      [1 -1 -2 0 0 0 0];

internalField   nonuniform List<scalar> 
725
(
796.201
622.047
560.503
519.141
513.974
769.216
624.699
564.971
525.535
505.707
754.733
626.535
569.612
558.767
542.138
752.611
623.783
572.641
575.276
551.66
761.125
618.662
570.115
563.539
521.73
882.984
279.719
178.774
58.1574
59.2602
44.4147
94.0134
123.023
243.056
289.835
284.544
305.579
295.907
260.522
232.085
215.225
203.912
196.055
189.964
184.845
179.692
174.286
168.25
159.974
141.331
359.424
328.677
304.726
300.344
234.269
125.64
122.502
119.895
129.02
102.379
107.685
99.6348
83.2538
60.5454
44.9448
21.6869
4.55528
-7.06076
27.296
77.8131
932.692
235.878
131.693
47.8216
66.4459
34.6419
122.288
95.1718
243.348
295.454
286.666
304.798
296.741
259.832
230.976
214.458
203.496
195.929
189.91
184.387
179.147
173.768
167.922
161.549
148.787
248.699
324.422
306.156
303.086
235.938
112.757
122.979
120.837
129.683
102.882
105.076
98.2858
82.8437
60.6333
45.9794
21.4393
2.45849
-7.10958
-17.3124
5.87912
876.362
121.276
141.577
28.3328
69.0895
3.38175
199.919
41.0856
288.581
297.643
291.447
305.716
299.428
256.307
228.408
213.354
202.72
195.335
189.421
184.077
178.999
173.776
168.29
163.591
155.757
199.229
322.722
304.954
309.165
193.677
109.818
125.304
122.185
133.821
104.573
102.767
97.9591
82.7194
57.995
44.6225
17.4231
1.9592
-6.28542
-12.6279
-15.2761
1356.93
45.5266
180.304
-102.632
67.6959
-39.0341
197.286
71.8032
264.877
299.71
300.558
303.404
302.112
246.885
223.523
211.926
201.82
194.89
189.287
184.013
178.984
174.022
169.089
165.532
163.044
182.028
274.445
298.626
297.607
107.64
109.181
128.369
124.818
140.889
110.283
124.776
115.292
88.5782
57.544
48.4403
12.3855
0.65128
-4.30108
-11.0641
-11.4221
1246.88
-341.248
178.45
-215.046
148.136
-126.202
186.995
102.79
469.929
387.788
325.516
292.798
306.29
232.422
217.011
209.225
200.208
194.057
188.819
183.745
179.069
174.422
169.895
166.968
166.041
182.256
168.475
211.377
149.482
43.7365
110.487
129.812
128.224
144.436
111.202
125.722
120.18
92.9243
51.6642
49.6836
-1.31628
-0.0179533
-2.95666
-10.6648
-16.7548
1491.69
-744.991
178.691
-80.6375
175.778
-207.763
208.657
240.356
653.836
825.723
746.751
360.608
315.579
224.223
213.592
207.227
199.209
193.699
188.705
183.761
179.165
174.653
170.18
167.366
164.603
173.044
151.859
174.832
124.531
207.797
128.436
132.824
132.887
163.302
159.693
125.733
121.048
105.397
48.0264
57.8107
-15.0907
0.362474
-1.78662
-11.3292
-21.5254
1804.71
-975.881
191.638
1071.72
219.591
1248.55
689.124
249.043
713.763
856.005
870.668
465.205
321.293
228.205
212.101
206.434
198.854
193.56
188.66
183.767
179.197
174.726
170.277
168.297
166.154
174.116
149.433
170.002
126.444
181.948
131.177
132.342
130.233
486.311
160.421
125.178
122.405
351.908
48.5835
60.0747
-19.9371
3.91913
22.9568
17.9912
4.66713
2140.7
-1395.91
477.562
125.452
246.472
471.846
400.08
173.9
758.865
919.284
913.156
479.696
327.391
221.122
210.121
205.567
198.502
193.403
188.618
183.795
179.259
174.819
170.351
169.14
164.95
172.278
150.951
168.763
127.681
178.952
136.493
132.372
120.138
57.5639
85.7067
123.489
121.13
118.022
35.1018
59.7586
-23.6498
3.01896
-0.341687
-0.774781
-6.27862
2372.03
5677.77
1555.64
229.873
264.502
389.218
477.354
34.9537
809.952
959.524
930.569
425.007
327.514
216.885
207.729
204.655
198.127
193.258
188.575
183.793
179.414
175.209
171.032
167.956
164.857
170.744
146.038
167.35
132.271
178.955
147.357
133.085
123.42
60.6932
83.4314
122.954
118.456
116.991
26.2744
70.1944
-20.6431
2.93804
22.9511
12.7992
16.5207
2600.94
576.9
1055.61
194.416
278.65
402.402
675.75
143.18
905.386
1047.54
993.907
417.091
323.893
212.132
204.785
203.703
197.75
193.074
188.5
183.838
179.24
174.735
170.462
167.07
164.913
169.489
147.319
165.567
133.529
183.214
154.506
135.11
126.196
46.8092
85.1021
122.509
118.104
138.073
48.1737
90.2113
-1.79274
2.99493
-1.32605
4.3565
8.29026
-338.783
-488.456
-554.308
-679.33
-743.402
-346.822
-480.688
-539.243
-604.243
-592.38
-344.062
-474.427
-525.475
-542.667
-573.814
-329.013
-473.342
-516.955
-506.495
-564.947
-301.691
-474.454
-514.103
-488.387
-563.795
2522.77
62.8146
883.73
277.579
313.782
385.726
350.416
408.929
1066.36
1069.6
1065.01
689.069
305.617
199.173
195.797
200.874
196.637
192.585
188.364
183.84
179.185
174.778
170.726
168.363
165.209
166.069
151.308
160.396
134.633
141.262
127.696
135.288
133.802
80.1149
81.8808
119.659
127.876
168.238
72.4416
106.405
7.10557
-4.42013
-5.05934
5.21092
6.53864
903.97
-2.62027
562.683
299.822
295.348
282.541
152.135
803.281
1070.14
1074.05
1074.25
1051.25
260.889
167.081
182.776
195.008
194.748
191.778
187.965
183.609
179.196
174.855
170.808
167.7
165.158
163.609
153.666
156.583
137.791
133.131
112.857
91.1582
72.355
32.57
84.469
112.439
122.575
59.4439
106.556
101.291
33.688
5.14253
-2.46098
-7.59784
2.57632
125.246
-272.002
358.231
291.019
267.477
233.038
199.635
984.999
1064.83
1072.34
1069
1067.82
356.484
116.833
169.689
189.381
192.77
191.181
187.992
183.977
179.682
175.41
171.414
168.696
166.11
162.878
155.13
154.394
140.12
127.67
109.38
91.7809
75.622
44.6897
86.2499
106.295
112.824
79.5638
105.539
94.9178
48.4139
4.7365
-1.10142
-4.03519
3.07406
176.869
-94.5373
251.086
271.127
245.985
191.89
306.074
1062.45
1067.97
1073.42
1071.62
1077.35
513.62
75.848
160.713
186.369
192.417
192.058
189.195
185.219
180.886
176.68
173.028
169.488
166.854
171.989
166.4
155.67
138.116
124.965
109.175
92.4612
76.7051
51.3037
88.5528
101.179
91.2466
109.399
102.095
95.439
61.6027
6.84274
-0.908241
-3.53668
4.54715
207.157
-56.599
210.113
252.741
235.234
176.108
379.139
1065.67
1071.54
1076.12
1072.35
1064.89
661.732
119.263
164.362
186.767
195.046
195.463
193.15
189.825
186.004
181.871
177.589
172.585
167.561
167.723
159.635
153.358
137.812
125.018
110.088
93.4528
77.5235
54.094
91.7227
97.9206
167.622
120.792
100.124
88.202
56.8202
16.2582
0.150635
-1.49065
20.2283
)
;

boundaryField
{
    AirInlet
    {
        type            calculated;
        value           nonuniform List<scalar> 5(1643.99 2791.17 3355.07 2707.44 3743.14);
    }
    WaterInlet
    {
        type            calculated;
        value           nonuniform List<scalar> 10(796.203 769.222 754.743 752.625 761.143 -338.801 -346.836 -344.073 -329.019 -301.694);
    }
    ChannelWall
    {
        type            calculated;
        value           nonuniform List<scalar> 
110
(
761.099
618.632
570.081
563.501
521.688
-338.757
-488.426
-554.274
-679.292
-743.362
-301.718
-474.485
-514.137
-488.425
-563.837
207.113
-56.6431
210.069
252.697
235.189
176.064
379.114
1065.67
1071.54
1076.12
1072.34
1064.89
661.711
119.219
164.318
186.723
195.002
195.419
193.106
189.78
185.96
181.827
177.545
172.541
167.516
167.679
159.591
153.314
137.768
124.974
110.044
93.4087
77.4793
54.0499
91.6785
97.8764
167.58
120.75
100.083
88.1605
56.7773
16.2141
0.106494
-1.53473
20.1843
796.227
622.078
560.538
519.179
514.016
883.023
279.761
178.817
58.2015
59.3042
44.4588
94.056
123.065
243.099
289.879
284.588
305.623
295.951
260.566
232.129
215.269
203.956
196.099
190.008
184.89
179.736
174.331
168.295
160.018
141.375
359.462
328.714
304.763
300.381
234.308
125.684
122.546
119.939
129.064
102.423
107.729
99.6789
83.298
60.5896
44.9889
21.7311
4.59943
-7.01662
27.3395
77.8558
)
;
    }
    Outlet
    {
        type            calculated;
        value           nonuniform List<scalar> 
15
(
-0.0427073
-0.129805
-0.220436
-0.308933
-0.397144
-0.450621
-0.469837
-0.489547
-0.509487
-0.528977
-0.581978
-0.670013
-0.759761
-0.848383
-0.933093
)
;
    }
    FrontAndBack
    {
        type            empty;
    }
}


// ************************************************************************* //
