/*--------------------------------*- C++ -*----------------------------------*\
| =========                 |                                                 |
| \\      /  F ield         | OpenFOAM: The Open Source CFD Toolbox           |
|  \\    /   O peration     | Version:  2.3.0                                 |
|   \\  /    A nd           | Web:      www.OpenFOAM.org                      |
|    \\/     M anipulation  |                                                 |
\*---------------------------------------------------------------------------*/
FoamFile
{
    version     2.0;
    format      ascii;
    class       volScalarField;
    location    "0.034";
    object      p_rgh;
}
// * * * * * * * * * * * * * * * * * * * * * * * * * * * * * * * * * * * * * //

dimensions      [1 -1 -2 0 0 0 0];

internalField   nonuniform List<scalar> 
725
(
796.227
622.078
560.538
519.179
514.016
769.295
624.791
565.074
525.65
505.834
754.866
626.687
569.783
558.959
542.349
752.797
623.996
572.882
575.545
551.956
761.364
618.937
570.424
563.884
522.11
883.023
279.761
178.817
58.2015
59.3042
44.4588
94.056
123.065
243.099
289.879
284.588
305.623
295.951
260.566
232.129
215.269
203.956
196.099
190.008
184.89
179.736
174.331
168.295
160.018
141.375
359.462
328.714
304.763
300.381
234.308
125.684
122.546
119.939
129.064
102.423
107.729
99.6789
83.298
60.5896
44.9889
21.7311
4.59943
-7.01662
27.3395
77.8558
932.809
236.002
131.824
47.9539
66.5782
34.7742
122.418
95.2996
243.478
295.587
286.798
304.931
296.873
259.965
231.108
214.591
203.629
196.061
190.042
184.519
179.279
173.901
168.055
161.681
148.919
248.817
324.534
306.268
303.199
236.056
112.889
123.111
120.969
129.816
103.014
105.209
98.4182
82.9761
60.7656
46.1118
21.5717
2.59087
-6.97718
-17.1799
6.00892
876.559
121.484
141.795
28.5534
69.31
3.60169
200.125
41.2927
288.8
297.864
291.668
305.936
299.648
256.527
228.629
213.575
202.941
195.556
189.641
184.298
179.22
173.997
168.511
163.812
155.978
199.435
322.909
305.142
309.352
193.876
110.038
125.525
122.406
134.042
104.794
102.987
98.1794
82.94
58.2157
44.8431
17.6438
2.17983
-6.06478
-12.4072
-15.0556
1357.23
45.8246
180.611
-102.323
68.0046
-38.7253
197.576
72.0842
265.165
300.019
300.867
303.713
302.421
247.194
223.832
212.235
202.129
195.199
189.596
184.322
179.293
174.331
169.398
165.841
163.353
182.334
274.714
298.888
297.869
107.934
109.49
128.678
125.127
141.198
110.591
125.08
115.596
88.8868
57.8531
48.7493
12.6945
0.960166
-3.9922
-10.7551
-11.1132
1247.23
-340.882
178.798
-214.66
148.526
-125.806
187.373
103.138
470.205
388.017
325.868
293.195
306.688
232.819
217.408
209.622
200.605
194.455
189.216
184.142
179.466
174.819
170.293
167.365
166.438
182.653
168.863
211.734
149.86
44.1324
110.884
130.209
128.621
144.834
111.597
126.111
120.57
93.3202
52.0614
50.0808
-0.919084
0.379207
-2.55953
-10.2676
-16.3577
1491.94
-744.576
179.042
-80.2015
176.226
-207.315
209.08
240.721
654.07
825.808
746.942
360.999
316.03
224.674
214.044
207.678
199.66
194.15
189.157
184.212
179.616
175.104
170.632
167.817
165.055
173.495
152.31
175.272
124.981
208.248
128.887
133.276
133.339
163.75
160.135
126.176
121.491
105.843
48.477
58.2618
-14.6396
0.813532
-1.33593
-10.8786
-21.0748
1804.88
-975.45
191.999
1072.16
220.062
1249
689.556
249.411
713.959
856.082
870.822
465.567
321.764
228.675
212.571
206.905
199.325
194.031
189.131
184.238
179.668
175.197
170.748
168.768
166.625
174.587
149.904
170.472
126.915
182.418
131.647
132.813
130.703
486.774
160.883
125.639
122.867
352.369
49.0538
60.5455
-19.4664
4.38972
23.4267
18.4609
5.13696
2140.85
-1395.48
477.934
125.943
246.963
472.32
400.536
174.273
759.023
919.344
913.291
480.047
327.881
221.613
210.612
206.057
198.992
193.893
189.108
184.285
179.75
175.309
170.841
169.63
165.44
172.768
151.442
169.253
128.171
179.442
136.98
132.86
120.626
58.0526
86.1886
123.971
121.611
118.506
35.5912
60.248
-23.1595
3.50921
0.148167
-0.285216
-5.78907
2372.17
5678.08
1556
230.383
265.012
389.721
477.84
35.3019
810.068
959.571
930.661
425.336
328.022
217.395
208.239
205.165
198.637
193.768
189.085
184.303
179.924
175.719
171.542
168.466
165.367
171.254
146.547
167.859
132.781
179.465
147.863
133.592
123.928
61.2015
83.9394
123.462
118.958
117.496
26.7751
70.6813
-20.1354
3.44792
23.4609
13.3085
17.0302
2601.06
577.309
1056.07
194.943
279.18
402.929
676.261
143.475
905.452
1047.56
993.951
417.34
324.419
212.661
205.315
204.233
198.28
193.604
189.029
184.368
179.769
175.265
170.992
167.6
165.443
170.018
147.849
166.096
134.058
183.743
155.03
135.635
126.722
47.3368
85.6303
123.038
118.628
138.601
48.6855
90.7091
-1.27109
3.5243
-0.797017
4.88533
8.81924
-338.041
-487.749
-553.636
-678.694
-742.83
-346.027
-479.92
-538.502
-603.53
-591.694
-343.214
-473.598
-524.666
-541.877
-573.044
-328.112
-472.453
-516.077
-505.629
-564.093
-300.737
-473.504
-513.156
-487.444
-562.856
2522.9
63.3067
884.312
278.162
314.366
386.31
350.968
409.159
1066.38
1069.61
1065.02
689.168
306.179
199.757
196.381
201.457
197.221
193.169
188.948
184.423
179.768
175.361
171.31
168.947
165.792
166.652
151.892
160.979
135.216
141.845
128.275
135.866
134.38
80.6937
82.4627
120.241
128.459
168.821
72.9964
106.953
7.67559
-3.83643
-4.47565
5.79327
7.12062
904.22
-2.04625
563.355
300.494
296.02
283.213
152.685
803.378
1070.15
1074.07
1074.27
1051.27
261.484
167.753
183.448
195.68
195.42
192.45
188.636
184.281
179.868
175.527
171.48
168.372
165.83
164.281
154.338
157.255
138.463
133.803
113.526
91.8273
73.0261
33.2417
85.1404
113.111
123.247
60.104
107.188
101.923
34.3396
5.81451
-1.789
-6.92641
3.24633
125.955
-271.244
358.991
291.78
268.237
233.798
200.224
985.046
1064.84
1072.35
1069.01
1067.84
356.953
117.593
170.45
190.141
193.53
191.941
188.753
184.737
180.442
176.17
172.174
169.457
166.871
163.638
155.89
155.153
140.88
128.429
110.14
92.5409
76.3821
45.4497
87.01
107.056
113.584
80.285
106.253
95.6322
49.1475
5.49662
-0.341139
-3.27512
3.83382
177.717
-93.6888
251.935
271.976
246.833
192.738
306.572
1062.47
1067.99
1073.44
1071.63
1077.37
514.031
76.6948
161.562
187.217
193.266
192.906
190.044
186.068
181.734
177.528
173.877
170.337
167.702
172.836
167.247
156.518
138.965
125.813
110.023
93.3095
77.5534
52.152
89.4013
102.027
92.0838
110.196
102.892
96.2363
62.4173
7.69063
-0.0598498
-2.68816
5.39553
208.094
-55.6622
211.05
253.678
236.17
177.045
379.658
1065.69
1071.56
1076.14
1072.36
1064.91
662.175
120.197
165.298
187.703
195.982
196.399
194.086
190.76
186.94
182.807
178.525
173.521
168.497
168.66
160.572
154.295
138.749
125.955
111.025
94.3897
78.4603
55.0309
92.6596
98.8574
168.52
121.672
101.005
89.0823
57.7293
17.195
1.08739
-0.555149
21.1614
)
;

boundaryField
{
    AirInlet
    {
        type            fixedFluxPressure;
        gradient        nonuniform List<scalar> 5(1.52047e+07 9.86286e+07 1.21423e+08 3.35271e+07 1.14209e+08);
        value           nonuniform List<scalar> 5(1643.99 2791.17 3355.07 2707.44 3743.14);
    }
    WaterInlet
    {
        type            fixedFluxPressure;
        gradient        nonuniform List<scalar> 10(-0.00442491 0.00703643 -1.69036 -0.826557 -3.09479 0.0467843 -39.7903 -36.0058 -2.71526 -114.56);
        value           nonuniform List<scalar> 10(796.227 769.295 754.866 752.797 761.364 -338.041 -346.027 -343.214 -328.112 -300.738);
    }
    ChannelWall
    {
        type            fixedFluxPressure;
        gradient        uniform 0;
        value           nonuniform List<scalar> 
110
(
761.364
618.937
570.424
563.884
522.11
-338.041
-487.749
-553.636
-678.694
-742.83
-300.737
-473.504
-513.156
-487.444
-562.856
208.094
-55.6622
211.05
253.678
236.17
177.045
379.658
1065.69
1071.56
1076.14
1072.36
1064.91
662.175
120.197
165.298
187.703
195.982
196.399
194.086
190.76
186.94
182.807
178.525
173.521
168.497
168.66
160.572
154.295
138.749
125.955
111.025
94.3897
78.4603
55.0309
92.6596
98.8574
168.52
121.672
101.005
89.0823
57.7293
17.195
1.08739
-0.555149
21.1614
796.227
622.078
560.538
519.179
514.016
883.023
279.761
178.817
58.2015
59.3042
44.4588
94.056
123.065
243.099
289.879
284.588
305.623
295.951
260.566
232.129
215.269
203.956
196.099
190.008
184.89
179.736
174.331
168.295
160.018
141.375
359.462
328.714
304.763
300.381
234.308
125.684
122.546
119.939
129.064
102.423
107.729
99.6789
83.298
60.5896
44.9889
21.7311
4.59943
-7.01662
27.3395
77.8558
)
;
    }
    Outlet
    {
        type            totalPressure;
        rho             rho;
        psi             none;
        gamma           1;
        p0              uniform 0;
        value           uniform 0;
    }
    FrontAndBack
    {
        type            empty;
    }
}


// ************************************************************************* //
