/*--------------------------------*- C++ -*----------------------------------*\
| =========                 |                                                 |
| \\      /  F ield         | OpenFOAM: The Open Source CFD Toolbox           |
|  \\    /   O peration     | Version:  2.3.0                                 |
|   \\  /    A nd           | Web:      www.OpenFOAM.org                      |
|    \\/     M anipulation  |                                                 |
\*---------------------------------------------------------------------------*/
FoamFile
{
    version     2.0;
    format      ascii;
    class       volScalarField;
    location    "0.034";
    object      p_rgh;
}
// * * * * * * * * * * * * * * * * * * * * * * * * * * * * * * * * * * * * * //

dimensions      [1 -1 -2 0 0 0 0];

internalField   nonuniform List<scalar> 
725
(
-315.062
-357.008
-370.011
-372.688
-406.219
-320.871
-356.62
-369.407
-372.899
-407.855
-323.514
-356.84
-369.195
-377.246
-408.139
-323.137
-357.947
-370.113
-387.121
-411.894
-319.83
-359.471
-368.528
-390.984
-267.011
-331.484
-302.737
-496.99
-612.941
-631.815
-610.711
-595.17
-583.764
-578.028
-574.215
-570.225
-563.98
-551.034
-526.835
-568.017
-589.906
-591.061
-591.739
-591.707
-524.398
-572.002
-592.375
-599.726
-602.416
-604.604
-604.81
-604.904
-604.696
-604.439
-604.405
-604.454
-604.475
-604.829
-605.73
-606.93
-608.781
-611.074
-616.462
-619.253
-639.155
-638.91
-710.882
-683.786
-699.36
-199.725
-332.95
-335.777
-567.38
-621.134
-643.698
-607.4
-592.159
-583.34
-578.044
-574.732
-571.373
-566.125
-554.381
-533.263
-573.737
-591.101
-590.946
-591.681
-590.633
-552.149
-582.055
-596.895
-601.278
-603.51
-605.71
-605.9
-606.063
-605.871
-605.551
-605.431
-605.411
-605.318
-605.489
-606.203
-607.276
-608.971
-611.023
-616.004
-618.537
-637.969
-636.295
-712.651
-677.389
-843.269
-104.882
-308.671
-174.194
-397.521
-646.771
-648.519
-600.162
-588.601
-582.008
-577.758
-575.265
-572.947
-569.375
-560.877
-548.248
-582.244
-591.526
-590.636
-591.709
-592.303
-596.04
-596.966
-601.019
-602.453
-603.771
-605.871
-605.321
-605.287
-605.257
-605.274
-605.318
-605.368
-605.232
-605.385
-606.099
-607.094
-608.655
-610.429
-615.009
-616.75
-635.96
-631.206
-719.207
-720.411
-1342.71
236.217
-123.578
386.086
-179.363
-669.366
-665.19
-592.832
-582.828
-579.522
-577.011
-575.684
-574.751
-573.205
-569.36
-567.208
-588.257
-592.053
-590.043
-591.894
-593.653
-633.925
-611.388
-605.399
-602.797
-603.959
-606.464
-605.373
-605.395
-605.147
-604.753
-604.628
-604.828
-604.922
-605.138
-605.892
-606.787
-608.164
-609.547
-613.547
-613.871
-631.08
-622.096
-709.859
-680.242
-985.088
-4.43361
448.91
722.248
-105.842
-556.715
-689.24
-583.278
-573.231
-576.134
-575.786
-575.924
-576.589
-577.226
-578.172
-585.555
-591.126
-592.876
-588.983
-592.382
-594.626
-658.643
-619.441
-607.389
-604.968
-603.816
-607.058
-604.332
-604.364
-604.417
-604.476
-604.884
-605.127
-604.754
-604.796
-605.6
-606.354
-607.512
-608.39
-611.639
-611.131
-623.387
-607.286
-668.722
-575.189
-481.285
-97.8038
981.956
615.291
-157.328
807.975
-660.758
-560.117
-564.363
-574.185
-574.99
-575.984
-577.698
-578.878
-582.824
-595.228
-592.594
-593.677
-587.695
-593.189
-595.122
-658.522
-621.556
-610.012
-603.626
-602.885
-596.254
-602.941
-601.256
-602.19
-603.884
-604.559
-604.718
-604.072
-604.357
-605.442
-606.024
-607.167
-607.438
-610.828
-607.617
-619.419
-595.388
-652.442
-532.096
-460.165
-156.348
971.148
523.877
-177.462
544.1
-645.953
-556.62
-560.812
-573.465
-574.695
-575.979
-578.145
-580.283
-584.424
-598.243
-593.365
-594.01
-587.129
-593.544
-595.381
-657.252
-621.811
-605.552
-603.967
-593.039
-598.908
-603.584
-601.892
-602.454
-603.359
-603.767
-604.294
-603.847
-604.166
-605.382
-605.884
-606.991
-607.102
-610.464
-606.559
-617.798
-591.377
-646.821
-519.859
-489.746
-144.239
967.823
592.824
-170.375
553.409
-659.841
-550.869
-557.385
-572.769
-574.42
-575.977
-578.561
-581.049
-585.895
-600.161
-593.826
-594.384
-586.538
-593.912
-595.809
-657.505
-621.64
-607.84
-601.909
-602.385
-599.344
-603.499
-602.517
-603.37
-604.14
-604.111
-604.421
-603.839
-604.126
-605.34
-605.656
-606.613
-606.602
-609.877
-605.597
-615.968
-587.823
-641.002
-511.273
-545.56
-82.4646
890.742
650.984
2.88807
386.834
-692.891
-557.653
-554.621
-572.112
-574.158
-575.962
-578.895
-581.702
-587.247
-601.828
-594.315
-594.788
-587.828
-594.306
-596.153
-657.416
-621.008
-608.266
-603.301
-603.366
-599.7
-603.362
-602.523
-603.335
-604.183
-604.367
-604.417
-603.904
-604.114
-605.317
-605.415
-606.161
-605.937
-608.961
-604.176
-613.525
-584.14
-634.945
-504.837
-591.484
-63.4754
897.807
672.234
401.534
251.027
-723.187
-565.843
-554.568
-571.248
-573.884
-575.919
-579.161
-582.606
-588.563
-604.011
-595.603
-595.182
-587.06
-594.734
-596.893
-654.449
-619.86
-607.934
-603.429
-604.825
-600.135
-603.199
-602.509
-603.198
-604.058
-604.414
-604.695
-604.007
-604.13
-605.112
-605.542
-606.363
-606.159
-608.874
-602.877
-608.689
-581.105
-628.196
-498.834
-673.426
0.476349
744.368
713.733
672.605
707.379
522.166
741.21
716.51
672.452
724.693
431.079
740.828
718.996
678.375
753.45
517.85
743.3
718.732
676.968
739.135
573.268
748.755
717.716
675.232
718.847
574.565
744.465
585.133
452.599
-629.38
-775.183
-599.193
-554.789
-569.684
-573.243
-575.779
-579.693
-584.029
-592.022
-609.715
-599.925
-596.042
-600.181
-595.747
-598.345
-641.241
-615.317
-605.769
-603.429
-603.943
-600.984
-602.285
-602.379
-602.76
-603.306
-603.827
-605.385
-603.08
-603.66
-604.739
-605.832
-606.499
-606.358
-607.252
-602.346
-610.528
-577.035
-609.173
-481.505
-643.973
-7.35366
229.614
522.307
478.168
-437.368
-706.116
-608.612
-557.526
-569.363
-572.238
-575.417
-580.935
-586.405
-595.412
-611.226
-601.87
-596.718
-599.293
-596.567
-595.992
-612.387
-606.886
-600.394
-601.687
-602.977
-601.928
-603.6
-603.888
-604.188
-604.026
-603.736
-603.652
-605.15
-606.111
-605.995
-605.857
-606.063
-605.457
-605.674
-598.278
-603.927
-559.496
-587.468
-450.821
-417.59
14.9444
1147.64
411.432
479.504
-538.029
-639.959
-601.874
-560.96
-568.493
-571.626
-576.786
-582.372
-587.897
-597.708
-613.486
-603.369
-597.111
-598.904
-597.121
-592.592
-584.149
-596.498
-600.73
-601.92
-602.742
-602.067
-602.961
-603.578
-604.329
-605.026
-605.481
-605.669
-605.623
-606.054
-605.976
-605.772
-605.675
-604.609
-604.072
-595.307
-599.496
-552.418
-585.989
-446.739
-505.424
3.98285
568.933
86.5279
412.783
-38.5712
-608.559
-599.916
-560.221
-568.675
-572.017
-577.155
-583.333
-588.732
-599.603
-619.112
-605.072
-597.345
-598.578
-597.396
-587.743
-557.747
-586.674
-597.72
-600.9
-602.073
-602.212
-603.602
-604.727
-605.507
-605.692
-605.659
-605.668
-605.64
-606
-605.902
-605.64
-605.356
-604.006
-603.035
-593.478
-597.599
-548.701
-593.953
-460.493
-862.765
98.4218
705.755
790.309
400.121
-54.6733
-605.092
-594.339
-560.503
-567.001
-570.692
-576.48
-583.23
-588.401
-601.324
-623.844
-605.402
-597.749
-598.421
-597.351
-587.886
-540.335
-578.837
-595.956
-600.31
-601.338
-601.235
-602.424
-603.39
-604.12
-604.33
-604.368
-604.498
-604.649
-605.103
-605.051
-604.869
-604.659
-603.243
-602.113
-591.493
-596.882
-545.841
-597.096
-443.59
-455.944
-112.755
)
;

boundaryField
{
    AirInlet
    {
        type            fixedFluxPressure;
        gradient        nonuniform List<scalar> 5(4553.13 2.22772e+06 -1.6647e+07 55618.6 81640.8);
        value           nonuniform List<scalar> 5(982.001 993.426 801.352 891.298 898.623);
    }
    WaterInlet
    {
        type            fixedFluxPressure;
        gradient        nonuniform List<scalar> 10(-0.00868376 -2.32439 -0.00135746 1.45391 -0.317079 -0.0136412 -0.153843 -0.793178 -1.40603 1.06709);
        value           nonuniform List<scalar> 10(-315.062 -320.871 -323.514 -323.137 -319.83 744.368 741.21 740.828 743.3 748.755);
    }
    ChannelWall
    {
        type            fixedFluxPressure;
        gradient        uniform 0;
        value           nonuniform List<scalar> 
110
(
-319.83
-359.471
-368.528
-390.984
-267.011
744.368
713.733
672.605
707.379
522.166
748.755
717.716
675.232
718.847
574.565
705.755
790.309
400.121
-54.6733
-605.092
-594.339
-560.503
-567.001
-570.692
-576.48
-583.23
-588.401
-601.324
-623.844
-605.402
-597.749
-598.421
-597.351
-587.886
-540.335
-578.837
-595.956
-600.31
-601.338
-601.235
-602.424
-603.39
-604.12
-604.33
-604.368
-604.498
-604.649
-605.103
-605.051
-604.869
-604.659
-603.243
-602.113
-591.493
-596.882
-545.841
-597.096
-443.59
-455.944
-112.755
-315.062
-357.008
-370.011
-372.688
-406.219
-331.484
-302.737
-496.99
-612.941
-631.815
-610.711
-595.17
-583.764
-578.028
-574.215
-570.225
-563.98
-551.034
-526.835
-568.017
-589.906
-591.061
-591.739
-591.707
-524.398
-572.002
-592.375
-599.726
-602.416
-604.604
-604.81
-604.904
-604.696
-604.439
-604.405
-604.454
-604.475
-604.829
-605.73
-606.93
-608.781
-611.074
-616.462
-619.253
-639.155
-638.91
-710.882
-683.786
-699.36
-199.725
)
;
    }
    Outlet
    {
        type            totalPressure;
        rho             rho;
        psi             none;
        gamma           1;
        p0              uniform 0;
        value           nonuniform List<scalar> 
15
(
-0.0284458
-0.0866579
0
0
0
0
0
0
0
-0.468277
-0.403983
-0.657524
-0.360934
0
0
)
;
    }
    FrontAndBack
    {
        type            empty;
    }
}


// ************************************************************************* //
