/*--------------------------------*- C++ -*----------------------------------*\
| =========                 |                                                 |
| \\      /  F ield         | OpenFOAM: The Open Source CFD Toolbox           |
|  \\    /   O peration     | Version:  2.3.0                                 |
|   \\  /    A nd           | Web:      www.OpenFOAM.org                      |
|    \\/     M anipulation  |                                                 |
\*---------------------------------------------------------------------------*/
FoamFile
{
    version     2.0;
    format      ascii;
    class       surfaceScalarField;
    location    "0.034";
    object      phi;
}
// * * * * * * * * * * * * * * * * * * * * * * * * * * * * * * * * * * * * * //

dimensions      [0 3 -1 0 0 0 0];

internalField   nonuniform List<scalar> 
1380
(
1.32624e-12
6.73758e-13
1.1098e-12
2.16442e-13
1.05937e-12
5.04329e-14
8.44752e-13
2.14615e-13
-2.16695e-13
1.06145e-12
2.40679e-12
2.66965e-13
2.48279e-12
1.40443e-13
2.49631e-12
3.69129e-14
2.70578e-12
5.1507e-15
-9.33481e-13
3.42256e-12
2.67558e-12
-4.08618e-13
2.9261e-12
-1.10076e-13
2.98463e-12
-2.16168e-14
2.95457e-12
3.52097e-14
-6.80187e-13
2.70128e-12
2.35137e-12
-7.59989e-13
2.43192e-12
-1.90621e-13
2.43809e-12
-2.7787e-14
2.17837e-12
2.94929e-13
8.25886e-14
1.41559e-12
1.24001e-12
1.04939e-12
1.0216e-12
1.31653e-12
1.39912e-12
1.44387e-12
-3.82421e-13
1.04748e-12
3.96389e-13
1.23863e-12
-1.91155e-13
1.2361e-12
2.53725e-15
9.16292e-13
3.19805e-13
3.04995e-13
6.11297e-13
-1.1295e-14
3.1629e-13
-5.91864e-13
5.80569e-13
-5.30309e-14
-5.38833e-13
4.86549e-13
-5.3958e-13
4.67193e-13
1.93554e-14
8.29795e-13
-3.62601e-13
9.78622e-13
-1.48827e-13
7.72666e-13
2.05955e-13
6.01879e-13
1.70788e-13
5.29676e-13
7.22028e-14
4.95687e-13
3.39888e-14
4.797e-13
1.59861e-14
4.73928e-13
5.77212e-15
4.84995e-13
-1.10672e-14
5.06206e-13
-2.12109e-14
5.51537e-13
-4.53315e-14
6.85455e-13
-1.33918e-13
1.08887e-12
-4.03413e-13
1.91749e-12
-8.28621e-13
1.35277e-12
5.64719e-13
7.94847e-13
5.57924e-13
4.89872e-13
3.04975e-13
8.77618e-13
-3.87746e-13
1.01034e-12
-1.32718e-13
7.08286e-13
3.02049e-13
5.35695e-13
1.7259e-13
3.58111e-13
1.77584e-13
4.49952e-13
-9.18402e-14
3.73094e-13
7.68579e-14
5.90405e-13
-2.1731e-13
7.11592e-13
-1.21187e-13
7.2022e-13
-8.62827e-15
7.53986e-13
-3.37652e-14
8.75903e-13
-1.21917e-13
8.41502e-13
3.44013e-14
8.1306e-13
2.84422e-14
1.0228e-12
-2.09737e-13
1.87477e-12
-8.5197e-13
-4.22347e-13
1.12329e-12
1.91685e-12
3.87487e-13
1.13219e-12
2.24008e-12
-2.04375e-12
2.1569e-12
8.57161e-14
1.48723e-12
9.89476e-13
4.66592e-13
1.63194e-12
1.08932e-13
6.7395e-13
-2.71688e-13
9.61189e-13
2.91196e-13
-1.10172e-12
9.67389e-13
-1.21577e-12
1.04564e-12
-5.88945e-14
1.78934e-12
-1.10631e-12
2.2062e-12
-5.65681e-13
1.91241e-12
4.99739e-13
1.56601e-12
5.17192e-13
1.39325e-12
2.44961e-13
1.31092e-12
1.16321e-13
1.2714e-12
5.55075e-14
1.26089e-12
1.62834e-14
1.27497e-12
-2.5151e-14
1.31011e-12
-5.63532e-14
1.37376e-12
-1.08983e-13
1.49829e-12
-2.58443e-13
1.692e-12
-5.97121e-13
1.78047e-12
-9.17098e-13
1.71212e-12
6.3307e-13
1.45106e-12
8.18985e-13
8.13175e-13
9.42861e-13
7.82228e-13
-3.56799e-13
9.93112e-13
-3.43602e-13
1.43869e-12
-1.43533e-13
1.33168e-12
2.79602e-13
1.00989e-12
4.99371e-13
1.11679e-12
-1.98737e-13
1.04802e-12
1.45632e-13
1.4667e-12
-6.35991e-13
1.68131e-12
-3.358e-13
1.68521e-12
-1.25289e-14
1.77251e-12
-1.21066e-13
2.03441e-12
-3.83811e-13
2.01506e-12
5.3754e-14
1.91734e-12
1.26157e-13
2.00624e-12
-2.98637e-13
2.11919e-12
-9.64917e-13
-6.29386e-13
3.77738e-12
8.40756e-13
3.31837e-12
1.5912e-12
4.64631e-12
-3.3717e-12
3.33396e-12
1.39808e-12
1.76609e-12
2.55734e-12
8.776e-13
2.52043e-12
6.84915e-13
8.66635e-13
-9.77661e-14
1.74387e-12
5.37533e-13
-1.73702e-12
1.09352e-12
-1.77176e-12
1.2062e-12
-1.71576e-13
2.15071e-12
-2.05082e-12
2.95128e-12
-1.36625e-12
2.74285e-12
7.08173e-13
2.32117e-12
9.38868e-13
2.07472e-12
4.91409e-13
1.96042e-12
2.30626e-13
1.90474e-12
1.11182e-13
1.8851e-12
3.59285e-14
1.89422e-12
-3.42727e-14
1.9247e-12
-8.68324e-14
1.96967e-12
-1.53952e-13
2.00944e-12
-2.98213e-13
1.92492e-12
-5.126e-13
1.61084e-12
-6.03021e-13
1.8016e-12
4.42311e-13
1.82789e-12
7.92695e-13
1.17934e-12
1.59141e-12
5.74009e-13
2.48531e-13
1.21919e-12
-9.8878e-13
1.85226e-12
-7.76607e-13
1.92364e-12
2.08222e-13
1.63573e-12
7.87281e-13
1.80943e-12
-3.72432e-13
1.60135e-12
3.53704e-13
1.98816e-12
-1.02279e-12
2.26669e-12
-6.14329e-13
2.3575e-12
-1.03344e-13
2.44145e-12
-2.05019e-13
2.77828e-12
-7.20637e-13
2.74831e-12
8.37228e-14
2.59785e-12
2.76622e-13
2.52178e-12
-2.22566e-13
2.23648e-12
-6.79623e-13
-4.18323e-13
5.82674e-12
-3.57039e-12
4.19733e-12
3.22061e-12
5.20183e-12
-4.3762e-12
3.23498e-12
3.36492e-12
1.61551e-12
4.17681e-12
1.0892e-13
4.02702e-12
8.43278e-13
1.32276e-13
5.8318e-13
2.00397e-12
8.64534e-13
-2.01837e-12
9.83318e-13
-1.89054e-12
1.00784e-12
-1.96094e-13
2.02181e-12
-3.06479e-12
3.2482e-12
-2.59264e-12
3.22028e-12
7.36096e-13
2.83578e-12
1.32336e-12
2.56199e-12
7.65204e-13
2.43354e-12
3.59073e-13
2.37434e-12
1.70385e-13
2.35043e-12
5.98385e-14
2.35225e-12
-3.60935e-14
2.36835e-12
-1.02936e-13
2.38404e-12
-1.69633e-13
2.35942e-12
-2.73594e-13
2.18073e-12
-3.33912e-13
1.78204e-12
-2.04334e-13
1.77078e-12
4.53573e-13
2.10279e-12
4.60679e-13
1.96903e-12
1.72518e-12
2.1642e-12
5.33591e-14
1.80684e-12
-6.31418e-13
2.14064e-12
-1.11041e-12
2.30648e-12
4.23839e-14
2.23457e-12
8.59186e-13
2.59996e-12
-7.37822e-13
2.11451e-12
8.39153e-13
2.21456e-12
-1.12284e-12
2.59964e-12
-9.99405e-13
2.73374e-12
-2.37445e-13
2.81498e-12
-2.86257e-13
3.22973e-12
-1.13539e-12
3.08788e-12
2.2557e-13
2.90361e-12
4.609e-13
2.78865e-12
-1.07612e-13
2.43329e-12
-3.24263e-13
-8.48038e-14
5.83504e-12
-8.00631e-12
1.33783e-12
7.71782e-12
6.5587e-13
-3.69424e-12
7.09069e-13
3.31173e-12
7.67861e-13
4.11802e-12
-1.5775e-13
4.95263e-12
1.37978e-12
-1.40525e-12
2.82781e-12
5.55936e-13
3.64288e-12
-2.83344e-12
1.75048e-12
1.85636e-15
5.52947e-13
1.00144e-12
1.11505e-12
-3.62689e-12
2.81438e-12
-4.29197e-12
3.23357e-12
3.16907e-13
3.0619e-12
1.49503e-12
2.83591e-12
9.91195e-13
2.72274e-12
4.7224e-13
2.67399e-12
2.19132e-13
2.65378e-12
8.00516e-14
2.64853e-12
-3.08496e-14
2.65159e-12
-1.05997e-13
2.64302e-12
-1.61062e-13
2.58585e-12
-2.16424e-13
2.4225e-12
-1.70554e-13
2.15254e-12
6.56163e-14
2.22227e-12
3.83846e-13
2.39823e-12
2.84719e-13
2.58633e-12
1.53708e-12
3.16597e-12
-5.26285e-13
2.51356e-12
2.09904e-14
2.48626e-12
-1.08311e-12
2.59854e-12
-6.98917e-14
2.92462e-12
5.3311e-13
3.79196e-12
-1.60517e-12
2.98799e-12
1.64313e-12
2.47039e-12
-6.05247e-13
2.41059e-12
-9.39603e-13
2.56002e-12
-3.86875e-13
2.7975e-12
-5.23737e-13
3.35264e-12
-1.69053e-12
3.05379e-12
5.24421e-13
2.87099e-12
6.43692e-13
2.82477e-12
-6.13853e-14
2.53783e-12
-3.73254e-14
2.73271e-13
9.88947e-13
-8.83526e-12
-8.74532e-13
9.5813e-12
-1.85734e-12
-2.71143e-12
-5.37987e-13
1.99237e-12
2.50011e-13
3.33002e-12
5.84213e-13
4.61843e-12
9.77837e-13
-1.79887e-12
8.9184e-13
6.41933e-13
9.36657e-13
-2.87826e-12
2.24137e-13
7.14377e-13
-1.84657e-13
1.41024e-12
-1.39311e-14
-3.79762e-12
4.59812e-13
-4.76571e-12
6.76612e-13
1.00106e-13
6.67983e-13
1.50366e-12
6.35384e-13
1.02379e-12
6.18622e-13
4.89001e-13
6.10842e-13
2.26912e-13
6.07982e-13
8.29113e-14
6.07241e-13
-3.01082e-14
6.06409e-13
-1.05165e-13
6.0206e-13
-1.56713e-13
5.88799e-13
-2.03164e-13
5.58255e-13
-1.40009e-13
5.20755e-13
1.03116e-13
5.1315e-13
3.91451e-13
5.28781e-13
2.69088e-13
6.1939e-13
1.44647e-12
6.69631e-13
-5.76526e-13
6.70475e-13
2.01463e-14
5.81936e-13
-9.94569e-13
6.01562e-13
-8.95167e-14
7.51377e-13
3.83294e-13
9.30411e-13
-1.7842e-12
8.70983e-13
1.70255e-12
5.85887e-13
-3.20152e-13
4.05259e-13
-7.58975e-13
4.6594e-13
-4.47556e-13
5.76295e-13
-6.34092e-13
6.57243e-13
-1.77147e-12
6.17918e-13
5.63746e-13
5.88537e-13
6.73073e-13
5.94559e-13
-6.74078e-14
5.5802e-13
-7.86818e-16
3.23981e-13
3.3538e-13
-9.01064e-12
-1.14182e-12
1.10585e-11
-2.45378e-12
-1.39947e-12
-6.83269e-13
2.21864e-13
2.97022e-13
2.34973e-12
1.07036e-12
3.84508e-12
1.61299e-12
-2.3415e-12
8.65269e-13
1.38966e-12
9.60509e-13
-2.9735e-12
1.32342e-13
1.54254e-12
-3.72471e-13
1.91505e-12
-5.75348e-15
-4.16434e-12
4.42744e-13
-5.21421e-12
6.56804e-13
-1.13953e-13
6.58758e-13
1.50171e-12
6.34135e-13
1.04842e-12
6.2085e-13
5.02286e-13
6.14694e-13
2.33068e-13
6.12655e-13
8.4951e-14
6.12087e-13
-2.95409e-14
6.10885e-13
-1.03962e-13
6.05695e-13
-1.51524e-13
5.92197e-13
-1.89665e-13
5.65038e-13
-1.12851e-13
5.31816e-13
1.36338e-13
5.17684e-13
4.05583e-13
5.33271e-13
2.53501e-13
6.23398e-13
1.35635e-12
6.70616e-13
-6.23744e-13
6.78714e-13
1.20482e-14
5.97013e-13
-9.12868e-13
6.11418e-13
-1.03921e-13
7.86444e-13
2.08268e-13
9.9404e-13
-1.9918e-12
8.81893e-13
1.8147e-12
5.94884e-13
-3.31433e-14
3.40411e-13
-5.04502e-13
4.30295e-13
-5.37439e-13
5.53492e-13
-7.57289e-13
6.16604e-13
-1.83459e-12
5.79811e-13
6.00539e-13
5.68203e-13
6.84681e-13
5.81708e-13
-8.09136e-14
5.52955e-13
2.79664e-14
3.54834e-13
-1.81474e-12
-7.0359e-12
-1.05445e-12
1.02982e-11
-2.22492e-12
-2.29002e-13
-5.73453e-13
-1.42961e-12
1.34081e-13
1.6422e-12
8.73545e-13
3.10562e-12
1.37554e-12
-2.84349e-12
7.92789e-13
1.97241e-12
9.55545e-13
-3.13626e-12
1.48971e-13
2.34912e-12
-2.54567e-13
2.31859e-12
1.2479e-13
-4.5437e-12
4.63091e-13
-5.55251e-12
6.35002e-13
-2.85864e-13
6.46035e-13
1.49067e-12
6.30278e-13
1.06417e-12
6.20807e-13
5.11757e-13
6.16462e-13
2.37413e-13
6.1533e-13
8.6083e-14
6.15001e-13
-2.92115e-14
6.1351e-13
-1.02472e-13
6.07629e-13
-1.45643e-13
5.93445e-13
-1.75481e-13
5.68221e-13
-8.76269e-14
5.39216e-13
1.65343e-13
5.23194e-13
4.21606e-13
5.37374e-13
2.3932e-13
6.28346e-13
1.26538e-12
6.75412e-13
-6.70811e-13
6.94581e-13
-7.12014e-15
6.08847e-13
-8.27134e-13
6.23748e-13
-1.18822e-13
7.74345e-13
5.76706e-14
8.76518e-13
-2.09397e-12
8.54552e-13
1.83667e-12
5.84223e-13
2.37185e-13
3.68377e-13
-2.88656e-13
4.39909e-13
-6.08971e-13
5.18089e-13
-8.35469e-13
5.64745e-13
-1.88124e-12
5.3044e-13
6.34843e-13
5.25668e-13
6.89453e-13
5.55634e-13
-1.10879e-13
5.51094e-13
3.25066e-14
3.77089e-13
-6.83697e-12
-3.89377e-14
-1.36007e-12
4.82132e-12
-4.33778e-13
-1.1553e-12
-3.84875e-13
-1.47851e-12
1.26416e-13
1.1309e-12
5.58722e-13
2.67331e-12
8.7454e-13
-3.15931e-12
8.18787e-13
2.02816e-12
9.53692e-13
-3.27116e-12
1.55594e-13
3.14722e-12
-9.99354e-14
2.57412e-12
2.7035e-13
-4.91398e-12
4.67845e-13
-5.75001e-12
6.11186e-13
-4.29205e-13
6.30177e-13
1.47168e-12
6.23837e-13
1.07051e-12
6.18591e-13
5.17003e-13
6.16201e-13
2.39803e-13
6.15978e-13
8.63062e-14
6.15946e-13
-2.91793e-14
6.143e-13
-1.00826e-13
6.0784e-13
-1.39182e-13
5.93002e-13
-1.60643e-13
5.69809e-13
-6.44336e-14
5.45292e-13
1.8986e-13
5.2929e-13
4.37608e-13
5.45326e-13
2.23284e-13
6.3365e-13
1.17705e-12
6.81865e-13
-7.19026e-13
7.16268e-13
-4.15231e-14
6.19469e-13
-7.30335e-13
6.25731e-13
-1.25084e-13
7.48951e-13
-6.55497e-14
8.08698e-13
-2.15371e-12
8.02169e-13
1.8432e-12
5.71285e-13
4.68069e-13
3.75037e-13
-9.24076e-14
4.40256e-13
-6.7419e-13
4.83824e-13
-8.79037e-13
4.93231e-13
-1.89065e-12
4.71722e-13
6.56353e-13
4.89041e-13
6.72134e-13
5.26234e-13
-1.48072e-13
5.45568e-13
1.31728e-14
3.84644e-13
-4.168e-12
4.28906e-12
-1.3675e-12
2.02082e-12
-3.89012e-13
-2.13378e-12
-1.44068e-13
-1.72345e-12
1.30919e-13
8.55918e-13
3.40668e-13
2.46357e-12
2.72527e-13
-3.09117e-12
9.49362e-13
1.35132e-12
9.77086e-13
-3.29888e-12
1.66244e-13
3.95806e-12
-5.56642e-14
2.79603e-12
2.83887e-13
-5.25353e-12
4.50514e-13
-5.91663e-12
5.81431e-13
-5.60121e-13
6.11806e-13
1.44131e-12
6.14974e-13
1.06735e-12
6.1416e-13
5.17817e-13
6.13885e-13
2.40077e-13
6.14553e-13
8.56381e-14
6.14562e-13
-2.91879e-14
6.12373e-13
-9.8637e-14
6.05474e-13
-1.32283e-13
5.91451e-13
-1.4662e-13
5.70204e-13
-4.31862e-14
5.49218e-13
2.10845e-13
5.3662e-13
4.50207e-13
5.52413e-13
2.07491e-13
6.43593e-13
1.08587e-12
6.71348e-13
-7.46782e-13
7.56644e-13
-1.26818e-13
6.17779e-13
-5.91471e-13
6.19637e-13
-1.26942e-13
7.22508e-13
-1.6842e-13
7.43994e-13
-2.1752e-12
7.53655e-13
1.83354e-12
5.44496e-13
6.77228e-13
3.71116e-13
8.09722e-14
4.20575e-13
-7.2365e-13
4.48621e-13
-9.07082e-13
4.12601e-13
-1.85463e-12
4.03142e-13
6.65812e-13
4.67993e-13
6.07283e-13
5.14845e-13
-1.94925e-13
5.33869e-13
-5.85124e-15
3.83095e-13
1.24454e-12
7.5546e-13
1.07132e-12
1.73222e-13
1.10052e-12
-2.91996e-14
2.11065e-12
-1.01013e-12
-9.99514e-13
3.11016e-12
2.35209e-12
4.03372e-13
2.44131e-12
8.40053e-14
2.4975e-12
-8.53988e-14
2.58828e-12
-1.10091e-12
-7.47542e-13
2.33631e-12
2.67515e-12
-2.71781e-13
2.92202e-12
-1.62858e-13
2.98333e-12
-1.46715e-13
2.58531e-12
-7.0289e-13
-7.65532e-13
2.6033e-12
2.40528e-12
-6.77058e-13
2.47357e-12
-2.31147e-13
2.43933e-12
-1.12482e-13
2.04112e-12
-3.04681e-13
-3.70386e-13
1.64598e-12
1.32294e-12
1.09179e-12
9.79313e-13
6.74632e-13
3.04246e-13
-5.28805e-12
1.26873e-11
2.37271e-12
-5.63994e-12
1.76061e-12
-1.52168e-12
1.3335e-12
-1.29634e-12
1.22496e-12
9.64455e-13
6.5745e-13
3.03107e-12
8.75718e-13
-3.30944e-12
5.26022e-12
-3.03318e-12
3.51006e-12
-1.54872e-12
2.35903e-12
5.1091e-12
4.73759e-12
4.17463e-13
5.51722e-13
-1.06767e-12
1.74482e-12
-7.10973e-12
2.16936e-12
-9.84659e-13
2.50244e-12
1.10822e-12
2.63372e-12
9.36067e-13
2.68342e-12
4.68119e-13
2.70865e-12
2.14846e-13
2.72267e-12
7.16213e-14
2.72188e-12
-2.84037e-14
2.70656e-12
-8.33133e-14
2.6739e-12
-9.96221e-14
2.61072e-12
-8.34369e-14
2.55563e-12
1.18993e-14
2.49493e-12
2.71549e-13
2.51551e-12
4.29627e-13
2.53335e-12
1.89646e-13
3.03459e-12
5.84632e-13
2.96025e-12
-6.72441e-13
3.09836e-12
-2.64927e-13
2.6275e-12
-1.20615e-13
2.62336e-12
-1.228e-13
2.95499e-12
-5.00049e-13
2.5356e-12
-1.75581e-12
2.88729e-12
1.48184e-12
2.2417e-12
1.32281e-12
1.48815e-12
8.34525e-13
1.43288e-12
-6.68378e-13
1.82719e-12
-1.30139e-12
7.31265e-13
-7.58705e-13
1.27985e-12
1.17224e-13
1.88022e-12
6.91007e-15
2.16034e-12
-4.75042e-13
2.28149e-12
-1.26997e-13
3.31262e-13
3.51075e-12
1.15128e-11
4.01654e-12
-6.14574e-12
3.76494e-12
-1.27008e-12
3.20807e-12
-7.39467e-13
3.01782e-12
1.1547e-12
3.01119e-12
3.03771e-12
3.37187e-12
-3.67012e-12
9.48287e-12
-9.14418e-12
5.41083e-12
2.52332e-12
1.241e-12
9.27893e-12
-1.0629e-12
2.72136e-12
-8.35643e-13
-1.29493e-12
1.51131e-12
-9.45668e-12
1.63897e-12
-1.11232e-12
2.01687e-12
7.30313e-13
2.27017e-12
6.82772e-13
2.38824e-12
3.50045e-13
2.44561e-12
1.5748e-13
2.46825e-12
4.89784e-14
2.46473e-12
-2.4879e-14
2.44429e-12
-6.28813e-14
2.41274e-12
-6.80711e-14
2.36982e-12
-4.05145e-14
2.3512e-12
3.05239e-14
2.38879e-12
2.33958e-13
2.46292e-12
3.55492e-13
2.52415e-12
1.28417e-13
2.84247e-12
2.66318e-13
2.65579e-12
-4.85767e-13
2.63833e-12
-2.47466e-13
2.50705e-12
1.06614e-14
2.48651e-12
-1.02255e-13
2.47172e-12
-4.85259e-13
1.82708e-12
-1.11117e-12
2.10533e-12
1.20359e-12
1.84454e-12
1.5836e-12
1.64854e-12
1.03053e-12
2.14085e-12
-1.16069e-12
1.84452e-12
-1.00507e-12
1.11657e-12
-3.07531e-14
1.41907e-12
-1.85273e-13
1.75548e-12
-3.29501e-13
1.80577e-12
-5.2534e-13
1.91986e-12
-2.41085e-13
2.98985e-13
7.35473e-12
6.76142e-12
4.42441e-12
-3.21543e-12
4.1199e-12
-9.65562e-13
3.63175e-12
-2.5132e-13
3.744e-12
1.04246e-12
4.44684e-12
2.33486e-12
4.09072e-12
-3.314e-12
1.99553e-12
-7.04899e-12
2.84145e-12
1.6774e-12
3.51638e-12
8.604e-12
3.56862e-12
2.66911e-12
5.55222e-12
-3.27853e-12
1.37251e-12
-5.27697e-12
1.12569e-12
-8.65499e-13
1.48459e-12
3.71418e-13
1.7807e-12
3.86658e-13
1.92961e-12
2.01133e-13
1.9995e-12
8.75909e-14
2.02339e-12
2.50948e-14
2.01546e-12
-1.69488e-14
1.99064e-12
-3.80634e-14
1.96142e-12
-3.88538e-14
1.93226e-12
-1.13497e-14
1.94814e-12
1.46435e-14
2.05767e-12
1.24425e-13
2.15821e-12
2.54958e-13
2.22658e-12
6.00416e-14
2.3778e-12
1.151e-13
2.18475e-12
-2.92724e-13
2.06041e-12
-1.23118e-13
2.04413e-12
2.69348e-14
2.01141e-12
-6.9532e-14
1.84734e-12
-3.21193e-13
1.31411e-12
-5.77933e-13
1.61771e-12
8.99991e-13
1.71518e-12
1.48614e-12
2.1011e-12
6.44604e-13
2.08956e-12
-1.14915e-12
1.74265e-12
-6.58152e-13
1.48858e-12
2.23317e-13
1.42088e-12
-1.17573e-13
1.55589e-12
-4.64517e-13
1.46226e-12
-4.31706e-13
1.35595e-12
-1.34777e-13
2.25138e-13
5.68043e-12
2.72697e-12
3.80604e-12
-1.34104e-12
3.31595e-12
-4.75478e-13
3.07405e-12
-9.41562e-15
3.53529e-12
5.8122e-13
4.38574e-12
1.48441e-12
1.88794e-12
-8.162e-13
-1.48152e-12
-3.67953e-12
-6.51735e-15
2.0239e-13
4.56444e-12
4.03304e-12
5.51238e-12
1.72118e-12
1.30248e-12
9.31364e-13
5.66407e-13
-4.54089e-12
6.01899e-13
-9.0099e-13
9.11028e-13
6.22891e-14
1.16401e-12
1.33673e-13
1.29547e-12
6.96733e-14
1.35441e-12
2.86491e-14
1.37164e-12
7.87436e-15
1.36163e-12
-6.947e-15
1.33792e-12
-1.43492e-14
1.31346e-12
-1.43912e-14
1.30322e-12
-1.11344e-15
1.31101e-12
6.85452e-15
1.40032e-12
3.51184e-14
1.55406e-12
1.01212e-13
1.5914e-12
2.27054e-14
1.66606e-12
4.04346e-14
1.47954e-12
-1.06197e-13
1.38863e-12
-3.22148e-14
1.39756e-12
1.80095e-14
1.35538e-12
-2.73583e-14
1.16147e-12
-1.27279e-13
7.93917e-13
-2.10379e-13
1.2536e-12
4.40307e-13
1.84777e-12
8.91965e-13
2.22314e-12
2.69232e-13
1.8256e-12
-7.51603e-13
1.42335e-12
-2.55905e-13
1.29589e-12
3.50779e-13
1.22764e-12
-4.93213e-14
1.21725e-12
-4.54133e-13
1.01575e-12
-2.30198e-13
8.95799e-13
-1.48296e-14
1.46436e-13
3.03122e-12
1.69018e-12
1.2147e-12
1.20529e-12
1.78651e-12
3.27092e-12
2.45472e-12
-1.22481e-12
-1.02242e-12
3.01062e-12
4.7318e-12
5.66316e-12
1.12227e-12
2.21281e-13
2.8357e-13
4.17243e-13
4.86916e-13
5.15565e-13
5.2344e-13
5.16493e-13
5.02144e-13
4.87752e-13
4.86639e-13
4.93494e-13
5.28612e-13
6.29824e-13
6.5253e-13
6.92964e-13
5.86767e-13
5.54552e-13
5.72562e-13
5.45203e-13
4.17924e-13
2.07546e-13
6.47853e-13
1.53982e-12
1.80905e-12
1.05745e-12
8.01541e-13
1.15232e-12
1.103e-12
6.48865e-13
4.18666e-13
4.03837e-13
)
;

boundaryField
{
    AirInlet
    {
        type            calculated;
        value           nonuniform List<scalar> 5(-1.6e-13 -1.6e-13 -1.6e-13 -1.6e-13 -1.6e-13);
    }
    WaterInlet
    {
        type            calculated;
        value           nonuniform List<scalar> 10(-2e-12 -2e-12 -2e-12 -2e-12 -2e-12 -2e-12 -2e-12 -2e-12 -2e-12 -2e-12);
    }
    ChannelWall
    {
        type            calculated;
        value           uniform 0;
    }
    Outlet
    {
        type            calculated;
        value           nonuniform List<scalar> 
15
(
2.29711e-12
2.32623e-12
2.02542e-12
2.09977e-12
2.17975e-12
5.0731e-13
5.22103e-13
5.28838e-13
5.38012e-13
5.35419e-13
2.33332e-12
1.95214e-12
1.4298e-12
9.74501e-13
5.50272e-13
)
;
    }
    FrontAndBack
    {
        type            empty;
        value           nonuniform 0();
    }
}


// ************************************************************************* //
