/*--------------------------------*- C++ -*----------------------------------*\
| =========                 |                                                 |
| \\      /  F ield         | OpenFOAM: The Open Source CFD Toolbox           |
|  \\    /   O peration     | Version:  2.3.0                                 |
|   \\  /    A nd           | Web:      www.OpenFOAM.org                      |
|    \\/     M anipulation  |                                                 |
\*---------------------------------------------------------------------------*/
FoamFile
{
    version     2.0;
    format      ascii;
    class       volVectorField;
    location    "0.034";
    object      U;
}
// * * * * * * * * * * * * * * * * * * * * * * * * * * * * * * * * * * * * * //

dimensions      [0 1 -1 0 0 0 0];

internalField   nonuniform List<vector> 
725
(
(0.0468113 0.00684005 -4.03959e-31)
(0.0508778 0.00206416 6.98377e-32)
(0.0353064 0.000982395 5.03608e-32)
(0.0390629 0.00542863 0)
(-0.0503427 0.0125699 1.41184e-31)
(0.0901787 0.0140933 -1.81742e-30)
(0.105397 0.00857621 2.38504e-31)
(0.0832709 0.00652741 2.25926e-31)
(0.0899353 0.0286086 0)
(-0.0403957 0.0505995 6.19582e-31)
(0.102795 0.0100478 -4.00344e-31)
(0.122188 0.0126379 -2.78734e-32)
(0.102497 0.0117876 9.17038e-33)
(0.112087 0.0490597 0)
(0.0187288 0.0785461 7.63253e-31)
(0.0909435 0.00360813 2.43891e-30)
(0.104035 0.012787 -1.09839e-31)
(0.0902787 0.0106214 7.84416e-31)
(0.0969946 0.0415428 0)
(0.200263 0.044375 -8.99726e-30)
(0.0468839 0.00191503 2.51923e-30)
(0.0483914 0.00772584 -2.15092e-31)
(0.0395252 0.00595682 5.4814e-31)
(0.003443 0.00369428 -1.18615e-30)
(0.164202 -0.00234521 -9.96816e-30)
(-0.0842474 -0.0104422 0)
(0.0790806 -0.0224323 0)
(0.122986 0.0121412 0)
(0.0758449 -0.00183416 0)
(0.0411202 0.00861561 0)
(-0.00520584 -0.000595794 0)
(0.000993083 -0.00187964 0)
(0.00560571 -0.0010275 0)
(0.0106429 -0.000756529 0)
(0.0154624 -0.00079961 0)
(0.0218432 -0.00106172 0)
(0.0292971 -0.00170856 0)
(0.050476 -0.00376286 0)
(0.0680767 -0.0237299 0)
(0.199357 -0.047402 0)
(0.298102 -0.0395059 0)
(0.160981 0.00936545 0)
(0.057718 0.00820492 0)
(0.0485526 0.00535125 0)
(0.0469452 0.00746593 0)
(0.0356188 0.00373086 0)
(0.0249976 0.000689726 0)
(0.0209325 0.000380248 0)
(0.0197985 6.52407e-05 0)
(0.0177987 0.000411929 0)
(0.0155882 0.000128218 0)
(0.0146188 0.000119639 0)
(0.0141482 1.16486e-05 0)
(0.0142679 -4.88775e-05 0)
(0.0144082 -1.34282e-05 0)
(0.0144595 -1.79602e-05 0)
(0.014972 -0.000102979 0)
(0.0159857 -0.000127618 0)
(0.0167024 -4.39916e-05 0)
(0.01705 -5.49578e-05 0)
(0.0168656 1.5849e-05 0)
(0.0181904 -0.00024757 0)
(0.0155059 9.32044e-05 0)
(0.023568 -0.000671819 0)
(0.00917806 0.000238022 0)
(0.0387071 -0.00159881 0)
(-0.00401051 0.00226809 0)
(0.0580375 -0.0103726 0)
(0.0567915 -0.0180119 0)
(-0.0274021 0.00685564 0)
(-0.00767105 -0.058448 0)
(0.164343 -0.110258 0)
(0.224943 0.0199275 0)
(0.178971 0.0230671 0)
(0.135472 0.0444295 0)
(0.045365 0.0146205 0)
(0.024342 -0.00183938 0)
(0.0258433 -0.00345366 0)
(0.030832 -0.00367379 0)
(0.0375459 -0.00436207 0)
(0.0471454 -0.00578525 0)
(0.0577666 -0.0102984 0)
(0.0885511 -0.0127759 0)
(0.0851833 -0.0589204 0)
(0.201335 -0.0977799 0)
(0.268232 0.08274 0)
(0.236337 0.069492 0)
(0.112972 0.0469364 0)
(0.0411009 -0.0169158 0)
(0.0666364 0.00750164 0)
(0.0647583 0.0102097 0)
(0.0574679 0.00479519 0)
(0.0504739 0.00202379 0)
(0.0489651 0.00085071 0)
(0.0453759 0.00223042 0)
(0.0412803 0.00108214 0)
(0.0396358 0.000712945 0)
(0.0389515 0.000103055 0)
(0.0390934 -0.000187693 0)
(0.0391496 -5.51815e-05 0)
(0.0390717 -0.000165924 0)
(0.0399546 -0.000668606 0)
(0.0419139 -0.000804927 0)
(0.0433147 -0.000362195 0)
(0.0439167 -0.000170721 0)
(0.0433988 3.55605e-06 0)
(0.0453465 -0.000375404 0)
(0.040093 -4.11483e-05 0)
(0.0529344 -0.000683235 0)
(0.0260907 -0.000545055 0)
(0.0758303 -0.00260453 0)
(-0.00678203 0.00141372 0)
(0.108975 -0.0187314 0)
(-0.131273 0.0788376 0)
(-0.507242 0.0214149 0)
(0.185284 -0.107215 0)
(0.0850368 -0.124003 0)
(0.0436423 0.0454262 0)
(0.197381 0.0039055 0)
(0.205848 0.0803683 0)
(0.0844131 0.0412787 0)
(0.0541014 0.00470845 0)
(0.0492126 -0.00348876 0)
(0.049112 -0.00582629 0)
(0.053905 -0.00767235 0)
(0.0623314 -0.0101484 0)
(0.0711568 -0.0182236 0)
(0.100347 -0.019123 0)
(0.0884792 -0.0853537 0)
(0.190381 -0.130537 0)
(0.197803 0.0608619 0)
(0.218041 0.0774779 0)
(0.147063 0.0947598 0)
(0.0661432 0.00182993 0)
(0.0668405 0.00211173 0)
(0.0764545 0.00886298 0)
(0.0769307 0.00831203 0)
(0.0704535 0.00335114 0)
(0.0693219 0.00161358 0)
(0.0655367 0.00460408 0)
(0.0609914 0.0021722 0)
(0.0600298 0.00131901 0)
(0.0600262 0.000305902 0)
(0.0602963 -0.000195321 0)
(0.0600784 2.62367e-05 0)
(0.0595743 -0.00026733 0)
(0.0602305 -0.00138317 0)
(0.0624017 -0.00173014 0)
(0.0638763 -0.000774798 0)
(0.0643149 -0.000275123 0)
(0.0634711 6.43476e-05 0)
(0.0656802 -0.000454074 0)
(0.0596563 0.000228467 0)
(0.0737694 -0.000541153 0)
(0.0429344 -0.000250321 0)
(0.0989299 -0.00248658 0)
(0.00282739 0.00347197 0)
(0.171278 -0.00165289 0)
(-0.0399672 0.242579 0)
(0.358485 -0.00573685 0)
(0.312425 -0.0947542 0)
(-0.0192929 -0.0309485 0)
(0.0146892 -0.0498429 0)
(0.2148 -0.0341482 0)
(0.243279 0.11367 0)
(0.13117 0.0716512 0)
(0.0943425 0.016232 0)
(0.0767169 0.000518045 0)
(0.0675617 -0.0057316 0)
(0.0681506 -0.00987331 0)
(0.0735434 -0.0135202 0)
(0.0789281 -0.0248454 0)
(0.102912 -0.023025 0)
(0.0827924 -0.107862 0)
(0.166321 -0.142388 0)
(0.0927528 0.0777156 0)
(0.150894 0.0398457 0)
(0.17267 0.137917 0)
(0.0943292 0.0269982 0)
(0.0656971 -0.000224771 0)
(0.0812972 0.00325626 0)
(0.0876184 0.00932828 0)
(0.0829907 0.00543956 0)
(0.0806294 0.0021691 0)
(0.0765584 0.00749747 0)
(0.0720452 0.00272219 0)
(0.0729054 0.00112011 0)
(0.0748209 -0.000177979 0)
(0.0763586 -0.000350224 0)
(0.0766077 0.000269159 0)
(0.0757567 1.21824e-05 0)
(0.0756876 -0.00190825 0)
(0.0774475 -0.00261398 0)
(0.0784604 -0.00102772 0)
(0.0783236 -0.000239127 0)
(0.0770657 0.000189618 0)
(0.0795192 -0.000552049 0)
(0.0735486 0.000570925 0)
(0.0879541 -0.000273328 0)
(0.0564633 0.000408308 0)
(0.115283 -0.0031974 0)
(0.0203724 -0.000208759 0)
(0.224019 -0.0172998 0)
(0.132714 0.0470146 0)
(1.39671 0.0250683 0)
(-0.254813 -0.0216651 0)
(-0.0697069 0.0624436 0)
(-0.169967 -0.0810206 0)
(-0.125106 -0.0232949 0)
(0.189448 0.0850354 0)
(0.192353 0.0764461 0)
(0.139034 0.0299199 0)
(0.103383 0.0111289 0)
(0.0844485 -0.00188697 0)
(0.0802529 -0.0101696 0)
(0.0816409 -0.0154179 0)
(0.0808461 -0.0293947 0)
(0.0913939 -0.0241675 0)
(0.072281 -0.122215 0)
(0.127894 -0.131799 0)
(-0.0410456 0.121346 0)
(0.0707908 -0.0665968 0)
(0.140989 0.186628 0)
(0.134653 0.0456846 0)
(0.070831 0.00405026 0)
(0.0796563 0.00167555 0)
(0.0866268 0.0074442 0)
(0.0865311 0.00739096 0)
(0.086525 0.00203114 0)
(0.0836252 0.0111932 0)
(0.0803556 0.00251064 0)
(0.0815707 0.000699082 0)
(0.0837126 -0.00106505 0)
(0.0855152 -0.00102697 0)
(0.0863057 7.32593e-05 0)
(0.0856031 0.000234581 0)
(0.0852971 -0.00231699 0)
(0.0868139 -0.00333882 0)
(0.0870394 -0.000902513 0)
(0.0859158 -5.90037e-07 0)
(0.0840908 0.000417182 0)
(0.086778 -0.00103999 0)
(0.0811152 0.00118072 0)
(0.0956435 -0.000834652 0)
(0.0641127 0.00231687 0)
(0.123524 -0.00743047 0)
(0.0277639 -0.00403647 0)
(0.215165 -0.0612112 0)
(0.116834 -0.378087 0)
(0.901003 -0.220633 0)
(-1.76751 0.110947 0)
(-0.235431 -0.124521 0)
(-0.629776 -0.0145776 0)
(-0.0101222 -0.170124 0)
(0.464054 0.0252813 0)
(0.294898 0.0989621 0)
(0.161231 0.0510131 0)
(0.112447 0.0208873 0)
(0.0908004 0.00174075 0)
(0.0851944 -0.00920449 0)
(0.0829765 -0.0147207 0)
(0.0780424 -0.0280362 0)
(0.0703581 -0.0231158 0)
(0.0691454 -0.129722 0)
(0.112172 -0.112983 0)
(-0.114387 0.144278 0)
(0.0341432 -0.113587 0)
(0.0771833 0.194946 0)
(0.149558 0.0401811 0)
(0.0645685 0.0136967 0)
(0.0679529 0.000352494 0)
(0.0794222 0.0054848 0)
(0.0828431 0.00692132 0)
(0.0842889 0.00173224 0)
(0.0849607 0.0116873 0)
(0.0853185 0.00234015 0)
(0.0858552 0.000212202 0)
(0.0892481 -0.00168136 0)
(0.0910981 -0.00134649 0)
(0.0911787 0.000156521 0)
(0.0894245 0.00058132 0)
(0.0881521 -0.00233932 0)
(0.089072 -0.00347102 0)
(0.0884612 -0.000550984 0)
(0.0864574 0.000475621 0)
(0.0840639 0.000454122 0)
(0.0868353 -0.000988445 0)
(0.0810033 0.000576424 0)
(0.0960719 3.85936e-05 0)
(0.0639982 0.000886339 0)
(0.123919 -0.00754104 0)
(0.0246983 -0.0103022 0)
(0.211347 -0.0852885 0)
(0.0981675 -0.447606 0)
(0.671724 -0.229237 0)
(-5.60785 0.438677 0)
(-0.978444 -0.365593 0)
(-0.363498 -0.00505242 0)
(0.390452 -0.241501 0)
(0.708877 0.0234448 0)
(0.336504 0.118764 0)
(0.165729 0.0613626 0)
(0.114608 0.024592 0)
(0.0927398 0.00309979 0)
(0.0867442 -0.00877421 0)
(0.0832631 -0.0142968 0)
(0.0769852 -0.0271643 0)
(0.0624776 -0.0227098 0)
(0.067948 -0.13241 0)
(0.104064 -0.103814 0)
(-0.130906 0.153153 0)
(0.0196933 -0.131118 0)
(0.0595303 0.195022 0)
(0.160061 0.0381737 0)
(0.0615872 0.0182661 0)
(0.0631078 -0.000735082 0)
(0.0767744 0.00474057 0)
(0.0813976 0.00656915 0)
(0.083816 0.00162239 0)
(0.0853635 0.0115476 0)
(0.0865075 0.00232553 0)
(0.0870039 -1.72493e-05 0)
(0.0905763 -0.00195373 0)
(0.0925649 -0.00144477 0)
(0.0926249 0.000247576 0)
(0.0905877 0.000762414 0)
(0.0889352 -0.00230929 0)
(0.08959 -0.00347877 0)
(0.088695 -0.000397339 0)
(0.0863618 0.000698964 0)
(0.0837408 0.000459354 0)
(0.0864937 -0.000883729 0)
(0.0806204 0.000214972 0)
(0.0959137 0.00067664 0)
(0.0637495 -1.17583e-05 0)
(0.123727 -0.00656914 0)
(0.0230195 -0.0129559 0)
(0.203006 -0.0902701 0)
(0.0778705 -0.46945 0)
(0.606868 -0.252773 0)
(-2.86267 0.818079 0)
(-1.30349 -0.732089 0)
(-0.114074 -0.0697117 0)
(0.537824 -0.299007 0)
(0.863627 0.0416243 0)
(0.367743 0.146738 0)
(0.166842 0.0735946 0)
(0.115718 0.0283243 0)
(0.0943076 0.00446969 0)
(0.0880338 -0.00826832 0)
(0.0833819 -0.0137434 0)
(0.076038 -0.0258908 0)
(0.0543922 -0.0222658 0)
(0.0655939 -0.134757 0)
(0.0896638 -0.0940844 0)
(-0.149534 0.162258 0)
(0.00742677 -0.148852 0)
(0.0413063 0.194061 0)
(0.155951 0.035692 0)
(0.0602195 0.0234977 0)
(0.0610075 -0.0019762 0)
(0.0749705 0.00394049 0)
(0.0805738 0.00613167 0)
(0.0829039 0.00144724 0)
(0.084984 0.0113208 0)
(0.0868664 0.0022796 0)
(0.0871472 -0.000232361 0)
(0.0903209 -0.00222226 0)
(0.0920542 -0.00154456 0)
(0.0922236 0.000345036 0)
(0.090414 0.000965782 0)
(0.0888786 -0.00227076 0)
(0.0895699 -0.00346972 0)
(0.088574 -0.000216265 0)
(0.0859481 0.000959529 0)
(0.0830835 0.000474584 0)
(0.0857596 -0.000754976 0)
(0.0798713 -0.000200195 0)
(0.0954345 0.00137574 0)
(0.0633299 -0.00105441 0)
(0.123198 -0.00526338 0)
(0.0208657 -0.0153936 0)
(0.189614 -0.092701 0)
(0.0288129 -0.488637 0)
(0.405213 -0.268536 0)
(-1.3283 1.00244 0)
(-2.97286 -0.71979 0)
(-0.421175 -0.265994 0)
(0.321822 -0.361823 0)
(0.851139 0.0583057 0)
(0.374039 0.177776 0)
(0.163627 0.0869444 0)
(0.115719 0.0319482 0)
(0.0954862 0.00581106 0)
(0.0890477 -0.00769535 0)
(0.0833765 -0.0130904 0)
(0.0753062 -0.0242136 0)
(0.046535 -0.0217653 0)
(0.0633695 -0.136639 0)
(0.0746157 -0.0837243 0)
(-0.152462 0.170317 0)
(-0.0025984 -0.164013 0)
(0.0173174 0.192104 0)
(0.146678 0.0324474 0)
(0.0617756 0.028087 0)
(0.0621117 -0.00303803 0)
(0.0740651 0.0030924 0)
(0.0804971 0.00570755 0)
(0.0820416 0.00126796 0)
(0.0843253 0.0110411 0)
(0.0869276 0.00219961 0)
(0.0870899 -0.000411259 0)
(0.0897762 -0.00244709 0)
(0.0911443 -0.00163468 0)
(0.0913917 0.000418069 0)
(0.0902099 0.00113901 0)
(0.0890181 -0.00224588 0)
(0.0894427 -0.00345528 0)
(0.0882405 -1.45087e-05 0)
(0.0854554 0.0012475 0)
(0.0824464 0.000505609 0)
(0.0849643 -0.000619341 0)
(0.0789636 -0.00062495 0)
(0.0947862 0.00205279 0)
(0.0628768 -0.00211728 0)
(0.122483 -0.00383928 0)
(0.0185002 -0.0171567 0)
(0.177131 -0.0932253 0)
(-0.0179686 -0.498829 0)
(0.20798 -0.281541 0)
(-0.231115 1.12232 0)
(-1.93475 -0.516804 0)
(-0.786285 -0.579479 0)
(0.0345115 -0.437455 0)
(0.735998 0.061307 0)
(0.346023 0.205146 0)
(0.155351 0.0996474 0)
(0.114834 0.0353247 0)
(0.0962693 0.00708676 0)
(0.0897753 -0.00706798 0)
(0.0831963 -0.0123471 0)
(0.0747572 -0.0221577 0)
(0.0395737 -0.0212311 0)
(0.0616187 -0.138387 0)
(0.0596495 -0.0735801 0)
(-0.107752 0.174511 0)
(-0.0102966 -0.171564 0)
(-0.0218752 0.187017 0)
(0.139915 0.0279995 0)
(0.0644589 0.0318407 0)
(0.0643094 -0.00369233 0)
(0.0732225 0.00223929 0)
(0.0805439 0.00528085 0)
(0.0815508 0.00116128 0)
(0.083616 0.0107063 0)
(0.0866687 0.00211248 0)
(0.0867558 -0.00056205 0)
(0.0889222 -0.00262094 0)
(0.0899281 -0.0017112 0)
(0.0904264 0.000426052 0)
(0.0901843 0.00122235 0)
(0.0892578 -0.00219424 0)
(0.0890691 -0.00341049 0)
(0.0877105 0.000194869 0)
(0.0853264 0.00151677 0)
(0.0827312 0.000544657 0)
(0.0851354 -0.000485045 0)
(0.07894 -0.00101378 0)
(0.094872 0.00263182 0)
(0.0628146 -0.00304016 0)
(0.121936 -0.00250419 0)
(0.0164085 -0.0178253 0)
(0.165887 -0.0914212 0)
(-0.0469355 -0.501378 0)
(0.109599 -0.297005 0)
(0.0427613 -0.000979654 0)
(0.0591129 -0.0111335 1.67775e-31)
(0.0202101 -0.00614736 -1.04262e-32)
(0.134338 -0.0488788 2.15153e-30)
(0.203443 0.0351406 0)
(0.0821946 -0.00250929 0)
(0.122842 -0.0175165 0)
(0.0373546 -0.021241 0)
(0.228038 -0.120501 4.14745e-30)
(0.186746 -0.165538 0)
(0.0923651 -0.00893526 0)
(0.142307 -0.013905 0)
(0.034718 -0.0171692 0)
(0.111186 -0.0857602 7.11618e-31)
(-0.474339 -0.174409 0)
(0.0810926 -0.0133258 0)
(0.125055 -0.00637461 0)
(0.0370351 -9.83602e-05 0)
(0.123347 0.0181874 2.07664e-30)
(-0.312611 -0.131027 0)
(0.0421961 -0.00696698 0)
(0.0627662 -0.000544724 0)
(0.0219366 0.00112786 0)
(0.103858 0.0237306 1.22505e-30)
(0.107255 -0.0148755 0)
(0.3574 0.709916 0)
(0.44478 0.0276421 0)
(-0.566788 -0.770041 0)
(-0.313943 -0.545682 0)
(0.164576 0.0535491 0)
(0.170964 0.24574 0)
(0.118439 0.125584 0)
(0.109236 0.0441098 0)
(0.0968813 0.0103878 0)
(0.090846 -0.00516253 0)
(0.0821544 -0.00989914 0)
(0.0739309 -0.0153055 0)
(0.0243514 -0.0198021 0)
(0.0570188 -0.140894 0)
(0.0112704 -0.0507736 0)
(-0.00583319 0.170958 0)
(-0.0244613 -0.164689 0)
(-0.0781386 0.158088 0)
(0.116215 0.00798285 0)
(0.0686168 0.0418079 0)
(0.0684377 -0.00339771 0)
(0.0710102 -2.82828e-05 0)
(0.0796083 0.0039649 0)
(0.0796959 0.00131447 0)
(0.0815524 0.00954041 0)
(0.0852927 0.00202015 0)
(0.0852312 -0.000935866 0)
(0.0859663 -0.00289741 0)
(0.0860845 -0.0018772 0)
(0.0872159 4.04788e-05 0)
(0.0896665 0.000841363 0)
(0.0895038 -0.00179155 0)
(0.0872441 -0.00317946 0)
(0.0857766 0.00070495 0)
(0.0848412 0.00209392 0)
(0.0833128 0.00068715 0)
(0.08548 -0.000226369 0)
(0.07902 -0.00171051 0)
(0.0959672 0.00343154 0)
(0.0628662 -0.00361591 0)
(0.119537 -0.000424842 0)
(0.0110253 -0.0133585 0)
(0.125309 -0.0760962 0)
(-0.190714 -0.395812 0)
(-0.886514 -0.140981 0)
(0.85235 0.438913 0)
(1.41163 0.509815 0)
(0.281994 -0.439983 0)
(-0.262777 -0.541575 0)
(-0.245169 -0.0952742 0)
(-0.0211802 0.192816 0)
(0.0453095 0.111406 0)
(0.0842243 0.0449322 0)
(0.0873749 0.0123329 0)
(0.0854886 -0.00207641 0)
(0.0779993 -0.00545106 0)
(0.0762089 -0.00185552 0)
(0.0324567 -0.0163399 0)
(0.0544847 -0.129852 0)
(-0.0574291 -0.0225193 0)
(0.0121396 0.119601 0)
(-0.0175107 -0.0664518 0)
(0.0208479 0.0800133 0)
(0.043492 0.00325538 0)
(0.0594517 0.043546 0)
(0.0623804 -0.0014414 0)
(0.0639757 -0.00392991 0)
(0.0719143 0.0017829 0)
(0.0723422 0.00199112 0)
(0.0755053 0.00670427 0)
(0.0802788 0.00173465 0)
(0.0810723 -0.0013922 0)
(0.0813638 -0.00289278 0)
(0.0811101 -0.00196916 0)
(0.0808918 -0.000744129 0)
(0.0813884 -0.000316296 0)
(0.0805615 -0.000337495 0)
(0.0774952 -0.00203003 0)
(0.0758967 0.000939428 0)
(0.0768011 0.00200576 0)
(0.076894 0.000734355 0)
(0.079417 -0.000316326 0)
(0.0722174 -0.00130582 0)
(0.0887683 0.00182051 0)
(0.054755 -7.50031e-05 0)
(0.113117 -0.000822913 0)
(-0.00428676 0.00538505 0)
(0.0649513 -0.0270192 0)
(-0.315823 -0.0861116 0)
(-1.22048 -0.0369037 0)
(0.250532 0.318969 0)
(0.804151 0.700403 0)
(-1.05596 -0.293295 0)
(-0.190916 -0.652891 0)
(-0.307715 -0.121104 0)
(-0.106794 0.11607 0)
(-0.00454553 0.0736035 0)
(0.055838 0.032644 0)
(0.0694218 0.00939665 0)
(0.0722927 -0.000922909 0)
(0.0670647 -0.00371027 0)
(0.0701098 0.0042118 0)
(0.0514721 -0.0104096 0)
(0.0482391 -0.097086 0)
(-0.107333 -0.0105309 0)
(0.0127119 0.0793125 0)
(-0.0142342 -0.0368933 0)
(0.0479069 0.0324016 0)
(-0.000244396 0.0205515 0)
(0.0543063 0.0325427 0)
(0.058076 -0.00392609 0)
(0.0563574 -0.00553245 0)
(0.059839 0.000526757 0)
(0.0611619 0.00137036 0)
(0.0651308 0.00399778 0)
(0.0693586 0.000865108 0)
(0.0693592 -0.00146278 0)
(0.0674822 -0.00245292 0)
(0.065179 -0.0013996 0)
(0.0639001 -0.000108462 0)
(0.0636803 0.000208927 0)
(0.0634373 0.000258149 0)
(0.0618484 -0.000923544 0)
(0.06108 0.00074756 0)
(0.0627382 0.00136275 0)
(0.0634446 0.000407171 0)
(0.0659631 -0.000303895 0)
(0.0585922 -0.00104559 0)
(0.0748095 0.000923431 0)
(0.0432834 0.000561321 0)
(0.105895 0.00209229 0)
(-0.0132003 0.0231945 0)
(0.10861 0.0377016 0)
(-0.276329 0.230968 0)
(-0.937672 0.0251148 0)
(-0.248103 -0.01084 0)
(0.538491 0.604053 0)
(1.49452 0.345049 0)
(0.305612 -0.600216 0)
(-0.374681 -0.0890152 0)
(-0.109763 0.0479557 0)
(-0.0302939 0.0329834 0)
(0.0300492 0.0152851 0)
(0.0447631 0.0039374 0)
(0.0486228 -0.00126606 0)
(0.0436112 -0.0030245 0)
(0.0463125 0.00292641 0)
(0.0473903 -0.00452386 0)
(0.0291414 -0.0551239 0)
(-0.134946 -0.0105961 0)
(0.00653829 0.0537959 0)
(-0.0235755 -0.0193257 0)
(0.0374709 0.00487051 0)
(-0.0378684 0.039331 0)
(0.0466887 0.015377 0)
(0.0472129 -0.00708272 0)
(0.0403468 -0.00383405 0)
(0.0404888 -0.000171418 0)
(0.0414958 0.000664539 0)
(0.0446329 0.00193936 0)
(0.0475939 0.000349629 0)
(0.0468759 -0.000798011 0)
(0.0444015 -0.00118427 0)
(0.0421932 -0.000505358 0)
(0.0414696 4.39316e-05 0)
(0.0416677 0.000137351 0)
(0.0419544 0.000148513 0)
(0.0412016 -0.000374106 0)
(0.0409387 0.000372599 0)
(0.0425508 0.000611823 0)
(0.0432011 4.84119e-05 0)
(0.0452291 -0.000252091 0)
(0.038461 -0.000773035 0)
(0.052842 -7.88952e-05 0)
(0.0237823 0.000222497 0)
(0.0841574 0.00271083 0)
(-0.0185323 0.0255515 0)
(0.193865 0.0552274 0)
(-0.0612346 0.408643 0)
(0.245192 0.0709131 0)
(-0.237091 -0.0901104 0)
(-0.0268282 0.14918 0)
(0.894639 -0.0866668 0)
(0.300992 -0.132922 0)
(-0.15476 -0.0338669 0)
(-0.0577569 0.000198411 0)
(-0.0222389 0.00476905 0)
(0.0101551 0.0017469 0)
(0.0168602 0.000247458 0)
(0.0176264 -0.00057366 0)
(0.0123451 -0.0011352 0)
(0.0113978 -0.000105244 0)
(0.0138707 -0.00151876 0)
(-0.000930098 -0.0151762 0)
(-0.117711 -0.00499523 0)
(-0.0493382 -0.0142532 0)
(-0.0368686 -0.00755666 0)
(-0.0597423 0.00647868 0)
(-0.0117668 0.0132824 0)
(0.0352311 0.000613583 0)
(0.0253065 -0.00322267 0)
(0.0155092 -0.000499382 0)
(0.0143109 -0.000119679 0)
(0.0145133 0.000147165 0)
(0.0165581 0.000415646 0)
(0.0183352 5.84101e-05 0)
(0.0179436 -0.000120813 0)
(0.0165758 -0.000182809 0)
(0.0154885 -4.9759e-05 0)
(0.0152834 2.81553e-05 0)
(0.0155114 2.88662e-05 0)
(0.0158048 5.77299e-05 0)
(0.0155379 -8.67956e-05 0)
(0.0154307 5.40559e-05 0)
(0.0162268 8.69204e-05 0)
(0.0163638 -9.74673e-05 0)
(0.0172237 -1.76068e-06 0)
(0.0127837 -0.000484214 0)
(0.0207248 0.000124525 0)
(0.00149988 -0.000580998 0)
(0.0388229 0.0019016 0)
(-0.0164031 0.00829224 0)
(0.182788 0.0252435 0)
(0.16975 0.269764 0)
(1.1956 0.146081 0)
)
;

boundaryField
{
    AirInlet
    {
        type            fixedValue;
        value           uniform (0.1 0 0);
    }
    WaterInlet
    {
        type            fixedValue;
        value           uniform (0.1 0 0);
    }
    ChannelWall
    {
        type            fixedValue;
        value           uniform (0 0 0);
    }
    Outlet
    {
        type            pressureInletOutletVelocity;
        value           nonuniform List<vector> 
15
(
(-0.0132354 0 0)
(-0.416551 0 0)
(0.358485 -0.00573685 0)
(1.39671 0.0250683 0)
(0.901003 -0.220633 0)
(0.671724 -0.229237 0)
(0.606868 -0.252773 0)
(0.405213 -0.268536 0)
(0.20798 -0.281541 0)
(-0.0838449 -0 0)
(-0.896312 -0 0)
(-1.14474 -0 0)
(-0.848901 0 0)
(0.245192 0.0709131 0)
(1.1956 0.146081 0)
)
;
    }
    FrontAndBack
    {
        type            empty;
    }
}


// ************************************************************************* //
