/*--------------------------------*- C++ -*----------------------------------*\
| =========                 |                                                 |
| \\      /  F ield         | OpenFOAM: The Open Source CFD Toolbox           |
|  \\    /   O peration     | Version:  2.3.0                                 |
|   \\  /    A nd           | Web:      www.OpenFOAM.org                      |
|    \\/     M anipulation  |                                                 |
\*---------------------------------------------------------------------------*/
FoamFile
{
    version     2.0;
    format      ascii;
    class       volScalarField;
    location    "2.5";
    object      p_rgh;
}
// * * * * * * * * * * * * * * * * * * * * * * * * * * * * * * * * * * * * * //

dimensions      [1 -1 -2 0 0 0 0];

internalField   nonuniform List<scalar> 
2268
(
979.827
975.193
973.485
963.861
947.681
929.894
912.808
895.117
879.51
866.798
852.564
834.307
816.901
801.365
787.274
774.432
763.954
754.087
744.803
736.803
729.907
727.287
729.934
978.576
974.455
974.466
965.915
948.979
930.091
911.689
892.983
877.568
865.297
851.906
834.207
816.54
801.029
786.627
773.895
763.507
753.803
744.371
736.016
729.081
725.974
729.634
972.484
965.569
974.331
967.226
950.634
930.745
910.128
890.854
875.251
860.495
849.534
833.351
816.946
800.383
785.645
772.898
762.837
752.733
743.023
734.233
727.398
725.422
730.003
970.702
963.863
968.738
969.159
952.298
931.366
909.487
888.976
864.141
845.295
836.135
830.046
814.873
800.539
786.383
773.618
761.94
750.411
740.028
731.155
725.095
724.763
731.171
974.123
965.464
957.184
972.329
954.454
932.557
910.177
884.092
855.16
840.887
824.357
824.695
812.123
799.368
786.872
774.051
760.768
747.23
735.826
726.62
720.877
721.713
730.76
980.193
967.687
957.743
976.689
957.525
934.648
912.099
882.663
855.085
836.54
835.705
822.785
808.784
798.079
787.159
774.645
759.639
739.2
722.316
708.007
701.625
704.858
727.843
1012.3
980.489
965.405
970.521
961.607
937.548
914.803
894.781
880.399
848.603
838.802
818.476
805.642
796.799
787.275
775.111
758.747
723.676
710.193
699.622
694.393
697.811
711.162
1025.98
1012.14
990.33
965.851
954
941.327
918.778
899.672
881.231
859.29
834.056
814.858
803.177
795.952
787.122
775.106
756.377
722.121
709.23
699.88
691.622
692.769
715.965
606.973
597.822
602.133
591.478
581.864
603.266
621.045
624.53
622.443
614.151
601.367
601.356
617.809
639.287
656.844
664.06
663.359
667.355
679.415
603.775
591.489
599.633
586.756
573.874
597.424
616.556
620.007
617.965
610.25
596.144
594.977
613.121
636.952
660.432
663.536
659.463
661.624
678.817
603.684
590.716
597.478
578.614
567.001
592.728
610.609
613.982
613.191
606.283
589.562
588.828
607.739
631.211
656.284
663.675
656.666
656.795
673.363
606.078
599.806
600.226
574.721
563.403
588.133
604.006
607.713
608.4
601.766
583.181
581.902
603.893
625.701
649.778
655.204
655.452
660.477
672.733
615.112
617.924
602.035
576.056
563.839
584.203
597.385
600.588
603.933
598.005
579.851
578.377
602.163
622.544
634.689
640.751
655.745
664.059
677.055
619.156
625.327
605.789
580.529
568.951
581.32
590.16
595.464
599.62
595.215
582.729
567.693
580.344
594.663
612.024
639.073
667.029
675.77
692.737
624.653
623.175
610.73
585.829
573.937
578.939
584.924
592.585
595.798
593.403
584.317
574.168
593.133
589.1
613.409
638.805
683.628
703.861
716.028
642.009
624.942
605.603
591.421
575.313
575.436
580.624
587.671
591.563
591.202
587.205
595.153
609.52
633.142
631.996
663.941
695.242
705.918
717.052
1036.1
1020.88
1006.75
984.144
957.95
940.221
928.167
905.63
880.448
852.668
827.024
809.762
799.367
792.735
785.471
774.766
756.986
737.284
719.526
705.185
700.212
705.703
714.044
1057.32
1040.58
1021
1014.3
991.24
967.223
939.889
916.452
891.023
851.546
809.891
789.444
790.006
790.317
785.626
756.998
719.345
651.279
600.17
585.551
611.536
638.477
649.326
1088.48
1077.29
1056.35
1036.54
1010.99
981.933
952.002
919.242
831.748
497.47
329.952
322.738
424.816
487.324
512.464
403.652
277.672
176.319
101.755
77.3749
112.708
144.572
117.7
1127.86
1117.16
1096.7
1063.07
1026.84
996.656
949.348
570.733
199.112
22.4788
1.5127
1.20371
1.04047
0.934738
1.05935
32.672
42.4522
25.4762
2.07731
2.25072
2.29514
2.57078
2.92349
1186.91
1159.44
1010.35
699.634
492.776
387.03
249.407
92.461
1.76143
1.16855
1.03365
0.98679
0.892008
0.840048
0.888631
0.886692
0.856535
0.951555
1.51935
1.82928
1.98389
2.95153
3.41325
1247.26
952.26
240.731
25.4917
1.74357
1.74757
1.39358
0.72288
0.741187
0.791843
0.782391
0.803316
0.737583
0.670389
1.42359
2.66606
2.77657
2.98207
2.48366
1.55836
3.24286
5.44054
5.91206
1310.1
417.087
1.91305
1.8402
1.77115
1.63023
1.89333
1.68896
1.00818
0.527076
0.558288
0.710916
0.677682
0.473938
0.444685
0.504827
1.26986
2.56427
2.94699
4.0526
4.72434
5.09484
5.68759
780.338
113.974
2.09255
2.02016
2.37244
2.62518
2.33544
2.01544
0.732902
0.343564
0.262234
0.210029
0.15884
0.183494
0.274227
0.464874
0.625546
0.751753
0.88387
1.12774
0.932379
1.30798
5.75677
17.9342
1.06288
1.84579
2.04809
2.77918
2.63556
2.40283
0.765715
0.348191
0.156228
-0.00849707
-0.11643
-0.145979
-0.0976756
0.0750645
0.316198
0.551776
0.724116
0.738146
0.622595
0.49901
0.514944
2.51571
1.2483
1.07637
1.81457
2.0099
2.73968
2.64744
1.28095
0.521352
0.251227
-0.0360089
-0.273997
-0.406069
-0.431248
-0.372832
-0.216067
0.0165453
0.28985
0.552615
0.591375
0.590769
0.94475
1.93136
0.96232
1.36604
1.2645
2.01236
2.04562
1.66365
1.4545
0.748402
0.506431
0.165151
-0.201189
-0.485967
-0.623618
-0.652162
-0.574052
-0.42852
-0.18022
0.107025
0.351856
0.476151
0.976727
2.36252
2.32641
2.37658
1.5606
1.45991
2.17666
2.15153
1.48237
0.935497
0.781895
0.509749
0.11565
-0.30035
-0.60698
-0.774876
-0.805871
-0.725861
-0.580318
-0.338436
-0.0519168
0.196824
0.339272
1.03773
2.30499
2.31096
2.33089
1.76893
1.67624
1.65564
2.28357
2.228
1.1646
0.800142
0.510617
0.093565
-0.328245
-0.659658
-0.836726
-0.871418
-0.801098
-0.661208
-0.428964
-0.160213
0.0700725
0.268527
0.287753
0.77766
1.77869
0.855729
1.96878
1.8865
1.78202
1.6969
2.15686
1.25788
0.80379
0.495891
0.0908146
-0.317132
-0.625052
-0.795877
-0.855654
-0.789264
-0.640475
-0.427556
-0.187525
0.207443
0.433413
0.321052
0.0639637
-0.00770358
-0.0614072
2.92777
2.59688
2.05532
2.03576
1.90974
1.45204
0.837853
0.455372
0.074501
-0.284304
-0.540474
-0.680402
-0.708783
-0.64664
-0.51493
-0.323986
-0.11701
0.376972
0.429945
0.358159
-0.0451798
-0.208924
0.0501115
3.26845
4.7831
4.89367
6.23759
6.01629
4.96804
1.17676
0.278836
-0.0111109
-0.256237
-0.412232
-0.48127
-0.480329
-0.42619
-0.305076
-0.129021
0.0519533
0.519004
0.526387
0.137442
-0.10613
0.364905
3.45961
6.02415
6.7021
6.32335
5.22222
5.86056
5.70337
5.41019
3.16277
-0.213071
-0.301162
-0.295025
-0.269297
-0.225736
-0.149654
-0.0224493
0.141945
0.478436
0.718032
0.495809
0.192005
-0.0328656
2.34451
3.42553
7.40702
6.51855
1.74748
1.14901
2.74359
5.38045
4.95572
4.7708
2.39948
-0.324324
-0.170561
-0.0256409
0.0886544
0.196821
0.323043
0.489722
1.1469
0.766107
0.513255
0.401646
0.237506
2.62606
3.80536
7.27314
1.38675
1.09274
0.87661
0.69859
4.15437
4.69664
4.34077
4.66216
1.65501
0.00826105
0.275745
0.455657
0.573845
0.662247
1.32384
1.38914
0.928922
0.703297
0.615852
0.436884
0.882682
1.26525
5.35169
1.08777
1.13643
0.770133
0.553544
0.507406
4.53089
4.20985
4.5614
4.39525
0.321799
0.542006
0.764202
0.861746
1.27237
1.69435
1.47166
0.867768
0.82963
0.78284
0.639918
0.505925
0.448003
3.81186
1.21561
1.04144
0.928307
0.533895
0.2504
0.0342872
1.8213
2.7536
0.98845
0.230795
0.715743
0.94421
1.49191
1.78607
1.7619
1.01519
0.885079
0.88965
0.876471
0.787243
0.745058
0.914719
5.83367
1.30972
0.123822
0.56342
0.805975
1.15016
-0.143561
-0.41071
-0.212202
0.42607
1.17379
3.43757
3.76155
3.32753
1.02812
0.910141
0.886224
0.879038
0.884289
0.891122
0.840372
1.17701
1.14211
6.02518
0.307593
-0.376189
-0.485296
0.837642
3.29678
3.13904
2.80284
2.17762
2.49409
2.92029
2.20868
1.39655
0.992865
0.926736
0.898559
0.89959
0.853618
0.839567
0.830398
0.799432
1.06011
1.10722
6.28825
-0.197157
-0.301342
-0.391662
-0.0505322
3.50903
3.44943
3.36067
0.883635
0.845486
0.594441
0.395765
0.703133
0.89072
0.921259
0.892462
0.860873
0.826243
0.75864
0.718583
0.711354
0.634324
0.891708
5.42353
-0.142319
-0.172625
-0.227671
-0.305989
-0.405275
0.0202609
-0.346235
-0.469258
-0.335736
-0.103152
0.197582
0.838196
2.07668
1.12295
0.851387
0.791007
0.736391
0.673513
0.589388
0.526325
0.479535
0.292215
1.20046
0.27446
-0.0458047
-0.0617771
-0.121578
-0.215056
-0.307996
-0.369474
-0.39032
-0.383939
-0.354758
0.354203
4.18973
5.35988
4.79794
1.21822
0.677055
0.598473
0.544511
0.446274
0.375952
0.364952
0.247553
1.2076
1.41246
0.05135
0.0779884
0.0383848
-0.0502044
-0.162766
-0.270857
-0.362188
-0.449098
-0.538498
0.76036
4.65529
5.16628
5.56103
4.88049
0.789485
0.407162
0.374806
0.316407
0.259139
0.227237
0.212225
1.27132
1.59444
0.108344
0.233756
0.153662
0.0519346
-0.0894822
-0.237426
-0.369331
-0.482481
-0.575366
-0.560319
1.76456
5.04713
5.42063
5.49762
2.40933
0.165528
0.172295
0.188031
0.181498
0.147144
0.12863
1.25389
1.52948
1.32439
4.70799
0.264686
0.110678
-0.0595279
-0.232623
-0.370912
-0.429212
-0.498301
-0.556936
-0.533513
4.83299
5.28649
5.31523
2.64753
-0.0527837
-0.00672041
0.0673771
0.10081
0.0977632
0.0984853
1.20497
1.28494
5.3323
6.44039
3.68902
0.112633
-0.0706119
-0.230587
-0.352839
-0.421973
-0.456972
-0.459228
-0.248112
4.552
5.18965
4.51807
0.691121
-0.165949
-0.102716
-0.0346495
0.0388097
0.0587343
0.0895751
1.16265
3.21594
6.02349
6.47484
6.58203
3.33647
-0.128651
-0.235254
-0.2647
-0.328874
-0.340184
-0.00317244
1.96954
1.70973
1.36035
-0.179417
-0.267377
-0.173916
-0.131996
-0.0809733
-0.0216138
0.0406447
0.0871189
1.49591
3.59298
0.603134
1.19502
6.6739
6.604
2.26591
-0.232526
-0.191598
-0.185233
-0.178887
2.1894
2.42257
-0.148426
-0.255423
-0.187964
-0.169858
-0.119365
-0.0762087
-0.0598443
-0.0140501
0.04382
0.0893412
2.66487
1.42197
-0.20901
-0.26144
3.75205
6.5352
5.23315
-0.00304346
-0.070028
-0.02079
0.587608
2.34891
2.02146
-0.0811535
-0.154744
-0.152588
-0.0949359
-0.0608575
-0.0279794
0.011052
0.0518907
0.082338
0.122434
2.31193
-0.121238
-0.165819
-0.238358
0.0499125
6.15353
1.96051
-0.0754517
0.0261375
0.293872
3.41915
2.47596
-0.0403076
-0.0649254
-0.0902386
-0.0952511
-0.0785859
-0.0515946
-0.0175002
0.0178544
0.0482325
0.0728419
0.0996747
-0.084565
-0.0663259
-0.0981328
-0.163156
-0.205922
-0.124485
-0.162837
0.00735307
0.281188
3.61774
3.5446
0.623177
-0.0218331
-0.0419403
-0.0554896
-0.0579123
-0.0494884
-0.0337729
-0.0130145
0.0111936
0.03654
0.0597667
0.077711
-0.0688599
-0.00677165
0.0332802
0.402652
1.18596
0.134827
0.0747021
1.06518
3.74759
3.73606
2.17001
-0.027513
-0.0298508
-0.0353473
-0.0378643
-0.0348886
-0.0263169
-0.0135239
0.00261473
0.0207264
0.038967
0.0552744
0.0680449
-0.076953
-0.0294959
0.546878
3.75708
5.51675
4.16563
2.08554
3.54769
3.5505
1.54421
-0.0524992
-0.0382164
-0.031407
-0.0289616
-0.026139
-0.020786
-0.0125198
-0.0023575
0.0098838
0.0231611
0.0362589
0.0479384
0.0572925
-0.0950159
-0.110082
1.19128
5.58056
5.66214
5.68842
3.94992
0.940209
-0.0821922
-0.0708123
-0.0483233
-0.0350854
-0.027823
-0.0229709
-0.0181771
-0.0123427
-0.00534659
0.00316015
0.0124528
0.0221028
0.0314368
0.0397609
0.0465692
-0.102779
-0.11527
0.552192
5.73483
5.40925
1.45873
-0.106627
-0.0855758
-0.0656809
-0.0483284
-0.0381889
-0.0294947
-0.0226009
-0.0173431
-0.0122846
-0.00687817
-0.000980481
0.00552547
0.0123179
0.0191263
0.0255885
0.0313314
0.0360931
-0.0913405
-0.0947146
-0.13454
1.5939
-0.0939283
-0.0888403
-0.0774446
-0.0615096
-0.0447906
-0.0352997
-0.0302834
-0.0231043
-0.0170449
-0.012171
-0.00769095
-0.00326385
0.00120065
0.00578614
0.0103823
0.0148488
0.0190149
0.0227
0.0257844
-0.0716432
-0.0764742
-0.0862962
-0.0966434
-0.0841211
-0.0685077
-0.0578244
-0.052087
-0.0401851
-0.031098
-0.0234389
-0.0172392
-0.0120493
-0.00787936
-0.00429803
-0.00109239
0.00180003
0.00452343
0.00713588
0.00960838
0.0118818
0.0138849
0.0155721
-0.0473453
-0.0519757
-0.0478843
-0.053742
-0.0704472
-0.0209379
-0.0440793
-0.0459371
-0.0334013
-0.0248846
-0.0176946
-0.0122403
-0.00792845
-0.00460341
-0.00207873
-0.000195619
0.00104663
0.00193316
0.00275115
0.00349775
0.00416924
0.00475556
0.00525074
695.706
688.502
680.776
672.605
563.994
509.946
468.459
426.999
64.4603
34.5759
14.93
4.39076
3.15948
3.33415
3.55106
3.87689
3.11116
3.60852
4.47435
7.49326
6.08453
5.61102
6.83912
7.6415
5.8751
4.6461
1.60226
2.41741
5.94869
3.01755
1.24301
3.33351
2.50659
1.12021
1.04888
2.93726
0.853832
0.884443
0.900166
0.894125
2.09551
0.830945
0.757473
0.782402
2.3287
0.940423
0.593446
0.628833
0.259916
0.341694
0.418612
0.480054
0.0102028
0.0794215
0.153446
0.240985
-0.0145838
-0.214689
-0.122101
-0.0233946
1.07084
-0.506651
-0.0944822
2.08824
3.41986
3.48396
3.46098
3.45108
0.608844
1.69642
2.78615
0.59393
-0.101528
-0.185403
-0.223597
-0.354587
0.297934
0.0994386
-0.0157994
-0.117638
0.392684
0.201645
0.0732431
0.531873
0.758907
0.369235
0.536803
0.441005
0.763258
0.587148
0.439873
0.349082
0.785029
0.608396
0.470244
0.372241
0.236518
0.335029
0.628474
0.545656
0.120582
0.0677201
0.380532
0.756809
0.249588
0.337582
0.356437
0.288371
0.184816
0.276057
0.123704
0.138427
0.0968597
0.0937692
0.0896428
0.0893584
0.101236
0.105672
0.107664
0.108545
0.105817
0.11401
0.118782
0.122347
0.112173
0.126237
0.144562
0.160412
0.140721
0.14973
0.155156
0.157894
0.117299
0.123516
0.127436
0.123354
0.0867194
0.0911473
0.0943903
0.0966255
0.0746479
0.0780962
0.080782
0.0828216
0.0623378
0.0650655
0.0672897
0.0690733
0.050374
0.0524773
0.0542472
0.0557194
0.0388311
0.0403712
0.041698
0.0428338
0.0275994
0.0286351
0.0295441
0.0303387
0.0165821
0.0171643
0.0176821
0.0181411
0.00555252
0.00572899
0.00588901
0.00603464
656.877
632.424
604.192
527.946
410.123
402.712
447.421
478.567
497.825
477.88
491.485
557.226
603.535
640.53
666.752
687.152
699.361
708.609
717.686
369.241
291.154
180.174
89.0798
66.0222
76.572
86.1908
70.532
70.0925
95.4985
105.61
138.664
198.278
315.376
446.334
545.776
599.721
628.982
655.274
3.828
2.86207
2.25073
2.10544
2.12143
2.1207
2.16245
2.18301
2.02196
1.88863
1.78527
1.75523
9.38179
15.1183
31.5667
68.2239
109.022
142.768
171.283
5.24334
3.63482
2.43947
2.03705
1.78517
1.839
1.99626
2.03015
1.88048
1.76507
1.70783
1.68622
1.66945
1.74375
1.84872
2.09918
3.07327
2.19223
2.57761
7.65876
7.18625
4.68805
2.07036
1.46715
1.61242
1.81648
1.87611
1.73622
1.65237
1.59516
1.5525
2.2303
3.93446
4.30119
4.31513
3.83817
1.71287
2.07409
7.63044
7.35616
4.71891
1.40298
1.24369
1.40533
1.65519
1.73148
1.66455
1.51971
1.48417
1.45297
1.40497
2.0093
3.3735
2.89178
1.99737
1.53194
1.83006
7.23018
7.76734
2.84651
2.50015
1.1215
1.26562
1.49616
1.54423
1.43044
1.36162
1.42544
1.46931
1.3285
1.28295
1.52681
1.81541
1.86252
1.55215
1.79896
8.31129
8.37382
3.43735
3.21169
1.83162
1.10197
1.33855
1.3681
1.23657
1.28361
1.79353
1.81746
1.32024
1.24757
2.17404
3.23271
3.06953
1.75229
1.92261
8.79313
8.99672
3.53713
3.43898
3.231
1.03534
1.10206
1.10618
1.10872
1.39974
1.72756
1.7725
1.77766
1.25979
1.64139
3.37769
3.38261
3.46259
2.3761
7.20322
9.51798
3.02549
3.58113
2.1296
0.981855
1.00776
1.00639
1.06999
1.65594
1.69298
1.73884
1.77447
1.63414
1.41164
1.35247
3.0112
3.65091
2.20501
2.51413
9.9301
2.38006
2.82393
0.887825
0.919888
0.929187
0.930355
1.52782
1.62715
1.5397
1.17195
1.53694
1.73003
1.40163
1.3754
1.67122
2.65441
2.23945
0.730046
7.41609
1.84306
0.855776
0.823463
0.855796
0.866342
1.23376
1.49913
1.46346
0.931069
0.956135
0.990735
1.2414
1.54878
1.77508
3.31986
3.37036
3.39449
0.594626
6.23835
1.35164
0.698693
0.767602
0.813041
1.04085
1.35568
1.23632
0.874178
0.885583
0.920581
0.904006
0.9177
1.08306
1.83263
3.29517
3.34159
3.41625
1.45585
6.59572
0.587225
0.643287
0.745368
0.92845
1.25209
1.07456
0.864761
0.844776
0.971533
0.971212
0.939501
0.786362
0.792717
1.20276
3.20255
3.15869
3.40778
3.62551
4.04414
0.344646
0.622572
0.857123
1.10107
0.984347
0.896027
0.855181
0.945898
0.916344
0.876729
0.84452
0.696436
0.703491
1.04403
1.27821
0.761112
3.43839
3.51556
0.0609192
0.360579
0.693682
0.989544
1.03134
0.906042
0.958598
0.927012
0.904873
0.763162
0.628528
0.65237
0.623241
0.522756
0.529474
0.480921
0.457804
3.05189
3.2875
0.00345348
0.395334
0.850238
0.956069
0.797184
0.93642
0.905759
0.748485
0.755036
0.531178
0.440664
0.369567
0.351795
0.340134
0.389817
0.462886
0.490532
2.065
0.0231535
0.0392845
0.52001
0.776748
0.672415
0.824188
0.859137
0.628335
0.524631
0.551756
0.794694
0.573321
0.315314
0.253024
0.272676
0.338514
0.436026
0.490603
2.64426
-0.329219
-0.0357784
0.233075
0.363842
0.541283
0.661501
0.526327
0.454553
0.472555
0.837097
2.25316
1.11192
0.227711
0.188684
0.223332
0.297236
0.404197
0.470875
2.70903
-0.135653
-0.0977319
0.0677878
0.193653
0.294431
0.346352
0.353125
0.378845
0.456846
1.85878
2.20819
0.832122
0.124311
0.140161
0.187694
0.265229
0.375653
0.460095
1.85434
0.50858
0.165197
-0.0475797
0.0585627
0.160317
0.228343
0.27023
0.299075
0.944213
2.37493
2.20701
0.518024
0.110319
0.112896
0.16808
0.24577
0.347493
0.455202
1.15738
0.373347
0.488778
0.42309
-0.0623796
0.0661917
0.152202
0.200386
0.226918
1.48366
2.36299
2.24667
1.67997
0.129656
0.106596
0.162946
0.229672
0.30815
0.730193
1.87782
0.282782
0.381684
0.603671
0.0669379
0.00592625
0.0998605
0.149233
0.171958
1.43333
2.38909
2.31351
2.12194
0.068931
0.12167
0.171789
0.216461
0.28991
2.40505
3.5904
0.0399438
-0.0381379
0.314715
0.188664
-0.013818
0.0723687
0.118028
0.140618
0.581065
2.45043
2.41396
0.709116
0.119542
0.183785
0.195302
0.211456
0.261313
2.53799
3.61021
-0.22658
-0.305183
-0.101531
0.0932865
0.0190958
0.0652336
0.105334
0.125867
0.156522
0.992053
2.47524
0.462929
0.200496
0.311906
0.229628
0.22113
0.231876
1.12687
3.66531
-0.0164927
-0.113769
-0.0789257
-0.0485636
0.0166109
0.0723073
0.105551
0.126294
0.14231
0.15202
1.50599
1.56809
0.444108
0.333859
0.268936
0.246591
0.219735
0.0884036
2.52379
0.256639
0.204115
0.0783896
-0.00436318
0.0480305
0.0850674
0.111934
0.132737
0.152089
0.174866
0.264671
1.86099
1.90265
0.325218
0.325723
0.28393
0.239883
0.175538
1.9636
0.340816
0.3171
0.0838664
0.046759
0.0744519
0.0984708
0.11912
0.138068
0.157024
0.181112
0.211286
1.55954
2.09079
1.58154
0.348699
0.319276
0.290256
0.249159
3.09829
0.242736
0.184324
0.0770037
0.0788546
0.0939471
0.109864
0.125131
0.140078
0.1575
0.178848
0.204198
0.231709
2.09689
3.35432
1.02843
0.339508
0.323071
0.297768
3.54805
0.118153
0.110683
0.09924
0.0993537
0.107522
0.117511
0.127638
0.139368
0.154328
0.172359
0.194041
0.216099
0.233249
3.36713
4.41327
0.356571
0.341491
0.332904
4.09119
0.147048
0.129298
0.110944
0.111124
0.114319
0.119531
0.126676
0.135956
0.147966
0.163141
0.183412
0.20182
0.216282
0.214347
4.46918
3.41192
0.334962
2.10884
5.23909
0.160043
0.130553
0.116868
0.115463
0.116046
0.118626
0.12295
0.129115
0.138071
0.150485
0.17182
0.187792
0.195052
0.205358
2.02689
5.2677
3.72642
5.32269
5.31536
0.138338
0.118757
0.115478
0.113611
0.113074
0.113817
0.115603
0.118702
0.123554
0.13136
0.267659
0.730432
0.24064
0.169919
2.52486
5.31023
5.32541
5.30011
3.11185
0.111948
0.110475
0.108637
0.107106
0.106155
0.105684
0.105387
0.105381
0.104586
0.105293
1.51209
2.125
0.824776
0.100353
2.49904
5.4063
5.39565
1.31876
0.58122
0.0989709
0.0991582
0.0983955
0.0974282
0.0964623
0.0953175
0.09341
0.0905816
0.0837035
0.141787
2.14101
2.06449
1.85015
0.0658173
1.24818
4.21622
2.12791
0.296814
0.0659766
0.085228
0.0862533
0.0862817
0.0858511
0.0851033
0.0837465
0.0810124
0.0762264
0.0660031
0.415615
2.13699
2.01192
1.35783
-0.0399428
0.0358928
0.17355
0.336146
1.3681
0.0261629
0.0713401
0.0727688
0.073286
0.0732886
0.0728791
0.0717451
0.069121
0.0638904
0.0531691
0.33551
2.14873
2.0058
0.204962
-0.119907
-0.0501285
-0.0336745
0.362166
1.35939
-0.0117355
0.0577086
0.0592073
0.0599667
0.0602781
0.0602474
0.0596401
0.0578139
0.0535438
0.0447248
0.0978828
1.36789
2.05102
0.0922551
-0.11952
-0.0643966
-0.0482701
0.881826
0.791965
-0.0380181
0.0444313
0.0457724
0.0465847
0.047072
0.0473634
0.0473711
0.0467337
0.0446435
0.0407853
0.0219188
0.568805
2.10589
0.806723
-0.0894491
-0.0486449
0.286239
0.917952
-0.0735105
-0.0454124
0.0314858
0.0325237
0.0332345
0.0337523
0.034222
0.0347383
0.0350821
0.0353233
0.0356204
0.0190428
0.173369
1.09032
0.987854
-0.0542305
0.00312471
0.807286
0.870718
-0.0433482
-0.0366272
0.0188141
0.0194579
0.0199352
0.020323
0.020723
0.0213043
0.0219959
0.0228974
0.022467
0.00914601
-0.0240637
-0.0292077
0.131152
0.0241396
0.0151097
0.191663
0.049444
-0.0300975
-0.0244829
0.00625394
0.00648185
0.00667191
0.00685774
0.00705913
0.00745498
0.00811865
0.00869396
0.00754897
0.00398787
0.00225769
0.00213685
-0.00341406
0.00515188
-0.00809208
-0.00965971
-0.005299
-0.012318
-0.0138489
)
;

boundaryField
{
    leftWall
    {
        type            fixedFluxPressure;
        gradient        uniform 0;
        value           nonuniform List<scalar> 
50
(
979.827
978.576
972.484
970.702
974.123
980.193
1012.3
1025.98
1036.1
1057.32
1088.48
1127.86
1186.91
1247.26
1310.1
780.338
17.9342
1.2483
1.36604
1.5606
1.76893
1.96878
2.92777
3.26845
6.02415
7.40702
7.27314
5.35169
3.81186
5.83367
6.02518
6.28825
5.42353
1.20046
1.2076
1.27132
1.25389
1.20497
1.16265
1.49591
2.66487
2.31193
-0.084565
-0.0688599
-0.076953
-0.0950159
-0.102779
-0.0913405
-0.0716432
-0.0473453
)
;
    }
    rightWall
    {
        type            fixedFluxPressure;
        gradient        uniform 0;
        value           nonuniform List<scalar> 
50
(
679.415
678.817
673.363
672.733
677.055
692.737
716.028
717.052
717.686
655.274
171.283
2.57761
2.07409
1.83006
1.79896
1.92261
2.3761
2.20501
2.23945
3.39449
3.41625
3.40778
3.43839
3.05189
2.065
2.64426
2.70903
1.85434
1.15738
1.87782
3.5904
3.61021
3.66531
2.52379
1.9636
3.09829
3.54805
4.09119
5.23909
5.31536
3.11185
0.58122
0.0659766
0.0261629
-0.0117355
-0.0380181
-0.0454124
-0.0366272
-0.0244829
-0.0138489
)
;
    }
    lowerWall
    {
        type            fixedFluxPressure;
        gradient        uniform 0;
        value           nonuniform List<scalar> 
62
(
979.827
975.193
973.485
963.861
947.681
929.894
912.808
895.117
879.51
866.798
852.564
834.307
816.901
801.365
787.274
774.432
763.954
754.087
744.803
736.803
729.907
727.287
729.934
729.934
729.634
730.003
731.171
730.76
727.843
711.162
715.965
695.706
688.502
680.776
672.605
606.973
603.775
603.684
606.078
615.112
619.156
624.653
642.009
606.973
597.822
602.133
591.478
581.864
603.266
621.045
624.53
622.443
614.151
601.367
601.356
617.809
639.287
656.844
664.06
663.359
667.355
679.415
)
;
    }
    atmosphere
    {
        type            totalPressure;
        rho             rho;
        psi             none;
        gamma           1;
        p0              uniform 0;
        value           nonuniform List<scalar> 
46
(
-0.0332419
-0.0405003
-0.0309895
-0.0361375
-0.0671785
-0.00299907
-0.0376598
-0.0457992
-0.0301273
-0.0224415
-0.0151182
-0.0101387
-0.00627141
-0.00342152
-0.00153329
-0.000369232
0
0
0
0
0
0
0
0
0
0
0
0
0
0
0
0
0
0
0
0
0
0
0
0
0
0
0
0
-0.00617414
-0.00944646
)
;
    }
    defaultFaces
    {
        type            empty;
    }
}


// ************************************************************************* //
