/*--------------------------------*- C++ -*----------------------------------*\
| =========                 |                                                 |
| \\      /  F ield         | OpenFOAM: The Open Source CFD Toolbox           |
|  \\    /   O peration     | Version:  2.3.0                                 |
|   \\  /    A nd           | Web:      www.OpenFOAM.org                      |
|    \\/     M anipulation  |                                                 |
\*---------------------------------------------------------------------------*/
FoamFile
{
    version     2.0;
    format      ascii;
    class       surfaceScalarField;
    location    "2.5";
    object      phi;
}
// * * * * * * * * * * * * * * * * * * * * * * * * * * * * * * * * * * * * * //

dimensions      [0 3 -1 0 0 0 0];

internalField   nonuniform List<scalar> 
4432
(
4.67204e-06
-4.67204e-06
2.46066e-06
2.21138e-06
-3.42206e-07
2.80286e-06
-1.02834e-06
6.86131e-07
-1.74069e-06
7.12354e-07
-5.30457e-06
3.56389e-06
-1.14507e-05
6.14612e-06
-1.5e-05
3.54928e-06
-1.27355e-05
-2.26451e-06
-7.05357e-06
-5.68189e-06
-1.57344e-06
-5.48013e-06
1.57967e-06
-3.1531e-06
2.34396e-06
-7.64294e-07
1.01605e-06
1.32792e-06
-1.07499e-06
2.09104e-06
-1.28669e-06
2.11708e-07
7.50594e-07
-2.03729e-06
2.40697e-06
-1.65638e-06
2.00312e-06
4.03849e-07
-4.96021e-07
2.49914e-06
-3.22796e-06
2.73193e-06
-3.33847e-06
1.10519e-07
-3.33848e-06
1.01404e-06
-5.68608e-06
-2.20122e-06
5.42664e-06
-6.89904e-06
7.50069e-06
-9.79622e-06
3.58331e-06
-1.32262e-05
4.14229e-06
-1.6799e-05
7.13672e-06
-1.78767e-05
7.22383e-06
-1.5012e-05
6.84557e-07
-9.89966e-06
-7.3768e-06
-4.36463e-06
-1.12169e-05
-3.38233e-08
-9.81093e-06
1.27612e-06
-4.46304e-06
4.06314e-07
1.05516e-07
-6.9046e-07
2.42469e-06
-5.56538e-07
1.95711e-06
1.3694e-06
-1.71423e-06
3.70275e-06
-4.37064e-06
4.65146e-06
-2.60509e-06
3.88745e-06
1.16786e-06
1.88065e-06
4.50595e-06
-8.9421e-08
4.702e-06
-7.5994e-07
7.81036e-07
-4.09842e-06
-1.7844e-06
-3.90168e-06
-5.36132e-06
9.00356e-06
-9.45015e-06
1.15895e-05
-1.2449e-05
6.58221e-06
-1.55258e-05
7.21907e-06
-1.68648e-05
8.47571e-06
-1.4853e-05
5.21199e-06
-1.05908e-05
-3.57765e-06
-5.18709e-06
-1.27805e-05
4.45322e-07
-1.68493e-05
4.0028e-06
-1.33684e-05
5.0895e-06
-5.54974e-06
4.09423e-06
1.10078e-06
3.25147e-06
3.26745e-06
3.93954e-06
1.26905e-06
5.95917e-06
-3.73386e-06
8.24055e-06
-6.65201e-06
9.22898e-06
-3.59352e-06
8.55741e-06
1.83942e-06
7.06977e-06
5.99359e-06
5.30714e-06
6.46464e-06
2.70873e-06
3.37944e-06
-1.38969e-06
-3.36985e-06
-5.31831e-07
-5.82373e-06
1.14574e-05
-8.64151e-06
1.44073e-05
-1.08941e-05
8.83485e-06
-1.27224e-05
9.04735e-06
-1.2639e-05
8.39225e-06
-1.01715e-05
2.74451e-06
-5.91758e-06
-7.83156e-06
-8.55545e-08
-1.86125e-05
4.34778e-06
-2.12827e-05
6.25761e-06
-1.52782e-05
7.55104e-06
-6.84317e-06
7.52636e-06
1.12546e-06
7.11848e-06
3.67534e-06
7.59123e-06
7.96296e-07
9.12889e-06
-5.27152e-06
1.10612e-05
-8.58437e-06
1.23438e-05
-4.87603e-06
1.26463e-05
1.53689e-06
1.21232e-05
6.51672e-06
1.04105e-05
8.17724e-06
5.96137e-06
7.82863e-06
4.57168e-06
-4.03596e-06
3.50413e-06
-5.19346e-06
1.26149e-05
-6.10361e-06
1.53175e-05
-7.93982e-06
1.06711e-05
-8.98404e-06
1.00916e-05
-8.21542e-06
7.62363e-06
-5.72245e-06
2.51536e-07
-1.24717e-06
-1.23068e-05
4.21114e-06
-2.40708e-05
6.14583e-06
-2.32174e-05
6.48867e-06
-1.56211e-05
7.35205e-06
-7.70655e-06
8.47029e-06
7.22139e-09
9.07563e-06
3.07e-06
9.46601e-06
4.05914e-07
1.03645e-05
-6.17e-06
1.17318e-05
-9.95166e-06
1.27528e-05
-5.89706e-06
1.41205e-05
1.69184e-07
1.50833e-05
5.55394e-06
1.38086e-05
9.45196e-06
8.24093e-06
1.33963e-05
1.28126e-05
-4.66205e-06
8.16618e-06
-4.79634e-06
1.27492e-05
-3.69191e-06
1.4213e-05
-5.07879e-06
1.20579e-05
-5.83207e-06
1.08448e-05
-4.62501e-06
6.41658e-06
-1.85882e-06
-2.51464e-06
2.91017e-06
-1.70758e-05
6.60256e-06
-2.77632e-05
5.55457e-06
-2.21693e-05
4.79291e-06
-1.48594e-05
5.2997e-06
-8.21336e-06
6.65825e-06
-1.35133e-06
8.11522e-06
1.61303e-06
9.18284e-06
-6.61702e-07
1.00175e-05
-7.00465e-06
1.08679e-05
-1.08021e-05
1.1528e-05
-6.55707e-06
1.34746e-05
-1.77749e-06
1.5335e-05
3.69355e-06
1.4336e-05
1.0451e-05
8.68664e-06
1.90456e-05
2.14992e-05
-5.72861e-06
1.38948e-05
-5.80881e-06
1.28294e-05
-2.89254e-06
1.12968e-05
-2.71368e-06
1.18791e-05
-3.2935e-06
1.14247e-05
-1.82024e-06
4.94331e-06
1.89576e-06
-6.23064e-06
5.95331e-06
-2.11334e-05
6.09996e-06
-2.79098e-05
2.96748e-06
-1.90369e-05
1.4897e-06
-1.33816e-05
2.07024e-06
-8.7939e-06
3.40691e-06
-2.688e-06
5.21102e-06
-1.91085e-07
6.91989e-06
-2.37057e-06
7.66737e-06
-7.75213e-06
7.3519e-06
-1.04866e-05
7.27962e-06
-6.4848e-06
8.79144e-06
-3.28931e-06
1.03818e-05
2.10322e-06
1.00248e-05
1.0808e-05
6.2626e-06
2.28078e-05
2.77618e-05
-6.45758e-06
2.03524e-05
-7.34307e-06
1.37149e-05
-3.57743e-06
7.53111e-06
-6.01484e-07
8.90315e-06
1.10571e-07
1.07126e-05
1.95467e-06
3.09921e-06
6.14293e-06
-1.04189e-05
7.63489e-06
-2.26253e-05
3.22635e-06
-2.35013e-05
-1.44618e-06
-1.43643e-05
-3.10139e-06
-1.17264e-05
-2.92071e-06
-8.97458e-06
-9.33508e-07
-4.67519e-06
1.56719e-06
-2.69178e-06
3.22205e-06
-4.02543e-06
2.35657e-06
-6.88664e-06
5.11099e-08
-8.18119e-06
-8.06447e-07
-5.62723e-06
-1.60874e-07
-3.93488e-06
1.53701e-06
4.05331e-07
2.64302e-06
9.70199e-06
2.15491e-06
2.32959e-05
2.99167e-05
8.39544e-06
-8.39544e-06
7.34371e-06
1.05173e-06
-3.28419e-06
1.06279e-05
-1.63592e-05
1.3075e-05
-1.92127e-05
2.85346e-06
-9.5457e-06
-9.66698e-06
2.06127e-06
-1.1607e-05
1.25387e-05
-1.04774e-05
2.26656e-05
-1.01269e-05
3.17149e-05
-9.04932e-06
3.55839e-05
-3.86906e-06
3.21457e-05
3.43821e-06
2.37308e-05
8.41497e-06
1.47328e-05
8.99799e-06
7.23512e-06
7.49765e-06
-1.08607e-06
8.3212e-06
-7.26634e-06
6.18026e-06
-7.51327e-06
2.46929e-07
-7.51327e-06
5.49122e-06
-1.38867e-05
3.5123e-06
3.03064e-06
-8.57738e-06
2.27176e-05
-1.67993e-05
2.12969e-05
-1.24953e-05
-1.45052e-06
-2.26598e-06
-1.98963e-05
6.57796e-06
-2.04509e-05
1.38071e-05
-1.77065e-05
2.1393e-05
-1.77128e-05
2.88958e-05
-1.65521e-05
3.38277e-05
-8.80099e-06
3.61791e-05
1.08676e-06
3.50301e-05
9.56403e-06
2.86944e-05
1.53337e-05
1.78521e-05
1.834e-05
5.17342e-06
2.09999e-05
-2.85954e-06
1.42132e-05
-3.54161e-06
9.29004e-07
-1.10549e-05
-2.83277e-07
-1.36034e-05
-3.2503e-06
5.99766e-06
-1.02937e-05
2.9761e-05
-9.98339e-06
2.09866e-05
-6.81221e-07
-1.07527e-05
6.74348e-06
-2.7321e-05
1.17662e-05
-2.54736e-05
1.46899e-05
-2.06303e-05
1.87815e-05
-2.18044e-05
2.46056e-05
-2.23762e-05
2.81721e-05
-1.23674e-05
2.9579e-05
-3.20124e-07
3.06624e-05
8.48064e-06
2.87526e-05
1.72434e-05
2.08533e-05
2.62393e-05
1.10453e-05
3.08079e-05
5.81154e-06
1.94469e-05
3.02473e-06
3.71582e-06
-8.03015e-06
-4.17285e-06
-9.43052e-06
-7.71284e-06
9.53765e-06
-8.64241e-06
3.06906e-05
-1.44148e-06
1.37856e-05
8.97016e-06
-2.11643e-05
1.36393e-05
-3.19901e-05
1.42317e-05
-2.60661e-05
1.34637e-05
-1.98623e-05
1.45072e-05
-2.28478e-05
1.86227e-05
-2.64917e-05
2.19787e-05
-1.57235e-05
2.28448e-05
-1.18629e-06
2.39103e-05
7.41515e-06
2.37708e-05
1.7383e-05
1.88608e-05
3.11493e-05
1.31632e-05
3.65055e-05
1.12693e-05
2.13408e-05
7.46611e-06
7.51901e-06
-5.64043e-07
-5.81091e-06
-3.61961e-06
-7.71256e-06
1.14393e-05
-3.61019e-06
2.65882e-05
7.93988e-06
2.23558e-06
1.59472e-05
-2.91717e-05
1.63542e-05
-3.23971e-05
1.31123e-05
-2.28242e-05
1.04485e-05
-1.71985e-05
9.29821e-06
-2.16975e-05
1.14225e-05
-2.8616e-05
1.51353e-05
-1.94363e-05
1.64769e-05
-2.52794e-06
1.74689e-05
6.42319e-06
1.74269e-05
1.7425e-05
1.45908e-05
3.39854e-05
1.25951e-05
3.85011e-05
1.29461e-05
2.09899e-05
8.88773e-06
1.15774e-05
8.32369e-06
-4.27888e-06
6.59265e-07
-4.64486e-06
1.18053e-05
4.79505e-06
1.71483e-05
1.68111e-05
-9.78045e-06
1.86658e-05
-3.10263e-05
1.43122e-05
-2.80435e-05
9.74421e-06
-1.82562e-05
7.58739e-06
-1.50417e-05
5.04704e-06
-1.91572e-05
4.26588e-06
-2.78348e-05
7.66955e-06
-2.28399e-05
9.9595e-06
-4.81788e-06
1.12562e-05
5.12653e-06
1.13088e-05
1.73723e-05
1.07788e-05
3.45154e-05
1.20195e-05
3.72604e-05
1.27976e-05
2.02118e-05
8.72962e-06
1.56454e-05
1.70533e-05
8.91357e-08
5.70131e-07
9.374e-07
1.0957e-05
1.1718e-05
6.36773e-06
1.9248e-05
-1.73105e-05
1.55897e-05
-2.73681e-05
9.17541e-06
-2.16291e-05
6.64938e-06
-1.57302e-05
6.51388e-06
-1.49062e-05
3.55985e-06
-1.62032e-05
-1.02274e-06
-2.32522e-05
3.48471e-07
-2.42111e-05
4.08004e-06
-8.54945e-06
5.70146e-06
3.50511e-06
6.70392e-06
1.63699e-05
8.87277e-06
3.23465e-05
1.27452e-05
3.33879e-05
1.26942e-05
2.02628e-05
8.03707e-06
2.03025e-05
2.50904e-05
4.41365e-06
-3.84352e-06
9.30734e-06
6.06332e-06
1.68095e-05
-1.13445e-06
1.66784e-05
-1.71794e-05
9.48885e-06
-2.01785e-05
4.53788e-06
-1.66782e-05
5.13473e-06
-1.6327e-05
6.71815e-06
-1.64896e-05
4.74284e-06
-1.42278e-05
-1.73562e-06
-1.67737e-05
-4.70612e-06
-2.12406e-05
-1.01034e-06
-1.22452e-05
1.96512e-06
5.29656e-07
4.72459e-06
1.36104e-05
9.6643e-06
2.74068e-05
1.43236e-05
2.87286e-05
1.25645e-05
2.2022e-05
6.9908e-06
2.58762e-05
3.20812e-05
-6.80142e-06
2.71538e-05
-7.58403e-06
1.44975e-05
-9.30243e-07
8.77325e-07
6.88354e-06
1.08936e-06
1.32602e-05
4.336e-06
1.70033e-05
-6.43948e-07
1.91219e-05
-1.25375e-05
1.02937e-05
-1.37971e-05
-7.94037e-06
-5.2672e-06
-2.12625e-05
-1.04223e-06
-2.71426e-05
-5.84628e-06
-2.79456e-05
-8.17161e-06
-2.37922e-05
-8.8286e-06
-1.82919e-05
-8.1921e-06
-1.62518e-05
-6.06547e-06
-2.06034e-05
-2.5351e-06
-2.71986e-05
-1.58594e-06
-2.98496e-05
-2.97627e-06
-2.88184e-05
-4.96603e-06
-2.3907e-05
-4.50609e-06
-1.59822e-05
1.77713e-06
-3.30234e-06
1.06161e-05
1.36934e-05
1.2921e-05
7.86814e-06
1.92857e-05
1.09894e-05
1.13762e-05
1.07747e-05
1.0921e-06
1.12497e-05
6.14286e-07
1.57749e-05
-1.89161e-07
1.8008e-05
-2.87706e-06
7.83176e-06
-2.36128e-06
-1.28911e-05
6.92575e-06
-3.20626e-05
1.39043e-05
-4.7572e-05
1.44672e-05
-5.67789e-05
3.36059e-06
-5.89291e-05
-6.02137e-06
-5.45816e-05
-1.31761e-05
-4.97092e-05
-1.30645e-05
-4.71766e-05
-8.5981e-06
-5.07521e-05
1.0404e-06
-5.71914e-05
4.85342e-06
-6.37595e-05
3.59174e-06
-6.65255e-05
-2.20003e-06
-6.24387e-05
-8.59287e-06
-5.17036e-05
-8.95794e-06
-4.15398e-05
4.52305e-07
5.44209e-06
-3.32885e-05
1.41062e-05
5.17943e-06
1.34895e-05
1.1993e-05
4.20239e-06
1.03792e-05
-1.36645e-06
6.18313e-06
-3.18482e-06
1.62921e-06
-9.00924e-06
2.94736e-06
-2.42377e-05
1.28671e-05
-4.41848e-05
2.68729e-05
-6.17984e-05
3.15179e-05
-8.36088e-05
3.62775e-05
-9.26789e-05
1.24307e-05
-8.60919e-05
-1.26084e-05
-7.00204e-05
-2.92476e-05
-5.58936e-05
-2.71913e-05
-4.20665e-05
-2.24251e-05
-3.60777e-05
-4.94837e-06
-3.7087e-05
5.8627e-06
-4.60308e-05
1.25355e-05
-6.62794e-05
1.80486e-05
-7.22122e-05
-2.66006e-06
-5.54138e-05
-2.57563e-05
-2.96889e-05
-2.52725e-05
-2.85861e-05
4.33927e-06
-5.13418e-07
5.69285e-06
-1.25865e-05
2.40661e-05
-2.71728e-05
2.49655e-05
-3.73807e-05
1.6391e-05
-4.32368e-05
7.48538e-06
-4.42968e-05
4.00731e-06
-4.0616e-05
9.1864e-06
-3.66261e-05
2.2883e-05
-3.57513e-05
3.06431e-05
-5.64043e-05
5.69305e-05
-9.94098e-05
5.54363e-05
-0.000120957
8.9391e-06
-0.000123247
-2.69579e-05
-9.79611e-05
-5.24777e-05
-6.45195e-05
-5.58667e-05
-1.18735e-05
-5.75943e-05
2.48747e-05
-3.08855e-05
3.36842e-05
3.72605e-06
-3.06991e-05
8.24319e-05
-8.14214e-05
4.80621e-05
-0.000103521
-3.65666e-06
-8.35439e-05
-4.52498e-05
-6.71617e-05
-4.49684e-05
-2.05098e-05
2.62027e-05
-4.46441e-05
4.82004e-05
-6.16462e-05
4.19675e-05
-6.92035e-05
2.39483e-05
-5.87899e-05
-2.92813e-06
-3.84588e-05
-1.63238e-05
-1.27032e-05
-1.65691e-05
3.15156e-05
-2.13359e-05
-4.40656e-05
0.000106224
-9.40927e-05
0.000106958
-0.000114554
7.58981e-05
-0.0001295
2.38842e-05
-0.000136283
-2.01741e-05
-0.000139701
-4.906e-05
-0.000132348
-6.32202e-05
-0.000128556
-6.13853e-05
-0.000118523
-4.09185e-05
-0.000113911
-8.86364e-07
-8.88514e-05
5.73725e-05
-9.21207e-05
5.13313e-05
-8.00808e-05
-1.56965e-05
-3.89112e-05
-8.64193e-05
-0.000109259
3.1865e-06
-1.93415e-05
4.55442e-05
-3.37389e-05
6.25978e-05
-2.68137e-05
3.50422e-05
7.4564e-06
-1.03219e-05
3.03518e-06
1.49336e-06
-2.11996e-05
7.91132e-06
-4.15155e-05
3.74648e-06
-9.94219e-05
3.65706e-05
-0.000110091
0.000116894
-0.000119228
0.000116094
-0.000123966
8.06361e-05
-0.000123703
2.36213e-05
-0.000121237
-2.26402e-05
-0.000118286
-5.20108e-05
-0.000110823
-7.06838e-05
-0.000103665
-6.85435e-05
-0.000102106
-4.24767e-05
-9.69785e-05
-6.01445e-06
-7.70208e-05
3.74148e-05
-6.26172e-05
3.69277e-05
-3.49768e-05
-4.3337e-05
-8.15213e-06
-0.000113244
-0.000137536
2.01251e-05
-3.40922e-06
4.89534e-05
5.49376e-06
5.36947e-05
-6.30716e-06
4.68432e-05
-2.43853e-05
7.75594e-06
-4.52112e-05
2.23191e-05
-7.20174e-05
3.47176e-05
-0.000113471
4.52004e-05
-0.00014752
7.06196e-05
-0.000140816
0.00011019
-0.000135676
0.000110954
-0.000136203
8.1163e-05
-0.000139809
2.72278e-05
-0.000141541
-2.09086e-05
-0.000135415
-5.81368e-05
-0.00012219
-8.39083e-05
-0.000104686
-8.60472e-05
-8.66946e-05
-6.04683e-05
-7.32058e-05
-1.95034e-05
-5.4434e-05
1.86428e-05
-2.18574e-05
4.3511e-06
6.40672e-06
-7.1601e-05
2.10256e-05
-0.000127863
-0.00015344
3.69288e-05
1.84734e-05
3.04801e-05
5.94857e-05
1.26824e-05
7.25096e-07
0.000105604
-4.96617e-05
5.81424e-05
-7.23567e-05
4.5014e-05
-9.18778e-05
5.42385e-05
-0.000119444
7.27669e-05
-0.000142301
9.34759e-05
-0.000145899
0.000113788
-0.000149582
0.000114637
-0.000153244
8.48248e-05
-0.000158699
3.2683e-05
-0.000159218
-2.03896e-05
-0.000149892
-6.74628e-05
-0.000131765
-0.000102036
-0.000102093
-0.000115719
-6.04059e-05
-0.000102156
-1.52446e-05
-6.46644e-05
2.73055e-05
-2.39073e-05
6.24044e-05
-3.0748e-05
7.58528e-05
-8.50494e-05
7.45832e-05
-0.000126593
-0.000150714
7.18574e-05
-2.00697e-07
3.06807e-05
-3.90073e-05
5.14888e-05
-4.22786e-05
0.000108876
-6.15851e-05
7.74491e-05
-7.48403e-05
5.82692e-05
-8.29858e-05
6.23841e-05
-9.9646e-05
8.94271e-05
-0.000121658
0.000115488
-0.000136142
0.000128272
-0.000143257
0.000121752
-0.000143715
8.52825e-05
-0.000141899
3.08671e-05
-0.000137884
-2.44046e-05
-0.000130609
-7.47376e-05
-0.00011708
-0.000115565
-9.27478e-05
-0.000140051
-5.36885e-05
-0.000141215
4.91418e-07
-0.000118844
6.31956e-05
-8.66116e-05
0.000110915
-7.8467e-05
0.000124292
-9.84268e-05
0.000119495
-0.000121796
-0.00014067
0.000109451
-1.75437e-05
4.82245e-05
-5.1511e-05
8.54559e-05
-4.37442e-05
0.000101109
-4.2178e-05
7.58829e-05
-5.34453e-05
6.95366e-05
-5.9503e-05
6.84419e-05
-6.98004e-05
9.97245e-05
-8.57349e-05
0.000131422
-9.97967e-05
0.000142334
-0.000104972
0.000126928
-0.000103747
8.40569e-05
-0.000100815
2.79358e-05
-9.73665e-05
-2.78536e-05
-9.21874e-05
-7.99168e-05
-8.26495e-05
-0.000125102
-6.39479e-05
-0.000158752
-3.26566e-05
-0.000172506
8.67467e-06
-0.000160176
5.12656e-05
-0.000129203
8.77119e-05
-0.000114913
0.000109747
-0.000120462
0.000121993
-0.000134042
-0.000142241
0.000123563
-2.11501e-05
6.9375e-05
-3.52611e-05
9.95668e-05
-1.52594e-05
8.11075e-05
-2.17156e-06
6.27954e-05
-6.87625e-06
7.42412e-05
-1.75561e-05
7.91218e-05
-2.30473e-05
0.000105216
-3.23682e-05
0.000140743
-4.17859e-05
0.000151752
-4.60655e-05
0.000131207
-4.71515e-05
8.51429e-05
-4.68605e-05
2.76447e-05
-4.47467e-05
-2.99672e-05
-4.09634e-05
-8.37003e-05
-3.34173e-05
-0.000132649
-1.78875e-05
-0.000174282
7.81588e-06
-0.00019821
4.28725e-05
-0.000195232
7.83222e-05
-0.000164653
0.000104022
-0.000140613
0.000118279
-0.000134719
0.000127742
-0.000143505
-0.000146576
0.000132077
-4.92843e-06
7.43036e-05
-4.22505e-06
9.88637e-05
6.86562e-06
7.00169e-05
2.62648e-05
4.33963e-05
4.38733e-05
5.66327e-05
4.15614e-05
8.14337e-05
3.65684e-05
0.000110209
3.32599e-05
0.000144052
2.82902e-05
0.000156721
2.2989e-05
0.000136508
1.7856e-05
9.02761e-05
1.3903e-05
3.15976e-05
1.2423e-05
-2.84874e-05
1.38749e-05
-8.51521e-05
1.98675e-05
-0.000138641
3.28899e-05
-0.000187305
5.34745e-05
-0.000218794
8.04816e-05
-0.000222239
0.000109529
-0.0001937
0.000128084
-0.000159167
0.000139359
-0.000145995
0.000148277
-0.000152423
-0.000145815
0.000147515
3.25408e-05
4.17628e-05
4.99549e-05
8.14497e-05
5.28484e-05
6.71236e-05
5.6406e-05
3.98388e-05
7.6788e-05
3.62508e-05
9.64096e-05
6.1812e-05
0.00010472
0.000101898
0.000107455
0.000141317
0.000104549
0.000159627
9.63735e-05
0.000144684
8.57101e-05
0.000100939
7.63126e-05
4.0995e-05
7.03395e-05
-2.25144e-05
6.81393e-05
-8.29519e-05
7.14413e-05
-0.000141943
8.13634e-05
-0.000197227
9.64262e-05
-0.000233857
0.000113177
-0.000238991
0.00013041
-0.000210933
0.000143684
-0.000172441
0.000156746
-0.000159057
0.00016827
-0.000163946
-0.000139535
0.00016199
4.74304e-05
-5.66742e-06
9.78825e-05
3.09977e-05
0.000128779
3.62272e-05
0.000136574
3.20437e-05
0.000139803
3.30218e-05
0.000151368
5.02474e-05
0.000166773
8.64928e-05
0.000177716
0.000130374
0.000178824
0.000158519
0.000170032
0.000153477
0.000155754
0.000115217
0.000140593
5.61562e-05
0.000127932
-9.85403e-06
0.000120262
-7.52818e-05
0.000119399
-0.00014108
0.000124441
-0.000202269
0.000131246
-0.000240662
0.000135103
-0.000242848
0.000137031
-0.000212861
0.000146212
-0.000181622
0.000164441
-0.000177286
0.000173888
-0.000173393
-0.00012557
0.000159923
1.42395e-05
-1.99069e-05
7.15086e-05
-2.62713e-05
0.000135652
-2.79161e-05
0.000188316
-2.06205e-05
0.000220066
1.27196e-06
0.000234084
3.62284e-05
0.000239724
8.08529e-05
0.00024214
0.000127958
0.000239862
0.000160797
0.000230419
0.00016292
0.00021467
0.000130966
0.000196006
7.48196e-05
0.000177985
8.16712e-06
0.000165731
-6.30278e-05
0.000160756
-0.000136105
0.000159207
-0.00020072
0.000154692
-0.000236147
0.000143649
-0.000231805
0.000132357
-0.000201569
0.000136568
-0.000185833
0.000152537
-0.000193256
0.000150232
-0.000171088
-9.6897e-05
0.000121559
1.04719e-06
-2.09542e-05
4.76303e-05
-7.28544e-05
9.53729e-05
-7.56588e-05
0.000142456
-6.77039e-05
0.000198763
-5.50349e-05
0.00025448
-1.94887e-05
0.00029101
4.43233e-05
0.000303211
0.000115756
0.000294619
0.000169389
0.000275818
0.000181721
0.000253938
0.000152847
0.000231852
9.6905e-05
0.000213271
2.6748e-05
0.00020081
-5.05659e-05
0.000193326
-0.000128621
0.000183552
-0.000190946
0.000165159
-0.000217754
0.000139748
-0.000206394
0.00011785
-0.000179671
0.000115871
-0.000183855
0.000117759
-0.000195143
9.5479e-05
-0.000148808
-5.31876e-05
5.17697e-05
4.73417e-05
-6.8296e-05
0.000100416
-0.000125928
0.000132694
-0.000107938
0.000146443
-8.14528e-05
0.000168012
-7.6604e-05
0.000209345
-6.08219e-05
0.000261179
-7.51056e-06
0.000300798
7.61372e-05
0.000315206
0.000154981
0.000303803
0.000193124
0.000280887
0.000175763
0.000257739
0.000120053
0.000239868
4.46189e-05
0.00022806
-3.87576e-05
0.00021625
-0.000116811
0.000195423
-0.000170119
0.000162191
-0.000184522
0.000124145
-0.000168347
9.30787e-05
-0.000148606
7.85168e-05
-0.000169293
5.28266e-05
-0.000169453
7.64315e-06
-0.000103625
-1.65877e-05
-2.89567e-05
7.00132e-05
-0.000138309
0.000107036
-0.000162951
0.000121536
-0.000122438
0.000134671
-9.45871e-05
0.000151935
-9.38685e-05
0.000179721
-8.86074e-05
0.000216751
-4.45405e-05
0.000256075
3.68129e-05
0.000285609
0.000125448
0.000295508
0.000183225
0.000286876
0.000184395
0.000272095
0.000134834
0.000258317
5.8396e-05
0.000245002
-2.54416e-05
0.000224845
-9.66552e-05
0.00019084
-0.000136114
0.000144978
-0.00013866
9.88578e-05
-0.000122228
6.07747e-05
-0.000110523
2.91838e-05
-0.000137702
-2.01093e-05
-0.00012016
-7.19354e-05
-5.17988e-05
2.74667e-05
-0.00011599
5.57978e-05
-0.000194107
4.9853e-05
-0.000157006
5.37627e-05
-0.000126348
7.66974e-05
-0.000117522
0.000100284
-0.000117455
0.000130487
-0.00011881
0.000161482
-7.55356e-05
0.000193191
5.10366e-06
0.000224382
9.42563e-05
0.000248312
0.000159295
0.000256746
0.000175961
0.000256656
0.000134924
0.000251277
6.3775e-05
0.000237798
-1.19625e-05
0.000210203
-6.90603e-05
0.000166575
-9.24861e-05
0.000116082
-8.81666e-05
6.82731e-05
-7.4419e-05
2.70078e-05
-6.92572e-05
-1.82387e-05
-9.24554e-05
-8.20766e-05
-5.63222e-05
-0.000147132
1.32567e-05
9.02403e-05
-0.000209906
2.88254e-05
-0.000222932
1.35242e-05
-0.000141705
2.18079e-05
-0.000134631
4.16114e-05
-0.000137325
5.37316e-05
-0.000129575
6.96153e-05
-0.000134694
9.29636e-05
-9.88839e-05
0.000117186
-1.91186e-05
0.000144904
6.65378e-05
0.000168815
0.000135385
0.000188144
0.000156632
0.000202216
0.000120851
0.000207126
5.88646e-05
0.000198393
-3.22959e-06
0.000168876
-3.95425e-05
0.000124032
-4.76428e-05
7.87161e-05
-4.28504e-05
3.79376e-05
-3.36403e-05
-1.43224e-06
-2.98873e-05
-5.52836e-05
-3.8604e-05
-0.000122909
1.13029e-05
-0.000190967
8.13152e-05
0.000147197
-0.000247924
8.8981e-06
-0.00023183
8.85665e-06
-0.000141663
1.84568e-05
-0.000144232
2.3493e-05
-0.000142361
1.53279e-05
-0.00012141
-5.35663e-07
-0.00011883
1.38049e-06
-0.0001008
1.8138e-05
-3.58761e-05
3.52426e-05
4.94334e-05
5.56011e-05
0.000115026
8.54999e-05
0.000126733
0.000117878
8.84731e-05
0.000140059
3.66845e-05
0.000137512
-6.82854e-07
0.000108792
-1.08228e-05
7.44373e-05
-1.32878e-05
4.56515e-05
-1.40646e-05
1.70255e-05
-5.01413e-06
-2.08921e-05
8.03034e-06
-7.22188e-05
1.27226e-05
-0.000130054
6.91379e-05
-0.000184928
0.000136189
0.000183576
-0.000221306
-3.21229e-06
-0.000228618
5.22216e-06
-0.000150098
1.32401e-05
-0.00015225
1.03615e-05
-0.000139483
-5.58983e-06
-0.000105459
-4.07572e-05
-8.36625e-05
-7.97669e-05
-6.17905e-05
-9.50213e-05
-2.06216e-05
-8.02258e-05
3.4638e-05
-3.47959e-05
6.95965e-05
2.2758e-05
6.91792e-05
6.25754e-05
4.86557e-05
7.2013e-05
2.72469e-05
5.72943e-05
1.40358e-05
4.37425e-05
2.72889e-06
3.65307e-05
-6.07605e-06
2.83129e-05
-5.84686e-06
1.0413e-05
1.28858e-05
-2.08511e-05
3.92944e-05
-6.16923e-05
5.35638e-05
-0.000102133
0.000109578
-0.000137744
0.0001718
0.000201735
-0.000155902
-1.29975e-05
-0.000215621
-9.27702e-06
-0.000153818
-8.11779e-06
-0.000153409
-1.37951e-05
-0.000133805
-2.00583e-05
-9.91955e-05
-3.54903e-05
-6.82304e-05
-5.92662e-05
-3.80146e-05
-7.22823e-05
-7.60556e-06
-6.59341e-05
2.82898e-05
-4.70783e-05
5.07408e-05
-3.63281e-05
5.84288e-05
-3.91561e-05
5.14836e-05
-3.53022e-05
2.3393e-05
-1.2908e-05
-8.35846e-06
1.5281e-05
-2.54603e-05
2.9541e-05
-2.03361e-05
2.85371e-05
-4.84294e-06
1.71111e-05
2.43117e-05
-4.0156e-06
6.04211e-05
-3.25319e-05
8.20802e-05
-5.24736e-05
0.00012952
-6.88726e-05
0.000188199
0.000208763
-7.59005e-05
-2.1439e-05
-0.000194182
-2.91835e-05
-0.000146074
-4.30936e-05
-0.000139499
-5.9014e-05
-0.000117885
-6.7152e-05
-9.10575e-05
-7.53933e-05
-5.99891e-05
-9.09245e-05
-2.24834e-05
-0.000109111
1.0581e-05
-0.000122212
4.13911e-05
-0.000132137
6.06652e-05
-0.000139138
6.54304e-05
-0.00012844
4.0785e-05
-9.08144e-05
-1.42324e-05
-3.39116e-05
-6.52612e-05
7.62751e-06
-6.69993e-05
2.88428e-05
-4.15513e-05
3.55871e-05
-1.15872e-05
3.25076e-05
2.7391e-05
2.17881e-05
7.11404e-05
3.36658e-06
0.000100502
-9.0946e-07
0.000133796
3.23273e-06
0.000184057
0.000204914
7.08179e-06
-2.72896e-05
-0.000166892
-4.57821e-05
-0.000127581
-7.18732e-05
-0.000113408
-9.98223e-05
-8.99355e-05
-0.000125002
-6.5878e-05
-0.000147724
-3.72674e-05
-0.000165307
-4.89998e-06
-0.000180624
2.58985e-05
-0.000189388
5.01552e-05
-0.000191973
6.32501e-05
-0.000182965
5.64222e-05
-0.00015303
1.08501e-05
-0.000100774
-6.6488e-05
-4.11511e-05
-0.000124884
8.63999e-06
-0.00011679
3.66485e-05
-6.95597e-05
4.58352e-05
-2.07739e-05
4.85937e-05
2.46325e-05
4.70819e-05
7.26521e-05
3.67183e-05
0.000110865
3.51855e-05
0.000135329
5.41421e-05
0.0001651
0.000184652
7.44037e-05
-3.04715e-05
-0.000136421
-5.21103e-05
-0.000105942
-7.80714e-05
-8.7447e-05
-0.000103928
-6.40788e-05
-0.000132151
-3.76556e-05
-0.00015652
-1.28976e-05
-0.00017379
1.23705e-05
-0.000182459
3.45674e-05
-0.000183109
5.08045e-05
-0.000175057
5.51987e-05
-0.000153731
3.50954e-05
-0.000115303
-2.75775e-05
-6.54542e-05
-0.000116337
-2.24669e-05
-0.000167872
1.90752e-05
-0.000158332
5.0978e-05
-0.000101463
5.83336e-05
-2.81297e-05
5.94226e-05
2.35435e-05
6.31013e-05
6.89735e-05
6.21392e-05
0.000111828
5.99836e-05
0.000137485
7.47538e-05
0.00015033
0.000158727
0.000100678
-3.18352e-05
-0.000104586
-5.24396e-05
-8.53378e-05
-6.71104e-05
-7.27761e-05
-7.55311e-05
-5.56581e-05
-9.65262e-05
-1.66605e-05
-0.00011599
6.5661e-06
-0.000129277
2.56572e-05
-0.000133677
3.89681e-05
-0.000128071
4.51988e-05
-0.000110135
3.72623e-05
-7.84149e-05
3.37546e-06
-4.67727e-05
-5.92197e-05
-1.29498e-05
-0.00015016
1.45682e-05
-0.00019539
3.78613e-05
-0.000181625
6.03623e-05
-0.000123963
6.7084e-05
-3.48516e-05
6.2749e-05
2.78784e-05
6.61884e-05
6.55341e-05
7.17304e-05
0.000106286
7.27513e-05
0.000136464
7.84578e-05
0.000144624
0.000141971
9.52142e-05
-3.32323e-05
-7.13535e-05
-5.24087e-05
-6.61614e-05
-5.15007e-05
-7.36839e-05
-3.21755e-05
-7.49831e-05
-3.96378e-05
-9.19818e-06
-5.41129e-05
2.10412e-05
-6.65214e-05
3.80656e-05
-7.02636e-05
4.27105e-05
-6.15942e-05
3.65293e-05
-3.86941e-05
1.43621e-05
-8.09973e-06
-2.72188e-05
1.85565e-05
-8.5876e-05
3.795e-05
-0.000169553
5.32044e-05
-0.000210644
6.07847e-05
-0.000189206
6.16249e-05
-0.000124803
6.02598e-05
-3.34864e-05
5.38819e-05
3.42562e-05
5.66368e-05
6.27791e-05
6.54361e-05
9.74863e-05
7.17951e-05
0.000130105
7.49806e-05
0.000141438
0.000134758
8.21936e-05
-2.91901e-05
-4.21633e-05
-4.3049e-05
-5.23025e-05
-3.26101e-05
-8.41227e-05
-9.14298e-07
-0.000106679
2.263e-05
-3.27424e-05
1.41928e-05
2.94784e-05
-2.17515e-06
5.44336e-05
-1.06253e-05
5.1161e-05
-5.99259e-06
3.18968e-05
1.28185e-05
-4.44912e-06
3.73143e-05
-5.17146e-05
6.32116e-05
-0.000111773
7.59217e-05
-0.000182263
7.86777e-05
-0.0002134
6.94801e-05
-0.000180008
5.0484e-05
-0.000105807
3.23572e-05
-1.53595e-05
3.04113e-05
3.62021e-05
3.60059e-05
5.71847e-05
4.69234e-05
8.65689e-05
5.76796e-05
0.000119349
6.41821e-05
0.000134936
0.000129931
6.90095e-05
-1.79926e-05
-2.41706e-05
-1.69714e-05
-5.33237e-05
-3.57848e-06
-9.75155e-05
1.35729e-05
-0.00012383
5.70627e-05
-7.62321e-05
7.6749e-05
9.79203e-06
6.20187e-05
6.9164e-05
4.27214e-05
7.04583e-05
3.77152e-05
3.6903e-05
4.62783e-05
-1.30123e-05
6.16024e-05
-6.70387e-05
8.2424e-05
-0.000132595
9.19687e-05
-0.000191808
7.82419e-05
-0.000199674
4.94166e-05
-0.000151183
1.28702e-05
-6.92608e-05
-7.73981e-06
5.25042e-06
-3.28354e-06
3.17458e-05
8.63868e-06
4.52625e-05
2.08929e-05
7.43148e-05
3.42896e-05
0.000105952
4.57063e-05
0.000123519
0.000121869
5.37684e-05
-6.24964e-06
-1.79209e-05
1.16289e-05
-7.12022e-05
2.71804e-05
-0.000113067
3.20473e-05
-0.000128697
5.77216e-05
-0.000101906
9.39621e-05
-2.64485e-05
0.000101438
6.16881e-05
8.45315e-05
8.73647e-05
7.14607e-05
4.99738e-05
6.99956e-05
-1.15473e-05
7.78321e-05
-7.48751e-05
9.11637e-05
-0.000145926
8.53832e-05
-0.000186027
4.99746e-05
-0.000164265
4.87254e-07
-0.000101695
-3.89107e-05
-2.98628e-05
-4.37027e-05
1.00424e-05
-3.00278e-05
1.80708e-05
-2.00456e-05
3.52805e-05
-7.99992e-06
6.22692e-05
7.45201e-06
9.05005e-05
2.27414e-05
0.00010823
0.000109197
3.54127e-05
7.00449e-06
-2.49253e-05
3.14576e-05
-9.56552e-05
4.76454e-05
-0.000129255
4.83657e-05
-0.000129417
5.45795e-05
-0.00010812
7.37406e-05
-4.56095e-05
9.31154e-05
4.23133e-05
9.37704e-05
8.67096e-05
8.7418e-05
5.63261e-05
8.14276e-05
-5.557e-06
8.74656e-05
-8.0913e-05
8.7944e-05
-0.000146405
5.87854e-05
-0.000156869
2.87169e-06
-0.000108351
-4.76165e-05
-5.12069e-05
-6.75331e-05
-9.94604e-06
-6.04056e-05
2.91502e-06
-5.23141e-05
9.97938e-06
-4.47118e-05
2.76783e-05
-3.33331e-05
5.08904e-05
-1.74592e-05
7.46265e-05
3.2495e-07
9.04453e-05
9.34438e-05
1.60785e-05
2.09621e-05
-4.58875e-05
4.01189e-05
-0.000114812
4.5766e-05
-0.000134902
3.95427e-05
-0.000123194
3.28818e-05
-0.000101459
3.79687e-05
-5.06962e-05
5.12311e-05
2.9051e-05
6.38004e-05
7.41404e-05
6.82327e-05
5.18938e-05
7.4293e-05
-1.16172e-05
8.53823e-05
-9.20022e-05
6.90841e-05
-0.000130106
1.75222e-05
-0.000105307
-3.80516e-05
-5.27776e-05
-6.85748e-05
-2.06838e-05
-7.19422e-05
-6.57882e-06
-6.72444e-05
-1.78284e-06
-6.46829e-05
7.41783e-06
-5.93392e-05
2.23346e-05
-4.93197e-05
4.08708e-05
-3.43812e-05
5.96878e-05
-1.69015e-05
7.29654e-05
7.70427e-05
-5.00589e-07
2.08651e-05
-6.67527e-05
2.03606e-05
-0.000114307
1.68494e-06
-0.000116226
-1.54962e-05
-0.000106013
-2.22268e-05
-9.4729e-05
-1.96385e-05
-5.32845e-05
-9.45084e-06
1.88633e-05
1.10549e-05
5.36348e-05
3.34587e-05
2.94901e-05
6.33196e-05
-4.14781e-05
7.11714e-05
-9.9854e-05
3.33773e-05
-9.23123e-05
-2.54055e-05
-4.6524e-05
-5.72086e-05
-2.09747e-05
-6.56567e-05
-1.22359e-05
-6.44658e-05
-7.76981e-06
-6.41119e-05
-2.13683e-06
-6.40872e-05
7.39314e-06
-6.09033e-05
1.91505e-05
-5.32263e-05
3.31936e-05
-4.08113e-05
4.72727e-05
-2.55706e-05
5.77248e-05
6.20139e-05
-1.05418e-05
6.35076e-06
-7.31034e-05
-2.07503e-05
-8.72064e-05
-5.79672e-05
-7.90088e-05
-7.83007e-05
-8.56792e-05
-8.5858e-05
-8.71716e-05
-8.55363e-05
-5.3606e-05
-6.77141e-05
1.0411e-06
-2.83624e-05
1.42832e-05
2.65042e-05
-2.53766e-05
6.0635e-05
-7.56089e-05
4.26618e-05
-8.18811e-05
-1.03418e-05
-3.93087e-05
-4.32051e-05
-1.36608e-05
-5.15693e-05
-1.26105e-05
-5.22532e-05
-1.15522e-05
-5.21693e-05
-7.85382e-06
-5.3233e-05
-1.07328e-06
-5.35285e-05
7.68864e-06
-5.16196e-05
1.72415e-05
-4.62676e-05
2.78416e-05
-3.70822e-05
3.80873e-05
-2.53031e-05
4.59458e-05
4.98373e-05
-1.31264e-05
-1.29901e-05
-6.0113e-05
-5.17577e-05
-4.84385e-05
-8.40347e-05
-4.67319e-05
-9.59919e-05
-7.37219e-05
-9.31579e-05
-9.00054e-05
-7.71958e-05
-6.95682e-05
-4.43991e-05
-3.17556e-05
8.34629e-06
-3.84621e-05
4.69397e-05
-6.397e-05
3.76529e-05
-6.6322e-05
-6.91358e-06
-3.73147e-05
-3.71008e-05
-9.12156e-06
-3.97439e-05
-1.10178e-05
-3.95803e-05
-1.27741e-05
-4.0081e-05
-1.10516e-05
-4.08787e-05
-7.05633e-06
-4.14355e-05
-5.16531e-07
-4.10442e-05
7.29725e-06
-3.92534e-05
1.54506e-05
-3.52616e-05
2.38499e-05
-2.87775e-05
3.16032e-05
-2.04363e-05
3.76047e-05
4.09973e-05
-1.15963e-05
-1.77065e-05
-4.24065e-05
-4.5271e-05
-2.08737e-05
-6.15365e-05
-3.04663e-05
-6.10589e-05
-7.41994e-05
-4.72412e-05
-0.000103823
-2.20823e-05
-9.4727e-05
8.85036e-06
-6.26882e-05
2.82952e-05
-5.79067e-05
1.75498e-05
-5.32246e-05
-1.62554e-05
-3.25167e-05
-3.97245e-05
-1.38456e-05
-3.41661e-05
-1.468e-05
-2.94645e-05
-1.57196e-05
-2.92303e-05
-1.30084e-05
-3.00543e-05
-1.02276e-05
-3.12879e-05
-5.82286e-06
-3.17467e-05
-5.7823e-08
-3.12218e-05
6.77234e-06
-2.95538e-05
1.37826e-05
-2.6393e-05
2.06891e-05