/*--------------------------------*- C++ -*----------------------------------*\
| =========                 |                                                 |
| \\      /  F ield         | OpenFOAM: The Open Source CFD Toolbox           |
|  \\    /   O peration     | Version:  2.3.0                                 |
|   \\  /    A nd           | Web:      www.OpenFOAM.org                      |
|    \\/     M anipulation  |                                                 |
\*---------------------------------------------------------------------------*/
FoamFile
{
    version     2.0;
    format      ascii;
    class       volVectorField;
    location    "2.5";
    object      U;
}
// * * * * * * * * * * * * * * * * * * * * * * * * * * * * * * * * * * * * * //

dimensions      [0 1 -1 0 0 0 0];

internalField   nonuniform List<vector> 
2268
(
(0.0381377 -0.0216369 0)
(0.059696 -0.00147678 0)
(0.00378032 0.00834436 0)
(-0.0102805 0.000427065 0)
(-0.017355 -0.00509166 0)
(-0.0273085 0.00501573 0)
(-0.094371 0.0234773 0)
(-0.171637 0.0192343 0)
(-0.17279 -0.00299266 0)
(-0.109987 -0.0182833 0)
(-0.0455494 -0.018882 0)
(0.00523348 -0.0136566 0)
(0.0292908 -0.00679725 0)
(0.0255805 0.00259572 0)
(-0.00280424 0.00950801 0)
(-0.0223723 0.00479133 0)
(-0.00399112 -0.00561674 0)
(0.0215103 -0.00599309 0)
(0.0323995 0.00041645 0)
(0.0127749 0.00818929 0)
(-0.0265723 0.0085611 0)
(-0.0462408 6.39568e-06 0)
(-0.022281 -0.012561 0)
(-1.30502e-05 -0.0324235 0)
(0.0181793 0.0218999 0)
(-0.0591228 0.0259445 0)
(-0.096614 0.00878344 0)
(-0.133511 0.0135638 0)
(-0.173901 0.0340916 0)
(-0.210098 0.0414446 0)
(-0.203581 0.0151999 0)
(-0.140256 -0.0240188 0)
(-0.0775308 -0.0441097 0)
(-0.0180173 -0.0395924 0)
(0.0148746 -0.0189831 0)
(0.0131372 -0.00118882 0)
(-0.00328675 0.0118955 0)
(-0.0146896 0.0118078 0)
(0.000142244 -0.00300755 0)
(0.0324494 -0.0169399 0)
(0.0524154 -0.0105339 0)
(0.0526321 0.00459334 0)
(0.0344322 0.019953 0)
(0.00590357 0.0200114 0)
(-0.00886375 0.000610459 0)
(-0.00412802 -0.02609 0)
(-0.0232428 -0.0284353 0)
(-0.024237 0.0402036 0)
(-0.0883516 0.0512661 0)
(-0.124792 0.0272725 0)
(-0.163494 0.0317752 0)
(-0.194803 0.0438501 0)
(-0.1939 0.0337255 0)
(-0.150825 -0.00893087 0)
(-0.0907119 -0.0549991 0)
(-0.0211153 -0.0767697 0)
(0.0315639 -0.0644629 0)
(0.0580467 -0.0264497 0)
(0.055448 0.00272096 0)
(0.0384145 0.0150331 0)
(0.0345796 0.00839022 0)
(0.0547478 -0.0157497 0)
(0.0845096 -0.0302412 0)
(0.104211 -0.016285 0)
(0.105674 0.00907326 0)
(0.0861113 0.0293827 0)
(0.0696638 0.030983 0)
(0.0483465 0.00899474 0)
(0.0220026 -0.018984 0)
(-0.039492 -0.0128548 0)
(-0.04523 0.0573355 0)
(-0.0829235 0.072129 0)
(-0.110651 0.0423378 0)
(-0.140202 0.044504 0)
(-0.153598 0.0456769 0)
(-0.139618 0.0209634 0)
(-0.0992381 -0.0311431 0)
(-0.0348785 -0.085243 0)
(0.0365263 -0.107043 0)
(0.0620347 -0.0816158 0)
(0.078596 -0.0356265 0)
(0.0914168 0.00788042 0)
(0.0820932 0.0190805 0)
(0.0791519 0.00491067 0)
(0.0942602 -0.0247931 0)
(0.116886 -0.0419817 0)
(0.134309 -0.0238639 0)
(0.146696 0.00973781 0)
(0.138378 0.035318 0)
(0.131743 0.0407547 0)
(0.10297 0.0299301 0)
(0.0459638 0.00625003 0)
(-0.0491942 0.00753147 0)
(-0.0525785 0.0669513 0)
(-0.0606719 0.0829016 0)
(-0.0782629 0.0535204 0)
(-0.103618 0.0520481 0)
(-0.1046 0.0437704 0)
(-0.0875161 0.00824208 0)
(-0.050288 -0.0539086 0)
(0.025639 -0.116489 0)
(0.0725688 -0.124945 0)
(0.0673218 -0.0863673 0)
(0.0750701 -0.0412851 0)
(0.0938954 0.00358567 0)
(0.103034 0.0199135 0)
(0.104707 0.00402358 0)
(0.112228 -0.0313715 0)
(0.125683 -0.0509351 0)
(0.138166 -0.0298151 0)
(0.153279 0.00645106 0)
(0.165463 0.0353485 0)
(0.171936 0.0491639 0)
(0.140481 0.0572872 0)
(0.0625934 0.0460629 0)
(-0.0578878 0.030728 0)
(-0.0596522 0.0688185 0)
(-0.0422917 0.0819011 0)
(-0.0454701 0.062724 0)
(-0.0707018 0.0565499 0)
(-0.0657187 0.0381474 0)
(-0.0442794 -0.00536797 0)
(-0.00280856 -0.0778675 0)
(0.0731844 -0.143569 0)
(0.078798 -0.125986 0)
(0.046946 -0.0843535 0)
(0.0560861 -0.0437562 0)
(0.0695034 -0.00405566 0)
(0.0871367 0.0130098 0)
(0.101474 0.000691899 0)
(0.110408 -0.0340388 0)
(0.116906 -0.0564924 0)
(0.125144 -0.0350443 0)
(0.140127 -0.00504133 0)
(0.164211 0.0242621 0)
(0.177686 0.0516747 0)
(0.147886 0.0854018 0)
(0.0650831 0.0922958 0)
(-0.0657928 0.0592131 0)
(-0.0765774 0.0689956 0)
(-0.0466267 0.0707619 0)
(-0.0227685 0.0672074 0)
(-0.0418215 0.0605073 0)
(-0.0370885 0.0307256 0)
(-0.00753643 -0.0215556 0)
(0.0511854 -0.105691 0)
(0.0903933 -0.155843 0)
(0.0508822 -0.113133 0)
(0.0122655 -0.0770275 0)
(0.0195244 -0.0466949 0)
(0.0310303 -0.0103434 0)
(0.0506865 0.00391713 0)
(0.0725098 -0.00750512 0)
(0.0884981 -0.0396846 0)
(0.081733 -0.0616886 0)
(0.0809206 -0.0396918 0)
(0.0885348 -0.0169191 0)
(0.10721 0.0122567 0)
(0.12152 0.0540937 0)
(0.106829 0.110956 0)
(0.0489662 0.132088 0)
(-0.0683021 0.089828 0)
(-0.091701 0.0682235 0)
(-0.0650564 0.0501164 0)
(-0.0143889 0.0616554 0)
(-0.00293786 0.0640299 0)
(0.00346811 0.0200214 0)
(0.0403149 -0.0496211 0)
(0.101643 -0.125164 0)
(0.0772859 -0.146238 0)
(-0.00258611 -0.092841 0)
(-0.0365283 -0.0679939 0)
(-0.0386087 -0.0475122 0)
(-0.0228251 -0.0185252 0)
(0.00533416 -0.00490253 0)
(0.0326321 -0.0162148 0)
(0.0420563 -0.0436016 0)
(0.00786808 -0.0532189 0)
(-0.00733846 -0.0314959 0)
(-0.00986545 -0.0160468 0)
(0.00361631 0.0104509 0)
(0.0294896 0.0630124 0)
(0.0345206 0.135635 0)
(0.021356 0.167111 0)
(0.0501404 -0.0265266 0)
(0.121339 0.00143535 0)
(0.0676398 0.0206433 0)
(-0.153607 0.0361007 0)
(-0.245903 0.0118456 0)
(-0.162913 -0.0269679 0)
(-0.0418755 -0.03546 0)
(0.0830388 -0.0324559 0)
(0.19928 -0.0301792 0)
(0.308945 -0.0261213 0)
(0.400048 -0.00998263 0)
(0.414151 0.0140484 0)
(0.331671 0.028691 0)
(0.218793 0.0269575 0)
(0.124927 0.0170157 0)
(0.0329999 0.0183846 0)
(-0.0633599 0.0158453 0)
(-0.109802 0.00298671 0)
(-0.04418 -0.0250006 0)
(0.0179914 -0.0629427 0)
(0.088274 0.00435553 0)
(0.00914229 0.0791238 0)
(-0.223557 0.0866659 0)
(-0.186673 0.00888211 0)
(-0.0703322 -0.0770329 0)
(0.0257544 -0.0847899 0)
(0.115836 -0.0764848 0)
(0.197765 -0.074334 0)
(0.284979 -0.065973 0)
(0.358382 -0.0320161 0)
(0.413945 0.0127664 0)
(0.424096 0.047346 0)
(0.380177 0.0634489 0)
(0.28552 0.0636456 0)
(0.118955 0.0694137 0)
(-0.0117117 0.0448268 0)
(-0.0620936 -0.00253256 0)
(-0.00444605 -0.0544006 0)
(-0.019328 -0.0732456 0)
(0.0081556 0.0223879 0)
(-0.0658807 0.131799 0)
(-0.19073 0.107006 0)
(-0.057315 -0.0256521 0)
(0.0509076 -0.118738 0)
(0.110135 -0.118543 0)
(0.150079 -0.100155 0)
(0.185533 -0.101896 0)
(0.239048 -0.0981083 0)
(0.305805 -0.0538103 0)
(0.339421 -0.000604193 0)
(0.348408 0.0423629 0)
(0.353121 0.0793391 0)
(0.31204 0.10796 0)
(0.166616 0.125759 0)
(0.0742715 0.084895 0)
(0.0471871 0.0123264 0)
(0.035217 -0.0510477 0)
(-0.0438102 -0.0553798 0)
(-0.0616264 0.0429683 0)
(-0.100888 0.155514 0)
(-0.115567 0.0923592 0)
(0.0744102 -0.0819312 0)
(0.153705 -0.147845 0)
(0.163069 -0.130725 0)
(0.154839 -0.102193 0)
(0.154808 -0.111272 0)
(0.172115 -0.121111 0)
(0.235876 -0.0698204 0)
(0.270452 -0.00313587 0)
(0.265116 0.0386134 0)
(0.278387 0.0837916 0)
(0.270379 0.140126 0)
(0.166044 0.167971 0)
(0.126331 0.106029 0)
(0.120863 0.0291577 0)
(0.0664053 -0.0219484 0)
(-0.0490219 -0.0303285 0)
(-0.0886512 0.0563844 0)
(-0.0857063 0.14623 0)
(-0.00912344 0.0462123 0)
(0.177554 -0.124803 0)
(0.210388 -0.162423 0)
(0.166733 -0.122835 0)
(0.127728 -0.0905409 0)
(0.114919 -0.109621 0)
(0.0919548 -0.137126 0)
(0.153276 -0.0861701 0)
(0.198201 -0.0090108 0)
(0.19193 0.0338438 0)
(0.201892 0.084468 0)
(0.201659 0.160599 0)
(0.138862 0.187595 0)
(0.142029 0.104682 0)
(0.144554 0.0450541 0)
(0.0748677 0.0174305 0)
(-0.0250569 -0.0045132 0)
(-0.0742809 0.0577528 0)
(-0.0373137 0.112355 0)
(0.135241 -0.0216254 0)
(0.239281 -0.15006 0)
(0.203934 -0.150799 0)
(0.12786 -0.0987923 0)
(0.0923787 -0.0756663 0)
(0.0854808 -0.100363 0)
(0.0243977 -0.141746 0)
(0.061622 -0.102643 0)
(0.119205 -0.0159703 0)
(0.12079 0.0288547 0)
(0.130506 0.0858505 0)
(0.134187 0.170718 0)
(0.119098 0.188054 0)
(0.147409 0.0991887 0)
(0.140974 0.0649815 0)
(0.0713784 0.0612776 0)
(0.0260005 0.0116983 0)
(-0.0241032 0.0544766 0)
(0.0427079 0.05767 0)
(0.210114 -0.0717352 0)
(0.224983 -0.145363 0)
(0.141181 -0.118888 0)
(0.0761781 -0.0764093 0)
(0.0748536 -0.0689774 0)
(0.0781068 -0.0851708 0)
(-0.000664535 -0.126102 0)
(-0.0282987 -0.117534 0)
(0.0396866 -0.0298618 0)
(0.0592561 0.0228317 0)
(0.0715581 0.0850796 0)
(0.0872914 0.167496 0)
(0.121257 0.173997 0)
(0.15944 0.096449 0)
(0.130397 0.0856725 0)
(0.0633322 0.101392 0)
(0.0497316 -0.0112383 0)
(0.0486107 0.0434284 0)
(0.156738 0.00329482 0)
(0.215302 -0.0882012 0)
(0.156994 -0.116564 0)
(0.0670891 -0.090268 0)
(0.0452227 -0.0779662 0)
(0.0721659 -0.0771474 0)
(0.0854954 -0.0710834 0)
(0.0180773 -0.0946256 0)
(-0.0645514 -0.111233 0)
(-0.0362483 -0.0537407 0)
(0.0119658 0.00717453 0)
(0.0379619 0.0758702 0)
(0.0767634 0.147814 0)
(0.145738 0.150987 0)
(0.171562 0.102294 0)
(0.115189 0.112596 0)
(0.0529505 0.141426 0)
(-0.0390492 0.140145 0)
(-0.0465934 0.0734224 0)
(-0.023606 0.0151848 0)
(0.0165146 0.0135772 0)
(0.0531797 0.0384557 0)
(0.0828713 0.00959684 0)
(0.103922 -0.059806 0)
(0.105061 -0.109415 0)
(0.00672677 -0.0897641 0)
(-0.0949868 -0.0519304 0)
(-0.141671 -0.0472789 0)
(-0.154716 -0.0417935 0)
(-0.139895 -0.039584 0)
(-0.107747 -0.0407069 0)
(-0.0817124 -0.0404789 0)
(-0.0925469 -0.0272324 0)
(-0.133013 -0.0144165 0)
(-0.157326 -0.0157661 0)
(-0.166679 -0.0246819 0)
(-0.152138 -0.0143887 0)
(-0.111151 0.0277117 0)
(-0.0544493 0.0997272 0)
(0.0304475 0.140515 0)
(0.0120875 0.150823 0)
(0.0603369 0.0851903 0)
(0.0670282 -0.00884892 0)
(0.0484399 -0.00409607 0)
(0.0680612 0.0127904 0)
(0.0992998 -0.0152574 0)
(0.0903775 -0.0644349 0)
(-0.000931663 -0.0229254 0)
(-0.131308 0.0469075 0)
(-0.225194 0.0503356 0)
(-0.297317 0.000636556 0)
(-0.31796 -0.0367998 0)
(-0.302598 -0.0584482 0)
(-0.27337 -0.0524386 0)
(-0.253817 -0.0312642 0)
(-0.258328 -0.00410582 0)
(-0.288981 -0.00586635 0)
(-0.330227 -0.0220292 0)
(-0.360699 -0.034899 0)
(-0.35601 -0.031987 0)
(-0.309073 -0.00495802 0)
(-0.239167 0.0260377 0)
(-0.18371 0.0224419 0)
(0.0403415 0.0573125 0)
(0.106673 0.0502748 0)
(0.0427991 0.0259388 0)
(-0.000992259 0.0140868 0)
(-0.0102235 -0.013435 0)
(-0.0226331 -0.0185805 0)
(-0.0761042 0.0331769 0)
(-0.174943 0.0882359 0)
(-0.29906 0.0875124 0)
(-0.406053 0.069402 0)
(-0.490702 0.0153548 0)
(-0.484777 -0.0523782 0)
(-0.418257 -0.0885527 0)
(-0.333267 -0.0776915 0)
(-0.256981 -0.0465502 0)
(-0.200662 0.0197905 0)
(-0.196056 0.0607291 0)
(-0.217947 0.0543308 0)
(-0.301793 0.00113583 0)
(-0.400689 -0.071519 0)
(-0.346888 -0.0789908 0)
(-0.226444 -0.0170547 0)
(-0.0937818 0.0291356 0)
(0.00419566 -0.000549642 0)
(-0.0120662 0.0893752 0)
(-0.122593 0.106141 0)
(-0.181447 0.0713132 0)
(-0.223394 0.0372377 0)
(-0.235168 0.0470654 0)
(-0.230126 0.106225 0)
(-0.217432 0.184454 0)
(-0.222159 0.208235 0)
(-0.252646 0.236824 0)
(-0.362866 0.136252 0)
(-0.599902 -0.0353509 0)
(-0.689106 -0.190818 0)
(-0.657595 -0.243006 0)
(-0.44817 -0.207982 0)
(-0.149333 -0.085936 0)
(0.0242055 -0.00733965 0)
(0.192883 0.0590279 0)
(0.159816 0.252602 0)
(-0.441604 0.0812 0)
(-0.530759 -0.111968 0)
(-0.532805 -0.206211 0)
(-0.364869 -0.298344 0)
(-0.0559747 0.0758865 0)
(-0.180027 0.181769 0)
(-0.318547 0.150625 0)
(-0.370029 0.0769882 0)
(-0.34807 0.0296865 0)
(-0.25878 0.00934418 0)
(-0.149932 0.0238548 0)
(-0.0286138 0.0970632 0)
(0.207214 0.239859 0)
(-0.480421 0.49525 0)
(-0.536293 0.418017 0)
(-0.69468 0.0998332 0)
(-0.730001 -0.13015 0)
(-0.743799 -0.291806 0)
(-0.718001 -0.385026 0)
(-0.704715 -0.444306 0)
(-0.7118 -0.276822 0)
(-0.646648 0.0145993 0)
(-0.410942 0.487026 0)
(-0.581241 0.309729 0)
(-0.504096 0.02993 0)
(-0.289586 -0.34136 0)
(-0.0989654 -0.472106 0)
(-0.0637411 0.189962 0)
(-0.178547 0.308406 0)
(-0.239415 0.243307 0)
(-0.143438 0.114549 0)
(0.225206 -0.0739743 0)
(-0.118774 -0.148896 0)
(-0.1479 -0.210713 0)
(-0.487154 -0.172492 0)
(-0.404157 0.718128 0)
(-0.715376 0.635651 0)
(-0.639992 0.457528 0)
(-0.68385 0.165441 0)
(-0.658427 -0.0818926 0)
(-0.648214 -0.237942 0)
(-0.620967 -0.322426 0)
(-0.572266 -0.305186 0)
(-0.544372 -0.20133 0)
(-0.526854 -0.0402522 0)
(-0.468734 0.249587 0)
(-0.414952 0.292704 0)
(-0.27033 -0.168103 0)
(-0.0851438 -0.56765 0)
(0.0245631 -0.680377 0)
(-0.0913402 0.316941 0)
(0.030773 0.39399 0)
(0.0244832 0.201237 0)
(-0.0575003 -0.158808 0)
(-0.163387 0.0962482 0)
(-0.288967 0.185968 0)
(-0.550305 0.221613 0)
(-0.747844 0.358526 0)
(-0.757935 0.625934 0)
(-0.749188 0.601917 0)
(-0.716879 0.423554 0)
(-0.745919 0.111518 0)
(-0.762327 -0.139291 0)
(-0.757824 -0.297816 0)
(-0.709527 -0.403858 0)
(-0.612362 -0.394527 0)
(-0.48592 -0.237474 0)
(-0.407976 -0.0428835 0)
(-0.375775 0.113821 0)
(-0.247611 0.0552596 0)
(-0.029492 -0.375612 0)
(0.104189 -0.702205 0)
(0.159302 -0.831418 0)
(-0.109904 0.311932 0)
(0.220036 0.341518 0)
(0.297482 0.383771 0)
(-0.165483 0.184391 0)
(-0.346915 0.18531 0)
(-0.425347 0.255088 0)
(-0.587469 0.336587 0)
(-0.728508 0.443974 0)
(-0.78282 0.573413 0)
(-0.783919 0.605117 0)
(-0.810648 0.453626 0)
(-0.845047 0.174004 0)
(-0.868314 -0.100885 0)
(-0.841043 -0.341399 0)
(-0.767694 -0.505849 0)
(-0.635663 -0.542925 0)
(-0.432122 -0.416789 0)
(-0.174015 -0.153994 0)
(0.0432724 0.10171 0)
(0.196047 -0.00207102 0)
(0.405176 -0.39883 0)
(0.428772 -0.678792 0)
(0.411682 -0.828655 0)
(-0.114826 0.114669 0)
(0.0109065 -0.0599587 0)
(-0.222456 0.598718 0)
(-0.284003 0.361267 0)
(-0.388879 0.2646 0)
(-0.415085 0.308565 0)
(-0.493237 0.432673 0)
(-0.598932 0.549875 0)
(-0.702201 0.64752 0)
(-0.762439 0.63806 0)
(-0.780619 0.45278 0)
(-0.771251 0.16076 0)
(-0.753581 -0.136606 0)
(-0.724484 -0.401325 0)
(-0.671626 -0.607468 0)
(-0.569258 -0.713872 0)
(-0.396582 -0.687598 0)
(-0.147119 -0.540027 0)
(0.158622 -0.329497 0)
(0.464273 -0.276903 0)
(0.657432 -0.451515 0)
(0.67968 -0.641142 0)
(0.634065 -0.763848 0)
(-0.146534 0.115053 0)
(-0.129534 0.357326 0)
(-0.320149 0.607635 0)
(-0.181037 0.438611 0)
(-0.263843 0.345767 0)
(-0.306959 0.357809 0)
(-0.337219 0.522987 0)
(-0.412024 0.671605 0)
(-0.521154 0.730357 0)
(-0.574386 0.66471 0)
(-0.570409 0.447327 0)
(-0.546321 0.151731 0)
(-0.528573 -0.150255 0)
(-0.508593 -0.426485 0)
(-0.472833 -0.658952 0)
(-0.396351 -0.816649 0)
(-0.260972 -0.857684 0)
(-0.0642432 -0.763711 0)
(0.149493 -0.606799 0)
(0.376465 -0.566433 0)
(0.533135 -0.626308 0)
(0.630192 -0.697275 0)
(0.672681 -0.754396 0)
(-0.15115 0.320023 0)
(-0.138274 0.525449 0)
(-0.178951 0.508515 0)
(-0.00165319 0.412302 0)
(-0.0165929 0.411761 0)
(-0.0609168 0.388132 0)
(-0.102694 0.55726 0)
(-0.152945 0.747787 0)
(-0.2269 0.79274 0)
(-0.258773 0.686824 0)
(-0.255735 0.443381 0)
(-0.245438 0.139099 0)
(-0.239081 -0.165317 0)
(-0.227899 -0.448955 0)
(-0.202004 -0.703303 0)
(-0.138463 -0.908484 0)
(-0.0290433 -1.01383 0)
(0.131092 -0.971293 0)
(0.321661 -0.796139 0)
(0.496902 -0.703527 0)
(0.595267 -0.697932 0)
(0.662275 -0.752864 0)
(0.705977 -0.784832 0)
(-0.0675234 0.450225 0)
(-0.00847202 0.530383 0)
(-0.0264633 0.362635 0)
(0.105032 0.280864 0)
(0.203659 0.393062 0)
(0.263009 0.464571 0)
(0.21303 0.578165 0)
(0.174238 0.770903 0)
(0.146052 0.836375 0)
(0.123403 0.717961 0)
(0.106011 0.464038 0)
(0.0894135 0.152437 0)
(0.0756556 -0.164311 0)
(0.0706934 -0.461304 0)
(0.0867505 -0.73743 0)
(0.142206 -0.9827 0)
(0.235718 -1.13582 0)
(0.35883 -1.14491 0)
(0.508831 -0.985974 0)
(0.63967 -0.813281 0)
(0.714689 -0.756527 0)
(0.776664 -0.797174 0)
(0.806768 -0.795891 0)
(0.0723431 0.390523 0)
(0.235055 0.562086 0)
(0.278573 0.372326 0)
(0.299749 0.167922 0)
(0.345265 0.218219 0)
(0.488065 0.413754 0)
(0.561638 0.608795 0)
(0.560854 0.784126 0)
(0.553021 0.858206 0)
(0.530051 0.757288 0)
(0.488825 0.509709 0)
(0.442779 0.186579 0)
(0.400875 -0.147828 0)
(0.369851 -0.462464 0)
(0.370178 -0.76411 0)
(0.411619 -1.04511 0)
(0.483958 -1.23327 0)
(0.567311 -1.26476 0)
(0.650781 -1.1188 0)
(0.730297 -0.907303 0)
(0.796728 -0.816025 0)
(0.878475 -0.845095 0)
(0.906931 -0.77426 0)
(0.126879 0.0842066 0)
(0.400925 0.358028 0)
(0.619985 0.387497 0)
(0.744156 0.279969 0)
(0.745584 0.189201 0)
(0.770671 0.262252 0)
(0.859883 0.496749 0)
(0.927252 0.746451 0)
(0.954405 0.875873 0)
(0.935558 0.816232 0)
(0.876564 0.588031 0)
(0.801611 0.260578 0)
(0.724946 -0.0922569 0)
(0.660954 -0.431661 0)
(0.63738 -0.76796 0)
(0.657876 -1.08514 0)
(0.697144 -1.29455 0)
(0.722592 -1.32134 0)
(0.724248 -1.16724 0)
(0.736138 -0.967073 0)
(0.824199 -0.906088 0)
(0.927433 -0.91329 0)
(0.915137 -0.724128 0)
(-0.0492341 -0.152345 0)
(0.237615 -0.0205893 0)
(0.550454 0.0420043 0)
(0.875872 0.101857 0)
(1.13003 0.191717 0)
(1.24197 0.30434 0)
(1.27827 0.471046 0)
(1.2888 0.681579 0)
(1.29142 0.844821 0)
(1.26651 0.850771 0)
(1.20054 0.671454 0)
(1.10789 0.36328 0)
(1.00418 0.00187115 0)
(0.913824 -0.36995 0)
(0.871758 -0.748633 0)
(0.867578 -1.09456 0)
(0.859204 -1.30173 0)
(0.806691 -1.29888 0)
(0.73032 -1.13385 0)
(0.686134 -1.00227 0)
(0.783335 -1.02039 0)
(0.829638 -0.973373 0)
(0.734776 -0.637042 0)
(-0.147133 -0.0868132 0)
(0.161492 -0.280449 0)
(0.384116 -0.327375 0)
(0.608426 -0.312414 0)
(0.898795 -0.181605 0)
(1.23535 0.078417 0)
(1.49687 0.396461 0)
(1.62611 0.718406 0)
(1.61871 0.911316 0)
(1.53561 0.919911 0)
(1.42456 0.752387 0)
(1.30361 0.455161 0)
(1.18718 0.0908044 0)
(1.10252 -0.306448 0)
(1.06068 -0.716809 0)
(1.02917 -1.06659 0)
(0.957057 -1.24088 0)
(0.817819 -1.19601 0)
(0.678777 -1.03656 0)
(0.593401 -1.00832 0)
(0.669645 -1.08664 0)
(0.555716 -0.927015 0)
(0.384826 -0.476062 0)
(0.0849126 -0.152174 0)
(0.420725 -0.512328 0)
(0.647026 -0.530018 0)
(0.763655 -0.453381 0)
(0.826329 -0.416583 0)
(0.96819 -0.289711 0)
(1.25723 0.0612775 0)
(1.53826 0.505145 0)
(1.69842 0.904785 0)
(1.68804 1.03499 0)
(1.57423 0.891086 0)
(1.4385 0.581703 0)
(1.32317 0.189592 0)
(1.25133 -0.242113 0)
(1.20485 -0.666946 0)
(1.1301 -0.986063 0)
(0.979577 -1.09909 0)
(0.760189 -1.01725 0)
(0.573922 -0.88664 0)
(0.445676 -0.963701 0)
(0.425599 -1.01589 0)
(0.0991571 -0.672559 0)
(-0.0639957 -0.16168 0)
(0.182481 -0.546472 0)
(0.508594 -0.847822 0)
(0.615228 -0.683812 0)
(0.71089 -0.469846 0)
(0.759245 -0.443864 0)
(0.854985 -0.399274 0)
(1.03482 -0.162637 0)
(1.28658 0.285498 0)
(1.49353 0.746226 0)
(1.59176 1.03783 0)
(1.57578 0.999643 0)
(1.49647 0.711766 0)
(1.4166 0.29623 0)
(1.35402 -0.161339 0)
(1.28152 -0.575829 0)
(1.14302 -0.83457 0)
(0.910096 -0.874731 0)
(0.641569 -0.781947 0)
(0.429941 -0.695884 0)
(0.252899 -0.837352 0)
(0.0787211 -0.784649 0)
(-0.33621 -0.385501 0)
(-0.535747 0.0292214 0)
(0.120252 -0.955216 0)
(0.375233 -0.947823 0)
(0.224175 -0.657332 0)
(0.377495 -0.554392 0)
(0.466799 -0.577634 0)
(0.578124 -0.566322 0)
(0.763602 -0.335162 0)
(0.957786 0.0891509 0)
(1.16622 0.587319 0)
(1.29937 0.933989 0)
(1.36206 1.00242 0)
(1.38054 0.766542 0)
(1.3646 0.361652 0)
(1.32267 -0.0810505 0)
(1.23008 -0.44334 0)
(1.03059 -0.618154 0)
(0.755631 -0.607059 0)
(0.482939 -0.524053 0)
(0.27247 -0.480102 0)
(0.04482 -0.62807 0)
(-0.245443 -0.474201 0)
(-0.659132 -0.110834 0)
(-0.997101 0.328656 0)
(0.0111894 -1.16844 0)
(0.208567 -0.780603 0)
(-0.000316878 -0.674519 0)
(0.210579 -0.705434 0)
(0.267714 -0.700917 0)
(0.288214 -0.720242 0)
(0.390084 -0.483827 0)
(0.572522 -0.0558502 0)
(0.756227 0.41833 0)
(0.879972 0.783087 0)
(0.953162 0.902904 0)
(1.0498 0.71063 0)
(1.10021 0.350854 0)
(1.10386 -0.028708 0)
(1.0156 -0.296491 0)
(0.79493 -0.37498 0)
(0.530428 -0.342068 0)
(0.305223 -0.281272 0)
(0.129306 -0.264129 0)
(-0.134378 -0.352947 0)
(-0.464452 -0.108732 0)
(-0.867508 0.261034 0)
(-1.21341 0.658337 0)
(-0.0598682 -1.24538 0)
(0.111483 -0.719643 0)
(0.0249526 -0.752652 0)
(0.147559 -0.753277 0)
(0.132593 -0.673425 0)
(0.0477913 -0.708372 0)
(-0.0797371 -0.560075 0)
(0.0635348 -0.147435 0)
(0.191764 0.327491 0)
(0.272073 0.697884 0)
(0.366041 0.810066 0)
(0.535862 0.61073 0)
(0.689977 0.273595 0)
(0.776278 -0.0326845 0)
(0.685622 -0.151057 0)
(0.480254 -0.150139 0)
(0.306209 -0.133066 0)
(0.174022 -0.0948894 0)
(0.0304432 -0.0628649 0)
(-0.225757 -0.0573387 0)
(-0.525035 0.238133 0)
(-0.871834 0.607007 0)
(-1.12855 0.905908 0)
(-0.0962753 -1.25481 0)
(0.0482108 -0.780786 0)
(0.030981 -0.805339 0)
(0.0884471 -0.762612 0)
(0.0417908 -0.601598 0)
(-0.118425 -0.534079 0)
(-0.376697 -0.443616 0)
(-0.525859 -0.152772 0)
(-0.456016 0.268574 0)
(-0.30886 0.537948 0)
(-0.034133 0.507422 0)
(0.256225 0.283208 0)
(0.408194 0.0904457 0)
(0.361362 0.0276882 0)
(0.235767 0.0379627 0)
(0.202351 -0.00969996 0)
(0.185269 -0.0399268 0)
(0.1166 0.0306639 0)
(0.00643352 0.134724 0)
(-0.202999 0.188838 0)
(-0.415917 0.502313 0)
(-0.672488 0.848742 0)
(-0.833219 1.04662 0)
(-0.113501 -1.2076 0)
(-0.0292516 -0.831313 0)
(-0.0540982 -0.850428 0)
(-0.0491927 -0.764746 0)
(-0.0868712 -0.565033 0)
(-0.148136 -0.403076 0)
(-0.258752 -0.279323 0)
(-0.376342 -0.113915 0)
(-0.382661 0.0974934 0)
(-0.293763 0.227611 0)
(-0.183037 0.264105 0)
(-0.200209 0.265514 0)
(-0.205186 0.203214 0)
(-0.162581 0.0979577 0)
(0.00664801 -0.0228153 0)
(0.128643 -0.0605853 0)
(0.17521 -0.0171259 0)
(0.136461 0.111784 0)
(0.0581973 0.282561 0)
(-0.093534 0.367354 0)
(-0.211383 0.660867 0)
(-0.337199 0.988271 0)
(-0.433817 1.11243 0)
(-0.118263 -1.10797 0)
(-0.10535 -0.824184 0)
(-0.197059 -0.80452 0)
(-0.279446 -0.69094 0)
(-0.35208 -0.529228 0)
(-0.393913 -0.339161 0)
(-0.433719 -0.143732 0)
(-0.533957 0.0248228 0)
(-0.631405 0.178308 0)
(-0.674774 0.299489 0)
(-0.722776 0.360522 0)
(-0.753114 0.299297 0)
(-0.602601 0.0747112 0)
(-0.337945 -0.166228 0)
(-0.0586986 -0.22711 0)
(0.116237 -0.155586 0)
(0.185544 -0.031577 0)
(0.201943 0.15239 0)
(0.161098 0.367667 0)
(0.0772359 0.499885 0)
(-0.0216673 0.707693 0)
(0.0151915 1.02756 0)
(0.00196137 1.1389 0)
(-0.123967 -0.97154 0)
(-0.170052 -0.744885 0)
(-0.311749 -0.677739 0)
(-0.459289 -0.552095 0)
(-0.614757 -0.425764 0)
(-0.754294 -0.274598 0)
(-0.846079 -0.0754155 0)
(-0.930075 0.111855 0)
(-0.999542 0.274289 0)
(-1.0319 0.36264 0)
(-1.02817 0.349184 0)
(-0.930165 0.152732 0)
(-0.680584 -0.218998 0)
(-0.350563 -0.536305 0)
(-0.0892675 -0.493956 0)
(0.152718 -0.285748 0)
(0.226685 -0.0870158 0)
(0.264601 0.145194 0)
(0.268163 0.396073 0)
(0.246753 0.582041 0)
(0.159769 0.721509 0)
(0.235816 0.945744 0)
(0.339895 1.07552 0)
(-0.129561 -0.816314 0)
(-0.207284 -0.62958 0)
(-0.344099 -0.530298 0)
(-0.475395 -0.400941 0)
(-0.645422 -0.264573 0)
(-0.793532 -0.124273 0)
(-0.902597 0.0263054 0)
(-0.965148 0.169796 0)
(-0.986458 0.279175 0)
(-0.975226 0.32478 0)
(-0.922606 0.243598 0)
(-0.754012 -0.0698352 0)
(-0.455222 -0.550472 0)
(-0.187262 -0.83354 0)
(-0.0195824 -0.772966 0)
(0.200035 -0.463185 0)
(0.306303 -0.131553 0)
(0.313244 0.121649 0)
(0.332711 0.381537 0)
(0.356359 0.609865 0)
(0.314016 0.738836 0)
(0.337854 0.83697 0)
(0.463075 0.92244 0)
(-0.133047 -0.652332 0)
(-0.230348 -0.508528 0)
(-0.329893 -0.404937 0)
(-0.347862 -0.285182 0)
(-0.470439 -0.136784 0)
(-0.587272 -0.0156064 0)
(-0.677296 0.0987298 0)
(-0.718042 0.193663 0)
(-0.710618 0.256193 0)
(-0.656153 0.247726 0)
(-0.544516 0.0943976 0)
(-0.357654 -0.278261 0)
(-0.129457 -0.757538 0)
(0.0379091 -1.00519 0)
(0.139944 -0.942634 0)
(0.245957 -0.638948 0)
(0.356753 -0.171401 0)
(0.345398 0.12758 0)
(0.338195 0.353964 0)
(0.380408 0.590779 0)
(0.39486 0.745301 0)
(0.38726 0.786358 0)
(0.455409 0.79163 0)
(-0.13477 -0.473506 0)
(-0.254532 -0.396222 0)
(-0.314302 -0.366847 0)
(-0.173532 -0.31104 0)
(-0.188839 -0.0530202 0)
(-0.265709 0.0757848 0)
(-0.345044 0.163786 0)
(-0.383642 0.209854 0)
(-0.368019 0.212605 0)
(-0.28366 0.137974 0)
(-0.133388 -0.0516621 0)
(0.0101433 -0.358703 0)
(0.173138 -0.862211 0)
(0.285693 -1.10851 0)
(0.319101 -1.02328 0)
(0.308622 -0.707566 0)
(0.324404 -0.22425 0)
(0.304922 0.154948 0)
(0.280521 0.337909 0)
(0.326964 0.546888 0)
(0.38294 0.723349 0)
(0.390802 0.772955 0)
(0.414741 0.735644 0)
(-0.1258 -0.305221 0)
(-0.227442 -0.313872 0)
(-0.246957 -0.45205 0)
(-0.0577718 -0.51578 0)
(0.0694159 -0.036881 0)
(0.120614 0.160384 0)
(0.0164299 0.238829 0)
(-0.052991 0.235667 0)
(-0.0634868 0.166454 0)
(0.00933456 0.0122831 0)
(0.131201 -0.22274 0)
(0.253603 -0.524052 0)
(0.391822 -0.948925 0)
(0.464193 -1.16276 0)
(0.410346 -1.02599 0)
(0.305202 -0.657796 0)
(0.219446 -0.173774 0)
(0.152385 0.185868 0)
(0.157122 0.323909 0)
(0.217922 0.494455 0)
(0.293711 0.674651 0)
(0.333578 0.751126 0)
(0.356172 0.715644 0)
(-0.113551 -0.175858 0)
(-0.111605 -0.272625 0)
(-0.0801271 -0.490073 0)
(0.0537257 -0.647274 0)
(0.139101 -0.31432 0)
(0.399279 0.173576 0)
(0.388759 0.366741 0)
(0.262551 0.314484 0)
(0.191261 0.162458 0)
(0.225742 -0.064415 0)
(0.281382 -0.331316 0)
(0.379354 -0.672175 0)
(0.501247 -1.02181 0)
(0.497182 -1.13474 0)
(0.35096 -0.925615 0)
(0.152227 -0.493995 0)
(-0.00632214 -0.0139248 0)
(-0.0568624 0.201425 0)
(0.0122009 0.278133 0)
(0.0734677 0.43547 0)
(0.155972 0.611044 0)
(0.223348 0.703862 0)
(0.268994 0.686261 0)
(-0.0983153 -0.106637 0)
(0.0126265 -0.322937 0)
(0.106718 -0.541979 0)
(0.185351 -0.679383 0)
(0.199307 -0.528964 0)
(0.390739 -0.0769201 0)
(0.573382 0.379414 0)
(0.515174 0.445124 0)
(0.396858 0.232602 0)
(0.372459 -0.0783407 0)
(0.38137 -0.388421 0)
(0.461281 -0.762123 0)
(0.526569 -1.03961 0)
(0.391894 -1.00392 0)
(0.128968 -0.692597 0)
(-0.139641 -0.245499 0)
(-0.247389 0.0863971 0)
(-0.204844 0.140258 0)
(-0.14365 0.221455 0)
(-0.0819568 0.374496 0)
(0.000666122 0.536547 0)
(0.0871477 0.632044 0)
(0.158848 0.6303 0)
(-0.0461144 -0.107092 0)
(0.106228 -0.451214 0)
(0.234702 -0.669746 0)
(0.280284 -0.71114 0)
(0.251592 -0.600036 0)
(0.30821 -0.233466 0)
(0.473804 0.25084 0)
(0.53901 0.486037 0)
(0.481863 0.316789 0)
(0.439903 -0.0316997 0)
(0.431508 -0.401385 0)
(0.504986 -0.798151 0)
(0.454733 -0.951838 0)
(0.172824 -0.756093 0)
(-0.164639 -0.387562 0)
(-0.333302 -0.0658152 0)
(-0.35127 0.0454837 0)
(-0.305065 0.0742401 0)
(-0.271376 0.174666 0)
(-0.215508 0.311532 0)
(-0.136557 0.451234 0)
(-0.0416657 0.54106 0)
(0.0465801 0.550374 0)
(0.00835456 -0.170205 0)
(0.191253 -0.577511 0)
(0.254187 -0.750315 0)
(0.25726 -0.711975 0)
(0.142378 -0.583249 0)
(0.163453 -0.295493 0)
(0.278838 0.166816 0)
(0.331698 0.440667 0)
(0.359372 0.320232 0)
(0.348419 -0.00452978 0)
(0.428839 -0.452957 0)
(0.47561 -0.763958 0)
(0.27862 -0.728925 0)
(-0.10031 -0.419502 0)
(-0.330518 -0.15299 0)
(-0.382264 -0.0320491 0)
(-0.369926 -0.00405368 0)
(-0.358263 0.0467443 0)
(-0.341534 0.137659 0)
(-0.297764 0.249866 0)
(-0.226833 0.363323 0)
(-0.135603 0.441018 0)
(-0.0445164 0.459873 0)
(0.044215 -0.285594 0)
(0.162874 -0.652922 0)
(0.0695949 -0.705932 0)
(-0.0340482 -0.62326 0)
(-0.153651 -0.526606 0)
(-0.120395 -0.249735 0)
(-0.0746223 0.146452 0)
(0.00487032 0.369524 0)
(0.114537 0.259793 0)
(0.221927 -0.117996 0)
(0.413678 -0.54064 0)
(0.349886 -0.626587 0)
(0.00853211 -0.399586 0)
(-0.28326 -0.153324 0)
(-0.343141 -0.0679552 0)
(-0.345506 -0.0407399 0)
(-0.341018 -0.0145066 0)
(-0.347992 0.0409309 0)
(-0.341107 0.111235 0)
(-0.312158 0.19728 0)
(-0.255725 0.284612 0)
(-0.178251 0.348086 0)
(-0.0957487 0.37134 0)
(0.053668 -0.410364 0)
(0.0129842 -0.570565 0)
(-0.230074 -0.514313 0)
(-0.406234 -0.49357 0)
(-0.470155 -0.464802 0)
(-0.477649 -0.262249 0)
(-0.407817 0.0989367 0)
(-0.244991 0.241397 0)
(-0.0424184 0.0317658 0)
(0.287361 -0.362883 0)
(0.346744 -0.537188 0)
(0.108462 -0.372727 0)
(-0.210698 -0.12071 0)
(-0.272947 -0.0760801 0)
(-0.277059 -0.0702437 0)
(-0.276251 -0.0464767 0)
(-0.281484 -0.00835656 0)
(-0.288652 0.0420589 0)
(-0.285294 0.0970254 0)
(-0.267072 0.160415 0)
(-0.227072 0.223985 0)
(-0.168689 0.272843 0)
(-0.102761 0.295618 0)
(0.0155212 -0.385223 0)
(-0.142642 -0.357052 0)
(-0.412536 -0.321392 0)
(-0.529848 -0.407993 0)
(-0.509738 -0.445738 0)
(-0.459214 -0.292052 0)
(-0.355682 -0.06548 0)
(-0.103277 -0.0905925 0)
(0.195685 -0.315214 0)
(0.284528 -0.440481 0)
(0.109294 -0.342091 0)
(-0.176195 -0.0727462 0)
(-0.224392 -0.0467959 0)
(-0.209836 -0.0717771 0)
(-0.212671 -0.0633703 0)
(-0.214377 -0.0433797 0)
(-0.221496 -0.00424207 0)
(-0.222426 0.0400105 0)
(-0.217209 0.0871558 0)
(-0.202556 0.136659 0)
(-0.174227 0.18349 0)
(-0.133338 0.220122 0)
(-0.0859392 0.24009 0)
(-0.0100538 -0.271908 0)
(-0.159094 -0.174142 0)
(-0.345389 -0.204226 0)
(-0.364 -0.412817 0)
(-0.276428 -0.549573 0)
(-0.18778 -0.498268 0)
(-0.0539246 -0.315225 0)
(0.13747 -0.327048 0)
(0.157349 -0.362411 0)
(0.0250035 -0.27244 0)
(-0.200789 -0.0704984 0)
(-0.208965 -0.0409743 0)
(-0.162578 -0.0771244 0)
(-0.157369 -0.0705367 0)
(-0.156692 -0.0599313 0)
(-0.164126 -0.0360979 0)
(-0.169585 -0.00198139 0)
(-0.170024 0.0366103 0)
(-0.16438 0.0775016 0)
(-0.15176 0.118398 0)
(-0.130463 0.155537 0)
(-0.101564 0.184401 0)
(-0.0683816 0.201683 0)
(0.00137638 -0.200796 0)
(-0.0491439 -0.0707439 0)
(-0.14725 -0.144126 0)
(-0.17034 -0.41211 0)
(-0.101884 -0.595527 0)
(-0.152239 -0.570262 0)
(-0.0790183 -0.405971 0)
(-0.0302072 -0.311595 0)
(-0.165927 -0.210658 0)
(-0.228368 -0.0981293 0)
(-0.201471 -0.0918185 0)
(-0.141183 -0.110645 0)
(-0.126177 -0.0912045 0)
(-0.118985 -0.0721904 0)
(-0.119872 -0.0535028 0)
(-0.124481 -0.0294476 0)
(-0.128803 0.000846617 0)
(-0.129967 0.0347762 0)
(-0.125948 0.0700089 0)
(-0.116336 0.10399 0)
(-0.100368 0.134345 0)
(-0.0793078 0.158269 0)
(-0.0555118 0.173814 0)
(0.0106991 -0.208057 0)
(0.0517271 -0.0499473 0)
(0.0685405 -0.0823843 0)
(-0.0340342 -0.362904 0)
(0.0192536 -0.533213 0)
(-0.192864 -0.472663 0)
(-0.260323 -0.367421 0)
(-0.230204 -0.237421 0)
(-0.239148 -0.188874 0)
(-0.159105 -0.174628 0)
(-0.132405 -0.155405 0)
(-0.110173 -0.126078 0)
(-0.103962 -0.0991994 0)
(-0.0972608 -0.0739054 0)
(-0.0943839 -0.0519661 0)
(-0.0951586 -0.0259755 0)
(-0.096922 0.00323455 0)
(-0.0972543 0.0338105 0)
(-0.0942732 0.0645694 0)
(-0.0872054 0.0933359 0)
(-0.0757989 0.118674 0)
(-0.0608415 0.139172 0)
(-0.0440126 0.153567 0)
(0.0233768 -0.232589 0)
(0.0298926 -0.159897 0)
(0.227631 -0.0505968 0)
(0.113918 -0.274949 0)
(0.13471 -0.443237 0)
(-0.10484 -0.329765 0)
(-0.198578 -0.366061 0)