/*--------------------------------*- C++ -*----------------------------------*\
| =========                 |                                                 |
| \\      /  F ield         | OpenFOAM: The Open Source CFD Toolbox           |
|  \\    /   O peration     | Version:  2.3.0                                 |
|   \\  /    A nd           | Web:      www.OpenFOAM.org                      |
|    \\/     M anipulation  |                                                 |
\*---------------------------------------------------------------------------*/
FoamFile
{
    version     2.0;
    format      ascii;
    class       volScalarField;
    location    "2.6";
    object      alpha.water;
}
// * * * * * * * * * * * * * * * * * * * * * * * * * * * * * * * * * * * * * //

dimensions      [0 0 0 0 0 0 0];

internalField   nonuniform List<scalar> 
2268
(
1
1
1
1
1
1
0.999999
0.999999
1
1
0.999999
0.999998
0.999998
0.999998
0.999998
0.999994
0.998598
0.986234
0.982801
0.998707
0.998707
0.99569
0.995164
1
1
1
1
1
0.999998
0.999998
0.999999
0.999999
0.999999
0.999997
0.999996
0.999996
0.999998
0.999997
0.999982
0.993042
0.980341
0.980256
0.990253
0.998429
0.999156
0.998939
1
1
1
1
1
0.999998
0.999999
0.999999
0.999998
0.999997
0.999997
0.999998
0.999999
1
0.999999
0.999984
0.993349
0.980252
0.980254
0.980256
0.984407
0.999356
0.999992
1
1
1
1
0.999999
0.999999
1
0.999999
0.999998
0.999998
0.999999
1
1
1
1
0.999997
0.999475
0.989866
0.980255
0.980366
0.988045
0.99877
0.999992
1
1
1
1
0.999999
1
1
1
0.999999
0.999999
1
1
1
1
1
1
0.999946
0.998334
0.995376
0.996353
0.999997
0.999996
0.999992
1
1
1
0.999999
1
1
1
1
0.999999
0.999999
1
1
1
1
1
0.999995
0.999992
1
1
1
0.999999
0.999996
0.999992
1
1
0.999999
0.999999
1
1
1
1
0.999999
0.999999
0.999999
1
1
1
1
1
1
1
1
0.999999
0.999994
0.999986
0.99999
1
1
1
0.999999
1
1
0.999999
0.999999
1
1
1
1
1
1
1
1
1
1
0.999998
0.999989
0.999958
0.999915
0.999917
0.946461
0.946461
0.965891
0.977098
0.973781
0.974319
0.973356
0.936351
0.927438
0.931779
0.991479
0.994114
0.992598
0.992498
0.9695
0.966318
0.972636
0.976243
0.970871
0.946461
0.986453
0.99742
0.997425
0.997428
0.997427
0.997427
0.997427
0.930154
0.960708
0.994114
0.994114
0.993596
0.953717
0.974187
0.988805
0.993965
0.993955
0.987677
0.950135
0.997255
0.997365
0.997404
0.997353
0.997427
0.997427
0.997427
0.978097
0.927883
0.990388
0.994114
0.925738
0.899313
0.907488
0.971339
0.993955
0.993938
0.993931
0.950205
0.994747
0.997515
0.996204
0.996204
0.997402
0.997427
0.997426
0.9734
0.927322
0.942695
0.934365
0.901234
0.901453
0.901097
0.951383
0.993939
0.993929
0.993877
0.950336
0.993659
0.998222
0.99791
0.997399
0.992312
0.997352
0.997426
0.93967
0.927322
0.927322
0.948078
0.901453
0.901379
0.901336
0.955582
0.993594
0.993884
0.993482
0.954091
0.995832
0.99823
0.99823
0.99823
0.989662
0.989787
0.99742
0.962784
0.927322
0.942053
0.992081
0.901147
0.90131
0.900779
0.960531
0.99393
0.99393
0.993505
0.993768
0.996836
0.998224
0.99823
0.998231
0.995867
0.961095
0.99648
0.996312
0.950026
0.991553
0.99519
0.970158
0.900819
0.90103
0.980691
0.993926
0.99393
0.993926
0.99708
0.99793
0.998215
0.998223
0.998222
0.996948
0.904689
0.985612
0.995809
0.995689
0.995444
0.995174
0.995174
0.977411
0.979132
0.991562
0.991658
0.993926
0.993913
1
1
1
1
1
1
1
1
1
1
1
1
1
1
1
1
1
0.999997
0.999977
0.9999
0.999706
0.998732
0.990028
0.930807
0.930368
0.931767
0.937358
0.946449
0.958965
0.974035
0.990099
1
1
1
1
1
1
1
0.999999
0.999985
0.999918
0.997264
0.975553
0.932631
0.901043
0.902468
0.247185
0.229267
0.233325
0.25439
0.280535
0.313779
0.350483
0.392976
0.454852
0.517571
0.578368
0.635256
0.680458
0.713862
0.741042
0.752902
0.732443
0.670385
0.56788
0.416435
0.28878
0.234483
0.228239
0.00654293
0.00808545
0.00632819
0.00403518
0.00425151
0.00495448
0.0090858
0.0146624
0.0124121
0.0140172
0.0197848
0.0289399
0.0464445
0.0692766
0.0840577
0.0829231
0.0640461
0.039338
0.0101804
0.00338831
0.00348149
0.0035371
0.00362505
0.00605718
0.00917399
0.0078663
0.00350677
0.00391611
0.00429528
0.0102668
0.0154554
0.0123619
0.0123777
0.0123582
0.0125532
0.0129703
0.01263
0.0116238
0.00348388
0.00336629
0.00326442
0.00318075
0.00326441
0.00342044
0.0050071
0.0103223
0.00482243
0.00588985
0.00627402
0.00312584
0.00393361
0.00749965
0.00702013
0.00496085
0.0184419
0.0212501
0.0212512
0.0212501
0.0212508
0.0211561
0.00787502
0.00344852
0.00330064
0.00321196
0.0030731
0.00301786
0.00539293
0.0147147
0.0147147
0.00157567
0.000683286
0.00242765
0.00309818
0.00333683
0.00327307
0.0012301
0.00262807
0.0166067
0.0212162
0.0212501
0.0212501
0.0211951
0.0156159
0.00400148
0.00375821
0.00576715
0.00513394
0.00295859
0.0029806
0.0112712
0.0142837
0.0147147
8.58074e-05
3.43009e-05
9.91985e-05
0.000627265
0.000648723
0.000378546
0.000599131
0.0024353
0.00473926
0.00265615
0.00118717
0.00106694
0.00479954
0.00987049
0.0111521
0.0111809
0.0111776
0.0111794
0.00548514
0.00118949
0.00504156
0.00747398
0.00187904
2.59205e-05
9.40963e-06
1.36855e-05
2.84038e-05
9.25446e-05
0.000204159
0.0012525
0.00192018
0.000478804
6.35198e-05
6.35554e-05
6.21588e-05
6.08015e-05
6.18732e-05
0.000443096
0.0048979
0.00868739
0.00835742
0.00265351
0.000266891
1.43762e-06
5.49113e-07
4.95629e-07
8.65253e-06
3.11504e-06
4.48495e-06
8.48143e-06
6.00969e-05
0.000993491
0.00156422
0.00174124
0.00122641
0.000319302
6.21611e-05
6.08067e-05
6.08048e-05
6.07483e-05
5.62429e-05
3.20833e-05
1.20318e-05
8.01015e-06
8.1398e-06
1.17205e-05
5.80687e-05
1.8452e-05
5.16943e-07
2.63138e-06
1.02499e-06
1.73397e-06
2.08435e-06
3.42045e-05
0.000875032
0.00147458
0.0014914
0.00146499
0.00144159
0.00129298
0.000458752
6.08067e-05
6.1915e-05
0.000446242
0.000661079
0.000461755
9.46542e-05
1.22094e-05
1.72782e-06
1.0599e-05
4.648e-05
1.29382e-05
7.80898e-07
3.88785e-07
6.64765e-07
7.13735e-07
2.08866e-05
0.000195424
0.000366746
0.000389586
0.000260058
0.000527197
0.000959931
0.000952157
0.00054891
8.12846e-05
0.000599058
0.000661079
0.000661179
0.000659527
4.30183e-05
5.47062e-07
3.04094e-05
7.57295e-05
7.36545e-05
2.26796e-07
1.49776e-07
1.2367e-07
1.47299e-07
6.75e-06
2.73928e-06
2.32469e-06
1.04901e-06
2.47103e-07
7.12165e-08
2.7338e-05
0.000105525
0.000127674
9.43722e-05
0.00015928
0.000473105
0.000541137
0.000152864
3.40678e-06
6.53026e-08
1.24414e-05
7.48571e-05
7.44676e-05
6.65784e-08
4.0531e-08
2.71646e-08
3.23298e-08
1.10719e-07
4.06392e-07
3.20708e-07
1.31931e-07
2.50575e-08
6.94155e-09
1.79427e-09
4.19504e-10
2.59302e-10
1.28417e-06
1.60501e-10
1.74593e-10
1.82705e-10
1.82319e-10
1.45607e-10
5.46464e-08
1.13388e-09
2.00818e-07
6.94804e-05
2.29733e-08
1.38549e-08
8.75836e-09
6.7525e-09
2.55317e-08
6.16511e-08
5.11718e-08
2.32788e-08
6.83509e-09
2.11407e-09
5.05417e-10
4.22513e-10
2.33974e-10
1.60429e-10
1.60428e-10
1.77959e-10
2.34595e-10
6.5595e-10
1.36452e-10
8.5976e-11
1.07041e-10
1.13577e-09
2.17329e-07
1.00074e-08
7.25841e-09
3.84829e-09
2.87437e-09
6.95858e-09
1.05836e-08
8.61232e-09
4.3802e-09
1.81823e-09
8.916e-10
5.51693e-10
4.19799e-10
2.44387e-10
1.73784e-10
1.61262e-10
2.06253e-10
5.43059e-10
1.27292e-09
7.53276e-10
8.41983e-11
7.51493e-11
7.49453e-09
1.15901e-07
5.93594e-09
4.49409e-09
2.40734e-09
1.86835e-09
2.53424e-09
2.97989e-09
2.60362e-09
1.77549e-09
1.13878e-09
7.22197e-10
5.0428e-10
3.74196e-10
2.68883e-10
2.0593e-10
1.64234e-10
1.4767e-10
1.44381e-10
1.5485e-10
1.2376e-10
9.86263e-11
7.40587e-11
5.05511e-08
5.41484e-07
2.46333e-08
6.90995e-09
1.87473e-09
1.5908e-09
1.72546e-09
1.80049e-09
1.7118e-09
1.404e-09
1.05696e-09
6.89028e-10
4.84378e-10
3.75483e-10
2.67476e-10
2.11419e-10
1.76792e-10
1.51073e-10
1.31931e-10
1.19005e-10
1.1023e-10
9.3809e-11
7.40602e-11
5.07624e-08
2.33181e-07
5.28558e-08
8.72216e-09
1.50868e-09
1.4504e-09
1.56552e-09
1.56165e-09
1.57718e-09
1.4269e-09
1.10904e-09
7.29807e-10
4.93116e-10
3.56792e-10
2.42104e-10
2.08777e-10
1.79842e-10
1.53908e-10
1.31409e-10
1.16176e-10
1.07535e-10
9.22936e-11
7.44576e-11
8.60413e-09
1.79972e-08
5.32818e-08
1.02156e-08
1.39986e-09
1.35494e-09
1.49493e-09
1.50404e-09
1.47907e-09
1.34889e-09
1.06368e-09
7.30519e-10
4.95368e-10
3.39006e-10
2.38358e-10
2.06694e-10
1.72467e-10
1.44063e-10
1.22613e-10
1.08398e-10
9.8343e-11
8.25582e-11
1.52219e-10
4.71376e-11
4.2871e-11
5.33401e-08
2.61711e-08
3.15061e-09
1.25472e-09
1.32048e-09
1.34887e-09
1.3168e-09
1.19733e-09
9.62508e-10
7.01735e-10
4.86494e-10
3.22872e-10
2.34899e-10
2.0012e-10
1.61525e-10
1.3024e-10
1.06678e-10
8.98742e-11
7.74469e-11
6.13457e-11
2.98491e-10
2.86985e-10
1.1554e-10
5.33401e-08
3.22708e-08
4.13136e-09
1.14125e-09
1.13284e-09
1.20299e-09
1.19366e-09
1.11768e-09
9.30767e-10
6.77091e-10
4.6611e-10
3.05798e-10
2.27922e-10
1.9043e-10
1.4974e-10
1.16696e-10
9.13252e-11
7.2306e-11
5.80344e-11
4.82313e-11
6.13781e-11
8.64373e-11
8.89128e-11
3.01486e-08
1.13786e-08
1.74184e-09
1.11209e-09
1.10667e-09
1.11138e-09
1.13789e-09
1.10894e-09
9.63045e-10
6.90538e-10
4.54359e-10
2.87096e-10
2.18618e-10
1.78621e-10
1.36733e-10
1.02804e-10
7.67878e-11
5.724e-11
4.2768e-11
3.30286e-11
2.81494e-11
2.50179e-11
2.13545e-11
1.97647e-09
1.19788e-09
1.11207e-09
1.06779e-09
1.10624e-09
1.10623e-09
1.11505e-09
1.09468e-09
9.96797e-10
7.31042e-10
4.62772e-10
2.7345e-10
2.1063e-10
1.66586e-10
1.23165e-10
8.87217e-11
6.30034e-11
4.43668e-11
3.11377e-11
2.21259e-11
1.62406e-11
1.22643e-11
9.25729e-12
3.9966e-09
2.91338e-06
5.06693e-06
9.83822e-10
1.04365e-09
1.08016e-09
1.06455e-09
1.05763e-09
9.60387e-10
7.40334e-10
4.8868e-10
2.88597e-10
1.80502e-10
1.44474e-10
1.04933e-10
7.31322e-11
4.97565e-11
3.3388e-11
2.2248e-11
1.4826e-11
9.94644e-12
6.72018e-12
4.54059e-12
2.32821e-05
2.66806e-05
2.68671e-05
1.51527e-05
5.04181e-07
1.52161e-09
8.91144e-10
8.17316e-10
8.28565e-10
6.98641e-10
4.86664e-10
2.81957e-10
1.52612e-10
1.18981e-10
8.3849e-11
5.64068e-11
3.68476e-11
2.36539e-11
1.50345e-11
9.50404e-12
5.98878e-12
3.76256e-12
2.3541e-12
2.68465e-05
2.68679e-05
2.68662e-05
2.27906e-05
8.29074e-07
2.00493e-09
6.69707e-10
5.72599e-10
6.28121e-10
5.49594e-10
4.08778e-10
2.22807e-10
1.19861e-10
8.98976e-11
6.05048e-11
3.89132e-11
2.4282e-11
1.48714e-11
8.99549e-12
5.39211e-12
3.20748e-12
1.89431e-12
1.11118e-12
1.45768e-05
2.68466e-05
2.30589e-05
8.30765e-06
2.87134e-07
9.61035e-10
3.16855e-10
3.21695e-10
3.30481e-10
2.87527e-10
2.0722e-10
1.18542e-10
8.69967e-11
5.84788e-11
3.73055e-11
2.28159e-11
1.35057e-11
7.83039e-12
4.47128e-12
2.5219e-12
1.40709e-12
7.77496e-13
4.26029e-13
1.27907e-07
4.7019e-06
1.82837e-06
3.96274e-08
1.07377e-07
1.12866e-08
1.69206e-10
1.44743e-10
1.34643e-10
1.14631e-10
9.26392e-11
7.23961e-11
4.9602e-11
3.16848e-11
1.91372e-11
1.10372e-11
6.12237e-12
3.31665e-12
1.76398e-12
9.23829e-13
4.77368e-13
2.43846e-13
1.23426e-13
3.82248e-09
1.63294e-08
8.80989e-09
2.33974e-09
4.84737e-10
4.29098e-09
9.93776e-10
1.355e-10
9.5706e-11
7.39618e-11
5.40452e-11
3.72076e-11
2.3808e-11
1.42578e-11
8.05493e-12
4.32017e-12
2.20876e-12
1.09947e-12
5.3545e-13
2.55971e-13
1.20418e-13
5.59039e-14
2.57166e-14
3.26044e-10
1.17361e-09
6.23009e-10
2.34804e-10
6.66556e-11
3.79986e-10
3.48364e-10
1.05627e-10
5.39807e-11
3.74653e-11
2.51137e-11
1.59462e-11
9.46914e-12
5.26031e-12
2.74343e-12
1.34655e-12
6.22846e-13
2.79821e-13
1.22496e-13
5.24361e-14
2.20147e-14
9.10309e-15
3.75206e-15
5.38325e-11
1.32773e-10
8.16366e-11
4.63994e-11
3.73954e-11
3.17583e-11
4.16472e-11
3.54539e-11
2.36272e-11
1.5336e-11
9.58143e-12
5.6317e-12
3.08542e-12
1.57328e-12
7.46881e-13
3.29597e-13
1.35333e-13
5.38757e-14
2.08082e-14
7.82094e-15
2.87179e-15
1.04323e-15
4.10218e-16
2.61759e-11
3.70359e-11
3.38776e-11
2.87712e-11
3.27981e-11
2.49833e-11
1.87924e-11
1.29607e-11
8.37277e-12
5.16462e-12
3.00603e-12
1.62926e-12
8.16863e-13
3.77802e-13
1.60727e-13
6.25204e-14
2.23773e-14
7.74887e-15
2.59346e-15
8.4075e-16
2.66994e-16
9.24358e-17
6.83007e-17
2.27121e-11
2.86349e-11
2.84701e-11
1.84622e-11
1.24572e-11
8.74151e-12
6.10462e-12
4.0209e-12
2.482e-12
1.43814e-12
7.74703e-13
3.84336e-13
1.74551e-13
7.22253e-14
2.70471e-14
9.06282e-15
2.78338e-15
8.23273e-16
2.34714e-16
6.49323e-17
1.9291e-17
1.37294e-17
3.89934e-17
7.47571e-12
1.24581e-11
9.25871e-12
5.93319e-12
3.84037e-12
2.57369e-12
1.69386e-12
1.05541e-12
6.14021e-13
3.31032e-13
1.6375e-13
7.36866e-14
2.99516e-14
1.09107e-14
3.52117e-15
9.87888e-16
2.569e-16
6.38571e-17
1.52911e-17
3.79265e-18
2.19894e-18
6.64561e-18
2.81829e-17
1.94593e-12
3.32987e-12
2.43029e-12
1.56043e-12
9.86013e-13
6.3375e-13
3.95674e-13
2.32607e-13
1.26579e-13
6.30161e-14
2.83957e-14
1.14722e-14
4.11573e-15
1.29509e-15
3.51033e-16
7.99302e-17
1.73124e-17
3.56925e-18
7.27629e-19
2.78282e-19
7.78156e-19
3.69849e-18
1.72987e-17
4.05553e-13
7.30361e-13
5.32927e-13
3.40292e-13
2.11292e-13
1.30863e-13
7.77438e-14
4.30424e-14
2.17966e-14
9.95757e-15
4.05488e-15
1.45464e-15
4.53429e-16
1.20539e-16
2.65943e-17
4.84268e-18
8.45865e-19
1.42527e-19
3.13589e-20
5.72198e-20
3.05791e-19
1.6355e-18
8.3571e-18
6.85527e-14
1.32719e-13
9.75239e-14
6.21412e-14
3.80626e-14
2.2803e-14
1.29126e-14
6.72359e-15
3.1571e-15
1.31667e-15
4.80933e-16
1.51508e-16
4.03611e-17
8.84453e-18
1.53168e-18
2.20627e-19
3.02504e-20
4.21669e-21
2.45494e-21
1.36201e-20
8.67492e-20
5.19192e-19
2.94939e-18
9.48576e-15
2.00638e-14
1.49874e-14
9.59352e-15
5.81977e-15
3.3843e-15
1.82957e-15
8.95522e-16
3.8909e-16
1.47604e-16
4.80801e-17
1.31783e-17
2.95649e-18
5.21758e-19
6.84122e-20
7.64639e-21
8.06762e-22
1.06109e-22
2.48303e-22
1.99279e-21
1.49646e-20
1.03787e-19
6.76507e-19
1.07764e-15
2.53284e-15
1.95074e-15
1.26569e-15
7.64217e-16
4.32967e-16
2.23916e-16
1.03104e-16
4.14437e-17
1.42861e-17
4.1406e-18
9.83289e-19
1.84399e-19
2.58707e-20
2.5156e-21
2.10421e-22
1.64536e-23
2.12977e-24
1.16691e-23
1.24673e-22
1.19267e-21
1.03465e-20
8.30819e-20
9.93091e-17
2.67457e-16
2.1719e-16
1.44527e-16
8.73718e-17
4.84169e-17
2.40199e-17
1.0428e-17
3.88691e-18
1.22095e-18
3.16066e-19
6.53895e-20
1.03384e-20
1.16927e-21
8.63395e-23
5.14909e-24
2.75069e-25
1.778e-26
9.49045e-26
1.57655e-24
2.30455e-23
3.00522e-22
3.55695e-21
7.05864e-18
2.36998e-17
2.09718e-17
1.44928e-17
8.81985e-18
4.79823e-18
2.29128e-18
9.4165e-19
3.27249e-19
9.44192e-20
2.20985e-20
4.062e-21
5.5989e-22
5.42072e-23
3.37992e-24
1.42519e-25
4.26417e-27
8.48522e-29
3.00764e-30
7.91195e-29
3.14062e-27
1.12353e-25
3.69136e-24
0.99274
0.993836
0.994874
0.996092
0.94678
0.955943
0.959902
0.963092
0.266964
0.27752
0.291747
0.306607
0.00386432
0.00393559
0.00383594
0.00381484
0.00939991
0.00515936
0.00423094
0.00383594
0.0147147
0.0144299
0.0116202
0.00536318
0.00791898
0.00131441
0.000503509
0.00217639
4.93775e-07
4.90949e-07
4.89533e-07
4.98401e-07
4.92936e-07
4.93781e-07
4.99082e-07
5.15402e-07
4.95161e-07
5.0804e-07
5.4003e-07
7.15039e-07
5.15484e-07
5.61409e-07
6.36967e-07
1.02134e-06
6.8512e-07
6.5118e-07
9.89742e-07
1.09759e-05
5.9146e-05
5.90858e-07
1.95356e-07
4.53301e-06
6.69491e-05
3.71308e-05
1.20775e-07
3.8137e-08
6.33735e-05
4.04516e-05
3.83756e-08
2.20401e-08
1.19721e-08
2.00032e-06
3.18472e-06
3.43456e-08
9.08478e-09
9.0716e-09
1.1712e-08
3.21459e-07
1.15455e-07
4.1431e-08
3.74986e-09
1.33934e-09
9.59515e-08
9.41996e-08
2.42138e-08
7.50066e-11
4.21659e-11
4.21627e-11
5.88838e-10
4.32194e-10
5.78803e-11
4.41414e-11
3.87658e-11
3.75584e-11
7.9942e-11
6.49542e-11
4.93974e-11
3.66464e-11
1.92906e-11
1.70065e-11
1.46186e-11
1.22925e-11
7.94969e-12
6.75824e-12
5.66576e-12
4.67959e-12
3.68194e-12
2.97752e-12
2.39525e-12
1.91343e-12
1.82664e-12
1.41595e-12
1.09491e-12
8.43263e-13
8.29558e-13
6.18675e-13
4.60454e-13
3.41557e-13
3.05054e-13
2.18187e-13
1.55773e-13
1.10914e-13
8.40948e-14
5.72541e-14
3.89501e-14
2.64842e-14
1.64837e-14
1.05837e-14
6.83062e-15
4.46451e-15
2.25429e-15
1.38866e-15
9.07102e-16
6.65763e-16
2.63694e-16
2.0804e-16
2.11896e-16
2.63215e-16
7.87799e-17
1.07763e-16
1.57331e-16
2.3415e-16
5.89783e-17
9.00167e-17
1.37202e-16
2.08619e-16
4.3922e-17
6.80382e-17
1.04934e-16
1.61826e-16
2.72575e-17
4.2666e-17
6.67078e-17
1.05263e-16
1.33126e-17
2.11155e-17
3.38142e-17
5.60607e-17
4.7596e-18
7.72911e-18
1.31023e-17
2.4533e-17
1.11518e-18
1.93041e-18
3.84294e-18
9.49277e-18
1.4609e-19
3.16966e-19
9.36899e-19
3.56102e-18
8.6896e-21
3.63526e-20
1.83859e-19
1.12682e-18
5.48356e-23
7.66817e-22
1.05682e-20
1.98885e-19
0.997186
0.997817
0.998144
0.998112
0.998097
0.996689
0.840521
0.744499
0.846874
0.901638
0.934623
0.95595
0.978722
0.979843
0.974194
0.953943
0.967513
0.992296
0.993869
0.964948
0.963045
0.953482
0.935741
0.927699
0.938925
0.821661
0.634577
0.644169
0.666898
0.713997
0.748584
0.752962
0.783693
0.831038
0.874121
0.898073
0.89057
0.892146
0.316487
0.313369
0.294346
0.282344
0.286949
0.370547
0.54135
0.635055
0.640671
0.638188
0.620379
0.581335
0.542777
0.502788
0.46041
0.415036
0.389774
0.426191
0.491418
0.00377378
0.0037066
0.00367725
0.0036714
0.00367725
0.0035918
0.0213735
0.0662289
0.0792517
0.0592584
0.0179311
0.00113212
0.00148842
0.00574981
0.00612846
0.00290203
0.0014543
0.0054627
0.0166988
0.00381484
0.00545097
0.00499875
0.00448867
0.00415105
0.00351541
0.00201192
0.00151968
0.00126766
0.00114001
0.0011158
0.00116748
0.000315439
4.27206e-05
3.36683e-05
3.50365e-05
6.58155e-05
0.00010651
0.000223647
0.00909569
0.0100862
0.0100992
0.0100992
0.0100992
0.0100989
0.0100743
0.00993325
0.0084583
0.0057095
0.00312872
0.00175126
4.90715e-05
3.41081e-05
2.94664e-05
2.14557e-05
2.5436e-05
3.47627e-05
0.000159603
0.00457746
0.00661748
0.00682262
0.00691021
0.00651463
0.00549029
0.00308064
0.0014117
7.66441e-05
1.24128e-05
1.25935e-05
1.34155e-05
0.000526186
0.000381778
2.1638e-05
2.0339e-05
2.11818e-05
2.54365e-05
0.000226732
5.43889e-07
7.17613e-07
1.62057e-06
3.32876e-06
4.88792e-06
6.34645e-06
1.03315e-05
1.46099e-05
1.24667e-05
1.23812e-05
1.2319e-05
5.17814e-05
0.000252965
0.000113512
1.91541e-05
2.00407e-05
2.0339e-05
0.000171766
0.000236174
2.85138e-06
1.89279e-05
2.98239e-05
2.29594e-05
2.08237e-05
4.07542e-05
8.5403e-05
0.000107868
5.89581e-05
1.23201e-05
1.2319e-05
1.23201e-05
1.38814e-05
1.45874e-05
1.68299e-05
7.45581e-05
0.000196711
0.000201884
0.000140847
1.48873e-05
7.19142e-05
7.2029e-05
7.53411e-05
8.20211e-05
0.000133426
0.000138414
0.000138414
0.000137095
1.23823e-05
1.23201e-05
1.24162e-05
3.70016e-05
0.000123468
0.00015162
0.000153593
0.000153691
8.54624e-05
1.82737e-05
1.55082e-05
5.89433e-05
5.89486e-05
3.19423e-05
1.66618e-05
6.92347e-07
5.52379e-05
0.000136352
7.22654e-05
1.37644e-05
1.25328e-05
8.84255e-05
0.000154376
0.000154419
0.000154274
0.000145656
1.62428e-05
1.71861e-05
1.82737e-05
1.89493e-05
1.20498e-05
2.69016e-06
1.56968e-06
7.52154e-07
6.73312e-07
4.61218e-07
7.43072e-07
3.14911e-05
4.1618e-05
1.64909e-05
6.87278e-05
0.000154384
0.000154289
0.000129302
1.38175e-05
1.47019e-05
1.75168e-05
4.34302e-05
1.87166e-05
2.45636e-05
1.29831e-05
7.59674e-06
1.33532e-06
5.38452e-07
2.15852e-07
1.30825e-06
4.76781e-05
5.91928e-05
5.58861e-05
5.85936e-06
3.35797e-05
5.83105e-05
2.26399e-05
1.57482e-06
3.69801e-05
5.99921e-05
5.99921e-05
3.13515e-06
2.50083e-05
2.54148e-05
2.54148e-05
2.0937e-05
1.07317e-06
1.20463e-07
1.18415e-07
1.75995e-05
4.11314e-05
3.24419e-06
2.63894e-07
2.6185e-07
2.33469e-07
1.01291e-07
2.39426e-07
3.24998e-05
5.99676e-05
5.99921e-05
1.03686e-08
4.5024e-06
2.5352e-05
2.52748e-05
2.51345e-05
1.94804e-05
8.08463e-08
8.08462e-08
8.06145e-08
8.13636e-08
8.53515e-08
7.61448e-07
1.4087e-06
7.29879e-07
8.62157e-08
2.49617e-09
4.48652e-08
2.30089e-05
5.99676e-05
7.41771e-09
1.85368e-10
2.43761e-06
2.2108e-05
2.50223e-05
2.47862e-05
5.79526e-07
8.06081e-08
8.13652e-08
1.09692e-07
1.17159e-07
4.70691e-07
1.40771e-06
1.40903e-06
1.04902e-06
8.02522e-10
2.49456e-09
3.4812e-06
5.6387e-05
1.14938e-08
3.09726e-11
2.94128e-11
1.18064e-11
1.31207e-05
1.10268e-05
7.5554e-07
8.19356e-08
4.90892e-07
1.11311e-06
4.03742e-07
1.30075e-07
1.29192e-07
4.8217e-07
2.36376e-07
7.11957e-10
8.03768e-10
4.13827e-07
4.21332e-06
6.08107e-11
3.00257e-11
2.91278e-11
2.91264e-11
2.91264e-11
3.16148e-11
1.1764e-10
8.99649e-08
9.12594e-07
1.11534e-06
1.11534e-06
5.7709e-07
5.18656e-10
5.17897e-10
5.17654e-10
6.95773e-10
7.19516e-10
9.9823e-09
4.54752e-08
6.45326e-11
6.00761e-11
3.47933e-11
2.94117e-11
3.05463e-11
3.10141e-11
6.3169e-11
8.59567e-08
3.15529e-07
1.11534e-06
1.11531e-06
1.11528e-06
1.94125e-07
5.17801e-10
5.2381e-10
1.04834e-09
8.188e-10
3.83651e-07
2.02509e-05
8.53381e-11
5.15583e-11
3.87103e-11
3.15797e-11
2.7018e-11
2.76372e-11
1.00733e-09
3.7607e-09
3.61295e-11
4.80511e-07
1.11528e-06
1.06182e-06
2.32488e-07
5.8256e-10
4.59465e-09
3.26903e-09
2.87353e-10
7.68732e-07
3.40322e-05
3.37433e-11
3.02444e-11
2.70188e-11
2.48089e-11
2.30198e-11
2.24269e-11
1.99377e-11
2.01024e-11
2.08865e-11
2.45542e-11
2.87348e-07
1.79847e-07
1.06686e-07
9.85977e-08
8.92624e-08
6.15958e-09
8.76611e-11
6.7558e-07
3.40322e-05
2.27742e-11
1.71836e-11
1.54119e-11
1.50452e-11
1.53892e-11
1.68057e-11
1.95671e-11
2.34459e-11
2.68759e-11
2.63813e-11
2.63306e-11
2.62786e-11
2.74532e-08
1.23753e-07
1.23754e-07
9.23306e-09
6.49948e-11
9.27668e-07
3.40256e-05
8.66807e-12
6.85583e-12
6.45292e-12
6.95468e-12
8.17951e-12
1.03392e-11
1.37015e-11
1.83099e-11
2.29976e-11
2.64997e-11
2.66057e-11
2.62739e-11
2.61663e-11
7.78667e-08
4.39056e-08
3.88749e-09
4.9752e-11
8.47893e-07
3.36629e-05
3.15027e-12
2.32859e-12
2.123e-12
2.46025e-12
3.39649e-12
5.15413e-12
7.99136e-12
1.19212e-11
1.66733e-11
2.04434e-11
2.36147e-11
2.56505e-11
2.61662e-11
2.61664e-11
2.62233e-11
1.24023e-10
4.93549e-11
4.54162e-07
3.27564e-05
1.20182e-12
7.91382e-13
6.30114e-13
7.1516e-13
1.13289e-12
2.09777e-12
3.88773e-12
6.6412e-12
1.01747e-11
1.40946e-11
1.80774e-11
2.20416e-11
2.57377e-11
2.84328e-11
3.53053e-11
5.07285e-11
4.93544e-11
6.91858e-09
3.27208e-05
4.92475e-13
2.89876e-13
1.93286e-13
1.94062e-13
3.35749e-13
7.444e-13
1.62026e-12
3.14975e-12
5.40458e-12
8.40404e-12
1.22488e-11
1.70447e-11
2.30604e-11
3.10228e-11
4.65112e-11
7.23211e-11
5.45552e-11
5.04873e-11
3.25395e-05
1.86348e-13
1.01248e-13
6.03783e-14
5.56317e-14
1.03808e-13
2.64602e-13
6.53357e-13
1.42415e-12
2.73458e-12
4.78269e-12
7.87584e-12
1.24451e-11
1.93091e-11
2.95662e-11
4.98927e-11
8.04309e-11
7.31361e-11
5.04873e-11
2.4557e-05
5.66861e-14
2.95255e-14
1.85292e-14
2.11418e-14
4.58607e-14
1.21911e-13
3.13172e-13
7.27223e-13
1.51857e-12
2.91951e-12
5.28388e-12
9.18283e-12
1.56001e-11
2.59412e-11
4.79459e-11
8.35191e-11
7.92075e-11
5.09921e-11
8.30575e-07
1.29091e-14
7.46083e-15
7.68544e-15
1.50152e-14
3.66123e-14
9.1149e-14
2.19506e-13
4.989e-13
1.06026e-12
2.12138e-12
4.03465e-12
7.37401e-12
1.31005e-11
2.28381e-11
4.57285e-11
8.77686e-11
7.93759e-11
5.85641e-11
1.64997e-10
2.5039e-15
2.96597e-15
6.79108e-15
1.75067e-14
4.30605e-14
9.9952e-14
2.21292e-13
4.70017e-13
9.58967e-13
1.88467e-12
3.58017e-12
6.61144e-12
1.19489e-11
2.12918e-11
4.5881e-11
9.56855e-11
7.9504e-11
7.26506e-11
4.81258e-06
1.0019e-15
2.99779e-15
9.19211e-15
2.50903e-14
6.09519e-14
1.34957e-13
2.79463e-13
5.52464e-13
1.05687e-12
1.97322e-12
3.61612e-12
6.54999e-12
1.17776e-11
2.11406e-11
4.85322e-11
1.05083e-10
7.96607e-11
8.23931e-08
1.82976e-05
1.04402e-15
4.20032e-15
1.42386e-14
4.02049e-14
9.72846e-14
2.08717e-13
4.09973e-13
7.58263e-13
1.35076e-12
2.35691e-12
4.08098e-12
7.10764e-12
1.2493e-11
2.23312e-11
5.54184e-11
1.14403e-10
7.99878e-11
1.82317e-06
1.82976e-05
1.29846e-15
6.25068e-15
2.3149e-14
6.80293e-14
1.66443e-13
3.52883e-13
6.70356e-13
1.17598e-12
1.95913e-12
3.17783e-12
5.13719e-12
8.47406e-12
1.42966e-11
2.50726e-11
7.11242e-11
1.27647e-10
8.04541e-11
2.63443e-06
1.82959e-05
1.60106e-15
9.12468e-15
3.67459e-14
1.13611e-13
2.87108e-13
6.17403e-13
1.16442e-12
1.98162e-12
3.13586e-12
4.76193e-12
7.1792e-12
1.11091e-11
1.7657e-11
2.97384e-11
8.53044e-11
1.59662e-10
8.11396e-11
1.74692e-07
1.79215e-05
1.86648e-15
1.22518e-14
5.35584e-14
1.77496e-13
4.76469e-13
1.07044e-12
2.06062e-12
3.48592e-12
5.34506e-12
7.71039e-12
1.09387e-11
1.5889e-11
2.35639e-11
3.74985e-11
9.93454e-11
2.31148e-10
8.43158e-11
8.89483e-11
1.68064e-06
1.96699e-15
1.43779e-14
6.88793e-14
2.52081e-13
7.44621e-13
1.80298e-12
3.63583e-12
6.2524e-12
9.47183e-12
1.31955e-11
1.78754e-11
2.47124e-11
3.45745e-11
5.23653e-11
1.3426e-10
2.19325e-10
4.79685e-10
2.47893e-07
5.37883e-10
1.77535e-15
1.41892e-14
7.65197e-14
3.21992e-13
1.0886e-12
2.91943e-12
6.29531e-12
1.12103e-11
1.70891e-11
2.33919e-11
3.07778e-11
4.15267e-11
5.69696e-11
8.54056e-11
1.76139e-10
6.77667e-10
8.33767e-10
1.03015e-09
5.17885e-10
1.29007e-15
1.14495e-14
7.25468e-14
3.66301e-13
1.4693e-12
4.43239e-12
1.03389e-11
1.93062e-11
3.00806e-11
4.11339e-11
5.34331e-11
7.21175e-11
1.02377e-10
1.62297e-10
3.51624e-10
9.75725e-10
1.08739e-09
7.19387e-10
9.79111e-10
7.09269e-16
7.421e-15
5.82239e-14
3.64578e-13
1.78304e-12
6.05142e-12
1.53546e-11
3.03507e-11
4.90488e-11
6.81313e-11
8.86478e-11
1.20176e-10
1.79856e-10
3.16684e-10
7.3034e-10
1.05716e-09
9.10215e-10
5.23832e-10
1.61635e-09
2.79588e-16
3.84787e-15
3.95242e-14
3.09869e-13
1.87286e-12
7.06473e-12
1.96823e-11
4.16635e-11
7.13303e-11
1.02986e-10
1.3643e-10
1.84251e-10
2.66139e-10
4.72814e-10
7.86283e-10
7.4591e-10
4.9179e-10
4.94204e-10
8.12491e-10
7.32858e-17
1.52031e-15
2.0892e-14
2.03144e-13
1.55145e-12
6.43478e-12
2.01776e-11
4.63458e-11
8.68651e-11
1.35708e-10
1.85608e-10
2.55196e-10
3.1856e-10
4.11313e-10
1.7587e-09
7.47823e-10
9.80783e-08
5.8494e-08
8.23835e-10
1.03298e-17
3.57917e-16
6.4823e-15
7.50123e-14
7.78893e-13
3.54733e-12
1.2947e-11
3.22201e-11
6.75638e-11
1.2155e-10
1.76869e-10
2.48294e-10
3.18348e-10
3.31837e-10
3.06616e-11
9.85029e-08
3.74858e-07
3.74858e-07
1.22639e-07
)
;

boundaryField
{
    leftWall
    {
        type            zeroGradient;
    }
    rightWall
    {
        type            zeroGradient;
    }
    lowerWall
    {
        type            zeroGradient;
    }
    atmosphere
    {
        type            inletOutlet;
        inletValue      uniform 0;
        value           nonuniform List<scalar> 
46
(
7.05864e-18
2.36998e-17
2.09718e-17
1.44928e-17
8.81985e-18
4.79823e-18
2.29128e-18
9.4165e-19
3.27249e-19
9.44192e-20
2.20985e-20
4.062e-21
5.5989e-22
5.42072e-23
3.37992e-24
1.42519e-25
0
0
0
0
0
0
0
0
0
0
0
0
0
0
0
0
0
0
0
0
0
0
0
0
0
3.06616e-11
9.85029e-08
3.74858e-07
3.74858e-07
1.22639e-07
)
;
    }
    defaultFaces
    {
        type            empty;
    }
}


// ************************************************************************* //
