/*--------------------------------*- C++ -*----------------------------------*\
| =========                 |                                                 |
| \\      /  F ield         | OpenFOAM: The Open Source CFD Toolbox           |
|  \\    /   O peration     | Version:  2.3.0                                 |
|   \\  /    A nd           | Web:      www.OpenFOAM.org                      |
|    \\/     M anipulation  |                                                 |
\*---------------------------------------------------------------------------*/
FoamFile
{
    version     2.0;
    format      ascii;
    class       volScalarField;
    location    "2.6";
    object      k;
}
// * * * * * * * * * * * * * * * * * * * * * * * * * * * * * * * * * * * * * //

dimensions      [0 2 -2 0 0 0 0];

internalField   nonuniform List<scalar> 
2268
(
0.00114877
0.00287116
0.0043284
0.00556691
0.0066836
0.00772468
0.0087152
0.00966669
0.0105781
0.0114351
0.0122123
0.0128811
0.0134179
0.0138088
0.014053
0.0141848
0.014098
0.0137164
0.0132154
0.0124525
0.0108563
0.00771689
0.0026299
0.00245187
0.00670118
0.00977285
0.0124291
0.0148405
0.0170941
0.0192365
0.0212873
0.0232403
0.0250634
0.0267042
0.0281054
0.0292205
0.0300231
0.0304946
0.0306074
0.0303192
0.0295869
0.028446
0.0265876
0.0232518
0.0172351
0.00641858
0.0034728
0.00904412
0.0129241
0.0163022
0.0193936
0.0222947
0.025055
0.027692
0.0301916
0.032509
0.0345777
0.0363262
0.0376967
0.0386539
0.0391773
0.0392418
0.0388459
0.0379643
0.0365323
0.0341523
0.0299895
0.0226959
0.00883979
0.00436455
0.0109886
0.0154806
0.0193913
0.0229867
0.0263692
0.0295878
0.0326557
0.0355504
0.0382162
0.0405763
0.042552
0.0440816
0.0451293
0.0456787
0.0457157
0.0452605
0.0442984
0.0427041
0.0400126
0.0353136
0.0271142
0.0109199
0.00518025
0.0127929
0.0178479
0.0222302
0.0262651
0.030064
0.0336751
0.0371065
0.0403271
0.0432705
0.0458516
0.0479891
0.0496232
0.0507239
0.0512839
0.0513019
0.0508098
0.0497943
0.0480901
0.0451786
0.0400573
0.0310501
0.0130494
0.00596441
0.0145668
0.0201863
0.0250258
0.0294776
0.0336648
0.0376358
0.0413938
0.0448983
0.0480718
0.0508224
0.0530699
0.0547621
0.0558801
0.0564296
0.0564242
0.0559032
0.0548475
0.0530636
0.0500017
0.0445803
0.0349498
0.0162733
0.0067545
0.0163845
0.022592
0.0278964
0.0327625
0.0373276
0.0416409
0.0457013
0.0494579
0.052821
0.0556936
0.0580006
0.0597033
0.0607987
0.0613096
0.0612668
0.0607168
0.0596324
0.0578061
0.0546993
0.0492476
0.0395889
0.0223593
0.00758748
0.0183097
0.0251386
0.0309266
0.036216
0.0411579
0.0458026
0.050146
0.054126
0.0576386
0.0605833
0.0628965
0.0645584
0.0655874
0.0660265
0.0659254
0.065347
0.0642497
0.0624338
0.0594321
0.0543745
0.0457952
0.0323717
0.00258433
0.00728205
0.0101699
0.0116849
0.0124837
0.0125878
0.0119734
0.0107669
0.00910178
0.0076291
0.00717026
0.00688142
0.00576984
0.00528664
0.00567532
0.00593168
0.00574156
0.00436822
0.00231508
0.00569931
0.0160233
0.0212685
0.024199
0.0256197
0.0256518
0.0244878
0.0225265
0.0193396
0.0170056
0.0164754
0.0157207
0.0137109
0.012466
0.0126658
0.0128815
0.0117247
0.00881389
0.00417492
0.00774844
0.0208451
0.0271944
0.0306617
0.0322486
0.0321827
0.0308042
0.0286594
0.0255749
0.0231279
0.0221982
0.0211213
0.0190832
0.0175764
0.0173191
0.0170655
0.0154296
0.011736
0.00558091
0.00979834
0.0250655
0.0320256
0.0356193
0.0371519
0.0369474
0.0354425
0.0332657
0.0303812
0.0280549
0.02691
0.0256609
0.0236934
0.0219632
0.021151
0.020536
0.0186473
0.0145163
0.0069349
0.0121444
0.0295402
0.0366495
0.0400625
0.0413988
0.041041
0.0394596
0.0373248
0.0346735
0.03254
0.0312797
0.0299543
0.028056
0.026114
0.0247753
0.0237708
0.0216897
0.0173006
0.00832519
0.0152319
0.0346207
0.0413155
0.0442828
0.0453316
0.0448347
0.0432282
0.0411884
0.0388107
0.036895
0.035572
0.034197
0.0323292
0.0301875
0.0283657
0.0269139
0.0246122
0.020051
0.00983842
0.0204607
0.0404621
0.0460343
0.0483538
0.0490774
0.0484854
0.0469231
0.0450337
0.0429706
0.0412691
0.0398969
0.0384482
0.036553
0.0342127
0.0319588
0.0300382
0.0274473
0.0226557
0.0115051
0.0315219
0.0468555
0.0506845
0.0522648
0.0526785
0.0520601
0.0506382
0.0489684
0.0472445
0.0457213
0.0442804
0.042712
0.0407175
0.0381718
0.0355372
0.0331534
0.0302371
0.0251702
0.0130979
0.009047
0.0215843
0.0294401
0.0360229
0.0419998
0.0475366
0.0526858
0.0574429
0.0617268
0.0654058
0.068379
0.0706121
0.0721261
0.0729794
0.0732505
0.0730153
0.0723333
0.0711642
0.069352
0.0665789
0.0623321
0.0558362
0.0463749
0.0113292
0.0268945
0.0363755
0.0442123
0.0512546
0.0576355
0.0634204
0.0686416
0.0731884
0.0768619
0.0795904
0.0814396
0.0825188
0.0829534
0.0828825
0.0824316
0.0816488
0.0805285
0.0790369
0.0770435
0.0743818
0.0711391
0.0679268
0.0147341
0.0340327
0.0452896
0.054646
0.0630008
0.0702539
0.0765528
0.0820905
0.0867034
0.0900219
0.0921015
0.0932274
0.0936065
0.0933976
0.0927982
0.0920179
0.0910848
0.0900324
0.0889629
0.0876811
0.0857331
0.0832368
0.0806443
0.0210836
0.0442345
0.056855
0.0682429
0.0783832
0.086381
0.092826
0.0984973
0.103
0.105377
0.106203
0.106231
0.105677
0.104566
0.103154
0.101895
0.100669
0.0995899
0.0992441
0.099042
0.0971325
0.0943804
0.091358
0.0296966
0.0578197
0.0699478
0.0815179
0.0920599
0.0992038
0.105147
0.110747
0.114955
0.117302
0.118235
0.11856
0.117926
0.115885
0.113456
0.111846
0.110084
0.108683
0.109525
0.108869
0.10584
0.104743
0.100771
0.0363624
0.0704202
0.0798921
0.0873415
0.0949564
0.101275
0.107118
0.111708
0.115107
0.117779
0.119895
0.121624
0.122402
0.121776
0.120968
0.120556
0.118159
0.115393
0.114735
0.11239
0.110053
0.107576
0.102913
0.0407726
0.0804687
0.0878516
0.0918219
0.0968565
0.101923
0.106221
0.109724
0.1127
0.11521
0.117406
0.119271
0.120663
0.121492
0.12279
0.124034
0.122719
0.120881
0.119146
0.115946
0.113673
0.109264
0.104015
0.0422554
0.0823243
0.0932368
0.0959187
0.0983571
0.10129
0.104612
0.107933
0.11038
0.113104
0.115569
0.117328
0.118602
0.119575
0.120803
0.122187
0.122524
0.122937
0.123526
0.121356
0.118128
0.111594
0.105234
0.0407866
0.0782291
0.0925768
0.0969814
0.0980688
0.0995654
0.102622
0.105479
0.107803
0.110885
0.113809
0.115893
0.117307
0.117784
0.118064
0.118964
0.120005
0.121823
0.124284
0.125549
0.121458
0.112984
0.105259
0.038165
0.0722003
0.0868962
0.093068
0.0949026
0.0963404
0.0988993
0.101651
0.104383
0.107448
0.110423
0.112817
0.114463
0.114802
0.114496
0.115065
0.11661
0.118898
0.120443
0.11974
0.115122
0.108254
0.101477
0.0349437
0.0653733
0.0792487
0.0862666
0.0896425
0.0920069
0.0946832
0.0976484
0.100647
0.103554
0.10627
0.108526
0.109936
0.110306
0.110178
0.110694
0.112125
0.113932
0.113861
0.111126
0.106978
0.102188
0.097406
0.0315716
0.0584516
0.0714823
0.0788981
0.0834325
0.0869283
0.0902665
0.0936463
0.096869
0.0996988
0.102189
0.104181
0.105275
0.105469
0.105489
0.105952
0.106946
0.107808
0.107094
0.104487
0.101123
0.0975572
0.0940227
0.0283692
0.0521248
0.0645352
0.0721108
0.0772353
0.0812674
0.0850734
0.0887623
0.0922044
0.095209
0.097789
0.0996672
0.10057
0.100642
0.100725
0.10126
0.102071
0.102518
0.101608
0.0993793
0.0966642
0.0938875
0.0911373
0.025347
0.046558
0.0585023
0.066102
0.0714572
0.0756254
0.0793956
0.0830107
0.0864202
0.0895433
0.0922406
0.0942194
0.0952381
0.0955487
0.0958987
0.0966745
0.0975176
0.0977521
0.0968543
0.0950503
0.0928887
0.0906935
0.0885087
0.0225655
0.0417607
0.0532577
0.0607737
0.0661907
0.0703865
0.0740066
0.077381
0.0805767
0.0835429
0.0861435
0.0881674
0.0894834
0.0902556
0.0909835
0.0919223
0.0927655
0.0929747
0.0923132
0.0909766
0.0893379
0.0876415
0.0859304
0.0201018
0.037718
0.0487311
0.0560901
0.0614894
0.0656921
0.0692151
0.0723836
0.0753307
0.0780564
0.080477
0.0824728
0.0839898
0.0851299
0.0861335
0.0871228
0.0879175
0.0882065
0.0878471
0.0869697
0.0858207
0.0845739
0.0832775
0.0180198
0.0344006
0.0448911
0.0520405
0.0573723
0.061564
0.0650365
0.0680724
0.0708237
0.0733341
0.0755777
0.0775034
0.0790937
0.0804165
0.0815534
0.082547
0.0833019
0.0836625
0.0835591
0.0830678
0.0823354
0.0814762
0.0805287
0.0163436
0.0317417
0.0416869
0.0485838
0.0538046
0.0579563
0.061391
0.0643452
0.0669642
0.0693158
0.0714148
0.073253
0.0748325
0.07619
0.077355
0.0783249
0.0790534
0.0794726
0.0795566
0.0793504
0.0789373
0.0783868
0.0777254
0.0150422
0.0296307
0.0390257
0.0456358
0.0507056
0.0547825
0.0581692
0.0610631
0.063593
0.0658341
0.0678224
0.0695734
0.0710991
0.072419
0.0735571
0.074491
0.0752022
0.0756665
0.0758802
0.075872
0.0756887
0.0753703
0.0749316
0.0140379
0.0279288
0.0367851
0.0430848
0.0479715
0.0519427
0.0552638
0.0581004
0.0605634
0.0627248
0.0646291
0.0663033
0.0677654
0.0690315
0.0701193
0.0710184
0.0717199
0.0722198
0.0725238
0.0726517
0.0726305
0.0724824
0.0722144
0.013232
0.0264937
0.0348362
0.0408161
0.0455006
0.0493461
0.0525872
0.0553635
0.0577687
0.0598683
0.0617081
0.0633199
0.0647257
0.0659422
0.0669837
0.0678601
0.0685613
0.069093
0.0694644
0.0696899
0.0697859
0.0697647
0.0696288
0.0125331
0.0252054
0.0330689
0.0387339
0.0432123
0.0469261
0.0500808
0.0527943
0.0551458
0.0571942
0.058984
0.0605489
0.0619134
0.063096
0.0641121
0.064977
0.0656881
0.0662531
0.0666812
0.0669832
0.0671696
0.0672475
0.0672171
0.011876
0.0239831
0.0314073
0.0367759
0.0410593
0.044647
0.0477167
0.0503672
0.0526676
0.0546722
0.0564241
0.0579574
0.059298
0.0604655
0.061476
0.0623452
0.0630786
0.0636822
0.064164
0.0645324
0.0647945
0.0649547
0.0650124
0.0112254
0.0227837
0.0298133
0.0349184
0.0390291
0.0425035
0.045492
0.0480804
0.0503325
0.0523002
0.0540258
0.0555427
0.0568769
0.0580478
0.0590712
0.0599608
0.0607289
0.0613775
0.0619139
0.0623445
0.0626747
0.0629072
0.0630414
0.0105726
0.0215917
0.0282794
0.0331692
0.0371354
0.0405088
0.043419
0.0459465
0.0481544
0.0500938
0.0518057
0.0533219
0.0546666
0.0558582
0.0569111
0.0578374
0.0586488
0.0593483
0.0599414
0.0604329
0.0608266
0.0611248
0.0613271
0.00993424
0.0204453
0.0268261
0.0315424
0.035394
0.0386763
0.0415114
0.043983
0.0461558
0.0480796
0.0497928
0.0513242
0.0526955
0.0539229
0.0550187
0.0559932
0.0568561
0.0576114
0.0582629
0.0588142
0.0592682
0.059627
0.0598904
0.00933337
0.0193797
0.0254746
0.0300432
0.033804
0.0370073
0.0397793
0.0422104
0.0443652
0.0462912
0.0480229
0.0495856
0.0509978
0.0522732
0.0534221
0.0544527
0.0553729
0.0561869
0.0568974
0.0575069
0.0580179
0.0584322
0.0587505
0.00876968
0.0183663
0.0242346
0.0286821
0.0323651
0.0355084
0.0382424
0.0406586
0.0428193
0.044768
0.0465355
0.0481436
0.0496082
0.0509405
0.052149
0.0532405
0.0542209
0.0550946
0.0558633
0.0565287
0.0570929
0.0575579
0.0579248
0.00825421
0.0174469
0.0231421
0.0274902
0.0311085
0.0342175
0.0369438
0.0393729
0.0415626
0.0435522
0.0453692
0.047033
0.0485572
0.0499514
0.0512229
0.0523772
0.0534189
0.0543519
0.055177
0.0558955
0.0565093
0.0570201
0.0574297
0.00782103
0.016717
0.022266
0.0265314
0.0301051
0.0332038
0.0359456
0.0384073
0.0406408
0.0426819
0.0445557
0.0462797
0.0478664
0.0493244
0.0506599
0.0518774
0.0529806
0.0539722
0.0548523
0.0556217
0.0562816
0.056834
0.0572812
0.00750958
0.0162315
0.0216782
0.0258859
0.0294351
0.0325384
0.035306
0.0378069
0.0400881
0.0421824
0.0441132
0.0458972
0.047546
0.0490677
0.0504676
0.0517493
0.0529152
0.0539662
0.0549014
0.0557207
0.0564248
0.0570157
0.0574962
0.00735004
0.0160339
0.0214322
0.0256108
0.0291512
0.0322648
0.0350576
0.0375938
0.0399174
0.0420595
0.0440427
0.0458833
0.0475929
0.0491789
0.0506458
0.0519956
0.0532288
0.0543435
0.055337
0.0562078
0.0569561
0.0575838
0.0580944
0.00735591
0.0161451
0.0215494
0.0257247
0.0292662
0.0323892
0.0351996
0.0377611
0.0401166
0.0422973
0.0443263
0.0462205
0.0479916
0.0496466
0.0511883
0.0526162
0.0539274
0.0551157
0.0561754
0.0571031
0.0578979
0.0585623
0.0591009
0.00752262
0.0165573
0.0220162
0.0262084
0.0297554
0.0328824
0.0356996
0.0382734
0.0406487
0.0428587
0.0449284
0.0468764
0.0487152
0.0504511
0.0520846
0.0536108
0.0550206
0.0563009
0.0574413
0.0584353
0.0592815
0.0599836
0.0605484
0.00783024
0.0172351
0.0227884
0.027011
0.0305636
0.0336865
0.0364987
0.039072
0.0414562
0.0436885
0.0457976
0.0478055
0.0497265
0.0515668
0.0533232
0.0549833
0.0565265
0.0579292
0.0591726
0.0602467
0.0611505
0.0618909
0.0624794
0.00824694
0.0181202
0.023797
0.0280576
0.0316123
0.0347221
0.0375178
0.0400798
0.0424646
0.0447159
0.0468686
0.0489501
0.0509792
0.0529627
0.0548927
0.0567449
0.0584785
0.06005
0.0614279
0.0625985
0.0635651
0.0643418
0.0649482
0.00873198
0.019136
0.0249537
0.0292547
0.0328066
0.0358947
0.0386645
0.0412069
0.0435874
0.0458584
0.048064
0.050241
0.0524163
0.0546014
0.0567839
0.0589205
0.0609349
0.062744
0.0642959
0.0655779
0.0666059
0.0674096
0.068022
0.00923832
0.0201917
0.0261566
0.0304971
0.0340412
0.0371011
0.0398387
0.0423566
0.044731
0.0470255
0.0492967
0.0515964
0.0539674
0.0564345
0.0589863
0.0615541
0.0639961
0.0661406
0.0679083
0.0693042
0.0703765
0.0711841
0.0717807
0.0097155
0.0211889
0.0272976
0.0316751
0.0352084
0.0382371
0.0409397
0.0434315
0.0458002
0.0481223
0.050471
0.05292
0.0555403
0.0583885
0.0614755
0.0647115
0.067836
0.070449
0.0724557
0.0739334
0.0750022
0.0757693
0.0763154
0.0101129
0.0220276
0.0282703
0.0326826
0.0362052
0.0392038
0.0418729
0.0443398
0.0467037
0.0490548
0.0514853
0.0540977
0.0570075
0.0603356
0.0641711
0.0684631
0.0727787
0.0760109
0.078202
0.0796535
0.0806218
0.0812771
0.0817247
0.0103864
0.0226202
0.0289808
0.0334249
0.0369392
0.039913
0.0425543
0.0450007
0.0473606
0.0497361
0.0522378
0.0549994
0.0581927
0.0620435
0.066829
0.0727779
0.0795233
0.0833842
0.0854754
0.086657
0.0873672
0.0878172
0.0881123
0.0105001
0.022922
0.0293598
0.0338239
0.037333
0.0402917
0.0429165
0.0453505
0.0477076
0.050097
0.0526409
0.0554949
0.0588778
0.063125
0.0688021
0.0769742
0.0899283
0.093389
0.0945636
0.0950689
0.0953327
0.0954888
0.0955877
0.0373594
0.0364511
0.0378093
0.0421287
0.0662729
0.0657356
0.065625
0.0658205
0.0788876
0.0778638
0.0769473
0.0761188
0.0884074
0.0865425
0.0848097
0.0832913
0.0961431
0.0932954
0.0906251
0.0884124
0.0988231
0.0962456
0.0937359
0.091449
0.100633
0.0985967
0.0959851
0.0933472
0.101511
0.0988227
0.0960407
0.0938054
0.100054
0.0971653
0.0948114
0.0928368
0.0971376
0.0947337
0.0926554
0.0908237
0.0941254
0.0921782
0.0903829
0.0887269
0.0914478
0.0898504
0.0883161
0.086855
0.0890744
0.0877645
0.0864712
0.0852079
0.0868501
0.0857843
0.0847114
0.0836397
0.0846153
0.0837595
0.0828822
0.0819882
0.0822601
0.081584
0.0808781
0.0801473
0.0797559
0.0792322
0.0786771
0.078093
0.0771527
0.0767545
0.0763252
0.0758661
0.0745189
0.0742219
0.0738948
0.0735384
0.0719281
0.0717128
0.0714684
0.0711958
0.0694432
0.0692943
0.0691176
0.0689139
0.0671137
0.0670197
0.0668994
0.0667532
0.064978
0.0649306
0.0648581
0.0647608
0.0630665
0.0630594
0.0630282
0.0629729
0.0614044
0.0614326
0.0614374
0.0614186
0.0600137
0.0600729
0.060109
0.0601217
0.0589141
0.0590001
0.0590631
0.0591029
0.0581233
0.0582323
0.0583183
0.0583807
0.0576581
0.0577865
0.0578915
0.0579727
0.0575348
0.0576793
0.0577998
0.0578961
0.0577711
0.0579287
0.0580618
0.0581699
0.0583874
0.0585558
0.0586987
0.0588159
0.0594094
0.0595864
0.0597368
0.0598607
0.0608698
0.0610533
0.0612092
0.0613376
0.0628105
0.0629983
0.0631571
0.0632877
0.065284
0.0654727
0.0656314
0.0657613
0.0683543
0.0685389
0.068693
0.0688183
0.0720966
0.0722698
0.072413
0.0725287
0.0765966
0.0767485
0.0768729
0.0769726
0.0819487
0.0820679
0.0821646
0.0822416
0.0882562
0.0883318
0.0883926
0.0884408
0.0956349
0.0956594
0.095679
0.0956944
0.0528729
0.0561382
0.0573552
0.0578739
0.0579014
0.0574009
0.0565107
0.0553631
0.0541674
0.0528164
0.0512013
0.0493604
0.0470972
0.0442193
0.0410615
0.0379865
0.0344988
0.0288031
0.0149285
0.0661906
0.0658056
0.0652491
0.0648545
0.064638
0.0645156
0.0645758
0.0645084
0.063833
0.0623984
0.0603851
0.0579912
0.0551086
0.0516608
0.0478833
0.0440523
0.0398422
0.0333327
0.0172409
0.0749112
0.0734205
0.072165
0.0713613
0.0711024
0.0713757
0.0722426
0.0731495
0.0729534
0.0714753
0.0690964
0.0661841
0.062651
0.0585635
0.0541471
0.0496088
0.0446974
0.037034
0.0181236
0.0813
0.0795529
0.0782578
0.0774468
0.0772804
0.0778015
0.0790385
0.0803775
0.0805754
0.0792993
0.0769132
0.0738908
0.0698508
0.0649466
0.0597816
0.0545344
0.0492396
0.0406092
0.0193175
0.085637
0.0836183
0.0828804
0.0826112
0.0825228
0.0824862
0.083156
0.0844922
0.0852014
0.0844795
0.0824131
0.0784315
0.0736905
0.0691824
0.0641658
0.0583229
0.0512317
0.040877
0.0187942
0.0885329
0.0861544
0.085255
0.0851863
0.0852866
0.0850948
0.0847814
0.0846226
0.0840468
0.0827094
0.0803662
0.0769166
0.0731302
0.0694577
0.0651689
0.0586104
0.049829
0.0380991
0.0166061
0.0901802
0.0874836
0.0862015
0.0858951
0.0859379
0.0858185
0.0851973
0.0839569
0.0823247
0.0805765
0.0782646
0.0748469
0.0709154
0.0669415
0.0623385
0.0556704
0.0468229
0.035449
0.0150386
0.0907899
0.0877694
0.0859891
0.0852701
0.0850365
0.0847213
0.0838559
0.0820701
0.0797049
0.0772825
0.0744267
0.0707331
0.0665909
0.0624771
0.0578311
0.0516244
0.0437227
0.0332294
0.0146119
0.0900637
0.0869931
0.084777
0.0833837
0.0824359
0.0814919
0.0801025
0.0779517
0.0752333
0.0723792
0.0691677
0.0654004
0.0613626
0.0574988
0.0533775
0.0479377
0.0407992
0.0308314
0.0135003
0.0882205
0.0852385
0.082852
0.0809896
0.0794209
0.0778564
0.0759746
0.0735362
0.0706132
0.0674566
0.0640039
0.0602078
0.0563461
0.0527089
0.0488265
0.0436998
0.0368101
0.0272555
0.0117365
0.0863124
0.0834673
0.0810572
0.0789672
0.0770322
0.0750605
0.0728388
0.0702027
0.0671505
0.063789
0.0601126
0.0561634
0.0521618
0.0482214
0.0439168
0.0385893
0.0318949
0.0230047
0.00984574
0.0846634
0.0819956
0.0796531
0.0775087
0.0754296
0.0732797
0.0709195
0.0682176
0.0651165
0.0616515
0.0577893
0.053567
0.0491678
0.044656
0.0397414
0.0341054
0.0276292
0.0196477
0.00830678
0.0832578
0.080802
0.0785847
0.0764931
0.0744149
0.072238
0.0698539
0.0671551
0.0640721
0.0605859
0.0566404
0.0522588
0.0476118
0.042773
0.0375796
0.0318467
0.0255068
0.0181888
0.00830562
0.0819377
0.0797209
0.0776665
0.0756835
0.0736752
0.0715428
0.069185
0.0665144
0.0634862
0.0600573
0.0561701
0.0518445
0.0472406
0.0424626
0.0374157
0.0318967
0.0257575
0.0187191
0.00922092
0.0805291
0.078569
0.0767055
0.0748623
0.0729541
0.0708925
0.0685834
0.0659595
0.0630069
0.0596878
0.0559525
0.0518248
0.0474433
0.0429199
0.0382064
0.0331121
0.0273843
0.0204822
0.0102682
0.0789215
0.0772205
0.0755625
0.0738801
0.0720937
0.0701217
0.0678786
0.0653211
0.0624542
0.059258
0.0557007
0.0518109
0.0476954
0.0434504
0.0390628
0.0343862
0.0291215
0.0225135
0.0111778
0.0770852
0.0756337
0.0741786
0.0726661
0.0710191
0.0691575
0.067005
0.0645392
0.0617728
0.0587021
0.0553185
0.0516523
0.0477821
0.0437809
0.0396489
0.035276
0.0303646
0.0240097
0.0118221
0.075053
0.0738359
0.0725725
0.0712244
0.0697229
0.0679891
0.0659562
0.0636113
0.0609684
0.0580358
0.0548226
0.0513607
0.0477083
0.0439166
0.039984
0.035809
0.0310814
0.0247847
0.0121982
0.0728958
0.0718939
0.0708082
0.0696143
0.0682537
0.0666566
0.0647659
0.0625679
0.0600741
0.0572997
0.0542642
0.0510002
0.047552
0.0439539
0.0401935
0.036161
0.0315216
0.0251955
0.0124419
0.070694
0.0698799
0.0689614
0.067914
0.0666883
0.0652313
0.0634932
0.0614587
0.0591349
0.0565383
0.0536924
0.0506289
0.0473824
0.0439736
0.0403783
0.0364745
0.0319119
0.0256076
0.0126947
0.0685288
0.067874
0.0671022
0.066191
0.0651011
0.0637854
0.0622013
0.0603376
0.0581954
0.0557891
0.0531418
0.0502821
0.0472365
0.0440145
0.040581
0.0368044
0.0323307
0.0261038
0.0130021
0.0664659
0.0659459
0.065302
0.064514
0.0635497
0.0623706
0.0609431
0.0592509
0.0572928
0.0550802
0.0526325
0.0499751
0.0471256
0.0440831
0.040804
0.0371481
0.0327597
0.0265895
0.0133748
0.0645564
0.0641512
0.0636186
0.0629409
0.0620916
0.0610396
0.0597573
0.0582281
0.0564482
0.0544252
0.052174
0.0497123
0.047051
0.0441806
0.0410466
0.0375018
0.0331851
0.0270365
0.0137137
0.0628398
0.0625328
0.0620969
0.0615168
0.0607708
0.0598342
0.0586837
0.0573039
0.0556891
0.0538428
0.0517747
0.0494955
0.047008
0.0442939
0.0412899
0.0378413
0.0335797
0.0274286
0.0139964
0.0613471
0.0611242
0.0607716
0.0602765
0.0596215
0.0587865
0.0577524
0.0565051
0.0550374
0.0533493
0.051445
0.0493284
0.0469945
0.0444167
0.0415238
0.0381536
0.0339293
0.0277554
0.0142309
0.0601033
0.0599519
0.0596702
0.0592477
0.0586706
0.0579227
0.0569883
0.0558544
0.054513
0.0529608
0.0511971
0.0492193
0.0470153
0.044551
0.0417477
0.0384366
0.0342311
0.0280149
0.0144154
0.0591296
0.0590384
0.0588159
0.0584538
0.0579413
0.0572655
0.0564133
0.055373
0.0541357
0.0526954
0.0510469
0.049182
0.0470821
0.0447065
0.0419705
0.0386983
0.034493
0.0282137
0.0145237
0.0584452
0.0584033
0.0582289
0.0579155
0.0574548
0.0568364
0.0560493
0.0550827
0.0539271
0.052574
0.0510145
0.0492354
0.0472127
0.0449
0.0422074
0.0389531
0.0347289
0.0283607
0.0145023
0.058068
0.0580656
0.057929
0.0576534
0.0572323
0.0566574
0.0559192
0.0550075
0.053912
0.0526222
0.0511256
0.0494048
0.0474311
0.0451538
0.0424783
0.0392175
0.0349521
0.0284709
0.0143558
0.0580159
0.0580442
0.0579363
0.0576888
0.0572965
0.0567528
0.056049
0.0551752
0.0541201
0.0528709
0.0514122
0.0497224
0.0477688
0.0454967
0.042808
0.0395112
0.0351788
0.0285731
0.0142049
0.0583087
0.0583599
0.0582729
0.0580452
0.0576728
0.0571501
0.0564687
0.0556185
0.0545868
0.0533585
0.0519145
0.0502296
0.0482669
0.045968
0.043232
0.039865
0.035437
0.028706
0.0141676
0.0589688
0.0590366
0.0589642
0.05875
0.0583909
0.0578815
0.0572138
0.0563765
0.0553552
0.0541318
0.0526833
0.0509798
0.04898
0.0466218
0.0438022
0.0403278
0.0357732
0.0289093
0.0142468
0.0600238
0.060103
0.0600404
0.0598354
0.0594854
0.0589854
0.0583265
0.0574961
0.0564774
0.0552483
0.0537812
0.0520404
0.0499789
0.0475303
0.04459
0.0409678
0.036248
0.0292184
0.0143816
0.0615072
0.0615936
0.0615378
0.0613398
0.0609979
0.0605065
0.0598562
0.0590324
0.0580148
0.056777
0.0552846
0.0534946
0.0513521
0.0487845
0.0456856
0.0418697
0.036932
0.0296708
0.0145643
0.0634601
0.0635504
0.0634995
0.0633087
0.0629766
0.0624975
0.0618608
0.0610495
0.0600397
0.0587988
0.0572844
0.0554427
0.0532072
0.0504955
0.0471976
0.0431335
0.0379089
0.0303172
0.0147597
0.0659323
0.0660231
0.0659765
0.0657952
0.0654778
0.0650186
0.0644058
0.0636202
0.0626336
0.0614065
0.0598857
0.0580024
0.0556716
0.0527936
0.0492508
0.0448716
0.0392743
0.0312331
0.0149813
0.0689825
0.0690704
0.0690284
0.0688603
0.0685653
0.0681375
0.0675642
0.0668245
0.0658862
0.0647023
0.0632063
0.0613078
0.0588918
0.0558267
0.0519795
0.0472011
0.0411312
0.032519
0.0154036
0.0726794
0.0727603
0.0727237
0.072574
0.072311
0.0719289
0.0714152
0.070748
0.0698924
0.0687944
0.0673726
0.0655068
0.0630323
0.0597542
0.0555066
0.0502005
0.0435221
0.034209
0.0160781
0.0771018
0.0771712
0.0771409
0.0770156
0.0767954
0.0764752
0.0760435
0.0754794
0.074748
0.0737915
0.0725139
0.0707579
0.0682773
0.0647442
0.0598949
0.0538517
0.0464147
0.0362868
0.0169654
0.0823407
0.0823941
0.0823712
0.0822761
0.0821092
0.0818667
0.0815393
0.0811097
0.080547
0.0797961
0.0787551
0.0772298
0.0748544
0.0710131
0.0650665
0.0579439
0.0495905
0.0385953
0.0180022
0.0885026
0.0885359
0.0885214
0.0884617
0.0883572
0.0882058
0.0880016
0.0877333
0.0873797
0.0868995
0.0862056
0.0850999
0.0831009
0.0790412
0.070669
0.0619205
0.0525449
0.0407612
0.0190443
0.0957143
0.0957247
0.095719
0.0956982
0.0956626
0.0956115
0.0955432
0.0954542
0.0953371
0.0951769
0.0949371
0.0945115
0.0935225
0.0903194
0.0755801
0.0647121
0.054467
0.0421801
0.0197917
)
;

boundaryField
{
    leftWall
    {
        type            kqRWallFunction;
        value           nonuniform List<scalar> 
50
(
0.00114877
0.00245187
0.0034728
0.00436455
0.00518025
0.00596441
0.0067545
0.00758748
0.009047
0.0113292
0.0147341
0.0210836
0.0296966
0.0363624
0.0407726
0.0422554
0.0407866
0.038165
0.0349437
0.0315716
0.0283692
0.025347
0.0225655
0.0201018
0.0180198
0.0163436
0.0150422
0.0140379
0.013232
0.0125331
0.011876
0.0112254
0.0105726
0.00993424
0.00933337
0.00876968
0.00825421
0.00782103
0.00750958
0.00735004
0.00735591
0.00752262
0.00783024
0.00824694
0.00873198
0.00923832
0.0097155
0.0101129
0.0103864
0.0105001
)
;
    }
    rightWall
    {
        type            kqRWallFunction;
        value           nonuniform List<scalar> 
50
(
0.00231508
0.00417492
0.00558091
0.0069349
0.00832519
0.00983842
0.0115051
0.0130979
0.0149285
0.0172409
0.0181236
0.0193175
0.0187942
0.0166061
0.0150386
0.0146119
0.0135003
0.0117365
0.00984574
0.00830678
0.00830562
0.00922092
0.0102682
0.0111778
0.0118221
0.0121982
0.0124419
0.0126947
0.0130021
0.0133748
0.0137137
0.0139964
0.0142309
0.0144154
0.0145237
0.0145023
0.0143558
0.0142049
0.0141676
0.0142468
0.0143816
0.0145643
0.0147597
0.0149813
0.0154036
0.0160781
0.0169654
0.0180022
0.0190443
0.0197917
)
;
    }
    lowerWall
    {
        type            kqRWallFunction;
        value           nonuniform List<scalar> 
62
(
0.00114877
0.00287116
0.0043284
0.00556691
0.0066836
0.00772468
0.0087152
0.00966669
0.0105781
0.0114351
0.0122123
0.0128811
0.0134179
0.0138088
0.014053
0.0141848
0.014098
0.0137164
0.0132154
0.0124525
0.0108563
0.00771689
0.0026299
0.0026299
0.00641858
0.00883979
0.0109199
0.0130494
0.0162733
0.0223593
0.0323717
0.0373594
0.0364511
0.0378093
0.0421287
0.00258433
0.00569931
0.00774844
0.00979834
0.0121444
0.0152319
0.0204607
0.0315219
0.00258433
0.00728205
0.0101699
0.0116849
0.0124837
0.0125878
0.0119734
0.0107669
0.00910178
0.0076291
0.00717026
0.00688142
0.00576984
0.00528664
0.00567532
0.00593168
0.00574156
0.00436822
0.00231508
)
;
    }
    atmosphere
    {
        type            inletOutlet;
        inletValue      uniform 0.1;
        value           nonuniform List<scalar> 
46
(
0.0105001
0.022922
0.0293598
0.0338239
0.037333
0.0402917
0.0429165
0.0453505
0.0477076
0.050097
0.0526409
0.0554949
0.0588778
0.063125
0.0688021
0.0769742
0.1
0.1
0.1
0.1
0.1
0.1
0.1
0.1
0.1
0.1
0.1
0.1
0.1
0.1
0.1
0.1
0.1
0.1
0.1
0.1
0.1
0.1
0.1
0.1
0.1
0.0755801
0.0647121
0.054467
0.0421801
0.0197917
)
;
    }
    defaultFaces
    {
        type            empty;
    }
}


// ************************************************************************* //
