/*--------------------------------*- C++ -*----------------------------------*\
| =========                 |                                                 |
| \\      /  F ield         | OpenFOAM: The Open Source CFD Toolbox           |
|  \\    /   O peration     | Version:  2.3.0                                 |
|   \\  /    A nd           | Web:      www.OpenFOAM.org                      |
|    \\/     M anipulation  |                                                 |
\*---------------------------------------------------------------------------*/
FoamFile
{
    version     2.0;
    format      ascii;
    class       volScalarField;
    location    "2.6";
    object      nut;
}
// * * * * * * * * * * * * * * * * * * * * * * * * * * * * * * * * * * * * * //

dimensions      [0 2 -1 0 0 0 0];

internalField   nonuniform List<scalar> 
2268
(
3.08491e-05
3.60242e-05
4.42741e-05
5.02815e-05
5.51615e-05
5.93513e-05
6.30611e-05
6.63913e-05
6.93731e-05
7.19909e-05
7.42088e-05
7.59989e-05
7.73564e-05
7.83006e-05
7.89185e-05
7.93422e-05
7.90361e-05
7.79735e-05
7.66316e-05
7.43642e-05
6.92857e-05
5.78668e-05
3.40521e-05
7.0479e-05
0.000295769
0.000404835
0.000479456
0.000536901
0.000583671
0.000622815
0.000655896
0.000683674
0.000706452
0.000724479
0.000738316
0.000748899
0.000757357
0.000763565
0.000763703
0.000756614
0.00074132
0.000715359
0.000668811
0.000586015
0.00043656
0.000111132
8.40932e-05
0.000521482
0.000774294
0.000947275
0.00107877
0.0011833
0.001268
0.00133684
0.00139206
0.00143497
0.00146667
0.00148864
0.0015027
0.00151037
0.0015109
0.00149808
0.00146832
0.00141563
0.00133158
0.00119824
0.00099095
0.000675285
0.000129727
9.44684e-05
0.000691361
0.00108349
0.00135507
0.00156031
0.00172102
0.00184846
0.00194933
0.00202781
0.00208653
0.00212762
0.00215327
0.00216562
0.00216584
0.00215213
0.00211693
0.00205352
0.00195154
0.00179701
0.00156813
0.00124079
0.000794985
0.000143551
0.00010311
0.000827472
0.00134707
0.00171101
0.00198465
0.00219625
0.00236121
0.00248919
0.00258647
0.00265722
0.00270452
0.00273104
0.00273883
0.0027284
0.00269686
0.00263576
0.00253579
0.00238349
0.00216055
0.00184193
0.00140453
0.000847367
0.000156415
0.00011086
0.000944039
0.00157913
0.00202743
0.00236244
0.00261847
0.00281516
0.00296527
0.00307733
0.00315702
0.00320832
0.00323412
0.00323619
0.00321433
0.00316483
0.00307884
0.00294556
0.00274957
0.00246896
0.00207351
0.00153489
0.000868826
0.000174328
0.000118251
0.00104967
0.0017898
0.00231419
0.00270312
0.00299689
0.00321961
0.00338726
0.00351062
0.00359687
0.00365071
0.00367514
0.00367154
0.00363917
0.00357388
0.00346708
0.00330779
0.00307984
0.00275862
0.00230694
0.00168217
0.000903792
0.000205993
0.00012567
0.00114938
0.00198593
0.00257862
0.0030143
0.00333948
0.00358298
0.00376412
0.00389588
0.00398685
0.00404238
0.00406544
0.00405708
0.00401617
0.00393864
0.00381675
0.00364109
0.00339564
0.00305538
0.00257877
0.00190649
0.00102699
0.000250328
3.36654e-05
5.74904e-05
6.767e-05
7.23301e-05
7.46197e-05
7.48358e-05
7.29605e-05
6.93637e-05
6.39991e-05
5.87202e-05
5.70661e-05
5.61061e-05
5.15818e-05
4.90478e-05
5.06419e-05
5.17224e-05
5.0681e-05
4.40999e-05
4.49216e-05
0.000116569
0.000479737
0.000615749
0.000677947
0.000699954
0.000691021
0.000656779
0.000607145
0.000504831
0.000469453
0.000528495
0.000547969
0.000475525
0.000408072
0.000418593
0.00046899
0.000434442
0.00031602
0.000101569
0.000136802
0.00080052
0.00114089
0.00130488
0.001369
0.00136104
0.00129576
0.00119873
0.00104605
0.000985617
0.0010648
0.00109633
0.000990462
0.00087232
0.000862427
0.000900035
0.000799246
0.000524231
0.000117855
0.000154884
0.00102388
0.00155358
0.00182
0.001932
0.00193671
0.00185831
0.00173625
0.00157333
0.00150451
0.00157127
0.00159276
0.00147775
0.00133588
0.00128192
0.00126681
0.00109639
0.000697631
0.000131635
0.000173775
0.00121678
0.00190498
0.00225763
0.0024126
0.00243473
0.00235606
0.00222748
0.00207408
0.00200551
0.00204569
0.00204511
0.00192529
0.00177032
0.00167071
0.00159115
0.0013568
0.000863017
0.000144296
0.00019627
0.00141667
0.00223383
0.00264952
0.00283712
0.00287649
0.00280489
0.00268125
0.00254541
0.00247855
0.00248843
0.00246094
0.00233427
0.00216777
0.00202658
0.00188325
0.00158958
0.00101769
0.000156682
0.000229153
0.00164962
0.00256429
0.00301598
0.00322355
0.00327718
0.00321611
0.00310327
0.002986
0.00291916
0.00289981
0.0028449
0.0027085
0.00252899
0.00235109
0.0021502
0.00179762
0.00114427
0.000169196
0.000283427
0.00194172
0.00291045
0.00336792
0.00358261
0.00364639
0.00359681
0.00349712
0.00339571
0.00332646
0.00328085
0.0032004
0.0030517
0.00285755
0.00264704
0.00239525
0.0019867
0.00125487
0.00018032
0.000137919
0.00130059
0.00227704
0.00296584
0.00346448
0.00382983
0.00409865
0.00429543
0.00443655
0.00453273
0.00459021
0.00461187
0.0045983
0.00454819
0.00445807
0.00432213
0.00413309
0.00387859
0.00353761
0.00307385
0.00243952
0.00162569
0.000786969
0.000154715
0.00149615
0.0026407
0.00343964
0.00400244
0.00440259
0.00468942
0.00489487
0.00503961
0.0051373
0.00519552
0.00521732
0.00520342
0.0051534
0.00506616
0.00494015
0.00477219
0.00455852
0.00429246
0.00396146
0.00355509
0.00308937
0.00261952
0.000176051
0.00168721
0.00299992
0.00390595
0.00452084
0.00494121
0.00523262
0.00543584
0.00557557
0.00566833
0.00572368
0.00574538
0.00573432
0.00569078
0.00561591
0.00551193
0.00537866
0.00521833
0.00503392
0.00482491
0.00459507
0.00437078
0.00417868
0.000209329
0.0018821
0.00337629
0.00440026
0.00506166
0.00548741
0.00576752
0.00595819
0.00608511
0.00616315
0.00620792
0.00622547
0.00621577
0.00617804
0.00611538
0.00603345
0.00593164
0.00581539
0.00569499
0.00557282
0.00545093
0.00536294
0.00529281
0.000248481
0.00218551
0.00381146
0.00488215
0.00554491
0.00593901
0.00619413
0.00637184
0.00649304
0.00657513
0.00662729
0.00665476
0.00665285
0.00661779
0.0065624
0.00649873
0.00641856
0.00633037
0.00625973
0.00618353
0.00611955
0.00611991
0.00608113
0.000279231
0.00245001
0.00413025
0.00517434
0.00580268
0.00618202
0.00643385
0.00660408
0.00673233
0.00683403
0.00691034
0.00696243
0.00698405
0.00697067
0.00693999
0.00690441
0.00684062
0.00676577
0.00670391
0.00663529
0.00661808
0.0066205
0.00659186
0.000299252
0.00261766
0.00432698
0.00535969
0.00597441
0.00634608
0.00658321
0.00675297
0.00689431
0.00700824
0.007094
0.00715576
0.00719406
0.00720723
0.00721348
0.00721642
0.00718436
0.00713722
0.00707712
0.00701649
0.00700928
0.00698968
0.00696043
0.000307124
0.00262887
0.00442783
0.00546703
0.00607548
0.00643682
0.00667566
0.00685793
0.00700398
0.0071286
0.00722519
0.00729518
0.00734453
0.00737467
0.00739793
0.00742163
0.00742483
0.00741568
0.00739304
0.00734951
0.00732158
0.00727237
0.00723337
0.000302816
0.0025344
0.00438807
0.00546403
0.0060806
0.00645274
0.00671407
0.00690623
0.00706067
0.00719679
0.00730525
0.00738702
0.00744948
0.00748988
0.00752069
0.00755479
0.0075799
0.00759945
0.00761083
0.00760005
0.00754677
0.0074757
0.00742544
0.000292918
0.00238425
0.00421112
0.00532016
0.00597563
0.00638788
0.00667828
0.00689514
0.00706954
0.0072147
0.00733169
0.00742318
0.00749519
0.00754591
0.00758672
0.00763113
0.00767478
0.00771243
0.00772488
0.00770096
0.00764383
0.00759058
0.00755065
0.000280013
0.0022013
0.00395284
0.0050749
0.00578257
0.00625249
0.00658692
0.00683961
0.0070384
0.00719513
0.00731952
0.00741731
0.00749316
0.00755373
0.0076102
0.00766859
0.0077242
0.00776662
0.0077678
0.00773239
0.00769409
0.00766827
0.00765104
0.000266316
0.00198394
0.00365234
0.00478177
0.00553377
0.00606134
0.00644738
0.00674088
0.00696828
0.00714274
0.00727822
0.00738304
0.00746357
0.00753203
0.00760288
0.00767507
0.00773905
0.00778109
0.00778596
0.00776559
0.00774647
0.00773719
0.00773356
0.000252241
0.00176644
0.00334389
0.00447161
0.00525603
0.00582462
0.00625662
0.00659126
0.00685154
0.00705093
0.00720429
0.00732081
0.00741051
0.00748925
0.00757332
0.00765971
0.00773456
0.0077839
0.00779933
0.00779492
0.00779052
0.00779282
0.00779889
0.000237902
0.00157683
0.00305724
0.00417419
0.00498039
0.00557824
0.0060406
0.00640524
0.00669306
0.0069191
0.0070949
0.00722928
0.00733478
0.00742937
0.0075278
0.00762749
0.0077135
0.00777206
0.00780063
0.0078123
0.00782143
0.00783401
0.00784888
0.000223582
0.001425
0.00280878
0.00390427
0.00472326
0.00534327
0.0058276
0.00621386
0.00652346
0.00677084
0.006967
0.00712168
0.00724726
0.00736001
0.00747141
0.00758
0.00767428
0.00774302
0.00778666
0.00781478
0.00783783
0.00786114
0.00788503
0.000209745
0.00131079
0.00260595
0.00367171
0.0044949
0.00513127
0.00563341
0.00603686
0.00636359
0.0066283
0.00684227
0.00701596
0.00716103
0.0072899
0.0074115
0.00752552
0.00762493
0.00770331
0.00776122
0.00780497
0.00784175
0.00787605
0.00790906
0.000196986
0.00122954
0.00244881
0.00348046
0.00430014
0.00494686
0.0054631
0.00588087
0.00622185
0.00650113
0.00673047
0.00692048
0.00708177
0.00722376
0.00735334
0.00747164
0.00757548
0.00766181
0.00773135
0.00778823
0.00783729
0.00788188
0.00792351
0.000185871
0.00117451
0.00233172
0.00332829
0.00413834
0.00478962
0.00531606
0.00574559
0.00609875
0.00639062
0.00663312
0.00683665
0.00701079
0.00716342
0.00729972
0.00742222
0.00753041
0.00762351
0.0077025
0.00777014
0.00782959
0.00788323
0.00793222
0.000176714
0.00113801
0.0022455
0.00320838
0.0040048
0.00465582
0.00518876
0.00562762
0.00599121
0.00629409
0.00654799
0.0067629
0.00694757
0.0071091
0.00725187
0.00737912
0.00749205
0.00759133
0.0076782
0.00775463
0.00782274
0.0078841
0.00793951
0.000169436
0.00111251
0.0021799
0.00311183
0.00389277
0.00454026
0.0050768
0.00552288
0.00589542
0.00620811
0.00647218
0.00669717
0.0068912
0.00706085
0.00721052
0.00734338
0.00746176
0.00756717
0.00766105
0.00774497
0.00782038
0.00788834
0.00794929
0.000163623
0.00109177
0.00212572
0.00303006
0.00379555
0.00443797
0.00497629
0.0054281
0.00580852
0.0061302
0.00640379
0.00663833
0.00684143
0.00701932
0.00717656
0.00731607
0.00744083
0.00755274
0.00765335
0.00774404
0.00782588
0.00789955
0.00796528
0.000158728
0.00107169
0.00207649
0.00295674
0.0037082
0.00434549
0.00488486
0.00534159
0.00572923
0.00605952
0.00634246
0.00658659
0.0067991
0.00698588
0.00715146
0.00729887
0.00743099
0.00754997
0.00765741
0.00775456
0.00784228
0.00792103
0.0079909
0.000154268
0.00105077
0.00202938
0.00288903
0.0036287
0.0042617
0.00480211
0.00526344
0.00565808
0.00599694
0.00628944
0.00654362
0.00676621
0.00696278
0.00713769
0.00729405
0.00743442
0.00756105
0.00767554
0.00777902
0.00787224
0.00795556
0.00802898
0.000149924
0.00102973
0.00198542
0.00282806
0.00355827
0.004188
0.0047296
0.00519545
0.00559708
0.00594475
0.00624728
0.00651216
0.00674565
0.00695291
0.00713806
0.00730419
0.00745345
0.00758817
0.00770981
0.00781945
0.00791779
0.00800513
0.00808149
0.000145541
0.00101015
0.0019486
0.00277835
0.00350079
0.00412764
0.00467033
0.00514059
0.00554936
0.00590623
0.00621935
0.00649559
0.00674067
0.0069593
0.00715528
0.00733152
0.00749004
0.0076329
0.00776152
0.00787694
0.00797984
0.00807056
0.00814915
0.000141156
0.000996916
0.00192419
0.00274461
0.00346036
0.0040841
0.00462755
0.00510224
0.00551843
0.00588492
0.00620909
0.00649712
0.00675413
0.00698437
0.00719127
0.00737752
0.00754503
0.00769561
0.00783063
0.00795112
0.00805778
0.00815104
0.00823103
0.00013695
0.000992495
0.00191352
0.00272748
0.00343807
0.0040591
0.00460369
0.00508326
0.00550732
0.00588375
0.00621912
0.00651887
0.00678757
0.00702899
0.00724624
0.00744177
0.00761743
0.00777477
0.00791517
0.00803968
0.00814908
0.00824388
0.00832434
0.000132927
0.000989051
0.001912
0.00272392
0.00343202
0.0040525
0.00459985
0.00508533
0.0055177
0.00590404
0.00625016
0.0065609
0.0068403
0.00709175
0.00731808
0.00752155
0.00770392
0.00786662
0.00801102
0.00813824
0.00824915
0.00834438
0.00842434
0.000129121
0.000984755
0.00191569
0.00273061
0.00344026
0.00406364
0.00461594
0.00510829
0.00554899
0.00594455
0.00630026
0.00662048
0.0069089
0.00716859
0.00740215
0.00761171
0.00779896
0.00796528
0.00811207
0.00824053
0.00835166
0.00844622
0.00852477
0.000125771
0.000985397
0.00192542
0.00274705
0.00346225
0.00409138
0.00465005
0.00514943
0.00559768
0.00600104
0.00636451
0.00669217
0.00698743
0.00725315
0.00749176
0.0077053
0.00789542
0.00806347
0.00821097
0.0083392
0.0084493
0.00854218
0.00861854
0.000123213
0.000991587
0.00194311
0.0027739
0.00349668
0.00413258
0.00469761
0.00520317
0.00565749
0.00606678
0.00643589
0.00676873
0.00706854
0.00733802
0.00757948
0.00779486
0.00798582
0.00815379
0.00830037
0.00842701
0.00853497
0.0086253
0.00869886
0.000121751
0.00100345
0.00196844
0.00280904
0.00353937
0.00418144
0.00475179
0.00526213
0.00572086
0.00613422
0.00650699
0.00684297
0.00714527
0.00741644
0.0076587
0.00787395
0.00806387
0.00823006
0.00837427
0.0084981
0.00860296
0.00869008
0.00876041
0.00012156
0.00101992
0.00199829
0.00284761
0.00358418
0.00423113
0.00480554
0.00531937
0.00578115
0.00619714
0.00657205
0.00690958
0.00721269
0.00748383
0.00772513
0.00793848
0.00812566
0.00828856
0.00842911
0.00854911
0.00865012
0.0087335
0.00880032
0.000122632
0.00103916
0.00202867
0.00288453
0.00362571
0.00427636
0.0048539
0.00537041
0.00583443
0.00625215
0.00662822
0.00696618
0.00726885
0.00753857
0.00777741
0.00798734
0.0081703
0.0083286
0.00846443
0.00857978
0.00867637
0.00875566
0.00881882
0.000124789
0.00105951
0.00205673
0.00291672
0.00366114
0.00431474
0.004895
0.00541388
0.0058798
0.00629883
0.00667549
0.00701318
0.00731455
0.00758179
0.00781695
0.00802213
0.00819972
0.00835244
0.00848282
0.00859303
0.00868489
0.0087599
0.0088193
0.000127736
0.00107972
0.00208118
0.00294327
0.00369005
0.00434636
0.00492933
0.00545061
0.00591842
0.00633866
0.0067157
0.00705276
0.00735229
0.00761634
0.00784697
0.00804655
0.00821808
0.00836483
0.0084896
0.00859463
0.00868172
0.0087524
0.00880798
0.000131116
0.00109864
0.00210151
0.00296434
0.00371315
0.00437228
0.0049582
0.00548213
0.00595199
0.00637356
0.00675102
0.00708741
0.00738496
0.0076456
0.00787148
0.00806539
0.00823114
0.00837254
0.0084924
0.00859272
0.00867521
0.00874149
0.00879306
0.000134561
0.00111494
0.00211711
0.00298006
0.00373102
0.00439333
0.00498257
0.00550944
0.00598162
0.00640474
0.00678287
0.00711884
0.00741471
0.00767237
0.00789429
0.00808395
0.00824595
0.00838436
0.00850106
0.00859745
0.00867534
0.00873676
0.00878372
0.000137718
0.00112692
0.00212701
0.00299018
0.00374377
0.0044097
0.00500259
0.00553263
0.00600732
0.00643223
0.00681133
0.00714733
0.0074422
0.0076981
0.0079184
0.00810791
0.0082717
0.00841211
0.00852806
0.00862066
0.00869285
0.00874796
0.00878898
0.000140266
0.00113267
0.00213031
0.00299452
0.00375137
0.00442122
0.00501781
0.00555099
0.00602818
0.00645493
0.00683521
0.00717167
0.00746641
0.00772242
0.00794543
0.00814379
0.00832285
0.00847348
0.0085894
0.00867525
0.00873808
0.00878377
0.00881655
0.000141951
0.00113123
0.00212757
0.00299404
0.00375444
0.00442794
0.00502776
0.00556359
0.00604286
0.00647119
0.00685257
0.00718967
0.00748487
0.00774273
0.0079739
0.00819787
0.00842959
0.00859746
0.00870442
0.0087732
0.00881898
0.00885024
0.00887174
0.000142579
0.00112734
0.00212342
0.00299192
0.0037548
0.00443062
0.0050324
0.0055698
0.0060503
0.00647958
0.00686163
0.00719913
0.00749474
0.00775444
0.00799536
0.00826353
0.00867845
0.00882969
0.00889024
0.00892046
0.00893816
0.00894947
0.00895697
0.000273808
0.000270663
0.000275824
0.000291457
0.00230538
0.00226458
0.00229931
0.00243911
0.00408924
0.00407792
0.00411476
0.00420652
0.00525022
0.00523688
0.00524343
0.00527363
0.00603095
0.00600303
0.00598274
0.00597706
0.00655258
0.00652668
0.00650229
0.00648581
0.00693359
0.00691452
0.00688888
0.00686772
0.0072067
0.00718557
0.00716486
0.00715179
0.00739294
0.00737936
0.00737033
0.00736367
0.00753378
0.00752816
0.00752385
0.00751971
0.00764577
0.0076445
0.00764297
0.00764066
0.00773492
0.00773659
0.00773749
0.00773728
0.00780565
0.00781022
0.00781378
0.00781604
0.00786093
0.00786861
0.00787515
0.00788023
0.00790249
0.00791342
0.0079231
0.00793118
0.00793189
0.00794601
0.00795881
0.00796991
0.00795142
0.00796858
0.00798433
0.00799828
0.00796451
0.00798446
0.00800286
0.00801933
0.00797563
0.00799805
0.00801874
0.00803738
0.0079887
0.00801321
0.00803581
0.00805626
0.0080075
0.00803372
0.00805787
0.00807973
0.00803545
0.00806305
0.00808839
0.0081113
0.00807542
0.00810406
0.00813026
0.00815385
0.00812935
0.00815869
0.00818538
0.00820929
0.00819789
0.00822755
0.00825436
0.00827819
0.00828007
0.00830965
0.00833617
0.00835954
0.00837305
0.00840214
0.00842798
0.0084505
0.00847211
0.00850033
0.00852514
0.00854651
0.00857106
0.00859809
0.00862161
0.00864158
0.00866295
0.00868858
0.00871063
0.0087291
0.00874112
0.00876523
0.00878576
0.00880272
0.00880037
0.00882294
0.00884198
0.00885749
0.00883794
0.00885899
0.00887661
0.00889082
0.00885409
0.00887369
0.00888999
0.00890302
0.00885225
0.00887045
0.00888552
0.00889749
0.00883859
0.00885539
0.00886925
0.00888022
0.00882116
0.00883651
0.00884911
0.00885905
0.00880893
0.00882259
0.00883375
0.00884252
0.00881055
0.00882212
0.00883151
0.00883883
0.00883333
0.00884223
0.00884939
0.00885494
0.00888244
0.00888805
0.00889253
0.00889597
0.00896061
0.00896251
0.00896401
0.00896516
0.00151688
0.00273456
0.00348368
0.00388918
0.00409507
0.00417077
0.00414968
0.00407367
0.00399062
0.00391361
0.00383203
0.00371561
0.00354465
0.00332575
0.00306924
0.00274707
0.00225576
0.00140846
0.000192168
0.0031335
0.00382732
0.00428492
0.00456506
0.00472424
0.00479479
0.00479644
0.00474637
0.00467185
0.00457894
0.00446117
0.0043045
0.00409756
0.00384036
0.00353036
0.00313308
0.00254733
0.00157156
0.000206271
0.00443978
0.00476337
0.00500979
0.00517995
0.0052873
0.00534226
0.00535331
0.005323
0.00525022
0.00513909
0.00498885
0.00479535
0.00455203
0.00425631
0.00389798
0.00343722
0.00277374
0.00170001
0.000212463
0.00535082
0.0054964
0.0056232
0.00571886
0.0057836
0.00581818
0.00582391
0.00579291
0.00571398
0.00558645
0.00540968
0.00518658
0.00490996
0.0045753
0.00417102
0.00365482
0.00293039
0.00178043
0.000216451
0.0059918
0.00605604
0.00612435
0.00617769
0.00620949
0.00621497
0.00619454
0.00614526
0.00605601
0.00591497
0.00571556
0.00545681
0.00514898
0.00478999
0.00434906
0.00378504
0.00299746
0.00179315
0.000218472
0.00647552
0.00649462
0.00652207
0.00654414
0.00655015
0.00652929
0.00647656
0.00639079
0.00626378
0.00608697
0.00585174
0.00556149
0.00522471
0.00484039
0.00438059
0.00378351
0.0029504
0.00170193
0.000205727
0.00684738
0.00684083
0.0068392
0.00683346
0.00681367
0.00676833
0.00668633
0.00655997
0.00638606
0.00616127
0.00587874
0.00554247
0.00516274
0.00474204
0.00425735
0.00365018
0.00282377
0.00164138
0.000196015
0.00713369
0.00711245
0.00708934
0.00705866
0.00701031
0.00693331
0.00681676
0.00664768
0.00642272
0.00614036
0.00580049
0.00541559
0.00499459
0.00454119
0.00404104
0.00344318
0.00266924
0.00157585
0.000193209
0.00734934
0.00732237
0.00728419
0.00722963
0.00714971
0.00703575
0.00687807
0.00666513
0.00639085
0.00605644
0.00566743
0.00523637
0.00477501
0.00429637
0.00379183
0.00321201
0.0024878
0.00148129
0.000186095
0.00750727
0.00747927
0.007434
0.00736373
0.00725996
0.00711501
0.00692079
0.00666788
0.00635053
0.0059713
0.0055382
0.00506352
0.00456295
0.00405272
0.00352636
0.00293862
0.00222404
0.0012821
0.000172925
0.00763051
0.00760391
0.0075564
0.0074781
0.0073601
0.0071946
0.00697422
0.00669157
0.00634277
0.00593095
0.00546313
0.00495034
0.0044074
0.0038476
0.00326542
0.0026276
0.00189388
0.00102546
0.000157545
0.00773063
0.0077073
0.00766083
0.00758026
0.00745618
0.00728066
0.00704667
0.00674816
0.00638283
0.00595361
0.00546515
0.00492453
0.00434185
0.00372419
0.00306783
0.00235922
0.00160213
0.000825463
0.000142771
0.00781387
0.00779544
0.00775256
0.00767402
0.00755024
0.00737323
0.00713629
0.00683442
0.006466
0.00603309
0.00553827
0.00498546
0.00437928
0.00372124
0.00300987
0.00224886
0.00146671
0.000733163
0.000141207
0.00788323
0.00787104
0.00783374
0.00776035
0.0076414
0.00746901
0.00723679
0.00694047
0.00657882
0.0061529
0.00566426
0.00511531
0.00450776
0.00384112
0.00311545
0.00233888
0.0015368
0.000768885
0.000148977
0.00793978
0.00793468
0.00790431
0.00783812
0.00772687
0.00756295
0.00734031
0.00705526
0.00670677
0.00629519
0.00582159
0.00528748
0.00469396
0.00404078
0.00332777
0.00255962
0.00174351
0.00089364
0.000157635
0.00798416
0.00798642
0.00796351
0.00790554
0.00780359
0.00765028
0.00743997
0.00716944
0.00683761
0.00644432
0.00599004
0.00547563
0.00490146
0.00426668
0.00356995
0.0028091
0.00197551
0.00105417
0.000164721
0.00801786
0.00802711
0.00801144
0.00796178
0.00786962
0.00772784
0.00753116
0.00727662
0.00696288
0.00658923
0.0061554
0.00566119
0.00510543
0.00448522
0.0037957
0.00302857
0.00216679
0.00118209
0.000169429
0.00804356
0.00805897
0.00804982
0.00800785
0.0079251
0.00779482
0.00761198
0.00737366
0.00707807
0.00672387
0.00630985
0.00583432
0.005294
0.00468299
0.0039919
0.003206
0.00230143
0.00124727
0.000172093
0.00806506
0.00808525
0.00808172
0.00804648
0.00797226
0.00785273
0.00768312
0.00746032
0.00718203
0.0068462
0.0064505
0.00599157
0.00546378
0.00485807
0.00416057
0.0033509
0.00240021
0.00128122
0.000173981
0.00808674
0.00811042
0.00811098
0.00808135
0.00801457
0.00790469
0.00774709
0.00753849
0.00727607
0.00695698
0.00657771
0.00613324
0.00561571
0.00501319
0.0043083
0.00347691
0.00248829
0.00132052
0.000176029
0.00811234
0.00813852
0.00814202
0.00811655
0.00805586
0.00795431
0.00780717
0.0076111
0.00736273
0.00705841
0.00669346
0.00626134
0.00575221
0.00515174
0.00444008
0.00359092
0.00257325
0.00136895
0.000178388
0.00814541
0.00817319
0.00817856
0.00815595
0.00809975
0.0080048
0.00786657
0.00768122
0.00744489
0.00715315
0.00680022
0.00637832
0.00587578
0.00527625
0.00455807
0.00369313
0.00264933
0.00140892
0.000181134
0.00818883
0.00821734
0.00822358
0.00820264
0.00814952
0.00805944
0.00792803
0.00775118
0.00752458
0.00724312
0.00690011
0.00648641
0.0059891
0.00539043
0.00466689
0.00378845
0.00272062
0.00144371
0.000183523
0.00824449
0.00827287
0.00827902
0.00825865
0.00820728
0.0081205
0.00799406
0.00782368
0.00760465
0.00733124
0.00699597
0.00658864
0.00609524
0.0054968
0.00476824
0.00387761
0.00278759
0.00147596
0.000185503
0.00831298
0.00834036
0.00834552
0.00832469
0.00827389
0.00818903
0.00806595
0.00790023
0.00768682
0.00741946
0.00708994
0.0066872
0.00619629
0.00559715
0.00486337
0.00396115
0.00285039
0.00150586
0.000187144
0.00839326
0.00841884
0.00842218
0.00840002
0.0083488
0.0082647
0.00814365
0.00798112
0.00777173
0.00750871
0.00718325
0.00678352
0.00629373
0.00569285
0.00495329
0.00403959
0.00290907
0.00153335
0.000188416
0.00848256
0.00850564
0.00850652
0.00848236
0.00842999
0.00834583
0.00822587
0.00806546
0.0078589
0.007599
0.00727633
0.0068784
0.0063886
0.00578502
0.00503897
0.0041135
0.00296376
0.00155846
0.000189091
0.00857641
0.00859649
0.00859448
0.00856797
0.00851408
0.00842945
0.00831009
0.00815123
0.00794689
0.00768944
0.00736888
0.00697207
0.00648162
0.0058747
0.00512154
0.00418387
0.00301507
0.0015818
0.000188797
0.00866903
0.00868586
0.00868086
0.00865197
0.00859659
0.00851151
0.00839279
0.00823549
0.00803338
0.00777839
0.00745999
0.00706434
0.00657325
0.00596293
0.00520248
0.00425231
0.00306451
0.00160482
0.00018778
0.00875397
0.00876758
0.00875981
0.00872888
0.00867243
0.0085874
0.00846983
0.00831468
0.00811545
0.00786366
0.00754823
0.00715462
0.00666378
0.00605084
0.00528362
0.00432113
0.00311424
0.0016284
0.000186988
0.00882508
0.00883578
0.00882572
0.00879339
0.00873663
0.00865248
0.00853703
0.00838511
0.00818998
0.00794279
0.00763192
0.00724209
0.00675331
0.0061395
0.00536694
0.00439289
0.00316646
0.00165262
0.000187052
0.00887757
0.00888585
0.00887417
0.00884126
0.00878514
0.00870297
0.00859087
0.00844361
0.00825423
0.00801355
0.00770945
0.00732592
0.00684193
0.00622995
0.0054544
0.00447014
0.00322357
0.00167857
0.00018785
0.00890891
0.00891533
0.00890277
0.00887017
0.00881573
0.00873673
0.00862934
0.00848831
0.00830656
0.00807463
0.00777994
0.00740575
0.00692991
0.00632326
0.00554784
0.00455529
0.0032882
0.00170854
0.00018896
0.00891942
0.00892454
0.00891181
0.00888038
0.0088286
0.00875392
0.0086526
0.00851941
0.00834723
0.0081264
0.00784393
0.00748237
0.00701839
0.00642095
0.00564922
0.00465075
0.00336287
0.00174428
0.000190394
0.00891243
0.0089167
0.00890441
0.00887489
0.00882668
0.0087574
0.00866344
0.00853968
0.00837901
0.00817164
0.00790422
0.0075586
0.00711017
0.00652576
0.00576123
0.00475915
0.00345026
0.00178809
0.000191889
0.00889384
0.00889758
0.00888622
0.00885925
0.00881543
0.00875256
0.00866724
0.00855451
0.00840733
0.00821588
0.00796645
0.00764007
0.00721063
0.00664251
0.00588783
0.00488367
0.00355301
0.00184243
0.000193581
0.00887134
0.00887472
0.00886464
0.00884078
0.00880212
0.00874669
0.00867133
0.00857135
0.0084399
0.00826716
0.00803905
0.00773553
0.00732841
0.00677885
0.0060347
0.00502777
0.00367236
0.00190611
0.000196682
0.00885332
0.00885636
0.00884783
0.00882759
0.00879485
0.00874789
0.00868393
0.00859865
0.00848554
0.00833495
0.00813241
0.00785638
0.00747542
0.00694551
0.00620893
0.0051945
0.00380774
0.00197624
0.000201133
0.00884784
0.00885044
0.00884364
0.00882748
0.00880137
0.00876394
0.00871284
0.00864433
0.00855256
0.00842836
0.00825711
0.00801545
0.00766666
0.00715673
0.00641733
0.0053844
0.00395718
0.00205213
0.000206643
0.00886173
0.00886373
0.00885881
0.0088471
0.00882822
0.00880119
0.00876424
0.00871445
0.00864706
0.00855408
0.00842171
0.00822532
0.00792078
0.00743348
0.00666323
0.00558993
0.00411114
0.00212833
0.000212721
0.00890016
0.0089014
0.00889844
0.00889141
0.00888013
0.00886401
0.008842
0.00881223
0.00877158
0.00871442
0.00862996
0.00849583
0.00826264
0.00781809
0.0069389
0.00578778
0.00424816
0.00219329
0.000218484
0.00896656
0.00896697
0.008966
0.00896369
0.00896
0.00895475
0.0089476
0.00893796
0.00892475
0.00890596
0.00887724
0.00882757
0.00872242
0.00842393
0.00719533
0.00592834
0.00433457
0.00223145
0.000222406
)
;

boundaryField
{
    leftWall
    {
        type            nutkWallFunction;
        Cmu             0.09;
        kappa           0.41;
        E               9.8;
        value           nonuniform List<scalar> 
50
(
5.85157e-06
8.49908e-06
1.00463e-05
1.12003e-05
1.21457e-05
1.29793e-05
1.37599e-05
1.45298e-05
1.57732e-05
1.75137e-05
1.98397e-05
2.48891e-05
2.93874e-05
3.25622e-05
3.48411e-05
3.32792e-05
3.22404e-05
3.08467e-05
2.91575e-05
2.73231e-05
2.54842e-05
2.36402e-05
2.18301e-05
2.01178e-05
1.85754e-05
1.72583e-05
1.61818e-05
1.53141e-05
1.45919e-05
1.39449e-05
1.33174e-05
1.26762e-05
1.20115e-05
1.15496e-05
1.09267e-05
1.01795e-05
9.44009e-06
8.91393e-06
8.52608e-06
8.32386e-06
8.33133e-06
8.54251e-06
8.92523e-06
9.43018e-06
9.99991e-06
1.05757e-05
1.1102e-05
1.15291e-05
1.18176e-05
1.19361e-05
)
;
    }
    rightWall
    {
        type            nutkWallFunction;
        Cmu             0.09;
        kappa           0.41;
        E               9.8;
        value           nonuniform List<scalar> 
50
(
9.15071e-06
1.21161e-05
1.38877e-05
1.5372e-05
1.67371e-05
1.80862e-05
1.94452e-05
2.06457e-05
2.19298e-05
2.34363e-05
2.40048e-05
2.5753e-05
2.36306e-05
2.14861e-05
2.04621e-05
2.01205e-05
1.85405e-05
1.58627e-05
1.37458e-05
1.20618e-05
1.21971e-05
1.33441e-05
1.45793e-05
1.55675e-05
1.58341e-05
1.61946e-05
1.66185e-05
1.69891e-05
1.72997e-05
1.76708e-05
1.80002e-05
1.82669e-05
1.84913e-05
1.86652e-05
1.8705e-05
1.84917e-05
1.83456e-05
1.82416e-05
1.83165e-05
1.83921e-05
1.85205e-05
1.86903e-05
1.87413e-05
1.89343e-05
1.93239e-05
1.99338e-05
2.07144e-05
2.15977e-05
2.24567e-05
2.30575e-05
)
;
    }
    lowerWall
    {
        type            nutkWallFunction;
        Cmu             0.09;
        kappa           0.41;
        E               9.8;
        value           nonuniform List<scalar> 
62
(
2.62309e-06
4.33979e-06
5.36312e-06
6.08824e-06
6.66786e-06
7.16121e-06
7.5972e-06
7.99068e-06
8.34781e-06
8.66828e-06
8.94755e-06
9.18006e-06
9.36185e-06
9.49168e-06
9.57176e-06
9.61466e-06
9.58645e-06
9.46126e-06
9.29384e-06
9.03185e-06
8.45339e-06
7.15767e-06
4.14389e-06
4.14389e-06
1.34346e-05
1.56038e-05
1.72158e-05
1.86983e-05
2.07076e-05
2.39715e-05
2.84093e-05
3.04816e-05
3.014e-05
3.06489e-05
3.22038e-05
4.10561e-06
1.40256e-05
1.61881e-05
1.80528e-05
1.99384e-05
2.2135e-05
2.53522e-05
3.09065e-05
4.10561e-06
6.95638e-06
8.19017e-06
8.75926e-06
9.04287e-06
9.07907e-06
8.8629e-06
8.41988e-06
7.76003e-06
7.11765e-06
6.90346e-06
6.76475e-06
6.19811e-06
5.93276e-06
6.14721e-06
6.2842e-06
6.18293e-06
5.38809e-06
3.87236e-06
)
;
    }
    atmosphere
    {
        type            calculated;
        value           nonuniform List<scalar> 
46
(
0.000142579
0.00112734
0.00212342
0.00299192
0.0037548
0.00443062
0.0050324
0.0055698
0.0060503
0.00647958
0.00686163
0.00719913
0.00749474
0.00775444
0.00799536
0.00826353
0.009
0.009
0.009
0.009
0.009
0.009
0.009
0.009
0.009
0.009
0.009
0.009
0.009
0.009
0.009
0.009
0.009
0.009
0.009
0.009
0.009
0.009
0.009
0.009
0.009
0.00719533
0.00592834
0.00433457
0.00223145
0.000222406
)
;
    }
    defaultFaces
    {
        type            empty;
    }
}


// ************************************************************************* //
