/*--------------------------------*- C++ -*----------------------------------*\
| =========                 |                                                 |
| \\      /  F ield         | OpenFOAM: The Open Source CFD Toolbox           |
|  \\    /   O peration     | Version:  2.3.0                                 |
|   \\  /    A nd           | Web:      www.OpenFOAM.org                      |
|    \\/     M anipulation  |                                                 |
\*---------------------------------------------------------------------------*/
FoamFile
{
    version     2.0;
    format      ascii;
    class       volScalarField;
    location    "2.6";
    object      p;
}
// * * * * * * * * * * * * * * * * * * * * * * * * * * * * * * * * * * * * * //

dimensions      [1 -1 -2 0 0 0 0];

internalField   nonuniform List<scalar> 
2268
(
733.373
733.387
734.213
735.909
738.393
741.516
745.1
748.945
752.843
756.585
759.971
762.815
764.945
766.191
766.385
765.428
762.971
759.128
754.747
749.8
743.673
737.579
733.014
674.531
674.599
675.485
677.263
679.832
683.044
686.718
690.65
694.624
698.425
701.847
704.691
706.765
707.88
707.885
706.607
704.063
700.461
695.572
689.414
682.953
677.413
673.386
615.528
615.672
616.64
618.544
621.246
624.599
628.417
632.49
636.594
640.504
644.004
646.882
648.923
649.918
649.694
648.149
645.545
641.89
636.426
629.707
622.8
616.958
612.839
556.333
556.516
557.542
559.581
562.442
565.97
569.975
574.237
578.523
582.593
586.226
589.195
591.268
592.223
591.875
590.156
587.344
583.525
577.865
570.858
563.387
556.355
551.691
496.929
497.121
498.181
500.351
503.388
507.122
511.353
515.85
520.367
524.652
528.475
531.597
533.773
534.768
534.391
532.561
529.468
525.316
519.488
512.157
504.158
495.911
490.218
437.287
437.477
438.564
440.868
444.103
448.079
452.58
457.364
462.171
466.726
470.798
474.138
476.484
477.588
477.244
475.342
471.989
467.353
461.107
453.479
445.371
436.297
428.753
377.377
377.567
378.693
381.149
384.617
388.877
393.698
398.825
403.978
408.859
413.236
416.851
419.426
420.697
420.432
418.481
414.875
409.745
402.993
395.098
387.289
377.674
365.673
317.163
317.375
318.594
321.254
325.017
329.613
334.802
340.315
345.849
351.082
355.784
359.692
362.512
363.97
363.802
361.805
357.956
352.358
345.111
336.942
329.379
319.402
302.467
725.903
729.07
729.96
728.067
723.668
717.654
711.222
706.529
703.644
704.223
706.63
707.261
707.695
707.446
706.949
711.372
718.697
723.982
725.029
669.902
671.078
670.468
667.911
663.467
657.775
652.125
648.995
649.1
649.749
649.87
649.668
650.674
651.151
649.924
652.896
659.478
664.897
666.941
613.645
612.765
610.639
607.416
602.814
597.532
592.772
590.999
593.529
594.448
592.88
592.448
594.91
597.037
594.606
595.239
600.484
605.616
608.445
557.262
555.084
551.689
547.767
542.988
537.978
533.797
533.037
536.165
539.014
536.684
537.187
540.752
543.054
540.494
539.076
542.323
546.626
549.948
500.931
497.769
493.098
488.6
483.771
479.072
474.855
474.886
479.477
482.936
481.827
482.674
486.459
488.19
485.913
483.291
484.63
487.968
491.761
444.602
440.042
434.282
429.505
424.86
420.694
415.756
416.289
422.309
426.388
426.239
426.641
431.688
432.888
430.935
427.297
427.142
429.78
434.056
387.243
380.931
374.88
370.317
366.177
362.555
357.014
356.824
363.666
368.674
368.822
368.978
374.845
377.209
375.729
370.686
369.709
372.195
376.892
328.055
319.877
314.71
310.973
307.824
305.162
300.013
296.448
303.232
309.596
309.888
310.663
315.844
319.02
318.029
313.105
312.31
315.144
320.266
222.491
222.663
224.1
227.187
231.532
236.759
242.606
248.805
255.002
260.801
266.01
270.359
273.543
275.287
275.294
273.267
269.112
262.91
254.977
246.05
237.374
228.051
219.79
95.7963
95.3435
96.6801
100.059
104.733
110.266
116.408
123.013
130.162
137.153
143.496
148.872
152.913
155.401
156.062
154.363
150.039
142.887
133.159
121.237
109.452
100.349
95.5581
18.2785
17.7895
18.1048
19.3084
21.4415
24.3949
28.0489
31.9691
36.403
41.1815
45.617
49.5056
52.7165
54.877
55.524
54.4005
51.3811
45.8799
38.3293
30.2329
24.0039
20.9839
19.811
2.02336
2.02933
1.90349
1.55417
1.68818
2.2732
3.34683
4.47173
5.44238
6.48891
7.25199
7.81314
8.33221
8.34721
7.55616
6.57786
5.45293
3.96834
2.44634
2.33902
3.18066
4.06072
4.21789
0.922974
0.843099
0.767657
0.703824
0.826355
1.09173
1.4394
2.22748
3.34657
4.06763
4.44917
4.53809
4.26795
3.44331
2.29464
1.75491
1.66128
1.59999
1.58079
1.68882
2.0725
2.54072
2.65433
-0.111952
-0.225637
-0.170598
-0.0501579
0.0231191
0.0928426
0.126081
0.572192
1.43183
2.05814
2.35625
2.4665
2.34948
1.84111
1.34766
1.26047
1.18525
1.06571
0.939945
0.925906
1.14231
1.21761
1.14234
-0.817815
-0.891044
-0.883471
-0.787556
-0.758949
-0.762605
-0.683752
-0.479818
-0.223345
0.00798538
0.0053325
0.0520681
0.2586
0.382537
0.509958
0.572422
0.49839
0.37583
0.1588
-0.0729887
-0.0752694
-0.117555
-0.310283
-1.14243
-1.17974
-1.22059
-1.23022
-1.22243
-1.17794
-1.08909
-1.07264
-1.16198
-1.25559
-1.33294
-1.3276
-1.17914
-0.943331
-0.697515
-0.507927
-0.447449
-0.530939
-0.806178
-1.04288
-1.16502
-1.0939
-1.22679
-1.33755
-1.36972
-1.40422
-1.43041
-1.4331
-1.39651
-1.368
-1.4033
-1.47041
-1.49636
-1.51243
-1.52504
-1.55393
-1.58633
-1.55606
-1.42018
-1.25897
-1.29682
-1.46092
-1.51394
-1.56774
-1.52498
-1.46881
-1.51778
-1.54067
-1.56812
-1.59316
-1.60886
-1.60393
-1.60836
-1.63255
-1.64557
-1.64322
-1.64369
-1.66148
-1.68638
-1.69862
-1.69167
-1.70223
-1.70538
-1.71987
-1.70321
-1.67309
-1.6658
-1.64782
-1.62354
-1.69108
-1.7088
-1.73009
-1.75504
-1.78363
-1.81508
-1.83756
-1.85639
-1.86048
-1.84184
-1.82177
-1.81789
-1.82688
-1.83865
-1.83366
-1.82284
-1.8085
-1.79776
-1.79996
-1.79754
-1.79256
-1.77896
-1.76172
-1.85419
-1.86852
-1.88535
-1.90956
-1.94292
-1.98912
-2.024
-2.04225
-2.04933
-2.04458
-2.0303
-2.00772
-1.99733
-1.99598
-1.9984
-1.98964
-1.97213
-1.95616
-1.94554
-1.93555
-1.92727
-1.91479
-1.90019
-2.00594
-2.01656
-2.0294
-2.05049
-2.08017
-2.11691
-2.1464
-2.16403
-2.1708
-2.17569
-2.17905
-2.17395
-2.16071
-2.14909
-2.15197
-2.14643
-2.13326
-2.11808
-2.09271
-2.07455
-2.06334
-2.05255
-2.03956
-2.14872
-2.1552
-2.16431
-2.18086
-2.20386
-2.23054
-2.25349
-2.26928
-2.27848
-2.28384
-2.28645
-2.28538
-2.28085
-2.27603
-2.27569
-2.27519
-2.26613
-2.24619
-2.22374
-2.2067
-2.19505
-2.18599
-2.17596
-2.28542
-2.28815
-2.29426
-2.30673
-2.32414
-2.34401
-2.3621
-2.37597
-2.38549
-2.39168
-2.39494
-2.39514
-2.39309
-2.39055
-2.38879
-2.38514
-2.3765
-2.36253
-2.34684
-2.33342
-2.32282
-2.31415
-2.30699
-2.41805
-2.41801
-2.42188
-2.43115
-2.44438
-2.45945
-2.4738
-2.48571
-2.4947
-2.50105
-2.50489
-2.50625
-2.50564
-2.50395
-2.50168
-2.49749
-2.49008
-2.47964
-2.46813
-2.45755
-2.44837
-2.44045
-2.43348
-2.54797
-2.54619
-2.54838
-2.55514
-2.56517
-2.57678
-2.58825
-2.59835
-2.60649
-2.61257
-2.6166
-2.61863
-2.61891
-2.61786
-2.61568
-2.61182
-2.60577
-2.59779
-2.58897
-2.58041
-2.57254
-2.56547
-2.55908
-2.67606
-2.6734
-2.67434
-2.6791
-2.68664
-2.69562
-2.70483
-2.71331
-2.72049
-2.72614
-2.73013
-2.73247
-2.73328
-2.73274
-2.73094
-2.72769
-2.72285
-2.71665
-2.70972
-2.70272
-2.69599
-2.68978
-2.68405
-2.80286
-2.79992
-2.79996
-2.80317
-2.80876
-2.8157
-2.82307
-2.83013
-2.83637
-2.84148
-2.84529
-2.84775
-2.84887
-2.84875
-2.84742
-2.84484
-2.84102
-2.83615
-2.83064
-2.82488
-2.81917
-2.81376
-2.80867
-2.92866
-2.92579
-2.92523
-2.92728
-2.93138
-2.93673
-2.94262
-2.94845
-2.95379
-2.95833
-2.96188
-2.96432
-2.96564
-2.96585
-2.96498
-2.96303
-2.96007
-2.95625
-2.95184
-2.94711
-2.94229
-2.93762
-2.93312
-3.05367
-3.05101
-3.05008
-3.05131
-3.05432
-3.05845
-3.06315
-3.06794
-3.07247
-3.07645
-3.07968
-3.08204
-3.08345
-3.08392
-3.08345
-3.08207
-3.07982
-3.07686
-3.07334
-3.06947
-3.06543
-3.06142
-3.05748
-3.17808
-3.17565
-3.17452
-3.17521
-3.17745
-3.18067
-3.18443
-3.18837
-3.19219
-3.19563
-3.19853
-3.20074
-3.20219
-3.20285
-3.20271
-3.20179
-3.20015
-3.19787
-3.19509
-3.19195
-3.18859
-3.18517
-3.18175
-3.30209
-3.29983
-3.2986
-3.29899
-3.30073
-3.3033
-3.30633
-3.30957
-3.31277
-3.31573
-3.31829
-3.32033
-3.32175
-3.32253
-3.32264
-3.32209
-3.32093
-3.31922
-3.31705
-3.31452
-3.31174
-3.30886
-3.30591
-3.42587
-3.42369
-3.42242
-3.42275
-3.42423
-3.42633
-3.4288
-3.43145
-3.43412
-3.43664
-3.43886
-3.4407
-3.44205
-3.44288
-3.44316
-3.44289
-3.4421
-3.44084
-3.43916
-3.43714
-3.43486
-3.43245
-3.42993
-3.54959
-3.54753
-3.54633
-3.54667
-3.54812
-3.54985
-3.55182
-3.55396
-3.55615
-3.55825
-3.56016
-3.56177
-3.56301
-3.56384
-3.56421
-3.56414
-3.56362
-3.5627
-3.56141
-3.5598
-3.55794
-3.55592
-3.55379
-3.67486
-3.67293
-3.67172
-3.67168
-3.67274
-3.67394
-3.67538
-3.67703
-3.67877
-3.68049
-3.68208
-3.68347
-3.68457
-3.68534
-3.68575
-3.68578
-3.68545
-3.68478
-3.68378
-3.68249
-3.68097
-3.67929
-3.67748
-3.80178
-3.79991
-3.79861
-3.79805
-3.79804
-3.7985
-3.79939
-3.80056
-3.80188
-3.80324
-3.80454
-3.80569
-3.80663
-3.80731
-3.80771
-3.8078
-3.80758
-3.80707
-3.80629
-3.80525
-3.80399
-3.80258
-3.80105
-3.9283
-3.92674
-3.92536
-3.92426
-3.92334
-3.92321
-3.92364
-3.9244
-3.92536
-3.9264
-3.92743
-3.92836
-3.92913
-3.9297
-3.93005
-3.93014
-3.92999
-3.92959
-3.92896
-3.9281
-3.92705
-3.92586
-3.92456
-4.05324
-4.05212
-4.05067
-4.04922
-4.04819
-4.04782
-4.04796
-4.04843
-4.0491
-4.04988
-4.05066
-4.05138
-4.05199
-4.05245
-4.05272
-4.0528
-4.05267
-4.05234
-4.05181
-4.05109
-4.0502
-4.04919
-4.04807
-4.1773
-4.17612
-4.17473
-4.17353
-4.17269
-4.1723
-4.17229
-4.17257
-4.17303
-4.17358
-4.17416
-4.1747
-4.17516
-4.1755
-4.1757
-4.17574
-4.17562
-4.17532
-4.17487
-4.17425
-4.17349
-4.17263
-4.17167
-4.30136
-4.30011
-4.29881
-4.29778
-4.29708
-4.29672
-4.29665
-4.29679
-4.29709
-4.29747
-4.29788
-4.29826
-4.29858
-4.29882
-4.29894
-4.29895
-4.29881
-4.29855
-4.29814
-4.29761
-4.29695
-4.29622
-4.2954
-4.42551
-4.42425
-4.42301
-4.42209
-4.42149
-4.42116
-4.42104
-4.4211
-4.42127
-4.42151
-4.42177
-4.42202
-4.42223
-4.42237
-4.42242
-4.42239
-4.42225
-4.422
-4.42164
-4.42118
-4.42062
-4.41999
-4.4193
-4.54974
-4.5485
-4.54732
-4.54648
-4.54595
-4.54563
-4.54549
-4.54547
-4.54555
-4.54567
-4.54581
-4.54595
-4.54606
-4.54611
-4.54611
-4.54604
-4.54589
-4.54567
-4.54536
-4.54496
-4.54449
-4.54396
-4.54337
-4.67404
-4.67284
-4.67174
-4.67096
-4.67047
-4.67017
-4.66999
-4.66992
-4.66991
-4.66994
-4.66999
-4.67003
-4.67005
-4.67003
-4.66998
-4.66988
-4.66974
-4.66954
-4.66928
-4.66895
-4.66855
-4.66812
-4.66764
-4.79838
-4.79726
-4.79623
-4.79551
-4.79505
-4.79475
-4.79456
-4.79444
-4.79436
-4.79432
-4.79428
-4.79424
-4.79418
-4.7941
-4.794
-4.79388
-4.79375
-4.79359
-4.79338
-4.79312
-4.79281
-4.79246
-4.79207
-4.92273
-4.92171
-4.92077
-4.92011
-4.91968
-4.91939
-4.91917
-4.91902
-4.91889
-4.91878
-4.91867
-4.91855
-4.91842
-4.91828
-4.91814
-4.91801
-4.91789
-4.91778
-4.91764
-4.91746
-4.91723
-4.91696
-4.91666
-5.04708
-5.04616
-5.04532
-5.04473
-5.04434
-5.04406
-5.04384
-5.04366
-5.04349
-5.04333
-5.04315
-5.04297
-5.04277
-5.04256
-5.04237
-5.04221
-5.04214
-5.0421
-5.04205
-5.04195
-5.0418
-5.04162
-5.0414
-5.1714
-5.1706
-5.16986
-5.16935
-5.16901
-5.16875
-5.16853
-5.16834
-5.16815
-5.16794
-5.16771
-5.16746
-5.16718
-5.1669
-5.16665
-5.16646
-5.16644
-5.16652
-5.16657
-5.16657
-5.16651
-5.1664
-5.16626
-5.29566
-5.29498
-5.29435
-5.29393
-5.29366
-5.29344
-5.29325
-5.29306
-5.29285
-5.29261
-5.29234
-5.29202
-5.29166
-5.29128
-5.29092
-5.29066
-5.29076
-5.29104
-5.29123
-5.29133
-5.29135
-5.29131
-5.29122
-5.41983
-5.41927
-5.41877
-5.41849
-5.41832
-5.41817
-5.41802
-5.41784
-5.41762
-5.41735
-5.41701
-5.41661
-5.41614
-5.41559
-5.41498
-5.41445
-5.41486
-5.41562
-5.41605
-5.41624
-5.41631
-5.41632
-5.41628
-5.54386
-5.54347
-5.54317
-5.54308
-5.54304
-5.54298
-5.54287
-5.5427
-5.54247
-5.54215
-5.54174
-5.54122
-5.54057
-5.53973
-5.5386
-5.53726
-5.53825
-5.54021
-5.54104
-5.54131
-5.5414
-5.54143
-5.54142
-5.66777
-5.66757
-5.6675
-5.66754
-5.66757
-5.66755
-5.66749
-5.66736
-5.66717
-5.66691
-5.66656
-5.66611
-5.66552
-5.6647
-5.66338
-5.66134
-5.66167
-5.66492
-5.66607
-5.66641
-5.66654
-5.6666
-5.66662
226.048
227.156
227.405
227.792
96.4185
96.4103
95.9197
95.9311
19.8496
19.5806
19.3797
19.3794
3.57423
3.04976
2.51669
2.08939
2.335
2.08357
1.85628
1.67728
0.84138
0.565005
0.313381
0.246353
-0.662296
-0.84225
-0.90656
-0.916106
-1.26291
-1.26355
-1.26668
-1.28521
-1.44898
-1.44203
-1.43821
-1.43989
-1.6091
-1.60128
-1.59627
-1.59435
-1.75095
-1.74532
-1.74139
-1.73905
-1.89119
-1.88653
-1.88274
-1.87977
-2.03018
-2.02485
-2.02056
-2.01718
-2.16693
-2.16094
-2.15583
-2.15178
-2.29947
-2.29413
-2.28853
-2.28392
-2.42801
-2.42333
-2.41809
-2.4136
-2.55379
-2.54964
-2.5452
-2.54121
-2.67922
-2.67543
-2.67142
-2.66784
-2.80432
-2.80088
-2.7972
-2.79392
-2.92921
-2.92607
-2.9227
-2.91968
-3.05397
-3.05111
-3.04801
-3.04523
-3.17862
-3.17604
-3.1732
-3.17062
-3.30316
-3.30084
-3.29825
-3.29588
-3.42753
-3.42547
-3.42313
-3.42097
-3.55171
-3.54989
-3.5478
-3.54585
-3.67568
-3.67408
-3.67223
-3.6705
-3.79948
-3.79808
-3.79646
-3.79495
-3.92319
-3.92196
-3.92054
-3.91924
-4.04688
-4.04579
-4.04456
-4.04344
-4.17062
-4.16966
-4.16858
-4.16763
-4.29447
-4.29363
-4.29269
-4.29187
-4.41848
-4.41774
-4.41691
-4.41621
-4.54267
-4.54202
-4.54129
-4.54069
-4.66703
-4.66646
-4.66583
-4.66532
-4.79156
-4.79107
-4.79053
-4.79009
-4.91624
-4.91583
-4.91537
-4.915
-5.04106
-5.04072
-5.04034
-5.04003
-5.166
-5.16573
-5.16542
-5.16518
-5.29104
-5.29083
-5.2906
-5.29041
-5.41616
-5.41602
-5.41585
-5.41571
-5.54135
-5.54126
-5.54116
-5.54107
-5.66661
-5.66659
-5.66655
-5.66653
227.102
222.856
220.02
218.078
217.135
217.406
217.441
215.424
217.603
219.901
220.714
221.493
223.311
225.266
225.382
223.771
224.107
226.771
232.166
96.6372
96.3874
95.9517
96.0585
97.8762
103.713
113.172
119.492
120.295
119.553
117.697
115.511
113.287
111.276
109.728
108.606
108.744
112.071
117.878
19.5315
19.748
19.7123
19.9886
21.0441
24.9116
32.5396
39.5907
41.2949
40.1794
37.1769
34.2989
32.1297
30.2716
28.3037
26.3654
25.8651
28.525
32.5017
1.70295
1.82542
2.06675
2.22797
2.27804
1.98058
2.02409
3.10876
3.39832
2.43377
0.61414
-0.356135
-0.598376
-0.505071
-0.492321
-0.605508
-0.602414
-0.301338
0.290207
1.50193
1.46018
1.46271
1.43643
1.3638
1.22286
0.910852
0.380341
-0.093576
-0.381722
-0.544185
-0.669988
-0.795586
-0.883795
-0.930748
-0.931948
-0.917853
-0.904424
-0.893802
0.297094
0.319984
0.312893
0.281558
0.208167
0.0896004
-0.0818932
-0.277969
-0.503247
-0.702833
-0.874583
-0.966174
-0.992222
-1.02387
-1.05224
-1.05741
-1.05081
-1.04375
-1.03538
-0.882958
-0.843343
-0.852576
-0.881017
-0.923077
-0.984383
-1.06928
-1.14532
-1.19826
-1.21216
-1.21123
-1.20157
-1.17383
-1.18033
-1.18778
-1.18465
-1.17736
-1.17125
-1.17364
-1.31518
-1.33522
-1.3458
-1.35833
-1.36345
-1.35577
-1.33594
-1.32743
-1.32978
-1.34082
-1.34243
-1.33961
-1.33675
-1.33138
-1.32154
-1.31499
-1.30996
-1.31146
-1.31883
-1.44794
-1.45461
-1.45855
-1.46098
-1.46086
-1.45748
-1.45502
-1.45695
-1.46255
-1.46978
-1.47078
-1.46965
-1.46726
-1.45833
-1.4504
-1.44778
-1.44893
-1.45643
-1.46209
-1.59366
-1.5956
-1.59803
-1.59994
-1.60063
-1.59999
-1.59856
-1.59758
-1.59837
-1.59933
-1.59809
-1.59444
-1.58996
-1.58576
-1.58266
-1.58429
-1.5899
-1.59297
-1.59353
-1.73692
-1.73777
-1.73852
-1.73906
-1.7394
-1.73973
-1.73882
-1.73711
-1.73414
-1.72915
-1.72693
-1.72417
-1.72109
-1.71993
-1.71971
-1.72108
-1.72008
-1.71833
-1.71826
-1.87618
-1.87468
-1.8732
-1.8715
-1.87022
-1.86941
-1.86955
-1.86905
-1.86431
-1.85914
-1.85709
-1.85845
-1.85811
-1.85655
-1.8551
-1.85216
-1.84582
-1.84319
-1.84517
-2.0127
-2.00837
-2.00472
-2.00165
-1.99935
-1.99804
-1.9971
-1.99578
-1.99334
-1.99002
-1.98874
-1.98988
-1.9912
-1.9898
-1.98631
-1.98077
-1.97654
-1.9747
-1.97675
-2.14677
-2.14182
-2.13682
-2.1326
-2.12912
-2.12666
-2.12519
-2.12377
-2.12277
-2.1211
-2.1195
-2.11816
-2.11827
-2.11735
-2.11437
-2.11166
-2.11131
-2.11148
-2.11159
-2.2783
-2.27344
-2.26867
-2.26389
-2.25963
-2.256
-2.25383
-2.25202
-2.25083
-2.24954
-2.24734
-2.24595
-2.24539
-2.24455
-2.24327
-2.24297
-2.24511
-2.24753
-2.24652
-2.40793
-2.4029
-2.39866
-2.39434
-2.38996
-2.38602
-2.38282
-2.38039
-2.37856
-2.37686
-2.37517
-2.37401
-2.37345
-2.37297
-2.37269
-2.37346
-2.37609
-2.37964
-2.38012
-2.53605
-2.53111
-2.52683
-2.52306
-2.51923
-2.51541
-2.51159
-2.50874
-2.50661
-2.50484
-2.50332
-2.50231
-2.50183
-2.50164
-2.50185
-2.50293
-2.50527
-2.5082
-2.50964
-2.66318
-2.65851
-2.65429
-2.65044
-2.64696
-2.64337
-2.63978
-2.63694
-2.63478
-2.63304
-2.63164
-2.6307
-2.63026
-2.63019
-2.63053
-2.63148
-2.63307
-2.6347
-2.63501
-2.78969
-2.78532
-2.78128
-2.77752
-2.77404
-2.77069
-2.76755
-2.76495
-2.76289
-2.76124
-2.75995
-2.75907
-2.75863
-2.75855
-2.75884
-2.75952
-2.76044
-2.76119
-2.76067
-2.9158
-2.91175
-2.90795
-2.90438
-2.90106
-2.89796
-2.89514
-2.89276
-2.89083
-2.8893
-2.88812
-2.88731
-2.88684
-2.88671
-2.8869
-2.88734
-2.88787
-2.88834
-2.88755
-3.04166
-3.03792
-3.03439
-3.03105
-3.02796
-3.02511
-3.02254
-3.02035
-3.01855
-3.01713
-3.01605
-3.01528
-3.0148
-3.01462
-3.0147
-3.01496
-3.01527
-3.01561
-3.01481
-3.16733
-3.16391
-3.16066
-3.15756
-3.1547
-3.15208
-3.14974
-3.14772
-3.14604
-3.1447
-3.14367
-3.14293
-3.14246
-3.14224
-3.14222
-3.14234
-3.14246
-3.14246
-3.14164
-3.29285
-3.28974
-3.28676
-3.28392
-3.28128
-3.27887
-3.27672
-3.27485
-3.27328
-3.27201
-3.27103
-3.27031
-3.26984
-3.26957
-3.26946
-3.26944
-3.26936
-3.26903
-3.26801
-3.41821
-3.41539
-3.41269
-3.41009
-3.40767
-3.40546
-3.40347
-3.40174
-3.40027
-3.39907
-3.39813
-3.39743
-3.39693
-3.39662
-3.39643
-3.39628
-3.39603
-3.39538
-3.39408
-3.54336
-3.54085
-3.53842
-3.53606
-3.53386
-3.53183
-3.53001
-3.5284
-3.52703
-3.52589
-3.52499
-3.52429
-3.52378
-3.52341
-3.52314
-3.52289
-3.5225
-3.52159
-3.52003
-3.6683
-3.66609
-3.66393
-3.66182
-3.65983
-3.65798
-3.65631
-3.65484
-3.65356
-3.65249
-3.65162
-3.65093
-3.6504
-3.64998
-3.64964
-3.6493
-3.64879
-3.64771
-3.64609
-3.79304
-3.79113
-3.78923
-3.78736
-3.78558
-3.78393
-3.78242
-3.78107
-3.77989
-3.77889
-3.77806
-3.77739
-3.77683
-3.77636
-3.77593
-3.77547
-3.77481
-3.77356
-3.77216
-3.91762
-3.91599
-3.91435
-3.91271
-3.91115
-3.90968
-3.90833
-3.90712
-3.90605
-3.90513
-3.90435
-3.90369
-3.90312
-3.90259
-3.90204
-3.90139
-3.90043
-3.89879
-3.89712
-4.04208
-4.04072
-4.03932
-4.03791
-4.03655
-4.03528
-4.03409
-4.03302
-4.03207
-4.03123
-4.03051
-4.02988
-4.0293
-4.02872
-4.02805
-4.02716
-4.02579
-4.02361
-4.02118
-4.1665
-4.16538
-4.16421
-4.16301
-4.16185
-4.16076
-4.15974
-4.15881
-4.15797
-4.15724
-4.15659
-4.156
-4.15542
-4.15481
-4.15405
-4.15298
-4.15128
-4.14871
-4.14581
-4.29094
-4.29003
-4.28906
-4.28806
-4.28709
-4.28617
-4.28531
-4.28452
-4.28381
-4.28317
-4.2826
-4.28207
-4.28153
-4.28092
-4.28013
-4.27899
-4.27717
-4.27449
-4.27152
-4.41545
-4.41472
-4.41393
-4.41311
-4.41231
-4.41155
-4.41083
-4.41018
-4.40959
-4.40906
-4.40857
-4.40811
-4.40763
-4.40707
-4.40632
-4.40523
-4.40349
-4.4009
-4.39816
-4.54006
-4.53949
-4.53886
-4.53819
-4.53754
-4.53692
-4.53634
-4.53581
-4.53534
-4.53491
-4.53452
-4.53414
-4.53374
-4.53325
-4.53259
-4.53162
-4.53007
-4.52767
-4.52496
-4.6648
-4.66435
-4.66385
-4.66332
-4.6628
-4.66231
-4.66185
-4.66144
-4.66106
-4.66073
-4.66043
-4.66015
-4.65983
-4.65944
-4.65889
-4.65805
-4.65669
-4.65447
-4.65203
-4.78967
-4.78932
-4.78894
-4.78852
-4.78811
-4.78773
-4.78737
-4.78705
-4.78677
-4.78653
-4.78632
-4.78612
-4.7859
-4.7856
-4.78514
-4.78441
-4.78313
-4.78093
-4.77864
-4.91466
-4.9144
-4.9141
-4.91378
-4.91347
-4.91317
-4.91291
-4.91267
-4.91247
-4.91231
-4.91218
-4.91206
-4.91192
-4.91172
-4.91134
-4.91067
-4.9094
-4.90713
-4.90459
-5.03976
-5.03957
-5.03935
-5.0391
-5.03887
-5.03865
-5.03845
-5.03828
-5.03815
-5.03805
-5.03799
-5.03795
-5.0379
-5.03779
-5.0375
-5.03688
-5.03564
-5.03342
-5.03099
-5.16496
-5.16482
-5.16466
-5.16448
-5.16431
-5.16415
-5.16401
-5.16389
-5.1638
-5.16376
-5.16375
-5.16378
-5.16382
-5.16381
-5.16361
-5.16306
-5.16191
-5.15981
-5.1575
-5.29025
-5.29015
-5.29003
-5.2899
-5.28978
-5.28966
-5.28956
-5.28948
-5.28943
-5.28942
-5.28945
-5.28953
-5.28967
-5.2898
-5.28973
-5.28922
-5.28821
-5.28633
-5.28423
-5.4156
-5.41553
-5.41545
-5.41536
-5.41527
-5.41519
-5.41512
-5.41506
-5.41503
-5.41503
-5.41507
-5.4152
-5.41545
-5.41588
-5.41602
-5.41543
-5.41453
-5.41295
-5.41113
-5.541
-5.54095
-5.54089
-5.54083
-5.54078
-5.54072
-5.54067
-5.54063
-5.5406
-5.54059
-5.54062
-5.54075
-5.5412
-5.54232
-5.54279
-5.54177
-5.5409
-5.53965
-5.53822
-5.66651
-5.6665
-5.66648
-5.66646
-5.66643
-5.6664
-5.66637
-5.66633
-5.6663
-5.66628
-5.66629
-5.66641
-5.66696
-5.66882
-5.66876
-5.66768
-5.66745
-5.66673
-5.66553
)
;

boundaryField
{
    leftWall
    {
        type            calculated;
        value           nonuniform List<scalar> 
50
(
733.373
674.531
615.528
556.333
496.929
437.287
377.377
317.163
222.491
95.7963
18.2785
2.02336
0.922974
-0.111952
-0.817815
-1.14243
-1.33755
-1.51778
-1.69108
-1.85419
-2.00594
-2.14872
-2.28542
-2.41805
-2.54797
-2.67606
-2.80286
-2.92866
-3.05367
-3.17808
-3.30209
-3.42587
-3.54959
-3.67486
-3.80178
-3.9283
-4.05324
-4.1773
-4.30136
-4.42551
-4.54974
-4.67404
-4.79838
-4.92273
-5.04708
-5.1714
-5.29566
-5.41983
-5.54386
-5.66777
)
;
    }
    rightWall
    {
        type            calculated;
        value           nonuniform List<scalar> 
50
(
725.029
666.941
608.445
549.948
491.761
434.056
376.892
320.266
232.166
117.878
32.5017
0.290207
-0.893802
-1.03538
-1.17364
-1.31883
-1.46209
-1.59353
-1.71826
-1.84517
-1.97675
-2.11159
-2.24652
-2.38012
-2.50964
-2.63501
-2.76067
-2.88755
-3.01481
-3.14164
-3.26801
-3.39408
-3.52003
-3.64609
-3.77216
-3.89712
-4.02118
-4.14581
-4.27152
-4.39816
-4.52496
-4.65203
-4.77864
-4.90459
-5.03099
-5.1575
-5.28423
-5.41113
-5.53822
-5.66553
)
;
    }
    lowerWall
    {
        type            calculated;
        value           nonuniform List<scalar> 
62
(
762.803
762.816
763.643
765.339
767.822
770.946
774.529
778.375
782.273
786.014
789.4
792.245
794.374
795.621
795.815
794.857
792.359
788.152
783.671
779.191
773.065
766.881
762.301
733.014
673.386
612.839
551.691
490.218
428.753
365.673
302.467
288.192
289.368
289.682
290.145
725.903
669.902
613.645
557.262
500.931
444.602
387.243
328.055
753.758
756.925
758.387
756.823
752.327
746.329
739.868
734.087
730.94
731.646
735.809
736.517
736.907
736.655
735.482
739.811
747.322
752.713
753.602
)
;
    }
    atmosphere
    {
        type            calculated;
        value           nonuniform List<scalar> 
46
(
-5.72904
-5.72904
-5.72904
-5.72904
-5.72904
-5.72904
-5.72904
-5.72904
-5.72904
-5.72904
-5.72904
-5.72904
-5.72904
-5.72904
-5.72904
-5.72904
-5.72904
-5.72905
-5.72908
-5.72912
-5.72916
-5.72921
-5.72925
-5.72928
-5.72929
-5.72931
-5.72932
-5.72934
-5.72936
-5.72937
-5.72937
-5.72936
-5.72934
-5.72932
-5.72928
-5.72924
-5.7292
-5.72916
-5.72912
-5.72908
-5.72905
-5.72904
-5.7296
-5.73119
-5.73119
-5.72974
)
;
    }
    defaultFaces
    {
        type            empty;
    }
}


// ************************************************************************* //
