/*--------------------------------*- C++ -*----------------------------------*\
| =========                 |                                                 |
| \\      /  F ield         | OpenFOAM: The Open Source CFD Toolbox           |
|  \\    /   O peration     | Version:  2.3.0                                 |
|   \\  /    A nd           | Web:      www.OpenFOAM.org                      |
|    \\/     M anipulation  |                                                 |
\*---------------------------------------------------------------------------*/
FoamFile
{
    version     2.0;
    format      ascii;
    class       volScalarField;
    location    "2.6";
    object      p_rgh;
}
// * * * * * * * * * * * * * * * * * * * * * * * * * * * * * * * * * * * * * //

dimensions      [1 -1 -2 0 0 0 0];

internalField   nonuniform List<scalar> 
2268
(
762.803
762.816
763.643
765.339
767.822
770.946
774.529
778.375
782.273
786.014
789.4
792.245
794.374
795.621
795.815
794.857
792.359
788.152
783.671
779.191
773.065
766.881
762.301
762.819
762.887
763.773
765.551
768.12
771.332
775.006
778.938
782.912
786.713
790.135
792.979
795.053
796.168
796.172
794.894
791.738
787.016
782.119
776.843
771.102
765.627
761.58
762.674
762.819
763.787
765.691
768.393
771.745
775.564
779.637
783.741
787.65
791.15
794.028
796.069
797.065
796.841
795.294
791.714
786.134
780.67
773.951
767.655
764.01
759.985
762.339
762.522
763.547
765.587
768.447
771.976
775.98
780.243
784.528
788.598
792.232
795.201
797.274
798.228
797.88
796.161
793.241
787.445
779.807
772.823
766.932
762.108
757.695
761.793
761.986
763.045
765.215
768.252
771.986
776.217
780.714
785.231
789.516
793.339
796.462
798.638
799.633
799.255
797.425
794.318
789.74
783.128
776.056
769.021
760.774
755.08
761.01
761.201
762.287
764.591
767.826
771.802
776.303
781.087
785.893
790.449
794.521
797.861
800.207
801.311
800.967
799.063
795.709
791.076
784.83
777.202
769.094
760.019
752.473
759.959
760.149
761.275
763.731
767.199
771.458
776.28
781.406
786.559
791.44
795.818
799.433
802.008
803.279
803.014
801.062
797.456
792.327
785.575
777.679
769.869
760.25
748.251
758.603
758.816
760.034
762.694
766.457
771.053
776.243
781.756
787.29
792.522
797.225
801.132
803.953
805.411
805.243
803.246
799.397
793.798
786.55
778.377
770.801
760.805
743.871
753.758
756.925
758.387
756.823
752.327
746.329
739.868
734.087
730.94
731.646
735.809
736.517
736.907
736.655
735.482
739.811
747.322
752.713
753.602
753.468
758.172
758.529
755.972
751.528
745.836
740.186
737.056
731.228
734.571
737.639
737.437
738.397
735.357
735.935
740.196
747.233
752.651
754.142
753.462
759.508
757.399
754.182
749.572
744.301
739.54
737.767
737.456
730.994
738.614
738.729
731.14
729.383
728.153
738.172
746.742
751.872
754.7
753.02
760.008
757.183
752.992
748.212
743.449
739.273
738.513
736.696
730.062
730.896
729.685
726.432
728.778
726.145
735.076
747.081
751.382
754.694
752.655
760.956
757.492
752.912
747.947
741.901
739.018
739.07
728.378
728.57
727.461
733.8
725.247
726.959
724.671
736.403
747.799
751.213
754.9
753.478
762.417
757.433
752.655
748.01
741.073
736.176
739.178
733.997
726.607
731.222
747.803
723.441
724.694
722.57
738.255
748.902
751.54
755.678
767.442
762.304
756.783
752.223
748.082
743.557
724.726
738.061
744.838
732.156
748.176
749.722
746.021
721.884
720.485
745.887
749.969
752.457
757.152
768.208
760.405
755.363
751.63
748.48
745.257
699.421
731.543
742.824
749.135
749.319
749.976
755.156
750.499
750.267
750.824
750.072
753.906
759.022
755.958
756.13
757.567
760.654
765
770.226
776.073
782.272
788.469
794.268
799.477
803.826
807.01
808.754
808.761
806.735
802.579
796.376
788.432
779.464
770.684
760.843
747.943
708.929
708.187
710.444
717.502
728.158
741.927
757.985
775.16
788.824
795.815
802.157
807.534
811.575
814.062
814.723
813.024
808.691
801.494
790.02
763.812
723.784
693.897
690.044
212.626
198.106
201.599
219.298
241.904
270.89
303.286
340.481
393.369
447.261
499.305
547.741
586.348
614.666
636.597
644.761
625.72
571.624
483.804
357.116
250.923
205.385
199.322
8.87432
10.2811
8.55943
6.12773
6.45821
7.68163
12.5071
18.6963
17.6234
20.1276
26.1285
35.0037
51.4194
72.1692
84.8015
82.7928
64.5249
40.6018
12.6006
6.32513
7.2514
8.18196
8.41901
8.21556
11.356
9.92945
5.3613
5.90677
6.56391
13.0814
19.2304
17.1533
17.8907
18.2521
18.5424
18.7032
17.527
15.3387
6.38874
6.17361
6.00708
5.90142
6.09589
6.64078
8.74835
14.3536
6.63322
7.7559
8.25592
4.72987
5.73878
9.93898
9.4168
7.47769
23.9522
27.8312
28.1306
28.2395
28.1233
27.5052
11.6286
6.41426
6.16776
5.9455
5.6589
5.58088
8.54827
19.4209
19.3456
2.48896
1.27049
3.51669
4.47313
4.80801
4.72252
2.17954
4.17754
22.3735
28.5205
28.5613
28.6081
28.744
21.7078
6.92989
6.68015
9.18429
8.24911
5.24034
5.0368
15.6743
19.4981
19.8585
0.388248
0.278402
0.328953
1.06306
1.10107
0.765038
1.16456
3.76711
6.92271
3.89521
1.74892
1.58492
6.99045
14.3683
16.4192
16.6492
16.7051
16.6242
8.32903
2.04225
7.34544
10.8424
2.82952
0.237221
0.179735
0.151792
0.148168
0.243835
0.451589
2.08771
3.0763
0.798856
0.136071
0.120056
0.105301
0.0743289
0.0435765
0.658441
7.62572
13.5981
13.0542
4.14323
0.430362
-0.030512
0.0108849
0.0669771
0.156789
0.124719
0.0995397
0.0811271
0.151027
1.70405
2.6462
2.91561
2.04872
0.546574
0.119623
0.0995926
0.0746888
0.0623535
0.0618284
0.0111992
-0.0252105
-0.0463695
-0.0294953
0.00656793
0.0907303
0.043003
0.0375375
0.099025
0.0784376
0.0584171
0.0340914
0.0627932
1.53107
2.57795
2.58913
2.53792
2.51484
2.26984
0.785768
0.0669936
0.0571925
0.747678
1.14169
0.800515
0.156485
0.0072311
-0.00904682
0.0117619
0.0893522
0.0467737
0.0579116
0.042827
0.0265275
0.00240669
0.00755141
0.294489
0.586617
0.61196
0.357645
0.872288
1.71252
1.72026
0.960979
0.0697723
1.05563
1.18277
1.20047
1.21329
0.0471794
-0.0239032
0.0413775
0.140361
0.151006
0.0303264
0.0195427
0.0066538
-0.0143907
-0.0306404
-0.0755354
-0.105871
-0.126097
-0.134501
-0.139747
-0.0876503
0.0764613
0.134748
0.0786409
0.20777
0.851559
1.00308
0.228609
-0.049976
-0.0386171
-0.00223243
0.135491
0.147689
0.012417
0.00588633
-0.00325397
-0.0197972
-0.0426297
-0.068666
-0.0917986
-0.107998
-0.11743
-0.122826
-0.125446
-0.124387
-0.119856
-0.112266
-0.11469
-0.114197
-0.105131
-0.0851944
-0.0627451
-0.0455832
-0.0340545
-0.0245612
0.13503
0.000827367
-0.00193107
-0.00805126
-0.0205224
-0.0378901
-0.0576784
-0.0757952
-0.0897281
-0.0992795
-0.105486
-0.108747
-0.108945
-0.106898
-0.104358
-0.1026
-0.0989465
-0.0903046
-0.0763422
-0.0606485
-0.0472317
-0.0366248
-0.027955
-0.0203055
-0.00663823
-0.00660907
-0.0104869
-0.0197607
-0.0329763
-0.0480395
-0.0623909
-0.0743123
-0.0833111
-0.0896607
-0.093499
-0.0948596
-0.0942546
-0.0925678
-0.0902979
-0.0861031
-0.0786898
-0.0682563
-0.0567445
-0.0461614
-0.0369855
-0.0290432
-0.0218114
-0.0113722
-0.00959726
-0.0117937
-0.0185596
-0.0285854
-0.0401919
-0.0516663
-0.0617649
-0.0699044
-0.0759899
-0.0800227
-0.0820514
-0.0823339
-0.0812807
-0.0790972
-0.0752357
-0.0691852
-0.0612079
-0.0523913
-0.0438334
-0.0359598
-0.0287647
-0.0211317
-0.0142201
-0.0116102
-0.0125574
-0.0173266
-0.0248614
-0.0338456
-0.0430497
-0.0515295
-0.0587181
-0.0643614
-0.0683556
-0.0706974
-0.0715069
-0.070968
-0.0691667
-0.0659166
-0.0610732
-0.0548758
-0.0479491
-0.040942
-0.0342204
-0.0278713
-0.0216567
-0.0157427
-0.0129299
-0.0129843
-0.016197
-0.0217886
-0.0287309
-0.0360999
-0.0431586
-0.0493968
-0.0545083
-0.0583235
-0.0607788
-0.0619052
-0.061781
-0.060451
-0.0578722
-0.0540497
-0.0491857
-0.0436684
-0.0379093
-0.0322049
-0.0267707
-0.0216547
-0.0163423
-0.0135977
-0.0130593
-0.0151101
-0.0192159
-0.0245671
-0.0304508
-0.0362834
-0.0416237
-0.0461662
-0.0497132
-0.0521588
-0.0534758
-0.0536851
-0.0528126
-0.0508677
-0.0479052
-0.044088
-0.039676
-0.0349461
-0.0301307
-0.0254536
-0.0209614
-0.0161507
-0.0135763
-0.0127163
-0.0139517
-0.0169582
-0.0210897
-0.0257858
-0.0305834
-0.0351114
-0.0390904
-0.042321
-0.0446769
-0.0460965
-0.0465658
-0.0460953
-0.0447078
-0.0424667
-0.0394978
-0.0359823
-0.0321139
-0.0280731
-0.0240581
-0.0201204
-0.0153618
-0.0129992
-0.0119562
-0.0126579
-0.0148912
-0.0181126
-0.0218754
-0.0258158
-0.0296314
-0.0330794
-0.035975
-0.0381886
-0.0396416
-0.0402995
-0.0401584
-0.0392384
-0.0375939
-0.0353191
-0.0325421
-0.0294012
-0.0260368
-0.0226184
-0.0191946
-0.0142447
-0.0120451
-0.0108491
-0.0112416
-0.0129796
-0.0155457
-0.0185844
-0.0218223
-0.0250225
-0.0279834
-0.0305426
-0.0325781
-0.0340069
-0.0347835
-0.0348927
-0.0343456
-0.0331821
-0.0314708
-0.0293016
-0.0267737
-0.0239956
-0.021111
-0.018163
-0.012919
-0.0107403
-0.00947466
-0.00980088
-0.0112823
-0.013387
-0.0158545
-0.018509
-0.0211754
-0.0236919
-0.0259211
-0.0277538
-0.0291098
-0.0299393
-0.0302193
-0.0299513
-0.029161
-0.0278961
-0.0262188
-0.0241998
-0.0219221
-0.0195071
-0.0169909
-0.0114411
0.000906475
0.00971624
-0.00853528
-0.00997742
-0.0117118
-0.0136786
-0.0158185
-0.0180074
-0.0201137
-0.0220214
-0.0236342
-0.0248778
-0.0257016
-0.0260782
-0.0260014
-0.0254851
-0.0245603
-0.0232694
-0.0216619
-0.0198008
-0.017788
-0.0156532
0.0736762
0.0880385
0.0899333
0.0471049
-0.00756141
-0.0106088
-0.0120486
-0.0136944
-0.0154362
-0.0171567
-0.018752
-0.0201348
-0.021236
-0.0220062
-0.0224159
-0.0224534
-0.0221237
-0.0214457
-0.0204471
-0.019162
-0.017638
-0.0159604
-0.0141526
0.0883473
0.0903025
0.0915922
0.0767323
-0.00637269
-0.00997161
-0.0108606
-0.0120318
-0.0133561
-0.0147168
-0.0160139
-0.0171651
-0.0181052
-0.0187872
-0.0191807
-0.0192709
-0.0190565
-0.0185477
-0.0177619
-0.0167223
-0.0154644
-0.0140598
-0.0125264
0.0424108
0.0919441
0.0785187
0.0219447
-0.0085008
-0.00949187
-0.00991675
-0.0106825
-0.0116439
-0.0126844
-0.0137076
-0.0146358
-0.0154085
-0.0159817
-0.0163256
-0.0164238
-0.016271
-0.0158715
-0.0152357
-0.014379
-0.0133281
-0.0121434
-0.010838
-0.0138125
0.00576368
-0.00437565
-0.0101445
-0.00884052
-0.00886452
-0.00904538
-0.00951555
-0.0101895
-0.0109615
-0.011744
-0.0124671
-0.013077
-0.0135335
-0.0138089
-0.0138863
-0.0137585
-0.0134258
-0.0128938
-0.0121727
-0.011283
-0.0102758
-0.00916044
-0.0131715
-0.0119442
-0.0105862
-0.009409
-0.00857887
-0.00817307
-0.0081808
-0.00846003
-0.00891875
-0.00947346
-0.0100511
-0.0105924
-0.0110513
-0.0113931
-0.0115926
-0.0116341
-0.0115094
-0.0112163
-0.0107575
-0.0101394
-0.00937788
-0.00851679
-0.00756193
-0.0120533
-0.010806
-0.00950881
-0.0084785
-0.00778103
-0.00741748
-0.00734314
-0.00749096
-0.00778806
-0.00816839
-0.00857424
-0.00895798
-0.00928189
-0.00951702
-0.00964204
-0.00964277
-0.00951106
-0.0092433
-0.00883993
-0.00830447
-0.00764945
-0.00691238
-0.00609615
-0.0110112
-0.00975096
-0.00851166
-0.0075909
-0.0069921
-0.00665909
-0.00654424
-0.00659895
-0.00677118
-0.00701084
-0.00727374
-0.00752305
-0.00772928
-0.00786948
-0.0079265
-0.00788859
-0.00774829
-0.00750094
-0.0071449
-0.00668118
-0.00611932
-0.00549134
-0.00479758
-0.0100515
-0.00880679
-0.00762866
-0.00678927
-0.00625591
-0.00594171
-0.00579622
-0.00577989
-0.00585318
-0.00597848
-0.00612271
-0.00625836
-0.00636351
-0.00642123
-0.00641902
-0.00634828
-0.00620289
-0.00597715
-0.00566684
-0.00527024
-0.00479399
-0.00426511
-0.00368181
-0.0091537
-0.00795747
-0.00684872
-0.00607439
-0.00558403
-0.00527857
-0.00510622
-0.00503245
-0.00502575
-0.00505734
-0.0051027
-0.00514201
-0.00516018
-0.0051463
-0.00509318
-0.00499643
-0.0048523
-0.00465346
-0.0043917
-0.00406188
-0.00366757
-0.00323113
-0.00274912
-0.00829543
-0.00717498
-0.00614619
-0.00543081
-0.00497212
-0.00467048
-0.00447511
-0.00435466
-0.0042828
-0.00423693
-0.00419884
-0.00415497
-0.00409636
-0.00401829
-0.00391993
-0.00380296
-0.00366847
-0.00350583
-0.00329946
-0.00303945
-0.00272617
-0.00237774
-0.00198968
-0.00745384
-0.00642983
-0.00549105
-0.00483592
-0.00440726
-0.00411091
-0.00389878
-0.00374195
-0.00361754
-0.00350714
-0.00339712
-0.00327889
-0.00314896
-0.00300907
-0.00286639
-0.00273214
-0.00261826
-0.00250691
-0.00236762
-0.00218372
-0.00195255
-0.00168889
-0.00138831
-0.00660734
-0.00569295
-0.00485226
-0.00426371
-0.00387112
-0.00358758
-0.00336826
-0.00318628
-0.00302114
-0.00285724
-0.00268408
-0.00249668
-0.00229621
-0.00209096
-0.00189829
-0.00174444
-0.00166611
-0.00163001
-0.00157541
-0.0014768
-0.00132977
-0.00114765
-0.000927885
-0.00573322
-0.00493392
-0.00419707
-0.00368566
-0.00334161
-0.00308374
-0.0028702
-0.00267602
-0.00248252
-0.00227589
-0.00204741
-0.00179413
-0.00152034
-0.00124003
-0.00098275
-0.000797688
-0.000778498
-0.000856197
-0.000909559
-0.00090615
-0.000843964
-0.000738417
-0.000591445
-0.00480286
-0.0041178
-0.00349141
-0.00307528
-0.00279989
-0.00258575
-0.00239393
-0.00220184
-0.00199256
-0.00175339
-0.00147595
-0.00115705
-0.000801012
-0.000422617
-6.02863e-05
0.000200381
9.91843e-05
-0.000178829
-0.000374278
-0.000470984
-0.000487428
-0.000448518
-0.000363357
-0.00377829
-0.00321351
-0.00272101
-0.00243809
-0.00226355
-0.00211597
-0.00196168
-0.0017823
-0.00156318
-0.00129203
-0.000958741
-0.000556391
-8.26058e-05
0.000465141
0.00107187
0.0016043
0.0011934
0.000430249
5.70096e-06
-0.00018625
-0.000259497
-0.000268067
-0.000229283
-0.00261115
-0.00221955
-0.00192572
-0.00183405
-0.00179357
-0.00172899
-0.00161897
-0.0014522
-0.00121714
-0.000901326
-0.000490746
2.96876e-05
0.000679063
0.00151398
0.00264767
0.0039865
0.00300072
0.00103865
0.00020668
-6.3351e-05
-0.000155221
-0.000183971
-0.000173221
-0.00133152
-0.00112617
-0.0010527
-0.00109293
-0.00112558
-0.00111099
-0.00104261
-0.000916464
-0.000726282
-0.000463264
-0.000114894
0.000336631
0.000921788
0.0017394
0.0030622
0.0050991
0.00477205
0.0015206
0.000371963
2.84776e-05
-9.47722e-05
-0.000152285
-0.000178457
755.646
757.338
758.14
759.177
720.061
726.082
728.197
730.307
229.685
237.683
248.623
260.259
7.99263
7.53288
6.90932
6.46286
13.0813
8.44852
7.26198
6.67486
19.0446
18.4383
14.9322
7.61786
10.7852
2.12923
1.02425
3.1616
0.147611
0.146974
0.143842
0.125318
0.0868014
0.0937484
0.0975757
0.0959286
0.0519436
0.0597838
0.0648397
0.0670516
0.0353784
0.041097
0.0451554
0.0481837
0.0207269
0.0253189
0.0297544
0.0517899
0.12591
0.0121543
0.0156437
0.0278358
0.138602
0.0802158
0.00542845
0.00929581
0.131458
0.0844489
-0.00225374
0.00231724
-0.0165961
-0.00712932
0.000970106
-0.00213073
-0.017183
-0.0130351
-0.0085871
-0.00381572
-0.0171383
-0.0135506
-0.00963261
-0.00605846
-0.0170842
-0.0136442
-0.010164
-0.00695367
-0.0170458
-0.0139078
-0.0105329
-0.00751548
-0.0166096
-0.0137549
-0.0106562
-0.00786797
-0.0160707
-0.0134875
-0.0106471
-0.0080704
-0.0154116
-0.0130929
-0.0105045
-0.00813314
-0.0145904
-0.0125277
-0.0101899
-0.00802677
-0.0135709
-0.01175
-0.00966037
-0.00771252
-0.0123486
-0.0107493
-0.00890009
-0.00717212
-0.0109596
-0.0095577
-0.0079342
-0.00642345
-0.00947081
-0.00824113
-0.00682285
-0.00551746
-0.00796191
-0.00688076
-0.00564392
-0.00452437
-0.00650835
-0.00555516
-0.00447567
-0.00351831
-0.00517015
-0.00432833
-0.00338428
-0.00256511
-0.00398678
-0.00324388
-0.00241721
-0.00171479
-0.00297736
-0.00232463
-0.00160166
-0.000998558
-0.00214457
-0.001576
-0.000946954
-0.000429913
-0.0014799
-0.00099114
-0.000449142
-8.51244e-06
-0.000968624
-0.000556097
-9.6093e-05
0.000275099
-0.000593333
-0.000253667
0.00012833
0.000435233
-0.000336226
-6.5896e-05
0.000241575
0.000488164
-0.000180106
2.48003e-05
0.00026106
0.000450763
-0.000108924
3.47292e-05
0.000203139
0.000339575
-0.000103159
-1.43309e-05
9.09559e-05
0.000176756
-0.000167553
-0.000143132
-0.000111911
-8.67689e-05
759.069
755.16
752.498
750.539
749.588
749.109
665.916
612.726
669.464
700.948
719.34
731.484
745.438
747.991
745.096
732.693
740.26
756.133
762.365
732.234
730.732
724.005
712.437
708.964
722.187
654.486
537.704
544.819
559.033
588.168
608.74
609.397
627.608
657.212
684.439
700.338
698.727
705.571
268.147
265.923
250.99
241.868
246.53
315.86
457.24
537.669
543.77
540.711
523.763
490.31
457.947
424.775
389.622
352.153
331.87
363.047
418.101
6.03912
6.10058
6.31526
6.47117
6.52655
6.15149
22.3433
64.1631
76.2792
57.1578
17.8072
1.58104
1.66237
5.62562
5.98224
2.93899
1.62735
5.56862
16.3641
6.47771
8.12643
7.66172
7.10842
6.68695
5.88926
4.02383
2.98474
2.25043
1.83039
1.64292
1.57051
0.564574
0.19459
0.138283
0.138498
0.184393
0.239869
0.371518
11.9919
13.1621
13.1701
13.1387
13.0653
12.9464
12.7465
12.387
10.4533
7.0698
3.90879
2.22172
0.224056
0.17508
0.141327
0.126885
0.138091
0.155952
0.308921
6.27616
8.93384
9.18787
9.27183
8.7221
7.34621
4.16889
1.95102
0.184736
0.088408
0.0895631
0.100278
0.786089
0.594258
0.124622
0.126082
0.134455
0.14603
0.401973
0.0954149
0.0756183
0.0663151
0.0561843
0.0532676
0.0629987
0.0884418
0.102981
0.0976113
0.0864475
0.084744
0.143148
0.429363
0.238319
0.115268
0.123066
0.128514
0.340288
0.423628
0.0914527
0.109437
0.122211
0.109256
0.106095
0.140041
0.21097
0.243482
0.162883
0.0841368
0.0831371
0.0842625
0.0890512
0.0990607
0.110436
0.201578
0.387745
0.388181
0.288917
0.091253
0.183893
0.181651
0.185237
0.195621
0.281518
0.291227
0.292201
0.289227
0.081429
0.0825621
0.0863727
0.131631
0.279237
0.329029
0.33067
0.325226
0.208989
0.0969913
0.0761561
0.152772
0.152034
0.103325
0.0757327
0.0469222
0.145111
0.291502
0.180168
0.0808082
0.0808359
0.218956
0.339675
0.34091
0.340873
0.324132
0.0943043
0.0977364
0.0997472
0.0705947
0.0589224
0.0425386
0.0421028
0.0418197
0.0424787
0.0419357
0.0429739
0.1064
0.130903
0.0849888
0.183337
0.347172
0.348542
0.30231
0.0848164
0.0928435
0.100847
0.148335
0.0611711
0.0773863
0.0574877
0.0496035
0.0391707
0.038855
0.039143
0.0426794
0.139431
0.166163
0.160719
0.0578392
0.112894
0.164596
0.0955384
0.0582349
0.134475
0.183114
0.18106
0.0209917
0.0731607
0.0790378
0.0832594
0.077078
0.0366533
0.0360707
0.0374827
0.0762205
0.128693
0.0484978
0.0434076
0.0432889
0.0441545
0.046843
0.0498497
0.119844
0.178978
0.178918
0.00791004
0.0230344
0.0754209
0.0800213
0.0839617
0.0746784
0.0325453
0.0343529
0.0355455
0.0368321
0.0390463
0.0419757
0.0440176
0.0433101
0.0431174
0.043227
0.0411854
0.0912059
0.176633
0.00347306
0.00848755
0.0185977
0.0703029
0.0817067
0.0850709
0.0299605
0.0311932
0.0330207
0.0347865
0.0364986
0.0385047
0.0413302
0.0418132
0.0412234
0.0379233
0.035303
0.0401321
0.167102
0.000560754
0.00546874
0.00974819
0.0135174
0.0505951
0.0491088
0.0268996
0.0280457
0.0312085
0.0345635
0.034283
0.0345995
0.0350742
0.0361572
0.0353279
0.033652
0.0313132
0.0294236
0.0376169
-0.00140743
0.00326553
0.00748498
0.0113322
0.0148094
0.0184089
0.0219972
0.0250693
0.0294199
0.0316993
0.0331015
0.0326058
0.0315184
0.0315892
0.0312493
0.0302966
0.0287054
0.0271031
0.0268808
-0.00271944
0.00164492
0.00568452
0.00944384
0.0129277
0.0162785
0.0194164
0.0222598
0.0249565
0.0288309
0.0301212
0.0309988
0.0288808
0.028417
0.0281259
0.0274497
0.0265334
0.0268425
0.0826798
-0.00363657
0.000410248
0.00421076
0.00778736
0.0111019
0.0141985
0.0170231
0.0194165
0.0213357
0.0242563
0.027283
0.027944
0.0259993
0.025452
0.0252778
0.0248339
0.0242962
0.0260555
0.123623
-0.00429729
-0.000566941
0.00296458
0.00630866
0.00940188
0.0122497
0.0148129
0.017005
0.0188057
0.0202278
0.022181
0.0226258
0.0228819
0.0230374
0.0229291
0.0224152
0.0220917
0.0237975
0.125809
-0.00477865
-0.001359
0.00189391
0.00498842
0.00785135
0.0104692
0.0128132
0.0148339
0.0165127
0.0178547
0.0188787
0.019618
0.0201752
0.0207012
0.0207183
0.020244
0.0200955
0.0230262
0.128414
-0.00510577
-0.00199025
0.000984964
0.00382945
0.00646727
0.00887489
0.0110294
0.012899
0.0144673
0.0157349
0.0167162
0.0174337
0.0179101
0.0184311
0.0184271
0.01832
0.0183822
0.0214996
0.130298
-0.00526459
-0.00244962
0.000251512
0.00284997
0.00526991
0.00748253
0.00946752
0.011201
0.0126686
0.0138685
0.0148111
0.0155162
0.0160087
0.0163232
0.0165152
0.0166603
0.0169151
0.0191057
0.130542
-0.0052265
-0.00271226
-0.000282768
0.00207251
0.00427871
0.00630456
0.00813057
0.0097364
0.0111085
0.0122438
0.0131508
0.0138473
0.0143598
0.014725
0.0149942
0.0152417
0.0156395
0.0165706
0.13376
-0.00497444
-0.00276175
-0.00060203
0.00151131
0.00350447
0.0053456
0.00701537
0.008495
0.00977142
0.0108411
0.0117112
0.0123991
0.0129321
0.0133475
0.0136929
0.0140349
0.0145398
0.0156236
0.136324
-0.00451828
-0.00260355
-0.000709583
0.00116361
0.00294326
0.00459816
0.00610931
0.00745906
0.00863504
0.00963374
0.0104622
0.0111384
0.0116913
0.0121607
0.0125947
0.01306
0.0137169
0.0149623
0.109306
-0.00389585
-0.00226759
-0.000630877
0.00100675
0.0025738
0.00404059
0.00538911
0.00660307
0.0076713
0.00859109
0.00937036
0.0100289
0.0105996
0.0111288
0.0116757
0.0123311
0.013293
0.014927
0.019846
-0.00316454
-0.001803
-0.000409836
0.00100087
0.0023595
0.00363871
0.00482208
0.00589516
0.00684839
0.00768052
0.00840105
0.00903252
0.0096128
0.0101978
0.010867
0.0117535
0.0131259
0.0153072
0.0177321
-0.00238983
-0.00126904
-0.000101051
0.00109566
0.00225444
0.00335072
0.00437014
0.0053003
0.00613348
0.00687001
0.00752106
0.00811151
0.00868352
0.00930135
0.0100618
0.0111334
0.0128336
0.015401
0.0383231
-0.00163419
-0.000724907
0.000239685
0.0012392
0.00221108
0.00313375
0.00399499
0.00478437
0.00549584
0.00613105
0.00670216
0.00723504
0.00777354
0.00838518
0.00917289
0.010315
0.0121344
0.0151702
0.0961912
-0.000948783
-0.000221106
0.000563847
0.00138587
0.00218746
0.00294989
0.00366293
0.0043178
0.00490976
0.00544113
0.00592412
0.00638392
0.00686325
0.00742756
0.00817431
0.00926778
0.0110093
0.0216384
0.0970315
-0.000368768
0.000205918
0.000835479
0.0015013
0.0021515
0.00276991
0.0033479
0.003878
0.00435623
0.00478499
0.00517563
0.00555149
0.00595236
0.00643883
0.00709775
0.00806871
0.00962096
0.0239663
0.0977098
8.7244e-05
0.000534998
0.00103259
0.00156372
0.0020823
0.00257434
0.00303246
0.00345007
0.00382349
0.0041546
0.00445329
0.00474057
0.00505308
0.00544685
0.00599981
0.0068335
0.00820088
0.0112271
0.0963736
0.000414591
0.000758264
0.00114553
0.00156251
0.00196892
0.00235261
0.00270708
0.00302629
0.00330636
0.00354812
0.00375956
0.00395931
0.00418186
0.00448187
0.00493743
0.00567087
0.00695101
0.00914831
0.0194872
0.00061848
0.000877628
0.0011739
0.00149566
0.00180827
0.00210117
0.00236857
0.0026046
0.00280476
0.0029682
0.00310037
0.0032171
0.00335141
0.00356007
0.00393248
0.00460536
0.00587452
0.0093647
0.010693
0.000709946
0.000901151
0.00112337
0.00136689
0.00160257
0.00182133
0.00201792
0.00218649
0.00232155
0.00241987
0.00248317
0.00252298
0.00256986
0.00268351
0.00297389
0.00359527
0.00483377
0.00705957
0.00948024
0.000702943
0.000840399
0.00100326
0.0011835
0.00135736
0.00151722
0.00165841
0.0017751
0.00186063
0.0019088
0.00191613
0.00188718
0.00184668
0.00185349
0.0020528
0.0026128
0.0037618
0.00585566
0.00816983
0.000613124
0.000709602
0.00082598
0.000955934
0.0010811
0.00119552
0.00129528
0.00137483
0.00142667
0.00144162
0.00141011
0.00132535
0.00119447
0.00105642
0.00113506
0.00164512
0.00265485
0.00452804
0.00663993
0.000457733
0.000525512
0.000606997
0.000697859
0.000785401
0.000865685
0.000935976
0.000991636
0.00102526
0.00102621
0.000979976
0.000859353
0.000609323
0.00017493
3.38657e-05
0.000627517
0.00152364
0.00310986
0.00492521
0.000250846
0.000298641
0.000354485
0.000414852
0.000473114
0.000527859
0.000578011
0.000620633
0.000649914
0.000656476
0.000624321
0.000494639
5.47993e-05
-0.00106934
-0.00153398
-0.000516732
0.000894189
0.00191939
0.0030307
-6.94795e-05
-5.81375e-05
-3.9898e-05
-1.66638e-05
1.03814e-05
4.12726e-05
7.54024e-05
0.000110719
0.000142794
0.000162951
0.000152339
3.32346e-05
-0.000515996
-0.00237847
-0.00231918
-0.00067876
0.00111741
0.00183485
0.00160627
)
;

boundaryField
{
    leftWall
    {
        type            fixedFluxPressure;
        gradient        uniform 0;
        value           nonuniform List<scalar> 
50
(
762.803
762.819
762.674
762.339
761.793
761.01
759.959
758.603
755.958
708.929
212.626
8.87432
8.21556
6.63322
2.48896
0.388248
0.237221
0.156789
0.099025
0.0579116
0.0303264
0.012417
0.000827367
-0.00663823
-0.0113722
-0.0142201
-0.0157427
-0.0163423
-0.0161507
-0.0153618
-0.0142447
-0.012919
-0.0114411
0.0736762
0.0883473
0.0424108
-0.0138125
-0.0131715
-0.0120533
-0.0110112
-0.0100515
-0.0091537
-0.00829543
-0.00745384
-0.00660734
-0.00573322
-0.00480286
-0.00377829
-0.00261115
-0.00133152
)
;
    }
    rightWall
    {
        type            fixedFluxPressure;
        gradient        uniform 0;
        value           nonuniform List<scalar> 
50
(
753.602
754.142
754.7
754.694
754.9
755.678
757.152
759.022
762.365
705.571
418.101
16.3641
0.371518
0.308921
0.401973
0.423628
0.288917
0.0969913
0.0997472
0.148335
0.18106
0.178918
0.176633
0.167102
0.0376169
0.0268808
0.0826798
0.123623
0.125809
0.128414
0.130298
0.130542
0.13376
0.136324
0.109306
0.019846
0.0177321
0.0383231
0.0961912
0.0970315
0.0977098
0.0963736
0.0194872
0.010693
0.00948024
0.00816983
0.00663993
0.00492521
0.0030307
0.00160627
)
;
    }
    lowerWall
    {
        type            fixedFluxPressure;
        gradient        uniform 0;
        value           nonuniform List<scalar> 
62
(
762.803
762.816
763.643
765.339
767.822
770.946
774.529
778.375
782.273
786.014
789.4
792.245
794.374
795.621
795.815
794.857
792.359
788.152
783.671
779.191
773.065
766.881
762.301
762.301
761.58
759.985
757.695
755.08
752.473
748.251
743.871
755.646
757.338
758.14
759.177
753.758
753.468
753.462
753.02
752.655
753.478
767.442
768.208
753.758
756.925
758.387
756.823
752.327
746.329
739.868
734.087
730.94
731.646
735.809
736.517
736.907
736.655
735.482
739.811
747.322
752.713
753.602
)
;
    }
    atmosphere
    {
        type            totalPressure;
        rho             rho;
        psi             none;
        gamma           1;
        p0              uniform 0;
        value           nonuniform List<scalar> 
46
(
0
0
0
0
0
0
0
0
0
0
0
0
0
0
0
0
-8.11464e-07
-1.20436e-05
-4.0063e-05
-7.9088e-05
-0.000123159
-0.000167927
-0.000210082
-0.000236888
-0.000252599
-0.000266423
-0.000278374
-0.000296062
-0.000315848
-0.000327883
-0.000330092
-0.000321733
-0.000303195
-0.000275727
-0.000241136
-0.000201527
-0.000159139
-0.000116304
-7.55813e-05
-3.93746e-05
-9.70413e-06
0
0
0
0
0
)
;
    }
    defaultFaces
    {
        type            empty;
    }
}


// ************************************************************************* //
