/*--------------------------------*- C++ -*----------------------------------*\
| =========                 |                                                 |
| \\      /  F ield         | OpenFOAM: The Open Source CFD Toolbox           |
|  \\    /   O peration     | Version:  2.3.0                                 |
|   \\  /    A nd           | Web:      www.OpenFOAM.org                      |
|    \\/     M anipulation  |                                                 |
\*---------------------------------------------------------------------------*/
FoamFile
{
    version     2.0;
    format      ascii;
    class       surfaceScalarField;
    location    "2.6";
    object      phi;
}
// * * * * * * * * * * * * * * * * * * * * * * * * * * * * * * * * * * * * * //

dimensions      [0 3 -1 0 0 0 0];

internalField   nonuniform List<scalar> 
4432
(
-7.18217e-07
7.18216e-07
-1.42129e-06
7.03081e-07
-2.08601e-06
6.64725e-07
-2.71696e-06
6.30946e-07
-3.33679e-06
6.19829e-07
-3.9534e-06
6.16629e-07
-4.56794e-06
6.14537e-07
-5.17676e-06
6.08821e-07
-5.77187e-06
5.95121e-07
-6.34314e-06
5.71258e-07
-6.87729e-06
5.34135e-07
-7.35249e-06
4.75203e-07
-7.73096e-06
3.78479e-07
-7.94474e-06
2.13769e-07
-7.89198e-06
-5.27548e-08
-7.46525e-06
-4.2673e-07
-6.73443e-06
-7.30856e-07
-5.89728e-06
-8.37107e-07
-4.59918e-06
-1.2981e-06
-2.49647e-06
-2.1027e-06
-1.2923e-07
-2.36722e-06
1.28769e-06
-1.41691e-06
1.28769e-06
-7.64713e-07
1.48294e-06
-1.41865e-06
1.35702e-06
-2.06129e-06
1.30737e-06
-2.68455e-06
1.2542e-06
-3.29318e-06
1.22846e-06
-3.89487e-06
1.21834e-06
-4.49437e-06
1.21405e-06
-5.09142e-06
1.20586e-06
-5.68133e-06
1.18502e-06
-6.25674e-06
1.14668e-06
-6.80484e-06
1.08224e-06
-7.30177e-06
9.72127e-07
-7.70756e-06
7.84292e-07
-7.96432e-06
4.70528e-07
-8.00168e-06
-1.54128e-08
-7.76046e-06
-6.67915e-07
-7.19885e-06
-1.29248e-06
-6.2574e-06
-1.77853e-06
-4.81364e-06
-2.74185e-06
-2.93849e-06
-3.97785e-06
-8.3639e-07
-4.46929e-06
5.99166e-07
-2.85246e-06
1.88686e-06
-7.53523e-07
2.23647e-06
-1.39321e-06
1.99671e-06
-2.00935e-06
1.92351e-06
-2.60894e-06
1.85381e-06
-3.19315e-06
1.81268e-06
-3.77046e-06
1.79565e-06
-4.34762e-06
1.79122e-06
-4.92658e-06
1.7848e-06
-5.50503e-06
1.76346e-06
-6.07835e-06
1.72e-06
-6.63602e-06
1.63992e-06
-7.15663e-06
1.49272e-06
-7.60474e-06
1.23242e-06
-7.93105e-06
7.96842e-07
-8.07677e-06
1.30281e-07
-7.9854e-06
-7.5927e-07
-7.55748e-06
-1.72041e-06
-6.66523e-06
-2.67079e-06
-5.32451e-06
-4.08257e-06
-3.55277e-06
-5.74959e-06
-1.45948e-06
-6.56259e-06
1.80749e-07
-4.49268e-06
2.0676e-06
-7.2799e-07
2.96446e-06
-1.37027e-06
2.63899e-06
-1.97597e-06
2.52921e-06
-2.56109e-06
2.43893e-06
-3.13018e-06
2.38178e-06
-3.69341e-06
2.35887e-06
-4.25901e-06
2.35682e-06
-4.8302e-06
2.35599e-06
-5.40617e-06
2.33942e-06
-5.98453e-06
2.29835e-06
-6.55695e-06
2.21234e-06
-7.10411e-06
2.03988e-06
-7.59387e-06
1.72219e-06
-7.98184e-06
1.18482e-06
-8.21568e-06
3.6411e-07
-8.23713e-06
-7.37807e-07
-7.94276e-06
-2.01478e-06
-7.19422e-06
-3.41934e-06
-6.01404e-06
-5.26274e-06
-4.38043e-06
-7.38319e-06
-2.24685e-06
-8.69616e-06
-1.6564e-07
-6.57388e-06
1.90196e-06
-7.04712e-07
3.66917e-06
-1.35783e-06
3.2921e-06
-1.96799e-06
3.13937e-06
-2.55211e-06
3.02304e-06
-3.11868e-06
2.94835e-06
-3.67997e-06
2.92015e-06
-4.24547e-06
2.92231e-06
-4.81905e-06
2.92957e-06
-5.4007e-06
2.92106e-06
-5.99016e-06
2.8878e-06
-6.58105e-06
2.80323e-06
-7.15562e-06
2.61445e-06
-7.68381e-06
2.25038e-06
-8.12369e-06
1.62472e-06
-8.4254e-06
6.65814e-07
-8.53161e-06
-6.31577e-07
-8.3558e-06
-2.19059e-06
-7.78905e-06
-3.98608e-06
-6.83288e-06
-6.21889e-06
-5.45771e-06
-8.75835e-06
-3.46612e-06
-1.06878e-05
-9.35837e-07
-9.10415e-06
9.66132e-07
-6.97907e-07
4.36708e-06
-1.3718e-06
3.96599e-06
-2.00103e-06
3.7686e-06
-2.59945e-06
3.62147e-06
-3.17783e-06
3.52674e-06
-3.75037e-06
3.49269e-06
-4.32745e-06
3.49939e-06
-4.91298e-06
3.51509e-06
-5.50707e-06
3.51516e-06
-6.11145e-06
3.49219e-06
-6.72131e-06
3.4131e-06
-7.31968e-06
3.21282e-06
-7.87745e-06
2.80816e-06
-8.3536e-06
2.10087e-06
-8.69943e-06
1.01163e-06
-8.86336e-06
-4.67641e-07
-8.78094e-06
-2.27303e-06
-8.389e-06
-4.37803e-06
-7.71151e-06
-6.89638e-06
-6.75379e-06
-9.71608e-06
-5.25024e-06
-1.21913e-05
-2.58944e-06
-1.1765e-05
-1.62331e-06
-7.19946e-07
5.08702e-06
-1.4287e-06
4.67475e-06
-2.09257e-06
4.43248e-06
-2.72184e-06
4.25074e-06
-3.32747e-06
4.13237e-06
-3.92497e-06
4.09019e-06
-4.525e-06
4.09942e-06
-5.13069e-06
4.12078e-06
-5.7416e-06
4.12606e-06
-6.36115e-06
4.11175e-06
-6.98541e-06
4.03736e-06
-7.59724e-06
3.82465e-06
-8.16757e-06
3.37849e-06
-8.65542e-06
2.58873e-06
-9.01364e-06
1.36983e-06
-9.19945e-06
-2.81848e-07
-9.17571e-06
-2.29678e-06
-8.92896e-06
-4.62478e-06
-8.53351e-06
-7.29184e-06
-8.09032e-06
-1.01593e-05
-7.45399e-06
-1.28276e-05
-5.35227e-06
-1.38667e-05
-6.97559e-06
-7.77373e-07
5.86439e-06
-1.53832e-06
5.43571e-06
-2.2536e-06
5.14777e-06
-2.93e-06
4.92715e-06
-3.57819e-06
4.78056e-06
-4.21402e-06
4.72603e-06
-4.84746e-06
4.73286e-06
-5.47961e-06
4.75294e-06
-6.10859e-06
4.75503e-06
-6.73881e-06
4.74197e-06
-7.36631e-06
4.66486e-06
-7.97307e-06
4.4314e-06
-8.52965e-06
3.93507e-06
-8.99527e-06
3.05434e-06
-9.32534e-06
1.69989e-06
-9.48882e-06
-1.18375e-07
-9.47741e-06
-2.30819e-06
-9.32504e-06
-4.77714e-06
-9.15878e-06
-7.45811e-06
-9.18589e-06
-1.01321e-05
-9.53918e-06
-1.24744e-05
-8.89913e-06
-1.45067e-05
-1.58747e-05
-1.6624e-06
1.6624e-06
6.47991e-07
-2.31039e-06
3.63921e-06
-2.99123e-06
6.45874e-06
-2.81955e-06
9.03943e-06
-2.58068e-06
1.12007e-05
-2.16131e-06
1.24595e-05
-1.2588e-06
1.22166e-05
2.42938e-07
8.76525e-06
3.45132e-06
4.63076e-06
4.13448e-06
3.10638e-06
1.52437e-06
2.12636e-06
9.80024e-07
-1.31299e-06
3.43937e-06
-6.34084e-06
5.02784e-06
-1.00018e-05
3.66096e-06
-9.8323e-06
-1.69503e-07
-6.73082e-06
-3.1015e-06
-2.68529e-06
-4.04553e-06
-2.6853e-06
-2.84613e-07
1.94699e-06
1.76727e-06
-4.36228e-06
3.7902e-06
-5.01416e-06
5.77067e-06
-4.80004e-06
7.67558e-06
-4.48561e-06
9.14539e-06
-3.63114e-06
9.61508e-06
-1.72849e-06
9.19601e-06
6.6198e-07
7.59851e-06
5.04882e-06
4.90614e-06
6.82688e-06
3.01487e-06
3.41564e-06
1.74516e-06
2.24971e-06
-8.78732e-07
6.06327e-06
-4.30727e-06
8.45638e-06
-6.74331e-06
6.097e-06
-7.05832e-06
1.45504e-07
-5.85938e-06
-4.30046e-06
-3.56434e-06
-6.34053e-06
-6.24965e-06
8.47997e-07
1.09897e-06
2.25373e-06
-5.76802e-06
3.61637e-06
-6.37679e-06
5.06095e-06
-6.24464e-06
6.49788e-06
-5.92254e-06
7.52932e-06
-4.66259e-06
7.57961e-06
-1.77876e-06
6.72182e-06
1.51976e-06
5.63475e-06
6.13586e-06
4.13883e-06
8.32281e-06
2.71907e-06
4.83541e-06
1.54108e-06
3.4277e-06
2.83067e-08
7.57605e-06
-1.79044e-06
1.02751e-05
-3.60048e-06
7.90704e-06
-4.47289e-06
1.01791e-06
-4.3729e-06
-4.40045e-06
-3.2982e-06
-7.4152e-06
-9.54786e-06
1.53374e-06
-4.34768e-07
2.35742e-06
-6.5917e-06
3.20574e-06
-7.2251e-06
4.24895e-06
-7.28785e-06
5.35864e-06
-7.03223e-06
6.11523e-06
-5.41919e-06
5.91193e-06
-1.57546e-06
4.96924e-06
2.46245e-06
4.08052e-06
7.02458e-06
3.41549e-06
8.98784e-06
2.44277e-06
5.80812e-06
1.62729e-06
4.24316e-06
9.05477e-07
8.29787e-06
1.33742e-07
1.10469e-05
-9.74758e-07
9.01552e-06
-2.0055e-06
2.04866e-06
-2.55221e-06
-3.85375e-06
-2.3234e-06
-7.644e-06
-1.18713e-05
1.72164e-06
-2.1564e-06
2.08657e-06
-6.95663e-06
2.55463e-06
-7.69316e-06
3.30747e-06
-8.04069e-06
4.19086e-06
-7.9156e-06
4.81261e-06
-6.04093e-06
4.48851e-06
-1.25136e-06
3.54821e-06
3.40274e-06
2.9604e-06
7.61237e-06
2.78844e-06
9.15979e-06
2.33735e-06
6.25921e-06
1.92016e-06
4.66035e-06
1.81183e-06
8.4062e-06
1.74285e-06
1.11158e-05
1.20751e-06
9.55086e-06
2.47886e-07
3.00828e-06
-6.84071e-07
-2.92181e-06
-1.0687e-06
-7.25935e-06
-1.294e-05
1.4674e-06
-3.62379e-06
1.42202e-06
-6.91126e-06
1.67905e-06
-7.95018e-06
2.24207e-06
-8.60371e-06
2.97003e-06
-8.64357e-06
3.57265e-06
-6.64356e-06
3.25711e-06
-9.35831e-07
2.40198e-06
4.25786e-06
2.14973e-06
7.8646e-06
2.40307e-06
8.90646e-06
2.44563e-06
6.21667e-06
2.28514e-06
4.82084e-06
2.67457e-06
8.01676e-06
3.06489e-06
1.07255e-05
3.00098e-06
9.61476e-06
2.17581e-06
3.83346e-06
1.02369e-06
-1.76969e-06
2.30879e-07
-6.46653e-06
-1.27091e-05
4.79349e-07
-4.10313e-06
3.82859e-07
-6.81477e-06
6.16173e-07
-8.1835e-06
1.07359e-06
-9.06111e-06
1.69083e-06
-9.26081e-06
2.33026e-06
-7.283e-06
2.19138e-06
-7.96947e-07
1.57473e-06
4.87451e-06
1.61791e-06
7.82141e-06
2.27878e-06
8.2456e-06
2.68422e-06
5.81123e-06
2.78582e-06
4.71923e-06
3.43269e-06
7.36989e-06
4.16739e-06
9.99082e-06
4.46282e-06
9.31933e-06
3.72734e-06
4.56894e-06
2.47231e-06
-5.14669e-07
1.2932e-06
-5.28742e-06
-1.14159e-05
-1.20154e-06
-2.9016e-06
-9.15061e-07
-7.10124e-06
-5.67463e-07
-8.53111e-06
-1.60944e-07
-9.46763e-06
3.49551e-07
-9.77131e-06
1.02126e-06
-7.95471e-06
1.26008e-06
-1.03576e-06
9.68189e-07
5.16641e-06
1.37347e-06
7.41613e-06
2.36606e-06
7.253e-06
3.03078e-06
5.1465e-06
3.40416e-06
4.34585e-06
4.14478e-06
6.62927e-06
5.05653e-06
9.07907e-06
5.53699e-06
8.83888e-06
4.89775e-06
5.20818e-06
3.63639e-06
7.46686e-07
2.19908e-06
-3.85011e-06
-9.21684e-06
-1.88571e-06
7.7501e-06
-3.74431e-06
7.29431e-06
-5.49961e-06
6.90306e-06
-7.13669e-06
6.56423e-06
-8.69184e-06
6.33569e-06
-1.02034e-05
6.23763e-06
-1.16872e-05
6.21666e-06
-1.3134e-05
6.19976e-06
-1.45254e-05
6.14643e-06
-1.58788e-05
6.09531e-06
-1.71812e-05
5.96733e-06
-1.8387e-05
5.6372e-06
-1.94355e-05
4.98354e-06
-2.02443e-05
3.86312e-06
-2.07291e-05
2.18469e-06
-2.0867e-05
1.94948e-08
-2.0728e-05
-2.44711e-06
-2.05135e-05
-4.99163e-06
-2.06214e-05
-7.35025e-06
-2.16427e-05
-9.1108e-06
-2.38804e-05
-1.02366e-05
-2.69079e-05
-1.14793e-05
-1.18404e-05
-3.09422e-05
-2.2579e-06
1.0008e-05
-4.47196e-06
9.50838e-06
-6.49339e-06
8.92451e-06
-8.37768e-06
8.44853e-06
-1.01852e-05
8.1432e-06
-1.19192e-05
7.97169e-06
-1.35745e-05
7.87191e-06
-1.51728e-05
7.7981e-06
-1.66173e-05
7.59091e-06
-1.79275e-05
7.40547e-06
-1.90872e-05
7.12704e-06
-2.00375e-05
6.58755e-06
-2.07321e-05
5.6781e-06
-2.11161e-05
4.24715e-06
-2.11275e-05
2.19616e-06
-2.07846e-05
-3.23476e-07
-2.02303e-05
-3.00135e-06
-1.97644e-05
-5.45756e-06
-1.98318e-05
-7.28276e-06
-2.10343e-05
-7.90834e-06
-2.35191e-05
-7.75175e-06
-2.6217e-05
-8.78138e-06
-1.10426e-05
-2.70149e-05
-2.9441e-06
1.29521e-05
-5.31103e-06
1.18753e-05
-7.50178e-06
1.11153e-05
-9.88135e-06
1.08281e-05
-1.22217e-05
1.04836e-05
-1.43554e-05
1.01054e-05
-1.61308e-05
9.64731e-06
-1.76909e-05
9.35821e-06
-1.89847e-05
8.88473e-06
-1.99578e-05
8.37856e-06
-2.06731e-05
7.84237e-06
-2.1096e-05
7.01046e-06
-2.11424e-05
5.72449e-06
-2.08216e-05
3.92635e-06
-2.02356e-05
1.61027e-06
-1.94428e-05
-1.11627e-06
-1.84984e-05
-3.94579e-06
-1.77776e-05
-6.17838e-06
-1.78881e-05
-7.17221e-06
-1.9459e-05
-6.33741e-06
-2.25083e-05
-4.70243e-06
-2.50965e-05
-6.19314e-06
-1.03601e-05
-2.5779e-05
-7.55366e-06
2.05057e-05
-5.50827e-06
9.83011e-06
-6.37434e-06
1.19814e-05
-1.09776e-05
1.54314e-05
-1.50783e-05
1.45844e-05
-1.87537e-05
1.37807e-05
-2.08717e-05
1.17654e-05
-2.16762e-05
1.01627e-05
-2.22555e-05
9.46397e-06
-2.22093e-05
8.3324e-06
-2.20126e-05
7.64567e-06
-2.15621e-05
6.55996e-06
-2.03302e-05
4.49257e-06
-1.87196e-05
2.31572e-06
-1.75225e-05
4.13146e-07
-1.64747e-05
-2.1641e-06
-1.53001e-05
-5.1204e-06
-1.45673e-05
-6.9112e-06
-1.7044e-05
-4.69557e-06
-2.19278e-05
-1.45358e-06
-2.54863e-05
-1.14396e-06
-2.44961e-05
-7.18339e-06
-1.4348e-05
-2.05083e-05
-1.50432e-05
3.5549e-05
-1.99457e-05
1.47324e-05
-2.35448e-05
1.55807e-05
-3.28667e-05
2.47534e-05
-4.21171e-05
2.38346e-05
-4.69076e-05
1.85714e-05
-5.03347e-05
1.51926e-05
-5.30599e-05
1.28879e-05
-5.0649e-05
7.05305e-06
-4.48011e-05
2.4844e-06
-3.79077e-05
7.52242e-07
-3.04334e-05
-9.14315e-07
-2.27549e-05
-3.18595e-06
-1.66212e-05
-3.81784e-06
-1.47532e-05
-1.4549e-06
-1.51279e-05
-1.7895e-06
-1.50329e-05
-5.21543e-06
-1.85184e-05
-3.42568e-06
-2.77329e-05
4.51903e-06
-3.87266e-05
9.54024e-06
-3.91209e-05
-7.49689e-07
-2.81834e-05
-1.8121e-05
-2.49598e-05
-1.75716e-05
-1.80615e-05
5.36107e-05
-3.16254e-05
2.82963e-05
-3.90013e-05
2.29567e-05
-4.44249e-05
3.01772e-05
-4.95637e-05
2.89732e-05
-5.35096e-05
2.25174e-05
-6.01422e-05
2.18252e-05
-6.45926e-05
1.73383e-05
-6.0492e-05
2.9526e-06
-5.53279e-05
-2.6797e-06
-4.98679e-05
-4.70777e-06
-4.40958e-05
-6.6865e-06
-3.78852e-05
-9.39643e-06
-3.20765e-05
-9.62665e-06
-2.95471e-05
-3.98432e-06
-2.60553e-05
-5.28142e-06
-2.19832e-05
-9.28736e-06
-2.11607e-05
-4.24808e-06
-2.66867e-05
1.0045e-05
-3.32068e-05
1.60603e-05
-2.90532e-05
-4.90313e-06
-2.33049e-05
-2.38691e-05
-3.05029e-05
-1.77619e-05
-1.60309e-05
6.96418e-05
-3.52338e-05
4.74996e-05
-4.5137e-05
3.28601e-05
-4.83729e-05
3.34132e-05
-5.13328e-05
3.19333e-05
-5.64796e-05
2.76642e-05
-6.14679e-05
2.68135e-05
-6.02947e-05
1.61651e-05
-5.767e-05
3.27719e-07
-5.50447e-05
-5.30502e-06
-5.30781e-05
-6.67441e-06
-5.14877e-05
-8.27683e-06
-4.95853e-05
-1.12988e-05
-4.78623e-05
-1.13497e-05
-4.38664e-05
-7.98021e-06
-3.66917e-05
-1.24561e-05
-2.99495e-05
-1.60295e-05
-2.33012e-05
-1.08964e-05
-2.00121e-05
6.7561e-06
-2.19826e-05
1.80309e-05
-1.98444e-05
-7.0414e-06
-1.7406e-05
-2.63076e-05
-3.23345e-05
-1.55744e-05
-1.28613e-05
8.25033e-05
-2.71906e-05
6.18293e-05
-4.10548e-05
4.67242e-05
-4.82419e-05
4.06004e-05
-5.31392e-05
3.6831e-05
-5.68098e-05
3.13349e-05
-5.32719e-05
2.32757e-05
-4.85673e-05
1.14604e-05
-4.8396e-05
1.56446e-07
-4.9407e-05
-4.29398e-06
-5.09971e-05
-5.08427e-06
-5.29086e-05
-6.36531e-06
-5.34028e-05
-1.08047e-05
-5.22524e-05
-1.25e-05
-4.85828e-05
-1.16498e-05
-4.29327e-05
-1.81062e-05
-3.67781e-05
-2.21841e-05
-2.99259e-05
-1.77486e-05
-2.10302e-05
-2.13953e-06
-1.4449e-05
1.14496e-05
-1.28612e-05
-8.62931e-06
-1.20642e-05
-2.71045e-05
-2.83375e-05
-1.60611e-05
-7.68995e-06
9.01939e-05
-1.89053e-05
7.30453e-05
-3.12544e-05
5.90735e-05
-4.15044e-05
5.08504e-05
-4.80349e-05
4.33612e-05
-4.75989e-05
3.08988e-05
-4.26532e-05
1.83301e-05
-3.85701e-05
7.37727e-06
-3.85325e-05
1.18766e-07
-4.0084e-05
-2.74256e-06
-4.16793e-05
-3.48902e-06
-4.37185e-05
-4.32604e-06
-4.74155e-05
-7.10777e-06
-4.95884e-05
-1.03272e-05
-4.76873e-05
-1.35511e-05
-4.38231e-05
-2.19705e-05
-4.02308e-05
-2.57764e-05
-3.59616e-05
-2.20179e-05
-2.86463e-05
-9.45479e-06
-1.44194e-05
-2.77727e-06
-9.98035e-06
-1.30683e-05
-1.52889e-05
-2.17961e-05
-2.1985e-05
-2.16413e-05
-4.3401e-06
9.45341e-05
-1.17363e-05
8.04415e-05
-2.09327e-05
6.82702e-05
-2.9288e-05
5.92061e-05
-3.46607e-05
4.87339e-05
-3.45786e-05
3.08167e-05
-3.26024e-05
1.63537e-05
-3.13552e-05
6.12995e-06
-3.08883e-05
-3.48282e-07
-3.08427e-05
-2.78839e-06
-3.04063e-05
-3.92554e-06
-3.15688e-05
-3.16364e-06
-3.52142e-05
-3.46251e-06
-3.87411e-05
-6.80007e-06
-3.82371e-05
-1.4055e-05
-3.87646e-05
-2.14429e-05
-3.97924e-05
-2.47486e-05
-3.94928e-05
-2.23174e-05
-3.35294e-05
-1.54182e-05
-2.45515e-05
-1.17555e-05
-2.19288e-05
-1.56911e-05
-2.38959e-05
-1.98291e-05
-2.00722e-05
-2.58091e-05
-1.3784e-06
9.59129e-05
-5.18245e-06
8.42454e-05
-1.01447e-05
7.3232e-05
-1.47697e-05
6.38307e-05
-1.79498e-05
5.1914e-05
-2.0241e-05
3.31079e-05
-2.14293e-05
1.7542e-05
-2.27798e-05
7.48027e-06
-2.44298e-05
1.30156e-06
-2.50039e-05
-2.21435e-06
-2.46723e-05
-4.25719e-06
-2.43868e-05
-3.44912e-06
-2.56702e-05
-2.17899e-06
-2.83017e-05
-4.16867e-06
-2.91157e-05
-1.3241e-05
-2.93389e-05
-2.12196e-05
-2.93942e-05
-2.46932e-05
-2.86536e-05
-2.30581e-05
-2.70587e-05
-1.70131e-05
-2.45144e-05
-1.42999e-05
-2.40135e-05
-1.61922e-05
-2.49477e-05
-1.88949e-05
-1.96342e-05
-2.53857e-05
1.76526e-06
9.41479e-05
1.0691e-06
8.49414e-05
-1.6968e-08
7.43183e-05
-8.24513e-07
6.4638e-05
-1.54932e-06
5.26389e-05
-4.68364e-06
3.6242e-05
-8.61249e-06
2.14708e-05
-1.23304e-05
1.11981e-05
-1.5886e-05
4.85716e-06
-1.81547e-05
5.43258e-08
-1.92284e-05
-3.1837e-06
-1.91625e-05
-3.51519e-06
-1.88273e-05
-2.51408e-06
-1.91476e-05
-3.84835e-06
-2.01855e-05
-1.22032e-05
-2.1381e-05
-2.0024e-05
-2.22672e-05
-2.38069e-05
-2.28519e-05
-2.24735e-05
-2.26472e-05
-1.72179e-05
-2.19049e-05
-1.50424e-05
-2.19411e-05
-1.61561e-05
-2.25235e-05
-1.83127e-05
-1.95027e-05
-2.26553e-05
4.65525e-06
8.94929e-05
6.31062e-06
8.32858e-05
7.90674e-06
7.27222e-05
9.52231e-06
6.30223e-05
1.03189e-05
5.18425e-05
8.25594e-06
3.83048e-05
4.18624e-06
2.55402e-05
-3.60217e-07
1.57443e-05
-4.33688e-06
8.83359e-06
-7.82893e-06
3.54612e-06
-1.07077e-05
-3.05008e-07
-1.20638e-05
-2.15919e-06
-1.1802e-05
-2.77573e-06
-1.07437e-05
-4.90651e-06
-1.19795e-05
-1.09673e-05
-1.40604e-05
-1.7943e-05
-1.63258e-05
-2.15415e-05
-1.84549e-05
-2.03443e-05
-1.85259e-05
-1.7147e-05
-1.79891e-05
-1.55793e-05
-1.80055e-05
-1.61398e-05
-1.85703e-05
-1.77479e-05
-1.92126e-05
-1.88603e-05
6.57116e-06
8.29211e-05
1.00309e-05
7.98261e-05
1.3121e-05
6.96315e-05
1.58256e-05
6.03179e-05
1.73455e-05
5.03223e-05
1.6489e-05
3.91609e-05
1.362e-05
2.84087e-05
9.9257e-06
1.94384e-05
6.29997e-06
1.24593e-05
2.91426e-06
6.93177e-06
-7.87232e-08
2.68791e-06
-2.09194e-06
-1.4594e-07
-2.71485e-06
-2.15273e-06
-2.68611e-06
-4.93522e-06
-3.90779e-06
-9.74561e-06
-6.89017e-06
-1.49606e-05
-1.03429e-05
-1.80888e-05
-1.25354e-05
-1.81518e-05
-1.30652e-05
-1.66171e-05
-1.29498e-05
-1.56947e-05
-1.30839e-05
-1.60059e-05
-1.37258e-05
-1.7106e-05
-1.85153e-05
-1.44231e-05
7.47653e-06
7.54442e-05
1.21757e-05
7.51268e-05
1.60379e-05
6.57691e-05
1.92003e-05
5.71557e-05
2.11615e-05
4.83605e-05
2.12595e-05
3.90627e-05
1.96542e-05
3.00138e-05
1.70761e-05
2.20164e-05
1.41912e-05
1.53442e-05
1.12907e-05
9.83215e-06
8.60439e-06
5.3742e-06
6.53572e-06
1.92276e-06
5.31573e-06
-9.32596e-07
4.44396e-06
-4.06333e-06
2.77637e-06
-8.07789e-06
-4.10763e-08
-1.21431e-05
-3.23232e-06
-1.48975e-05
-5.63201e-06
-1.57522e-05
-6.81517e-06
-1.5434e-05
-7.33772e-06
-1.51722e-05
-7.84599e-06
-1.54976e-05
-8.60094e-06
-1.6351e-05
-1.74635e-05
-9.6527e-06
7.55986e-06
6.78848e-05
1.29901e-05
6.96963e-05
1.72389e-05
6.15205e-05
2.05964e-05
5.37981e-05
2.28255e-05
4.61309e-05
2.36047e-05
3.82833e-05
2.30091e-05
3.06095e-05
2.14569e-05
2.35687e-05
1.94043e-05
1.73966e-05
1.71452e-05
1.2091e-05
1.49172e-05
7.6021e-06
1.29906e-05
3.84936e-06
1.1489e-05
5.68934e-07
1.01231e-05
-2.69752e-06
8.27159e-06
-6.22641e-06
5.7332e-06
-9.60467e-06
2.95248e-06
-1.21168e-05
6.2688e-07
-1.34266e-05
-9.24534e-07
-1.38826e-05
-1.9469e-06
-1.41497e-05
-2.8273e-06
-1.46171e-05
-3.82893e-06
-1.53492e-05
-1.62557e-05
-5.0367e-06
7.08527e-06
6.07996e-05
1.28085e-05
6.39728e-05
1.72166e-05
5.71129e-05
2.06458e-05
5.03687e-05
2.30463e-05
4.37305e-05
2.42883e-05
3.70414e-05
2.44236e-05
3.04743e-05
2.36951e-05
2.4297e-05
2.24029e-05
1.86885e-05
2.07916e-05
1.37021e-05
1.90652e-05
9.32845e-06
1.74071e-05
5.5075e-06
1.5894e-05
2.08195e-06
1.43778e-05
-1.18133e-06
1.25525e-05
-4.40116e-06
1.0318e-05
-7.37012e-06
7.92465e-06
-9.72336e-06
5.77586e-06
-1.12777e-05
4.09128e-06
-1.2198e-05
2.78213e-06
-1.28405e-05
1.63002e-06
-1.34648e-05
4.44406e-07
-1.41636e-05
-1.49236e-05
-8.87693e-07
6.31065e-06
5.44888e-05
1.19765e-05
5.83071e-05
1.6383e-05
5.27067e-05
1.98141e-05
4.69374e-05
2.23185e-05
4.12263e-05
2.38691e-05
3.54911e-05
2.45151e-05
2.98284e-05
2.44074e-05
2.44045e-05
2.37435e-05
1.93524e-05
2.27078e-05
1.47379e-05
2.14603e-05
1.0576e-05
2.01309e-05
6.83711e-06
1.87763e-05
3.43683e-06
1.73331e-05
2.61987e-07
1.56663e-05
-2.73421e-06
1.37394e-05
-5.44331e-06
1.16976e-05
-7.68151e-06
9.7724e-06
-9.35241e-06
8.10993e-06
-1.05354e-05
6.69089e-06
-1.14213e-05
5.40006e-06
-1.2174e-05
4.11241e-06
-1.2876e-05
-1.35485e-05
2.7373e-06
5.4551e-06
4.90334e-05
1.08141e-05
5.29485e-05
1.50925e-05
4.84282e-05
1.84694e-05
4.35605e-05
2.10222e-05
3.86738e-05
2.27713e-05
3.3742e-05
2.37668e-05
2.8833e-05
2.4111e-05
2.40602e-05
2.39374e-05
1.95259e-05
2.33799e-05
1.52955e-05
2.25582e-05
1.13978e-05
2.15672e-05
7.82816e-06
2.04546e-05
4.54945e-06
1.92045e-05
1.51219e-06
1.77678e-05
-1.29745e-06
1.61438e-05
-3.81942e-06
1.44224e-05
-5.96008e-06
1.27398e-05
-7.66983e-06
1.11926e-05
-8.98828e-06
9.78907e-06
-1.00179e-05
8.47329e-06
-1.08583e-05
7.16999e-06
-1.15727e-05
-1.21947e-05
5.81616e-06
4.66837e-06
4.43651e-05
9.58232e-06
4.80348e-05
1.3641e-05
4.43691e-05
1.69122e-05
4.02895e-05
1.94601e-05
3.6126e-05
2.13218e-05
3.18804e-05
2.25462e-05
2.76085e-05
2.3209e-05
2.33973e-05
2.34039e-05
1.9331e-05
2.32273e-05
1.54722e-05
2.2767e-05
1.18581e-05
2.20936e-05
8.50143e-06
2.1249e-05
5.39396e-06
2.02411e-05
2.52017e-06
1.90619e-05
-1.1832e-07
1.77282e-05
-2.48572e-06
1.63003e-05
-4.53229e-06
1.48628e-05
-6.23235e-06
1.34805e-05
-7.60602e-06
1.21709e-05
-8.70832e-06
1.09111e-05
-9.59847e-06
9.65995e-06
-1.03214e-05
-1.09119e-05
8.37727e-06
4.02712e-06
4.03383e-05
8.4604e-06
4.36014e-05
1.225e-05
4.05796e-05
1.53714e-05
3.71684e-05
1.78622e-05
3.3635e-05
1.97632e-05
2.99794e-05
2.11222e-05
2.62494e-05
2.19989e-05
2.25206e-05
2.24614e-05
1.88686e-05
2.25788e-05
1.5355e-05
2.24151e-05
1.20221e-05
2.20229e-05
8.89376e-06
2.1438e-05
5.97879e-06
2.06787e-05
3.2795e-06
1.97556e-05
8.04814e-07
1.86916e-05
-1.42179e-06
1.75311e-05
-3.37173e-06
1.63296e-05
-5.03089e-06
1.51328e-05
-6.40911e-06
1.39602e-05
-7.53558e-06
1.28066e-05
-8.44477e-06
1.16527e-05
-9.16748e-06
-9.73496e-06
1.04759e-05
3.5479e-06
3.67906e-05
7.54339e-06
3.96053e-05
1.1056e-05
3.70675e-05
1.3995e-05
3.42294e-05
1.63792e-05
3.12507e-05
1.82559e-05
2.81026e-05
1.96745e-05
2.48308e-05
2.0684e-05
2.1511e-05
2.1334e-05
1.82187e-05
2.16731e-05
1.50161e-05
2.17464e-05
1.1949e-05
2.15927e-05
9.04755e-06
2.12417e-05
6.3297e-06
2.07144e-05
3.80674e-06
2.00284e-05
1.49076e-06
1.92077e-05
-6.01086e-07
1.82866e-05
-2.4506e-06
1.73045e-05
-4.04877e-06
1.62951e-05
-5.39961e-06
1.52776e-05
-6.51796e-06
1.42563e-05
-7.42337e-06
1.32255e-05
-8.13655e-06
-8.68428e-06
1.21749e-05
3.1986e-06
3.35919e-05
6.84733e-06
3.59563e-05
1.0108e-05
3.38073e-05
1.28441e-05
3.1493e-05
1.50779e-05
2.90168e-05
1.68794e-05
2.63011e-05
1.83026e-05
2.34074e-05
1.93867e-05
2.04268e-05
2.01648e-05
1.74406e-05
2.06683e-05
1.45125e-05
2.09276e-05
1.16897e-05
2.09702e-05
9.00487e-06
2.082e-05
6.47983e-06
2.04969e-05
4.12967e-06
2.00203e-05
1.9674e-06
1.94125e-05
6.67973e-09
1.87016e-05
-1.73957e-06
1.79172e-05
-3.2643e-06
1.70858e-05
-4.56804e-06
1.62255e-05
-5.65751e-06
1.53454e-05
-6.54324e-06
1.44481e-05
-7.23908e-06
-7.76777e-06
1.35316e-05
2.92301e-06
3.06683e-05
6.31366e-06
3.25658e-05
9.36648e-06
3.07541e-05
1.18838e-05
2.89754e-05
1.39406e-05
2.69602e-05
1.56396e-05
2.46022e-05
1.70392e-05
2.20079e-05
1.81644e-05
1.93017e-05
1.90319e-05
1.65731e-05
1.96584e-05
1.38859e-05
2.00624e-05
1.12856e-05
2.0263e-05
8.80423e-06
2.0279e-05
6.46381e-06
2.01284e-05
4.28021e-06
1.98298e-05
2.26612e-06
1.94036e-05
4.33017e-07
1.88732e-05
-1.20893e-06
1.82624e-05
-2.6533e-06
1.75929e-05
-3.89843e-06
1.68818e-05
-4.94628e-06
1.61406e-05
-5.80197e-06
1.53763e-05
-6.47478e-06
-6.98413e-06
1.45928e-05
2.73312e-06
2.79349e-05
5.83637e-06
2.94627e-05
8.6418e-06
2.7948e-05
1.09821e-05
2.66349e-05
1.287e-05
2.50724e-05
1.44863e-05
2.2986e-05
1.58714e-05
2.06229e-05
1.70313e-05
1.8142e-05
1.79688e-05
1.56358e-05
1.86903e-05
1.31645e-05
1.92066e-05
1.07693e-05
1.95317e-05
8.47912e-06
1.96811e-05
6.31439e-06
1.96713e-05
4.29012e-06
1.95194e-05
2.41814e-06
1.92441e-05
7.0852e-07
1.88653e-05
-8.30021e-07
1.84032e-05
-2.19113e-06
1.78766e-05
-3.37168e-06
1.73011e-05
-4.3708e-06
1.66895e-05
-5.19028e-06
1.60511e-05
-5.83636e-06
-6.3258e-06
1.53928e-05
2.47654e-06
2.54585e-05
5.23807e-06
2.67007e-05
7.72876e-06
2.54567e-05
9.92471e-06
2.44389e-05
1.17489e-05
2.32482e-05
1.33634e-05
2.13715e-05
1.47764e-05
1.921e-05
1.59838e-05
1.69347e-05
1.69839e-05
1.46358e-05
1.77806e-05
1.23678e-05
1.83829e-05
1.01669e-05
1.88032e-05
8.0587e-06
1.90561e-05
6.06146e-06
1.91571e-05
4.18913e-06
1.91225e-05
2.45277e-06
1.89695e-05
8.61675e-07
1.87156e-05
-5.76092e-07
1.83785e-05
-1.85398e-06
1.79747e-05
-2.96783e-06
1.75189e-05
-3.915e-06
1.70239e-05
-4.69519e-06
1.65001e-05
-5.31254e-06
-5.78165e-06
1.59561e-05
2.02425e-06
2.34343e-05
4.50947e-06
2.42148e-05
6.71681e-06
2.32492e-05
8.72684e-06
2.24288e-05
1.0608e-05
2.13668e-05
1.22913e-05
1.96881e-05
1.37645e-05
1.77367e-05
1.50253e-05
1.56738e-05
1.60775e-05
1.35835e-05
1.69296e-05
1.15157e-05
1.75931e-05
9.50334e-06
1.80819e-05
7.56981e-06
1.8411e-05
5.73236e-06
1.85958e-05
4.00434e-06
1.86521e-05
2.39653e-06
1.85958e-05
9.18077e-07
1.84428e-05
-4.23038e-07
1.82088e-05
-1.61993e-06
1.79087e-05
-2.66761e-06
1.75561e-05
-3.56231e-06
1.71633e-05
-4.30235e-06
1.67413e-05
-4.89035e-06
-5.33905e-06
1.62988e-05
1.78262e-06
2.16513e-05
3.85519e-06
2.21417e-05
5.80316e-06
2.13014e-05
7.71244e-06
2.05194e-05
9.63287e-06
1.94463e-05
1.13648e-05
1.79561e-05
1.2876e-05
1.62255e-05
1.41663e-05
1.43835e-05
1.52455e-05
1.25042e-05
1.61271e-05
1.06341e-05
1.68261e-05
8.80439e-06
1.7358e-05
7.0379e-06
1.77387e-05
5.35177e-06
1.79836e-05
3.75956e-06
1.81079e-05
2.27239e-06
1.81264e-05
8.99755e-07
1.80535e-05
-3.50039e-07
1.79034e-05
-1.46967e-06
1.76894e-05
-2.45349e-06
1.74241e-05
-3.29697e-06
1.71194e-05
-3.99751e-06
1.67857e-05
-4.55657e-06
-4.98523e-06
1.6432e-05
1.79917e-06
1.98517e-05
3.48952e-06
2.04516e-05
5.24871e-06
1.95423e-05
7.10585e-06
1.86622e-05
8.95368e-06
1.75985e-05
1.06452e-05
1.62647e-05
1.213e-05
1.47407e-05
1.34026e-05
1.31109e-05
1.44724e-05
1.14345e-05
1.53536e-05
9.75291e-06
1.60622e-05
8.09596e-06
1.6614e-05
6.48616e-06
1.70249e-05
4.94106e-06
1.73097e-05
3.47486e-06
1.74828e-05
2.09942e-06
1.75578e-05
8.24926e-07
1.75476e-05
-3.39725e-07
1.74647e-05
-1.38677e-06
1.73214e-05
-2.31007e-06
1.71291e-05
-3.10461e-06
1.68989e-05
-3.7672e-06
1.66408e-05
-4.29844e-06
-4.70784e-06
1.63635e-05
1.75085e-06
1.81008e-05
3.40113e-06
1.88017e-05
5.08157e-06
1.78618e-05
6.81478e-06
1.69291e-05
8.51905e-06
1.58944e-05
1.00944e-05
1.46895e-05
1.14926e-05
1.33426e-05
1.27022e-05
1.19013e-05
1.3728e-05
1.04087e-05
1.45816e-05
8.8994e-06
1.5277e-05
7.40059e-06
1.58291e-05
5.93409e-06
1.62525e-05
4.51772e-06
1.6561e-05
3.16641e-06
1.67675e-05
1.89292e-06
1.68842e-05
7.08316e-07
1.69222e-05
-3.7783e-07
1.68929e-05
-1.3574e-06
1.68068e-05
-2.22396e-06
1.66745e-05
-2.97232e-06
1.65064e-05
-3.599e-06
1.6312e-05
-4.10397e-06
-4.49527e-06
1.60995e-05
1.72618e-06
1.63749e-05
3.40571e-06
1.71223e-05
5.03216e-06
1.62353e-05
6.6383e-06
1.53231e-05
8.18557e-06
1.43472e-05
9.61653e-06
1.32585e-05
1.08975e-05
1.20616e-05
1.20166e-05
1.07822e-05
1.29751e-05
9.45023e-06
1.37813e-05
8.09322e-06
1.44467e-05
6.73516e-06
1.49842e-05
5.3966e-06
1.54066e-05
4.0953e-06
1.57261e-05
2.84685e-06
1.5954e-05
1.66498e-06
1.61006e-05
5.61718e-07
1.61753e-05
-4.52668e-07
1.61878e-05
-1.36987e-06
1.61474e-05
-2.18349e-06
1.60636e-05
-2.88852e-06
1.59462e-05
-3.48151e-06
1.58043e-05
-3.96198e-06
-4.33659e-06
1.56457e-05
1.69897e-06
1.46762e-05
3.38292e-06
1.54381e-05
4.95077e-06
1.46673e-05
6.43785e-06
1.38359e-05
7.83795e-06
1.2947e-05
9.12611e-06
1.19702e-05
1.02834e-05
1.09042e-05
1.13015e-05
9.76402e-06
1.21811e-05
8.57062e-06
1.29283e-05
7.34595e-06
1.35527e-05
6.11077e-06
1.40651e-05
4.8842e-06
1.44766e-05
3.68381e-06
1.47977e-05
2.52581e-06
1.50376e-05
1.425e-06
1.52048e-05
3.94531e-07
1.53068e-05
-5.54602e-07
1.53511e-05
-1.41417e-06
1.5346e-05
-2.17832e-06
1.53002e-05
-2.84266e-06
1.52229e-05
-3.40412e-06
1.5123e-05
-3.86198e-06
-4.22154e-06
1.50081e-05
1.64281e-06
1.30332e-05
3.28542e-06
1.37951e-05
4.77569e-06
1.31769e-05
6.14879e-06
1.24626e-05
7.41641e-06
1.16792e-05
8.57318e-06
1.08133e-05
9.61175e-06
9.86557e-06
1.05288e-05
8.84695e-06
1.13259e-05
7.77351e-06
1.20087e-05
6.66316e-06
1.25854e-05
5.53407e-06
1.30656e-05
4.40409e-06
1.34588e-05
3.29064e-06
1.3774e-05
2.21069e-06
1.40187e-05
1.18041e-06
1.41989e-05
2.14409e-07
1.43198e-05
-6.75415e-07
1.4387e-05
-1.48132e-06
1.44075e-05
-2.19878e-06
1.43896e-05
-2.82467e-06
1.43422e-05
-3.35663e-06
1.42742e-05
-3.79384e-06
-4.14027e-06
1.4193e-05
1.55226e-06
1.14806e-05
3.10735e-06
1.22398e-05
4.49938e-06
1.17847e-05
5.75947e-06
1.12024e-05
6.90575e-06
1.05327e-05
7.94278e-06
9.77616e-06
8.8707e-06
8.93759e-06
9.69042e-06
8.02722e-06
1.04053e-05
7.05865e-06
1.10212e-05
6.04727e-06
1.1546e-05
5.00933e-06
1.19884e-05
3.96172e-06
1.23572e-05
2.92188e-06
1.26601e-05
1.90783e-06
1.2903e-05
9.37639e-07
1.30893e-05
2.81148e-08
1.32214e-05
-8.07468e-07
1.33027e-05
-1.56251e-06
1.33391e-05
-2.23513e-06
1.33388e-05
-2.82434e-06
1.33111e-05
-3.32883e-06
1.32651e-05
-3.74764e-06
-4.08325e-06
1.32082e-05
1.43229e-06
1.00482e-05
2.86595e-06
1.08062e-05
4.14337e-06
1.05073e-05
5.28899e-06
1.00567e-05
6.32052e-06
9.50118e-06
7.24621e-06
8.85047e-06
8.07037e-06
8.11343e-06
8.79678e-06
7.3008e-06
9.4304e-06
6.42503e-06
9.97775e-06
5.49993e-06
1.04467e-05
4.54037e-06
1.0846e-05
3.56246e-06
1.1184e-05
2.58385e-06
1.14679e-05
1.62389e-06
1.17022e-05
7.03348e-07
1.18878e-05
-1.575e-07
1.2023e-05
-9.42725e-07
1.21086e-05
-1.64809e-06
1.21502e-05
-2.27666e-06
1.21567e-05
-2.83077e-06
1.21382e-05
-3.3102e-06
1.21042e-05
-3.71352e-06
-4.04133e-06
1.20625e-05
1.29477e-06
8.75355e-06
2.58871e-06
9.51236e-06
3.74234e-06
9.35369e-06
4.7722e-06
9.02691e-06
5.69249e-06
8.58098e-06
6.51204e-06
8.03098e-06
7.23699e-06
7.38851e-06
7.87283e-06
6.66497e-06
8.42554e-06
5.87234e-06
8.90212e-06
5.02335e-06
9.31069e-06
4.13179e-06
9.66016e-06
3.21297e-06
9.95942e-06
2.28454e-06
1.02159e-05
1.36733e-06
1.04335e-05
4.85676e-07
1.06105e-05
-3.34529e-07
1.07395e-05
-1.07173e-06
1.08178e-05
-1.72639e-06
1.0852e-05
-2.31085e-06
1.08532e-05
-2.83193e-06
1.08331e-05
-3.28996e-06
1.08018e-05
-3.68199e-06
-4.00609e-06
1.07668e-05
1.15561e-06
7.59806e-06
2.30747e-06
8.36043e-06
3.33617e-06
8.32504e-06
4.25083e-06
8.11237e-06
5.06216e-06
7.76974e-06
5.77868e-06
7.31452e-06
6.40729e-06
6.75994e-06
6.95416e-06
6.11815e-06
7.42555e-06
5.40101e-06
7.82842e-06
4.62055e-06
8.17083e-06
3.78944e-06
8.46198e-06
2.92184e-06
8.71175e-06
2.03478e-06
8.92911e-06
1.14993e-06
9.11894e-06
2.95803e-07
9.27732e-06
-4.92947e-07
9.38792e-06
-1.18236e-06
9.44393e-06
-1.7824e-06
9.45575e-06
-2.32263e-06
9.43873e-06
-2.81481e-06
9.40656e-06
-3.25765e-06
9.36949e-06
-3.64473e-06
-3.97056e-06
9.33416e-06
1.03464e-06
6.5634e-06
2.05685e-06
7.33805e-06
2.96637e-06
7.41553e-06
3.76839e-06
7.3104e-06
4.47285e-06
7.0653e-06