/*--------------------------------*- C++ -*----------------------------------*\
| =========                 |                                                 |
| \\      /  F ield         | OpenFOAM: The Open Source CFD Toolbox           |
|  \\    /   O peration     | Version:  2.3.0                                 |
|   \\  /    A nd           | Web:      www.OpenFOAM.org                      |
|    \\/     M anipulation  |                                                 |
\*---------------------------------------------------------------------------*/
FoamFile
{
    version     2.0;
    format      ascii;
    class       volVectorField;
    location    "2.6";
    object      U;
}
// * * * * * * * * * * * * * * * * * * * * * * * * * * * * * * * * * * * * * //

dimensions      [0 1 -1 0 0 0 0];

internalField   nonuniform List<vector> 
2268
(
(-0.00585423 0.00254622 0)
(-0.0121231 0.00235326 0)
(-0.0200763 0.00215984 0)
(-0.0273204 0.00209847 0)
(-0.0344365 0.00215478 0)
(-0.0414821 0.00223325 0)
(-0.0485076 0.00230248 0)
(-0.0555021 0.00234685 0)
(-0.0623997 0.00234904 0)
(-0.0690939 0.00230002 0)
(-0.0754543 0.00219103 0)
(-0.0812918 0.00199302 0)
(-0.0862902 0.00164295 0)
(-0.0899061 0.00100155 0)
(-0.0911567 -0.000145179 0)
(-0.0884172 -0.00166945 0)
(-0.0816667 -0.00278945 0)
(-0.0731648 -0.00280786 0)
(-0.0615229 -0.00479398 0)
(-0.0420662 -0.00879759 0)
(-0.0155928 -0.0104482 0)
(0.0116288 -0.00680137 0)
(0.0132257 0.00375985 0)
(-0.00602235 0.00597319 0)
(-0.0124868 0.00574208 0)
(-0.0198446 0.00553628 0)
(-0.0270623 0.00530558 0)
(-0.0340714 0.00521993 0)
(-0.0409603 0.0051988 0)
(-0.0478092 0.00519357 0)
(-0.0546493 0.00516253 0)
(-0.061446 0.00506803 0)
(-0.0681285 0.00488943 0)
(-0.0745932 0.00459428 0)
(-0.0806466 0.00410391 0)
(-0.0859399 0.00328086 0)
(-0.0899227 0.00189726 0)
(-0.0918058 -0.000306957 0)
(-0.0908357 -0.00320925 0)
(-0.0863749 -0.00581447 0)
(-0.0779735 -0.00748654 0)
(-0.0647265 -0.0115675 0)
(-0.0457998 -0.0173061 0)
(-0.0221116 -0.0193225 0)
(0.00300675 -0.01168 0)
(0.0083057 0.0091447 0)
(-0.00544615 0.0100405 0)
(-0.0124054 0.00904342 0)
(-0.0193817 0.00873328 0)
(-0.0263655 0.00841696 0)
(-0.0331006 0.00824367 0)
(-0.0397066 0.00817468 0)
(-0.0462832 0.00815312 0)
(-0.0528867 0.00811335 0)
(-0.0595063 0.0079962 0)
(-0.0661014 0.00776847 0)
(-0.0726001 0.0073676 0)
(-0.0788344 0.00665766 0)
(-0.0844869 0.00542605 0)
(-0.0890743 0.00337325 0)
(-0.0919623 0.00022451 0)
(-0.0925063 -0.0039624 0)
(-0.0898105 -0.00826945 0)
(-0.082467 -0.0122253 0)
(-0.0698526 -0.0186238 0)
(-0.0521663 -0.0263618 0)
(-0.029513 -0.0296475 0)
(-0.00397597 -0.0194415 0)
(0.00707809 0.0105802 0)
(-0.00484819 0.0141007 0)
(-0.0122113 0.0124843 0)
(-0.0190702 0.0119923 0)
(-0.0259161 0.0115683 0)
(-0.0324788 0.011306 0)
(-0.0389141 0.0111985 0)
(-0.0453407 0.0111792 0)
(-0.0518301 0.0111565 0)
(-0.0583853 0.0110499 0)
(-0.064987 0.0108151 0)
(-0.0715921 0.0103578 0)
(-0.0780552 0.00948422 0)
(-0.0840857 0.00791162 0)
(-0.089245 0.00527204 0)
(-0.0929695 0.00124626 0)
(-0.0946655 -0.00414077 0)
(-0.0934268 -0.0102004 0)
(-0.0876629 -0.0166065 0)
(-0.0767031 -0.0254124 0)
(-0.0608799 -0.0355999 0)
(-0.0394004 -0.0411737 0)
(-0.0128166 -0.0295771 0)
(0.0069773 0.0108493 0)
(-0.0043813 0.0179656 0)
(-0.0120398 0.0159824 0)
(-0.0189728 0.0152688 0)
(-0.02583 0.0147143 0)
(-0.0323679 0.0143602 0)
(-0.0387735 0.0142219 0)
(-0.0451863 0.0142204 0)
(-0.0516871 0.0142355 0)
(-0.0582841 0.014165 0)
(-0.0649744 0.0139592 0)
(-0.0717431 0.0134915 0)
(-0.0784635 0.0125082 0)
(-0.084863 0.0106594 0)
(-0.0905292 0.00751156 0)
(-0.0949253 0.00270086 0)
(-0.0974693 -0.00378704 0)
(-0.097361 -0.0114758 0)
(-0.0932615 -0.020182 0)
(-0.084581 -0.0312794 0)
(-0.0716131 -0.0439576 0)
(-0.0530566 -0.0526939 0)
(-0.0273681 -0.0421596 0)
(0.0019783 0.00936621 0)
(-0.00412056 0.0217217 0)
(-0.0120866 0.0195428 0)
(-0.0192577 0.0185887 0)
(-0.0262989 0.0178797 0)
(-0.0329821 0.017425 0)
(-0.0395156 0.0172593 0)
(-0.0460579 0.0172856 0)
(-0.0526936 0.0173509 0)
(-0.0594268 0.0173325 0)
(-0.0662671 0.0171828 0)
(-0.0732257 0.0167421 0)
(-0.0801881 0.0156932 0)
(-0.086889 0.0136197 0)
(-0.0929278 0.0100237 0)
(-0.0977732 0.00449686 0)
(-0.100858 -0.00300601 0)
(-0.101531 -0.0121276 0)
(-0.0988738 -0.0227506 0)
(-0.0926765 -0.0357247 0)
(-0.0835637 -0.0504417 0)
(-0.0704302 -0.0625712 0)
(-0.0503605 -0.0561877 0)
(-0.0157598 0.00286356 0)
(-0.00413625 0.0255185 0)
(-0.0125369 0.0232572 0)
(-0.0201165 0.0220468 0)
(-0.0275304 0.0211561 0)
(-0.0345443 0.0205821 0)
(-0.0413734 0.0203812 0)
(-0.04819 0.0204327 0)
(-0.0550751 0.0205441 0)
(-0.0620181 0.0205736 0)
(-0.0690355 0.0204871 0)
(-0.0761621 0.0200877 0)
(-0.0832842 0.0189904 0)
(-0.0901326 0.016713 0)
(-0.0963082 0.0126916 0)
(-0.10128 0.00647739 0)
(-0.104512 -0.00197414 0)
(-0.10554 -0.0123274 0)
(-0.103924 -0.0244058 0)
(-0.100002 -0.0385982 0)
(-0.0950648 -0.0542834 0)
(-0.0890824 -0.0685871 0)
(-0.080536 -0.0700237 0)
(-0.0541518 -0.0247898 0)
(-0.00449555 0.0295395 0)
(-0.0134968 0.0273086 0)
(-0.0216694 0.0258614 0)
(-0.0296397 0.0247628 0)
(-0.0371717 0.0240441 0)
(-0.0444647 0.0237807 0)
(-0.051694 0.0238238 0)
(-0.0589265 0.0239385 0)
(-0.0661257 0.0239611 0)
(-0.0733049 0.0238964 0)
(-0.0805122 0.0234997 0)
(-0.0876261 0.0223102 0)
(-0.0943668 0.0197838 0)
(-0.100334 0.0152924 0)
(-0.105002 0.00835684 0)
(-0.107894 -0.00101841 0)
(-0.108758 -0.0124158 0)
(-0.107627 -0.025474 0)
(-0.105398 -0.040073 0)
(-0.104028 -0.0552227 0)
(-0.104795 -0.0691101 0)
(-0.110781 -0.0791387 0)
(-0.109506 -0.0680767 0)
(-0.0218601 0.00606837 0)
(-0.00926211 -0.00898936 0)
(0.0251998 -0.0121688 0)
(0.0574049 -0.0115452 0)
(0.0882265 -0.0105907 0)
(0.116166 -0.00925497 0)
(0.13631 -0.00651022 0)
(0.145984 -0.00121059 0)
(0.129213 0.0113498 0)
(0.0766116 0.0157744 0)
(0.0352129 0.00519096 0)
(0.0322091 0.00255819 0)
(0.0161428 0.013184 0)
(-0.0479583 0.0181363 0)
(-0.105 0.011372 0)
(-0.120532 -0.00283437 0)
(-0.0943105 -0.0147213 0)
(-0.0542296 -0.0161452 0)
(-0.0135016 -0.00726447 0)
(-0.0124573 0.0100208 0)
(0.00807259 -0.0173729 0)
(0.0320539 -0.0210205 0)
(0.0544129 -0.0200182 0)
(0.0769038 -0.0185564 0)
(0.0974911 -0.0152503 0)
(0.109608 -0.00800181 0)
(0.109324 0.00230795 0)
(0.102567 0.0221382 0)
(0.0720555 0.0290793 0)
(0.0394784 0.0130556 0)
(0.0282304 0.00839527 0)
(0.0129246 0.0252879 0)
(-0.031904 0.0358776 0)
(-0.0716348 0.0252737 0)
(-0.0818909 -0.000340461 0)
(-0.0747607 -0.0198894 0)
(-0.0564826 -0.027094 0)
(-0.0268561 -0.0212684 0)
(0.00106965 0.00804836 0)
(0.0177839 -0.0248392 0)
(0.0334842 -0.0281003 0)
(0.0491694 -0.0272332 0)
(0.0661045 -0.0256524 0)
(0.0817976 -0.0204529 0)
(0.0891342 -0.0087382 0)
(0.0832181 0.00526551 0)
(0.0729806 0.0275699 0)
(0.0561639 0.0375791 0)
(0.0365062 0.0206155 0)
(0.0246537 0.0142475 0)
(0.0121592 0.0339162 0)
(-0.0105443 0.046664 0)
(-0.0343604 0.0347515 0)
(-0.0483755 0.00260065 0)
(-0.0512666 -0.0217373 0)
(-0.0468107 -0.0344797 0)
(-0.0274216 -0.039367 0)
(0.0111497 0.00205463 0)
(0.022157 -0.0302519 0)
(0.0312769 -0.0333155 0)
(0.0419976 -0.0330943 0)
(0.0548293 -0.0316482 0)
(0.0672328 -0.0245993 0)
(0.0716487 -0.0082367 0)
(0.0630927 0.00968228 0)
(0.0518295 0.0322269 0)
(0.0427951 0.042531 0)
(0.0326082 0.0263574 0)
(0.0231028 0.0190102 0)
(0.0154146 0.039177 0)
(0.00664183 0.0524751 0)
(-0.00536137 0.0416904 0)
(-0.018015 0.00746035 0)
(-0.0263659 -0.0204221 0)
(-0.0307542 -0.0375257 0)
(-0.0197843 -0.0537772 0)
(0.0160216 -0.00651177 0)
(0.0212631 -0.0331229 0)
(0.0256473 -0.0364456 0)
(0.0328042 -0.0374258 0)
(0.0426068 -0.0364599 0)
(0.0529875 -0.0278873 0)
(0.0560507 -0.00684693 0)
(0.0463905 0.014371 0)
(0.0359117 0.0358591 0)
(0.0325437 0.0445678 0)
(0.0293993 0.02982 0)
(0.0239118 0.0220572 0)
(0.0210578 0.0410942 0)
(0.0209839 0.0543865 0)
(0.0176263 0.0456235 0)
(0.00865453 0.0124056 0)
(-0.00241232 -0.01672 0)
(-0.0125685 -0.0368642 0)
(-0.00868066 -0.0621425 0)
(0.0154239 -0.0150939 0)
(0.0149926 -0.0336423 0)
(0.0167827 -0.0380553 0)
(0.0217476 -0.0405624 0)
(0.0293908 -0.0403539 0)
(0.0386131 -0.0308326 0)
(0.0418007 -0.0051412 0)
(0.032473 0.0188604 0)
(0.0239728 0.0379657 0)
(0.025529 0.0443179 0)
(0.0283327 0.0307338 0)
(0.0265666 0.0234081 0)
(0.0275779 0.040215 0)
(0.0332995 0.0535099 0)
(0.0362384 0.0469727 0)
(0.030996 0.0167953 0)
(0.0187417 -0.0115352 0)
(0.00499412 -0.0337637 0)
(0.00289484 -0.0639102 0)
(0.00425043 -0.0177019 0)
(0.00337224 -0.0330467 0)
(0.00510613 -0.0390807 0)
(0.00918168 -0.0429619 0)
(0.0153162 -0.0436084 0)
(0.0236789 -0.0338535 0)
(0.0282957 -0.00389999 0)
(0.0214486 0.0226088 0)
(0.0159544 0.0384778 0)
(0.0217259 0.0419257 0)
(0.0293035 0.0295485 0)
(0.0308776 0.023482 0)
(0.0345954 0.0375097 0)
(0.0438162 0.0504808 0)
(0.0512727 0.0462461 0)
(0.0488852 0.0206072 0)
(0.0362339 -0.0056025 0)
(0.0205161 -0.0289601 0)
(0.0133289 -0.0594591 0)
(-0.0213085 -0.0140036 0)
(-0.0118811 -0.0337691 0)
(-0.00846564 -0.0405637 0)
(-0.00430047 -0.0450686 0)
(0.000645424 -0.0463423 0)
(0.00785335 -0.0370475 0)
(0.0146709 -0.00418961 0)
(0.0125723 0.0248909 0)
(0.0114565 0.0373885 0)
(0.0209709 0.0378613 0)
(0.0318074 0.0268475 0)
(0.0366364 0.02222 0)
(0.0423025 0.0340658 0)
(0.0529006 0.0462466 0)
(0.0624495 0.0441198 0)
(0.0619969 0.0239012 0)
(0.049905 0.000626988 0)
(0.0334283 -0.0223276 0)
(0.0220535 -0.050331 0)
(-0.00547534 0.0374809 0)
(-0.0154156 0.0345591 0)
(-0.0248498 0.0327327 0)
(-0.0339275 0.0312642 0)
(-0.0424858 0.0302798 0)
(-0.0507017 0.0298594 0)
(-0.05873 0.0298008 0)
(-0.0666101 0.029798 0)
(-0.0742415 0.0296377 0)
(-0.0816069 0.0294489 0)
(-0.0887662 0.028882 0)
(-0.0955693 0.0273578 0)
(-0.101716 0.0242547 0)
(-0.106815 0.0188561 0)
(-0.110382 0.0106582 0)
(-0.112063 -0.000163194 0)
(-0.111927 -0.012898 0)
(-0.110639 -0.0266905 0)
(-0.109787 -0.0405313 0)
(-0.111961 -0.0525717 0)
(-0.119773 -0.0621016 0)
(-0.13771 -0.0716351 0)
(-0.16454 -0.0744717 0)
(-0.00758098 0.03773 0)
(-0.0185405 0.0398308 0)
(-0.0293991 0.0391855 0)
(-0.0398407 0.0381002 0)
(-0.0498322 0.0373769 0)
(-0.0593811 0.0372031 0)
(-0.0684964 0.0373358 0)
(-0.077238 0.0374496 0)
(-0.0854061 0.037186 0)
(-0.0928344 0.0368395 0)
(-0.0995091 0.0359486 0)
(-0.105253 0.033754 0)
(-0.109759 0.0295947 0)
(-0.112707 0.0227142 0)
(-0.113783 0.0126158 0)
(-0.112846 -0.000143821 0)
(-0.110211 -0.0141057 0)
(-0.106969 -0.0275266 0)
(-0.10528 -0.0387362 0)
(-0.108294 -0.0457836 0)
(-0.118566 -0.0500888 0)
(-0.135061 -0.0567392 0)
(-0.147596 -0.0646425 0)
(-0.0134988 0.0543205 0)
(-0.0225037 0.0522506 0)
(-0.0340081 0.0493568 0)
(-0.0463847 0.046661 0)
(-0.0594081 0.0448509 0)
(-0.0715478 0.0441456 0)
(-0.0821092 0.043905 0)
(-0.0911559 0.0436794 0)
(-0.0986477 0.0428877 0)
(-0.104779 0.0421786 0)
(-0.109352 0.040923 0)
(-0.112499 0.0381152 0)
(-0.113805 0.0330667 0)
(-0.112968 0.0249047 0)
(-0.110437 0.0133111 0)
(-0.106679 -0.000755323 0)
(-0.10179 -0.0153366 0)
(-0.0967861 -0.0285041 0)
(-0.0945607 -0.038206 0)
(-0.0989376 -0.0416742 0)
(-0.111774 -0.0403763 0)
(-0.129203 -0.0455827 0)
(-0.139514 -0.0593264 0)
(-0.0485181 0.0978417 0)
(-0.027467 0.0623417 0)
(-0.0305134 0.0602397 0)
(-0.0463146 0.0591315 0)
(-0.0703881 0.0559616 0)
(-0.09097 0.0546274 0)
(-0.107147 0.0524168 0)
(-0.115889 0.0500504 0)
(-0.117893 0.0476297 0)
(-0.119603 0.0449356 0)
(-0.119196 0.042184 0)
(-0.11762 0.0377727 0)
(-0.112922 0.0304494 0)
(-0.104859 0.0202841 0)
(-0.0972394 0.00764918 0)
(-0.0911409 -0.00712765 0)
(-0.0850891 -0.0219294 0)
(-0.0795708 -0.033628 0)
(-0.0819801 -0.0386028 0)
(-0.101826 -0.0352048 0)
(-0.128333 -0.0243586 0)
(-0.137617 -0.0293689 0)
(-0.122052 -0.0543177 0)
(-0.0788625 0.137266 0)
(-0.0967779 0.0642775 0)
(-0.114318 0.0792125 0)
(-0.149129 0.120596 0)
(-0.2021 0.115994 0)
(-0.245518 0.096348 0)
(-0.262731 0.075712 0)
(-0.275291 0.0685065 0)
(-0.283866 0.0539423 0)
(-0.259055 0.0373398 0)
(-0.22295 0.0307125 0)
(-0.18336 0.0221196 0)
(-0.141395 0.00867022 0)
(-0.105109 -0.00255099 0)
(-0.0837052 -0.00352444 0)
(-0.0768146 -0.0125081 0)
(-0.0785591 -0.0298918 0)
(-0.0832055 -0.0349912 0)
(-0.119432 -0.00481069 0)
(-0.185915 0.0329475 0)
(-0.221758 0.0182549 0)
(-0.182711 -0.0593871 0)
(-0.118248 -0.107465 0)
(-0.0830571 0.218746 0)
(-0.142107 0.104752 0)
(-0.188651 0.101586 0)
(-0.223444 0.149486 0)
(-0.254753 0.142691 0)
(-0.278011 0.11369 0)
(-0.307062 0.100266 0)
(-0.341598 0.0764366 0)
(-0.336736 0.0232418 0)
(-0.311922 -0.00354089 0)
(-0.283045 -0.0147628 0)
(-0.25214 -0.0260022 0)
(-0.21946 -0.0394607 0)
(-0.18996 -0.0380595 0)
(-0.163243 -0.0106795 0)
(-0.148386 -0.0106619 0)
(-0.127539 -0.0346463 0)
(-0.109459 -0.0123147 0)
(-0.124016 0.0504547 0)
(-0.167978 0.0755595 0)
(-0.17267 -0.0196981 0)
(-0.14181 -0.115278 0)
(-0.106488 -0.151821 0)
(-0.0570084 0.337727 0)
(-0.149858 0.187192 0)
(-0.221263 0.142514 0)
(-0.251789 0.167457 0)
(-0.268468 0.161629 0)
(-0.288664 0.134128 0)
(-0.32235 0.133112 0)
(-0.330923 0.0932399 0)
(-0.314626 0.0131446 0)
(-0.302217 -0.0190558 0)
(-0.290861 -0.0309924 0)
(-0.280321 -0.0419675 0)
(-0.27039 -0.0555665 0)
(-0.261938 -0.0560971 0)
(-0.250223 -0.0341672 0)
(-0.218029 -0.0544004 0)
(-0.179025 -0.072566 0)
(-0.141065 -0.04193 0)
(-0.111376 0.0518468 0)
(-0.112845 0.0902882 0)
(-0.113115 -0.031678 0)
(-0.0986682 -0.133297 0)
(-0.0860731 -0.169203 0)
(-0.0441521 0.42951 0)
(-0.109009 0.307927 0)
(-0.191727 0.20943 0)
(-0.245724 0.19558 0)
(-0.273301 0.184491 0)
(-0.298845 0.161402 0)
(-0.29907 0.1438 0)
(-0.271664 0.0806558 0)
(-0.257341 0.00207995 0)
(-0.262672 -0.0291782 0)
(-0.27085 -0.0352154 0)
(-0.279156 -0.0431281 0)
(-0.28468 -0.0619808 0)
(-0.286122 -0.0659656 0)
(-0.273465 -0.0588273 0)
(-0.24686 -0.082993 0)
(-0.213697 -0.101925 0)
(-0.1807 -0.0753305 0)
(-0.142731 0.011385 0)
(-0.0906916 0.0816294 0)
(-0.0636099 -0.0413286 0)
(-0.063114 -0.140829 0)
(-0.0725019 -0.171771 0)
(-0.0266947 0.474465 0)
(-0.0699796 0.375508 0)
(-0.136803 0.292095 0)
(-0.201326 0.248084 0)
(-0.246702 0.218605 0)
(-0.26171 0.170857 0)
(-0.243616 0.112995 0)
(-0.217385 0.0520875 0)
(-0.202251 -0.00457534 0)
(-0.210262 -0.0226747 0)
(-0.21857 -0.0247411 0)
(-0.225725 -0.0312448 0)
(-0.245369 -0.0557288 0)
(-0.269535 -0.0668877 0)
(-0.263981 -0.0652814 0)
(-0.241545 -0.104305 0)
(-0.224046 -0.124143 0)
(-0.209167 -0.101443 0)
(-0.182557 -0.0285231 0)
(-0.12168 0.0343228 0)
(-0.0452269 -0.0524111 0)
(-0.052128 -0.141403 0)
(-0.106242 -0.13825 0)
(-0.0151448 0.500039 0)
(-0.0405363 0.417956 0)
(-0.0880285 0.348686 0)
(-0.137973 0.300763 0)
(-0.178089 0.249636 0)
(-0.189373 0.166276 0)
(-0.181412 0.0911374 0)
(-0.170675 0.0337946 0)
(-0.165912 -0.00227062 0)
(-0.165257 -0.014633 0)
(-0.163142 -0.0192029 0)
(-0.164131 -0.0170333 0)
(-0.178485 -0.0256888 0)
(-0.200901 -0.0476982 0)
(-0.208628 -0.0798519 0)
(-0.205103 -0.123812 0)
(-0.209317 -0.142219 0)
(-0.221596 -0.122889 0)
(-0.201521 -0.0664175 0)
(-0.1521 -0.0441115 0)
(-0.116944 -0.0836974 0)
(-0.118421 -0.110973 0)
(-0.136262 -0.108107 0)
(-0.00612451 0.516366 0)
(-0.0148762 0.44741 0)
(-0.0410972 0.386232 0)
(-0.0677349 0.336158 0)
(-0.090424 0.273099 0)
(-0.10473 0.171426 0)
(-0.112056 0.0901182 0)
(-0.118421 0.0350379 0)
(-0.127133 0.0025135 0)
(-0.133361 -0.0128301 0)
(-0.133314 -0.0213191 0)
(-0.130533 -0.0177952 0)
(-0.132778 -0.0129855 0)
(-0.146343 -0.0276058 0)
(-0.155241 -0.0734761 0)
(-0.156657 -0.11861 0)
(-0.157373 -0.139938 0)
(-0.157167 -0.1318 0)
(-0.152826 -0.0963775 0)
(-0.137319 -0.0762555 0)
(-0.126854 -0.0885292 0)
(-0.130157 -0.104162 0)
(-0.136537 -0.106128 0)
(0.00369648 0.517595 0)
(0.010124 0.460033 0)
(0.00258818 0.402466 0)
(-0.00250681 0.350817 0)
(-0.00546173 0.285188 0)
(-0.0157356 0.185946 0)
(-0.0354999 0.101382 0)
(-0.055883 0.0463019 0)
(-0.0767019 0.0128304 0)
(-0.0931523 -0.00774647 0)
(-0.101414 -0.0200119 0)
(-0.103159 -0.0181821 0)
(-0.101515 -0.0121832 0)
(-0.101853 -0.0208302 0)
(-0.105389 -0.0678276 0)
(-0.111214 -0.111191 0)
(-0.117046 -0.130592 0)
(-0.121583 -0.123629 0)
(-0.12372 -0.0955282 0)
(-0.119614 -0.0809117 0)
(-0.116408 -0.0878377 0)
(-0.118924 -0.100137 0)
(-0.122083 -0.105588 0)
(0.0133663 0.499726 0)
(0.0317591 0.457471 0)
(0.0378813 0.400007 0)
(0.0468281 0.347374 0)
(0.0549448 0.284593 0)
(0.0526342 0.202976 0)
(0.0348507 0.126774 0)
(0.0102516 0.0718281 0)
(-0.0128497 0.0359396 0)
(-0.0335249 0.0071964 0)
(-0.0517334 -0.0127153 0)
(-0.063161 -0.016981 0)
(-0.0646717 -0.0143219 0)
(-0.0594922 -0.023217 0)
(-0.0596114 -0.0629427 0)
(-0.0689469 -0.102964 0)
(-0.0813316 -0.123362 0)
(-0.0948287 -0.117039 0)
(-0.100595 -0.0929567 0)
(-0.0982584 -0.0829626 0)
(-0.0959845 -0.0872279 0)
(-0.0979112 -0.0973757 0)
(-0.101003 -0.104806 0)
(0.0207764 0.467768 0)
(0.0470915 0.442738 0)
(0.0621577 0.385938 0)
(0.0781445 0.33419 0)
(0.0909529 0.276946 0)
(0.0935024 0.210892 0)
(0.0826247 0.1477 0)
(0.0636728 0.0966984 0)
(0.0434487 0.0587795 0)
(0.0244227 0.0289978 0)
(0.00668641 0.00633999 0)
(-0.00754146 -0.00717401 0)
(-0.0142514 -0.0144071 0)
(-0.0138944 -0.0271965 0)
(-0.0158346 -0.0568123 0)
(-0.0276835 -0.090361 0)
(-0.0466804 -0.108399 0)
(-0.0629156 -0.104119 0)
(-0.0700495 -0.0912074 0)
(-0.0701423 -0.0848649 0)
(-0.0694022 -0.087063 0)
(-0.0717043 -0.0942711 0)
(-0.0759271 -0.102216 0)
(0.0248327 0.428359 0)
(0.055477 0.419731 0)
(0.0761655 0.366228 0)
(0.0953217 0.317469 0)
(0.110037 0.266773 0)
(0.116072 0.212141 0)
(0.111527 0.159174 0)
(0.0993925 0.113375 0)
(0.0841217 0.0762458 0)
(0.0682875 0.0461754 0)
(0.0528829 0.0223569 0)
(0.0396329 0.00482514 0)
(0.0309106 -0.00888837 0)
(0.026441 -0.0249667 0)
(0.0207131 -0.0482631 0)
(0.00845052 -0.0727923 0)
(-0.00896903 -0.0885376 0)
(-0.0250482 -0.0913615 0)
(-0.0346031 -0.0869132 0)
(-0.0384156 -0.0839059 0)
(-0.0405153 -0.0854403 0)
(-0.0437987 -0.090569 0)
(-0.0491883 -0.0974119 0)
(0.025596 0.386727 0)
(0.0578852 0.391586 0)
(0.0819244 0.343852 0)
(0.102437 0.299539 0)
(0.117985 0.255206 0)
(0.126358 0.209342 0)
(0.126593 0.164605 0)
(0.120266 0.124151 0)
(0.110107 0.0893918 0)
(0.0982057 0.0600492 0)
(0.0858372 0.0357036 0)
(0.074387 0.0159003 0)
(0.0652491 -0.00109303 0)
(0.0581895 -0.0185586 0)
(0.0501997 -0.0386252 0)
(0.0383176 -0.0583142 0)
(0.0232553 -0.0724278 0)
(0.00881426 -0.078569 0)
(-0.00167657 -0.0793515 0)
(-0.00814481 -0.0795349 0)
(-0.012782 -0.0816151 0)
(-0.017628 -0.0857501 0)
(-0.0237348 -0.091187 0)
(0.0238654 0.346527 0)
(0.0558941 0.360825 0)
(0.081606 0.320182 0)
(0.102562 0.28108 0)
(0.118489 0.242596 0)
(0.12842 0.203661 0)
(0.131977 0.165532 0)
(0.130045 0.130026 0)
(0.124273 0.0982416 0)
(0.116198 0.0703872 0)
(0.106988 0.0463299 0)
(0.0977103 0.0256691 0)
(0.0892271 0.0073091 0)
(0.0814268 -0.0104465 0)
(0.072794 -0.0285189 0)
(0.0618381 -0.0454029 0)
(0.0489649 -0.0584546 0)
(0.0363124 -0.0663722 0)
(0.0259103 -0.0703756 0)
(0.0180959 -0.0730045 0)
(0.0117935 -0.0759702 0)
(0.00567845 -0.0797607 0)
(-0.00118522 -0.0841692 0)
(0.0207849 0.310041 0)
(0.051213 0.329602 0)
(0.0772254 0.296155 0)
(0.0980843 0.262452 0)
(0.114131 0.229263 0)
(0.125078 0.195959 0)
(0.130886 0.163188 0)
(0.132121 0.13204 0)
(0.129809 0.103331 0)
(0.12503 0.0774006 0)
(0.118714 0.054285 0)
(0.111666 0.0337499 0)
(0.10446 0.0151808 0)
(0.0971042 -0.00226873 0)
(0.0889122 -0.0189802 0)
(0.0792194 -0.0341763 0)
(0.0683073 -0.0465234 0)
(0.0573795 -0.0553333 0)
(0.0476493 -0.0611947 0)
(0.0394781 -0.0654625 0)
(0.032387 -0.0692303 0)
(0.0255733 -0.0729871 0)
(0.0183252 -0.0767949 0)
(0.0174125 0.278264 0)
(0.0453829 0.299575 0)
(0.0706067 0.272553 0)
(0.0909558 0.243991 0)
(0.106904 0.215534 0)
(0.118463 0.186925 0)
(0.125763 0.158578 0)
(0.129222 0.131203 0)
(0.129514 0.105412 0)
(0.127392 0.0815632 0)
(0.123553 0.0597836 0)
(0.118593 0.039992 0)
(0.112926 0.0218901 0)
(0.106643 0.00508724 0)
(0.0994895 -0.0105506 0)
(0.0912314 -0.0246058 0)
(0.0820977 -0.0364043 0)
(0.0727903 -0.0455919 0)
(0.0640419 -0.0524596 0)
(0.0561597 -0.0577337 0)
(0.0489641 -0.0620855 0)
(0.0419938 -0.0659072 0)
(0.0347601 -0.0693677 0)
(0.0144471 0.251122 0)
(0.0395814 0.27177 0)
(0.0632883 0.249972 0)
(0.082793 0.225995 0)
(0.0984147 0.201709 0)
(0.110238 0.177087 0)
(0.118464 0.152456 0)
(0.123433 0.128334 0)
(0.125619 0.105209 0)
(0.125553 0.0834213 0)
(0.123744 0.0631546 0)
(0.12063 0.044439 0)
(0.116527 0.027172 0)
(0.111565 0.0112048 0)
(0.105704 -0.00348115 0)
(0.0989186 -0.0166459 0)
(0.0914093 -0.0279406 0)
(0.0836111 -0.0371837 0)
(0.075982 -0.0445227 0)
(0.0687644 -0.0503476 0)
(0.0619227 -0.0550611 0)
(0.0552071 -0.0589485 0)
(0.0483003 -0.0622027 0)
(0.0121953 0.227904 0)
(0.0345445 0.246596 0)
(0.0563989 0.228781 0)
(0.0748277 0.208715 0)
(0.0898887 0.18806 0)
(0.101652 0.166858 0)
(0.110349 0.145386 0)
(0.116278 0.124068 0)
(0.11979 0.103322 0)
(0.121265 0.0834799 0)
(0.121068 0.0647578 0)
(0.119522 0.0472606 0)
(0.116869 0.0310023 0)
(0.113249 0.0159621 0)
(0.108721 0.00217555 0)
(0.103349 -0.0102063 0)
(0.0973131 -0.020991 0)
(0.0909025 -0.0300825 0)
(0.0844191 -0.0375551 0)
(0.0780527 -0.0436172 0)
(0.0718345 -0.0485054 0)
(0.0656415 -0.0524178 0)
(0.0592772 -0.0555342 0)
(0.0106727 0.207684 0)
(0.0305886 0.223974 0)
(0.0506058 0.209115 0)
(0.067846 0.192348 0)
(0.0821265 0.174859 0)
(0.0935264 0.156601 0)
(0.10232 0.137815 0)
(0.108782 0.118894 0)
(0.113179 0.100235 0)
(0.115777 0.0821679 0)
(0.116833 0.0649322 0)
(0.116576 0.0486788 0)
(0.115192 0.0334871 0)
(0.112815 0.0194026 0)
(0.109537 0.00648588 0)
(0.105459 -0.0051577 0)
(0.100736 -0.0154108 0)
(0.0955782 -0.0242168 0)
(0.0901966 -0.0316096 0)
(0.0847434 -0.0376981 0)
(0.0792799 -0.0426179 0)
(0.0737572 -0.046503 0)
(0.068062 -0.0495094 0)
(0.00966359 0.189634 0)
(0.0276702 0.203495 0)
(0.0461143 0.190903 0)
(0.0621572 0.17704 0)
(0.075469 0.162366 0)
(0.0862448 0.146633 0)
(0.0948516 0.130098 0)
(0.101542 0.113189 0)
(0.106503 0.0963211 0)
(0.109907 0.0798321 0)
(0.11192 0.0639756 0)
(0.112699 0.0489252 0)
(0.112385 0.0347932 0)
(0.111093 0.0216558 0)
(0.108923 0.00958302 0)
(0.105983 -0.00134404 0)
(0.102406 -0.0110455 0)
(0.0983553 -0.0194809 0)
(0.0939885 -0.0266605 0)
(0.0894322 -0.032637 0)
(0.0847602 -0.0374856 0)
(0.0799662 -0.0412958 0)
(0.0749933 -0.0441999 0)
(0.00890115 0.173198 0)
(0.0254749 0.184582 0)
(0.0426546 0.173896 0)
(0.0575433 0.162872 0)
(0.0697704 0.150801 0)
(0.0797714 0.137186 0)
(0.0880464 0.122471 0)
(0.0948017 0.107205 0)
(0.100132 0.0918451 0)
(0.104122 0.076738 0)
(0.106866 0.0621372 0)
(0.108466 0.0482202 0)
(0.109026 0.0351089 0)
(0.108644 0.0228895 0)
(0.107415 0.0116324 0)
(0.105443 0.00140448 0)
(0.102845 -0.00773416 0)
(0.0997522 -0.0157484 0)
(0.0962902 -0.0226341 0)
(0.0925681 -0.0284115 0)
(0.0886641 -0.0331195 0)
(0.0845957 -0.0368178 0)
(0.0803435 -0.0396191 0)
(0.00857786 0.157825 0)
(0.0236328 0.166984 0)
(0.0393625 0.15802 0)
(0.0531094 0.149752 0)
(0.0643998 0.140213 0)
(0.0737244 0.128302 0)
(0.0817497 0.114994 0)
(0.0885758 0.101048 0)
(0.0942021 0.0869604 0)
(0.0986454 0.0730707 0)
(0.101953 0.0596151 0)
(0.104194 0.0467593 0)
(0.105449 0.0346196 0)
(0.105803 0.0232801 0)
(0.105348 0.0128072 0)
(0.104177 0.00325815 0)
(0.102396 -0.00531729 0)
(0.100113 -0.0128853 0)
(0.0974369 -0.0194322 0)
(0.0944623 -0.0249594 0)
(0.0912676 -0.0294835 0)
(0.087883 -0.0330446 0)
(0.0843128 -0.0357398 0)
(0.00795492 0.143573 0)
(0.0212352 0.151017 0)
(0.0351932 0.143668 0)
(0.0476906 0.137547 0)
(0.0584596 0.130275 0)
(0.0676601 0.119678 0)
(0.0757682 0.107498 0)
(0.0828055 0.0946775 0)
(0.0887312 0.0817241 0)
(0.0935468 0.0689499 0)
(0.0972889 0.0565634 0)
(0.100017 0.0447104 0)
(0.101806 0.0334953 0)
(0.102736 0.0229958 0)
(0.102894 0.013273 0)
(0.102369 0.00437834 0)
(0.101254 -0.00364384 0)
(0.0996453 -0.0107591 0)
(0.0976363 -0.0169474 0)
(0.095313 -0.0221983 0)
(0.0927512 -0.0265148 0)
(0.0899875 -0.0299239 0)
(0.0870392 -0.0325099 0)
(0.00622966 0.131479 0)
(0.0180061 0.136824 0)
(0.0303672 0.131008 0)
(0.0416009 0.126267 0)
(0.0521003 0.120336 0)
(0.0617002 0.110816 0)
(0.0701817 0.0997199 0)
(0.0775221 0.0880084 0)
(0.0837251 0.076165 0)
(0.0888247 0.0644722 0)
(0.0928771 0.0531151 0)
(0.0959523 0.0422229 0)
(0.0981287 0.0318907 0)
(0.0994886 0.022191 0)
(0.100116 0.0131818 0)
(0.100096 0.00491199 0)
(0.0995138 -0.00257576 0)
(0.0984553 -0.0092455 0)
(0.097003 -0.0150724 0)
(0.0952356 -0.0200386 0)
(0.0932248 -0.0241382 0)
(0.0910098 -0.0273887 0)
(0.0886138 -0.029864 0)
(0.00547346 0.121411 0)
(0.0154795 0.12467 0)
(0.0260034 0.119893 0)
(0.0363064 0.115718 0)
(0.0466958 0.110061 0)
(0.0565903 0.101539 0)
(0.0653224 0.0916108 0)
(0.0728398 0.0810779 0)
(0.0791869 0.0703735 0)
(0.0844329 0.0597583 0)
(0.0886564 0.0494054 0)
(0.0919408 0.0394373 0)
(0.0943708 0.0299461 0)
(0.0960306 0.0210033 0)
(0.0970026 0.0126674 0)
(0.0973671 0.00498795 0)
(0.0972027 -0.00199152 0)
(0.0965862 -0.00823285 0)
(0.0955917 -0.0137073 0)
(0.0942909 -0.018392 0)
(0.0927509 -0.0222751 0)
(0.091011 -0.0253671 0)
(0.0890961 -0.0277327 0)
(0.00599014 0.111974 0)
(0.0144128 0.114691 0)
(0.0234201 0.110004 0)
(0.0331319 0.105552 0)
(0.0432095 0.0998127 0)
(0.0528228 0.0922018 0)
(0.0613805 0.0834458 0)
(0.0687799 0.0741017 0)
(0.0750526 0.0645288 0)
(0.0802708 0.0549653 0)
(0.0845179 0.0455772 0)
(0.0878808 0.0364864 0)
(0.0904452 0.0277862 0)
(0.0922938 0.0195513 0)
(0.0935053 0.0118432 0)
(0.0941541 0.00471469 0)
(0.0943112 -0.00178815 0)
(0.0940454 -0.00762462 0)
(0.0934229 -0.0127628 0)
(0.0925085 -0.0171765 0)
(0.0913644 -0.0208499 0)
(0.0900295 -0.0237881 0)
(0.0885272 -0.0260472 0)
(0.00611925 0.102434 0)
(0.0141183 0.105827 0)
(0.0227115 0.100808 0)
(0.0319062 0.0958649 0)
(0.0412572 0.0901635 0)
(0.0501495 0.0833236 0)
(0.0581629 0.0756107 0)
(0.0651651 0.0673585 0)
(0.0711545 0.0588386 0)
(0.0761825 0.0502559 0)
(0.0803216 0.0417653 0)
(0.0836512 0.033487 0)
(0.0862512 0.0255167 0)
(0.0881983 0.0179328 0)
(0.0895645 0.0108018 0)
(0.0904167 0.0041807 0)
(0.0908173 -0.00188066 0)
(0.0908265 -0.00733935 0)
(0.0905027 -0.0121612 0)
(0.0899042 -0.0163182 0)
(0.0890882 -0.0197922 0)
(0.0880926 -0.0225843 0)
(0.0869389 -0.0247422 0)
(0.00604051 0.0929694 0)
(0.0141419 0.0969258 0)
(0.0226773 0.0919133 0)
(0.031346 0.0868486 0)
(0.0398904 0.0813803 0)
(0.047945 0.0751979 0)
(0.0552513 0.068362 0)
(0.0616986 0.0610543 0)
(0.0672681 0.053465 0)
(0.0719915 0.04576 0)
(0.0759253 0.0380776 0)
(0.0791371 0.0305325 0)
(0.081697 0.0232207 0)
(0.083673 0.0162248 0)
(0.0851283 0.00961613 0)
(0.0861204 0.0034568 0)
(0.0867022 -0.00219966 0)
(0.086924 -0.00730867 0)
(0.0868364 -0.0118352 0)
(0.0864915 -0.0157512 0)
(0.0859421 -0.0190377 0)
(0.0852251 -0.0216929 0)
(0.0843604 -0.0237565 0)
(0.00592319 0.0836841 0)
(0.0140653 0.0878018 0)
(0.0224796 0.0832678 0)
(0.0306344 0.0785031 0)
(0.0384275 0.0734426 0)
(0.0456788 0.0678718 0)
(0.0522603 0.0617861 0)
(0.0581034 0.0552847 0)
(0.063192 0.0484991 0)
(0.0675478 0.0415604 0)
(0.0712157 0.0345884 0)
(0.0742523 0.0276901 0)
(0.0767177 0.0209609 0)
(0.0786707 0.0144863 0)
(0.080165 0.0083432 0)
(0.0812476 0.00259916 0)
(0.0819601 -0.00268854 0)
(0.0823424 -0.00747487 0)
(0.0824365 -0.0117261 0)
(0.082289 -0.0154162 0)
(0.0819491 -0.0185271 0)
(0.0814537 -0.0210553 0)
(0.080822 -0.0230331 0)
(0.00573454 0.0746197 0)
(0.0136762 0.0787507 0)
(0.0217959 0.0749825 0)
(0.0294194 0.0707859 0)
(0.0365285 0.0662599 0)
(0.0430535 0.0612909 0)
(0.0489544 0.0558724 0)
(0.0542044 0.0500687 0)
(0.0588001 0.0439758 0)
(0.0627628 0.037699 0)
(0.0661315 0.0313425 0)
(0.0689553 0.0250054 0)
(0.071287 0.0187821 0)
(0.0731774 0.0127616 0)
(0.0746711 0.00702704 0)
(0.0758042 0.00165264 0)
(0.0766054 -0.00330018 0)
(0.077102 -0.00778769 0)
(0.0773274 -0.0117808 0)
(0.0773239 -0.0152581 0)
(0.0771388 -0.0182047 0)
(0.0768101 -0.0206161 0)
(0.0763579 -0.0225175 0)
(0.00545107 0.0659531 0)
(0.0129447 0.0700671 0)
(0.020593 0.0671788 0)
(0.0276483 0.0636783 0)
(0.0341174 0.0597567 0)
(0.0399841 0.0553848 0)
(0.0452595 0.0505774 0)
(0.0499478 0.0453895 0)
(0.0540605 0.0398989 0)
(0.0576231 0.034194 0)
(0.0606735 0.0283667 0)
(0.0632575 0.0225105 0)
(0.0654236 0.016719 0)
(0.0672172 0.0110862 0)
(0.0686757 0.00570367 0)
(0.0698239 0.000654911 0)
(0.0706754 -0.00399298 0)
(0.0712418 -0.00820032 0)
(0.071548 -0.0119478 0)
(0.0716342 -0.0152231 0)
(0.0715486 -0.0180159 0)
(0.0713323 -0.0203216 0)
(0.0710077 -0.0221577 0)
(0.00507104 0.0578705 0)
(0.0119409 0.0619702 0)
(0.0189851 0.0599594 0)
(0.0254336 0.0571846 0)
(0.0312835 0.0538865 0)
(0.0365374 0.050098 0)
(0.0412309 0.0458581 0)
(0.0453874 0.0412231 0)
(0.0490304 0.0362623 0)
(0.0521905 0.0310538 0)
(0.0549071 0.0256809 0)
(0.0572257 0.0202325 0)
(0.0591937 0.0148033 0)
(0.0608548 0.00949353 0)
(0.0622417 0.00440697 0)
(0.0633694 -0.000358437 0)
(0.0642318 -0.00472588 0)
(0.0648204 -0.00866428 0)
(0.0651516 -0.0121733 0)
(0.0652684 -0.015255 0)
(0.0652245 -0.0179052 0)
(0.0650658 -0.0201183 0)
(0.0648184 -0.021903 0)
(0.00461852 0.0505012 0)
(0.0107827 0.0545995 0)
(0.0171495 0.0533947 0)
(0.022967 0.0513151 0)
(0.028207 0.0486244 0)
(0.0328746 0.0453947 0)
(0.0370143 0.0416834 0)
(0.0406598 0.0375505 0)
(0.0438416 0.0330617 0)
(0.0465943 0.028288 0)
(0.0489587 0.0233067 0)
(0.0509813 0.0182029 0)
(0.0527111 0.013072 0)
(0.0541946 0.0080227 0)
(0.0554651 0.00317545 0)
(0.0565305 -0.00134853 0)
(0.057359 -0.00545281 0)
(0.0579125 -0.0091235 0)
(0.058202 -0.0123956 0)
(0.0582824 -0.0152922 0)
(0.0582186 -0.0178149 0)
(0.0580633 -0.0199535 0)
(0.0578456 -0.0217056 0)
(0.00414007 0.0438972 0)
(0.00961099 0.0480078 0)
(0.0152879 0.0475112 0)
(0.0204721 0.0460722 0)
(0.0251102 0.0439561 0)
(0.0292074 0.0412543 0)
(0.0328108 0.0380349 0)
(0.0359583 0.0343615 0)
(0.0386831 0.0302982 0)
(0.0410199 0.0259114 0)
(0.043009 0.0212726 0)
(0.0446968 0.0164621 0)
(0.0461357 0.0115746 0)
(0.0473795 0.00672603 0)
(0.0484706 0.00205858 0)
(0.049419 -0.0022691 0)
(0.050157 -0.00611741 0)
(0.0506013 -0.00950769 0)
(0.0507651 -0.0125408 0)
(0.0507321 -0.0152666 0)
(0.0505855 -0.0176862 0)
(0.050384 -0.0197779 0)
(0.050156 -0.0215228 0)
(0.00370612 0.0380127 0)
(0.00858631 0.0421648 0)
(0.0136116 0.0422946 0)
(0.0181803 0.0414481 0)
(0.0222273 0.0398725 0)
(0.0257665 0.0376652 0)
(0.0288478 0.034902 0)