/*--------------------------------*- C++ -*----------------------------------*\
| =========                 |                                                 |
| \\      /  F ield         | OpenFOAM: The Open Source CFD Toolbox           |
|  \\    /   O peration     | Version:  2.3.0                                 |
|   \\  /    A nd           | Web:      www.OpenFOAM.org                      |
|    \\/     M anipulation  |                                                 |
\*---------------------------------------------------------------------------*/
FoamFile
{
    version     2.0;
    format      ascii;
    class       volScalarField;
    location    "3.7e-05";
    object      k;
}
// * * * * * * * * * * * * * * * * * * * * * * * * * * * * * * * * * * * * * //

dimensions      [0 2 -2 0 0 0 0];

internalField   nonuniform List<scalar> 
7500
(
9.9989829e-06
9.9968413e-06
9.9948857e-06
9.9933647e-06
9.9915824e-06
9.9899925e-06
9.9891959e-06
9.9872629e-06
9.9864398e-06
9.985292e-06
9.9835619e-06
9.9820504e-06
9.9805301e-06
9.978895e-06
9.9773444e-06
9.9759122e-06
9.9743179e-06
9.9730681e-06
9.9716291e-06
9.9703514e-06
9.9688731e-06
9.9680299e-06
9.9671056e-06
9.9665873e-06
9.9666848e-06
9.967024e-06
9.9673707e-06
9.9680674e-06
9.9682514e-06
9.9681315e-06
9.9677166e-06
9.966948e-06
9.9659948e-06
9.9653611e-06
9.9647475e-06
9.9650054e-06
9.9655618e-06
9.966082e-06
9.9671211e-06
9.9675284e-06
9.9678188e-06
9.9681538e-06
9.9686907e-06
9.9694759e-06
9.9707866e-06
9.9725163e-06
9.9754526e-06
9.9783936e-06
9.9835309e-06
9.9877398e-06
9.9954375e-06
1.0001814e-05
1.0013542e-05
1.00229e-05
1.0040344e-05
1.0053582e-05
1.0078505e-05
1.0096615e-05
1.0130764e-05
1.0154667e-05
1.0199885e-05
1.0230738e-05
1.0289465e-05
1.0328654e-05
1.0403951e-05
1.0453077e-05
1.0548044e-05
1.0608863e-05
1.0726675e-05
1.0799948e-05
1.0943301e-05
1.103028e-05
1.1201196e-05
1.1304055e-05
1.1575344e-05
9.9993007e-06
9.9973886e-06
9.996021e-06
9.9946686e-06
9.9933344e-06
9.9922003e-06
9.9915205e-06
9.9904899e-06
9.9900266e-06
9.989483e-06
9.9890302e-06
9.9886848e-06
9.9884057e-06
9.9880565e-06
9.9877706e-06
9.9874765e-06
9.9872348e-06
9.9870731e-06
9.9871414e-06
9.9873351e-06
9.9877494e-06
9.9882641e-06
9.9889608e-06
9.989767e-06
9.990804e-06
9.9916801e-06
9.9927216e-06
9.9935632e-06
9.99439e-06
9.9951879e-06
9.9960967e-06
9.997197e-06
9.9986587e-06
1.0000594e-05
1.0003264e-05
1.0006859e-05
1.001222e-05
1.0018119e-05
1.0027188e-05
1.0036455e-05
1.0051004e-05
1.0065532e-05
1.0089021e-05
1.011152e-05
1.0148662e-05
1.0182686e-05
1.0239288e-05
1.0289246e-05
1.0372423e-05
1.0443773e-05
1.0562633e-05
1.0661772e-05
1.0826951e-05
1.096183e-05
1.1188862e-05
1.1367993e-05
1.167039e-05
1.1902741e-05
1.2296173e-05
1.2587611e-05
1.3083523e-05
1.3445274e-05
1.4062319e-05
1.4503975e-05
1.5263962e-05
1.5794909e-05
1.6715182e-05
1.7348491e-05
1.8442136e-05
1.9175237e-05
2.0454939e-05
2.1288269e-05
2.2746833e-05
2.3697114e-05
2.5971504e-05
1.000134e-05
1.0002592e-05
1.0005809e-05
1.0007859e-05
1.0011581e-05
1.0014228e-05
1.0018644e-05
1.0021916e-05
1.0027354e-05
1.0031212e-05
1.0037133e-05
1.0041243e-05
1.004706e-05
1.005101e-05
1.0056704e-05
1.0060792e-05
1.0066692e-05
1.0071024e-05
1.0077299e-05
1.0081925e-05
1.0088652e-05
1.009368e-05
1.0101203e-05
1.0106894e-05
1.0115658e-05
1.0122307e-05
1.013249e-05
1.0140992e-05
1.0153796e-05
1.0166411e-05
1.0185783e-05
1.0207132e-05
1.0240939e-05
1.0278748e-05
1.0340025e-05
1.0406216e-05
1.051459e-05
1.0626183e-05
1.0809162e-05
1.09888e-05
1.1285575e-05
1.1565311e-05
1.203158e-05
1.2453033e-05
1.3159951e-05
1.3774686e-05
1.4803922e-05
1.5671252e-05
1.7114178e-05
1.8302721e-05
2.0269068e-05
2.1852887e-05
2.4456622e-05
2.6528644e-05
2.9944932e-05
3.2597295e-05
3.6967002e-05
4.0290987e-05
4.575475e-05
4.9793392e-05
5.643462e-05
6.1292348e-05
6.9265124e-05
7.5024989e-05
8.4507549e-05
9.1233714e-05
0.00010237193
0.00011016062
0.00012293367
0.00013171659
0.00014614425
0.00015583912
0.00017175214
0.00018251551
0.00020676005
1.0019166e-05
1.0040901e-05
1.007831e-05
1.0105173e-05
1.013295e-05
1.0150509e-05
1.0175675e-05
1.0194419e-05
1.0220543e-05
1.0238997e-05
1.0264426e-05
1.0281569e-05
1.0307678e-05
1.0324667e-05
1.0352501e-05
1.0370521e-05
1.0399797e-05
1.0418847e-05
1.0449226e-05
1.0469698e-05
1.0502042e-05
1.0525915e-05
1.0564148e-05
1.059688e-05
1.0651012e-05
1.0704704e-05
1.0795894e-05
1.0893631e-05
1.1059984e-05
1.124471e-05
1.1561195e-05
1.1911532e-05
1.2513179e-05
1.3153143e-05
1.4251859e-05
1.536325e-05
1.7267778e-05
1.910099e-05
2.221752e-05
2.5084957e-05
2.9958509e-05
3.4269496e-05
4.1606355e-05
4.7853448e-05
5.8491506e-05
6.7250447e-05
8.2094888e-05
9.3986268e-05
0.00011398847
0.00012966491
0.00015586636
0.00017597236
0.00020931252
0.00023466854
0.00027662681
0.00030800308
0.00035981565
0.00039788647
0.00046038468
0.00050530353
0.00057881143
0.00063121802
0.00071662651
0.00077703704
0.00087524933
0.00094397377
0.0010562753
0.001133515
0.0012584318
0.0013434556
0.0014798675
0.0015714558
0.0017179716
0.0018170906
0.0020337243
1.0031524e-05
1.0158767e-05
1.0216763e-05
1.0329984e-05
1.03852e-05
1.0490566e-05
1.0558198e-05
1.0646115e-05
1.0722301e-05
1.079687e-05
1.0884205e-05
1.0951238e-05
1.1057992e-05
1.1125787e-05
1.1248015e-05
1.1322648e-05
1.1455875e-05
1.1539429e-05
1.1684305e-05
1.1790206e-05
1.1972289e-05
1.213953e-05
1.2434496e-05
1.2758492e-05
1.3346853e-05
1.403219e-05
1.5289293e-05
1.6700132e-05
1.9257287e-05
2.2021207e-05
2.7016154e-05
3.218128e-05
4.1450388e-05
5.0534939e-05
6.6721373e-05
8.1787032e-05
0.0001084953
0.00013221948
0.00017377588
0.00020926656
0.00027114556
0.00032214238
0.00041075875
0.00048146274
0.00060392364
0.0006989352
0.00086245275
0.00098635268
0.0011979181
0.0013550414
0.0016217462
0.0018155579
0.0021421867
0.0023774447
0.0027718902
0.0030531177
0.0035235733
0.0038536165
0.0044015983
0.0047795715
0.0054034109
0.0058307811
0.0065331043
0.0070113768
0.0077914948
0.0083218576
0.0091894167
0.0097674232
0.010707129
0.011327159
0.012319269
0.012972031
0.014010459
0.014697932
0.016180183
1.0009009e-05
1.0094548e-05
1.0165471e-05
1.0343424e-05
1.0492463e-05
1.0697242e-05
1.0977252e-05
1.1161837e-05
1.150706e-05
1.1707604e-05
1.2102428e-05
1.2328196e-05
1.27779e-05
1.3040969e-05
1.3556787e-05
1.3873579e-05
1.4468423e-05
1.4906615e-05
1.5691631e-05
1.650292e-05
1.7918184e-05
1.9692202e-05
2.2997411e-05
2.7077792e-05
3.4864722e-05
4.3906114e-05
6.109376e-05
7.938663e-05
0.00011365485
0.00014802668
0.00021208631
0.00027281548
0.00038488459
0.00048555333
0.0006695017
0.00082699518
0.0011132312
0.0013481073
0.001769639
0.002103873
0.0026997817
0.0031566532
0.0039663759
0.0045703936
0.0056347484
0.0064104983
0.0077675357
0.008737334
0.010419189
0.011601327
0.01363819
0.015039229
0.017439596
0.019072596
0.021851717
0.023734797
0.026932956
0.029067385
0.032663588
0.035033417
0.038992852
0.041587653
0.045908206
0.048722349
0.053354366
0.056398779
0.061394828
0.064616424
0.06990147
0.073256733
0.078645518
0.082100929
0.087592021
0.09113229
0.098696743
1.0102684e-05
1.0514723e-05
1.0734026e-05
1.1248096e-05
1.151265e-05
1.1975901e-05
1.2476805e-05
1.2866296e-05
1.3612176e-05
1.4104513e-05
1.5077149e-05
1.5688366e-05
1.68431e-05
1.7842263e-05
1.9191483e-05
2.0952275e-05
2.3018378e-05
2.6651248e-05
3.1677922e-05
4.0954911e-05
5.3958363e-05
7.6143465e-05
0.00011454308
0.0001628119
0.00025451596
0.00035519966
0.00054823341
0.00073953443
0.0011030513
0.0014388796
0.0020754314
0.0026287555
0.0036672169
0.0045251726
0.0061173616
0.0073772213
0.0097037815
0.011475473
0.01471089
0.017100271
0.021432405
0.024527736
0.030102779
0.033994739
0.040959199
0.045725294
0.054189954
0.059894618
0.069924259
0.076611352
0.088264164
0.095887739
0.10909876
0.11763066
0.13230966
0.14181039
0.15812164
0.16853849
0.18626919
0.19749958
0.216406
0.22835548
0.24841924
0.26100331
0.28183944
0.29517765
0.31696534
0.33079816
0.35344617
0.36742941
0.38977569
0.40396952
0.42608134
0.44032791
0.47034667
1.0235128e-05
1.1479513e-05
1.1972948e-05
1.3443587e-05
1.4085265e-05
1.57776e-05
1.6561392e-05
1.8451207e-05
1.9347678e-05
2.1329265e-05
2.2491356e-05
2.4813523e-05
2.693856e-05
3.0794404e-05
3.6324024e-05
4.6405158e-05
6.353869e-05
9.5828895e-05
0.00014800242
0.00024636558
0.00038004331
0.00065019599
0.0009728924
0.0014945989
0.0023168081
0.003246251
0.0049169741
0.0065205204
0.0094759888
0.012039457
0.016873595
0.020760533
0.028089249
0.033709805
0.044190513
0.051917436
0.066278396
0.076499832
0.095337438
0.10837359
0.13221835
0.14820933
0.17729276
0.19643831
0.23106664
0.25345611
0.29366417
0.31940995
0.36511718
0.39432179
0.4454827
0.477806
0.53393431
0.56894649
0.62925999
0.66725172
0.73249122
0.77327774
0.84261069
0.88584672
0.95835288
1.0038038
1.0796059
1.1267089
1.2042897
1.2538987
1.3330119
1.384373
1.4660587
1.516951
1.5965749
1.6482291
1.7269192
1.7800794
1.8904653
1.0095365e-05
1.0862306e-05
1.1606175e-05
1.3474984e-05
1.4942449e-05
1.694848e-05
1.9530681e-05
2.1282909e-05
2.4773585e-05
2.7565629e-05
3.3026027e-05
4.0612165e-05
5.4893353e-05
8.1716329e-05
0.00013209561
0.00022967536
0.00040012652
0.00071935775
0.0012454952
0.0021252799
0.0033088895
0.0056918875
0.0081717754
0.013005219
0.01756721
0.026036028
0.035132904
0.047765288
0.064142799
0.081087472
0.10773049
0.12976369
0.16861943
0.19792559
0.25013173
0.28753549
0.35522188
0.40147337
0.48580558
0.54150268
0.64302853
0.70824964
0.82694746
0.90217233
1.0384554
1.1235785
1.2769798
1.3727727
1.5435502
1.650898
1.8386723
1.9567042
2.1593366
2.2855536
2.5001612
2.6370201
2.8690418
3.0185819
3.2687745
3.4291753
3.6934452
3.8641246
4.1397846
4.3170879
4.6041877
4.7899917
5.0759209
5.2795996
5.5721615
5.7727782
6.080991
6.3019222
6.6336721
6.8829516
7.3924803
1.0957071e-05
1.4863723e-05
1.6227984e-05
1.9378956e-05
2.0206652e-05
2.2242483e-05
2.3915452e-05
2.6888225e-05
3.2814827e-05
4.5531614e-05
7.319038e-05
0.00013176948
0.0002513026
0.00049539284
0.00095010181
0.0018974273
0.0033382144
0.0059081753
0.010792151
0.016100877
0.02562317
0.040851979
0.057381898
0.085767799
0.11255363
0.16240513
0.20333107
0.2815162
0.33927981
0.44968709
0.52712898
0.66930144
0.7823824
0.9512086
1.1113558
1.2988476
1.5177594
1.7186785
2.0036938
2.2179758
2.5710158
2.8062665
3.2205836
3.4836568
3.954047
4.2555132
4.7935671
5.1389878
5.7516173
6.1432992
6.8212213
7.2570099
7.9811648
8.4555533
9.2445226
9.7938028
10.716533
11.359974
12.399696
13.08962
14.179491
14.914346
16.031032
16.809883
18.040275
18.856289
20.091723
20.993999
22.316862
23.428309
25.343928
26.768252
29.003111
30.600782
33.650653
1.0383956e-05
1.2864072e-05
1.3866835e-05
1.7149763e-05
1.8998258e-05
2.3509908e-05
3.1253699e-05
5.0683585e-05
9.6766742e-05
0.00020484066
0.00044299625
0.00094971649
0.0019506002
0.0040843633
0.0076117556
0.015252604
0.025017466
0.043072807
0.073549683
0.1040094
0.16852112
0.22599386
0.34046057
0.43580766
0.60089622
0.77444306
0.98073901
1.2643622
1.5057368
1.9036003
2.1909739
2.7197463
3.0775579
3.7442508
4.1752708
4.9803532
5.5000162
6.4539871
7.1127418
8.1853834
9.1196598
10.194797
11.452855
12.470909
14.215003
15.446808
17.577504
19.006884
21.500225
23.110769
25.838942
27.653463
30.550459
32.820387
36.6883
39.734181
44.911007
48.191777
53.317896
56.653345
61.801115
65.589378
71.617726
75.527702
83.16699
87.143408
94.446821
99.589998
112.03167
120.89416
143.72174
152.18634
170.81757
178.7936
196.43399
1.090956e-05
1.146367e-05
1.2221995e-05
1.4045388e-05
1.917402e-05
3.6558651e-05
8.9667817e-05
0.00023692369
0.00060607066
0.0014529996
0.0032914237
0.0071427117
0.014313059
0.030314834
0.052229027
0.10074901
0.15368544
0.2635203
0.38707401
0.54563851
0.84009977
1.0749538
1.5459494
1.8911602
2.5724817
3.0480564
3.9873559
4.6207921
5.7839534
6.7194699
8.0217063
9.5242072
10.92411
13.078997
14.574954
17.348374
19.314843
22.903955
25.375911
29.868986
32.824833
37.94771
41.566327
47.990745
56.019777
62.137226
72.74157
79.042747
91.862461
98.743369
112.50589
121.23269
139.01371
155.36585
186.20387
207.12118
239.59725
250.25824
267.87124
290.80167
315.46003
350.43634
388.58764
404.78242
465.02585
477.78051
520.25416
557.08977
615.91103
625.1368
685.98104
689.86487
738.3927
761.36175
801.33938
1.233973e-05
1.4548584e-05
1.7656291e-05
2.8027336e-05
6.7855983e-05
0.00020782651
0.00062566522
0.0017388463
0.0043964294
0.010241272
0.02257782
0.048337558
0.090344224
0.1852512
0.29482767
0.53790993
0.76906473
1.2648663
1.6775661
2.4993849
3.2910177
4.2539211
5.7742893
6.9421469
9.1437767
10.709352
13.731073
15.818804
19.71357
22.665902
28.386601
32.381405
39.460395
45.722121
52.189427
64.613679
73.651255
89.750221
100.70214
122.10835
134.88915
159.03233
180.21129
238.8971
272.20368
301.85701
357.02776
384.73682
471.44629
490.42539
577.55304
616.81111
688.08422
714.1469
777.94749
853.72284
895.95658
899.17638
935.75607
915.65663
919.7754
1020.9564
910.88498
911.12719
906.39378
842.63943
870.2011
866.3163
767.72931
745.64294
674.37769
675.97461
638.34848
607.11016
519.0753
1.1958319e-05
1.6376486e-05
3.0877036e-05
0.00010661966
0.0004123362
0.0014445326
0.0043459671
0.011678008
0.028165921
0.062888985
0.13550119
0.27149155
0.48040892
0.92034758
1.3691815
2.3457173
3.1829227
4.9467032
6.3247188
9.1424854
11.246666
15.321946
18.838927
23.708233
30.276101
36.084138
46.504429
54.167078
68.828415
83.003769
107.71684
124.20914
157.83998
177.85916
221.02468
297.40819
337.13179
415.40031
470.78758
594.27809
635.96217
786.01851
813.16683
981.44203
977.62538
1103.6547
1045.4154
1113.1338
1169.4597
1083.6955
1249.4136
1023.5475
890.24054
825.03727
824.37236
693.41018
564.33731
509.49052
496.93519
415.03045
385.21885
342.04063
267.30022
302.86043
201.89724
221.26769
188.93927
151.82385
95.954913
106.94109
76.05158
89.002285
64.733777
50.220869
35.853882
1.0435517e-05
2.2321144e-05
0.00011780668
0.00065308691
0.0027518586
0.0093357594
0.026683483
0.0682518
0.15562501
0.33446476
0.71996687
1.2277618
2.2086358
3.686591
5.3533923
8.6057949
11.315883
16.924167
21.288644
30.127202
37.255084
51.184252
61.896617
84.106034
103.67161
133.35497
171.89534
206.66359
290.51246
377.21417
467.42993
552.11845
723.81784
792.3338
1007.8182
1051.4709
1162.6868
1175.228
1299.4408
1304.9716
1223.8128
1196.1949
1033.7391
939.15029
754.01051
722.05558
476.25787
539.56024
315.41807
357.96218
287.933
138.52835
155.98845
124.96041
109.92374
53.793666
41.009272
43.507665
38.352587
29.184068
40.348219
26.781629
24.568245
35.954368
18.088449
27.504362
20.851262
9.1495099
8.9973029
13.718075
9.5272346
10.246304
5.3346093
3.9360093
2.8551898
9.6466948e-06
7.6792908e-05
0.00074449975
0.0041810484
0.016795854
0.053161824
0.14221135
0.34713234
0.73980719
1.5663415
2.9575102
4.8806067
8.6769485
12.289191
19.284118
27.594929
37.243758
55.221351
69.843563
101.53941
129.60455
182.06187
226.20667
340.5752
424.73242
582.75374
741.19628
915.10385
1125.6255
1267.8858
1284.3327
1446.0943
1400.6123
1355.989
1255.65
903.39887
849.69392
627.28072
563.13616
343.71699
349.1348
207.51631
190.44733
101.74948
148.62872
73.657981
47.035916
65.419488
26.113916
51.845391
22.246977
7.9096588
14.781939
12.557034
7.0151347
5.4215334
4.7536513
6.1081236
5.3136712
4.3846493
8.5820557
5.6996002
7.2569788
10.633229
4.1037547
6.843344
4.1208864
3.0752932
6.9673337
6.5411603
3.6167479
2.5005473
1.4556149
1.483081
1.3494922
9.4242611e-06
0.00049731328
0.004756506
0.024463807
0.090283834
0.26402626
0.6571341
1.5562466
3.0204473
6.3575216
10.161061
17.768751
27.424319
40.159749
64.283594
85.920439
131.13896
185.18243
246.46435
396.82808
528.46033
751.82732
948.03324
1252.0805
1329.0332
1516.4459
1545.3842
1473.5613
1246.6991
1016.8848
693.27855
655.47781
350.77903
418.82423
175.88326
102.14027
91.500356
72.04049
52.965472
24.491084
31.940742
15.551111
16.273227
17.008924
65.902047
13.740972
12.002306
13.216543
4.9395017
17.610125
4.4696997
2.5467978
3.1282286
3.0284399
2.8687309
2.8729148
3.2773986
3.1601502
2.7296827
2.7988405
3.7178841
3.0440601
6.787049
3.546826
1.7029469
2.8381267
1.8484211
3.4369144
12.128544
3.725062
2.6035625
1.8486786
1.3449194
1.2394761
1.2166079
6.4460359e-06
0.003201826
0.027368431
0.12692466
0.42443087
1.1419129
2.6399164
5.8727595
10.759294
21.135888
33.168884
57.749177
84.389168
138.96198
211.10611
298.95776
519.9848
707.93198
1020.7665
1407.649
1525.7304
1698.2246
1641.7685
1405.9243
1147.717
754.91912
632.01511
311.32538
180.43565
110.88014
85.884161
75.331533
28.918347
41.620728
11.413968
11.4996
10.573324
14.821432
6.6601321
2.6256881
3.4501832
2.3020428
3.4765171
8.4070489
12.515422
4.9268209
7.0500144
10.249628
3.3301399
7.6271129
2.9693089
2.6911376
2.8489989
2.5762741
2.0537573
2.0637038
5.3442666
6.3056527
5.9915206
3.5790605
3.1119362
2.7421416
4.3804604
2.9677463
1.6820842
1.6926026
1.6971997
3.602182
4.4996526
1.7748513
2.226168
1.5674229
1.4287102
1.2430728
1.2384946
3.6693509e-06
0.01822315
0.13856479
0.5768528
1.7433428
4.3292358
9.340272
19.350733
35.21338
65.709136
106.07427
184.46649
286.92116
523.80349
792.03485
1223.3821
1543.3175
1717.0162
1878.8444
1595.5985
1129.6745
701.4644
397.52156
230.41833
178.79402
88.913655
74.798058
21.528739
15.996652
9.1601216
16.131079
6.987888
4.3863508
5.5645376
2.5414745
3.6063489
3.7815942
2.4022505
2.1404639
1.3556075
1.1887974
1.9895556
5.1036356
4.6436577
22.983306
2.5737043
3.4792717
9.6752025
3.8369395
4.4830354
2.4243015
2.3496799
3.3116779
2.5410855
1.9655456
2.02153
5.5286887
8.0162326
5.9792926
2.9668464
1.9427464
1.9576285
2.9865423
2.5850399
2.0862215
1.4043625
2.1562669
1.8738
1.9517789
1.6331377
1.4838511
1.4946429
1.4064197
1.449886
1.4606949
0.00073997046
0.096759371
0.62492748
2.3018246
6.2831185
14.55787
29.860702
59.872133
113.654
206.6333
361.14538
675.64056
1128.9239
1612.5112
1911.291
1894.3648
1505.1175
1051.1197
673.74574
238.00093
151.69998
73.429406
33.059533
25.081962
29.620991
12.895398
14.153263
3.0742535
2.040547
1.5708369
5.5503405
2.3873019
3.1415305
3.3478727
1.6741067
2.0077247
3.4298944
0.95728277
2.1319638
1.247156
0.88942252
3.0467821
4.5469119
2.8984032
4.6644687
2.3680306
2.6183216
6.3783472
3.2953733
4.4978005
2.1520536
1.550699
2.1319258
1.9219217
2.0566995
2.1579543
2.9697805
4.1080381
3.2318068
2.7093437
2.1848844
3.2643448
2.8707973
2.9912742
2.5192076
1.3116011
1.8822072
1.4344104
1.4028163
1.432617
1.4624873
1.3398127
1.3269818
1.5315984
1.5292539
0.0084046015
0.45851134
2.5049017
8.1016115
20.171291
44.135191
90.973282
190.95275
375.01216
745.24254
1421.5944
1789.9357
1976.0236
1732.2961
1161.6266
500.56709
259.12008
176.57701
71.1873
17.857024
17.140684
6.5023458
2.8983085
4.0376974
4.9691111
3.7717013
11.923565
3.0470769
1.0285463
0.93748466
3.0462457
0.72622569
1.7812931
3.193832
1.1083186
1.5503026
2.4902477
0.75067507
0.67500143
0.98269738
1.0956508
2.9619757
4.6640858
6.8569612
3.699801
2.1422294
2.1880614
3.909792
2.9647495
4.2123702
2.0934474
1.4397644
2.4414031
2.1764594
2.4550142
2.6837887
3.0438206
5.4271476
3.5309637
3.8499902
3.3916659
3.6571894
2.8788846
2.0954738
1.974825
1.2773088
1.4995141
1.428082
1.3456415
1.4944878
1.4754479
1.6112012
1.5730738
1.5585757
1.4735823
0.064390429
1.9421963
8.8913398
25.414321
59.352031
130.23227
282.45078
667.0105
1424.0104
1886.5235
2026.201
1562.2373
684.84703
366.88007
169.90412
52.332678
34.065306
32.087766
7.307849
2.3016312
1.7996862
0.87269625
1.1510184
2.1293575
1.8610765
3.4938664
4.2041436
2.565622
0.96247732
0.73844798
2.0166987
0.57247262
1.1189461
4.9599649
1.0532923
1.3496413
1.7977488
0.68270713
0.56963402
1.0220456
0.93901779
2.997937
6.3320501
10.244961
4.5086555
2.0922207
2.0354389
3.3442148
2.9153707
7.0009626
2.3209145
1.4728607
3.9855539
2.9768074
2.7778919
2.9424238
2.8475232
4.6202999
3.9243018
4.511332
3.3940636
2.6208747
3.4967985
1.9555151
1.7110557
1.2758575
1.372972
1.518087
1.7330305
1.985234
1.4669169
1.8775196
1.9112096
1.8278514
1.4942279
0.39702678
7.3586731
28.190407
72.854488
167.80863
395.67039
991.92229
1842.5524
2324.7092
1701.8746
603.25009
305.60871
95.627726
63.170996
15.310498
3.9545184
5.7485406
7.6280554
1.6997586
1.2804409
0.63986662
0.41503749
0.87163232
1.4755177
2.1035623
4.481005
3.558299
2.6756811
1.0517017
0.85429499
1.5225436
0.67220624
0.66345773
5.2244544
1.077438
1.1819777
1.4443752
0.68925756
0.57249743
0.97942823
0.9071347
2.1038029
5.7026862
8.1238512
4.5867561
1.5924932
1.7278268
2.5134084
2.1353052
4.1683561
1.5482964
1.350413
3.2134685
2.9940801
3.5265653
3.061198
2.9057613
3.1706219
3.5015003
3.8505495
2.5608477
2.3825742
4.1125895
1.7433131
1.8306376
1.7746262
1.3815271
1.4923658
1.9842319
2.0714433
1.5514802
1.8564088
2.0190949
2.1346262
1.7553052
2.0961538
25.024745
81.3686
198.04667
488.00158
1370.2105
1975.2783
1892.8881
985.50482
355.89118
90.516451
42.355501
10.608683
8.2165046
1.1592993
0.79746717
2.3859013
2.5559914
0.56122111
0.69950996
0.47828362
0.3534001
0.57145216
1.2962276
2.424137
4.0063245
3.4834413
2.2721705
1.2362495
1.4180791
1.2985684
1.1071742
0.68417555
2.9660764
0.93501625
1.0632207
1.2545906
0.70545313
0.63843182
0.68005816
0.9821081
1.7409068
2.5856297
7.8127344
1.7662881
1.2567796
1.6391942
2.570905
2.0442461
2.074959
1.2561694
1.2033888
2.7192924
2.2278003
5.0669956
4.4723835
4.3951997
4.2081883
3.6168905
3.7501705
2.9814132
2.3092907
3.3273197
2.4497293
2.617444
1.5421723
1.411876
1.5507723
1.7733587
2.1456368
1.5634278
2.174536
2.2377345
2.2110678
1.8425374
9.7388915
77.294643
219.06931
542.52317
1587.2745
2203.1967
1477.9971
529.8206
197.38664
39.541006
9.4021306
4.1386056
1.5553298
1.8095219
0.26939644
0.52862767
1.5299661
1.2452835
0.47551824
0.53470613
0.46219491
0.3207264
0.52220402
1.3734283
2.9172588
2.7670615
2.801564
2.2719805
1.4112399
3.6726192
1.3182051
1.489097
0.81150656
1.328831
0.83899554
0.9768021
1.1330743
0.60409367
0.72435838
0.54716616
1.1018861
1.4494364
2.1544512
1.6611011
1.0934075
1.123951
2.0084929
2.9351563
1.9410079
1.7363371
1.2012062
1.1840621
3.4959917
1.9047179
3.9106767
4.0388657
4.7896707
3.9799006
3.5703599
3.5542528
2.6471513
2.2480618
3.4137591
2.9517529
2.5720602
1.6432366
1.2439828
1.6582695
1.5396598
1.7140213
1.5670918
2.4632648
2.3370306
2.2443726
1.8324565
40.711457
219.00823
575.09194
1617.6903
2216.0913
1242.8197
511.83988
116.16884
22.917078
3.1065494
1.2504286
0.5881029
0.45597934
0.83616375
0.22960874
0.44160697
1.1717384
0.78329114
0.47201399
0.49280149
0.5269236
0.2876828
0.56097446
1.5576278
3.4052069
0.88347988
2.365385
1.787194
1.4592829
7.7151682
1.484617
1.3906202
0.79345449
0.81254316
0.81193184
1.0052368
0.94367002
0.65873637
1.022679
0.66613217
1.3381615
1.3297909
1.9013157
1.4683135
0.97592222
0.92566074
2.5113562
2.7410631
1.8728148
1.2968499
1.2026073
1.1811896
1.5772467
1.3572422
1.8060492
2.8064645
2.7846006
2.7582063
3.0749758
3.1888686
1.9783559
1.9417638
4.5044712
2.744993
1.7407137
1.0779497
1.2309389
1.7837825
1.5142338
1.6172293
1.6271666
2.0233959
2.7664264
2.4617387
1.8525628
156.69897
577.08056
1584.8353
2123.1925
1115.5927
441.08138
115.52129
13.229777
2.2548576
1.0480563
0.56743939
0.34639973
0.34680714
0.61177131
0.22599537
0.33212303
0.97365604
0.5956356
0.47537359
0.49193143
0.49513563
0.2932387
0.59279049
1.8936058
5.2438119
0.68288793
0.86276862
1.5107484
2.3970037
8.2061595
1.469277
1.2485564
0.78791909
0.75616752
0.82241115
1.3960382
0.87283825
0.65906438
1.5060042
1.2082084
1.0206673
1.3879322
1.8696454
1.42843
1.0092947
0.87844837
1.1464838
2.1778008
1.6419403
1.1756638
1.1887709
1.1564719
1.721535
1.3204254
1.8634153
2.6599824
3.703357
3.3655932
3.0024819
2.6086842
1.8786384
2.0404103
3.6027519
2.3165323
1.5725448
0.90724309
1.4697261
1.7306318
1.1254141
1.368996
1.6527867
2.9020961
3.018934
2.7056157
1.9122843
494.47303
1526.3871
2521.7283
1317.3679
439.76315
110.28322
13.610284
1.5052157
0.66636912
1.0709736
0.53449279
0.34460647
0.46521858
0.52802282
0.22980229
0.30119292
0.84186006
0.51779981
0.48827369
0.49851534
0.49688837
0.28939073
0.59683276
1.7226168
2.0357197
0.64139006
0.61544533
1.7866634
3.7289804
4.4057762
1.4881003
1.1192661
0.83908426
0.73321696
0.71955304
2.2854491
1.048393
0.71930208
1.367383
1.3823146
0.67317859
1.004316
1.0660083
0.97195056
0.9328537
0.76099528
0.90761281
1.6614024
1.3277253
1.0627662
1.1664003
1.2143723
1.3046117
1.2501732
2.7293885
3.5074811
4.4475972
3.7061487
3.5698661
2.3473441
1.72101
2.4545034
2.4053288
2.218701
2.0360903
1.0450136
1.3116189
1.4442409
1.03165
1.313017
1.9812914
3.9749931
3.0565933
2.7167028
1.9536567
1466.5261
3002.6539
2035.6275
582.95522
116.64021
16.456441
1.5038587
0.46735038
0.6136621
1.0705746
0.53622364
0.34271304
0.90495919
0.49954967
0.24396268
0.28718211
0.73789633
0.48686787
0.49715501
0.52431922
0.54649613
0.29350509
0.64028588
1.4046806
0.79571367
0.63370021
0.59738473
1.8029368
3.3612644
4.2359088
1.4772472
1.1369012
0.9859734
0.70080732
0.70213679
2.3645114
1.3663909
0.78264066
0.83090849
1.0060253
0.73213552
1.1584314
1.0218783
0.90056472
0.87836955
0.76519064
0.88466143
1.6057529
1.1965289
1.089696
1.2631838
1.28635
1.1113654
1.1924875
2.3821935
2.4820238
2.7802827
3.2097212
3.3933259
2.2761187
1.6903098
2.4983127
2.4685045
2.3180019
2.1353044
1.2538444
1.2396006
1.5350716
1.0490924
1.1449359
2.5575414
2.7771415
2.8394838
2.5189643
1.9462748
4179.5245
3186.2063
764.68242
128.72736
17.723149
2.1245113
0.46446696
0.40922289
0.72289238
1.0484206
0.53697748
0.33954862
1.5398453
0.50569975
0.25465273
0.28203833
0.66858316
0.48001544
0.51455062
0.54354059
0.53705681
0.30227622
0.56675036
1.1552308
0.71377826
0.68214722
0.61466925
1.3423669
2.8819809
5.5395961
1.4275668
1.3760605
1.1671877
0.7565544
0.73699943
1.3091392
1.3030753
0.86459505
0.9631591
1.0821523
0.81963879
1.1232394
1.0076473
0.94776818
0.90985059
0.76150386
0.8636107
1.6135539
1.0984697
1.2443368
1.2781933
1.1929319
1.1116592
1.2715171
1.3221356
1.5326489
4.5450223
3.2895856
3.0221143
2.0860648
1.9467505
2.124332
5.4718239
3.0764689
2.4895412
0.94364494
1.3701687
1.551935
1.301481
1.1429669
2.7602621
1.7631339
2.0344477
2.056217
1.883232
7814.5308
1540.5719
157.4186
17.212683
2.3514497
0.49984209
0.42050081
0.44159671
0.88123609
1.0095521
0.54480746
0.36056442
2.0806853
0.51627391
0.26717556
0.28117955
0.63804491
0.4805054
0.55973156
0.57813884
0.43751422
0.31205393
0.52827381
0.92209082
0.73615261
0.70012285
0.62559746
1.1995663
3.5200039
4.1391221
1.283858
1.6394188
1.2335644
0.99907712
0.75127485
0.8947645
1.1948274
0.89690544
1.5016864
1.2496234
0.87579181
1.0876461
1.1753973
0.97833067
1.0757047
0.77552616
0.84065476
1.3608233
1.0599895
1.061565
1.1601495
1.3441883
1.3018719
1.4102938
1.4415213
1.6157484
1.7165258
2.3461228
2.6244137
2.0587856
2.1256363
2.0710493
12.575949
4.1826978
2.612411
1.0073884
1.2052462
1.3594144
1.3760541
1.1395887
2.1611848
1.5721193
1.3282846
1.7666123
1.8581666
1501.496
237.83179
17.076372
1.9220319
0.4849633
0.35080262
0.49987098
0.5062076
0.98106067
0.98731554
0.5553413
0.39868359
2.2758633
0.49738463
0.28073753
0.28939405
0.61161783
0.49243004
0.61893722
0.60517584
0.39893508
0.32745035
0.52105127
0.77115946
0.80019197
0.68968913
0.64098985
0.92848039
5.2575037
1.7127063
1.4912534
1.9682466
1.289044
0.99779835
0.70573983
0.74283901
1.1424532
0.91669537
1.3211344
1.0688843
0.82681765
1.3722281
1.3402625
0.98584126
1.1368532
0.76721445
0.84372629
1.1053388
1.0765862
1.13048
1.1602067
1.5806071
1.4826357
1.5834113
1.4450776
1.0581673
1.0379068
1.9217438
2.304571
1.9928597
1.915683
3.8100114
27.395068
7.7867166
2.9110858
1.677378
1.0502404
1.1009723
1.4881763
1.1037343
2.1979072
1.4563575
1.1389763
1.5329368
1.9057657
101.82383
20.281018
1.3914437
0.31820946
0.27172231
0.37131661
0.56931763
0.57376465
1.0009854
0.96615245
0.56089864
0.42384548
2.0066249
0.45625045
0.29641668
0.30483862
0.60234991
0.51203191
0.65340232
0.6314507
0.39010502
0.32930245
0.51333205
0.77443347
0.86674898
0.6937144
0.60962713
0.6767661
3.221902
0.9815644
3.8583003
2.1516013
1.1205908
0.84171013
0.59037191
0.67370581
1.1512547
0.95035601
0.79596689
0.75596579
0.85771274
1.8083554
1.167902
1.039238
0.98886823
0.75849155
0.91462643
1.0791732
1.2389378
1.7140083
1.3683999
2.1735443
1.6046783
1.594929
2.1508516
1.4087446
1.163114
1.4681171
2.0633989
2.0024606
1.6713503
10.626819
18.91928
19.352545
5.8834107
2.5225531
1.1724253
1.0954758
1.6216478
1.1150449
2.425563
1.3686188
1.1028607
1.4117231
1.8519266
3.4923713
1.1716653
0.20952701
0.17014177
0.25661186
0.42172951
0.63744754
0.64523496
0.97946576
0.96664599
0.57779201
0.43392246
1.0795205
0.42110096
0.31392556
0.32661258
0.60796787
0.52202924
0.67203067
0.66568482
0.39097538
0.32758294
0.51844909
0.68928795
0.92917759
0.70981278
0.5177867
0.58754878
0.92287031
0.64854585
2.7717066
1.7631152
0.87511143
0.62823966
0.56762999
0.65737153
1.168959
1.0004697
0.82261238
0.70558508
0.81527774
1.0145997
0.95692965
1.0651129
0.94536777
0.75482239
0.96716659
1.2124392
1.3114345
1.4946504
1.0575079
2.1954004
1.5555752
1.6296741
4.3181146
2.0258015
1.8214637
1.5096638
2.295017
2.4196998
2.0353741
9.9570165
26.450193
36.705253
10.613112
2.5335916
1.3386121
1.4648596
1.2437444
1.0804265
1.7114084
1.2337269
1.0972428
1.4026442
1.7119635
0.58935108
0.27998379
0.14124121
0.15954901
0.26654462
0.45907629
0.66824306
0.69596683
1.0568362
1.0088829
0.59434451
0.4110166
0.58335923
0.38851813
0.33675295
0.35854903
0.62267312
0.52160089
0.71108842
0.70577422
0.40629319
0.32174649
0.51570194
0.73958649
1.070303
0.71757648
0.5055866
0.73375685
0.62467159
0.60117538
2.5439846
1.5327743
0.65072493
0.51692713
0.58194698
0.68275048
1.1208873
0.99723742
0.98541659
0.81985874
0.78571781
1.2023948
1.1376208
1.3059978
0.96652511
0.75387887
0.97440865
1.3166808
1.1732387
1.1918874
0.960788
1.4271608
1.1319579
1.8073827
6.2727966
3.0875883
2.0998004
1.9963874
2.7754866
5.3050654
2.4770221
8.1043355
9.1023322
5.6619248
9.3407677
1.1347793
1.0801934
2.1398616
1.042823
1.0762739
1.362921
1.1946759
1.1236402
1.4381246
1.6112813
0.53287393
0.2504343
0.13963431
0.1626346
0.27940782
0.48582609
0.67808269
0.71896087
1.6043107
1.1060976
0.60641759
0.4078041
0.43812829
0.37461895
0.36602627
0.40391628
0.6244817
0.50799558
0.79579457
0.78077096
0.45183357
0.32106734
0.65866013
1.9806154
1.2382782