/*--------------------------------*- C++ -*----------------------------------*\
| =========                 |                                                 |
| \\      /  F ield         | OpenFOAM: The Open Source CFD Toolbox           |
|  \\    /   O peration     | Version:  2.3.0                                 |
|   \\  /    A nd           | Web:      www.OpenFOAM.org                      |
|    \\/     M anipulation  |                                                 |
\*---------------------------------------------------------------------------*/
FoamFile
{
    version     2.0;
    format      ascii;
    class       volScalarField;
    location    "3.7e-05";
    object      nuSgs;
}
// * * * * * * * * * * * * * * * * * * * * * * * * * * * * * * * * * * * * * //

dimensions      [0 2 -1 0 0 0 0];

internalField   nonuniform List<scalar> 
7500
(
4.1404793e-10
4.1898883e-10
4.2388702e-10
4.2874796e-10
4.3355692e-10
4.3832365e-10
4.4306164e-10
4.4772821e-10
4.5237345e-10
4.5696532e-10
4.6149764e-10
4.6598873e-10
4.7043338e-10
4.7482908e-10
4.7918054e-10
4.8348865e-10
4.8774665e-10
4.9196693e-10
4.9613645e-10
5.0026388e-10
5.0434018e-10
5.0838655e-10
5.1238498e-10
5.1634803e-10
5.2028142e-10
5.2417569e-10
5.2802477e-10
5.3183779e-10
5.3559176e-10
5.3929205e-10
5.4293873e-10
5.4653001e-10
5.5007039e-10
5.5357375e-10
5.5703192e-10
5.6046883e-10
5.6386873e-10
5.6722224e-10
5.7054521e-10
5.7958779e-10
5.8315932e-10
5.8668955e-10
5.9018316e-10
5.9364162e-10
5.9707335e-10
6.004754e-10
6.0387178e-10
6.0722649e-10
6.1060654e-10
6.1391685e-10
6.172934e-10
6.2058843e-10
6.2400925e-10
6.2731634e-10
6.3083726e-10
6.3418722e-10
6.378676e-10
6.4129471e-10
6.4519421e-10
6.4873088e-10
6.5291242e-10
6.5659865e-10
6.6114413e-10
6.6502702e-10
6.7003745e-10
6.7417044e-10
6.7974631e-10
6.8418648e-10
6.9042747e-10
6.9519771e-10
7.0218347e-10
7.0731982e-10
7.1510267e-10
7.2066728e-10
7.3153344e-10
4.5545996e-10
4.6090034e-10
4.663022e-10
4.7165353e-10
4.7695442e-10
4.8220929e-10
4.874245e-10
4.9258059e-10
4.9770015e-10
5.0276733e-10
5.0778641e-10
5.1275792e-10
5.1768085e-10
5.2255169e-10
5.2737393e-10
5.3214569e-10
5.3686861e-10
5.4154346e-10
5.4617443e-10
5.5075876e-10
5.5529919e-10
5.5979251e-10
5.6424108e-10
5.6864294e-10
5.7300164e-10
5.77306e-10
5.8156541e-10
5.8576926e-10
5.8992286e-10
5.940258e-10
5.9808221e-10
6.020946e-10
6.0606819e-10
6.1000663e-10
6.1391817e-10
6.1780906e-10
6.2170592e-10
6.2557128e-10
6.2948802e-10
6.3974712e-10
6.4414638e-10
6.4850308e-10
6.531079e-10
6.5764131e-10
6.6261315e-10
6.6744686e-10
6.7298594e-10
6.7827351e-10
6.8462406e-10
6.9055353e-10
6.9802264e-10
7.0480936e-10
7.1374477e-10
7.2164588e-10
7.3253552e-10
7.4180823e-10
7.5503635e-10
7.6592444e-10
7.8189246e-10
7.9450395e-10
8.1341528e-10
8.2798796e-10
8.5019963e-10
8.6686934e-10
8.9274259e-10
9.1158859e-10
9.4125899e-10
9.624177e-10
9.9582676e-10
1.018968e-09
1.0560104e-09
1.0808997e-09
1.120958e-09
1.1477785e-09
1.2053369e-09
5.0105704e-10
5.0712229e-10
5.131835e-10
5.1916113e-10
5.2512861e-10
5.3101455e-10
5.3689422e-10
5.426902e-10
5.4849201e-10
5.5419798e-10
5.5990834e-10
5.6551566e-10
5.7111846e-10
5.766155e-10
5.8210977e-10
5.8750482e-10
5.9289999e-10
5.9819629e-10
6.0349754e-10
6.086968e-10
6.1390685e-10
6.1901264e-10
6.2414254e-10
6.2916348e-10
6.3422797e-10
6.3917421e-10
6.4418033e-10
6.4908162e-10
6.5406963e-10
6.5900142e-10
6.6410316e-10
6.692219e-10
6.7470387e-10
6.8027492e-10
6.8658307e-10
6.9301795e-10
7.0082353e-10
7.0870425e-10
7.1892996e-10
7.3635289e-10
7.5081746e-10
7.6465408e-10
7.8453884e-10
8.0280693e-10
8.2999503e-10
8.5392368e-10
8.9012746e-10
9.2078367e-10
9.6734804e-10
1.0055858e-09
1.0636359e-09
1.1099516e-09
1.1799966e-09
1.2349029e-09
1.3182266e-09
1.3817619e-09
1.478172e-09
1.5500977e-09
1.659101e-09
1.7382128e-09
1.8582985e-09
1.9446211e-09
2.0755941e-09
2.1687314e-09
2.3106441e-09
2.4099647e-09
2.5623397e-09
2.66771e-09
2.8281751e-09
2.9376707e-09
3.104936e-09
3.2169638e-09
3.3882282e-09
3.5039099e-09
3.7409845e-09
5.5165373e-10
5.5890174e-10
5.6654331e-10
5.7384701e-10
5.8113227e-10
5.8807713e-10
5.95194e-10
6.0207489e-10
6.0912553e-10
6.1589917e-10
6.2283372e-10
6.2946746e-10
6.3632618e-10
6.4285373e-10
6.4966935e-10
6.5612763e-10
6.628926e-10
6.6928239e-10
6.7598677e-10
6.823215e-10
6.8899404e-10
6.9534026e-10
7.0211321e-10
7.0865743e-10
7.1587378e-10
7.2303531e-10
7.3142761e-10
7.4001086e-10
7.5089583e-10
7.6237618e-10
7.7827376e-10
7.9523371e-10
8.2038899e-10
8.4648993e-10
8.8666742e-10
9.2625871e-10
9.8792371e-10
1.0451943e-09
1.1337859e-09
1.2237994e-09
1.3456289e-09
1.4478811e-09
1.6048175e-09
1.7311028e-09
1.9248081e-09
2.0754797e-09
2.3057623e-09
2.480451e-09
2.7461729e-09
2.944186e-09
3.244479e-09
3.4646915e-09
3.7972818e-09
4.0401306e-09
4.4072556e-09
4.6721057e-09
5.072833e-09
5.3583046e-09
5.7890572e-09
6.0909627e-09
6.5464206e-09
6.8645844e-09
7.3438575e-09
7.6774385e-09
8.1798226e-09
8.5271844e-09
9.0537293e-09
9.4130802e-09
9.9535589e-09
1.0320179e-08
1.0868407e-08
1.1237034e-08
1.1787515e-08
1.2161413e-08
1.290599e-08
5.9832355e-10
6.0983125e-10
6.1925328e-10
6.303377e-10
6.3963941e-10
6.5046984e-10
6.601172e-10
6.703807e-10
6.8025805e-10
6.9006337e-10
7.0025743e-10
7.097766e-10
7.2056391e-10
7.3006206e-10
7.4132771e-10
7.51007e-10
7.626118e-10
7.7254625e-10
7.8451641e-10
7.9516368e-10
8.083665e-10
8.2105969e-10
8.3805722e-10
8.560087e-10
8.8271689e-10
9.1239754e-10
9.5993469e-10
1.0110509e-09
1.093995e-09
1.1786475e-09
1.3151119e-09
1.4457167e-09
1.6524206e-09
1.837266e-09
2.1255663e-09
2.3691767e-09
2.7467666e-09
3.0519258e-09
3.5211189e-09
3.888178e-09
4.4530661e-09
4.8831004e-09
5.5466646e-09
6.0400462e-09
6.8033801e-09
7.3600716e-09
8.220852e-09
8.8390838e-09
9.7927274e-09
1.0469428e-08
1.1512056e-08
1.2241653e-08
1.3362772e-08
1.414542e-08
1.5346233e-08
1.6180785e-08
1.7462036e-08
1.8343185e-08
1.9689981e-08
2.0606154e-08
2.2001994e-08
2.294989e-08
2.4391038e-08
2.536821e-08
2.6846092e-08
2.7850213e-08
2.9374847e-08
3.0394906e-08
3.19369e-08
3.2963152e-08
3.4493688e-08
3.5513811e-08
3.7028245e-08
3.8046659e-08
4.0043284e-08
6.3167227e-10
6.4303028e-10
6.5391693e-10
6.6825882e-10
6.8169704e-10
6.9697717e-10
7.1474724e-10
7.2944521e-10
7.4942002e-10
7.647109e-10
7.863652e-10
8.0254563e-10
8.2602137e-10
8.4347074e-10
8.6908309e-10
8.8830359e-10
9.1639036e-10
9.3946947e-10
9.7335859e-10
1.0078344e-09
1.0601119e-09
1.121697e-09
1.2232662e-09
1.3392824e-09
1.5331165e-09
1.7353817e-09
2.0645087e-09
2.3730915e-09
2.8628285e-09
3.2936022e-09
3.9737248e-09
4.5421136e-09
5.4364274e-09
6.1522726e-09
7.2779105e-09
8.1478335e-09
9.5211664e-09
1.0551507e-08
1.2173019e-08
1.336347e-08
1.5239756e-08
1.6587573e-08
1.8714336e-08
2.0216944e-08
2.2588693e-08
2.424206e-08
2.684667e-08
2.8643066e-08
3.1461903e-08
3.3390066e-08
3.640787e-08
3.8445173e-08
4.1626381e-08
4.3765976e-08
4.7094067e-08
4.9336556e-08
5.2824119e-08
5.5153038e-08
5.875396e-08
6.1143206e-08
6.4813386e-08
6.7248659e-08
7.0980689e-08
7.3454367e-08
7.7207987e-08
7.9726281e-08
8.3538763e-08
8.6062819e-08
8.988269e-08
9.2387389e-08
9.6105776e-08
9.8577554e-08
1.0221062e-07
1.0464735e-07
1.0930517e-07
6.5965311e-10
6.8274824e-10
6.9964652e-10
7.261862e-10
7.4470902e-10
7.6970926e-10
7.95948e-10
8.1867272e-10
8.5269022e-10
8.7871298e-10
9.1953357e-10
9.491594e-10
9.9496695e-10
1.035804e-09
1.0863555e-09
1.1476538e-09
1.215976e-09
1.3223783e-09
1.4568124e-09
1.6735076e-09
1.9403338e-09
2.3278801e-09
2.8830526e-09
3.4702712e-09
4.379858e-09
5.2221887e-09
6.5470539e-09
7.6722691e-09
9.4527889e-09
1.0890033e-08
1.3190604e-08
1.4969908e-08
1.7827362e-08
1.9964273e-08
2.3397997e-08
2.5896935e-08
2.993116e-08
3.2797157e-08
3.7412438e-08
4.0634266e-08
4.582162e-08
4.9369462e-08
5.507812e-08
5.8935933e-08
6.513309e-08
6.9280311e-08
7.5919149e-08
8.0334428e-08
8.735622e-08
9.2014334e-08
9.9377437e-08
1.0421304e-07
1.1182897e-07
1.1680681e-07
1.2460267e-07
1.2973885e-07
1.3777089e-07
1.4302734e-07
1.5118552e-07
1.5651499e-07
1.6470401e-07
1.7007321e-07
1.7829861e-07
1.8368279e-07
1.9182354e-07
1.9727142e-07
2.0540737e-07
2.1083666e-07
2.1895144e-07
2.2426538e-07
2.3202763e-07
2.3726408e-07
2.4473607e-07
2.4986354e-07
2.5933209e-07
6.8203888e-10
7.3346563e-10
7.6038976e-10
8.176695e-10
8.4909935e-10
9.1143926e-10
9.4681782e-10
1.0130349e-09
1.0512534e-09
1.1182843e-09
1.1631535e-09
1.2371863e-09
1.3050873e-09
1.4123827e-09
1.5523259e-09
1.7751967e-09
2.1012145e-09
2.609758e-09
3.2794599e-09
4.2775116e-09
5.3699525e-09
7.0982332e-09
8.773203e-09
1.0985278e-08
1.3814775e-08
1.6514625e-08
2.0522772e-08
2.3859956e-08
2.9034603e-08
3.3030663e-08
3.9460667e-08
4.416361e-08
5.1825005e-08
5.7267988e-08
6.6130931e-08
7.2284641e-08
8.2350997e-08
8.9197324e-08
1.0037797e-07
1.0787004e-07
1.2007867e-07
1.2811148e-07
1.4118104e-07
1.4971863e-07
1.6357442e-07
1.7255804e-07
1.8706829e-07
1.9646919e-07
2.1151314e-07
2.2131141e-07
2.3681433e-07
2.4688241e-07
2.6268691e-07
2.7290999e-07
2.8883357e-07
2.992862e-07
3.1551007e-07
3.2614558e-07
3.4249252e-07
3.5324292e-07
3.69553e-07
3.8038382e-07
3.9671462e-07
4.0753434e-07
4.2364484e-07
4.3462185e-07
4.5051319e-07
4.6152364e-07
4.7740518e-07
4.881001e-07
5.0326585e-07
5.1387764e-07
5.2857168e-07
5.392296e-07
5.5833411e-07
6.8970617e-10
7.2715994e-10
7.6371445e-10
8.3584372e-10
8.9373405e-10
9.6619761e-10
1.0525279e-09
1.1146543e-09
1.2196871e-09
1.3045194e-09
1.4474192e-09
1.6266131e-09
1.9160192e-09
2.3679642e-09
3.0489168e-09
4.0704468e-09
5.4384186e-09
7.3797851e-09
9.8254015e-09
1.2984e-08
1.6386198e-08
2.1732991e-08
2.632835e-08
3.3575322e-08
3.9439596e-08
4.8519221e-08
5.6945098e-08
6.7074526e-08
7.8506995e-08
8.914085e-08
1.0374538e-07
1.1495058e-07
1.3226973e-07
1.4463325e-07
1.6407854e-07
1.7750246e-07
1.9904076e-07
2.1345068e-07
2.3682201e-07
2.5214975e-07
2.7706882e-07
2.9317567e-07
3.1936319e-07
3.3624183e-07
3.6359079e-07
3.8113992e-07
4.094409e-07
4.2772889e-07
4.5693469e-07
4.7602919e-07
5.0601266e-07
5.2573192e-07
5.5617571e-07
5.76177e-07
6.0675247e-07
6.2735195e-07
6.5873429e-07
6.8012945e-07
7.1234838e-07
7.3428873e-07
7.6687166e-07
7.8927914e-07
8.2197019e-07
8.4447974e-07
8.7732782e-07
9.0013961e-07
9.3201529e-07
9.5599524e-07
9.8769687e-07
1.0109468e-06
1.0433139e-06
1.0678852e-06
1.1015242e-06
1.1279831e-06
1.1751088e-06
7.2667097e-10
8.610942e-10
9.1507174e-10
1.0166459e-09
1.0550785e-09
1.124654e-09
1.1844537e-09
1.2751986e-09
1.4299501e-09
1.7092546e-09
2.1984727e-09
2.9917732e-09
4.1892269e-09
5.962315e-09
8.3680377e-09
1.1981651e-08
1.6098553e-08
2.1689772e-08
2.9681556e-08
3.6700346e-08
4.685819e-08
5.9870472e-08
7.1787088e-08
8.8775205e-08
1.0284899e-07
1.249203e-07
1.4130969e-07
1.6806787e-07
1.8646732e-07
2.169198e-07
2.3727606e-07
2.7007894e-07
2.9492267e-07
3.2839097e-07
3.5840327e-07
3.9116081e-07
4.2682382e-07
4.5841297e-07
4.9949404e-07
5.302638e-07
5.7598341e-07
6.0703297e-07
6.5592265e-07
6.8800072e-07
7.3914116e-07
7.7315769e-07
8.2729138e-07
8.6348965e-07
9.2077975e-07
9.5908717e-07
1.01845e-06
1.0585091e-06
1.1184395e-06
1.1597684e-06
1.2215787e-06
1.2664634e-06
1.3342626e-06
1.3834398e-06
1.4554434e-06
1.5056812e-06
1.5777627e-06
1.6289887e-06
1.7000614e-06
1.7522579e-06
1.826979e-06
1.8797558e-06
1.9525798e-06
2.0083562e-06
2.0833838e-06
2.1475824e-06
2.2470385e-06
2.3229817e-06
2.4321412e-06
2.5126523e-06
2.6499147e-06
7.1156615e-10
8.0662377e-10
8.5259814e-10
9.6492041e-10
1.0331546e-09
1.1687596e-09
1.3699124e-09
1.7728605e-09
2.4886529e-09
3.6773594e-09
5.4906746e-09
8.160103e-09
1.1866842e-08
1.7420029e-08
2.4118584e-08
3.4617415e-08
4.4941905e-08
5.9763458e-08
7.9127791e-08
9.5319675e-08
1.2288163e-07
1.440888e-07
1.7903938e-07
2.0502621e-07
2.4362644e-07
2.7983388e-07
3.1855429e-07
3.6581881e-07
4.0369439e-07
4.5892341e-07
4.9770634e-07
5.6046802e-07
6.0249489e-07
6.7147443e-07
7.163427e-07
7.9027152e-07
8.3875222e-07
9.1750891e-07
9.7252275e-07
1.0532405e-06
1.1221919e-06
1.1975155e-06
1.2808794e-06
1.3486724e-06
1.452729e-06
1.5276819e-06
1.6437827e-06
1.7239483e-06
1.8490344e-06
1.9330277e-06
2.0607685e-06
2.1492257e-06
2.2771249e-06
2.3789028e-06
2.534851e-06
2.6583508e-06
2.8477806e-06
2.9721847e-06
3.1495241e-06
3.2704004e-06
3.4405454e-06
3.5698406e-06
3.7567114e-06
3.8848959e-06
4.104821e-06
4.2305111e-06
4.4339524e-06
4.58345e-06
4.8933734e-06
5.1163529e-06
5.6144341e-06
5.8141616e-06
6.1985211e-06
6.3810018e-06
6.7294762e-06
7.304305e-10
7.634119e-10
8.0334163e-10
8.7729647e-10
1.0437871e-09
1.4670967e-09
2.3379177e-09
3.8655165e-09
6.2864887e-09
9.8941568e-09
1.513209e-08
2.2644665e-08
3.2553583e-08
4.8098738e-08
6.4078894e-08
9.0305822e-08
1.1314495e-07
1.502588e-07
1.846452e-07
2.2222809e-07
2.794587e-07
3.2029944e-07
3.8911149e-07
4.3587755e-07
5.1476825e-07
5.6727828e-07
6.5673831e-07
7.1547037e-07
8.0993463e-07
8.8314465e-07
9.7599836e-07
1.0754941e-06
1.1646432e-06
1.2883191e-06
1.3747003e-06
1.5157775e-06
1.6161748e-06
1.7781615e-06
1.8907669e-06
2.0719919e-06
2.1936659e-06
2.3817464e-06
2.5168098e-06
2.7301075e-06
2.9774115e-06
3.1648868e-06
3.4556972e-06
3.6348502e-06
3.953537e-06
4.1350724e-06
4.4522674e-06
4.6614493e-06
5.033978e-06
5.3664428e-06
5.9235895e-06
6.2985595e-06
6.8291331e-06
7.035138e-06
7.3359114e-06
7.7030313e-06
8.0847736e-06
8.5860559e-06
9.1093787e-06
9.3663962e-06
1.0113015e-05
1.0325243e-05
1.0851805e-05
1.1309143e-05
1.1974692e-05
1.2147783e-05
1.2812566e-05
1.2935989e-05
1.3473062e-05
1.3771813e-05
1.4221496e-05
7.7517392e-10
8.5916337e-10
9.6566536e-10
1.2407403e-09
1.9679186e-09
3.5091712e-09
6.2014253e-09
1.0525673e-08
1.7033622e-08
2.6449449e-08
3.9940575e-08
5.9416305e-08
8.2559106e-08
1.2011942e-07
1.5392381e-07
2.1112558e-07
2.5627812e-07
3.3356459e-07
3.8977349e-07
4.8260827e-07
5.6162092e-07
6.4739653e-07
7.6458009e-07
8.4961509e-07
9.8797526e-07
1.0831332e-06
1.2421701e-06
1.3500762e-06
1.5258547e-06
1.6561313e-06
1.8757006e-06
2.0271045e-06
2.2638903e-06
2.4649667e-06
2.6634281e-06
2.9967065e-06
3.2347181e-06
3.6096266e-06
3.8645357e-06
4.3005203e-06
4.5671519e-06
5.0101189e-06
5.3874813e-06
6.2651585e-06
6.7538146e-06
7.1816326e-06
7.885696e-06
8.2638917e-06
9.2338088e-06
9.5052308e-06
1.0409599e-05
1.085494e-05
1.1567455e-05
1.1888576e-05
1.2516546e-05
1.3225017e-05
1.3663617e-05
1.3803395e-05
1.4198539e-05
1.4160741e-05
1.4307937e-05
1.5195538e-05
1.4467093e-05
1.458268e-05
1.4657727e-05
1.4241379e-05
1.4582342e-05
1.4659052e-05
1.3902293e-05
1.3801544e-05
1.3220848e-05
1.3331674e-05
1.3047489e-05
1.2813791e-05
1.1930887e-05
7.5916634e-10
9.0793153e-10
1.2734256e-09
2.415851e-09
4.8480316e-09
9.2553583e-09
1.6367139e-08
2.7342111e-08
4.3256693e-08
6.5819547e-08
9.8345517e-08
1.4165174e-07
1.9167311e-07
2.6977404e-07
3.3449153e-07
4.4492785e-07
5.2654234e-07
6.6668773e-07
7.6543682e-07
9.3417658e-07
1.0514884e-06
1.2451925e-06
1.4005196e-06
1.5932727e-06
1.8254539e-06
2.0200555e-06
2.3240381e-06
2.541348e-06
2.9019679e-06
3.2276343e-06
3.723237e-06
4.0477917e-06
4.6188468e-06
4.9621524e-06
5.5973767e-06
6.5690103e-06
7.0747593e-06
7.9426297e-06
8.5505679e-06
9.7132143e-06
1.0157927e-05
1.1414695e-05
1.1733698e-05
1.3026106e-05
1.3135516e-05
1.4099343e-05
1.386092e-05
1.4445476e-05
1.4952292e-05
1.4533602e-05
1.5755272e-05
1.4395596e-05
1.3551363e-05
1.3166534e-05
1.3281725e-05
1.2291352e-05
1.1187686e-05
1.0724097e-05
1.0683675e-05
9.847954e-06
9.5687011e-06
9.0926401e-06
8.1051718e-06
8.6987223e-06
7.1603124e-06
7.556488e-06
7.038476e-06
6.3592665e-06
5.095112e-06
5.4205051e-06
4.6061042e-06
5.0206253e-06
4.3138625e-06
3.8278339e-06
3.2580392e-06
7.0371882e-10
1.0531466e-09
2.4743046e-09
5.9546009e-09
1.2486823e-08
2.3483822e-08
4.0519434e-08
6.6107327e-08
1.0178726e-07
1.5209288e-07
2.273506e-07
3.0236831e-07
4.1287672e-07
5.4287007e-07
6.6554099e-07
8.5820269e-07
1.0005416e-06
1.2436793e-06
1.417309e-06
1.7127031e-06
1.9341408e-06
2.3016567e-06
2.5690411e-06
3.0388422e-06
3.4227613e-06
3.9373295e-06
4.5329521e-06
5.0389187e-06
6.0555168e-06
6.9925594e-06
7.8865339e-06
8.6824975e-06
1.0068413e-05
1.0666889e-05
1.2179619e-05
1.2592844e-05
1.3401853e-05
1.3634224e-05
1.4504837e-05
1.4703867e-05
1.4401834e-05
1.4398758e-05
1.35341e-05
1.3041539e-05
1.1812081e-05
1.1682609e-05
9.5881375e-06
1.0311809e-05
7.9653385e-06
8.571783e-06
7.764915e-06
5.4393449e-06
5.8285264e-06
5.2672518e-06
4.987467e-06
3.5219919e-06
3.1038832e-06
3.2265825e-06
3.057086e-06
2.6908498e-06
3.192211e-06
2.6237243e-06
2.5349263e-06
3.0930841e-06
2.2126563e-06
2.7515159e-06
2.4157757e-06
1.6135056e-06
1.6131379e-06
2.0080241e-06
1.6868509e-06
1.7632438e-06
1.2822734e-06
1.1100018e-06
9.5267712e-07
6.6991038e-10
1.9366499e-09
6.1746022e-09
1.4974171e-08
3.0695544e-08
5.582274e-08
9.3280186e-08
1.4882145e-07
2.2175192e-07
3.2918873e-07
4.6128619e-07
6.0404562e-07
8.2067117e-07
9.947969e-07
1.2688217e-06
1.544864e-06
1.8261229e-06
2.2617396e-06
2.5864343e-06
3.1700999e-06
3.6396191e-06
4.3825074e-06
4.9615171e-06
6.1816177e-06
7.00771e-06
8.3305985e-06
9.5326002e-06
1.0744596e-05
1.2085487e-05
1.3005425e-05
1.326931e-05
1.4270641e-05
1.4231567e-05
1.4186847e-05
1.3828465e-05
1.1879039e-05
1.1665324e-05
1.0147166e-05
9.731839e-06
7.6946915e-06
7.8472897e-06
6.1208718e-06
5.9316018e-06
4.3851351e-06
5.3596579e-06
3.8150695e-06
3.0821492e-06
3.674342e-06
2.3463422e-06
3.3410524e-06
2.2114714e-06
1.3322578e-06
1.8398644e-06
1.712863e-06
1.2930206e-06
1.1479085e-06
1.0853507e-06
1.242147e-06
1.169587e-06
1.07244e-06
1.5143523e-06
1.2454756e-06
1.4181745e-06
1.7321314e-06
1.0856606e-06
1.4143341e-06
1.1071023e-06
9.6465301e-07
1.4643947e-06
1.4309073e-06
1.0729151e-06
8.9951731e-07
6.919348e-07
7.0410776e-07
6.770521e-07
6.5435216e-10
4.8771845e-09
1.5465283e-08
3.5937334e-08
7.069433e-08
1.237197e-07
1.9963243e-07
3.1404887e-07
4.4701691e-07
6.6229166e-07
8.5465007e-07
1.1530977e-06
1.4609595e-06
1.8022706e-06
2.3235809e-06
2.7363713e-06
3.4423421e-06
4.1638762e-06
4.8880861e-06
6.3093754e-06
7.4042204e-06
8.9782062e-06
1.0246455e-05
1.1964309e-05
1.2520779e-05
1.3581731e-05
1.3919641e-05
1.3796073e-05
1.2876876e-05
1.179842e-05
9.8810497e-06
9.7430581e-06
7.2261806e-06
8.0037746e-06
5.2564426e-06
4.058776e-06
3.8917359e-06
3.4976503e-06
3.03713e-06
2.0910996e-06
2.4175408e-06
1.7074236e-06
1.7676128e-06
1.8285661e-06
3.6414768e-06
1.6820084e-06
1.5899378e-06
1.6872274e-06
1.0429491e-06
1.9909069e-06
1.0139108e-06
7.735576e-07
8.664125e-07
8.6141295e-07
8.4707303e-07
8.5636724e-07
9.2392306e-07
9.1632256e-07
8.6005414e-07
8.794007e-07
1.0233577e-06
9.3485163e-07
1.4091224e-06
1.0281981e-06
7.1905702e-07
9.367911e-07
7.6286966e-07
1.0495834e-06
1.9892076e-06
1.1121077e-06
9.3784343e-07
7.9708722e-07
6.8567022e-07
6.638075e-07
6.6316077e-07
5.3392125e-10
1.2227255e-08
3.670408e-08
8.1096392e-08
1.5204394e-07
2.5552523e-07
3.9782652e-07
6.0721819e-07
8.4061493e-07
1.2043852e-06
1.5415227e-06
2.0771907e-06
2.5630961e-06
3.355796e-06
4.2183264e-06
5.1175351e-06
6.8777835e-06
8.1749312e-06
9.9961088e-06
1.194936e-05
1.2659656e-05
1.3587117e-05
1.358622e-05
1.2782256e-05
1.1738248e-05
9.6733092e-06
8.9910678e-06
6.4086273e-06
4.9535926e-06
3.9416855e-06
3.5205092e-06
3.3452782e-06
2.1024684e-06
2.5580166e-06
1.3582578e-06
1.3820787e-06
1.343196e-06
1.6115285e-06
1.0944928e-06
6.961345e-07
8.081954e-07
6.6849984e-07
8.3175162e-07
1.3093312e-06
1.6169177e-06
1.0266416e-06
1.2426113e-06
1.515777e-06
8.7395906e-07
1.3376967e-06
8.4404092e-07
8.124636e-07
8.4513378e-07
8.1238747e-07
7.3312044e-07
7.4268552e-07
1.2076856e-06
1.3254172e-06
1.3052211e-06
1.0190121e-06
9.5971377e-07
9.098214e-07
1.1612083e-06
9.6506777e-07
7.3353102e-07
7.4281246e-07
7.5081498e-07
1.1040089e-06
1.2452652e-06
7.8921621e-07
8.9186156e-07
7.550515e-07
7.272484e-07
6.8430406e-07
6.8897205e-07
3.9686286e-10
2.8782015e-08
8.1605944e-08
1.7106434e-07
3.0529308e-07
4.9353284e-07
7.4315428e-07
1.0958642e-06
1.5135804e-06
2.1157118e-06
2.7491701e-06
3.7057899e-06
4.7218489e-06
6.515038e-06
8.1772895e-06
1.0368929e-05
1.1877233e-05
1.2771338e-05
1.3614133e-05
1.2780334e-05
1.095064e-05
8.7841687e-06
6.7293205e-06
5.2120148e-06
4.6692597e-06
3.3477497e-06
3.1209607e-06
1.7014069e-06
1.489891e-06
1.1450401e-06
1.542853e-06
1.0308241e-06
8.288602e-07
9.4724969e-07
6.4940913e-07
7.8459044e-07
8.1468732e-07
6.5829459e-07
6.2985192e-07
5.0797568e-07
4.8199396e-07
6.3168403e-07
1.0247558e-06
9.8991031e-07
2.229901e-06
7.5544429e-07
8.890845e-07
1.5005079e-06
9.5619267e-07
1.0457323e-06
7.7794267e-07
7.746727e-07
9.301195e-07
8.2388705e-07
7.3263349e-07
7.5113425e-07
1.2556457e-06
1.5281543e-06
1.3337721e-06
9.4935488e-07
7.7618316e-07
7.8713316e-07
9.820805e-07
9.2284723e-07
8.3726802e-07
6.9369345e-07
8.679194e-07
8.1685921e-07
8.4162085e-07
7.7711824e-07
7.4766161e-07
7.5730937e-07
7.4134088e-07
7.5953048e-07
7.6919846e-07
5.5451787e-09
6.5360557e-08
1.7105061e-07
3.3774895e-07
5.7362232e-07
8.9685632e-07
1.3183629e-06
1.9147075e-06
2.7039498e-06
3.7346444e-06
5.0544503e-06
7.073407e-06
9.3499059e-06
1.1421098e-05
1.2702505e-05
1.2912929e-05
1.1747669e-05
1.0015693e-05
8.1773798e-06
4.9544654e-06
4.0306817e-06
2.8565541e-06
1.9517626e-06
1.7305563e-06
1.9137785e-06
1.2845819e-06
1.3686603e-06
6.4853759e-07
5.370513e-07
4.7881583e-07
9.1434566e-07
6.0903569e-07
7.0940218e-07
7.4342437e-07
5.3355e-07
5.9288529e-07
7.8614142e-07
4.2124189e-07
6.3747697e-07
4.9432509e-07
4.2315644e-07
7.9374577e-07
9.8254909e-07
7.9475664e-07
1.0212691e-06
7.3696107e-07
7.846998e-07
1.2399906e-06
9.0223936e-07
1.0668643e-06
7.4681217e-07
6.4144876e-07
7.6091605e-07
7.3082192e-07
7.6465244e-07
7.9209623e-07
9.3959713e-07
1.1172881e-06
1.0018115e-06
9.2716884e-07
8.4149916e-07
1.0394424e-06
9.8495862e-07
1.0158077e-06
9.4174932e-07
6.8640188e-07
8.3050204e-07
7.3219913e-07
7.3119857e-07
7.4610542e-07
7.61097e-07
7.3541785e-07
7.3879328e-07
8.0112838e-07
8.0792357e-07
1.8367128e-08
1.4007168e-07
3.3767202e-07
6.2571213e-07
1.0163398e-06
1.5462093e-06
2.2812906e-06
3.3939099e-06
4.8804401e-06
7.0548404e-06
9.9849904e-06
1.1474512e-05
1.2340004e-05
1.1819378e-05
9.895859e-06
6.6385179e-06
4.8786922e-06
4.1118316e-06
2.664379e-06
1.3612723e-06
1.359963e-06
8.537968e-07
5.8081631e-07
6.9827612e-07
7.8876228e-07
6.9948772e-07
1.2655596e-06
6.5081515e-07
3.8453625e-07
3.732452e-07
6.8385331e-07
3.392893e-07
5.3981529e-07
7.3412412e-07
4.3911468e-07
5.2721231e-07
6.781609e-07
3.7781318e-07
3.634556e-07
4.4480305e-07
4.762843e-07
7.9397931e-07
1.0099694e-06
1.2411317e-06
9.238275e-07
7.1221169e-07
7.2913334e-07
9.8715127e-07
8.7048434e-07
1.0505639e-06
7.4974968e-07
6.2935039e-07
8.29402e-07
7.9242412e-07
8.5150348e-07
9.0064155e-07
9.7017135e-07
1.3101766e-06
1.0686636e-06
1.1282908e-06
1.070637e-06
1.1238354e-06
1.0078229e-06
8.6897501e-07
8.5246486e-07
6.9272217e-07
7.5829688e-07
7.4756382e-07
7.3299299e-07
7.8019177e-07
7.8287898e-07
8.2612044e-07
8.2421005e-07
8.2828928e-07
8.1305634e-07
4.9915418e-08
2.8355096e-07
6.2676772e-07
1.0934972e-06
1.7226743e-06
2.6280523e-06
3.982405e-06
6.291795e-06
9.4440073e-06
1.1158351e-05
1.186248e-05
1.0677907e-05
7.2429651e-06
5.427894e-06
3.7798692e-06
2.1455304e-06
1.7695252e-06
1.7547373e-06
8.5522006e-07
4.8994756e-07
4.42074e-07
3.1399085e-07
3.676603e-07
5.0966891e-07
4.8545473e-07
6.7744347e-07
7.5660318e-07
6.0158463e-07
3.7491533e-07
3.3404638e-07
5.6137362e-07
3.0407001e-07
4.3206557e-07
9.2431745e-07
4.3269776e-07
4.9744234e-07
5.829345e-07
3.6466628e-07
3.3806789e-07
4.5948988e-07
4.4680969e-07
8.0975638e-07
1.193405e-06
1.5390787e-06
1.0349966e-06
7.1457994e-07
7.142196e-07
9.2753752e-07
8.7728539e-07
1.3769313e-06
8.0284907e-07
6.4757397e-07
1.0784301e-06
9.4340603e-07
9.2234751e-07
9.6060008e-07
9.5613154e-07
1.2321266e-06
1.148633e-06
1.2455958e-06
1.0925856e-06
9.7081534e-07
1.1337445e-06
8.5708995e-07
8.1039058e-07
7.0726391e-07
7.414502e-07
7.8781416e-07
8.5046691e-07
9.1959048e-07
7.9851303e-07
9.1247151e-07
9.2979471e-07
9.1826498e-07
8.383595e-07
1.2158785e-07
5.4243325e-07
1.0987046e-06
1.825601e-06
2.8604659e-06
4.5299024e-06
7.3896849e-06
1.0367244e-05
1.1976532e-05
1.0530626e-05
6.4380464e-06
4.7021198e-06
2.6972177e-06
2.2465704e-06
1.1327428e-06
5.8926516e-07
7.2683243e-07
8.5611008e-07
4.1301874e-07
3.6618914e-07
2.6431706e-07
2.1726645e-07
3.2122246e-07
4.2621706e-07
5.1879023e-07
7.7161372e-07
7.0045516e-07
6.1855416e-07
3.9479192e-07
3.6211991e-07
4.9184675e-07
3.3240471e-07
3.3579354e-07
9.578973e-07
4.420936e-07
4.70471e-07
5.2829004e-07
3.706165e-07
3.4294375e-07
4.5533199e-07
4.4472338e-07
6.8719194e-07
1.1477534e-06
1.3894329e-06
1.0587025e-06
6.3247525e-07
6.6782054e-07
8.1633716e-07
7.6246838e-07
1.0793331e-06
6.6636263e-07
6.3031616e-07
9.8466051e-07
9.6236546e-07
1.0573753e-06
9.9719797e-07
9.8330261e-07
1.0394211e-06
1.105224e-06
1.172551e-06
9.6728386e-07
9.4367552e-07
1.2538382e-06
8.2547504e-07
8.552618e-07
8.5130125e-07
7.5926401e-07
7.9760227e-07
9.2946685e-07
9.5966017e-07
8.3917494e-07
9.274078e-07
9.7706579e-07
1.0147888e-06
9.294349e-07
2.7384489e-07
9.8240281e-07
1.8365149e-06
2.9663037e-06
4.8146057e-06
8.3321412e-06
1.0321001e-05
1.0413093e-05
7.7366094e-06
4.7830494e-06
2.4795894e-06
1.7422363e-06
8.9496275e-07
8.0787408e-07
3.1105981e-07
2.6429171e-07
4.6804018e-07
4.9571008e-07
2.3756325e-07
2.7111732e-07
2.2905774e-07
2.0108545e-07
2.6103226e-07
4.011638e-07
5.5958239e-07
7.3349545e-07
6.9712186e-07
5.7365717e-07
4.3098863e-07
4.7000507e-07
4.5781315e-07
4.3016618e-07
3.4399965e-07
7.2843238e-07
4.1582784e-07
4.5072081e-07
4.9754063e-07
3.7904133e-07
3.6625313e-07
3.8385624e-07
4.683275e-07
6.3290433e-07
7.8274882e-07
1.3805148e-06
6.6586227e-07
5.6965721e-07
6.5970271e-07
8.3761787e-07
7.5711586e-07
7.7306921e-07
6.0951243e-07
6.0441494e-07
9.203745e-07
8.4374577e-07
1.2886047e-06
1.2258029e-06
1.2302245e-06
1.2184995e-06
1.1433216e-06
1.1781233e-06
1.0628789e-06
9.4637595e-07
1.1491291e-06
9.9729687e-07
1.0425474e-06
8.0921559e-07
7.8286489e-07
8.2947716e-07
8.9664948e-07
9.9689553e-07
8.6002619e-07
1.0249727e-06
1.0506194e-06
1.0551424e-06
9.7307149e-07
5.7816776e-07
1.6946204e-06
2.9631978e-06
4.8360404e-06
8.5666867e-06
1.0439121e-05
8.833078e-06
5.4576194e-06
3.4341609e-06
1.5830627e-06
7.9435831e-07
5.4187641e-07
3.4128505e-07
3.7792314e-07
1.4960082e-07
2.1485574e-07
3.7452388e-07
3.460078e-07
2.1883052e-07
2.3736989e-07
2.2563503e-07
1.9207883e-07
2.5035263e-07
4.1453907e-07
6.1659362e-07
6.1262731e-07
6.2863144e-07
5.7709481e-07
4.6349046e-07
7.616864e-07
4.6471379e-07
5.0283394e-07
3.7778635e-07
4.9186407e-07
3.9753672e-07
4.3618363e-07
4.775835e-07
3.5441778e-07
3.9434477e-07
3.481698e-07
5.0180084e-07
5.8438175e-07
7.2327734e-07
6.4458807e-07
5.3068139e-07
5.4586922e-07
7.4018125e-07
9.0745441e-07
7.4825502e-07
7.1746785e-07
6.048788e-07
6.0862202e-07
1.0596808e-06
7.9243761e-07
1.1501851e-06
1.1838519e-06
1.3055151e-06
1.2049349e-06
1.1553682e-06
1.1668513e-06
1.0191758e-06
9.5044041e-07
1.1850654e-06
1.1148495e-06
1.052722e-06
8.5107487e-07
7.4889044e-07
8.7434316e-07
8.5184579e-07
9.0866316e-07
8.7829663e-07
1.1130193e-06
1.0956891e-06
1.0850916e-06
9.9073194e-07
1.1571485e-06
2.798272e-06
4.7189536e-06
8.222577e-06
9.9831931e-06
7.7443437e-06
5.1415258e-06
2.5310307e-06
1.1603305e-06
4.405009e-07
2.8789182e-07
2.0320421e-07
1.8400233e-07
2.5603651e-07
1.3776434e-07
1.9604066e-07
3.2745004e-07
2.7436208e-07
2.1813128e-07
2.2814594e-07
2.4135534e-07
1.8235915e-07
2.6026815e-07
4.4305851e-07
6.6894507e-07
3.4779589e-07
5.8064416e-07
5.147672e-07
4.742422e-07
1.1113593e-06
4.9669779e-07
4.8960961e-07
3.7655641e-07
3.8786745e-07
3.9453305e-07
4.4657884e-07
4.4004332e-07
3.7380718e-07
4.7343112e-07
3.88289e-07
5.5912995e-07
5.6615179e-07
6.8746924e-07
6.1337442e-07
5.0760041e-07
5.0170572e-07
8.3849274e-07
8.8867383e-07
7.4505111e-07
6.2872335e-07
6.1386831e-07
6.1673157e-07
7.2233024e-07
6.7903584e-07
7.9366474e-07
1.0022876e-06
1.0112721e-06
1.019317e-06
1.0898406e-06
1.1236863e-06
8.959906e-07
8.9849399e-07
1.3849919e-06
1.0940778e-06
8.8153321e-07
7.0180761e-07
7.5862727e-07
9.2367934e-07
8.6066992e-07
8.9942856e-07
9.121988e-07
1.0283937e-06
1.2155641e-06
1.1590266e-06
1.0161754e-06
2.2210074e-06
4.4538926e-06
7.6968226e-06
9.2725056e-06
6.9839534e-06
4.5560009e-06
2.4155661e-06
8.4579557e-07
3.6085416e-07
2.5396159e-07
1.9270546e-07
1.551198e-07
1.597643e-07
2.1823546e-07
1.3631249e-07
1.6969568e-07
2.98166e-07
2.3916364e-07
2.1897907e-07
2.2817208e-07
2.3434477e-07
1.8452557e-07
2.6830582e-07
4.9017248e-07
8.3339896e-07
3.0714174e-07
3.5242258e-07
4.7587236e-07
6.1141944e-07
1.153519e-06
4.9751044e-07
4.6730639e-07
3.7813165e-07
3.7720582e-07
4.0045028e-07
5.3095749e-07
4.2713161e-07
3.7750563e-07
5.8025944e-07
5.2834597e-07
4.9353763e-07
5.8477494e-07
6.8946101e-07
6.1205037e-07
5.223954e-07
4.9475371e-07
5.736752e-07
8.0233461e-07
7.0681392e-07
6.0668873e-07
6.187164e-07
6.1880051e-07
7.654311e-07
6.7951119e-07
8.18115e-07
9.9048742e-07
1.1841027e-06
1.1435049e-06
1.0939522e-06
1.0326583e-06
8.8734719e-07
9.3626036e-07
1.2593956e-06
1.0221481e-06
8.5229449e-07
6.5507141e-07
8.4358723e-07
9.26076e-07
7.5540805e-07
8.4266976e-07
9.3636772e-07
1.2546641e-06
1.2938525e-06
1.2383152e-06
1.052372e-06
3.8579331e-06
7.0997536e-06
9.5361874e-06
7.1876978e-06
4.3225868e-06
2.2493244e-06
8.1983341e-07
2.8247178e-07
1.9447148e-07
2.5479659e-07
1.8582431e-07
1.5387803e-07
1.8421e-07
2.0202015e-07
1.3707797e-07
1.6128565e-07
2.7692172e-07
2.2288505e-07
2.219783e-07
2.2989431e-07
2.3511143e-07
1.8369622e-07
2.6994045e-07
4.6903029e-07
5.2122092e-07
2.9893802e-07
2.9907608e-07
5.2022736e-07
7.6696825e-07
8.5042677e-07
5.0399331e-07
4.4555796e-07
3.9311631e-07
3.743456e-07
3.7764941e-07
6.8519128e-07
4.7231219e-07
3.9805279e-07
5.5825043e-07
5.7078356e-07
4.049543e-07
5.0273759e-07
5.2631727e-07
5.1056339e-07
5.0803872e-07
4.6596e-07
5.1663467e-07
7.0950737e-07
6.4368456e-07
5.8432304e-07
6.2099936e-07
6.426829e-07
6.7551871e-07
6.7047454e-07
1.0042846e-06
1.1539238e-06
1.316824e-06
1.2179907e-06
1.2110434e-06
9.9473786e-07
8.6265141e-07
1.0432472e-06
1.0456689e-06
1.0167148e-06
9.8590179e-07
7.1486716e-07
8.1048057e-07
8.6055637e-07
7.3585793e-07
8.3980774e-07
1.0434834e-06
1.4948482e-06
1.325614e-06
1.2636928e-06
1.0834792e-06