/*--------------------------------*- C++ -*----------------------------------*\
| =========                 |                                                 |
| \\      /  F ield         | OpenFOAM: The Open Source CFD Toolbox           |
|  \\    /   O peration     | Version:  2.3.0                                 |
|   \\  /    A nd           | Web:      www.OpenFOAM.org                      |
|    \\/     M anipulation  |                                                 |
\*---------------------------------------------------------------------------*/
FoamFile
{
    version     2.0;
    format      ascii;
    class       surfaceScalarField;
    location    "3.7e-05";
    object      phi;
}
// * * * * * * * * * * * * * * * * * * * * * * * * * * * * * * * * * * * * * //

dimensions      [0 3 -1 0 0 0 0];

internalField   nonuniform List<scalar> 
14825
(
1.034321e-09
-2.0559618e-11
1.0547343e-09
-2.0413305e-11
1.0750188e-09
-2.0284473e-11
1.0955874e-09
-2.056866e-11
1.1157483e-09
-2.0160866e-11
1.1363138e-09
-2.0565554e-11
1.1561017e-09
-1.97879e-11
1.1764488e-09
-2.034703e-11
1.1959434e-09
-1.9494618e-11
1.2161162e-09
-2.0172777e-11
1.2354616e-09
-1.93454e-11
1.2553778e-09
-1.9916222e-11
1.2745308e-09
-1.9152988e-11
1.2940572e-09
-1.952644e-11
1.313018e-09
-1.8960787e-11
1.3320961e-09
-1.9078111e-11
1.3509131e-09
-1.8816947e-11
1.3694953e-09
-1.8582219e-11
1.3882182e-09
-1.8722881e-11
1.406212e-09
-1.7993844e-11
1.4248016e-09
-1.8589561e-11
1.4421931e-09
-1.7391568e-11
1.4605933e-09
-1.8400128e-11
1.4774619e-09
-1.6868589e-11
1.4955226e-09
-1.8060718e-11
1.5119782e-09
-1.6455604e-11
1.5295389e-09
-1.7560674e-11
1.5457104e-09
-1.617156e-11
1.5625484e-09
-1.6837969e-11
1.5785745e-09
-1.6026084e-11
1.5946627e-09
-1.6088253e-11
1.6105626e-09
-1.5899826e-11
1.6258549e-09
-1.5292393e-11
1.6414219e-09
-1.5567002e-11
1.6560649e-09
-1.464298e-11
1.6712729e-09
-1.5207999e-11
1.6853423e-09
-1.4069398e-11
1.7000425e-09
-1.4700153e-11
1.7136007e-09
-1.3558197e-11
1.7274851e-09
-1.3884467e-11
1.7407684e-09
-1.328327e-11
1.7538791e-09
-1.3110664e-11
1.7668434e-09
-1.2964333e-11
1.7791855e-09
-1.2342093e-11
1.7917209e-09
-1.2535357e-11
1.8033899e-09
-1.1668998e-11
1.8153227e-09
-1.1932847e-11
1.8264077e-09
-1.1085009e-11
1.8376e-09
-1.1192255e-11
1.8482604e-09
-1.0660413e-11
1.8587024e-09
-1.0442036e-11
1.8688267e-09
-1.0124329e-11
1.8785198e-09
-9.6930093e-12
1.8880954e-09
-9.5756358e-12
1.8972507e-09
-9.1553371e-12
1.9060521e-09
-8.8013719e-12
1.9144004e-09
-8.3483124e-12
1.9226274e-09
-8.2269588e-12
1.9303847e-09
-7.7573507e-12
1.9377495e-09
-7.3647816e-12
1.9449433e-09
-7.1937696e-12
1.9517973e-09
-6.8540475e-12
1.9582175e-09
-6.4201346e-12
1.9643011e-09
-6.083653e-12
1.9700622e-09
-5.7610697e-12
1.9753647e-09
-5.3025516e-12
1.980441e-09
-5.0762926e-12
1.9853287e-09
-4.8876791e-12
1.9895361e-09
-4.207439e-12
1.9935624e-09
-4.0262695e-12
1.9972585e-09
-3.6960555e-12
2.0004534e-09
-3.1949325e-12
2.0032562e-09
-2.8028419e-12
2.0059581e-09
-2.7018038e-12
-2.2725807e-12
2.8622844e-09
-8.0878113e-11
2.9222008e-09
-8.0329651e-11
2.982093e-09
-8.0176719e-11
3.0426313e-09
-8.1106915e-11
3.1023541e-09
-7.9883727e-11
3.1629854e-09
-8.1196831e-11
3.2218542e-09
-7.8656721e-11
3.2821669e-09
-8.0659661e-11
3.3403679e-09
-7.7695637e-11
3.4004644e-09
-8.0269317e-11
3.4583304e-09
-7.721137e-11
3.5179559e-09
-7.9541734e-11
3.5754392e-09
-7.6636325e-11
3.6341905e-09
-7.8277706e-11
3.6913119e-09
-7.6082146e-11
3.7490111e-09
-7.6777377e-11
3.8059258e-09
-7.5731584e-11
3.8623963e-09
-7.5052733e-11
3.9192398e-09
-7.5566361e-11
3.9742547e-09
-7.3008825e-11
4.0308864e-09
-7.5221214e-11
4.0844443e-09
-7.0949466e-11
4.1406643e-09
-7.4620156e-11
4.1929853e-09
-6.918957e-11
4.2483884e-09
-7.3463776e-11
4.2997977e-09
-6.7864957e-11
4.353921e-09
-7.1683922e-11
4.4046802e-09
-6.6930839e-11
4.457033e-09
-6.9190724e-11
4.5074396e-09
-6.6432695e-11
4.5580158e-09
-6.6664424e-11
4.6080759e-09
-6.5959946e-11
4.6567314e-09
-6.3947919e-11
4.7058622e-09
-6.4697785e-11
4.7530321e-09
-6.1812829e-11
4.8011606e-09
-6.3336559e-11
4.8470187e-09
-5.992749e-11
4.8938479e-09
-6.1529316e-11
4.9383009e-09
-5.8011265e-11
4.9831924e-09
-5.8775901e-11
5.0267893e-09
-5.688022e-11
5.06992e-09
-5.6241294e-11
5.1125688e-09
-5.5613183e-11
5.1538209e-09
-5.3594154e-11
5.195296e-09
-5.4010486e-11
5.2348567e-09
-5.1229704e-11
5.2747633e-09
-5.1839488e-11
5.3128176e-09
-4.9139256e-11
5.350914e-09
-4.9288697e-11
5.3876711e-09
-4.7417451e-11
5.4239572e-09
-4.6728177e-11
5.4592569e-09
-4.5424002e-11
5.4936474e-09
-4.4083515e-11
5.5275486e-09
-4.3476793e-11
5.5603379e-09
-4.1944687e-11
5.5922862e-09
-4.074965e-11
5.6230714e-09
-3.9133549e-11
5.6533729e-09
-3.8528408e-11
5.682503e-09
-3.6887522e-11
5.7107036e-09
-3.5565373e-11
5.7382951e-09
-3.4785281e-11
5.7649919e-09
-3.3550805e-11
5.7905748e-09
-3.2003014e-11
5.8153372e-09
-3.0846081e-11
5.839035e-09
-2.9458903e-11
5.8616728e-09
-2.7940317e-11
5.8837377e-09
-2.7141171e-11
5.9050536e-09
-2.620355e-11
5.9247499e-09
-2.3903743e-11
5.9439962e-09
-2.3272569e-11
5.9620375e-09
-2.1737381e-11
5.9789188e-09
-2.0076196e-11
5.9948828e-09
-1.8766921e-11
6.010328e-09
-1.8146963e-11
-1.6604812e-11
4.3660973e-09
-1.7886595e-10
4.4635411e-09
-1.777734e-10
4.5615003e-09
-1.7813596e-10
4.6602346e-09
-1.7984122e-10
4.7582224e-09
-1.7787153e-10
4.857302e-09
-1.8027642e-10
4.9543373e-09
-1.7569195e-10
5.0534228e-09
-1.7974519e-10
5.1497482e-09
-1.7402104e-10
5.248942e-09
-1.7946316e-10
5.344962e-09
-1.732313e-10
5.4438229e-09
-1.7840261e-10
5.5395535e-09
-1.7236695e-10
5.6374731e-09
-1.7619729e-10
5.7329298e-09
-1.7153892e-10
5.8296576e-09
-1.7350518e-10
5.9250647e-09
-1.7113863e-10
6.0203085e-09
-1.702965e-10
6.1158252e-09
-1.7108312e-10
6.2092692e-09
-1.6645282e-10
6.3046834e-09
-1.7063544e-10
6.39637e-09
-1.6263606e-10
6.4913376e-09
-1.6958768e-10
6.5814926e-09
-1.593446e-10
6.6755286e-09
-1.674998e-10
6.7646193e-09
-1.5695562e-10
6.8570689e-09
-1.641335e-10
6.9452264e-09
-1.5508838e-10
7.0355742e-09
-1.5953857e-10
7.1231585e-09
-1.5401699e-10
7.211473e-09
-1.5497891e-10
7.2984417e-09
-1.5292861e-10
7.3843642e-09
-1.4987043e-10
7.4700173e-09
-1.5035086e-10
7.554128e-09
-1.4592351e-10
7.6384019e-09
-1.4761046e-10
7.7208972e-09
-1.4242281e-10
7.8035179e-09
-1.4415006e-10
7.8838028e-09
-1.3829609e-10
7.9641187e-09
-1.390918e-10
8.042971e-09
-1.3573254e-10
8.1212422e-09
-1.3451253e-10
8.1985631e-09
-1.3293408e-10
8.274437e-09
-1.2946805e-10
8.3500505e-09
-1.2962402e-10
8.4236531e-09
-1.2483227e-10
8.4971379e-09
-1.2532428e-10
8.5685984e-09
-1.2059974e-10
8.6397592e-09
-1.2044954e-10
8.7091208e-09
-1.1677901e-10
8.7780117e-09
-1.1561905e-10
8.84518e-09
-1.125923e-10
8.9115392e-09
-1.1044275e-10
8.9767962e-09
-1.0873385e-10
9.0405842e-09
-1.0573261e-10
9.1031859e-09
-1.0335136e-10
9.1643021e-09
-1.0024977e-10
9.2244626e-09
-9.8688867e-11
9.2830411e-09
-9.5466097e-11
9.3404724e-09
-9.2996587e-11
9.3967799e-09
-9.1092857e-11
9.4518855e-09
-8.8656347e-11
9.5054002e-09
-8.5517789e-11
9.5578209e-09
-8.3266777e-11
9.6083844e-09
-8.0022318e-11
9.657763e-09
-7.7318964e-11
9.7062882e-09
-7.5666398e-11
9.753228e-09
-7.3143273e-11
9.7984373e-09
-6.9113049e-11
9.8428126e-09
-6.7647928e-11
9.8850187e-09
-6.3943458e-11
9.9259038e-09
-6.0961333e-11
9.9654937e-09
-5.835674e-11
1.000398e-08
-5.6633504e-11
-5.3574318e-11
5.589966e-09
-3.123612e-10
5.7231191e-09
-3.1092649e-10
5.8573526e-09
-3.1236953e-10
5.9925806e-09
-3.1506915e-10
6.1272645e-09
-3.1255549e-10
6.2632334e-09
-3.1624528e-10
6.3973305e-09
-3.0978909e-10
6.533875e-09
-3.1628965e-10
6.6676459e-09
-3.0779191e-10
6.8048164e-09
-3.1663367e-10
6.9385953e-09
-3.0701024e-10
7.0758124e-09
-3.1561973e-10
7.2096641e-09
-3.0621863e-10
7.3462358e-09
-3.12769e-10
7.4801249e-09
-3.05428e-10
7.6157977e-09
-3.0917799e-10
7.7499156e-09
-3.0525649e-10
7.8844159e-09
-3.0479687e-10
8.0187789e-09
-3.0544604e-10
8.1517695e-09
-2.9944341e-10
8.2861637e-09
-3.0502963e-10
8.4177284e-09
-2.942008e-10
8.5517066e-09
-3.0356593e-10
8.681863e-09
-2.8950097e-10
8.8151432e-09
-3.0078002e-10
8.9443263e-09
-2.8613869e-10
9.0762351e-09
-2.960423e-10
9.2042002e-09
-2.8305351e-10
9.3343839e-09
-2.897223e-10
9.4614858e-09
-2.8111884e-10
9.5901272e-09
-2.8362036e-10
9.716203e-09
-2.7900436e-10
9.8426394e-09
-2.7630681e-10
9.9672497e-09
-2.7496125e-10
1.0091977e-08
-2.7065055e-10
1.0215109e-08
-2.7074234e-10
1.03383e-08
-2.6561459e-10
1.0459798e-08
-2.6564772e-10
1.0580136e-08
-2.5863382e-10
1.0699591e-08
-2.5854663e-10
1.0818101e-08
-2.5424321e-10
1.0935701e-08
-2.5211218e-10
1.105223e-08
-2.494631e-10
1.1167439e-08
-2.4467668e-10
1.128176e-08
-2.4394561e-10
1.1394575e-08
-2.3764734e-10
1.1506561e-08
-2.3731045e-10
1.1617065e-08
-2.3110303e-10
1.1726618e-08
-2.3000322e-10
1.1834451e-08
-2.2461175e-10
1.1941707e-08
-2.2287478e-10
1.2046754e-08
-2.1763967e-10
1.2151495e-08
-2.1518337e-10
1.225423e-08
-2.1146936e-10
1.2355623e-08
-2.071256e-10
1.2455469e-08
-2.0319666e-10
1.2553941e-08
-1.9872187e-10
1.2650816e-08
-1.9556364e-10
1.274615e-08
-1.9080031e-10
1.2840159e-08
-1.8700544e-10
1.2932658e-08
-1.8359191e-10
1.3023801e-08
-1.7980011e-10
1.3113214e-08
-1.7493056e-10
1.3201249e-08
-1.7130194e-10
1.3286695e-08
-1.6546841e-10
1.3371558e-08
-1.6218164e-10
1.3454821e-08
-1.5892932e-10
1.353582e-08
-1.5414215e-10
1.3615821e-08
-1.4911387e-10
1.3694012e-08
-1.4583899e-10
1.3769402e-08
-1.3933401e-10
1.3843876e-08
-1.3543519e-10
1.391641e-08
-1.3089023e-10
1.3987567e-08
-1.2779047e-10
-1.2291409e-10
6.5726678e-09
-4.7925772e-10
6.7398086e-09
-4.780673e-10
6.9083437e-09
-4.8090461e-10
7.0784558e-09
-4.8518119e-10
7.2480827e-09
-4.8218246e-10
7.419497e-09
-4.8765958e-10
7.5893618e-09
-4.7965386e-10
7.7620433e-09
-4.8897116e-10
7.9323836e-09
-4.7813219e-10
8.1063413e-09
-4.9059135e-10
8.2772829e-09
-4.7795186e-10
8.4518551e-09
-4.9019196e-10
8.6234755e-09
-4.7783902e-10
8.7979627e-09
-4.8725618e-10
8.9701649e-09
-4.776302e-10
9.1443773e-09
-4.833904e-10
9.3171831e-09
-4.780623e-10
9.4911127e-09
-4.7872644e-10
9.6641976e-09
-4.7853101e-10
9.8374883e-09
-4.7273404e-10
1.001081e-08
-4.7835184e-10
1.0183514e-08
-4.6690482e-10
1.0356544e-08
-4.7659553e-10
1.052834e-08
-4.6129695e-10
1.0701182e-08
-4.7362234e-10
1.087235e-08
-4.5730671e-10
1.1044417e-08
-4.6810915e-10
1.1214266e-08
-4.5290203e-10
1.1385468e-08
-4.6092458e-10
1.1554284e-08
-4.4993474e-10
1.1724964e-08
-4.543003e-10
1.1892262e-08
-4.4630229e-10
1.2061528e-08
-4.4557328e-10
1.2227501e-08
-4.409343e-10
1.2395533e-08
-4.3868264e-10
1.2560094e-08
-4.3530255e-10
1.2727061e-08
-4.3258212e-10
1.2890145e-08
-4.2873172e-10
1.3054044e-08
-4.2253285e-10
1.3215729e-08
-4.2023175e-10
1.337784e-08
-4.1635395e-10
1.3538019e-08
-4.1229089e-10
1.3697983e-08
-4.0942682e-10
1.3856296e-08
-4.0298986e-10
1.4013688e-08
-4.0133761e-10
1.4169939e-08
-3.9389846e-10
1.4324917e-08
-3.9228866e-10
1.4479002e-08
-3.8518823e-10
1.4631509e-08
-3.8251005e-10
1.4783117e-08
-3.7621925e-10
1.4933654e-08
-3.7341212e-10
1.5082039e-08
-3.6602484e-10
1.5230638e-08
-3.637821e-10
1.5376276e-08
-3.5710758e-10
1.5521167e-08
-3.5201656e-10
1.5664125e-08
-3.4615424e-10
1.5806161e-08
-3.4075833e-10
1.5945694e-08
-3.3509699e-10
1.6084445e-08
-3.2955125e-10
1.622139e-08
-3.2395004e-10
1.6356865e-08
-3.1906648e-10
1.6490719e-08
-3.1365458e-10
1.662351e-08
-3.0772114e-10
1.6754008e-08
-3.0180086e-10
1.6881819e-08
-2.9327928e-10
1.7010034e-08
-2.9039628e-10
1.7134979e-08
-2.8387411e-10
1.725798e-08
-2.7714334e-10
1.7381213e-08
-2.7234678e-10
1.7500947e-08
-2.6557347e-10
1.7618251e-08
-2.5663779e-10
1.773523e-08
-2.5241431e-10
1.7849058e-08
-2.4471759e-10
1.7961699e-08
-2.4043233e-10
-2.3362663e-10
7.3485544e-09
-6.7796559e-10
7.5476383e-09
-6.7715118e-10
7.7487694e-09
-6.8203566e-10
7.9519247e-09
-6.8833656e-10
8.1548513e-09
-6.8510902e-10
8.3601563e-09
-6.9296455e-10
8.5644221e-09
-6.8391967e-10
8.7718342e-09
-6.9638329e-10
8.9776503e-09
-6.839483e-10
9.1871616e-09
-7.001026e-10
9.3943663e-09
-6.8515656e-10
9.6052827e-09
-7.0110838e-10
9.8139439e-09
-6.8650022e-10
1.0025587e-08
-6.9889932e-10
1.0235551e-08
-6.8759428e-10
1.0447859e-08
-6.956987e-10
1.0658887e-08
-6.8908946e-10
1.0872284e-08
-6.9212408e-10
1.1083709e-08
-6.8995587e-10
1.1297644e-08
-6.8666923e-10
1.1509834e-08
-6.9054159e-10
1.1724252e-08
-6.8132281e-10
1.1936545e-08
-6.8888866e-10
1.2150835e-08
-6.7558667e-10
1.2363684e-08
-6.8647125e-10
1.2577915e-08
-6.715384e-10
1.2790835e-08
-6.81029e-10
1.3004154e-08
-6.6622109e-10
1.3217196e-08
-6.7396598e-10
1.3429751e-08
-6.6249023e-10
1.3643436e-08
-6.6798457e-10
1.3854176e-08
-6.5704306e-10
1.4067626e-08
-6.5902287e-10
1.4277603e-08
-6.5091118e-10
1.4490461e-08
-6.5154055e-10
1.4699347e-08
-6.441884e-10
1.4911872e-08
-6.4510756e-10
1.5119308e-08
-6.3616825e-10
1.5329338e-08
-6.325626e-10
1.5536071e-08
-6.2696481e-10
1.5744992e-08
-6.2527466e-10
1.5950421e-08
-6.1772023e-10
1.6157633e-08
-6.1663888e-10
1.636197e-08
-6.0732632e-10
1.6566609e-08
-6.0597687e-10
1.6769313e-08
-5.9660213e-10
1.6971801e-08
-5.9477654e-10
1.7173032e-08
-5.8641956e-10
1.737287e-08
-5.8234842e-10
1.7572637e-08
-5.7598581e-10
1.7770349e-08
-5.7112458e-10
1.7967155e-08
-5.6283063e-10
1.8164172e-08
-5.6079896e-10
1.8357636e-08
-5.5057112e-10
1.8551178e-08
-5.4555878e-10
1.8742537e-08
-5.3751362e-10
1.8933626e-08
-5.3184707e-10
1.9121162e-08
-5.2263359e-10
1.9309243e-08
-5.176319e-10
1.9494691e-08
-5.0939793e-10
1.9679328e-08
-5.0370371e-10
1.9861807e-08
-4.9613375e-10
2.0044811e-08
-4.907249e-10
2.0223356e-08
-4.8034583e-10
2.0401018e-08
-4.7094119e-10
2.0579429e-08
-4.6880745e-10
2.0752322e-08
-4.5676716e-10
2.0925511e-08
-4.5033232e-10
2.1098843e-08
-4.4567842e-10
2.1266624e-08
-4.3335405e-10
2.1434023e-08
-4.2403762e-10
2.1601194e-08
-4.1958469e-10
2.1764495e-08
-4.0801904e-10
2.1926809e-08
-4.0274606e-10
-3.9386795e-10
7.947752e-09
-9.0748103e-10
8.1759551e-09
-9.053543e-10
8.4087307e-09
-9.1481123e-10
8.6422064e-09
-9.2181233e-10
8.8774811e-09
-9.2038373e-10
9.1143172e-09
-9.2980064e-10
9.3520758e-09
-9.2167829e-10
9.5920868e-09
-9.3639426e-10
9.8325807e-09
-9.2444224e-10
1.0075781e-08
-9.4330307e-10
1.0318554e-08
-9.2792921e-10
1.0564341e-08
-9.468957e-10
1.0809416e-08
-9.3157533e-10
1.1057172e-08
-9.4665524e-10
1.1304354e-08
-9.3477648e-10
1.1554153e-08
-9.4549717e-10
1.1802908e-08
-9.3784505e-10
1.2055572e-08
-9.4478727e-10
1.2305037e-08
-9.3942076e-10
1.2559586e-08
-9.4121898e-10
1.2810743e-08
-9.4169855e-10
1.3066881e-08
-9.3746096e-10
1.3318949e-08
-9.4095654e-10
1.3575959e-08
-9.3259624e-10
1.3829582e-08
-9.4009466e-10
1.4087209e-08
-9.2916485e-10
1.4341964e-08
-9.3578416e-10
1.459974e-08
-9.2399756e-10
1.4855498e-08
-9.2972373e-10
1.5113401e-08
-9.2039283e-10
1.5370644e-08
-9.2522804e-10
1.5626979e-08
-9.1337767e-10
1.5885267e-08
-9.173114e-10
1.6141954e-08
-9.0759806e-10
1.6400201e-08
-9.0978732e-10
1.6656732e-08
-9.0071906e-10
1.691522e-08
-9.0359617e-10
1.7170195e-08
-8.9114307e-10
1.7427655e-08
-8.9002229e-10
1.7682685e-08
-8.819951e-10
1.794032e-08
-8.8290944e-10
1.8193879e-08
-8.712792e-10
1.8451066e-08
-8.7382634e-10
1.870408e-08
-8.6033964e-10
1.8959698e-08
-8.6159497e-10
1.9210979e-08
-8.4788334e-10
1.9465274e-08
-8.4907164e-10
1.9715916e-08
-8.370612e-10
1.9967445e-08
-8.3387769e-10
2.0218702e-08
-8.2724337e-10
2.0467455e-08
-8.1987706e-10
2.0717247e-08
-8.1262315e-10
2.0965863e-08
-8.09414e-10
2.1211637e-08
-7.9634566e-10
2.145804e-08
-7.9196198e-10
2.1702535e-08
-7.8200808e-10
2.1947317e-08
-7.7662893e-10
2.2187871e-08
-7.6318811e-10
2.2430014e-08
-7.5977498e-10
2.2668717e-08
-7.4810118e-10
2.2907944e-08
-7.4292983e-10
2.3144412e-08
-7.3260267e-10
2.3383204e-08
-7.2951645e-10
2.361418e-08
-7.1132175e-10
2.3849108e-08
-7.058696e-10
2.4081572e-08
-7.0127145e-10
2.4308582e-08
-6.8377632e-10
2.4539619e-08
-6.8136981e-10
2.4767947e-08
-6.7400638e-10
2.4990441e-08
-6.5584847e-10
2.5215864e-08
-6.4945992e-10
2.5438209e-08
-6.4192991e-10
2.5657659e-08
-6.2746909e-10
2.5876565e-08
-6.2165204e-10
-6.1022654e-10
8.3946487e-09
-1.1654228e-09
8.6498478e-09
-1.1605534e-09
8.9128904e-09
-1.1778538e-09
9.1739827e-09
-1.1829047e-09
9.4408907e-09
-1.1872917e-09
9.7064828e-09
-1.1953927e-09
9.9773688e-09
-1.1925643e-09
1.0247238e-08
-1.2062635e-09
1.052234e-08
-1.199544e-09
1.0796678e-08
-1.2176414e-09
1.1075185e-08
-1.2064361e-09
1.1353709e-08
-1.2254192e-09
1.1635495e-08
-1.2133619e-09
1.1917683e-08
-1.2288432e-09
1.2202491e-08
-1.2195841e-09
1.2488531e-08
-1.2315371e-09
1.2775402e-08
-1.224716e-09
1.3066397e-08
-1.2357828e-09
1.3354361e-08
-1.2273842e-09
1.3648848e-08
-1.235706e-09
1.3939607e-08
-1.2324581e-09
1.4236761e-08
-1.2346152e-09
1.4529631e-08
-1.2338262e-09
1.4828898e-08
-1.2318629e-09
1.5124434e-08
-1.2356306e-09
1.5424981e-08
-1.2297125e-09
1.5722891e-08
-1.2336936e-09
1.6025189e-08
-1.2262954e-09
1.6324879e-08
-1.2294142e-09
1.6628746e-08
-1.2242594e-09
1.6930097e-08
-1.2265792e-09
1.723345e-08
-1.2167307e-09
1.7537033e-08
-1.2208947e-09
1.7842359e-08
-1.2129235e-09
1.8146287e-08
-1.2137156e-09
1.8453481e-08
-1.2079135e-09
1.8757442e-08
-1.2075568e-09
1.90632e-08
-1.196901e-09
1.936826e-08
-1.1950826e-09
1.9675186e-08
-1.1889209e-09
1.9981575e-08
-1.189298e-09
2.028686e-08
-1.1765642e-09
2.0594577e-08
-1.1815436e-09
2.0899386e-08
-1.1651489e-09
2.1208131e-08
-1.17034e-09
2.1510179e-08
-1.1499318e-09
2.1819176e-08
-1.1580685e-09
2.2120866e-08
-1.1387508e-09
2.2427837e-08
-1.1408489e-09
2.2731838e-08
-1.1312443e-09
2.3035161e-08
-1.1232004e-09
2.3341066e-08
-1.1185272e-09
2.3643307e-08
-1.1116552e-09
2.3945055e-08
-1.0980942e-09
2.4246785e-08
-1.0936916e-09
2.4547589e-08
-1.0828126e-09
2.4848658e-08
-1.0776978e-09
2.5146425e-08
-1.0609546e-09
2.5444928e-08
-1.058278e-09
2.5739709e-08
-1.0428824e-09
2.6037429e-08
-1.0406498e-09
2.6331923e-08
-1.0270967e-09
2.6628083e-08
-1.0256766e-09
2.6915894e-08
-9.9913197e-10
2.7213794e-08
-1.0037702e-09
2.7499445e-08
-9.869222e-10
2.7787341e-08
-9.7167224e-10
2.807962e-08
-9.7364919e-10
2.8363541e-08
-9.57927e-10
2.8645513e-08
-9.3782083e-10
2.8934136e-08
-9.3808301e-10
2.9213065e-08
-9.2085867e-10
2.949463e-08
-9.0903439e-10
2.9773237e-08
-9.0025845e-10
-8.8618396e-10
8.7089321e-09
-1.4466468e-09
8.9922343e-09
-1.4438556e-09
9.2815106e-09
-1.46713e-09
9.5705923e-09
-1.4719864e-09
9.866338e-09
-1.4830374e-09
1.0160422e-08
-1.4894769e-09
1.0462665e-08
-1.4948066e-09
1.0761597e-08
-1.5051964e-09
1.1070381e-08
-1.508328e-09
1.1374681e-08
-1.521941e-09
1.1688637e-08
-1.5203924e-09
1.1998568e-08
-1.53535e-09
1.2317147e-08
-1.5319405e-09
1.2632302e-08
-1.5439989e-09
1.2955143e-08
-1.5424248e-09
1.3275817e-08
-1.5522106e-09
1.3601501e-08
-1.5504006e-09
1.3928947e-08
-1.5632281e-09
1.4256404e-08
-1.5548411e-09
1.4589084e-08
-1.5683869e-09
1.4920471e-08
-1.563845e-09
1.5256772e-08
-1.5709155e-09
1.5591765e-08
-1.5688192e-09
1.5931731e-08
-1.5718293e-09
1.6270418e-08
-1.5743172e-09
1.6612097e-08
-1.5713917e-09
1.6954818e-08
-1.5764144e-09
1.7299932e-08
-1.5714096e-09
1.7645635e-08
-1.5751172e-09
1.7993925e-08
-1.5725495e-09
1.8340785e-08
-1.5734394e-09
1.8690559e-08
-1.5665043e-09
1.904086e-08
-1.5711965e-09
1.9394113e-08
-1.5661757e-09
1.9745243e-08
-1.5648464e-09
2.0103679e-08
-1.5663491e-09
2.0453179e-08
-1.5570571e-09
2.0810887e-08
-1.5546091e-09
2.1163796e-08
-1.5479914e-09
2.1524635e-08
-1.5497594e-09
2.1878535e-08
-1.5431982e-09
2.2238732e-08
-1.536761e-09
2.2594706e-08
-1.5375173e-09
2.2954449e-08
-1.5248921e-09
2.3314954e-08
-1.5308447e-09
2.3670445e-08
-1.5054234e-09
2.4032628e-08
-1.5202511e-09
2.4386685e-08
-1.4928086e-09
2.4749998e-08
-1.5041612e-09
2.5104967e-08
-1.4862137e-09
2.5465211e-08
-1.4834444e-09
2.5826015e-08
-1.4793306e-09
2.6181419e-08
-1.4670599e-09
2.6539537e-08
-1.4562122e-09
2.689639e-08
-1.4505448e-09
2.7252467e-08
-1.4388894e-09
2.7608644e-08
-1.4338747e-09
2.7965465e-08
-1.4177757e-09
2.83172e-08
-1.4100133e-09
2.8666718e-08
-1.3924001e-09
2.9023237e-08
-1.3971681e-09
2.9376005e-08
-1.3798655e-09
2.9723194e-08
-1.3728651e-09
3.0072131e-08
-1.3480695e-09
3.0429943e-08
-1.3615823e-09
3.0763452e-08
-1.3204305e-09
3.1117258e-08
-1.3254783e-09
3.1466679e-08
-1.3230706e-09
3.1802599e-08
-1.2938469e-09
3.2144615e-08
-1.2798366e-09
3.2496131e-08
-1.2895986e-09
3.2825531e-08
-1.2502595e-09
3.3170804e-08
-1.254307e-09
3.3507092e-08
-1.2365468e-09
-1.2198124e-09
8.9122591e-09
-1.7481259e-09
9.2247431e-09
-1.7563396e-09
9.5361362e-09
-1.7785231e-09
9.8552298e-09
-1.79108e-09
1.0175345e-08
-1.803153e-09
1.0500232e-08
-1.8143632e-09
1.0829517e-08
-1.8240916e-09
1.1159602e-08
-1.8352822e-09
1.1498147e-08
-1.8468726e-09
1.1834008e-08
-1.8578018e-09
1.217991e-08
-1.8662949e-09
1.2522363e-08
-1.8778027e-09
1.2874466e-08
-1.8840438e-09
1.3223236e-08
-1.8927687e-09
1.3581304e-08
-1.9004924e-09
1.393661e-08
-1.9075165e-09
1.4299332e-08
-1.913123e-09
1.4662128e-08
-1.9260241e-09
1.5028262e-08
-1.9209753e-09
1.5397979e-08
-1.9381035e-09
1.5769273e-08
-1.9351391e-09
1.6143377e-08
-1.9450194e-09
1.6520163e-08
-1.945605e-09
1.6899932e-08
-1.9515984e-09
1.7281404e-08
-1.95579e-09
1.7662921e-08
-1.9529085e-09
1.8051017e-08
-1.9645104e-09
1.8436825e-08
-1.9572176e-09
1.8830558e-08
-1.9688497e-09
1.922032e-08
-1.9623118e-09
1.9614517e-08
-1.9676364e-09
2.0008023e-08
-1.96001e-09
2.0407511e-08
-1.9706848e-09
2.0804173e-08
-1.962838e-09
2.120589e-08
-1.966563e-09
2.1611288e-08
-1.9717468e-09
2.2008266e-08
-1.9540353e-09
2.2413332e-08
-1.9596748e-09
2.2816069e-08
-1.9507284e-09
2.3226422e-08
-1.9601131e-09
2.3627008e-08
-1.9437839e-09
2.4040134e-08
-1.9498875e-09
2.4440004e-08
-1.9373865e-09
2.4853948e-08
-1.9388368e-09
2.5259233e-08
-1.9361291e-09
2.5670474e-08
-1.9166648e-09
2.6075349e-08
-1.9251262e-09
2.648152e-08
-1.8989794e-09
2.6895006e-08
-1.9176466e-09
2.7293888e-08
-1.8850963e-09
2.770957e-08
-1.8991261e-09
2.8116559e-08
-1.8863193e-09
2.8520658e-08
-1.8711595e-09
2.8928751e-08
-1.8643047e-09
2.9335407e-08
-1.8572013e-09
2.9738293e-08
-1.8417757e-09
3.014193e-08
-1.8375112e-09
3.055311e-08
-1.8289557e-09
3.0947886e-08
-1.8047894e-09
3.1342798e-08
-1.7873121e-09
3.1753027e-08
-1.8073972e-09
3.2157395e-08
-1.7842338e-09
3.2542322e-08
-1.7577921e-09
3.295655e-08
-1.7622977e-09
3.3358471e-08
-1.7635029e-09
3.3734224e-08
-1.696184e-09
3.415356e-08
-1.744814e-09
3.4546166e-08
-1.715676e-09
3.4928818e-08
-1.6764997e-09
3.532366e-08
-1.6746783e-09
3.5731949e-08
-1.6978876e-09
3.6100376e-08
-1.6186865e-09
3.6503306e-08
-1.6572366e-09
3.6886374e-08
-1.6196155e-09
-1.6000665e-09
9.027303e-09
-2.0725205e-09
9.36423e-09
-2.0932667e-09
9.6986139e-09
-2.112907e-09
1.0044732e-08
-2.137198e-09
1.0388178e-08
-2.1465993e-09
1.0742533e-08
-2.1687185e-09
1.1096243e-08
-2.1778013e-09
1.1457271e-08
-2.1963105e-09
1.1821958e-08
-2.2115589e-09
1.2189736e-08
-2.2255798e-09
1.2563466e-08
-2.2400248e-09
1.2939112e-08
-2.2534494e-09
1.3320369e-08
-2.2653001e-09
1.3703854e-08
-2.2762544e-09
1.4092742e-08
-2.2893805e-09
1.4483999e-08
-2.2987732e-09
1.488015e-08
-2.309274e-09
1.5278897e-08
-2.3247712e-09
1.5680747e-08
-2.3228251e-09
1.6088812e-08
-2.3461687e-09
1.649653e-08
-2.3428571e-09
1.6910175e-08
-2.3586637e-09
1.7325144e-08
-2.3605749e-09
1.7747526e-08
-2.3739803e-09
1.8167229e-08
-2.3754927e-09
1.8591686e-08
-2.3773657e-09
1.9020447e-08
-2.393271e-09
1.9448777e-08
-2.3855478e-09
1.9887061e-08
-2.4071337e-09
2.0317999e-08
-2.3932495e-09
2.0755982e-08
-2.4056196e-09
2.1191566e-08
-2.3955939e-09
2.1637433e-08
-2.4165523e-09
2.2071593e-08
-2.396998e-09
2.2522924e-08
-2.4178938e-09
2.2966405e-08
-2.4152275e-09
2.3409824e-08
-2.3974548e-09
2.3850513e-08
-2.4003637e-09
2.4302426e-08
-2.4026411e-09
2.4747687e-08
-2.4053746e-09
2.5193104e-08
-2.3892007e-09
2.5645399e-08
-2.4021817e-09
2.6083594e-08
-2.3755821e-09
2.6539776e-08
-2.3950181e-09
2.6977326e-08
-2.3736798e-09
2.7438526e-08
-2.3778644e-09
2.7866661e-08
-2.3532619e-09
2.8319079e-08
-2.3513967e-09
2.877018e-08
-2.3687476e-09
2.919943e-08
-2.3143467e-09
2.9666805e-08
-2.3665005e-09
3.01017e-08
-2.3212147e-09
3.0547941e-08
-2.3174009e-09
3.0990184e-08
-2.3065474e-09
3.1437011e-08
-2.3040288e-09
3.1869018e-08
-2.2737826e-09
3.2300641e-08
-2.2691334e-09
3.2747475e-08
-2.2757905e-09
3.3157195e-08
-2.2145091e-09
3.3594846e-08
-2.2249629e-09
3.4071899e-08
-2.2844509e-09
3.4526778e-08
-2.239112e-09
3.492974e-08
-2.1607539e-09
3.5423258e-08
-2.255816e-09
3.5849216e-08
-2.1894608e-09
3.6225274e-08
-2.0722422e-09
3.6717087e-08
-2.2366276e-09
3.7111349e-08
-2.1099376e-09
3.7465855e-08
-2.0310058e-09
3.7859953e-08
-2.0687766e-09
3.8277164e-08
-2.1150984e-09
3.8527984e-08
-1.869506e-09
3.8931249e-08
-2.0605014e-09
3.9170762e-08
-1.8591288e-09
-1.8601336e-09
9.0677205e-09
-2.421403e-09
9.4232317e-09
-2.4487779e-09
9.7827521e-09
-2.4724274e-09
1.0149894e-08
-2.5043396e-09
1.051847e-08
-2.5151753e-09
1.0897026e-08
-2.5472749e-09
1.1275948e-08
-2.5567229e-09
1.1663853e-08
-2.5842153e-09
1.2054563e-08
-2.6022696e-09
1.2451042e-08
-2.6220583e-09
1.2852246e-08
-2.6412288e-09
1.3258279e-08
-2.6594823e-09
1.3668733e-08
-2.6757539e-09
1.408459e-08
-2.6921115e-09
1.4504397e-08
-2.7091875e-09
1.4929841e-08
-2.7242172e-09
1.5359865e-08
-2.7392981e-09
1.5792405e-08
-2.7573117e-09
1.6230565e-08
-2.7609846e-09
1.6675652e-08
-2.7912562e-09
1.711936e-08
-2.7865646e-09
1.7571258e-08
-2.8105617e-09
1.8022846e-08
-2.8121633e-09
1.8487141e-08
-2.8382752e-09
1.8940366e-08
-2.8287183e-09
1.9408337e-08
-2.8453363e-09
1.986879e-08
-2.8537235e-09
2.0339982e-08
-2.85674e-09
2.0811259e-08
-2.8784109e-09
2.1282423e-08
-2.8644138e-09
2.174906e-08
-2.8722568e-09
2.222558e-08
-2.872113e-09
2.2699194e-08
-2.8901671e-09
2.3167943e-08
-2.8657461e-09
2.3649465e-08
-2.8994164e-09
2.4123735e-08
-2.889497e-09
2.459522e-08
-2.8689405e-09
2.5058516e-08
-2.8636596e-09
2.5544761e-08
-2.8888862e-09
2.6011221e-08
-2.8718344e-09
2.648957e-08
-2.86755e-09
2.696451e-08
-2.8771217e-09
2.7426452e-08
-2.8375238e-09
2.7907899e-08
-2.8764649e-09
2.8349118e-08
-2.8148988e-09
2.8835913e-08
-2.8646595e-09
2.9276143e-08
-2.7934915e-09
2.978803e-08
-2.8632841e-09
3.0271986e-08
-2.8527036e-09
3.0702167e-08
-2.7445274e-09
3.1228022e-08
-2.8923563e-09
3.162589e-08
-2.7190825e-09
3.2067918e-08
-2.759429e-09
3.2433874e-08
-2.6725031e-09
3.2831947e-08
-2.7021019e-09
3.3059819e-08
-2.5016548e-09
3.3219969e-08
-2.4292827e-09
3.3017789e-08
-2.0736111e-09
3.2976366e-08
-2.1730858e-09
3.33291e-08
-2.5776968e-09
3.3650512e-08
-2.6058626e-09
3.4131317e-08
-2.7199178e-09
3.4128094e-08
-2.1575309e-09
3.4334237e-08
-2.4619587e-09
3.4615349e-08
-2.4705726e-09
3.4351913e-08
-1.8088064e-09
3.4530974e-08
-2.4156882e-09
3.4588378e-08
-2.1673422e-09
3.4247592e-08
-1.6902197e-09
3.4155327e-08
-1.9765113e-09
3.4035935e-08
-1.9957064e-09
3.3534265e-08
-1.3678358e-09
3.3462498e-08
-1.9887349e-09
3.2986114e-08
-1.3827448e-09
-1.4497036e-09
9.0423167e-09
-2.7923693e-09
9.414655e-09
-2.8211163e-09
9.7979273e-09
-2.8556997e-09
1.0183298e-08
-2.8897105e-09
1.0576595e-08
-2.9084721e-09
1.097605e-08
-2.9467304e-09
1.138008e-08
-2.9607525e-09
1.1792145e-08
-2.9962808e-09
1.2208459e-08
-3.0185829e-09
1.2631784e-08
-3.0453841e-09
1.3059971e-08
-3.0694153e-09
1.3495231e-08
-3.0947421e-09
1.3934742e-08
-3.1152654e-09
1.4382243e-08
-3.139612e-09
1.4832666e-08
-3.1596104e-09
1.5291512e-08
-3.1830641e-09
1.5755422e-08
-3.2032073e-09
1.621921e-08
-3.2210996e-09
1.669418e-08
-3.2359548e-09
1.7171293e-08
-3.2683691e-09
1.7651361e-08
-3.2666329e-09
1.8132051e-08
-3.2912517e-09
1.8620446e-08
-3.3005582e-09
1.9111716e-08
-3.3295457e-09
1.9597561e-08
-3.314563e-09
2.0090591e-08
-3.3383659e-09
2.057756e-08
-3.3406933e-09
2.1071534e-08
-3.350714e-09
2.1566852e-08
-3.3737287e-09
2.2055991e-08
-3.3535527e-09
2.2538212e-08
-3.3544778e-09
2.3036657e-08
-3.3705584e-09
2.3523191e-08
-3.3767008e-09
2.4010805e-08
-3.3533595e-09
2.4501562e-08
-3.390174e-09
2.4985972e-08
-3.3739073e-09
2.5446397e-08
-3.3293651e-09
2.5936283e-08
-3.3535455e-09
2.6458698e-08
-3.4113015e-09
2.6935133e-08
-3.3482693e-09
2.7402155e-08
-3.3345715e-09
2.7861122e-08
-3.3360892e-09
2.819782e-08
-3.1742212e-09
2.8562148e-08
-3.2407937e-09
2.8392258e-08
-2.6450086e-09
2.8305845e-08
-2.7782467e-09
2.8546699e-08
-3.0343447e-09
2.8865966e-08
-3.1825513e-09
2.9144178e-08
-3.1309158e-09
2.9042243e-08
-2.6425927e-09
2.9142956e-08
-2.9930692e-09
2.8990964e-08
-2.56709e-09
2.8733598e-08
-2.5020631e-09
2.8406182e-08
-2.3450873e-09
2.8007593e-08
-2.3035127e-09
2.7464659e-08
-1.9587214e-09
2.6742422e-08
-1.707045e-09
2.6174166e-08
-1.5053552e-09
2.529681e-08
-1.2957297e-09
2.4153028e-08
-1.4339149e-09
2.2986271e-08
-1.4391053e-09
2.1775514e-08
-1.5091612e-09
2.049016e-08
-8.7217687e-10
1.9114104e-08
-1.0859025e-09
1.7841434e-08
-1.1979029e-09
1.6682113e-08
-6.4948495e-10
1.5391534e-08
-1.1251089e-09
1.4129097e-08
-9.0490552e-10
1.3103678e-08
-6.6480122e-10
1.1835519e-08
-7.083516e-10
1.0832135e-08
-9.9232277e-10
9.8344778e-09
-3.7017863e-10
8.6662091e-09
-8.2046618e-10
7.9981979e-09
-7.1473359e-10
-9.7955149e-10
8.9617882e-09
-3.182652e-09
9.3497512e-09
-3.2090792e-09
9.7544788e-09
-3.2604273e-09
1.0156534e-08
-3.291766e-09
1.0573359e-08
-3.3252971e-09
1.0991656e-08
-3.3650268e-09
1.1420874e-08
-3.3899704e-09
1.185471e-08
-3.4301171e-09
1.2297559e-08
-3.4614322e-09
1.2745493e-08
-3.4933175e-09
1.3201952e-08
-3.5258744e-09
1.3665173e-08
-3.557963e-09
1.4133608e-08
-3.5837008e-09
1.4613204e-08
-3.6192077e-09
1.5090477e-08
-3.6368832e-09
1.5584175e-08
-3.6767629e-09
1.6073989e-08
-3.6930207e-09
1.6569513e-08
-3.7166236e-09
1.7068338e-08
-3.7347797e-09
1.7574817e-08
-3.7748487e-09
1.8073616e-08
-3.7654317e-09
1.8576051e-08
-3.7936865e-09
1.9079137e-08
-3.8036444e-09
1.9585278e-08
-3.8356864e-09
2.0081096e-08
-3.8103813e-09
2.057905e-08
-3.8363195e-09
2.1077454e-08
-3.8390976e-09
2.1572381e-08
-3.8456414e-09
2.2073474e-08
-3.8748214e-09
2.2546212e-08
-3.8262905e-09
2.3043421e-08
-3.8516867e-09
2.3549022e-08
-3.8761598e-09
2.4042405e-08
-3.8700833e-09
2.4437246e-08
-3.7482004e-09
2.4872733e-08
-3.8256614e-09
2.4857216e-08
-3.3583899e-09
2.4665108e-08
-3.1372575e-09
2.499015e-08
-3.6785871e-09
2.5179046e-08
-3.6001979e-09
2.5192148e-08
-3.361371e-09
2.5060167e-08
-3.2025908e-09
2.4719067e-08
-2.9949889e-09
2.4239892e-08
-2.6950459e-09
2.3561315e-08
-2.5622172e-09