/*--------------------------------*- C++ -*----------------------------------*\
| =========                 |                                                 |
| \\      /  F ield         | OpenFOAM: The Open Source CFD Toolbox           |
|  \\    /   O peration     | Version:  2.3.0                                 |
|   \\  /    A nd           | Web:      www.OpenFOAM.org                      |
|    \\/     M anipulation  |                                                 |
\*---------------------------------------------------------------------------*/
FoamFile
{
    version     2.0;
    format      ascii;
    class       volVectorField;
    location    "3.7e-05";
    object      U;
}
// * * * * * * * * * * * * * * * * * * * * * * * * * * * * * * * * * * * * * //

dimensions      [0 1 -1 0 0 0 0];

internalField   nonuniform List<vector> 
7500
(
(460.00347 0.00017691513 1.594618e-16)
(459.9875 -0.00025364457 3.1778817e-15)
(459.99852 0.0058605348 2.7213233e-15)
(459.96986 -0.0071787694 -3.1215517e-16)
(459.977 0.0060815293 3.2400259e-15)
(459.9622 -0.010731117 5.9034561e-15)
(459.96654 0.010890616 1.7159006e-15)
(459.97081 -0.0078375536 5.1429652e-15)
(459.97175 0.013436125 4.3848735e-15)
(459.97565 -0.010720955 1.3095967e-15)
(459.97347 0.0079468619 1.3083755e-15)
(459.97112 -0.0080891857 -1.352313e-15)
(459.97103 0.0044050568 1.3355757e-15)
(459.97095 -0.0030866115 1.5818789e-15)
(459.97179 0.0042915168 1.0447175e-15)
(459.9802 -0.0035348984 8.5000668e-16)
(459.96853 0.0050690231 1.842986e-15)
(459.98287 -0.0049056746 -1.8305612e-15)
(459.961 0.0010807311 1.1341584e-15)
(459.97462 0.0018275929 1.3089904e-15)
(459.9662 -0.0055928476 -1.5495516e-15)
(459.97516 0.010166611 1.2149315e-15)
(459.96551 -0.013102345 1.7795428e-15)
(459.97899 0.016009996 -1.4430506e-15)
(459.96788 -0.018806017 1.1273624e-15)
(459.96494 0.021221503 7.2076902e-16)
(459.9747 -0.020494666 1.4602228e-15)
(459.95797 0.020310737 -1.6099737e-15)
(459.97328 -0.01666456 -1.3695265e-15)
(459.9442 0.013537408 3.3647172e-15)
(459.97517 -0.0098857601 -8.0807098e-16)
(459.94592 0.0039085231 7.889752e-16)
(459.97472 0.001302585 8.3827507e-16)
(459.95475 -0.0055363794 -1.2300958e-15)
(459.97475 0.010280673 -9.7030296e-16)
(459.95246 -0.015864487 1.0468424e-15)
(459.96337 0.016875778 -1.3685187e-15)
(459.95113 -0.016192986 9.0112602e-16)
(459.9602 0.016194213 1.008114e-15)
(459.95835 -0.01042103 7.7116534e-16)
(459.9582 0.0062454168 9.8072121e-16)
(459.95055 -0.0022735067 6.3523881e-16)
(459.94992 -0.0014279137 2.8339349e-15)
(459.94469 0.0027877017 3.3050149e-15)
(459.9542 -0.0073283433 8.4306957e-16)
(459.93943 0.0090495485 -1.7206822e-15)
(459.96261 -0.0087656686 -1.7708618e-15)
(459.94415 0.010517982 -9.4878883e-16)
(459.95795 -0.005120057 1.3729996e-15)
(459.94579 0.00041300441 3.9296363e-16)
(459.96047 -0.0039349467 3.8030002e-16)
(459.95036 -0.0013518799 2.6357845e-15)
(459.96513 0.0033582353 3.9247619e-16)
(459.95874 -0.003096017 4.2000892e-16)
(459.96152 -0.001380112 3.8287711e-16)
(459.94958 0.0021185539 -1.2984801e-15)
(459.97532 0.0045607555 5.234778e-16)
(459.95866 -0.0027089232 3.5222825e-16)
(459.97398 0.0027712879 2.7731425e-16)
(459.97487 0.0049118556 7.3658591e-16)
(459.97435 -0.00092989658 3.2492584e-16)
(459.95441 -0.0032913977 2.5746122e-15)
(459.95726 -0.0016568171 4.5164978e-16)
(459.94471 3.0271139e-05 -1.60423e-15)
(459.94918 -0.001349384 -1.4694199e-15)
(459.95607 0.0024726579 7.4991191e-16)
(459.97327 0.00048055253 4.6198063e-16)
(459.94775 -0.0032871591 6.7505058e-16)
(459.9646 0.0033971598 4.358963e-16)
(459.95629 -0.00037374927 -1.5699727e-15)
(459.97514 -0.0012812322 -1.3556216e-15)
(459.95395 0.0021142237 6.3788379e-16)
(459.98088 0.0053379059 1.7923965e-15)
(459.96208 -0.004761079 4.2446533e-16)
(459.96 -0.0018888534 2.3716777e-15)
(460.00064 0.0017185898 -3.7897439e-17)
(459.98978 0.00091697286 -5.1982548e-17)
(459.99541 0.0065849123 1.8545125e-17)
(459.97116 -0.013263123 5.700611e-17)
(459.97435 0.0095263572 -1.7179792e-17)
(459.96355 -0.019397016 2.0373387e-16)
(459.96457 0.018039712 8.9607143e-18)
(459.9716 -0.015632468 2.0872815e-16)
(459.96942 0.019207102 1.3546663e-16)
(459.97521 -0.014657766 2.1758205e-16)
(459.97178 0.011824346 2.8900382e-16)
(459.97022 -0.013998505 1.1315104e-16)
(459.96979 0.012053446 2.1864275e-16)
(459.96982 -0.0110101 -4.7701831e-16)
(459.97041 0.0089792952 -9.0948866e-17)
(459.97882 -0.0029505383 -8.9321282e-16)
(459.96734 -0.00086815039 3.6911236e-16)
(459.98084 0.0052631997 4.6296259e-16)
(459.96064 -0.010199451 5.1325375e-17)
(459.97216 0.014493598 3.7027309e-16)
(459.96592 -0.019357311 1.4739542e-16)
(459.9726 0.023841647 2.4345931e-16)
(459.96476 -0.027173067 2.6033886e-16)
(459.97681 0.029345982 9.8716596e-16)
(459.96696 -0.029864219 2.0311028e-16)
(459.96344 0.029927821 4.0152308e-16)
(459.97328 -0.028447203 -6.4139265e-16)
(459.95716 0.025668199 -5.7905393e-16)
(459.97139 -0.016749175 1.4435252e-15)
(459.94358 0.010107097 4.6561918e-16)
(459.97277 -0.0030716296 1.2787603e-16)
(459.94557 -0.0054775183 2.0166855e-16)
(459.97189 0.010755545 -1.1515451e-16)
(459.95422 -0.013236351 2.7561627e-16)
(459.97156 0.015261226 1.6915399e-16)
(459.9521 -0.018935298 1.630335e-16)
(459.96136 0.018603464 1.7102745e-16)
(459.95064 -0.017910572 -5.0648533e-16)
(459.95934 0.01690527 -1.1958881e-16)
(459.95721 -0.007054742 4.692376e-17)
(459.95804 0.0028784367 6.2088806e-17)
(459.94938 0.0018990638 -4.3930723e-16)
(459.94952 -0.0073009509 1.924119e-16)
(459.9431 0.0088372033 3.292133e-16)
(459.95388 -0.011964056 8.4492547e-17)
(459.93812 0.011987227 -4.8168499e-16)
(459.96194 -0.0099075903 8.9183288e-17)
(459.94395 0.01140926 -4.5043039e-16)
(459.9564 -0.0047073419 2.0189471e-16)
(459.94616 0.00019136554 1.0382168e-16)
(459.95997 -0.0024973503 1.6556189e-16)
(459.95186 -0.002267727 -5.6962369e-16)
(459.9643 0.0011396159 1.7418387e-16)
(459.95879 -0.0044761356 -2.8948627e-16)
(459.9611 -0.00095401368 2.6157183e-16)
(459.95056 0.0014498195 1.2533305e-16)
(459.97389 0.0069900231 1.4180456e-16)
(459.95884 -0.0028330199 2.5479028e-16)
(459.97445 0.0015880542 1.6496317e-16)
(459.975 0.0051251944 -3.834024e-16)
(459.97334 -0.0011413929 3.0793412e-16)
(459.95477 -0.0032758091 2.0274468e-16)
(459.95731 -0.00075718509 1.7847205e-16)
(459.94491 0.0021383801 2.5003973e-16)
(459.94866 0.0012128948 -3.9202576e-16)
(459.9563 0.00060297044 1.7520403e-16)
(459.9717 -0.0024288345 -3.9072117e-16)
(459.94822 -0.006633277 1.7348668e-16)
(459.96423 0.005224349 1.2929981e-16)
(459.95592 0.00050431865 1.2139321e-16)
(459.97467 -0.00015124693 7.0047314e-16)
(459.9545 0.0015130516 -5.1905972e-16)
(459.97856 0.0054338898 1.4034467e-16)
(459.96019 -0.0038759607 1.6315984e-16)
(459.95764 -0.0023094423 2.2579333e-16)
(459.98218 0.00073239094 1.5909998e-17)
(460.00364 0.007040085 -8.7147042e-16)
(459.97811 0.0049298353 5.7229257e-17)
(459.98132 -0.015722036 -5.6599969e-17)
(459.96042 0.0093145411 9.3454056e-17)
(459.97128 -0.023870363 6.9685325e-16)
(459.95395 0.023215569 1.2177903e-16)
(459.97638 -0.023523039 -5.83689e-17)
(459.96072 0.030751959 -2.6002874e-17)
(459.97762 -0.028951166 -1.2686186e-16)
(459.9643 0.028452393 2.8268805e-17)
(459.97184 -0.030287939 -6.7520081e-16)
(459.96374 0.024653095 -6.5419705e-16)
(459.96928 -0.020068933 5.3665595e-16)
(459.96648 0.014514972 7.7891476e-16)
(459.97644 -0.0063834686 -5.9798241e-16)
(459.96441 -0.00014141187 6.684735e-16)
(459.97827 0.0078276009 5.6177261e-18)
(459.95802 -0.016615768 1.0309368e-17)
(459.96911 0.024903815 -5.6248588e-18)
(459.96331 -0.033946595 9.9005553e-18)
(459.96934 0.040655915 5.6627789e-16)
(459.96148 -0.046348953 6.6020228e-16)
(459.97431 0.0494429 -2.6053824e-16)
(459.96319 -0.049297046 1.4321007e-17)
(459.96181 0.046150913 -1.2188794e-16)
(459.96973 -0.040500421 -3.9429532e-16)
(459.95725 0.031872837 -1.3207187e-16)
(459.96678 -0.018026241 -4.1272239e-16)
(459.94345 0.0099045894 4.3972194e-16)
(459.96756 0.00013120637 1.9302988e-18)
(459.94428 -0.011109994 -6.3687127e-17)
(459.9664 0.016457551 -5.3580514e-16)
(459.951 -0.018319198 2.2031226e-17)
(459.96546 0.020102154 7.0876329e-17)
(459.94954 -0.022606952 4.1334524e-17)
(459.95637 0.019507458 -4.8008236e-16)
(459.94942 -0.01931723 -5.4452102e-16)
(459.95749 0.017528658 1.1618922e-16)
(459.95583 -0.0039524058 -1.1181439e-16)
(459.95746 0.0011892677 2.207313e-16)
(459.94826 0.0038433579 -1.2149715e-16)
(459.94929 -0.010517078 -3.8075153e-16)
(459.94136 0.012457391 6.8965122e-17)
(459.95281 -0.016451555 4.8865955e-17)
(459.93652 0.015511159 1.2365356e-16)
(459.96093 -0.012362341 3.7156047e-16)
(459.94375 0.012875216 2.8825771e-16)
(459.95547 -0.0052455124 -3.2670623e-16)
(459.94781 0.0020583303 3.2420916e-17)
(459.96101 -0.002608229 5.3859903e-16)
(459.95489 -0.002656337 7.2869696e-16)
(459.96513 7.3914607e-05 -1.1344078e-16)
(459.96139 -0.0060774182 -5.4815205e-17)
(459.96215 -0.0012456234 7.8511203e-17)
(459.9534 -0.00097603378 4.3132749e-16)
(459.97359 0.0084338275 -8.7969556e-16)
(459.95946 -0.0027090817 2.7568104e-17)
(459.97617 0.00033939249 8.0610852e-17)
(459.97633 0.0056243028 -4.5351907e-16)
(459.9734 -0.00039587286 -4.0561994e-16)
(459.95628 -0.0035919443 -3.3161145e-16)
(459.95831 -0.00029974057 2.1942816e-17)
(459.94585 0.00043903391 4.6064262e-18)
(459.94716 0.0042929391 -3.8600902e-16)
(459.95522 0.0025464543 -7.3093961e-16)
(459.9691 -0.0031898473 2.8503914e-17)
(459.94868 -0.0099389965 2.6102947e-17)
(459.96392 0.0058553604 5.3896713e-17)
(459.95409 -0.0013305961 1.680135e-17)
(459.97287 0.00097181925 -1.4943579e-18)
(459.95287 0.0022222369 3.8835857e-17)
(459.9741 0.0056403649 3.2167735e-17)
(459.95491 -0.0021936071 3.014972e-16)
(459.95078 -0.002550918 3.1977334e-16)
(459.90304 -9.4596899e-05 -1.6631632e-17)
(460.06874 0.014694474 6.9023934e-17)
(459.90788 0.0038366123 -6.8413965e-16)
(460.0326 -0.01657747 -5.7658956e-16)
(459.903 0.0084938334 -4.8468981e-17)
(460.01089 -0.027343322 -4.6986152e-16)
(459.90839 0.029360879 1.0186517e-16)
(460.00679 -0.032557735 1.7649321e-17)
(459.92494 0.043973695 2.2289277e-17)
(460.00123 -0.043434951 -4.1833205e-16)
(459.93741 0.043793996 -5.6590765e-16)
(459.98956 -0.044228702 5.5235648e-16)
(459.94368 0.036219118 4.9359327e-16)
(459.9821 -0.030643616 5.2774326e-16)
(459.94998 0.025191951 4.6038339e-16)
(459.98585 -0.016136659 -1.2239989e-16)
(459.95108 0.008766414 1.2434418e-16)
(459.98429 0.0026055123 2.128609e-17)
(459.9478 -0.016736044 -5.6568211e-16)
(459.97199 0.030422968 6.4294146e-17)
(459.95444 -0.043427397 -3.5671643e-17)
(459.9703 0.053636672 5.821963e-16)
(459.95268 -0.060668768 -2.5635874e-17)
(459.97477 0.064702089 3.4785169e-17)
(459.95433 -0.0635199 4.1129623e-16)
(459.96331 0.058734708 -8.6699122e-17)
(459.96113 -0.051154314 -4.1743431e-16)
(459.9598 0.041211983 1.1186044e-16)
(459.95873 -0.02642676 5.0799153e-16)
(459.94403 0.018265209 -3.1674997e-16)
(459.95838 -0.0055615274 2.7814219e-16)
(459.9427 -0.0065865056 1.5185185e-17)
(459.95639 0.013905491 -8.6138415e-18)
(459.94664 -0.016476075 4.3844818e-16)
(459.95442 0.019463008 -2.717062e-17)
(459.94511 -0.022085131 4.9155508e-17)
(459.94779 0.017295667 -6.73065e-17)
(459.94773 -0.01981895 -3.929089e-16)
(459.95385 0.019172119 3.6611824e-16)
(459.95525 -0.0046076649 3.9015706e-17)
(459.95615 0.0036313023 -3.4573368e-17)
(459.94882 0.0015932547 3.2736818e-18)
(459.94956 -0.0091303786 -3.1369763e-17)
(459.9411 0.011247498 -6.5694848e-17)
(459.95237 -0.017573149 -1.6177745e-17)
(459.93641 0.01682457 -3.8462494e-17)
(459.95999 -0.015584964 -9.4515337e-18)
(459.94503 0.01475476 5.2320157e-17)
(459.9556 -0.0068830811 -3.3761634e-17)
(459.95129 0.0056430733 3.2836211e-16)
(459.96395 -0.0060434014 9.214932e-18)
(459.96092 -0.00053257623 7.6133758e-17)
(459.9693 -0.00012034698 3.0803126e-16)
(459.96697 -0.0066900705 -1.1791421e-17)
(459.96658 -0.0021802158 1.0594069e-18)
(459.95869 -0.0034513441 -5.8828216e-17)
(459.97625 0.0068154446 -3.6541351e-16)
(459.96092 -0.0015394477 1.9139501e-17)
(459.97898 0.0025877699 3.0151751e-16)
(459.97802 0.004520719 2.5824273e-17)
(459.97317 -0.00041640721 2.0788561e-19)
(459.95701 -0.002451324 -3.8690463e-17)
(459.95781 0.0015343483 -3.2077539e-16)
(459.94559 -0.0032516964 -3.1878635e-16)
(459.94474 0.0034110658 2.2227301e-16)
(459.95088 0.0054394931 1.3390103e-16)
(459.96212 -0.00099920293 3.0407492e-16)
(459.94418 -0.0093445164 -6.972652e-17)
(459.9586 0.0056578892 -3.1050095e-16)
(459.94652 -0.0041918544 -2.2894543e-16)
(459.96586 0.001419662 3.1676034e-16)
(459.94485 0.0042628088 -1.9469997e-17)
(459.96328 0.0056223095 -3.5469367e-17)
(459.94298 -0.0011639909 1.1619734e-18)
(459.93696 -0.0020776615 -2.3533648e-16)
(459.69416 0.0011319309 -1.9747368e-17)
(460.26498 0.021446669 2.5533982e-17)
(459.71389 0.0042578573 2.8865444e-16)
(460.20501 -0.018644598 -5.7733016e-17)
(459.73622 0.0096205427 -6.1297693e-17)
(460.15599 -0.031730589 -3.37932e-17)
(459.77085 0.035608932 -2.0581238e-17)
(460.12786 -0.038497339 -4.7241785e-16)
(459.81527 0.049945334 -6.8206786e-17)
(460.10341 -0.047436952 3.33012e-17)
(459.85141 0.047518955 -4.0553641e-16)
(460.07596 -0.048765403 -5.3158686e-17)
(459.87421 0.04198082 1.2682945e-18)
(460.05401 -0.037849859 8.4495078e-18)
(459.89087 0.032820522 -1.2516393e-17)
(460.04336 -0.020927019 3.3231696e-17)
(459.90098 0.01246637 3.884962e-16)
(460.02789 0.0019569466 -2.6358806e-17)
(459.90662 -0.017936391 7.5896345e-19)
(460.00421 0.031700718 3.2428583e-16)
(459.91893 -0.042671033 4.1329749e-16)
(459.99432 0.052356833 -1.047053e-17)
(459.92046 -0.058506624 4.4073625e-18)
(459.99302 0.063143251 -5.5814781e-17)
(459.92501 -0.062537932 -8.8797614e-17)
(459.97693 0.060505837 3.3405584e-16)
(459.9353 -0.055846958 8.0935143e-17)
(459.96994 0.048444412 -5.8906879e-17)
(459.93507 -0.03462599 1.0342182e-16)
(459.95076 0.027643048 -3.6939332e-16)
(459.93529 -0.014832441 2.0535259e-16)
(459.94655 0.0042816327 2.9636005e-16)
(459.93483 0.0052047389 3.3482837e-16)
(459.94696 -0.006725002 -2.3323051e-16)
(459.93431 0.0093475869 -3.1904925e-16)
(459.94374 -0.014430885 -2.7480943e-16)
(459.93111 0.0095658669 -2.4679958e-16)
(459.94766 -0.016292822 -4.5988207e-17)
(459.94286 0.018670971 4.9916366e-18)
(459.95467 -0.0060758897 3.0975976e-17)
(459.94846 0.0070804658 1.8731329e-17)
(459.94984 -0.0011729436 2.1589247e-16)
(459.9448 -0.0063034642 7.2295806e-17)
(459.94302 0.0073166117 3.0966505e-16)
(459.94779 -0.015823138 -2.7262921e-16)
(459.93866 0.014787484 -1.0300368e-16)
(459.95429 -0.015276837 2.3274426e-16)
(459.9475 0.014086049 3.0404502e-16)
(459.9498 -0.0085105268 3.0848658e-16)
(459.95312 0.0089357989 -2.9014818e-16)
(459.96074 -0.0096386164 3.1594006e-16)
(459.96491 0.0029829989 3.5713258e-16)
(459.96857 -0.002215471 1.6046274e-17)
(459.96965 -0.0059682426 2.5275884e-16)
(459.96758 -0.0040307932 3.7013729e-19)
(459.96014 -0.0024205522 -3.0232553e-16)
(459.97539 0.0038185774 -2.5140944e-16)
(459.95803 -0.0012652465 1.9221535e-16)
(459.97509 0.0075467383 2.6105888e-17)
(459.97182 0.0045253839 2.448575e-16)
(459.96543 -0.0034934707 2.5584194e-17)
(459.94985 -0.00099139426 5.3488249e-17)
(459.94781 0.0044784362 2.1034623e-16)
(459.9354 -0.0026712807 5.4606912e-17)
(459.93364 0.0032671876 2.8559854e-16)
(459.93718 0.0036369546 -2.6473446e-16)
(459.94488 -0.0024786272 -6.0947799e-17)
(459.92788 -0.0064163471 2.0265561e-17)
(459.94072 0.0047048233 -1.5206389e-16)
(459.92711 -0.003844988 3.414203e-18)
(459.94752 0.0035203481 -4.3659452e-17)
(459.92621 0.0047507689 1.9061412e-16)
(459.94289 0.0039523466 -8.612043e-17)
(459.92341 -0.0039073801 4.3404027e-17)
(459.91783 -0.0017244451 -2.0776702e-17)
(459.41637 -0.00041040192 3.326233e-17)
(460.59085 0.030171333 -2.8440396e-16)
(459.40782 0.0027221739 9.4671475e-17)
(460.53921 -0.018337339 -2.6924472e-17)
(459.4368 0.010016247 -2.1940902e-16)
(460.47101 -0.032865747 4.1072764e-16)
(459.49524 0.03774532 -1.4261088e-16)
(460.41374 -0.039130999 -2.0136036e-16)
(459.57006 0.050603789 4.1100286e-18)
(460.35968 -0.049323134 3.9613322e-16)
(459.63492 0.049835757 -4.2623381e-16)
(460.30343 -0.051594023 4.037644e-16)
(459.67976 0.042997919 4.5214828e-17)
(460.25167 -0.036888464 -3.2454145e-16)
(459.71234 0.030633585 -1.4771845e-17)
(460.20854 -0.017325982 3.2440146e-17)
(459.73933 0.010814247 -5.8281931e-18)
(460.16034 0.0015012442 -3.7697219e-17)
(459.76468 -0.01321224 1.0441482e-16)
(460.10979 0.021806328 -1.7852626e-17)
(459.79368 -0.029667702 2.612534e-16)
(460.07893 0.038162564 9.7679386e-17)
(459.80894 -0.044694148 7.7158494e-18)
(460.06085 0.049740332 8.9826963e-17)
(459.82591 -0.050738478 -4.5285363e-17)
(460.03004 0.05125605 -3.6734811e-17)
(459.84839 -0.048157185 3.5332953e-16)
(460.01234 0.043564708 2.7495609e-17)
(459.85878 -0.034560213 -2.5753294e-16)
(459.98576 0.031996374 8.5884258e-17)
(459.86876 -0.023712039 -8.1417993e-18)
(459.97789 0.017788759 -2.7550181e-16)
(459.87857 -0.0083326848 1.0041295e-16)
(459.97349 0.009301176 7.7004167e-17)
(459.88658 -0.0082341379 2.3004634e-16)
(459.96522 -0.0002539981 5.3342443e-17)
(459.89076 -0.0061349915 2.6697209e-17)
(459.96406 -0.0046341418 2.1996343e-17)
(459.90943 0.011876851 3.3578159e-16)
(459.96465 -0.0024564759 -1.9470081e-16)
(459.92027 0.0055084977 -2.4269025e-16)
(459.95864 -0.00023149351 -3.1206625e-18)
(459.92192 -0.0050485537 3.8585464e-17)
(459.95335 0.0042873665 2.5365291e-16)
(459.92811 -0.014173147 1.8802854e-17)
(459.94933 0.0085936254 2.750786e-16)
(459.93414 -0.0091026861 6.4631522e-17)
(459.95481 0.010401688 2.4007522e-17)
(459.92847 -0.0090432793 9.3993337e-18)
(459.95538 0.0096849356 2.3665205e-17)
(459.93963 -0.011380315 2.7214472e-16)
(459.96528 0.0066884701 6.7358643e-17)
(459.95001 -0.006822614 -1.7802733e-16)
(459.96709 -0.0022476429 4.5393017e-17)
(459.95295 -0.006653199 2.0864703e-16)
(459.9561 6.0552335e-05 -1.5851696e-16)
(459.9595 3.0258607e-05 1.98263e-17)
(459.95049 -0.00019492047 2.6461198e-16)
(459.95727 0.0084880302 2.8419714e-17)
(459.95756 0.0088762388 -1.9417896e-16)
(459.94293 -0.0050009827 -5.6684133e-17)
(459.93487 -0.0010906593 5.8849268e-17)
(459.92343 0.0038072144 2.128269e-16)
(459.91532 0.00019547143 7.7675504e-17)
(459.90723 0.0099575841 -3.3195082e-16)
(459.91251 0.0010848968 1.9572803e-16)
(459.91429 -0.0057502065 -1.7188947e-16)
(459.90199 -0.0043775474 4.0565413e-17)
(459.90825 0.00014990207 2.4507426e-16)
(459.89824 -0.0024771304 3.2273289e-17)
(459.91446 0.0085824452 1.7298298e-17)
(459.89664 0.0037353905 3.8144215e-17)
(459.90886 0.004183767 3.0598103e-17)
(459.89425 -0.0090785165 -1.0205855e-16)
(459.88765 -0.0026784836 4.5959595e-17)
(459.4483 -0.0062073529 7.2599087e-18)
(460.71249 0.039913588 -2.4942118e-16)
(459.29262 -0.001535684 2.1921526e-17)
(460.77023 -0.015004806 2.1528983e-16)
(459.21867 0.0068785357 2.9324794e-17)
(460.76271 -0.029857035 -4.249317e-17)
(459.21059 0.035196354 2.7280664e-17)
(460.7298 -0.037615218 4.6684281e-18)
(459.24505 0.049769189 -2.0134168e-16)
(460.68046 -0.051506726 2.3778514e-16)
(459.28778 0.050837693 1.2652712e-17)
(460.6193 -0.05204311 3.7724392e-17)
(459.32038 0.041492894 3.984636e-16)
(460.55725 -0.033641595 -3.2873832e-16)
(459.34939 0.028578687 5.2832967e-17)
(460.4938 -0.015678603 -2.0241092e-17)
(459.39101 0.013374402 4.8494812e-17)
(460.41485 -0.0042516937 -1.0566716e-17)
(459.44663 -0.0020020467 -1.7461708e-16)
(460.33342 0.0082302759 4.5838913e-17)
(459.50763 -0.016323847 2.6591069e-17)
(460.2778 0.024953127 7.79579e-17)
(459.55066 -0.029977009 1.48879e-17)
(460.24092 0.032207778 7.7028149e-17)
(459.59412 -0.032430344 -2.4538683e-16)
(460.19306 0.033920171 2.645172e-16)
(459.64511 -0.032098843 2.653035e-17)
(460.16034 0.032937413 -1.8164195e-16)
(459.68338 -0.031711305 -1.709597e-16)
(460.12355 0.032030089 -2.2747379e-16)
(459.71724 -0.030857328 2.9320684e-16)
(460.10882 0.029962974 7.6579149e-17)
(459.74983 -0.021879396 9.9752818e-17)
(460.09396 0.025878527 2.8187646e-17)
(459.77804 -0.026661966 3.1717905e-17)
(460.07267 0.015752544 -1.3963965e-16)
(459.79925 -0.025695566 2.4194861e-16)
(460.05717 0.012297284 2.4613911e-16)
(459.83091 0.00020397943 7.7537352e-17)
(460.04065 0.0069936122 3.7627332e-17)
(459.85281 -0.0033025104 -1.9208216e-17)
(460.02406 0.0060952206 -1.3238363e-16)
(459.86445 -0.0084067197 2.7202147e-16)
(460.01207 0.0052615658 1.9569167e-16)
(459.87781 -0.013462557 3.8289753e-17)
(460.00208 0.0027222391 2.3335238e-16)
(459.88777 -0.0046084708 -2.8258387e-17)
(459.99557 0.0075867719 2.3142394e-16)
(459.88162 -0.0073102667 2.3056527e-16)
(459.98411 0.007902918 -1.9466086e-16)
(459.89089 -0.013088307 6.4975775e-17)
(459.98263 0.010285035 2.3330725e-17)
(459.90066 -0.012979157 5.1833646e-17)
(459.97374 0.004094338 1.9909073e-16)
(459.90392 -0.0071665313 -1.8231472e-16)
(459.95407 0.0027516935 -1.3059193e-16)
(459.90653 -0.0096642885 4.6837833e-17)
(459.9393 0.0050119311 2.025829e-17)
(459.89906 0.0044129985 9.4356123e-17)
(459.93168 0.012014892 -1.3087245e-16)
(459.87332 -0.0039668606 4.186927e-17)
(459.89625 0.0021303179 3.0238159e-17)
(459.84525 -0.00076618029 -1.6994493e-16)
(459.86139 0.0031223889 2.4813099e-17)
(459.81712 0.015611546 8.6643924e-17)
(459.83857 0.0014238133 1.7890244e-16)
(459.81027 -0.0010821401 -1.6978769e-16)
(459.81467 -0.0019656812 1.4757486e-16)
(459.78945 -0.006141088 -1.1695296e-16)
(459.79419 -0.0010144136 -1.1631124e-16)
(459.77882 0.010307035 3.3849673e-20)
(459.77028 0.0029236902 1.6739281e-18)
(459.75168 0.0070405326 -1.1522195e-16)
(459.74579 -0.01108251 2.7628467e-17)
(459.71241 -0.0029041215 1.6735353e-16)
(460.05615 -0.01282064 2.5430512e-17)
(460.18655 0.049494711 -2.0559212e-16)
(459.74286 -0.0082956453 2.4396491e-16)
(460.37837 -0.0080758093 4.5242459e-17)
(459.48739 -0.00025545827 -1.5129722e-16)
(460.51585 -0.021255943 5.2034063e-17)
(459.30277 0.028483092 6.0185468e-17)
(460.60861 -0.029990527 3.2728082e-17)
(459.18486 0.0431178 2.1306668e-16)
(460.66788 -0.04409285 7.4066524e-17)
(459.10635 0.043430312 2.6686908e-16)
(460.70711 -0.04418033 1.5670337e-17)
(459.04563 0.03591075 8.6219567e-17)
(460.73742 -0.028786409 -8.5290715e-17)
(459.01136 0.027924606 8.4947537e-17)
(460.74339 -0.016098135 1.2955161e-17)
(459.0298 0.016975601 5.5125089e-17)
(460.70088 -0.0086332853 3.1778289e-17)
(459.09315 0.0055533117 -1.9848931e-16)
(460.63596 -0.00034551742 4.1722794e-17)
(459.17027 -0.0068579129 9.0238168e-17)
(460.59332 0.01281994 2.8772555e-16)
(459.2272 -0.014996783 1.1608701e-16)
(460.56787 0.014760215 -2.1823731e-16)
(459.28522 -0.018122343 -2.3096773e-16)
(460.52689 0.020829603 2.7028006e-17)
(459.35367 -0.020490319 5.6734474e-17)
(460.49486 0.024790512 2.925535e-16)
(459.4101 -0.02779499 1.9640298e-16)
(460.45512 0.025333447 -1.9104756e-16)
(459.46106 -0.030942627 6.6244964e-17)
(460.4301 0.032357349 9.6998081e-18)
(459.51232 -0.025290249 6.4631134e-17)
(460.39405 0.032430718 -1.8569042e-16)
(459.5605 -0.033010765 4.7474965e-18)
(460.34682 0.02092801 -1.9886247e-16)
(459.60099 -0.036783567 -3.9462252e-17)
(460.30418 0.025780522 -1.1705254e-16)
(459.64592 -0.011618555 7.5507537e-17)
(460.25445 0.018184983 3.8935644e-16)
(459.67923 -0.015049693 1.6730275e-17)
(460.20606 0.0161887 8.9820707e-18)
(459.69983 -0.015252233 2.5457806e-17)
(460.16173 0.011757184 2.1612508e-16)
(459.71635 -0.017991247 -1.6506319e-16)
(460.11938 0.0066889989 2.2758262e-17)
(459.72527 -0.0077372358 -1.357643e-16)
(460.07572 0.00797096 4.6711578e-17)
(459.70987 -0.0058554811 -1.674615e-18)
(460.02318 0.0064695575 3.5718354e-17)
(459.70377 -0.012854653 2.1062296e-17)
(459.97678 0.011568762 -1.2985048e-16)
(459.69354 -0.019571251 3.1184699e-17)
(459.9208 0.011363263 1.9696752e-17)
(459.67074 -0.0073070217 7.3786769e-18)
(459.84972 0.010325371 3.970884e-17)
(459.63727 -0.020977341 -1.7140491e-16)
(459.78564 0.010030239 -8.5437765e-17)
(459.58723 -0.0019073871 1.7819715e-16)
(459.71694 0.013505429 -8.9281221e-18)
(459.51239 -0.0082857522 1.8945017e-16)
(459.61612 0.010748186 -1.35801e-16)
(459.42999 -0.0066283768 2.3749553e-17)
(459.51147 0.015412355 2.9972631e-17)
(459.34112 0.010549521 -1.5683898e-16)
(459.40871 0.0031144257 -1.3719789e-16)
(459.26642 0.009331523 -1.2544482e-17)
(459.30529 0.0012472892 -6.2269634e-17)
(459.16984 -0.010976644 -8.0984221e-17)
(459.20276 0.010718409 -1.0081156e-16)
(459.07646 0.0049599848 -1.9100973e-18)
(459.08574 0.0059988122 1.1738607e-16)
(458.95767 0.0088723435 -2.3421787e-18)
(458.96518 -0.0086091523 -1.5927835e-17)
(458.82657 -0.00023103132 1.2383315e-16)
(460.49334 -0.012990179 -5.2199876e-18)
(459.47856 0.055666057 1.5331428e-16)
(460.34184 -0.013323074 -4.2344052e-17)
(459.5603 0.00027034569 1.2433949e-16)
(460.13184 -0.0067503364 1.2928181e-16)
(459.71844 -0.0092623889 -8.3798018e-17)
(459.90216 0.0194204 1.0764191e-16)
(459.90376 -0.014571307 1.6905519e-17)
(459.69416 0.028123033 1.0422739e-16)
(460.0991 -0.027306964 1.6264294e-16)
(459.50986 0.028984241 -1.1854241e-16)
(460.30102 -0.030244085 4.3626805e-17)
(459.34175 0.023925733 1.9953636e-16)
(460.49724 -0.018805356 1.7754056e-16)
(459.20862 0.020347776 2.8986622e-17)
(460.6493 -0.012788455 2.4182555e-17)
(459.14941 0.015469473 2.6967571e-17)
(460.71745 -0.012173682 -8.886042e-17)
(459.15257 0.013390393 2.8303542e-16)
(460.73731 -0.012793228 -1.6811412e-17)
(459.17294 0.0051057319 1.817847e-17)
(460.76741 0.00036513742 -4.6367633e-17)
(459.17211 -0.0043040626 6.6576831e-17)
(460.80352 0.0050216539 -5.6303996e-18)
(459.1688 -0.014330212 2.0558519e-16)
(460.81919 0.014832575 -3.5221607e-18)
(459.17038 -0.012110241 -2.1798674e-16)
(460.834 0.016973826 2.1188724e-16)
(459.16443 -0.019286616 3.2310228e-17)
(460.8263 0.011789774 -1.8381912e-16)
(459.16557 -0.021091667 2.341136e-17)
(460.81213 0.023701193 -3.4303383e-17)
(459.17786 -0.016719242 2.2568037e-16)
(460.76593 0.026364706 8.2831071e-18)
(459.1935 -0.021993799 -1.109642e-16)
(460.69705 0.010435874 -1.7189595e-16)
(459.20531 -0.031391145 -3.6630411e-17)
(460.62618 0.028673168 1.2596862e-16)
(459.21363 -0.015056058 3.0553618e-17)
(460.5331 0.022850145 8.0053228e-18)
(459.21195 -0.020181834 5.1572982e-17)
(460.42066 0.023852016 5.9414981e-18)
(459.20209 -0.01953206 1.935562e-17)
(460.28889 0.023942695 -1.3373724e-17)
(459.17931 -0.025063182 6.0720067e-17)
(460.15038 0.01628658 1.3136352e-17)
(459.13465 -0.015634478 3.084375e-17)
(459.99601 0.017531494 -2.0992233e-17)
(459.05145 -0.010084708 -1.3137477e-16)
(459.81409 0.0091913912 -1.0191574e-17)
(458.96065 -0.0096012374 6.017406e-18)
(459.62225 0.012661722 1.6783583e-16)
(458.85245 -0.019826444 -1.4283461e-16)
(459.41438 0.020406774 -2.1297892e-17)
(458.71332 -0.0020955251 2.1255971e-18)
(459.17548 0.018683558 3.5027047e-17)
(458.53542 -0.018439064 -1.0588345e-16)
(458.93927 0.01686954 -1.6062267e-16)
(458.32846 -0.0099430008 -1.3040412e-16)
(458.67853 0.020854727 1.9772839e-17)
(458.08685 -0.012688277 3.0121609e-19)
(458.37303 0.02055511 -1.3400968e-17)
(457.82556 -0.013075688 -1.6837941e-16)
(458.05229 0.044226753 -1.4429043e-16)
(457.54418 0.00089847927 -3.2806596e-18)
(457.72133 0.015312379 4.9631907e-18)
(457.27259 0.021292357 -2.3565281e-17)
(457.38213 0.0063747785 -1.0791391e-16)
(456.96291 -0.0080996297 -9.9240474e-17)
(457.04907 0.038354342 -2.8622289e-17)
(456.64348 0.0036662741 -3.577064e-17)
(456.69075 0.022626414 -1.209083e-16)
(456.29586 0.017409993 5.2398303e-18)
(456.32564 0.0084536226 -1.6701847e-17)
(455.9296 0.011012742 -2.2508153e-17)
(459.78048 -0.0056933147 -6.7237022e-17)
(459.81794 0.053253753 -1.0682248e-16)
(460.04593 -0.013226053 -2.277885e-16)
(459.57081 0.0029912819 -2.2267514e-16)
(460.20912 -0.0097374084 6.983181e-17)
(459.49174 -0.00049433772 -9.103454e-17)
(460.2517 0.0089946124 -5.0269926e-17)
(459.53324 0.0011062541 9.4827342e-17)
(460.21769 0.0096009173 8.9361116e-17)
(459.66262 -0.010260856 -1.7859792e-16)
(460.13228 0.01050867 -6.8712471e-18)
(459.84851 -0.013490047 -5.1862216e-17)
(460.00866 0.0056749492 1.7105692e-16)
(460.04411 -0.0037316556 1.251263e-16)
(459.88117 0.0056980026 2.5448041e-17)
(460.206 -0.005217961 4.5496667e-19)
(459.79477 0.01028178 4.7364663e-17)
(460.29792 -0.015549654 -3.1122626e-17)
(459.74098 0.022766319 3.853605e-17)
(460.35004 -0.024878094 -6.1814665e-18)
(459.68654 0.012374992 2.1778504e-17)
(460.41489 -0.0032103884 -9.0373655e-18)
(459.60394 -0.00051681606 5.6193636e-17)
(460.48308 0.0022874981 -2.6344551e-17)
(459.50734 -0.01419365 -1.6702083e-16)
(460.54428 0.013411202 5.2217376e-17)
(459.39005 -0.008338639 5.9677636e-17)
(460.61766 0.017265642 2.2873468e-16)
(459.24841 -0.016078414 2.7983492e-17)
(460.66866 0.0057931026 4.5074065e-18)
(459.11402 -0.01476149 4.9175357e-17)
(460.69795 0.01996344 -8.6413942e-18)
(458.97712 -0.01032215 -1.3167091e-16)
(460.68345 0.021709818 2.1473659e-16)
(458.8209 -0.0036270781 4.2749035e-17)
(460.63148 -0.0053898859 1.7360528e-18)
(458.64761 -0.014106409 1.6930997e-17)
(460.55134 0.023733172 2.9216321e-17)
(458.44858 -0.0065471618 1.8852757e-16)
(460.41081 0.020755737 -1.6722772e-17)
(458.22658 -0.014871673 1.7838921e-17)
(460.1939 0.028838633 2.0006477e-16)
(458.00694 -0.015221551 1.1963352e-17)
(459.88043 0.037334203 1.8593494e-17)
(457.77227 -0.020354066 -2.7221958e-18)
(459.51368 0.031362069 4.4152289e-18)
(457.49612 -0.030953576 1.5547561e-16)
(459.08435 0.046104777 1.2806769e-16)
(457.15144 -0.019711467 -9.6286852e-18)
(458.58265 0.025116006 -3.8605036e-16)
(456.77922 -0.0036365051 -1.6365042e-16)
(458.03882 0.014572979 2.5809093e-17)
(456.37603 -0.0050431189 1.5546305e-16)
(457.46886 0.033189561 -3.5627341e-17)
(455.92109 0.016473767 2.3720799e-17)
(456.8343 0.031354534 8.3037897e-17)
(455.38525 -0.00069153081 -1.5735855e-16)
(456.19023 0.033764573 -1.5812705e-16)
(454.78255 -0.012925097 1.5406587e-16)
(455.49304 0.031416181 1.0735785e-16)
(454.12581 -0.0099418884 -2.2331486e-16)
(454.76797 0.027334232 -2.4822016e-16)
(453.48237 -0.018875169 -1.5686223e-16)
(454.04628 0.071562604 6.1659063e-17)
(452.82068 -0.012664499 -3.3737504e-17)
(453.30844 0.046435332 -6.3962841e-17)
(452.19136 0.02189906 -4.2911244e-17)
(452.54277 0.014093262 -5.7082292e-17)
(451.50094 -0.0023995696 -4.060568e-17)
(451.78467 0.056448352 7.4352975e-17)