/*--------------------------------*- C++ -*----------------------------------*\
| =========                 |                                                 |
| \\      /  F ield         | OpenFOAM: The Open Source CFD Toolbox           |
|  \\    /   O peration     | Version:  2.3.0                                 |
|   \\  /    A nd           | Web:      www.OpenFOAM.org                      |
|    \\/     M anipulation  |                                                 |
\*---------------------------------------------------------------------------*/
FoamFile
{
    version     2.0;
    format      ascii;
    class       volScalarField;
    location    "1.65";
    object      p;
}
// * * * * * * * * * * * * * * * * * * * * * * * * * * * * * * * * * * * * * //

dimensions      [1 -1 -2 0 0 0 0];

internalField   nonuniform List<scalar> 
2268
(
633.901
625.47
614.773
613.211
613.078
588.423
574.961
603.645
629.199
640.868
657.256
672.204
687.707
704.825
721.636
737.202
751.104
760.814
769.227
781.692
796.317
809.806
817.951
575.804
566.491
554.855
552.487
550.947
525.588
509.317
538.861
567.972
578.761
598.013
613.014
628.419
645.768
662.907
678.507
692.514
701.498
708.906
722.374
737.856
750.651
759.34
515.738
504.613
494.281
496.518
495.071
472.998
448.894
472.525
510.161
524.262
540.156
553.839
568.675
586.467
604.252
619.982
633.716
642.173
651.375
665.585
680.884
693.283
702.111
453.138
439.027
431.756
438.265
443.12
422.863
395.798
412.813
454.481
468.573
481.906
493.952
508.189
526.89
545.712
561.881
575.004
584.235
593.772
608.93
624.435
637.296
646.246
388.442
373.339
368.315
380.197
392.537
374.273
350.175
361.982
397.654
411.837
423.001
433.389
447.17
467.185
487.219
504.12
517.452
526.276
535.041
552.456
568.697
582.452
591.875
323.739
310.249
306.309
323.039
341.62
326.76
299.755
311.995
340.754
354.111
363.785
372.557
385.886
407.523
427.917
445.18
459.695
467.152
472.423
495.053
514.623
528.713
539.298
260.895
249.74
245.894
266.442
286.83
273.854
244.594
259.138
284.492
296.601
304.858
311.627
325.304
346.671
365.672
383.483
399.978
405.975
405.719
434.399
459.765
475.751
485.166
198.608
192.167
188.958
214.319
230.516
218.394
192.721
205.522
229.407
239.791
246.233
250.739
264.738
283.633
297.317
315.248
336.418
341.915
341.802
367.622
399.186
420.613
434.468
689.188
662.14
644.837
668.88
737.946
804.213
834.892
836.708
827.989
820.064
821.328
821.433
812.977
805.765
794.545
766.476
718.429
691.497
699.682
631.945
599.868
576.516
598.846
670.945
740.563
773.737
777.574
770.346
766.837
766.596
761.864
755.003
753.653
745.269
714.408
660.081
630.35
641.314
572.167
533.598
504.734
527.847
602.396
678.134
714.589
720.588
716.954
715.414
711.581
699.215
689.235
693.747
688.666
653.102
597.92
567.883
584.727
511.572
468.026
431.894
453.206
529.937
612.21
655.482
666.073
665.316
662.064
654.566
636.14
620.28
626.927
625.939
587.857
536.827
515.703
533.232
454.073
407.266
363.319
381.414
457.827
541.669
591.281
608.23
610.451
606.707
597.512
575.5
553.393
559.601
566.148
527.459
476.559
462.121
481.292
400.366
354.593
306.705
317.846
389.662
466.918
519.045
545.577
553.452
550.925
541.957
516.108
488.587
494.378
511.67
460.807
407.207
397.383
416.734
352.004
312.227
259.392
262.302
323.949
390.014
441.043
477.517
495.322
498.52
490.9
459.636
426.484
431.855
449.595
380.974
329.722
324.726
344.981
299.7
263.006
215.463
213.515
258.061
307.11
357.488
405.892
435.707
448.709
444.907
411.874
373.423
375.184
361.162
283.243
249.959
250.444
272.599
97.9822
97.7157
105.588
131.893
148.634
133.951
118.972
127.672
144.733
149.282
151.142
153.114
167.981
184.657
185.645
198.791
232.621
237.128
246.416
259.275
297.986
319.386
320.079
12.7144
15.4469
24.1502
43.5925
56.4011
36.7216
30.3223
28.3234
35.6972
36.964
39.1272
39.0588
56.8252
84.1442
85.5582
94.7695
123.956
120.904
106.877
130.088
167.191
188.963
198.751
3.01749
1.4148
2.4069
8.83213
16.6617
11.4981
4.76647
3.09132
1.97481
2.31167
3.1368
3.93749
6.38637
21.8133
32.9561
55.5466
69.0888
63.3216
45.0546
46.1129
57.2547
69.5271
77.3638
1.41668
0.867316
0.975031
1.12467
1.548
1.64896
1.71065
1.84691
1.87261
2.0474
2.38918
2.60133
1.93807
2.0369
3.02626
24.0813
32.1164
29.8778
15.6213
5.3913
6.02436
9.36609
14.0563
0.620415
0.150811
0.341348
0.6051
1.03002
1.18117
1.12317
1.12724
1.17052
1.22058
1.37992
1.46702
0.81611
-0.447417
1.01944
2.18365
2.22335
2.47258
2.63949
2.70455
2.74631
2.83497
2.96802
0.463063
-0.199801
0.00306431
0.269147
0.564812
0.636767
0.533309
0.460817
0.467702
0.479954
0.446705
0.411776
0.421511
0.806247
1.62068
1.7731
1.59395
2.00438
2.32074
2.45679
2.50618
2.43407
2.44658
0.682691
0.1931
0.108777
0.231313
0.313861
0.226365
0.0580887
-0.0491892
-0.0815956
-0.0971305
-0.134761
-0.157863
0.0545151
0.584315
1.09626
1.30204
1.34787
1.59941
1.97757
2.10533
2.15865
2.11251
2.08256
0.919809
0.713177
0.447247
0.293724
0.160554
-0.0255069
-0.231369
-0.371658
-0.431132
-0.459625
-0.487323
-0.450163
-0.192737
0.303199
0.824453
1.15527
1.35866
1.53036
1.77207
1.86411
1.88616
1.89044
1.82141
0.908001
0.790169
0.497745
0.275334
0.0866908
-0.1411
-0.39539
-0.576039
-0.653937
-0.675189
-0.665668
-0.575344
-0.254521
0.251673
0.787219
1.17455
1.36253
1.53266
1.64102
1.70759
1.71915
1.6954
1.45625
0.704072
0.593571
0.391359
0.227747
0.0675145
-0.163433
-0.429709
-0.62663
-0.719307
-0.738765
-0.68491
-0.527008
-0.191243
0.272692
0.725343
1.13567
1.35497
1.50652
1.59352
1.52349
1.40274
1.20016
0.683269
0.484603
0.384106
0.23456
0.134524
0.0197835
-0.152386
-0.362902
-0.543567
-0.638715
-0.642566
-0.544633
-0.360401
-0.0742508
0.286723
0.621251
0.965912
1.26914
1.47758
1.52921
1.0598
0.548404
0.298331
0.133499
0.25621
0.13363
0.0595004
0.000157034
-0.0695123
-0.175176
-0.319229
-0.467551
-0.514548
-0.427492
-0.307754
-0.160078
0.0158974
0.210246
0.428826
0.731472
1.11341
1.39644
1.2896
0.572712
-0.229695
-0.74823
-0.567343
0.023967
-0.0670359
-0.107252
-0.159085
-0.20637
-0.281403
-0.397606
-0.525377
-0.523261
-0.41403
-0.298015
-0.177451
-0.0558478
0.0144435
0.124277
0.330377
0.701471
0.958104
0.62602
-0.0894692
-0.855437
-1.39902
-1.69462
-0.184
-0.239833
-0.282646
-0.333993
-0.380559
-0.445607
-0.554663
-0.655775
-0.664259
-0.59628
-0.54635
-0.495691
-0.420138
-0.340972
-0.239541
-0.115915
-0.00984655
-0.0770696
-0.2372
-0.767227
-1.4503
-1.86562
-2.02604
-0.367203
-0.42994
-0.466573
-0.515858
-0.563662
-0.627835
-0.717021
-0.797807
-0.811019
-0.770447
-0.743817
-0.727206
-0.702313
-0.655731
-0.601119
-0.579699
-0.740257
-0.903441
-1.02489
-1.2919
-1.70874
-1.92585
-2.04571
-0.565337
-0.631706
-0.654253
-0.697904
-0.741059
-0.794291
-0.857288
-0.918898
-0.943624
-0.934782
-0.933662
-0.937386
-0.938181
-0.935983
-0.945366
-0.997894
-1.28228
-1.64131
-1.75577
-1.62855
-1.7842
-2.0689
-2.2323
-0.785927
-0.838339
-0.840756
-0.8756
-0.91224
-0.956385
-1.00541
-1.06204
-1.09781
-1.1179
-1.13794
-1.16199
-1.18773
-1.21732
-1.26785
-1.37136
-1.64943
-2.25553
-2.43516
-2.18514
-2.10045
-2.33103
-2.75957
-1.0069
-1.02307
-1.02101
-1.04623
-1.07755
-1.1168
-1.16481
-1.22268
-1.27637
-1.3215
-1.36123
-1.40254
-1.44884
-1.50487
-1.57468
-1.71348
-1.9812
-2.51834
-2.86781
-2.81342
-2.70342
-2.87219
-3.38521
-1.19165
-1.18935
-1.1903
-1.20809
-1.23616
-1.27616
-1.33832
-1.4168
-1.4912
-1.55518
-1.6065
-1.65264
-1.70718
-1.77637
-1.86664
-2.00744
-2.2387
-2.68983
-3.18753
-3.33495
-3.36043
-3.50463
-3.92246
-1.35267
-1.34581
-1.35108
-1.3631
-1.39235
-1.45323
-1.54725
-1.65237
-1.75398
-1.82528
-1.87605
-1.90907
-1.95749
-2.03019
-2.12709
-2.26086
-2.44972
-2.80205
-3.27588
-3.66515
-3.85077
-3.88394
-3.93632
-1.51374
-1.51659
-1.51329
-1.52177
-1.56767
-1.6601
-1.77569
-1.89624
-2.01784
-2.10468
-2.13997
-2.15641
-2.19215
-2.26126
-2.3578
-2.48285
-2.63903
-2.89224
-3.25574
-3.64928
-3.87034
-3.90502
-3.93792
-1.67707
-1.70799
-1.68773
-1.70456
-1.77453
-1.88551
-2.00287
-2.11928
-2.24351
-2.33968
-2.36202
-2.36839
-2.39932
-2.46705
-2.56095
-2.67687
-2.81527
-2.98639
-3.20688
-3.48544
-3.70886
-3.83675
-3.92255
-1.8392
-1.88891
-1.87457
-1.91422
-2.0028
-2.11601
-2.21802
-2.3248
-2.43707
-2.51913
-2.53618
-2.54139
-2.57862
-2.64954
-2.74049
-2.85016
-2.97483
-3.09971
-3.23472
-3.39147
-3.55808
-3.71092
-3.84517
-2.02285
-2.06106
-2.07684
-2.13915
-2.23839
-2.33588
-2.43124
-2.5349
-2.63022
-2.68897
-2.69907
-2.70484
-2.74566
-2.81682
-2.90505
-3.01366
-3.12739
-3.23186
-3.32848
-3.4259
-3.5346
-3.65477
-3.77639
-2.21604
-2.25089
-2.29417
-2.36712
-2.47059
-2.57755
-2.68588
-2.78605
-2.86028
-2.894
-2.89394
-2.8926
-2.91505
-2.96754
-3.06934
-3.17981
-3.28669
-3.37672
-3.45171
-3.52325
-3.60178
-3.69247
-3.79261
-2.41665
-2.46234
-2.52261
-2.60736
-2.73039
-2.86611
-2.99286
-3.09297
-3.14885
-3.15693
-3.13597
-3.11516
-3.11867
-3.16477
-3.25543
-3.36795
-3.46285
-3.53175
-3.58421
-3.63566
-3.6963
-3.77178
-3.86369
-2.64655
-2.68969
-2.76099
-2.864
-3.01747
-3.19101
-3.34205
-3.44688
-3.48794
-3.47074
-3.42506
-3.38383
-3.37222
-3.40968
-3.49528
-3.59589
-3.66572
-3.69977
-3.72038
-3.74975
-3.79545
-3.85992
-3.94468
-2.90531
-2.93814
-2.98667
-3.12958
-3.31595
-3.52558
-3.70335
-3.81395
-3.84491
-3.80814
-3.74111
-3.68356
-3.66003
-3.68869
-3.76729
-3.85309
-3.88901
-3.87651
-3.86093
-3.86952
-3.9032
-3.96118
-4.04531
-3.2036
-3.24811
-3.21864
-3.39345
-3.58681
-3.8269
-4.03386
-4.1565
-4.18701
-4.1381
-4.05324
-3.97986
-3.94527
-3.96422
-4.03301
-4.09977
-4.10136
-4.04487
-4.00348
-3.9981
-4.02322
-4.07616
-4.15993
-3.49511
-3.58753
-3.49183
-3.61477
-3.80966
-4.07159
-4.31304
-4.45418
-4.4926
-4.43787
-4.33793
-4.24681
-4.19605
-4.19851
-4.24742
-4.29164
-4.26657
-4.19583
-4.14443
-4.13453
-4.15464
-4.20304
-4.28403
-3.73044
-3.83139
-3.75174
-3.78999
-3.98652
-4.26137
-4.54458
-4.69935
-4.74679
-4.69284
-4.58145
-4.47247
-4.40116
-4.38004
-4.40123
-4.41999
-4.38462
-4.31997
-4.27944
-4.27403
-4.29452
-4.33789
-4.4112
-3.91068
-3.97611
-3.98019
-3.92221
-4.1141
-4.4291
-4.71823
-4.87999
-4.93617
-4.89242
-4.77713
-4.65385
-4.5636
-4.51928
-4.51249
-4.50915
-4.47712
-4.43218
-4.41042
-4.41419
-4.43643
-4.47556
-4.5374
-4.06393
-4.12315
-4.16934
-4.05782
-4.22646
-4.57062
-4.84218
-4.99259
-5.05654
-5.03079
-4.92544
-4.79705
-4.69454
-4.63346
-4.60593
-4.58922
-4.56617
-4.54426
-4.53981
-4.55187
-4.5759
-4.6116
-4.66146
-4.22484
-4.26535
-4.32637
-4.27522
-4.41448
-4.73075
-4.93483
-5.04847
-5.11432
-5.11676
-5.03588
-4.91413
-4.80829
-4.73881
-4.70012
-4.67851
-4.66395
-4.65945
-4.66762
-4.68521
-4.71039
-4.74385
-4.78697
-4.42612
-4.44283
-4.5288
-4.64925
-4.81082
-4.97943
-5.05222
-5.09907
-5.16454
-5.18853
-5.12874
-5.01819
-4.91673
-4.8467
-4.80516
-4.78332
-4.77515
-4.7803
-4.79505
-4.81482
-4.83922
-4.86917
-4.90528
-4.70936
-4.74891
-4.92805
-5.21579
-5.39085
-5.33664
-5.23039
-5.19347
-5.25036
-5.27282
-5.21897
-5.11855
-5.02654
-4.96207
-4.9228
-4.90234
-4.89835
-4.90694
-4.92322
-4.94225
-4.96389
-4.98905
-5.01772
-5.05313
-5.15766
-5.44197
-5.80768
-5.967
-5.72986
-5.45544
-5.34371
-5.36984
-5.3706
-5.30895
-5.22062
-5.14025
-5.08533
-5.05167
-5.03339
-5.03057
-5.03861
-5.0527
-5.06885
-5.08641
-5.10617
-5.128
-5.39631
-5.55698
-5.87832
-6.26509
-6.3943
-6.05655
-5.66522
-5.51254
-5.48209
-5.46284
-5.39732
-5.32084
-5.2574
-5.21409
-5.18789
-5.17292
-5.16922
-5.17438
-5.18424
-5.19598
-5.20867
-5.22276
-5.23812
-5.66826
-5.82915
-6.11939
-6.4934
-6.58342
-6.19353
-5.81684
-5.66923
-5.59988
-5.55306
-5.48039
-5.41829
-5.37445
-5.34443
-5.32636
-5.31552
-5.31133
-5.31302
-5.31824
-5.32482
-5.33224
-5.34065
-5.34993
-5.84031
-5.96608
-6.16105
-6.42582
-6.44859
-6.14743
-5.91652
-5.80733
-5.71356
-5.62446
-5.55471
-5.51064
-5.4891
-5.47434
-5.46492
-5.45835
-5.45434
-5.45319
-5.45404
-5.45561
-5.4578
-5.46075
-5.46433
-5.93837
-6.0012
-6.07203
-6.15761
-6.14503
-6.04923
-5.99609
-5.94432
-5.79938
-5.68229
-5.62051
-5.59952
-5.60513
-5.60787
-5.60691
-5.60335
-5.59865
-5.59441
-5.59098
-5.58795
-5.58527
-5.58312
-5.58144
-5.99577
-6.00438
-5.94991
-5.88917
-5.91047
-6.00524
-6.11659
-6.18835
-5.8803
-5.72627
-5.68668
-5.7052
-5.73812
-5.75513
-5.75904
-5.75519
-5.74731
-5.73827
-5.72974
-5.72196
-5.71453
-5.70748
-5.70087
275.392
267.389
271.842
269.525
193.273
187.869
182.279
174.236
74.8994
72.5171
68.9601
62.6587
15.9563
16.4097
13.5269
9.05947
3.32292
3.73364
4.24533
4.56451
2.73198
3.06543
3.6822
4.12292
2.30125
2.63051
3.00264
3.31217
1.88806
2.03025
2.20211
2.44035
1.24999
1.26246
1.39952
1.60937
0.533727
0.56279
0.685618
0.850769
0.13206
0.21363
0.295784
0.324918
-0.63517
-0.714455
-0.736713
-0.841032
-1.91601
-1.92959
-1.91102
-1.84988
-2.05721
-2.05542
-2.03281
-1.98616
-2.0852
-2.10099
-2.09533
-2.06945
-2.3396
-2.3776
-2.3694
-2.3007
-3.00389
-3.07775
-3.0288
-2.92449
-3.71291
-3.87132
-3.90648
-3.84979
-4.13539
-4.33429
-4.49323
-4.55549
-4.18077
-4.46207
-4.74365
-4.98822
-4.00518
-4.06393
-4.15866
-4.31905
-3.98431
-4.025
-4.08596
-4.15596
-3.9403
-4.00428
-4.07565
-4.14115
-3.86032
-3.9154
-3.97194
-4.02457
-3.87265
-3.9251
-3.97914
-4.03265
-3.93897
-3.99215
-4.04983
-4.10923
-4.02403
-4.08332
-4.15089
-4.22377
-4.13258
-4.20156
-4.28403
-4.3747
-4.25497
-4.33425
-4.43066
-4.53527
-4.38302
-4.4667
-4.56536
-4.6696
-4.50403
-4.58101
-4.67143
-4.76638
-4.61162
-4.67113
-4.74147
-4.82978
-4.70885
-4.74177
-4.77883
-4.82122
-4.82431
-4.84858
-4.87518
-4.91152
-4.93559
-4.9563
-4.97989
-5.00741
-5.04056
-5.0557
-5.07165
-5.08874
-5.1448
-5.15574
-5.16692
-5.17813
-5.24963
-5.25695
-5.26426
-5.27146
-5.35684
-5.36119
-5.36546
-5.3696
-5.46712
-5.46888
-5.47061
-5.47228
-5.58046
-5.57989
-5.57936
-5.57887
-5.69637
-5.69361
-5.69099
-5.68853
249.291
206.28
165.064
146.604
150.163
163.507
214.943
287.583
342.39
375.257
382.223
356.407
309.347
265.642
179.455
97.4317
81.2597
128.438
160.789
153.892
118.864
86.0131
54.2573
35.99
26.1168
53.4084
131.869
214.68
272.599
298.37
284.603
227.178
136.62
49.3586
32.9657
31.8117
43.0299
57.352
50.2359
39.4976
23.9929
8.69603
7.83794
9.85564
13.5478
17.2799
90.5642
158.084
189.64
184.512
134.213
68.2096
35.6609
27.9064
28.5743
31.4354
34.3749
5.68843
5.77088
6.4827
6.95378
6.78362
7.03932
-5.86123
-1.4749
24.5021
59.8982
80.9165
83.4241
66.6158
49.6172
36.0299
24.0217
23.691
27.5273
30.5345
4.899
5.26233
5.88322
6.3107
5.75971
-6.64391
-1.53437
15.8547
18.3756
17.5997
22.8106
28.4008
24.8675
23.1401
17.905
12.8872
14.4419
20.6042
24.0453
4.47451
4.77668
5.1527
4.7954
1.84053
13.3538
8.05713
-0.322137
-1.90717
-2.17029
-1.563
3.26955
10.3662
12.975
8.91399
2.86025
3.36088
11.624
17.7521
3.6537
4.24322
4.75726
5.97275
8.84359
3.23222
0.48909
-0.446954
-1.07254
-1.3337
-0.55697
2.54299
6.65022
9.03001
6.2132
-1.20544
-2.1773
7.04735
13.7223
2.90597
3.19868
2.95865
2.68138
1.84934
1.15303
0.425785
-0.531361
-1.20643
-1.29733
-0.603653
1.13702
3.55111
5.87472
6.59126
4.87178
4.45689
8.62332
11.7559
2.17965
2.05051
1.47761
1.47439
1.43641
1.08046
0.279768
-0.815845
-1.67389
-1.92159
-1.47792
-0.421392
1.12025
3.52273
6.44195
6.77213
5.67088
7.23693
9.00988
1.18444
0.816105
0.760514
0.984804
1.3016
1.1172
0.237473
-0.881927
-1.79822
-2.16112
-1.84684
-0.979789
0.186957
2.1152
4.65273
6.21572
4.54537
4.38791
4.34861
0.222013
0.0824273
0.124618
0.435212
0.902347
1.03682
0.330994
-0.622284
-1.53113
-1.97142
-1.76412
-1.00984
0.125981
1.74275
3.08335
4.42615
2.63335
2.53148
2.50437
-1.01836
-0.962276
-0.894947
-0.548324
0.0257125
0.654964
0.645984
0.0575442
-0.878251
-1.63728
-1.47376
-0.91953
-0.159083
1.25102
2.35337
1.80111
1.07406
0.960494
1.44952
-1.73048
-1.63678
-1.50774
-1.19325
-0.757824
-0.326977
0.162489
0.165352
-0.244235
-0.871501
-1.40744
-1.2686
-0.449941
0.38568
0.778857
-0.221936
0.208958
-0.367385
0.119913
-1.89977
-1.83257
-1.7322
-1.55847
-1.37567
-1.2629
-1.00035
-0.841657
-1.09558
-1.53619
-1.97957
-1.83795
-1.1832
-1.02425
-1.01518
-1.23997
-1.18085
-1.52068
-1.05426
-2.01842
-1.99348
-1.93886
-1.86844
-1.87876
-1.91913
-1.90792
-1.88341
-1.73279
-1.8355
-2.6383
-2.62485
-2.14676
-2.14198
-2.04455
-1.72873
-1.80637
-1.78235
-1.6853
-2.18693
-2.18168
-2.18788
-2.16199
-2.14282
-2.12829
-2.12061
-2.14253
-2.25104
-2.4367
-2.41551
-2.3057
-2.64919
-2.74105
-2.37837
-2.02101
-2.02075
-1.99125
-1.99297
-2.68971
-2.47323
-2.44946
-2.42589
-2.38225
-2.33278
-2.31335
-2.33627
-2.43036
-2.57832
-2.72382
-2.83149
-2.86713
-2.75391
-2.47648
-2.24249
-2.21268
-2.18122
-2.17241
-3.63947
-3.20828
-2.92946
-2.8209
-2.6956
-2.55114
-2.49892
-2.48157
-2.52088
-2.61489
-2.70679
-2.75713
-2.75479
-2.68044
-2.53135
-2.42081
-2.37548
-2.34797
-2.33639
-4.55528
-4.21601
-3.87265
-3.56211
-3.12825
-2.78992
-2.64584
-2.59768
-2.59765
-2.64706
-2.69592
-2.71707
-2.71134
-2.67615
-2.61311
-2.55848
-2.52009
-2.4979
-2.48914
-5.24864
-4.86186
-4.50631
-4.05082
-3.38028
-2.89011
-2.71131
-2.67223
-2.65877
-2.69577
-2.74339
-2.77083
-2.77227
-2.75217
-2.71896
-2.68312
-2.6554
-2.6403
-2.63507
-4.52107
-4.58785
-4.42092
-4.00314
-3.44706
-2.938
-2.74061
-2.70665
-2.70444
-2.73988
-2.79795
-2.84126
-2.86053
-2.85433
-2.83305
-2.80573
-2.78675
-2.77879
-2.77582
-4.25
-4.2641
-4.11656
-3.85337
-3.53245
-3.09225
-2.80944
-2.71674
-2.7401
-2.7882
-2.85708
-2.91369
-2.94652
-2.95349
-2.94283
-2.92604
-2.91648
-2.91513
-2.91342
-4.21345
-4.22725
-4.10392
-3.89904
-3.64936
-3.27996
-2.95542
-2.78815
-2.80081
-2.86209
-2.93283
-2.99306
-3.03279
-3.05095
-3.05312
-3.04959
-3.04855
-3.05054
-3.05016
-4.10457
-4.16964
-4.12162
-3.95312
-3.7177
-3.42249
-3.12076
-2.93373
-2.92992
-2.98577
-3.04663
-3.10141
-3.14104
-3.16538
-3.17699
-3.18153
-3.18417
-3.18631
-3.18714
-4.11741
-4.2029
-4.18183
-4.04003
-3.84537
-3.62155
-3.36298
-3.17381
-3.12845
-3.15623
-3.20008
-3.24489
-3.27731
-3.30076
-3.31414
-3.31965
-3.32177
-3.32376
-3.32475
-4.20925
-4.32492
-4.33592
-4.19486
-4.005
-3.81491
-3.5992
-3.45267
-3.38066
-3.36739
-3.39835
-3.41421
-3.43141
-3.448
-3.45655
-3.45973
-3.46088
-3.46246
-3.46326
-4.354
-4.49558
-4.50396
-4.35322
-4.14776
-3.98143
-3.82843
-3.7385
-3.63275
-3.59016
-3.58946
-3.58678
-3.59082
-3.59687
-3.59991
-3.60059
-3.60105
-3.60209
-3.60259
-4.53222
-4.67758
-4.66421
-4.49973
-4.24894
-4.11773
-4.03004
-3.96051
-3.84943
-3.79888
-3.77372
-3.75471
-3.74776
-3.74545
-3.74361
-3.74239
-3.74202
-3.74237
-3.74249
-4.70277
-4.82724
-4.78522
-4.63316
-4.40269
-4.22057
-4.17604
-4.11081
-4.0281
-3.98157
-3.94306
-3.91418
-3.8998
-3.89216
-3.88738
-3.88468
-3.88336
-3.88297
-3.8827
-4.82665
-4.89995
-4.85016
-4.70122
-4.58223
-4.33204
-4.30743
-4.24701
-4.18138
-4.1368
-4.09476
-4.06399
-4.04698
-4.03695
-4.03058
-4.02675
-4.02456
-4.02354
-4.02296
-4.91912
-4.97507
-4.91029
-4.8286
-4.61737
-4.47877
-4.41186
-4.37058
-4.31391
-4.26972
-4.23238
-4.20601
-4.18991
-4.17956
-4.17263
-4.16811
-4.16531
-4.16383
-4.16303
-5.01524
-5.21036
-5.07604
-4.84379
-4.68165
-4.60724
-4.55243
-4.4937
-4.43377
-4.39281
-4.36443
-4.34427
-4.33032
-4.32049
-4.31348
-4.30862
-4.30543
-4.30362
-4.30271
-4.87648
-4.91053
-4.9375
-4.83814
-4.79363
-4.75151
-4.72026
-4.62403
-4.55672
-4.52034
-4.49829
-4.48195
-4.46955
-4.46021
-4.45325
-4.44823
-4.44482
-4.4428
-4.44183
-4.97913
-4.91842
-4.83359
-4.85015
-4.90309
-4.99631
-4.89988
-4.76098
-4.69268
-4.65667
-4.63535
-4.61985
-4.60798
-4.59887
-4.59198
-4.58692
-4.5834
-4.58127
-4.58029
-5.05058
-5.09789
-5.10793
-5.10383
-5.10506
-5.07237
-4.99404
-4.88816
-4.82696
-4.79462
-4.77248
-4.75691
-4.74524
-4.73635
-4.7296
-4.72462
-4.72112
-4.71896
-4.71798
-5.1194
-5.15752
-5.18379
-5.19116
-5.16752
-5.12783
-5.06716
-4.99845
-4.95474
-4.92594
-4.90656
-4.8919
-4.88086
-4.87244
-4.86603
-4.86129
-4.85793
-4.85583
-4.85489
-5.1965
-5.21917
-5.23384
-5.23494
-5.21977
-5.18983
-5.14984
-5.10729
-5.07662
-5.05392
-5.0372
-5.02452
-5.01467
-5.00706
-5.00124
-4.9969
-4.99382
-4.99188
-4.99102
-5.28304
-5.29619
-5.3031
-5.30113
-5.2902
-5.27052
-5.24485
-5.21816
-5.1964
-5.17914
-5.16565
-5.1551
-5.14681
-5.14031
-5.13528
-5.13153
-5.12884
-5.12715
-5.12639
-5.3761
-5.38303
-5.38617
-5.38427
-5.37649
-5.36358
-5.34713
-5.33003
-5.31503
-5.30253
-5.29234
-5.28411
-5.27759
-5.27239
-5.26832
-5.26528
-5.26309
-5.26171
-5.26108
-5.47488
-5.47737
-5.47803
-5.47618
-5.47109
-5.46313
-5.45317
-5.44272
-5.43311
-5.42478
-5.41777
-5.41197
-5.4073
-5.40353
-5.40056
-5.39833
-5.39671
-5.39569
-5.39521
-5.5781
-5.57705
-5.57586
-5.57431
-5.57121
-5.56699
-5.56182
-5.55632
-5.55111
-5.54646
-5.54244
-5.53905
-5.53627
-5.534
-5.5322
-5.53085
-5.52986
-5.52924
-5.52893
-5.68472
-5.68051
-5.67765
-5.67616
-5.67524
-5.67409
-5.67267
-5.67113
-5.6696
-5.66818
-5.6669
-5.6658
-5.66486
-5.6641
-5.66349
-5.66303
-5.66268
-5.66247
-5.66239
)
;

boundaryField
{
    leftWall
    {
        type            calculated;
        value           nonuniform List<scalar> 
50
(
633.901
575.804
515.738
453.138
388.442
323.739
260.895
198.608
97.9822
12.7144
3.01749
1.41668
0.620415
0.463063
0.682691
0.919809
0.908001
0.704072
0.484603
0.25621
0.023967
-0.184
-0.367203
-0.565337
-0.785927
-1.0069
-1.19165
-1.35267
-1.51374
-1.67707
-1.8392
-2.02285
-2.21604
-2.41665
-2.64655
-2.90531
-3.2036
-3.49511
-3.73044
-3.91068
-4.06393
-4.22484
-4.42612
-4.70936
-5.05313
-5.39631
-5.66826
-5.84031
-5.93837
-5.99577
)
;
    }
    rightWall
    {
        type            calculated;
        value           nonuniform List<scalar> 
50
(
699.682
641.314
584.727
533.232
481.292
416.734
344.981
272.599
160.789
57.352
34.3749
30.5345
24.0453
17.7521
13.7223
11.7559
9.00988
4.34861
2.50437
1.44952
0.119913
-1.05426
-1.6853
-1.99297
-2.17241
-2.33639
-2.48914
-2.63507
-2.77582
-2.91342
-3.05016
-3.18714
-3.32475
-3.46326
-3.60259
-3.74249
-3.8827
-4.02296
-4.16303
-4.30271
-4.44183
-4.58029
-4.71798
-4.85489
-4.99102
-5.12639
-5.26108
-5.39521
-5.52893
-5.66239
)
;
    }
    lowerWall
    {
        type            calculated;
        value           nonuniform List<scalar> 
62
(
663.33
654.899
644.202
642.382
642.189
617.554
604.39
633.074
658.628
670.297
686.686
701.634
717.136
734.255
751.064
766.63
780.532
789.974
798.105
810.57
825.491
839.231
847.376
817.951
759.34
702.111
646.246
591.875
539.298
485.166
434.468
337.778
329.776
334.228
331.911
689.188
631.945
572.167
511.572
454.073
400.366
352.004
299.7
718.466
691.361
673.961
698.004
767.038
833.27
864.009
865.826
856.603
846.169
847.421
847.524
839.068
832.153
821.033
792.966
744.928
718.513
726.692
)
;
    }
    atmosphere
    {
        type            calculated;
        value           nonuniform List<scalar> 
46
(
-6.01858
-6.02589
-5.94784
-5.76056
-5.80092
-5.97467
-6.16
-6.55553
-5.87229
-5.73709
-5.73411
-5.77896
-5.81953
-5.8378
-5.84117
-5.83533
-5.82437
-5.81192
-5.80028
-5.78998
-5.77998
-5.77045
-5.76141
-5.7553
-5.7515
-5.7479
-5.74453
-5.73945
-5.73395
-5.73047
-5.72908
-5.72904
-5.72904
-5.72904
-5.72904
-5.72904
-5.72904
-5.72904
-5.72904
-5.72904
-5.72904
-5.72904
-5.72904
-5.72904
-5.72904
-5.72904
)
;
    }
    defaultFaces
    {
        type            empty;
    }
}


// ************************************************************************* //
