/*--------------------------------*- C++ -*----------------------------------*\
| =========                 |                                                 |
| \\      /  F ield         | OpenFOAM: The Open Source CFD Toolbox           |
|  \\    /   O peration     | Version:  2.3.0                                 |
|   \\  /    A nd           | Web:      www.OpenFOAM.org                      |
|    \\/     M anipulation  |                                                 |
\*---------------------------------------------------------------------------*/
FoamFile
{
    version     2.0;
    format      ascii;
    class       volScalarField;
    location    "1.65";
    object      p_rgh;
}
// * * * * * * * * * * * * * * * * * * * * * * * * * * * * * * * * * * * * * //

dimensions      [1 -1 -2 0 0 0 0];

internalField   nonuniform List<scalar> 
2268
(
663.33
654.899
644.202
642.382
642.189
617.554
604.39
633.074
658.628
670.297
686.686
701.634
717.136
734.255
751.064
766.63
780.532
789.974
798.105
810.57
825.491
839.231
847.376
664.092
653.934
636.647
629.607
623.769
594.34
586.44
625.586
656.26
667.049
686.301
701.302
716.707
734.056
751.175
766.744
780.776
789.709
796.818
810.384
825.304
838.275
847.604
662.859
651.712
623.248
602.515
598.273
576.158
575.274
615.498
657.307
671.409
687.302
700.986
715.819
733.612
751.399
767.125
780.526
789.18
798.369
812.458
827.784
840.162
849.017
658.389
638.746
609.805
609.888
587.611
567.404
546.975
607.485
659.771
674.578
687.912
699.932
714.156
732.883
751.718
767.887
780.973
787.246
795.99
812.039
830.135
843.196
852.145
651.967
604.907
610.464
613.444
578.423
560.465
538.426
586.745
658.657
676.7
687.823
698.203
711.984
732.035
752.083
768.985
782.316
788.272
791.82
806.946
828.588
847.075
856.604
631.256
590.576
614.338
630.702
601.22
563.403
602.072
604.629
660.754
677.831
687.472
696.243
709.601
731.245
751.64
768.903
783.417
790.731
790.174
804.456
824.026
849.422
862.853
617.943
581.258
610.24
631.102
648.255
635.384
622.311
629.688
665.103
679.179
687.431
694.198
707.875
729.25
748.252
766.059
782.56
787.857
778.296
802.393
830.459
851.133
867.503
616.49
607.036
609.72
635.182
654.816
651.849
630.746
644.005
668.132
681.226
687.668
692.168
706.157
725.053
738.731
756.667
777.857
782.532
712.64
807.134
838.798
857.362
874.439
718.466
691.361
673.961
698.004
767.038
833.27
864.009
865.826
856.603
846.169
847.421
847.524
839.068
832.153
821.033
792.966
744.928
718.513
726.692
719.887
687.748
663.103
680.989
749.991
818.645
854.413
863.069
854.619
844.803
846.615
844.593
834.446
833.567
824.736
793.876
741.274
711.534
720.966
718.741
680.179
643.393
654.114
727.846
803.089
839.438
845.426
841.801
841.347
851.229
843.678
833.421
837.86
831.168
793.945
730.51
699.413
716.182
716.399
673.263
634.558
652.053
730.096
800.01
830.41
840.861
840.375
853.185
856.856
838.455
822.601
829.247
828.197
782.366
720.893
699.746
717.27
717.302
671.946
628.063
646.157
722.572
806.408
842.67
850.447
864.34
866.742
857.631
835.627
813.522
819.732
816.961
771.799
720.604
710.778
721.094
722.09
678.115
630.28
641.422
713.233
790.478
842.528
866.268
870.858
863.126
854.005
833.659
806.52
802.93
809.289
774.335
723.703
713.892
722.549
733.14
694.015
641.798
644.7
706.297
772.311
823.26
857.622
875.269
853.995
846.269
830.202
800.008
788.143
812.215
755.022
703.779
698.782
719.037
737.779
701.837
656.61
654.611
698.826
747.712
798.268
845.121
874.171
853.123
858.567
843.267
787.699
786.285
792.599
714.783
681.553
682.048
698.068
585.592
580.739
595.768
632.101
654.731
628.263
600.962
636.47
674.194
682.465
684.52
686.365
701.153
717.813
701.764
728.244
766.085
754.973
671.727
785.958
829.451
851.024
851.754
138.721
162.883
223.681
388.553
611.101
517.852
226.533
208.443
373.934
400.37
421.84
419.132
479.9
598.177
504.44
556.787
670.141
553.362
701.649
780.756
822.88
845.161
855.185
7.23861
3.75121
7.94334
105.18
198.688
134.561
39.8459
3.91043
2.79348
3.1315
3.96328
4.77879
91.0303
265.474
404.006
434.616
436.154
394.049
529.534
550.247
598.482
681.46
753.569
2.85489
3.01214
2.56378
2.13958
2.55198
2.62845
2.66525
2.79543
2.8221
2.99688
3.34003
3.56019
2.88003
91.0311
129.83
343.028
441.702
419.934
202.881
40.0553
51.6758
103.907
176.826
2.11308
2.62206
1.52541
1.75806
2.26565
2.57078
2.42785
2.23153
2.23405
2.29253
2.85286
3.06104
2.36245
1.65242
2.47872
3.43039
6.98874
3.80125
3.88586
3.92972
3.96929
4.05796
4.19095
2.0828
2.44278
1.81485
1.83232
2.26013
2.32182
2.21488
1.92296
1.64038
1.64164
1.61558
2.16613
2.68033
2.78227
3.91748
3.13282
2.96502
4.37811
5.09818
4.15234
3.87965
3.80507
3.96701
2.46798
1.99127
2.10604
2.18249
2.21399
2.1029
1.74751
1.26642
1.20433
1.18854
1.15112
1.42485
1.68165
2.05458
2.98048
2.70237
3.13055
5.65693
6.03509
5.10862
3.68741
3.63718
5.27829
2.88698
2.68369
2.56114
2.37903
2.18701
1.63818
1.18086
1.03952
0.979804
0.951302
0.923622
0.960974
1.23657
1.78162
2.29847
2.62176
4.57249
5.93685
6.06557
3.87527
3.57038
3.57136
6.65299
3.76235
3.64452
2.41214
2.11037
1.6723
1.39666
1.14112
0.960212
0.882283
0.861031
0.870531
0.960816
1.28847
1.80773
2.3584
2.76321
5.11066
6.25431
3.60296
3.59081
3.56785
3.53052
8.0142
3.56129
2.2826
2.05217
1.89321
1.73786
1.50329
1.23346
1.03516
0.942219
0.922747
0.976617
1.13462
1.47129
1.94078
2.40984
3.81671
5.9152
4.37337
3.75772
3.74655
3.68902
7.02351
7.6801
2.2704
2.16991
2.02037
1.92784
1.81411
1.66291
1.42908
1.2451
1.14807
1.14425
1.24222
1.42656
1.71321
2.07608
2.41636
5.52211
5.75603
3.81705
3.86328
16.3257
19.4069
21.2508
4.21076
2.16724
2.04465
1.97422
1.91355
1.8452
1.91582
2.08032
2.17
2.40622
2.37126
1.82558
1.75272
1.93081
2.58556
4.36142
5.60431
3.81354
3.91286
14.1824
25.6654
24.9037
24.2997
17.1892
2.06004
1.96918
1.93077
1.87681
1.83079
1.96992
3.99312
3.94329
3.94662
4.04855
4.12472
4.12229
3.714
3.54692
3.50036
3.07415
3.27382
9.33445
27.3114
26.7088
25.8083
24.8455
17.0969
1.97702
1.92117
1.87836
1.82701
1.78045
1.7157
2.4937
4.08889
3.99357
2.34545
1.62979
2.04773
2.47845
2.17803
1.96234
2.1519
2.64159
17.7658
27.7774
27.5363
21.6398
0.901948
0.453574
1.91873
1.8565
1.81962
1.77034
1.72254
1.65836
1.6166
1.68797
1.52555
1.52749
1.55555
1.57542
1.58657
1.63361
1.68933
1.72884
1.87676
18.3829
28.4207
27.6331
4.91262
0.697421
0.577283
2.74344
1.78206
1.75714
1.71349
1.67033
1.61711
1.55414
1.49257
1.46788
1.4888
1.49663
1.47421
1.47343
1.47574
1.46667
1.42235
1.31727
12.1346
29.0658
26.926
3.86706
0.697728
0.534631
3.94086
1.70053
1.69585
1.66099
1.62435
1.58024
1.53125
1.47466
1.44371
1.43072
1.40241
1.37463
1.34888
1.3193
1.26882
1.16588
1.12665
3.68211
23.2228
28.2816
14.0495
0.614619
2.30961
3.95317
1.64277
1.64173
1.61556
1.58432
1.5454
1.49791
1.43983
1.38561
1.3404
1.30058
1.25927
1.21295
1.15691
1.08711
0.948356
0.715687
0.633658
12.2101
28.4238
28.5338
8.41954
1.18166
3.99978
1.59941
1.59837
1.57898
1.55167
1.56403
1.79931
1.7667
1.40472
1.23352
1.1805
1.13434
1.07981
1.0106
0.920331
0.779519
0.547929
0.113383
0.571487
21.5302
28.9963
28.7779
14.0496
4.05887
1.67306
1.56289
1.54997
1.61678
2.53873
2.87994
2.77674
2.43067
1.32441
1.03635
1.00311
0.954675
0.881982
0.785071
0.6513
0.462399
0.112683
-0.319092
0.55798
7.36751
6.40123
7.71622
4.11634
2.79602
1.52628
1.55603
2.61257
2.95625
2.84629
2.71838
2.57658
2.1597
0.975791
0.881022
0.845216
0.776101
0.679562
0.554511
0.398298
0.145176
-0.208255
-0.558247
-0.767058
-0.825933
-0.762452
4.17514
3.39166
1.48069
2.02323
3.01967
2.91905
2.51586
2.31109
2.52822
2.39404
1.23321
0.794175
0.763234
0.695503
0.601607
0.485688
0.347285
0.176231
-0.0421704
-0.313678
-0.536144
-0.668271
-0.756957
4.24148
2.24404
1.44579
2.59075
2.97093
2.12592
1.10492
0.997563
1.33495
1.66649
1.14404
0.752483
0.740295
0.640188
0.547262
0.437593
0.312925
0.188048
0.0533099
-0.102533
-0.269088
-0.422423
-0.557448
3.65834
1.49895
1.57181
2.59768
2.43997
1.11368
1.01858
0.912464
0.812742
0.74679
0.858672
1.04454
1.00167
0.596131
0.507901
0.399285
0.285556
0.181083
0.0844884
-0.0128423
-0.12155
-0.241787
-0.363433
1.92175
1.43689
1.5574
2.54347
1.74739
0.995831
0.889981
0.791118
0.701936
0.661253
0.707826
0.799641
0.652893
0.570636
0.4688
0.358332
0.251445
0.16142
0.0864344
0.0149079
-0.0636278
-0.154328
-0.254475
1.59815
1.35405
1.4742
2.41208
1.42488
0.830127
0.714524
0.639121
0.581131
0.517419
0.549961
0.578435
0.563612
0.511698
0.415013
0.310798
0.200482
0.131582
0.079136
0.0276888
-0.0329623
-0.108449
-0.200351
1.38884
1.25774
1.31011
2.21522
1.42021
0.625463
0.492858
0.412865
0.342112
0.323344
0.397845
0.544396
0.576167
0.528408
0.390838
0.235596
0.170592
0.10282
0.0681683
0.0387875
-0.0069196
-0.0713865
-0.156152
1.58163
1.94133
1.26485
1.9765
1.10445
0.410853
0.258803
0.146471
0.0723073
0.109175
0.186105
0.342461
0.433227
0.4067
0.328613
0.151209
0.112717
0.107037
0.0723647
0.0442714
0.0105301
-0.0474522
-0.131585
1.35599
4.03031
4.13375
1.18239
0.550312
0.232906
0.0245608
-0.11398
-0.144488
-0.0955821
-0.0106425
0.0625847
0.14622
0.26271
0.19412
0.127419
-0.0161444
0.0647699
0.0803107
0.0430057
0.0157084
-0.0372381
-0.121009
1.02862
2.80907
4.61752
1.19234
0.43202
0.0993444
-0.143494
-0.286048
-0.324778
-0.269991
-0.170054
-0.0793382
-0.02816
0.065567
0.110532
0.0657098
-0.0603783
-0.0207267
0.0576416
0.0406757
0.00948356
-0.0389103
-0.119898
0.771675
0.808293
4.60039
1.50579
0.409397
0.188655
-0.247448
-0.398445
-0.453627
-0.399701
-0.288725
-0.17997
-0.108815
-0.0469975
0.0875571
0.0653293
0.0097439
-0.0296387
0.0251513
0.0309327
-0.00519908
-0.0485703
-0.121807
0.665482
0.60858
4.08576
1.30753
0.47084
0.712782
-0.17167
-0.453437
-0.509745
-0.474046
-0.359468
-0.236424
-0.147009
-0.0811112
0.103774
0.100721
0.0255325
-0.0169402
0.0121465
0.0163803
-0.0205422
-0.0610407
-0.122881
0.639322
0.979701
3.84489
2.94581
0.773569
1.19204
0.00619492
-0.438702
-0.502249
-0.484236
-0.367517
-0.254955
-0.153242
-0.0917974
0.0160378
0.142369
0.0365389
-0.00416509
0.00290206
-0.00217892
-0.0361665
-0.0718892
-0.121743
0.605728
0.50633
1.32534
3.4345
3.40137
1.40786
-0.208423
-0.366574
-0.433529
-0.272224
-0.292895
-0.24466
-0.141937
-0.0731691
0.00107918
0.173593
0.0708854
0.0054563
-0.00272602
-0.0203212
-0.0441297
-0.0789455
-0.122082
0.432383
0.365916
0.436871
3.2964
3.47809
1.30103
-0.155449
-0.240537
0.362121
0.893269
-0.20102
-0.221228
-0.125313
-0.0565682
-0.00434292
0.110929
0.127353
0.0386778
-0.00496732
-0.0247345
-0.0490267
-0.0790842
-0.115199
0.226065
0.18031
1.95667
3.32127
3.26248
0.312941
-0.0609226
0.227053
1.96162
1.80713
-0.112757
-0.199706
-0.109228
-0.0467898
-0.00747276
0.0251831
0.132283
0.0710751
-0.00794081
-0.0269783
-0.0486162
-0.0737712
-0.102446
-0.00712811
-0.110307
0.673525
3.16709
3.11443
-0.174979
-0.0495452
1.14618
2.10772
1.96235
-0.071706
-0.179745
-0.0993888
-0.0448605
-0.0111968
0.00968639
0.056063
0.0620981
-0.01223
-0.0283758
-0.0459266
-0.0656989
-0.0875259
-0.230095
-0.290066
-0.602495
2.20689
2.97928
2.0781
-0.0280996
1.83533
2.25119
1.4383
-0.18548
-0.155072
-0.091738
-0.0484257
-0.0222269
-0.00725732
-0.00355818
-0.00709518
-0.0185682
-0.0303072
-0.0430028
-0.0570962
-0.0724535
-0.377399
-0.367229
-0.569087
3.06292
3.03397
3.40723
2.7557
2.85228
2.37832
0.996523
-0.184081
-0.127307
-0.0835891
-0.053572
-0.0355046
-0.0246639
-0.0204721
-0.022163
-0.0273693
-0.0339333
-0.041381
-0.0497914
-0.059066
-0.424259
-0.524538
-0.261
1.25381
3.38682
1.72109
2.80324
2.48571
2.42023
0.387778
-0.137002
-0.0946235
-0.0730433
-0.0582825
-0.0488647
-0.0422979
-0.0382853
-0.0371406
-0.0379658
-0.0395325
-0.0417458
-0.0446938
-0.0482744
-0.397118
-0.459952
-0.530646
-0.342915
2.00902
-0.0911454
1.82707
2.35979
1.43821
-0.0804181
-0.0788809
-0.0582723
-0.0638853
-0.0666195
-0.0656617
-0.0621001
-0.0574009
-0.0531609
-0.0497317
-0.0466902
-0.0440213
-0.041869
-0.0401965
-0.329328
-0.337933
-0.283468
-0.191549
-0.172934
-0.0958536
-0.0238896
0.295555
-0.0721645
-0.0518645
-0.0202249
-0.0387573
-0.0716738
-0.0886861
-0.0925932
-0.0887473
-0.0808696
-0.0718302
-0.0632991
-0.0555156
-0.0480841
-0.041042
-0.0344283
807.061
799.058
803.511
801.191
849.741
844.326
838.719
830.688
761.047
752.325
725.156
677.295
194.407
178.383
131.178
63.4546
4.54792
5.03683
5.86524
6.5505
4.89866
7.69309
8.24072
6.62857
8.12622
8.47014
8.84227
9.08947
8.14037
8.38017
8.6099
5.87386
7.91584
5.94054
5.0186
5.29101
6.26622
4.3496
4.47654
5.87088
4.2049
4.289
4.42398
4.85751
22.1777
22.152
22.0319
21.6966
3.72431
0.700542
1.32673
1.76202
0.423388
0.427475
0.453366
0.481107
0.538082
0.523364
0.561576
0.614277
1.23771
2.74859
3.34549
2.37536
15.3178
15.2794
15.5002
15.6045
4.24799
15.4891
15.6621
15.7056
3.07608
6.92276
16.1487
16.1456
17.5392
17.2862
17.0305
16.6664
-0.827953
3.60244
18.5886
18.4158
-0.819462
-0.749717
-0.145175
0.796817
-0.652747
-0.716285
-0.793187
-0.853003
-0.447377
-0.502447
-0.558989
-0.611615
-0.334509
-0.386959
-0.441001
-0.494499
-0.275635
-0.328811
-0.386499
-0.445893
-0.235499
-0.294788
-0.362356
-0.435217
-0.218852
-0.287833
-0.370293
-0.460586
-0.216055
-0.295323
-0.390334
-0.491924
-0.218808
-0.30198
-0.376179
0.143594
-0.21392
-0.286712
-0.193846
1.29341
-0.196892
-0.252351
-0.288799
1.98787
-0.168788
-0.198646
-0.217965
1.30862
-0.159419
-0.183746
-0.21011
-0.246522
-0.145509
-0.166217
-0.189843
-0.217432
-0.125281
-0.140423
-0.156372
-0.173467
-0.10433
-0.115266
-0.126446
-0.137657
-0.0839615
-0.0912835
-0.0985906
-0.105799
-0.065983
-0.0703315
-0.0746048
-0.0787429
-0.0510623
-0.0528223
-0.0545529
-0.056231
-0.0392147
-0.0386378
-0.0381077
-0.0376231
-0.0299293
-0.0271633
-0.0245459
-0.0220918
778.098
731.28
697.255
678.548
672.788
662.985
724.836
815.704
857.565
863.979
880.598
878.269
827.086
779.675
648.259
466.019
523.12
615.812
662.046
807.635
767.145
710.992
566.995
330.411
189.737
302.804
655.2
813.012
900.973
942.703
928.992
871.544
733.459
315.458
66.6845
44.6463
175.54
301.277
605.984
469.976
246.017
11.044
10.4695
14.2267
19.5456
402.191
831.913
924.565
956.526
951.355
901.086
700.616
190.618
42.8368
40.3984
42.8537
45.8031
7.60085
7.6943
8.75813
9.5272
9.55261
13.1542
324.388
762.248
853.91
876.889
948.191
972.769
833.605
302.226
143.251
61.98
37.4138
40.7815
43.739
7.03948
7.44092
8.07173
9.51064
9.83974
446.529
640.634
531.157
462.692
373.514
461.25
510.82
179.615
75.1303
77.5215
84.4779
84.7078
38.7709
38.8288
6.91681
7.23012
15.5045
38.5426
276.09
513.79
212.062
14.6977
8.78722
3.92956
7.48665
14.3573
16.989
20.3028
26.6231
83.1169
83.4955
62.7943
34.0305
6.39822
9.03707
36.8942
78.8253
170.037
62.8906
4.85657
3.72306
3.09178
2.82052
3.79753
7.11008
12.8104
16.3872
20.0073
81.8241
86.2571
30.8077
31.6981
5.97672
16.2036
31.2584
22.5767
8.88667
5.91723
4.93973
4.07036
3.27944
3.30767
3.918
5.8632
10.1036
21.5724
30.7679
81.6682
73.1258
28.3578
31.5001
10.6315
22.8202
13.9857
7.07978
6.71168
6.09901
5.25999
4.19319
3.33239
3.07682
3.48206
4.52737
10.0143
26.1481
30.1529
29.5352
28.7781
35.2806
37.4366
22.0695
23.6371
13.2371
11.4451
14.9851
6.7391
5.57927
4.51518
3.61056
3.23216
3.53724
4.37645
5.57104
18.3375
50.9999
59.9125
20.7513
19.7304
25.278
19.6816
24.4261
24.6666
24.7004
24.2729
22.2618
11.9297
5.20115
4.29263
3.84158
4.03587
4.77854
6.97801
10.1418
25.3393
63.1661
20.1837
18.7313
10.7299
13.7156
16.8583
17.8409
11.1944
15.6198
23.4613
21.011
8.76471
12.5825
19.9099
7.8083
5.28199
20.6848
24.1462
19.8748
38.2059
36.9046
28.1456
10.1988
1.77225
1.90276
2.51203
2.29828
4.81634
21.5062
30.3137
32.7347
33.3045
33.033
30.3162
28.0371
33.7633
34.1079
14.0705
16.7377
35.6016
31.0135
9.40399
0.502815
0.424804
0.48094
0.661012
10.3323
19.2634
26.1623
32.427
34.9064
34.5707
34.233
34.4797
35.1688
35.293
14.0048
1.27401
15.9971
1.96978
8.1637
0.539526
0.378277
0.395591
0.46301
0.449813
0.390731
0.38463
0.407556
18.0073
31.8582
35.8275
35.8276
36.3297
30.2514
5.90413
0.629312
0.519536
0.568983
4.60746
1.17906
0.322323
0.29073
0.29726
0.29354
0.289801
0.295674
0.270047
0.159982
0.348084
20.4723
29.0996
15.8208
2.26679
0.47918
0.413958
0.406899
0.472381
0.532825
14.7369
2.61998
0.164131
0.178061
0.199309
0.207554
0.224288
0.20137
0.107064
-0.0407449
-0.185694
-0.290066
-0.309396
-0.184122
0.0835787
0.311196
0.339299
0.370299
0.365943
15.7151
15.0146
4.3773
3.36591
3.59603
1.44295
0.163905
0.181049
0.141727
0.048774
-0.0433426
-0.0924847
-0.0907927
-0.0112092
0.14618
0.261782
0.308459
0.315738
0.326919
10.9481
7.95895
7.49565
10.0744
11.328
9.19811
0.216457
0.190096
0.189953
0.140989
0.0928048
0.0717275
0.0766128
0.1146
0.198018
0.255739
0.293766
0.293054
0.299426
16.3823
16.7435
14.792
16.3225
16.1253
11.3781
2.59026
0.240605
0.253812
0.216672
0.169063
0.142996
0.140726
0.169603
0.219348
0.24603
0.277349
0.299634
0.278765
18.0295
17.9268
17.9117
17.8712
15.457
6.97059
2.99494
0.46063
0.333737
0.297647
0.239587
0.196278
0.177379
0.192847
0.22104
0.245537
0.26897
0.28893
0.263928
4.49641
10.9582
7.76531
4.37679
9.5445
10.984
6.61121
0.716358
0.432153
0.384212
0.305653
0.249046
0.216221
0.209523
0.220391
0.25163
0.279352
0.274916
0.249965
-0.919351
-0.939026
-0.815984
-0.611214
2.41395
11.3997
11.6665
3.76943
0.51139
0.462656
0.35514
0.294874
0.255175
0.247884
0.273002
0.28725
0.273194
0.238663
0.237693
-0.691411
-0.756198
-0.708545
-0.540137
0.0376709
11.0518
11.9874
6.51653
0.544429
0.464634
0.382931
0.311802
0.293515
0.299453
0.287748
0.282828
0.229895
0.226699
0.225875
-0.579257
-0.664741
-0.643653
-0.501855
-0.307186
9.79488
12.2053
9.90841
0.773296
0.411523
0.377426
0.326633
0.300163
0.291184
0.277792
0.249584
0.219504
0.214437
0.213462
-0.545907
-0.661528
-0.672538
-0.531476
-0.341606
8.96583
12.3694
9.74544
0.600766
0.307354
0.298409
0.304732
0.28763
0.271034
0.244195
0.204302
0.20257
0.200934
0.200145
-0.56497
-0.705172
-0.714657
-0.564632
-0.359106
5.83251
12.2261
4.66264
0.22791
0.199091
0.199288
0.220258
0.255213
0.238432
0.193148
0.187939
0.187482
0.186841
0.186048
-0.615314
-0.758708
-0.750009
-0.585877
-0.334997
7.26158
3.37719
0.151201
0.0938762
0.115023
0.140058
0.159017
0.167611
0.168997
0.170114
0.171325
0.171889
0.171846
0.171632
-0.659861
-0.786298
-0.746062
-0.594025
8.66947
10.5592
1.11495
-0.0592257
0.0116024
0.057394
0.0958542
0.124733
0.139113
0.146751
0.15153
0.154232
0.155946
0.156457
0.156557
-0.653507
-0.732889
-0.685808
-0.536867
26.3929
10.8152
-0.102059
-0.0791059
-0.0170989
0.0273253
0.0693484
0.100118
0.117133
0.127156
0.133526
0.137363
0.139695
0.141015
0.141283
2.52517
-0.685264
-0.620589
13.3758
28.8766
25.7798
0.971138
-0.0789753
-0.0244426
0.0195885
0.0569276
0.0832914
0.0993904
0.109739
0.116676
0.121195
0.123993
0.125519
0.126277
14.8709
19.3163
15.4458
29.6277
29.7899
29.8643
9.69729
-0.0718275
-0.0188405
0.0217102
0.050066
0.0702263
0.0841817
0.0940115
0.101015
0.105881
0.109071
0.110873
0.111789
18.4503
30.1462
30.476
30.5988
30.6555
23.4091
10.2069
0.0250762
-0.0167593
0.0193616
0.0414006
0.0577374
0.070139
0.0794809
0.0864383
0.0914629
0.0948771
0.096888
0.0978574
-0.305572
16.9834
31.4167
31.54
19.4655
0.913814
2.33734
0.0430389
-0.0264483
0.00822059
0.0295357
0.0450328
0.0569078
0.0660159
0.0729074
0.0779713
0.0814824
0.0836172
0.0845996
-0.260482
-0.307776
3.00207
4.84257
-0.0477642
-0.278136
-0.192818
-0.0537037
-0.0366839
-0.00453698
0.0176047
0.0331741
0.044842
0.0537356
0.0604772
0.0654613
0.0689562
0.0711242
0.0720968
-0.20412
-0.242239
-0.268327
-0.275528
-0.251685
-0.212334
-0.151238
-0.0831724
-0.0394595
-0.0106692
0.00871201
0.0233752
0.0344153
0.0428387
0.0492428
0.0539894
0.0573427
0.0594466
0.0603813
-0.156034
-0.178678
-0.19311
-0.194471
-0.179289
-0.149354
-0.109328
-0.0668204
-0.0361455
-0.0134456
0.00326895
0.0159501
0.0258001
0.0334071
0.0392349
0.0435665
0.0466457
0.0485876
0.049453
-0.117371
-0.130524
-0.137429
-0.135462
-0.124535
-0.10485
-0.0791842
-0.0524966
-0.0307353
-0.0134773
1.15109e-05
0.01056
0.0188513
0.0253512
0.0303821
0.0341351
0.0368198
0.0385148
0.0392783
-0.0852424
-0.0921735
-0.0953075
-0.0934059
-0.0856291
-0.072725
-0.0562667
-0.0391738
-0.0241753
-0.0116686
-0.00147822
0.006747
0.0132723
0.018472
0.0225351
0.0255761
0.0277672
0.0291492
0.0297811
-0.0588222
-0.061321
-0.0619743
-0.0601263
-0.0550406
-0.0470795
-0.0371191
-0.0266629
-0.0170561
-0.00872932
-0.00172015
0.00408819
0.0087524
0.0125241
0.0154971
0.0177277
0.0193472
0.0203658
0.0208435
-0.0368494
-0.0358009
-0.0346138
-0.0330604
-0.0299613
-0.025739
-0.0205684
-0.0150748
-0.00986558
-0.00521366
-0.00119546
0.00219678
0.00498235
0.00724429
0.0090458
0.0103989
0.0113891
0.0120062
0.0123229
-0.018279
-0.0140718
-0.0112088
-0.00971596
-0.0087937
-0.0076469
-0.00622976
-0.00468235
-0.00315487
-0.00173255
-0.000456857
0.000645171
0.0015793
0.00234227
0.00295753
0.00341652
0.00376117
0.00397146
0.00404839
)
;

boundaryField
{
    leftWall
    {
        type            fixedFluxPressure;
        gradient        uniform 0;
        value           nonuniform List<scalar> 
50
(
663.33
664.092
662.859
658.389
651.967
631.256
617.943
616.49
585.592
138.721
7.23861
2.85489
2.11308
2.0828
2.46798
2.88698
3.76235
3.56129
2.2704
2.16724
2.06004
1.97702
1.91873
2.74344
3.94086
3.95317
3.99978
4.05887
4.11634
4.17514
4.24148
3.65834
1.92175
1.59815
1.38884
1.58163
1.35599
1.02862
0.771675
0.665482
0.639322
0.605728
0.432383
0.226065
-0.00712811
-0.230095
-0.377399
-0.424259
-0.397118
-0.329328
)
;
    }
    rightWall
    {
        type            fixedFluxPressure;
        gradient        uniform 0;
        value           nonuniform List<scalar> 
50
(
726.692
720.966
716.182
717.27
721.094
722.549
719.037
698.068
662.046
301.277
45.8031
43.739
38.8288
34.0305
31.6981
31.5001
37.4366
25.278
10.7299
10.1988
9.40399
8.1637
4.60746
0.532825
0.365943
0.326919
0.299426
0.278765
0.263928
0.249965
0.237693
0.225875
0.213462
0.200145
0.186048
0.171632
0.156557
0.141283
0.126277
0.111789
0.0978574
0.0845996
0.0720968
0.0603813
0.049453
0.0392783
0.0297811
0.0208435
0.0123229
0.00404839
)
;
    }
    lowerWall
    {
        type            fixedFluxPressure;
        gradient        uniform 0;
        value           nonuniform List<scalar> 
62
(
663.33
654.899
644.202
642.382
642.189
617.554
604.39
633.074
658.628
670.297
686.686
701.634
717.136
734.255
751.064
766.63
780.532
789.974
798.105
810.57
825.491
839.231
847.376
847.376
847.604
849.017
852.145
856.604
862.853
867.503
874.439
807.061
799.058
803.511
801.191
718.466
719.887
718.741
716.399
717.302
722.09
733.14
737.779
718.466
691.361
673.961
698.004
767.038
833.27
864.009
865.826
856.603
846.169
847.421
847.524
839.068
832.153
821.033
792.966
744.928
718.513
726.692
)
;
    }
    atmosphere
    {
        type            totalPressure;
        rho             rho;
        psi             none;
        gamma           1;
        p0              uniform 0;
        value           nonuniform List<scalar> 
46
(
-0.289538
-0.296848
-0.218802
0
0
0
0
0
0
0
-0.0050708
-0.0499153
-0.0904932
-0.108756
-0.112132
-0.106295
-0.0953273
-0.0828804
-0.0712372
-0.060938
-0.0509417
-0.0414097
-0.0323723
-0.0262647
-0.0224561
-0.0188643
-0.0154918
-0.0104098
-0.00490581
-0.00142598
-4.2879e-05
0
0
0
0
0
0
0
0
0
0
0
0
0
0
0
)
;
    }
    defaultFaces
    {
        type            empty;
    }
}


// ************************************************************************* //
