/*--------------------------------*- C++ -*----------------------------------*\
| =========                 |                                                 |
| \\      /  F ield         | OpenFOAM: The Open Source CFD Toolbox           |
|  \\    /   O peration     | Version:  2.3.0                                 |
|   \\  /    A nd           | Web:      www.OpenFOAM.org                      |
|    \\/     M anipulation  |                                                 |
\*---------------------------------------------------------------------------*/
FoamFile
{
    version     2.0;
    format      ascii;
    class       surfaceScalarField;
    location    "1.65";
    object      phi;
}
// * * * * * * * * * * * * * * * * * * * * * * * * * * * * * * * * * * * * * //

dimensions      [0 3 -1 0 0 0 0];

internalField   nonuniform List<scalar> 
4432
(
-4.29147e-06
4.29147e-06
-1.02018e-05
5.91033e-06
-1.35022e-05
3.3004e-06
-8.09697e-06
-5.40522e-06
5.36621e-06
-1.34632e-05
1.69599e-05
-1.15937e-05
1.17236e-05
5.23634e-06
-3.81643e-06
1.554e-05
-1.24948e-05
8.67837e-06
-1.23587e-05
-1.36116e-07
-9.53118e-06
-2.82751e-06
-7.65161e-06
-1.87957e-06
-6.31421e-06
-1.3374e-06
-4.50207e-06
-1.81214e-06
-2.62501e-06
-1.87707e-06
-2.72848e-06
1.03476e-07
-6.45557e-06
3.72709e-06
-1.20172e-05
5.56161e-06
-1.54183e-05
3.40114e-06
-1.43668e-05
-1.05146e-06
-1.08301e-05
-3.53673e-06
-5.91584e-06
-4.91426e-06
-5.91585e-06
-7.16273e-06
1.14542e-05
-1.54477e-05
1.41953e-05
-2.01019e-05
7.95461e-06
-1.61718e-05
-9.33529e-06
-5.56652e-06
-2.40685e-05
7.4163e-06
-2.45765e-05
1.25483e-05
1.04357e-07
3.95973e-06
2.41286e-05
-3.88775e-06
1.65259e-05
-5.26706e-06
1.2432e-06
-5.9352e-06
-2.15937e-06
-7.28029e-06
-5.3448e-07
-7.20585e-06
-1.41183e-06
-5.30821e-06
-3.70977e-06
-3.16878e-06
-4.0165e-06
-1.59107e-06
-1.47423e-06
-1.73335e-06
3.86938e-06
-4.08703e-06
7.91529e-06
-5.47244e-06
4.78655e-06
-5.69963e-06
-8.2427e-07
-5.17622e-06
-4.06015e-06
-3.1362e-06
-6.95427e-06
-9.05205e-06
-8.0254e-06
1.94796e-05
-1.83207e-05
2.44906e-05
-2.24923e-05
1.21262e-05
-1.90433e-05
-1.27843e-05
-1.17397e-05
-3.13721e-05
-2.80679e-06
-3.35094e-05
6.06082e-06
-8.76326e-06
6.47205e-06
2.37173e-05
2.30696e-06
2.06909e-05
-1.73127e-06
5.28143e-06
-5.57255e-06
1.68191e-06
-8.03222e-06
1.9252e-06
-7.90952e-06
-1.53454e-06
-5.63144e-06
-5.98785e-06
-3.18658e-06
-6.46136e-06
-1.76443e-06
-2.89637e-06
-2.11711e-07
2.31667e-06
7.8624e-07
6.91734e-06
7.16801e-07
4.85598e-06
7.10957e-07
-8.18421e-07
1.20821e-07
-3.47001e-06
-1.53409e-07
-6.68003e-06
-9.20545e-06
-7.59349e-06
2.70731e-05
-1.79142e-05
3.48114e-05
-2.07629e-05
1.49749e-05
-1.94972e-05
-1.405e-05
-1.60336e-05
-3.48358e-05
-9.89522e-06
-3.96477e-05
-1.76108e-06
-1.68974e-05
2.7005e-06
1.92558e-05
1.43182e-06
2.19596e-05
-2.57595e-06
9.28922e-06
-6.51231e-06
5.61826e-06
-8.01139e-06
3.42427e-06
-7.02312e-06
-2.5228e-06
-4.25068e-06
-8.76029e-06
-1.95898e-06
-8.75306e-06
-1.50131e-06
-3.35404e-06
-1.4487e-06
2.26406e-06
-1.39398e-06
6.86262e-06
-1.10575e-06
4.56775e-06
6.38603e-07
-2.56277e-06
2.06682e-06
-4.89822e-06
1.76464e-06
-6.37786e-06
-7.4408e-06
-6.0543e-06
3.31274e-05
-1.42872e-05
4.30443e-05
-1.66663e-05
1.7354e-05
-1.87491e-05
-1.19672e-05
-1.85594e-05
-3.50254e-05
-1.48943e-05
-4.33129e-05
-9.31904e-06
-2.24727e-05
-4.82122e-06
1.4758e-05
-3.23261e-06
2.0371e-05
-5.06341e-06
1.112e-05
-7.01586e-06
7.57071e-06
-6.7465e-06
3.15491e-06
-4.407e-06
-4.8623e-06
-4.74029e-07
-1.26933e-05
1.64418e-06
-1.08713e-05
4.3971e-07
-2.14957e-06
-2.37378e-06
5.07755e-06
-5.16885e-06
9.65769e-06
-6.27183e-06
5.67073e-06
-2.12112e-06
-6.71348e-06
2.14971e-06
-9.16905e-06
3.25334e-06
-7.48149e-06
-4.18746e-06
-3.62643e-06
3.67538e-05
-8.73095e-06
4.81488e-05
-1.20599e-05
2.06829e-05
-1.73062e-05
-6.72083e-06
-2.09195e-05
-3.14121e-05
-1.96062e-05
-4.46263e-05
-1.48443e-05
-2.72345e-05
-1.0585e-05
1.04987e-05
-7.73709e-06
1.75231e-05
-7.03879e-06
1.04217e-05
-6.23278e-06
6.76471e-06
-3.93827e-06
8.60401e-07
5.29874e-08
-8.85356e-06
4.73872e-06
-1.7379e-05
7.16893e-06
-1.33015e-05
4.57281e-06
4.46557e-07
-1.26729e-06
1.09176e-05
-7.00458e-06
1.5395e-05
-9.38007e-06
8.04621e-06
-3.47205e-06
-1.26215e-05
2.77915e-06
-1.54203e-05
4.65922e-06
-9.36155e-06
4.71757e-07
-1.17925e-06
3.79331e-05
-2.68494e-06
4.96545e-05
-6.73046e-06
2.47285e-05
-1.54575e-05
2.00626e-06
-2.33953e-05
-2.34744e-05
-2.50331e-05
-4.29885e-05
-1.98662e-05
-3.24014e-05
-1.36977e-05
4.33015e-06
-1.04136e-05
1.4239e-05
-7.06662e-06
7.07469e-06
-3.61314e-06
3.31122e-06
2.86072e-07
-3.03882e-06
5.14939e-06
-1.37169e-05
1.05007e-05
-2.27303e-05
1.27811e-05
-1.55818e-05
9.97122e-06
3.25641e-06
2.6897e-06
1.81992e-05
-6.17685e-06
2.42615e-05
-8.85217e-06
1.07215e-05
-1.04974e-06
-2.04239e-05
6.00993e-06
-2.24799e-05
8.52417e-06
-1.18758e-05
8.99593e-06
8.84399e-07
3.70487e-05
3.52823e-06
4.70107e-05
-8.2084e-07
2.90775e-05
-1.15022e-05
1.26876e-05
-2.25673e-05
-1.24092e-05
-2.90853e-05
-3.64705e-05
-2.69042e-05
-3.45825e-05
-1.73256e-05
-5.24842e-06
-9.45424e-06
6.36768e-06
-4.64896e-06
2.2694e-06
-2.22641e-08
-1.31548e-06
4.03541e-06
-7.09649e-06
9.01108e-06
-1.86925e-05
1.42628e-05
-2.7982e-05
1.6156e-05
-1.74751e-05
1.43415e-05
5.07093e-06
7.33257e-06
2.52081e-05
-5.0708e-06
3.66649e-05
-7.15961e-06
1.28103e-05
1.05961e-06
-2.86431e-05
8.7737e-06
-3.0194e-05
1.15087e-05
-1.46108e-05
2.05046e-05
-7.17185e-06
7.17185e-06
-1.8444e-05
1.12722e-05
-2.27724e-05
4.32836e-06
-1.72102e-05
-5.56215e-06
-2.88222e-06
-1.4328e-05
1.51872e-05
-1.80695e-05
3.00277e-05
-1.48404e-05
3.68023e-05
-6.77459e-06
3.6642e-05
1.60301e-07
3.68352e-05
-1.93222e-07
3.91807e-05
-2.34551e-06
3.51495e-05
4.0312e-06
2.31788e-05
1.19706e-05
1.48327e-05
8.34616e-06
1.0515e-05
4.31767e-06
2.14805e-06
8.36697e-06
-9.14542e-06
1.12934e-05
-1.06131e-05
1.46762e-06
-1.0613e-05
-1.10444e-05
1.82163e-05
-2.07477e-05
2.09754e-05
-2.34944e-05
7.07505e-06
-1.90482e-05
-1.00084e-05
-5.93153e-06
-2.74446e-05
1.0586e-05
-3.4587e-05
2.64548e-05
-3.07093e-05
3.88214e-05
-1.91413e-05
4.48771e-05
-5.89537e-06
4.63865e-05
-1.70257e-06
4.82609e-05
-4.21998e-06
4.92432e-05
3.04894e-06
4.26692e-05
1.85447e-05
2.90968e-05
2.19186e-05
1.44579e-05
1.89565e-05
1.50596e-06
2.13189e-05
-5.62446e-06
1.84238e-05
-5.07692e-06
9.20081e-07
-1.569e-05
-9.01956e-06
2.72358e-05
-1.6033e-05
2.79889e-05
-1.77189e-05
8.76092e-06
-1.14573e-05
-1.627e-05
1.70113e-06
-4.0603e-05
1.43614e-05
-4.72473e-05
2.51402e-05
-4.1488e-05
3.42254e-05
-2.82264e-05
4.04324e-05
-1.21023e-05
4.38898e-05
-5.15999e-06
4.63136e-05
-6.64383e-06
4.83949e-05
9.67698e-07
4.58615e-05
2.10781e-05
3.42925e-05
3.34875e-05
2.03544e-05
3.28947e-05
1.22161e-05
2.94572e-05
5.47689e-06
2.51631e-05
2.23598e-06
4.16097e-06
-1.3454e-05
-5.03639e-06
3.22722e-05
-8.28309e-06
3.12356e-05
-5.64397e-06
6.12182e-06
4.62023e-06
-2.65342e-05
1.61239e-05
-5.21067e-05
2.50045e-05
-5.6128e-05
3.00347e-05
-4.65182e-05
3.40822e-05
-3.2274e-05
3.77254e-05
-1.57455e-05
4.01343e-05
-7.56892e-06
4.21765e-05
-8.68596e-06
4.41118e-05
-9.67615e-07
4.25095e-05
2.26804e-05
3.28048e-05
4.31922e-05
2.39328e-05
4.17667e-05
2.30065e-05
3.03835e-05
2.1083e-05
2.70865e-05
1.27279e-05
1.2516e-05
-7.26046e-07
-2.76439e-07
3.25487e-05
1.73887e-06
2.92203e-05
9.97318e-06
-2.11249e-06
2.20463e-05
-3.86074e-05
3.1991e-05
-6.20513e-05
3.73827e-05
-6.15197e-05
3.78731e-05
-4.70086e-05
3.63254e-05
-3.07262e-05
3.60759e-05
-1.5496e-05
3.70128e-05
-8.50583e-06
3.92945e-05
-1.09676e-05
4.05455e-05
-2.21864e-06
3.6834e-05
2.63919e-05
2.66937e-05
5.33325e-05
2.08987e-05
4.75617e-05
2.3607e-05
2.76751e-05
2.36789e-05
2.70146e-05
1.5412e-05
2.07829e-05
1.46859e-05
6.45842e-06
2.60903e-05
1.44498e-05
2.12289e-05
2.59762e-05
-1.36389e-05
3.8501e-05
-5.11322e-05
4.60937e-05
-6.96441e-05
4.84126e-05
-6.38386e-05
4.576e-05
-4.4356e-05
3.99595e-05
-2.49258e-05
3.60977e-05
-1.16342e-05
3.60017e-05
-8.40977e-06
3.81525e-05
-1.31185e-05
3.68614e-05
-9.27502e-07
2.85471e-05
3.47062e-05
1.68303e-05
6.50493e-05
9.72482e-06
5.46671e-05
1.22449e-05
2.51551e-05
1.626e-05
2.29995e-05
1.11133e-05
2.59296e-05
2.57992e-05
1.07505e-05
1.53398e-05
2.57896e-05
6.18988e-06
4.12484e-05
-2.90978e-05
5.20897e-05
-6.19734e-05
5.66997e-05
-7.42541e-05
5.65844e-05
-6.37233e-05
5.24261e-05
-4.01977e-05
4.48372e-05
-1.73369e-05
3.81107e-05
-4.90771e-06
3.57158e-05
-6.01485e-06
3.58599e-05
-1.32626e-05
3.07257e-05
4.20676e-06
1.7761e-05
4.76708e-05
3.79848e-06
7.90118e-05
-6.07519e-06
6.45408e-05
-7.10552e-06
2.61854e-05
1.10116e-06
1.47928e-05
3.44786e-06
2.35829e-05
2.92471e-05
1.6244e-05
-9.04257e-07
3.89966e-05
-1.65627e-05
5.4225e-05
-4.43262e-05
6.13089e-05
-6.90573e-05
6.37149e-05
-7.66601e-05
6.19065e-05
-6.19149e-05
5.69673e-05
-3.52585e-05
4.92371e-05
-9.60667e-06
4.00813e-05
4.24805e-06
3.36519e-05
4.14568e-07
2.883e-05
-8.44073e-06
1.83356e-05
1.47012e-05
1.4682e-06
6.45382e-05
-1.50734e-05
9.55534e-05
-2.61316e-05
7.5599e-05
-2.85712e-05
2.8625e-05
-1.71339e-05
3.35558e-06
-5.82733e-06
1.22763e-05
2.34198e-05
1.39643e-05
2.30844e-05
2.72053e-05
3.37697e-05
1.90791e-05
3.72037e-05
6.70184e-08
3.16997e-05
-2.78241e-05
1.54819e-05
-4.91409e-05
-1.51538e-05
-5.86457e-05
-2.50777e-05
-4.97917e-05
-1.41025e-05
-2.76471e-05
-1.57769e-05
-1.06158e-05
-1.47619e-05
2.59618e-06
-1.45275e-05
1.14526e-05
-1.59529e-05
1.87651e-05
-2.60051e-05
2.52573e-05
-3.44742e-05
2.58335e-05
-1.80513e-05
2.07894e-05
1.0115e-05
6.31603e-06
3.96815e-05
-1.2012e-05
5.4993e-05
-1.04994e-06
1.84825e-06
7.37222e-06
-3.70653e-05
1.9627e-05
-4.24488e-05
3.90649e-05
-3.40488e-05
-1.54625e-05
7.50321e-05
1.20143e-05
1.10701e-05
7.21022e-06
3.85738e-05
-5.57363e-06
4.99875e-05
-4.21238e-06
3.03384e-05
-4.55767e-06
1.58272e-05
1.05519e-06
-2.07666e-05
2.12145e-05
-4.5237e-05
1.40201e-05
-6.90812e-06
1.11649e-05
-1.29216e-05
1.79612e-05
-2.15584e-05
2.66046e-05
-2.31708e-05
2.16713e-05
-1.10196e-05
2.94356e-06
-7.27734e-06
-9.89608e-06
-2.16346e-05
-1.14577e-05
-1.64897e-05
-8.22985e-06
6.88717e-06
-4.76894e-06
3.62206e-05
9.59533e-06
4.06287e-05
2.6289e-05
-1.48455e-05
3.05019e-05
-4.12781e-05
3.00731e-05
-4.202e-05
3.3058e-05
-3.70336e-05
-3.02079e-05
4.78033e-05
-0.000110883
0.000121953
-0.00011747
4.51608e-05
-9.35574e-05
2.60747e-05
-4.17912e-05
-2.14277e-05
-2.02068e-06
-2.39433e-05
6.43431e-05
-8.71304e-05
0.000143035
-0.000123929
0.000209166
-7.3039e-05
0.00024421
-4.79656e-05
0.00023741
-1.47588e-05
0.000163382
5.08576e-05
9.2965e-06
0.000143066
-2.71526e-05
2.91718e-05
-4.64152e-05
-2.37195e-06
-3.68928e-05
-2.60121e-05
-1.75292e-05
-1.24765e-05
9.35855e-06
9.33282e-06
4.45246e-05
5.46264e-06
6.48551e-05
-3.51759e-05
7.31948e-05
-4.96179e-05
7.09097e-05
-3.97348e-05
6.52726e-05
-3.13965e-05
-2.87618e-05
6.38265e-05
-5.90044e-05
0.000180958
-7.59936e-05
6.21502e-05
-5.05044e-05
5.85348e-07
-7.48773e-06
-6.44443e-05
9.4127e-05
-0.000125558
0.000168458
-0.000161461
0.000202941
-0.000158412
0.000231517
-0.000101614
0.000212896
-2.93446e-05
0.000184091
1.40459e-05
0.000156216
7.87318e-05
0.000151339
0.000147942
2.29067e-05
0.000157604
-2.88663e-05
4.94011e-05
-1.2308e-05
-4.25704e-05
7.49206e-06
-3.22766e-05
3.36281e-05
-1.68033e-05
6.51768e-05
-2.6086e-05
8.9487e-05
-5.94861e-05
9.28357e-05
-5.29665e-05
9.80539e-05
-4.49531e-05
0.000101035
-3.4378e-05
-2.59563e-05
9.82297e-05
-2.15328e-05
0.000202491
-4.35866e-05
8.4204e-05
-2.04094e-05
-2.25918e-05
5.37991e-05
-0.000138653
0.000132908
-0.000204667
0.000184633
-0.000213186
0.000204989
-0.000178768
0.000215337
-0.000111962
0.000220008
-3.40159e-05
0.00020821
2.58438e-05
0.000210276
7.66658e-05
0.000239716
0.000118503
0.000238074
0.000159246
0.000147561
0.000139915
2.21242e-05
8.28661e-05
-3.30731e-05
2.29208e-05
-1.07971e-05
-3.90793e-05
1.24737e-05
-4.93569e-05
4.5726e-05
-9.27387e-05
5.58944e-05
-6.31349e-05
3.65999e-05
-2.56584e-05
-5.59262e-06
7.8145e-06
7.91498e-06
-3.9464e-05
2.71517e-05
0.000175339
4.2462e-05
6.88937e-05
8.771e-05
-6.78397e-05
0.000137149
-0.000188092
0.000171037
-0.000238555
0.00018569
-0.00022784
0.000188717
-0.000181794
0.000191234
-0.00011448
0.000203594
-4.63759e-05
0.000215878
1.35593e-05
0.000227392
6.51525e-05
0.00023985
0.000106044
0.000230725
0.000168371
0.000160125
0.000210514
7.53082e-05
0.000167683
-4.7379e-06
0.000102967
-2.81985e-05
-1.56186e-05
2.30875e-05
-0.000100643
5.25237e-05
-0.000122175
5.48065e-05
-6.54177e-05
1.25586e-05
1.65893e-05
-2.56262e-05
4.59991e-05
-3.18315e-05
1.41198e-05
6.3157e-05
0.000112182
0.000102534
2.95171e-05
0.000149769
-0.000115075
0.000172204
-0.000210527
0.000169651
-0.000236001
0.000157138
-0.000215327
0.000145165
-0.000169821
0.000139857
-0.000109171
0.000144282
-5.08011e-05
0.000160508
-2.66755e-06
0.000177575
4.80856e-05
0.00017794
0.00010568
0.000163742
0.000182568
0.000137564
0.000236693
9.29025e-05
0.000212344
5.3206e-05
0.000142663
3.93344e-05
-1.74739e-06
5.00903e-05
-0.000111399
5.47897e-05
-0.000126874
5.86454e-05
-6.92734e-05
5.2514e-05
2.27206e-05
5.87446e-05
3.97683e-05
-7.17186e-05
9.86315e-05
6.70734e-05
4.51088e-05
0.000129696
-3.31049e-05
0.000161368
-0.000146747
0.000156891
-0.00020605
0.000131519
-0.000210629
0.000108791
-0.000192599
9.42475e-05
-0.000155277
8.66462e-05
-0.00010157
8.38509e-05
-4.80058e-05
8.87351e-05
-7.55199e-06
9.4748e-05
4.20726e-05
9.17145e-05
0.000108713
8.64911e-05
0.000187791
8.26584e-05
0.000240526
7.14395e-05
0.000223563
6.34982e-05
0.000150605
6.77082e-05
-5.95738e-06
5.83954e-05
-0.000102086
3.9252e-05
-0.000107731
4.03976e-05
-7.0419e-05
6.12635e-05
1.85436e-06
0.000109103
-8.07097e-06
-8.99816e-05
0.000127366
5.55185e-05
-1.04097e-05
0.000118816
-9.64024e-05
0.000136008
-0.000163939
0.000109177
-0.000179219
7.481e-05
-0.000176262
5.05709e-05
-0.00016836
3.2913e-05
-0.00013762
2.10637e-05
-8.97211e-05
1.52046e-05
-4.21467e-05
8.33458e-06
-6.82061e-07
4.69593e-06
4.5711e-05
4.5381e-06
0.000108871
9.89073e-06
0.000182439
2.45129e-05
0.000225904
3.09219e-05
0.000217154
5.424e-05
0.000127287
6.481e-05
-1.65273e-05
4.92096e-05
-8.64853e-05
1.97995e-05
-7.83206e-05
3.4367e-05
-8.49866e-05
6.97806e-05
-3.35594e-05
0.000116228
-5.45182e-05
-6.92351e-05
9.54814e-05
5.39107e-05
-6.43201e-05
0.000103172
-0.000145664
9.05483e-05
-0.000151316
4.81452e-05
-0.000136816
9.97431e-06
-0.000138091
-2.38966e-05
-0.000134489
-5.16565e-05
-0.000109859
-6.96339e-05
-7.17436e-05
-7.70764e-05
-3.47042e-05
-7.98169e-05
2.0583e-06
-7.89641e-05
4.4858e-05
-7.17259e-05
0.000101633
-5.15284e-05
0.000162241
-2.44631e-05
0.000198839
-1.43491e-06
0.000194126
4.21466e-05
8.37053e-05
5.06048e-05
-2.49855e-05
2.22921e-05
-5.81727e-05
7.71076e-06
-6.37395e-05
2.259e-05
-9.98659e-05
4.47484e-05
-5.57179e-05
5.51584e-05
-6.49281e-05
-1.81844e-05
4.10756e-06
5.65115e-05
-0.000120832
6.30098e-05
-0.000152162
2.48388e-05
-0.000113144
-1.38474e-05
-9.81302e-05
-5.28103e-05
-9.91282e-05
-9.63323e-05
-9.0967e-05
-0.000134226
-7.19657e-05
-0.000158394
-4.75753e-05
-0.000166709
-2.63889e-05
-0.00016182
-2.83152e-06
-0.000146215
2.92538e-05
-0.000123894
7.9311e-05
-9.70052e-05
0.000135353
-6.47277e-05
0.000166561
-1.53767e-05
0.000144775
2.95081e-05
3.88206e-05
1.38497e-05
-9.32712e-06
-1.80552e-05
-2.62679e-05
-1.89008e-05
-6.2894e-05
-4.09072e-05
-7.78596e-05
-4.76624e-05
-4.89626e-05
-7.1992e-05
-4.05984e-05
-6.01372e-06
-8.41627e-05
3.04789e-05
-0.000151311
6.94767e-06
-0.000128631
-2.25867e-05
-8.361e-05
-4.89912e-05
-7.17259e-05
-8.45875e-05
-6.35318e-05
-0.000126103
-4.94513e-05
-0.000159425
-3.86439e-05
-0.000177799
-2.92012e-05
-0.000178971
-2.52167e-05
-0.000167454
-1.43484e-05
-0.000151495
1.32947e-05
-0.000127139
5.49545e-05
-8.97239e-05
9.7938e-05
-4.43664e-05
0.000121204
7.35242e-06
9.30563e-05
3.94377e-06
4.22292e-05
-4.83167e-05
4.29333e-05
-7.1671e-05
-2.91377e-06
-8.58906e-05
-4.86744e-05
-0.000118618
-4.51322e-05
-0.000126108
-4.14728e-05
-0.000118394
-4.83122e-05
-3.86439e-05
-8.57636e-05
3.40408e-06
-0.000154715
-2.04062e-05
-0.00010482
-3.49304e-05
-6.90856e-05
-5.01756e-05
-5.64806e-05
-6.99305e-05
-4.37769e-05
-9.5253e-05
-2.41286e-05
-0.000113037
-2.08597e-05
-0.000114853
-2.73848e-05
-0.000103898
-3.61719e-05
-8.60135e-05
-3.22334e-05
-7.06188e-05
-2.09996e-06
-5.57698e-05
4.01056e-05
-3.27729e-05
7.49411e-05
-9.79052e-06
9.82213e-05
-6.85348e-06
9.01192e-05
-6.14214e-05
9.6797e-05
-0.000113463
9.49747e-05
-0.000121504
5.12702e-06
-0.000140566
-2.96123e-05
-0.000149755
-3.59427e-05
-0.000141024
-5.02038e-05
-0.000129524
-5.98121e-05
-4.91988e-05
-0.000118969
-2.37295e-06
-0.000152342
-2.00474e-05
-8.71457e-05
-2.8814e-05
-6.03189e-05
-3.4457e-05
-5.08375e-05
-3.72224e-05
-4.10116e-05
-4.10442e-05
-2.03067e-05
-4.98835e-05
-1.20204e-05
-4.97116e-05
-2.75566e-05
-4.26476e-05
-4.32359e-05
-3.80491e-05
-3.68319e-05
-3.96839e-05
-4.64978e-07
-3.41645e-05
3.45861e-05
-2.05357e-05
6.13122e-05
-1.34946e-05
9.11801e-05
-3.43571e-05
0.000110982
-8.51977e-05
0.000147638
-0.000124193
0.00013397
-0.000137526
1.846e-05
-0.00015001
-1.71285e-05
-0.00015537
-3.05828e-05
-0.000164572
-4.10011e-05
-0.000194238
-3.01464e-05
-6.37788e-06
-0.000237059
1.08842e-06
-0.00015343
-1.28373e-05
-7.32197e-05
-1.98379e-05
-5.33183e-05
-2.07603e-05
-4.99152e-05
-1.55179e-05
-4.62542e-05
-2.7882e-06
-3.30364e-05
6.33852e-06
-2.1147e-05
4.437e-06
-2.5655e-05
-6.91896e-06
-3.18799e-05
-2.36299e-05
-2.0121e-05
-3.29503e-05
8.85538e-06
-3.362e-05
3.52557e-05
-3.07257e-05
5.84178e-05
-2.57465e-05
8.6201e-05
-3.70216e-05
0.000122257
-6.71532e-05
0.000177769
-0.000108029
0.000174845
-0.000132515
4.29465e-05
-0.000147055
-2.58895e-06
-0.000160026
-1.76114e-05
-0.000189719
-1.13087e-05
-0.000242239
2.23744e-05
2.96133e-05
-0.000278231
3.7336e-06
-0.000157164
-7.89248e-06
-6.15935e-05
-1.43663e-05
-4.68445e-05
-1.49188e-05
-4.93628e-05
-1.16305e-05
-4.95425e-05
-2.51997e-06
-4.2147e-05
9.16624e-06
-3.28332e-05
1.08289e-05
-2.73176e-05
-1.60453e-06
-1.94465e-05
-1.89226e-05
-2.80298e-06
-2.81713e-05
1.81041e-05
-3.07814e-05
3.78659e-05
-2.82297e-05
5.5866e-05
-2.11692e-05
7.91404e-05
-1.72949e-05
0.000118382
-2.55867e-05
0.000186061
-6.5147e-05
0.000214405
-0.000112106
8.99053e-05
-0.000134407
1.97123e-05
-0.000157204
5.18556e-06
-0.000186344
1.78313e-05
-0.000224601
6.06321e-05
4.67868e-05
-0.000241775
3.17089e-07
-0.000157481
-6.58142e-06
-5.46952e-05
-1.33343e-05
-4.00916e-05
-1.48297e-05
-4.78675e-05
-1.29862e-05
-5.1386e-05
-6.10199e-06
-4.90312e-05
3.41735e-06
-4.23525e-05
7.64271e-06
-3.1543e-05
3.37056e-06
-1.51743e-05
-4.77693e-06
5.3445e-06
-1.21343e-05
2.54614e-05
-1.65766e-05
4.23081e-05
-1.63208e-05
5.56101e-05
-8.67939e-06
7.14989e-05
5.77178e-06
0.000103931
1.80779e-05
0.000173755
-8.2496e-06
0.000240733
-7.27196e-05
0.000154375
-0.000102522
4.95143e-05
-0.000124501
2.71646e-05
-0.00014482
3.81508e-05
-0.000149531
6.53427e-05
5.91758e-05
-0.00016192
-4.91629e-06
-0.000152565
-8.26404e-06
-5.13477e-05
-1.56587e-05
-3.2697e-05
-1.8019e-05
-4.55074e-05
-1.53281e-05
-5.4077e-05
-5.72252e-06
-5.86367e-05
7.88519e-06
-5.59603e-05
1.87472e-05
-4.24051e-05
2.15252e-05
-1.79524e-05
1.61142e-05
1.07554e-05
8.25476e-06
3.33206e-05
2.02954e-06
4.85331e-05
-9.4108e-07
5.85805e-05
3.74342e-06
6.68143e-05
2.04006e-05
8.7274e-05
4.92575e-05
0.000144898
5.78185e-05
0.000232171
-9.25314e-06
0.000221447
-6.31932e-05
0.000103454
-7.77579e-05
4.17292e-05
-8.6387e-05
4.67799e-05
-8.42138e-05
6.31695e-05
5.9914e-05
-8.49522e-05
-9.89624e-06
-0.000142668
-1.14134e-05
-4.98306e-05
-2.07148e-05
-2.33957e-05
-2.40264e-05
-4.21958e-05
-2.01615e-05
-5.79419e-05
-9.15533e-06
-6.96429e-05
5.26216e-06
-7.03779e-05
2.11655e-05
-5.83085e-05
3.42678e-05
-3.10549e-05
3.63009e-05
8.72199e-06
2.80479e-05
4.15734e-05
1.98863e-05
5.66946e-05
1.48038e-05
6.36628e-05
1.42965e-05
6.73213e-05
2.6829e-05
7.47415e-05
6.17299e-05
0.000109997
9.92021e-05
0.000194699
7.9168e-05
0.000241481
4.8352e-06
0.000177787
-3.03879e-05
7.69523e-05
-2.51414e-05
4.15333e-05
-1.31774e-05
5.12054e-05
5.307e-05
-6.33339e-06
-1.41961e-05
-0.000128472
-1.58594e-05
-4.81673e-05
-2.93797e-05
-9.87557e-06
-3.40555e-05
-3.752e-05
-3.13768e-05
-6.06207e-05
-2.62488e-05
-7.47708e-05
-1.91952e-05
-7.74316e-05
-5.77455e-06
-7.17293e-05
1.60001e-05
-5.28298e-05
3.56619e-05
-1.094e-05
3.86844e-05
3.85506e-05
3.36592e-05
6.17197e-05
2.89291e-05
6.83928e-05
2.62121e-05
7.00381e-05
3.09004e-05
7.00532e-05
5.9075e-05
8.18221e-05
0.000113856
0.000139918
0.000140509
0.000214828
0.000106939
0.000211357
4.45552e-05
0.000139336
1.82525e-05
6.78361e-05
2.69773e-05
4.24805e-05
2.91165e-05
5.09308e-05
-1.78389e-05
-0.000110634
-2.6667e-05
-3.93393e-05
-4.28021e-05
6.25959e-06
-4.87765e-05
-3.15458e-05
-5.20131e-05
-5.73842e-05
-5.77016e-05
-6.90823e-05
-5.93184e-05
-7.58149e-05
-5.12108e-05
-7.98369e-05
-3.18808e-05
-7.21601e-05
-5.6757e-07
-4.22533e-05
2.6049e-05
1.1934e-05
3.59702e-05
5.17986e-05
3.8149e-05
6.62139e-05
3.73444e-05
7.08426e-05
3.76681e-05
6.97296e-05
5.1117e-05
6.83733e-05
0.000100328
9.07073e-05
0.000157821
0.000157335
0.000178717
0.000190461
0.00015789
0.000160164
0.00012188
0.000103846
0.000105367
5.89934e-05
3.64615e-05
9.80215e-05
-2.20808e-05
-8.85529e-05
-4.50654e-05
-1.63547e-05
-5.87738e-05
1.99679e-05
-6.69649e-05
-2.33548e-05
-7.97839e-05
-4.45651e-05
-9.42735e-05
-5.45926e-05
-0.000101829
-6.82589e-05
-9.84968e-05
-8.31696e-05
-8.35347e-05
-8.71223e-05
-5.59754e-05
-6.98126e-05
-1.49533e-05
-2.9088e-05
1.96416e-05
1.72036e-05
3.84935e-05
4.7362e-05
4.44133e-05
6.49226e-05
4.57039e-05
6.84389e-05
4.87797e-05
6.52975e-05
7.39053e-05
6.55815e-05
0.000130509
0.000100731
0.000181836
0.000139133
0.000202473
0.000139527
0.000198602
0.000107717
0.000186975
7.06204e-05
4.67603e-05
0.000176676
-2.90491e-05
-5.95038e-05
-6.08472e-05
1.54434e-05
-7.20665e-05
3.11871e-05
-8.55189e-05
-9.90242e-06
-0.000106199
-2.38854e-05
-0.000125446
-3.5345e-05
-0.000135114
-5.85912e-05
-0.000135628
-8.26556e-05
-0.000126434
-9.6316e-05
-0.000103984
-9.22626e-05
-6.55461e-05
-6.75254e-05
-1.71436e-05
-3.11989e-05
2.25737e-05
7.64451e-06
4.35939e-05
4.39024e-05
5.17955e-05
6.02373e-05
5.32674e-05
6.38257e-05
5.75502e-05
6.12987e-05
8.84768e-05
6.98045e-05
0.000136529
9.108e-05
0.000176752
9.93048e-05
0.000199581
8.48874e-05
0.000210577
5.96242e-05
3.76639e-05
0.000219674
-3.63997e-05
-2.31042e-05
-6.59302e-05
4.4974e-05
-7.97704e-05
4.50274e-05
-9.96732e-05
1.00003e-05
-0.000125374
1.81553e-06
-0.000147542
-1.31768e-05
-0.000159095
-4.70378e-05
-0.000162612
-7.91388e-05
-0.000156895
-0.000102033
-0.000138886
-0.000110271
-0.000105724
-0.000100688
-6.08204e-05
-7.6102e-05
-1.23717e-05
-4.08042e-05
2.7517e-05
4.01351e-06
5.1349e-05
3.64054e-05
5.96455e-05
5.55293e-05
5.95057e-05
6.14385e-05
6.7184e-05
6.21262e-05
9.23326e-05
6.59312e-05
0.00012486
6.67774e-05
0.000152824
5.6923e-05
0.000173825
3.86235e-05
1.90886e-05
0.000192401
-3.89117e-05
1.58076e-05
-6.14864e-05
6.75486e-05
-8.16626e-05
6.52037e-05
-0.000107311
3.56483e-05
-0.000136603
3.11077e-05
-0.000160874
1.10951e-05
-0.00017595
-3.19626e-05
-0.000181668
-7.34207e-05
-0.000176051
-0.00010765
-0.000158121
-0.000128201
-0.00012811
-0.000130698
-8.85864e-05
-0.000115626
-4.43601e-05
-8.50305e-05
3.72615e-06
-4.40728e-05
4.08572e-05
-7.25802e-07
6.10937e-05
3.52927e-05
6.67083e-05
5.58237e-05
6.81429e-05
6.06914e-05
7.70183e-05
5.70559e-05
9.45991e-05
4.91967e-05
0.000114957
3.65655e-05
0.000134129
1.94514e-05
-2.59958e-07
0.000153477
-3.47513e-05
5.05589e-05
-5.21133e-05
8.49108e-05
-7.63498e-05
8.94403e-05
-0.000105597
6.48957e-05
-0.000136618
6.21288e-05
-0.000163109
3.75859e-05
-0.00018118
-1.38907e-05
-0.000188827
-6.57737e-05
-0.000184289
-0.000112188
-0.00016756
-0.00014493
-0.000139839
-0.000158419
-0.000103321
-0.000152144
-6.03317e-05
-0.00012802
-1.44484e-05
-8.9956e-05
2.67098e-05
-4.18841e-05
5.34951e-05
8.50716e-06
6.57068e-05
4.36121e-05
6.97391e-05
5.66591e-05
7.45404e-05
5.22547e-05
8.48437e-05
3.88934e-05
9.97571e-05
2.16521e-05
0.000116995
2.21394e-06
-1.86137e-05
0.000135348
-3.12603e-05
8.18193e-05
-4.00175e-05
9.36681e-05
-6.00615e-05
0.000109484
-9.18899e-05
9.67243e-05
-0.000123251
9.34895e-05
-0.000151035
6.53704e-05
-0.000171482
6.55666e-06
-0.000181532
-5.57243e-05
-0.000179888
-0.000113831
-0.00016652
-0.000158298
-0.000143045
-0.000181895
-0.000111245
-0.000183944
-7.23953e-05
-0.00016687
-2.92512e-05
-0.0001331
1.10904e-05
-8.22257e-05
3.93152e-05
-1.97176e-05
5.26306e-05
3.02969e-05
5.91991e-05
5.00907e-05
6.50192e-05
4.64348e-05
7.35095e-05
3.04033e-05
8.56908e-05
9.4708e-06
0.000100736
-1.28308e-05
-3.64505e-05
0.000118573
-3.10659e-05
0.000112885
-3.19955e-05
9.4598e-05
-3.45778e-05
0.000112067
-6.72872e-05
0.000129434
-9.67386e-05
0.000122941
-0.000124538
9.31695e-05
-0.000147899
2.99176e-05
-0.000161599
-4.20235e-05
-0.000164529
-0.000110901
-0.000156376
-0.000166451
-0.000138804
-0.000199466
-0.000114152
-0.000208596
-8.33096e-05
-0.000197712
-4.7532e-05
-0.000168878
-1.14033e-05
-0.000118354
1.67508e-05
-4.78717e-05
3.0498e-05
1.65499e-05
3.73801e-05
4.32088e-05
4.5413e-05
3.84021e-05
5.48235e-05
2.09929e-05
6.66615e-05
-2.36714e-06
8.09772e-05
-2.71465e-05
-5.39307e-05
9.84574e-05
-2.59182e-05
0.000138804
-2.77655e-05
9.64454e-05
-9.65155e-06
9.3953e-05
-3.27718e-05
0.000152554
-5.76208e-05
0.00014779
-8.59112e-05
0.00012146
-0.00011377
5.77765e-05
-0.000132886
-2.29074e-05
-0.000142052
-0.000101735
-0.00014058
-0.000167923
-0.00013006
-0.000209986
-0.000113605
-0.00022505
-9.26879e-05
-0.000218629
-6.75613e-05
-0.000194004
-4.04058e-05
-0.00014551
-1.56125e-05
-7.26652e-05
1.31715e-06
-3.79644e-07
9.73885e-06
3.47874e-05
2.06478e-05
2.74933e-05
3.25778e-05
9.06305e-06
4.46495e-05
-1.44389e-05
5.7463e-05
-3.996e-05
-6.89892e-05
7.25215e-05
-9.07566e-06
0.000147879
-1.88318e-05
0.000106201
9.1097e-06
6.60116e-05
4.58987e-06
0.000157074
-1.51231e-05
0.000167503
-4.10237e-05
0.00014736
-7.3617e-05
9.03698e-05
-9.90269e-05
2.50245e-06
-0.000115156
-8.56061e-05
-0.000121048
-0.000162032
-0.000118209
-0.000212824
-0.000110395
-0.000232864
-9.98515e-05
-0.000229173
-8.61902e-05
-0.000207666
-6.90911e-05
-0.000162609
-5.10421e-05
-9.0714e-05
-3.32639e-05
-1.81577e-05
-1.83797e-05
1.99033e-05
-3.84504e-06
1.29588e-05
1.06007e-05
-5.38261e-06
2.15567e-05
-2.53949e-05
3.08616e-05
-4.92648e-05
-7.83324e-05
4.02048e-05
1.26372e-05
0.000135242
2.70803e-06
0.00011613
2.38646e-05
4.48551e-05
3.88211e-05
0.000142118
2.55805e-05
0.000180744
1.69875e-06
0.000171242
-3.08547e-05
0.000122923
-6.18284e-05
3.34762e-05
-8.48663e-05
-6.25682e-05
-9.81209e-05
-0.000148777
-0.000102744
-0.000208201
-0.000103089
-0.00023252
-0.000102196
-0.000230065
-9.90126e-05
-0.000210849
-9.06606e-05
-0.000170961
-7.72792e-05
-0.000104095
-5.97482e-05
-3.56884e-05
-4.08311e-05
9.86424e-07
-2.392e-05
-3.95211e-06
-9.7936e-06
-1.9509e-05
-6.24611e-07
-3.45638e-05
4.44516e-06
-5.43345e-05
-7.91061e-05
5.21901e-06
1.67564e-05
0.000118486
2.35948e-05
0.000109292
3.7534e-05
3.09159e-05
6.99161e-05
0.000109735
6.75532e-05
0.000183107
4.68141e-05
0.000191981
1.43722e-05
0.000155365
-2.13631e-05
6.92115e-05
-5.17959e-05
-3.21353e-05
-7.21487e-05
-0.000128424
-8.36028e-05
-0.000196747
-9.07269e-05
-0.000225396
-9.74386e-05
-0.000223353
-0.000102805
-0.000205482
-0.000101743
-0.000172023
-9.16795e-05
-0.000114159
-7.50819e-05
-5.2286e-05
-5.49684e-05
-1.91269e-05
-3.84154e-05
-2.05049e-05
-2.61625e-05
-3.17617e-05
-1.92114e-05
-4.15147e-05
-1.8736e-05
-5.48096e-05
-7.26638e-05
-2.5178e-05
2.3644e-05
9.48417e-05
4.77704e-05
8.51655e-05
5.61088e-05
2.25775e-05
9.47729e-05
7.10715e-05
0.000106474
0.000171405
8.6861e-05
0.000211595
5.63665e-05
0.00018586
1.95577e-05
0.00010602
-1.73413e-05
4.76389e-06
-4.39944e-05
-0.000101771
-6.15174e-05
-0.000179224
-7.39498e-05
-0.000212963
-8.57569e-05
-0.000211546
-9.72119e-05
-0.000194027
-0.000102083
-0.000167151
-9.53197e-05
-0.000120922
-7.99595e-05
-6.7646e-05
-6.211e-05
-3.69763e-05
-4.74382e-05
-3.51765e-05
-3.71336e-05
-4.20661e-05
-3.15386e-05
-4.71096e-05
-3.24882e-05
-5.38598e-05
-6.27373e-05
-4.24144e-05
3.49647e-05
5.98769e-05
7.69395e-05
4.31908e-05
9.2737e-05
6.78005e-06
0.000120953
4.28559e-05
0.000136197
0.000156161
0.000118357
0.000229434
8.62769e-05
0.00021794
5.12715e-05
0.000141026
1.48617e-05
4.11739e-05
-1.57361e-05
-7.11731e-05
-3.80604e-05
-0.000156899
-5.43949e-05
-0.000196629
-6.91325e-05
-0.000196809
-8.39702e-05
-0.000179189
-9.35725e-05
-0.000157549
-9.12761e-05
-0.000123218
-7.826e-05
-8.06619e-05
-6.3051e-05
-5.21853e-05
-5.10542e-05
-4.71732e-05
-4.27388e-05
-5.03814e-05
-3.79296e-05
-5.19187e-05
-3.7832e-05
-5.39573e-05
-5.70321e-05
-4.35372e-05
4.27758e-05
1.7101e-05
0.000100578
-1.46116e-05
0.000134009
-2.66501e-05
0.000148399
2.84657e-05
0.000153718
0.000150842
0.00013457
0.000248582
9.99435e-05
0.000252567
6.56528e-05
0.000175316
3.52729e-05
7.15538e-05
8.54554e-06
-4.44455e-05
-1.52145e-05
-0.000133139
-3.4015e-05
-0.000177828
-5.02438e-05
-0.00018058
-6.5991e-05
-0.000163442
-7.85642e-05
-0.000144976
-8.14522e-05
-0.00012033
-7.25825e-05
-8.95316e-05
-6.00375e-05
-6.47303e-05
-5.06167e-05
-5.65939e-05
-4.42302e-05
-5.67679e-05
-4.03418e-05
-5.58071e-05
-3.97564e-05
-5.45427e-05
-5.41206e-05
-4.26679e-05
5.22204e-05
-3.51193e-05
0.000109862
-7.22529e-05
0.000142629
-5.94168e-05
0.00015213
1.89647e-05
0.000150304
0.000152668
0.000130826
0.00026806
9.88494e-05
0.000284544
7.00464e-05
0.000204119
4.66191e-05
9.49812e-05
2.61369e-05
-2.39633e-05
5.26132e-06
-0.000112263
-1.45338e-05
-0.000158033
-3.16129e-05
-0.000163501
-4.67928e-05
-0.000148262
-5.989e-05
-0.000131878
-6.68769e-05
-0.000113343
-6.39189e-05
-9.24896e-05
-5.50655e-05
-7.35837e-05
-4.76238e-05
-6.40356e-05
-4.27241e-05
-6.16676e-05
-3.96413e-05
-5.88898e-05
-3.88772e-05
-5.53067e-05
-5.21941e-05
-4.08036e-05
5.07376e-05
-8.58567e-05
9.70465e-05
-0.000118562
0.000125094
-8.74644e-05
0.000131253
1.2806e-05
0.000125848
0.000158073
0.000108592
0.000285316
8.67184e-05
0.000306418
6.78866e-05
0.000222951
5.38352e-05
0.000109033
3.93776e-05
-9.50563e-06
2.17527e-05
-9.46385e-05
2.44202e-06
-0.000138722
-1.5093e-05
-0.000145966
-2.93502e-05
-0.000134005
-4.09931e-05
-0.000120235
-4.91464e-05
-0.00010519
-5.12967e-05
-9.03393e-05
-4.73288e-05