/*--------------------------------*- C++ -*----------------------------------*\
| =========                 |                                                 |
| \\      /  F ield         | OpenFOAM: The Open Source CFD Toolbox           |
|  \\    /   O peration     | Version:  2.3.0                                 |
|   \\  /    A nd           | Web:      www.OpenFOAM.org                      |
|    \\/     M anipulation  |                                                 |
\*---------------------------------------------------------------------------*/
FoamFile
{
    version     2.0;
    format      ascii;
    class       volScalarField;
    location    "0.055";
    object      T;
}
// * * * * * * * * * * * * * * * * * * * * * * * * * * * * * * * * * * * * * //

dimensions      [0 0 0 1 0 0 0];

internalField   nonuniform List<scalar> 
12225
(
1.00702
1.00235
1.00097
1.00057
1.00029
1.0001
1.00001
0.999957
0.999926
0.999903
0.99988
0.999839
0.999743
0.999506
0.998916
0.997458
0.993806
0.984489
0.99388
0.995662
0.997505
0.998595
0.999122
0.9994
0.999575
0.999689
0.999762
0.999807
0.999829
0.999818
0.999745
0.999528
0.998969
0.997584
0.994206
0.986
1.00047
1.00054
1.00043
1.00038
1.00027
1.00015
1.00007
1.00002
0.999984
0.999957
0.99993
0.999888
0.999795
0.999576
0.999044
0.997777
0.994836
0.988327
1.00033
0.999923
0.999616
0.999668
0.999738
0.999771
0.999797
0.999821
0.99984
0.999852
0.999853
0.999832
0.99976
0.999569
0.999099
0.998
0.995567
0.990597
1.00018
1
0.999776
0.999808
0.999867
0.999886
0.999893
0.999898
0.999901
0.9999
0.999892
0.999866
0.999796
0.999622
0.999212
0.99829
0.996358
0.992689
1.00003
0.999994
0.999833
0.999822
0.999855
0.999871
0.999877
0.999884
0.999888
0.99989
0.999885
0.999863
0.999803
0.999656
0.999314
0.998576
0.997102
0.994466
1.00001
1.00003
0.999913
0.999874
0.999883
0.999891
0.999895
0.999898
0.999901
0.999902
0.999896
0.999877
0.999825
0.999702
0.999428
0.99886
0.997776
0.995928
1
1.00003
0.999948
0.999903
0.9999
0.999903
0.999904
0.999906
0.999908
0.999908
0.999903
0.999886
0.999843
0.999741
0.999521
0.999078
0.99826
0.99691
1
1.00003
0.99997
0.999929
0.999919
0.999917
0.999916
0.999916
0.999916
0.999916
0.99991
0.999896
0.999859
0.999775
0.999599
0.999253
0.998632
0.997631
0.999998
1.00002
0.999986
0.999952
0.999938
0.999932
0.999929
0.999927
0.999926
0.999925
0.999919
0.999907
0.999878
0.999811
0.999675
0.999418
0.998967
0.998255
0.999998
1.00002
0.999996
0.99997
0.999956
0.999948
0.999943
0.99994
0.999938
0.999935
0.99993
0.999919
0.999897
0.999848
0.999748
0.999565
0.999254
0.998772
0.999998
1.00001
1
0.999983
0.999972
0.999964
0.999958
0.999954
0.99995
0.999947
0.999942
0.999934
0.999917
0.999881
0.999814
0.999691
0.999487
0.99918
0.999998
1.00001
1.00001
0.999993
0.999984
0.999977
0.999972
0.999967
0.999962
0.999959
0.999955
0.999947
0.999936
0.999912
0.999868
0.999791
0.999666
0.999482
0.999998
1.00001
1.00001
1
0.999993
0.999986
0.999982
0.999979
0.999975
0.999971
0.999967
0.999962
0.999953
0.999938
0.999911
0.999867
0.999796
0.999693
0.999998
1.00001
1.00001
1
0.999998
0.999995
0.999991
0.999988
0.999985
0.999982
0.999979
0.999975
0.999969
0.999959
0.999943
0.99992
0.999882
0.999831
0.999999
1.00001
1.00001
1
1
1
0.999997
0.999994
0.999992
0.999989
0.999988
0.999987
0.999982
0.999976
0.999967
0.999954
0.999936
0.999912
0.999998
1.00001
1.00001
1
1
1
1
0.999999
0.999997
0.999996
0.999994
0.999991
0.999989
0.999987
0.999983
0.999975
0.999966
0.999956
0.999999
1
1.00001
1.00001
1.00001
1.00001
1
0.999999
0.999998
0.999998
0.999997
0.999996
0.999993
0.99999
0.999986
0.999982
0.999978
0.999975
0.999999
1.00001
1.00001
1.00001
1.00001
1.00001
1
0.999999
0.999996
0.999995
0.999993
0.999991
0.999989
0.999988
0.999986
0.999982
0.999979
0.999979
0.999998
1.00001
1.00001
1.00001
1
1
1
0.999996
0.999992
0.999989
0.999988
0.999986
0.999984
0.999983
0.999981
0.999978
0.999976
0.999977
0.999997
1.00001
1.00001
1.00001
1
0.999995
0.999992
0.999987
0.999983
0.99998
0.999977
0.999975
0.999973
0.999972
0.999971
0.999969
0.999967
0.999968
0.999997
1.00001
1.00002
1.00001
0.999995
0.999987
0.999982
0.999976
0.999973
0.99997
0.999967
0.999966
0.999966
0.999964
0.999963
0.999962
0.99996
0.999961
0.999996
1.00003
1.00002
0.999994
0.999975
0.999966
0.999959
0.999954
0.999952
0.99995
0.999949
0.999948
0.999948
0.999949
0.999948
0.999948
0.999948
0.999949
0.999994
1.00005
1.00003
0.999984
0.999963
0.999957
0.999953
0.99995
0.999949
0.999948
0.999947
0.999947
0.999948
0.999948
0.999948
0.999948
0.999948
0.999949
0.999986
1.00005
0.999974
0.999913
0.9999
0.9999
0.9999
0.999902
0.999905
0.999908
0.999911
0.999914
0.999918
0.999921
0.999925
0.999927
0.999928
0.999931
1.00011
1.00014
0.999977
0.99993
0.999954
0.99997
0.999971
0.999969
0.999965
0.999962
0.999959
0.999954
0.999952
0.99995
0.999949
0.999948
0.999947
0.999947
1.00029
1.00004
0.999634
0.999556
0.999609
0.999662
0.999706
0.999746
0.999781
0.999809
0.999832
0.99985
0.999865
0.999878
0.999888
0.999897
0.999905
0.999908
1.00089
1.00118
1.00097
1.00079
1.00062
1.00045
1.00031
1.00022
1.00015
1.0001
1.00006
1.00003
1.00001
0.999992
0.999981
0.999974
0.99997
0.999957
0.993498
0.994872
0.996789
0.998012
0.998681
0.999064
0.999313
0.999485
0.999605
0.99969
0.99975
0.999794
0.999827
0.999852
0.999872
0.999888
0.999905
0.999901
1.00657
1.00291
1.00132
1.00082
1.00049
1.00027
1.00014
1.00007
1.00002
0.99999
0.999968
0.999954
0.999944
0.999937
0.999933
0.999931
0.999938
0.999912
0.550028
0.549994
0.549892
0.54975
0.549575
0.549359
0.549106
0.548815
0.548484
0.548118
0.547719
0.547287
0.546824
0.546329
0.545806
0.545255
0.54468
0.544081
0.543462
0.542825
0.542172
0.541505
0.540828
0.540143
0.539453
0.53876
0.538068
0.537379
0.536696
0.536022
0.53536
0.534713
0.534083
0.533474
0.532887
0.532326
0.531793
0.53129
0.53082
0.530386
0.529988
0.52963
0.529313
0.529039
0.528809
0.528625
0.528487
0.528398
0.528357
0.528367
0.528426
0.528536
0.528697
0.528908
0.52917
0.529482
0.529844
0.530254
0.530712
0.531218
0.531769
0.532366
0.533006
0.533687
0.534409
0.53517
0.535968
0.536801
0.537668
0.538567
0.539496
0.540453
0.541437
0.542444
0.543475
0.544526
0.545595
0.546682
0.547784
0.5489
0.550026
0.551163
0.552308
0.553459
0.554614
0.555773
0.556933
0.558093
0.55925
0.560404
0.561553
0.562695
0.56383
0.564955
0.566069
0.567171
0.568259
0.569334
0.570392
0.571434
0.572459
0.573465
0.574452
0.57542
0.576366
0.577292
0.578195
0.579076
0.579934
0.580769
0.58158
0.582367
0.583128
0.583864
0.584574
0.585257
0.585913
0.586541
0.587142
0.587713
0.588255
0.588767
0.589248
0.589698
0.590117
0.590502
0.590855
0.591174
0.591459
0.591708
0.591922
0.592099
0.592239
0.592341
0.592405
0.592429
0.592412
0.592356
0.592257
0.592116
0.591933
0.591705
0.591432
0.591115
0.590751
0.59034
0.589881
0.589375
0.588819
0.588214
0.587558
0.586851
0.586092
0.585281
0.584417
0.5835
0.582528
0.581502
0.58042
0.579284
0.578089
0.576837
0.575536
0.574154
0.572714
0.571216
0.569642
0.568011
0.566324
0.564581
0.562781
0.560924
0.559011
0.557044
0.555028
0.552964
0.550884
0.548745
0.546853
0.544041
0.551266
0.551217
0.551136
0.551014
0.550851
0.550649
0.550407
0.550125
0.549801
0.549438
0.549038
0.548602
0.548133
0.547633
0.547103
0.546547
0.545965
0.54536
0.544735
0.544092
0.543433
0.542761
0.542079
0.54139
0.540695
0.539998
0.539302
0.538609
0.537923
0.537245
0.53658
0.535929
0.535295
0.534682
0.534092
0.533527
0.53299
0.532484
0.53201
0.531571
0.531169
0.530806
0.530484
0.530205
0.52997
0.529781
0.529638
0.529544
0.529498
0.529501
0.529555
0.529658
0.529813
0.530018
0.530273
0.530578
0.530933
0.531336
0.531788
0.532286
0.53283
0.533419
0.534052
0.534726
0.535441
0.536195
0.536986
0.537812
0.538672
0.539564
0.540486
0.541436
0.542413
0.543414
0.544438
0.545483
0.546547
0.547628
0.548724
0.549834
0.550955
0.552087
0.553227
0.554373
0.555524
0.556679
0.557835
0.558991
0.560145
0.561295
0.562441
0.56358
0.564712
0.565834
0.566946
0.568045
0.569132
0.570204
0.57126
0.5723
0.573323
0.574328
0.575313
0.576279
0.577224
0.578148
0.57905
0.57993
0.580787
0.58162
0.58243
0.583215
0.583975
0.584709
0.585418
0.586099
0.586754
0.58738
0.587979
0.588548
0.589088
0.589598
0.590077
0.590525
0.590941
0.591324
0.591674
0.591991
0.592272
0.592519
0.592729
0.592903
0.59304
0.593138
0.593198
0.593218
0.593198
0.593137
0.593034
0.592889
0.592701
0.592468
0.592191
0.591868
0.591499
0.591083
0.590619
0.590107
0.589545
0.588934
0.588272
0.587558
0.586793
0.585975
0.585104
0.584179
0.583199
0.582165
0.581074
0.579929
0.578723
0.577462
0.57615
0.574767
0.573332
0.571848
0.570296
0.568686
0.567018
0.565292
0.563508
0.561667
0.559769
0.557816
0.555813
0.553764
0.551697
0.549584
0.547644
0.545166
0.55377
0.55368
0.553577
0.553443
0.55327
0.553054
0.552797
0.552498
0.55216
0.551783
0.55137
0.550922
0.550442
0.549932
0.549392
0.548827
0.548236
0.547624
0.546992
0.546342
0.545678
0.545001
0.544314
0.543619
0.54292
0.542219
0.541519
0.540822
0.540132
0.53945
0.538781
0.538126
0.537488
0.53687
0.536274
0.535704
0.535162
0.534649
0.534169
0.533723
0.533314
0.532944
0.532614
0.532327
0.532083
0.531884
0.531732
0.531627
0.531571
0.531564
0.531607
0.531699
0.531842
0.532035
0.532278
0.532571
0.532913
0.533305
0.533743
0.534229
0.534761
0.535338
0.535957
0.536619
0.537322
0.538064
0.538843
0.539657
0.540506
0.541387
0.542298
0.543238
0.544205
0.545197
0.546211
0.547248
0.548304
0.549377
0.550467
0.55157
0.552686
0.553813
0.554949
0.556092
0.557241
0.558393
0.559548
0.560704
0.561858
0.56301
0.564158
0.5653
0.566435
0.567561
0.568678
0.569783
0.570875
0.571954
0.573017
0.574065
0.575095
0.576108
0.577102
0.578076
0.579031
0.579964
0.580875
0.581765
0.582632
0.583475
0.584295
0.58509
0.58586
0.586605
0.587323
0.588015
0.58868
0.589317
0.589925
0.590505
0.591055
0.591575
0.592063
0.592521
0.592946
0.593339
0.593698
0.594023
0.594313
0.594567
0.594786
0.594967
0.595111
0.595216
0.595282
0.595309
0.595295
0.595239
0.595141
0.595
0.594816
0.594587
0.594314
0.593994
0.593627
0.593213
0.59275
0.592239
0.591678
0.591067
0.590405
0.589691
0.588925
0.588105
0.587232
0.586305
0.585323
0.584285
0.583191
0.582042
0.580835
0.579571
0.578252
0.576869
0.575434
0.573948
0.572399
0.570792
0.569126
0.567402
0.56562
0.563779
0.561881
0.559928
0.557924
0.555872
0.553796
0.551673
0.549677
0.547355
0.557492
0.557368
0.557244
0.557094
0.556904
0.556668
0.556391
0.556074
0.555717
0.555324
0.554895
0.554432
0.553938
0.553414
0.552862
0.552284
0.551683
0.55106
0.550417
0.549758
0.549084
0.548399
0.547703
0.547001
0.546294
0.545586
0.544878
0.544174
0.543476
0.542787
0.542109
0.541446
0.5408
0.540174
0.53957
0.53899
0.538438
0.537915
0.537424
0.536967
0.536546
0.536163
0.53582
0.535519
0.535261
0.535048
0.534881
0.53476
0.534688
0.534664
0.534689
0.534764
0.534889
0.535064
0.535289
0.535563
0.535886
0.536258
0.536678
0.537145
0.537657
0.538214
0.538815
0.539458
0.540142
0.540865
0.541626
0.542423
0.543254
0.544118
0.545013
0.545937
0.546889
0.547866
0.548867
0.54989
0.550934
0.551996
0.553075
0.554169
0.555277
0.556396
0.557525
0.558663
0.559808
0.560958
0.562111
0.563266
0.564421
0.565575
0.566726
0.567872
0.569013
0.570146
0.57127
0.572383
0.573485
0.574574
0.575648
0.576708
0.577751
0.578777
0.579784
0.580773
0.581742
0.58269
0.583617
0.584522
0.585405
0.586264
0.587101
0.587913
0.5887
0.589461
0.590197
0.590906
0.591588
0.592242
0.592867
0.593464
0.594031
0.594567
0.595073
0.595546
0.595988
0.596396
0.596771
0.597111
0.597416
0.597685
0.597918
0.598113
0.598269
0.598388
0.598466
0.598504
0.598501
0.598456
0.598368
0.598237
0.598062
0.597841
0.597575
0.597262
0.596902
0.596494
0.596037
0.59553
0.594973
0.594365
0.593706
0.592994
0.59223
0.591411
0.590538
0.589611
0.588628
0.58759
0.586495
0.585344
0.584135
0.582868
0.581546
0.580163
0.578724
0.577231
0.575678
0.574067
0.572397
0.570668
0.568881
0.567036
0.565133
0.563173
0.561161
0.559099
0.557005
0.554861
0.552815
0.550545
0.56243
0.562283
0.562141
0.561976
0.561768
0.561515
0.561218
0.560881
0.560505
0.560092
0.559644
0.559163
0.558651
0.55811
0.557541
0.556948
0.556331
0.555694
0.555038
0.554366
0.55368
0.552982
0.552275
0.551562
0.550844
0.550125
0.549407
0.548692
0.547983
0.547284
0.546595
0.545921
0.545263
0.544625
0.544008
0.543416
0.54285
0.542313
0.541807
0.541335
0.540898
0.540498
0.540138
0.539819
0.539542
0.539309
0.539121
0.53898
0.538886
0.53884
0.538843
0.538895
0.538996
0.539147
0.539347
0.539597
0.539895
0.540242
0.540636
0.541078
0.541565
0.542097
0.542672
0.543291
0.54395
0.544648
0.545385
0.546158
0.546966
0.547807
0.54868
0.549583
0.550514
0.551471
0.552454
0.553459
0.554486
0.555532
0.556596
0.557677
0.558772
0.559881
0.561001
0.562131
0.563269
0.564413
0.565563
0.566716
0.567871
0.569026
0.570179
0.57133
0.572476
0.573615
0.574748
0.575871
0.576983
0.578084
0.579171
0.580245
0.581302
0.582344
0.583367
0.584373
0.585359
0.586325
0.58727
0.588194
0.589096
0.589976
0.590832
0.591664
0.592472
0.593254
0.59401
0.59474
0.595443
0.596118
0.596765
0.597382
0.59797
0.598527
0.599053
0.599546
0.600008
0.600436
0.60083
0.601189
0.601512
0.601799
0.602049
0.602261
0.602435
0.602568
0.602662
0.602715
0.602726
0.602694
0.602619
0.602499
0.602335
0.602125
0.601868
0.601564
0.601212
0.600811
0.600361
0.59986
0.599308
0.598705
0.598048
0.597339
0.596577
0.595759
0.594888
0.593961
0.592978
0.591939
0.590842
0.589688
0.588476
0.587207
0.58588
0.584494
0.58305
0.581551
0.579992
0.578375
0.576699
0.574964
0.573171
0.571319
0.569409
0.567442
0.56542
0.563344
0.561233
0.559065
0.556981
0.554703
0.568619
0.568457
0.5683
0.568118
0.567893
0.56762
0.567303
0.566945
0.566548
0.566113
0.565644
0.565142
0.56461
0.564049
0.563461
0.562849
0.562214
0.561559
0.560887
0.560198
0.559496
0.558783
0.558062
0.557334
0.556602
0.555869
0.555136
0.554408
0.553685
0.552971
0.552268
0.551579
0.550906
0.550252
0.549619
0.54901
0.548427
0.547872
0.547347
0.546855
0.546398
0.545977
0.545595
0.545253
0.544953
0.544696
0.544483
0.544316
0.544195
0.544122
0.544097
0.54412
0.544192
0.544313
0.544484
0.544703
0.544971
0.545286
0.54565
0.546059
0.546515
0.547016
0.54756
0.548147
0.548775
0.549443
0.55015
0.550893
0.551672
0.552485
0.55333
0.554205
0.55511
0.556042
0.557
0.557982
0.558987
0.560012
0.561057
0.56212
0.563198
0.564292
0.565398
0.566516
0.567644
0.56878
0.569923
0.571071
0.572223
0.573377
0.574531
0.575684
0.576834
0.57798
0.579119
0.580251
0.581374
0.582486
0.583587
0.584674
0.585747
0.586804
0.587845
0.588868
0.589872
0.590858
0.591823
0.592767
0.59369
0.594591
0.595469
0.596323
0.597153
0.597958
0.598738
0.599491
0.600217
0.600915
0.601585
0.602226
0.602836
0.603416
0.603965
0.604482
0.604965
0.605415
0.605831
0.606211
0.606555
0.606863
0.607132
0.607363
0.607555
0.607707
0.607818
0.607887
0.607914
0.607897
0.607836
0.60773
0.607578
0.60738
0.607134
0.60684
0.606496
0.606104
0.605661
0.605166
0.60462
0.604021
0.603368
0.602662
0.601903
0.601087
0.600216
0.599289
0.598304
0.597263
0.596164
0.595008
0.593793
0.592519
0.591188
0.589797
0.588348
0.586842
0.585277
0.583653
0.58197
0.580229
0.578429
0.57657
0.574652
0.572676
0.570644
0.568555
0.566425
0.564235
0.562116
0.559803
0.576095
0.575925
0.575754
0.575556
0.575313
0.57502
0.574683
0.574302
0.573883
0.573425
0.572933
0.572408
0.571852
0.571268
0.570658
0.570024
0.569368
0.568693
0.568
0.567292
0.566571
0.565839
0.565099
0.564353
0.563603
0.562852
0.562102
0.561356
0.560616
0.559884
0.559163
0.558455
0.557764
0.55709
0.556437
0.555807
0.555203
0.554625
0.554078
0.553562
0.553081
0.552635
0.552226
0.551857
0.551528
0.551242
0.551
0.550802
0.55065
0.550544
0.550486
0.550475
0.550513
0.550599
0.550734
0.550917
0.551148
0.551427
0.551753
0.552126
0.552544
0.553007
0.553514
0.554063
0.554654
0.555285
0.555955
0.556663
0.557406
0.558184
0.558995
0.559837
0.56071
0.56161
0.562537
0.56349
0.564467
0.565466
0.566485
0.567524
0.56858
0.569653
0.570741
0.571842
0.572955
0.574078
0.57521
0.576349
0.577494
0.578643
0.579794
0.580946
0.582098
0.583247
0.584391
0.58553
0.586661
0.587783
0.588895
0.589995
0.591082
0.592154
0.59321
0.59425
0.595273
0.596277
0.597261
0.598226
0.59917
0.600092
0.600992
0.601869
0.602722
0.60355
0.604353
0.60513
0.60588
0.606602
0.607296
0.607961
0.608596
0.6092
0.609773
0.610313
0.610821
0.611294
0.611732
0.612135
0.612501
0.61283
0.613121
0.613372
0.613584
0.613755
0.613884
0.613971
0.614014
0.614013
0.613968
0.613876
0.613738
0.613552
0.613318
0.613034
0.612701
0.612317
0.611881
0.611393
0.610853
0.61026
0.609612
0.608909
0.608151
0.607336
0.606466
0.605538
0.604553
0.60351
0.602408
0.601248
0.600029
0.598751
0.597415
0.596019
0.594564
0.593051
0.591479
0.589848
0.588159
0.58641
0.584603
0.582736
0.58081
0.578825
0.576782
0.574681
0.572534
0.570322
0.568171
0.565813
0.584918
0.58474
0.584555
0.584339
0.584076
0.583762
0.583402
0.582999
0.582554
0.582072
0.581554
0.581004
0.580423
0.579813
0.579178
0.578519
0.577839
0.577139
0.576422
0.575691
0.574947
0.574193
0.57343
0.572662
0.571891
0.571118
0.570347
0.569579
0.568817
0.568063
0.56732
0.56659
0.565875
0.565178
0.564501
0.563846
0.563216
0.562613
0.562038
0.561495
0.560984
0.560508
0.560069
0.559668
0.559307
0.558987
0.55871
0.558477
0.558288
0.558145
0.558049
0.558
0.557998
0.558043
0.558137
0.558278
0.558467
0.558703
0.558986
0.559316
0.55969
0.56011
0.560573
0.561079
0.561626
0.562214
0.562841
0.563505
0.564207
0.564943
0.565713
0.566515
0.567348
0.56821
0.5691
0.570017
0.570958
0.571924
0.572911
0.573919
0.574947
0.575993
0.577055
0.578133
0.579225
0.580329
0.581444
0.582569
0.583701
0.58484
0.585983
0.58713
0.588278
0.589425
0.59057
0.591712
0.592847
0.593975
0.595095
0.596204
0.597301
0.598385
0.599455
0.600509
0.601546
0.602567
0.603569
0.604552
0.605515
0.606457
0.607377
0.608274
0.609149
0.609999
0.610824
0.611624
0.612397
0.613143
0.613861
0.61455
0.615208
0.615836
0.616433
0.616996
0.617527
0.618023
0.618485
0.61891
0.619298
0.619649
0.619961
0.620233
0.620465
0.620655
0.620803
0.620908
0.620968
0.620984
0.620954
0.620877
0.620752
0.62058
0.620357
0.620085
0.619761
0.619387
0.61896
0.618479
0.617945
0.617357
0.616713
0.616013
0.615258
0.614445
0.613574
0.612646
0.61166
0.610615
0.60951
0.608347
0.607124
0.605841
0.604499
0.603098
0.601637
0.600117
0.598539
0.596901
0.595204
0.593448
0.591633
0.589759
0.587825
0.585831
0.583779
0.581665
0.579503
0.57727
0.575091
0.572687
0.595145
0.594958
0.594757
0.594521
0.594236
0.5939
0.593515
0.593086
0.592615
0.592106
0.59156
0.590981
0.590371
0.589733
0.589069
0.588382
0.587673
0.586945
0.586201
0.585442
0.584671
0.58389
0.583101
0.582306
0.581509
0.58071
0.579913
0.579119
0.578331
0.577551
0.576781
0.576024
0.575282
0.574558
0.573852
0.573169
0.572509
0.571875
0.57127
0.570694
0.57015
0.569641
0.569166
0.568729
0.568331
0.567974
0.567657
0.567384
0.567154
0.566969
0.566829
0.566736
0.566689
0.566689
0.566736
0.56683
0.566971
0.567159
0.567393
0.567672
0.567997
0.568366
0.568779
0.569235
0.569732
0.570269
0.570846
0.571461
0.572112
0.5728
0.573521
0.574276
0.575062
0.575878
0.576723
0.577596
0.578495
0.579419
0.580366
0.581336
0.582327
0.583338
0.584368
0.585415
0.586478
0.587555
0.588646
0.589748
0.590861
0.591983
0.593111
0.594245
0.595383
0.596522
0.597662
0.598799
0.599933
0.601061
0.602183
0.603296
0.604398
0.605489
0.606566
0.60763
0.608678
0.60971
0.610725
0.611722
0.6127
0.613658
0.614595
0.61551
0.616403
0.617272
0.618117
0.618937
0.619731
0.620497
0.621236
0.621946
0.622627
0.623276
0.623895
0.62448
0.625033
0.625551
0.626034
0.62648
0.626889
0.627261
0.627593
0.627885
0.628136
0.628345
0.628511
0.628633
0.62871
0.628742
0.628727
0.628664
0.628554
0.628394
0.628184
0.627922
0.627609
0.627244
0.626825
0.626351
0.625823
0.62524
0.6246
0.623904
0.623151
0.622339
0.62147
0.620541
0.619554
0.618507
0.6174
0.616233
0.615006
0.613719
0.612372
0.610965
0.609498
0.607972
0.606386
0.604742
0.603038
0.601275
0.599453
0.597572
0.59563
0.593629
0.591567
0.589443
0.587269
0.585019
0.582815
0.58037
0.60684
0.606642
0.606423
0.606165
0.605855
0.605493
0.605081
0.604624
0.604123
0.603583
0.603007
0.602396
0.601754
0.601083
0.600386
0.599666
0.598924
0.598164
0.597387
0.596596
0.595793
0.59498
0.59416
0.593334
0.592506
0.591676
0.590848
0.590023
0.589205
0.588394
0.587593
0.586805
0.586032
0.585275
0.584537
0.58382
0.583126
0.582458
0.581817
0.581205
0.580624
0.580075
0.579562
0.579085
0.578645
0.578245
0.577885
0.577566
0.577291
0.577059
0.576871
0.576728
0.576631
0.57658
0.576575
0.576616
0.576703
0.576836
0.577015
0.577239
0.577507
0.57782
0.578176
0.578574
0.579013
0.579493
0.580012
0.580569
0.581164
0.581794
0.582459
0.583157
0.583888
0.58465
0.585441
0.586261
0.587109
0.587983
0.588881
0.589804
0.590749
0.591716
0.592704
0.593711
0.594735
0.595777
0.596834
0.597906
0.59899
0.600085
0.60119
0.602302
0.603421
0.604544
0.605669
0.606795
0.607919
0.609039
0.610155
0.611263
0.612363
0.613453
0.614532
0.615598
0.61665
0.617687
0.618709
0.619714
0.6207
0.621668
0.622617
0.623544
0.62445
0.625333
0.626192
0.627027
0.627837
0.62862
0.629376
0.630104
0.630802
0.63147
0.632107
0.632711
0.633282
0.633819
0.63432
0.634785
0.635213
0.635603
0.635953
0.636263
0.636531
0.636757
0.636939
0.637078
0.637171
0.637217
0.637216
0.637167
0.637069
0.636921
0.636722
0.636471
0.636168
0.635811
0.6354
0.634933
0.634411
0.633833
0.633198
0.632505
0.631754
0.630944
0.630075
0.629146
0.628158
0.627109
0.626
0.62483
0.6236
0.622308
0.620957
0.619544
0.618072
0.61654
0.614949
0.613298
0.611588
0.609818
0.60799
0.606103
0.604155
0.602147
0.600079
0.597947
0.595762
0.593498
0.591275
0.588796
0.620073
0.619863
0.619623
0.619339
0.619001
0.61861
0.618167
0.617677
0.617143
0.616568
0.615956
0.615308
0.614629
0.61392
0.613185
0.612427
0.611647
0.610848
0.610033
0.609204
0.608364
0.607514
0.606657
0.605795
0.60493
0.604064
0.6032
0.60234
0.601485
0.600638
0.599802
0.598978
0.598168
0.597374
0.596599
0.595844
0.595112
0.594405
0.593724
0.593071
0.592448
0.591858
0.5913
0.590778
0.590293
0.589845
0.589437
0.589069
0.588743
0.588459
0.588218
0.588021
0.587869
0.587761
0.587698
0.58768
0.587708
0.58778
0.587897
0.588058
0.588264
0.588512
0.588803
0.589137
0.589511
0.589925
0.590378
0.59087
0.591398
0.591963
0.592562
0.593196
0.593862
0.59456
0.595288
0.596046
0.596832
0.597645
0.598485
0.59935
0.600239
0.601152
0.602086
0.603042
0.604018
0.605013
0.606026
0.607055
0.6081
0.609158
0.610228
0.611309
0.612398
0.613494
0.614594
0.615697
0.616801
0.617904
0.619003
0.620097
0.621185
0.622264
0.623334
0.624393
0.62544
0.626474
0.627494
0.628498
0.629486
0.630456
0.631408
0.63234
0.633251
0.634141
0.635009
0.635853
0.636672
0.637466
0.638233
0.638972
0.639683
0.640363
0.641013
0.641631
0.642216
0.642767
0.643283
0.643763
0.644206
0.64461
0.644974
0.645299
0.645582
0.645822
0.646018
0.64617
0.646276
0.646335
0.646347
0.646309
0.646222
0.646085
0.645896
0.645654
0.645359
0.64501
0.644606
0.644146
0.643629
0.643056
0.642425
0.641735
0.640986
0.640178
0.63931
0.638382
0.637393
0.636343
0.635231
0.634059
0.632826
0.631531
0.630175
0.628759
0.627282
0.625745
0.624148
0.622492
0.620777
0.619003
0.617169
0.615277
0.613325
0.611312
0.609239
0.607101
0.60491
0.602637
0.6004
0.597894
0.634923
0.634697
0.634432
0.634119
0.633749
0.633323
0.632844
0.632317
0.631743
0.631128
0.630473
0.629782
0.629059
0.628306
0.627526
0.626722
0.625897
0.625054
0.624194
0.623321
0.622436
0.621542
0.620642
0.619737
0.618829
0.617921
0.617016
0.616114
0.615218
0.61433
0.613452
0.612587
0.611735
0.6109
0.610083
0.609286
0.608511
0.60776
0.607034
0.606337
0.605668
0.60503
0.604425
0.603854
0.603318
0.602819
0.602357
0.601936
0.601554
0.601213
0.600914
0.600657
0.600444
0.600273
0.600147
0.600064
0.600025
0.60003
0.600079
0.600171
0.600305
0.600482
0.600701
0.600961
0.601262
0.601602
0.60198
0.602397
0.60285
0.60334
0.603864
0.604422
0.605014
0.605637
0.606291
0.606976
0.607689
0.608431
0.6092
0.609996
0.610818
0.611664
0.612534
0.613427
0.614342
0.615278
0.616234
0.617209
0.618201
0.619209
0.620232
0.621268
0.622315
0.623371
0.624434
0.625502
0.626573
0.627645
0.628716
0.629784
0.630847
0.631904
0.632954
0.633995
0.635026
0.636046
0.637053
0.638046
0.639025
0.639987
0.640933
0.64186
0.642768
0.643656
0.644523
0.645367
0.646188
0.646984
0.647755
0.648498
0.649214
0.649901
0.650558
0.651183
0.651776
0.652335
0.65286
0.653349
0.653801
0.654215
0.65459
0.654924
0.655217
0.655468
0.655674
0.655836
0.655952
0.656021
0.656042
0.656014
0.655936
0.655807
0.655626
0.655392
0.655104
0.654761
0.654363
0.653908
0.653397
0.652827
0.6522
0.651513
0.650767
0.64996
0.649093
0.648165
0.647176
0.646125
0.645013
0.643839
0.642603
0.641306
0.639947
0.638527
0.637047
0.635506
0.633906
0.632246
0.630527
0.628749
0.626912
0.625016
0.623062
0.621046
0.618971
0.616831
0.614637
0.612359
0.610115
0.607591
0.651475
0.65123
0.650936
0.650587
0.650179
0.649713
0.649191
0.648617
0.647996
0.647332
0.646626
0.645884
0.645108
0.644302
0.643468
0.642611
0.641732
0.640835
0.639922
0.638996
0.638059
0.637114
0.636162
0.635207
0.63425
0.633294
0.632339
0.63139
0.630446
0.629512
0.628587
0.627675
0.626777
0.625895
0.625031
0.624186
0.623363
0.622564
0.62179
0.621042
0.620323
0.619633
0.618975
0.61835
0.617759
0.617204
0.616685
0.616204
0.615761
0.615358
0.614995
0.614674
0.614393
0.614154
0.613958
0.613804
0.613692
0.613622
0.613595
0.613609
0.613665
0.613763
0.613901
0.614079
0.614297
0.614553
0.614847
0.615179
0.615547
0.615951
0.616389
0.616861
0.617366
0.617904
0.618473
0.619072
0.619701
0.620359
0.621045
0.621759
0.622499
0.623266
0.624058
0.624875
0.625715
0.626578
0.627463
0.62837
0.629296
0.63024
0.631202
0.632178
0.633169
0.63417
0.63518
0.636199
0.637223
0.63825
0.639278
0.640305
0.641331
0.642352
0.643369
0.644378
0.64538
0.646373
0.647355
0.648325
0.649282
0.650225
0.651153
0.652065
0.652959
0.653834
0.65469
0.655524
0.656337
0.657126
0.657891
0.65863
0.659342
0.660027
0.660682
0.661307
0.6619
0.662461
0.662987
0.663479
0.663934
0.664352
0.664731
0.66507
0.665368
0.665623
0.665836
0.666003
0.666125
0.6662
0.666227
0.666205
0.666132
0.666009
0.665834
0.665605
0.665322
0.664984
0.66459
0.66414
0.663632
0.663066
0.662441
0.661757
0.661013
0.660208
0.659342
0.658414
0.657425
0.656375
0.655262
0.654087
0.65285
0.651551
0.65019
0.648769
0.647286
0.645743
0.64414
0.642478
0.640757
0.638977
0.637139
0.635242
0.633287
0.631272
0.629197
0.627058
0.624865
0.622588
0.620341
0.617807
0.669822
0.669553
0.669224
0.668834
0.668379
0.667863
0.667287
0.666658
0.665978
0.665253
0.664485
0.663679
0.662839
0.661967
0.661069
0.660146
0.659203
0.658241
0.657265
0.656277
0.655278
0.654273
0.653262
0.652248
0.651234
0.650221
0.649211
0.648207
0.647209
0.646221
0.645244
0.644279
0.643328
0.642394
0.641478
0.640581
0.639705
0.638853
0.638024
0.637222
0.636447
0.635702
0.634986
0.634302
0.633651
0.633034
0.632453
0.631907
0.631398
0.630927
0.630494
0.630101
0.629747
0.629433
0.62916
0.628926
0.628734
0.628582
0.62847
0.628399
0.628368
0.628377
0.628424
0.628511
0.628636
0.628798
0.628998
0.629234
0.629505
0.629812
0.630152
0.630526
0.630933
0.631372
0.631843
0.632344
0.632875
0.633436
0.634025
0.634643
0.635289
0.635962
0.636661
0.637386
0.638137
0.638913
0.639712
0.640534
0.641378
0.642243
0.643127
0.644029
0.644945
0.645876
0.646819
0.647773
0.648733
0.649698
0.650668
0.651639
0.652611
0.653581
0.654549
0.655513
0.656471
0.657422
0.658365
0.659298
0.660221
0.661131
0.662029
0.662912
0.663779
0.66463
0.665462
0.666276
0.667068
0.66784
0.668588
0.669312
0.670011
0.670683
0.671328
0.671943
0.672528
0.673081
0.673602
0.674088
0.674539
0.674953
0.67533
0.675667
0.675964
0.676219
0.676431
0.676599
0.676722
0.676798
0.676826
0.676806
0.676736
0.676615
0.676442
0.676215
0.675935
0.6756
0.675209
0.674761
0.674255
0.673691
0.673069
0.672386
0.671643
0.67084
0.669975
0.669048
0.66806
0.667009
0.665897
0.664722
0.663484
0.662185
0.660824
0.659402
0.657918
0.656374
0.654771
0.653108
0.651387
0.649607
0.64777
0.645874
0.643921
0.641909
0.639837
0.637703
0.635516
0.633243
0.631
0.628465
0.690067
0.689768
0.689396
0.688955
0.688443
0.687864
0.687221
0.68652
0.685767
0.684964
0.684118
0.683232
0.682312
0.68136
0.680381
0.679379
0.678358
0.677319
0.676267
0.675205
0.674134
0.673057
0.671977
0.670895
0.669815
0.668737
0.667664
0.666597
0.665538
0.66449
0.663453
0.662429
0.66142
0.660428
0.659453
0.658498
0.657565
0.656653
0.655766
0.654904
0.654068
0.653261
0.652482
0.651734
0.651018
0.650333
0.649683
0.649066
0.648485
0.647939
0.64743
0.646958
0.646523
0.646127
0.645768
0.645448
0.645166
0.644923
0.644718
0.644552
0.644423
0.644333
0.64428
0.644264
0.644285
0.644342
0.644435
0.644564
0.644726
0.644923
0.645153
0.645416
0.645712
0.646039
0.646398
0.646787
0.647206
0.647655
0.648133
0.648641
0.649176
0.64974
0.650331
0.65095
0.651596
0.652267
0.652964
0.653686
0.654432
0.6552
0.65599
0.656798
0.657624
0.658468
0.659326
0.660196
0.661075
0.661962
0.662856
0.663754
0.664656
0.665559
0.666461
0.667363
0.668261
0.669155
0.670044
0.670925
0.671798
0.672662
0.673514
0.674355
0.675182
0.675995
0.676791
0.67757
0.678331
0.679073
0.679793
0.680491
0.681165
0.681814
0.682437
0.683033
0.6836
0.684136
0.684641
0.685114
0.685552
0.685954
0.68632
0.686648
0.686937
0.687184
0.68739
0.687552
0.68767
0.687743
0.687768
0.687745
0.687672
0.68755
0.687375
0.687148
0.686868
0.686532
0.686141
0.685693
0.685189
0.684625
0.684003
0.683321
0.68258
0.681777
0.680913
0.679987
0.679
0.67795
0.676838
0.675664
0.674427
0.673128
0.671768
0.670346
0.668864
0.667321
0.665719
0.664057
0.662338
0.660561
0.658726
0.656834
0.654886
0.652879
0.650815
0.648689
0.64651
0.644248
0.642012
0.639485
0.712327
0.71199
0.711565
0.711059
0.710474
0.709813
0.709082
0.708289
0.707438
0.706537
0.70559
0.704603
0.703581
0.702529
0.701451
0.700352
0.699235
0.698103
0.696961
0.69581
0.694654
0.693494
0.692333
0.691173
0.690016
0.688864
0.687719
0.686581
0.685454
0.684337
0.683234
0.682144
0.68107
0.680013
0.678975
0.677956
0.676957
0.675981
0.675029
0.674101
0.673199
0.672323
0.671476
0.670657
0.669868
0.66911
0.668383
0.667689
0.667027
0.666399
0.665806
0.665247
0.664723
0.664234
0.663782
0.663365
0.662984
0.662639
0.662331
0.662058
0.661822
0.661621
0.661456
0.661326