/*--------------------------------*- C++ -*----------------------------------*\
| =========                 |                                                 |
| \\      /  F ield         | OpenFOAM: The Open Source CFD Toolbox           |
|  \\    /   O peration     | Version:  2.3.0                                 |
|   \\  /    A nd           | Web:      www.OpenFOAM.org                      |
|    \\/     M anipulation  |                                                 |
\*---------------------------------------------------------------------------*/
FoamFile
{
    version     2.0;
    format      ascii;
    class       volSymmTensorField;
    location    "70";
    object      sigma;
}
// * * * * * * * * * * * * * * * * * * * * * * * * * * * * * * * * * * * * * //

dimensions      [1 -1 -2 0 0 0 0];

internalField   nonuniform List<symmTensor> 
1000
(
(7759.26 -5584.57 3.84107e-13 4567.77 -2.49815e-13 2844.7)
(10936.4 -4253.41 1.7828e-14 1153.84 7.66685e-14 2790.05)
(12552.6 -3361.81 1.30243e-13 -696.952 6.65283e-14 2735.91)
(13377.5 -2728.64 2.15462e-14 -1710.8 -1.82435e-14 2692.32)
(13768.1 -2262.76 9.92686e-14 -2255.63 5.43844e-14 2656.72)
(13910.6 -1910.14 -8.68183e-16 -2526.52 6.86934e-15 2627.09)
(13908.2 -1636.95 -7.86458e-14 -2633.44 -4.30593e-14 2601.86)
(13820.6 -1420.87 -1.19796e-13 -2642.75 -5.72596e-14 2579.5)
(13692.3 -1242.94 0 -2597.7 0 2560.28)
(13523 -1015.25 1.29272e-14 -2519.92 -1.66718e-15 2539.17)
(10747.9 -6868.72 2.31561e-13 5139.45 -1.60302e-13 3666.3)
(13165.4 -4609.19 -5.78497e-14 1848.08 3.19437e-14 3464.64)
(14286.9 -3207.38 6.77531e-14 38.3511 3.2227e-14 3305.82)
(14760.7 -2295.67 2.4394e-14 -987.466 -1.57501e-14 3178.43)
(14892.4 -1681.09 -9.83725e-14 -1569.09 -5.56068e-14 3074.61)
(14838.6 -1254.61 -4.68158e-15 -1887.4 1.04647e-14 2988.73)
(14683.9 -950.917 8.60126e-14 -2045.31 4.66635e-14 2916.59)
(14477.2 -728.477 -8.1779e-14 -2104.96 -3.83445e-14 2855.14)
(14255.4 -556.707 -2.65936e-14 -2103.77 5.43121e-15 2804.22)
(14012 -363.226 -1.3264e-14 -2043.53 -1.64189e-14 2761.96)
(14052.8 -7826.01 1.75315e-13 5260.02 -1.50231e-13 4456.81)
(15451.8 -4800.58 -3.11109e-14 2374.54 1.24877e-14 4113.77)
(15938.1 -2982.17 -5.61499e-16 764.159 2.40674e-16 3854.36)
(15985.9 -1847.06 -1.3162e-14 -185.312 6.19468e-15 3646.28)
(15821.4 -1116.52 -9.75883e-14 -754.866 -5.43016e-14 3476.88)
(15555.2 -635.52 -8.18531e-14 -1095.14 -5.25323e-14 3336.94)
(15244.8 -312.89 -3.38586e-14 -1292.52 -2.14939e-14 3219.75)
(14921.8 -92.6465 3.34537e-14 -1399.64 1.98131e-14 3120.5)
(14610.2 62.6741 -1.57511e-14 -1447.98 4.22098e-15 3037.44)
(14301.3 220.651 -1.09426e-14 -1434.24 -1.50599e-14 2969.32)
(17530.5 -8346.11 2.98431e-13 4991.57 -1.34327e-13 5197.41)
(17718.6 -4794.07 -7.59886e-14 2742.13 -3.24226e-14 4721.71)
(17467.7 -2695.63 1.58154e-15 1459.94 -4.45157e-16 4367.92)
(17038.6 -1415.92 0 660.01 0 4084.3)
(16554.6 -615.272 8.14326e-14 143.613 5.66003e-14 3853.43)
(16068.5 -106.239 -6.30723e-15 -196.43 2.53792e-15 3662.78)
(15603.1 220.123 -7.31602e-14 -422.618 -4.21968e-14 3503.18)
(15168.5 429.753 5.23616e-14 -573.773 4.23544e-14 3368.01)
(14772.9 565.9 -1.36783e-14 -673.509 4.89912e-15 3253.71)
(14401.6 691.859 5.42322e-14 -715.299 3.08507e-14 3158.38)
(21008.9 -8353.34 -2.73441e-13 4428.6 4.63964e-14 5870.18)
(19880.9 -4569.25 -1.81268e-13 2971.21 -5.50788e-14 5273.58)
(18841.7 -2357.84 1.71461e-14 2105.66 -2.26967e-15 4834.02)
(17914.4 -1029.22 1.10638e-14 1506.32 -1.61215e-15 4481.69)
(17105.2 -213.236 0 1073.02 0 4194.97)
(16401.5 293.064 1.54449e-13 750.542 8.6363e-14 3958.17)
(15787.5 606.906 1.05447e-13 505.316 5.84297e-14 3759.88)
(15249.2 798.87 5.56465e-14 315.183 3.89386e-14 3591.77)
(14778 914.878 -4.06057e-14 166.009 -9.91388e-15 3448.61)
(14352.8 1011.7 -5.55937e-14 66.4587 -3.00874e-14 3327.52)
(24300.5 -7814.27 -4.35087e-13 3688.36 7.35924e-14 6458.96)
(21851 -4121.43 1.47106e-13 3090.88 2.89741e-14 5755.81)
(20029.9 -1979.66 9.37888e-14 2681.27 2.57254e-14 5241.05)
(18616.8 -705.588 0 2307.48 0 4828.68)
(17496.4 67.2185 -7.58255e-14 1973.82 -4.1005e-14 4493.13)
(16588.7 538.688 4.21985e-17 1680.39 2.0598e-17 4215.94)
(15838.6 823.813 1.36044e-13 1424.25 6.50751e-14 3983.72)
(15207.7 991.729 6.34224e-14 1201.01 2.81986e-14 3786.63)
(14671.4 1087.12 4.90456e-15 1006.7 -3.27984e-15 3618.03)
(14202.3 1158.48 -4.44461e-14 851.339 -1.57161e-14 3473.91)
(27215.8 -6742.47 -6.75964e-14 2897 3.9807e-15 6949.1)
(23543.2 -3463.65 1.74126e-13 3133.4 4.61519e-14 6156.14)
(21007.6 -1572.39 0 3167.62 0 5578.89)
(19155.7 -454.394 -1.16272e-13 3016.78 -4.18701e-14 5116.74)
(17757.5 218.426 -1.37835e-16 2785.43 -4.9926e-17 4740.69)
(16670.3 624.217 -1.38972e-13 2526.14 -5.51309e-14 4429.95)
(15802.5 865.364 -8.38174e-16 2265.19 4.60116e-15 4169.47)
(15093.7 1003.45 4.35756e-15 2015.16 -5.54365e-15 3948.21)
(14504.2 1078.09 3.34336e-14 1781.86 4.52949e-15 3758.33)
(14001 1128.26 -1.71717e-16 1576.4 1.43396e-16 3594.78)
(29575.2 -5198.62 -7.28932e-14 2175.54 -2.68973e-14 7327.09)
(24880.2 -2628.39 4.37903e-14 3128.96 2.40235e-14 6463.65)
(21755.5 -1149.59 -7.94343e-14 3546.66 -2.51844e-14 5838.96)
(19543.9 -277.549 -9.6813e-14 3591.47 -2.79119e-14 5338.92)
(17919 245.036 1.044e-16 3452.38 7.78377e-17 4931.85)
(16686.6 557.895 -2.90555e-17 3226.21 -4.98837e-17 4595.26)
(15725.1 741.654 -6.26746e-14 2964.24 -1.56851e-14 4312.93)
(14955.6 844.969 -5.56225e-14 2693.75 -1.89218e-14 4072.92)
(14325.9 899.041 2.71867e-15 2429.15 -3.89488e-15 3866.55)
(13798.1 932.441 5.89485e-15 2182.48 1.97472e-15 3687.82)
(31214.3 -3287.99 3.05125e-13 1624.48 -1.44691e-14 7578.17)
(25798.6 -1672.65 1.40194e-13 3101 5.93099e-15 6669.15)
(22259.2 -735.78 -1.28585e-14 3804.9 -1.36769e-14 6014.8)
(19791.9 -180.92 9.09531e-14 3998.36 1.21578e-14 5490.06)
(18006.2 151.611 4.29331e-15 3930.02 6.40838e-15 5062.19)
(16671.7 350.215 7.06665e-14 3729.88 1.98002e-14 4708.06)
(15645.3 466.514 0 3468.22 0 4410.81)
(14834.5 531.759 0 3183.36 0 4157.97)
(14178.5 566.011 -2.45577e-14 2895.99 -5.01542e-15 3940.27)
(13635.8 586.866 1.88826e-14 2618.94 -1.2072e-14 3751.09)
(32011.2 -1157.23 7.68332e-15 1326.17 1.30625e-14 7693.24)
(26297 -712.11 -4.5059e-13 3101.95 -9.47538e-15 6784.37)
(22504.5 -410.33 5.40201e-14 3954.03 -1.19842e-14 6105.82)
(19878.9 -220.038 9.39408e-14 4221.04 3.89113e-15 5561.53)
(17997.4 -101.644 7.86117e-14 4184.71 3.4768e-15 5118.94)
(16604.5 -27.8524 0 3994.31 0 4753.57)
(15542.5 18.0675 0 3730.2 0 4447.54)
(14710.5 46.3861 3.07048e-16 3435.97 -3.56814e-15 4187.66)
(14042.8 63.8796 7.22418e-14 3134.83 3.24579e-15 3964.08)
(13496.7 76.3154 -1.09845e-15 2838.69 -2.51383e-16 3769.71)
(-488.825 431.049 -1.25338e-14 -11838.6 2.09855e-13 -2844.79)
(-509.017 172.778 1.64383e-15 -7748.01 -4.00899e-14 -1905.47)
(-119.591 -31.1899 0 -5179.52 0 -1222.87)
(590.247 -151.639 5.72607e-15 -3514.31 1.87799e-14 -674.784)
(1411.66 -213.527 -7.80283e-15 -2404.59 1.1599e-14 -229.138)
(2242.66 -240.302 -5.10757e-15 -1641.27 2.94727e-14 138.782)
(3036.38 -246.768 3.40919e-14 -1098.83 2.54435e-14 447.127)
(3773.6 -241.697 4.32478e-14 -700.078 2.91773e-16 709.275)
(4449 -230.556 -9.82994e-16 -396.376 -3.18517e-15 935.222)
(5063.82 -218.994 4.41099e-15 -157.127 5.98005e-15 1132.31)
(-567.75 1044.16 -2.63872e-15 -11436.1 -4.9168e-14 -2770.13)
(-324.422 -186.37 2.47161e-16 -7469.82 6.41703e-16 -1798.67)
(190.766 -837.688 -2.59648e-14 -5118.46 -3.79648e-14 -1137.16)
(956.873 -1169.69 -8.57296e-15 -3590.84 -8.03928e-15 -607.839)
(1793.83 -1324.04 1.17048e-14 -2558.74 4.80142e-15 -176.517)
(2619.8 -1377.5 -3.3828e-15 -1837.67 -8.7867e-15 180.491)
(3398.21 -1373.98 -1.79892e-14 -1316.92 -9.76438e-15 480.299)
(4114.88 -1339.14 -4.65888e-14 -927.439 -9.04495e-15 735.563)
(4766.41 -1288.32 -3.62517e-14 -625.046 2.30995e-16 955.7)
(5352.04 -1238.26 4.28312e-14 -380.504 2.54962e-16 1147.28)
(-649.456 1506.56 -4.58741e-15 -10259.2 -3.61553e-14 -2517.38)
(39.1724 -453.84 5.1648e-14 -6946.27 6.12265e-14 -1593.94)
(779.846 -1467.36 4.27498e-17 -4946.48 2.59713e-16 -961.532)
(1648.27 -1971.21 -8.89907e-14 -3626.9 -5.26707e-14 -456.606)
(2518.64 -2198.96 -7.73167e-14 -2718.49 -3.5648e-14 -46.1207)
(3339.52 -2272.28 -3.5102e-14 -2069.35 -1.45049e-14 293.115)
(4091.9 -2258.79 -2.52351e-14 -1588.56 -1.56998e-14 577.693)
(4771.49 -2197.52 1.43068e-14 -1219.18 4.3123e-16 819.763)
(5380.05 -2111.65 -7.13335e-14 -924.604 -1.38544e-14 1028.18)
(5916.53 -2027.82 -8.91826e-14 -680.441 -8.86801e-15 1208.33)
(-677.637 1694.61 -2.28578e-14 -8561.3 4.13731e-14 -2132.06)
(615.892 -749.918 1.79453e-15 -6178.61 -1.76669e-14 -1283.7)
(1650.5 -2007.29 -3.33989e-14 -4683.74 5.4741e-15 -699.979)
(2642.51 -2622.64 3.49841e-15 -3654.93 1.71381e-14 -233.635)
(3547.42 -2892.22 5.22487e-16 -2917.73 6.42245e-16 145.315)
(4354.31 -2970.32 8.13642e-15 -2368.74 3.61023e-15 458.208)
(5066.44 -2941.72 -6.28511e-14 -1944.58 -1.86827e-14 720.431)
(5692.29 -2854.77 1.20979e-14 -1604.89 1.24739e-14 943.245)
(6240.54 -2738.02 1.70728e-14 -1323.71 6.06742e-15 1134.65)
(6709.49 -2627.51 3.85607e-14 -1083.65 1.29056e-14 1298.27)
(-571.35 1532.07 4.78373e-14 -6506.6 -1.52237e-13 -1633.37)
(1408.27 -1114.73 -4.93304e-14 -5216.83 -4.90856e-15 -878.898)
(2771.96 -2467.55 -8.05844e-14 -4330.18 -4.15518e-14 -359.589)
(3894.25 -3117.32 7.30082e-14 -3652.38 1.24078e-14 55.8158)
(4826.44 -3389.31 6.51298e-14 -3121.65 2.6059e-14 393.414)
(5606.19 -3453.67 7.08745e-14 -2694 2.99757e-14 672.044)
(6262.7 -3403.6 7.8171e-14 -2339.53 2.89588e-14 905.347)
(6818.9 -3291.84 -2.46838e-14 -2037.78 -1.1724e-15 1103.33)
(7291.13 -3149.49 3.26505e-14 -1775.4 2.38601e-14 1272.86)
(7676.23 -3021.14 -1.47384e-14 -1543.45 -1.23797e-14 1415.26)
(-231.318 988.142 -1.59738e-14 -4258.97 2.06526e-13 -1036.22)
(2426.36 -1559.51 -6.17685e-14 -4123.41 -3.21299e-15 -391.627)
(4108.02 -2843.84 1.00214e-13 -3888.79 2.99392e-14 50.5918)
(5345.1 -3441.51 3.95682e-15 -3591.96 -2.15732e-14 404.571)
(6287.4 -3671.84 7.61434e-14 -3287.32 3.21982e-14 692.326)
(7022.93 -3702.21 -6.82606e-14 -2994.09 -2.75089e-14 929.733)
(7607.84 -3624.15 6.05655e-14 -2718.37 2.37636e-14 1128.34)
(8079.81 -3489.11 -2.38815e-14 -2461.19 -1.22299e-15 1296.61)
(8462.76 -3327.37 4.51709e-14 -2222.84 -1.65233e-15 1439.98)
(8751.6 -3190.89 -1.68182e-14 -2003.93 -3.14133e-14 1557.15)
(443.168 77.015 2.77003e-13 -1983.51 -4.50063e-13 -355.463)
(3680.23 -2076.09 -2.6329e-14 -2964.27 4.89311e-14 165.22)
(5619.22 -3130.9 2.20568e-13 -3366.62 8.66266e-14 519.832)
(6930.74 -3590.38 8.40455e-15 -3447.46 -2.40848e-14 803.834)
(7854.51 -3735.05 1.70467e-16 -3370.74 1.52843e-14 1034.72)
(8524.64 -3711.38 -6.81443e-14 -3215.76 -2.37295e-14 1225.13)
(9021.76 -3599.16 -1.46522e-14 -3023.36 -4.38857e-15 1384.24)
(9396.83 -3442.86 0 -2815.5 0 1518.77)
(9680.3 -3268.49 -5.47124e-14 -2606.11 -2.28461e-14 1632.5)
(9864.94 -3133.71 8.2023e-14 -2406.12 2.57153e-14 1721.27)
(1538.25 -1144.06 1.16779e-13 160.118 -2.7067e-13 391.932)
(5172.94 -2641.97 1.01601e-13 -1804.01 -2.08362e-14 777.447)
(7263.57 -3325.28 -4.51926e-14 -2773.08 -4.75336e-14 1036.27)
(8585.91 -3570.91 9.04068e-14 -3197.02 7.31549e-14 1243.59)
(9451.73 -3591.25 -2.7728e-13 -3332.56 -1.12754e-13 1412.12)
(10031.6 -3496.05 8.14189e-14 -3310.39 3.72679e-14 1551.05)
(10425.1 -3344.42 -1.26281e-14 -3201.26 -4.31098e-15 1667.05)
(10693.2 -3168.89 0 -3045.4 0 1764.88)
(10870.7 -2988.54 1.31104e-14 -2869.14 -9.27803e-16 1846.51)
(10947.6 -2864.76 1.56562e-14 -2693.93 -2.16889e-15 1904.69)
(3113.53 -2579.8 0 2031.93 0 1187.41)
(6896.42 -3222.64 -2.07389e-14 -700.556 2.35717e-14 1429.82)
(8997.01 -3426.54 -2.15536e-13 -2120.28 -1.57724e-13 1586.94)
(10248.1 -3401.4 -2.48996e-14 -2826.02 3.55607e-14 1712.79)
(11008.2 -3268.92 -5.78835e-15 -3142.9 1.49376e-14 1815.08)
(11470.6 -3089.83 7.92346e-14 -3239.82 2.46453e-14 1899.42)
(11746 -2895.4 0 -3209.86 0 1969.89)
(11901 -2702.08 0 -3106.86 0 2029.42)
(11972.4 -2520.31 0 -2966.81 0 2078.21)
(11945.7 -2415.77 1.12961e-13 -2820.39 2.78558e-14 2105.85)
(5193.46 -4106.94 2.31679e-13 3524.06 -2.34478e-13 2011.74)
(8829.78 -3775.55 -5.37108e-14 297.254 4.86881e-14 2106.24)
(10774.9 -3437.18 -4.62116e-14 -1422.68 -4.89166e-14 2158.21)
(11861.2 -3109.45 -9.35309e-14 -2328.95 -7.79286e-14 2199.74)
(12463 -2809.58 1.97957e-13 -2784.66 1.01912e-13 2233.47)
(12779.5 -2541.81 0 -2980.7 0 2261.27)
(12923.6 -2305.2 -7.83791e-14 -3023.14 -4.07119e-14 2284.71)
(12962.7 -2096.62 0 -2973.2 0 2305.27)
(12937.9 -1912.99 1.11354e-14 -2870.99 -1.27718e-15 2323.12)
(12846.9 -1822.28 -2.65578e-14 -2760.95 -1.43455e-14 2327.52)
(5605.33 -189.075 6.69563e-14 30.7105 -8.31321e-15 1300.62)
(6102.8 -158.608 -1.01867e-14 206.39 -2.77655e-14 1455.97)
(6549.52 -133.978 -8.39632e-14 364.518 -1.12712e-14 1595.55)
(6953.75 -112.987 -9.54229e-17 512.098 -3.54197e-19 1722.89)
(7320.75 -94.9655 -5.85994e-15 654.39 -1.6102e-14 1840.42)
(7654.83 -79.4264 -3.02359e-14 795.653 -1.59571e-16 1950.11)
(7959.56 -66.0093 0 939.39 0 2053.6)
(8237.97 -54.4064 0 1088.54 0 2152.27)
(8492.59 -44.3296 -6.29468e-14 1245.74 4.08317e-15 2247.31)
(8725.47 -35.4985 1.02048e-13 1413.4 1.38721e-14 2339.74)
(8938.23 -27.6373 9.65044e-14 1593.96 -1.6367e-14 2430.51)
(9132.05 -20.4665 -7.02404e-14 1789.92 -7.75649e-15 2520.46)
(9307.68 -13.702 -3.55227e-14 2004 -4.79871e-15 2610.39)
(9465.41 -7.03941 -1.02911e-13 2239.17 -1.7604e-15 2701.06)
(9605.04 -0.147531 3.67839e-14 2498.82 4.87747e-15 2793.2)
(9725.8 7.31929 6.75758e-14 2786.75 7.96279e-16 2887.51)
(9826.32 15.5103 1.05527e-15 3107.09 -5.8171e-16 2984.63)
(9904.74 23.4634 3.26453e-14 3463.38 3.69614e-15 3084.95)
(9959.76 26.0924 -3.36915e-14 3855.45 6.17028e-16 3188.13)
(10016.5 9.32632 7.68506e-14 4277.63 5.65088e-15 3298.64)
(5850.91 -1145.59 9.26075e-14 -171.573 1.03417e-14 1310.62)
(6304.71 -1021.12 4.33992e-14 36.3514 1.00078e-14 1463.32)
(6712.26 -919.281 -2.14498e-14 217.945 2.74769e-15 1599.28)
(7086.08 -828.931 6.79358e-14 384.737 6.91417e-15 1724.04)
(7428.54 -748.656 2.02325e-15 542.919 8.56004e-17 1839.57)
(7742.41 -677.248 -9.65925e-14 697.435 -4.48716e-15 1947.66)
(8030.31 -613.541 9.20353e-15 852.208 5.58779e-15 2049.81)
(8294.58 -556.415 -6.39134e-14 1010.5 -1.48002e-15 2147.33)
(8537.24 -504.803 -1.71163e-15 1175.16 -9.76698e-17 2241.32)
(8759.98 -457.687 5.99354e-14 1348.82 -2.58369e-15 2332.8)
(8964.1 -414.087 4.25974e-14 1534.03 7.45365e-15 2422.65)
(9150.58 -373.044 -6.86825e-15 1733.41 -3.7793e-15 2511.69)
(9320.01 -333.605 -3.46624e-14 1949.72 -1.57256e-15 2600.71)
(9472.64 -294.79 0 2185.99 0 2690.45)
(9608.33 -255.604 -5.07024e-15 2445.54 -1.6492e-15 2781.66)
(9726.63 -215.045 -6.86017e-14 2732.15 -4.50619e-15 2875.1)
(9826.71 -172.211 -3.37122e-15 3050.15 1.02152e-16 2971.58)
(9907.24 -126.252 2.44867e-15 3405.22 -7.73631e-16 3072.11)
(9964.72 -75.1348 1.6238e-15 3807.15 -1.54556e-15 3178.13)
(10014.9 -10.2694 1.08687e-13 4286.63 3.93665e-14 3300.36)
(6344.3 -1881.77 -1.0213e-14 -455.981 -2.26197e-15 1358.84)
(6727.01 -1691 6.56914e-14 -212.943 5.93999e-15 1503.25)
(7062.36 -1533.31 -5.86916e-14 -3.87515 -1.88934e-15 1628.88)
(7376.41 -1391.41 1.81327e-14 187.832 -2.92154e-15 1745.59)
(7669.21 -1263.72 1.0715e-13 367.897 9.56063e-15 1854.72)
(7941.69 -1148.91 -1.00621e-13 541.248 -6.27035e-15 1957.6)
(8194.95 -1045.58 -3.39908e-14 711.993 -1.30617e-15 2055.45)
(8430.1 -952.235 6.48154e-14 883.646 2.58763e-15 2149.33)
(8648.17 -867.358 1.684e-15 1059.3 1.67059e-16 2240.19)
(8850.07 -789.44 -6.55153e-15 1241.79 -2.69219e-15 2328.89)
(9036.5 -716.993 1.00324e-13 1433.87 5.79269e-15 2416.24)
(9207.98 -648.537 2.36558e-14 1638.26 -2.01854e-15 2502.98)
(9364.75 -582.588 -1.01211e-13 1857.83 -7.44365e-15 2589.83)
(9506.83 -517.637 -3.40749e-14 2095.65 -2.84499e-15 2677.49)
(9633.92 -452.13 2.89877e-14 2355.1 2.09171e-15 2766.7)
(9745.42 -384.443 2.97158e-14 2640.09 3.05401e-15 2858.19)
(9840.17 -312.755 -4.15999e-14 2955.33 -4.20292e-15 2952.81)
(9915.97 -234.376 -3.7697e-14 3307.19 -4.14144e-15 3051.5)
(9968.56 -143.386 2.1824e-14 3705.12 9.33516e-15 3155.47)
(9997.43 -22.5499 -3.24521e-14 4165.58 -1.87354e-14 3268.39)
(7042.51 -2444.34 -4.68139e-14 -841.981 -1.73723e-14 1430.89)
(7327.6 -2213.12 -1.48987e-14 -556.807 -5.04164e-15 1562.49)
(7565.56 -2020.79 3.22519e-14 -313.395 1.88298e-15 1673.58)
(7797.4 -1845.3 -2.21407e-14 -89.8934 -8.55687e-15 1778.65)
(8020.81 -1685.15 1.21384e-14 118.875 4.26401e-15 1878.39)
(8234.74 -1539.34 -2.05812e-14 317.503 2.44717e-15 1973.59)
(8438.51 -1406.65 -8.43186e-14 510.063 -2.07684e-14 2065.06)
(8631.73 -1285.67 -6.537e-14 700.202 -3.80899e-15 2153.52)
(8814.18 -1174.79 2.09936e-14 891.218 -1.60437e-15 2239.71)
(8985.72 -1072.31 6.77691e-14 1086.18 4.91995e-15 2324.28)
(9146.23 -976.471 8.40058e-14 1287.99 1.12419e-14 2407.9)
(9295.54 -885.462 2.51146e-14 1499.57 8.01108e-15 2491.18)
(9433.38 -797.42 -7.85638e-14 1723.86 -3.37911e-15 2574.75)
(9559.32 -710.4 3.36518e-14 1964.01 3.84302e-15 2659.23)
(9672.71 -622.34 2.73198e-14 2223.47 2.92483e-15 2745.27)
(9772.54 -530.961 -2.69441e-14 2506.19 -3.89122e-15 2833.55)
(9857.26 -433.485 5.70711e-15 2816.89 3.79577e-16 2924.8)
(9924.47 -325.762 2.76634e-14 3161.43 6.61222e-15 3019.82)
(9970.71 -199.58 -4.8772e-14 3547.3 -4.32181e-15 3119.54)
(9974.68 -33.301 -9.09318e-15 3978.54 -1.04529e-14 3219.98)
(7898.63 -2819.92 8.54711e-14 -1285.66 4.06927e-15 1526.07)
(8065.36 -2578.26 -8.77445e-14 -960.861 -2.24606e-14 1639.5)
(8188.63 -2375.25 -1.72705e-14 -681.91 2.85054e-15 1732.32)
(8322.25 -2186.43 1.4995e-14 -424.657 5.39527e-15 1822.52)
(8461.96 -2010.74 4.51959e-14 -184.408 1.56516e-14 1910.2)
(8604.49 -1847.99 1.12219e-13 42.7295 1.19446e-14 1995.51)
(8747.34 -1697.64 3.23581e-14 260.463 1.00894e-14 2078.72)
(8888.51 -1558.76 -6.67246e-14 472.331 -5.2306e-15 2160.19)
(9026.4 -1430.04 -5.84847e-14 681.677 -2.02828e-14 2240.33)
(9159.72 -1309.92 -8.90826e-14 891.677 -5.51931e-15 2319.55)
(9287.38 -1196.62 1.99949e-14 1105.38 6.79806e-15 2398.33)
(9408.41 -1088.23 2.9277e-14 1325.78 9.32975e-15 2477.12)
(9521.88 -982.658 -3.21602e-14 1555.9 -9.07787e-15 2556.41)
(9626.83 -877.648 9.03824e-14 1798.93 1.17559e-14 2636.71)
(9722.17 -770.698 2.70945e-14 2058.26 6.15437e-15 2718.56)
(9806.53 -658.934 -2.51979e-14 2337.71 -4.62487e-15 2802.52)
(9878.2 -538.794 4.87769e-14 2641.66 8.68901e-15 2889.2)
(9934.9 -405.101 1.05248e-13 2975.13 2.36248e-14 2979.24)
(9973.94 -248.261 -2.45862e-14 3344.05 -9.43762e-15 3073.38)
(9951.86 -44.0898 -3.38454e-14 3742.31 -2.99045e-14 3160.19)
(8857.88 -2991.51 1.21976e-14 -1735.74 7.20115e-15 1643.57)
(8894.14 -2772.2 -8.77303e-15 -1385.42 3.91512e-15 1732.78)
(8895.25 -2584.1 -1.06518e-13 -1076.74 -1.31809e-14 1804.27)
(8922.14 -2403.77 -6.92926e-14 -789.534 -7.63212e-15 1876.76)
(8969.76 -2230.91 -4.08915e-15 -519.606 -7.00947e-16 1950.04)
(9032.8 -2066.62 5.03217e-16 -264.357 4.9198e-17 2023.49)
(9107.08 -1911.52 4.23846e-14 -20.943 1.58126e-14 2096.8)
(9189.09 -1765.56 1.67347e-13 213.689 1.6769e-14 2169.87)
(9275.91 -1628.11 1.87882e-14 442.638 5.71828e-15 2242.74)
(9365.07 -1498.07 -1.65945e-13 668.99 -1.88261e-14 2315.55)
(9454.49 -1373.94 -2.785e-14 895.763 -8.85533e-15 2388.52)
(9542.38 -1253.9 1.64551e-13 1125.95 2.23923e-14 2461.92)
(9627.11 -1135.86 1.28397e-15 1362.53 -4.78476e-15 2536.07)
(9707.17 -1017.38 -1.62447e-13 1608.6 -2.74008e-14 2611.33)
(9781.04 -895.648 -3.52246e-14 1867.39 -6.75586e-15 2688.1)
(9847.1 -767.343 -3.09991e-14 2142.42 -6.39813e-15 2766.81)
(9903.5 -628.313 -3.05782e-14 2437.51 -4.82743e-15 2847.93)
(9948.16 -472.692 7.26154e-14 2756.95 1.87178e-14 2931.95)
(9978.91 -290.036 5.61839e-14 3105.42 1.02249e-14 3019.46)
(9933.24 -54.8962 -3.36501e-14 3468.39 -3.49602e-14 3092.68)
(9859.93 -2954.42 -6.98967e-15 -2138.44 -4.56155e-15 1781.88)
(9763.74 -2789.38 -4.59182e-14 -1788.65 -8.96778e-15 1840.41)
(9645.86 -2640.79 0 -1463.46 0 1888.25)
(9565.72 -2490.52 0 -1156.17 0 1940.67)
(9519.28 -2338.97 -6.269e-14 -863.172 -2.32608e-14 1997.56)
(9499.85 -2188.93 0 -584.02 0 2057.5)
(9501.99 -2042.48 -3.63526e-14 -317.427 -1.32851e-14 2119.51)
(9521.01 -1900.8 -5.73487e-14 -61.3454 -1.98577e-14 2183)
(9552.86 -1764.28 4.92764e-14 186.662 1.74593e-14 2247.58)
(9594.06 -1632.54 3.4481e-14 429.297 1.15798e-14 2313.08)
(9641.61 -1504.65 -2.97401e-14 669.301 -1.00679e-14 2379.44)
(9692.92 -1379.15 3.22606e-14 909.488 5.07854e-15 2446.71)
(9745.73 -1254.09 4.17538e-14 1152.64 1.29224e-14 2515.01)
(9798.01 -1127.06 1.26651e-14 1401.61 3.71779e-15 2584.53)
(9847.86 -995.094 3.25129e-14 1659.29 3.8885e-15 2655.49)
(9893.43 -854.589 5.32706e-14 1928.75 1.31079e-14 2728.2)
(9932.85 -700.983 -1.13675e-13 2213.21 -2.97487e-14 2802.94)
(9964.14 -527.921 -9.3369e-14 2516.15 -2.97072e-14 2880.07)
(9985.52 -324.472 3.08441e-14 2841.19 1.13795e-14 2960.01)
(9922.7 -65.0644 -3.04168e-14 3167.79 -3.95244e-14 3020.88)
(10844.1 -2718.84 2.14776e-14 -2443.07 -4.78983e-15 1938.69)
(10623.9 -2634.69 -3.03577e-14 -2130.24 -6.51255e-15 1960.07)
(10400 -2546.31 -1.16853e-13 -1808.45 -2.3797e-14 1982.66)
(10220.4 -2445.32 1.01607e-14 -1496.43 -3.75995e-15 2013.23)
(10084.3 -2332.32 2.97415e-15 -1191.43 7.05791e-16 2052.21)
(9984.58 -2211.75 -3.52839e-14 -896.31 -5.48315e-15 2097.29)
(9915.18 -2087.19 3.23401e-14 -611.973 -1.03425e-14 2146.89)
(9870.75 -1961.24 5.18442e-14 -338.171 1.77322e-14 2199.83)
(9846.51 -1835.47 -1.22464e-13 -73.467 -9.7047e-15 2255.32)
(9838.19 -1710.52 -2.43726e-14 183.901 -8.02938e-15 2312.79)
(9842.09 -1586.21 7.02485e-15 436.257 -8.94238e-15 2371.93)
(9854.94 -1461.65 0 685.829 0 2432.48)
(9873.92 -1335.27 1.56253e-14 935.158 5.11422e-15 2494.4)
(9896.53 -1204.85 1.25062e-13 1186.54 2.98081e-14 2557.63)
(9920.61 -1067.49 4.84335e-14 1442.52 1.2384e-14 2622.26)
(9944.12 -919.448 -5.07575e-14 1705.4 -1.40012e-14 2688.35)
(9965.26 -755.908 7.34079e-15 1977.76 -7.88238e-16 2756.08)
(9982.17 -570.164 0 2261.99 0 2825.58)
(9993.47 -351.038 1.84221e-14 2560.89 1.0725e-14 2897.16)
(9923.44 -73.6809 -1.90385e-14 2851.16 -4.09744e-14 2947.98)
(11758.1 -2303.28 1.97053e-14 -2603.18 1.91988e-16 2112.68)
(11432.2 -2315.73 -3.74606e-14 -2366.84 6.05269e-15 2092)
(11121.4 -2302.71 7.85301e-15 -2072.73 -3.89854e-15 2088.16)
(10856.3 -2266.89 -2.64166e-14 -1775.15 -1.1489e-14 2095.65)
(10640.3 -2208.01 4.69192e-14 -1473.59 2.68179e-14 2115.39)
(10466.8 -2131.39 1.59917e-13 -1174.39 4.12513e-14 2144.41)
(10330.3 -2041.87 -5.82511e-14 -881.57 -9.53356e-15 2180.46)
(10225 -1943.3 -1.28914e-13 -596.855 -1.31314e-14 2221.89)
(10146.1 -1838.53 1.95202e-14 -320.66 -1.14746e-14 2267.42)
(10088.9 -1729.29 1.19404e-13 -52.2301 1.31425e-14 2316.15)
(10049.1 -1616.34 -8.95548e-14 209.639 -2.72749e-14 2367.41)
(10023.1 -1499.53 -5.09358e-14 466.673 -3.7323e-15 2420.72)
(10007.6 -1377.85 -6.03146e-14 720.574 -1.28689e-14 2475.72)
(9999.67 -1249.49 -3.246e-15 973.255 -9.2834e-16 2532.21)
(9996.98 -1111.78 9.00562e-14 1226.36 2.50252e-14 2590)
(9997.46 -961.069 1.51186e-14 1481.6 4.35659e-15 2649.01)
(9999.35 -792.481 0 1740.29 0 2709.15)
(10001.2 -599.069 1.49932e-14 2003.86 7.82708e-15 2770.41)
(10002.2 -369.518 -5.74334e-14 2273.38 -2.50606e-14 2832.83)
(9937.68 -79.9229 5.17722e-14 2528.33 7.3835e-14 2876.77)
(12584.5 -1722.61 5.88414e-14 -2587.12 3.97648e-14 2307.09)
(12178.1 -1835.97 9.45664e-15 -2430.89 -4.75224e-15 2249.35)
(11788.6 -1914.99 4.03815e-14 -2192.66 1.33511e-14 2214.46)
(11446.5 -1960.47 -8.31572e-14 -1939 -1.31998e-14 2194.04)
(11157.3 -1971.77 -1.08721e-13 -1667.74 -2.86062e-14 2189.9)
(10916 -1954.12 4.33129e-14 -1386.47 -1.3038e-15 2199.11)
(10717 -1913.11 1.53901e-13 -1102.01 4.11106e-14 2218.85)
(10555.2 -1853.77 4.55536e-14 -819.026 -6.80522e-16 2246.82)
(10425.3 -1780.22 -8.18091e-14 -540.443 -2.28325e-14 2281.12)
(10322.3 -1695.44 3.46569e-17 -267.564 -8.15047e-16 2320.32)
(10241.6 -1601.33 4.56084e-15 -0.766054 1.48516e-14 2363.27)
(10179.1 -1498.67 -1.07748e-13 260.4 -2.79941e-14 2409.11)
(10131.1 -1387.24 5.81893e-14 516.612 1.34092e-14 2457.16)
(10094.4 -1265.82 -2.79479e-14 768.834 -1.28964e-14 2506.91)
(10066.5 -1132.19 -1.28289e-16 1017.79 9.20394e-17 2557.9)
(10045 -983.047 -4.51592e-14 1264.13 -1.40782e-14 2609.81)
(10028.6 -813.694 2.79723e-14 1507.87 9.78612e-15 2662.25)
(10016.2 -617.256 6.80874e-16 1748.67 1.60445e-17 2714.96)
(10007.7 -382.06 -1.39252e-14 1985.25 -9.73876e-15 2767.6)
(9965.03 -83.5432 -8.48943e-15 2202.97 -3.97155e-15 2808)
(13161 -1220.73 -2.96038e-14 -2524.27 -2.35296e-14 2454.64)
(12712.8 -1392.49 -3.46236e-14 -2312.58 -2.03171e-14 2400.05)
(12266.2 -1545.89 -2.28382e-14 -2144.58 -7.4378e-15 2335.77)
(11888 -1648.12 3.14648e-14 -1934.55 1.73829e-14 2296.94)
(11562.1 -1709.01 -4.78419e-14 -1697.36 -3.74751e-14 2276.49)
(11282.8 -1735.53 -3.42639e-14 -1442.98 -2.38707e-14 2270.73)
(11045.2 -1733.53 -5.73424e-14 -1179.22 -2.05868e-14 2276.77)
(10844.9 -1708.16 -4.15171e-15 -912.099 5.93959e-15 2292.18)
(10677.4 -1663.69 1.01593e-13 -645.565 4.07925e-14 2315.03)
(10538.4 -1603.44 -5.57775e-15 -382.256 -1.07629e-15 2343.71)
(10423.7 -1529.67 4.83781e-14 -123.467 2.023e-14 2376.97)
(10329.4 -1443.61 -4.54646e-14 130.039 -1.84264e-14 2413.73)
(10252.2 -1345.5 0 378.161 0 2453.16)
(10188.9 -1234.56 -1.86359e-14 620.715 -7.18457e-15 2494.52)
(10136.9 -1109.04 1.77152e-14 857.668 6.42267e-15 2537.21)
(10094.3 -966.086 -1.53448e-15 1088.4 -5.00641e-16 2580.63)
(10059.9 -801.549 -2.57974e-14 1311.97 -9.5351e-15 2624.27)
(10033 -609.17 3.06516e-16 1526.2 2.65348e-16 2667.51)
(10014.5 -377.802 -1.47071e-14 1727.67 -3.40723e-15 2709.73)
(10012.5 -81.07 -4.85276e-15 1912.73 -2.86169e-15 2751.97)
(13078.1 -863.585 4.28605e-14 -2304.69 1.99416e-14 2486.17)
(12772.8 -1055.9 0 -2204 0 2438.95)
(12389.5 -1236.23 -3.47327e-14 -2082.59 -1.15098e-14 2378.53)
(12044.6 -1370.94 6.36254e-28 -1906.87 2.2434e-28 2339.47)
(11736.4 -1463.02 7.60207e-29 -1697.07 7.94115e-29 2316.78)
(11463.9 -1518.88 4.7954e-28 -1465.05 2.34797e-28 2307.43)
(11224.9 -1544.3 5.57083e-28 -1219.65 1.93552e-28 2308.9)
(11016.9 -1544.15 -3.01767e-14 -967.492 -7.45284e-15 2319.1)
(10837.3 -1522.45 0 -713.426 0 2336.27)
(10682.9 -1482.37 2.88795e-14 -460.796 7.05793e-15 2358.95)
(10550.9 -1426.16 -2.26534e-28 -211.832 -3.80485e-29 2385.94)
(10438.3 -1355.19 -2.78321e-14 32.0108 -7.23201e-15 2416.22)
(10342.3 -1269.9 2.73858e-14 269.72 7.52116e-15 2448.94)
(10260.7 -1169.86 2.96091e-28 500.452 1.01959e-28 2483.35)
(10191.4 -1053.73 -2.66198e-14 723.237 -8.51434e-15 2518.76)
(10132.9 -919.181 -1.82357e-28 936.733 -6.40708e-29 2554.54)
(10084.5 -762.732 2.60017e-14 1138.92 1.01284e-14 2590.02)
(10046.3 -579.14 2.57493e-14 1326.69 1.12194e-14 2624.53)
(10019.4 -358.732 -1.20318e-28 1494.98 -7.15445e-29 2657.18)
(10010.4 -77.1975 -3.38606e-14 1636.64 -5.72791e-14 2687.77)
(13026.4 -518.41 1.84125e-14 -2000.14 -1.41074e-15 2544.53)
(12784.6 -719.771 -1.82924e-14 -1968.62 -1.54898e-14 2496.01)
(12459 -916.166 -5.32334e-14 -1905.54 -2.71606e-14 2435.42)
(12148.9 -1075.32 0 -1778.78 0 2393.11)
(11860.4 -1194.92 1.45885e-14 -1609.39 -3.72928e-15 2365.62)
(11597.1 -1278.63 -4.25553e-15 -1411.41 -1.68081e-14 2350.53)
(11359.6 -1331.02 -4.92062e-14 -1194.85 -2.0981e-14 2345.72)
(11147.7 -1356.27 -6.58641e-14 -967.207 -3.12715e-14 2349.34)
(10959.9 -1358 2.98375e-14 -734.101 7.97069e-15 2359.79)
(10794.5 -1339.1 -3.42366e-14 -499.705 -1.99522e-14 2375.72)
(10649.5 -1301.75 -1.68522e-14 -267.093 -9.23922e-15 2395.93)
(10522.7 -1247.36 -3.32025e-14 -38.5844 -1.70558e-14 2419.42)
(10412.3 -1176.58 -3.27376e-14 183.971 -1.5691e-14 2445.29)
(10316.3 -1089.28 -1.61558e-14 398.881 -7.19511e-15 2472.73)
(10233.3 -984.533 -3.19224e-14 604.348 -1.31606e-14 2500.99)
(10162.3 -860.557 -3.15635e-14 798.169 -1.20124e-14 2529.34)
(10103 -714.589 -2.61803e-14 977.441 -1.06541e-14 2557.02)
(10055.9 -542.354 -1.54467e-14 1138.11 -5.01377e-15 2583.23)
(10023 -335.661 -1.52755e-14 1274.39 -4.62377e-15 2607.1)
(10008.6 -72.4947 -5.05131e-15 1377.74 -4.33638e-15 2627.62)
(12902.3 -230.689 1.60079e-13 -1726.9 7.58288e-14 2578.95)
(12708.8 -427.056 1.64911e-14 -1738 1.48136e-14 2531.71)
(12436.1 -626.067 -8.59964e-14 -1716.06 -3.95874e-14 2473.85)
(12166.3 -797.362 1.31612e-27 -1630.79 5.35545e-28 2431.26)
(11905.9 -935.013 4.87456e-14 -1498.96 7.8991e-15 2401.61)
(11660.7 -1039.65 0 -1334.07 0 2383.07)
(11433.6 -1113.92 1.71615e-14 -1146.53 1.22141e-14 2373.95)
(11225.9 -1160.89 -6.14317e-14 -944.325 -1.80051e-14 2372.68)
(11037.7 -1183.42 1.47336e-27 -733.638 5.08076e-28 2377.85)
(10868.3 -1183.96 5.88422e-14 -519.247 1.71056e-14 2388.24)
(10716.7 -1164.46 -1.66052e-14 -304.898 -9.39397e-15 2402.73)
(10581.7 -1126.27 -1.89043e-28 -93.5936 -5.63511e-29 2420.34)
(10462 -1070.12 -1.14715e-27 112.099 -3.64945e-28 2440.17)
(10356.2 -996.136 1.61238e-14 309.789 7.46487e-15 2461.39)
(10263.7 -903.751 -5.56319e-28 496.963 -1.99975e-28 2483.23)
(10183.8 -791.711 -5.3283e-14 670.721 -2.06718e-14 2504.88)
(10116.6 -657.961 4.58636e-28 827.453 1.88631e-28 2525.55)
(10063.3 -499.242 3.66325e-14 962.49 1.86634e-14 2544.41)
(10025.9 -308.756 -1.53848e-14 1069.42 -5.17311e-15 2560.47)
(10007 -67.0032 -7.38569e-14 1138.52 -1.2296e-13 2572.04)
(12725.7 3.91016 2.85234e-14 -1476.94 2.82607e-14 2595.87)
(12572.5 -182.802 4.96768e-14 -1517.01 2.77548e-14 2551.27)
(12346.3 -376.201 3.08615e-14 -1523.65 2.79026e-14 2497.54)
(12115.9 -550.032 1.689e-28 -1471.23 3.3156e-29 2456.47)
(11886.9 -696.753 6.50087e-14 -1372.19 3.7617e-14 2426.46)
(11664.9 -814.742 -1.5855e-14 -1238.1 2.02934e-15 2406.19)
(11454.1 -904.789 -1.50689e-14 -1078.74 1.96419e-15 2394.32)
(11256.8 -968.613 3.27968e-14 -902.09 2.28404e-14 2389.55)
(11074.3 -1008.17 3.01272e-14 -714.559 9.39147e-15 2390.7)
(10906.8 -1025.31 4.58677e-14 -521.307 1.93514e-14 2396.66)
(10754.3 -1021.61 3.25476e-14 -326.543 1.89637e-14 2406.41)
(10616.2 -998.269 -1.22501e-14 -133.799 -4.05921e-16 2419.03)
(10492 -956.02 4.23285e-15 53.8077 7.05174e-15 2433.65)
(10381 -895.133 1.59945e-14 233.316 7.68875e-15 2449.45)
(10282.8 -815.374 5.88986e-14 401.656 2.45527e-14 2465.63)
(10197.4 -715.964 1.57782e-14 555.384 6.68222e-15 2481.4)
(10125.3 -595.522 5.87747e-30 690.389 2.56e-30 2495.93)
(10067.9 -451.705 5.72996e-14 801.526 2.4245e-14 2508.33)