/*--------------------------------*- C++ -*----------------------------------*\
| =========                 |                                                 |
| \\      /  F ield         | OpenFOAM: The Open Source CFD Toolbox           |
|  \\    /   O peration     | Version:  2.3.0                                 |
|   \\  /    A nd           | Web:      www.OpenFOAM.org                      |
|    \\/     M anipulation  |                                                 |
\*---------------------------------------------------------------------------*/
FoamFile
{
    version     2.0;
    format      ascii;
    class       volVectorField;
    location    "100";
    object      D;
}
// * * * * * * * * * * * * * * * * * * * * * * * * * * * * * * * * * * * * * //

dimensions      [0 1 0 0 0 0 0];

internalField   nonuniform List<vector> 
1000
(
(5.92105e-08 -2.61852e-08 0)
(5.55363e-08 -2.35827e-08 0)
(5.32842e-08 -2.19378e-08 0)
(5.1969e-08 -2.08999e-08 0)
(5.13002e-08 -2.0265e-08 0)
(5.10916e-08 -1.99058e-08 0)
(5.12184e-08 -1.97385e-08 0)
(5.15936e-08 -1.97062e-08 0)
(5.21557e-08 -1.977e-08 0)
(5.28678e-08 -1.9905e-08 0)
(5.36267e-08 -2.84608e-08 0)
(4.97483e-08 -2.635e-08 0)
(4.73711e-08 -2.50019e-08 0)
(4.59713e-08 -2.41459e-08 0)
(4.52374e-08 -2.36233e-08 0)
(4.49718e-08 -2.33337e-08 0)
(4.50433e-08 -2.321e-08 0)
(4.53621e-08 -2.32059e-08 0)
(4.58666e-08 -2.32892e-08 0)
(4.65195e-08 -2.34378e-08 0)
(4.78004e-08 -3.06004e-08 0)
(4.38645e-08 -2.90503e-08 0)
(4.14525e-08 -2.80421e-08 0)
(4.00238e-08 -2.73953e-08 0)
(3.92589e-08 -2.70022e-08 0)
(3.89564e-08 -2.67932e-08 0)
(3.89836e-08 -2.672e-08 0)
(3.92508e-08 -2.67483e-08 0)
(3.96958e-08 -2.68536e-08 0)
(4.02794e-08 -2.70181e-08 0)
(4.17736e-08 -3.25702e-08 0)
(3.79369e-08 -3.16165e-08 0)
(3.55864e-08 -3.09706e-08 0)
(3.41883e-08 -3.05474e-08 0)
(3.34285e-08 -3.02934e-08 0)
(3.311e-08 -3.01713e-08 0)
(3.31039e-08 -3.01529e-08 0)
(3.33229e-08 -3.02168e-08 0)
(3.37067e-08 -3.03466e-08 0)
(3.42164e-08 -3.05296e-08 0)
(3.55844e-08 -3.43366e-08 0)
(3.20056e-08 -3.39795e-08 0)
(2.9814e-08 -3.36967e-08 0)
(2.85064e-08 -3.34981e-08 0)
(2.77878e-08 -3.33843e-08 0)
(2.74742e-08 -3.33502e-08 0)
(2.74454e-08 -3.33878e-08 0)
(2.76202e-08 -3.34885e-08 0)
(2.79425e-08 -3.36439e-08 0)
(2.83761e-08 -3.38466e-08 0)
(2.92668e-08 -3.58667e-08 0)
(2.60987e-08 -3.60715e-08 0)
(2.4159e-08 -3.61311e-08 0)
(2.29987e-08 -3.61447e-08 0)
(2.23557e-08 -3.61638e-08 0)
(2.20669e-08 -3.62135e-08 0)
(2.20258e-08 -3.63048e-08 0)
(2.21608e-08 -3.64411e-08 0)
(2.24224e-08 -3.66217e-08 0)
(2.27786e-08 -3.68441e-08 0)
(2.2851e-08 -3.71296e-08 0)
(2.02319e-08 -3.78289e-08 0)
(1.8628e-08 -3.81901e-08 0)
(1.76662e-08 -3.83911e-08 0)
(1.71296e-08 -3.85279e-08 0)
(1.68834e-08 -3.86522e-08 0)
(1.68398e-08 -3.87916e-08 0)
(1.69393e-08 -3.89599e-08 0)
(1.71414e-08 -3.91634e-08 0)
(1.74193e-08 -3.94041e-08 0)
(1.63638e-08 -3.80964e-08 0)
(1.44107e-08 -3.91945e-08 0)
(1.32119e-08 -3.97995e-08 0)
(1.24909e-08 -4.01525e-08 0)
(1.20866e-08 -4.03849e-08 0)
(1.18984e-08 -4.05697e-08 0)
(1.18605e-08 -4.07481e-08 0)
(1.19286e-08 -4.09427e-08 0)
(1.20722e-08 -4.11653e-08 0)
(1.22716e-08 -4.14215e-08 0)
(9.83023e-09 -3.87391e-08 0)
(8.63044e-09 -4.0118e-08 0)
(7.88815e-09 -4.08956e-08 0)
(7.44007e-09 -4.13558e-08 0)
(7.18801e-09 -4.16551e-08 0)
(7.06954e-09 -4.18822e-08 0)
(7.04378e-09 -4.20879e-08 0)
(7.08327e-09 -4.23008e-08 0)
(7.16928e-09 -4.25371e-08 0)
(7.28968e-09 -4.28049e-08 0)
(3.27713e-09 -3.90283e-08 0)
(2.87936e-09 -4.05507e-08 0)
(2.62469e-09 -4.1415e-08 0)
(2.47036e-09 -4.19274e-08 0)
(2.38337e-09 -4.22587e-08 0)
(2.34206e-09 -4.25058e-08 0)
(2.33232e-09 -4.27241e-08 0)
(2.3448e-09 -4.29456e-08 0)
(2.37322e-09 -4.31882e-08 0)
(2.41368e-09 -4.3462e-08 0)
(9.13244e-08 -1.21137e-09 0)
(9.18572e-08 -8.68485e-10 0)
(9.21889e-08 -6.35525e-10 0)
(9.25235e-08 -4.884e-10 0)
(9.296e-08 -3.98442e-10 0)
(9.35415e-08 -3.45787e-10 0)
(9.42827e-08 -3.17671e-10 0)
(9.51836e-08 -3.05787e-10 0)
(9.62373e-08 -3.04648e-10 0)
(9.74337e-08 -3.10793e-10 0)
(9.07429e-08 -3.6902e-09 0)
(9.11334e-08 -2.61549e-09 0)
(9.13771e-08 -1.93957e-09 0)
(9.16589e-08 -1.51565e-09 0)
(9.20623e-08 -1.25564e-09 0)
(9.26218e-08 -1.10344e-09 0)
(9.33472e-08 -1.02264e-09 0)
(9.42354e-08 -9.8911e-10 0)
(9.52775e-08 -9.8658e-10 0)
(9.64615e-08 -1.00394e-09 0)
(8.94565e-08 -6.19191e-09 0)
(8.95765e-08 -4.43091e-09 0)
(8.96519e-08 -3.3406e-09 0)
(8.98266e-08 -2.66075e-09 0)
(9.01598e-08 -2.24407e-09 0)
(9.06712e-08 -2.00021e-09 0)
(9.13607e-08 -1.87103e-09 0)
(9.22196e-08 -1.81787e-09 0)
(9.32347e-08 -1.81434e-09 0)
(9.43914e-08 -1.84218e-09 0)
(8.75161e-08 -8.7087e-09 0)
(8.72534e-08 -6.35118e-09 0)
(8.70936e-08 -4.89592e-09 0)
(8.71181e-08 -3.9911e-09 0)
(8.73518e-08 -3.43742e-09 0)
(8.77938e-08 -3.11388e-09 0)
(8.84316e-08 -2.94313e-09 0)
(8.92478e-08 -2.87384e-09 0)
(9.02243e-08 -2.87086e-09 0)
(9.13426e-08 -2.90985e-09 0)
(8.49627e-08 -1.12383e-08 0)
(8.42271e-08 -8.40317e-09 0)
(8.37776e-08 -6.65177e-09 0)
(8.36175e-08 -5.56332e-09 0)
(8.37289e-08 -4.89795e-09 0)
(8.40854e-08 -4.50996e-09 0)
(8.46588e-08 -4.3064e-09 0)
(8.54221e-08 -4.22566e-09 0)
(8.63506e-08 -4.22554e-09 0)
(8.74214e-08 -4.27694e-09 0)
(8.18367e-08 -1.3777e-08 0)
(8.05665e-08 -1.06036e-08 0)
(7.97895e-08 -8.63941e-09 0)
(7.94211e-08 -7.41758e-09 0)
(7.93943e-08 -6.67085e-09 0)
(7.96539e-08 -6.23637e-09 0)
(8.01541e-08 -6.01019e-09 0)
(8.08568e-08 -5.92339e-09 0)
(8.17302e-08 -5.92878e-09 0)
(8.27466e-08 -5.99382e-09 0)
(7.81808e-08 -1.63175e-08 0)
(7.63478e-08 -1.29581e-08 0)
(7.52256e-08 -1.08734e-08 0)
(7.46375e-08 -9.57453e-09 0)
(7.44646e-08 -8.78044e-09 0)
(7.46213e-08 -8.31946e-09 0)
(7.50431e-08 -8.08175e-09 0)
(7.56803e-08 -7.9945e-09 0)
(7.64938e-08 -8.00786e-09 0)
(7.74507e-08 -8.08751e-09 0)
(7.40412e-08 -1.88478e-08 0)
(7.16523e-08 -1.54595e-08 0)
(7.0189e-08 -1.33506e-08 0)
(6.93832e-08 -1.20337e-08 0)
(6.90648e-08 -1.12281e-08 0)
(6.91181e-08 -1.07617e-08 0)
(6.94602e-08 -1.0524e-08 0)
(7.00301e-08 -1.04417e-08 0)
(7.07812e-08 -1.04647e-08 0)
(7.16759e-08 -1.05591e-08 0)
(6.94665e-08 -2.13509e-08 0)
(6.65639e-08 -1.80879e-08 0)
(6.47853e-08 -1.60493e-08 0)
(6.37774e-08 -1.47729e-08 0)
(6.33228e-08 -1.39918e-08 0)
(6.32776e-08 -1.35413e-08 0)
(6.35422e-08 -1.33154e-08 0)
(6.40452e-08 -1.32431e-08 0)
(6.47339e-08 -1.32764e-08 0)
(6.55666e-08 -1.33836e-08 0)
(6.45064e-08 -2.38054e-08 0)
(6.11656e-08 -2.08105e-08 0)
(5.9118e-08 -1.89303e-08 0)
(5.79365e-08 -1.77492e-08 0)
(5.73627e-08 -1.70262e-08 0)
(5.72288e-08 -1.66122e-08 0)
(5.74211e-08 -1.641e-08 0)
(5.78593e-08 -1.63541e-08 0)
(5.84859e-08 -1.63989e-08 0)
(5.92591e-08 -1.65141e-08 0)
(9.87609e-08 -3.14414e-10 0)
(1.00217e-07 -3.09472e-10 0)
(1.01779e-07 -3.04382e-10 0)
(1.03436e-07 -2.98528e-10 0)
(1.05179e-07 -2.91371e-10 0)
(1.06999e-07 -2.8243e-10 0)
(1.08889e-07 -2.713e-10 0)
(1.10841e-07 -2.57644e-10 0)
(1.12848e-07 -2.41165e-10 0)
(1.14904e-07 -2.21574e-10 0)
(1.17002e-07 -1.98567e-10 0)
(1.19138e-07 -1.71806e-10 0)
(1.21304e-07 -1.40897e-10 0)
(1.23495e-07 -1.05374e-10 0)
(1.25705e-07 -6.46807e-11 0)
(1.27927e-07 -1.81513e-11 0)
(1.30153e-07 3.49571e-11 0)
(1.32377e-07 9.51842e-11 0)
(1.34589e-07 1.61589e-10 0)
(1.36781e-07 2.27709e-10 0)
(9.78306e-08 -1.005e-09 0)
(9.93716e-08 -9.77024e-10 0)
(1.01005e-07 -9.52793e-10 0)
(1.02724e-07 -9.28813e-10 0)
(1.04521e-07 -9.02417e-10 0)
(1.06389e-07 -8.71662e-10 0)
(1.08321e-07 -8.35095e-10 0)
(1.10311e-07 -7.91558e-10 0)
(1.12352e-07 -7.40051e-10 0)
(1.14438e-07 -6.79629e-10 0)
(1.16565e-07 -6.09319e-10 0)
(1.18727e-07 -5.28058e-10 0)
(1.20917e-07 -4.34632e-10 0)
(1.23131e-07 -3.27628e-10 0)
(1.25363e-07 -2.05388e-10 0)
(1.27606e-07 -6.59972e-11 0)
(1.29853e-07 9.26796e-11 0)
(1.32098e-07 2.7285e-10 0)
(1.34331e-07 4.76843e-10 0)
(1.36544e-07 7.09007e-10 0)
(9.58422e-08 -1.82833e-09 0)
(9.75551e-08 -1.75767e-09 0)
(9.93379e-08 -1.69768e-09 0)
(1.01187e-07 -1.64205e-09 0)
(1.03099e-07 -1.58557e-09 0)
(1.05068e-07 -1.52432e-09 0)
(1.0709e-07 -1.45536e-09 0)
(1.09161e-07 -1.37637e-09 0)
(1.11275e-07 -1.28541e-09 0)
(1.13429e-07 -1.18066e-09 0)
(1.15617e-07 -1.06032e-09 0)
(1.17836e-07 -9.22487e-10 0)
(1.2008e-07 -7.65024e-10 0)
(1.22344e-07 -5.85492e-10 0)
(1.24623e-07 -3.81068e-10 0)
(1.26912e-07 -1.48474e-10 0)
(1.29203e-07 1.16111e-10 0)
(1.31491e-07 4.17317e-10 0)
(1.33767e-07 7.616e-10 0)
(1.3602e-07 1.1607e-09 0)
(9.29107e-08 -2.86399e-09 0)
(9.48698e-08 -2.72101e-09 0)
(9.68684e-08 -2.6001e-09 0)
(9.89074e-08 -2.49184e-09 0)
(1.00987e-07 -2.38801e-09 0)
(1.03105e-07 -2.28222e-09 0)
(1.0526e-07 -2.16951e-09 0)
(1.07451e-07 -2.04593e-09 0)
(1.09674e-07 -1.90819e-09 0)
(1.11928e-07 -1.7533e-09 0)
(1.14208e-07 -1.57839e-09 0)
(1.16511e-07 -1.3805e-09 0)
(1.18834e-07 -1.15638e-09 0)
(1.21172e-07 -9.02438e-10 0)
(1.23522e-07 -6.14504e-10 0)
(1.25877e-07 -2.87736e-10 0)
(1.28233e-07 8.36417e-11 0)
(1.30583e-07 5.06842e-10 0)
(1.3292e-07 9.9184e-10 0)
(1.35232e-07 1.55533e-09 0)
(8.91358e-08 -4.17753e-09 0)
(9.14033e-08 -3.92454e-09 0)
(9.36741e-08 -3.71058e-09 0)
(9.59541e-08 -3.52272e-09 0)
(9.82475e-08 -3.34918e-09 0)
(1.00557e-07 -3.18043e-09 0)
(1.02884e-07 -3.00891e-09 0)
(1.0523e-07 -2.82854e-09 0)
(1.07594e-07 -2.6342e-09 0)
(1.09977e-07 -2.42135e-09 0)
(1.12375e-07 -2.18572e-09 0)
(1.14788e-07 -1.92299e-09 0)
(1.17213e-07 -1.62864e-09 0)
(1.19648e-07 -1.29765e-09 0)
(1.22088e-07 -9.24345e-10 0)
(1.2453e-07 -5.0213e-10 0)
(1.26969e-07 -2.31478e-11 0)
(1.29399e-07 5.22331e-10 0)
(1.31814e-07 1.14736e-09 0)
(1.34204e-07 1.87268e-09 0)
(8.46283e-08 -5.81669e-09 0)
(8.72513e-08 -5.41127e-09 0)
(8.98392e-08 -5.06757e-09 0)
(9.24021e-08 -4.76899e-09 0)
(9.49486e-08 -4.49963e-09 0)
(9.74855e-08 -4.24623e-09 0)
(1.00018e-07 -3.99807e-09 0)
(1.02549e-07 -3.74632e-09 0)
(1.05083e-07 -3.48357e-09 0)
(1.0762e-07 -3.2033e-09 0)
(1.10161e-07 -2.89945e-09 0)
(1.12706e-07 -2.56611e-09 0)
(1.15254e-07 -2.19714e-09 0)
(1.17804e-07 -1.78594e-09 0)
(1.20353e-07 -1.32513e-09 0)
(1.22899e-07 -8.0619e-10 0)
(1.25438e-07 -2.19116e-10 0)
(1.27964e-07 4.48318e-10 0)
(1.30473e-07 1.21208e-09 0)
(1.32957e-07 2.09659e-09 0)
(7.95118e-08 -7.80833e-09 0)
(8.25207e-08 -7.2074e-09 0)
(8.54571e-08 -6.69577e-09 0)
(8.83343e-08 -6.25348e-09 0)
(9.11645e-08 -5.86018e-09 0)
(9.39577e-08 -5.4985e-09 0)
(9.67225e-08 -5.154e-09 0)
(9.94656e-08 -4.81468e-09 0)
(1.02192e-07 -4.47032e-09 0)
(1.04906e-07 -4.11198e-09 0)
(1.07611e-07 -3.73149e-09 0)
(1.10307e-07 -3.32097e-09 0)
(1.12997e-07 -2.87246e-09 0)
(1.15679e-07 -2.37755e-09 0)
(1.18353e-07 -1.82697e-09 0)
(1.21018e-07 -1.21018e-09 0)
(1.2367e-07 -5.14926e-10 0)
(1.26307e-07 2.73562e-10 0)
(1.28924e-07 1.17414e-09 0)
(1.31516e-07 2.21459e-09 0)
(7.39188e-08 -1.01562e-08 0)
(7.73263e-08 -9.32054e-09 0)
(8.06288e-08 -8.60487e-09 0)
(8.38402e-08 -7.9866e-09 0)
(8.69751e-08 -7.4412e-09 0)
(9.00463e-08 -6.94711e-09 0)
(9.30647e-08 -6.48593e-09 0)
(9.60397e-08 -6.04208e-09 0)
(9.8979e-08 -5.60217e-09 0)
(1.01889e-07 -5.15448e-09 0)
(1.04774e-07 -4.68833e-09 0)
(1.07638e-07 -4.19363e-09 0)
(1.10484e-07 -3.66033e-09 0)
(1.13313e-07 -3.07802e-09 0)
(1.16126e-07 -2.43541e-09 0)
(1.18922e-07 -1.71986e-09 0)
(1.217e-07 -9.16787e-10 0)
(1.24458e-07 -8.83024e-12 0)
(1.27195e-07 1.02578e-09 0)
(1.29906e-07 2.218e-09 0)
(6.79872e-08 -1.28403e-08 0)
(7.17896e-08 -1.17391e-08 0)
(7.54616e-08 -1.07889e-08 0)
(7.90153e-08 -9.96586e-09 0)
(8.24662e-08 -9.2422e-09 0)
(8.58285e-08 -8.59266e-09 0)
(8.91147e-08 -7.99499e-09 0)
(9.23361e-08 -7.42988e-09 0)
(9.55026e-08 -6.88053e-09 0)
(9.86222e-08 -6.33211e-09 0)
(1.01702e-07 -5.7712e-09 0)
(1.04747e-07 -5.1852e-09 0)
(1.07761e-07 -4.56178e-09 0)
(1.10748e-07 -3.88837e-09 0)
(1.13709e-07 -3.15156e-09 0)
(1.16646e-07 -2.33657e-09 0)
(1.1956e-07 -1.42652e-09 0)
(1.22449e-07 -4.01501e-10 0)
(1.25314e-07 7.63251e-10 0)
(1.28153e-07 2.10186e-09 0)
(6.18616e-08 -1.58162e-08 0)
(6.60441e-08 -1.44285e-08 0)
(7.00757e-08 -1.32215e-08 0)
(7.39674e-08 -1.21707e-08 0)
(7.77343e-08 -1.1247e-08 0)
(8.13908e-08 -1.04221e-08 0)
(8.49504e-08 -9.67047e-09 0)
(8.84254e-08 -8.96913e-09 0)
(9.18269e-08 -8.29778e-09 0)
(9.51648e-08 -7.63833e-09 0)
(9.84471e-08 -6.97437e-09 0)
(1.01681e-07 -6.29062e-09 0)
(1.04872e-07 -5.57229e-09 0)
(1.08025e-07 -4.80453e-09 0)
(1.11142e-07 -3.97177e-09 0)
(1.14228e-07 -3.05709e-09 0)
(1.17283e-07 -2.0415e-09 0)
(1.2031e-07 -9.02755e-10 0)
(1.2331e-07 3.86604e-10 0)
(1.26284e-07 1.86447e-09 0)
(5.73644e-08 -1.84811e-08 0)
(6.17731e-08 -1.68796e-08 0)
(6.60157e-08 -1.5483e-08 0)
(7.01116e-08 -1.42568e-08 0)
(7.40749e-08 -1.31701e-08 0)
(7.79184e-08 -1.21944e-08 0)
(8.16546e-08 -1.13037e-08 0)
(8.52951e-08 -1.0474e-08 0)
(8.88509e-08 -9.68396e-09 0)
(9.23318e-08 -8.91399e-09 0)
(9.57464e-08 -8.14623e-09 0)
(9.91023e-08 -7.36389e-09 0)
(1.02406e-07 -6.55077e-09 0)
(1.05663e-07 -5.69067e-09 0)
(1.08877e-07 -4.76682e-09 0)
(1.12052e-07 -3.76124e-09 0)
(1.15193e-07 -2.65401e-09 0)
(1.18301e-07 -1.42224e-09 0)
(1.21381e-07 -3.80139e-11 0)
(1.24437e-07 1.53733e-09 0)
(5.47679e-08 -2.05403e-08 0)
(5.91886e-08 -1.88746e-08 0)
(6.34701e-08 -1.73872e-08 0)
(6.76184e-08 -1.60603e-08 0)
(7.16417e-08 -1.48679e-08 0)
(7.5549e-08 -1.37843e-08 0)
(7.93497e-08 -1.27856e-08 0)
(8.30535e-08 -1.18499e-08 0)
(8.66696e-08 -1.09567e-08 0)
(9.02065e-08 -1.0087e-08 0)
(9.36725e-08 -9.22323e-09 0)
(9.70745e-08 -8.34861e-09 0)
(1.00419e-07 -7.44681e-09 0)
(1.03711e-07 -6.5015e-09 0)
(1.06957e-07 -5.49588e-09 0)
(1.1016e-07 -4.41209e-09 0)
(1.13326e-07 -3.23063e-09 0)
(1.16457e-07 -1.92945e-09 0)
(1.1956e-07 -4.82186e-10 0)
(1.2264e-07 1.14706e-09 0)
(5.24566e-08 -2.24976e-08 0)
(5.68433e-08 -2.07989e-08 0)
(6.11199e-08 -1.92485e-08 0)
(6.52829e-08 -1.78407e-08 0)
(6.93334e-08 -1.65572e-08 0)
(7.3276e-08 -1.53772e-08 0)
(7.71167e-08 -1.42797e-08 0)
(8.08626e-08 -1.32449e-08 0)
(8.45209e-08 -1.22538e-08 0)
(8.80989e-08 -1.12886e-08 0)
(9.16035e-08 -1.03322e-08 0)
(9.50413e-08 -9.36829e-09 0)
(9.84184e-08 -8.38075e-09 0)
(1.0174e-07 -7.35349e-09 0)
(1.05012e-07 -6.26999e-09 0)
(1.08239e-07 -5.11288e-09 0)
(1.11427e-07 -3.86342e-09 0)
(1.14579e-07 -2.50082e-09 0)
(1.17704e-07 -1.00066e-09 0)
(1.20808e-07 6.69902e-10 0)
(5.04016e-08 -2.43564e-08 0)
(5.47293e-08 -2.2643e-08 0)
(5.89699e-08 -2.10508e-08 0)
(6.31163e-08 -1.95809e-08 0)
(6.71651e-08 -1.82218e-08 0)
(7.11167e-08 -1.69577e-08 0)
(7.49739e-08 -1.57715e-08 0)
(7.87413e-08 -1.46458e-08 0)
(8.24239e-08 -1.35637e-08 0)
(8.60275e-08 -1.25085e-08 0)
(8.95579e-08 -1.14642e-08 0)
(9.30207e-08 -1.04153e-08 0)
(9.64216e-08 -9.34609e-09 0)
(9.97658e-08 -8.24111e-09 0)
(1.03059e-07 -7.08441e-09 0)
(1.06306e-07 -5.8594e-09 0)
(1.09512e-07 -4.54845e-09 0)
(1.12684e-07 -3.13228e-09 0)
(1.15828e-07 -1.5887e-09 0)
(1.18954e-07 1.1182e-10 0)
(4.85688e-08 -2.61175e-08 0)
(5.28212e-08 -2.44024e-08 0)
(5.70049e-08 -2.27842e-08 0)
(6.11116e-08 -2.12681e-08 0)
(6.51355e-08 -1.98479e-08 0)
(6.90742e-08 -1.85124e-08 0)
(7.29277e-08 -1.72483e-08 0)
(7.66982e-08 -1.60409e-08 0)
(8.0389e-08 -1.48755e-08 0)
(8.40041e-08 -1.3737e-08 0)
(8.7548e-08 -1.26108e-08 0)
(9.10256e-08 -1.14822e-08 0)
(9.44418e-08 -1.03364e-08 0)
(9.78015e-08 -9.15875e-09 0)
(1.0111e-07 -7.93418e-09 0)
(1.04372e-07 -6.64711e-09 0)
(1.07594e-07 -5.28124e-09 0)
(1.10782e-07 -3.81905e-09 0)
(1.13944e-07 -2.24074e-09 0)
(1.1709e-07 -5.20317e-10 0)
(4.69256e-08 -2.77836e-08 0)
(5.10913e-08 -2.60761e-08 0)
(5.52041e-08 -2.44438e-08 0)
(5.92548e-08 -2.28945e-08 0)
(6.32365e-08 -2.1426e-08 0)
(6.71449e-08 -2.00311e-08 0)
(7.09781e-08 -1.86998e-08 0)
(7.47364e-08 -1.74203e-08 0)
(7.84213e-08 -1.61799e-08 0)
(8.20354e-08 -1.49657e-08 0)
(8.55821e-08 -1.37642e-08 0)
(8.90652e-08 -1.2562e-08 0)
(9.24888e-08 -1.13455e-08 0)
(9.58575e-08 -1.01009e-08 0)
(9.9176e-08 -8.81424e-09 0)
(1.0245e-07 -7.47119e-09 0)
(1.05684e-07 -6.05692e-09 0)
(1.08887e-07 -4.55583e-09 0)
(1.12064e-07 -2.95064e-09 0)
(1.15228e-07 -1.21897e-09 0)
(4.54409e-08 -2.93591e-08 0)
(4.95133e-08 -2.76656e-08 0)
(5.35458e-08 -2.60281e-08 0)
(5.75294e-08 -2.4456e-08 0)
(6.14563e-08 -2.29502e-08 0)
(6.53213e-08 -2.15066e-08 0)
(6.91212e-08 -2.01183e-08 0)
(7.28548e-08 -1.8776e-08 0)
(7.65222e-08 -1.74694e-08 0)
(8.01249e-08 -1.61872e-08 0)
(8.36649e-08 -1.49177e-08 0)
(8.71453e-08 -1.36486e-08 0)
(9.05696e-08 -1.23677e-08 0)
(9.39415e-08 -1.10623e-08 0)
(9.72656e-08 -9.71961e-09 0)
(1.00547e-07 -8.32675e-09 0)
(1.03791e-07 -6.87045e-09 0)
(1.07005e-07 -5.33709e-09 0)
(1.10196e-07 -3.71192e-09 0)
(1.13375e-07 -1.97624e-09 0)
(4.40866e-08 -3.08495e-08 0)
(4.80621e-08 -2.91743e-08 0)
(5.20089e-08 -2.7538e-08 0)
(5.59179e-08 -2.59513e-08 0)
(5.97814e-08 -2.44173e-08 0)
(6.35935e-08 -2.29345e-08 0)
(6.73503e-08 -2.14984e-08 0)
(7.10495e-08 -2.01023e-08 0)
(7.46903e-08 -1.87379e-08 0)
(7.82728e-08 -1.73957e-08 0)
(8.17986e-08 -1.60655e-08 0)
(8.52695e-08 -1.47366e-08 0)
(8.86884e-08 -1.33979e-08 0)
(9.20586e-08 -1.2038e-08 0)
(9.53841e-08 -1.06456e-08 0)
(9.86696e-08 -9.20902e-09 0)
(1.0192e-07 -7.71676e-09 0)
(1.05143e-07 -6.15717e-09 0)
(1.08346e-07 -4.51802e-09 0)
(1.11538e-07 -2.78412e-09 0)
(4.28371e-08 -3.22613e-08 0)
(4.67149e-08 -3.06066e-08 0)
(5.05731e-08 -2.89761e-08 0)
(5.44032e-08 -2.7381e-08 0)
(5.81976e-08 -2.58262e-08 0)
(6.19504e-08 -2.43122e-08 0)
(6.5657e-08 -2.28368e-08 0)
(6.93147e-08 -2.13953e-08 0)
(7.29216e-08 -1.99811e-08 0)
(7.64775e-08 -1.85867e-08 0)
(7.99827e-08 -1.72033e-08 0)
(8.34386e-08 -1.58215e-08 0)
(8.68473e-08 -1.44317e-08 0)
(9.02116e-08 -1.30238e-08 0)
(9.3535e-08 -1.15878e-08 0)
(9.68218e-08 -1.01134e-08 0)
(1.00077e-07 -8.59093e-09 0)
(1.03307e-07 -7.01054e-09 0)
(1.06518e-07 -5.36243e-09 0)
(1.09721e-07 -3.63477e-09 0)
(4.16697e-08 -3.36009e-08 0)
(4.54505e-08 -3.19677e-08 0)
(4.92195e-08 -3.03458e-08 0)
(5.29685e-08 -2.8747e-08 0)
(5.66906e-08 -2.71773e-08 0)
(6.03799e-08 -2.56391e-08 0)
(6.40317e-08 -2.41317e-08 0)
(6.76427e-08 -2.26523e-08 0)
(7.12109e-08 -2.1196e-08 0)
(7.4735e-08 -1.97568e-08 0)
(7.8215e-08 -1.83273e-08 0)
(8.16517e-08 -1.68997e-08 0)
(8.50464e-08 -1.54655e-08 0)
(8.84015e-08 -1.40159e-08 0)
(9.17199e-08 -1.25422e-08 0)
(9.50054e-08 -1.10358e-08 0)
(9.82626e-08 -9.48831e-09 0)
(1.01497e-07 -7.89188e-09 0)
(1.04716e-07 -6.23893e-09 0)
(1.07928e-07 -4.52068e-09 0)
(4.05638e-08 -3.4875e-08 0)
(4.42497e-08 -3.32629e-08 0)
(4.79301e-08 -3.16513e-08 0)
(5.15977e-08 -3.00521e-08 0)
(5.52462e-08 -2.84723e-08 0)
(5.88698e-08 -2.69156e-08 0)
(6.2464e-08 -2.53826e-08 0)
(6.60253e-08 -2.38721e-08 0)
(6.95512e-08 -2.23808e-08 0)
(7.30403e-08 -2.09038e-08 0)
(7.64919e-08 -1.94352e-08 0)
(7.99062e-08 -1.79684e-08 0)
(8.32841e-08 -1.64962e-08 0)
(8.66274e-08 -1.5011e-08 0)
(8.99386e-08 -1.35055e-08 0)
(9.32209e-08 -1.19723e-08 0)
(9.64784e-08 -1.04046e-08 0)
(9.97163e-08 -8.79623e-09 0)
(1.02941e-07 -7.14169e-09 0)
(1.0616e-07 -5.4349e-09 0)
(3.95009e-08 -3.60896e-08 0)
(4.30945e-08 -3.44975e-08 0)
(4.66881e-08 -3.28969e-08 0)
(5.02753e-08 -3.12997e-08 0)
(5.38502e-08 -2.97135e-08 0)
(5.74075e-08 -2.8143e-08 0)
(6.0943e-08 -2.65901e-08 0)
(6.44531e-08 -2.50547e-08 0)
(6.7935e-08 -2.35346e-08 0)
(7.13871e-08 -2.20264e-08 0)
(7.48083e-08 -2.05253e-08 0)
(7.81982e-08 -1.90257e-08 0)
(8.15575e-08 -1.75216e-08 0)
(8.48874e-08 -1.60067e-08 0)
(8.81897e-08 -1.44746e-08 0)
(9.14672e-08 -1.29195e-08 0)
(9.47236e-08 -1.13358e-08 0)
(9.79633e-08 -9.71905e-09 0)
(1.01192e-07 -8.06537e-09 0)
(1.04416e-07 -6.37108e-09 0)
(3.84638e-08 -3.72502e-08 0)
(4.19681e-08 -3.56766e-08 0)
(4.54775e-08 -3.40871e-08 0)
(4.89861e-08 -3.24934e-08 0)
(5.24888e-08 -3.09037e-08 0)
(5.59807e-08 -2.93234e-08 0)
(5.94578e-08 -2.77554e-08 0)
(6.29165e-08 -2.62005e-08 0)
(6.63541e-08 -2.46577e-08 0)
(6.97685e-08 -2.31243e-08 0)
(7.31584e-08 -2.15966e-08 0)
(7.65232e-08 -2.00702e-08 0)
(7.98629e-08 -1.854e-08 0)
(8.31782e-08 -1.70007e-08 0)
(8.64707e-08 -1.54472e-08 0)
(8.97425e-08 -1.38746e-08 0)
(9.29966e-08 -1.22787e-08 0)
(9.62369e-08 -1.06563e-08 0)
(9.94683e-08 -9.00521e-09 0)
(1.02696e-07 -7.32365e-09 0)
(3.74362e-08 -3.8362e-08 0)
(4.08547e-08 -3.6805e-08 0)
(4.42829e-08 -3.52262e-08 0)
(4.77157e-08 -3.36371e-08 0)
(5.11485e-08 -3.20462e-08 0)
(5.4577e-08 -3.04596e-08 0)
(5.79972e-08 -2.88807e-08 0)
(6.14057e-08 -2.73112e-08 0)
(6.47997e-08 -2.57508e-08 0)
(6.8177e-08 -2.41977e-08 0)
(7.15359e-08 -2.26492e-08 0)
(7.48756e-08 -2.11015e-08 0)
(7.81955e-08 -1.95505e-08 0)
(8.14961e-08 -1.79918e-08 0)
(8.47783e-08 -1.64213e-08 0)
(8.80437e-08 -1.48351e-08 0)
(9.12949e-08 -1.32302e-08 0)
(9.45349e-08 -1.16045e-08 0)
(9.77679e-08 -9.95709e-09 0)
(1.00999e-07 -8.28778e-09 0)
(3.64023e-08 -3.94295e-08 0)
(3.97386e-08 -3.78873e-08 0)
(4.30892e-08 -3.63186e-08 0)
(4.64497e-08 -3.47348e-08 0)
(4.9816e-08 -3.31446e-08 0)
(5.3184e-08 -3.15545e-08 0)
(5.655e-08 -2.99684e-08 0)
(5.99107e-08 -2.83886e-08 0)
(6.32632e-08 -2.68155e-08 0)
(6.6605e-08 -2.52478e-08 0)
(6.99342e-08 -2.36836e-08 0)
(7.32497e-08 -2.21197e-08 0)
(7.65506e-08 -2.05527e-08 0)
(7.98368e-08 -1.89791e-08 0)
(8.31088e-08 -1.73956e-08 0)
(8.63677e-08 -1.57992e-08 0)
(8.96153e-08 -1.41879e-08 0)
(9.28543e-08 -1.25606e-08 0)
(9.60881e-08 -1.09175e-08 0)
(9.93207e-08 -9.2595e-09 0)
(3.53459e-08 -4.04569e-08 0)
(3.86039e-08 -3.89278e-08 0)
(4.18812e-08 -3.73686e-08 0)
(4.51737e-08 -3.57906e-08 0)
(4.84778e-08 -3.42028e-08 0)
(5.17896e-08 -3.26117e-08 0)
(5.51054e-08 -3.10218e-08 0)
(5.84219e-08 -2.94356e-08 0)
(6.1736e-08 -2.7854e-08 0)
(6.5045e-08 -2.62763e-08 0)
(6.83469e-08 -2.47009e-08 0)
(7.16399e-08 -2.31253e-08 0)
(7.49231e-08 -2.15468e-08 0)
(7.81958e-08 -1.99623e-08 0)
(8.14581e-08 -1.83692e-08 0)
(8.47107e-08 -1.67654e-08 0)
(8.79547e-08 -1.51498e-08 0)
(9.11922e-08 -1.35221e-08 0)
(9.44259e-08 -1.18835e-08 0)
(9.76592e-08 -1.02356e-08 0)
(3.42503e-08 -4.1448e-08 0)
(3.74345e-08 -3.99306e-08 0)
(4.06433e-08 -3.83805e-08 0)
(4.38732e-08 -3.6809e-08 0)
(4.71206e-08 -3.52251e-08 0)
(5.03817e-08 -3.36354e-08 0)
(5.36527e-08 -3.20446e-08 0)
(5.69299e-08 -3.04555e-08 0)
(6.02099e-08 -2.88692e-08 0)
(6.349e-08 -2.72854e-08 0)
(6.67676e-08 -2.57029e-08 0)
(7.00407e-08 -2.41197e-08 0)
(7.3308e-08 -2.25334e-08 0)
(7.65687e-08 -2.09414e-08 0)
(7.98223e-08 -1.93417e-08 0)
(8.30691e-08 -1.77328e-08 0)
(8.63096e-08 -1.61143e-08 0)
(8.95452e-08 -1.4487e-08 0)
(9.27781e-08 -1.28526e-08 0)
(9.60113e-08 -1.12137e-08 0)
(3.30973e-08 -4.24068e-08 0)
(3.62126e-08 -4.09001e-08 0)
(3.93588e-08 -3.9359e-08 0)
(4.25328e-08 -3.77948e-08 0)
(4.57307e-08 -3.62164e-08 0)
(4.89483e-08 -3.46304e-08 0)
(5.21813e-08 -3.30415e-08 0)
(5.54256e-08 -3.14524e-08 0)
(5.86775e-08 -2.98646e-08 0)
(6.19335e-08 -2.82781e-08 0)
(6.51909e-08 -2.6692e-08 0)
(6.84474e-08 -2.51045e-08 0)
(7.17013e-08 -2.35136e-08 0)
(7.49515e-08 -2.19171e-08 0)
(7.81974e-08 -2.03133e-08 0)
(8.1439e-08 -1.8701e-08 0)
(8.46765e-08 -1.70805e-08 0)
(8.79104e-08 -1.54534e-08 0)
(9.11421e-08 -1.38229e-08 0)
(9.43744e-08 -1.21921e-08 0)
(3.18656e-08 -4.33372e-08 0)
(3.49178e-08 -4.18408e-08 0)
(3.80092e-08 -4.03094e-08 0)
(4.11362e-08 -3.8754e-08 0)
(4.42939e-08 -3.7183e-08 0)
(4.74773e-08 -3.56027e-08 0)
(5.06813e-08 -3.40178e-08 0)
(5.3901e-08 -3.24313e-08 0)
(5.7132e-08 -3.08446e-08 0)
(6.03703e-08 -2.92581e-08 0)
(6.36126e-08 -2.7671e-08 0)
(6.68563e-08 -2.60818e-08 0)
(7.00995e-08 -2.44888e-08 0)
(7.33409e-08 -2.28901e-08 0)
(7.658e-08 -2.12841e-08 0)
(7.98167e-08 -1.96699e-08 0)
(8.30514e-08 -1.80479e-08 0)
(8.62844e-08 -1.64205e-08 0)
(8.95158e-08 -1.47925e-08 0)
(9.27473e-08 -1.31699e-08 0)
(3.05265e-08 -4.42427e-08 0)
(3.35234e-08 -4.27581e-08 0)
(3.65713e-08 -4.12385e-08 0)
(3.96635e-08 -3.9694e-08 0)
(4.27936e-08 -3.81324e-08 0)
(4.59552e-08 -3.65598e-08 0)
(4.91419e-08 -3.49808e-08 0)
(5.23479e-08 -3.33986e-08 0)
(5.55676e-08 -3.18148e-08 0)
(5.87962e-08 -3.02299e-08 0)
(6.20299e-08 -2.86434e-08 0)
(6.52655e-08 -2.70541e-08 0)
(6.85009e-08 -2.54605e-08 0)
(7.17349e-08 -2.38609e-08 0)
(7.49672e-08 -2.2254e-08 0)
(7.81983e-08 -2.06391e-08 0)
(8.14294e-08 -1.90165e-08 0)
(8.46619e-08 -1.73886e-08 0)
(8.7897e-08 -1.57614e-08 0)
(9.1134e-08 -1.41461e-08 0)
(2.39767e-09 -4.37742e-08 0)
(7.23479e-09 -4.31484e-08 0)
(1.21673e-08 -4.18274e-08 0)
(1.72507e-08 -3.98979e-08 0)
(2.2527e-08 -3.7445e-08 0)
(2.80215e-08 -3.45657e-08 0)
(3.37395e-08 -3.13688e-08 0)
(3.96647e-08 -2.79703e-08 0)
(4.57585e-08 -2.44882e-08 0)
(5.19593e-08 -2.10376e-08 0)
(2.32284e-09 -4.41263e-08 0)
(7.00156e-09 -4.35602e-08 0)
(1.17592e-08 -4.23599e-08 0)
(1.6643e-08 -4.06009e-08 0)
(2.16888e-08 -3.8356e-08 0)
(2.69192e-08 -3.57082e-08 0)
(3.2341e-08 -3.27501e-08 0)
(3.79436e-08 -2.95815e-08 0)
(4.36984e-08 -2.63053e-08 0)
(4.95579e-08 -2.3029e-08 0)
(2.25623e-09 -4.45119e-08 0)
(6.79555e-09 -4.39962e-08 0)
(1.13999e-08 -4.29001e-08 0)
(1.61092e-08 -4.12898e-08 0)
(2.09539e-08 -3.92285e-08 0)
(2.59537e-08 -3.67878e-08 0)
(3.11155e-08 -3.40478e-08 0)
(3.64324e-08 -3.10947e-08 0)
(4.18832e-08 -2.80187e-08 0)
(4.74306e-08 -2.49163e-08 0)
(2.19632e-09 -4.49294e-08 0)
(6.6112e-09 -4.4457e-08 0)
(1.10799e-08 -4.3451e-08 0)
(1.56357e-08 -4.19703e-08 0)
(2.03047e-08 -4.00704e-08 0)
(2.51035e-08 -3.7814e-08 0)
(3.00385e-08 -3.5271e-08 0)
(3.5105e-08 -3.25167e-08 0)
(4.02865e-08 -2.96305e-08 0)
(4.55528e-08 -2.66982e-08 0)
(2.14151e-09 -4.53773e-08 0)
(6.44315e-09 -4.49422e-08 0)
(1.07895e-08 -4.40144e-08 0)
(1.52087e-08 -4.26469e-08 0)
(1.97225e-08 -4.0889e-08 0)
(2.43449e-08 -3.87961e-08 0)
(2.90816e-08 -3.643e-08 0)
(3.39288e-08 -3.38573e-08 0)
(3.88734e-08 -3.11482e-08 0)
(4.38899e-08 -2.8379e-08 0)
(2.09042e-09 -4.58538e-08 0)
(6.287e-09 -4.5451e-08 0)
(1.05211e-08 -4.45912e-08 0)
(1.48165e-08 -4.33226e-08 0)
(1.91914e-08 -4.16895e-08 0)
(2.36576e-08 -3.97414e-08 0)
(2.82197e-08 -3.75337e-08 0)
(3.28746e-08 -3.51256e-08 0)
(3.76111e-08 -3.25796e-08 0)
(4.24075e-08 -2.99641e-08 0)
(2.04196e-09 -4.63566e-08 0)
(6.13928e-09 -4.59819e-08 0)
(1.02685e-08 -4.51815e-08 0)
(1.44497e-08 -4.39996e-08 0)
(1.86985e-08 -4.24763e-08 0)
(2.30247e-08 -4.06565e-08 0)
(2.74318e-08 -3.85899e-08 0)
(3.1917e-08 -3.63301e-08 0)
(3.64704e-08 -3.39331e-08 0)
(4.10734e-08 -3.146e-08 0)
(1.99522e-09 -4.68834e-08 0)
(5.99723e-09 -4.65333e-08 0)
(1.00267e-08 -4.5785e-08 0)
(1.41011e-08 -4.46792e-08 0)
(1.82336e-08 -4.32528e-08 0)
(2.24324e-08 -4.15464e-08 0)
(2.67004e-08 -3.96055e-08 0)
(3.10346e-08 -3.74787e-08 0)
(3.54264e-08 -3.52167e-08 0)
(3.98592e-08 -3.28744e-08 0)
(1.94948e-09 -4.74319e-08 0)
(5.85857e-09 -4.71034e-08 0)
(9.79182e-09 -4.64009e-08 0)
(1.37645e-08 -4.53623e-08 0)
(1.7788e-08 -4.40213e-08 0)
(2.18694e-08 -4.24155e-08 0)
(2.60108e-08 -4.05865e-08 0)
(3.02094e-08 -3.85786e-08 0)
(3.44572e-08 -3.64381e-08 0)
(3.87395e-08 -3.42146e-08 0)
(1.90412e-09 -4.79996e-08 0)
(5.72138e-09 -4.76901e-08 0)
(9.56035e-09 -4.70281e-08 0)
(1.34347e-08 -4.60489e-08 0)
(1.73545e-08 -4.47838e-08 0)
(2.13259e-08 -4.32672e-08 0)
(2.53506e-08 -4.15376e-08 0)
(2.94257e-08 -3.96358e-08 0)
(3.3544e-08 -3.76044e-08 0)
(3.76924e-08 -3.54882e-08 0)
(1.85858e-09 -4.85838e-08 0)
(5.58396e-09 -4.82912e-08 0)
(9.32931e-09 -4.76652e-08 0)
(1.31071e-08 -4.67389e-08 0)
(1.69267e-08 -4.55411e-08 0)
(2.07935e-08 -4.4104e-08 0)
(2.47088e-08 -4.24629e-08 0)
(2.867e-08 -4.06558e-08 0)
(3.26705e-08 -3.87219e-08 0)
(3.66983e-08 -3.6702e-08 0)
(1.81233e-09 -4.91819e-08 0)
(5.4447e-09 -4.89044e-08 0)
(9.09593e-09 -4.83106e-08 0)
(1.27778e-08 -4.74315e-08 0)
(1.64989e-08 -4.6294e-08 0)
(2.02645e-08 -4.49276e-08 0)
(2.40757e-08 -4.33656e-08 0)
(2.79302e-08 -4.16429e-08 0)
(3.18217e-08 -3.97961e-08 0)
(3.57397e-08 -3.78622e-08 0)
(1.76489e-09 -4.97911e-08 0)
(5.30206e-09 -4.95271e-08 0)
(8.85753e-09 -4.89624e-08 0)
(1.24426e-08 -4.81258e-08 0)
(1.60657e-08 -4.70422e-08 0)
(1.97318e-08 -4.57393e-08 0)
(2.34422e-08 -4.42479e-08 0)
(2.7195e-08 -4.26007e-08 0)
(3.09843e-08 -4.08314e-08 0)
(3.48005e-08 -3.89743e-08 0)
(1.71572e-09 -5.04083e-08 0)
(5.15447e-09 -5.01566e-08 0)
(8.61139e-09 -4.96183e-08 0)
(1.20977e-08 -4.882e-08 0)
(1.56216e-08 -4.77852e-08 0)
(1.91882e-08 -4.65395e-08 0)
(2.27994e-08 -4.51116e-08 0)
(2.64534e-08 -4.35319e-08 0)
(3.01451e-08 -4.18319e-08 0)
(3.38657e-08 -4.0043e-08 0)
(1.66426e-09 -5.10302e-08 0)
(5.00026e-09 -5.07899e-08 0)
(8.35471e-09 -5.02757e-08 0)
(1.17388e-08 -4.95125e-08 0)
(1.51609e-08 -4.8522e-08 0)
(1.86267e-08 -4.73281e-08 0)
(2.21382e-08 -4.59575e-08 0)
(2.56946e-08 -4.44386e-08 0)
(2.92912e-08 -4.28005e-08 0)
(3.29202e-08 -4.10724e-08 0)
(1.60993e-09 -5.16532e-08 0)
(4.83769e-09 -5.14234e-08 0)
(8.08448e-09 -5.09316e-08 0)
(1.13616e-08 -5.02007e-08 0)
(1.46778e-08 -4.92507e-08 0)
(1.80393e-08 -4.81042e-08 0)
(2.14491e-08 -4.67859e-08 0)
(2.4907e-08 -4.53221e-08 0)
(2.84092e-08 -4.37399e-08 0)
(3.19488e-08 -4.20661e-08 0)
(1.5521e-09 -5.2273e-08 0)
(4.66498e-09 -5.20535e-08 0)
(7.79752e-09 -5.15828e-08 0)
(1.09612e-08 -5.08817e-08 0)
(1.41656e-08 -4.99693e-08 0)
(1.74178e-08 -4.88665e-08 0)
(2.07218e-08 -4.75964e-08 0)
(2.40784e-08 -4.61833e-08 0)
(2.74849e-08 -4.4652e-08 0)
(3.09353e-08 -4.30273e-08 0)
(1.49042e-09 -5.28849e-08 0)
(4.48059e-09 -5.26759e-08 0)
(7.49053e-09 -5.2225e-08 0)
(1.05326e-08 -5.15519e-08 0)
(1.36174e-08 -5.06745e-08 0)
(1.67533e-08 -4.96126e-08 0)
(1.99452e-08 -4.83878e-08 0)
(2.31953e-08 -4.70222e-08 0)
(2.65024e-08 -4.55385e-08 0)
(2.9862e-08 -4.39589e-08 0)
(1.42602e-09 -5.3484e-08 0)
(4.28388e-09 -5.32858e-08 0)
(7.16045e-09 -5.28537e-08 0)
(1.00705e-08 -5.22068e-08 0)
(1.30262e-08 -5.13627e-08 0)
(1.60368e-08 -5.034e-08 0)
(1.91085e-08 -4.91583e-08 0)
(2.22444e-08 -4.78382e-08 0)
(2.54453e-08 -4.64002e-08 0)
(2.87088e-08 -4.48638e-08 0)
(1.36554e-09 -5.40664e-08 0)
(4.07653e-09 -5.38776e-08 0)
(6.80656e-09 -5.34629e-08 0)
(9.57341e-09 -5.28415e-08 0)
(1.23896e-08 -5.20299e-08 0)
(1.52647e-08 -5.1045e-08 0)
(1.82056e-08 -4.99052e-08 0)
(2.12165e-08 -4.86295e-08 0)
(2.42993e-08 -4.72364e-08 0)
(2.74539e-08 -4.57431e-08 0)
)
;

boundaryField
{
    left
    {
        type            symmetryPlane;
    }
    right
    {
        type            tractionDisplacement;
        traction        uniform (10000 0 0);
        pressure        uniform 0;
        value           nonuniform List<vector> 
30
(
(1.37872e-07 2.53593e-10 -7.48435e-26)
(1.37641e-07 8.40893e-10 -1.06533e-25)