/*--------------------------------*- C++ -*----------------------------------*\
| =========                 |                                                 |
| \\      /  F ield         | OpenFOAM: The Open Source CFD Toolbox           |
|  \\    /   O peration     | Version:  2.3.0                                 |
|   \\  /    A nd           | Web:      www.OpenFOAM.org                      |
|    \\/     M anipulation  |                                                 |
\*---------------------------------------------------------------------------*/
FoamFile
{
    version     2.0;
    format      ascii;
    class       volSymmTensorField;
    location    "100";
    object      sigma;
}
// * * * * * * * * * * * * * * * * * * * * * * * * * * * * * * * * * * * * * //

dimensions      [1 -1 -2 0 0 0 0];

internalField   nonuniform List<symmTensor> 
1000
(
(7760.08 -5589.39 3.85807e-13 4575.94 -2.51148e-13 2846.77)
(10953.1 -4256.2 1.77677e-14 1144.79 7.71899e-14 2791.81)
(12577 -3363.2 1.30699e-13 -714.917 6.69656e-14 2737.4)
(13405.9 -2729.05 2.17325e-14 -1733.27 -1.84077e-14 2693.68)
(13798.1 -2262.49 9.96124e-14 -2280.28 5.47355e-14 2657.97)
(13941.1 -1909.38 -9.96768e-16 -2551.95 6.98741e-15 2628.27)
(13938.5 -1635.82 -7.89144e-14 -2658.83 -4.33348e-14 2602.99)
(13850.1 -1419.5 -1.20064e-13 -2667.52 -5.77168e-14 2580.6)
(13721 -1241.4 0 -2621.45 0 2561.43)
(13550.4 -1013.78 1.28972e-14 -2542.81 -1.62762e-15 2540.22)
(10759 -6880.99 2.32822e-13 5152.73 -1.61273e-13 3671.93)
(13189.9 -4614.27 -5.81736e-14 1844.11 3.21778e-14 3469.39)
(14317.5 -3208.24 6.79907e-14 25.4588 3.24363e-14 3309.92)
(14793.8 -2294.02 2.45945e-14 -1005.21 -1.59063e-14 3181.97)
(14926.2 -1677.91 -9.86976e-14 -1589.39 -5.59664e-14 3077.72)
(14872.1 -1250.48 -4.93256e-15 -1908.92 1.06801e-14 2991.5)
(14716.6 -946.214 8.61103e-14 -2067.15 4.70893e-14 2919.1)
(14508.9 -723.494 -8.19161e-14 -2126.62 -3.8684e-14 2857.45)
(14285.9 -551.746 -2.64731e-14 -2124.92 5.31152e-15 2806.37)
(14041 -358.705 -1.3383e-14 -2064.54 -1.64729e-14 2763.79)
(14076.4 -7844.6 1.76697e-13 5276.19 -1.51301e-13 4465.98)
(15484.5 -4807.38 -3.12852e-14 2375.01 1.25905e-14 4121.42)
(15974.1 -2982.38 -5.65062e-16 756.288 2.42939e-16 3860.87)
(16022.7 -1843.47 -1.3266e-14 -197.867 6.2661e-15 3651.89)
(15857.7 -1110.74 -9.7904e-14 -770.145 -5.4647e-14 3481.74)
(15590.4 -628.5 -8.19974e-14 -1111.95 -5.29437e-14 3341.18)
(15278.6 -305.239 -3.40741e-14 -1310.07 -2.15522e-14 3223.51)
(14954.1 -84.8197 3.35619e-14 -1417.46 1.99364e-14 3123.84)
(14640.9 70.3016 -1.56657e-14 -1465.78 4.14919e-15 3040.41)
(14330.1 227.752 -1.1051e-14 -1452.33 -1.51078e-14 2971.8)
(17567.7 -8369.34 3.00084e-13 5008.33 -1.35209e-13 5209.86)
(17759.4 -4802.03 -7.62276e-14 2746.21 -3.26437e-14 4732.06)
(17508.7 -2695.2 1.59143e-15 1457.16 -4.50448e-16 4376.74)
(17078.3 -1410.82 0 652.996 0 4091.83)
(16592.4 -607.561 8.157e-14 133.902 5.70313e-14 3859.92)
(16104.2 -97.1384 -6.48767e-15 -207.902 2.66825e-15 3668.38)
(15636.8 229.852 -7.33728e-14 -435.171 -4.24657e-14 3508.07)
(15200.2 439.572 5.26809e-14 -586.985 4.24979e-14 3372.27)
(14802.5 575.426 -1.35909e-14 -687.13 4.8373e-15 3257.4)
(14429 700.867 5.43797e-14 -729.52 3.10552e-14 3161.43)
(21060.2 -8378.92 -2.74262e-13 4444.28 4.65519e-14 5885.66)
(19929.5 -4577.72 -1.81892e-13 2978.25 -5.54175e-14 5286.4)
(18886.9 -2357.02 1.72522e-14 2107.66 -2.31613e-15 4844.89)
(17956 -1023.27 1.11467e-14 1504.88 -1.65574e-15 4490.96)
(17143.5 -204.485 0 1069.07 0 4202.91)
(16436.9 303.258 1.54764e-13 744.741 8.69893e-14 3964.99)
(15820.2 617.698 1.05725e-13 498.161 5.8802e-14 3765.77)
(15279.3 809.702 5.58929e-14 307.025 3.91065e-14 3596.84)
(14805.6 925.397 -4.05879e-14 157.096 -1.00706e-14 3452.94)
(14378 1021.74 -5.57239e-14 56.6911 -3.02882e-14 3331.09)
(24365.4 -7839.72 -4.37237e-13 3701.64 7.42048e-14 6477)
(21906.5 -4129.71 1.47722e-13 3100.02 2.90518e-14 5770.74)
(20078.4 -1978.66 9.41565e-14 2687.62 2.58176e-14 5253.71)
(18659.6 -699.536 0 2311.3 0 4839.44)
(17534.6 76.0189 -7.59243e-14 1975.45 -4.13401e-14 4502.31)
(16623 548.877 4.31551e-17 1680.14 2.00056e-17 4223.81)
(15869.6 834.564 1.36276e-13 1422.47 6.55635e-14 3990.47)
(15235.8 1002.51 6.35163e-14 1197.96 2.84216e-14 3792.4)
(14696.7 1097.61 4.86464e-15 1002.58 -3.25779e-15 3622.92)
(14224.9 1168.57 -4.4487e-14 846.158 -1.58604e-14 3477.94)
(27292.4 -6765.22 -6.79635e-14 2907.32 4.05751e-15 6969.17)
(23604.5 -3471.09 1.74677e-13 3143.96 4.64065e-14 6172.72)
(21058.6 -1571.51 0 3177.53 0 5592.94)
(19199.1 -448.984 -1.16637e-13 3025.16 -4.20608e-14 5128.69)
(17795.1 226.293 -1.39237e-16 2792 -4.91969e-17 4750.88)
(16703.3 633.327 -1.39132e-13 2530.91 -5.56196e-14 4438.66)
(15831.7 874.976 -7.67379e-16 2268.3 4.55617e-15 4176.92)
(15119.6 1013.1 4.29391e-15 2016.79 -5.50514e-15 3954.54)
(14527.1 1087.51 3.34173e-14 1782.21 4.63701e-15 3763.68)
(14021 1137.36 -1.70565e-16 1575.5 1.42891e-16 3599.2)
(29660.9 -5216.5 -7.35152e-14 2182.93 -2.6837e-14 7348.57)
(24945.8 -2634.39 4.40279e-14 3140.26 2.40385e-14 6481.39)
(21808.2 -1149.06 -7.97022e-14 3559.18 -2.52593e-14 5854.01)
(19587.5 -273.431 -9.70331e-14 3603.38 -2.80861e-14 5351.73)
(17955.8 251.115 1.05445e-16 3462.89 7.72867e-17 4942.78)
(16718.2 564.968 -2.96478e-17 3235.04 -4.9501e-17 4604.6)
(15752.5 749.14 -6.27373e-14 2971.36 -1.58501e-14 4320.9)
(14979.4 852.504 -5.57165e-14 2699.26 -1.90398e-14 4079.69)
(14346.5 906.417 2.69339e-15 2433.18 -3.88049e-15 3872.24)
(13815.8 939.6 5.90314e-15 2185.13 1.98738e-15 3692.53)
(31305.7 -3299.37 3.06027e-13 1629.48 -1.45194e-14 7600.42)
(25866.9 -1676.83 1.40539e-13 3112.42 6.02111e-15 6687.54)
(22313 -735.831 -1.29351e-14 3818.97 -1.36752e-14 6030.44)
(19835.5 -178.637 9.11289e-14 4012.59 1.22705e-14 5503.4)
(18042.4 155.181 4.33591e-15 3943.22 6.38071e-15 5073.6)
(16702.3 354.448 7.08257e-14 3741.54 1.98541e-14 4717.81)
(15671.4 471.03 0 3478.16 0 4419.12)
(14856.8 536.329 0 3191.59 0 4165.02)
(14197.5 570.503 -2.45898e-14 2902.62 -5.04771e-15 3946.19)
(13651.8 591.25 1.88483e-14 2624.09 -1.20271e-14 3755.99)
(32104.5 -1161.22 7.71931e-15 1329.79 1.30852e-14 7715.61)
(26366.8 -714.425 -4.5177e-13 3113.32 -9.53883e-15 6803.1)
(22558.6 -411.354 5.41316e-14 3968.81 -1.19793e-14 6121.71)
(19922.2 -220.246 9.4137e-14 4236.41 3.91222e-15 5575.07)
(18032.8 -101.378 7.87586e-14 4199.26 3.496e-15 5130.48)
(16634.1 -27.321 0 4007.38 0 4763.42)
(15567.4 18.731 0 3741.54 0 4455.92)
(14731.6 47.1049 3.0173e-16 3445.55 -3.55535e-15 4194.73)
(14060.6 64.6052 7.23269e-14 3142.74 3.2663e-15 3970)
(13511.5 77.0399 -1.09982e-15 2845.04 -2.51358e-16 3774.59)
(-492.545 434.87 -1.26326e-14 -11928.1 2.1147e-13 -2866.3)
(-520.46 174.886 1.65563e-15 -7814.03 -4.04309e-14 -1923.34)
(-134.329 -30.3527 0 -5230.07 0 -1237.94)
(574.948 -151.599 5.74843e-15 -3554.25 1.89593e-14 -687.532)
(1397.21 -213.944 -7.75204e-15 -2436.94 1.17158e-14 -239.938)
(2229.71 -240.972 -5.01611e-15 -1667.95 2.9761e-14 129.638)
(3025.18 -247.561 3.41116e-14 -1121.07 2.56882e-14 439.411)
(3764.2 -242.537 4.32041e-14 -718.668 3.06596e-16 702.814)
(4441.32 -231.399 -9.90453e-16 -411.86 -3.20935e-15 929.877)
(5057.76 -219.827 4.42349e-15 -169.868 6.01965e-15 1127.98)
(-572.665 1054.96 -2.603e-15 -11523 -4.95891e-14 -2791.31)
(-335.55 -183.003 2.48241e-16 -7534.07 6.45534e-16 -1816.07)
(177.023 -838.347 -2.60096e-14 -5168.53 -3.82436e-14 -1151.89)
(942.976 -1172.54 -8.54711e-15 -3631.07 -8.09805e-15 -620.33)
(1780.93 -1328.11 1.16728e-14 -2591.82 4.84399e-15 -187.128)
(2608.42 -1382.18 -3.50694e-15 -1865.33 -8.86016e-15 171.485)
(3388.56 -1378.91 -1.80698e-14 -1340.27 -9.85069e-15 472.682)
(4106.95 -1344.09 -4.66289e-14 -947.232 -9.1453e-15 729.167)
(4760.14 -1293.18 -3.62244e-14 -641.762 2.00992e-16 950.394)
(5347.3 -1242.98 4.28195e-14 -394.475 2.91013e-16 1142.96)
(-656.509 1523.31 -4.56602e-15 -10339.4 -3.64308e-14 -2537.53)
(28.6017 -448.957 5.1852e-14 -7007.41 6.16911e-14 -1610.49)
(768.113 -1468.78 4.2443e-17 -4995.27 2.61394e-16 -975.497)
(1637.03 -1976.06 -8.93323e-14 -3666.98 -5.31237e-14 -468.45)
(2508.69 -2205.67 -7.76432e-14 -2752.12 -3.59626e-14 -56.1751)
(3331.19 -2279.93 -3.52485e-14 -2098 -1.46312e-14 284.583)
(4085.25 -2266.81 -2.54739e-14 -1613.18 -1.58012e-14 570.477)
(4766.46 -2205.58 1.42887e-14 -1240.41 4.55468e-16 813.704)
(5376.55 -2119.54 -7.14685e-14 -942.867 -1.40032e-14 1023.16)
(5914.48 -2035.47 -8.92714e-14 -696.014 -9.01108e-15 1204.26)
(-687.189 1715.63 -2.29211e-14 -8631.76 4.1533e-14 -2150.53)
(606.456 -743.785 1.80697e-15 -6235.07 -1.77729e-14 -1298.91)
(1641.62 -2009.13 -3.35722e-14 -4730.56 5.47988e-15 -712.831)
(2635.01 -2628.8 3.44501e-15 -3694.57 1.72649e-14 -244.513)
(3541.59 -2900.74 5.19294e-16 -2951.9 6.48026e-16 136.081)
(4350.18 -2980.04 8.10781e-15 -2398.56 3.65439e-15 450.374)
(5063.93 -2951.92 -6.29845e-14 -1970.79 -1.88704e-14 713.803)
(5691.26 -2865.01 1.23021e-14 -1627.99 1.25134e-14 937.677)
(6240.86 -2748.03 1.71471e-14 -1344.01 6.10996e-15 1130.04)
(6711.15 -2637.2 3.87194e-14 -1101.37 1.29943e-14 1294.56)
(-583.536 1555.22 4.80926e-14 -6565.26 -1.53088e-13 -1649.72)
(1400.38 -1107.85 -4.9532e-14 -5267.32 -4.98272e-15 -892.373)
(2766.77 -2469.49 -8.09047e-14 -4374.19 -4.18741e-14 -370.943)
(3891.32 -3124.13 7.33748e-14 -3691.17 1.25107e-14 46.189)
(4825.56 -3398.78 6.54002e-14 -3156.18 2.62596e-14 385.242)
(5607.09 -3464.49 7.10552e-14 -2724.97 3.02395e-14 665.106)
(6265.12 -3414.98 7.85012e-14 -2367.41 2.91717e-14 899.472)
(6822.62 -3303.27 -2.46345e-14 -2062.92 -1.24609e-15 1098.39)
(7295.99 -3160.65 3.29659e-14 -1797.99 2.39461e-14 1268.77)
(7682.28 -3031.91 -1.48893e-14 -1563.62 -1.24208e-14 1412)
(-245.443 1011.01 -1.63597e-14 -4304.2 2.07879e-13 -1049.92)
(2420.46 -1552.5 -6.20196e-14 -4166.71 -3.27186e-15 -402.982)
(4106.88 -2845.73 1.00631e-13 -3929.21 3.01744e-14 40.9999)
(5347.24 -3448.32 4.04667e-15 -3629.31 -2.17366e-14 396.446)
(6291.96 -3681.38 7.64473e-14 -3321.79 3.24339e-14 685.423)
(7029.32 -3713.15 -6.85352e-14 -3025.9 -2.77079e-14 923.867)
(7615.61 -3635.68 6.08169e-14 -2747.72 2.39302e-14 1123.36)
(8088.66 -3500.71 -2.38202e-14 -2488.23 -1.30799e-15 1292.41)
(8472.48 -3338.68 4.5089e-14 -2247.66 -1.52793e-15 1436.5)
(8762.33 -3201.75 -1.71827e-14 -2026.53 -3.14648e-14 1554.41)
(428.004 97.3645 2.78336e-13 -2015.59 -4.52464e-13 -366.365)
(3676.77 -2069.93 -2.64747e-14 -2999.94 4.92292e-14 156.191)
(5622.4 -3132.7 2.21437e-13 -3402.76 8.72478e-14 512.225)
(6938.11 -3596.68 8.52339e-15 -3482.76 -2.42701e-14 797.39)
(7864.63 -3743.85 6.81688e-17 -3404.58 1.54278e-14 1029.24)
(8536.58 -3721.48 -6.85312e-14 -3247.88 -2.38414e-14 1220.47)
(9034.89 -3609.84 -1.45746e-14 -3053.68 -4.48423e-15 1380.28)
(9410.76 -3453.61 0 -2844 0 1515.41)
(9694.8 -3278.96 -5.49369e-14 -2632.78 -2.29975e-14 1629.7)
(9880.24 -3143.69 8.22696e-14 -2430.81 2.59378e-14 1719.1)
(1523.56 -1128.1 1.17654e-13 140.402 -2.72294e-13 383.991)
(5172.67 -2637.41 1.02038e-13 -1831.99 -2.09397e-14 770.925)
(7271.41 -3327.11 -4.53174e-14 -2804.74 -4.78586e-14 1030.77)
(8598.55 -3576.3 9.06552e-14 -3229.82 7.3676e-14 1238.94)
(9467.28 -3598.62 -2.78453e-13 -3365.17 -1.13466e-13 1408.18)
(10048.9 -3504.45 8.17362e-14 -3342.13 3.75146e-14 1547.71)
(10443.3 -3353.31 -1.2539e-14 -3231.81 -4.4092e-15 1664.19)
(10711.9 -3177.87 0 -3074.61 0 1762.44)
(10889.5 -2997.28 1.30726e-14 -2896.9 -8.85792e-16 1844.45)
(10967 -2872.98 1.56229e-14 -2719.99 -2.12599e-15 1903.15)
(3101.59 -2569.96 0 2023.44 0 1182.7)
(6900.58 -3220.34 -2.08538e-14 -721.548 2.37205e-14 1425.93)
(9010.02 -3428.39 -2.16227e-13 -2147.42 -1.5879e-13 1583.68)
(10266.1 -3405.5 -2.5149e-14 -2855.87 3.58479e-14 1710.05)
(11029.1 -3274.22 -5.92427e-15 -3173.61 1.50868e-14 1812.79)
(11492.9 -3095.75 7.97834e-14 -3270.36 2.46775e-14 1897.5)
(11768.8 -2901.62 0 -3239.72 0 1968.25)
(11923.8 -2708.38 0 -3135.76 0 2028)
(11994.8 -2526.48 0 -2994.55 0 2076.99)
(11968.2 -2421.54 1.13131e-13 -2846.72 2.81877e-14 2104.97)
(5186.51 -4104.14 2.32905e-13 3524.86 -2.3581e-13 2010.32)
(8839.47 -3775.76 -5.40095e-14 282.615 4.90057e-14 2105.1)
(10793.4 -3438.85 -4.6322e-14 -1445.3 -4.92503e-14 2157.26)
(11884.4 -3111.81 -9.37659e-14 -2355.41 -7.8475e-14 2199.01)
(12488.7 -2812.23 1.98682e-13 -2812.77 1.02567e-13 2232.91)
(12806.2 -2544.56 0 -3009.17 0 2260.86)
(12950.3 -2307.95 -7.86582e-14 -3051.29 -4.0973e-14 2284.4)
(12989 -2099.33 0 -3000.57 0 2305.03)
(12963.3 -1915.71 1.10923e-14 -2897.52 -1.23787e-15 2322.87)
(12871.5 -1825.03 -2.66586e-14 -2786.25 -1.44301e-14 2327.37)
(5600.69 -189.838 6.69187e-14 20.4499 -8.33966e-15 1297.19)
(6099.41 -159.259 -1.02404e-14 198.496 -2.78837e-14 1453.36)
(6547.19 -134.549 -8.39753e-14 358.812 -1.13235e-14 1593.69)
(6952.34 -113.485 -9.54186e-17 508.456 -3.73317e-19 1721.72)
(7320.14 -95.3929 -5.88542e-15 652.737 -1.61179e-14 1839.89)
(7654.88 -79.7854 -3.02357e-14 795.965 -1.65063e-16 1950.2)
(7960.16 -66.3034 0 941.668 0 2054.27)
(8239.02 -54.6394 0 1092.82 0 2153.5)
(8493.98 -44.5052 -6.29359e-14 1252.06 4.05064e-15 2249.09)
(8727.11 -35.6202 1.02058e-13 1421.84 1.38057e-14 2342.07)
(8940.04 -27.7071 9.64591e-14 1604.59 -1.61859e-14 2433.38)
(9133.94 -20.4865 -7.02372e-14 1802.84 -7.68088e-15 2523.87)
(9309.57 -13.6715 -3.55213e-14 2019.29 -4.72575e-15 2614.35)
(9467.22 -6.95616 -1.0287e-13 2256.95 -1.78185e-15 2705.58)
(9606.67 -0.00663487 3.67843e-14 2519.23 4.66659e-15 2798.28)
(9727.15 7.52176 6.75237e-14 2809.93 9.37732e-16 2893.17)
(9827.29 15.783 1.06084e-15 3133.21 -6.77531e-16 2990.88)
(9905.28 23.7991 3.26054e-14 3492.66 3.86723e-15 3091.83)
(9959.8 26.4429 -3.36575e-14 3888.04 6.68931e-16 3195.66)
(10016.1 9.56261 7.67933e-14 4313.61 5.70054e-15 3306.85)
(5847.48 -1149.96 9.26838e-14 -182.956 1.04546e-14 1307.2)
(6302.35 -1024.99 4.34768e-14 27.4763 1.00715e-14 1460.73)
(6710.76 -922.787 -2.14289e-14 211.353 2.74144e-15 1597.41)
(7085.36 -832.097 6.79853e-14 380.289 6.9649e-15 1722.84)
(7428.48 -751.503 2.02384e-15 540.538 8.67789e-17 1839)
(7742.91 -679.797 -9.66204e-14 697.085 -4.53874e-15 1947.69)
(8031.27 -615.814 9.23959e-15 853.889 5.58449e-15 2050.42)
(8295.92 -558.434 -6.3916e-14 1014.24 -1.51421e-15 2148.5)
(8538.87 -506.589 -1.71198e-15 1180.99 -9.83555e-17 2243.04)
(8761.81 -459.257 5.99005e-14 1356.8 -2.52143e-15 2335.06)
(8966.05 -415.456 4.26387e-14 1544.24 7.4216e-15 2425.45)
(9152.58 -374.222 -6.89776e-15 1745.93 -3.73702e-15 2515.04)
(9321.99 -334.596 -3.46531e-14 1964.64 -1.59297e-15 2604.61)
(9474.51 -295.595 0 2203.41 0 2694.91)
(9610.01 -256.215 -5.0978e-15 2465.6 -1.57785e-15 2786.68)
(9728.02 -215.451 -6.85605e-14 2754.98 -4.55299e-15 2880.69)
(9827.73 -172.398 -3.38422e-15 3075.94 1.49871e-16 2977.77)
(9907.85 -126.215 2.46165e-15 3434.17 -8.27032e-16 3078.93)
(9964.86 -74.8531 1.6371e-15 3839.52 -1.60562e-15 3185.62)
(10014.6 -9.62569 1.08603e-13 4322.85 3.9738e-14 3308.63)
(6343.38 -1888.85 -1.02388e-14 -468.876 -2.28042e-15 1355.65)
(6726.85 -1697.34 6.57613e-14 -223.174 6.02623e-15 1500.85)
(7062.69 -1539.09 -5.87174e-14 -11.7309 -1.95195e-15 1627.14)
(7377.19 -1396.67 1.81048e-14 182.218 -2.90769e-15 1744.48)
(7670.38 -1268.48 1.0725e-13 364.45 9.66149e-15 1854.19)
(7943.21 -1153.2 -1.0068e-13 539.926 -6.35824e-15 1957.65)
(8196.75 -1049.43 -3.39997e-14 712.789 -1.3359e-15 2056.05)
(8432.12 -955.681 6.48267e-14 886.572 2.64464e-15 2150.47)
(8650.35 -870.427 1.68516e-15 1064.39 1.68121e-16 2241.86)
(8852.35 -792.16 -6.57888e-15 1249.09 -2.68191e-15 2331.1)
(9038.82 -719.385 1.00321e-13 1443.44 5.88542e-15 2418.98)
(9210.27 -650.617 2.36012e-14 1650.19 -1.94738e-15 2506.26)
(9366.96 -584.365 -1.0119e-13 1872.19 -7.54371e-15 2593.65)
(9508.88 -519.109 -3.40643e-14 2112.54 -2.87988e-15 2681.87)
(9635.75 -453.286 2.89493e-14 2374.65 2.16274e-15 2771.63)
(9746.93 -385.268 2.96737e-14 2662.42 3.13267e-15 2863.7)
(9841.29 -313.224 -4.16226e-14 2980.63 -4.15151e-15 2958.9)
(9916.65 -234.464 -3.76914e-14 3335.67 -4.13139e-15 3058.23)
(9968.74 -143.027 2.17213e-14 3737.04 9.56275e-15 3162.87)
(9996.93 -21.4881 -3.24285e-14 4201.3 -1.88902e-14 3276.52)
(7045.08 -2453.31 -4.70255e-14 -856.928 -1.7475e-14 1428.03)
(7330.52 -2221.23 -1.49596e-14 -568.919 -5.07074e-15 1560.37)
(7568.47 -2028.26 3.22796e-14 -323.031 1.92939e-15 1672.02)
(7800.32 -1852.17 -2.22407e-14 -97.1707 -8.5908e-15 1777.65)
(8023.77 -1691.42 1.21877e-14 113.89 4.27915e-15 1877.92)
(8237.73 -1545.03 -2.05516e-14 314.77 2.4189e-15 1973.65)
(8441.52 -1411.79 -8.4551e-14 509.568 -2.08387e-14 2065.64)
(8634.74 -1290.3 -6.5393e-14 701.946 -3.88799e-15 2154.62)
(8817.17 -1178.93 2.09595e-14 895.223 -1.56425e-15 2241.32)
(8988.65 -1076 6.77818e-14 1092.47 5.00369e-15 2326.41)
(9149.07 -979.729 8.40864e-14 1296.64 1.13041e-14 2410.55)
(9298.26 -888.309 2.52241e-14 1510.62 7.96295e-15 2494.36)
(9435.93 -799.862 -7.84456e-14 1737.4 -3.58071e-15 2578.46)
(9561.65 -712.436 3.3644e-14 1980.12 3.89049e-15 2663.48)
(9674.74 -623.954 2.72744e-14 2242.27 3.00729e-15 2750.08)
(9774.2 -532.127 -2.68941e-14 2527.81 -3.98254e-15 2838.92)
(9858.48 -434.165 5.74e-15 2841.49 3.34438e-16 2930.76)
(9925.21 -325.915 2.76043e-14 3189.23 6.72359e-15 3026.41)
(9970.9 -199.103 -4.88382e-14 3578.53 -4.20559e-15 3126.79)
(9974.04 -31.8451 -9.07934e-15 4013.45 -1.05929e-14 3227.88)
(7905.37 -2829.89 8.55323e-14 -1302.97 4.24132e-15 1523.63)
(8071.99 -2587.39 -8.80184e-14 -975.195 -2.26394e-14 1637.72)
(8194.66 -2383.79 -1.72426e-14 -693.697 2.82249e-15 1730.99)
(8327.8 -2194.38 1.50595e-14 -433.978 5.42111e-15 1821.65)
(8467.11 -2018.08 4.53838e-14 -191.307 1.57192e-14 1909.8)
(8609.3 -1854.72 1.12355e-13 38.2212 1.21128e-14 1995.58)
(8751.86 -1703.78 3.24796e-14 258.328 1.01226e-14 2079.27)
(8892.76 -1564.32 -6.67615e-14 472.563 -5.33199e-15 2161.23)
(9030.41 -1435.06 -5.8741e-14 684.286 -2.02965e-14 2241.85)
(9163.49 -1314.41 -8.90664e-14 896.684 -5.67786e-15 2321.58)
(9290.9 -1200.61 2.00895e-14 1112.82 6.78233e-15 2400.86)
(9411.67 -1091.72 2.94153e-14 1335.7 9.29179e-15 2480.16)
(9524.85 -985.67 -3.23025e-14 1568.38 -9.02562e-15 2559.98)
(9629.48 -880.167 9.0323e-14 1814.03 1.19576e-14 2640.81)
(9724.44 -772.701 2.72288e-14 2076.1 6.06432e-15 2723.2)
(9808.36 -660.386 -2.51411e-14 2358.41 -4.72681e-15 2807.72)
(9879.52 -539.64 4.88456e-14 2665.37 8.67064e-15 2894.97)
(9935.68 -405.285 1.05219e-13 3002.04 2.37953e-14 2985.63)
(9974.14 -247.655 -2.45119e-14 3374.37 -9.5786e-15 3080.43)
(9951.06 -42.2781 -3.38321e-14 3776.16 -3.01049e-14 3167.82)
(8869.09 -3001.55 1.22762e-14 -1755.44 7.23219e-15 1641.61)
(8904.79 -2781.54 -8.73399e-15 -1402.12 3.89752e-15 1731.39)
(8904.72 -2593.03 -1.06686e-13 -1090.88 -1.34015e-14 1803.19)
(8930.61 -2412.24 -6.9389e-14 -801.142 -7.76746e-15 1876.03)
(8977.36 -2238.86 -4.09747e-15 -528.682 -7.08482e-16 1949.7)
(9039.67 -2074.01 5.03748e-16 -270.913 5.01178e-17 2023.56)
(9113.31 -1918.33 4.25781e-14 -24.9887 1.58649e-14 2097.31)
(9194.77 -1771.79 1.67474e-13 212.143 1.70723e-14 2170.83)
(9281.09 -1633.77 1.88592e-14 443.596 5.73433e-15 2244.16)
(9369.8 -1503.17 -1.66026e-13 672.462 -1.91358e-14 2317.45)
(9458.8 -1378.49 -2.79715e-14 901.775 -8.85438e-15 2390.9)
(9546.27 -1257.92 1.64588e-13 1134.54 2.27167e-14 2464.8)
(9630.58 -1139.33 1.12453e-15 1373.76 -4.67363e-15 2539.46)
(9710.21 -1020.29 -1.62438e-13 1622.53 -2.77488e-14 2615.25)
(9783.6 -897.961 -3.52239e-14 1884.11 -6.82959e-15 2692.55)
(9849.12 -769.011 -3.11639e-14 2162.03 -6.29559e-15 2771.81)
(9904.95 -629.27 -3.0744e-14 2460.17 -4.70143e-15 2853.49)
(9949 -472.866 7.26248e-14 2782.81 1.8843e-14 2938.11)
(9979.14 -289.284 5.63134e-14 3134.65 1.01462e-14 3026.26)
(9932.32 -52.7697 -3.36405e-14 3500.99 -3.52042e-14 3099.99)
(9875.56 -2963.6 -7.03531e-15 -2160.27 -4.58069e-15 1780.45)
(9778.39 -2798.15 -4.60163e-14 -1807.6 -9.08199e-15 1839.41)
(9658.82 -2649.42 0 -1479.95 0 1887.43)
(9577.18 -2498.91 0 -1170.13 0 1940.09)
(9529.45 -2347.01 -6.29517e-14 -874.534 -2.33884e-14 1997.29)
(9508.9 -2196.54 0 -592.767 0 2057.57)
(9510.06 -2049.6 -3.65098e-14 -323.545 -1.33428e-14 2119.96)
(9528.23 -1907.4 -5.75887e-14 -64.8449 -1.99362e-14 2183.86)
(9559.34 -1770.32 4.94961e-14 185.792 1.75098e-14 2248.88)
(9599.87 -1638.03 3.46305e-14 431.054 1.16062e-14 2314.83)
(9646.8 -1509.58 -2.98785e-14 673.713 -1.00768e-14 2381.66)
(9697.53 -1383.5 3.22718e-14 916.574 5.15201e-15 2449.41)
(9749.77 -1257.86 4.19555e-14 1162.45 1.28978e-14 2518.2)
(9801.48 -1130.22 1.27303e-14 1414.2 3.70185e-15 2588.23)
(9850.74 -997.601 3.21768e-14 1674.74 4.24946e-15 2659.73)
(9895.69 -856.376 5.31951e-14 1947.15 1.3312e-14 2732.96)
(9934.46 -701.964 -1.13754e-13 2234.68 -2.99493e-14 2808.26)
(9965.09 -528.011 -9.33121e-14 2540.8 -3.00021e-14 2885.97)
(9985.83 -323.529 3.08196e-14 2869.18 1.14851e-14 2966.54)
(9921.75 -62.6645 -3.03988e-14 3198.97 -3.9872e-14 3027.86)
(10863.6 -2726.34 2.1433e-14 -2466.46 -4.73379e-15 1937.81)
(10642.2 -2642.16 -3.04212e-14 -2151.08 -6.59458e-15 1959.48)
(10416.2 -2554 -1.17093e-13 -1827.09 -2.40989e-14 1982.1)
(10234.8 -2453.08 1.01222e-14 -1512.6 -3.73485e-15 2012.81)
(10097 -2340 2.98145e-15 -1205.06 7.12857e-16 2051.99)
(9995.81 -2219.19 -3.53363e-14 -907.256 -5.56634e-15 2097.36)
(9925.13 -2094.29 3.2185e-14 -620.25 -1.02381e-14 2147.28)
(9879.59 -1967.91 5.20472e-14 -343.706 1.78232e-14 2200.59)
(9854.36 -1841.65 -1.22442e-13 -76.2996 -1.0035e-14 2256.47)
(9845.15 -1716.18 -2.44698e-14 183.834 -8.06038e-15 2314.38)
(9848.23 -1591.32 6.81031e-15 438.921 -8.829e-15 2373.96)
(9860.32 -1466.18 0 691.303 0 2434.99)
(9878.57 -1339.2 1.57024e-14 943.424 5.11192e-15 2497.38)
(9900.48 -1208.15 1.25235e-13 1197.7 3.00489e-14 2561.12)
(9923.84 -1070.09 4.85178e-14 1456.58 1.24586e-14 2626.25)
(9946.65 -921.27 -5.05139e-14 1722.48 -1.43663e-14 2692.88)
(9967.07 -756.854 7.57267e-15 1997.88 -9.95229e-16 2761.14)
(9983.3 -570.134 0 2285.31 0 2831.22)
(9993.92 -349.892 1.83257e-14 2587.42 1.08958e-14 2903.39)
(9922.56 -71.0568 -1.89797e-14 2880.96 -4.15526e-14 2954.66)
(11780.8 -2308.46 1.9703e-14 -2627.29 2.46123e-16 2112.34)
(11453.3 -2321.39 -3.7407e-14 -2389.14 5.9539e-15 2091.73)
(11140.3 -2309.02 7.81637e-15 -2093.15 -3.87933e-15 2087.8)
(10873.1 -2273.64 -2.65256e-14 -1793.38 -1.15616e-14 2095.31)
(10655.2 -2214.98 4.71908e-14 -1489.35 2.6938e-14 2115.19)
(10480.1 -2138.38 1.60312e-13 -1187.56 4.16569e-14 2144.43)
(10342 -2048.7 -5.83258e-14 -892.007 -9.68503e-15 2180.77)
(10235.5 -1949.86 -1.28949e-13 -604.537 -1.34902e-14 2222.52)
(10155.4 -1844.7 1.93035e-14 -325.515 -1.13607e-14 2268.42)
(10097 -1735.01 1.19367e-13 -54.2652 1.35116e-14 2317.56)
(10056.2 -1621.55 -8.98542e-14 210.486 -2.74245e-14 2369.25)
(10029.3 -1504.18 -5.07964e-14 470.395 -3.96072e-15 2423)
(10012.9 -1381.9 -6.03383e-14 727.245 -1.30473e-14 2478.49)
(10004.1 -1252.9 -3.25541e-15 982.874 -9.32594e-16 2535.46)
(10000.6 -1114.47 9.02275e-14 1239.01 2.51921e-14 2593.76)
(10000.3 -962.963 1.52044e-14 1497.28 4.33448e-15 2653.28)
(10001.4 -793.466 0 1759.08 0 2713.95)
(10002.5 -599.034 1.4891e-14 2025.72 7.98443e-15 2775.75)
(10002.8 -368.282 -5.73907e-14 2298.48 -2.53097e-14 2838.75)
(9936.92 -77.0842 5.17622e-14 2556.82 7.44544e-14 2883.17)
(12609.2 -1725.07 5.91314e-14 -2610.49 3.99626e-14 2307.39)
(12201 -1839.55 9.41546e-15 -2453.31 -4.73124e-15 2249.48)
(11809.4 -1919.61 4.04882e-14 -2213.75 1.34712e-14 2214.39)
(11465.2 -1965.9 -8.3252e-14 -1958.34 -1.34352e-14 2193.89)
(11174.1 -1977.76 -1.08963e-13 -1684.93 -2.89135e-14 2189.8)
(10930.9 -1960.43 4.32662e-14 -1401.28 -1.1772e-15 2199.15)
(10730.3 -1919.51 1.54266e-13 -1114.2 4.15256e-14 2219.11)
(10567 -1860.1 4.54805e-14 -828.493 -5.2973e-16 2247.35)
(10435.7 -1786.31 -8.20186e-14 -547.065 -2.30379e-14 2282)
(10331.5 -1701.2 1.95313e-17 -271.304 -8.10165e-16 2321.57)
(10249.6 -1606.65 4.86839e-15 -1.54134 1.47459e-14 2364.94)
(10186 -1503.48 -1.07948e-13 262.603 -2.82669e-14 2411.22)
(10137 -1391.47 5.82158e-14 521.867 1.35975e-14 2459.73)
(10099.3 -1269.41 -2.82553e-14 777.144 -1.27999e-14 2509.96)
(10070.4 -1135.06 -1.1588e-16 1029.22 8.25961e-17 2561.46)
(10048.1 -985.123 -4.52673e-14 1278.66 -1.41575e-14 2613.87)
(10030.8 -814.876 2.7964e-14 1525.52 9.89884e-15 2666.84)
(10017.5 -617.382 6.93208e-16 1769.34 6.50565e-18 2720.05)
(10008.2 -380.851 -1.38093e-14 2009.08 -9.91935e-15 2773.22)
(9964.51 -80.5597 -8.52618e-15 2230.13 -3.84508e-15 2814.15)
(13185 -1221.68 -2.97684e-14 -2546.87 -2.36355e-14 2454.96)
(12735.4 -1394.68 -3.47719e-14 -2334.01 -2.04307e-14 2400.33)
(12287.4 -1549.13 -2.28896e-14 -2164.87 -7.50745e-15 2335.97)
(11907.5 -1652.23 3.16122e-14 -1953.33 1.74806e-14 2297.11)
(11579.9 -1713.83 -4.82021e-14 -1714.31 -3.76148e-14 2276.67)
(11298.8 -1740.83 -3.45076e-14 -1457.74 -2.39608e-14 2271.02)
(11059.6 -1739.11 -5.75306e-14 -1191.6 -2.07466e-14 2277.23)
(10857.7 -1713.83 -4.05723e-15 -921.873 5.90811e-15 2292.89)
(10688.8 -1669.28 1.02029e-13 -652.648 4.10266e-14 2316.03)
(10548.4 -1608.8 -5.58087e-15 -386.5 -1.09483e-15 2345.06)
(10432.5 -1534.69 4.86336e-14 -124.838 2.03026e-14 2378.69)
(10337.1 -1448.2 -4.57125e-14 131.656 -1.8477e-14 2415.86)
(10258.7 -1349.57 0 382.773 0 2455.72)
(10194.3 -1238.03 -1.87551e-14 628.418 -7.18152e-15 2497.54)
(10141.2 -1111.82 1.78322e-14 868.436 6.40942e-15 2540.69)
(10097.7 -968.108 -1.52854e-15 1102.29 -5.11558e-16 2584.6)
(10062.2 -802.711 -2.57902e-14 1328.88 -9.64751e-15 2628.72)
(10034.5 -609.315 2.9868e-16 1546.1 2.74126e-16 2672.44)
(10015.1 -376.576 -1.48265e-14 1750.47 -3.34682e-15 2715.12)
(10012.3 -77.9558 -4.87555e-15 1938.62 -2.79195e-15 2757.9)
(13100.9 -863.534 4.298e-14 -2326.31 2.0083e-14 2486.45)
(12794.2 -1057.07 0 -2224.42 0 2439.19)
(12409.7 -1238.43 -3.4802e-14 -2101.95 -1.16186e-14 2378.71)
(12063.4 -1374.02 6.37782e-28 -1924.92 2.2634e-28 2339.65)
(11753.8 -1466.82 7.68049e-29 -1713.46 7.96264e-29 2317.01)
(11479.8 -1523.22 4.81665e-28 -1479.49 2.36195e-28 2307.77)
(11239.4 -1549 5.58659e-28 -1231.87 1.95228e-28 2309.42)
(11030 -1549.03 -3.02194e-14 -977.293 -7.55079e-15 2319.85)
(10849 -1527.34 0 -720.644 0 2337.3)
(10693.3 -1487.12 2.89109e-14 -465.304 7.15639e-15 2360.31)
(10560.1 -1430.64 -2.26292e-28 -213.525 -3.9033e-29 2387.66)
(10446.2 -1359.28 -2.78523e-14 33.2178 -7.33382e-15 2418.33)
(10349.1 -1273.51 2.74005e-14 273.899 7.62562e-15 2451.47)
(10266.3 -1172.9 2.97039e-28 507.651 1.026e-28 2486.31)
(10195.9 -1056.12 -2.66236e-14 733.49 -8.62598e-15 2522.17)
(10136.4 -920.849 -1.82361e-28 950.038 -6.48644e-29 2558.4)
(10086.9 -763.61 2.59952e-14 1155.22 1.02494e-14 2594.34)
(10047.7 -579.042 2.57379e-14 1345.83 1.13467e-14 2629.28)
(10020 -357.291 -1.19746e-28 1516.86 -7.26923e-29 2662.36)
(10010.2 -73.8823 -3.38449e-14 1661.23 -5.78727e-14 2693.41)
(13048 -517.403 1.83729e-14 -2020.41 -1.36172e-15 2544.84)
(12805 -719.986 -1.84098e-14 -1987.95 -1.55577e-14 2496.24)
(12478.2 -917.402 -5.34206e-14 -1923.91 -2.73378e-14 2435.6)
(12166.9 -1077.41 0 -1795.94 0 2393.3)
(11877.2 -1197.74 1.45176e-14 -1625.08 -3.67602e-15 2365.86)
(11612.5 -1282.02 -4.464e-15 -1425.33 -1.68002e-14 2350.89)
(11373.8 -1334.81 -4.93858e-14 -1206.75 -2.11299e-14 2346.24)
(11160.6 -1360.3 -6.6173e-14 -976.874 -3.14492e-14 2350.08)
(10971.5 -1362.09 2.98744e-14 -741.352 8.07642e-15 2360.8)
(10804.9 -1343.1 -3.45056e-14 -504.386 -1.99939e-14 2377.04)
(10658.7 -1305.53 -1.69867e-14 -269.077 -9.25188e-15 2397.59)
(10530.7 -1250.79 -3.34711e-14 -37.7606 -1.70642e-14 2421.46)
(10419.1 -1179.56 -3.30056e-14 187.689 -1.56821e-14 2447.72)
(10322 -1091.71 -1.62894e-14 405.561 -7.18182e-15 2475.58)
(10237.8 -986.336 -3.21886e-14 614.028 -1.31162e-14 2504.27)
(10165.7 -861.676 -3.18288e-14 810.85 -1.19502e-14 2533.06)
(10105.4 -714.974 -2.61742e-14 993.057 -1.07837e-14 2561.18)
(10057.3 -541.855 -1.55786e-14 1156.52 -4.9658e-15 2587.81)
(10023.6 -333.896 -1.5407e-14 1295.37 -4.56818e-15 2612.06)
(10008.4 -68.9706 -5.07645e-15 1401.1 -4.27389e-15 2632.96)
(12922.4 -228.771 1.60492e-13 -1745.59 7.63904e-14 2579.25)
(12727.8 -426.358 1.66051e-14 -1756.08 1.4877e-14 2531.93)
(12454 -626.397 -8.62386e-14 -1733.33 -3.98809e-14 2474)
(12183.1 -798.55 1.31935e-27 -1647 5.40004e-28 2431.42)
(11921.7 -936.918 4.8727e-14 -1513.85 8.07381e-15 2401.82)
(11675.4 -1042.13 0 -1347.37 0 2383.4)
(11447.2 -1116.83 1.7294e-14 -1158 1.22556e-14 2374.44)
(11238.4 -1164.06 -6.15133e-14 -953.751 -1.82299e-14 2373.37)
(11049 -1186.69 1.47671e-27 -740.82 5.13136e-28 2378.81)
(10878.5 -1187.18 5.89042e-14 -524.016 1.73346e-14 2389.49)
(10725.8 -1167.48 -1.67426e-14 -307.102 -9.4071e-15 2404.31)
(10589.6 -1128.96 -1.8914e-28 -93.1031 -5.71663e-29 2422.28)
(10468.7 -1072.37 -1.14779e-27 115.397 -3.69971e-28 2442.49)
(10361.9 -997.849 1.62612e-14 315.977 7.45289e-15 2464.13)
(10268.2 -904.848 -5.56417e-28 506.098 -2.02643e-28 2486.38)
(10187.2 -792.154 -5.32817e-14 682.811 -2.0939e-14 2508.46)
(10119 -657.733 4.59497e-28 842.441 1.90207e-28 2529.55)
(10064.6 -498.205 3.64753e-14 980.2 1.8996e-14 2548.8)
(10026.4 -306.583 -1.55204e-14 1089.63 -5.11957e-15 2565.24)
(10006.8 -63.2937 -7.3854e-14 1160.88 -1.24186e-13 2577.17)
(12743.8 6.60472 2.87322e-14 -1493.96 2.83806e-14 2596.12)
(12589.8 -181.302 4.98469e-14 -1533.72 2.79343e-14 2551.4)
(12362.8 -375.726 3.10939e-14 -1539.75 2.80149e-14 2497.62)
(12131.5 -550.416 1.68841e-28 -1486.42 3.37637e-29 2456.55)
(11901.5 -697.857 6.53104e-14 -1386.23 3.78333e-14 2426.61)
(11678.6 -816.43 -1.57721e-14 -1250.72 1.9562e-15 2406.44)
(11466.9 -906.914 -1.49789e-14 -1089.72 1.88568e-15 2394.73)
(11268.6 -971.016 3.30676e-14 -911.213 2.29079e-14 2390.17)
(11085.1 -1010.69 3.01616e-14 -721.619 9.51144e-15 2391.56)
(10916.6 -1027.79 4.60367e-14 -526.119 1.94938e-14 2397.81)
(10763.1 -1023.9 3.28275e-14 -328.937 1.89905e-14 2407.88)
(10624 -1000.22 -1.21301e-14 -133.621 -5.27201e-16 2420.85)
(10498.7 -957.526 4.49895e-15 56.6946 6.91667e-15 2435.85)
(10386.5 -896.094 1.61353e-14 239.023 7.67798e-15 2452.05)
(10287.2 -815.719 5.91847e-14 410.26 2.46521e-14 2468.65)
(10200.7 -715.673 1.59184e-14 566.912 6.65414e-15 2484.84)
(10127.6 -594.607 5.87626e-30 704.789 2.59247e-30 2499.78)
(10069.2 -450.087 5.75685e-14 818.651 2.43065e-14 2512.59)
(10028.3 -276.547 3.1075e-14 901.678 1.12453e-14 2522.3)