/*--------------------------------*- C++ -*----------------------------------*\
| =========                 |                                                 |
| \\      /  F ield         | OpenFOAM: The Open Source CFD Toolbox           |
|  \\    /   O peration     | Version:  2.3.0                                 |
|   \\  /    A nd           | Web:      www.OpenFOAM.org                      |
|    \\/     M anipulation  |                                                 |
\*---------------------------------------------------------------------------*/
FoamFile
{
    version     2.0;
    format      ascii;
    class       volScalarField;
    location    "4e-05";
    object      k;
}
// * * * * * * * * * * * * * * * * * * * * * * * * * * * * * * * * * * * * * //

dimensions      [0 2 -2 0 0 0 0];

internalField   nonuniform List<scalar> 
7500
(
9.9993164e-06
9.9965908e-06
9.9953216e-06
9.9936544e-06
9.9914491e-06
9.9901912e-06
9.9879809e-06
9.9871618e-06
9.9857683e-06
9.9845136e-06
9.9834813e-06
9.9825978e-06
9.9816451e-06
9.9808112e-06
9.97989e-06
9.9791481e-06
9.9784758e-06
9.9776567e-06
9.9771495e-06
9.9762296e-06
9.9754286e-06
9.9746038e-06
9.9738043e-06
9.9731894e-06
9.9724747e-06
9.9722434e-06
9.9717796e-06
9.9714551e-06
9.9713492e-06
9.9708898e-06
9.9705921e-06
9.970277e-06
9.9699255e-06
9.9695994e-06
9.9692469e-06
9.969123e-06
9.9690087e-06
9.9689465e-06
9.9691096e-06
9.9693583e-06
9.9697652e-06
9.9703653e-06
9.9712779e-06
9.9725161e-06
9.9744844e-06
9.9764822e-06
9.979864e-06
9.9829196e-06
9.9882433e-06
9.9927383e-06
1.0000718e-05
1.0007228e-05
1.0018958e-05
1.0028175e-05
1.0044958e-05
1.0057807e-05
1.0081472e-05
1.0098709e-05
1.0130941e-05
1.0153644e-05
1.0196421e-05
1.0225761e-05
1.0281333e-05
1.0318723e-05
1.0390034e-05
1.0436792e-05
1.0526807e-05
1.0584678e-05
1.0697039e-05
1.0767719e-05
1.0906199e-05
1.0991741e-05
1.11605e-05
1.126194e-05
1.1529321e-05
9.9994274e-06
9.9974055e-06
9.9963524e-06
9.9947325e-06
9.9938016e-06
9.992772e-06
9.9918939e-06
9.991386e-06
9.9910242e-06
9.99088e-06
9.9910853e-06
9.991329e-06
9.9917079e-06
9.9921424e-06
9.9927287e-06
9.9934139e-06
9.9943059e-06
9.9953604e-06
9.9967436e-06
9.9980109e-06
9.9995544e-06
1.0000907e-05
1.0002495e-05
1.0003901e-05
1.0005639e-05
1.0007209e-05
1.0009257e-05
1.0011129e-05
1.0013772e-05
1.0016003e-05
1.0019216e-05
1.0021896e-05
1.0025783e-05
1.002908e-05
1.0033905e-05
1.0038423e-05
1.0045238e-05
1.0051931e-05
1.006241e-05
1.0072735e-05
1.0089306e-05
1.0105222e-05
1.013118e-05
1.0155236e-05
1.0194779e-05
1.0230156e-05
1.0288608e-05
1.0339515e-05
1.0423936e-05
1.0495663e-05
1.0614514e-05
1.0713661e-05
1.087846e-05
1.1012472e-05
1.1236138e-05
1.1412878e-05
1.1709338e-05
1.1935977e-05
1.2317703e-05
1.2604662e-05
1.3090986e-05
1.3445552e-05
1.4048832e-05
1.4481148e-05
1.5219452e-05
1.5736332e-05
1.6624969e-05
1.7236543e-05
1.8295908e-05
1.9011903e-05
2.0265259e-05
2.1095087e-05
2.2556333e-05
2.3498367e-05
2.5744967e-05
1.0002068e-05
1.0003819e-05
1.000781e-05
1.0010427e-05
1.0015611e-05
1.0019304e-05
1.0025679e-05
1.0030323e-05
1.0038116e-05
1.0043417e-05
1.0052226e-05
1.0058044e-05
1.0067638e-05
1.0073992e-05
1.0084721e-05
1.0091922e-05
1.0104145e-05
1.0112074e-05
1.0125029e-05
1.0133269e-05
1.0145578e-05
1.0153419e-05
1.0165255e-05
1.0173208e-05
1.0185736e-05
1.0194857e-05
1.0209646e-05
1.0221316e-05
1.0240646e-05
1.0257073e-05
1.0284633e-05
1.0309872e-05
1.0352319e-05
1.0393175e-05
1.0461728e-05
1.052956e-05
1.0643388e-05
1.075555e-05
1.0944189e-05
1.1124718e-05
1.1427065e-05
1.1707485e-05
1.2175982e-05
1.2596626e-05
1.3298153e-05
1.3908098e-05
1.4923929e-05
1.5782839e-05
1.7210065e-05
1.8387647e-05
2.0332518e-05
2.1912546e-05
2.4512608e-05
2.6584662e-05
2.998828e-05
3.2632785e-05
3.6971131e-05
4.0251852e-05
4.5635262e-05
4.9658304e-05
5.6260419e-05
6.1077984e-05
6.8983372e-05
7.4679047e-05
8.4009801e-05
9.060802e-05
0.00010144103
0.00010901839
0.00012144535
0.00013006635
0.00014430415
0.00015399418
0.00017001094
0.00018070114
0.00020463929
1.0026444e-05
1.0050262e-05
1.0100839e-05
1.0125169e-05
1.0174198e-05
1.0197661e-05
1.0242499e-05
1.0264029e-05
1.0304423e-05
1.0323833e-05
1.0359275e-05
1.0377007e-05
1.0409227e-05
1.0428045e-05
1.0462773e-05
1.0483237e-05
1.0520525e-05
1.0543527e-05
1.0579643e-05
1.0600996e-05
1.0635187e-05
1.0657484e-05
1.0695846e-05
1.0726227e-05
1.0779289e-05
1.0830059e-05
1.0919435e-05
1.1014163e-05
1.118147e-05
1.1364101e-05
1.1687307e-05
1.2033069e-05
1.2641456e-05
1.3267064e-05
1.4358081e-05
1.5439736e-05
1.7314364e-05
1.9102486e-05
2.2187831e-05
2.5003513e-05
2.982575e-05
3.4073514e-05
4.130886e-05
4.7473149e-05
5.7921403e-05
6.6558547e-05
8.1146474e-05
9.2881249e-05
0.00011262273
0.00012813761
0.00015406745
0.00017415837
0.00020751352
0.00023300564
0.00027510071
0.00030656578
0.00035822731
0.00039601325
0.00045801956
0.00050292745
0.00057627493
0.00062852368
0.00071364543
0.00077364513
0.00087089752
0.00093843258
0.0010479565
0.0011233774
0.001244815
0.001328556
0.0014637931
0.0015553977
0.0017030946
0.0018016585
0.0020154376
1.0070757e-05
1.0207607e-05
1.0318446e-05
1.0441903e-05
1.0525285e-05
1.0638859e-05
1.070622e-05
1.0806398e-05
1.0863244e-05
1.0954299e-05
1.1000912e-05
1.1082505e-05
1.1127728e-05
1.1202486e-05
1.1247931e-05
1.1302071e-05
1.1347314e-05
1.1401775e-05
1.1460333e-05
1.1523384e-05
1.1619075e-05
1.1733432e-05
1.1937291e-05
1.2202153e-05
1.2679428e-05
1.3289557e-05
1.4395192e-05
1.5721068e-05
1.8132138e-05
2.0817156e-05
2.569679e-05
3.0747315e-05
3.9845346e-05
4.8706615e-05
6.452997e-05
7.9229817e-05
0.00010531979
0.00012855037
0.00016950626
0.00020441449
0.00026552045
0.00031587615
0.00040344724
0.00047340904
0.00059420257
0.00068820595
0.00084967679
0.00097223673
0.0011817249
0.0013373676
0.0016020282
0.0017958101
0.002122903
0.0023602273
0.0027576944
0.0030406308
0.0035101712
0.0038387418
0.0043840997
0.0047620459
0.0053843338
0.0058116387
0.0065121263
0.0069884211
0.0077633004
0.0082842805
0.009132336
0.0096972497
0.010607954
0.011220536
0.012206034
0.012859112
0.013907408
0.014592328
0.016055612
1.0045838e-05
1.0231254e-05
1.0318412e-05
1.0494112e-05
1.0574832e-05
1.0746181e-05
1.0825025e-05
1.0990854e-05
1.106611e-05
1.1227546e-05
1.1295261e-05
1.1448249e-05
1.1514447e-05
1.1663775e-05
1.1751077e-05
1.1939621e-05
1.2079334e-05
1.2349943e-05
1.2673506e-05
1.3263515e-05
1.4168446e-05
1.567022e-05
1.8320312e-05
2.2036201e-05
2.8884234e-05
3.7360848e-05
5.3154718e-05
7.0823238e-05
0.00010375688
0.00013764048
0.00020060288
0.00026068122
0.00037108407
0.00047050374
0.00065162712
0.0008071686
0.0010890679
0.0013214424
0.0017390301
0.0020699478
0.0026609499
0.0031147454
0.0039197471
0.0045207381
0.0055775339
0.0063489796
0.0076963493
0.0086590708
0.010330241
0.011501855
0.013528472
0.014927289
0.017332012
0.018981853
0.021790963
0.023688668
0.026880818
0.029009364
0.03259315
0.034959029
0.038902492
0.041501508
0.045805689
0.048616106
0.053221953
0.056211707
0.061113448
0.064257138
0.069364204
0.072692628
0.078050863
0.081518941
0.087086411
0.090627863
0.098109598
1.0000422e-05
1.0008456e-05
1.0023217e-05
1.0050237e-05
1.0096113e-05
1.0147788e-05
1.0240105e-05
1.0318553e-05
1.0451202e-05
1.0575709e-05
1.0738057e-05
1.0924491e-05
1.1160235e-05
1.1475294e-05
1.1951691e-05
1.2714134e-05
1.4060516e-05
1.642405e-05
2.0520052e-05
2.8218894e-05
3.9985787e-05
6.1109026e-05
9.4358809e-05
0.00014204323
0.00022652702
0.00032470736
0.00050787476
0.00069583733
0.0010503882
0.0013855483
0.0020166179
0.0025701331
0.003601605
0.0044590591
0.0060432862
0.0073012033
0.0096170942
0.011385336
0.014609336
0.016988774
0.02130451
0.024395845
0.02996855
0.033860231
0.040811436
0.045571609
0.05400245
0.059683524
0.069664658
0.076290281
0.087897857
0.095483468
0.10872039
0.11733771
0.13220825
0.14178298
0.15805875
0.1684477
0.18611173
0.197292
0.2160937
0.22807862
0.24804526
0.26066925
0.28140038
0.29454402
0.31606534
0.32952923
0.35139184
0.36542788
0.38763607
0.40207892
0.42476328
0.43906169
0.46875809
1.0013753e-05
1.0117769e-05
1.0183543e-05
1.0360356e-05
1.0461198e-05
1.0675705e-05
1.0802133e-05
1.0974858e-05
1.1125106e-05
1.1299728e-05
1.1584356e-05
1.212158e-05
1.3193732e-05
1.5336089e-05
1.9567339e-05
2.7636796e-05
4.3230678e-05
7.0955772e-05
0.00011923538
0.00021299714
0.00034177878
0.00059975742
0.00090074677
0.0014603017
0.0021653054
0.0031592871
0.0047143342
0.0063390992
0.0092253607
0.011844255
0.016643983
0.02059745
0.027933975
0.033591381
0.044098999
0.051866198
0.066283227
0.076528631
0.095362291
0.10838576
0.13221101
0.14823574
0.17740187
0.19658879
0.23122603
0.25361641
0.29363433
0.31931117
0.36471504
0.39362887
0.44452216
0.47653728
0.53277951
0.56807269
0.62926257
0.66745665
0.73248949
0.7730855
0.84198871
0.88493971
0.95711824
1.0028752
1.0786743
1.1263392
1.2037793
1.2531084
1.3321718
1.382114
1.4619745
1.5131402
1.5924136
1.6458197
1.7263028
1.7797388
1.8886868
1.0056631e-05
1.025366e-05
1.0433625e-05
1.0623525e-05
1.0983928e-05
1.1156357e-05
1.1493219e-05
1.188464e-05
1.2638945e-05
1.4044683e-05
1.6961604e-05
2.2899089e-05
3.5140345e-05
5.9606371e-05
0.00010754734
0.00019630685
0.00037598135
0.0006584512
0.0011572844
0.0020685225
0.0032175829
0.0055164326
0.0079110167
0.012728051
0.017237028
0.026223603
0.033938185
0.048074431
0.062425629
0.081713064
0.10633056
0.13079255
0.16858991
0.19826449
0.2510167
0.28852831
0.35697848
0.40303826
0.48746086
0.54305341
0.64469412
0.71009049
0.82913365
0.9043308
1.0404317
1.1252485
1.2772793
1.3727994
1.5417823
1.6482044
1.8342431
1.950753
2.1538807
2.2805057
2.4980481
2.6349472
2.8659505
3.0145837
3.2629273
3.4233774
3.6897533
3.8637017
4.1453335
4.3263972
4.6124134
4.8015356
5.0876847
5.2794194
5.573956
5.7725309
6.0755408
6.2984572
6.6310289
6.8806099
7.384393
1.0188898e-05
1.1083153e-05
1.1378381e-05
1.2184605e-05
1.2427938e-05
1.3134552e-05
1.388745e-05
1.5771234e-05
2.0362767e-05
3.1531042e-05
5.7264414e-05
0.00011356347
0.00023007772
0.00046639967
0.00092177956
0.0017330047
0.0034300498
0.00571462
0.010307207
0.01624659
0.025215566
0.040514755
0.055948243
0.085806615
0.11154201
0.16238044
0.20217935
0.28068897
0.33805991
0.45006469
0.52817372
0.67809289
0.78146855
0.95612336
1.118554
1.299302
1.5310865
1.7168779
2.0152693
2.2203387
2.5799435
2.8128598
3.2262594
3.4871435
3.9547613
4.2527876
4.7854376
5.1309488
5.7370645
6.1280557
6.7920309
7.223749
7.9462145
8.4144504
9.2128059
9.764519
10.683081
11.331349
12.383864
13.088927
14.224625
14.98105
16.145272
16.92419
18.109058
18.925139
20.084656
20.966108
22.320685
23.387146
25.21075
26.645898
28.862777
30.495468
33.60953
1.0056507e-05
1.0409645e-05
1.0711991e-05
1.1484986e-05
1.2412477e-05
1.4901684e-05
2.1304104e-05
3.8906868e-05
8.3354975e-05
0.00018924356
0.00042469248
0.00092738746
0.0019213822
0.0039630598
0.0076813066
0.013820872
0.026324437
0.041184151
0.07240964
0.10348321
0.16791794
0.22720318
0.32459988
0.45181547
0.57911895
0.79596521
0.96232946
1.279628
1.4974234
1.9183888
2.199166
2.7355858
3.0866749
3.7529428
4.1798927
4.9867896
5.5067209
6.4290671
7.1665058
8.1476746
9.1740054
10.13992
11.467705
12.434084
14.160559
15.381216
17.537635
18.982105
21.434429
23.056999
25.624866
27.512411
30.186609
32.38659
36.595439
39.682752
44.563839
48.271562
53.782712
57.03166
62.789007
66.309855
72.131508
76.032391
82.601763
86.852148
93.620394
98.806184
112.14113
120.31105
142.16859
151.62726
170.19093
178.75305
197.3574
1.1063473e-05
1.1799398e-05
1.2508646e-05
1.3965834e-05
1.874221e-05
3.5348564e-05
8.7136523e-05
0.00023219562
0.00059667756
0.0014379389
0.0032619588
0.0070994054
0.014229978
0.03020006
0.052080018
0.093667967
0.16097022
0.24312299
0.39868604
0.54549274
0.83914036
1.0723028
1.5418108
1.8875298
2.551869
3.104602
3.8493374
4.8210752
5.5747942
6.9382268
7.8808716
9.6413447
10.843541
13.057166
14.536382
17.326077
19.283448
22.869625
25.348212
29.754066
32.87374
37.464051
41.825546
46.814211
56.045165
62.007068
73.087554
79.462495
91.050307
98.44502
111.0095
119.76442
133.71459
151.37524
191.76717
208.04021
233.10019
260.98799
272.07509
290.31502
331.23977
345.79196
387.29354
407.65989
450.09085
474.15803
519.31102
547.91006
620.34097
629.61008
687.27863
698.71397
741.64777
762.18004
805.63669
1.1800576e-05
1.3157183e-05
1.594754e-05
2.5920269e-05
6.5445464e-05
0.00020495478
0.00062145509
0.0017332233
0.0043789373
0.010212308
0.02249541
0.048247439
0.090065034
0.18499335
0.29432993
0.53789791
0.76908653
1.228588
1.7208566
2.4060293
3.3674945
4.2398603
5.7850783
6.9564054
9.1848847
10.745409
13.585221
16.180022
19.180532
23.201565
27.122909
33.358826
37.972922
46.123329
51.87923
64.410396
73.358204
89.560685
100.6319
121.54438
134.68472
157.04318
180.76527
222.35814
284.74546
301.13075
365.27982
388.19408
456.66675
491.79496
561.25823
606.74384
703.38395
727.23078
812.6506
826.58065
875.07715
990.93165
903.4029
949.00156
930.70859
930.47285
990.19766
938.19987
895.10004
860.98842
768.5604
799.1179
773.00804
758.61372
705.92888
674.63233
604.27315
605.89311
542.04128
1.1555754e-05
1.519662e-05
2.8989337e-05
0.00010313707
0.00040755067
0.0014353926
0.0043318711
0.011656438
0.028101653
0.062802351
0.13532644
0.27139876
0.47980118
0.92032013
1.368513
2.3457944
3.1837866
4.9580946
6.3404454
9.1852902
11.295871
15.278517
18.972417
23.768932
30.420841
36.097157
46.113797
55.193843
66.334697
83.723942
104.01305
126.09631
148.72256
184.57947
210.43158
301.49342
335.70956
416.76134
469.59012
591.65594
634.29814
779.0584
817.27317
926.49805
1029.3336
1046.5683
1138.8859
1072.6534
1174.923
1071.888
1118.2536
1053.8965
987.06262
854.27006
733.12228
711.4329
666.87815
569.5065
452.08253
451.48303
320.99899
352.12053
243.63383
235.51858
212.97175
197.96188
168.29768
180.44341
115.44257
117.58547
80.238554
77.334807
64.000766
60.807108
42.093803
1.050482e-05
2.2279135e-05
0.00011761875
0.000649929
0.0027453917
0.0093091957
0.026632877
0.068155837
0.15534293
0.3343559
0.7208221
1.2289159
2.2085174
3.6902295
5.353183
8.6114174
11.320874
16.980031
21.350279
30.323138
37.396317
51.519046
62.066018
84.08808
104.10933
132.39763
172.89048
208.00238
273.4232
377.31771
462.24732
552.54468
695.75537
824.9929
929.73978
1159.9672
1145.6219
1193.2807
1273.1505
1308.7179
1215.9124
1204.0836
1026.3316
963.79058
785.8722
818.57672
528.07545
452.4272
362.12272
262.89049
338.31722
195.02888
162.20996
108.77824
81.610677
91.635117
69.155388
33.811603
35.255655
33.540652
22.593644
33.802542
23.504349
19.293717
19.504802
19.517404
29.337703
21.478203
10.637652
13.868751
8.9682442
9.3973436
7.9267535
5.6747365
3.1350386
9.569627e-06
7.7009913e-05
0.00074607312
0.0041816002
0.016798557
0.053112079
0.14212387
0.34696887
0.73924352
1.5694908
2.9709113
4.8873597
8.6879335
12.291144
19.262175
27.636357
37.230282
55.580664
69.997697
102.46932
129.33345
183.60212
225.13049
342.07438
424.30651
582.50332
749.39525
921.83549
1086.977
1270.6143
1302.6922
1394.8348
1441.9416
1287.2181
1263.6875
990.71376
851.40843
614.05006
533.12936
337.8088
341.26279
214.61121
193.86794
129.63843
127.16203
107.44354
35.798286
48.48697
31.004733
25.607048
29.783962
12.562234
9.9102628
8.3392909
8.6829451
9.3621192
5.7865857
3.3402277
4.4954763
3.985996
4.0390353
5.5963305
4.5126977
5.2996867
4.7787599
4.1360365
9.5694287
3.9195194
6.4508903
4.8460343
2.6922463
2.7679514
1.9232321
1.2068252
1.0279098
9.4992764e-06
0.00049394992
0.0047447441
0.024406707
0.090202292
0.26366193
0.65693739
1.5558807
3.0223361
6.4056192
10.206713
17.747514
27.489227
40.102562
64.309787
86.015096
130.56594
187.63737
245.39614
400.63111
518.69343
763.2529
928.98866
1273.1449
1327.7885
1546.6336
1594.7864
1452.4559
1249.8571
1033.4348
713.08744
622.66634
367.71417
342.22596
243.48488
96.640149
89.026784
64.511532
48.912375
25.507191
30.781065
15.667202
20.416119
25.397725
30.604613
11.206732
3.5643731
14.584826
4.8263144
7.861709
6.7568994
2.617967
2.1658209
1.9316424
2.3790677
3.1085013
2.1367067
2.2065819
3.0696257
3.0038621
3.1008978
2.5460661
2.9136794
4.915088
2.661871
1.7819185
3.8641803
2.6349522
5.5434449
1.5690334
1.5055044
1.5130412
1.2375528
0.99994476
0.9845551
2.3035785e-05
0.0031871883
0.027274546
0.12652867
0.42365673
1.1392498
2.6394439
5.8779636
10.788891
21.352936
33.28419
57.725032
84.384715
138.20713
212.01692
299.41582
520.18831
716.49427
998.20041
1405.8696
1498.476
1721.8683
1642.6603
1436.2237
1163.3961
785.2234
533.93275
305.57296
225.59477
112.21974
79.224474
73.9273
32.09837
40.432285
16.18522
5.7724866
7.3519261
9.9443591
5.859217
2.6436662
3.3058476
2.012579
4.2538243
7.8224694
8.2860329
2.2128236
1.7677628
5.8306703
3.1796446
3.9114252
5.0267367
2.3507072
1.7999949
1.6471554
1.6212343
1.7741605
1.6521022
2.3246214
4.2946031
4.8034022
4.3537143
2.8605657
3.5434703
3.3459049
1.6574958
1.3020935
1.7898097
2.0683446
1.4548734
1.1512214
1.1903342
1.1867678
1.0408997
1.0217982
1.073578
4.0015761e-06
0.01808717
0.13791323
0.57472169
1.7398094
4.3162925
9.3502977
19.417343
35.391149
66.37755
105.95128
184.26796
287.22108
523.28573
795.42644
1221.9189
1557.643
1713.6451
1815.7081
1584.0372
1134.7247
710.35746
432.54051
239.16783
197.30251
82.669509
44.354868
24.3985
24.558639
8.3248346
11.72467
8.5745501
7.4589387
7.0059318
2.0886302
0.98491052
1.7095011
1.9471551
1.4633093
1.1208816
0.96419756
1.5239455
3.5385525
5.1065544
16.1358
1.387795
1.5411527
3.5189377
2.6863188
2.6427949
2.4429434
1.7512574
1.7082969
2.3281528
2.1491133
1.6573505
1.6581974
2.5567887
3.5461083
3.8767887
2.4587033
2.0346341
2.2467735
1.9754831
2.3009503
1.394042
1.3545578
1.367751
1.1955436
1.2528141
1.2056314
1.170435
1.0328191
1.0242633
1.0736165
0.00073789352
0.096042603
0.6216849
2.2926952
6.2714468
14.497039
29.99506
60.247642
114.37925
207.79854
358.04843
677.60943
1132.0728
1613.4675
1918.4962
1916.4159
1537.6594
1026.8975
586.28985
263.75268
158.77544
74.694512
39.145517
27.134568
36.107071
7.6057807
6.1253569
3.7768409
2.4824809
1.2717809
3.3756211
2.9776024
3.0490292
3.3802173
1.2284991
0.74021
1.5161033
1.3887218
0.68604136
0.94570778
0.74686735
2.3258546
2.5917268
3.2423494
3.689606
1.2774977
1.1000796
2.9420842
2.9938421
2.7479075
2.4037674
1.5978532
1.8244102
3.017587
2.8980915
2.188544
2.1040662
2.3337237
3.5805397
2.6506039
1.8327797
2.1701363
1.9303264
1.8380662
2.8559586
1.2160643
1.5431024
0.99927249
1.1445172
1.1188228
1.1402089
1.1542289
1.2192583
1.1341056
1.0706957
0.0083742655
0.45524331
2.4919293
8.0703772
20.150493
44.188372
91.793587
192.16877
376.8462
743.78449
1400.5896
1806.1173
1974.9131
1733.8584
1141.0189
528.53812
269.31487
165.93653
58.325539
23.670631
18.364621
6.3402821
3.132903
4.1695674
4.3660393
1.566816
1.78231
1.9294092
1.3681354
1.3102854
1.8883962
1.3429799
4.7928861
1.5368064
0.82864027
0.71591915
1.8096185
1.1106986
0.45062324
0.71837623
0.88561682
1.9275251
3.3850026
5.8765089
3.4729245
1.2934615
0.99556217
2.9586541
2.533617
3.2470968
2.4864099
1.5951707
2.6256719
3.1932321
2.9579981
2.4405152
2.0967088
2.2939972
4.5500685
3.2517503
2.176125
2.4690046
1.9269155
2.0157845
1.996152
0.91514943
1.4968352
0.94718174
1.6256943
1.5728728
1.1456307
1.225427
1.5310002
1.4260805
1.2410099
0.064167601
1.9290638
8.8478074
25.325947
59.394983
130.59155
286.72017
669.33001
1430.8968
1860.7185
2027.0405
1596.8729
680.95181
359.06147
161.03931
58.70374
35.633866
27.666513
5.3784186
1.5308363
1.7902238
0.62683821
0.78513664
1.7237396
1.2330101
0.78050539
1.4483803
1.4531047
1.2312466
3.038604
1.7123756
0.71528923
1.9003674
3.8747404
0.67719076
0.79989727
1.324437
0.83421988
0.42557343
0.764567
0.79956224
2.1436636
4.0282851
8.6988291
6.0096401
1.3692739
0.88938436
2.9219086
2.7298495
2.8117032
2.7675345
1.5466083
2.5932346
3.8308131
2.7643183
2.3317904
2.6361025
2.4074175
2.4674324
2.5380135
2.817934
2.0944314
1.7610494
1.9123336
1.2606951
1.0554224
1.2604253
1.0460794
1.6509772
1.5107158
1.3124324
1.4493076
1.5660014
1.5872242
1.3907693
0.39579692
7.3124227
28.064164
72.643197
168.41083
397.41977
1015.117
1833.4236
2323.3598
1645.5036
628.47915
317.74578
90.303418
56.281623
15.356603
4.7756694
4.7719411
3.3860186
0.67594744
0.37484986
0.40509972
0.27735624
0.53840171
1.2055115
1.4340878
0.62116266
0.69817452
1.2282303
1.1698821
4.7409179
1.7978519
0.51219256
0.58740573
4.8835079
0.65850966
1.1642465
1.0171128
0.66575667
0.46108202
0.55664411
0.81697905
2.4199619
3.6132777
3.8873706
3.3178314
1.0023921
0.71813799
1.9477375
1.9921765
2.94262
2.3679145
1.2315386
1.9731207
2.1025874
1.6576162
2.3860973
2.4880607
2.084113
1.9692142
2.3940309
2.2314191
1.4533692
1.6713588
1.8641508
1.4097332
1.4958941
1.0674579
1.127595
1.3140483
1.3193273
1.3604979
2.1027545
2.0029414
1.8518055
1.4530674
2.0903546
24.878209
81.042916
197.62128
491.78072
1378.5814
1997.2613
1871.7031
953.41035
325.11325
100.92213
40.881438
9.1075267
7.0034096
1.1506641
0.71704618
1.37623
0.5763505
0.41430948
0.3359158
0.30391341
0.24944957
0.49940282
1.3591183
3.0294783
0.5817896
0.49969658
1.3639222
1.4259657
4.6382653
1.6865345
0.79200005
0.72218736
3.7434083
0.67381859
1.4634556
0.89639406
0.62435363
0.51143686
0.48955472
0.64097805
1.6062188
2.2205116
1.4563758
1.5168106
0.71691801
0.67706608
1.3560705
1.432583
3.1103557
2.1422333
1.1416135
2.8610139
2.1577566
1.2738172
2.3354329
2.5893747
2.2723134
2.5798593
2.5198775
2.0303537
1.4401477
2.1713001
1.8442686
2.0375999
1.1386221
1.0744406
1.1914061
1.0873269
1.2855611
1.218801
2.8098172
2.5234464
2.2168501
1.5563703
9.7155157
76.852422
218.31501
541.84255
1606.822
2231.2829
1463.1577
502.25681
181.72993
35.488376
11.704454
3.7203486
1.0999971
1.5075672
0.24101966
0.40784958
0.77226387
0.3816922
0.39069424
0.32461378
0.3070379
0.24354643
0.5338155
1.6091625
4.283855
0.53450129
0.47012593
1.1482759
1.9791488
3.6220982
1.4802329
1.7516914
0.86616782
2.018068
0.62784013
1.48435
0.88557603
0.53263382
0.61273504
0.73313977
0.7792333
1.1451382
1.2232895
1.1057184
1.0109684
0.67684608
0.67410611
1.4446083
1.3740192
2.4586698
1.5010103
1.0702412
1.099365
1.1677563
1.0798446
1.3098837
2.6713638
2.1928316
2.4276176
2.4095697
1.9382251
1.8307329
3.2667101
1.6877786
1.7637565
1.3304427
1.1893268
1.2357222
1.0560762
1.5508786
1.341677
3.5660099
2.7959955
2.3399603
1.6590315
40.627828
217.6899
573.51332
1628.3439
2247.2546
1265.7771
480.06592
102.97646
19.805928
3.3181751
1.6337168
0.54701771
0.49633695
0.6802561
0.18575197
0.35404171
0.61377864
0.36081364
0.3982907
0.33268263
0.33473913
0.24757528
0.57668984
1.5041878
2.6227307
0.51401259
0.46203965
0.73534344
1.6321394
4.5453719
1.3420441
1.6111189
0.69586042
1.1704001
0.60464307
1.0675693
0.91582
0.4818628
0.90572914
1.2544245
0.9173982
1.0803838
1.4022813
1.0444981
0.79391303
0.69248451
0.65795136
1.3319316
1.24675
1.6965291
1.1755255
1.0110504
0.99078822
0.92584889
1.0141884
1.2638082
2.0423437
2.0185788
2.0550035
2.2826547
1.7665113
2.1001509
2.7483696
2.2512194
1.6392412
0.88126545
1.2254357
1.3272637
1.0371703
1.6676918
1.6945546
2.6442147
2.7140593
2.2666019
1.6665346
156.41526
573.04283
1582.1532
2148.5013
1135.871
442.57292
93.486449
11.489375
2.0620666
0.84780064
0.59387384
0.30090648
0.58327831
0.50463166
0.18546012
0.31979233
0.53027716
0.36299018
0.41632335
0.34540621
0.32135055
0.25853691
0.6216381
1.2990566
0.66434199
0.51008156
0.45040897
0.81806237
1.3789253
5.1501577
1.4388083
1.3118413
0.73543042
0.73663689
0.49968774
0.58513089
0.87416673
0.47574404
1.2605102
1.5095244
0.9299756
0.95398071
1.1267374
0.95019965
0.74145057
0.72550054
0.67336249
1.2976365
1.168273
1.1314638
0.9315713
1.0448144
0.91240022
0.90705484
1.0263308
1.4074025
2.1049534
2.4865195
2.2854406
2.0633346
1.5765445
2.0421842
4.8046184
3.5034328
1.8541136
0.99976969
1.0087972
1.404336
1.0736738
0.98608149
1.9193515
2.1881098
1.3762512
1.5867182
1.5406334
492.61433
1513.893
2527.7626
1349.9367
455.68262
103.16429
9.6846175
1.2643748
0.8502268
0.7661165
0.5143597
0.27517036
0.91933341
0.45772964
0.18838669
0.30127032
0.48907744
0.37633321
0.44261987
0.34971697
0.33802503
0.25940351
0.60795145
1.0596642
0.50073328
0.53141139
0.40101923
1.331332
1.6006928
2.060515
1.4399743
0.98026556
0.78827929
0.60952942
0.49058144
0.4732456
0.81786666
0.54455828
0.79349988
0.91081339
0.66915449
0.97800466
0.77395792
0.92627909
0.73352883
0.73262092
0.71036681
1.423267
1.1360833
0.96151183
0.94041725
1.0152446
0.89964108
0.951094
1.1818493
1.2591992
2.6593047
2.598763
3.5725623
2.2310488
1.6585849
1.4973905
4.3552484
3.1147262
1.8971653
1.3194284
0.93509205
1.3913911
0.95684453
0.95381288
1.9060884
1.8989751
1.0492418
1.0704393
1.3501297
1458.5831
2984.3673
2058.5104
626.48494
121.66865
13.616308
1.0513902
0.41795891
1.1187301
0.90671097
0.52685162
0.28146479
1.1442336
0.43708346
0.19159926
0.28802586
0.46480765
0.40426919
0.46606758
0.3711974
0.33037655
0.25901916
0.56194226
0.90719499
0.51054209
0.55523244
0.39634268
1.5119981
2.5190924
0.953414
1.2487305
0.82309528
0.79392143
0.62760621
0.49777755
0.45324432
0.79501682
0.58009373
0.93921559
0.75456026
0.66968863
0.85672279
0.8389418
0.90982922
0.74483385
0.73404163
0.7198587
1.4562271
1.0342516
0.91496792
1.1457838
1.053451
0.90983212
1.0562677
1.6866191
1.9881916
2.397993
2.4329898
2.750139
2.2795899
1.6827155
2.0382492
8.5784096
3.387212
2.0465422
1.1977785
0.95309927
1.4758428
0.92762025
1.0317525
1.7786233
1.4580738
0.93639713
0.9385621
1.2935366
4153.3517
3173.0445
794.77499
147.56331
18.30876
1.6885573
0.50240442
0.3975939
1.5443248
1.1555801
0.5436578
0.312377
1.2429542
0.41433642
0.19842963
0.27902775
0.45378187
0.42784216
0.4973642
0.38137562
0.26896506
0.25260953
0.49421885
0.77771766
0.56948904
0.55889741
0.41261817
1.2774066
2.4481204
0.817305
1.0709175
0.88823915
0.84332613
0.63510503
0.49920908
0.4505124
0.84699918
0.67506014
1.4334279
0.88295005
0.75498247
0.86942449
0.94360835
0.85052758
0.81610585
0.74745905
0.77662607
1.2678553
0.99998847
0.95156588
0.98498517
1.1108029
1.0966725
1.2400413
2.5959007
1.8592596
2.072875
2.5142579
4.6610045
2.465107
1.562561
2.587814
20.150151
5.5275771
2.377599
1.2021485
0.97972877
1.5050925
1.0696118
1.1103987
1.8274938
1.3340383
0.90700118
0.90705685
1.2913195
7743.4496
1538.6227
169.49499
20.941282
2.3133715
0.51258604
0.52479682
0.52425279
1.5507263
1.4407308
0.5772848
0.3435516
1.2622881
0.37973626
0.21007949
0.27510502
0.44665646
0.44128013
0.53797047
0.4169289
0.2548132
0.25065095
0.43804281
0.66269355
0.63820535
0.57567744
0.42511969
1.1549031
1.9240406
0.81344238
1.0747079
1.0160939
0.89864929
0.64591589
0.49658044
0.45937267
0.91766823
0.69102974
1.1440153
0.83503313
0.78995013
0.86081983
0.98218803
0.91709267
0.87637768
0.75906598
0.81913181
1.026899
1.0945037
1.2544198
0.93104554
1.3959242
1.4785385
1.4270563
3.2127568
1.9297423
1.4076023
1.5379505
4.1798017
2.4118663
1.8123998
4.1175411
23.877253
12.431476
3.5512532
1.637563
1.2118223
1.3540448
1.2134739
1.0789858
1.5190752
1.0724188
0.89817783
0.90644257
1.3040155
1471.3478
241.19574
19.429354
2.4316293
0.50909669
0.43251081
0.62492705
0.5748328
1.3694769
1.751106
0.65712326
0.37049501
1.1552368
0.34820749
0.22428519
0.27395567
0.43695618
0.44349553
0.58836792
0.48922184
0.25433791
0.25345744
0.39702222
0.56600079
0.71353882
0.55511142
0.45769608
1.2498275
3.2159267
0.84996101
1.0684047
1.1899641
0.91439399
0.74393565
0.50297851
0.47475566
0.96211901
0.69031588
0.64848067
0.67126089
0.64710664
0.75103521
0.96468748
0.98499228
0.8436994
0.68693323
0.83980913
1.3226554
1.1310763
1.3852844
1.1340612
1.6467291
1.9257012
1.5100211
3.1743788
2.2398997
1.2393478
1.1770278
3.0286558
2.1395844
2.0656156
5.1787864
28.336435
23.088577
6.9904215
2.4520406
1.2150312
1.3233014
1.2535651
0.99060005
1.3999875
1.003363
0.92189035
0.94935147
1.306689
99.13613
21.760288
1.7371774
0.43034178
0.32797909
0.47651594
0.68272782
0.58240945
1.4754021
1.7859305
0.71378404
0.38891478
0.82974409
0.32125323
0.24458495
0.27850834
0.43289148
0.43832396
0.62806187
0.64955618
0.25966423
0.25305442
0.39310925
0.55362485
0.80623351
0.56337981
0.51330215
0.71862403
3.1332246
0.84025468
1.0916516
1.3301891
0.81599423
0.80098849
0.51117344
0.49160778
0.92370411
0.68917242
0.64210887
0.64018872
0.77857409
1.0730562
0.99498954
1.0983914
0.83518155
0.69619766
0.83114017
1.2277528
0.8989464
1.2648371
1.2226738
1.1548797
1.5843988
1.4996426
1.9056023
2.3986873
1.4451676
1.2435063
2.0148126
1.6972698
1.7065053
4.7954781
20.531834
28.950099
11.742695
5.020643
1.25306
1.2530611
1.0956639
0.84963617
1.4026378
0.97036479
0.96330622
1.0390612
1.2332432
3.430598
1.3596024
0.26541467
0.23985763
0.32428421
0.51109647
0.69488686
0.57838876
1.8228412
1.299359
0.714854
0.3917507
0.48120966
0.29904731
0.26965011
0.28872949
0.43059489
0.43288939
0.64400928
0.78242598
0.27495329
0.24679096
0.36832843
0.57760043
0.89689501
0.58200749
0.6161874
0.50425848
0.89004473
0.76631382
2.4199656
1.4689765
0.69025198
0.77973583
0.51226722
0.536358
0.76977849
0.69443426
0.7820024
0.66909179
0.98062092
0.96252541
1.2168039
1.2920663
0.96171385
0.80707616
0.81623238
0.88899441
0.81905462
0.89313779
0.82549526
0.88435809
0.85209862
1.2551976
1.614073
2.1542873
2.0593324
1.3867472
1.8493222
1.4607435
1.5355867
8.3871924
13.251569
6.9675468
10.657821
5.5917268
1.5332689
1.1284485
1.0002396
0.80122931
0.95037924
0.91489539
0.98536249
1.1273444
1.1217224
0.61557108
0.31129396
0.16538361
0.22762837
0.34161968
0.53935459
0.6827314
0.52245903
1.7853398
0.76219662
0.67838108
0.38588578
0.33179514
0.28447563
0.29832854
0.30547655
0.42442004
0.43498134
0.64121494
0.79794307
0.30159307
0.24707285
0.39717561
1.1340239
1.0352705
0.58444523
0.7809101
0.53451042
0.61561183
0.93344573
2.6955633
1.3545807
0.57895252
0.68420554
0.53282815
0.6702229
0.68245042
0.78511554
0.88248662
0.74893836
0.67596841
1.2184732
1.5202869
1.3671229
1.0111184
0.87772715
0.82913012
0.82542943
0.81186511
0.78637426
0.74650586
0.86058921
0.77989862
1.0632567
1.417033
1.8900386
1.9575094
1.3146969
1.668198
1.4635772
1.7393528
9.2285015
5.1761761
4.2760051
8.8811263
3.1268075
2.3056888
1.1383017
1.0563081
0.8382018
0.89713821
0.9098754
1.0497993
1.153864
0.89337049
0.56558588
0.26699613
0.16133981
0.23201555
0.35845902
0.56221118
0.63453455
0.47028875
1.0205667
0.62641103
0.64094303
0.38556053