/*--------------------------------*- C++ -*----------------------------------*\
| =========                 |                                                 |
| \\      /  F ield         | OpenFOAM: The Open Source CFD Toolbox           |
|  \\    /   O peration     | Version:  2.3.0                                 |
|   \\  /    A nd           | Web:      www.OpenFOAM.org                      |
|    \\/     M anipulation  |                                                 |
\*---------------------------------------------------------------------------*/
FoamFile
{
    version     2.0;
    format      ascii;
    class       volScalarField;
    location    "4e-05";
    object      nuSgs;
}
// * * * * * * * * * * * * * * * * * * * * * * * * * * * * * * * * * * * * * //

dimensions      [0 2 -1 0 0 0 0];

internalField   nonuniform List<scalar> 
7500
(
4.1405484e-10
4.1898359e-10
4.2389626e-10
4.2875418e-10
4.3355402e-10
4.3832801e-10
4.4303469e-10
4.4772594e-10
4.5235824e-10
4.5694751e-10
4.6149578e-10
4.6600151e-10
4.7045966e-10
4.7487467e-10
4.7924166e-10
4.8356706e-10
4.878483e-10
4.920801e-10
4.9627376e-10
5.0041133e-10
5.0450598e-10
5.0855417e-10
5.1255713e-10
5.1651902e-10
5.2043253e-10
5.2431292e-10
5.2814154e-10
5.3192815e-10
5.3567498e-10
5.3936666e-10
5.4301703e-10
5.4662128e-10
5.5017885e-10
5.5369146e-10
5.5715766e-10
5.6058462e-10
5.6396624e-10
5.6730375e-10
5.7060212e-10
5.7964099e-10
5.8321625e-10
5.8675463e-10
5.9025974e-10
5.9373213e-10
5.9718406e-10
6.0059478e-10
6.0400529e-10
6.0736419e-10
6.1075063e-10
6.1407046e-10
6.1745645e-10
6.2075637e-10
6.2417799e-10
6.274814e-10
6.309822e-10
6.3432045e-10
6.3796147e-10
6.413612e-10
6.4519983e-10
6.486982e-10
6.5280157e-10
6.5643891e-10
6.6088283e-10
6.6470722e-10
6.6958917e-10
6.7364511e-10
6.7906168e-10
6.8340618e-10
6.8947303e-10
6.9415963e-10
7.009921e-10
7.0608308e-10
7.1380246e-10
7.1932354e-10
7.3007773e-10
4.5546285e-10
4.6090072e-10
4.6630993e-10
4.7165504e-10
4.7696557e-10
4.8222308e-10
4.8743361e-10
4.9260268e-10
4.97725e-10
5.0280248e-10
5.0783865e-10
5.1282578e-10
5.1776642e-10
5.2265857e-10
5.2750481e-10
5.3230384e-10
5.3705863e-10
5.417681e-10
5.4643692e-10
5.5105304e-10
5.5562726e-10
5.6014669e-10
5.6462319e-10
5.6904507e-10
5.7342691e-10
5.7775444e-10
5.8204639e-10
5.8628383e-10
5.9049461e-10
5.9464402e-10
5.9877346e-10
6.0283791e-10
6.068897e-10
6.1087478e-10
6.1485767e-10
6.1878266e-10
6.2273019e-10
6.2662608e-10
6.3059261e-10
6.4090236e-10
6.4537253e-10
6.4978039e-10
6.5447106e-10
6.5906141e-10
6.6411696e-10
6.6900083e-10
6.7460478e-10
6.7992838e-10
6.8632201e-10
6.922669e-10
6.9973479e-10
7.0652236e-10
7.1544057e-10
7.2331089e-10
7.3408147e-10
7.4327128e-10
7.5629519e-10
7.6699306e-10
7.8257667e-10
7.9504188e-10
8.1364725e-10
8.279965e-10
8.4979181e-10
8.6618688e-10
8.9144002e-10
9.0989666e-10
9.3871552e-10
9.5930748e-10
9.9187092e-10
1.014619e-09
1.0511028e-09
1.0759842e-09
1.1162543e-09
1.1429552e-09
1.2000686e-09
5.0107528e-10
5.0715339e-10
5.132348e-10
5.1922773e-10
5.2523429e-10
5.3114913e-10
5.3708268e-10
5.4291775e-10
5.4878626e-10
5.5453502e-10
5.6032917e-10
5.6598859e-10
5.7170304e-10
5.7727433e-10
5.8292007e-10
5.8841303e-10
5.9400193e-10
5.9941417e-10
6.0492506e-10
6.1024479e-10
6.1563643e-10
6.2084176e-10
6.2611827e-10
6.3122416e-10
6.3642106e-10
6.4146072e-10
6.466283e-10
6.5164712e-10
6.5686094e-10
6.6193331e-10
6.6731787e-10
6.7258152e-10
6.7836298e-10
6.8405097e-10
6.9061185e-10
6.9711298e-10
7.051028e-10
7.1300522e-10
7.2340642e-10
7.4089276e-10
7.555094e-10
7.6933974e-10
7.892328e-10
8.0742215e-10
8.3434183e-10
8.5804897e-10
8.9372805e-10
9.2405608e-10
9.7005419e-10
1.0079161e-09
1.0652994e-09
1.1114657e-09
1.1813465e-09
1.236206e-09
1.3191804e-09
1.3825139e-09
1.4782545e-09
1.5493447e-09
1.6569332e-09
1.7358534e-09
1.8554282e-09
1.9412176e-09
2.0713683e-09
2.1637256e-09
2.3038292e-09
2.4016865e-09
2.5506631e-09
2.6538435e-09
2.811003e-09
2.9192101e-09
3.085327e-09
3.1978646e-09
3.3710098e-09
3.4864504e-09
3.7217493e-09
5.5185405e-10
5.5916218e-10
5.6717618e-10
5.744145e-10
5.8231386e-10
5.8944143e-10
5.9714516e-10
6.0412696e-10
6.1161996e-10
6.1844544e-10
6.2570477e-10
6.323822e-10
6.3945299e-10
6.4606407e-10
6.5312025e-10
6.5968368e-10
6.6672917e-10
6.7327507e-10
6.8019218e-10
6.8658656e-10
6.9334782e-10
6.9967247e-10
7.0647611e-10
7.129693e-10
7.2017173e-10
7.2725648e-10
7.3560069e-10
7.4409351e-10
7.5500862e-10
7.6641278e-10
7.8250705e-10
7.9928043e-10
8.2458331e-10
8.5014781e-10
8.8996553e-10
9.2856153e-10
9.8925543e-10
1.0452352e-09
1.1330281e-09
1.2218111e-09
1.3426441e-09
1.4437351e-09
1.5990698e-09
1.7242104e-09
1.9154048e-09
2.0647754e-09
2.2924048e-09
2.4658263e-09
2.7296718e-09
2.926795e-09
3.2257019e-09
3.4467875e-09
3.7809281e-09
4.0257906e-09
4.3950818e-09
4.6611917e-09
5.061624e-09
5.3456765e-09
5.7741681e-09
6.0766252e-09
6.5320608e-09
6.8499181e-09
7.3285668e-09
7.6606634e-09
8.1594618e-09
8.50212e-09
9.018007e-09
9.3708929e-09
9.8995616e-09
1.0262791e-08
1.0809219e-08
1.1179473e-08
1.1736366e-08
1.2109661e-08
1.2847836e-08
5.9949241e-10
6.1129543e-10
6.2232724e-10
6.3374314e-10
6.4393897e-10
6.5505119e-10
6.6472841e-10
6.7540833e-10
6.8471442e-10
6.9507605e-10
7.0400171e-10
7.140178e-10
7.2283241e-10
7.3257421e-10
7.4132495e-10
7.5032428e-10
7.5898975e-10
7.6792456e-10
7.7696097e-10
7.8611457e-10
7.9635279e-10
8.0720962e-10
8.2113102e-10
8.3713737e-10
8.6036318e-10
8.8792571e-10
9.3144394e-10
9.8096625e-10
1.0615545e-09
1.1459722e-09
1.2825974e-09
1.4131399e-09
1.6201122e-09
1.8037242e-09
2.0903687e-09
2.3318444e-09
2.706271e-09
3.0092822e-09
3.4775935e-09
3.8428379e-09
4.4066329e-09
4.8353749e-09
5.4970776e-09
5.9893155e-09
6.7484026e-09
7.3033614e-09
8.1597349e-09
8.7756067e-09
9.7263145e-09
1.0400928e-08
1.1441858e-08
1.2174895e-08
1.3302491e-08
1.4094107e-08
1.5306886e-08
1.6147662e-08
1.7428796e-08
1.8307749e-08
1.9650803e-08
2.056834e-08
2.196312e-08
2.2912187e-08
2.4351846e-08
2.5326647e-08
2.6797475e-08
2.7787263e-08
2.9283473e-08
3.0285524e-08
3.1788647e-08
3.2807644e-08
3.4334794e-08
3.5358903e-08
3.6891817e-08
3.7909732e-08
3.988884e-08
6.3283336e-10
6.4736977e-10
6.588177e-10
6.7310898e-10
6.8436757e-10
6.9856965e-10
7.0977405e-10
7.2383664e-10
7.3492088e-10
7.4886871e-10
7.5968959e-10
7.733739e-10
7.8412098e-10
7.9769095e-10
8.0913643e-10
8.2406681e-10
8.3731988e-10
8.5511717e-10
8.7475656e-10
9.0352065e-10
9.4268334e-10
1.0006126e-09
1.0918122e-09
1.2081863e-09
1.3954442e-09
1.600814e-09
1.9257026e-09
2.2414481e-09
2.7353303e-09
3.1759542e-09
3.864649e-09
4.4399528e-09
5.3380727e-09
6.0561782e-09
7.1800992e-09
8.049572e-09
9.4172686e-09
1.0446634e-08
1.2067283e-08
1.3255288e-08
1.512976e-08
1.6477096e-08
1.8604008e-08
2.0106819e-08
2.2473719e-08
2.4125459e-08
2.6723367e-08
2.8514494e-08
3.1327321e-08
3.3246611e-08
3.6261125e-08
3.8301828e-08
4.1497787e-08
4.3661737e-08
4.7028553e-08
4.928859e-08
5.2772965e-08
5.5097965e-08
5.8690575e-08
6.1078257e-08
6.4738245e-08
6.7178974e-08
7.0901391e-08
7.3374237e-08
7.7112121e-08
7.9593947e-08
8.3347109e-08
8.5823217e-08
8.9536602e-08
9.2030993e-08
9.5741749e-08
9.822754e-08
1.019152e-07
1.0435733e-07
1.0897956e-07
6.5630602e-10
6.6610888e-10
6.7608444e-10
6.8643059e-10
6.9739058e-10
7.0853009e-10
7.2108291e-10
7.3315018e-10
7.4715487e-10
7.6089153e-10
7.7601626e-10
7.9204691e-10
8.0990543e-10
8.306815e-10
8.5729917e-10
8.9400243e-10
9.503603e-10
1.0380949e-09
1.1725045e-09
1.3891357e-09
1.6703208e-09
2.0854365e-09
2.6167328e-09
3.241385e-09
4.1320211e-09
4.9930091e-09
6.3014643e-09
7.4421512e-09
9.2243763e-09
1.068631e-08
1.3002364e-08
1.4802049e-08
1.7667163e-08
1.9817895e-08
2.3255902e-08
2.5763163e-08
2.9797167e-08
3.2668097e-08
3.728308e-08
4.0501577e-08
4.5684698e-08
4.9236547e-08
5.4955185e-08
5.881922e-08
6.5015498e-08
6.9163786e-08
7.578769e-08
8.0192736e-08
8.719391e-08
9.1821321e-08
9.9171008e-08
1.0399313e-07
1.1163489e-07
1.1666128e-07
1.2455491e-07
1.2972631e-07
1.3774349e-07
1.4298881e-07
1.5112161e-07
1.5643272e-07
1.6458512e-07
1.6997008e-07
1.7816435e-07
1.8356521e-07
1.9167406e-07
1.9705957e-07
2.0511555e-07
2.1043189e-07
2.1831421e-07
2.2365372e-07
2.3138991e-07
2.3670822e-07
2.4435724e-07
2.4950402e-07
2.5889378e-07
6.7462266e-10
6.8858951e-10
7.0126984e-10
7.178068e-10
7.317567e-10
7.4973114e-10
7.6466773e-10
7.8128861e-10
7.9715918e-10
8.1395098e-10
8.3476674e-10
8.6471008e-10
9.1334785e-10
9.9672143e-10
1.139336e-09
1.3699579e-09
1.7331944e-09
2.2456697e-09
2.9435436e-09
3.9772974e-09
5.0924462e-09
6.8173554e-09
8.4416459e-09
1.0858505e-08
1.3355445e-08
1.6291918e-08
2.0095427e-08
2.3525686e-08
2.8648065e-08
3.2761797e-08
3.9191262e-08
4.3989805e-08
5.1681565e-08
5.7167307e-08
6.606242e-08
7.2248964e-08
8.2353998e-08
8.9214112e-08
1.0039105e-07
1.078761e-07
1.2007533e-07
1.2812289e-07
1.4122448e-07
1.4977597e-07
1.6363083e-07
1.726126e-07
1.8705878e-07
1.9643881e-07
2.1139663e-07
2.2111687e-07
2.3655888e-07
2.4655442e-07
2.6240269e-07
2.7270034e-07
2.8883417e-07
2.9933215e-07
3.155097e-07
3.2610503e-07
3.4236608e-07
3.5306203e-07
3.6931487e-07
3.8020785e-07
3.9654341e-07
4.0746747e-07
4.2355506e-07
4.3448486e-07
4.503712e-07
4.6114693e-07
4.7673974e-07
4.8748663e-07
5.0260956e-07
5.135019e-07
5.2847732e-07
5.3917802e-07
5.5807141e-07
6.8838177e-10
7.0649385e-10
7.2410922e-10
7.4215612e-10
7.6626019e-10
7.8390201e-10
8.0741306e-10
8.3294771e-10
8.7118301e-10
9.3115624e-10
1.0372886e-09
1.2214207e-09
1.5330029e-09
2.0224e-09
2.7510673e-09
3.7631593e-09
5.271778e-09
7.0604609e-09
9.471076e-09
1.2809452e-08
1.6158533e-08
2.1395405e-08
2.590488e-08
3.3215616e-08
3.9067198e-08
4.8693684e-08
5.5968494e-08
6.7291233e-08
7.7449008e-08
8.9484052e-08
1.030691e-07
1.1540538e-07
1.3225816e-07
1.4475702e-07
1.6436854e-07
1.7780864e-07
1.9953229e-07
2.1386628e-07
2.3722513e-07
2.5251054e-07
2.7742743e-07
2.9355643e-07
3.1978506e-07
3.3664382e-07
3.639366e-07
3.8142306e-07
4.0948892e-07
4.2773304e-07
4.5667294e-07
4.7564069e-07
5.0540282e-07
5.2493182e-07
5.5547264e-07
5.7554037e-07
6.06496e-07
6.2710533e-07
6.5837932e-07
6.7967889e-07
7.1171096e-07
7.3366771e-07
7.6648828e-07
7.8923595e-07
8.2252088e-07
8.4538976e-07
8.7811117e-07
9.0122363e-07
9.3309467e-07
9.5597893e-07
9.8785591e-07
1.0109252e-06
1.0428462e-06
1.0675916e-06
1.1013048e-06
1.1277912e-06
1.1744659e-06
7.0073559e-10
7.435643e-10
7.6623695e-10
8.0613963e-10
8.2744118e-10
8.6424114e-10
9.0258901e-10
9.7662901e-10
1.1264301e-09
1.4223923e-09
1.9446278e-09
2.7774137e-09
4.008415e-09
5.7852105e-09
8.2423698e-09
1.1450751e-08
1.6318488e-08
2.1331529e-08
2.9007023e-08
3.6866042e-08
4.6483994e-08
5.9622851e-08
7.0884635e-08
8.8795292e-08
1.0238575e-07
1.249108e-07
1.4090892e-07
1.6782075e-07
1.8613179e-07
2.1701085e-07
2.3751108e-07
2.7184694e-07
2.9475038e-07
3.2923825e-07
3.5956207e-07
3.9122922e-07
4.2869366e-07
4.5817278e-07
5.0093477e-07
5.3054619e-07
5.7698258e-07
6.0774566e-07
6.5650038e-07
6.8834493e-07
7.3920792e-07
7.7291006e-07
8.2658956e-07
8.62814e-07
9.1961414e-07
9.5789653e-07
1.0162685e-06
1.0560806e-06
1.1159879e-06
1.1569461e-06
1.2194814e-06
1.2645686e-06
1.3321786e-06
1.3816956e-06
1.4545139e-06
1.5056414e-06
1.5802718e-06
1.6326274e-06
1.7061081e-06
1.7582055e-06
1.8304586e-06
1.8831844e-06
1.9522364e-06
2.0070218e-06
2.0835623e-06
2.1456949e-06
2.2411269e-06
2.3176666e-06
2.42625e-06
2.5083249e-06
2.648295e-06
7.0025696e-10
7.2560415e-10
7.4936051e-10
7.8963732e-10
8.3509839e-10
9.3050223e-10
1.131029e-09
1.5532954e-09
2.3097609e-09
3.534586e-09
5.3760459e-09
8.0636052e-09
1.177763e-08
1.7159396e-08
2.4228523e-08
3.2952651e-08
4.6100896e-08
5.8438517e-08
7.8512143e-08
9.5078257e-08
1.2266152e-07
1.4447381e-07
1.7481928e-07
2.087577e-07
2.3917103e-07
2.836956e-07
3.1555032e-07
3.6802062e-07
4.0257842e-07
4.6070259e-07
4.9863593e-07
5.620977e-07
6.0338665e-07
6.7225337e-07
7.1673908e-07
7.9078201e-07
8.392633e-07
9.1573587e-07
9.761914e-07
1.0508116e-06
1.1255306e-06
1.1942882e-06
1.2817095e-06
1.3466797e-06
1.4499443e-06
1.524435e-06
1.6419174e-06
1.7228242e-06
1.846203e-06
1.9307777e-06
2.052214e-06
2.1437374e-06
2.2635243e-06
2.3631291e-06
2.531641e-06
2.6566299e-06
2.8367524e-06
2.974644e-06
3.1632228e-06
3.2813016e-06
3.467935e-06
3.5893938e-06
3.7701625e-06
3.8978541e-06
4.0908484e-06
4.2234354e-06
4.4145109e-06
4.5653776e-06
4.8957634e-06
5.1039989e-06
5.5840151e-06
5.8034723e-06
6.187141e-06
6.3802782e-06
6.7452747e-06
7.3556493e-10
7.7450999e-10
8.1270769e-10
8.7480841e-10
1.0319669e-09
1.442612e-09
2.3046821e-09
3.8267518e-09
6.2375834e-09
9.8427456e-09
1.5064207e-08
2.2575913e-08
3.2458966e-08
4.8007599e-08
6.398742e-08
8.7074484e-08
1.1579547e-07
1.4432644e-07
1.8739437e-07
2.221984e-07
2.7929909e-07
3.1990424e-07
3.885903e-07
4.3545898e-07
5.1270174e-07
5.72516e-07
6.4527203e-07
7.3081153e-07
7.9515537e-07
8.974052e-07
9.6739277e-07
1.0820876e-06
1.1603404e-06
1.2872435e-06
1.37288e-06
1.5148031e-06
1.6148608e-06
1.7768284e-06
1.8897348e-06
2.0680021e-06
2.1952996e-06
2.3665195e-06
2.5246454e-06
2.6964343e-06
2.9780861e-06
3.1615704e-06
3.4639057e-06
3.6444886e-06
3.9360217e-06
4.1288207e-06
4.4225594e-06
4.6331354e-06
4.9370998e-06
5.2970751e-06
6.011429e-06
6.3125179e-06
6.7359053e-06
7.18437e-06
7.3932505e-06
7.6965832e-06
8.284512e-06
8.52897e-06
9.0941978e-06
9.3996286e-06
9.9492923e-06
1.0286026e-05
1.0841964e-05
1.121558e-05
1.2017679e-05
1.2191169e-05
1.2824679e-05
1.3018691e-05
1.3502726e-05
1.3779212e-05
1.4259577e-05
7.5805012e-10
8.1704663e-10
9.1774866e-10
1.1931903e-09
1.9326483e-09
3.4848422e-09
6.1805252e-09
1.050864e-08
1.6999702e-08
2.6412022e-08
3.9867616e-08
5.9360892e-08
8.2431441e-08
1.2003579e-07
1.5379382e-07
2.1112322e-07
2.5628175e-07
3.2874622e-07
3.9477062e-07
4.7350944e-07
5.6810893e-07
6.463257e-07
7.6529405e-07
8.5048715e-07
9.901936e-07
1.084955e-06
1.2355553e-06
1.3654035e-06
1.5050844e-06
1.6755867e-06
1.8334748e-06
2.0574708e-06
2.2208114e-06
2.475758e-06
2.655501e-06
2.9919888e-06
3.2282764e-06
3.6058131e-06
3.8631878e-06
4.2905775e-06
4.5636899e-06
4.9786874e-06
5.3957556e-06
6.0443992e-06
6.9076536e-06
7.172988e-06
7.9763073e-06
8.3009385e-06
9.0879194e-06
9.5184937e-06
1.0261702e-05
1.0765991e-05
1.1695351e-05
1.1996987e-05
1.2792673e-05
1.3013089e-05
1.350347e-05
1.4490565e-05
1.3950928e-05
1.4416277e-05
1.4392723e-05
1.4506557e-05
1.508379e-05
1.4797745e-05
1.4566123e-05
1.4395602e-05
1.3704287e-05
1.4079041e-05
1.3950006e-05
1.3921068e-05
1.3526586e-05
1.3318431e-05
1.2694473e-05
1.2800941e-05
1.2191966e-05
7.4627865e-10
8.7461364e-10
1.2338856e-09
2.3760682e-09
4.8198166e-09
9.2260309e-09
1.6340574e-08
2.7316848e-08
4.3207314e-08
6.5774196e-08
9.828208e-08
1.4162753e-07
1.9155184e-07
2.6977002e-07
3.3440987e-07
4.4493515e-07
5.266138e-07
6.6745491e-07
7.6638788e-07
9.3636092e-07
1.053786e-06
1.2434265e-06
1.4054727e-06
1.595311e-06
1.8298121e-06
2.0204199e-06
2.3142567e-06
2.5653212e-06
2.8489124e-06
3.2416062e-06
3.6586663e-06
4.0784258e-06
4.4834618e-06
5.0550292e-06
5.4615964e-06
6.6139728e-06
7.0598207e-06
7.9556308e-06
8.5396867e-06
9.6917617e-06
1.0144628e-05
1.1364045e-05
1.1763287e-05
1.2656235e-05
1.347842e-05
1.3729858e-05
1.4467308e-05
1.418038e-05
1.4987177e-05
1.445421e-05
1.4905377e-05
1.4607458e-05
1.4269266e-05
1.3397762e-05
1.2525094e-05
1.2450062e-05
1.2161695e-05
1.1338145e-05
1.0190128e-05
1.0271331e-05
8.7347616e-06
9.2256467e-06
7.7380469e-06
7.6709082e-06
7.3540703e-06
7.1474608e-06
6.6428827e-06
6.9327818e-06
5.5886011e-06
5.6838721e-06
4.7311987e-06
4.679988e-06
4.289369e-06
4.2119979e-06
3.5301836e-06
7.0605168e-10
1.0521552e-09
2.4723302e-09
5.9401872e-09
1.2472142e-08
2.3450388e-08
4.0480994e-08
6.6060836e-08
1.0169497e-07
1.5206812e-07
2.2748559e-07
3.0251039e-07
4.1286565e-07
5.431379e-07
6.6552798e-07
8.58483e-07
1.0007622e-06
1.2457302e-06
1.4193592e-06
1.7182635e-06
1.9378035e-06
2.3091719e-06
2.5725542e-06
3.0385179e-06
3.4299794e-06
3.9231713e-06
4.5460543e-06
5.0552137e-06
5.8747111e-06
6.993519e-06
7.8426912e-06
8.6858483e-06
9.871307e-06
1.0884508e-05
1.1698315e-05
1.3226595e-05
1.3303139e-05
1.3738542e-05
1.4357356e-05
1.4724957e-05
1.4355273e-05
1.4446159e-05
1.3485521e-05
1.3211515e-05
1.2059066e-05
1.2438965e-05
1.0096275e-05
9.4425489e-06
8.5347114e-06
7.3458158e-06
8.4169169e-06
6.4539668e-06
5.9436236e-06
4.9143816e-06
4.2974197e-06
4.5967804e-06
4.030671e-06
2.8444137e-06
2.9310601e-06
2.8847109e-06
2.3887601e-06
2.9476397e-06
2.4794331e-06
2.2658119e-06
2.2976511e-06
2.3178337e-06
2.8655203e-06
2.4721257e-06
1.7540348e-06
2.0190219e-06
1.6366167e-06
1.6886175e-06
1.5630649e-06
1.3328108e-06
9.9827384e-07
6.6722905e-10
1.9393844e-09
6.1811232e-09
1.4975159e-08
3.0698014e-08
5.5796616e-08
9.3251493e-08
1.487864e-07
2.2166743e-07
3.2951949e-07
4.623301e-07
6.0446337e-07
8.2119049e-07
9.9487595e-07
1.2680996e-06
1.5460232e-06
1.8257925e-06
2.269086e-06
2.5892867e-06
3.1845829e-06
3.6358105e-06
4.4010064e-06
4.9497008e-06
6.1952082e-06
7.0041955e-06
8.3288083e-06
9.5851791e-06
1.0784043e-05
1.1876196e-05
1.3019411e-05
1.3363816e-05
1.4015434e-05
1.4440013e-05
1.3822414e-05
1.3872652e-05
1.2439864e-05
1.1677087e-05
1.0039583e-05
9.4690086e-06
7.6282724e-06
7.7583182e-06
6.2246275e-06
5.9846333e-06
4.9497556e-06
4.9575194e-06
4.6076841e-06
2.688871e-06
3.1632865e-06
2.5566387e-06
2.3480534e-06
2.5588042e-06
1.6789696e-06
1.5064776e-06
1.3958657e-06
1.4385367e-06
1.5084582e-06
1.1974782e-06
9.1855917e-07
1.0757789e-06
1.0225252e-06
1.0388912e-06
1.2341407e-06
1.1183297e-06
1.2228505e-06
1.1715504e-06
1.0995374e-06
1.687079e-06
1.0890411e-06
1.4090769e-06
1.2316217e-06
9.256859e-07
9.4639235e-07
7.9534907e-07
6.3515378e-07
5.9090056e-07
6.5695126e-10
4.8606641e-09
1.544615e-08
3.589537e-08
7.0662398e-08
1.2363431e-07
1.9960255e-07
3.1401195e-07
4.4715666e-07
6.6479222e-07
8.5656782e-07
1.1524084e-06
1.4626874e-06
1.800987e-06
2.3240542e-06
2.7378782e-06
3.434813e-06
4.1913852e-06
4.8774817e-06
6.3395365e-06
7.3354796e-06
9.0461702e-06
1.0143015e-05
1.206453e-05
1.2514915e-05
1.371625e-05
1.414038e-05
1.3696918e-05
1.2893175e-05
1.1894043e-05
1.002122e-05
9.4960718e-06
7.3985597e-06
7.2349482e-06
6.1846578e-06
3.9479839e-06
3.8387719e-06
3.3098379e-06
2.9186118e-06
2.1340375e-06
2.373248e-06
1.7137848e-06
1.979871e-06
2.234445e-06
2.4815415e-06
1.519004e-06
8.6644177e-07
1.7724146e-06
1.0309304e-06
1.3302345e-06
1.2466207e-06
7.8429151e-07
7.2091943e-07
6.8796332e-07
7.7139949e-07
8.9078767e-07
7.4600824e-07
7.6569276e-07
9.1203692e-07
9.1104059e-07
9.3459461e-07
8.5497007e-07
9.232708e-07
1.2103821e-06
8.9899295e-07
7.4228516e-07
1.1030078e-06
9.1900733e-07
1.3448246e-06
7.2176563e-07
7.1316062e-07
7.2110834e-07
6.5773209e-07
5.9622624e-07
5.965729e-07
1.0093281e-09
1.2199274e-08
3.664107e-08
8.0969788e-08
1.5190522e-07
2.5522709e-07
3.9779092e-07
6.0748717e-07
8.4177031e-07
1.2105534e-06
1.5441998e-06
2.0767564e-06
2.5630285e-06
3.3466693e-06
4.2274165e-06
5.1214541e-06
6.8791293e-06
8.2242197e-06
9.8849992e-06
1.1941804e-05
1.2546075e-05
1.3681374e-05
1.3589909e-05
1.2919259e-05
1.1818155e-05
9.865554e-06
8.2640098e-06
6.3491445e-06
5.5389012e-06
3.9654247e-06
3.3812605e-06
3.3139524e-06
2.2150536e-06
2.5212312e-06
1.6174214e-06
9.7920335e-07
1.1200417e-06
1.3200224e-06
1.0265764e-06
6.9851365e-07
7.911097e-07
6.250591e-07
9.2004962e-07
1.2629893e-06
1.3156443e-06
6.8803235e-07
6.2223193e-07
1.1432481e-06
8.5398284e-07
9.5795493e-07
1.0981935e-06
7.5933817e-07
6.7176128e-07
6.4958273e-07
6.5136386e-07
6.8861698e-07
6.7147259e-07
8.0475499e-07
1.1050376e-06
1.180509e-06
1.1351581e-06
9.2925985e-07
1.0443947e-06
1.0247106e-06
7.2814997e-07
6.5151252e-07
7.7102753e-07
8.3656789e-07
7.0808428e-07
6.3561544e-07
6.5215816e-07
6.5700148e-07
6.2074774e-07
6.204166e-07
6.4146261e-07
4.1443972e-10
2.8674428e-08
8.1413855e-08
1.7074806e-07
3.0498354e-07
4.9279452e-07
7.4355302e-07
1.0977487e-06
1.5173961e-06
2.1264454e-06
2.7475759e-06
3.7037952e-06
4.7243161e-06
6.5118173e-06
8.1947789e-06
1.0362726e-05
1.193223e-05
1.2758795e-05
1.3383435e-05
1.2733948e-05
1.0975091e-05
8.8396754e-06
7.019469e-06
5.3100488e-06
4.9049869e-06
3.2280587e-06
2.4033321e-06
1.8112586e-06
1.8460442e-06
1.0915858e-06
1.3153555e-06
1.1418716e-06
1.0808567e-06
1.0628767e-06
5.887166e-07
4.1002235e-07
5.4775732e-07
5.9266791e-07
5.2077793e-07
4.6190833e-07
4.340809e-07
5.5284906e-07
8.5328356e-07
1.0380774e-06
1.8684203e-06
5.5473526e-07
5.9172744e-07
9.0492806e-07
8.0007686e-07
8.029087e-07
7.8092797e-07
6.6878865e-07
6.6803064e-07
7.8861273e-07
7.6608131e-07
6.8011859e-07
6.8766061e-07
8.6303713e-07
1.0271473e-06
1.0852183e-06
8.7319095e-07
8.0246523e-07
8.5180934e-07
8.0673862e-07
8.7930171e-07
6.9113983e-07
6.8790253e-07
6.9789344e-07
6.5869426e-07
6.8064241e-07
6.7393375e-07
6.7015962e-07
6.3529088e-07
6.3838707e-07
6.5945208e-07
5.5373912e-09
6.511802e-08
1.7060627e-07
3.370785e-07
5.7308928e-07
8.9498057e-07
1.3213255e-06
1.9207024e-06
2.7125633e-06
3.7451598e-06
5.0327318e-06
7.0837057e-06
9.3629368e-06
1.1424484e-05
1.2726425e-05
1.2987867e-05
1.1873986e-05
9.8996188e-06
7.6282047e-06
5.2156196e-06
4.1236084e-06
2.8810566e-06
2.1238295e-06
1.7999748e-06
2.1129442e-06
9.8654371e-07
9.0039504e-07
7.1883574e-07
5.9235961e-07
4.3083313e-07
7.1306225e-07
6.8017777e-07
6.9888009e-07
7.4700693e-07
4.5705764e-07
3.5999467e-07
5.2266654e-07
5.0736331e-07
3.6161775e-07
4.3045797e-07
3.8776502e-07
6.9350886e-07
7.4180643e-07
8.4059089e-07
9.0829952e-07
5.412912e-07
5.086325e-07
8.421547e-07
8.5997119e-07
8.3389267e-07
7.8927994e-07
6.5112842e-07
7.0390159e-07
9.1574303e-07
9.0768405e-07
7.9769058e-07
7.9087746e-07
8.4211742e-07
1.0544781e-06
9.1706305e-07
7.7071638e-07
8.4751214e-07
8.0766656e-07
7.9627658e-07
1.0027191e-06
6.6093056e-07
7.5197666e-07
6.111312e-07
6.6045934e-07
6.5934968e-07
6.7202614e-07
6.8258714e-07
7.0817129e-07
6.8937641e-07
6.7602616e-07
1.833395e-08
1.3957161e-07
3.3679652e-07
6.245048e-07
1.0158157e-06
1.5471406e-06
2.2915527e-06
3.4046993e-06
4.8923598e-06
7.0479357e-06
9.9109493e-06
1.1526262e-05
1.2336536e-05
1.1824707e-05
9.8076882e-06
6.8214726e-06
4.9737396e-06
3.9860178e-06
2.4117046e-06
1.5672757e-06
1.4076803e-06
8.430897e-07
6.0386516e-07
7.0958725e-07
7.3935089e-07
4.5083793e-07
4.8929543e-07
5.1787878e-07
4.4349619e-07
4.4126054e-07
5.3842727e-07
4.61391e-07
8.8547448e-07
5.0924062e-07
3.7968957e-07
3.5826904e-07
5.7810268e-07
4.5956742e-07
2.9696537e-07
3.8030657e-07
4.2820636e-07
6.40499e-07
8.6040807e-07
1.148978e-06
8.9505428e-07
5.5341747e-07
4.918259e-07
8.5872474e-07
8.0470637e-07
9.2237349e-07
8.1709326e-07
6.6244583e-07
8.601329e-07
9.5983734e-07
9.3467015e-07
8.5885249e-07
8.0520781e-07
8.5180555e-07
1.2131189e-06
1.0369309e-06
8.575859e-07
9.2340012e-07
8.2452428e-07
8.5229162e-07
8.5705557e-07
5.8635028e-07
7.5761922e-07
6.0881922e-07
8.0566513e-07
8.0039061e-07
6.8985054e-07
7.2046387e-07
8.1311314e-07
7.9230083e-07
7.4614128e-07
4.9828975e-08
2.8259069e-07
6.2523149e-07
1.0915943e-06
1.7232975e-06
2.6316749e-06
4.0123902e-06
6.3027253e-06
9.4668152e-06
1.1081773e-05
1.1864937e-05
1.0795626e-05
7.2223377e-06
5.3697455e-06
3.6799402e-06
2.2723806e-06
1.8098062e-06
1.6293695e-06
7.3368628e-07
3.9957297e-07
4.4091029e-07
2.6611121e-07
3.0365345e-07
4.5856371e-07
3.9513905e-07
3.2019008e-07
4.4408969e-07
4.5273998e-07
4.2404356e-07
6.7761634e-07
5.1728633e-07
3.3988897e-07
5.630719e-07
8.1696444e-07
3.4694905e-07
3.8295758e-07
5.0034653e-07
4.0310544e-07
2.9220875e-07
3.9741897e-07
4.1229855e-07
6.847333e-07
9.5186591e-07
1.4181954e-06
1.1949223e-06
5.7808572e-07
4.7211465e-07
8.6699723e-07
8.4891333e-07
8.7260587e-07
8.766997e-07
6.635883e-07
8.6989848e-07
1.0702094e-06
9.200913e-07
8.5513515e-07
9.1995197e-07
8.8939763e-07
9.1079936e-07
9.3426854e-07
9.9554503e-07
8.678538e-07
8.0457341e-07
8.4757402e-07
6.9561245e-07
6.4327038e-07
7.1041104e-07
6.5396994e-07
8.3008936e-07
8.0219511e-07
7.5529693e-07
8.0169164e-07
8.4164508e-07
8.5569053e-07
8.0881541e-07
1.2139938e-07
5.4072592e-07
1.0962417e-06
1.8229518e-06
2.8655939e-06
4.5399054e-06
7.4755843e-06
1.0341531e-05
1.1973056e-05
1.0354755e-05
6.5712932e-06
4.7945816e-06
2.6210553e-06
2.1205303e-06
1.134447e-06
6.475616e-07
6.6222113e-07
5.7038404e-07
2.6045495e-07
1.9813188e-07
2.1031073e-07
1.7761023e-07
2.5245993e-07
3.8525146e-07
4.2835315e-07
2.8728629e-07
3.1027095e-07
4.190834e-07
4.1638303e-07
8.5306023e-07
5.3446822e-07
2.9015665e-07
3.1596196e-07
9.2611394e-07
3.4562023e-07
4.6692883e-07
4.4331965e-07
3.6424345e-07
3.0776924e-07
3.432659e-07
4.2204575e-07
7.3702089e-07
9.1360725e-07
9.6113538e-07
9.004265e-07
5.0179178e-07
4.3054012e-07
7.1862655e-07
7.3647119e-07
9.0685984e-07
8.240747e-07
6.0193437e-07
7.7157177e-07
8.0646468e-07
7.2492853e-07
8.8039942e-07
9.0988753e-07
8.4271344e-07
8.2883812e-07
9.2456038e-07
9.0292701e-07
7.3703389e-07
7.9931628e-07
8.5360463e-07
7.5052705e-07
7.8159225e-07
6.674035e-07
6.9330656e-07
7.5638579e-07
7.6587381e-07
7.858295e-07
9.8702514e-07
9.7314949e-07
9.4517542e-07
8.4564005e-07
2.7346582e-07
9.7952229e-07
1.8328359e-06
2.9631162e-06
4.8332121e-06
8.3575538e-06
1.0378274e-05
1.0354658e-05
7.6095895e-06
4.5715512e-06
2.6182385e-06
1.711651e-06
8.2922895e-07
7.4585583e-07
3.0989916e-07
2.5061133e-07
3.5546956e-07
2.3539183e-07
2.0411489e-07
1.8787782e-07
1.8259007e-07
1.6894241e-07
2.4402243e-07
4.1078043e-07
6.2556059e-07
2.7951643e-07
2.6403266e-07
4.4445394e-07
4.6287879e-07
8.5002188e-07
5.217392e-07
3.6382361e-07
3.5342654e-07
8.1833603e-07
3.5300063e-07
5.2879296e-07
4.2055909e-07
3.5658889e-07
3.2780842e-07
3.2568383e-07
3.7834813e-07
6.0792873e-07
7.2538034e-07
5.9604116e-07
6.1704853e-07
4.3024793e-07
4.2398314e-07
6.0833675e-07
6.3380499e-07
9.464957e-07
7.9596112e-07
5.8869689e-07
9.440535e-07
8.3037583e-07
6.460974e-07
8.8579824e-07
9.4426203e-07
8.9538932e-07
9.6560326e-07
9.657283e-07
8.7711907e-07
7.4735666e-07
9.2828532e-07
8.6532152e-07
9.1984906e-07
6.953246e-07
6.829356e-07
7.2704337e-07
7.021089e-07
7.7164565e-07
7.5934505e-07
1.1651129e-06
1.1156762e-06
1.0565212e-06
8.9432023e-07
5.7747347e-07
1.6897658e-06
2.9580919e-06
4.8330059e-06
8.6192753e-06
1.0505449e-05
8.7886231e-06
5.3137576e-06
3.2951486e-06
1.4997446e-06
8.8629619e-07
5.1376563e-07
2.8701313e-07
3.4495299e-07
1.4150256e-07
1.8872178e-07
2.6608566e-07
1.9156158e-07
1.9835484e-07
1.849488e-07
1.8390348e-07
1.6737979e-07
2.5312069e-07
4.4870656e-07
7.4718635e-07
2.6925349e-07
2.5751523e-07
4.1026832e-07
5.4888277e-07
7.5642934e-07
4.9244655e-07
5.4537081e-07
3.9030244e-07
6.0614722e-07
3.4389191e-07
5.3769282e-07
4.2221441e-07
3.3279571e-07
3.626901e-07
4.030184e-07
4.2198478e-07
5.194288e-07
5.4500584e-07
5.2590402e-07
5.1028361e-07
4.2360383e-07
4.2881213e-07
6.3662583e-07
6.2955313e-07
8.5375945e-07
6.7616303e-07
5.7863041e-07
5.9423857e-07
6.2047724e-07
6.0439718e-07
6.7419271e-07
9.7497971e-07
8.9439654e-07
9.5269649e-07
9.6075159e-07
8.72091e-07
8.5769575e-07
1.1592608e-06
8.4301246e-07
8.7175102e-07
7.658008e-07
7.322539e-07
7.5477028e-07
7.0549871e-07
8.6433822e-07
8.1267705e-07
1.3391783e-06
1.1984595e-06
1.1079576e-06
9.426851e-07
1.1559594e-06
2.7898371e-06
4.7124725e-06
8.2496082e-06
1.0053141e-05
7.8155435e-06
4.9793815e-06
2.3829865e-06
1.0786975e-06
4.5525772e-07
3.2906997e-07
1.9597773e-07
1.9197252e-07
2.3093643e-07
1.2391085e-07
1.7553164e-07
2.3699305e-07
1.8621041e-07
2.0037364e-07
1.8745274e-07
1.9236955e-07
1.6917035e-07
2.638886e-07
4.3539182e-07
5.8707766e-07
2.6528518e-07
2.5662489e-07
3.3019472e-07
5.0154405e-07
8.5303435e-07
4.7224613e-07
5.2699859e-07
3.5263881e-07
4.6550815e-07
3.4046553e-07
4.6021629e-07
4.3350132e-07
3.1970801e-07
4.4553959e-07
5.3284039e-07
4.6295356e-07
5.1030551e-07
5.9039645e-07
5.1733289e-07
4.5782639e-07
4.3393848e-07
4.2918254e-07
6.1947506e-07
6.0789468e-07
7.191101e-07
6.0691703e-07
5.705882e-07
5.7250121e-07
5.6083366e-07
5.9474613e-07
6.7259431e-07
8.6606603e-07
8.720046e-07
8.9093992e-07
9.507074e-07
8.466608e-07
9.3442021e-07
1.0818396e-06
9.9080112e-07
8.5545357e-07
6.3455928e-07
7.5692955e-07
7.9676252e-07
7.1230368e-07
9.1335325e-07
9.3089624e-07
1.175621e-06
1.2040042e-06
1.1121415e-06
9.638055e-07
2.2189959e-06
4.4382837e-06
7.6903069e-06
9.3276067e-06
7.0471418e-06
4.5636976e-06
2.1730126e-06
7.8820167e-07
3.4508295e-07
2.2841394e-07
1.9714301e-07
1.4457534e-07
2.0719231e-07
1.9820655e-07
1.2348413e-07
1.6651574e-07
2.2004262e-07
1.8670342e-07
2.0492761e-07
1.9119445e-07
1.8879161e-07
1.7326354e-07
2.747567e-07
4.0599266e-07
2.9663696e-07
2.6545074e-07
2.5463616e-07
3.5017699e-07
4.6374074e-07
9.1382917e-07
4.9232492e-07
4.7900305e-07
3.6531963e-07
3.7230264e-07
3.1214289e-07
3.4374597e-07
4.2745654e-07
3.2073488e-07
5.3086281e-07
5.9056478e-07
4.7110091e-07
4.8481318e-07
5.3523122e-07
4.9918913e-07
4.4774574e-07
4.4962433e-07
4.3964949e-07
6.1933124e-07
5.9620909e-07
5.9517501e-07
5.4770991e-07
5.8816977e-07
5.5723818e-07
5.6319196e-07
6.071601e-07
7.2047471e-07
8.9271499e-07
9.8288602e-07
9.5442784e-07
9.1839754e-07
8.128775e-07
9.3666724e-07
1.4543684e-06
1.2570181e-06
9.254572e-07
6.876648e-07
6.988979e-07
8.3421846e-07
7.3783902e-07
7.1517566e-07
1.009056e-06
1.0894471e-06
8.7358831e-07
9.4830498e-07
9.4458861e-07
3.8506754e-06
7.0706369e-06
9.5475902e-06
7.2760047e-06
4.4001304e-06
2.175515e-06
6.915654e-07
2.5888901e-07
2.1966754e-07
2.1550217e-07
1.8229093e-07
1.3750412e-07
2.5895315e-07
1.880931e-07
1.2411252e-07
1.6130637e-07
2.110697e-07
1.9001429e-07
2.1134614e-07
1.9255168e-07
1.9391828e-07
1.7391852e-07
2.7244327e-07
3.6786688e-07
2.5850329e-07
2.7210434e-07
2.4141794e-07
4.4907099e-07
5.025003e-07
5.8158554e-07
4.9577662e-07
4.1697442e-07
3.8102927e-07
3.4131377e-07
3.1182646e-07
3.1179514e-07
4.1716547e-07
3.4634362e-07
4.2526282e-07
4.6332177e-07
4.0374213e-07
4.9610846e-07
4.4846236e-07
4.984235e-07
4.5050398e-07
4.5719062e-07
4.5706143e-07
6.5669344e-07
5.9542088e-07
5.5579092e-07
5.5760624e-07
5.8763297e-07
5.6095935e-07
5.8480208e-07
6.6085346e-07
6.9139568e-07
1.0182374e-06
1.0199195e-06
1.2115007e-06
9.6978353e-07
8.4686171e-07
8.1484111e-07
1.4070626e-06
1.2046467e-06
9.5167294e-07
8.0326214e-07
6.8433059e-07
8.4466425e-07
7.086772e-07
7.1577461e-07
1.0234884e-06
1.0332098e-06
7.7666909e-07