/*--------------------------------*- C++ -*----------------------------------*\
| =========                 |                                                 |
| \\      /  F ield         | OpenFOAM: The Open Source CFD Toolbox           |
|  \\    /   O peration     | Version:  2.3.0                                 |
|   \\  /    A nd           | Web:      www.OpenFOAM.org                      |
|    \\/     M anipulation  |                                                 |
\*---------------------------------------------------------------------------*/
FoamFile
{
    version     2.0;
    format      ascii;
    class       surfaceScalarField;
    location    "4e-05";
    object      phi;
}
// * * * * * * * * * * * * * * * * * * * * * * * * * * * * * * * * * * * * * //

dimensions      [0 3 -1 0 0 0 0];

internalField   nonuniform List<scalar> 
14825
(
1.0343119e-09
-2.0550571e-11
1.0548315e-09
-2.0519519e-11
1.0751813e-09
-2.0349803e-11
1.0954208e-09
-2.0239527e-11
1.1159186e-09
-2.0497838e-11
1.1359923e-09
-2.0073668e-11
1.1563679e-09
-2.0375645e-11
1.1760258e-09
-1.9657876e-11
1.1962895e-09
-2.026372e-11
1.2156807e-09
-1.9391155e-11
1.235826e-09
-2.0145294e-11
1.2549409e-09
-1.911496e-11
1.2747944e-09
-1.9853457e-11
1.2936911e-09
-1.8896661e-11
1.313172e-09
-1.948096e-11
1.3319112e-09
-1.8739197e-11
1.3509174e-09
-1.9006159e-11
1.3694833e-09
-1.8565878e-11
1.3879967e-09
-1.8513488e-11
1.4063955e-09
-1.8398753e-11
1.424401e-09
-1.8005513e-11
1.4425288e-09
-1.8127751e-11
1.460103e-09
-1.7574252e-11
1.4778778e-09
-1.7774753e-11
1.4950019e-09
-1.7124134e-11
1.5123568e-09
-1.7354849e-11
1.5291195e-09
-1.6762694e-11
1.5459487e-09
-1.6829283e-11
1.5623804e-09
-1.6431638e-11
1.5786425e-09
-1.6262124e-11
1.5947093e-09
-1.6066773e-11
1.6104089e-09
-1.5699596e-11
1.6260336e-09
-1.5624688e-11
1.6412109e-09
-1.5177381e-11
1.6563082e-09
-1.5097247e-11
1.6710279e-09
-1.4719751e-11
1.6855867e-09
-1.4558738e-11
1.6997972e-09
-1.4210558e-11
1.7138339e-09
-1.4036645e-11
1.7275029e-09
-1.3669019e-11
1.7408749e-09
-1.3372002e-11
1.7539558e-09
-1.3080907e-11
1.7668213e-09
-1.2865452e-11
1.7793815e-09
-1.2560195e-11
1.7916972e-09
-1.2315782e-11
1.8035932e-09
-1.1895944e-11
1.8152938e-09
-1.1700643e-11
1.8265762e-09
-1.1282402e-11
1.8376482e-09
-1.1071944e-11
1.8483687e-09
-1.07205e-11
1.8586981e-09
-1.0329413e-11
1.8689034e-09
-1.0205297e-11
1.8785813e-09
-9.6779692e-12
1.8881385e-09
-9.5571978e-12
1.8971868e-09
-9.048279e-12
1.906119e-09
-8.9322237e-12
1.9145508e-09
-8.4317027e-12
1.9226369e-09
-8.0860977e-12
1.9303555e-09
-7.7186575e-12
1.9378626e-09
-7.5070831e-12
1.9449767e-09
-7.1140647e-12
1.9517021e-09
-6.7253978e-12
1.9581344e-09
-6.4322957e-12
1.9643034e-09
-6.1690566e-12
1.9700546e-09
-5.7512359e-12
1.9754872e-09
-5.4325272e-12
1.9804873e-09
-5.0001312e-12
1.9851704e-09
-4.68308e-12
1.9895197e-09
-4.3493212e-12
1.9934942e-09
-3.9744672e-12
1.9971509e-09
-3.6567761e-12
2.0005279e-09
-3.3769444e-12
2.0034273e-09
-2.8994e-12
2.0059965e-09
-2.5692481e-12
-2.2379577e-12
2.8622707e-09
-8.0855365e-11
2.9224355e-09
-8.0684299e-11
2.9824844e-09
-8.0398722e-11
3.0422485e-09
-8.000359e-11
3.1027496e-09
-8.0998983e-11
3.1621846e-09
-7.9508635e-11
3.2225013e-09
-8.069239e-11
3.2810937e-09
-7.8250248e-11
3.3412549e-09
-8.0424952e-11
3.3993198e-09
-7.7456049e-11
3.4592972e-09
-8.0122642e-11
3.5167934e-09
-7.6611126e-11
3.5761313e-09
-7.9191376e-11
3.6332223e-09
-7.5987659e-11
3.6917049e-09
-7.796363e-11
3.7485372e-09
-7.5571444e-11
3.8059043e-09
-7.6373226e-11
3.8623947e-09
-7.5056353e-11
3.9186218e-09
-7.474055e-11
3.9747499e-09
-7.452684e-11
4.0298223e-09
-7.307793e-11
4.0853065e-09
-7.3611991e-11
4.1394141e-09
-7.1681783e-11
4.1939968e-09
-7.2357526e-11
4.2471127e-09
-7.0239954e-11
4.300652e-09
-7.0894175e-11
4.3529595e-09
-6.9070244e-11
4.4051496e-09
-6.9019325e-11
4.456716e-09
-6.7998078e-11
4.5075257e-09
-6.7071807e-11
4.5581913e-09
-6.6732347e-11
4.6076776e-09
-6.5185922e-11
4.6571661e-09
-6.5113136e-11
4.7053993e-09
-6.3410595e-11
4.753521e-09
-6.3218985e-11
4.8007175e-09
-6.1916273e-11
4.8474357e-09
-6.127694e-11
4.8934128e-09
-6.0187624e-11
4.9387732e-09
-5.9397015e-11
4.9833097e-09
-5.8205541e-11
5.0270405e-09
-5.7102803e-11
5.0701315e-09
-5.6171947e-11
5.1125786e-09
-5.5312516e-11
5.1542605e-09
-5.4242095e-11
5.1953252e-09
-5.338053e-11
5.2353147e-09
-5.1885431e-11
5.2748148e-09
-5.1200681e-11
5.3131754e-09
-4.964303e-11
5.3510751e-09
-4.8971608e-11
5.3879349e-09
-4.7580386e-11
5.4239436e-09
-4.6338115e-11
5.4594735e-09
-4.5735187e-11
5.4936915e-09
-4.3895924e-11
5.5276604e-09
-4.3526126e-11
5.5602135e-09
-4.1601389e-11
5.5924666e-09
-4.1185329e-11
5.6233314e-09
-3.9296435e-11
5.6534059e-09
-3.8160607e-11
5.6824536e-09
-3.6766342e-11
5.710952e-09
-3.6005528e-11
5.7383018e-09
-3.4463885e-11
5.7647217e-09
-3.3145308e-11
5.7903597e-09
-3.2070226e-11
5.8152528e-09
-3.1062234e-11
5.8390771e-09
-2.957551e-11
5.8619336e-09
-2.8288972e-11
5.8837784e-09
-2.6844967e-11
5.9047174e-09
-2.562208e-11
5.9245973e-09
-2.4229248e-11
5.9436594e-09
-2.3036526e-11
5.9618754e-09
-2.1872774e-11
5.9790994e-09
-2.0601003e-11
5.9952492e-09
-1.9049115e-11
6.0104309e-09
-1.7750961e-11
-1.649794e-11
4.3660976e-09
-1.7884343e-10
4.4638598e-09
-1.7844649e-10
4.5619724e-09
-1.785114e-10
4.6598075e-09
-1.7783862e-10
4.7586784e-09
-1.7986996e-10
4.8562701e-09
-1.7710025e-10
4.9551275e-09
-1.7954984e-10
5.052011e-09
-1.7513376e-10
5.1509056e-09
-1.7931953e-10
5.247391e-09
-1.7394142e-10
5.3462573e-09
-1.7898898e-10
5.4422229e-09
-1.7257674e-10
5.5404523e-09
-1.7742077e-10
5.6361221e-09
-1.7165746e-10
5.733447e-09
-1.7528849e-10
5.8289554e-09
-1.7107983e-10
5.9250494e-09
-1.7246721e-10
6.0202096e-09
-1.7021658e-10
6.1150557e-09
-1.6958671e-10
6.2097764e-09
-1.6924747e-10
6.3033673e-09
-1.6666882e-10
6.3973432e-09
-1.675879e-10
6.4898118e-09
-1.6415037e-10
6.582615e-09
-1.6516073e-10
6.6739753e-09
-1.6160032e-10
6.7655275e-09
-1.6244629e-10
6.8558748e-09
-1.594176e-10
6.9457146e-09
-1.5885915e-10
7.0351589e-09
-1.5744234e-10
7.1233222e-09
-1.5523507e-10
7.2115858e-09
-1.5499596e-10
7.2981253e-09
-1.5172548e-10
7.3847746e-09
-1.5176242e-10
7.46968e-09
-1.4831596e-10
7.5545433e-09
-1.4808233e-10
7.6381291e-09
-1.4550205e-10
7.7211561e-09
-1.443039e-10
7.8031994e-09
-1.4223096e-10
7.8843193e-09
-1.405169e-10
7.9642973e-09
-1.3818359e-10
8.0433423e-09
-1.3614773e-10
8.121486e-09
-1.343157e-10
8.1987601e-09
-1.3258655e-10
8.2749202e-09
-1.3040228e-10
8.3502628e-09
-1.2872305e-10
8.4241739e-09
-1.2579653e-10
8.497406e-09
-1.244328e-10
8.5689575e-09
-1.2119454e-10
8.6400339e-09
-1.2004802e-10
8.7093894e-09
-1.1693593e-10
8.7779726e-09
-1.1492125e-10
8.8454206e-09
-1.1318321e-10
8.9113457e-09
-1.0982099e-10
8.9768718e-09
-1.090523e-10
9.0404002e-09
-1.0512971e-10
9.1034628e-09
-1.0424795e-10
9.1643822e-09
-1.0021583e-10
9.224417e-09
-9.8195488e-11
9.2829883e-09
-9.5337581e-11
9.3406933e-09
-9.3710514e-11
9.3965616e-09
-9.033218e-11
9.4513995e-09
-8.798328e-11
9.5049915e-09
-8.5662137e-11
9.5575393e-09
-8.3610124e-11
9.608459e-09
-8.0495161e-11
9.657918e-09
-7.7748011e-11
9.7061476e-09
-7.5074536e-11
9.7528697e-09
-7.2344133e-11
9.7978857e-09
-6.9245336e-11
9.8421234e-09
-6.7274214e-11
9.8848959e-09
-6.4645277e-11
9.9260879e-09
-6.1792915e-11
9.9659202e-09
-5.8881451e-11
1.0004194e-08
-5.6024442e-11
-5.341984e-11
5.5899929e-09
-3.1236563e-10
5.7234082e-09
-3.1186179e-10
5.8578231e-09
-3.1292627e-10
5.9922037e-09
-3.1221928e-10
6.127688e-09
-3.1535419e-10
6.2621841e-09
-3.1159634e-10
6.3980303e-09
-3.1539609e-10
6.5324511e-09
-3.0955453e-10
6.6687063e-09
-3.1557477e-10
6.8032352e-09
-3.084703e-10
6.9397667e-09
-3.1552042e-10
7.0741378e-09
-3.0694792e-10
7.210361e-09
-3.1364392e-10
7.3447748e-09
-3.0607128e-10
7.4804914e-09
-3.1100508e-10
7.6149478e-09
-3.0553627e-10
7.7498596e-09
-3.0737899e-10
7.8840702e-09
-3.0442719e-10
8.018138e-09
-3.036545e-10
8.1518879e-09
-3.0299739e-10
8.2851172e-09
-2.9989804e-10
8.4182864e-09
-3.0075713e-10
8.5505156e-09
-2.9637955e-10
8.6825399e-09
-2.9718503e-10
8.8138655e-09
-2.9292593e-10
8.9448711e-09
-2.9345188e-10
9.0751138e-09
-2.8966032e-10
9.2045906e-09
-2.8833599e-10
9.3339091e-09
-2.8676081e-10
9.4619149e-09
-2.8324086e-10
9.5900237e-09
-2.8310477e-10
9.7164537e-09
-2.7815548e-10
9.8428534e-09
-2.7816212e-10
9.9675601e-09
-2.7302271e-10
1.0092221e-08
-2.7274307e-10
1.0215381e-08
-2.6866267e-10
1.0338319e-08
-2.6724121e-10
1.0459888e-08
-2.6380001e-10
1.0580644e-08
-2.6127293e-10
1.0699823e-08
-2.5736229e-10
1.0818582e-08
-2.5490665e-10
1.0935921e-08
-2.5165557e-10
1.1052695e-08
-2.4936004e-10
1.1167846e-08
-2.4555311e-10
1.1282225e-08
-2.4310249e-10
1.1395043e-08
-2.3861394e-10
1.1507119e-08
-2.3650941e-10
1.1617258e-08
-2.31333e-10
1.1726979e-08
-2.2976934e-10
1.1834429e-08
-2.2438627e-10
1.194162e-08
-2.2211178e-10
1.2046677e-08
-2.1824058e-10
1.2150767e-08
-2.1391111e-10
1.2253982e-08
-2.1226713e-10
1.2355192e-08
-2.0633991e-10
1.245568e-08
-2.0473528e-10
1.2553464e-08
-1.980002e-10
1.2650451e-08
-1.9518239e-10
1.2745945e-08
-1.9083158e-10
1.2840104e-08
-1.8787001e-10
1.2931958e-08
-1.8218572e-10
1.3023076e-08
-1.7910156e-10
1.3112377e-08
-1.7496263e-10
1.320071e-08
-1.7194296e-10
1.3286759e-08
-1.6654497e-10
1.3371316e-08
-1.6230503e-10
1.3454523e-08
-1.5828148e-10
1.3535518e-08
-1.5333887e-10
1.3614615e-08
-1.4834265e-10
1.3693189e-08
-1.4584768e-10
1.3769414e-08
-1.4086993e-10
1.3844033e-08
-1.3641279e-10
1.3917053e-08
-1.3190109e-10
1.3988105e-08
-1.2707629e-10
-1.2278754e-10
6.572644e-09
-4.7923836e-10
6.7398946e-09
-4.7911235e-10
6.9087294e-09
-4.8176105e-10
7.078089e-09
-4.8157886e-10
7.2483865e-09
-4.8565172e-10
7.4185031e-09
-4.817129e-10
7.5897324e-09
-4.8662542e-10
7.76077e-09
-4.8059219e-10
7.9329568e-09
-4.8776151e-10
8.1049322e-09
-4.804457e-10
8.2778306e-09
-4.8841886e-10
8.4503087e-09
-4.7942599e-10
8.6235022e-09
-4.8683746e-10
8.7965793e-09
-4.7914835e-10
8.9700449e-09
-4.8447065e-10
9.1434878e-09
-4.7897917e-10
9.3170101e-09
-4.8090138e-10
9.4905066e-09
-4.7792362e-10
9.6639541e-09
-4.7710201e-10
9.8370694e-09
-4.7611267e-10
1.0010533e-08
-4.7336187e-10
1.0183484e-08
-4.7370793e-10
1.035629e-08
-4.6918524e-10
1.0528419e-08
-4.6931466e-10
1.0700834e-08
-4.6534079e-10
1.0872483e-08
-4.651003e-10
1.1043915e-08
-4.6109225e-10
1.1214749e-08
-4.5917024e-10
1.1385341e-08
-4.5735345e-10
1.1555287e-08
-4.5318679e-10
1.1724926e-08
-4.5274337e-10
1.189358e-08
-4.4680925e-10
1.2061726e-08
-4.4630856e-10
1.222897e-08
-4.4026649e-10
1.2395833e-08
-4.3960632e-10
1.2561237e-08
-4.3406617e-10
1.2727058e-08
-4.3306242e-10
1.289099e-08
-4.2773238e-10
1.3054607e-08
-4.2488951e-10
1.3216177e-08
-4.1893287e-10
1.3378381e-08
-4.1711042e-10
1.3538281e-08
-4.1155527e-10
1.3698628e-08
-4.0970675e-10
1.3856563e-08
-4.0348877e-10
1.4014223e-08
-4.0076189e-10
1.4170159e-08
-3.9455005e-10
1.4325494e-08
-3.9184456e-10
1.4478874e-08
-3.8471293e-10
1.4631845e-08
-3.8274075e-10
1.4782425e-08
-3.7496594e-10
1.4933494e-08
-3.73181e-10
1.5081098e-08
-3.6584442e-10
1.522915e-08
-3.6196297e-10
1.5375306e-08
-3.5842355e-10
1.5520285e-08
-3.5131909e-10
1.5663978e-08
-3.4842736e-10
1.5804778e-08
-3.3880034e-10
1.5944857e-08
-3.3526141e-10
1.6083945e-08
-3.2992008e-10
1.6220808e-08
-3.2473238e-10
1.6355565e-08
-3.1694276e-10
1.6489961e-08
-3.1349809e-10
1.6622084e-08
-3.0708589e-10
1.6753492e-08
-3.0335083e-10
1.6881894e-08
-2.94947e-10
1.7009374e-08
-2.8978474e-10
1.7135174e-08
-2.8408103e-10
1.7257947e-08
-2.7611231e-10
1.7379632e-08
-2.7002749e-10
1.7500732e-08
-2.6694769e-10
1.7618467e-08
-2.5860485e-10
1.7735416e-08
-2.5336239e-10
1.7850136e-08
-2.4662025e-10
1.7962804e-08
-2.3974441e-10
-2.3358146e-10
7.348125e-09
-6.7751677e-10
7.5472993e-09
-6.7828664e-10
7.7487929e-09
-6.8325467e-10
7.9513529e-09
-6.8413888e-10
8.1548296e-09
-6.8912841e-10
8.3590776e-09
-6.8596088e-10
8.564231e-09
-6.9177879e-10
8.7706567e-09
-6.8701796e-10
8.9774999e-09
-6.9460466e-10
9.1859698e-09
-6.8891563e-10
9.3940956e-09
-6.9654466e-10
9.6040292e-09
-6.8935959e-10
9.8132494e-09
-6.9605766e-10
1.0024577e-08
-6.9047624e-10
1.0235091e-08
-6.9498395e-10
1.0447294e-08
-6.9118254e-10
1.0658964e-08
-6.9257187e-10
1.0871872e-08
-6.9083088e-10
1.1084364e-08
-6.8959476e-10
1.129724e-08
-6.8898774e-10
1.1510876e-08
-6.8699862e-10
1.1724258e-08
-6.8708937e-10
1.1937791e-08
-6.8271855e-10
1.215098e-08
-6.8250323e-10
1.2364922e-08
-6.7928332e-10
1.2578266e-08
-6.7844387e-10
1.2791614e-08
-6.7444048e-10
1.3005271e-08
-6.728278e-10
1.3217989e-08
-6.7007109e-10
1.3431532e-08
-6.6672964e-10
1.3643838e-08
-6.6504936e-10
1.3856558e-08
-6.5952941e-10
1.4067852e-08
-6.5760283e-10
1.4280038e-08
-6.5245195e-10
1.4490828e-08
-6.5039626e-10
1.4700892e-08
-6.4413024e-10
1.4911887e-08
-6.4405736e-10
1.5120631e-08
-6.3647669e-10
1.5329647e-08
-6.3390526e-10
1.5536539e-08
-6.2582547e-10
1.574511e-08
-6.2568125e-10
1.5950451e-08
-6.1689577e-10
1.6157825e-08
-6.1708083e-10
1.6361717e-08
-6.073812e-10
1.6566509e-08
-6.0555361e-10
1.6768969e-08
-5.9700972e-10
1.6971572e-08
-5.9444788e-10
1.7172387e-08
-5.855279e-10
1.7372672e-08
-5.8302624e-10
1.7570994e-08
-5.7328757e-10
1.7770213e-08
-5.7239969e-10
1.7964915e-08
-5.6054676e-10
1.816218e-08
-5.592276e-10
1.8355758e-08
-5.5200145e-10
1.8550009e-08
-5.4556995e-10
1.8741937e-08
-5.403563e-10
1.8931487e-08
-5.2834973e-10
1.912005e-08
-5.2382403e-10
1.9308636e-08
-5.1850649e-10
1.9493557e-08
-5.0965332e-10
1.9677776e-08
-5.0116173e-10
1.9861481e-08
-4.9720282e-10
2.0043021e-08
-4.8862672e-10
2.0223723e-08
-4.8405207e-10
2.0401133e-08
-4.7235779e-10
2.0578783e-08
-4.6743472e-10
2.0753861e-08
-4.5915882e-10
2.0925272e-08
-4.4752301e-10
2.109759e-08
-4.4234578e-10
2.1267712e-08
-4.3706918e-10
2.1434238e-08
-4.2513115e-10
2.1601512e-08
-4.2063679e-10
2.1765668e-08
-4.1077622e-10
2.1928106e-08
-4.0218215e-10
-3.93924e-10
7.9463072e-09
-9.0558743e-10
8.1751703e-09
-9.0714971e-10
8.407932e-09
-9.1601636e-10
8.6414161e-09
-9.1762303e-10
8.876921e-09
-9.2463328e-10
9.1132398e-09
-9.2227975e-10
9.3513776e-09
-9.2991659e-10
9.5912914e-09
-9.2693168e-10
9.832074e-09
-9.3538734e-10
1.0075381e-08
-9.3222213e-10
1.0318149e-08
-9.3931295e-10
1.0564215e-08
-9.3542571e-10
1.0808941e-08
-9.4078405e-10
1.1057485e-08
-9.3901952e-10
1.1304586e-08
-9.4208532e-10
1.1554778e-08
-9.4137405e-10
1.1804158e-08
-9.4195189e-10
1.2056175e-08
-9.4284817e-10
1.230718e-08
-9.4059977e-10
1.2560017e-08
-9.4182536e-10
1.2813362e-08
-9.4034326e-10
1.3067662e-08
-9.4138915e-10
1.3321659e-08
-9.3671591e-10
1.3576765e-08
-9.3760852e-10
1.3832187e-08
-9.3470531e-10
1.4088047e-08
-9.3430436e-10
1.4343635e-08
-9.3002883e-10
1.4601311e-08
-9.3050299e-10
1.4856606e-08
-9.2536642e-10
1.5115109e-08
-9.2523233e-10
1.5370765e-08
-9.207059e-10
1.5629123e-08
-9.1788771e-10
1.5884509e-08
-9.1298808e-10
1.6143809e-08
-9.1175227e-10
1.6399672e-08
-9.0625965e-10
1.6656933e-08
-9.0139129e-10
1.6914574e-08
-9.0169762e-10
1.7170576e-08
-8.9247861e-10
1.7426838e-08
-8.901678e-10
1.7682226e-08
-8.8121288e-10
1.7939172e-08
-8.8262782e-10
1.8192938e-08
-8.7066129e-10
1.8449977e-08
-8.7412046e-10
1.8702823e-08
-8.6022676e-10
1.8958305e-08
-8.6103601e-10
1.9209986e-08
-8.4869059e-10
1.9463526e-08
-8.4798821e-10
1.9715214e-08
-8.3721549e-10
1.9966418e-08
-8.3423019e-10
2.0216775e-08
-8.2364465e-10
2.0467524e-08
-8.231489e-10
2.0713807e-08
-8.0682942e-10
2.0964381e-08
-8.098016e-10
2.1209356e-08
-7.9697628e-10
2.1457369e-08
-7.9358315e-10
2.1701704e-08
-7.8469092e-10
2.1945406e-08
-7.7205233e-10
2.2187023e-08
-7.6544059e-10
2.2429707e-08
-7.6119115e-10
2.2667218e-08
-7.471639e-10
2.2906815e-08
-7.4075919e-10
2.3144639e-08
-7.3502674e-10
2.3381462e-08
-7.2544939e-10
2.3615875e-08
-7.1846546e-10
2.384858e-08
-7.0506276e-10
2.4081969e-08
-7.0082314e-10
2.4311357e-08
-6.8854698e-10
2.4537864e-08
-6.7403026e-10
2.4767867e-08
-6.7234887e-10
2.4992059e-08
-6.6126099e-10
2.5214687e-08
-6.477593e-10
2.5438333e-08
-6.4428291e-10
2.5657864e-08
-6.3030687e-10
2.5877253e-08
-6.2157076e-10
-6.1057445e-10
8.3923058e-09
-1.1611863e-09
8.649266e-09
-1.1641099e-09
8.9114003e-09
-1.1781507e-09
9.1739275e-09
-1.1801502e-09
9.4401073e-09
-1.1908131e-09
9.7065311e-09
-1.1887035e-09
9.9768381e-09
-1.2002236e-09
1.024805e-08
-1.1981437e-09
1.05225e-08
-1.2098374e-09
1.0798321e-08
-1.2080428e-09
1.1075834e-08
-1.2168266e-09
1.1355807e-08
-1.2153981e-09
1.1636289e-08
-1.2212657e-09
1.1920031e-08
-1.2227616e-09
1.2204021e-08
-1.2260756e-09
1.2490462e-08
-1.2278147e-09
1.2777836e-08
-1.2293261e-09
1.306764e-08
-1.2326523e-09
1.3357335e-08
-1.2302945e-09
1.3649438e-08
-1.2339288e-09
1.3942556e-08
-1.2334608e-09
1.4237401e-08
-1.2362342e-09
1.4532084e-08
-1.2313989e-09
1.4829244e-08
-1.2347688e-09
1.5126411e-08
-1.2318723e-09
1.5424954e-08
-1.2328476e-09
1.5723418e-08
-1.2284925e-09
1.6025725e-08
-1.2328099e-09
1.6324389e-08
-1.2240306e-09
1.6628801e-08
-1.2296447e-09
1.6928582e-08
-1.2204862e-09
1.7233895e-08
-1.2232007e-09
1.7534296e-08
-1.2133897e-09
1.7842476e-08
-1.2199324e-09
1.8144204e-08
-1.2079873e-09
1.8451476e-08
-1.2086635e-09
1.8756162e-08
-1.2063829e-09
1.9061989e-08
-1.198306e-09
1.9366568e-08
-1.1947464e-09
1.9673838e-08
-1.188483e-09
1.9979825e-08
-1.1886154e-09
2.0285403e-08
-1.1762385e-09
2.0593089e-08
-1.1818065e-09
2.0897966e-08
-1.1651047e-09
2.120674e-08
-1.16981e-09
2.1509561e-08
-1.151511e-09
2.181685e-08
-1.1552769e-09
2.2121561e-08
-1.1419266e-09
2.2426557e-08
-1.1392264e-09
2.2731823e-08
-1.1289104e-09
2.3035636e-08
-1.126962e-09
2.3337647e-08
-1.1088404e-09
2.36435e-08
-1.115655e-09
2.3943241e-08
-1.0967173e-09
2.4247491e-08
-1.0978328e-09
2.4546586e-08
-1.0837859e-09
2.4848477e-08
-1.0739433e-09
2.5146517e-08
-1.0634804e-09
2.5445035e-08
-1.0597094e-09
2.5738331e-08
-1.0404605e-09
2.6037309e-08
-1.0397368e-09
2.6332073e-08
-1.0297906e-09
2.6627677e-08
-1.0210533e-09
2.6917965e-08
-1.0087533e-09
2.7211433e-08
-9.9853109e-10
2.7502675e-08
-9.9206495e-10
2.7788878e-08
-9.747503e-10
2.8075928e-08
-9.6108011e-10
2.8366599e-08
-9.6301971e-10
2.8646417e-08
-9.4107935e-10
2.8931809e-08
-9.3315156e-10
2.9213699e-08
-9.2617268e-10
2.9493205e-08
-9.0981307e-10
2.9773708e-08
-9.0207356e-10
-8.8740242e-10
8.7076744e-09
-1.4411527e-09
8.9926775e-09
-1.449113e-09
9.2808409e-09
-1.4663141e-09
9.5724488e-09
-1.4717581e-09
9.8662442e-09
-1.4846085e-09
1.0162813e-08
-1.4852727e-09
1.0462734e-08
-1.500144e-09
1.0764842e-08
-1.5002522e-09
1.1071116e-08
-1.516111e-09
1.1378449e-08
-1.5153758e-09
1.1689657e-08
-1.5280347e-09
1.200206e-08
-1.527801e-09
1.2317957e-08
-1.5371632e-09
1.2635143e-08
-1.5399472e-09
1.2956226e-08
-1.5471588e-09
1.3277111e-08
-1.5486997e-09
1.3603089e-08
-1.5553035e-09
1.3928759e-08
-1.5583223e-09
1.4258103e-08
-1.5596394e-09
1.4587817e-08
-1.5636425e-09
1.4921725e-08
-1.5673685e-09
1.5255399e-08
-1.5699081e-09
1.5592175e-08
-1.5681754e-09
1.5930142e-08
-1.5727357e-09
1.6270352e-08
-1.5720824e-09
1.6610334e-08
-1.5728295e-09
1.6953479e-08
-1.5716372e-09
1.7299219e-08
-1.5785505e-09
1.7643485e-08
-1.5682964e-09
1.7992874e-08
-1.5790333e-09
1.8338535e-08
-1.5661479e-09
1.8690388e-08
-1.5750536e-09
1.9037652e-08
-1.5606532e-09
1.9394263e-08
-1.5765433e-09
1.9743065e-08
-1.5567894e-09
2.0101834e-08
-1.5674326e-09
2.045323e-08
-1.5577795e-09
2.0810001e-08
-1.5550768e-09
2.1163376e-08
-1.548121e-09
2.1524371e-08
-1.5494786e-09
2.1878387e-08
-1.5426309e-09
2.2238479e-08
-1.5363311e-09
2.2594918e-08
-1.5382449e-09
2.295411e-08
-1.5242969e-09
2.3316088e-08
-1.531788e-09
2.3670605e-08
-1.5060279e-09
2.4031857e-08
-1.5165293e-09
2.4389174e-08
-1.4992428e-09
2.4749153e-08
-1.4992056e-09
2.5108936e-08
-1.4886938e-09
2.5464628e-08
-1.4826537e-09
2.5824232e-08
-1.4684445e-09
2.6183215e-08
-1.4746378e-09
2.6538561e-08
-1.4520639e-09
2.6898206e-08
-1.4574768e-09
2.7250577e-08
-1.4361573e-09
2.7611017e-08
-1.4343833e-09
2.7966792e-08
-1.4192553e-09
2.8316839e-08
-1.4097565e-09
2.8666427e-08
-1.3900486e-09
2.9024032e-08
-1.3973423e-09
2.937478e-08
-1.3805386e-09
2.9726839e-08
-1.3731113e-09
3.0071873e-08
-1.3537874e-09
3.0426793e-08
-1.3534513e-09
3.0772279e-08
-1.3375509e-09
3.111348e-08
-1.3159517e-09
3.1463799e-08
-1.3113992e-09
3.1811055e-08
-1.3102755e-09
3.2143311e-08
-1.2733355e-09
3.2494988e-08
-1.2848288e-09
3.282823e-08
-1.2594138e-09
3.3168306e-08
-1.2498894e-09
3.3508505e-08
-1.2422726e-09
-1.222745e-09
8.9139243e-09
-1.744297e-09
9.2255235e-09
-1.7607121e-09
9.537533e-09
-1.7783237e-09
9.8576973e-09
-1.7919224e-09
1.017619e-08
-1.8031009e-09
1.0503343e-08
-1.8124256e-09
1.0829295e-08
-1.8260964e-09
1.1163362e-08
-1.8343192e-09
1.1497477e-08
-1.8502264e-09
1.1837677e-08
-1.8555755e-09
1.2178733e-08
-1.8690901e-09
1.2524851e-08
-1.8739191e-09
1.2872881e-08
-1.8851934e-09
1.3224507e-08
-1.8915729e-09
1.3580006e-08
-1.9026584e-09
1.3936136e-08
-1.9048291e-09
1.4298648e-08
-1.9178157e-09
1.466036e-08
-1.9200347e-09
1.5028067e-08
-1.9273464e-09
1.5395333e-08
-1.9309083e-09
1.5769262e-08
-1.9412972e-09
1.6140807e-08
-1.9414528e-09
1.6520022e-08
-1.9473904e-09
1.6897693e-08
-1.9504073e-09
1.7281372e-08
-1.9557611e-09
1.7661232e-08
-1.9526892e-09
1.8050467e-08
-1.9608725e-09
1.8436875e-08
-1.9649584e-09
1.8829342e-08
-1.9607633e-09
1.9220392e-08
-1.9700835e-09
1.9614144e-08
-1.9598997e-09
2.0009088e-08
-1.969998e-09
2.0406192e-08
-1.9577572e-09
2.0806321e-08
-1.9766724e-09
2.1204375e-08
-1.9548431e-09
2.1612197e-08
-1.9752545e-09
2.2009921e-08
-1.9555039e-09
2.2414038e-08
-1.9591932e-09
2.2816974e-08
-1.9510576e-09
2.3227852e-08
-1.9603566e-09
2.3628104e-08
-1.9428829e-09
2.4040845e-08
-1.9490718e-09
2.4441446e-08
-1.9388463e-09
2.4853161e-08
-1.9360115e-09
2.5263511e-08
-1.9421383e-09
2.5667889e-08
-1.9104056e-09
2.6077425e-08
-1.9260651e-09
2.6482268e-08
-1.9040865e-09
2.6894335e-08
-1.9112723e-09
2.7301839e-08
-1.8961974e-09
2.7704068e-08
-1.884883e-09
2.8117471e-08
-1.881847e-09
2.8521609e-08
-1.8787766e-09
2.8927615e-08
-1.85807e-09
2.9336355e-08
-1.8662168e-09
2.9733866e-08
-1.833668e-09
3.0145758e-08
-1.8462748e-09
3.0555389e-08
-1.8288871e-09
3.0944468e-08
-1.7988351e-09
3.1344182e-08
-1.7897626e-09
3.1752579e-08
-1.8057392e-09
3.2152579e-08
-1.7805383e-09
3.255206e-08
-1.772593e-09
3.2947905e-08
-1.749632e-09
3.3358481e-08
-1.7640277e-09
3.3748951e-08
-1.7280208e-09
3.4138508e-08
-1.7055086e-09
3.4550389e-08
-1.7232803e-09
3.4940555e-08
-1.7004409e-09
3.531815e-08
-1.6509307e-09
3.5734203e-08
-1.7008824e-09
3.6104049e-08
-1.6292597e-09
3.6500166e-08
-1.6460058e-09
3.6889347e-08
-1.631454e-09
-1.605625e-09
9.0301897e-09
-2.0715784e-09
9.3638116e-09
-2.0943341e-09
9.7007136e-09
-2.1152256e-09
1.0045085e-08
-2.1362939e-09
1.0389073e-08
-2.147089e-09
1.0743246e-08
-2.166598e-09
1.1095234e-08
-2.1780846e-09
1.145884e-08
-2.1979253e-09
1.1819635e-08
-2.2110212e-09
1.2191642e-08
-2.2275833e-09
1.2560334e-08
-2.2377821e-09
1.2940245e-08
-2.2538299e-09
1.3317389e-08
-2.2623376e-09
1.3704461e-08
-2.2786449e-09
1.4090562e-08
-2.2887591e-09
1.4483839e-08
-2.2981056e-09
1.4878683e-08
-2.3126605e-09
1.5278456e-08
-2.3198075e-09
1.5680259e-08
-2.3291495e-09
1.6087915e-08
-2.3385639e-09
1.6497181e-08
-2.3505634e-09
1.6909074e-08
-2.3533461e-09
1.7326776e-08
-2.3650919e-09
1.7746548e-08
-2.370179e-09
1.8169233e-08
-2.3784462e-09
1.8591093e-08
-2.37455e-09
1.902249e-08
-2.3922689e-09
1.9449628e-08
-2.3920968e-09
1.9887513e-08
-2.3986481e-09
2.0318846e-08
-2.4014162e-09
2.0757493e-08
-2.3985471e-09
2.119246e-08
-2.4049643e-09
2.1637869e-08
-2.4031672e-09
2.2074163e-08
-2.4129663e-09
2.2519545e-08
-2.4002247e-09
2.2969909e-08
-2.4256189e-09
2.3409751e-08
-2.3953453e-09
2.3851282e-08
-2.4007242e-09
2.4301829e-08
-2.4016047e-09
2.4749205e-08
-2.4077329e-09
2.5192162e-08
-2.3858396e-09
2.5645748e-08
-2.4026575e-09
2.6083532e-08
-2.3766309e-09
2.6536134e-08
-2.3886134e-09
2.6984127e-08
-2.3901309e-09
2.7428549e-08
-2.3548277e-09
2.7873373e-08
-2.3708897e-09
2.8312464e-08
-2.3431773e-09
2.8770794e-08
-2.3696022e-09
2.9210108e-08
-2.3355119e-09
2.9653254e-08
-2.3280283e-09
3.0106833e-08
-2.3354263e-09
3.0544843e-08
-2.3167866e-09
3.0987926e-08
-2.301153e-09
3.1435331e-08
-2.3136212e-09
3.1860376e-08
-2.2587136e-09
3.2303539e-08
-2.2894381e-09
3.275116e-08
-2.2765079e-09
3.3146056e-08
-2.193731e-09
3.3599148e-08
-2.2428547e-09
3.4065483e-08
-2.2720742e-09
3.4513041e-08
-2.2280959e-09
3.4954743e-08
-2.2142947e-09
3.5392376e-08
-2.1872652e-09
3.5857537e-08
-2.2291888e-09
3.6261164e-08
-2.1316481e-09
3.6661929e-08
-2.1062736e-09
3.7129154e-08
-2.1905045e-09
3.7492735e-08
-2.0640222e-09
3.7841921e-08
-2.0001168e-09
3.8282273e-08
-2.1412342e-09
3.854432e-08
-1.8913074e-09
3.8902991e-08
-2.0046766e-09
3.9159983e-08
-1.888446e-09
-1.8669521e-09
9.0690091e-09
-2.4217494e-09
9.4219884e-09
-2.4473133e-09
9.7836142e-09
-2.4768515e-09
1.0148613e-08
-2.5012932e-09
1.0518944e-08
-2.51742e-09
1.0895798e-08
-2.5434513e-09
1.1275345e-08
-2.5576315e-09
1.1663678e-08
-2.5862586e-09
1.2053035e-08
-2.600378e-09
1.2451956e-08
-2.6265041e-09
1.2850269e-08
-2.6360959e-09
1.325933e-08
-2.6628909e-09
1.3667281e-08
-2.6702881e-09
1.4085978e-08
-2.697342e-09
1.4503518e-08
-2.7062996e-09
1.4931253e-08
-2.7258402e-09
1.5359014e-08
-2.7404216e-09
1.5794204e-08
-2.754997e-09
1.6230395e-08
-2.7653413e-09
1.6677202e-08
-2.7853701e-09
1.7120253e-08
-2.7936142e-09
1.7571892e-08
-2.804986e-09
1.8025125e-08
-2.8183246e-09
1.848695e-08
-2.8320037e-09
1.8942727e-08
-2.834223e-09
1.9407207e-08
-2.8390304e-09
1.9872261e-08
-2.8573226e-09
2.033923e-08
-2.859066e-09
2.0811533e-08
-2.870951e-09
2.1282194e-08
-2.8720775e-09
2.1750659e-08
-2.8670117e-09
2.2223596e-08
-2.877901e-09
2.2701158e-08
-2.8807294e-09
2.3168051e-08
-2.8798595e-09
2.3643188e-08
-2.8753617e-09
2.4129253e-08
-2.9116835e-09
2.4590992e-08
-2.8570849e-09
2.5058904e-08
-2.8686362e-09
2.5541034e-08
-2.8837343e-09
2.6012741e-08
-2.8794396e-09
2.6483987e-08
-2.8570858e-09
2.6966135e-08
-2.8848061e-09
2.7421961e-08
-2.8324562e-09
2.7902799e-08
-2.8694515e-09
2.8358023e-08
-2.8453552e-09
2.8815575e-08
-2.8123791e-09
2.9293287e-08
-2.8486019e-09
2.9766148e-08
-2.8160388e-09
3.0279556e-08
-2.8830101e-09
3.0722734e-08
-2.77869e-09
3.1192131e-08
-2.7974249e-09
3.1643289e-08
-2.7865843e-09
3.2061503e-08
-2.7350006e-09
3.2436273e-08
-2.6759231e-09
3.2828516e-08
-2.7058641e-09
3.2993406e-08
-2.4236039e-09
3.3223886e-08
-2.5199183e-09
3.3092142e-08
-2.1447632e-09
3.2912707e-08
-2.0142968e-09
3.3336699e-08
-2.6668469e-09
3.3770002e-08
-2.7053764e-09
3.3928976e-08
-2.3870703e-09
3.4231055e-08
-2.5163733e-09
3.4323486e-08
-2.2796966e-09
3.4537585e-08
-2.4432874e-09
3.4584805e-08
-2.1788686e-09
3.4386728e-08
-1.9081961e-09
3.4487646e-08
-2.2914224e-09
3.4295231e-08
-1.8716077e-09
3.4089035e-08
-1.7939203e-09
3.4022221e-08
-2.07442e-09
3.3566169e-08
-1.4352563e-09
3.3375964e-08
-1.8144717e-09
3.2926494e-08
-1.4389758e-09
-1.4444772e-09
9.0420908e-09
-2.7924898e-09
9.4139308e-09
-2.8191534e-09
9.7976698e-09
-2.8605905e-09
1.0182606e-08
-2.8862294e-09
1.057685e-08
-2.9116638e-09
1.0975241e-08
-2.9418421e-09
1.1380362e-08
-2.9627528e-09
1.1791908e-08
-2.9978046e-09
1.2208554e-08
-3.0170243e-09
1.2632472e-08
-3.0504219e-09
1.3060062e-08
-3.0636855e-09
1.349613e-08
-3.0989596e-09
1.3935148e-08
-3.1093061e-09
1.4383571e-08
-3.1457643e-09
1.483282e-08
-3.1555485e-09
1.5293133e-08
-3.1861537e-09
1.5754806e-08
-3.2020946e-09
1.6221458e-08
-3.2216486e-09
1.6693611e-08
-3.2374946e-09
1.7173663e-08
-3.2654224e-09
1.7650803e-08
-3.2707542e-09
1.8133469e-08
-3.2876523e-09
1.8620865e-08
-3.3057198e-09
1.911232e-08
-3.3234595e-09
1.9597514e-08
-3.3194172e-09
2.0088817e-08
-3.3303325e-09
2.0581068e-08
-3.3495739e-09
2.1068456e-08
-3.3464539e-09
2.1565924e-08
-3.3684192e-09
2.2054937e-08
-3.3610911e-09
2.2539581e-08
-3.3516555e-09
2.3030881e-08
-3.3692008e-09
2.3529294e-08
-3.3791424e-09
2.4005335e-08
-3.3559001e-09
2.4495813e-08
-3.3658403e-09
2.4992593e-08
-3.408463e-09
2.5437573e-08
-3.3020656e-09
2.5937258e-08
-3.3683202e-09
2.6449204e-08
-3.395681e-09
2.6937371e-08
-3.367606e-09
2.7390904e-08
-3.3106194e-09
2.7867893e-08
-3.3617947e-09
2.8178908e-08
-3.143471e-09
2.8553597e-08
-3.2441413e-09
2.8465663e-08
-2.7574204e-09
2.8176354e-08
-2.52307e-09
2.8652159e-08
-3.3244075e-09
2.879851e-08
-2.9623896e-09
2.9106095e-08
-3.1905955e-09
2.9145495e-08
-2.8180902e-09
2.9066545e-08
-2.7184749e-09
2.90026e-08
-2.7226389e-09
2.8720552e-08
-2.4529526e-09
2.8414475e-08
-2.3698461e-09
2.8006996e-08
-2.2983849e-09
2.7285172e-08
-1.7017801e-09
2.6749966e-08
-1.9847117e-09
2.6021216e-08
-1.4160134e-09
2.5143297e-08
-1.1363779e-09
2.4133729e-08
-1.6572789e-09
2.2974818e-08
-1.5464657e-09
2.1739208e-08
-1.1514603e-09
2.0510292e-08
-1.287457e-09
1.934088e-08
-1.1102849e-09
1.8119335e-08
-1.2217421e-09
1.6703178e-08
-7.6271223e-10
1.5174702e-08
-3.7971975e-10
1.3855101e-08
-9.7182185e-10
1.2788569e-08
-8.050755e-10
1.1697555e-08
-7.0290576e-10
1.0556111e-08
-9.3297669e-10
9.7083919e-09
-5.875368e-10
8.7558242e-09
-8.6190403e-10
7.9146246e-09
-5.9777619e-10
-9.1758151e-10
8.9614071e-09
-3.1823914e-09
9.3498092e-09
-3.2075555e-09
9.7539484e-09
-3.2647297e-09
1.015696e-08
-3.2892412e-09
1.0573319e-08
-3.3280228e-09
1.0991867e-08
-3.3603898e-09
1.1421179e-08
-3.3920653e-09
1.1854879e-08
-3.431504e-09
1.2298176e-08
-3.4603216e-09
1.2746014e-08
-3.4982603e-09
1.3203076e-08
-3.5207467e-09
1.3665259e-08
-3.5611427e-09
1.4135074e-08
-3.5791212e-09
1.4613189e-08
-3.6238798e-09
1.5091387e-08
-3.633746e-09
1.5584544e-08
-3.6793108e-09
1.6073867e-08
-3.6914177e-09
1.6570584e-08
-3.718365e-09
1.7067602e-08
-3.7345133e-09
1.7576717e-08
-3.774537e-09
1.8071269e-08
-3.7653062e-09
1.8577847e-08
-3.7942307e-09
1.9076843e-08
-3.8047153e-09
1.9587702e-08
-3.8343188e-09
2.0076793e-08
-3.808508e-09
2.0579056e-08
-3.8325952e-09
2.107886e-08
-3.8493784e-09
2.1569078e-08
-3.8366713e-09
2.207077e-08
-3.8701114e-09
2.2548561e-08
-3.8388822e-09
2.3043111e-08
-3.8462054e-09
2.3543151e-08
-3.8692412e-09
2.4057552e-08
-3.8935427e-09
2.4433e-08
-3.7313487e-09
2.4840752e-08
-3.7735922e-09
2.4888386e-08
-3.4560968e-09
2.4648776e-08
-3.0624558e-09
2.4951539e-08
-3.6710829e-09
2.5170254e-08
-3.6143967e-09
2.5159415e-08
-3.3567671e-09
2.5038703e-08
-3.189907e-09
2.4737515e-08
-3.0606067e-09
2.4199392e-08
-2.6053484e-09