/*--------------------------------*- C++ -*----------------------------------*\
| =========                 |                                                 |
| \\      /  F ield         | OpenFOAM: The Open Source CFD Toolbox           |
|  \\    /   O peration     | Version:  2.3.0                                 |
|   \\  /    A nd           | Web:      www.OpenFOAM.org                      |
|    \\/     M anipulation  |                                                 |
\*---------------------------------------------------------------------------*/
FoamFile
{
    version     2.0;
    format      ascii;
    class       volScalarField;
    location    "1.55";
    object      alpha.water;
}
// * * * * * * * * * * * * * * * * * * * * * * * * * * * * * * * * * * * * * //

dimensions      [0 0 0 0 0 0 0];

internalField   nonuniform List<scalar> 
2268
(
1
1
1
0.999999
0.999999
1
1
1
1
0.999999
0.999999
0.999999
0.999999
1
1
0.999701
0.977785
0.975308
0.975308
0.985474
0.999149
0.992077
0.988508
1
1
1
1
1
1
1
1
0.999999
0.999999
0.999999
1
1
1
1
0.995737
0.975834
0.97556
0.980419
0.995919
0.999503
0.998938
0.988508
1
1
1
1
1
1
0.999999
0.999999
1
1
1
1
1
1
1
0.99587
0.984232
0.985387
0.9946
0.999338
0.999595
0.999573
0.988713
1
1
1
1
1
1
1
0.999999
0.999999
1
1
1
1
1
0.999937
0.999788
0.999717
0.999776
0.999772
0.999699
0.999702
0.99963
0.992193
1
1
1
1
1
1
1
0.999999
0.999999
1
1
1
1
1
1
1
1
0.999976
0.999923
0.999883
0.999809
0.999656
0.999496
1
1
1
1
1
1
1
0.999999
0.999999
1
1
1
1
1
1
1
1
0.999999
0.999065
0.997442
0.997976
0.999443
0.999445
1
1
1
1
1
1
1
0.999999
0.999999
0.999999
1
1
1
1
1
1
1
0.999232
0.997428
0.995265
0.995058
0.9993
0.999355
1
1
0.999999
0.999999
0.999998
0.999999
0.999999
0.999998
0.999998
0.999998
0.999999
0.999999
0.999999
1
1
1
1
0.994973
0.940838
0.946871
0.993974
0.999324
0.999416
0.992102
0.992257
0.99237
0.992976
0.995029
0.995022
0.99502
0.995031
0.977567
0.908915
0.951494
0.951494
0.938871
0.907818
0.907804
0.907816
0.907807
0.922068
0.953416
0.992106
0.994998
0.995028
0.995042
0.995027
0.995091
0.995024
0.995025
0.979172
0.732916
0.669209
0.917421
0.941185
0.916503
0.907797
0.907787
0.907764
0.912392
0.960977
0.994683
0.994927
0.995002
0.995028
0.995091
0.995092
0.995077
0.993056
0.777043
0.604981
0.604167
0.682515
0.928692
0.959433
0.947877
0.930331
0.907858
0.912786
0.961036
0.994628
0.994808
0.994582
0.994969
0.994979
0.979223
0.946456
0.791558
0.604981
0.604167
0.604167
0.604167
0.904112
0.960758
0.961007
0.961069
0.935023
0.955748
0.961048
0.967713
0.8431
0.931919
0.993751
0.983403
0.782094
0.663149
0.642545
0.64066
0.692743
0.604167
0.760376
0.960595
0.961111
0.961064
0.961133
0.961182
0.961187
0.961182
0.810706
0.566652
0.550268
0.802926
0.876242
0.67895
0.655725
0.652697
0.81125
0.814892
0.80585
0.757539
0.701563
0.931517
0.961141
0.961174
0.961187
0.961187
0.96138
0.978697
0.852453
0.444994
0.426024
0.648559
0.803722
0.806062
0.808393
0.81498
0.814999
0.814892
0.482108
0.387956
0.594385
0.936456
0.961168
0.96118
0.961375
0.961573
0.999172
0.99894
0.799104
0.280556
0.442286
0.783174
0.804755
0.814983
0.81499
0.815016
0.632628
0.387322
0.389771
0.389428
0.722389
0.879524
0.961197
0.959637
0.908131
0.999998
0.999998
0.999992
0.99998
0.999978
0.999978
0.999983
0.999985
0.999985
0.999986
0.999987
0.999989
0.999992
0.999997
0.999997
0.999999
1
0.953462
0.924326
0.923361
0.94975
0.99702
0.99942
0.999978
0.99998
0.999933
0.999856
0.999831
0.999821
0.999856
0.99988
0.999881
0.999883
0.999892
0.999905
0.999921
0.999993
0.999961
0.999979
0.999986
0.949794
0.923556
0.923512
0.923452
0.96093
0.998953
0.88815
0.834814
0.787707
0.838355
0.886697
0.909679
0.957795
0.98747
0.996619
0.998405
0.998547
0.998717
0.998908
0.999065
0.999337
0.999543
0.99948
0.991492
0.987118
0.986558
0.95806
0.986285
0.997331
0.280607
0.182456
0.136342
0.172198
0.196323
0.231101
0.321899
0.447386
0.560607
0.638718
0.697135
0.738434
0.765452
0.791557
0.814843
0.828715
0.848855
0.883026
0.905881
0.922122
0.939334
0.941591
0.920079
0.0234196
0.0258647
0.0303314
0.00971381
0.00782804
0.00461331
0.00241458
0.00188922
0.000964599
0.014906
0.0387616
0.0599031
0.0753841
0.0925598
0.108245
0.1165
0.134146
0.171632
0.209764
0.211509
0.197182
0.184078
0.160538
0.0229927
0.0239111
0.0387436
0.0312158
0.0160069
0.0207835
0.0136292
0.000994979
0.000699732
0.000699732
0.000691422
0.00076631
0.000996289
0.00126747
0.00150488
0.00168295
0.00176713
0.00195103
0.00276868
0.0114227
0.0150426
0.0103744
0.0015934
0.0227795
0.0423966
0.0427272
0.0427272
0.0427272
0.0416182
0.0263038
0.00750166
0.000806175
0.000691135
0.00251002
0.0041011
0.00411069
0.0041011
0.00326022
0.00166771
0.00343866
0.0146314
0.0180584
0.0177415
0.0061093
0.000424697
0.000387514
0.022502
0.0291547
0.041949
0.0427272
0.032023
0.00924384
0.00714714
0.00622991
0.000810864
0.000941528
0.00386491
0.00368352
0.00191917
0.00201527
0.00225986
0.000158641
1.55199e-07
4.05633e-06
0.00325273
0.00549855
0.00227093
0.000308355
0.000272755
0.00396679
7.86663e-07
0.00192895
0.00280704
9.83601e-05
1.19394e-05
3.81632e-05
0.00023557
0.000117668
0.000788972
0.000495085
3.75757e-09
4.71754e-09
4.85162e-09
8.68294e-09
1.41394e-08
2.30401e-08
4.0058e-06
8.29404e-06
0.00311563
0.00267382
0.000804501
0.000761679
7.17846e-07
7.17846e-07
7.88229e-07
1.52068e-06
2.22926e-06
7.41555e-06
5.67204e-05
0.000240464
7.51508e-05
3.185e-07
1.55274e-09
2.23776e-09
4.61854e-09
4.71802e-09
4.85326e-09
7.5249e-09
6.90955e-08
1.39869e-06
0.00109028
0.00325348
0.00325348
0.00303821
4.71311e-05
7.17846e-07
7.61531e-07
1.93373e-05
7.50104e-05
2.07912e-06
1.26706e-05
6.00916e-05
5.24432e-05
7.57019e-08
1.56169e-09
1.54318e-09
2.50564e-09
5.56305e-09
3.67511e-09
6.68236e-09
2.48405e-07
5.32117e-07
9.03998e-07
0.000231423
0.00102765
0.00198301
0.000489884
5.78927e-06
9.21278e-07
2.30145e-06
1.57422e-06
1.44536e-08
4.00526e-09
1.07178e-07
1.69301e-07
1.59011e-09
1.64665e-09
2.13273e-09
1.8233e-09
4.55362e-09
5.0696e-09
5.60074e-10
4.31665e-09
1.49527e-06
2.79981e-06
8.84095e-07
8.9555e-07
9.93891e-07
8.71361e-06
1.93921e-06
1.80982e-06
9.39363e-07
1.76557e-06
1.59075e-09
1.59116e-09
1.59021e-09
1.59562e-09
1.62681e-09
2.56258e-09
3.41247e-09
3.25637e-09
1.55258e-09
5.8723e-10
5.10682e-10
4.88471e-10
5.22448e-10
7.22621e-10
5.33184e-09
1.08847e-07
8.34131e-07
9.56728e-07
8.01012e-07
2.57136e-07
5.56183e-07
1.53055e-07
6.51495e-07
1.50952e-07
1.59018e-09
1.61149e-09
2.83463e-09
2.84517e-09
3.32469e-09
3.42274e-09
3.14567e-09
1.5084e-09
7.37469e-10
5.10366e-10
4.33836e-10
3.00917e-10
2.31929e-10
8.23386e-09
3.31645e-08
2.92152e-08
1.06982e-07
9.97807e-08
3.99585e-08
1.77179e-07
4.26953e-08
3.72971e-09
3.63533e-09
3.57539e-09
3.76497e-09
3.76512e-09
3.08537e-09
2.52859e-09
3.082e-09
3.11611e-09
2.55858e-09
1.60959e-09
7.14882e-10
4.06617e-10
2.97114e-10
2.07303e-10
1.77941e-10
1.98344e-10
4.87666e-09
7.68245e-09
5.59175e-09
7.6432e-09
4.1364e-08
2.58068e-07
3.77976e-09
3.88335e-09
3.72047e-09
3.75707e-09
2.78044e-09
1.90948e-09
1.88879e-09
2.41494e-09
2.76925e-09
2.75503e-09
2.57521e-09
1.1915e-09
5.33442e-10
2.97458e-10
2.06819e-10
1.70106e-10
1.75357e-10
3.10533e-10
4.18517e-10
3.56153e-10
1.43592e-09
7.3356e-09
5.64939e-09
5.14756e-09
5.01121e-08
3.44498e-08
1.77086e-09
1.70644e-09
1.64035e-09
1.41107e-09
1.41639e-09
1.95771e-09
2.35893e-09
2.24026e-09
1.53109e-09
7.84079e-10
4.01306e-10
1.98921e-10
1.12258e-10
8.7103e-11
7.61818e-11
9.74639e-11
1.69697e-10
2.47733e-10
9.01059e-10
1.13749e-05
2.28355e-07
4.94106e-08
1.28428e-07
6.05408e-09
2.01647e-09
1.55648e-09
1.29182e-09
1.14503e-09
1.07579e-09
1.1159e-09
1.14756e-09
1.12391e-09
8.4851e-10
4.91344e-10
2.27492e-10
1.02492e-10
6.67188e-11
5.39159e-11
4.93401e-11
4.5227e-11
1.37184e-10
4.74078e-10
3.10702e-05
3.12421e-05
9.5049e-07
1.77904e-09
1.7368e-09
3.18976e-09
1.66288e-09
1.53928e-09
1.1738e-09
9.78268e-10
9.05621e-10
8.27648e-10
7.4237e-10
5.75922e-10
3.65332e-10
1.94455e-10
9.73913e-11
6.47402e-11
4.30961e-11
3.05361e-11
2.85978e-11
2.66634e-11
7.32293e-11
2.60116e-05
3.60873e-05
3.34678e-05
9.37462e-07
1.70743e-09
1.69192e-09
1.76805e-09
1.81016e-09
1.47587e-09
9.45377e-10
7.75709e-10
6.64024e-10
5.50054e-10
4.02067e-10
2.47234e-10
1.33724e-10
8.43961e-11
5.51069e-11
3.20938e-11
2.11382e-11
1.54923e-11
1.43327e-11
1.60954e-11
2.47875e-06
3.61867e-05
3.61867e-05
6.92595e-06
2.97741e-08
1.61735e-09
1.6578e-09
1.7602e-09
1.54021e-09
9.88879e-10
6.45813e-10
4.63144e-10
3.31956e-10
2.20326e-10
1.37642e-10
9.57562e-11
6.16161e-11
3.40515e-11
2.19526e-11
1.50736e-11
1.05605e-11
7.58801e-12
6.42677e-12
7.65521e-09
1.58463e-05
1.08487e-05
3.78234e-06
4.67707e-07
1.2291e-09
1.145e-09
1.14065e-09
1.08591e-09
7.81868e-10
4.83468e-10
2.81854e-10
1.72294e-10
1.20469e-10
9.14977e-11
5.05896e-11
3.13939e-11
2.10663e-11
1.43535e-11
9.69579e-12
6.46721e-12
4.38409e-12
3.02649e-12
2.70409e-10
7.61028e-09
9.60493e-09
5.60844e-08
1.24132e-07
4.02201e-08
2.73644e-09
1.03357e-09
7.10562e-10
4.64249e-10
2.46666e-10
1.77819e-10
1.05227e-10
6.42286e-11
4.08734e-11
2.67425e-11
1.77322e-11
1.17597e-11
7.74384e-12
5.04618e-12
3.25331e-12
2.10627e-12
1.39668e-12
6.36003e-11
2.44773e-10
3.82397e-10
2.10392e-10
2.27367e-10
2.29308e-09
1.3028e-09
8.08812e-10
4.64007e-10
2.30887e-10
1.15716e-10
7.31354e-11
4.77677e-11
3.15624e-11
2.09699e-11
1.38829e-11
9.08508e-12
5.85212e-12
3.70806e-12
2.31437e-12
1.4264e-12
8.71394e-13
5.50932e-13
6.13267e-11
5.94935e-11
7.43282e-11
1.34459e-10
2.04596e-10
3.93833e-10
4.2718e-10
3.3188e-10
1.56909e-10
8.65784e-11
5.44515e-11
3.57793e-11
2.38567e-11
1.58373e-11
1.03392e-11
6.60054e-12
4.11582e-12
2.51015e-12
1.50112e-12
8.82978e-13
5.12679e-13
2.95337e-13
1.72762e-13
3.55331e-11
3.89161e-11
6.06031e-11
1.34184e-10
2.02982e-10
1.97355e-10
1.38914e-10
8.81298e-11
5.73491e-11
3.82732e-11
2.56963e-11
1.70828e-11
1.11386e-11
7.0845e-12
4.38262e-12
2.63522e-12
1.54203e-12
8.80406e-13
4.92108e-13
2.70324e-13
1.46622e-13
7.92506e-14
4.40147e-14
1.77076e-11
4.61069e-11
5.93933e-11
7.46403e-11
7.76177e-11
6.63445e-11
5.03377e-11
3.60326e-11
2.48713e-11
1.67162e-11
1.09583e-11
6.99196e-12
4.32939e-12
2.59569e-12
1.50565e-12
8.4566e-13
4.60973e-13
2.44699e-13
1.27006e-13
6.47709e-14
3.27557e-14
1.69938e-14
1.04307e-14
6.25079e-12
2.04684e-11
2.83148e-11
3.14603e-11
2.98465e-11
2.50779e-11
1.90659e-11
1.35468e-11
9.18358e-12
5.99208e-12
3.77019e-12
2.28587e-12
1.33399e-12
7.48992e-13
4.0492e-13
2.11233e-13
1.06682e-13
5.23804e-14
2.51325e-14
1.19005e-14
5.79471e-15
3.53309e-15
4.11382e-15
1.76134e-12
6.62621e-12
9.65176e-12
1.06097e-11
9.77847e-12
7.93652e-12
5.87432e-12
4.07274e-12
2.67957e-12
1.68137e-12
1.00752e-12
5.76664e-13
3.15359e-13
1.64962e-13
8.27214e-14
3.98975e-14
1.85874e-14
8.40948e-15
3.73432e-15
1.71253e-15
1.0666e-15
1.50932e-15
3.68744e-15
4.23755e-13
1.70464e-12
2.45843e-12
2.64117e-12
2.38475e-12
1.90474e-12
1.38882e-12
9.41476e-13
5.98968e-13
3.59336e-13
2.03802e-13
1.0947e-13
5.57934e-14
2.70525e-14
1.25228e-14
5.559e-15
2.37969e-15
9.93456e-16
4.30205e-16
2.79957e-16
4.91388e-16
1.41577e-15
4.16301e-15
8.83256e-14
3.58272e-13
4.99843e-13
5.19934e-13
4.57707e-13
3.57739e-13
2.54188e-13
1.66538e-13
1.014e-13
5.76448e-14
3.07025e-14
1.53679e-14
7.25301e-15
3.24055e-15
1.37719e-15
5.60006e-16
2.20412e-16
9.01865e-17
6.18874e-17
1.33927e-16
4.4931e-16
1.49624e-15
4.64422e-15
1.59015e-14
6.24763e-14
8.27522e-14
8.25564e-14
7.00623e-14
5.28123e-14
3.6046e-14
2.25116e-14
1.29554e-14
6.90421e-15
3.42054e-15
1.58167e-15
6.85746e-16
2.80252e-16
1.08639e-16
4.04083e-17
1.55676e-17
1.10804e-17
2.88002e-17
1.11506e-16
4.21961e-16
1.49226e-15
4.91097e-15
2.44205e-15
9.1136e-15
1.12793e-14
1.06233e-14
8.57346e-15
6.14253e-15
3.96888e-15
2.33115e-15
1.25204e-15
6.17825e-16
2.81373e-16
1.1888e-16
4.68743e-17
1.73669e-17
6.11329e-18
2.19958e-18
1.53952e-18
4.59718e-18
2.04538e-17
8.84998e-17
3.58263e-16
1.35354e-15
4.77637e-15
3.18746e-16
1.11621e-15
1.27449e-15
1.12113e-15
8.49257e-16
5.70213e-16
3.43875e-16
1.87395e-16
9.26292e-17
4.17167e-17
1.72192e-17
6.56007e-18
2.32458e-18
7.74313e-19
2.57456e-19
1.61028e-19
5.11464e-19
2.59781e-18
1.29703e-17
6.07512e-17
2.64994e-16
1.07715e-15
4.09676e-15
3.5197e-17
1.15476e-16
1.20952e-16
9.86067e-17
6.94021e-17
4.31933e-17
2.39688e-17
1.19103e-17
5.32159e-18
2.15082e-18
7.92445e-19
2.6848e-19
8.45219e-20
2.57975e-20
1.2853e-20
3.75868e-20
2.11848e-19
1.2236e-18
6.74332e-18
3.45348e-17
1.63464e-16
7.1818e-16
2.95162e-15
3.27866e-18
1.01282e-17
9.75727e-18
7.34856e-18
4.76919e-18
2.71711e-18
1.36674e-18
6.09214e-19
2.41935e-19
8.63086e-20
2.79349e-20
8.29432e-21
2.32355e-21
8.63881e-22
1.81717e-21
1.043e-20
6.69713e-20
4.38917e-19
2.71079e-18
1.53246e-17
7.93869e-17
3.80143e-16
1.70013e-15
2.58844e-19
7.59692e-19
6.79779e-19
4.72883e-19
2.81728e-19
1.45449e-19
6.54173e-20
2.57505e-20
8.93813e-21
2.76572e-21
7.72601e-22
1.98864e-22
5.68285e-23
6.58605e-23
3.19526e-22
1.97218e-21
1.43834e-20
1.09789e-19
7.73168e-19
4.90901e-18
2.83076e-17
1.50061e-16
7.41242e-16
1.72815e-20
4.97417e-20
4.18082e-20
2.70651e-20
1.47388e-20
6.8516e-21
2.7214e-21
9.30135e-22
2.76722e-22
7.27207e-23
1.71943e-23
4.01861e-24
2.36693e-24
7.67163e-24
3.68521e-23
2.079e-22
1.80919e-21
1.66591e-20
1.37835e-19
1.01262e-18
6.67993e-18
4.01616e-17
2.23713e-16
9.88921e-22
2.86511e-21
2.30513e-21
1.40044e-21
7.01233e-22
2.91097e-22
1.00787e-22
2.93494e-23
7.30719e-24
1.58777e-24
3.16558e-25
1.03308e-25
1.98274e-25
6.87947e-25
2.3771e-24
9.7381e-24
1.04938e-22
1.22424e-21
1.2491e-20
1.11266e-19
8.7667e-19
6.20795e-18
4.02125e-17
4.97543e-23
1.46187e-22
1.15649e-22
6.713e-23
3.11304e-23
1.15234e-23
3.42508e-24
8.2795e-25
1.66499e-25
2.88799e-26
5.82788e-27
6.32804e-27
1.66984e-26
4.30499e-26
8.35167e-26
1.6142e-25
1.84679e-24
2.90044e-23
3.94416e-22
4.61987e-21
4.7174e-20
4.25904e-19
3.45795e-18
2.33118e-24
6.59834e-24
5.35088e-24
3.0523e-24
1.32069e-24
4.33109e-25
1.08069e-25
2.07644e-26
3.17006e-27
4.40774e-28
2.32662e-28
5.58623e-28
1.16019e-27
1.95165e-27
1.76857e-27
9.33192e-28
3.70922e-27
8.80068e-26
1.87889e-24
3.42163e-23
5.37754e-22
7.38775e-21
8.99318e-20
1.10947e-25
2.35264e-25
2.22859e-25
1.29129e-25
5.30809e-26
1.54612e-26
3.16169e-27
4.46688e-28
4.5268e-29
8.7037e-30
2.00233e-29
4.46473e-29
6.48517e-29
6.47399e-29
2.17176e-29
3.54382e-30
3.7312e-31
3.53806e-31
1.87852e-29
9.20771e-28
3.90393e-26
1.45623e-24
4.85688e-23
0.999544
0.999378
0.999404
0.999404
0.999172
0.999352
0.999383
0.999419
0.99759
0.995824
0.994654
0.997666
0.876095
0.843376
0.828028
0.716891
0.127479
0.0910112
0.050711
0.0163516
0.000387543
0.00032704
0.0005804
0.00647343
0.000340824
0.000247999
0.000611289
0.00129222
0.000128934
0.00018947
0.000537188
0.000671794
3.8272e-05
7.73706e-05
0.000331923
0.000391726
2.1865e-05
4.07227e-05
9.28064e-05
0.00018188
1.16643e-05
2.18451e-05
5.95015e-05
0.00023799
5.5596e-06
1.6866e-05
5.16998e-05
0.00010025
2.20769e-06
1.01301e-05
2.07458e-05
1.59522e-05
7.60233e-07
2.13223e-06
2.90273e-06
5.94706e-06
1.53798e-07
2.92301e-07
9.33772e-07
4.17304e-06
2.39999e-08
1.18035e-07
6.90592e-07
8.99532e-07
7.76987e-09
5.07492e-08
7.29444e-08
2.08153e-08
7.09392e-10
1.54625e-09
1.12152e-09
1.99205e-09
7.89409e-11
6.23478e-11
1.00486e-10
2.20107e-10
2.20374e-11
2.17013e-11
2.67391e-11
3.3829e-11
8.83212e-12
1.26037e-11
1.36633e-11
1.46024e-11
2.67048e-12
2.7455e-12
3.52371e-12
5.30069e-12
1.15916e-12
9.71132e-13
8.96264e-13
1.0046e-12
4.46414e-13
3.61161e-13
3.02489e-13
2.75633e-13
1.36262e-13
1.08602e-13
8.9823e-14
7.93545e-14
3.39713e-14
2.7543e-14
2.41575e-14
2.34261e-14
8.94472e-15
8.82908e-15
9.88385e-15
1.2133e-14
4.966e-15
6.47665e-15
8.78362e-15
1.20879e-14
5.16461e-15
7.27406e-15
1.02229e-14
1.42971e-14
5.96688e-15
8.5134e-15
1.20793e-14
1.69943e-14
6.72999e-15
9.70493e-15
1.39237e-14
1.9855e-14
7.21642e-15
1.0567e-14
1.54327e-14
2.24977e-14
7.13716e-15
1.06584e-14
1.59657e-14
2.40935e-14
6.23346e-15
9.53025e-15
1.47811e-14
2.34994e-14
4.57861e-15
7.21144e-15
1.17687e-14
2.02356e-14
2.69841e-15
4.4415e-15
7.85915e-15
1.51545e-14
1.21526e-15
2.15524e-15
4.33469e-15
9.71494e-15
3.87282e-16
7.82965e-16
1.88915e-15
5.01407e-15
7.76948e-17
1.96062e-16
5.89223e-16
1.86432e-15
8.65692e-18
3.06127e-17
1.16247e-16
4.57286e-16
4.20415e-19
2.28387e-18
1.14392e-17
6.58008e-17
1.06641e-21
1.46236e-20
1.98179e-19
3.70234e-18
0.999404
0.999052
0.888891
0.26083
0.229204
0.414262
0.431677
0.674687
0.729707
0.57888
0.482257
0.483821
0.481613
0.403247
0.187141
0.22948
0.358313
0.509829
0.412492
0.999072
0.932688
0.612964
0.146211
0.137225
0.246246
0.234771
0.148183
0.255647
0.44228
0.483824
0.449174
0.237468
0.157456
0.160929
0.160411
0.0872596
0.0868673
0.0837295
0.958279
0.478732
0.181085
0.0645935
0.0845502
0.186403
0.195542
0.0281262
0.0438508
0.232968
0.287734
0.172326
0.144438
0.144397
0.174573
0.203445
0.203533
0.0932118
0.0835373
0.229107
0.0469585
0.0169002
0.018346
0.0205365
0.0865269
0.080546
0.027365
0.0274582
0.0428751
0.142153
0.205081
0.205081
0.204973
0.204403
0.203863
0.203574
0.0927595
0.0835373
0.0359834
0.0175261
0.0112236
0.0145849
0.0185555
0.0205686
0.026121
0.0267744
0.0273354
0.0274105
0.0341523
0.13107
0.193444
0.143549
0.110217
0.142791
0.202382
0.165825
0.131991
0.00378513
0.00547893
0.00848229
0.0117561
0.0293669
0.0441385
0.0302611
0.0274127
0.0274632
0.0273826
0.0253147
0.0150376
0.00166193
0.00162535
0.0014435
0.0012567
0.0368332
0.0771488
0.0710526
0.00186105
0.00327241
0.0159237
0.0436049
0.0442731
0.0442553
0.0442838
0.0442476
0.0441753
0.0441036
0.025965
0.0202948
0.00630499
0.00195816
0.00204362
0.000620333
0.000162865
0.00432211
0.00361759
0.00120917
0.00600283
0.0384109
0.0409862
0.03442
0.0328113
0.0400381
0.0427051
0.0402316
0.0259113
0.0136647
0.00499695
0.00267118
0.0043588
0.00520636
0.000829995
9.35646e-05
0.000235654
0.00012301
0.000717004
0.00755274
0.0275565
0.0183439
0.000894676
0.000130604
6.73575e-06
8.83259e-06
1.31839e-05
1.64233e-05
2.09408e-05
2.30227e-05
2.47673e-05
2.81288e-05
0.000924207
0.000484509
8.80431e-05
0.000146818
0.000126204
0.00109586
0.00619552
0.00321617
0.000342077
1.94048e-05
5.78006e-06
6.6957e-06
7.78113e-06
1.01529e-05
1.3021e-05
1.64621e-05
2.45894e-05
3.83109e-05
4.51183e-05
5.26541e-05
0.000363317
8.72493e-05
8.72815e-05
8.81305e-05
0.000788684
0.000908636
0.000280731
2.65817e-05
6.08151e-06
5.11662e-06
8.78787e-06
8.2247e-05
8.08736e-05
2.79173e-05
5.51898e-05
0.000202616
0.000259635
0.000155781
7.0465e-05
9.23221e-05
8.72493e-05
8.72413e-05
9.11473e-05
0.000138599
0.000115795
7.91522e-05
1.28158e-05
5.11841e-06
5.00444e-06
4.98869e-06
1.83605e-05
6.40663e-05
5.98008e-05
0.000241167
0.000262207
0.000262405
0.00026205
0.000218453
8.84918e-05
8.72493e-05
0.00012241
0.00017653
2.2354e-05
3.55113e-05
2.14188e-05
5.75504e-06
5.0036e-06
4.96208e-06
4.962e-06
5.22622e-06
5.40741e-06
0.000106012
0.0002623
0.000262556
0.000262125
0.000259428
0.000254905
0.000158328
9.38283e-05
0.000175098
0.00017653
1.15307e-05
1.50704e-05
1.70271e-05
1.21038e-05
1.06304e-05
4.94837e-06
4.94837e-06
4.95957e-06
1.30207e-05
0.000253955
0.000262556
0.000262167
0.000136126
3.88992e-05
6.3194e-05
0.00014053
0.000144573
0.000129633
0.00014681
7.0756e-06
6.2881e-06
1.19822e-05
2.75913e-05
2.78744e-05
1.58013e-05
4.9608e-06
4.95958e-06
6.16286e-05
0.000260254
0.000262167
0.000110376
1.16116e-08
1.16123e-08
5.0926e-06
4.44856e-05
5.04462e-05
6.19873e-06
9.82704e-06
6.91893e-07
7.92925e-07
1.13765e-05
2.79536e-05
2.80127e-05
2.80187e-05
9.60129e-06
4.96011e-06
3.57588e-05
0.000250559
0.00019608
1.16114e-08
1.16056e-08
1.13626e-08
8.535e-09
1.18456e-08
3.60961e-08
5.10755e-06
0.000121957
3.3546e-08
8.51062e-08
6.02693e-06
2.79717e-05
2.79704e-05
2.8033e-05
2.79863e-05
1.13178e-05
4.04592e-05
4.74971e-05
5.56563e-06
1.16281e-08
1.1292e-08
1.04362e-08
6.79677e-09
9.29095e-09
4.44625e-08
4.668e-05
0.000123993
3.51726e-09
1.44874e-08
5.86024e-07
1.27447e-05
2.4508e-05
2.80517e-05
2.79871e-05
2.77873e-05
6.46616e-06
2.32103e-07
2.26982e-07
2.24716e-07
2.88059e-07
1.33486e-07
1.77965e-09
1.1116e-07
9.52862e-07
0.000108793
0.000123993
3.93659e-10
1.43614e-09
6.54375e-09
9.97239e-08
1.96298e-06
1.01604e-05
1.58254e-05
9.31078e-06
1.24224e-06
3.6377e-07
5.28816e-07
1.36928e-06
1.38561e-06
9.14261e-07
1.30034e-09
1.13013e-09
5.74349e-10
0.000119587
0.000123945
4.14692e-11
1.2204e-10
5.51584e-10
5.71736e-09
1.34933e-08
3.29547e-08
8.93804e-08
2.94328e-08
1.23427e-06
4.17332e-07
3.72262e-07
1.37747e-06
1.38553e-06
3.10707e-07
1.72607e-09
1.77947e-09
5.59757e-10
2.3336e-05
0.000123665
1.18324e-11
1.91665e-11
7.02673e-11
4.29469e-10
1.02496e-09
2.33151e-09
2.77148e-09
1.91123e-09
8.64695e-07
8.71519e-07
3.83226e-07
2.94092e-07
2.19605e-07
2.39896e-08
3.65784e-09
3.61695e-09
5.46934e-10
5.48077e-10
0.000123658
9.23452e-12
1.07911e-11
1.66447e-11
5.00759e-11
1.0089e-10
1.7543e-10
1.95813e-10
1.45742e-10
1.12361e-07
8.71519e-07
6.71826e-07
4.09248e-08
4.15582e-09
4.01941e-09
4.15701e-09
2.64982e-09
4.17352e-10
4.62579e-10
7.86916e-05
1.59416e-12
4.52243e-12
1.00111e-11
1.40074e-11
1.95268e-11
2.57638e-11
3.12629e-11
3.00605e-11
1.46002e-10
1.42026e-07
4.8254e-07
3.30419e-07
4.20392e-08
2.22306e-09
2.11645e-09
9.0672e-10
3.97899e-10
4.17511e-10
1.70083e-06
3.24912e-13
8.67663e-13
2.99357e-12
9.5695e-12
8.7171e-12
1.26264e-11
1.77852e-11
2.17247e-11
3.09272e-11
1.99618e-10
3.85253e-08
2.14163e-07
1.83758e-07
2.96288e-08
4.54141e-10
4.00495e-10
3.82147e-10
5.00638e-08
1.47667e-06
8.97746e-14
1.99531e-13
6.47834e-13
2.42995e-12
5.32902e-12
1.00824e-11
1.56328e-11
1.90463e-11
2.19091e-11
3.45097e-11
8.70788e-11
1.09601e-08
3.28725e-08
2.22329e-08
3.93766e-09
3.71026e-10
3.69005e-10
1.17412e-05
4.83431e-05
3.80675e-14
9.09084e-14
2.55294e-13
7.882e-13
2.02943e-12
4.39348e-12
8.30763e-12
1.3669e-11
2.37389e-11
2.6659e-11
3.85239e-11
5.66093e-11
8.1655e-11
3.94758e-10
3.98564e-10
3.60561e-10
3.60791e-10
2.8873e-05
6.9456e-05
3.05997e-14
8.00957e-14
2.08958e-13
5.42301e-13
1.32685e-12
2.93172e-12
5.90607e-12
1.08139e-11
1.95871e-11
3.24259e-11
4.02356e-11
4.63351e-11
6.98521e-11
1.50531e-10
3.58375e-10
3.48277e-10
3.53307e-10
2.73943e-05
6.95495e-05
3.43463e-14
9.06815e-14
2.2919e-13
5.56235e-13
1.27363e-12
2.69826e-12
5.29847e-12
9.71194e-12
1.72479e-11
2.8921e-11
4.48165e-11
6.9465e-11
1.0589e-10
1.60535e-10
3.37403e-10
3.39228e-10
3.44961e-10
1.82703e-05
6.97166e-05
4.13961e-14
1.09107e-13
2.70887e-13
6.37008e-13
1.40152e-12
2.85663e-12
5.41051e-12
9.65164e-12
1.66379e-11
2.77601e-11
4.46105e-11
7.00456e-11
1.02053e-10
1.55928e-10
4.40565e-10
3.56771e-10
3.53307e-10
2.9743e-05
6.9789e-05
5.08441e-14
1.3483e-13
3.28732e-13
7.51093e-13
1.60007e-12
3.15569e-12
5.78936e-12
1.00403e-11
1.68283e-11
2.75155e-11
4.38295e-11
6.80892e-11
9.43901e-11
2.14512e-10
9.54456e-10
6.63249e-10
3.61408e-10
4.27446e-05
6.9789e-05
6.45309e-14
1.74938e-13
4.15149e-13
9.07767e-13
1.85363e-12
3.52056e-12
6.23819e-12
1.04754e-11
1.70114e-11
2.71851e-11
4.32543e-11
7.15809e-11
1.26542e-10
5.17288e-10
1.6429e-09
8.78388e-10
3.771e-10
4.37501e-05
6.9789e-05
8.64471e-14
2.46872e-13
5.705e-13
1.18003e-12
2.27928e-12
4.12845e-12
7.01252e-12
1.12968e-11
1.76017e-11
2.74501e-11
4.55711e-11
9.95199e-11
2.05855e-10
1.26602e-09
2.01114e-09
8.86534e-10
3.94831e-06
4.95329e-05
5.27225e-05
1.19673e-13
3.72273e-13
8.63325e-13
1.73148e-12
3.20395e-12
5.54518e-12
9.01733e-12
1.39138e-11
2.08149e-11
3.20485e-11
6.29057e-11
1.47766e-10
2.97722e-10
2.36752e-09
2.89028e-09
9.12929e-10
1.306e-05
4.95853e-05
3.01951e-05
1.56977e-13
5.44837e-13
1.3342e-12
2.73648e-12
5.00873e-12
8.35342e-12
1.2969e-11
1.91624e-11
2.75512e-11
4.09157e-11
8.26056e-11
1.6287e-10
4.95303e-10
3.05298e-09
3.03638e-09
9.65584e-10
9.64512e-07
4.95718e-05
3.15145e-05
1.80062e-13
6.95157e-13
1.88566e-12
4.21822e-12
7.99696e-12
1.30062e-11
1.88693e-11
2.61501e-11
3.8058e-11
5.6762e-11
1.23845e-10
2.65548e-10
1.02878e-09
3.06112e-09
2.93246e-09
1.03345e-09
1.08775e-09
2.31661e-05
1.51269e-05
1.71708e-13
7.2476e-13
2.2527e-12
5.84082e-12
1.23783e-11
2.07161e-11
2.90121e-11
3.70684e-11
5.40126e-11
1.21071e-10
4.50562e-10
1.01584e-09
1.68286e-09
2.62471e-09
1.46262e-09
1.03597e-09
1.65574e-07
8.66646e-08
5.07017e-08
1.3136e-13
6.0867e-13
2.23002e-12
6.97593e-12
1.80576e-11
3.46886e-11
5.16904e-11
6.45466e-11
8.31844e-11
2.93033e-10
1.06521e-09
1.58867e-09
1.68665e-09
1.22452e-09
9.61574e-10
1.0026e-09
4.68778e-08
5.29244e-08
3.66861e-08
7.60614e-14
4.03241e-13
1.79757e-12
6.92372e-12
2.22574e-11
5.2576e-11
8.7183e-11
1.13765e-10
1.38394e-10
3.65517e-10
1.02336e-09
1.19829e-09
8.49731e-10
7.40966e-10
7.44486e-10
1.77365e-06
2.69143e-06
2.78101e-07
3.38642e-08
3.05462e-14
2.0188e-13
1.11496e-12
5.23148e-12
2.13111e-11
5.72651e-11
1.16807e-10
1.65544e-10
2.03871e-10
3.17261e-10
5.64757e-10
3.91412e-10
3.12548e-10
2.18175e-07
2.14477e-06
3.40856e-06
3.41328e-06
8.81601e-07
2.73782e-08
8.03319e-15
7.55795e-14
5.70524e-13
3.13478e-12
1.54584e-11
4.59458e-11
1.0931e-10
1.9728e-10
2.38341e-10
3.02734e-10
3.16305e-10
3.13122e-10
3.13602e-10
1.10214e-06
3.40856e-06
3.41404e-06
3.41326e-06
9.52761e-07
2.02973e-08
1.30098e-15
2.04842e-14
2.18854e-13
1.52318e-12
8.20353e-12
2.60757e-11
8.07104e-11
2.29256e-10
4.85479e-10
4.05789e-10
3.65934e-10
1.04717e-09
3.12546e-10
3.46613e-07
2.72038e-06
3.40856e-06
3.02995e-06
4.33764e-07
1.71907e-08
1.10176e-16
3.32463e-15
5.12664e-14
4.66889e-13
3.34698e-12
1.27126e-11
6.36042e-11
1.96766e-10
5.73223e-10
7.24455e-10
8.54032e-10
3.01948e-09
3.74517e-09
4.35283e-09
1.85985e-07
1.06031e-06
3.11729e-07
2.78744e-08
1.71896e-08
)
;

boundaryField
{
    leftWall
    {
        type            zeroGradient;
    }
    rightWall
    {
        type            zeroGradient;
    }
    lowerWall
    {
        type            zeroGradient;
    }
    atmosphere
    {
        type            inletOutlet;
        inletValue      uniform 0;
        value           nonuniform List<scalar> 
46
(
0
0
0
0
0
0
0
0
0
0
0
0
0
0
0
0
0
0
0
0
0
0
0
0
0
0
0
0
0
0
0
3.34698e-12
1.27126e-11
6.36042e-11
1.96766e-10
5.73223e-10
7.24455e-10
8.54032e-10
3.01948e-09
3.74517e-09
4.35283e-09
1.85985e-07
1.06031e-06
3.11729e-07
2.78744e-08
1.71896e-08
)
;
    }
    defaultFaces
    {
        type            empty;
    }
}


// ************************************************************************* //
