/*--------------------------------*- C++ -*----------------------------------*\
| =========                 |                                                 |
| \\      /  F ield         | OpenFOAM: The Open Source CFD Toolbox           |
|  \\    /   O peration     | Version:  2.3.0                                 |
|   \\  /    A nd           | Web:      www.OpenFOAM.org                      |
|    \\/     M anipulation  |                                                 |
\*---------------------------------------------------------------------------*/
FoamFile
{
    version     2.0;
    format      ascii;
    class       volScalarField;
    location    "1.55";
    object      epsilon;
}
// * * * * * * * * * * * * * * * * * * * * * * * * * * * * * * * * * * * * * //

dimensions      [0 2 -3 0 0 0 0];

internalField   nonuniform List<scalar> 
2268
(
0.01191
0.0735376
0.145227
0.208155
0.259196
0.299833
0.332024
0.357799
0.378538
0.394954
0.407326
0.4157
0.420028
0.419953
0.413922
0.401956
0.392338
0.383863
0.372941
0.349802
0.297137
0.199556
0.055819
0.0206828
0.0468937
0.0750987
0.0991221
0.118714
0.134286
0.146599
0.156443
0.164401
0.17084
0.175968
0.179912
0.182766
0.184588
0.185421
0.186338
0.189908
0.195126
0.20066
0.20203
0.190341
0.152914
0.10693
0.0368685
0.0514524
0.0711553
0.0881562
0.101953
0.112836
0.121448
0.128402
0.134124
0.138874
0.14281
0.146039
0.148658
0.150787
0.152662
0.154995
0.159115
0.165112
0.172491
0.178652
0.177309
0.161888
0.183531
0.0557932
0.0619055
0.0777943
0.091973
0.103434
0.112399
0.119515
0.125345
0.130233
0.134372
0.137881
0.140846
0.143352
0.145533
0.147647
0.150247
0.154198
0.160055
0.16789
0.176355
0.181442
0.183079
0.268181
0.0777205
0.0755493
0.0889185
0.101466
0.11156
0.119381
0.125631
0.130846
0.135299
0.139125
0.142405
0.145207
0.147606
0.149731
0.151835
0.15438
0.15804
0.163622
0.171649
0.181915
0.193048
0.212719
0.367891
0.103025
0.0914604
0.102765
0.114173
0.123287
0.130277
0.135927
0.140749
0.144935
0.14856
0.151676
0.154331
0.156594
0.158586
0.160548
0.162897
0.166227
0.171505
0.179666
0.191647
0.209334
0.250597
0.49261
0.132946
0.109151
0.118435
0.128948
0.137296
0.143632
0.148844
0.153406
0.157414
0.160882
0.16384
0.16633
0.168411
0.170203
0.171935
0.174008
0.177006
0.181956
0.19023
0.203826
0.228437
0.295234
0.658281
0.168313
0.128149
0.135313
0.145098
0.152848
0.158675
0.163577
0.167975
0.171847
0.175147
0.177908
0.180177
0.182016
0.183545
0.184985
0.186738
0.189421
0.194053
0.202399
0.217229
0.247727
0.339929
0.944936
0.0582309
0.281275
0.511258
0.722081
0.86401
0.861361
0.767245
0.660355
0.580898
0.526913
0.485163
0.46278
0.442099
0.394716
0.351922
0.290005
0.201051
0.11569
0.0411079
0.0731267
0.190498
0.277924
0.345807
0.385166
0.381591
0.353422
0.324685
0.307401
0.297929
0.288257
0.276159
0.256266
0.231484
0.202664
0.166611
0.123657
0.083431
0.0595634
0.127896
0.23067
0.290409
0.323683
0.334322
0.318493
0.293031
0.273858
0.26439
0.257783
0.250673
0.243259
0.229258
0.209497
0.184336
0.153899
0.120666
0.0928872
0.0905267
0.205913
0.318617
0.359292
0.366058
0.351179
0.317466
0.284288
0.264049
0.255083
0.249608
0.242785
0.234903
0.22408
0.206928
0.183942
0.156312
0.127505
0.106141
0.119691
0.343739
0.463085
0.475458
0.449625
0.400657
0.34059
0.29353
0.267817
0.257723
0.253377
0.246606
0.236474
0.225797
0.210138
0.188853
0.163629
0.137603
0.120391
0.14781
0.603903
0.664703
0.634758
0.573042
0.477047
0.379145
0.312545
0.278797
0.266966
0.263004
0.256104
0.243961
0.231148
0.216033
0.196203
0.173016
0.149488
0.135576
0.177995
1.07147
0.877261
0.793501
0.726126
0.578317
0.430356
0.338806
0.294872
0.280316
0.275752
0.268402
0.255301
0.239307
0.223721
0.205095
0.183586
0.16262
0.152459
0.215986
1.77132
1.02232
0.900243
0.858165
0.695146
0.492197
0.371075
0.314758
0.296115
0.289959
0.281831
0.268677
0.250339
0.232898
0.21507
0.1951
0.176852
0.172103
0.273562
0.221728
0.157154
0.161638
0.170633
0.177782
0.183088
0.187693
0.191923
0.195549
0.19847
0.200784
0.202597
0.204
0.205126
0.206202
0.207651
0.210157
0.21457
0.222901
0.238494
0.271855
0.358384
0.640366
0.320887
0.204297
0.202548
0.210695
0.217566
0.222422
0.226699
0.230483
0.233052
0.234349
0.234899
0.23511
0.235182
0.235267
0.235564
0.23648
0.238748
0.243111
0.250418
0.2637
0.289672
0.345687
0.47169
0.419734
0.257532
0.251495
0.260331
0.267544
0.271741
0.275219
0.277814
0.277489
0.274405
0.270562
0.267195
0.264613
0.262869
0.262016
0.262361
0.264571
0.269262
0.276831
0.289399
0.312429
0.356181
0.434237
0.510141
0.321647
0.320485
0.331483
0.338076
0.339763
0.341182
0.342159
0.335811
0.322549
0.309247
0.299028
0.29186
0.287216
0.284739
0.28455
0.287283
0.293457
0.303551
0.319848
0.348536
0.40212
0.497572
0.70552
0.423539
0.438613
0.442946
0.44007
0.43373
0.434808
0.440284
0.424038
0.38705
0.35417
0.332162
0.318064
0.30939
0.304822
0.304225
0.308559
0.318282
0.333557
0.358244
0.402253
0.486079
0.639933
0.647632
0.500782
0.51819
0.528356
0.5073
0.480491
0.477387
0.495163
0.529713
0.476393
0.405615
0.365609
0.342704
0.329378
0.32255
0.321675
0.328829
0.343861
0.365785
0.399597
0.463047
0.593433
0.843788
0.525318
0.492065
0.494163
0.502661
0.49557
0.485713
0.485876
0.499074
0.541159
0.527402
0.451463
0.39548
0.362835
0.344563
0.335841
0.335388
0.344142
0.361342
0.386295
0.427376
0.509355
0.684042
1.01939
0.496769
0.49244
0.488132
0.495989
0.503144
0.511774
0.517537
0.516057
0.533393
0.532408
0.477311
0.420179
0.381086
0.358348
0.347944
0.349059
0.361837
0.381398
0.405654
0.448332
0.540254
0.740637
1.09398
0.689796
0.553156
0.521267
0.518045
0.526526
0.547786
0.554502
0.536121
0.543627
0.546549
0.501073
0.441321
0.395763
0.369491
0.357579
0.359533
0.375223
0.398798
0.423629
0.462291
0.550376
0.727876
1.00874
0.983259
0.618775
0.562035
0.546112
0.540361
0.547317
0.54471
0.532807
0.546863
0.544305
0.498726
0.440071
0.395658
0.369847
0.358465
0.36061
0.376047
0.399364
0.426884
0.468857
0.551818
0.697288
0.908165
1.2533
0.629165
0.550847
0.52574
0.510129
0.504139
0.499082
0.49577
0.501421
0.490278
0.452381
0.408708
0.375726
0.356201
0.348525
0.35225
0.367112
0.391408
0.423839
0.470625
0.548787
0.670519
0.828795
1.45966
0.645757
0.523822
0.482395
0.461395
0.450507
0.443069
0.437605
0.433147
0.41934
0.394065
0.367213
0.346935
0.335435
0.332633
0.338692
0.353967
0.378788
0.414806
0.466047
0.540228
0.643215
0.767863
1.46846
0.631964
0.493339
0.440996
0.413892
0.398209
0.387308
0.378426
0.369673
0.357549
0.34213
0.327554
0.317338
0.312811
0.314384
0.322616
0.338388
0.363007
0.39884
0.449351
0.518067
0.606521
0.708902
1.36031
0.588793
0.453367
0.398607
0.368945
0.350657
0.337768
0.327542
0.318544
0.309652
0.301154
0.294549
0.291135
0.291562
0.296282
0.305999
0.321831
0.345393
0.378919
0.424999
0.485631
0.560627
0.643773
1.18927
0.525428
0.405783
0.355522
0.327232
0.309148
0.296444
0.286923
0.279592
0.273985
0.270151
0.268454
0.269231
0.272734
0.279334
0.289719
0.304986
0.326643
0.356506
0.396324
0.447006
0.507541
0.572549
0.994371
0.453475
0.355304
0.313457
0.289284
0.273486
0.262523
0.254838
0.249735
0.246878
0.246101
0.247313
0.250465
0.255612
0.263028
0.273289
0.287305
0.306262
0.331448
0.363911
0.403933
0.450246
0.498741
0.793724
0.380172
0.30583
0.273912
0.255065
0.242533
0.233986
0.228444
0.225429
0.224627
0.225763
0.228582
0.232899
0.238679
0.246099
0.255582
0.267791
0.283542
0.303653
0.328685
0.358639
0.392334
0.426913
0.637914
0.315603
0.260436
0.237782
0.22417
0.214965
0.208819
0.20521
0.203831
0.204399
0.206608
0.210166
0.214854
0.220591
0.22747
0.235764
0.2459
0.258389
0.273703
0.292126
0.313584
0.337135
0.360938
0.497652
0.260168
0.220631
0.205178
0.196052
0.189722
0.18559
0.183469
0.183194
0.18453
0.187196
0.190913
0.195469
0.20076
0.206811
0.213773
0.221892
0.231463
0.242748
0.255895
0.270856
0.28696
0.303099
0.362936
0.21033
0.185513
0.17595
0.170236
0.166177
0.163571
0.162469
0.16282
0.164459
0.167155
0.170668
0.174807
0.17946
0.184605
0.190307
0.196692
0.203922
0.212144
0.221452
0.231852
0.242933
0.254053
0.255148
0.168356
0.154474
0.149583
0.146408
0.144134
0.142642
0.142182
0.142813
0.144448
0.146918
0.150033
0.153631
0.157603
0.1619
0.166536
0.171566
0.177075
0.183155
0.189881
0.197289
0.205247
0.213331
0.173431
0.131221
0.12661
0.125697
0.124726
0.123778
0.123102
0.123039
0.123748
0.125221
0.12735
0.13
0.133043
0.13638
0.139954
0.143749
0.147787
0.152114
0.156793
0.161893
0.167478
0.173577
0.179934
0.117546
0.101132
0.102948
0.104892
0.105555
0.105535
0.105455
0.105653
0.106352
0.107611
0.109384
0.111585
0.114124
0.116913
0.119899
0.123056
0.12639
0.12993
0.133726
0.137845
0.142364
0.147355
0.15275
0.0864993
0.079844
0.0845153
0.0878123
0.0893606
0.0898962
0.0901716
0.0905312
0.0912048
0.0922781
0.0937482
0.095567
0.097672
0.100004
0.102517
0.10519
0.108021
0.111031
0.114263
0.117779
0.121656
0.125969
0.130756
0.0722916
0.0654346
0.0704013
0.0740319
0.0759788
0.0768789
0.0773812
0.0778751
0.0785542
0.0795086
0.0807587
0.0822851
0.0840513
0.0860196
0.0881596
0.0904551
0.0929066
0.0955324
0.0983703
0.101476
0.104919
0.108773
0.113091
0.0662564
0.0553805
0.0592895
0.0627399
0.0648838
0.0660879
0.0668566
0.0675372
0.0682954
0.069221
0.0703495
0.0716832
0.0732076
0.0749034
0.0767549
0.0787547
0.0809076
0.083232
0.085762
0.0885466
0.091647
0.0951278
0.0990386
0.0633353
0.0481082
0.0505137
0.0535035
0.0557002
0.0571758
0.0582673
0.0591972
0.0601112
0.0610968
0.0621997
0.0634377
0.0648134
0.0663231
0.0679634
0.069736
0.0716506
0.073727
0.0759968
0.0785033
0.0812993
0.0844415
0.0879767
0.061319
0.0428762
0.0437235
0.0461209
0.048274
0.0499824
0.0513585
0.0525444
0.0536518
0.054757
0.0559074
0.0571292
0.0584361
0.0598355
0.0613336
0.0629393
0.0646669
0.0665377
0.0685818
0.070838
0.0733522
0.0761739
0.0793462
0.0598362
0.0391786
0.0387993
0.0405944
0.0425851
0.0443794
0.0459455
0.0473408
0.048633
0.0498778
0.0511154
0.052373
0.0536689
0.0550165
0.0564282
0.0579178
0.0595026
0.0612053
0.0630546
0.0650858
0.0673398
0.0698598
0.0726858
0.0589004
0.0365805
0.0353186
0.0366221
0.0384125
0.0402021
0.0418711
0.0434131
0.044855
0.0462288
0.0475627
0.0488794
0.0501967
0.0515299
0.052894
0.0543051
0.0557822
0.0573483
0.0590308
0.0608623
0.0628793
0.0651207
0.0676233
0.0586617
0.0348676
0.0329844
0.0339313
0.0355485
0.0372987
0.0390137
0.0406464
0.0421938
0.043668
0.045085
0.0464602
0.0478083
0.0491437
0.0504809
0.0518366
0.0532297
0.0546826
0.0562214
0.0578758
0.0596791
0.0616664
0.0638719
0.0594198
0.0340232
0.0316914
0.0323984
0.0338864
0.0355874
0.0373094
0.0389839
0.04059
0.0421257
0.0435971
0.0450127
0.0463829
0.0477189
0.0490338
0.0503429
0.0516639
0.0530177
0.0544286
0.0559237
0.0575333
0.0592891
0.061223
0.0617137
0.03424
0.0315326
0.0320657
0.0334438
0.0350761
0.0367624
0.0384262
0.0400381
0.0415879
0.043074
0.044499
0.0458684
0.0471899
0.0484737
0.0497326
0.0509825
0.0522421
0.0535332
0.0548805
0.0563111
0.0578538
0.0595379
0.0664298
0.0359566
0.0328019
0.0331315
0.0343536
0.0358555
0.0374371
0.0390215
0.0405752
0.0420821
0.0435342
0.0449282
0.0462642
0.0475458
0.0487796
0.0499754
0.0511463
0.0523083
0.0534807
0.0546852
0.0559459
0.0572884
0.0587393
0.0749081
0.0398988
0.0359873
0.0359232
0.0368327
0.0380718
0.0394376
0.0408495
0.0422669
0.0436651
0.0450275
0.0463436
0.0476073
0.048817
0.0499752
0.0510881
0.0521655
0.0532205
0.0542694
0.0553307
0.0564253
0.0575756
0.058805
0.0890673
0.0471109
0.0417432
0.0408435
0.041128
0.0418828
0.0428751
0.043999
0.0451917
0.0464106
0.0476252
0.0488143
0.0499641
0.0510668
0.0521203
0.0531267
0.0540923
0.055027
0.0559437
0.0568578
0.0577865
0.0587488
0.059764
0.111729
0.0590027
0.0508185
0.0482686
0.0474275
0.0473947
0.0478269
0.0485419
0.0494251
0.0503997
0.0514132
0.0524298
0.0534261
0.0543878
0.0553074
0.0561831
0.0570175
0.0578171
0.0585915
0.0593525
0.0601139
0.0608904
0.0616975
0.147642
0.0774566
0.0638827
0.0583584
0.0557282
0.0545834
0.0542938
0.0545116
0.0550286
0.0557153
0.0564897
0.0572992
0.0581103
0.058902
0.0596623
0.0603855
0.0610711
0.0617222
0.062345
0.062948
0.0635413
0.0641355
0.0647412
0.206832
0.105025
0.0811064
0.0707343
0.0656722
0.0632271
0.0621774
0.0618985
0.0620519
0.0624463
0.06297
0.063556
0.0641629
0.0647654
0.0653484
0.0659035
0.0664274
0.0669206
0.0673865
0.0678302
0.0682582
0.0686771
0.0690928
0.317835
0.144912
0.101093
0.0839923
0.0764132
0.0729018
0.0713084
0.070679
0.0705557
0.0707045
0.0709992
0.0713681
0.0717691
0.0721766
0.072575
0.0729553
0.0733128
0.0736461
0.0739563
0.0742458
0.074518
0.0747761
0.0750217
0.585576
0.195402
0.118067
0.095178
0.086687
0.0831262
0.0815567
0.0808868
0.080657
0.0806549
0.0807736
0.0809553
0.0811671
0.0813892
0.0816094
0.0818201
0.0820173
0.0821989
0.0823645
0.0825149
0.082651
0.0827738
0.0828824
1.60553
0.212812
0.11724
0.100311
0.0955053
0.0937602
0.0930328
0.0927149
0.0925854
0.092551
0.0925669
0.0926097
0.0926662
0.0927286
0.0927918
0.0928527
0.0929094
0.0929609
0.0930067
0.0930467
0.093081
0.0931096
0.0931317
1.70597
1.49619
1.41361
1.59332
0.610011
0.653571
0.68476
0.73724
0.513786
0.583813
0.667575
0.768964
0.612147
0.720941
0.854177
1.01284
0.833473
1.015
1.23265
1.47844
1.17504
1.50026
1.84155
2.09605
1.41709
1.70605
1.95522
2.1133
1.39369
1.56108
1.69842
1.79244
1.23492
1.35319
1.44087
1.49504
1.07186
1.15764
1.22201
1.26246
0.951218
1.01778
1.06868
1.10126
0.864077
0.916481
0.956446
0.981934
0.785664
0.827058
0.858329
0.878
0.704463
0.73707
0.761532
0.776602
0.619045
0.644084
0.662918
0.674525
0.532882
0.551382
0.565453
0.574293
0.450952
0.464093
0.474246
0.480801
0.377342
0.38641
0.393554
0.398324
0.314198
0.320433
0.325473
0.328997
0.261776
0.266217
0.269942
0.272721
0.21908
0.222491
0.225489
0.227909
0.184606
0.187474
0.190118
0.192419
0.156845
0.159436
0.161922
0.164213
0.134488
0.136921
0.139322
0.141626
0.116544
0.118846
0.121161
0.123443
0.102222
0.104378
0.106576
0.108782
0.0908707
0.0928592
0.0949046
0.0969835
0.0819481
0.0837516
0.0856208
0.0875377
0.0750039
0.0766158
0.0782981
0.0800346
0.0696732
0.0711004
0.0725928
0.0741441
0.0656732
0.0669266
0.0682387
0.0696065
0.0627957
0.0638879
0.0650315
0.0662248
0.0608998
0.0618426
0.0628291
0.0638589
0.0599046
0.0607078
0.0615471
0.0624228
0.059784
0.0604551
0.061155
0.0618843
0.0605641
0.0611088
0.0616748
0.0622629
0.0623244
0.0627472
0.0631838
0.0636349
0.0652018
0.0655081
0.0658208
0.0661397
0.0693984
0.0695968
0.0697945
0.0699905
0.0751917
0.0752971
0.0753963
0.0754873
0.0829486
0.082985
0.0830137
0.0830318
0.0931413
0.0931443
0.0931436
0.0931379
1.05938
0.961446
0.985428
1.00397
0.870547
0.599289
0.428117
0.350391
0.322945
0.312337
0.302275
0.289022
0.270466
0.250985
0.23236
0.214446
0.200357
0.205334
0.369406
0.834997
0.997802
1.12882
1.15821
1.03409
0.731397
0.507313
0.404854
0.359895
0.335658
0.319913
0.307919
0.296321
0.281902
0.265064
0.246904
0.228881
0.247988
0.56062
0.970239
1.24478
1.39644
1.32762
1.18145
0.849713
0.57501
0.446102
0.390056
0.350546
0.327075
0.315546
0.311213
0.301513
0.285959
0.267636
0.24392
0.253106
0.562142
1.32151
1.74693
1.80005
1.48689
1.35584
0.956994
0.627409
0.472075
0.404905
0.362219
0.331089
0.315016
0.307806
0.297065
0.282812
0.267455
0.237973
0.238958
0.465899
1.91248
2.30436
1.96543
1.60962
1.42515
0.989728
0.649976
0.50086
0.427491
0.372985
0.336998
0.314948
0.302995
0.29331
0.283665
0.27278
0.237978
0.227307
0.348004
2.45747
2.30549
1.78333
1.53599
1.25467
0.878445
0.623097
0.508927
0.444923
0.388363
0.343336
0.315659
0.304226
0.301064
0.304774
0.316116
0.265693
0.232329
0.26838
2.23766
1.89254
1.53484
1.28706
1.00882
0.737859
0.564411
0.477084
0.425385
0.381692
0.343025
0.31119
0.295504
0.296143
0.316697
0.346301
0.343517
0.27179
0.263961
1.82088
1.57737
1.30437
1.06534
0.829739
0.634065
0.506746
0.434794
0.391122
0.356993
0.326711
0.299487
0.282662
0.278084
0.289391
0.308158
0.308667
0.272921
0.389085
1.5125
1.34787
1.12849
0.917815
0.726851
0.576305
0.471081
0.406379
0.365435
0.333974
0.30677
0.282655
0.266199
0.25796
0.262045
0.282256
0.280377
0.266747
0.454258
1.284
1.17528
1.00441
0.82451
0.668275
0.542877
0.45033
0.387052
0.343813
0.311484
0.285516
0.263805
0.247707
0.236738
0.234849
0.246823
0.251013
0.237234
0.333202
1.12164
1.04596
0.908371
0.756781
0.622266
0.515033
0.434202
0.375312
0.331448
0.297243
0.270047
0.248184
0.230479
0.216694
0.208675
0.208636
0.210598
0.20141
0.240764
0.99817
0.938434
0.82232
0.694358
0.580259
0.488087
0.417465
0.364214
0.322115
0.287629
0.260117
0.23791
0.218646
0.201499
0.187525
0.178728
0.17409
0.163337
0.165137
0.889513
0.838871
0.74271
0.635546
0.538892
0.459551
0.397702
0.350157
0.31128
0.278287
0.25205
0.230643
0.210779
0.191038
0.172709
0.159352
0.152466
0.1455
0.149345
0.784616
0.743538
0.665774
0.576898
0.495282
0.427199
0.373575
0.331645
0.296988
0.267211
0.243434
0.223445
0.203576
0.18264
0.162866
0.148689
0.142777
0.142572
0.163412
0.680663
0.648997
0.588002
0.516031
0.448508
0.391141
0.345309
0.309311
0.279773
0.254337
0.233361
0.214719
0.195012
0.174475
0.156284
0.144197
0.141263
0.149711
0.193097
0.57929
0.556122
0.51004
0.453787
0.399782
0.352975
0.314965
0.28496
0.260729
0.240157
0.22185
0.204178
0.185365
0.167044
0.15206
0.143375
0.144366
0.160309
0.228476
0.484878
0.468801
0.435387
0.393228
0.35173
0.315045
0.284737
0.260584
0.241223
0.224884
0.209136
0.192798
0.176151
0.160951
0.149422
0.144058
0.148484
0.170061
0.2642
0.401647
0.391117
0.367946
0.337723
0.307176
0.2796
0.256391
0.237591
0.222323
0.209101
0.195931
0.181967
0.168202
0.156163
0.147702
0.145057
0.152108
0.178081
0.297173
0.331838
0.325515
0.310234
0.289609
0.268111
0.248226
0.231123
0.216942
0.205095
0.194478
0.183797
0.172581
0.161629
0.152395
0.146468
0.145961
0.154982
0.184421
0.326802
0.275407
0.272291
0.262924
0.24966
0.235281
0.221576
0.209464
0.199115
0.190146
0.181828
0.173395
0.164645
0.156229
0.149354
0.145502
0.146741
0.157305
0.19028
0.35584
0.230719
0.23009
0.225132
0.217327
0.208349
0.199436
0.191266
0.184006
0.177429
0.171095
0.164592
0.157901
0.151585
0.146666
0.144481
0.147022
0.15855
0.193827
0.378274
0.195509
0.196806
0.195116
0.191283
0.186317
0.181031
0.175908
0.171092
0.166473
0.161816
0.156938
0.151942
0.147343
0.144021
0.143177
0.146699
0.158775
0.194898
0.391854
0.167597
0.170332
0.171001
0.170029
0.167999
0.165424
0.162629
0.159737
0.156716
0.153468
0.149963
0.14638
0.1432
0.141202
0.141462
0.145757
0.158137
0.19406
0.394585
0.14523
0.148958
0.15126
0.1523
0.152383
0.151807
0.150784
0.14941
0.1477
0.145648
0.143318
0.140935
0.138951
0.138063
0.139247
0.144151
0.15664
0.191601
0.387475
0.127141
0.13146
0.134812
0.137205
0.138763
0.139637
0.13995
0.139774
0.139147
0.138119
0.136806
0.135456
0.134491
0.134531
0.136476
0.141822
0.154232
0.18788
0.376511
0.112439
0.117012
0.120955
0.12419
0.126727
0.128619
0.129921
0.130681
0.130947
0.130793
0.130362
0.129902
0.129801
0.130613
0.133157
0.138796
0.151018
0.183519
0.366842
0.100485
0.105055
0.109244
0.112931
0.116065
0.118631
0.120641
0.122117
0.123104
0.123685
0.124007
0.124306
0.124928
0.126367
0.129364
0.135201
0.147222
0.178902
0.358938
0.0908017
0.0951911
0.0993786
0.103235
0.106674
0.109647
0.112132
0.114132
0.115684
0.116865
0.117812
0.11874
0.119954
0.121889
0.125211
0.131185
0.143017
0.173999
0.351559
0.083015
0.0871119
0.0911352
0.0949616
0.0984949
0.101667
0.104439
0.106798
0.108769
0.110418
0.111865
0.113297
0.114978
0.117292
0.120847
0.126858
0.138486
0.168727
0.34381
0.0768221
0.080567
0.0843262
0.0879915
0.0914691
0.0946862
0.097594
0.100171
0.10243
0.104422
0.106247
0.108062
0.110095
0.112682
0.11638
0.122343
0.13372
0.163166
0.335023
0.0719811
0.0753492
0.0787894
0.0822114
0.0855316
0.0886803
0.0916068
0.0942841
0.0967143
0.0989347
0.101025
0.103113
0.105392
0.108159
0.111931
0.117808
0.128832
0.157461
0.325472
0.0683046
0.0712914
0.0743858
0.0775155
0.0806102
0.0836083
0.0864621
0.0891426
0.0916443
0.0939915
0.0962442
0.0985058
0.100939
0.103809
0.107599
0.113365
0.124038
0.151685
0.314284
0.0656557
0.068267
0.071004
0.0738114
0.0766334
0.0794196
0.0821286
0.084732
0.0872198
0.089605
0.0919312
0.09428
0.0967893
0.0996965
0.103457
0.10909
0.119408
0.145789
0.30021
0.0639508
0.0661927
0.0685653
0.0710283
0.0735404
0.0760642
0.0785675
0.0810255
0.0834253
0.0857717
0.088094
0.0904561
0.092975
0.0958652
0.0995555
0.105024
0.114969
0.14015
0.285767
0.063156
0.0650304
0.0670296
0.0691245
0.0712888
0.073501
0.0757413
0.0779911
0.0802368
0.0824765
0.0847282
0.0870405
0.089513
0.0923411
0.095928
0.101206
0.110772
0.135062
0.274855
0.063286
0.0647924
0.0664015
0.0680948
0.069862
0.071704
0.0736188
0.0755972
0.0776266
0.0796992
0.0818223
0.0840309
0.0864094
0.0891362
0.0925907
0.0976591
0.106833
0.130274
0.265278
0.0644149
0.0655497
0.0667401
0.0679787
0.0692732
0.070663
0.0721755
0.0738139
0.0755665
0.0774178
0.0793631
0.0814234
0.0836684
0.08626
0.0895567
0.0944025
0.103181
0.125722
0.255935
0.0666834
0.0674407
0.0681746
0.0688728
0.0695655
0.0703773
0.0713859
0.072608
0.0740257
0.0756102
0.0773401
0.0792193
0.0813016
0.0837333
0.0868543
0.0914754
0.0998871
0.121591
0.24738
0.0703121
0.0706969
0.0709369
0.0709569
0.0708061
0.0708347
0.0712052
0.0719304
0.0729653
0.0742526
0.0757457
0.0774275
0.0793333
0.0815942
0.084536
0.0889474
0.0970541
0.118119
0.240577
0.0756191
0.075672
0.0754114
0.0745622
0.0730566
0.0719617
0.0715321
0.0716955
0.0723268
0.073314
0.074574
0.0760634
0.0777983
0.0798956
0.0826713
0.0869034
0.0947926
0.115548
0.236694
0.0830367
0.0828787
0.0822441
0.0803894
0.0762486
0.0735093
0.0721495
0.0717535
0.0720194
0.0727491
0.0738143
0.0751443
0.0767372
0.0786978
0.0813362
0.0854244
0.0931871
0.114083
0.237132
0.0931157
0.0929895
0.0924713
0.0902431
0.0796561
0.0748365
0.0726682
0.0718792
0.0719164
0.0724939
0.0734459
0.0746826
0.0761896
0.0780641
0.0806104
0.0845808
0.0922932
0.113698
0.242464
)
;

boundaryField
{
    leftWall
    {
        type            epsilonWallFunction;
        value           nonuniform List<scalar> 
50
(
0.01191
0.0206828
0.0368685
0.0557932
0.0777205
0.103025
0.132946
0.168313
0.221728
0.320887
0.419734
0.510141
0.70552
0.647632
0.525318
0.496769
0.689796
0.983259
1.2533
1.45966
1.46846
1.36031
1.18927
0.994371
0.793724
0.637914
0.497652
0.362936
0.255148
0.173431
0.117546
0.0864993
0.0722916
0.0662564
0.0633353
0.061319
0.0598362
0.0589004
0.0586617
0.0594198
0.0617137
0.0664298
0.0749081
0.0890673
0.111729
0.147642
0.206832
0.317835
0.585576
1.60553
)
;
        Cmu             0.09;
        kappa           0.41;
        E               9.8;
        value           nonuniform List<scalar> 
50
(
0.01191
0.0206828
0.0368685
0.0557932
0.0777205
0.103025
0.132946
0.168313
0.221728
0.320887
0.419734
0.510141
0.70552
0.647632
0.525318
0.496769
0.689796
0.983259
1.2533
1.45966
1.46846
1.36031
1.18927
0.994371
0.793724
0.637914
0.497652
0.362936
0.255148
0.173431
0.117546
0.0864993
0.0722916
0.0662564
0.0633353
0.061319
0.0598362
0.0589004
0.0586617
0.0594198
0.0617137
0.0664298
0.0749081
0.0890673
0.111729
0.147642
0.206832
0.317835
0.585576
1.60553
)
;
    }
    rightWall
    {
        type            epsilonWallFunction;
        value           nonuniform List<scalar> 
50
(
0.0411079
0.0595634
0.0905267
0.119691
0.14781
0.177995
0.215986
0.273562
0.369406
0.56062
0.562142
0.465899
0.348004
0.26838
0.263961
0.389085
0.454258
0.333202
0.240764
0.165137
0.149345
0.163412
0.193097
0.228476
0.2642
0.297173
0.326802
0.35584
0.378274
0.391854
0.394585
0.387475
0.376511
0.366842
0.358938
0.351559
0.34381
0.335023
0.325472
0.314284
0.30021
0.285767
0.274855
0.265278
0.255935
0.24738
0.240577
0.236694
0.237132
0.242464
)
;
        Cmu             0.09;
        kappa           0.41;
        E               9.8;
        value           nonuniform List<scalar> 
50
(
0.0411079
0.0595634
0.0905267
0.119691
0.14781
0.177995
0.215986
0.273562
0.369406
0.56062
0.562142
0.465899
0.348004
0.26838
0.263961
0.389085
0.454258
0.333202
0.240764
0.165137
0.149345
0.163412
0.193097
0.228476
0.2642
0.297173
0.326802
0.35584
0.378274
0.391854
0.394585
0.387475
0.376511
0.366842
0.358938
0.351559
0.34381
0.335023
0.325472
0.314284
0.30021
0.285767
0.274855
0.265278
0.255935
0.24738
0.240577
0.236694
0.237132
0.242464
)
;
    }
    lowerWall
    {
        type            epsilonWallFunction;
        value           nonuniform List<scalar> 
62
(
0.01191
0.0735376
0.145227
0.208155
0.259196
0.299833
0.332024
0.357799
0.378538
0.394954
0.407326
0.4157
0.420028
0.419953
0.413922
0.401956
0.392338
0.383863
0.372941
0.349802
0.297137
0.199556
0.055819
0.055819
0.10693
0.183531
0.268181
0.367891
0.49261
0.658281
0.944936
1.70597
1.49619
1.41361
1.59332
0.0582309
0.0731267
0.127896
0.205913
0.343739
0.603903
1.07147
1.77132
0.0582309
0.281275
0.511258
0.722081
0.86401
0.861361
0.767245
0.660355
0.580898
0.526913
0.485163
0.46278
0.442099
0.394716
0.351922
0.290005
0.201051
0.11569
0.0411079
)
;
        Cmu             0.09;
        kappa           0.41;
        E               9.8;
        value           nonuniform List<scalar> 
62
(
0.01191
0.0735376
0.145227
0.208155
0.259196
0.299833
0.332024
0.357799
0.378538
0.394954
0.407326
0.4157
0.420028
0.419953
0.413922
0.401956
0.392338
0.383863
0.372941
0.349802
0.297137
0.199556
0.055819
0.055819
0.10693
0.183531
0.268181
0.367891
0.49261
0.658281
0.944936
1.70597
1.49619
1.41361
1.59332
0.0582309
0.0731267
0.127896
0.205913
0.343739
0.603903
1.07147
1.77132
0.0582309
0.281275
0.511258
0.722081
0.86401
0.861361
0.767245
0.660355
0.580898
0.526913
0.485163
0.46278
0.442099
0.394716
0.351922
0.290005
0.201051
0.11569
0.0411079
)
;
    }
    atmosphere
    {
        type            inletOutlet;
        inletValue      uniform 0.1;
        value           nonuniform List<scalar> 
46
(
0.1
0.1
0.1
0.1
0.1
0.1
0.1
0.1
0.1
0.1
0.1
0.1
0.1
0.1
0.1
0.1
0.1
0.1
0.1
0.1
0.1
0.1
0.1
0.1
0.1
0.1
0.1
0.1
0.1
0.1
0.1
0.0796561
0.0748365
0.0726682
0.0718792
0.0719164
0.0724939
0.0734459
0.0746826
0.0761896
0.0780641
0.0806104
0.0845808
0.0922932
0.113698
0.242464
)
;
    }
    defaultFaces
    {
        type            empty;
    }
}


// ************************************************************************* //
