/*--------------------------------*- C++ -*----------------------------------*\
| =========                 |                                                 |
| \\      /  F ield         | OpenFOAM: The Open Source CFD Toolbox           |
|  \\    /   O peration     | Version:  2.3.0                                 |
|   \\  /    A nd           | Web:      www.OpenFOAM.org                      |
|    \\/     M anipulation  |                                                 |
\*---------------------------------------------------------------------------*/
FoamFile
{
    version     2.0;
    format      ascii;
    class       volScalarField;
    location    "1.55";
    object      nut;
}
// * * * * * * * * * * * * * * * * * * * * * * * * * * * * * * * * * * * * * //

dimensions      [0 2 -1 0 0 0 0];

internalField   nonuniform List<scalar> 
2268
(
4.60979e-05
5.48897e-05
6.87168e-05
7.77802e-05
8.39351e-05
8.84429e-05
9.18953e-05
9.46324e-05
9.68266e-05
9.85538e-05
9.98433e-05
0.000100701
0.000101114
0.000101054
0.000100418
9.87273e-05
9.68289e-05
9.47593e-05
9.25312e-05
8.96997e-05
8.4642e-05
7.41759e-05
4.67021e-05
9.80594e-05
0.000441249
0.000625188
0.000746704
0.000831452
0.000891874
0.000936429
0.000970071
0.000995244
0.0010131
0.00102426
0.00102915
0.00102794
0.00102045
0.00100547
0.000974436
0.000923973
0.000871458
0.000818264
0.000759629
0.000675608
0.00054087
0.000164742
0.0001174
0.000719207
0.00112498
0.00141111
0.00161776
0.00176948
0.00188351
0.00197032
0.00203538
0.00208152
0.00211047
0.0021234
0.0021209
0.00210256
0.00206583
0.00200255
0.00190573
0.0017946
0.00167225
0.00152909
0.00132821
0.000990913
0.000199884
0.000134721
0.000898955
0.00148757
0.00191852
0.00223843
0.00247949
0.00266436
0.00280691
0.00291469
0.00299201
0.00304185
0.0030664
0.00306698
0.00304344
0.00299318
0.00290966
0.00278566
0.00263485
0.0024576
0.00223781
0.0019201
0.00136574
0.000228433
0.000150546
0.00104099
0.00177337
0.00231946
0.00273236
0.00305009
0.00329831
0.00349231
0.00364062
0.00374857
0.00382023
0.00385884
0.00386659
0.003844
0.00378907
0.00369657
0.00355907
0.00338397
0.00316662
0.00288194
0.00245299
0.00168597
0.000254641
0.000165668
0.00117323
0.00202195
0.00265697
0.00314273
0.00352298
0.00382495
0.00406407
0.00424894
0.00438543
0.00447848
0.00453227
0.00454989
0.00453266
0.00447941
0.00438587
0.00424428
0.00405607
0.0038114
0.00347419
0.00294345
0.00197641
0.00028088
0.000180043
0.00130611
0.00225181
0.00295527
0.00349746
0.00392805
0.00427498
0.00455309
0.00477038
0.00493292
0.00504626
0.0051154
0.00514427
0.00513508
0.00508749
0.00499799
0.00485903
0.0046658
0.00440536
0.00402989
0.00341413
0.00226628
0.000309302
0.00019405
0.00144134
0.00246819
0.00322473
0.00381124
0.00428314
0.00466823
0.00498043
0.00522676
0.00541318
0.00554564
0.00562983
0.00567051
0.00567076
0.00563108
0.0055487
0.00541661
0.00522513
0.00496027
0.0045644
0.00389432
0.00260693
0.000349714
5.13965e-05
8.63042e-05
0.000106621
0.000117598
0.000125485
0.000126961
0.00012375
0.000117625
0.000111143
0.000104343
9.90783e-05
9.67045e-05
9.57379e-05
9.25278e-05
8.86058e-05
8.26615e-05
7.33026e-05
6.21827e-05
7.0152e-05
0.000168364
0.000627854
0.000903281
0.00108843
0.0012003
0.00121743
0.00117313
0.00109416
0.000989229
0.000883211
0.000824724
0.000832235
0.000860878
0.000831928
0.000795052
0.000741536
0.000640541
0.000489306
0.000155876
0.000198197
0.000948086
0.00153194
0.00199986
0.00230568
0.00239246
0.00231984
0.00216842
0.00198221
0.00181291
0.00168955
0.00164569
0.00164745
0.00158295
0.00149862
0.00137655
0.00116371
0.000814552
0.000178379
0.000231996
0.00112188
0.00192855
0.00264325
0.00314409
0.00333359
0.00327487
0.00308642
0.0028583
0.00266545
0.00250069
0.00238836
0.00233206
0.00222359
0.00208839
0.00189746
0.00158138
0.00105483
0.000195891
0.000276781
0.00126144
0.00222521
0.00312939
0.00379107
0.00408339
0.00406367
0.00386708
0.00362266
0.00341745
0.00322543
0.00305557
0.00293227
0.00277626
0.00259049
0.00233674
0.00193104
0.00125341
0.000211171
0.00034122
0.00142057
0.00251865
0.00356455
0.00433598
0.00470411
0.00472897
0.00454077
0.00428997
0.00407176
0.00386047
0.00364828
0.00346316
0.00326036
0.00302626
0.00271565
0.00223671
0.00143642
0.000226508
0.000421606
0.00162679
0.00287749
0.00403078
0.00485088
0.00524545
0.00530448
0.00513015
0.00487322
0.004639
0.00441182
0.00417022
0.00393531
0.00368837
0.00340929
0.00304737
0.0025081
0.00161325
0.000244965
0.000507177
0.00199132
0.00340016
0.00456968
0.00538276
0.00574432
0.00581509
0.00565134
0.00538503
0.00513189
0.00488938
0.00462751
0.00435607
0.00406788
0.00374747
0.00334045
0.00274954
0.00177146
0.000267262
0.000212131
0.00164527
0.00277589
0.00359662
0.00423797
0.00476381
0.0051998
0.00555854
0.00584509
0.00606521
0.00622535
0.00633221
0.00639197
0.00640933
0.00638651
0.00632239
0.00621084
0.00603582
0.00578238
0.00538889
0.00471854
0.0035079
0.00142386
0.000235741
0.00184931
0.00309533
0.00398487
0.0046844
0.00526934
0.00576751
0.00618553
0.00652335
0.00678667
0.00698223
0.00711789
0.00720186
0.00724135
0.00724124
0.00720323
0.00712446
0.00699229
0.00678117
0.00645483
0.00592255
0.00504801
0.0037719
0.000252755
0.00196944
0.003294
0.00423433
0.0049894
0.00563804
0.00620178
0.00668213
0.00707357
0.00738114
0.00761234
0.00777613
0.00788288
0.00794288
0.00796438
0.00795301
0.00791083
0.0078322
0.0076986
0.00748621
0.00716771
0.00672401
0.00624618
0.000268089
0.00202757
0.00336188
0.00433217
0.00514771
0.00587501
0.0065216
0.00707864
0.00752737
0.00787632
0.00814149
0.00833278
0.00846114
0.00853978
0.0085811
0.00859566
0.00859126
0.00856864
0.00851893
0.00842864
0.00829247
0.00814177
0.00806902
0.000308236
0.00202392
0.00332582
0.00429307
0.00516359
0.00598415
0.00675779
0.00744527
0.00795287
0.00831202
0.00859523
0.00881013
0.00895817
0.00905293
0.0091111
0.00914916
0.00918157
0.00921283
0.00923456
0.0092369
0.00921561
0.00919889
0.00927093
0.000294613
0.00188069
0.00307526
0.00409287
0.00498649
0.00584317
0.00672283
0.00756561
0.00831464
0.00873601
0.00899255
0.00922216
0.00938755
0.00949564
0.00956668
0.00962338
0.00968912
0.00976792
0.00984259
0.00989295
0.00991154
0.00994689
0.0101172
0.00026728
0.0014966
0.00272856
0.00389109
0.00491598
0.005867
0.00681062
0.00771783
0.00853831
0.00908187
0.00936748
0.00958958
0.00975819
0.00987309
0.00995264
0.0100222
0.0101076
0.0102104
0.0103073
0.0103701
0.0103895
0.0104511
0.0107044
0.000271037
0.00131491
0.00266688
0.00398721
0.00512908
0.00613669
0.00709195
0.00798742
0.0087866
0.00938397
0.00971899
0.00993448
0.0100937
0.0102051
0.010286
0.0103644
0.0104654
0.0105789
0.0106725
0.0107185
0.0107158
0.0107896
0.0110651
0.000313343
0.00140883
0.00297246
0.00443041
0.00561459
0.00660961
0.00751338
0.00836422
0.00912671
0.00971055
0.010051
0.0102493
0.0103885
0.0104881
0.0105626
0.0106424
0.0107493
0.0108695
0.0109541
0.0109679
0.0109382
0.0109615
0.0111315
0.000347851
0.00183944
0.00361248
0.00508758
0.0062229
0.00713865
0.00796785
0.00873971
0.00943004
0.00996406
0.0102886
0.0104784
0.0106052
0.0106931
0.0107606
0.0108364
0.0109384
0.0110488
0.0111196
0.0111181
0.011082
0.011089
0.0111866
0.000371957
0.00249108
0.0043681
0.00571935
0.00672157
0.00754006
0.00828609
0.00897293
0.00957383
0.0100472
0.0103635
0.0105664
0.0106999
0.010791
0.0108649
0.0109454
0.0110439
0.0111469
0.0112162
0.0112254
0.0112122
0.011236
0.0113063
0.000382825
0.00274667
0.00472184
0.00605592
0.00701212
0.00777856
0.00845719
0.00906746
0.0095929
0.0100136
0.0103233
0.0105404
0.0106908
0.0108
0.0108918
0.0109849
0.0110861
0.0111856
0.0112623
0.0113031
0.0113307
0.0113853
0.0114625
0.00038256
0.00283121
0.00484712
0.00618633
0.0071292
0.00786617
0.00849612
0.00904837
0.00952088
0.00990778
0.0102097
0.0104371
0.0106073
0.010741
0.0108569
0.0109681
0.0110784
0.0111822
0.0112702
0.0113415
0.0114114
0.0114957
0.0115898
0.000374122
0.00281594
0.00482099
0.0061597
0.00710015
0.00782233
0.00842218
0.0089371
0.00937638
0.00974263
0.0100402
0.0102782
0.01047
0.0106311
0.0107742
0.0109077
0.0110339
0.0111505
0.0112551
0.0113512
0.0114489
0.011553
0.0116531
0.000359485
0.00273404
0.00469058
0.00601375
0.00695041
0.00766513
0.00824874
0.00874299
0.00916458
0.00952184
0.0098223
0.0100752
0.0102914
0.0104815
0.0106538
0.0108128
0.0109604
0.0110959
0.0112199
0.0113354
0.011447
0.011554
0.0116455
0.000340672
0.00260722
0.00448406
0.00577359
0.00669923
0.00740846
0.00798492
0.00847123
0.00888823
0.00924795
0.00955999
0.00983341
0.0100767
0.0102969
0.0104988
0.010685
0.0108565
0.0110132
0.0111554
0.011284
0.0113991
0.011498
0.011572
0.000318107
0.00244781
0.00421602
0.00545362
0.00635962
0.00706318
0.007639
0.00812778
0.00855163
0.00892423
0.00925571
0.00955426
0.00982631
0.0100764
0.0103072
0.01052
0.0107151
0.0108917
0.0110493
0.0111863
0.0113002
0.0113878
0.0114433
0.000296427
0.00224278
0.00388397
0.00505986
0.005941
0.00663949
0.00722044
0.00772053
0.00816083
0.00855463
0.00891134
0.00923788
0.00953904
0.0098178
0.0100757
0.0103131
0.0105296
0.0107239
0.0108942
0.0110377
0.0111505
0.0112297
0.0112719
0.000274377
0.00201545
0.00349981
0.00460047
0.00545455
0.00614991
0.00674134
0.00726003
0.00772413
0.00814504
0.00853064
0.00888648
0.00921624
0.00952204
0.00980477
0.0100644
0.0103
0.01051
0.0106919
0.0108422
0.0109568
0.0110334
0.0110698
0.000249173
0.00176063
0.00307266
0.00409117
0.00491704
0.00561212
0.00621861
0.00676122
0.00725408
0.00770577
0.00812219
0.00850766
0.00886512
0.0091963
0.00950191
0.00978178
0.0100349
0.0102595
0.0104528
0.0106116
0.0107319
0.0108115
0.0108495
0.000222289
0.00142835
0.00259643
0.00355066
0.00435376
0.0050523
0.00567655
0.0062458
0.00676988
0.00725383
0.00770149
0.00811607
0.00850008
0.00885513
0.00918199
0.00948061
0.00975012
0.00998881
0.0101942
0.0103631
0.0104923
0.0105792
0.0106238
0.000195978
0.0011506
0.00216194
0.00304168
0.00381231
0.00450881
0.00514883
0.00574368
0.00629882
0.00681376
0.00729104
0.00773303
0.00814189
0.00851907
0.00886548
0.00918137
0.00946617
0.00971846
0.00993604
0.0101162
0.0102559
0.0103526
0.0104063
0.000171822
0.000990448
0.00185179
0.00264152
0.00336665
0.00404642
0.00469056
0.00530078
0.00587656
0.00641594
0.0069182
0.00738402
0.007815
0.00821168
0.00857516
0.00890615
0.00920444
0.00946895
0.00969784
0.0098887
0.0100389
0.010146
0.0102094
0.000154227
0.000932691
0.0016863
0.00239112
0.00306338
0.0037143
0.00434811
0.00496025
0.0055453
0.00609843
0.00661656
0.00709853
0.00754461
0.00795546
0.00833192
0.00867455
0.00898329
0.00925735
0.00949518
0.00969472
0.00985365
0.00996989
0.0100423
0.000144878
0.000939363
0.00164082
0.00228785
0.00291514
0.00353471
0.00414841
0.00475006
0.0053317
0.00588649
0.00640957
0.00689827
0.00735162
0.00776969
0.00815292
0.00850171
0.00881603
0.00909527
0.00933817
0.00954298
0.00970772
0.00983065
0.00991075
0.000141237
0.000976469
0.00167723
0.00230163
0.00290274
0.00349818
0.00409087
0.00467533
0.00524415
0.00579017
0.00630783
0.00679351
0.00724534
0.00766269
0.00804555
0.00839406
0.00870817
0.00898736
0.00923064
0.00943657
0.00960352
0.00973006
0.00981541
0.000139609
0.00102172
0.00176084
0.00239525
0.00299226
0.00357649
0.00415311
0.00472005
0.00527193
0.00580272
0.00630721
0.00678168
0.00722389
0.00763278
0.00800805
0.00834964
0.00865748
0.00893116
0.00916993
0.00937265
0.00953804
0.00966492
0.00975269
0.000138551
0.00106435
0.00186736
0.00253775
0.00314984
0.00373489
0.00430347
0.00485685
0.0053922
0.00590534
0.00639223
0.00684979
0.00727604
0.00766998
0.00803127
0.00835991
0.00865588
0.00891898
0.00914869
0.0093442
0.00950451
0.00962874
0.00971635
0.000137869
0.00110253
0.00197813
0.00270129
0.00334391
0.00394235
0.00451189
0.00505741
0.00557893
0.00607452
0.00654187
0.0069791
0.00738503
0.00775917
0.00810152
0.00841234
0.00869186
0.00894016
0.00915702
0.00934196
0.00949427
0.00961327
0.00969852
0.000137643
0.0011399
0.00208948
0.00287357
0.00355707
0.00417827
0.00475598
0.00529849
0.00580883
0.00628761
0.00673459
0.00714948
0.00753228
0.00788335
0.00820329
0.00849283
0.00875259
0.00898301
0.00918423
0.00935608
0.00949815
0.00960996
0.00969109
0.000138063
0.00118139
0.00220577
0.00305408
0.00378321
0.00443179
0.00502125
0.00556305
0.00606328
0.00652528
0.00695108
0.0073422
0.00770003
0.00802595
0.00832133
0.00858746
0.00882545
0.00903611
0.00921995
0.00937713
0.00950751
0.00961078
0.00968656
0.000139437
0.00123199
0.0023336
0.0032464
0.00402122
0.00469713
0.00529803
0.00583846
0.00632765
0.00677172
0.00717508
0.00754114
0.00787273
0.00817231
0.00844202
0.00868376
0.00889907
0.00908918
0.00925493
0.00939676
0.00951478
0.00960883
0.00967858
0.000142201
0.00129537
0.00247698
0.00345209
0.00426928
0.00496922
0.00557846
0.00611471
0.00659035
0.00701441
0.00739366
0.00773341
0.00803788
0.00831053
0.00855426
0.00877148
0.00896414
0.00913379
0.00928154
0.0094081
0.00951377
0.00959853
0.0096621
0.000146872
0.00137149
0.00263341
0.00366728
0.00452276
0.00524258
0.0058561
0.00638437
0.00684319
0.00724459
0.00759782
0.00790999
0.00818667
0.00843221
0.00865014
0.00884328
0.0090139
0.00916377
0.00929421
0.00940611
0.00949994
0.0095758
0.00963344
0.000153925
0.0014555
0.00279487
0.00388583
0.00477793
0.00551481
0.00612871
0.00664476
0.00708283
0.00745839
0.00778328
0.00806645
0.00831463
0.00853299
0.00872547
0.0088952
0.00904462
0.00917564
0.0092897
0.00938781
0.00947055
0.00953811
0.00959032
0.000163709
0.00154171
0.00295711
0.00410928
0.00504019
0.00579231
0.00640197
0.00690016
0.00731216
0.00765756
0.00795101
0.00820319
0.00842186
0.0086127
0.00877994
0.00892681
0.00905579
0.00916882
0.00926736
0.00935248
0.00942482
0.00948466
0.00953186
0.000176553
0.00163134
0.00313122
0.00435631
0.00532987
0.00609314
0.00669029
0.00716156
0.00753958
0.00784873
0.00810645
0.00832487
0.00851242
0.00867499
0.00881683
0.00894104
0.00905002
0.0091456
0.00922917
0.00930178
0.00936411
0.00941647
0.00945878
0.000193093
0.00173646
0.00334802
0.0046648
0.00568122
0.00644373
0.00701276
0.00744283
0.00777571
0.00804067
0.00825735
0.00843865
0.00859306
0.00872625
0.00884214
0.00894354
0.00903255
0.0091108
0.00917953
0.00923969
0.00929193
0.00933658
0.00937363
0.000214983
0.00187913
0.00365888
0.0050902
0.00613672
0.0068714
0.00738597
0.00775471
0.00802876
0.0082408
0.00841107
0.00855202
0.00867138
0.00877408
0.00886341
0.00894164
0.00901048
0.00907122
0.00912488
0.00917225
0.00921389
0.00925014
0.009281
0.000246953
0.00209538
0.00415136
0.00571112
0.00674147
0.00739529
0.00781618
0.00809925
0.00830067
0.00845234
0.0085723
0.00867091
0.00875423
0.00882595
0.00888845
0.00894335
0.00899183
0.00903482
0.00907306
0.00910712
0.00913744
0.00916429
0.0091877
0.000301421
0.00250982
0.00502632
0.00664868
0.00753305
0.00801406
0.00829199
0.00846641
0.00858557
0.00867344
0.00874236
0.00879892
0.00884681
0.00888819
0.0089244
0.00895635
0.00898471
0.00900999
0.00903263
0.00905299
0.00907132
0.0090878
0.00910247
0.000419329
0.00375118
0.00688187
0.0080696
0.00850099
0.00868528
0.0087791
0.00883455
0.00887152
0.00889863
0.00891996
0.00893758
0.00895261
0.00896569
0.00897722
0.00898745
0.00899658
0.00900476
0.00901214
0.00901882
0.00902489
0.0090304
0.00903538
0.000433737
0.000417936
0.000414253
0.000433834
0.0030731
0.00309857
0.00337057
0.00375876
0.00617543
0.00628495
0.00650751
0.00679449
0.00817599
0.00830416
0.00848791
0.00871356
0.00943639
0.00961084
0.00985073
0.0101262
0.0103884
0.0106857
0.0110139
0.0112635
0.0109989
0.0112578
0.0114826
0.0116189
0.0112402
0.0113549
0.0114376
0.0114834
0.0112295
0.0112906
0.0113218
0.0113268
0.0112237
0.0112534
0.0112685
0.0112689
0.0113229
0.0113435
0.011355
0.0113545
0.0114833
0.011502
0.0115105
0.0115059
0.0116183
0.0116366
0.0116427
0.011634
0.0116838
0.0117003
0.0117035
0.011691
0.0116702
0.0116812
0.0116796
0.011663
0.0115854
0.0115884
0.0115801
0.0115587
0.0114452
0.0114401
0.0114251
0.0113989
0.0112659
0.0112551
0.0112353
0.0112058
0.0110614
0.0110485
0.0110269
0.0109965
0.0108435
0.0108318
0.0108115
0.0107826
0.0106237
0.0106153
0.0105984
0.0105731
0.0104135
0.0104096
0.0103971
0.0103762
0.010224
0.0102247
0.0102167
0.0102005
0.0100639
0.010069
0.0100654
0.0100535
0.00993834
0.00994706
0.00994723
0.00993923
0.00984753
0.00985917
0.00986241
0.00985765
0.00978798
0.00980172
0.0098073
0.00980509
0.00975332
0.00976843
0.00977566
0.00977539
0.0097358
0.00975164
0.00975993
0.00976108
0.00972758
0.00974352
0.00975247
0.00975459
0.00972144
0.00973703
0.00974622
0.00974909
0.00971137
0.00972632
0.00973549
0.0097389
0.00969264
0.00970686
0.00971594
0.00971983
0.00966186
0.00967543
0.00968448
0.00968891
0.00961688
0.00962997
0.00963914
0.00964427
0.0095568
0.00956956
0.00957899
0.00958496
0.00948212
0.00949451
0.00950419
0.00951099
0.00939496
0.0094067
0.00941633
0.00942367
0.00929951
0.00931
0.00931895
0.00932619
0.00920222
0.00921065
0.00921804
0.00922426
0.00911182
0.00911732
0.00912224
0.00912647
0.0090386
0.00904051
0.00904223
0.00904371
0.00146756
0.00323608
0.00456004
0.00554183
0.00625085
0.00649873
0.00653782
0.00637918
0.00609244
0.00580629
0.00553936
0.00525191
0.00493993
0.00459594
0.00421329
0.00374477
0.00308614
0.00199737
0.000294802
0.00475768
0.00586683
0.00659129
0.00702116
0.00741233
0.00746912
0.00736919
0.00717619
0.0068478
0.00650736
0.00619626
0.00587869
0.00552191
0.00511984
0.00466559
0.00412928
0.00339644
0.00222091
0.000332707
0.0073619
0.00800583
0.00835803
0.0083683
0.00846468
0.00833281
0.00807274
0.00781277
0.00745801
0.0070622
0.00669272
0.00633236
0.0059462
0.00548928
0.00495735
0.00432267
0.00347193
0.00221133
0.000335042
0.00917028
0.00968956
0.00976653
0.00944341
0.00935143
0.00903597
0.00864695
0.00832157
0.00794425
0.00752501
0.00709865
0.00668369
0.0062407
0.00571643
0.0050884
0.00431397
0.00330803
0.00200527
0.000316534
0.0106074
0.0109118
0.0106158
0.0101965
0.00995046
0.00953344
0.00911559
0.00878557
0.00837593
0.00790992
0.00744044
0.00696687
0.00645118
0.00584432
0.00510601
0.00418226
0.00299601
0.00164777
0.00028994
0.0115831
0.0114053
0.010854
0.010513
0.0101699
0.00980352
0.00948128
0.0091612
0.00873022
0.00822606
0.00770812
0.00718348
0.00660962
0.00594476
0.00514724
0.00414397
0.00279796
0.00138024
0.000265106
0.011701
0.0112787
0.0108708
0.0105447
0.0102412
0.00999245
0.00973655
0.00939598
0.00894495
0.00842319
0.00787333
0.0072995
0.00669361
0.00602108
0.00526518
0.00434978
0.0030056
0.00148221
0.00025555
0.0114533
0.0111591
0.0108664
0.0105971
0.0103749
0.0101798
0.00991454
0.00953286
0.00904892
0.00850085
0.00791955
0.00730528
0.00666072
0.00597169
0.00522773
0.00439905
0.00336968
0.00198002
0.000282755
0.0112914
0.0111168
0.0109155
0.0107197
0.0105484
0.0103476
0.0100434
0.00962299
0.00910327
0.00851337
0.00788156
0.00721676
0.00652674
0.00579794
0.00504498
0.0042982
0.00337471
0.00208769
0.000303825
0.0112499
0.0111528
0.0110181
0.0108686
0.0107062
0.0104767
0.0101372
0.00967798
0.00911446
0.00847593
0.00779103
0.00707095
0.00632281
0.00554152
0.00474856
0.00399472
0.00314094
0.00190997
0.000275791
0.0113374
0.0112602
0.0111407
0.0109934
0.0108123
0.0105617
0.0102025
0.00971931
0.0091245
0.00844454
0.00770901
0.00693091
0.00611442
0.00526318
0.00439905
0.00355395
0.00266702
0.00151893
0.000244676
0.0114806
0.011383
0.0112427
0.0110755
0.0108732
0.0106052
0.0102354
0.00974202
0.00913186
0.00842958
0.00766162
0.00683816
0.00596266
0.0050413
0.00409431
0.00315419
0.00221889
0.00120487
0.000214432
0.0115981
0.0114744
0.0113108
0.0111191
0.0108917
0.0106062
0.0102302
0.00973799
0.00912865
0.00842408
0.00764539
0.0068008
0.00589262
0.00492624
0.00392234
0.00292599
0.00197535
0.00105531
0.000208239
0.011647
0.0115086
0.0113265
0.0111128
0.0108628
0.0105613
0.010182
0.00969917
0.00910419
0.00841474
0.00764626
0.00680598
0.00589672
0.0049259
0.00391382
0.00290351
0.0019393
0.00101938
0.000216344
0.0116136
0.0114684
0.0112759
0.0110486
0.0107839
0.0104717
0.0100916
0.00962302
0.00905482
0.00839314
0.00765117
0.00683677
0.00595606
0.00502012
0.00404446
0.00305099
0.00206101
0.00108318
0.000230179
0.0115042
0.0113573
0.011162
0.0109302
0.01066
0.0103441
0.00996763
0.00951577
0.00898019
0.00835823
0.00765456
0.00688396
0.00605624
0.00518175
0.00426655
0.00331007
0.00230481
0.00123999
0.000244434
0.0113395
0.0111936
0.011001
0.0107713
0.0105027
0.0101896
0.00982148
0.00938902
0.00888707
0.00831191
0.00765865
0.0069466
0.00618706
0.0053855
0.00453751
0.00362506
0.0026145
0.00145595
0.000257232
0.011143
0.0110002
0.0108135
0.0105897
0.010327
0.0100213
0.00966588
0.00925577
0.00878865
0.00826209
0.00767159
0.0070266
0.00633959
0.00560975
0.00482343
0.00394788
0.00292749
0.0016754
0.000267966
0.0109333
0.0107958
0.0106169
0.010401
0.0101471
0.00985238
0.00951367
0.00912924
0.00869886
0.00822162
0.0076952
0.00712142
0.00650313
0.00583651
0.00509885
0.00424503
0.00320124
0.00186512
0.000277083
0.0107225
0.0105927
0.0104231
0.0102171
0.00997457
0.00969445
0.00937637
0.00902094
0.0086291
0.00820048
0.0077327
0.00722328
0.00666741
0.00605162
0.00534557
0.00449492
0.00341644
0.00199033
0.00028568
0.0105185
0.0103987
0.0102401
0.0100465
0.00981827
0.0095564
0.00926244
0.00893831
0.00858526
0.00820252
0.0077866
0.00733142
0.00682604
0.00624941
0.00556384
0.00470751
0.00358799
0.00207785
0.000291508
0.0103287
0.0102203
0.0100751
0.00989598
0.00968487
0.00944414
0.00917644
0.00888409
0.00856802
0.00822658
0.00785478
0.00744346
0.00697686
0.00642792
0.00575312
0.00488508
0.00372499
0.00214106
0.000294043
0.0101607
0.0100651
0.00993407
0.00977095
0.00957869
0.00936043
0.00911919
0.0088571
0.00857442
0.00826848
0.00793272
0.00755537
0.00711688
0.00658564
0.00591381
0.00503039
0.00383291
0.00218749
0.000293204
0.0100213
0.00993833
0.00982145
0.0096746
0.00950132
0.009305
0.00908853
0.00885354
0.00859949
0.00832267
0.00801505
0.00766271
0.00724315
0.00672156
0.00604677
0.00514616
0.00391577
0.00222163
0.000290427
0.00991395
0.00984256
0.00973888
0.00960729
0.00945158
0.00927508
0.00908029
0.00886821
0.00863748
0.00838339
0.00809659
0.00776138
0.00735314
0.00683491
0.00615335
0.00523556
0.0039777
0.00224707
0.000287948
0.00983823
0.0097769
0.0096848
0.00956654
0.00942597
0.00926621
0.00908926
0.00889547
0.00868269
0.00844527
0.00817273
0.007848
0.00744496
0.00692541
0.00623523
0.00530174
0.00402228
0.00226564
0.000286265
0.00979043
0.00973747
0.00965502
0.00954777
0.00941949
0.00927301
0.00910987
0.00892979
0.00872988
0.00850366
0.00823971
0.00791997
0.00751745
0.0069935
0.00629424
0.00534725
0.00405151
0.00227697
0.000284788
0.00976444
0.00971823
0.00964358
0.00954505
0.00942626
0.00928975
0.00913661
0.00896601
0.00877443
0.00855466
0.00829459
0.00797553
0.00757013
0.00703994
0.00633202
0.00537401
0.0040666
0.00228001
0.000283184
0.00975297
0.00971213
0.0096437
0.00955194
0.00944022
0.00931077
0.00916433
0.00899956
0.00881242
0.00859517
0.00833522
0.00801359
0.00760303
0.00706567
0.00634968
0.00538385
0.00406926
0.00227625
0.000281297
0.00974862
0.0097121
0.00964869
0.00956219
0.00945562
0.00933092
0.00918846
0.00902654
0.00884072
0.0086229
0.00836025
0.00803378
0.00761667
0.00707196
0.00634917
0.00537853
0.00406141
0.00226842
0.00027902
0.00974478
0.00971183
0.00965262
0.00957033
0.00946755
0.00934586
0.00920533
0.00904399
0.00885713
0.00863645
0.0083691
0.00803636
0.00761206
0.00706033
0.00633218
0.00535939
0.00404432
0.00225709
0.000276508
0.00973603
0.00970629
0.00965084
0.00957214
0.00947227
0.00935243
0.00921241
0.00905004
0.00886045
0.00863536
0.00836205
0.00802226
0.00759063
0.0070325
0.00630044
0.00532796
0.00401876
0.00224269
0.000273517
0.0097184
0.00969182
0.00964006
0.00956479
0.00946744
0.00934881
0.00920844
0.00904401
0.00885064
0.00862017
0.0083402
0.00799306
0.00755426
0.00699043
0.00625568
0.00528543
0.00398543
0.00222563
0.000269572
0.00968907
0.00966601
0.00961829
0.00954669
0.00945197
0.00933444
0.0091934
0.00902643
0.00882874
0.00859242
0.00830552
0.00795101
0.00750536
0.00693641
0.0061998
0.00523281
0.00394365
0.00220437
0.000265588
0.00964627
0.00962738
0.00958442
0.00951721
0.00942572
0.00930975
0.00916827
0.00899882
0.00879676
0.00855453
0.00826072
0.00789903
0.00744687
0.00687321
0.00613511
0.00517149
0.00389267
0.0021745
0.000262446
0.00958911
0.00957501
0.00953782
0.00947614
0.00938908
0.00927573
0.00913469
0.00896339
0.00875739
0.00850957
0.00820916
0.00784062
0.0073823
0.00680424
0.00606475
0.00510425
0.00383498
0.00213708
0.000259462
0.00951735
0.00950841
0.00947808
0.00942341
0.00934255
0.00923363
0.00909459
0.0089227
0.00871372
0.00846105
0.00815463
0.00777977
0.00731571
0.00673354
0.00599272
0.00503515
0.00377518
0.00209762
0.000256472
0.00943184
0.00942795
0.00940507
0.00935906
0.00928684
0.00918486
0.00905011
0.00887949
0.00866899
0.00841261
0.00810109
0.00772064
0.00725143
0.00666554
0.00592358
0.00496889
0.00371803
0.0020605
0.000253668
0.00933513
0.00933522
0.00931944
0.00928369
0.00922337
0.00913159
0.00900385
0.00883673
0.0086265
0.00836784
0.0080524
0.00766734
0.00719378
0.00660475
0.00586193
0.00491002
0.00366758
0.00202827
0.000251391
0.00923241
0.00923444
0.00922422
0.00919931
0.00915552
0.0090777
0.00895962
0.00879798
0.00858966
0.00833018
0.00801213
0.00762363
0.00714668
0.00655522
0.00581187
0.00486239
0.00362688
0.00200251
0.000250063
0.00913214
0.00913375
0.00912658
0.00911023
0.00909008
0.00902991
0.00892293
0.00876756
0.008562
0.00830276
0.00798332
0.0075926
0.00711336
0.00652025
0.00577664
0.00482887
0.00359771
0.00198379
0.000250189
0.00904567
0.00904576
0.0090409
0.00902803
0.00903978
0.0089984
0.00890082
0.00875023
0.00854689
0.00828821
0.00796828
0.00757652
0.00709612
0.00650214
0.0057584
0.00481125
0.00358058
0.00197041
0.000251999
)
;

boundaryField
{
    leftWall
    {
        type            nutkWallFunction;
        Cmu             0.09;
        kappa           0.41;
        E               9.8;
        value           nonuniform List<scalar> 
50
(
8.52922e-06
1.16549e-05
1.39309e-05
1.58476e-05
1.75646e-05
1.91701e-05
2.0728e-05
2.22678e-05
2.42172e-05
2.70087e-05
2.91897e-05
3.10232e-05
3.56735e-05
3.46327e-05
3.22764e-05
3.19762e-05
3.7745e-05
4.09554e-05
4.47168e-05
4.704e-05
4.71096e-05
4.58268e-05
4.36363e-05
4.084e-05
3.75026e-05
3.44944e-05
3.13811e-05
2.7571e-05
2.3505e-05
1.96328e-05
1.61289e-05
1.36048e-05
1.22329e-05
1.16181e-05
1.13143e-05
1.11023e-05
1.09475e-05
1.08563e-05
1.0851e-05
1.09702e-05
1.12742e-05
1.18442e-05
1.27694e-05
1.41272e-05
1.59792e-05
1.8405e-05
2.16015e-05
2.61615e-05
3.37169e-05
4.9521e-05
)
;
    }
    rightWall
    {
        type            nutkWallFunction;
        Cmu             0.09;
        kappa           0.41;
        E               9.8;
        value           nonuniform List<scalar> 
50
(
1.39808e-05
1.83557e-05
2.08613e-05
2.27335e-05
2.42801e-05
2.57504e-05
2.74071e-05
2.95174e-05
3.23847e-05
3.70014e-05
3.70846e-05
3.50665e-05
3.20047e-05
2.9731e-05
3.16191e-05
3.38836e-05
3.62024e-05
3.19536e-05
2.7915e-05
2.42163e-05
2.32298e-05
2.40447e-05
2.49968e-05
2.7628e-05
2.93547e-05
3.07942e-05
3.19981e-05
3.31099e-05
3.39095e-05
3.41235e-05
3.37153e-05
3.34332e-05
3.33462e-05
3.31491e-05
3.28843e-05
3.26267e-05
3.23452e-05
3.20166e-05
3.16526e-05
3.11174e-05
3.04097e-05
2.98208e-05
2.9245e-05
2.87128e-05
2.8284e-05
2.78816e-05
2.75544e-05
2.73643e-05
2.7385e-05
2.76447e-05
)
;
    }
    lowerWall
    {
        type            nutkWallFunction;
        Cmu             0.09;
        kappa           0.41;
        E               9.8;
        value           nonuniform List<scalar> 
62
(
4.00837e-06
6.67447e-06
8.32945e-06
9.36e-06
1.00459e-05
1.05312e-05
1.08883e-05
1.11607e-05
1.13723e-05
1.15353e-05
1.16556e-05
1.17355e-05
1.17756e-05
1.17735e-05
1.17158e-05
1.15882e-05
1.14693e-05
1.1352e-05
1.12112e-05
1.0961e-05
1.03993e-05
9.16069e-06
5.98613e-06
5.98613e-06
1.93109e-05
2.28718e-05
2.57329e-05
2.83655e-05
3.10149e-05
3.38789e-05
3.78405e-05
4.56918e-05
4.39725e-05
4.33197e-05
4.49884e-05
6.19639e-06
1.95939e-05
2.31445e-05
2.67715e-05
3.13487e-05
3.74119e-05
4.47336e-05
5.23143e-05
6.19639e-06
1.0312e-05
1.249e-05
1.38606e-05
1.46762e-05
1.47058e-05
1.42278e-05
1.3574e-05
1.29975e-05
1.25161e-05
1.21255e-05
1.19226e-05
1.17667e-05
1.13635e-05
1.09455e-05
1.02818e-05
9.15152e-06
7.69267e-06
6.13923e-06
)
;
    }
    atmosphere
    {
        type            calculated;
        value           nonuniform List<scalar> 
46
(
0.009
0.009
0.009
0.009
0.009
0.009
0.009
0.009
0.009
0.009
0.009
0.009
0.009
0.009
0.009
0.009
0.009
0.009
0.009
0.009
0.009
0.009
0.009
0.009
0.009
0.009
0.009
0.009
0.009
0.009
0.009
0.00903978
0.0089984
0.00890082
0.00875023
0.00854689
0.00828821
0.00796828
0.00757652
0.00709612
0.00650214
0.0057584
0.00481125
0.00358058
0.00197041
0.000251999
)
;
    }
    defaultFaces
    {
        type            empty;
    }
}


// ************************************************************************* //
