/*--------------------------------*- C++ -*----------------------------------*\
| =========                 |                                                 |
| \\      /  F ield         | OpenFOAM: The Open Source CFD Toolbox           |
|  \\    /   O peration     | Version:  2.3.0                                 |
|   \\  /    A nd           | Web:      www.OpenFOAM.org                      |
|    \\/     M anipulation  |                                                 |
\*---------------------------------------------------------------------------*/
FoamFile
{
    version     2.0;
    format      ascii;
    class       volScalarField;
    location    "1.55";
    object      p;
}
// * * * * * * * * * * * * * * * * * * * * * * * * * * * * * * * * * * * * * //

dimensions      [1 -1 -2 0 0 0 0];

internalField   nonuniform List<scalar> 
2268
(
863.055
864.988
868.967
874.103
879.623
885.432
891.489
897.662
903.744
909.527
914.855
919.653
923.946
927.867
931.745
935.993
940.656
947.394
956.594
968.488
982.181
995.294
1006.96
803.917
805.188
808.404
812.993
818.246
823.97
830.033
836.236
842.352
848.187
853.612
858.577
863.127
867.418
871.796
876.828
883.218
890.957
900.758
912.748
926.596
940.2
951.493
744.545
745.703
748.004
751.749
756.492
761.972
767.953
774.145
780.284
786.182
791.733
796.912
801.786
806.538
811.558
817.582
825.263
833.879
844.066
856.238
870.203
884.43
896.261
684.872
686.155
687.877
690.871
695.089
700.285
706.164
712.346
718.525
724.502
730.179
735.545
740.684
745.798
751.272
757.785
765.933
774.955
785.275
797.593
811.381
827.148
840.658
624.87
626.231
627.572
630.005
633.823
638.815
644.665
650.911
657.189
663.283
669.093
674.614
679.937
685.276
690.979
697.595
705.632
714.561
724.654
736.677
749.939
768.145
783.126
564.552
565.795
566.724
568.73
572.289
577.199
583.144
589.567
596.033
602.302
608.274
613.94
619.398
624.862
630.647
637.198
644.967
653.378
662.593
673.685
685.845
706.895
721.523
503.941
504.798
505.228
506.903
510.322
515.266
521.43
528.148
534.893
541.398
547.563
553.38
558.945
564.475
570.256
576.663
584.072
591.61
599.238
608.632
618.816
641.289
651.641
443.115
443.269
443.205
444.652
448.035
453.1
459.551
466.626
473.703
480.478
486.848
492.805
498.449
503.996
509.717
515.946
522.937
529.226
536.021
543.054
548.821
564.515
564.534
575.089
587.073
595.987
593.186
581.558
562.898
543.573
527.394
512.604
498.166
493.047
496.67
505.309
512.251
519.186
525.542
531.156
536.327
540.618
515.27
525.475
533.587
529.71
517.144
499.159
482.482
469.085
456.912
449.579
445.054
444.348
452.687
460.898
467.426
473.154
478.197
481.475
483.814
454.253
465.969
473.528
467.872
454.034
436.247
422.427
412.925
407.901
410.156
406.459
398.26
401.452
408.898
415.074
420.46
425.072
427.024
427.384
392.395
409.352
418.45
410.444
394.942
376.454
365.63
363.463
369.726
372.823
367.305
357.978
351.123
355.236
361.02
366.267
371.006
372.034
371.42
331.47
360.437
370.883
357.189
339.804
325.189
319.406
324.046
332.339
331.7
326.245
312.136
297.593
300.055
306.011
311.032
315.639
316.674
315.722
275.042
326.864
338.789
310.486
288.537
284.216
280.83
285.511
289.283
286.028
280.109
260.42
243.523
243.077
250.402
255.565
259.78
261.622
260.111
206.528
284.287
317.105
273.827
243.194
241.383
236.713
241.571
242.643
238.476
230.705
218.342
205.743
194.477
195.138
199.648
203.928
206.718
204.17
136.319
237.453
278.731
239.829
204.014
194.384
186.163
193.77
197.479
194.058
189.303
188.336
177.375
160.187
145.375
144.996
147.722
151.591
148.679
348.01
346.571
345.712
347.009
350.521
355.834
362.723
370.34
377.895
385.023
391.637
397.737
403.426
408.924
414.478
420.386
426.769
432.807
438.614
441.973
439.33
425.804
355.748
219.655
214.152
211.046
212.919
217.209
222.79
230.683
239.402
247.581
254.969
261.702
267.811
273.396
278.711
283.91
289.195
294.906
301.218
306.409
307.603
301.451
285.713
262.76
100.716
92.0232
87.8345
89.7222
92.3724
95.8746
103.31
112.719
121.276
128.558
135.047
140.728
145.719
150.501
154.958
158.945
163.254
168.741
172.882
172.953
167.958
158.091
145.322
28.8031
25.5346
25.9686
25.8883
24.5727
23.58
24.8187
27.644
30.801
34.4824
38.2795
41.4394
43.9801
46.6049
48.8968
50.3152
52.0552
54.7071
56.0729
54.2875
49.587
44.2257
38.9384
10.3665
11.4985
13.8859
13.7193
11.5372
8.63877
5.20491
1.61385
0.124924
0.576221
1.42948
2.25068
2.8962
3.57238
4.07494
4.22642
4.85077
6.20347
6.89604
5.62083
2.87087
0.472405
-0.0648722
7.03347
7.9269
9.31704
9.62532
8.25548
5.70422
2.64467
1.03274
0.383293
0.116833
-0.163645
-0.345804
-0.4306
-0.527906
-0.699466
-0.852598
-0.692159
-0.276681
-0.20758
-0.644449
-1.74806
-2.33787
-2.4498
3.58774
4.0566
5.01995
4.96068
3.91645
2.08052
0.544522
-0.0527328
-0.205714
-0.279166
-0.39847
-0.531657
-0.630349
-0.719148
-0.860458
-1.0142
-0.93423
-0.415438
0.0905088
-0.370715
-1.32402
-1.58624
-1.52114
0.342688
0.347377
0.954512
0.741597
-0.193727
-1.00908
-1.06717
-0.943104
-0.875671
-0.87435
-1.01517
-1.14547
-1.23271
-1.29262
-1.34889
-1.41
-1.46429
-1.49208
-1.34283
-1.36979
-1.54135
-1.57246
-1.55603
-1.46617
-1.58287
-1.56669
-1.70423
-1.90158
-1.79153
-1.67173
-1.54584
-1.4078
-1.40371
-1.47622
-1.49913
-1.51975
-1.55886
-1.58774
-1.58882
-1.61103
-1.62599
-1.62132
-1.64366
-1.71736
-1.70859
-1.70871
-1.80475
-1.8138
-1.85939
-1.91901
-1.94022
-1.91142
-1.84868
-1.7648
-1.67866
-1.64961
-1.64463
-1.65254
-1.6751
-1.70092
-1.72149
-1.73438
-1.75149
-1.77531
-1.81313
-1.86527
-1.90031
-1.90184
-1.90389
-1.93224
-1.97596
-2.00488
-2.03284
-2.03662
-2.01164
-1.96537
-1.906
-1.84078
-1.80657
-1.79919
-1.80505
-1.81984
-1.83879
-1.85798
-1.87584
-1.89944
-1.93958
-1.99903
-2.04814
-2.07495
-2.10564
-2.05827
-2.04525
-2.08684
-2.11512
-2.13111
-2.128
-2.10725
-2.07393
-2.03057
-1.98663
-1.96079
-1.95165
-1.95315
-1.96219
-1.97625
-1.99294
-2.01143
-2.03598
-2.07288
-2.1219
-2.16698
-2.2006
-2.19565
-2.15047
-2.1413
-2.18085
-2.21
-2.22272
-2.22053
-2.20601
-2.18267
-2.1535
-2.12489
-2.10563
-2.0965
-2.09545
-2.10084
-2.1109
-2.1241
-2.13992
-2.16005
-2.18694
-2.21996
-2.2499
-2.26527
-2.25457
-2.2202
-2.24226
-2.27802
-2.30614
-2.31844
-2.31857
-2.3097
-2.29433
-2.27504
-2.25598
-2.24186
-2.23395
-2.23185
-2.23472
-2.24146
-2.25101
-2.26285
-2.27731
-2.29483
-2.31431
-2.3304
-2.33565
-2.32437
-2.29902
-2.35217
-2.38321
-2.4088
-2.42069
-2.42258
-2.41757
-2.40767
-2.39493
-2.38207
-2.37184
-2.36541
-2.36291
-2.36401
-2.36802
-2.37424
-2.38215
-2.39154
-2.40204
-2.41237
-2.41935
-2.41898
-2.40845
-2.38941
-2.47066
-2.49624
-2.51784
-2.52848
-2.53117
-2.52857
-2.52226
-2.5138
-2.50499
-2.49753
-2.49231
-2.48966
-2.48946
-2.49134
-2.49482
-2.49944
-2.50479
-2.5103
-2.51484
-2.51648
-2.51317
-2.50364
-2.48887
-2.59522
-2.61515
-2.63178
-2.6404
-2.64311
-2.64188
-2.63787
-2.63217
-2.62597
-2.62036
-2.61602
-2.61327
-2.61214
-2.61245
-2.61386
-2.61599
-2.61841
-2.62056
-2.62157
-2.62029
-2.61565
-2.60715
-2.59543
-2.72272
-2.73706
-2.74879
-2.75517
-2.75751
-2.75702
-2.75443
-2.75048
-2.74594
-2.74152
-2.73774
-2.73492
-2.73314
-2.73233
-2.73227
-2.73264
-2.73308
-2.73309
-2.73205
-2.72926
-2.72419
-2.7167
-2.70726
-2.85194
-2.86076
-2.8673
-2.87178
-2.87371
-2.87359
-2.87186
-2.86899
-2.86547
-2.86181
-2.8584
-2.85553
-2.85332
-2.85177
-2.85071
-2.84991
-2.84906
-2.84777
-2.8456
-2.84212
-2.83708
-2.83054
-2.82282
-2.98028
-2.98457
-2.98684
-2.98961
-2.9911
-2.99113
-2.98989
-2.98769
-2.98483
-2.98168
-2.97854
-2.97567
-2.97323
-2.97121
-2.96953
-2.96799
-2.96635
-2.96431
-2.96157
-2.95785
-2.95308
-2.94738
-2.94096
-3.10435
-3.10597
-3.10678
-3.10818
-3.10916
-3.10918
-3.10823
-3.10646
-3.10407
-3.10131
-3.09844
-3.09566
-3.09313
-3.09088
-3.08884
-3.08687
-3.08479
-3.08236
-3.07938
-3.0757
-3.07128
-3.0663
-3.06088
-3.22578
-3.22588
-3.22619
-3.22694
-3.22754
-3.22752
-3.22674
-3.22528
-3.22326
-3.22087
-3.21829
-3.21569
-3.2132
-3.21088
-3.20867
-3.20649
-3.20419
-3.20161
-3.1986
-3.19506
-3.19102
-3.18664
-3.18199
-3.34728
-3.34607
-3.34567
-3.34607
-3.3464
-3.34627
-3.34557
-3.34433
-3.34262
-3.34057
-3.3383
-3.33594
-3.33359
-3.33131
-3.32908
-3.32682
-3.32444
-3.32183
-3.31889
-3.31555
-3.31187
-3.30797
-3.30389
-3.46942
-3.46769
-3.46655
-3.46626
-3.46614
-3.46577
-3.46504
-3.46392
-3.46245
-3.46069
-3.45872
-3.45662
-3.45447
-3.45231
-3.45012
-3.44787
-3.44549
-3.44291
-3.44008
-3.43695
-3.43356
-3.43006
-3.42641
-3.59188
-3.5901
-3.58845
-3.58752
-3.5869
-3.58624
-3.5854
-3.58432
-3.583
-3.58147
-3.57976
-3.57791
-3.57597
-3.57394
-3.57184
-3.56965
-3.56731
-3.5648
-3.56207
-3.55912
-3.55599
-3.55278
-3.54946
-3.71432
-3.71261
-3.7108
-3.70949
-3.70852
-3.70763
-3.70667
-3.7056
-3.70438
-3.70301
-3.70149
-3.69985
-3.69809
-3.69621
-3.69422
-3.69209
-3.68982
-3.68738
-3.68477
-3.68198
-3.67905
-3.67609
-3.67303
-3.8367
-3.83514
-3.83337
-3.83192
-3.83077
-3.82974
-3.82871
-3.82764
-3.82648
-3.82522
-3.82386
-3.82237
-3.82075
-3.81899
-3.8171
-3.81506
-3.81286
-3.81051
-3.80801
-3.80537
-3.80263
-3.79987
-3.79704
-3.95908
-3.95766
-3.95603
-3.95461
-3.95341
-3.95233
-3.95129
-3.95023
-3.94912
-3.94794
-3.94667
-3.94528
-3.94376
-3.9421
-3.94029
-3.93834
-3.93623
-3.93398
-3.9316
-3.92911
-3.92654
-3.92397
-3.92134
-4.08145
-4.08018
-4.0787
-4.07737
-4.07622
-4.07517
-4.07416
-4.07313
-4.07207
-4.07094
-4.06972
-4.06839
-4.06694
-4.06534
-4.06361
-4.06173
-4.05972
-4.05759
-4.05534
-4.053
-4.05061
-4.04823
-4.0458
-4.20383
-4.20268
-4.20134
-4.20012
-4.19905
-4.19807
-4.1971
-4.19613
-4.1951
-4.19401
-4.19282
-4.19153
-4.19011
-4.18857
-4.1869
-4.18511
-4.1832
-4.18119
-4.17909
-4.17692
-4.17471
-4.17252
-4.1703
-4.32617
-4.32514
-4.32391
-4.32278
-4.3218
-4.32088
-4.31998
-4.31906
-4.31807
-4.31701
-4.31585
-4.31458
-4.3132
-4.31171
-4.3101
-4.3084
-4.3066
-4.30473
-4.30278
-4.30079
-4.29878
-4.29679
-4.29478
-4.44847
-4.44754
-4.44639
-4.44534
-4.44442
-4.44357
-4.44272
-4.44183
-4.44089
-4.43986
-4.43873
-4.4375
-4.43617
-4.43473
-4.43321
-4.43161
-4.42993
-4.4282
-4.42643
-4.42463
-4.42282
-4.42104
-4.41925
-4.57072
-4.56989
-4.5688
-4.56779
-4.56692
-4.5661
-4.5653
-4.56445
-4.56355
-4.56256
-4.56148
-4.5603
-4.55904
-4.55769
-4.55626
-4.55478
-4.55324
-4.55167
-4.55008
-4.54847
-4.54687
-4.54531
-4.54375
-4.69293
-4.69218
-4.69114
-4.69017
-4.68932
-4.68854
-4.68776
-4.68696
-4.6861
-4.68517
-4.68415
-4.68305
-4.68188
-4.68063
-4.67933
-4.67798
-4.6766
-4.6752
-4.67379
-4.67238
-4.67099
-4.66964
-4.6683
-4.81512
-4.81444
-4.81345
-4.81252
-4.81169
-4.81093
-4.81019
-4.80943
-4.80863
-4.80776
-4.80683
-4.80583
-4.80476
-4.80364
-4.80247
-4.80128
-4.80006
-4.79884
-4.79761
-4.7964
-4.79522
-4.79408
-4.79295
-4.93731
-4.93672
-4.93579
-4.93489
-4.93409
-4.93336
-4.93266
-4.93195
-4.93121
-4.93043
-4.92959
-4.9287
-4.92776
-4.92677
-4.92576
-4.92472
-4.92367
-4.92263
-4.92159
-4.92057
-4.91958
-4.91863
-4.91771
-5.05953
-5.05904
-5.05819
-5.05734
-5.05658
-5.05589
-5.05523
-5.05459
-5.05393
-5.05323
-5.0525
-5.05173
-5.05092
-5.05008
-5.04922
-5.04834
-5.04746
-5.04659
-5.04572
-5.04488
-5.04406
-5.04329
-5.04256
-5.18178
-5.18144
-5.18069
-5.17991
-5.17919
-5.17855
-5.17796
-5.17739
-5.17681
-5.17621
-5.17559
-5.17494
-5.17426
-5.17357
-5.17286
-5.17214
-5.17142
-5.17071
-5.17001
-5.16932
-5.16867
-5.16806
-5.16749
-5.30417
-5.30402
-5.30334
-5.30259
-5.30193
-5.30136
-5.30085
-5.30036
-5.29987
-5.29937
-5.29886
-5.29834
-5.29779
-5.29724
-5.29667
-5.2961
-5.29553
-5.29497
-5.29442
-5.29388
-5.29336
-5.29289
-5.29246
-5.42689
-5.42705
-5.42632
-5.42542
-5.42479
-5.42432
-5.4239
-5.4235
-5.42311
-5.42271
-5.42231
-5.42191
-5.42149
-5.42107
-5.42064
-5.42021
-5.41979
-5.41936
-5.41894
-5.41852
-5.41812
-5.41775
-5.41742
-5.54938
-5.55138
-5.54994
-5.54837
-5.54774
-5.54739
-5.54708
-5.54677
-5.54647
-5.54618
-5.5459
-5.54561
-5.54532
-5.54503
-5.54473
-5.54444
-5.54414
-5.54383
-5.54353
-5.54322
-5.54291
-5.54262
-5.54235
-5.66901
-5.67733
-5.67305
-5.67087
-5.67028
-5.67
-5.66977
-5.66958
-5.66941
-5.66926
-5.66913
-5.669
-5.66888
-5.66875
-5.66863
-5.6685
-5.66837
-5.66823
-5.66807
-5.66791
-5.66773
-5.66755
-5.66736
188.199
171.771
189.969
188.53
228.999
209.454
189.804
162.969
122.071
104.456
89.9325
78.1365
33.8522
34.4187
36.1841
35.5805
1.03906
2.12421
3.13499
5.16286
-1.88047
-0.606816
0.561339
0.914088
-1.38378
-1.27339
-1.22925
-1.22543
-1.50431
-1.48037
-1.48005
-1.51166
-1.66397
-1.64157
-1.64352
-1.65274
-1.85792
-1.83774
-1.8319
-1.81975
-2.01084
-1.98812
-1.97041
-1.95131
-2.10887
-2.0859
-2.06637
-2.05245
-2.19046
-2.17323
-2.15828
-2.14588
-2.27866
-2.267
-2.25641
-2.24622
-2.37464
-2.36615
-2.35819
-2.35031
-2.47747
-2.47071
-2.46423
-2.45778
-2.58624
-2.58043
-2.57472
-2.56904
-2.69953
-2.69419
-2.68879
-2.68358
-2.81606
-2.81096
-2.80569
-2.80077
-2.93493
-2.93003
-2.92484
-2.92013
-3.05546
-3.05077
-3.04571
-3.04121
-3.17707
-3.17264
-3.16779
-3.16352
-3.2994
-3.29525
-3.29067
-3.28668
-3.42227
-3.4184
-3.41413
-3.41041
-3.54564
-3.54205
-3.53808
-3.53463
-3.66949
-3.66616
-3.66248
-3.65928
-3.79376
-3.79067
-3.78727
-3.7843
-3.91832
-3.91548
-3.91235
-3.90961
-4.04303
-4.04045
-4.0376
-4.0351
-4.1678
-4.16549
-4.16294
-4.16071
-4.29255
-4.29052
-4.2883
-4.28635
-4.4173
-4.41556
-4.41366
-4.412
-4.54207
-4.5406
-4.53902
-4.53764
-4.6669
-4.66568
-4.66439
-4.66328
-4.7918
-4.79082
-4.7898
-4.78893
-4.91679
-4.91603
-4.91524
-4.91459
-5.04185
-5.04127
-5.04069
-5.04022
-5.16695
-5.16654
-5.16614
-5.16582
-5.29207
-5.29178
-5.29152
-5.29132
-5.41715
-5.41696
-5.41679
-5.41668
-5.54211
-5.54197
-5.54184
-5.54177
-5.6672
-5.66711
-5.66704
-5.66699
137.547
177.602
198.441
178.661
155.641
140.961
126.849
121.87
131.554
140.901
143.693
140.492
128.264
117.021
107.878
102.49
96.3128
93.6037
93.6165
118.175
111.573
102.776
96.2087
97.1186
88.9423
74.0378
57.6772
63.7136
80.8377
88.886
86.5543
82.1
80.4793
80.056
75.0054
66.6368
58.7106
59.9691
66.268
57.7915
42.9708
44.3267
52.8925
52.8293
42.8696
36.1574
35.168
39.9856
48.0756
53.5934
58.2893
59.1086
57.1924
54.1964
48.7925
44.2546
46.3816
25.9576
19.2724
18.442
23.8815
28.7319
29.7275
27.4758
26.4656
24.4605
22.1692
24.3949
31.4556
35.7012
34.1028
31.5949
31.8388
30.5158
29.6597
32.6864
8.63115
8.91537
11.3613
16.5378
19.2725
19.4349
19.6905
19.8852
18.1542
15.4448
12.8601
12.7413
12.7292
9.75268
8.54952
10.8033
13.9334
14.9533
17.0949
1.24112
3.61495
7.27749
11.5097
13.1744
13.3304
13.8581
13.9966
12.6624
10.0303
6.93448
3.81935
1.22484
0.342835
0.298176
0.257243
1.73473
3.20228
3.86941
-1.02181
0.35559
2.88072
5.10988
5.78364
6.33375
7.33011
7.45456
6.42717
4.37309
2.32522
0.828042
0.084645
-0.14302
-0.257841
-0.412246
-0.687776
-0.854385
-0.780148
-1.54753
-1.06491
-0.155623
0.126948
0.218833
0.631342
0.974839
0.86796
0.528817
-0.0684485
-0.464462
-0.772912
-0.792408
-0.748167
-0.789061
-0.891165
-1.0154
-1.10431
-1.1011
-1.64254
-1.51611
-1.46529
-1.46424
-1.59076
-1.48316
-1.45724
-1.47874
-1.44176
-1.3518
-1.24848
-1.18164
-1.15693
-1.17683
-1.20117
-1.18288
-1.21178
-1.25278
-1.2542
-1.76876
-1.82371
-2.02517
-1.83924
-1.67522
-1.6119
-1.56311
-1.51412
-1.45956
-1.4054
-1.35799
-1.32866
-1.31766
-1.32958
-1.35648
-1.35601
-1.35858
-1.37851
-1.37963
-1.93217
-1.98993
-1.94234
-1.84858
-1.79769
-1.75792
-1.71498
-1.667
-1.61686
-1.56832
-1.52442
-1.49689
-1.48422
-1.48664
-1.49625
-1.50258
-1.50046
-1.50685
-1.51212
-2.0388
-2.02187
-1.99246
-1.96018
-1.92778
-1.89255
-1.85544
-1.81739
-1.77498
-1.73019
-1.69202
-1.66937
-1.65702
-1.65116
-1.64988
-1.64818
-1.64568
-1.64785
-1.65495
-2.12735
-2.1117
-2.09892
-2.07663
-2.04867
-2.0184
-1.98735
-1.95545
-1.92134
-1.8841
-1.85784
-1.83909
-1.82936
-1.82378
-1.81606
-1.80573
-1.79968
-1.80101
-1.8083
-2.23056
-2.21885
-2.20669
-2.18765
-2.1652
-2.14136
-2.11637
-2.09003
-2.06307
-2.03646
-2.01792
-2.00507
-1.99609
-1.9877
-1.97936
-1.96852
-1.96103
-1.96111
-1.96443
-2.33795
-2.32728
-2.31576
-2.30029
-2.28301
-2.26433
-2.24479
-2.22477
-2.20602
-2.18877
-2.17377
-2.16251
-2.1486
-2.13679
-2.12944
-2.1242
-2.11923
-2.11502
-2.11163
-2.44761
-2.43818
-2.42858
-2.41676
-2.4033
-2.38847
-2.3731
-2.35875
-2.34754
-2.33813
-2.32469
-2.30758
-2.2916
-2.28094
-2.27471
-2.27131
-2.268
-2.26342
-2.25736
-2.56032
-2.55232
-2.54477
-2.53586
-2.52533
-2.51374
-2.5016
-2.49082
-2.48344
-2.47779
-2.46398
-2.44567
-2.43195
-2.42303
-2.41794
-2.41538
-2.41384
-2.41178
-2.40701
-2.67601
-2.66921
-2.66309
-2.6566
-2.64869
-2.63964
-2.63002
-2.62097
-2.61382
-2.60608
-2.59397
-2.58058
-2.57001
-2.56304
-2.55924
-2.5579
-2.55813
-2.55834
-2.55313
-2.79411
-2.78827
-2.78306
-2.77788
-2.77199
-2.76509
-2.7574
-2.7494
-2.74147
-2.73354
-2.72396
-2.7141
-2.70618
-2.70091
-2.69821
-2.69788
-2.69957
-2.70281
-2.69459
-2.9142
-2.90916
-2.90461
-2.90004
-2.89509
-2.88956
-2.88325
-2.87625
-2.86904
-2.86187
-2.85417
-2.84671
-2.84067
-2.83658
-2.83454
-2.83464
-2.83665
-2.83957
-2.83153
-3.03585
-3.03144
-3.02741
-3.02334
-3.01896
-3.01411
-3.00869
-3.00278
-2.99665
-2.99043
-2.98413
-2.97827
-2.97345
-2.97005
-2.96824
-2.96808
-2.96911
-2.96955
-2.96445
-3.15863
-3.15471
-3.15107
-3.14737
-3.14344
-3.13916
-3.13446
-3.1294
-3.12417
-3.11886
-3.1136
-3.10875
-3.10468
-3.10162
-3.09967
-3.09879
-3.09846
-3.09704
-3.09397
-3.2822
-3.27866
-3.27531
-3.2719
-3.26834
-3.26453
-3.26043
-3.25606
-3.25155
-3.24701
-3.24253
-3.23834
-3.23468
-3.23169
-3.22934
-3.22746
-3.22545
-3.22186
-3.21762
-3.40632
-3.40308
-3.39998
-3.39682
-3.39357
-3.39016
-3.38654
-3.38274
-3.37882
-3.37486
-3.37096
-3.36722
-3.36379
-3.3607
-3.35786
-3.35493
-3.35115
-3.34508
-3.33788
-3.53088
-3.52789
-3.525
-3.52206
-3.51908
-3.51601
-3.5128
-3.50944
-3.50599
-3.50249
-3.499
-3.49559
-3.4923
-3.48911
-3.48586
-3.48215
-3.47711
-3.4696
-3.46144
-3.65581
-3.65303
-3.65033
-3.64759
-3.64485
-3.64207
-3.63919
-3.6362
-3.63312
-3.62998
-3.62681
-3.62364
-3.62048
-3.61724
-3.61378
-3.60969
-3.60426
-3.59668
-3.58874
-3.78108
-3.77847
-3.77595
-3.77341
-3.77088
-3.76834
-3.76573
-3.76304
-3.76026
-3.75741
-3.75451
-3.75155
-3.74852
-3.74532
-3.7418
-3.73763
-3.73228
-3.72515
-3.71729
-3.90662
-3.90419
-3.90184
-3.89948
-3.89715
-3.89481
-3.89243
-3.88998
-3.88745
-3.88485
-3.88218
-3.87942
-3.87653
-3.87343
-3.86995
-3.86582
-3.86049
-3.8533
-3.8457
-4.03236
-4.03012
-4.02795
-4.02577
-4.02361
-4.02146
-4.01927
-4.01703
-4.01472
-4.01234
-4.00988
-4.00731
-4.00458
-4.00161
-3.99825
-3.99422
-3.98895
-3.98154
-3.97425
-4.15824
-4.15619
-4.15421
-4.15222
-4.15024
-4.14826
-4.14625
-4.14419
-4.14208
-4.13989
-4.13762
-4.13524
-4.13269
-4.1299
-4.12672
-4.12291
-4.11793
-4.11078
-4.10335
-4.28418
-4.28235
-4.28058
-4.27877
-4.27697
-4.27516
-4.27332
-4.27143
-4.26949
-4.26749
-4.2654
-4.26321
-4.26085
-4.25826
-4.25532
-4.2518
-4.24719
-4.24054
-4.23335
-4.41014
-4.40855
-4.40699
-4.40538
-4.40377
-4.40213
-4.40045
-4.39873
-4.39695
-4.39511
-4.39319
-4.39118
-4.38902
-4.38666
-4.38398
-4.3808
-4.37649
-4.37029
-4.3637
-4.5361
-4.53475
-4.53341
-4.53202
-4.5306
-4.52914
-4.52762
-4.52605
-4.52442
-4.52272
-4.52096
-4.51912
-4.51715
-4.51502
-4.51264
-4.50987
-4.50614
-4.49989
-4.4931
-4.66204
-4.66094
-4.65983
-4.65866
-4.65744
-4.65615
-4.65479
-4.65336
-4.65186
-4.65031
-4.64869
-4.647
-4.6452
-4.64327
-4.64116
-4.63877
-4.6356
-4.62992
-4.62308
-4.78797
-4.78711
-4.78624
-4.78531
-4.7843
-4.78318
-4.78195
-4.78065
-4.77927
-4.77783
-4.77634
-4.77478
-4.77313
-4.77136
-4.76943
-4.76722
-4.76424
-4.75951
-4.75276
-4.91387
-4.91325
-4.91262
-4.91195
-4.91116
-4.9102
-4.9091
-4.9079
-4.90662
-4.90528
-4.90389
-4.90244
-4.90091
-4.89926
-4.89743
-4.89528
-4.89225
-4.88752
-4.88129
-5.03973
-5.03933
-5.03898
-5.03859
-5.03805
-5.03723
-5.03623
-5.03511
-5.03391
-5.03265
-5.03135
-5.03
-5.02857
-5.02702
-5.02527
-5.02311
-5.01999
-5.01517
-5.00949
-5.16551
-5.16534
-5.16527
-5.16524
-5.16498
-5.16428
-5.16334
-5.16226
-5.16112
-5.15993
-5.1587
-5.15745
-5.15614
-5.15471
-5.15306
-5.15104
-5.14804
-5.14346
-5.13824
-5.29117
-5.2912
-5.29144
-5.29192
-5.29211
-5.29142
-5.29046
-5.2894
-5.28827
-5.28713
-5.28598
-5.28482
-5.28364
-5.28239
-5.28099
-5.27932
-5.27659
-5.2723
-5.26754
-5.41662
-5.4168
-5.41744
-5.41893
-5.42009
-5.41912
-5.4179
-5.41671
-5.41554
-5.41438
-5.41324
-5.41214
-5.41109
-5.41007
-5.40906
-5.40785
-5.40555
-5.40169
-5.39742
-5.54177
-5.54205
-5.5433
-5.54688
-5.5498
-5.54772
-5.54584
-5.54437
-5.54304
-5.54178
-5.54058
-5.53944
-5.53842
-5.5376
-5.53705
-5.53646
-5.53482
-5.53166
-5.52835
-5.66699
-5.66731
-5.66904
-5.67504
-5.67605
-5.67308
-5.67125
-5.67003
-5.66902
-5.66807
-5.66716
-5.66632
-5.66554
-5.66496
-5.66516
-5.66633
-5.66432
-5.66202
-5.65983
)
;

boundaryField
{
    leftWall
    {
        type            calculated;
        value           nonuniform List<scalar> 
50
(
863.055
803.917
744.545
684.872
624.87
564.552
503.941
443.115
348.01
219.655
100.716
28.8031
10.3665
7.03347
3.58774
0.342688
-1.46617
-1.80475
-1.93224
-2.04525
-2.1413
-2.24226
-2.35217
-2.47066
-2.59522
-2.72272
-2.85194
-2.98028
-3.10435
-3.22578
-3.34728
-3.46942
-3.59188
-3.71432
-3.8367
-3.95908
-4.08145
-4.20383
-4.32617
-4.44847
-4.57072
-4.69293
-4.81512
-4.93731
-5.05953
-5.18178
-5.30417
-5.42689
-5.54938
-5.66901
)
;
    }
    rightWall
    {
        type            calculated;
        value           nonuniform List<scalar> 
50
(
540.618
483.814
427.384
371.42
315.722
260.111
204.17
148.679
93.6165
59.9691
46.3816
32.6864
17.0949
3.86941
-0.780148
-1.1011
-1.2542
-1.37963
-1.51212
-1.65495
-1.8083
-1.96443
-2.11163
-2.25736
-2.40701
-2.55313
-2.69459
-2.83153
-2.96445
-3.09397
-3.21762
-3.33788
-3.46144
-3.58874
-3.71729
-3.8457
-3.97425
-4.10335
-4.23335
-4.3637
-4.4931
-4.62308
-4.75276
-4.88129
-5.00949
-5.13824
-5.26754
-5.39742
-5.52835
-5.65983
)
;
    }
    lowerWall
    {
        type            calculated;
        value           nonuniform List<scalar> 
62
(
892.485
894.418
898.397
903.533
909.053
914.861
920.918
927.092
933.174
938.956
944.284
949.083
953.375
957.297
961.174
965.414
969.432
976.098
985.297
997.491
1011.59
1024.49
1036.05
1006.96
951.493
896.261
840.658
783.126
721.523
651.641
564.534
250.767
234.33
252.529
251.09
575.089
515.27
454.253
392.395
331.47
275.042
206.528
136.319
604.286
616.275
625.192
622.409
610.841
592.181
572.856
556.677
541.374
524.917
521.05
524.674
532.942
538.97
545.905
552.261
557.875
563.465
568.678
)
;
    }
    atmosphere
    {
        type            calculated;
        value           nonuniform List<scalar> 
46
(
-5.73068
-5.73264
-5.73189
-5.73139
-5.73108
-5.73087
-5.73072
-5.73061
-5.73054
-5.73049
-5.73046
-5.73044
-5.73043
-5.73042
-5.73042
-5.73041
-5.73039
-5.73035
-5.73031
-5.73024
-5.73016
-5.73006
-5.72994
-5.72983
-5.72976
-5.72968
-5.72959
-5.72945
-5.72928
-5.72915
-5.72906
-5.72904
-5.72904
-5.72904
-5.72904
-5.72904
-5.72904
-5.72904
-5.72906
-5.72906
-5.72906
-5.7301
-5.73511
-5.73082
-5.7292
-5.72914
)
;
    }
    defaultFaces
    {
        type            empty;
    }
}


// ************************************************************************* //
