/*--------------------------------*- C++ -*----------------------------------*\
| =========                 |                                                 |
| \\      /  F ield         | OpenFOAM: The Open Source CFD Toolbox           |
|  \\    /   O peration     | Version:  2.3.0                                 |
|   \\  /    A nd           | Web:      www.OpenFOAM.org                      |
|    \\/     M anipulation  |                                                 |
\*---------------------------------------------------------------------------*/
FoamFile
{
    version     2.0;
    format      ascii;
    class       surfaceScalarField;
    location    "1.55";
    object      phi;
}
// * * * * * * * * * * * * * * * * * * * * * * * * * * * * * * * * * * * * * //

dimensions      [0 3 -1 0 0 0 0];

internalField   nonuniform List<scalar> 
4432
(
-2.02789e-06
2.02789e-06
-1.20148e-06
-8.26415e-07
6.25149e-07
-1.82663e-06
2.65217e-06
-2.02702e-06
4.62702e-06
-1.97485e-06
6.48817e-06
-1.86116e-06
8.25794e-06
-1.76977e-06
9.97381e-06
-1.71587e-06
1.16583e-05
-1.68451e-06
1.33097e-05
-1.65137e-06
1.49014e-05
-1.59165e-06
1.63843e-05
-1.48289e-06
1.76912e-05
-1.30698e-06
1.8736e-05
-1.04479e-06
1.93634e-05
-6.27385e-07
1.92328e-05
1.30635e-07
1.80522e-05
1.18059e-06
1.59634e-05
2.08876e-06
1.30127e-05
2.95074e-06
9.30711e-06
3.7056e-06
4.76244e-06
4.54467e-06
6.16627e-07
4.14581e-06
6.16626e-07
-4.61345e-07
2.48924e-06
4.69313e-07
-1.75708e-06
1.89599e-06
-3.25332e-06
3.46926e-06
-3.60031e-06
5.07186e-06
-3.57745e-06
6.65978e-06
-3.44908e-06
8.23142e-06
-3.34142e-06
9.80049e-06
-3.28494e-06
1.13721e-05
-3.2561e-06
1.29335e-05
-3.21276e-06
1.4454e-05
-3.11215e-06
1.58871e-05
-2.91596e-06
1.71708e-05
-2.59073e-06
1.82225e-05
-2.09647e-06
1.89391e-05
-1.34399e-06
1.91956e-05
-1.25895e-07
1.87913e-05
1.5849e-06
1.74843e-05
3.39582e-06
1.51804e-05
5.25465e-06
1.18075e-05
7.07843e-06
7.46614e-06
8.88607e-06
3.02839e-06
8.58357e-06
3.64501e-06
5.65316e-07
1.92392e-06
1.4514e-06
-2.64317e-06
2.54314e-06
-4.34505e-06
3.78031e-06
-4.83748e-06
5.1134e-06
-4.91055e-06
6.50151e-06
-4.83719e-06
7.93203e-06
-4.77193e-06
9.4044e-06
-4.75731e-06
1.09111e-05
-4.7628e-06
1.24309e-05
-4.73257e-06
1.39294e-05
-4.61061e-06
1.53599e-05
-4.34648e-06
1.66623e-05
-3.89314e-06
1.77573e-05
-3.1915e-06
1.85455e-05
-2.13218e-06
1.89367e-05
-5.17146e-07
1.88038e-05
1.7178e-06
1.78641e-05
4.33549e-06
1.59321e-05
7.18675e-06
1.2932e-05
1.00785e-05
9.03547e-06
1.27826e-05
4.70808e-06
1.2911e-05
8.35309e-06
1.13239e-06
7.91533e-07
1.97526e-06
-3.48604e-06
2.79468e-06
-5.16447e-06
3.76325e-06
-5.80606e-06
4.88339e-06
-6.03069e-06
6.11472e-06
-6.06852e-06
7.4392e-06
-6.09641e-06
8.84828e-06
-6.16639e-06
1.03252e-05
-6.23972e-06
1.18414e-05
-6.24875e-06
1.33584e-05
-6.12758e-06
1.48284e-05
-5.81653e-06
1.61928e-05
-5.25757e-06
1.7378e-05
-4.37669e-06
1.8297e-05
-3.05117e-06
1.88713e-05
-1.0914e-06
1.89858e-05
1.60325e-06
1.83555e-05
4.96579e-06
1.67634e-05
8.77893e-06
1.41392e-05
1.27026e-05
1.05828e-05
1.6339e-05
6.1438e-06
1.73499e-05
1.44969e-05
1.38414e-06
-5.92608e-07
2.11158e-06
-4.21348e-06
2.68725e-06
-5.74013e-06
3.43503e-06
-6.55384e-06
4.38433e-06
-6.98e-06
5.49155e-06
-7.17574e-06
6.73832e-06
-7.34318e-06
8.11301e-06
-7.54108e-06
9.59169e-06
-7.7184e-06
1.11387e-05
-7.79571e-06
1.27108e-05
-7.69976e-06
1.42586e-05
-7.3643e-06
1.57245e-05
-6.7234e-06
1.70407e-05
-5.69295e-06
1.81318e-05
-4.14227e-06
1.89242e-05
-1.88382e-06
1.92984e-05
1.22906e-06
1.89878e-05
5.2764e-06
1.77783e-05
9.98845e-06
1.55874e-05
1.48935e-05
1.24038e-05
1.95226e-05
7.82381e-06
2.193e-05
2.23207e-05
1.4158e-06
-2.00841e-06
1.91755e-06
-4.71523e-06
2.25757e-06
-6.08015e-06
2.82114e-06
-7.1174e-06
3.63407e-06
-7.79293e-06
4.64479e-06
-8.18646e-06
5.83927e-06
-8.53767e-06
7.20648e-06
-8.90829e-06
8.7159e-06
-9.22783e-06
1.03241e-05
-9.40394e-06
1.19828e-05
-9.3584e-06
1.36395e-05
-9.02101e-06
1.52371e-05
-8.32105e-06
1.6713e-05
-7.16882e-06
1.79996e-05
-5.42886e-06
1.90289e-05
-2.91311e-06
1.96893e-05
5.68685e-07
1.97331e-05
5.23252e-06
1.89699e-05
1.07517e-05
1.73265e-05
1.65369e-05
1.46926e-05
2.21565e-05
1.012e-05
2.65026e-05
3.24407e-05
1.2483e-06
-3.25671e-06
1.45398e-06
-4.9209e-06
1.57239e-06
-6.19856e-06
1.98177e-06
-7.52678e-06
2.68507e-06
-8.49623e-06
3.6204e-06
-9.12179e-06
4.78253e-06
-9.69981e-06
6.16364e-06
-1.02894e-05
7.72609e-06
-1.07903e-05
9.41746e-06
-1.10953e-05
1.11833e-05
-1.11242e-05
1.29678e-05
-1.08055e-05
1.47135e-05
-1.00668e-05
1.63614e-05
-8.81671e-06
1.78503e-05
-6.91782e-06
1.9121e-05
-4.18379e-06
2.00805e-05
-3.90837e-07
2.051e-05
4.80301e-06
2.02706e-05
1.09911e-05
1.93443e-05
1.74632e-05
1.75995e-05
2.39013e-05
1.32711e-05
3.0831e-05
4.57118e-05
8.96837e-07
-4.15354e-06
8.07645e-07
-4.8317e-06
7.32698e-07
-6.12361e-06
1.01492e-06
-7.809e-06
1.62985e-06
-9.11116e-06
2.50393e-06
-9.99587e-06
3.64545e-06
-1.08413e-05
5.05221e-06
-1.16962e-05
6.67814e-06
-1.24162e-05
8.46042e-06
-1.28776e-05
1.03381e-05
-1.30019e-05
1.2252e-05
-1.27194e-05
1.41438e-05
-1.19586e-05
1.59576e-05
-1.06305e-05
1.76375e-05
-8.59778e-06
1.91332e-05
-5.67948e-06
2.03888e-05
-1.64642e-06
2.12213e-05
3.97054e-06
2.16224e-05
1.059e-05
2.15923e-05
1.74934e-05
2.10629e-05
2.44307e-05
1.80228e-05
3.3871e-05
6.37346e-05
-4.07777e-06
4.07777e-06
6.68823e-07
-4.74661e-06
6.23216e-06
-5.56334e-06
1.11687e-05
-4.93652e-06
1.61941e-05
-5.02543e-06
1.98532e-05
-3.65908e-06
2.14552e-05
-1.60194e-06
2.10697e-05
3.85428e-07
1.85788e-05
2.4909e-06
1.30782e-05
5.50061e-06
6.56134e-06
6.51689e-06
1.92507e-06
4.63627e-06
-3.4048e-07
2.26553e-06
-2.49168e-06
2.15121e-06
-4.01981e-06
1.52816e-06
-4.87253e-06
8.52705e-07
-5.69529e-06
8.2276e-07
-4.92051e-06
-7.74757e-07
-4.92054e-06
-9.52015e-07
5.02978e-06
3.28305e-06
-8.98167e-06
7.57281e-06
-9.85311e-06
1.07081e-05
-8.0718e-06
1.37334e-05
-8.05073e-06
1.60338e-05
-5.95949e-06
1.71022e-05
-2.67037e-06
1.70536e-05
4.34023e-07
1.56682e-05
3.87632e-06
1.32059e-05
7.9629e-06
9.10779e-06
1.0615e-05
4.64464e-06
9.09944e-06
1.80791e-06
5.10227e-06
-5.61606e-07
4.52073e-06
-2.44948e-06
3.41606e-06
-3.68384e-06
2.08707e-06
-4.2019e-06
1.34077e-06
-3.17204e-06
-1.8046e-06
-8.0926e-06
1.01024e-06
4.01953e-06
5.18778e-06
-1.31592e-05
8.53203e-06
-1.31974e-05
1.01933e-05
-9.73309e-06
1.1765e-05
-9.6224e-06
1.30518e-05
-7.24626e-06
1.35262e-05
-3.1448e-06
1.30424e-05
9.17818e-07
1.18984e-05
5.02033e-06
1.14748e-05
8.38654e-06
1.0117e-05
1.19728e-05
6.57078e-06
1.26456e-05
3.56816e-06
8.10489e-06
9.56369e-07
7.1325e-06
-1.16246e-06
5.53489e-06
-2.60868e-06
3.53329e-06
-3.1289e-06
1.86098e-06
-2.05846e-06
-2.87503e-06
-1.01511e-05
2.36092e-06
1.65863e-06
7.15391e-06
-1.79522e-05
9.73545e-06
-1.57789e-05
9.83899e-06
-9.83663e-06
1.0031e-05
-9.81439e-06
1.04369e-05
-7.65217e-06
1.02623e-05
-2.97022e-06
9.37016e-06
1.80999e-06
9.00327e-06
5.38719e-06
9.88899e-06
7.50081e-06
1.01586e-05
1.17032e-05
8.27644e-06
1.45278e-05
5.14226e-06
1.12391e-05
2.26958e-06
1.00052e-05
-1.59709e-09
7.80605e-06
-1.62199e-06
5.15369e-06
-2.2444e-06
2.48338e-06
-1.53953e-06
-3.57989e-06
-1.16906e-05
4.00978e-06
-2.35115e-06
1.01382e-05
-2.40807e-05
1.17596e-05
-1.74002e-05
9.88889e-06
-7.96595e-06
8.39887e-06
-8.32438e-06
7.92835e-06
-7.18166e-06
7.21381e-06
-2.25568e-06
6.38405e-06
2.63975e-06
6.74473e-06
5.02651e-06
8.17452e-06
6.07104e-06
9.75287e-06
1.01249e-05
9.23496e-06
1.50457e-05
6.28949e-06
1.41846e-05
3.46278e-06
1.28319e-05
1.16048e-06
1.01084e-05
-5.69967e-07
6.88415e-06
-1.4072e-06
3.32061e-06
-1.20846e-06
-3.77862e-06
-1.2899e-05
7.67231e-06
-1.00235e-05
1.58838e-05
-3.22921e-05
1.59199e-05
-1.74364e-05
1.07443e-05
-2.7904e-06
6.99053e-06
-4.57058e-06
5.69427e-06
-5.8854e-06
4.74873e-06
-1.31014e-06
4.23745e-06
3.15104e-06
4.84388e-06
4.42007e-06
6.42373e-06
4.49119e-06
8.71671e-06
7.83189e-06
9.22989e-06
1.45325e-05
7.15668e-06
1.62578e-05
4.54533e-06
1.54432e-05
2.39482e-06
1.22589e-05
6.5009e-07
8.6289e-06
-3.9409e-07
4.36479e-06
-6.32236e-07
-3.54047e-06
-1.35313e-05
1.55733e-05
-2.55967e-05
2.3876e-05
-4.05949e-05
2.28687e-05
-1.64291e-05
1.29829e-05
7.09541e-06
6.31851e-06
2.09385e-06
4.17021e-06
-3.7371e-06
2.96941e-06
-1.09349e-07
2.48229e-06
3.63816e-06
2.97259e-06
3.92976e-06
4.52994e-06
2.93382e-06
6.85083e-06
5.51101e-06
8.60363e-06
1.27797e-05
8.14216e-06
1.67192e-05
5.86029e-06
1.77251e-05
3.7732e-06
1.4346e-05
2.10807e-06
1.0294e-05
1.01738e-06
5.45547e-06
4.36905e-07
-2.96e-06
-1.30944e-05
2.60101e-05
-5.16068e-05
3.01775e-05
-4.47624e-05
2.83825e-05
-1.4634e-05
1.67282e-05
1.87497e-05
6.77829e-06
1.20437e-05
3.46955e-06
-4.28366e-07
1.67663e-06
1.68356e-06
8.29411e-07
4.48538e-06
1.02052e-06
3.73864e-06
2.28727e-06
1.66707e-06
4.43442e-06
3.36385e-06
7.30605e-06
9.90807e-06
8.57529e-06
1.545e-05
7.54249e-06
1.87579e-05
5.34855e-06
1.65399e-05
3.91777e-06
1.17248e-05
2.89089e-06
6.48235e-06
2.31978e-06
-2.38889e-06
-1.07746e-05
4.31215e-07
-4.58475e-06
-5.79459e-07
-3.82102e-06
-1.29775e-06
-5.40531e-06
-1.02327e-06
-8.08348e-06
6.83169e-08
-1.02027e-05
1.75517e-06
-1.16827e-05
4.13595e-06
-1.32221e-05
7.22793e-06
-1.47882e-05
1.0893e-05
-1.60813e-05
1.49616e-05
-1.69462e-05
1.92876e-05
-1.73279e-05
2.37355e-05
-1.71672e-05
2.81796e-05
-1.64027e-05
3.25123e-05
-1.49632e-05
3.6629e-05
-1.27144e-05
4.04467e-05
-9.49723e-06
4.39683e-05
-5.16801e-06
4.7163e-05
7.75885e-07
5.02932e-05
7.45977e-06
5.3542e-05
1.42446e-05
5.73193e-05
2.06534e-05
6.51997e-05
2.59906e-05
3.02729e-05
9.86614e-05
-7.66395e-07
-3.81835e-06
-2.45104e-06
-2.13637e-06
-3.7652e-06
-4.09115e-06
-3.6022e-06
-8.24647e-06
-2.5911e-06
-1.12138e-05
-1.10802e-06
-1.31658e-05
1.1997e-06
-1.55298e-05
4.35733e-06
-1.79458e-05
8.15666e-06
-1.98806e-05
1.23959e-05
-2.11854e-05
1.69288e-05
-2.18608e-05
2.16171e-05
-2.18556e-05
2.6339e-05
-2.11245e-05
3.10128e-05
-1.96371e-05
3.55572e-05
-1.72588e-05
3.9911e-05
-1.3851e-05
4.41613e-05
-9.41832e-06
4.87524e-05
-3.81516e-06
5.38198e-05
2.3923e-06
5.9495e-05
8.56935e-06
6.61539e-05
1.39945e-05
7.5102e-05
1.70425e-05
1.71681e-05
8.82068e-05
-5.87367e-07
-3.23097e-06
-2.20373e-06
-5.19992e-07
-3.37185e-06
-2.92303e-06
-2.88016e-06
-8.73816e-06
-1.99751e-06
-1.20965e-05
-8.67468e-07
-1.42958e-05
1.15077e-06
-1.75481e-05
4.05354e-06
-2.08486e-05
7.59587e-06
-2.34229e-05
1.15926e-05
-2.51822e-05
1.59291e-05
-2.61973e-05
2.04538e-05
-2.63803e-05
2.50371e-05
-2.57079e-05
2.96434e-05
-2.42434e-05
3.42249e-05
-2.18403e-05
3.87345e-05
-1.83607e-05
4.33341e-05
-1.40179e-05
4.84957e-05
-8.97682e-06
5.42871e-05
-3.39904e-06
6.06273e-05
2.22915e-06
6.75764e-05
7.04536e-06
7.51427e-05
9.47626e-06
8.42391e-06
8.38869e-05
-2.61559e-07
-2.96941e-06
-1.01459e-06
2.33022e-07
1.43265e-06
-5.37027e-06
3.06091e-06
-1.03664e-05
3.56218e-06
-1.25978e-05
3.94195e-06
-1.46756e-05
4.93604e-06
-1.85422e-05
6.66928e-06
-2.25818e-05
9.16976e-06
-2.59234e-05
1.23725e-05
-2.83849e-05
1.60707e-05
-2.98956e-05
2.00246e-05
-3.03341e-05
2.40615e-05
-2.97448e-05
2.81779e-05
-2.83598e-05
3.23624e-05
-2.60248e-05
3.65919e-05
-2.25902e-05
4.11142e-05
-1.85402e-05
4.63133e-05
-1.41759e-05
5.22526e-05
-9.33837e-06
5.87833e-05
-4.30154e-06
6.5701e-05
1.27679e-07
7.29578e-05
2.21943e-06
1.33342e-06
8.00483e-05
-1.25692e-05
9.59979e-06
-3.22672e-06
-9.10953e-06
1.34729e-05
-2.20699e-05
2.29159e-05
-1.98095e-05
2.40189e-05
-1.37008e-05
2.25416e-05
-1.31984e-05
1.78325e-05
-1.3833e-05
1.26741e-05
-1.74234e-05
1.20536e-05
-2.53029e-05
1.38201e-05
-3.01514e-05
1.6507e-05
-3.25825e-05
1.96475e-05
-3.34746e-05
2.29019e-05
-3.29992e-05
2.62298e-05
-3.16876e-05
2.96216e-05
-2.94166e-05
3.31131e-05
-2.60816e-05
3.71968e-05
-2.26239e-05
4.23771e-05
-1.93562e-05
4.85777e-05
-1.5539e-05
5.56393e-05
-1.13631e-05
6.33178e-05
-7.55084e-06
7.15249e-05
-5.9877e-06
-6.57335e-06
7.94317e-05
-3.94276e-06
1.35425e-05
1.40302e-05
-2.70825e-05
3.45602e-05
-4.25999e-05
5.42765e-05
-3.95258e-05
6.75003e-05
-2.69246e-05
7.48571e-05
-2.05552e-05
8.0054e-05
-1.90298e-05
6.99678e-05
-7.33724e-06
4.17497e-05
2.91531e-06
2.40764e-05
-1.2478e-05
1.94651e-05
-2.79711e-05
2.03446e-05
-3.4354e-05
2.26337e-05
-3.52883e-05
2.51478e-05
-3.42017e-05
2.72283e-05
-3.1497e-05
2.86994e-05
-2.75528e-05
3.14511e-05
-2.53755e-05
3.73657e-05
-2.52708e-05
4.47704e-05
-2.29437e-05
5.29311e-05
-1.95238e-05
6.03085e-05
-1.49282e-05
6.95501e-05
-1.52293e-05
-1.46173e-05
7.7594e-05
1.37273e-05
-1.84806e-07
3.00987e-05
-4.3454e-05
4.39414e-05
-5.64427e-05
5.49611e-05
-5.05455e-05
6.30553e-05
-3.50188e-05
6.49911e-05
-2.2491e-05
6.43699e-05
-1.84085e-05
6.10458e-05
-4.01308e-06
4.57761e-05
1.81853e-05
2.96583e-05
3.63986e-06
2.40042e-05
-2.2317e-05
2.35119e-05
-3.38617e-05
2.40342e-05
-3.58106e-05
2.55991e-05
-3.57666e-05
2.72618e-05
-3.31598e-05
2.52586e-05
-2.55495e-05
2.50283e-05
-2.51453e-05
2.96321e-05
-2.98747e-05
3.65904e-05
-2.99021e-05
4.39584e-05
-2.68917e-05
4.77635e-05
-1.87332e-05
4.05518e-05
-8.01768e-06
6.05069e-06
1.98838e-05
2.72504e-05
-2.74352e-05
3.81604e-05
-5.43639e-05
4.46407e-05
-6.2923e-05
4.90275e-05
-5.49323e-05
5.27983e-05
-3.87896e-05
5.02945e-05
-1.99872e-05
4.55276e-05
-1.36416e-05
4.07775e-05
7.3702e-07
3.49865e-05
2.39764e-05
3.0257e-05
8.36939e-06
2.62904e-05
-1.83503e-05
2.38548e-05
-3.14261e-05
2.19927e-05
-3.39485e-05
2.10922e-05
-3.48661e-05
2.13232e-05
-3.33908e-05
2.20139e-05
-2.62403e-05
2.30052e-05
-2.61367e-05
2.22197e-05
-2.90892e-05
2.48035e-05
-3.24859e-05
2.68588e-05
-2.89471e-05
2.45026e-05
-1.63771e-05
1.31018e-05
3.38303e-06
2.6924e-05
-7.77122e-06
3.51042e-05
-6.25393e-05
3.91142e-05
-5.83741e-05
3.52072e-05
-5.9016e-05
3.29295e-05
-5.26547e-05
2.96678e-05
-3.55278e-05
2.74801e-05
-1.77996e-05
2.03244e-05
-6.48592e-06
1.56879e-05
5.37353e-06
2.28842e-05
1.67801e-05
2.736e-05
3.89362e-06
2.48454e-05
-1.58357e-05
1.97343e-05
-2.63149e-05
1.61166e-05
-3.03309e-05
1.27278e-05
-3.14773e-05
8.99388e-06
-2.96569e-05
8.13992e-06
-2.53864e-05
6.44548e-06
-2.44424e-05
4.85108e-06
-2.74949e-05
4.2201e-06
-3.18549e-05
3.37875e-06
-2.81058e-05
1.57176e-07
-1.31557e-05
-6.57058e-06
1.01106e-05
4.05047e-05
-2.01513e-05
1.95489e-05
-8.20884e-05
2.40573e-05
-6.28823e-05
1.64112e-05
-5.13703e-05
5.4215e-06
-4.16651e-05
-3.1937e-06
-2.69125e-05
-7.74734e-06
-1.32458e-05
-9.84887e-06
-4.38437e-06
-6.96971e-06
2.49443e-06
3.30562e-06
6.50474e-06
9.32639e-06
-2.12714e-06
8.24863e-06
-1.47579e-05
4.96347e-06
-2.30297e-05
1.73473e-06
-2.71021e-05
-1.53521e-06
-2.82072e-05
-4.48601e-06
-2.67061e-05
-6.27081e-06
-2.36017e-05
-8.55309e-06
-2.21602e-05
-1.18837e-05
-2.41643e-05
-1.51505e-05
-2.85882e-05
-1.79699e-05
-2.52863e-05
-2.08189e-05
-1.03068e-05
-2.43606e-05
1.36523e-05
4.68947e-05
-3.07506e-05
-3.01026e-06
-7.9079e-05
-6.79107e-06
-5.9101e-05
-1.33178e-05
-4.48437e-05
-2.13704e-05
-3.36126e-05
-2.68665e-05
-2.14165e-05
-2.85872e-05
-1.15251e-05
-2.73672e-05
-5.60437e-06
-2.30098e-05
-1.86298e-06
-1.50418e-05
-1.46327e-06
-9.53454e-06
-7.63439e-06
-8.53087e-06
-1.57616e-05
-9.85134e-06
-2.17093e-05
-1.20566e-05
-2.48968e-05
-1.45734e-05
-2.56904e-05
-1.67967e-05
-2.44829e-05
-1.82216e-05
-2.2177e-05
-1.96997e-05
-2.0682e-05
-2.26684e-05
-2.11956e-05
-2.84207e-05
-2.28359e-05
-3.42534e-05
-1.94537e-05
-3.81144e-05
-6.44578e-06
-4.16998e-05
1.72375e-05
4.62765e-05
-4.10817e-05
-1.33641e-05
-6.57156e-05
-2.24141e-05
-5.00507e-05
-2.97184e-05
-3.75393e-05
-3.60648e-05
-2.72663e-05
-3.94284e-05
-1.80528e-05
-3.96144e-05
-1.13393e-05
-3.75018e-05
-7.7169e-06
-3.30954e-05
-6.26942e-06
-2.71759e-05
-7.38279e-06
-2.30429e-05
-1.17674e-05
-2.17523e-05
-1.70521e-05
-2.23699e-05
-2.10916e-05
-2.39701e-05
-2.32965e-05
-2.59354e-05
-2.37251e-05
-2.77127e-05
-2.27056e-05
-2.89726e-05
-2.09171e-05
-3.02699e-05
-1.93846e-05
-3.28928e-05
-1.85729e-05
-3.8256e-05
-1.74728e-05
-4.51294e-05
-1.25806e-05
-5.08307e-05
-7.44649e-07
-5.22828e-05
1.86895e-05
4.20954e-05
-4.81018e-05
-1.69616e-05
-4.8754e-05
-2.84247e-05
-3.85877e-05
-3.64669e-05
-2.94971e-05
-4.18893e-05
-2.18438e-05
-4.43421e-05
-1.56e-05
-4.41525e-05
-1.15289e-05
-4.2126e-05
-9.74336e-06
-3.87075e-05
-9.6881e-06
-3.48058e-05
-1.12846e-05
-3.21202e-05
-1.4453e-05
-3.12511e-05
-1.79211e-05
-3.17919e-05
-2.05508e-05
-3.31737e-05
-2.19147e-05
-3.4896e-05
-2.20027e-05
-3.65589e-05
-2.10427e-05
-3.80192e-05
-1.9457e-05
-3.96725e-05
-1.77314e-05
-4.23353e-05
-1.59102e-05
-4.66948e-05
-1.31135e-05
-5.19524e-05
-7.32301e-06
-5.59312e-05
3.2341e-06
-5.59629e-05
1.87211e-05
3.68163e-05
-5.06839e-05
-1.73723e-05
-3.13818e-05
-2.91807e-05
-2.67791e-05
-3.71181e-05
-2.15597e-05
-4.20341e-05
-1.69277e-05
-4.42525e-05
-1.33815e-05
-4.43555e-05
-1.14259e-05
-4.30648e-05
-1.10342e-05
-4.09439e-05
-1.1809e-05
-3.87179e-05
-1.35106e-05
-3.73022e-05
-1.58687e-05
-3.70455e-05
-1.81778e-05
-3.77686e-05
-1.98277e-05
-3.91286e-05
-2.05547e-05
-4.07863e-05
-2.0345e-05
-4.24884e-05
-1.93405e-05
-4.41755e-05
-1.77699e-05
-4.60843e-05
-1.58226e-05
-4.86158e-05
-1.33789e-05
-5.194e-05
-9.7894e-06
-5.53503e-05
-3.91283e-06
-5.7263e-05
5.14673e-06
-5.58459e-05
1.7304e-05
3.10836e-05
-5.01133e-05
-1.58358e-05
-1.5546e-05
-2.68437e-05
-1.57712e-05
-3.42491e-05
-1.41543e-05
-3.88342e-05
-1.23426e-05
-4.11282e-05
-1.10875e-05
-4.17507e-05
-1.08034e-05
-4.13307e-05
-1.14543e-05
-4.0387e-05
-1.27528e-05
-3.94479e-05
-1.44498e-05
-3.90301e-05
-1.62866e-05
-3.93403e-05
-1.78676e-05
-4.02977e-05
-1.88702e-05
-4.17013e-05
-1.91511e-05
-4.3338e-05
-1.87083e-05
-4.50521e-05
-1.76263e-05
-4.68051e-05
-1.60169e-05
-4.86973e-05
-1.39303e-05
-5.08562e-05
-1.122e-05
-5.31891e-05
-7.45668e-06
-5.50833e-05
-2.01872e-06
-5.54467e-05
5.51017e-06
-5.30996e-05
1.49568e-05
2.53952e-05
-4.74112e-05
-1.32741e-05
-2.27167e-06
-2.28966e-05
-6.1488e-06
-2.94916e-05
-7.55931e-06
-3.37231e-05
-8.11105e-06
-3.61172e-05
-8.6932e-06
-3.72209e-05
-9.69982e-06
-3.75473e-05
-1.11279e-05
-3.75177e-05
-1.27825e-05
-3.75031e-05
-1.44645e-05
-3.78066e-05
-1.59832e-05
-3.85521e-05
-1.71221e-05
-3.97015e-05
-1.77207e-05
-4.11377e-05
-1.77149e-05
-4.27292e-05
-1.71169e-05
-4.43758e-05
-1.59798e-05
-4.60356e-05
-1.43571e-05
-4.77178e-05
-1.22481e-05
-4.94028e-05
-9.53503e-06
-5.09006e-05
-5.95898e-06
-5.17213e-05
-1.19797e-06
-5.11323e-05
4.92128e-06
-4.84004e-05
1.22249e-05
2.01307e-05
-4.31358e-05
-1.05198e-05
8.2482e-06
-1.82654e-05
1.5968e-06
-2.37873e-05
-2.03743e-06
-2.75431e-05
-4.35513e-06
-2.99266e-05
-6.3097e-06
-3.13548e-05
-8.27165e-06
-3.22153e-05
-1.02673e-05
-3.28235e-05
-1.21742e-05
-3.34317e-05
-1.38564e-05
-3.42204e-05
-1.51946e-05
-3.52617e-05
-1.60809e-05
-3.6534e-05
-1.64484e-05
-3.79662e-05
-1.62828e-05
-3.94747e-05
-1.56084e-05
-4.09891e-05
-1.44655e-05
-4.24617e-05
-1.28845e-05
-4.38533e-05
-1.08566e-05
-4.50824e-05
-8.30594e-06
-4.59506e-05
-5.09075e-06
-4.60919e-05
-1.05658e-06
-4.50236e-05
3.85309e-06
-4.22947e-05
9.49597e-06
1.55083e-05
-3.76723e-05
-7.67728e-06
1.59254e-05
-1.33053e-05
7.22468e-06
-1.76198e-05
2.277e-06
-2.07845e-05
-1.19021e-06
-2.30301e-05
-4.06429e-06
-2.46155e-05
-6.68621e-06
-2.58063e-05
-9.07641e-06
-2.6821e-05
-1.11595e-05
-2.78228e-05
-1.28548e-05
-2.89158e-05
-1.41016e-05
-3.01372e-05
-1.48595e-05
-3.14692e-05
-1.51163e-05
-3.28642e-05
-1.48879e-05
-3.42649e-05
-1.42078e-05
-3.56174e-05
-1.3113e-05
-3.68731e-05
-1.16289e-05
-3.79751e-05
-9.75447e-06
-3.88288e-05
-7.4522e-06
-3.92648e-05
-4.6547e-06
-3.90231e-05
-1.29823e-06
-3.77914e-05
2.62144e-06
-3.52955e-05
7.00007e-06
1.16156e-05
-3.14028e-05
-4.78039e-06
2.07057e-05
-8.33664e-06
1.07807e-05
-1.12521e-05
5.19254e-06
-1.37929e-05
1.35034e-06
-1.58127e-05
-2.04454e-06
-1.74262e-05
-5.07266e-06
-1.87903e-05
-7.71228e-06
-2.0041e-05
-9.90894e-06
-2.1274e-05
-1.16219e-05
-2.25428e-05
-1.28329e-05
-2.38592e-05
-1.35431e-05
-2.52038e-05
-1.37716e-05
-2.654e-05
-1.35517e-05
-2.78249e-05
-1.29228e-05
-2.90156e-05
-1.19223e-05
-3.00668e-05
-1.05776e-05
-3.09223e-05
-8.89889e-06
-3.14975e-05
-6.87699e-06
-3.16626e-05
-4.48952e-06
-3.12409e-05
-1.72e-06
-3.00349e-05
1.41554e-06
-2.78818e-05
4.84706e-06
8.44681e-06
-2.47129e-05
-1.29571e-06
2.20012e-05
-3.14727e-06
1.2632e-05
-4.95381e-06
6.99915e-06
-6.89133e-06
3.28766e-06
-8.65251e-06
-2.83218e-07
-1.02108e-05
-3.51426e-06
-1.16394e-05
-6.28374e-06
-1.30075e-05
-8.54097e-06
-1.436e-05
-1.02695e-05
-1.57147e-05
-1.14782e-05
-1.70652e-05
-1.21925e-05
-1.83888e-05
-1.2448e-05
-1.96539e-05
-1.22865e-05
-2.08263e-05
-1.17503e-05
-2.18708e-05
-1.08777e-05
-2.27492e-05
-9.69915e-06
-2.34137e-05
-8.23432e-06
-2.37982e-05
-6.49243e-06
-2.3811e-05
-4.4767e-06
-2.3337e-05
-2.1939e-06
-2.22561e-05
3.34645e-07
-2.0475e-05
3.0661e-06
5.93613e-06
-1.79643e-05
3.16292e-06
1.88382e-05
2.42036e-06
1.33745e-05
9.99872e-07
8.41965e-06
-4.66854e-07
4.75447e-06
-1.95989e-06
1.21006e-06
-3.40888e-06
-2.06531e-06
-4.82238e-06
-4.87028e-06
-6.21966e-06
-7.14368e-06
-7.60795e-06
-8.88123e-06
-8.97985e-06
-1.01064e-05
-1.03162e-05
-1.08561e-05
-1.15909e-05
-1.11732e-05
-1.27752e-05
-1.1102e-05
-1.38404e-05
-1.0685e-05
-1.47577e-05
-9.96025e-06
-1.54966e-05
-8.96016e-06
-1.60205e-05
-7.71037e-06
-1.62823e-05
-6.23066e-06
-1.62215e-05
-4.53748e-06
-1.57675e-05
-2.64784e-06
-1.48508e-05
-5.81993e-07
-1.34218e-05
1.63724e-06
3.98756e-06
-1.14732e-05
6.21089e-06
1.26271e-05
6.92787e-06
1.26575e-05
6.04911e-06
9.29834e-06
4.97417e-06
5.8296e-06
3.78816e-06
2.39613e-06
2.5215e-06
-7.98764e-07
1.20741e-06
-3.55611e-06
-1.33536e-07
-5.80259e-06
-1.47904e-06
-7.53568e-06
-2.80303e-06
-8.78237e-06
-4.07711e-06
-9.58197e-06
-5.27254e-06
-9.97769e-06
-6.36193e-06
-1.00125e-05
-7.32012e-06
-9.72661e-06
-8.12348e-06
-9.15678e-06
-8.74828e-06
-8.33529e-06
-9.16827e-06
-7.29033e-06
-9.35228e-06
-6.04659e-06
-9.26344e-06
-4.62624e-06
-8.86166e-06
-3.04951e-06
-8.11025e-06
-1.33329e-06
-6.98614e-06
5.13223e-07
2.4952e-06
-5.49369e-06
6.29339e-06
6.33361e-06
8.73848e-06
1.02124e-05
9.1104e-06
8.92639e-06
8.75568e-06
6.18436e-06
8.05407e-06
3.09757e-06
7.12068e-06
1.34527e-07
6.0369e-06
-2.47217e-06
4.86556e-06
-4.63108e-06
3.65732e-06
-6.32739e-06
2.45594e-06
-7.58098e-06
1.29953e-06
-8.42554e-06
2.21064e-07
-8.89917e-06
-7.51333e-07
-9.03992e-06
-1.59397e-06
-8.88383e-06
-2.28644e-06
-8.46418e-06
-2.81016e-06
-7.81147e-06
-3.14674e-06
-6.95367e-06
-3.27676e-06
-5.91647e-06
-3.17964e-06
-4.72324e-06
-2.8352e-06
-3.39381e-06
-2.2273e-06
-1.94107e-06
-1.34896e-06
-3.65002e-07
1.35361e-06
-2.07294e-07
4.65117e-06
1.6824e-06
8.06485e-06
6.7988e-06
9.79366e-06
7.19755e-06
1.04727e-05
5.5052e-06
1.04945e-05
3.07563e-06
1.00829e-05
5.46165e-07
9.38767e-06
-1.77683e-06
8.51736e-06
-3.76066e-06
7.55374e-06
-5.36375e-06
6.55994e-06
-6.58715e-06
5.58565e-06
-7.4512e-06
4.67035e-06
-7.98376e-06
3.84535e-06
-8.21477e-06
3.13545e-06
-8.17378e-06
2.56044e-06
-7.88903e-06
2.13642e-06
-7.38733e-06
1.87697e-06
-6.69414e-06
1.79405e-06
-5.83346e-06
1.89804e-06
-4.82713e-06
2.19706e-06
-3.69273e-06
2.6955e-06
-2.4394e-06
3.39185e-06
-1.06128e-06
4.70037e-07
4.27546e-06
3.0722e-06
-1.38976e-06
6.44414e-06
3.42701e-06
8.94878e-06
4.69285e-06
1.04962e-05
3.95781e-06
1.12661e-05
2.30573e-06
1.14613e-05
3.51152e-07
1.12542e-05
-1.56961e-06
1.07813e-05
-3.28766e-06
1.0147e-05
-4.7294e-06
9.43108e-06
-5.87113e-06
8.69464e-06
-6.71463e-06
7.98471e-06
-7.27372e-06
7.33753e-06
-7.56747e-06
6.78079e-06
-7.61696e-06
6.33558e-06
-7.44376e-06
6.01768e-06
-7.06939e-06
5.83867e-06
-6.5151e-06
5.80663e-06
-5.80138e-06
5.92643e-06
-4.94687e-06
6.19966e-06
-3.96591e-06
6.62449e-06
-2.86419e-06
7.19518e-06
-1.63196e-06
-2.36912e-07
7.90212e-06
2.11558e-06
-3.50522e-06
5.0166e-06
5.2615e-07
7.65329e-06
2.0562e-06
9.63604e-06
1.97524e-06
1.09317e-05
1.0102e-06
1.16429e-05
-3.59937e-07
1.19038e-05
-1.8304e-06
1.18424e-05
-3.22615e-06
1.15652e-05
-4.45219e-06
1.11579e-05
-5.46377e-06
1.06878e-05
-6.24439e-06
1.02071e-05
-6.79299e-06
9.7564e-06
-7.11674e-06
9.36653e-06
-7.22715e-06
9.06073e-06
-7.13803e-06
8.85582e-06
-6.86452e-06
8.76321e-06
-6.42251e-06
8.78969e-06
-5.82786e-06
8.93786e-06
-5.09504e-06
9.20659e-06
-4.23465e-06
9.59152e-06
-3.24915e-06
1.00859e-05
-2.12641e-06
-8.32905e-07
1.06818e-05
1.65698e-06
-5.16205e-06
4.07451e-06
-1.89129e-06
6.49782e-06
-3.66898e-07
8.54296e-06
-6.97724e-08
1.00789e-05
-5.25683e-07
1.11159e-05
-1.3969e-06
1.17303e-05
-2.44472e-06
1.20149e-05
-3.51089e-06
1.20603e-05
-4.4975e-06
1.19449e-05
-5.34827e-06
1.1734e-05
-6.03344e-06
1.14804e-05
-6.53948e-06
1.12262e-05
-6.86267e-06
1.10041e-05
-7.00518e-06
1.08389e-05
-6.97294e-06
1.07487e-05
-6.77434e-06
1.07455e-05
-6.41941e-06
1.08365e-05
-5.91881e-06
1.10238e-05
-5.28242e-06
1.13059e-05
-4.51686e-06
1.16783e-05
-3.62161e-06
1.21349e-05
-2.58305e-06
-1.36813e-06
1.267e-05
1.46059e-06
-6.6225e-06
3.49655e-06
-3.92715e-06
5.60881e-06
-2.47888e-06
7.51736e-06
-1.97838e-06
9.08071e-06
-2.08904e-06
1.02625e-05
-2.57864e-06
1.10891e-05
-3.2713e-06
1.16168e-05
-4.0386e-06
1.19112e-05
-4.7919e-06
1.20361e-05
-5.47307e-06
1.20484e-05
-6.04562e-06
1.19965e-05
-6.48766e-06
1.19207e-05
-6.78699e-06
1.18533e-05
-6.93789e-06
1.18195e-05
-6.93915e-06
1.18379e-05
-6.79276e-06
1.19214e-05
-6.50297e-06
1.20778e-05
-6.07522e-06
1.23101e-05
-5.51473e-06
1.26174e-05
-4.82425e-06
1.29962e-05
-4.00048e-06
1.34418e-05
-3.02876e-06
-1.87748e-06
1.39511e-05
1.35118e-06
-7.97361e-06
3.0965e-06
-5.67224e-06
4.91466e-06
-4.29691e-06
6.62082e-06
-3.68467e-06
8.09969e-06
-3.56784e-06
9.30071e-06
-3.77953e-06
1.02221e-05
-4.19268e-06
1.08922e-05
-4.70864e-06
1.13537e-05
-5.25335e-06
1.1654e-05
-5.77315e-06
1.18386e-05
-6.23017e-06
1.19491e-05
-6.59813e-06
1.20213e-05
-6.85922e-06
1.20851e-05
-7.00177e-06
1.21647e-05
-7.01874e-06
1.22785e-05
-6.90656e-06
1.24398e-05
-6.66425e-06
1.2657e-05
-6.29241e-06
1.29341e-05
-5.79189e-06
1.32716e-05
-5.16177e-06
1.36673e-05
-4.3962e-06
1.41181e-05
-3.47971e-06
-2.38251e-06
1.4623e-05
1.24401e-06
-9.21755e-06
2.75484e-06
-7.18275e-06
4.32382e-06
-5.86601e-06
5.82727e-06
-5.18817e-06
7.17827e-06
-4.91868e-06
8.32887e-06
-4.93003e-06
9.26554e-06
-5.12936e-06
9.9995e-06
-5.44259e-06
1.05567e-05
-5.81052e-06
1.09703e-05
-6.18664e-06
1.1275e-05
-6.53492e-06
1.15046e-05
-6.82773e-06
1.16895e-05
-7.04408e-06
1.1856e-05
-7.16828e-06
1.20262e-05
-7.1889e-06
1.22175e-05
-7.09788e-06
1.2443e-05
-6.88983e-06
1.27117e-05
-6.56112e-06
1.30285e-05
-6.10872e-06
1.3395e-05
-5.52839e-06
1.38107e-05
-4.81195e-06
1.42741e-05
-3.94325e-06
-2.89421e-06
1.47857e-05
1.11379e-06
-1.03312e-05
2.42251e-06
-8.49125e-06
3.78276e-06
-7.22644e-06
5.10267e-06
-6.508e-06
6.3162e-06
-6.13208e-06
7.38318e-06
-5.99704e-06
8.28736e-06
-6.03364e-06
9.03116e-06
-6.18645e-06
9.62968e-06
-6.40909e-06
1.01055e-05
-6.6625e-06
1.04844e-05
-6.91398e-06
1.07929e-05
-7.13632e-06
1.10559e-05
-7.30716e-06
1.1296e-05
-7.40837e-06
1.15325e-05
-7.42542e-06
1.17814e-05
-7.34689e-06
1.20554e-05
-7.16384e-06
1.23633e-05
-6.86914e-06
1.27109e-05
-6.45645e-06
1.31011e-05
-5.91866e-06
1.35345e-05
-5.24551e-06
1.40114e-05
-4.42017e-06
-3.41595e-06
1.4533e-05
9.65633e-07
-1.12967e-05
2.09274e-06
-9.61829e-06
3.27263e-06
-8.40635e-06
4.42794e-06
-7.66313e-06
5.50641e-06
-7.21051e-06
6.47568e-06
-6.96642e-06
7.32044e-06
-6.8785e-06
8.03914e-06
-6.90521e-06
8.64041e-06
-7.01045e-06
9.13959e-06
-7.16182e-06
9.55569e-06
-7.33024e-06
9.90911e-06
-7.48984e-06
1.02199e-05
-7.61802e-06
1.05068e-05
-7.69534e-06
1.07866e-05
-7.70527e-06
1.10735e-05
-7.63396e-06
1.13794e-05
-7.4698e-06
1.17131e-05
-7.2029e-06
1.20808e-05
-6.82425e-06
1.24864e-05
-6.32431e-06
1.29319e-05
-5.69103e-06
1.34184e-05
-4.90683e-06
-3.94598e-06
1.39484e-05
8.14079e-07
-1.21105e-05
1.77539e-06
-1.05797e-05
2.79287e-06
-9.42367e-06
3.79715e-06
-8.66724e-06
4.74543e-06
-8.1588e-06
5.61144e-06
-7.83251e-06
6.38174e-06
-7.64879e-06
7.05323e-06
-7.57666e-06
7.63083e-06
-7.58807e-06
8.12512e-06
-7.65617e-06
8.55005e-06
-7.75522e-06
8.92121e-06
-7.86101e-06
9.25451e-06
-7.95134e-06
9.56533e-06
-8.0062e-06
9.86789e-06
-8.00792e-06
1.01748e-05
-7.941e-06
1.0497e-05
-7.79197e-06
1.08429e-05
-7.54888e-06
1.12192e-05
-7.20061e-06
1.16306e-05
-6.7357e-06
1.20801e-05
-6.14056e-06
1.25701e-05
-5.39689e-06
-4.47937e-06
1.31034e-05
6.72627e-07
-1.27831e-05
1.48145e-06
-1.13886e-05
2.34788e-06
-1.02899e-05
3.21037e-06
-9.52969e-06
4.03301e-06
-8.98151e-06
4.79383e-06
-8.59333e-06
5.48113e-06
-8.33597e-06
6.09138e-06
-8.18679e-06
6.62744e-06
-8.12405e-06
7.09668e-06
-8.12535e-06
7.50934e-06
-8.16779e-06
7.87724e-06
-8.22883e-06
8.21287e-06
-8.28692e-06
8.52871e-06
-8.32204e-06
8.8367e-06
-8.31595e-06
9.14789e-06
-8.25222e-06
9.47205e-06
-8.11613e-06
9.81751e-06
-7.89431e-06
1.01911e-05
-7.57415e-06
1.0598e-05
-7.14269e-06
1.10425e-05
-6.58511e-06
1.15279e-05
-5.88243e-06
-5.00931e-06
1.20577e-05
5.48047e-07
-1.33312e-05
1.21558e-06
-1.20563e-05
1.93963e-06
-1.10139e-05
2.66787e-06
-1.0258e-05
3.36935e-06
-9.68309e-06
4.02503e-06
-9.24895e-06
4.62468e-06
-8.93547e-06
5.16497e-06
-8.72693e-06
5.64758e-06
-8.60654e-06
6.0777e-06
-8.55531e-06
6.46275e-06
-8.55269e-06
6.8116e-06
-8.57753e-06
7.13389e-06
-8.60912e-06
7.43963e-06
-8.62774e-06
7.73874e-06
-8.61504e-06
8.04075e-06
-8.55419e-06
8.35445e-06
-8.42979e-06
8.68778e-06
-8.22762e-06
9.04766e-06
-7.93404e-06
9.44001e-06
-7.53512e-06
9.86991e-06
-7.01513e-06
1.03419e-05
-6.35455e-06
-5.52771e-06
1.08601e-05
4.4018e-07
-1.37716e-05
9.74628e-07
-1.25909e-05
1.56495e-06
-1.16043e-05
2.16727e-06
-1.08605e-05
2.75328e-06
-1.02691e-05
3.30581e-06
-9.80139e-06
3.81618e-06
-9.44571e-06
4.28164e-06
-9.19227e-06
4.70333e-06
-9.02809e-06
5.08484e-06
-8.93667e-06
5.43146e-06
-8.89914e-06
5.74964e-06
-8.89558e-06
6.04668e-06
-8.90609e-06
6.33046e-06
-8.91148e-06
6.6091e-06
-8.89364e-06
6.8907e-06
-8.83575e-06
7.18314e-06
-8.7222e-06
7.49389e-06
-8.53837e-06
7.8299e-06
-8.27014e-06
8.19764e-06
-7.90299e-06
8.6031e-06
-7.42076e-06
9.052e-06
-6.80358e-06
-6.0255e-06
9.54973e-06
3.4409e-07
-1.41159e-05
7.48502e-07
-1.29952e-05
1.21585e-06
-1.20717e-05
1.70364e-06
-1.13483e-05
2.18244e-06
-1.07479e-05
2.63629e-06
-1.02551e-05
3.05846e-06
-9.86778e-06
3.44737e-06
-9.58109e-06
3.80405e-06
-9.38466e-06
4.13099e-06
-9.26349e-06
4.43179e-06
-9.19981e-06
4.71094e-06
-9.17465e-06
4.97382e-06
-9.16892e-06
5.22645e-06
-9.16407e-06
5.47535e-06
-9.14249e-06
5.7273e-06
-9.08767e-06