/*--------------------------------*- C++ -*----------------------------------*\
| =========                 |                                                 |
| \\      /  F ield         | OpenFOAM: The Open Source CFD Toolbox           |
|  \\    /   O peration     | Version:  2.3.0                                 |
|   \\  /    A nd           | Web:      www.OpenFOAM.org                      |
|    \\/     M anipulation  |                                                 |
\*---------------------------------------------------------------------------*/
FoamFile
{
    version     2.0;
    format      ascii;
    class       volVectorField;
    location    "1.55";
    object      U;
}
// * * * * * * * * * * * * * * * * * * * * * * * * * * * * * * * * * * * * * //

dimensions      [0 1 -1 0 0 0 0];

internalField   nonuniform List<vector> 
2268
(
(-0.0215952 0.00644677 0)
(-0.0225239 -0.00474058 0)
(-0.00318215 -0.00909962 0)
(0.0190005 -0.00975624 0)
(0.0418348 -0.00922293 0)
(0.0637829 -0.00843971 0)
(0.0845024 -0.00779912 0)
(0.104329 -0.00736541 0)
(0.123679 -0.00707065 0)
(0.142712 -0.00680791 0)
(0.161276 -0.00646597 0)
(0.178937 -0.00594171 0)
(0.195001 -0.00516235 0)
(0.208604 -0.00407361 0)
(0.218876 -0.00239387 0)
(0.222525 0.00084089 0)
(0.215055 0.00520175 0)
(0.196268 0.00865017 0)
(0.167369 0.0115135 0)
(0.130215 0.013976 0)
(0.084498 0.0173822 0)
(0.027047 0.0167377 0)
(-0.00384549 0.0013017 0)
(-0.00867564 0.0143855 0)
(-0.0018358 -0.00673814 0)
(0.0133498 -0.0146004 0)
(0.0305785 -0.0163679 0)
(0.0488063 -0.0161532 0)
(0.0670796 -0.0153995 0)
(0.085088 -0.0147529 0)
(0.102971 -0.0143658 0)
(0.120891 -0.0141344 0)
(0.138817 -0.0138666 0)
(0.156498 -0.0133654 0)
(0.17349 -0.0124549 0)
(0.189166 -0.010989 0)
(0.202712 -0.00879607 0)
(0.213085 -0.00539185 0)
(0.219086 0.000301679 0)
(0.218984 0.00819598 0)
(0.209714 0.0159042 0)
(0.189277 0.02349 0)
(0.157292 0.0307009 0)
(0.113391 0.0381963 0)
(0.0589556 0.0358236 0)
(0.0207978 0.0098234 0)
(0.00329416 0.0129429 0)
(0.0106272 -0.0116118 0)
(0.0225088 -0.0206599 0)
(0.0358278 -0.0230459 0)
(0.050612 -0.0231832 0)
(0.0662248 -0.0226076 0)
(0.0823098 -0.0220998 0)
(0.0988692 -0.0218671 0)
(0.115901 -0.0217681 0)
(0.133245 -0.0215376 0)
(0.150578 -0.0209061 0)
(0.167435 -0.019631 0)
(0.183209 -0.0174919 0)
(0.197117 -0.0142149 0)
(0.208119 -0.00926319 0)
(0.215183 -0.00157107 0)
(0.217277 0.00915101 0)
(0.211861 0.0212163 0)
(0.195817 0.0340135 0)
(0.167931 0.0467834 0)
(0.127781 0.0588888 0)
(0.0798189 0.057888 0)
(0.0366904 0.0317091 0)
(0.00956305 0.00776907 0)
(0.0179304 -0.0164978 0)
(0.0268992 -0.0258015 0)
(0.0369891 -0.0288705 0)
(0.0490305 -0.0296366 0)
(0.0625493 -0.0294995 0)
(0.0771486 -0.0293545 0)
(0.0927663 -0.0294598 0)
(0.109293 -0.0296337 0)
(0.126466 -0.0295446 0)
(0.143893 -0.0288621 0)
(0.161084 -0.0272869 0)
(0.177435 -0.0245325 0)
(0.192203 -0.0202344 0)
(0.204435 -0.0137659 0)
(0.213223 -0.00409436 0)
(0.217761 0.00922907 0)
(0.215604 0.0254024 0)
(0.203302 0.0434299 0)
(0.179505 0.0618538 0)
(0.143145 0.0788612 0)
(0.0998449 0.0813999 0)
(0.0489618 0.0613892 0)
(0.0126185 0.000700699 0)
(0.0208545 -0.0209764 0)
(0.0269956 -0.0296759 0)
(0.0343395 -0.0335462 0)
(0.0441668 -0.03524 0)
(0.0560117 -0.035818 0)
(0.0694582 -0.0362907 0)
(0.0844518 -0.0369589 0)
(0.100816 -0.0375878 0)
(0.118193 -0.0377827 0)
(0.136121 -0.0371662 0)
(0.154074 -0.0353957 0)
(0.171442 -0.032133 0)
(0.187521 -0.0269466 0)
(0.201462 -0.0191507 0)
(0.212447 -0.00773295 0)
(0.219696 0.0079766 0)
(0.220854 0.0280224 0)
(0.212523 0.0511129 0)
(0.193469 0.0750244 0)
(0.16166 0.0972954 0)
(0.123518 0.105996 0)
(0.0626963 0.0990771 0)
(0.0139912 -0.00711318 0)
(0.0200819 -0.0244587 0)
(0.023269 -0.0322174 0)
(0.0282214 -0.0371181 0)
(0.0362623 -0.040019 0)
(0.0467798 -0.0415535 0)
(0.0593614 -0.0428885 0)
(0.0740239 -0.0443563 0)
(0.0905446 -0.0456408 0)
(0.108466 -0.0462804 0)
(0.12725 -0.0458635 0)
(0.146323 -0.0440191 0)
(0.165062 -0.0403745 0)
(0.182788 -0.0344557 0)
(0.198739 -0.0255414 0)
(0.212166 -0.012618 0)
(0.222366 0.0052354 0)
(0.227128 0.0288325 0)
(0.223252 0.0565865 0)
(0.20995 0.0856022 0)
(0.184332 0.113366 0)
(0.154205 0.131601 0)
(0.0820269 0.148201 0)
(0.0135888 -0.0147519 0)
(0.0162251 -0.0264668 0)
(0.0164931 -0.0334746 0)
(0.0193637 -0.0397484 0)
(0.0259574 -0.044117 0)
(0.0354114 -0.0468121 0)
(0.0473488 -0.0492447 0)
(0.0619143 -0.051758 0)
(0.0788442 -0.0539096 0)
(0.0975661 -0.0551625 0)
(0.11745 -0.0550823 0)
(0.13787 -0.0532835 0)
(0.158181 -0.0493761 0)
(0.17772 -0.0428666 0)
(0.195793 -0.0330151 0)
(0.211717 -0.0188062 0)
(0.224949 0.000899339 0)
(0.233498 0.0276579 0)
(0.234573 0.059462 0)
(0.228345 0.092735 0)
(0.211648 0.125601 0)
(0.194474 0.157188 0)
(0.109413 0.211931 0)
(0.0109557 -0.0210371 0)
(0.0101239 -0.0267941 0)
(0.00780019 -0.033502 0)
(0.00891212 -0.0415533 0)
(0.01435 -0.0476396 0)
(0.0229329 -0.0516685 0)
(0.0343599 -0.0554464 0)
(0.0489607 -0.0592729 0)
(0.0664295 -0.0625044 0)
(0.0860553 -0.0645242 0)
(0.10711 -0.064902 0)
(0.128914 -0.0632526 0)
(0.150793 -0.0591841 0)
(0.172101 -0.0522047 0)
(0.192195 -0.0415688 0)
(0.210469 -0.0262776 0)
(0.226556 -0.00507875 0)
(0.238779 0.0242715 0)
(0.245759 0.0590688 0)
(0.248104 0.0955353 0)
(0.243275 0.131917 0)
(0.24225 0.175819 0)
(0.164936 0.306478 0)
(-0.0529455 0.0116448 0)
(-0.0224562 -0.0206502 0)
(0.0425124 -0.0229793 0)
(0.0990876 -0.0219258 0)
(0.155096 -0.0226413 0)
(0.208065 -0.0167664 0)
(0.242578 -0.0076613 0)
(0.249394 0.000641553 0)
(0.229689 0.0095772 0)
(0.18626 0.0200304 0)
(0.112745 0.0237134 0)
(0.0436251 0.0172736 0)
(0.00781633 0.00708349 0)
(-0.0162282 0.00794007 0)
(-0.040264 0.00492459 0)
(-0.0504667 0.00259561 0)
(-0.059932 0.00413901 0)
(-0.069662 -0.00232625 0)
(-0.0345297 -0.0187533 0)
(-0.0270832 0.0255615 0)
(0.011585 -0.0342824 0)
(0.0662146 -0.0402167 0)
(0.104925 -0.034966 0)
(0.138682 -0.0351447 0)
(0.17232 -0.025779 0)
(0.193136 -0.0114759 0)
(0.198109 0.00208069 0)
(0.189718 0.0173275 0)
(0.168669 0.036065 0)
(0.130912 0.0458802 0)
(0.0755453 0.035851 0)
(0.0356836 0.0185477 0)
(0.00638328 0.0167646 0)
(-0.0197779 0.0124164 0)
(-0.036114 0.0071915 0)
(-0.0468805 0.00535367 0)
(-0.0496964 -0.00684935 0)
(-0.0199525 -0.0331747 0)
(-0.0030755 0.0231941 0)
(0.0352989 -0.0536189 0)
(0.0845112 -0.0569398 0)
(0.108359 -0.0448127 0)
(0.123593 -0.0443564 0)
(0.143298 -0.0329908 0)
(0.154651 -0.014705 0)
(0.153962 0.00338122 0)
(0.143183 0.0224419 0)
(0.132879 0.041214 0)
(0.128099 0.0566204 0)
(0.0963897 0.0538019 0)
(0.0577799 0.0323925 0)
(0.0249761 0.0282598 0)
(-0.00329954 0.0216904 0)
(-0.0232207 0.0135374 0)
(-0.0353307 0.00751712 0)
(-0.0364999 -0.0117864 0)
(-0.0111171 -0.0446777 0)
(0.0102196 0.0132693 0)
(0.0583701 -0.0746004 0)
(0.105408 -0.0711498 0)
(0.114153 -0.04916 0)
(0.109914 -0.0486262 0)
(0.117309 -0.0369296 0)
(0.120736 -0.0151381 0)
(0.11369 0.00681946 0)
(0.102398 0.0259255 0)
(0.105047 0.0392937 0)
(0.119185 0.0589437 0)
(0.110472 0.0676418 0)
(0.0776242 0.0478554 0)
(0.0413775 0.0416757 0)
(0.0110847 0.0322777 0)
(-0.0111128 0.0209442 0)
(-0.0248001 0.0102632 0)
(-0.0270271 -0.0160032 0)
(-0.00947986 -0.0531488 0)
(0.0241842 0.00565656 0)
(0.0923955 -0.0963264 0)
(0.136961 -0.0801492 0)
(0.126625 -0.0449865 0)
(0.0985781 -0.0456017 0)
(0.0920992 -0.03684 0)
(0.0883756 -0.0130522 0)
(0.077519 0.0107779 0)
(0.0708954 0.0254842 0)
(0.0822273 0.0330687 0)
(0.105499 0.0534239 0)
(0.115272 0.0725585 0)
(0.0915804 0.0622147 0)
(0.0550789 0.0559015 0)
(0.0248078 0.0435306 0)
(0.0015898 0.0291621 0)
(-0.0137505 0.013873 0)
(-0.0186249 -0.0182444 0)
(-0.0105443 -0.0598533 0)
(0.0591153 -0.0161211 0)
(0.160554 -0.134716 0)
(0.198231 -0.0841405 0)
(0.152414 -0.028829 0)
(0.0925726 -0.0336124 0)
(0.0687019 -0.0326744 0)
(0.0602443 -0.00881188 0)
(0.0496294 0.0140505 0)
(0.048254 0.0228279 0)
(0.061543 0.0255157 0)
(0.0869747 0.0432617 0)
(0.109116 0.0724578 0)
(0.0987208 0.0742391 0)
(0.0668106 0.0687545 0)
(0.0387292 0.0545331 0)
(0.0157939 0.037819 0)
(-0.000581406 0.0185632 0)
(-0.00784943 -0.0180992 0)
(-0.00886138 -0.0644327 0)
(0.156762 -0.103091 0)
(0.2564 -0.183499 0)
(0.29471 -0.0839394 0)
(0.201938 0.00662381 0)
(0.0953166 -0.00943268 0)
(0.0531497 -0.0243218 0)
(0.0405966 -0.00373425 0)
(0.028933 0.0164417 0)
(0.0279529 0.0201263 0)
(0.0397251 0.0177265 0)
(0.0636203 0.032848 0)
(0.0927711 0.0683242 0)
(0.102772 0.0822045 0)
(0.0810595 0.0807017 0)
(0.0546568 0.0648929 0)
(0.0322562 0.0462441 0)
(0.0162161 0.0240313 0)
(0.00826454 -0.0158938 0)
(-0.000255112 -0.0649354 0)
(0.306144 -0.207599 0)
(0.342649 -0.215824 0)
(0.352673 -0.0778857 0)
(0.270355 0.0623575 0)
(0.111253 0.0303606 0)
(0.0485881 -0.011621 0)
(0.0286396 0.00272946 0)
(0.0123071 0.0196352 0)
(0.00715935 0.018672 0)
(0.0153106 0.011434 0)
(0.0361479 0.0222939 0)
(0.068506 0.0557084 0)
(0.0974219 0.0793923 0)
(0.0959185 0.0899305 0)
(0.0731906 0.0749582 0)
(0.0519082 0.0536963 0)
(0.0379529 0.0291332 0)
(0.0308913 -0.0131023 0)
(0.0174528 -0.0608137 0)
(0.00387707 -0.0257377 0)
(-0.000619438 -0.0243975 0)
(-0.00633029 -0.0315657 0)
(-0.00743181 -0.0431231 0)
(-0.00333105 -0.052252 0)
(0.00417044 -0.058575 0)
(0.0149373 -0.0649101 0)
(0.0296795 -0.0712815 0)
(0.0480001 -0.0765692 0)
(0.0689484 -0.0800409 0)
(0.0916499 -0.0813232 0)
(0.115359 -0.0800577 0)
(0.139368 -0.0758745 0)
(0.163058 -0.0683216 0)
(0.185864 -0.0566545 0)
(0.207292 -0.0399291 0)
(0.227054 -0.0169933 0)
(0.244852 0.0151049 0)
(0.261889 0.0522037 0)
(0.278787 0.0904374 0)
(0.297291 0.128447 0)
(0.331715 0.173638 0)
(0.407222 0.275007 0)
(-0.0038682 -0.02417 0)
(-0.00927802 -0.0170216 0)
(-0.0180765 -0.0267167 0)
(-0.0208269 -0.0448497 0)
(-0.0173752 -0.0585001 0)
(-0.0107339 -0.0678127 0)
(-0.000738898 -0.0783634 0)
(0.013973 -0.0891066 0)
(0.0328666 -0.0977874 0)
(0.0546623 -0.103593 0)
(0.0783877 -0.106364 0)
(0.1033 -0.105824 0)
(0.128684 -0.101686 0)
(0.154005 -0.093659 0)
(0.178841 -0.0810149 0)
(0.202762 -0.0629375 0)
(0.225573 -0.0390078 0)
(0.248927 -0.0075359 0)
(0.274934 0.0277514 0)
(0.303532 0.063036 0)
(0.335584 0.0950533 0)
(0.37411 0.116941 0)
(0.436327 0.117955 0)
(-0.00496259 -0.0220365 0)
(-0.0083158 -0.0104447 0)
(-0.0158573 -0.0226302 0)
(-0.0169913 -0.0472848 0)
(-0.0138849 -0.0644771 0)
(-0.00860686 -0.0760339 0)
(-4.58472e-05 -0.0904495 0)
(0.0130994 -0.105523 0)
(0.0305001 -0.117852 0)
(0.0509235 -0.126363 0)
(0.0735011 -0.131098 0)
(0.0974477 -0.131687 0)
(0.122012 -0.127947 0)
(0.146757 -0.119955 0)
(0.171452 -0.106987 0)
(0.195763 -0.0883282 0)
(0.219862 -0.0646038 0)
(0.245806 -0.0359954 0)
(0.275215 -0.00444499 0)
(0.307657 0.0270753 0)
(0.343169 0.0540233 0)
(0.381676 0.0673805 0)
(0.428087 0.0601745 0)
(-0.00680383 -0.0108881 0)
(-0.00479918 0.00265802 0)
(0.00179649 -0.0123575 0)
(0.0140931 -0.0443562 0)
(0.0169952 -0.0639235 0)
(0.0197216 -0.077542 0)
(0.0235394 -0.0969503 0)
(0.0301959 -0.116767 0)
(0.0414987 -0.132352 0)
(0.0570709 -0.143125 0)
(0.0758842 -0.149626 0)
(0.0965919 -0.15138 0)
(0.118191 -0.148259 0)
(0.14019 -0.140719 0)
(0.162374 -0.128015 0)
(0.184727 -0.10952 0)
(0.20796 -0.0868193 0)
(0.233833 -0.0611283 0)
(0.263629 -0.032965 0)
(0.297137 -0.00414334 0)
(0.333441 0.0204863 0)
(0.371576 0.03352 0)
(0.411913 0.0290888 0)
(-0.0789507 -0.00462744 0)
(-0.0440183 -0.00234096 0)
(0.0348677 -0.052902 0)
(0.108894 -0.0610693 0)
(0.125551 -0.0590225 0)
(0.130305 -0.0728441 0)
(0.108831 -0.0913254 0)
(0.0738327 -0.116595 0)
(0.0652683 -0.135757 0)
(0.0683697 -0.150402 0)
(0.0807198 -0.160557 0)
(0.0966202 -0.164029 0)
(0.114045 -0.161443 0)
(0.131978 -0.154514 0)
(0.149696 -0.142308 0)
(0.16758 -0.124037 0)
(0.187725 -0.102849 0)
(0.212552 -0.0805815 0)
(0.242981 -0.0559183 0)
(0.278146 -0.0306015 0)
(0.317886 -0.00806278 0)
(0.360822 0.00437318 0)
(0.406644 0.000727285 0)
(-0.0621797 0.0790343 0)
(0.0335708 -0.0999816 0)
(0.138157 -0.180145 0)
(0.239732 -0.171088 0)
(0.338993 -0.112005 0)
(0.377675 -0.0885908 0)
(0.39936 -0.0911266 0)
(0.439544 -0.0742408 0)
(0.323243 -0.0880949 0)
(0.151075 -0.149444 0)
(0.104888 -0.178695 0)
(0.105041 -0.187449 0)
(0.115172 -0.183665 0)
(0.12845 -0.175334 0)
(0.140407 -0.161376 0)
(0.148962 -0.14117 0)
(0.160021 -0.122526 0)
(0.181932 -0.112252 0)
(0.219473 -0.0940514 0)
(0.261138 -0.0759926 0)
(0.301994 -0.052961 0)
(0.345066 -0.0400542 0)
(0.39709 -0.036868 0)
(0.0291514 0.0563925 0)
(0.132956 -0.185758 0)
(0.203103 -0.272159 0)
(0.267412 -0.248274 0)
(0.321198 -0.173275 0)
(0.346676 -0.118877 0)
(0.346308 -0.0920767 0)
(0.343962 -0.0207188 0)
(0.310426 0.0685759 0)
(0.188662 -0.00970009 0)
(0.130342 -0.140012 0)
(0.125743 -0.197492 0)
(0.127104 -0.20934 0)
(0.13272 -0.206537 0)
(0.141065 -0.192308 0)
(0.138729 -0.166585 0)
(0.132878 -0.168413 0)
(0.148541 -0.174777 0)
(0.177156 -0.167974 0)
(0.210784 -0.146813 0)
(0.244184 -0.115685 0)
(0.264725 -0.107319 0)
(0.176215 -0.0946547 0)
(0.0958008 -0.0596099 0)
(0.196755 -0.259013 0)
(0.227597 -0.325018 0)
(0.248298 -0.284584 0)
(0.270539 -0.196583 0)
(0.286512 -0.121084 0)
(0.260757 -0.0912982 0)
(0.231305 -0.00891411 0)
(0.213233 0.117887 0)
(0.165704 0.0336559 0)
(0.147931 -0.11233 0)
(0.133776 -0.17719 0)
(0.122344 -0.190619 0)
(0.114812 -0.192478 0)
(0.111964 -0.17923 0)
(0.115883 -0.135352 0)
(0.11807 -0.129955 0)
(0.123045 -0.15982 0)
(0.128192 -0.165819 0)
(0.135657 -0.152182 0)
(0.145831 -0.103983 0)
(0.116452 -0.0238273 0)
(0.0246511 0.0919231 0)
(0.124886 -0.235673 0)
(0.232917 -0.325006 0)
(0.20174 -0.345267 0)
(0.172253 -0.296191 0)
(0.166279 -0.207874 0)
(0.163892 -0.109124 0)
(0.131902 -0.0648953 0)
(0.0865584 0.0147891 0)
(0.0996778 0.121777 0)
(0.133725 0.0424427 0)
(0.149419 -0.0864571 0)
(0.121011 -0.15796 0)
(0.0930961 -0.174903 0)
(0.0766673 -0.181176 0)
(0.0580545 -0.173259 0)
(0.0445165 -0.139432 0)
(0.0388193 -0.135413 0)
(0.0285841 -0.150995 0)
(0.0274904 -0.182698 0)
(0.018152 -0.161467 0)
(0.0132367 -0.0811442 0)
(-0.00781399 0.0439936 0)
(-0.0678999 0.193839 0)
(0.0775662 -0.423017 0)
(0.135727 -0.338139 0)
(0.112693 -0.306894 0)
(0.0538098 -0.272361 0)
(0.0017263 -0.179495 0)
(-0.0315936 -0.0767438 0)
(-0.050619 -0.0165874 0)
(-0.0514094 0.0325293 0)
(-0.0144953 0.0710382 0)
(0.0442847 0.0110228 0)
(0.054408 -0.0799044 0)
(0.0345533 -0.129655 0)
(0.0171472 -0.152134 0)
(0.000359738 -0.159334 0)
(-0.0171287 -0.151386 0)
(-0.0293655 -0.131758 0)
(-0.0376135 -0.126444 0)
(-0.053492 -0.145402 0)
(-0.0745847 -0.16586 0)
(-0.0898782 -0.142301 0)
(-0.103449 -0.0580708 0)
(-0.118961 0.0723521 0)
(-0.147174 0.239747 0)
(-0.032445 -0.476268 0)
(-0.0162693 -0.333617 0)
(-0.0523471 -0.256701 0)
(-0.0959726 -0.196402 0)
(-0.132936 -0.125204 0)
(-0.152316 -0.0622848 0)
(-0.153605 -0.0234736 0)
(-0.138819 0.00361991 0)
(-0.102327 0.0117609 0)
(-0.0603706 -0.0289664 0)
(-0.0441354 -0.0819707 0)
(-0.0480342 -0.119315 0)
(-0.0583652 -0.139167 0)
(-0.0715848 -0.14458 0)
(-0.0850435 -0.137454 0)
(-0.094282 -0.123133 0)
(-0.0998586 -0.11524 0)
(-0.111215 -0.121056 0)
(-0.135476 -0.14064 0)
(-0.170105 -0.124769 0)
(-0.196317 -0.0457877 0)
(-0.217912 0.0809229 0)
(-0.226383 0.25967 0)
(-0.0721534 -0.385612 0)
(-0.0987975 -0.292732 0)
(-0.140728 -0.221023 0)
(-0.179447 -0.162085 0)
(-0.206326 -0.103985 0)
(-0.215279 -0.0601824 0)
(-0.209578 -0.0353776 0)
(-0.191356 -0.0232258 0)
(-0.161005 -0.0268674 0)
(-0.131212 -0.0544554 0)
(-0.117142 -0.0889275 0)
(-0.116805 -0.115138 0)
(-0.123665 -0.129662 0)
(-0.133956 -0.132945 0)
(-0.144544 -0.127011 0)
(-0.152344 -0.116291 0)
(-0.157825 -0.108028 0)
(-0.167125 -0.106199 0)
(-0.188059 -0.107566 0)
(-0.223458 -0.0898868 0)
(-0.263631 -0.0243948 0)
(-0.28257 0.0991162 0)
(-0.275255 0.243386 0)
(-0.0804932 -0.305609 0)
(-0.129414 -0.238452 0)
(-0.176782 -0.179772 0)
(-0.213593 -0.131058 0)
(-0.234918 -0.0899232 0)
(-0.240063 -0.0618172 0)
(-0.233313 -0.0480254 0)
(-0.217802 -0.0448868 0)
(-0.196371 -0.0527073 0)
(-0.177255 -0.0724425 0)
(-0.1679 -0.0950738 0)
(-0.167815 -0.112484 0)
(-0.173691 -0.121867 0)
(-0.182609 -0.123224 0)
(-0.192035 -0.118031 0)
(-0.200162 -0.109172 0)
(-0.20762 -0.100338 0)
(-0.218317 -0.0924709 0)
(-0.237327 -0.0802459 0)
(-0.265365 -0.0497337 0)
(-0.29367 0.0106443 0)
(-0.306321 0.103733 0)
(-0.292197 0.214257 0)
(-0.0796116 -0.214486 0)
(-0.1339 -0.175481 0)
(-0.181258 -0.137075 0)
(-0.215619 -0.104175 0)
(-0.234512 -0.0783127 0)
(-0.239821 -0.0626561 0)
(-0.23578 -0.0572768 0)
(-0.225782 -0.0596612 0)
(-0.213007 -0.0687019 0)
(-0.20247 -0.0831697 0)
(-0.198041 -0.0981191 0)
(-0.199749 -0.109195 0)
(-0.205826 -0.114579 0)
(-0.214328 -0.114173 0)
(-0.223547 -0.108938 0)
(-0.232484 -0.100518 0)
(-0.241643 -0.0905049 0)
(-0.253176 -0.078486 0)
(-0.269364 -0.060292 0)
(-0.289104 -0.0279191 0)
(-0.3057 0.0250346 0)
(-0.308605 0.09866 0)
(-0.289402 0.183254 0)
(-0.0724628 -0.125182 0)
(-0.123188 -0.113605 0)
(-0.167185 -0.0956053 0)
(-0.19891 -0.0787006 0)
(-0.216965 -0.0663161 0)
(-0.223975 -0.0607668 0)
(-0.223757 -0.0618137 0)
(-0.219416 -0.0676254 0)
(-0.213678 -0.0767805 0)
(-0.209615 -0.0877672 0)
(-0.209343 -0.0978213 0)
(-0.213007 -0.104615 0)
(-0.219653 -0.107108 0)
(-0.228072 -0.10525 0)
(-0.237192 -0.0996086 0)
(-0.246433 -0.0910078 0)
(-0.256027 -0.0799563 0)
(-0.266863 -0.0656538 0)
(-0.27944 -0.0452598 0)
(-0.291998 -0.0143488 0)
(-0.299591 0.0302347 0)
(-0.295339 0.0876697 0)
(-0.273718 0.151868 0)
(-0.0614127 -0.0462878 0)
(-0.104521 -0.057534 0)
(-0.143346 -0.0575563 0)
(-0.171881 -0.0547839 0)
(-0.189267 -0.0535329 0)
(-0.197988 -0.0559096 0)
(-0.20121 -0.0617839 0)
(-0.201496 -0.0698698 0)
(-0.200949 -0.0789295 0)
(-0.201484 -0.0877457 0)
(-0.204304 -0.0947798 0)
(-0.209542 -0.0988342 0)
(-0.216676 -0.0993922 0)
(-0.224969 -0.096481 0)
(-0.233754 -0.0904394 0)
(-0.242636 -0.0816528 0)
(-0.251594 -0.0701831 0)
(-0.260762 -0.0552947 0)
(-0.269777 -0.0352237 0)
(-0.276849 -0.0076288 0)
(-0.278469 0.0288937 0)
(-0.270244 0.0733726 0)
(-0.24873 0.121935 0)
(-0.0497298 0.0180171 0)
(-0.0826373 -0.0104207 0)
(-0.114895 -0.024601 0)
(-0.139407 -0.033043 0)
(-0.155588 -0.0404379 0)
(-0.165315 -0.0488267 0)
(-0.170995 -0.0582817 0)
(-0.174573 -0.0679693 0)
(-0.177569 -0.0769936 0)
(-0.181182 -0.0845388 0)
(-0.186099 -0.0897964 0)
(-0.192404 -0.0922142 0)
(-0.199787 -0.0916093 0)
(-0.207794 -0.0880812 0)
(-0.215988 -0.0818633 0)
(-0.224055 -0.0731498 0)
(-0.231812 -0.0618849 0)
(-0.239028 -0.0475519 0)
(-0.24504 -0.0291398 0)
(-0.248327 -0.00548505 0)
(-0.246474 0.0239351 0)
(-0.236714 0.0582655 0)
(-0.216976 0.0950792 0)
(-0.0369906 0.0664742 0)
(-0.0594004 0.0258088 0)
(-0.0842688 0.00204798 0)
(-0.104144 -0.0142263 0)
(-0.118516 -0.0277951 0)
(-0.128453 -0.0404996 0)
(-0.135581 -0.0525154 0)
(-0.141256 -0.0633428 0)
(-0.146505 -0.0724194 0)
(-0.152056 -0.0792854 0)
(-0.158281 -0.0835826 0)
(-0.165201 -0.0851346 0)
(-0.172607 -0.0839647 0)
(-0.180194 -0.0802313 0)
(-0.187655 -0.0741335 0)
(-0.194722 -0.0658083 0)
(-0.201145 -0.0552208 0)
(-0.206567 -0.0420803 0)
(-0.210316 -0.0258701 0)
(-0.21122 -0.00607044 0)
(-0.20766 0.0174335 0)
(-0.197925 0.0439862 0)
(-0.180828 0.0720878 0)
(-0.0241458 0.101368 0)
(-0.0360125 0.0507562 0)
(-0.0530319 0.0215326 0)
(-0.0678191 0.00118836 0)
(-0.0800083 -0.0162047 0)
(-0.0895585 -0.0317383 0)
(-0.0973502 -0.0454604 0)
(-0.104219 -0.05706 0)
(-0.110796 -0.0662349 0)
(-0.117483 -0.0727959 0)
(-0.124445 -0.0766649 0)
(-0.131642 -0.0778836 0)
(-0.138903 -0.0765972 0)
(-0.146004 -0.0730056 0)
(-0.15271 -0.0673066 0)
(-0.158794 -0.0596383 0)
(-0.164002 -0.0500275 0)
(-0.167982 -0.0383628 0)
(-0.170171 -0.0244337 0)
(-0.169727 -0.00806179 0)
(-0.165596 0.0106983 0)
(-0.156751 0.0313883 0)
(-0.142571 0.053118 0)
(-0.00739128 0.122144 0)
(-0.010416 0.0650945 0)
(-0.0218053 0.0341198 0)
(-0.0320385 0.0131061 0)
(-0.0419839 -0.00598263 0)
(-0.0507867 -0.0230836 0)
(-0.058703 -0.0377992 0)
(-0.0661359 -0.0498624 0)
(-0.0734027 -0.0591399 0)
(-0.0806711 -0.0656262 0)
(-0.0879644 -0.0694116 0)
(-0.0951913 -0.0706592 0)
(-0.102194 -0.0695793 0)
(-0.10879 -0.0663961 0)
(-0.114792 -0.0613142 0)
(-0.12001 -0.0544897 0)
(-0.124225 -0.0460085 0)
(-0.127143 -0.0358826 0)
(-0.128344 -0.0240802 0)
(-0.127255 -0.010596 0)
(-0.123218 0.00446004 0)
(-0.115646 0.020795 0)
(-0.104276 0.0379276 0)
(0.0133954 0.117745 0)
(0.0176979 0.0735293 0)
(0.00905684 0.0427536 0)
(0.00135594 0.022273 0)
(-0.00657781 0.00284758 0)
(-0.0144306 -0.0148632 0)
(-0.022078 -0.0300041 0)
(-0.0296063 -0.0422738 0)
(-0.0370874 -0.0516312 0)
(-0.04452 -0.0581796 0)
(-0.0518279 -0.0620999 0)
(-0.0588825 -0.0636137 0)
(-0.0655298 -0.0629587 0)
(-0.0716122 -0.0603669 0)
(-0.0769759 -0.0560464 0)
(-0.0814661 -0.0501686 0)
(-0.0849094 -0.0428611 0)
(-0.0870871 -0.034211 0)
(-0.08771 -0.0242834 0)
(-0.0864122 -0.0131534 0)
(-0.0828064 -0.000936192 0)
(-0.0765822 0.0122015 0)
(-0.0676989 0.0260524 0)
(0.0278731 0.0877686 0)
(0.0393826 0.0732609 0)
(0.0350015 0.0491733 0)
(0.0295882 0.0294439 0)
(0.0236191 0.0103158 0)
(0.017033 -0.00734114 0)
(0.0100876 -0.0224716 0)
(0.00293336 -0.034737 0)
(-0.00431229 -0.0441322 0)
(-0.0115172 -0.0508091 0)
(-0.0185343 -0.0549861 0)
(-0.0252073 -0.0569029 0)
(-0.0313818 -0.0567992 0)
(-0.0369153 -0.0549014 0)
(-0.0416776 -0.0514136 0)
(-0.0455442 -0.0465127 0)
(-0.0483851 -0.0403482 0)
(-0.0500492 -0.0330464 0)
(-0.0503524 -0.0247184 0)
(-0.0490773 -0.0154704 0)
(-0.0460155 -0.00540279 0)
(-0.04103 0.00540653 0)
(-0.0342107 0.0169286 0)
(0.0261591 0.0487171 0)
(0.0447817 0.0626813 0)
(0.0488607 0.050815 0)
(0.0483464 0.0337317 0)
(0.045463 0.0157488 0)
(0.0409841 -0.00113889 0)
(0.0354833 -0.015783 0)
(0.0293594 -0.0277764 0)
(0.0229089 -0.037096 0)
(0.0163846 -0.043884 0)
(0.0100055 -0.0483478 0)
(0.00396184 -0.0507138 0)
(-0.00158218 -0.0512045 0)
(-0.00648695 -0.0500288 0)
(-0.0106352 -0.0473779 0)
(-0.0139243 -0.0434244 0)
(-0.0162573 -0.0383233 0)
(-0.0175343 -0.0322147 0)
(-0.0176469 -0.0252256 0)
(-0.0164773 -0.017467 0)
(-0.0139304 -0.00901871 0)
(-0.00997247 0.000100397 0)
(-0.00476652 0.00996864 0)
(0.0162238 0.0184564 0)
(0.0374509 0.0456854 0)
(0.0493547 0.0447517 0)
(0.0552767 0.0328543 0)
(0.0569256 0.0177235 0)
(0.0556849 0.00266407 0)
(0.0525564 -0.0108177 0)
(0.0482349 -0.0221225 0)
(0.0432178 -0.0311149 0)
(0.0378884 -0.0378637 0)
(0.0325451 -0.042524 0)
(0.0274241 -0.0452795 0)
(0.022713 -0.0463176 0)
(0.0185613 -0.0458179 0)
(0.0150873 -0.0439484 0)
(0.012386 -0.0408661 0)
(0.0105356 -0.0367178 0)
(0.0096033 -0.0316405 0)
(0.00964973 -0.0257587 0)
(0.0107309 -0.0191751 0)
(0.0128744 -0.0119484 0)
(0.0160558 -0.00405955 0)
(0.0200791 0.00462849 0)
(0.00886007 -0.000967237 0)
(0.0272637 0.0269339 0)
(0.0425243 0.0324644 0)
(0.053218 0.0263194 0)
(0.059248 0.0153592 0)
(0.0616199 0.00318799 0)
(0.0613943 -0.00836502 0)
(0.0594164 -0.0184504 0)
(0.0563244 -0.0267489 0)
(0.0526071 -0.0331999 0)
(0.0486368 -0.0378658 0)
(0.0446986 -0.0408618 0)
(0.0410126 -0.0423223 0)
(0.0377478 -0.0423855 0)
(0.0350334 -0.0411876 0)
(0.0329671 -0.0388606 0)
(0.0316211 -0.0355323 0)
(0.0310472 -0.0313247 0)
(0.03128 -0.0263486 0)
(0.0323418 -0.020691 0)
(0.0342243 -0.0143915 0)
(0.0368757 -0.00740572 0)
(0.0400916 0.000434716 0)
(0.00549584 -0.0140193 0)
(0.0197651 0.00992804 0)
(0.0347439 0.0179646 0)
(0.0472574 0.0161964 0)
(0.05602 0.00937472 0)
(0.0612567 0.000498883 0)
(0.0636951 -0.00864386 0)
(0.064078 -0.0170756 0)
(0.0630422 -0.0243194 0)
(0.0611039 -0.0301794 0)
(0.0586695 -0.0346108 0)
(0.0560559 -0.0376463 0)
(0.0535086 -0.0393564 0)
(0.0512163 -0.0398289 0)
(0.0493225 -0.0391598 0)
(0.0479332 -0.0374488 0)
(0.0471232 -0.034797 0)
(0.0469403 -0.0313033 0)
(0.0474092 -0.0270581 0)
(0.0485375 -0.0221288 0)
(0.0503022 -0.0165373 0)
(0.0526439 -0.0102232 0)
(0.0553657 -0.00300535 0)
(0.00435344 -0.0237775 0)
(0.015548 -0.00428797 0)
(0.028751 0.00409944 0)
(0.0409521 0.00497118 0)
(0.0506408 0.00138981 0)
(0.0574886 -0.00449213 0)
(0.061807 -0.0112028 0)
(0.0640968 -0.0178135 0)
(0.0648696 -0.0237845 0)
(0.0645852 -0.0288289 0)
(0.0636307 -0.0328126 0)
(0.0623213 -0.0356915 0)
(0.0609093 -0.0374719 0)
(0.059593 -0.0381894 0)
(0.0585251 -0.0378963 0)
(0.0578197 -0.036656 0)
(0.0575569 -0.0345382 0)
(0.0577869 -0.0316148 0)
(0.058534 -0.0279515 0)
(0.059803 -0.0235948 0)
(0.0615689 -0.0185497 0)
(0.0637763 -0.012746 0)
(0.0662453 -0.00600146 0)
(0.0041411 -0.0320487 0)
(0.0133625 -0.0161477 0)
(0.0246164 -0.00812369 0)
(0.0355895 -0.00582157 0)
(0.0450275 -0.0071631 0)
(0.0524025 -0.0106776 0)
(0.0577342 -0.0152645 0)
(0.0612851 -0.0201467 0)
(0.0634039 -0.0248106 0)
(0.064448 -0.0289366 0)
(0.0647455 -0.0323377 0)
(0.0645801 -0.0349127 0)
(0.0641897 -0.0366147 0)
(0.0637675 -0.0374319 0)
(0.0634668 -0.0373751 0)
(0.0634045 -0.0364716 0)
(0.0636647 -0.034759 0)
(0.0643019 -0.0322802 0)
(0.065344 -0.0290757 0)
(0.0667993 -0.0251704 0)
(0.0686478 -0.0205537 0)
(0.0708433 -0.015149 0)
(0.0732276 -0.00878018 0)
(0.00410368 -0.0395901 0)
(0.0120117 -0.0262402 0)
(0.0215893 -0.018649 0)
(0.0311739 -0.015575 0)
(0.0398399 -0.0154402 0)
(0.0470697 -0.0172125 0)
(0.052746 -0.0200974 0)
(0.0569675 -0.0234893 0)
(0.059943 -0.026947 0)
(0.0619244 -0.0301639 0)
(0.0631669 -0.032934 0)
(0.0639072 -0.0351227 0)
(0.0643537 -0.0366455 0)
(0.0646831 -0.037453 0)
(0.0650399 -0.0375209 0)
(0.065538 -0.0368436 0)
(0.0662621 -0.0354286 0)
(0.0672698 -0.0332914 0)
(0.0685938 -0.0304478 0)
(0.0702478 -0.0269021 0)
(0.0722197 -0.0226292 0)
(0.0744748 -0.0175478 0)
(0.0768774 -0.0114916 0)
(0.00393898 -0.0465803 0)
(0.0108408 -0.0349612 0)
(0.0190482 -0.0277154 0)
(0.0273722 -0.0241975 0)
(0.0351326 -0.0230836 0)
(0.0418918 -0.0236023 0)
(0.0474945 -0.0251774 0)
(0.0519519 -0.0273518 0)
(0.0553767 -0.0297685 0)
(0.0579359 -0.0321561 0)
(0.0598174 -0.0343127 0)
(0.0612084 -0.0360899 0)
(0.0622827 -0.0373803 0)
(0.0631934 -0.038108 0)
(0.0640706 -0.038221 0)
(0.0650204 -0.0376867 0)
(0.0661246 -0.0364865 0)
(0.0674418 -0.0346113 0)
(0.0690087 -0.0320543 0)
(0.0708446 -0.0288009 0)
(0.0729459 -0.024813 0)
(0.0752891 -0.0200052 0)
(0.0777606 -0.0142216 0)
(0.00358643 -0.0529369 0)
(0.00961539 -0.0425294 0)
(0.0166883 -0.0355689 0)
(0.023926 -0.0317785 0)
(0.0308049 -0.0299917 0)
(0.0369683 -0.0296008 0)
(0.0422684 -0.0301794 0)
(0.0466791 -0.0313854 0)
(0.0502559 -0.0329379 0)
(0.0531062 -0.0346067 0)
(0.0553648 -0.0362058 0)
(0.0571751 -0.0375855 0)
(0.0586771 -0.0386272 0)
(0.0599992 -0.0392379 0)
(0.0612543 -0.0393459 0)
(0.0625378 -0.0388974 0)
(0.0639266 -0.0378524 0)
(0.0654781 -0.0361809 0)
(0.0672317 -0.0338568 0)
(0.0692117 -0.0308487 0)
(0.071422 -0.0271066 0)
(0.0738497 -0.0225415 0)
(0.076402 -0.0170063 0)
(0.00310208 -0.0585395 0)
(0.00833112 -0.0490747 0)
(0.0144267 -0.0423906 0)
(0.020717 -0.0384299 0)
(0.0267749 -0.0361628 0)
(0.0323079 -0.0350991 0)
(0.037189 -0.0349171 0)
(0.0413803 -0.0353606 0)
(0.0449068 -0.0362106 0)
(0.047837 -0.0372758 0)
(0.0502669 -0.0383897 0)
(0.0523049 -0.0394083 0)
(0.0540614 -0.0402094 0)
(0.0556415 -0.0406903 0)
(0.0571412 -0.040766 0)
(0.0586444 -0.0403671 0)
(0.0602213 -0.039437 0)
(0.0619273 -0.0379291 0)
(0.0638028 -0.0358008 0)
(0.0658761 -0.0330068 0)
(0.0681582 -0.0294863 0)
(0.0706451 -0.0251468 0)
(0.0732635 -0.0198475 0)
(0.00256851 -0.0633271 0)
(0.00706625 -0.054689 0)
(0.012282 -0.0482987 0)
(0.0177177 -0.0442389 0)
(0.0230081 -0.0416217 0)
(0.0279086 -0.0400519 0)
(0.0323126 -0.0392856 0)
(0.0361813 -0.0391307 0)
(0.0395235 -0.0394167 0)
(0.0423839 -0.0399854 0)
(0.0448311 -0.0406894 0)
(0.0469464 -0.0413935 0)
(0.0488159 -0.0419762 0)
(0.0505245 -0.0423302 0)
(0.0521523 -0.0423623 0)
(0.0537721 -0.0419924 0)
(0.055447 -0.0411518 0)
(0.0572294 -0.0397807 0)
(0.0591601 -0.0378241 0)
(0.0612703 -0.0352247 0)
(0.0635771 -0.0319128 0)
(0.0660847 -0.0277918 0)
(0.0687379 -0.0227247 0)
(0.00206258 -0.0673145 0)
(0.00589536 -0.0594465 0)
(0.0102925 -0.0533659 0)
(0.0149349 -0.0492631 0)
(0.0194983 -0.0463933 0)
(0.0237742 -0.0444415 0)
(0.0276719 -0.0432252 0)
(0.0311552 -0.0426021 0)
(0.0342253 -0.0424399 0)
(0.0369118 -0.0426069 0)
(0.0392639 -0.0429728 0)
(0.0413425 -0.0434116 0)
(0.0432138 -0.0438049 0)
(0.0449455 -0.0440442 0)
(0.046604 -0.0440318 0)
(0.0482515 -0.0436809 0)
(0.0499441 -0.0429145 0)
(0.0517307 -0.0416635 0)
(0.053652 -0.0398633 0)
(0.0557414 -0.0374473 0)
(0.0580215 -0.0343385 0)
(0.0605037 -0.0304362 0)
(0.0631505 -0.0256044 0)
(0.00163002 -0.0705872 0)
(0.00484935 -0.0634144 0)
(0.00847485 -0.0576437 0)
(0.0123727 -0.0535449 0)
(0.0162438 -0.0505 0)
(0.0199081 -0.0482628 0)
(0.0232868 -0.046702 0)
(0.0263478 -0.0457158 0)
(0.029089 -0.0452018 0)
(0.0315304 -0.0450498 0)
(0.0337074 -0.0451431 0)
(0.0356647 -0.0453644 0)
(0.0374527 -0.0455994 0)
(0.0391246 -0.0457406 0)
(0.0407346 -0.0456886 0)
(0.0423352 -0.0453532 0)
(0.043976 -0.0446524 0)
(0.0457022 -0.043511 0)
(0.0475537 -0.0418576 0)
(0.0495659 -0.039619 0)
(0.0517663 -0.0367123 0)
(0.0541734 -0.0330335 0)
(0.0567664 -0.0284451 0)
(0.00128272 -0.0732734 0)
(0.00391074 -0.0666537 0)
(0.00681174 -0.06118 0)
(0.0100159 -0.0571251 0)
(0.013234 -0.0539676 0)
(0.0163077 -0.0515207 0)
(0.0191681 -0.0496993 0)
(0.0217886 -0.0484357 0)
(0.0241669 -0.0476513 0)
(0.026317 -0.0472515 0)
(0.0282635 -0.0471308 0)
(0.0300385 -0.0471788 0)
(0.0316794 -0.0472859 0)
(0.0332274 -0.0473469 0)
(0.0347256 -0.047263 0)
(0.0362182 -0.0469429 0)
(0.0377482 -0.0463025 0)
(0.039357 -0.0452633 0)
(0.0410835 -0.0437498 0)
(0.0429644 -0.0416847 0)
(0.0450319 -0.0389813 0)
(0.0473112 -0.035533 0)
(0.0497981 -0.0312004 0)
(0.000993602 -0.0753788 0)
(0.00302595 -0.0691871 0)
(0.00525402 -0.0640215 0)
(0.00783045 -0.0600526 0)
(0.0104497 -0.0568307 0)
(0.0129666 -0.0542308 0)
(0.0153231 -0.0522146 0)
(0.0175008 -0.0507438 0)
(0.0195 -0.0497571 0)
(0.0213311 -0.0491709 0)
(0.0230106 -0.0488872 0)
(0.0245606 -0.0488015 0)
(0.0260077 -0.0488085 0)
(0.0273827 -0.0488065 0)
(0.0287195 -0.0486987 0)
(0.0300542 -0.0483948 0)
(0.0314239 -0.0478107 0)
(0.0328657 -0.046867 0)
(0.0344169 -0.0454866 0)
(0.036115 -0.0435907 0)
(0.0379958 -0.0410911 0)
(0.0400915 -0.0378806 0)
(0.0424136 -0.0338182 0)
(0.000565844 -0.0767415 0)
(0.00208134 -0.0709781 0)
(0.00372273 -0.0662179 0)
(0.00577698 -0.062395 0)