/*--------------------------------*- C++ -*----------------------------------*\
| =========                 |                                                 |
| \\      /  F ield         | OpenFOAM: The Open Source CFD Toolbox           |
|  \\    /   O peration     | Version:  2.3.0                                 |
|   \\  /    A nd           | Web:      www.OpenFOAM.org                      |
|    \\/     M anipulation  |                                                 |
\*---------------------------------------------------------------------------*/
FoamFile
{
    version     2.0;
    format      ascii;
    class       volScalarField;
    location    "0.028";
    object      alpha.water;
}
// * * * * * * * * * * * * * * * * * * * * * * * * * * * * * * * * * * * * * //

dimensions      [0 0 0 0 0 0 0];

internalField   nonuniform List<scalar> 
725
(
1
1
1
0.999981
0.999823
1
1
1
0.999996
0.999821
1
1
1
0.999999
1
1
1
1
1.00003
1
1
1
1
1.00004
0.936201
0.999617
0.99977
0.999936
0.999948
0.99998
0.956395
0.952598
0.998233
0.99999
0.999915
0.999923
0.999951
1.00001
1.00002
1.00002
1.00002
1.00002
1.00002
1.00003
1.00003
1.00003
1.00003
1.00003
1.00004
1.00008
1.00001
0.776409
0.0306152
0.00476662
0.00476107
0.00475915
0.59793
0.999908
0.9998
0.999928
0.999962
0.999979
1.00001
1.00002
1.00004
0.999949
0.999678
0.999981
0.97882
0.282439
0.999827
0.899644
0.911243
0.999941
0.999722
0.972848
0.961585
0.999744
0.999964
0.999939
0.999934
0.999936
0.999888
0.999873
0.999871
0.999882
0.999899
0.999916
0.999928
0.999938
0.999946
0.999956
0.999962
0.999986
1.00002
1.00001
0.80599
0.0370308
0.0047727
0.00476025
0.00475616
0.600152
0.999908
0.999695
0.999697
0.999711
0.999728
0.999753
0.999773
0.999781
0.999753
0.999639
0.999984
0.964097
0.232767
0.972511
0.431459
0.43025
0.614133
0.999669
0.977057
0.953995
0.985552
0.999751
0.999881
0.999905
0.999986
0.999897
0.999878
0.999863
0.999855
0.999852
0.999853
0.999859
0.999868
0.999879
0.999894
0.999915
0.999943
1.00002
1
0.820296
0.0586231
0.00478569
0.00475628
0.00475117
0.613973
0.999908
0.999678
0.99968
0.999669
0.99963
0.999586
0.999547
0.999521
0.999502
0.999476
0.999987
0.850797
0.0505588
0.467209
0.000434429
0.00181439
0.00181408
0.329475
0.8798
0.935751
0.964416
0.998039
0.999951
0.999944
0.999798
0.999866
0.999853
0.99983
0.99982
0.999824
0.999834
0.999844
0.999851
0.999859
0.999872
0.999884
0.999942
1.00003
1.00001
0.823663
0.100446
0.00477831
0.00475327
0.00474842
0.630395
0.999903
0.99975
0.999719
0.999724
0.999692
0.999637
0.999572
0.999506
0.999442
0.999392
0.999937
0.814444
0.0173173
0.00418084
0.000324179
0.000431842
0.000667402
0.158095
0.565213
0.808583
0.989444
0.999874
0.999876
0.999944
0.999853
0.999826
0.999838
0.999813
0.999797
0.999802
0.999919
0.999904
0.999891
0.999882
0.999881
0.999884
0.999955
1
1
0.806494
0.1322
0.00490095
0.00486588
0.0260526
0.635262
0.999939
0.99996
0.999956
0.999831
0.999763
0.999692
0.999624
0.999554
0.999482
0.999428
0.999987
0.858429
0.0486234
1.20868e-05
0.000209115
0.000310619
0.000642628
0.02052
0.368811
0.793521
0.984535
0.972466
0.999661
0.999955
0.995513
0.999592
0.999857
0.999819
0.999801
0.999802
0.999809
0.999833
0.99985
0.999862
0.999872
0.999887
0.999938
1.00005
0.996902
0.792068
0.151466
0.00566295
0.00644663
0.0597789
0.602633
0.995893
0.999949
0.999797
0.999747
0.999704
0.999659
0.99961
0.999551
0.999491
0.999428
1.00002
0.902237
0.103348
2.16961e-05
0.000131948
0.00021465
0.000129912
0.0152518
0.346129
0.769726
0.955021
0.931066
0.999671
0.984066
0.987105
0.999614
0.999789
0.999808
0.999802
0.999806
0.999821
0.999837
0.99985
0.999859
0.999868
0.999881
0.999943
1.00005
1.00003
0.799379
0.136548
0.00817997
0.008607
0.0780716
0.587393
0.996655
0.999914
0.999853
0.99976
0.999708
0.999667
0.999622
0.999558
0.999497
0.999427
1.00002
0.909159
0.136894
1.77936e-05
0.000121217
0.000356613
0.000450443
0.00911459
0.305248
0.781767
0.781953
0.907131
0.999678
0.981748
0.997947
0.999604
0.999874
0.999815
0.999805
0.999813
0.99983
0.999849
0.99986
0.999864
0.999868
0.99988
0.999936
0.999967
1
0.811993
0.121108
0.0105917
0.00943366
0.0763946
0.594414
0.993048
0.999887
0.999599
0.999614
0.999622
0.999614
0.999591
0.999547
0.999493
0.999424
1
0.926601
0.16353
0.0629047
0.00260623
0.00095649
0.000825154
0.00486603
0.167411
0.772217
0.765398
0.866305
0.999668
0.987511
0.999073
0.999004
0.999647
0.999799
0.999807
0.999816
0.999833
0.999848
0.999857
0.999862
0.999865
0.999876
0.999941
0.999971
1.00003
0.793441
0.129834
0.00834715
0.00975098
0.0797208
0.597859
0.995843
0.999892
0.999604
0.999603
0.999622
0.999617
0.999589
0.999544
0.999491
0.999423
1
0.953747
0.189216
0.392662
0.00980523
0.00115974
0.0012775
0.00119049
0.0809734
0.792848
0.920088
0.895694
0.998877
0.996346
0.999102
0.999552
0.999717
0.999809
0.999812
0.999817
0.999834
0.999851
0.999859
0.999862
0.999863
0.999873
0.999939
0.99995
1
0.775282
0.140013
0.00619036
0.0080007
0.0903188
0.589916
0.995213
0.999944
0.999631
0.999661
0.999668
0.999648
0.999602
0.999548
0.99949
0.999425
1
0.959538
0.199302
1
1
1
1.00001
1.00001
1
1
1
1.00001
1.00001
1
1
1
1
1
1
1
1
0.999997
0.999985
1
1
1
0.99999
0.999988
0.830217
0.0613339
0.00111295
0.000971504
0.000705861
0.0340471
0.658775
0.995882
0.986801
0.98833
0.99495
0.997769
0.999908
0.999899
0.999823
0.99982
0.999885
0.999895
0.999886
0.999878
0.99987
0.999864
0.999863
0.999944
0.999984
1.00001
0.764619
0.120633
0.00584505
0.00549036
0.07892
0.610268
0.997914
0.99995
0.999945
0.999856
0.999782
0.999705
0.999632
0.999561
0.999484
0.999426
0.999998
0.982833
0.290592
0.899215
0.312535
0.000999413
0.000627889
0.000679967
0.000860586
0.360505
0.999958
0.999996
0.999388
0.999423
0.999687
0.999791
0.999826
0.999828
0.99985
0.999868
0.999877
0.999878
0.999875
0.99987
0.999868
0.999868
0.999924
1.00004
1.00001
0.784389
0.0838103
0.00558489
0.00511287
0.00613765
0.6534
0.999886
0.999908
0.999767
0.999744
0.999683
0.99961
0.999545
0.999482
0.999422
0.999376
0.999991
0.984967
0.293129
0.987628
0.421927
0.00460813
0.00053392
0.000526447
0.000536792
0.360857
1
1.00001
0.999936
0.999928
0.999851
0.999834
0.999849
0.999938
0.999918
0.999902
0.999889
0.999878
0.999871
0.999867
0.999869
0.99988
0.99992
0.999993
1
0.794491
0.048186
0.00504046
0.00499396
0.00499063
0.633919
0.999732
0.999627
0.999652
0.999624
0.999559
0.999498
0.999449
0.99942
0.999419
0.999425
0.999985
0.976281
0.280751
0.999939
0.581008
0.00662359
0.000528488
0.000523699
0.000525109
0.242454
1
1.00004
0.999934
0.999862
0.999844
0.999866
0.999895
0.9999
0.999888
0.999877
0.999869
0.999867
0.99987
0.999875
0.999882
0.999895
0.999934
0.99998
1
0.795471
0.0401303
0.00501563
0.0049921
0.00499076
0.600305
0.999633
0.999616
0.999595
0.999591
0.999604
0.999641
0.999673
0.999693
0.999702
0.999608
0.999983
0.903317
0.1108
0.999988
0.634781
0.000525065
0.000524309
0.000523569
0.000527191
0.22198
1
0.999987
0.999938
0.999884
0.999894
0.999931
0.999962
0.999985
1
1
0.999995
0.999992
0.999994
1
1.00002
1.00002
1.00003
1.00004
1.00001
0.781262
0.0470911
0.00499837
0.00499083
0.00499074
0.59942
0.999863
0.999854
0.999946
1.00001
1.00002
1.00002
1.00002
1.00002
0.999951
0.999647
0.99998
0.806234
0.0192048
)
;

boundaryField
{
    AirInlet
    {
        type            fixedValue;
        value           uniform 0;
    }
    WaterInlet
    {
        type            fixedValue;
        value           uniform 1;
    }
    ChannelWall
    {
        type            zeroGradient;
    }
    Outlet
    {
        type            inletOutlet;
        inletValue      uniform 0;
        value           nonuniform List<scalar> 
15
(
0.282439
0.232767
0
0
0
0
0
0
0.189216
0.199302
0.290592
0.293129
0.280751
0.1108
0
)
;
    }
    FrontAndBack
    {
        type            empty;
    }
}


// ************************************************************************* //
