/*--------------------------------*- C++ -*----------------------------------*\
| =========                 |                                                 |
| \\      /  F ield         | OpenFOAM: The Open Source CFD Toolbox           |
|  \\    /   O peration     | Version:  2.3.0                                 |
|   \\  /    A nd           | Web:      www.OpenFOAM.org                      |
|    \\/     M anipulation  |                                                 |
\*---------------------------------------------------------------------------*/
FoamFile
{
    version     2.0;
    format      ascii;
    class       volScalarField;
    location    "0.028";
    object      alpha.water;
}
// * * * * * * * * * * * * * * * * * * * * * * * * * * * * * * * * * * * * * //

dimensions      [0 0 0 0 0 0 0];

internalField   nonuniform List<scalar> 
725
(
1
1
1
1
0.96494
1
1
1
1.00004
0.999368
1
1
1
1.00003
1
1
1
1
1.00001
0.999787
1
1
1
1.00001
0.926719
0.739597
0.423477
0.531842
0.917804
0.999979
0.999955
0.999957
0.999986
0.999956
0.999899
0.999845
0.999802
0.99979
0.999845
1.00004
1.00015
1.00014
0.997291
0.994313
0.992275
0.991304
0.996835
0.99907
0.998847
0.998976
0.99919
0.999366
0.999482
0.999545
0.999634
0.999652
0.999686
0.999709
0.99972
0.999735
0.999744
0.999762
0.999791
0.999815
0.999833
0.999841
0.999841
0.999839
0.999838
0.999835
0.921768
0.231067
0.353677
0.895157
1
1
1.00008
0.999962
0.999941
0.999968
0.999945
0.999908
0.999871
0.999863
0.999907
1.00003
1.00007
1.00001
0.992903
0.975323
0.987736
0.998309
0.999473
0.997937
0.997644
0.997643
0.99842
0.999484
0.999294
0.999683
0.999671
0.999671
0.999685
0.999748
0.99991
0.99977
0.999785
0.999784
0.99978
0.999776
0.999774
0.999778
0.999901
0.999865
0.999856
0.576443
0.167701
0.476758
0.92101
0.999975
0.999954
0.999898
0.99946
0.999654
0.999856
0.999947
1.00001
1.00001
0.999995
0.999993
1.00002
1.00002
1.00002
1
0.966921
0.961039
0.986398
0.999554
0.999639
0.999432
0.999273
0.999305
0.998984
0.998871
0.999146
0.999383
0.999589
0.999786
0.999846
0.999913
0.999907
0.999835
0.999833
0.999854
0.999789
0.999775
0.999881
0.99987
0.999861
0.999855
0.0772294
0.0965944
0.389827
0.884896
0.999949
0.999951
0.997371
0.997823
0.999829
0.999921
0.99994
0.999935
0.999913
0.999852
0.999775
0.9998
0.999885
0.999995
1
0.965093
0.961015
0.966504
0.996833
0.999954
0.999764
0.999696
0.999922
0.99917
0.996422
0.996425
0.99931
0.99988
0.999962
0.999964
0.970622
0.960786
0.999718
0.999839
0.999853
0.9998
0.999791
0.999838
0.999851
0.999853
0.999852
0.0686987
0.0718147
0.587714
0.986809
0.997895
0.995242
0.994957
0.996849
0.999909
1.00001
0.999973
0.99995
0.999922
0.999834
0.999674
0.99971
0.999964
0.999999
1
0.972477
0.960905
0.964502
0.999327
0.999956
0.999955
0.999902
1.00006
0.999391
0.996416
0.996439
0.998624
1
1
0.968656
0.710791
0.618676
0.736947
0.967306
0.99789
0.999975
0.999974
0.999932
0.99993
0.999928
0.99992
0.0424412
0.121389
0.803134
0.802218
0.9986
0.99711
0.986662
0.998987
0.999435
0.999724
0.999873
0.999899
0.999866
0.999747
0.999516
0.999339
1.00005
0.996575
0.988456
0.98826
0.960795
0.960793
0.993651
0.993312
0.999839
0.99987
0.999332
0.999398
0.987384
0.990455
0.998792
1.0001
0.99997
0.886248
0.510805
0.288326
0.265988
0.704859
0.97902
0.999966
0.999854
0.999926
0.999947
0.999934
0.999927
0.0958052
0.321005
0.685952
0.850178
0.998619
0.998638
0.979099
0.992402
0.999461
0.999696
0.999833
0.999867
0.99982
0.999712
0.999531
0.999381
0.998891
0.989195
0.985833
0.98978
0.961627
0.960787
0.96169
0.989955
0.999123
1.00005
0.9991
0.999398
0.986198
0.981015
0.998557
1.00022
0.995937
0.841261
0.360219
0.171541
0.118702
0.582432
0.963993
0.999928
0.999857
0.999925
0.999932
0.99993
0.999921
0.121683
0.546493
0.772958
0.957383
0.998639
0.998635
0.979055
0.9803
0.997742
0.999784
0.999764
0.999795
0.999761
0.999694
0.999572
0.99942
0.997646
1
0.986034
0.989905
0.987338
0.960797
0.9609
0.998392
0.996655
0.999551
0.999065
0.992462
0.981241
0.968402
0.997929
1.00001
0.993116
0.831302
0.234117
0.108539
0.0714856
0.448038
0.954433
0.999972
0.999956
0.999929
0.999926
0.999914
0.999902
0.0753301
0.855547
0.942536
0.997716
0.997975
0.99863
0.982019
0.997209
0.999204
0.999496
0.999679
0.99974
0.999733
0.99971
0.999601
0.99956
0.999305
1.00003
0.998764
0.984736
0.987268
0.961075
0.96486
0.999081
0.999106
0.998533
0.99443
0.975348
0.968341
0.968365
0.996657
1.00001
0.986013
0.821364
0.184516
0.0789012
0.0474577
0.311664
0.904118
0.999974
0.99997
0.99992
0.999908
0.999888
0.999873
0.00197577
0.620367
0.882139
0.993362
0.989354
0.990535
0.999763
0.999997
0.999855
0.999665
0.999686
0.999724
0.999735
0.999746
0.999864
0.999744
0.999745
0.999959
0.999998
0.983023
0.987177
0.967863
0.992868
0.999971
1.00028
0.999115
0.984186
0.968403
0.968373
0.96838
0.993679
0.999999
0.975223
0.722612
0.159704
0.0465797
0.0154722
0.22157
0.786686
0.999507
0.999962
0.999902
0.999882
0.999855
0.99984
1
1
1
1.00001
0.90603
1
1
1
1.00006
0.998254
1
1
1
1.00001
1
1
1
1
1
1.00007
1
1
1
1.00005
1.00004
0.164583
0.489283
0.773146
0.919267
0.981035
0.979809
0.998942
1.00001
1
0.999927
0.999895
0.999878
0.999849
0.999833
0.999773
0.999681
0.999705
0.999876
0.999998
0.985988
0.967136
0.975499
0.997824
1
1
0.99643
0.971139
0.968414
0.968411
0.975793
0.997301
0.999981
0.957051
0.389215
0.0267207
0.00171649
0.00115764
0.0723901
0.541313
0.998112
0.99993
0.999848
0.999823
0.999807
0.999806
0.673169
0.781321
0.698606
0.825282
0.964207
0.999825
0.999906
0.999876
0.999852
0.99985
0.999845
0.999844
0.999928
0.999926
0.999899
0.99975
0.999756
0.999915
0.999997
0.970597
0.965591
0.965578
0.976497
0.999484
1
0.993607
0.970025
0.968437
0.968417
0.970536
0.995626
0.99996
0.896591
0.123451
0.00117568
0.00112
0.0010839
0.00107538
0.323516
0.999875
0.999874
0.99984
0.999825
0.999902
0.999869
0.997841
0.94611
0.791938
0.834646
0.978122
0.999909
0.999912
0.999911
0.999855
0.999853
0.999861
0.999878
0.999893
0.9999
0.999877
0.999965
0.999933
0.999975
0.999998
0.971952
0.96558
0.965583
0.991178
0.999391
0.997478
0.973744
0.969889
0.970653
0.981018
0.994364
0.999144
0.999943
0.821615
0.0939728
0.00110077
0.00108443
0.00108078
0.0010778
0.147891
0.986243
0.999884
0.999864
0.999862
0.999852
0.999816
1
0.999984
0.796167
0.862163
0.99384
0.999895
0.999885
0.999855
0.999879
0.99988
0.999883
0.999884
0.999864
0.99979
0.999815
0.999852
0.999776
0.999135
0.995787
0.985958
0.972355
0.979379
0.979963
0.979412
0.979372
0.980144
0.992698
0.998853
0.999434
0.999643
0.999854
0.99993
0.676306
0.00873066
0.00108962
0.00108438
0.00108134
0.00108049
0.0723049
0.920193
0.999974
0.999973
0.999788
0.999588
0.998938
1
0.918106
0.79641
0.862568
0.995701
0.999761
0.999729
0.999753
0.999789
0.999772
0.999686
0.999106
0.99614
0.995641
0.995669
0.9958
0.997603
0.997719
0.988081
0.986143
0.985639
0.981028
0.98257
0.98868
0.995121
0.999328
0.999642
0.999665
0.999674
0.999732
0.999788
0.99993
0.644095
0.0269962
0.00108922
0.00108612
0.00108305
0.00108127
0.0773475
0.90547
0.999858
0.994782
0.992202
0.992171
0.994982
)
;

boundaryField
{
    AirInlet
    {
        type            fixedValue;
        value           uniform 0;
    }
    WaterInlet
    {
        type            fixedValue;
        value           uniform 1;
    }
    ChannelWall
    {
        type            zeroGradient;
    }
    Outlet
    {
        type            inletOutlet;
        inletValue      uniform 0;
        value           nonuniform List<scalar> 
15
(
0.999835
0.999856
0.999855
0.999852
0.99992
0.999927
0.999921
0.999902
0.999873
0.99984
0.999806
0.999869
0.999816
0.998938
0.994982
)
;
    }
    FrontAndBack
    {
        type            empty;
    }
}


// ************************************************************************* //
