/*--------------------------------*- C++ -*----------------------------------*\
| =========                 |                                                 |
| \\      /  F ield         | OpenFOAM: The Open Source CFD Toolbox           |
|  \\    /   O peration     | Version:  2.3.0                                 |
|   \\  /    A nd           | Web:      www.OpenFOAM.org                      |
|    \\/     M anipulation  |                                                 |
\*---------------------------------------------------------------------------*/
FoamFile
{
    version     2.0;
    format      ascii;
    class       volScalarField;
    location    "0.028";
    object      p;
}
// * * * * * * * * * * * * * * * * * * * * * * * * * * * * * * * * * * * * * //

dimensions      [1 -1 -2 0 0 0 0];

internalField   nonuniform List<scalar> 
725
(
930.587
759.99
711.339
831.314
374.415
900.579
760.431
706.9
842.231
310.294
884.542
757.216
687.084
750.466
229.691
880.518
743.841
657.768
640.094
47.9228
888.807
732.831
625.55
515.18
-464.82
1648.04
1111.99
244.856
-491.569
63.1283
104.661
165.027
157.575
152.695
143.839
136.324
130.09
125.009
121.455
120.309
117.332
112.342
124.312
111.813
130.004
126.223
137.623
101.968
87.8111
83.7921
77.8853
75.0121
78.61
76.6326
78.1041
70.18
69.5498
92.6008
137.009
123.724
135.438
178.959
100.188
250.482
104.192
46.4026
26.5262
14.7026
7.34004
2.0827
2242.96
1337.04
591.553
-778.787
60.2345
112.838
167.081
160.246
153.37
144.132
136.017
129.477
124.086
120.582
119.123
116.564
112.24
118.215
110.935
108.002
121.551
138.35
107.451
88.0936
90.8662
85.9223
77.2676
78.0817
75.1251
77.849
70.4196
68.9253
88.4117
147.897
118.76
132.638
178.501
99.487
256.721
99.6766
43.4446
26.354
14.6221
7.08028
1.91023
1201.86
1568.22
-59.9037
-1026.72
180.23
124.432
174.619
167.484
154.776
143.441
135.758
130.119
124.607
120.446
118.339
116.296
112.558
120.881
109.781
147.25
165.792
143.19
113.679
79.6952
73.7269
70.1884
71.5552
79.8553
74.5235
77.1108
68.8176
66.3094
76.5764
176.798
104.341
127.278
185.387
95.5895
274.666
77.257
34.1773
24.3354
13.5982
6.61064
1.77229
2297.37
2197.16
-276.314
-1482.05
386.32
133.309
196.122
189.859
153.484
141.89
135.22
129.331
123.354
118.991
116.851
115.441
113.65
126.219
112.356
145.284
168.648
167.689
131.21
75.194
72.066
67.9806
75.5568
80.6765
77.6926
79.2718
63.7499
61.4129
48.2721
239.323
105.007
121.911
191.985
95.3155
287.026
35.2147
19.8198
21.7938
12.4251
6.10012
1.60042
2703.34
2461.14
-638.515
-1709.17
594.739
182.114
219.59
215.249
149.993
138.459
134.709
129.631
123.118
118.595
114.83
113.483
113.302
134.707
108.217
99.4118
166.835
154.39
168.09
59.7885
66.4532
63.8849
76.9464
84.1505
77.5506
77.3137
58.5936
57.5388
-11.7277
384.784
240.65
270.293
251.847
104.584
280.423
-20.0067
5.58518
18.2353
11.6813
5.94297
1.57174
2793.76
2176.7
1860.08
5983.22
488.217
289.794
235.293
242.584
132.441
133.465
133.277
130.013
122.755
118.543
117.727
112.997
109.515
149.957
61.609
102.388
172.981
153.306
184.227
178.128
65.4083
58.3974
75.7497
89.7571
89.7925
80.911
53.2709
57.5742
-64.4077
705.955
328.49
530.902
557.53
267.254
305.924
-55.4905
3.72556
15.4264
10.7796
6.22168
1.64931
3339.67
1889.82
4336.43
4388.04
438.515
337.999
259.296
255.879
126.781
131.723
132.93
130.225
122.637
118.58
116.617
110.989
109.56
410.893
145.233
151.396
157.512
154.688
210.839
277.522
62.6374
63.2759
75.9358
90.435
92.6482
85.8887
51.2328
59.4652
-86.5197
1068.69
428.147
632.851
730.726
336.448
307.563
-68.5194
-0.183558
14.2432
10.4658
6.07624
1.4565
4173.78
1943.39
2412.56
4262.19
397.653
354.628
259.905
701.041
170.692
130.691
132.687
130.504
122.554
119.11
115.42
109.006
151.177
56.6227
132.013
151.302
159.958
154.534
250.732
109.578
142.269
60.4766
76.1671
83.8034
93.9589
109.781
47.4386
52.6564
-107.444
1151.48
731.409
713.291
828.416
404.194
252.027
-86.7988
-4.94666
13.0072
10.2395
6.053
1.39401
3406.07
11250.9
4914.35
4668.52
378.405
362.83
151.309
110.217
128.68
136.762
134.333
130.889
123.465
118.664
114.818
107.582
96.0854
63.6746
135.536
135.755
162.696
144.646
120.112
108.92
63.2727
69.1627
76.9633
86.6203
98.3001
113.412
41.2885
47.2304
-143.189
1116.22
945.828
772.28
868.145
516.638
21.5952
-110.26
-10.5422
11.6484
10.0578
6.03032
1.33193
5008.93
1517.92
2840.46
4365.08
374.199
354.864
150.395
116.51
124.627
130.471
134.092
131.864
123.352
118.587
114.372
106.768
96.5001
66.2404
140.532
150.08
157.178
110.56
114.873
104.754
69.3532
60.093
81.0287
90.6734
96.4624
112.748
57.2174
38.9073
-130.3
604.694
996.948
847.809
916.689
624.691
-65.8038
-129.179
-17.2179
10.3326
9.92976
6.00942
1.27546
-2121.95
-2278.61
-2318.28
-2437.38
-2213.4
-2131.86
-2273.87
-2324.88
-2423.85
-2494.42
-2129.6
-2269.77
-2319.32
-2372.45
-2371.96
-2114.99
-2271.03
-2316.33
-2335.72
-2291.64
-2085.71
-2273.93
-2317.37
-2323.76
-2260.52
-272.796
-128.713
-627.469
1237.58
386.283
366.075
143.625
130.518
126.333
127.831
128.679
124.592
123.02
118.77
113.359
105.729
97.4334
79.3863
123.676
92.2201
103.113
99.7392
160.586
105.216
74.5572
63.7875
88.9192
93.7645
89.5766
53.2296
38.1272
12.2371
-107.072
340.513
905.846
948.85
951.772
808.996
73.6156
-151.434
-34.0066
6.37335
9.71254
6.09178
1.21167
-2477.89
-2449.7
676.498
1089.9
246.464
219.052
148.851
141.17
127.003
126.478
128.272
125.302
123.518
119.218
112.482
104.476
99.1133
89.8215
108.396
131.255
123.592
114.279
86.4177
88.0272
65.124
44.5865
114.397
94.5322
85.4373
54.7056
26.3956
3.92798
-55.8724
606.152
955.531
951.811
950.759
946.658
319.902
-72.1661
-29.1469
5.53803
9.61942
6.1793
0.88106
-2192.32
-1920.29
-72.6987
852.968
134.193
195.545
160.363
146.814
129.423
126.633
128.009
125.808
123.232
118.651
111.697
105.817
101.626
95.4459
106.019
118.291
123.787
120.108
81.3404
81.5952
43.5996
149.125
123.245
87.1366
70.723
28.9208
21.0714
-3.65777
52.1047
797.204
952.319
951.953
950.176
945.438
660.746
-25.1229
-17.0752
7.0462
9.62328
5.57671
0.182959
-1929.77
-1377.94
-268.747
539.138
181.881
183.498
167.1
147.328
130.906
127.37
127.973
125.819
123.106
118.286
111.13
104.854
101.01
95.4626
91.5726
59.5887
98.5939
63.0166
54.1987
94.7532
149.627
107.542
83.5124
78.7383
65.1983
24.7944
13.3422
-23.2365
7.75371
936.645
951.609
951.851
950.099
944.83
865.822
-24.6082
-11.3103
10.52
9.14621
5.22532
-0.000509419
-1919.07
-1598.81
-285.514
474.236
218.668
177.994
158.962
143.584
130.94
128.36
128.816
128.688
140.664
136.078
128.088
121.685
104.523
94.9806
106.702
63.5119
141.215
65.2238
54.3649
67.5731
100.485
164.549
114.604
84.6022
66.3259
26.8142
10.0759
-10.8365
156.218
931.823
952.504
952.028
950.175
942.729
887.015
118.362
2.707
15.7578
41.7531
36.2303
12.4907
)
;

boundaryField
{
    AirInlet
    {
        type            calculated;
        value           nonuniform List<scalar> 5(2650.89 1823.77 -948.756 3613.49 5085.45);
    }
    WaterInlet
    {
        type            calculated;
        value           nonuniform List<scalar> 10(930.589 900.585 884.552 880.533 888.825 -2121.97 -2131.88 -2129.61 -2115 -2085.71);
    }
    ChannelWall
    {
        type            calculated;
        value           nonuniform List<scalar> 
110
(
888.781
732.801
625.516
515.142
-464.859
-2121.93
-2278.58
-2318.25
-2437.35
-2213.37
-2085.73
-2273.96
-2317.41
-2323.8
-2260.56
-1919.11
-1598.85
-285.549
474.198
218.624
177.95
158.918
143.54
130.896
128.316
128.772
128.644
140.62
136.034
128.044
121.641
104.479
94.9366
106.658
63.4683
141.172
65.1805
54.3216
67.5294
100.441
164.504
114.56
84.5581
66.2818
26.7701
10.0317
-10.8807
156.189
931.822
952.504
952.028
950.175
942.729
887.012
118.322
2.66286
15.7139
41.7093
36.1865
12.4468
930.613
760.02
711.374
831.353
374.456
1648.07
1112.01
244.879
-491.528
63.1724
104.705
165.072
157.619
152.739
143.883
136.368
130.134
125.053
121.499
120.353
117.376
112.386
124.356
111.857
130.047
126.267
137.667
102.012
87.8552
83.8362
77.9294
75.0562
78.6541
76.6767
78.1482
70.2242
69.5939
92.6449
137.053
123.768
135.482
179.003
100.232
250.526
104.236
46.4467
26.5703
14.7467
7.38418
2.12683
)
;
    }
    Outlet
    {
        type            calculated;
        value           nonuniform List<scalar> 
15
(
-0.0441377
-0.132416
-0.220693
-0.308969
-0.397273
-0.451227
-0.470843
-0.490452
-0.510056
-0.529655
-0.583582
-0.671897
-0.760135
-0.847665
-0.932159
)
;
    }
    FrontAndBack
    {
        type            empty;
    }
}


// ************************************************************************* //
