/*--------------------------------*- C++ -*----------------------------------*\
| =========                 |                                                 |
| \\      /  F ield         | OpenFOAM: The Open Source CFD Toolbox           |
|  \\    /   O peration     | Version:  2.3.0                                 |
|   \\  /    A nd           | Web:      www.OpenFOAM.org                      |
|    \\/     M anipulation  |                                                 |
\*---------------------------------------------------------------------------*/
FoamFile
{
    version     2.0;
    format      ascii;
    class       volScalarField;
    location    "0.028";
    object      p_rgh;
}
// * * * * * * * * * * * * * * * * * * * * * * * * * * * * * * * * * * * * * //

dimensions      [1 -1 -2 0 0 0 0];

internalField   nonuniform List<scalar> 
725
(
-2184.14
-2221.94
-2239.42
-2228.56
-2270.05
-2189.58
-2221.66
-2239.34
-2229.39
-2285.35
-2192.2
-2221.97
-2240.18
-2236.02
-2298.37
-2191.79
-2223.18
-2242.3
-2249.57
-2331.03
-2188.66
-2224.58
-2240.24
-2230.53
-2218.53
-2124.83
-1877.19
-1817.8
-1847.14
-1937.12
-1694.23
-1405.69
-1234.94
-1156.15
-1276.77
-1342.57
-1391.71
-1423.07
-1446.05
-1457.97
-1465.25
-1468.89
-1470.49
-1470.93
-1470.74
-1470.22
-1469.98
-1470.53
-1475.28
-1489.05
-1545.69
-1739.87
-1436.97
-1433.5
-1437.32
-1447.61
-1498.99
-1502.47
-1489.06
-1479.95
-1481.65
-1479.3
-1479.03
-1470.46
-1471.99
-1436.57
-1442
-1266.14
-786.486
-528.62
-2164.95
-2203.86
-2128.99
-1845.81
-1950.7
-1731.21
-1420.45
-1169.21
-1135.76
-1279.26
-1348.72
-1396.67
-1427.55
-1449.05
-1460.07
-1466.64
-1469.82
-1471.16
-1471.46
-1471.16
-1470.53
-1470.04
-1470.03
-1472.98
-1481.46
-1514.72
-1613.88
-1440.09
-1434.7
-1438.73
-1450
-1516.31
-1507.19
-1489.06
-1480.7
-1482.94
-1480.73
-1480.45
-1472.39
-1474.96
-1443.86
-1464.21
-1343.97
-1311.15
-572.117
-2177.95
-1838.8
-1836.96
-1755.34
-2021.98
-1766.1
-1381.73
-1061.77
-1125.12
-1292.64
-1360.27
-1405.12
-1434.61
-1453.45
-1462.79
-1468.15
-1470.64
-1471.56
-1471.68
-1471.24
-1470.43
-1469.62
-1468.71
-1468.9
-1469.62
-1473.95
-1478.14
-1447.78
-1435.8
-1441.75
-1455.49
-1549.98
-1503.04
-1485.9
-1479.94
-1482.95
-1480.69
-1480.72
-1473.56
-1477.88
-1451.86
-1491.61
-1431.42
-1918.24
-80.4098
-1848.28
-1378.01
-1365.37
-1366.4
-1764.47
-1903.25
-1264.5
-706.03
-1118.57
-1325.54
-1375.45
-1416.7
-1445.11
-1459.52
-1466.58
-1470.23
-1471.7
-1472.16
-1472
-1471.35
-1470.32
-1469.16
-1467.18
-1464.67
-1457.51
-1443.1
-1375.36
-1448.9
-1435.98
-1444.18
-1462.9
-1555.75
-1477.38
-1481.94
-1479.67
-1483.74
-1482.07
-1482.37
-1475.55
-1481.17
-1457.26
-1504.69
-1467.35
-1994.81
31.2354
-1344.44
-1376.37
-1360.8
-1361.94
-1854.19
-1800.77
-1081.95
-225.15
-1141.27
-1394.82
-1396.23
-1427.59
-1460.4
-1467.25
-1471.29
-1472.59
-1472.85
-1472.7
-1472.35
-1471.53
-1470.27
-1468.72
-1465.95
-1461.49
-1448.45
-1431.86
-1301.39
-1417
-1435.49
-1441.34
-1504.27
-1555.26
-1452.68
-1481.5
-1478.78
-1483.92
-1482.66
-1483.86
-1478.08
-1484.97
-1460.62
-1500.07
-1425.27
-1788.65
-89.4702
-1366.53
-1379.84
-1358.39
-1357.01
-1321.46
-1468.13
-977.629
227.884
-1301.96
-1464.98
-1410.79
-1429.83
-1472.53
-1472.47
-1474.28
-1474.09
-1473.43
-1472.2
-1471.67
-1471.22
-1470.11
-1468.62
-1465.52
-1461.15
-1441.76
-1420.65
-1253.28
-1322.17
-1438.15
-1448.13
-1472.61
-1449.27
-1481.42
-1492.17
-1484.79
-1485.69
-1483.53
-1486.21
-1479.07
-1488.73
-1459.33
-1492.82
-1378.1
-1489.2
-222.128
-1365.8
-1378.64
-1354.25
-1352.77
-1302.95
-1494.21
-807.366
285.145
-1359.52
-1487.49
-1425.3
-1129.87
-1477.38
-1474.43
-1475.37
-1474.55
-1473.6
-1472.6
-1471.79
-1471.14
-1469.92
-1468.57
-1465.42
-1461.07
-1440.56
-1415
-1280.45
-1370.86
-1441.88
-1455.18
-1389.69
-1355.29
-1487.34
-1493.95
-1483.9
-1486.02
-1483.79
-1486.68
-1479.21
-1489.76
-1459.17
-1489.72
-1361.03
-1386.72
-253.195
-1364.03
-1379.87
-1358.71
-1355.76
-1301.5
-1609.33
-828.778
586.576
-1375.64
-1511.42
-1356.74
-1516.57
-1481.78
-1475.93
-1476.39
-1474.98
-1473.73
-1472.82
-1472.01
-1471.32
-1469.94
-1468.52
-1465.38
-1461.19
-1442.11
-1411.05
-1220.83
-1286.8
-1423.6
-1454.25
-1400.1
-1359.97
-1478.33
-1493.9
-1484.76
-1486.32
-1484.18
-1487.22
-1480.07
-1490.91
-1459.59
-1486.37
-1343.75
-1311.45
-226.419
-1347.66
-1364.88
-1356.05
-1357.71
-1327.24
-1774.05
-761.143
1408.95
-103.293
-1530.48
-1557.01
-1505.22
-1471.4
-1474.93
-1477.08
-1475.41
-1473.88
-1472.79
-1471.9
-1471.19
-1469.86
-1468.47
-1465.42
-1461.51
-1444
-1419.89
-1365.42
-1345.14
-1438.58
-1453.25
-1407.38
-1337.13
-1473.6
-1492.93
-1485
-1486.16
-1484.58
-1487.79
-1480.77
-1491.78
-1460.37
-1483.25
-1326.89
-1170.63
-249.136
-1106.91
-1318.07
-1351.83
-1358.92
-1336.58
-1552.78
-525.552
-3356.68
-1178.31
-1538.21
-1542.63
-1503.75
-1492.52
-1478.95
-1478.37
-1475.85
-1474.06
-1472.81
-1471.84
-1471.08
-1469.77
-1468.41
-1465.51
-1461.93
-1447.25
-1433.08
-1376.56
-1326.49
-1433.52
-1450.28
-1393.51
-1314.12
-1473.68
-1491.47
-1486.12
-1488.45
-1486.62
-1489.18
-1482.05
-1492.58
-1461.75
-1480.54
-1313.79
-1084.92
-268.303
-162.688
-199.658
-213.479
-221.755
-246.673
-165.759
-197.994
-212.277
-218.541
-230.482
-166.189
-197.104
-211.752
-217.688
-233.577
-163.598
-196.977
-211.932
-218.153
-234.399
-158.169
-197.397
-212.805
-220.241
-236.473
-588.679
-1199.58
-1346.79
-1352.78
-1337.39
-1419.27
-2048.27
-2620.28
-1699.07
-1560.42
-1564.28
-1541.35
-1501.42
-1489.17
-1481.47
-1477.24
-1474.75
-1473.05
-1471.85
-1470.92
-1469.8
-1468.3
-1465.82
-1463.16
-1458.25
-1465.76
-1410.38
-1384.09
-1430.21
-1433.72
-1453.58
-1327.06
-1472.76
-1488.89
-1486.11
-1488.49
-1487.58
-1489.66
-1484.85
-1494.07
-1466.97
-1475.7
-1292.1
-890.482
-543.117
-413.882
-1134.78
-1346.81
-1349.51
-1339.91
-1349.92
-1968.74
-2198.33
-1715.42
-1653.91
-1584.54
-1554.69
-1514.16
-1496.41
-1485.88
-1479.78
-1476.15
-1473.94
-1472.3
-1471.07
-1469.82
-1468.4
-1466.37
-1465.16
-1463.72
-1475.51
-1504.4
-1434.27
-1429.77
-1437.77
-1460.41
-1473.82
-1460.14
-1489.79
-1489.47
-1490.87
-1489.91
-1492.04
-1488.37
-1499.78
-1477.3
-1492.74
-1306.36
-690.231
-529.534
-287.501
-1025.77
-1347.43
-1347.66
-1342.33
-1349.89
-1698.96
-1918.4
-1735.99
-1660.46
-1595.7
-1558.67
-1522.38
-1501.78
-1489.21
-1481.76
-1477.32
-1474.57
-1472.63
-1471.19
-1469.83
-1468.47
-1466.85
-1466.61
-1467.92
-1483.12
-1551.12
-1433.58
-1430.33
-1436.23
-1448.71
-1567.08
-1490.04
-1498.2
-1492.31
-1492.04
-1490.5
-1492.69
-1490.56
-1505.99
-1494.09
-1539.35
-1420.76
-1124.01
-591.311
-248.869
-819.058
-1347.77
-1347.15
-1343.87
-1351.06
-1469.61
-1798.26
-1727.13
-1663.05
-1603.77
-1563.17
-1527.91
-1505.68
-1491.68
-1483.26
-1478.14
-1474.91
-1472.8
-1471.28
-1469.87
-1468.48
-1467.07
-1467.31
-1469.65
-1487.74
-1549.34
-1434.29
-1430.87
-1434.59
-1444.21
-1571.35
-1534.11
-1506.12
-1495.02
-1493.21
-1491.82
-1495
-1494.34
-1512.4
-1512.5
-1597.92
-1587.2
-1994.44
-243.836
-236.885
-698.448
-1348.46
-1346.79
-1344.19
-1348.26
-1499.52
-1840.98
-1729.49
-1665.95
-1608.39
-1566.25
-1530.55
-1507.44
-1492.65
-1483.62
-1478.14
-1474.71
-1472.47
-1470.86
-1469.37
-1467.89
-1466.55
-1467.03
-1469.52
-1489.27
-1526.55
-1432.4
-1431.27
-1434.04
-1444.13
-1544.09
-1536.13
-1510.05
-1495.74
-1492.49
-1490.77
-1494.27
-1494.18
-1514.47
-1523.84
-1638.31
-1727.11
-2643.69
140.586
)
;

boundaryField
{
    AirInlet
    {
        type            fixedFluxPressure;
        gradient        nonuniform List<scalar> 5(-9893.96 148457 -3.47011 -1.67845e+06 -4.07576e+07);
        value           nonuniform List<scalar> 5(-1366.63 -1364.31 -1364.03 -1364.44 -1514.49);
    }
    WaterInlet
    {
        type            fixedFluxPressure;
        gradient        nonuniform List<scalar> 10(0.00874203 -1.45069 -2.39051 0.352596 -2.39545 0.0258868 -2.47924 -6.65942 -18.7712 -6.76871);
        value           nonuniform List<scalar> 10(-2184.14 -2189.58 -2192.2 -2191.79 -2188.66 -162.688 -165.759 -166.189 -163.598 -158.169);
    }
    ChannelWall
    {
        type            fixedFluxPressure;
        gradient        uniform 0;
        value           nonuniform List<scalar> 
110
(
-2188.66
-2224.58
-2240.24
-2230.53
-2218.53
-162.688
-199.658
-213.479
-221.755
-246.673
-158.169
-197.397
-212.805
-220.241
-236.473
-236.885
-698.448
-1348.46
-1346.79
-1344.19
-1348.26
-1499.52
-1840.98
-1729.49
-1665.95
-1608.39
-1566.25
-1530.55
-1507.44
-1492.65
-1483.62
-1478.14
-1474.71
-1472.47
-1470.86
-1469.37
-1467.89
-1466.55
-1467.03
-1469.52
-1489.27
-1526.55
-1432.4
-1431.27
-1434.04
-1444.13
-1544.09
-1536.13
-1510.05
-1495.74
-1492.49
-1490.77
-1494.27
-1494.18
-1514.47
-1523.84
-1638.31
-1727.11
-2643.69
140.586
-2184.14
-2221.94
-2239.42
-2228.56
-2270.05
-2124.83
-1877.19
-1817.8
-1847.14
-1937.12
-1694.23
-1405.69
-1234.94
-1156.15
-1276.77
-1342.57
-1391.71
-1423.07
-1446.05
-1457.97
-1465.25
-1468.89
-1470.49
-1470.93
-1470.74
-1470.22
-1469.98
-1470.53
-1475.28
-1489.05
-1545.69
-1739.87
-1436.97
-1433.5
-1437.32
-1447.61
-1498.99
-1502.47
-1489.06
-1479.95
-1481.65
-1479.3
-1479.03
-1470.46
-1471.99
-1436.57
-1442
-1266.14
-786.486
-528.62
)
;
    }
    Outlet
    {
        type            totalPressure;
        rho             rho;
        psi             none;
        gamma           1;
        p0              uniform 0;
        value           nonuniform List<scalar> 
15
(
0
-0.335877
0
-0.017715
0
-0.000806749
-0.0439157
-0.0302467
-5.61638
-7.71795
0
0
0
0
0
)
;
    }
    FrontAndBack
    {
        type            empty;
    }
}


// ************************************************************************* //
