/*--------------------------------*- C++ -*----------------------------------*\
| =========                 |                                                 |
| \\      /  F ield         | OpenFOAM: The Open Source CFD Toolbox           |
|  \\    /   O peration     | Version:  2.3.0                                 |
|   \\  /    A nd           | Web:      www.OpenFOAM.org                      |
|    \\/     M anipulation  |                                                 |
\*---------------------------------------------------------------------------*/
FoamFile
{
    version     2.0;
    format      ascii;
    class       volScalarField;
    location    "0.028";
    object      p_rgh;
}
// * * * * * * * * * * * * * * * * * * * * * * * * * * * * * * * * * * * * * //

dimensions      [1 -1 -2 0 0 0 0];

internalField   nonuniform List<scalar> 
725
(
930.613
760.02
711.374
831.353
374.456
900.659
760.523
707.003
842.346
310.421
884.675
757.369
687.256
750.658
229.902
880.704
744.054
658.009
640.362
48.2182
889.045
733.105
625.86
515.525
-464.468
1648.07
1112.01
244.879
-491.528
63.1724
104.705
165.072
157.619
152.739
143.883
136.368
130.134
125.053
121.499
120.353
117.376
112.386
124.356
111.857
130.047
126.267
137.667
102.012
87.8552
83.8362
77.9294
75.0562
78.6541
76.6767
78.1482
70.2242
69.5939
92.6449
137.053
123.768
135.482
179.003
100.232
250.526
104.236
46.4467
26.5703
14.7467
7.38418
2.12683
2243.08
1337.07
591.6
-778.668
60.3669
112.971
167.213
160.379
153.502
144.265
136.15
129.61
124.219
120.714
119.256
116.697
112.372
118.347
111.067
108.131
121.681
138.483
107.583
88.2258
90.9983
86.0544
77.3998
78.214
75.2574
77.9814
70.552
69.0577
88.5441
148.029
118.893
132.77
178.634
99.6194
256.853
99.809
43.577
26.4864
14.7545
7.2127
2.04265
1201.99
1568.25
-59.7984
-1026.51
180.451
124.652
174.84
167.705
154.996
143.662
135.979
130.34
124.828
120.666
118.559
116.517
112.779
121.102
110.002
147.463
166.004
143.408
113.899
79.9158
73.9475
70.4089
71.7758
80.0758
74.7439
77.3313
69.0382
66.53
76.7971
177.019
104.562
127.498
185.608
95.8102
274.887
77.4777
34.398
24.5561
13.8189
6.83133
1.99298
2297.39
2197.19
-276.194
-1481.77
386.629
133.618
196.43
190.167
153.793
142.199
135.529
129.64
123.663
119.3
117.16
115.75
113.959
126.528
112.665
145.582
168.945
167.988
131.518
75.503
72.375
68.2895
75.8658
80.9853
78.0005
79.5797
64.0587
61.7219
48.5811
239.632
105.307
122.208
192.294
95.6245
287.335
35.5236
20.1288
22.1027
12.7341
6.40909
1.90939
2703.37
2461.17
-638.281
-1708.78
595.135
182.509
219.986
215.646
150.39
138.857
135.106
130.028
123.515
118.992
115.227
113.88
113.699
135.105
108.614
99.7982
167.217
154.774
168.487
60.1858
66.8504
64.2822
77.3437
84.5476
77.9465
77.7096
58.9903
57.9361
-11.3304
385.169
240.932
270.539
252.14
104.969
280.82
-19.6094
5.98247
18.6326
12.0785
6.34025
1.96901
2793.78
2176.75
1860.45
5983.58
488.668
290.244
235.739
243.035
132.892
133.916
133.728
130.464
123.206
118.994
118.178
113.448
109.966
150.407
62.055
102.834
173.415
153.739
184.676
178.576
65.8595
58.8486
76.2007
90.2081
90.2381
81.358
53.7216
58.0255
-63.9565
706.355
328.721
531.032
557.651
267.572
306.365
-55.0392
4.17676
15.8776
11.2308
6.67291
2.10054
3339.71
1889.97
4336.75
4388.44
438.986
338.469
259.757
256.346
127.252
132.194
133.401
130.696
123.108
119.05
117.088
111.46
110.03
411.359
145.697
151.862
157.965
155.14
211.292
277.988
63.1079
63.7468
76.4063
90.9056
93.1126
86.3507
51.703
59.9361
-86.0507
1069.09
428.317
632.932
730.782
336.722
308.017
-68.0486
0.287255
14.714
10.9367
6.54709
1.92734
4173.84
1943.65
2412.94
4262.66
398.143
355.118
260.385
701.522
171.181
131.181
133.177
130.995
123.044
119.6
115.91
109.497
151.667
57.1132
132.496
151.787
160.443
155.005
251.204
110.068
142.758
60.9669
76.6572
84.2902
94.4402
110.256
47.9281
53.1469
-106.957
1151.89
731.524
713.345
828.451
404.414
252.496
-86.3083
-4.45618
13.4977
10.73
6.54346
1.88446
3406.11
11251.3
4914.83
4669.02
378.914
363.34
151.81
110.726
129.19
137.272
134.843
131.399
123.974
119.174
115.328
108.092
96.5951
64.1847
136.045
136.257
163.2
145.137
120.605
109.429
63.7824
69.6721
77.4706
87.1179
98.7941
113.906
41.7969
47.7405
-142.686
1116.64
945.923
772.321
868.17
516.798
22.0564
-109.75
-10.0321
12.1585
10.5679
6.54038
1.84199
5008.93
1518.25
2840.93
4365.61
374.723
355.389
150.925
117.04
125.157
131
134.622
132.393
123.882
119.116
114.902
107.298
97.0297
66.7701
141.061
150.6
157.7
111.072
115.399
105.283
69.883
60.6223
81.55
91.1864
96.9754
113.261
57.7437
39.4371
-129.784
605.077
997.033
847.834
916.698
624.809
-65.387
-128.65
-16.6882
10.8623
10.4594
6.53908
1.80511
-2121.21
-2277.9
-2317.61
-2436.75
-2212.86
-2131.07
-2273.1
-2324.14
-2423.14
-2493.74
-2128.76
-2268.94
-2318.51
-2371.66
-2371.19
-2114.09
-2270.14
-2315.45
-2334.85
-2290.79
-2084.75
-2272.98
-2316.43
-2322.82
-2259.58
-272.7
-128.427
-627.018
1238.12
386.856
366.647
144.208
131.102
126.917
128.415
129.263
125.175
123.603
119.353
113.943
106.312
98.017
79.9699
124.26
92.7957
103.678
100.309
161.169
105.8
75.1409
64.3691
89.486
94.3298
90.1418
53.7992
38.7094
12.8207
-106.513
340.74
905.862
948.852
951.773
809.039
73.9319
-150.851
-33.4229
6.95695
10.2961
6.67536
1.79525
-2477.44
-2449.18
676.967
1090.45
247.112
219.723
149.523
141.841
127.675
127.15
128.944
125.974
124.19
119.89
113.154
105.148
99.7851
90.4934
109.068
131.907
124.24
114.928
87.0739
88.6989
65.796
45.2542
115.049
95.1829
86.0881
55.3578
27.0647
4.59994
-55.2698
606.236
955.532
951.813
950.76
946.659
320.12
-71.4942
-28.475
6.20991
10.2913
6.85122
1.55296
-2191.56
-1919.57
-72.0964
853.603
134.936
196.305
161.123
147.575
130.184
127.393
128.769
126.568
123.992
119.411
112.458
106.578
102.386
96.2061
106.779
119.03
124.521
120.842
82.094
82.355
44.3579
149.865
123.983
87.8746
71.4689
29.6768
21.831
-2.89754
52.7295
797.276
952.321
951.955
950.178
945.44
660.859
-24.3731
-16.315
7.80637
10.3834
6.33688
0.943094
-1928.92
-1377.09
-268.072
539.87
182.725
184.346
167.948
148.177
131.754
128.218
128.821
126.668
123.955
119.134
111.979
105.703
101.858
96.3104
92.4176
60.4254
99.419
63.8477
55.0303
95.5844
150.458
108.373
84.3547
79.5859
66.0463
25.6427
14.1906
-22.388
8.32787
936.653
951.61
951.852
950.101
944.832
865.884
-23.8273
-10.4617
11.3686
9.9946
6.07353
0.847156
-1918.13
-1597.95
-284.768
475.044
219.6
178.931
159.899
144.521
131.877
129.296
129.752
129.624
141.598
137.011
129.02
122.618
105.458
95.9153
107.628
64.4358
142.139
66.1429
55.2855
68.4993
101.418
165.485
115.54
85.5388
67.2625
27.7508
11.0125
-9.89973
156.822
931.849
952.506
952.03
950.177
942.731
887.088
119.211
3.64372
16.6898
42.6827
37.1598
13.4228
)
;

boundaryField
{
    AirInlet
    {
        type            fixedFluxPressure;
        gradient        nonuniform List<scalar> 5(-1.42883e+07 -1.51594e+08 -5.1226e+08 2.07375e+07 7.65204e+06);
        value           nonuniform List<scalar> 5(2650.9 1823.77 -948.755 3613.49 5085.45);
    }
    WaterInlet
    {
        type            fixedFluxPressure;
        gradient        nonuniform List<scalar> 10(-0.00420679 -10.4592 -5.94259 0.300552 -0.966076 -0.173409 -39.185 -9.20672 -0.697344 -24.7069);
        value           nonuniform List<scalar> 10(930.613 900.659 884.675 880.704 889.045 -2121.21 -2131.07 -2128.76 -2114.09 -2084.75);
    }
    ChannelWall
    {
        type            fixedFluxPressure;
        gradient        uniform 0;
        value           nonuniform List<scalar> 
110
(
889.045
733.105
625.86
515.525
-464.468
-2121.21
-2277.9
-2317.61
-2436.75
-2212.86
-2084.75
-2272.98
-2316.43
-2322.82
-2259.58
-1918.13
-1597.95
-284.768
475.044
219.6
178.931
159.899
144.521
131.877
129.296
129.752
129.624
141.598
137.011
129.02
122.618
105.458
95.9153
107.628
64.4358
142.139
66.1429
55.2855
68.4993
101.418
165.485
115.54
85.5388
67.2625
27.7508
11.0125
-9.89973
156.822
931.849
952.506
952.03
950.177
942.731
887.088
119.211
3.64372
16.6898
42.6827
37.1598
13.4228
930.613
760.02
711.374
831.353
374.456
1648.07
1112.01
244.879
-491.528
63.1724
104.705
165.072
157.619
152.739
143.883
136.368
130.134
125.053
121.499
120.353
117.376
112.386
124.356
111.857
130.047
126.267
137.667
102.012
87.8552
83.8362
77.9294
75.0562
78.6541
76.6767
78.1482
70.2242
69.5939
92.6449
137.053
123.768
135.482
179.003
100.232
250.526
104.236
46.4467
26.5703
14.7467
7.38418
2.12683
)
;
    }
    Outlet
    {
        type            totalPressure;
        rho             rho;
        psi             none;
        gamma           1;
        p0              uniform 0;
        value           uniform 0;
    }
    FrontAndBack
    {
        type            empty;
    }
}


// ************************************************************************* //
