/*--------------------------------*- C++ -*----------------------------------*\
| =========                 |                                                 |
| \\      /  F ield         | OpenFOAM: The Open Source CFD Toolbox           |
|  \\    /   O peration     | Version:  2.3.0                                 |
|   \\  /    A nd           | Web:      www.OpenFOAM.org                      |
|    \\/     M anipulation  |                                                 |
\*---------------------------------------------------------------------------*/
FoamFile
{
    version     2.0;
    format      ascii;
    class       volVectorField;
    location    "0.028";
    object      U;
}
// * * * * * * * * * * * * * * * * * * * * * * * * * * * * * * * * * * * * * //

dimensions      [0 1 -1 0 0 0 0];

internalField   nonuniform List<vector> 
725
(
(0.214642 0.0262743 -1.53283e-30)
(0.199514 0.010045 1.55679e-31)
(0.106068 0.00963669 -2.31795e-31)
(0.135761 0.0216399 0)
(-0.228232 0.0486043 2.29622e-30)
(0.375339 0.054145 -7.21559e-30)
(0.414298 0.0422427 2.52296e-31)
(0.29684 0.0402164 -3.29445e-30)
(0.371116 0.107546 0)
(-0.275098 0.157867 1.85242e-29)
(0.412734 0.0388719 -3.59135e-30)
(0.478511 0.0544473 -1.08286e-30)
(0.383857 0.0620783 -8.3851e-30)
(0.486916 0.158834 0)
(0.0881937 0.255169 2.28276e-29)
(0.37306 0.0172363 3.44768e-30)
(0.408996 0.0508867 -2.53359e-30)
(0.330416 0.062491 -1.4558e-29)
(0.44106 0.157155 0)
(0.204358 0.399647 1.1431e-28)
(0.209903 0.0105043 5.12292e-30)
(0.19381 0.0328223 -1.90544e-30)
(0.157397 0.0349922 -5.07185e-30)
(0.278574 0.0906216 -1.39673e-29)
(0.416093 0.380224 9.36883e-29)
(-0.1765 -0.0840676 0)
(0.622559 -0.224115 0)
(1.01038 -0.0162502 0)
(0.421867 0.128089 0)
(0.0384092 0.0301273 0)
(-0.0386269 -0.00312633 0)
(-0.00083558 -0.0150985 0)
(0.0634663 -0.00411448 0)
(0.0619749 -0.000238777 0)
(0.0587135 -0.000121323 0)
(0.0559234 8.00009e-05 0)
(0.0533462 0.00012766 0)
(0.0519897 0.000115551 0)
(0.0540545 -0.000365256 0)
(0.0630204 -0.00110556 0)
(0.0653025 0.000397581 0)
(0.057648 0.000549035 0)
(0.0729167 -0.00035815 0)
(0.0503324 0.00709044 0)
(0.0473073 -0.0114212 0)
(0.081403 -0.00370333 0)
(0.095384 0.00208601 0)
(0.0673806 0.00770489 0)
(0.0361462 0.00143534 0)
(0.0405859 -0.000880086 0)
(0.0382792 -0.00019842 0)
(0.032229 0.000875342 0)
(0.0351754 -0.00118017 0)
(0.0433293 -0.000525766 0)
(0.0521294 -0.00108842 0)
(0.0431074 0.00278851 0)
(0.0136612 0.00355372 0)
(0.00667778 0.00191657 0)
(-0.0038626 0.000461156 0)
(-0.00873034 -0.000884502 0)
(0.0152582 -0.00164465 0)
(0.0325805 -0.00245274 0)
(0.0199982 0.00240262 0)
(0.079368 -0.0163781 0)
(0.138254 0.00227356 0)
(0.0996252 0.00530693 0)
(0.0692461 0.00200884 0)
(0.0579531 0.000885948 0)
(0.0534251 0.000376172 0)
(0.0513597 0.000113684 0)
(0.246726 -0.338598 0)
(0.772179 -0.313339 0)
(0.480749 0.116269 0)
(0.2996 0.352163 0)
(0.209978 0.100097 0)
(0.117393 0.0282656 0)
(0.0954938 -0.0406849 0)
(0.16369 -0.0161678 0)
(0.166687 0.00104537 0)
(0.158553 0.00255617 0)
(0.150234 0.00268947 0)
(0.143108 0.0016707 0)
(0.140056 -0.000139113 0)
(0.144913 -0.00413058 0)
(0.162308 -0.0060545 0)
(0.166865 0.00202245 0)
(0.151966 0.00105232 0)
(0.179649 -0.00732181 0)
(0.213245 0.0118323 0)
(0.194946 -0.00486276 0)
(0.160112 -0.0153771 0)
(0.187236 -0.00369548 0)
(0.163452 0.0304028 0)
(0.118241 0.00850161 0)
(0.122046 -0.0019541 0)
(0.10794 0.00505227 0)
(0.0921454 0.00201775 0)
(0.101082 -0.00666951 0)
(0.116882 -0.00457001 0)
(0.132513 -0.00291264 0)
(0.115452 0.0163542 0)
(0.0660419 0.0166762 0)
(0.0555072 0.00583943 0)
(0.0424969 0.00412813 0)
(0.0321854 -0.00721324 0)
(0.0638157 -0.012963 0)
(0.0974929 -0.0155708 0)
(0.0939372 -0.0013347 0)
(0.202154 -0.0696686 0)
(0.299804 0.00845969 0)
(0.237737 0.0297125 0)
(0.174891 0.0153169 0)
(0.149931 0.00631312 0)
(0.140819 0.00236247 0)
(0.136777 0.00076219 0)
(0.412419 -0.785846 0)
(1.43272 -0.400908 0)
(0.620483 0.23672 0)
(0.168401 0.427978 0)
(0.205212 0.070749 0)
(0.232448 0.0696816 0)
(0.156196 -0.0492814 0)
(0.230711 -0.0242889 0)
(0.246242 0.000165108 0)
(0.239272 0.00577322 0)
(0.227966 0.00712157 0)
(0.217664 0.00446589 0)
(0.212588 -0.000351879 0)
(0.21669 -0.00930844 0)
(0.234999 -0.0127449 0)
(0.240209 0.00428803 0)
(0.217263 0.00255394 0)
(0.233528 -0.0308351 0)
(0.314792 -0.0101194 0)
(0.342189 0.0286302 0)
(0.271203 -0.00533214 0)
(0.256724 -0.00973108 0)
(0.228396 0.0534162 0)
(0.18395 0.014782 0)
(0.191142 -0.00015502 0)
(0.169744 0.016287 0)
(0.144838 0.00435359 0)
(0.154588 -0.0148448 0)
(0.169785 -0.00907801 0)
(0.187353 -0.00692391 0)
(0.174487 0.0330143 0)
(0.11537 0.0347863 0)
(0.0901724 0.0115508 0)
(0.0822115 0.00754823 0)
(0.0710173 -0.0106459 0)
(0.0717827 -0.0237397 0)
(0.112806 -0.0370307 0)
(0.101282 -0.00527465 0)
(0.236309 -0.147557 0)
(0.404055 0.0122022 0)
(0.341043 0.0615119 0)
(0.259014 0.0372543 0)
(0.223908 0.01589 0)
(0.211592 0.00565559 0)
(0.206106 0.00182547 0)
(-0.0894345 -1.21611 0)
(0.525093 -0.0637492 0)
(0.841043 0.480863 0)
(0.164317 0.656211 0)
(0.0884291 0.00146283 0)
(0.243464 0.0924947 0)
(0.141888 -0.0490131 0)
(0.284013 -0.0372102 0)
(0.324444 -0.00558942 0)
(0.308627 0.00941648 0)
(0.289026 0.0130642 0)
(0.276437 0.00832154 0)
(0.269872 0.000662851 0)
(0.270325 -0.0132653 0)
(0.283217 -0.0190519 0)
(0.286186 0.00922672 0)
(0.252335 0.011847 0)
(0.2246 -0.0536583 0)
(0.298286 -0.0540216 0)
(0.380247 0.0378555 0)
(0.331136 0.0224018 0)
(0.338575 -0.00623542 0)
(0.302058 0.082181 0)
(0.205739 0.0228095 0)
(0.227375 0.00225307 0)
(0.212257 0.0305122 0)
(0.178163 0.00994457 0)
(0.188424 -0.0250225 0)
(0.194967 -0.0115832 0)
(0.208982 -0.0139854 0)
(0.211229 0.0498398 0)
(0.143494 0.05862 0)
(0.0839958 0.0225087 0)
(0.106088 0.00788575 0)
(0.14266 0.00999675 0)
(0.086537 -0.027699 0)
(0.10988 -0.0550234 0)
(0.0379426 -0.00809333 0)
(0.182229 -0.267345 0)
(0.448425 -0.00115024 0)
(0.402953 0.089741 0)
(0.317618 0.063596 0)
(0.278499 0.0286821 0)
(0.264511 0.00999568 0)
(0.258506 0.00316216 0)
(1.20309 -0.360378 0)
(0.748723 -1.22428 0)
(1.37353 0.381653 0)
(0.21306 1.04643 0)
(-0.0966137 -0.0531589 0)
(0.124398 0.0901272 0)
(0.135438 -0.0900227 0)
(0.353539 -0.0853364 0)
(0.403478 -0.0123831 0)
(0.356876 0.0199108 0)
(0.324547 0.0226389 0)
(0.313123 0.0126004 0)
(0.307726 0.0030163 0)
(0.305115 -0.0145861 0)
(0.306864 -0.0228364 0)
(0.306135 0.0187539 0)
(0.271487 0.0407114 0)
(0.217809 -0.0564925 0)
(0.244571 -0.0829058 0)
(0.319302 0.0155856 0)
(0.338434 0.0226739 0)
(0.326036 -0.0352848 0)
(0.277535 0.127749 0)
(0.154268 0.0552652 0)
(0.226649 -0.0111285 0)
(0.232776 0.0440221 0)
(0.201585 0.0167574 0)
(0.201716 -0.0326702 0)
(0.181846 -0.00555581 0)
(0.181541 -0.0262326 0)
(0.215252 0.0645851 0)
(0.146399 0.0912472 0)
(0.0329585 0.0475676 0)
(0.110226 -0.053529 0)
(0.311613 0.00904976 0)
(0.271019 0.00804881 0)
(0.2254 -0.0371346 0)
(-0.035899 0.0017913 0)
(0.124345 -0.405332 0)
(0.445819 -0.0292582 0)
(0.4122 0.106328 0)
(0.342915 0.0877441 0)
(0.31006 0.0423671 0)
(0.297968 0.0146094 0)
(0.293168 0.00446262 0)
(0.582125 -0.790573 0)
(-1.75333 -0.869917 0)
(-0.884655 0.581953 0)
(-0.38718 1.2344 0)
(0.233479 -0.0903406 0)
(-0.0126491 0.0790002 0)
(0.137761 -0.142822 0)
(0.30723 -0.122456 0)
(0.380204 -0.0107709 0)
(0.350584 0.0305327 0)
(0.325305 0.0283772 0)
(0.319255 0.0141753 0)
(0.316326 0.00427085 0)
(0.312393 -0.013397 0)
(0.305442 -0.0218627 0)
(0.302108 0.0216685 0)
(0.293212 0.0494749 0)
(0.29608 -0.0587231 0)
(0.302968 -0.0828311 0)
(0.303519 -0.000403948 0)
(0.312772 0.0355541 0)
(0.15998 -0.0125148 0)
(0.0925717 0.149765 0)
(0.127634 0.0470701 0)
(0.242545 -0.0286299 0)
(0.237172 0.0484316 0)
(0.216875 0.0202266 0)
(0.198176 -0.0245596 0)
(0.15638 0.000963936 0)
(0.134075 -0.0328349 0)
(0.189268 0.0678923 0)
(0.144909 0.111791 0)
(-0.000276533 0.0623431 0)
(0.168473 -0.126087 0)
(0.472632 0.00378536 0)
(0.203053 0.0116895 0)
(0.31347 0.000975323 0)
(-0.180752 0.0484523 0)
(0.0960498 -0.486499 0)
(0.431533 -0.0494646 0)
(0.385685 0.113107 0)
(0.336243 0.0983393 0)
(0.313783 0.0476779 0)
(0.305679 0.0163206 0)
(0.302584 0.0049362 0)
(1.39963 -0.699685 0)
(-2.73081 -0.619515 0)
(-2.14611 0.513939 0)
(-0.534531 1.15177 0)
(0.458945 -0.106593 0)
(-0.0530399 0.0865946 0)
(0.139989 -0.159068 0)
(0.263508 -0.134477 0)
(0.356073 -0.0133372 0)
(0.344675 0.0327686 0)
(0.323926 0.0298348 0)
(0.320025 0.0145283 0)
(0.31806 0.00464184 0)
(0.313749 -0.0127732 0)
(0.303788 -0.0212876 0)
(0.300192 0.0219885 0)
(0.303565 0.0498351 0)
(0.320336 -0.0615214 0)
(0.316029 -0.0795531 0)
(0.260644 0.00224493 0)
(0.259633 0.0411634 0)
(0.110393 0.000149267 0)
(0.000784908 0.151983 0)
(0.122442 0.034556 0)
(0.249992 -0.0336654 0)
(0.239724 0.0497937 0)
(0.226129 0.0214774 0)
(0.21373 -0.0209062 0)
(0.165684 0.00416944 0)
(0.111981 -0.034165 0)
(0.168833 0.0673665 0)
(0.143901 0.119596 0)
(-0.00576304 0.063641 0)
(0.287255 -0.178126 0)
(0.88521 0.0279665 0)
(0.195422 0.0149714 0)
(0.23796 0.0196722 0)
(-0.226669 0.0558169 0)
(0.167896 -0.525034 0)
(0.429954 -0.0580301 0)
(0.370924 0.116505 0)
(0.330408 0.101565 0)
(0.313368 0.0490667 0)
(0.307367 0.0168037 0)
(0.304971 0.00507538 0)
(2.46205 -0.693354 0)
(-0.645303 -0.305794 0)
(-1.5359 0.363263 0)
(-0.315728 0.985368 0)
(0.530184 -0.110588 0)
(-0.0603545 0.0995483 0)
(0.158735 -0.17184 0)
(0.20662 -0.144471 0)
(0.317813 -0.0194533 0)
(0.336638 0.0337991 0)
(0.321368 0.030866 0)
(0.319518 0.0147143 0)
(0.318396 0.00496547 0)
(0.313874 -0.0119914 0)
(0.301225 -0.0205006 0)
(0.297205 0.0216752 0)
(0.30998 0.0495125 0)
(0.297734 -0.0624827 0)
(0.282809 -0.077095 0)
(0.287791 0.00724536 0)
(0.278347 0.0469089 0)
(0.087953 0.0162166 0)
(-0.0406325 0.152292 0)
(0.153784 0.0158732 0)
(0.256344 -0.0372619 0)
(0.241916 0.050844 0)
(0.237463 0.022433 0)
(0.230138 -0.0176771 0)
(0.177373 0.0103904 0)
(0.0841347 -0.0336094 0)
(0.135149 0.0653518 0)
(0.148946 0.126363 0)
(-0.0344948 0.0647928 0)
(0.241936 -0.256907 0)
(1.21188 0.055501 0)
(0.343354 0.0506769 0)
(0.052814 0.0519003 0)
(-0.146314 0.0505968 0)
(0.266016 -0.556855 0)
(0.426335 -0.0639908 0)
(0.352519 0.120445 0)
(0.322428 0.104147 0)
(0.31168 0.0500424 0)
(0.30801 0.0171473 0)
(0.306346 0.00518071 0)
(2.4151 -0.766239 0)
(0.00382196 -0.0461651 0)
(-0.110446 0.324778 0)
(0.287009 0.881518 0)
(0.504487 -0.0882539 0)
(-0.0587459 0.111359 0)
(0.208666 -0.183745 0)
(0.22903 -0.151913 0)
(0.314076 -0.0263318 0)
(0.326393 0.0339959 0)
(0.317424 0.0315152 0)
(0.317692 0.0147687 0)
(0.317141 0.0052693 0)
(0.312421 -0.0110758 0)
(0.297916 -0.0195353 0)
(0.29219 0.0209893 0)
(0.312112 0.049356 0)
(0.284695 -0.0597326 0)
(0.260818 -0.0781796 0)
(0.306304 0.00769011 0)
(0.256623 0.0588662 0)
(0.0608553 0.0290479 0)
(0.0364629 0.14715 0)
(0.257673 1.35992e-05 0)
(0.265565 -0.0381088 0)
(0.245833 0.0515109 0)
(0.25099 0.0229303 0)
(0.247099 -0.0146877 0)
(0.192579 0.0187881 0)
(0.0507539 -0.028604 0)
(0.0861269 0.0600315 0)
(0.159411 0.130621 0)
(-0.0171862 0.0692296 0)
(0.183796 -0.335655 0)
(1.22873 0.0387183 0)
(0.560932 0.120517 0)
(-0.0540748 0.07545 0)
(-0.0699517 0.0341264 0)
(0.241151 -0.580338 0)
(0.390269 -0.0676411 0)
(0.329744 0.123974 0)
(0.312639 0.105818 0)
(0.308786 0.0505672 0)
(0.307619 0.0173322 0)
(0.306702 0.00524943 0)
(-2.8171 -1.08075 0)
(-0.397451 -0.163313 0)
(0.355316 0.329651 0)
(0.700759 0.851689 0)
(0.4103 -0.0441803 0)
(-0.0345679 0.117174 0)
(0.247567 -0.196706 0)
(0.234174 -0.157046 0)
(0.303871 -0.0307592 0)
(0.316389 0.0335966 0)
(0.312838 0.0317509 0)
(0.314603 0.0147185 0)
(0.314295 0.00553549 0)
(0.30973 -0.0100736 0)
(0.294185 -0.0184154 0)
(0.286641 0.0202479 0)
(0.308792 0.0492126 0)
(0.280386 -0.0556171 0)
(0.252809 -0.0808692 0)
(0.309903 0.00657015 0)
(0.287033 0.0721614 0)
(0.117809 0.0368712 0)
(0.112235 0.137678 0)
(0.316588 -0.00967978 0)
(0.272007 -0.0356428 0)
(0.245669 0.0519722 0)
(0.261482 0.0223875 0)
(0.264316 -0.0119574 0)
(0.213372 0.0274123 0)
(0.0887344 -0.0206043 0)
(0.100681 0.0530025 0)
(0.175845 0.131657 0)
(0.0797183 0.0721913 0)
(0.198058 -0.391362 0)
(0.928151 -0.000232225 0)
(0.568701 0.207677 0)
(-0.376152 0.105274 0)
(-0.0488779 0.00830002 0)
(0.162604 -0.592415 0)
(0.319811 -0.0723398 0)
(0.302569 0.125415 0)
(0.301488 0.106363 0)
(0.30476 0.0506399 0)
(0.306217 0.0173522 0)
(0.306051 0.00528471 0)
(0.211141 -0.0105318 0)
(0.181781 -0.0282701 7.67504e-33)
(0.155222 -0.0251039 -1.85114e-30)
(0.0312866 -0.00673497 2.54461e-30)
(0.388312 0.0903707 0)
(0.37649 -0.0168478 0)
(0.396213 -0.0442433 0)
(0.368323 -0.044793 0)
(0.32869 -0.0867404 5.37149e-30)
(0.581805 0.0762463 0)
(0.417444 -0.0382382 0)
(0.467493 -0.0484602 0)
(0.435239 -0.045874 0)
(0.398051 -0.0968736 6.91998e-30)
(0.319168 -0.0752966 0)
(0.380283 -0.0535609 0)
(0.406898 -0.0385693 0)
(0.358364 -0.0260012 0)
(0.316023 -0.0533537 -1.98348e-30)
(0.0963814 -0.0494969 0)
(0.218236 -0.0258914 0)
(0.197625 -0.00966582 0)
(0.153302 -0.00272992 0)
(0.136256 -0.00644654 -5.23831e-31)
(0.000427973 -0.00203859 0)
(-1.7898 -0.284377 0)
(-1.43138 -0.792317 0)
(-0.750048 0.0729227 0)
(0.406292 0.787318 0)
(0.0327686 0.068223 0)
(0.0913632 0.0854073 0)
(0.323006 -0.21753 0)
(0.223972 -0.163454 0)
(0.257146 -0.0377637 0)
(0.285556 0.0302509 0)
(0.298368 0.0309486 0)
(0.302846 0.014676 0)
(0.302153 0.00600861 0)
(0.29913 -0.00712088 0)
(0.2824 -0.0146762 0)
(0.270818 0.0186494 0)
(0.293525 0.0483657 0)
(0.279471 -0.0429908 0)
(0.241712 -0.0896515 0)
(0.303793 -0.00617169 0)
(0.349902 0.0931054 0)
(0.28572 0.0459769 0)
(0.336249 0.11449 0)
(0.426884 -0.00971123 0)
(0.282455 -0.0172442 0)
(0.236622 0.0536927 0)
(0.287184 0.0120744 0)
(0.311103 -0.00552461 0)
(0.284313 0.0446658 0)
(0.253095 0.000794907 0)
(0.217733 0.043485 0)
(0.241801 0.122053 0)
(0.286256 0.0462232 0)
(0.256553 -0.335669 0)
(-0.658256 0.0535416 0)
(0.25637 0.396307 0)
(-1.24124 0.200235 0)
(0.17222 -0.15494 0)
(0.0122571 -0.588971 0)
(0.110907 -0.0904562 0)
(0.219048 0.116387 0)
(0.267114 0.103208 0)
(0.290696 0.0496168 0)
(0.299604 0.01693 0)
(0.301483 0.00530393 0)
(0.724684 0.428513 0)
(0.237193 -0.526162 0)
(-0.806466 -0.21548 0)
(-0.137407 0.521077 0)
(0.0776761 0.0792303 0)
(0.290116 -0.0200207 0)
(0.395354 -0.210889 0)
(0.232811 -0.144926 0)
(0.206661 -0.0409241 0)
(0.230196 0.0153843 0)
(0.251419 0.0231081 0)
(0.261713 0.0141818 0)
(0.264458 0.00599027 0)
(0.264637 -0.00335243 0)
(0.251969 -0.00807365 0)
(0.24298 0.0174126 0)
(0.267352 0.039027 0)
(0.278721 -0.0269726 0)
(0.231937 -0.0925649 0)
(0.227409 -0.0336895 0)
(0.291726 0.0908737 0)
(0.252927 0.0364946 0)
(0.359861 0.0732079 0)
(0.432443 0.0259481 0)
(0.316979 0.0282919 0)
(0.301063 0.0418212 0)
(0.358348 -0.00916428 0)
(0.357107 -0.00294567 0)
(0.349611 0.0374014 0)
(0.368602 -0.000200398 0)
(0.359586 0.0595093 0)
(0.334012 0.118841 0)
(0.33532 0.00718015 0)
(0.555655 0.0472371 0)
(0.785857 -0.236503 0)
(0.490062 0.495905 0)
(-0.395072 0.444917 0)
(-0.536583 -0.595994 0)
(-0.0708384 -0.649656 0)
(-0.0217483 -0.152894 0)
(0.124949 0.0669038 0)
(0.208874 0.0775416 0)
(0.253365 0.0393633 0)
(0.270043 0.0131124 0)
(0.273508 0.00486363 0)
(0.793911 0.181465 0)
(0.601667 -0.159902 0)
(0.0140721 -0.00571536 0)
(0.0788599 0.332714 0)
(0.359468 -0.0247046 0)
(0.461741 -0.0754072 0)
(0.415464 -0.164616 0)
(0.219582 -0.0995864 0)
(0.160904 -0.0262449 0)
(0.170533 0.00770714 0)
(0.189786 0.0144494 0)
(0.203286 0.0108082 0)
(0.209756 0.00415251 0)
(0.212723 -0.00187913 0)
(0.203538 -0.00410322 0)
(0.201079 0.0137852 0)
(0.229417 0.026124 0)
(0.245159 -0.0128659 0)
(0.176744 -0.0745668 0)
(0.110235 -0.0392052 0)
(0.175915 0.0768491 0)
(0.20797 0.0192249 0)
(0.294828 0.004525 0)
(0.359942 0.0367429 0)
(0.315144 0.0468303 0)
(0.334735 0.0209019 0)
(0.36132 -0.00535889 0)
(0.346257 0.00510087 0)
(0.35466 0.0272153 0)
(0.36226 -0.00247676 0)
(0.37583 0.0614338 0)
(0.389267 0.120556 0)
(0.424082 -0.0913095 0)
(0.440402 -0.208048 0)
(0.714162 0.169637 0)
(0.601362 0.562146 0)
(0.655751 0.571697 0)
(0.198471 -0.196025 0)
(0.194184 -0.829247 0)
(-0.0156039 -0.18091 0)
(0.0789418 0.0139507 0)
(0.155694 0.0443128 0)
(0.203524 0.0247881 0)
(0.22163 0.00789189 0)
(0.224991 0.0045196 0)
(0.173945 0.0943331 0)
(0.121707 -0.0112332 0)
(-0.0746386 -0.0193175 0)
(0.321573 0.172115 0)
(0.559724 -0.029133 0)
(0.49858 -0.0537763 0)
(0.34321 -0.0871253 0)
(0.154704 -0.0444256 0)
(0.102111 -0.0102897 0)
(0.105486 0.00273152 0)
(0.119499 0.00671019 0)
(0.13279 0.00672038 0)
(0.140257 0.000731332 0)
(0.143428 -0.00181804 0)
(0.13627 -0.00204266 0)
(0.139037 0.00777921 0)
(0.167186 0.0138664 0)
(0.186705 0.00309281 0)
(0.128915 -0.0426895 0)
(0.0225495 -0.0321154 0)
(0.0804169 0.0468418 0)
(0.156099 0.00348306 0)
(0.13227 -0.0150116 0)
(0.163003 0.035992 0)
(0.224127 0.0250183 0)
(0.266118 0.0162055 0)
(0.257059 -0.00308064 0)
(0.256785 0.00183343 0)
(0.28455 0.013323 0)
(0.292582 0.0045444 0)
(0.324226 0.0459532 0)
(0.372208 0.102515 0)
(0.42783 -0.0419177 0)
(0.108502 -0.458012 0)
(-0.221239 0.0618694 0)
(0.383851 0.401244 0)
(1.18594 0.443638 0)
(1.35739 0.0725595 0)
(0.275794 -0.626913 0)
(0.033919 -0.159139 0)
(0.0494299 -0.0115418 0)
(0.101797 0.0160455 0)
(0.139456 0.0118815 0)
(0.152107 0.00298251 0)
(0.156128 0.0051934 0)
(0.0691698 0.0465856 0)
(0.284047 0.0175885 0)
(0.174658 -0.0494551 0)
(0.195894 0.017035 0)
(0.307932 -0.0170689 0)
(0.247958 -0.00889609 0)
(0.151615 -0.0145166 0)
(0.0578832 -0.00448867 0)
(0.0380838 -0.00147038 0)
(0.0376516 -0.000140945 0)
(0.0436707 0.000898315 0)
(0.0536342 0.00164093 0)
(0.0585415 -0.000808457 0)
(0.0568012 -0.000614751 0)
(0.0509852 -0.000642603 0)
(0.0534013 0.00117006 0)
(0.0700871 0.00232456 0)
(0.0957772 0.00527108 0)
(0.0758799 -0.00853102 0)
(-0.0219751 -0.00950242 0)
(0.00267542 0.0100779 0)
(0.0717339 -0.000113758 0)
(0.031406 -0.000392799 0)
(0.0506592 0.00639696 0)
(0.0932958 -0.00381308 0)
(0.118204 0.0113111 0)
(0.130624 -0.00290331 0)
(0.123786 -0.00242746 0)
(0.133675 0.00247193 0)
(0.135178 -0.00100758 0)
(0.16516 0.0125912 0)
(0.282009 0.0437844 0)
(0.39569 0.0788192 0)
(0.348745 0.0748473 0)
(-0.221161 -0.0197727 0)
(0.169622 0.0671408 0)
(0.865428 0.0841271 0)
(1.55542 0.0190326 0)
(0.499688 -0.199136 0)
(0.0751024 -0.0640292 0)
(0.0213597 -0.00511916 0)
(0.0320613 0.00110877 0)
(0.0510953 0.00248801 0)
(0.0582051 -4.38375e-05 0)
(0.06963 0.00248983 0)
)
;

boundaryField
{
    AirInlet
    {
        type            fixedValue;
        value           uniform (0.08 0 0);
    }
    WaterInlet
    {
        type            fixedValue;
        value           uniform (0.4 0 0);
    }
    ChannelWall
    {
        type            fixedValue;
        value           uniform (0 0 0);
    }
    Outlet
    {
        type            pressureInletOutletVelocity;
        value           nonuniform List<vector> 
15
(
(0.0513597 0.000113684 0)
(0.136777 0.00076219 0)
(0.206106 0.00182547 0)
(0.258506 0.00316216 0)
(0.293168 0.00446262 0)
(0.302584 0.0049362 0)
(0.304971 0.00507538 0)
(0.306346 0.00518071 0)
(0.306702 0.00524943 0)
(0.306051 0.00528471 0)
(0.301483 0.00530393 0)
(0.273508 0.00486363 0)
(0.224991 0.0045196 0)
(0.156128 0.0051934 0)
(0.06963 0.00248983 0)
)
;
    }
    FrontAndBack
    {
        type            empty;
    }
}


// ************************************************************************* //
