/*--------------------------------*- C++ -*----------------------------------*\
| =========                 |                                                 |
| \\      /  F ield         | OpenFOAM: The Open Source CFD Toolbox           |
|  \\    /   O peration     | Version:  2.3.0                                 |
|   \\  /    A nd           | Web:      www.OpenFOAM.org                      |
|    \\/     M anipulation  |                                                 |
\*---------------------------------------------------------------------------*/
FoamFile
{
    version     2.0;
    format      ascii;
    class       volScalarField;
    location    "7e-06";
    object      alpha.fuel;
}
// * * * * * * * * * * * * * * * * * * * * * * * * * * * * * * * * * * * * * //

dimensions      [0 0 0 0 0 0 0];

internalField   nonuniform List<scalar> 
7500
(
1
1
1
1
1
1
1
1
1
1
1
1
1
1
1
1
1
1
1
1
1
1
1
1
1
1
1
1
1
1
1
1
1
1
1
1
1
1
1
1
1
1
1
1
1
1
1
1
1
1
1
1
1
1
1
1
1
1
1
1
1
1
1
1
1
1
1
0.97212462
0.27421587
2.9094022e-08
1.6041125e-08
7.6483397e-09
3.0199325e-09
9.3585898e-10
2.2460357e-10
1
1
1
1
1
1
1
1
1
1
1
1
1
1
1
1
1
1
1
1
1
1
1
1
1
1
1
1
1
1
1
1
1
1
1
1
1
1
1
1
1
1
1
1
1
1
1
1
1
1
1
1
1
1
1
1
1
1
1
1
1
1
1
1
1
1
1
1
0.75258239
0.079116083
8.0225391e-09
4.3020701e-09
1.8515126e-09
6.0907295e-10
1.5245567e-10
1
1
1
1
1
1
1
1
1
1
1
1
1
1
1
1
1
1
1
1
1
1
1
1
1
1
1
1
1
1
1
1
1
1
1
1
1
1
1
1
1
1
1
1
1
1
1
1
1
1
1
1
1
1
1
1
1
1
1
1
1
1
1
1
1
1
1
1
1
0.45942759
0.0029196446
3.0128167e-09
1.396107e-09
4.7001985e-10
1.1900485e-10
1
1
1
1
1
1
1
1
1
1
1
1
1
1
1
1
1
1
1
1
1
1
1
1
1
1
1
1
1
1
1
1
1
1
1
1
1
1
1
1
1
1
1
1
1
1
1
1
1
1
1
1
1
1
1
1
1
1
0.99999999
0.99999999
0.99999999
0.99999999
0.99999999
0.99999999
0.99999999
0.99999999
0.99999999
1
1
0.83130977
0.094032499
2.5096349e-09
1.1731339e-09
4.0784273e-10
1.0502455e-10
1
1
1
1
1
1
1
1
1
1
1
1
1
1
1
1
1
1
1
1
1
1
1
1
1
1
1
1
1
1
1
1
1
1
1
1
1
1
1
1
1
1
1
1
1
1
1
1
1
1
1
1
1
1
1
1
1
0.99999999
0.99999999
0.99999999
0.99999999
0.99999999
0.99999999
0.99999999
0.99999999
0.99999999
0.99999999
0.99999999
1
1
0.27091702
2.5783248e-09
1.2173316e-09
4.2209796e-10
1.0836718e-10
1
1
1
1
1
1
1
1
1
1
1
1
1
1
1
1
1
1
1
1
1
1
1
1
1
1
1
1
1
1
1
1
1
1
1
1
1
1
1
1
1
1
1
1
1
1
1
1
1
1
1
1
1
1
1
1
1
0.99999999
0.99999999
0.99999999
0.99999999
0.99999999
0.99999999
0.99999998
1
1
1
1
1
1
0.67801779
0.01716916
1.4800478e-09
5.0031302e-10
1.2287196e-10
1
1
1
1
1
1
1
1
1
1
1
1
1
1
1
1
1
1
1
1
1
1
1
1
1
1
1
1
1
1
1
1
1
1
1
1
1
1
1
1
1
1
1
1
1
1
1
1
1
1
1
1
1
1
1
1
0.99999999
0.99999999
0.99999999
0.99999999
0.99999999
1
1
0.99999966
0.99999884
0.99999912
1
1
1
1
1
0.449061
0.00043855244
6.6814807e-10
1.2121262e-10
1
1
1
1
1
1
1
1
1
1
1
1
1
1
1
1
1
1
1
1
1
1
1
1
1
1
1
1
1
1
1
1
1
1
1
1
1
1
1
1
1
1
1
1
1
1
1
1
1
1
1
1
1
1
1
1
1
1
1
1
1
1
1
1
0.99995418
0.99987873
0.99993235
1
1
1
1
0.66155408
0.0013965119
5.7705333e-10
1.0189462e-10
1
1
1
1
1
1
1
1
1
1
1
1
1
1
1
1
1
1
1
1
1
1
1
1
1
1
1
1
1
1
1
1
1
1
1
1
1
1
1
1
1
1
1
1
1
1
1
1
1
1
1
1
1
1
1
1
1
1
1
1
1
1
1
1
1
1
1
0.99999998
0.99999999
1
0.88512581
0.2011551
1.092317e-09
3.3550869e-10
7.3410053e-11
1
1
1
1
1
1
1
1
1
1
1
1
1
1
1
1
1
1
1
1
1
1
1
1
1
1
1
1
1
1
1
1
1
1
1
1
1
1
1
1
1
1
1
1
1
1
1
1
1
1
1
1
1
1
1
1
1
1
1
0.9755929
0.85410414
0.7731505
0.75231104
0.67660925
0.66315231
0.78465139
0.97227627
1
1
0.90018133
0.21307037
1.2688374e-09
6.4801418e-10
2.0103172e-10
4.1463591e-11
1
1
1
1
1
1
1
1
1
1
1
1
1
1
1
1
1
1
1
1
1
1
1
1
1
1
1
1
1
1
1
1
1
1
1
1
1
1
1
1
1
1
1
1
1
1
1
1
1
1
1
0.99285452
0.95649429
0.92701361
0.92750056
0.92393382
0.90549321
0.87415708
0.77436716
0.38140167
0.017229322
2.5725271e-09
2.2858448e-09
2.2858516e-09
2.2858536e-09
2.2858535e-09
0.31496631
0.94237966
1
0.6754654
0.0089934163
8.5777147e-10
4.0736675e-10
1.182436e-10
2.3805969e-11
1
1
1
1
1
1
1
1
1
1
1
1
1
1
1
1
1
1
1
1
1
1
1
1
1
1
1
1
1
1
1
1
1
1
1
1
1
1
1
1
1
1
0.99737959
0.98709112
0.95092062
0.871478
0.7443252
0.62715966
0.53513683
0.50658097
0.47544544
0.33789532
0.11640816
0.045484636
0.053376261
0.054847532
0.012529534
2.5250282e-09
2.2858509e-09
2.285851e-09
2.2858535e-09
3.6295752e-09
2.3150369e-09
1.7348652e-06
8.1744481e-07
2.2859173e-09
0.01962232
0.74890154
1
0.56723497
1.2184264e-09
6.4618028e-10
2.6008829e-10
7.1103538e-11
1.3996165e-11
1
1
1
1
1
1
1
1
1
1
1
1
1
1
1
1
1
1
1
1
1
1
1
1
1
1
1
1
1
1
1
1
1
1
0.98191795
0.94548858
0.911678
0.83169842
0.70162444
0.57867419
0.47577589
0.3695007
0.29923942
0.22514051
0.091421621
3.5270326e-09
2.7641547e-09
2.7641547e-09
2.7641547e-09
2.7641547e-09
2.7641546e-09
2.7641546e-09
2.7641547e-09
2.764155e-09
2.7641551e-09
2.7641552e-09
2.7641561e-09
3.0317508e-09
3.8596035e-08
4.3704697e-08
3.4731112e-08
1.8594161e-08
2.3149828e-09
1.7171502e-05
6.1964634e-06
2.3341483e-09
2.3370267e-09
0.48853731
0.85694908
0.49745836
0.0055341149
4.6473699e-10
1.6948515e-10
4.3451385e-11
8.3207885e-12
1
1
1
1
1
1
1
1
1
1
1
1
1
1
1
1
1
1
1
1
1
1
1
1
1
1
1
1
0.98264538
0.9298504
0.85385281
0.69872459
0.50751371
0.36104289
0.19845793
0.089279879
0.0064966464
3.7358192e-09
3.6297898e-09
3.6297898e-09
3.6297898e-09
3.6297898e-09
3.6297898e-09
3.6297898e-09
3.6297899e-09
4.1083436e-09
5.1960299e-09
5.397802e-09
5.7587587e-09
6.4752873e-09
6.124272e-09
6.632369e-09
8.026093e-09
8.7743738e-09
9.4485951e-09
1.0108566e-08
1.023655e-08
3.0721363e-09
1.4159069e-06
6.0352423e-07
2.076949e-07
2.3807365e-07
7.4371366e-09
2.289893e-09
2.6137346e-09
0.0043719057
0.013122754
0.019141278
0.026666971
0.018104392
0.0044012675
5.2806347e-10
1.8462511e-10
4.8861484e-11
9.7643061e-12
1
1
1
1
1
1
1
1
1
1
1
1
1
1
1
1
1
1
1
1
1
1
1
0.97845535
0.91199279
0.76217691
0.56964689
0.4012255
0.22094081
0.038350978
4.0776868e-09
3.6297696e-09
3.6297696e-09
3.6297696e-09
3.6297696e-09
3.6297697e-09
3.6297726e-09
4.2359832e-09
5.2880613e-09
5.7411344e-09
5.7932774e-09
5.6273164e-09
5.4102342e-09
5.8727716e-09
6.3170916e-09
6.4889482e-09
7.7993365e-09
9.3192557e-09
9.3568137e-09
9.6012172e-09
9.0807406e-09
8.8329986e-09
8.8797228e-09
9.0386873e-09
9.7276528e-09
7.9063585e-09
4.3578064e-09
3.8507029e-07
3.3129256e-07
1.2414639e-08
1.2001474e-08
0.00017611267
2.7912176e-09
2.3086104e-09
0.0063036879
0.0047187388
2.783804e-09
2.4375624e-09
2.3960854e-09
2.2594778e-09
0.00039607955
6.8601245e-05
3.8472307e-10
1.1079521e-10
2.2402514e-11
1
1
1
1
1
1
1
1
1
1
1
1
1
1
1
1
1
1
1
0.95409491
0.83861064
0.63318288
0.39876057
0.19890273
5.108155e-09
3.7871722e-09
3.7846865e-09
3.7836817e-09
3.7826835e-09
3.7816922e-09
3.780708e-09
3.7986938e-09
4.7570375e-09
4.7499615e-09
4.2183127e-09
1.6721145e-08
1.8310866e-08
1.3440079e-08
6.7097008e-09
6.2498989e-09
6.2487591e-09
1.0134268e-08
6.6842706e-09
7.330596e-09
9.1163094e-09
6.9210236e-09
7.3229452e-09
1.5736437e-08
1.2312892e-08
1.1272742e-08
1.0708674e-08
9.535886e-09
8.551341e-09
8.8501108e-09
9.3794967e-09
5.6418672e-08
7.198988e-08
4.1066018e-09
6.0875688e-06
0.00016418745
2.1586517e-05
8.5345494e-06
0.0025302978
0.0018600646
2.2979579e-09
0.010359032
0.033119632
0.073437905
0.041380285
2.0124251e-09
1.6721297e-09
8.3633683e-06
7.8975529e-07
3.4999408e-10
1.0375299e-10
1
1
1
1
1
1
1
1
1
1
1
1
1
1
1
1
0.91694786
0.72129501
0.45181404
0.12785905
4.8226941e-09
3.9406621e-09
3.940662e-09
3.9406621e-09
3.9406788e-09
4.4932297e-09
7.7032186e-09
6.6749012e-09
5.1490008e-09
4.3834104e-09
3.5618342e-09
3.5554813e-09
8.1835329e-07
4.8444405e-09
4.0614542e-09
4.501717e-08
3.2897819e-08
1.812431e-08
7.457709e-09
0.0043021777
0.00067867026
2.549626e-06
6.0628812e-09
5.7612612e-09
1.21526e-08
7.3357893e-09
3.8318788e-06
2.5208609e-06
4.8924049e-09
7.4957215e-09
9.5109475e-09
9.4081127e-09
6.443804e-09
4.8093548e-08
1.2067119e-07
2.4179583e-09
9.153338e-07
3.8946164e-06
3.8864341e-09
0.00067873254
0.00042703391
1.8186589e-09
0.0062774513
0.0054552489
1.8808732e-09
0.036472533
0.22033895
0.19678099
0.012122157
1.6245547e-09
1.3879482e-09
1.6192882e-09
6.6324666e-08
4.2192226e-09
2.6965413e-10
1
1
1
1
1
1
1
1
1
1
1
1
1
0.9350121
0.73142148
0.4291035
0.048446266
4.7945587e-09
4.3709987e-09
4.3709988e-09
6.1188005e-09
1.0833246e-08
9.5096514e-09
8.2602924e-09
7.1401628e-09
7.3577569e-09
2.674788e-08
2.0141399e-08
4.8750053e-09
3.6544452e-09
2.4068428e-09
9.0413287e-08
2.1474834e-08
7.9152906e-06
1.0000657e-05
8.1299784e-09
7.6399511e-09
7.0650038e-09
0.014817591
0.023588782
0.015064972
6.2122831e-09
5.6285567e-09
6.2409574e-09
6.7217731e-09
0.00023295701
7.0766983e-05
3.9397811e-09
4.3555825e-09
4.7269311e-09
5.235391e-09
5.1951399e-09
5.5766908e-09
4.2840329e-06
3.9244598e-07
2.3197415e-09
1.9494449e-09
4.9784026e-05
4.8358902e-05
1.7397761e-09
1.5231842e-09
1.7400694e-09
1.2955511e-09
0.00015136273
1.7291469e-09
0.043545132
0.16019279
0.023312534
1.5170139e-09
1.3510718e-09
1.1285712e-09
1.3844842e-09
6.4793349e-10
4.7417747e-10
5.0885714e-11
1
1
1
1
1
1
1
1
1
1
1
0.87250714
0.55466534
0.11377456
4.2784118e-09
3.5095288e-09
3.5095293e-09
6.7590606e-09
1.0531556e-08
1.1482026e-08
1.612091e-08
2.4809889e-08
1.5091487e-08
1.0068088e-08
1.1898549e-08
1.1527407e-08
3.3529579e-08
8.9638276e-08
1.1618265e-07
3.1852135e-09
2.5783369e-09
4.1765775e-09
5.1498651e-08
1.2690038e-05
7.7491648e-08
0.0004973319
0.0075222119
0.019903191
0.028308254
0.01974655
0.0031502996
0.026384633
0.07410029
0.093541532
0.043802651
0.00174992
3.8872109e-09
3.5263132e-09
0.00015892021
0.0034061107
0.0099084552
0.0085435712
0.0030342104
1.3062011e-05
4.8404807e-09
1.4274708e-08
1.0379789e-08
1.7362607e-09
1.7360194e-09
2.4355245e-09
3.2764983e-09
3.1079278e-09
1.7024001e-09
1.4532678e-09
1.7255324e-09
1.5541742e-09
0.18948439
1.3799491e-09
1.0788051e-09
1.110646e-09
8.8484993e-10
9.1995345e-10
4.4069612e-10
1.1035812e-10
1.3485942e-11
1
1
1
1
1
1
1
1
1
0.84666708
0.45049475
0.0051049448
3.1660578e-09
3.1126125e-09
4.0769514e-08
2.6456719e-08
2.7258403e-08
3.1203188e-08
2.5714892e-08
1.3599873e-08
1.4127081e-08
1.7205934e-08
1.1290276e-08
1.1291491e-08
2.1335913e-08
2.2408884e-08
3.5883752e-08
3.6737857e-08
1.0361965e-07
7.2283735e-07
2.7071851e-09
2.1571984e-09
1.8118031e-09
0.00024023557
7.725839e-08
0.0097188665
0.019980182
0.018086239
1.9782418e-05
1.9782137e-05
1.9782161e-05
0.078833349
0.13472698
0.13455408
0.10572552
0.0011482943
3.817351e-09
3.5263092e-09
0.00070166802
0.013518327
0.013797622
0.01385179
0.0089187845
2.6328631e-09
0.00023247514
2.6824647e-09
2.3638449e-09
2.0454207e-09
1.7360195e-09
2.2389207e-09
2.3192027e-09
1.6186735e-09
1.3298446e-09
1.5762686e-08
3.6620298e-06
1.1355018e-06
1.6080764e-09
0.55626194
0.067358246
7.3084187e-10
5.9130679e-10
4.6942764e-10
1.7478244e-10
4.340494e-11
9.0161783e-12
1
1
1
1
1
1
1
0.89306113
0.49710908
0.0013697627
7.2217499e-09
7.2378741e-09
2.2421048e-05
9.296127e-06
6.0223741e-07
3.8899424e-08
3.4721555e-08
3.6433574e-08
2.1232579e-08
1.2337129e-08
1.3071505e-08
4.4797433e-07
5.219675e-07
4.3928335e-07
2.2546559e-08
4.0955806e-08
1.762033e-08
2.6901998e-06
5.3918895e-08
4.3716582e-05
5.9081836e-05
2.0291511e-09
1.8114985e-09
1.8519674e-09
0.002206824
2.9837786e-09
2.9139287e-09
0.00031073607
0.00019622132
2.3289855e-05
0.007202762
3.1168431e-09
2.8333647e-09
2.8333647e-09
2.8333647e-09
0.0029185634
0.00069678376
0.00026040387
1.5706016e-09
1.1901138e-09
1.1901137e-09
1.1901138e-09
9.4001796e-08
2.327597e-09
0.00060561551
0.0051146169
0.01579009
0.015593417
0.0057740903
2.1131218e-09
1.6958354e-09
1.3174986e-09
1.2728072e-09
1.2331022e-09
3.3797643e-05
1.1084067e-05
1.5274446e-09
1.8387647e-09
0.88378051
0.08897477
2.060042e-10
1.6341918e-10
1.1736246e-10
5.3601447e-11
1.6643884e-11
1
1
1
1
1
1
0.73113972
0.10425051
9.8420261e-09
9.0886017e-09
8.9403304e-09
0.00011045935
0.00017076385
6.8085683e-05
2.8346671e-08
2.717103e-08
2.6060347e-08
2.513224e-08
1.8848572e-08
1.3242029e-08
3.2344049e-06
2.7534508e-07
1.7820493e-06
2.395964e-08
2.320845e-08
1.5953205e-08
2.3764115e-09
3.4473252e-05
2.5359154e-05
7.0532531e-08
0.00034815199
0.0015713534
0.0015554502
7.9200707e-07
4.4574008e-09
3.666799e-09
3.5176492e-09
3.5810927e-09
0.0011338499
0.0021102284
0.0015983827
9.8362625e-05
3.2292294e-09
3.0755156e-09
2.8333648e-09
0.0093128049
0.0047195848
2.162731e-09
2.0132424e-09
1.6236492e-09
1.5409262e-09
1.7054555e-09
2.2058115e-09
0.0010483599
2.7986035e-09
0.029439365
0.051340283
0.051340283
0.010427947
1.6749933e-09
1.4256944e-09
1.0332229e-09
1.167998e-09
1.2303001e-09
1.2331008e-09
1.2411694e-09
1.0962097e-08
1.7645459e-09
0.57336117
0.93672169
0.39128308
2.7104933e-10
1.1281472e-10
1.5345862e-10
5.9080397e-11
1
1
1
1
0.97459565
0.47702479
1.2483635e-08
1.0243913e-08
1.8429119e-05
0.00021097878
0.00083861886
0.00082621488
2.7695644e-05
6.6967112e-06
2.8484569e-08
0.007116675
0.0033529406
1.94774e-08
1.8205891e-08
5.0515627e-05
5.0417748e-05
2.3100305e-06
6.0793625e-07
5.6160494e-06
8.3415008e-05
4.2024237e-06
2.9865482e-09
3.7974218e-09
2.1657637e-05
1.6650192e-05
2.0847168e-09
0.00092036661
0.00047711989
0.0014604001
0.01570205
0.015431004
0.0086243003
0.00026787247
2.895067e-09
2.7953299e-09
3.2028794e-09
2.9083161e-09
3.4078538e-09
3.5031461e-09
3.1928943e-09
3.178358e-09
3.3199875e-09
0.010687336
0.034691574
0.028574591
0.0062865378
2.2093181e-09
0.0011475194
0.0045198442
0.0015628946
0.00019582
0.0075872321
0.014969739
0.0079861988
6.0706364e-06
1.0591211e-09
8.4146632e-10
1.0384662e-09
1.1302528e-09
1.3525122e-09
3.9793144e-08
1.0021731e-07
1.7591462e-09
0.043035422
0.96986223
0.97666358
0.72864579
0.013188467
2.7107567e-10
1.0831949e-10
1
1
1
0.9551646
0.27479069
1.6488507e-08
1.4840066e-08
0.00016574977
0.0013778498
0.0013778492
0.0013777549
5.3299011e-09
5.3243887e-09
5.3242585e-09
0.016511869
0.016557458
0.016475226
0.0021002316
1.8468827e-08
0.00014083727
3.4722763e-09
2.8545068e-09
2.8521698e-09
0.00023266645
0.00080354507
3.5459283e-09
0.0030708785
0.012889636
0.00079644806
2.6280195e-09
2.0752766e-09
2.2434189e-09
2.308643e-09
0.014214057
0.020976328
0.020676253
0.020298694
0.0031135304
3.367136e-09
2.7954187e-09
1.5833353e-05
2.9183098e-09
0.013286206
0.0096579756
0.0039282197
3.277808e-09
0.035388878
0.044970695
0.044907551
0.044542083
0.021137669
2.6153102e-09
0.0013911592
0.0026489151
0.0030569965
0.0003653118
0.00054332081
0.0026646959
0.001434858
2.1213592e-05
9.3291339e-10
7.2453273e-10
9.287856e-10
1.0160072e-09
4.4363091e-09
2.6715705e-09
1.7979541e-07
4.3881334e-08
2.4536212e-09
0.35872268
0.85895806
0.41610278
0.0052969172
2.3496804e-10
7.9294575e-11
1
1
0.99025412
0.24827149
1.8563606e-08
1.6555411e-08
0.00075289939
0.0013899874
0.0012684614
0.00014777049
0.00055751269
6.923044e-07
6.5570602e-09
5.3243653e-09
0.0024580001
1.7328594e-08
1.7331988e-08
0.0032228547
0.0042623679
9.140729e-06
6.7845911e-06
3.9417852e-09
2.8164098e-09
2.8163887e-09
2.8163811e-09
0.013972688
0.020073033
0.019799197
0.016555841
0.0026512181
2.1650287e-09
1.5755936e-09
0.004510795
0.00052071503
1.5826102e-09
1.5526789e-09
1.5526789e-09
0.0021829748
0.00051886735
3.269307e-09
3.3431843e-09
0.0011806638
0.021143944
0.020852724
0.0203396
0.0014840706
0.0033974748
0.016386144
2.3785198e-09
2.1968171e-09
2.1939929e-09
9.8024159e-05
8.9373382e-10
8.0033707e-10
9.1454618e-10
4.9066589e-05
8.77919e-05
2.0994022e-09
2.3906341e-09
2.6094853e-06
1.1148752e-09
6.9334039e-10
8.7459611e-10
9.2576314e-10
1.7165936e-09
2.6221566e-09
2.6473904e-08
8.300767e-09
2.4031391e-09
1.1741664e-09
0.031744545
7.612402e-10
0.00015038152
3.1851661e-06
2.2665054e-10
1
1
0.31954419
2.1439603e-08
1.8922093e-08
7.1088587e-07
0.0013169461
7.2318841e-09
7.2303037e-09
8.5574734e-09
7.2442799e-09
2.4221751e-08
2.2881395e-08
1.8585519e-08
1.8894359e-08
1.8275016e-08
1.7617321e-08
0.007584477
0.0075846546
2.2837817e-05
3.5441867e-05
0.0012830427
3.2670196e-05
3.8299778e-09
3.2399227e-09
0.0032873394
0.0016466169
1.3290411e-09
0.021155166
0.02116936
0.0023863508
2.2571207e-09
0.0045617177
0.00071221428
2.0851796e-09
2.171088e-09
1.5527829e-09
0.00019909048
1.5504712e-08
0.0066111171
3.6575329e-09
0.015407283
0.0004431321
2.5765187e-09
2.56083e-09
0.0020854939
3.393688e-09
3.0036455e-09
2.6936467e-09
0.0025646803
0.0007858669
3.0573038e-08
5.2407177e-06
1.1216496e-09
0.0013428513
0.00041620608
1.3670487e-09
1.7878539e-09
2.32267e-09
8.3069918e-10
6.2587257e-10
7.1524935e-10
8.6613156e-10
9.0722252e-10
1.164325e-09
1.312048e-09
1.3133504e-09
2.1059589e-09
1.226301e-09
9.4858209e-10
6.6535702e-10
5.0580752e-10
4.8533005e-10
1.8568733e-07
6.0309701e-09
1
0.63865109
0.022724024
0.00024921746
2.0298138e-08
0.00070105948
8.840574e-09
8.8384274e-09
1.303483e-08
1.8297491e-08
2.669581e-08
2.9946557e-08
2.3189868e-08
2.2708964e-06
0.0025522398
4.4443009e-05
1.5795783e-05
2.0406486e-09
0.00016667282
9.0613426e-08
1.2042489e-08
0.0016081464
6.0287676e-09
0.0063149357
0.00010113763
1.9562397e-09
1.3106533e-09
1.3106522e-09
0.014543354
0.013561731
0.0098551898
3.108246e-09
5.8310342e-07
0.00090383593
0.00043220562
8.8246747e-05
2.1717584e-09
1.5172992e-09
0.0057647089
0.013119024
0.0024012164
0.0010965011
0.0011157775
0.00018532995
7.6779918e-06
0.0019987336
0.00025604516
2.9565736e-09
0.011800024
0.014611457
0.0046523003
6.0154187e-10
3.1459216e-10
0.0020417984
0.003366034
0.0016517555
9.5613842e-10
3.3227692e-09
7.4995518e-09
1.3421769e-09
4.8821638e-10
4.8821632e-10
6.6687106e-10
9.6468914e-10
9.5757602e-10
8.7327127e-10
1.3074501e-09
1.5570642e-09
9.4645497e-10
7.4411366e-10
6.174661e-10
4.4123455e-10
3.4088962e-10
2.4663236e-10
1.9534659e-10
0.96872173
0.078422768
1.2504419e-08
9.2001186e-09
1.3735081e-06
1.1437243e-08
9.8374274e-07
0.0010413104
1.4058572e-08
2.3872253e-08
1.6522997e-08
4.4684631e-08
1.3177717e-07
1.4784436e-09
0.010467793
0.0071328011
0.0023322644
1.7441185e-09
2.5393008e-09
2.6611274e-09
0.004895929
0.0066895724
0.0078899621
0.008047402
0.0026805702
2.9243015e-09
2.7127679e-09
1.3112591e-09
4.1379917e-05
1.2351462e-09
1.2336554e-09
0.00021487404
7.4292326e-09
0.0022142504
0.0021838097
0.00016441425
1.6617e-09
1.4770039e-09
0.010205268
0.0053013683
0.00050441194
0.0031505635
0.0074219996
0.0012208232
3.5208286e-09
0.0081918741
1.0579566e-08
0.0048962239
0.02798342
0.0029102402
7.9644785e-10
6.1584519e-10
3.1459194e-10
0.0040186292
0.0030085097
0.00012669672
6.8102261e-10
4.9192899e-10
2.155188e-09
5.1037154e-11
0.0019601012
0.0065888072
0.0023632988
1.0872883e-09
8.955654e-10
6.5526854e-10
1.059076e-09
1.1950957e-09
7.1115482e-10
5.4278492e-10
4.4363744e-10
3.0181833e-10
1.9690054e-10
1.0626421e-10
1.6262453e-11
0.32055633
1.139683e-08
1.3628362e-08
9.8524452e-09
1.8641055e-05
0.00067087426
0.0030580725
0.0049739447
0.00035539722
1.9135241e-09
4.567747e-09
1.9669036e-09
1.6605369e-09
1.4738782e-09
0.0085492494
2.8118409e-09
3.2029927e-09
0.00075868518
2.5380318e-09
1.166595e-06
0.012377863
0.0038765622
0.0026761952
0.0035878099
0.0016911448
6.4472323e-06
2.8662715e-09
1.959929e-09
1.4387671e-09
1.5470518e-09
1.2341206e-09
6.0283626e-05
4.3146847e-06
1.4303896e-09
1.2861905e-09
1.2622209e-09
1.262216e-09
0.0044192392
2.4290314e-09
2.0981163e-09
0.021686781
0.022101777
0.0053147492
2.9223063e-09
3.062919e-08
1.5988047e-09
0.030663198
0.055418012
0.033858713
1.4329527e-09
1.0453777e-09
8.4130034e-10
5.3776616e-10
3.1462269e-10
3.1462533e-10
3.1451442e-10
3.6428993e-10
2.7361028e-08
3.6984369e-10
4.714765e-10
3.7638103e-11
0.13155262
0.35684431
0.15187691
2.244498e-05
7.1130196e-10
7.9285294e-10
8.3803164e-10
4.8183985e-10
3.4934553e-10
2.621815e-10
1.5899456e-10
8.1756585e-11
2.6030465e-11
2.0889426e-12
0.10223526
7.2772729e-09
0.00041367579
7.6173818e-09
5.6644722e-09
0.0015000833
0.0049639384
0.0049671752
0.0034399557
1.9092568e-09
3.6051878e-09
3.2594826e-09
2.7475491e-09
1.6422444e-09
3.1252297e-09
2.3725972e-09
0.00037575488
0.0012479506
0.00043284847
0.0050692891
0.012280644
0.0018608477
4.1577297e-09
3.3934253e-09
3.3934254e-09
3.4310052e-09
0.0074956096
0.0038159309
3.4056027e-05
2.260759e-09
1.7911169e-09
1.8658822e-09
1.8716811e-09
0.00048505086
2.6841847e-05
1.8206271e-09
1.2622201e-09
0.0011136302
0.00028619585
2.1483776e-09
0.013078948
0.019803632
0.0018868891
2.5274062e-09
5.1751106e-06
1.6005919e-09
0.0087916871
0.055389401
0.023459944
1.7467779e-09
0.0075492643
0.19136123
0.0025920864
6.1004351e-10
6.8679319e-07
1.0805911e-08
1.7349994e-08
4.245253e-08
2.8596869e-09
2.2949069e-09
3.7028785e-11
0.027796006
0.41664606
0.3044127
0.01130559
7.4096697e-10
5.4227512e-10
5.184339e-10
2.9076825e-10
1.9431312e-10
1.2759557e-10
6.4675347e-11
2.4358909e-11
4.4775524e-12
2.5449724e-13
1.5020741e-09
1.602526e-09
0.00061315558
1.522618e-05
2.2453779e-09
2.2454098e-09
2.573651e-09
0.0010384644
4.962268e-09
2.258855e-09
4.7099304e-09
4.6446359e-07
5.0469242e-06
1.4867089e-09
1.4798495e-09
2.430811e-09
6.3604973e-07
2.375759e-09
1.8710767e-07
0.0060985743
3.8946696e-09
6.3056428e-05
3.0797677e-08
4.5289864e-09
4.0698692e-09
3.6039002e-09
0.0088829789
0.0088926524
0.0014541066
2.7278785e-09
2.0212752e-09
1.3637043e-09
0.0022291242
0.00061972136
1.9205215e-09
1.7725776e-09
1.3571757e-09
1.2564475e-09
1.6535687e-09
2.0568632e-09
2.4524255e-09
2.0220634e-09
1.9330533e-09
1.9756851e-09
9.283165e-10
6.9983626e-07
6.6675638e-09
0.0014228793
1.8850889e-10
0.05870785
0.36092959
0.43818227
0.24310341
0.0032956824
1.3671302e-09
6.5790589e-07
7.8112488e-09
1.0270178e-08
2.6409462e-09
2.2914311e-09
1.3743851e-09
1.8091302e-10
0.11770025
0.30058107
0.10841468
5.8044865e-10
3.3421979e-10
2.8011295e-10
1.544305e-10
9.2981847e-11
5.1204809e-11
2.0751925e-11
5.4986321e-12
6.398612e-13
2.9902901e-14
1.3582429e-08
8.926863e-08
8.2867058e-08
0.00016814513
2.2458174e-09
9.0554342e-09
3.5858144e-09
5.1319951e-09
4.5295517e-09
2.8896261e-09
4.9583132e-09
1.8035354e-06
0.00020242836
0.00020136886
4.1167501e-05
0.00026652283
3.2203962e-09
3.1236673e-09
3.3397135e-09
2.8081165e-09
3.0291996e-09
2.8863985e-09
3.094597e-09
0.010880279
0.0041952671
0.0076151531
5.5706129e-05
0.0029170731
0.0031735889
1.4129195e-05
2.0075759e-09
1.3636994e-09
0.0022528628
0.00030262638
1.8162995e-09
9.6501863e-05
1.7034815e-09
1.6079392e-09
0.010568613
0.015186305
0.00026227859
1.5187617e-09
2.5923018e-05
1.2035658e-09
9.2658607e-10
4.6485352e-05
5.6052695e-07
4.0276693e-10
1.684004e-10
0.10689499
0.34560581
0.37540757
0.43818227
0.079263362
1.1433071e-09
6.8536266e-08
4.311505e-09
3.0412454e-09
2.039691e-09
1.7776079e-09
1.5353437e-09
2.0930995e-10
2.468956e-10
0.19422789
0.15503377
0.0013681585
2.7011724e-10
1.3326521e-10
7.2090926e-11
3.8605237e-11
1.7308801e-11
5.4531337e-12
1.0149112e-12
8.5653064e-14
3.6544373e-15
1.2699487e-08
1.5816833e-07
1.0199149e-06
3.6779279e-09
1.0571877e-08
1.1151431e-08
5.1760026e-09
8.4573588e-08
9.2202762e-08
3.5115822e-09
1.7350676e-05
2.3337613e-06
0.00020142391
4.6600955e-05
2.8598283e-09
0.0022408242
0.0010653574
4.0758237e-05
4.0771132e-09
2.8085328e-09
8.4756177e-05
0.011085068
0.011149528
0.011123944
0.010984562
1.4531097e-09
1.8112831e-09
1.8581337e-09
2.293609e-06
0.013859386
0.010904413
0.00022485865
1.8053796e-09
1.4501774e-09
1.4326947e-09
0.00025845046
0.0017087088
0.0094230594
0.02933593
0.02933593
0.0062974686
1.0492638e-09
0.00044458636
0.00042984651
9.4638204e-10
5.9476355e-10
2.7863901e-10
2.7623232e-10
3.36031e-10
1.1983875e-10
1.1961511e-10
1.1961511e-10
0.22053936
0.11611671
9.2032065e-10
6.9305834e-10
1.6039275e-09
1.7261284e-09
1.1996237e-09
1.2043239e-09
1.3994162e-09
3.0770846e-09
3.4661116e-10
1.0963452e-09
0.0088744851
0.00092150964
2.038263e-10
5.6501701e-11
2.9526815e-11
1.4016791e-11
5.0630825e-12
1.2281566e-12
1.6688567e-13
1.1634872e-14
4.8692969e-16
1.3474969e-08
2.196903e-07
2.2312186e-09
4.2943307e-09
6.3623002e-09
8.1747615e-09
1.2053495e-05
6.0554786e-09
6.6658218e-09
1.9605258e-05
1.966172e-05
1.7206357e-09
1.7181828e-09
2.6626871e-09
2.7920521e-09
2.665732e-09
0.0055420149
0.0025336033
3.6987113e-09
2.8085647e-09
0.0094152852
0.0058005611
0.0081723103
4.7950992e-10
4.7906572e-10
1.2376693e-09
0.00027291067
0.00048755365
2.1559969e-09
0.014532495
0.014545521
0.0007942523
1.4613874e-09
0.0011034354
0.001691128
3.0160856e-09
0.0091163811
0.027964471
0.022667693
0.028331645
0.0026832632
6.9518127e-10
6.4157488e-10
0.0039486129
0.011339487
0.0093725247
0.00052852373
0.0014875431
0.00015573548
4.0996317e-05
5.1024589e-10
1.6391568e-10
1.1961508e-10
0.06475026
1.1862233e-09
7.9215925e-07
6.1011521e-10
8.7674853e-10
7.5533103e-10
9.2351803e-10
6.492505e-08
7.7083012e-09
2.3630959e-09
8.5319832e-10
7.1521564e-10
6.468328e-05
1.0814883e-06
1.3647264e-10
1.0608785e-11
4.4749592e-12
1.3144273e-12
2.4902416e-13
2.6513232e-14
1.6741796e-15
7.0063731e-17
4.8424107e-09
3.1589977e-07
3.5926357e-09
7.8116305e-05
0.0001070364
8.8598397e-05
8.797031e-05
3.6930925e-05
3.6688801e-05
1.1222954e-05
2.6266856e-06
3.2638004e-09
7.464669e-08
3.5427265e-09
3.6585658e-09
2.665735e-09
0.0038410222
0.00024029542
4.3439562e-09
3.5968891e-09
0.0092391242
1.6481022e-09
1.2885276e-09
5.1511332e-10
4.7906592e-10
0.0022983776
0.005341752
0.012983512
0.013158739
0.0042910546
0.0053927166
0.013793995
0.013652951
0.013999806
0.014443908
0.0097781537
6.2048831e-10
3.9851775e-10
3.7429521e-10
3.6433804e-10
0.029106523
0.017035755
7.7935912e-10
3.4109992e-10
0.018138871
0.018464418
8.9112612e-09
0.0095048118
0.0060727093
0.00031446881
5.2985221e-10
3.2039159e-10
1.1961508e-10
0.1519172
0.061572109
7.6346006e-10
6.176928e-10
6.2905965e-10
6.3677851e-10
7.6207987e-07
1.7209216e-07
1.0274529e-09
1.2568932e-09
8.5694904e-10
5.7850328e-10
5.0429914e-10
2.4791577e-08
5.5259196e-11
3.3483484e-12
1.2602579e-12
3.0807276e-13
4.7226352e-14
4.243902e-15
2.5174991e-16
1.0254549e-17
3.4523554e-09
1.7205235e-06
0.00018199429
0.000223862
0.0002225928
0.00022214845
2.136957e-07
1.2849026e-06
9.9810803e-06
6.4280227e-09
5.1607289e-09
4.3995123e-09
7.5672952e-06
6.5959579e-06
2.722203e-05
8.3261209e-06
1.1748256e-08
1.0821132e-08
0.00020424498
0.0041410712
2.7590034e-07
0.0081742899
1.270641e-09
1.0773225e-09
4.7914167e-10
0.0031810622
2.8796779e-10
2.703318e-10
0.00046054106
0.0014016735
1.7177747e-08
0.0084284097
0.0096631127
2.2389785e-09
0.012136716
0.014762261
0.0035789423
8.9232755e-10
4.8073834e-10
3.6433819e-10
0.012658767
0.0067708148
0.00054486596
5.5699256e-10
3.1890024e-10
3.2108146e-10
0.026987327
0.028144115
0.027975308
0.00094699105
7.659587e-10
4.1797069e-06
1.4446186e-10
0.046760474
0.06112599
0.020473154
8.7224453e-10
7.9262847e-10
8.200603e-10
4.4087275e-06
5.6478698e-08
8.6117874e-10
9.6652143e-10
8.3416763e-10
4.8547253e-10
3.7230708e-10
9.977936e-10
4.983316e-12
9.3223681e-13
3.1381456e-13
6.5616503e-14
8.4881798e-15
6.7579523e-16
3.7535013e-17
1.4397379e-18
1.612717e-09
3.0982703e-07
1.5160717e-05
3.0078585e-05
7.9785961e-09
7.6804861e-09
2.6783421e-06
7.0974123e-09
7.1829e-09
6.6520909e-09
1.8388701e-05
2.7935033e-05
7.2161265e-06
5.526675e-05
6.0260633e-05
2.0891276e-05
6.0165645e-08
1.178733e-08
0.0076903494
0.0076401715
0.00055895611
0.0097936955
0.0042612337
0.0024917692
1.110959e-09
3.9498459e-10
5.2317997e-10
7.706872e-10
2.6966559e-10
0.022178751
0.013046022
2.7156548e-09
2.1300806e-09
1.6496106e-09
1.6494795e-09
0.0061309042
0.010904994
0.00069862262
7.7612672e-10
6.2662221e-10
9.2815965e-10
1.0867982e-09
8.0034341e-10
3.511887e-08
3.194742e-10
0.00013436892
0.0040170716
8.6736278e-10
8.2976013e-10
0.0051010222
0.0020404416
4.136283e-05
0.0003000001
0.00011691964
0.058714441
0.027696051
1.1435438e-09
0.00050143167
0.00037003345
8.0106035e-06
6.6149929e-10
7.0880595e-10
8.0766817e-10
7.3838068e-10
4.0948972e-10
2.2906119e-10
8.1256583e-11
8.8138672e-13
2.3148461e-13
6.9381524e-14
1.2701711e-14
1.4335847e-15
1.0322469e-16
5.3120129e-18
1.8991508e-19
2.4994322e-10
3.350407e-09
1.4421038e-09
7.0915873e-11
1.846686e-05
1.0980742e-06
4.2919612e-05
5.964727e-09
6.0058954e-09
4.0114436e-05
0.00088956483
4.7493917e-05
1.1846409e-10
1.1840118e-10
1.1784781e-10
0.0015763124
5.6703005e-07
0.0015406774
0.0076779665
3.4391008e-08
0.006261388
0.0014578104
2.6171398e-06
0.0055005315
0.0039662043
6.2523036e-05
1.1703464e-09
2.1731618e-06
2.9337957e-10
0.021034901
0.021042193
0.0003107542
1.9248424e-09
2.0749932e-09
1.8201883e-09
1.3226025e-09
0.00163859
0.0017184863
0.00017715474
0.00032949052
1.1209448e-09
6.9694336e-08
8.9397097e-10
3.6351232e-07
3.2408531e-10
0.0017846204
0.00068230428
0.00027337899
8.8061491e-10
0.0061176335
0.0036134375
2.0855719e-09
1.8598668e-09
0.011551422
0.00081692132
9.450013e-05
0.00022973929
0.0042740382
0.00092565073
6.7409605e-10
5.1991644e-10
5.7170984e-10
6.5790173e-10
5.9280894e-10
3.2342857e-10
1.2047879e-10
1.1820807e-11
2.2799419e-13
5.2758678e-14
1.3784522e-14
2.2408175e-15
2.2522785e-16
1.4831559e-17
7.1194046e-19
2.4507542e-20
6.4499122e-11
2.9177422e-09
1.2255056e-08
2.8414623e-11
4.5071558e-05
6.3580685e-07
6.359408e-07
0.00034767104
0.00044556477
0.00022187449
0.00087982375
1.4702035e-10
7.8956333e-10
1.804987e-08
1.244528e-10
0.00022720567
0.00053312208
4.1446865e-09
3.7329038e-09
3.1415895e-06
0.0062290579
1.3164114e-09
1.1220188e-09
0.00314384
0.0051149427
0.0024691923
5.2296471e-05
4.5226315e-06
0.00074820032
5.3293984e-10
4.9629886e-10
0.009307859
0.0091030795
0.0081804718
0.0016576708
1.8225661e-09
1.1700227e-09
1.1700225e-09
0.0020216226
0.0028128598
0.00025805838
1.4455056e-09
1.1862122e-09
1.2820872e-09
5.6166036e-06
2.5392066e-07
0.00093231074
0.0011996021
7.1600695e-05
4.8571864e-05
0.00096106192
0.0064012356
0.0010114258
0.0023258673
1.476121e-08
1.4685271e-08
7.6994936e-05
0.0018658671
0.00053169584
5.5246001e-10
4.0568993e-10
4.273235e-10
4.9370614e-10
4.2756541e-10
2.1473328e-10
4.9714006e-11
2.726549e-12
7.4267457e-14
1.1799361e-14
2.5483891e-15
3.6759927e-16
3.34214e-17
2.0615262e-18
9.6544212e-20
3.4984623e-21
6.1040258e-11
1.0703465e-09
1.7001896e-08
3.0433336e-11
3.0327012e-11
0.00013081515
0.00013939157
0.00056760568
0.00025820372
0.00055011111
2.9557461e-10
9.3851087e-10
1.82152e-09
1.8212456e-08
7.3270807e-08
4.7610668e-09
0.00019220901
2.3470274e-05
3.9242409e-09
0.0048059062
0.00039455361
0.0060713851
1.0988445e-09
7.3764794e-10
7.2726031e-10
0.00053284859
0.00012463507
4.5172036e-10
0.0095156698
0.00060034527
8.6311803e-10
0.0010802234
0.00010582285
0.013029083
0.0031904492
1.9011685e-09
1.6346817e-09
1.4677749e-09