/*--------------------------------*- C++ -*----------------------------------*\
| =========                 |                                                 |
| \\      /  F ield         | OpenFOAM: The Open Source CFD Toolbox           |
|  \\    /   O peration     | Version:  2.3.0                                 |
|   \\  /    A nd           | Web:      www.OpenFOAM.org                      |
|    \\/     M anipulation  |                                                 |
\*---------------------------------------------------------------------------*/
FoamFile
{
    version     2.0;
    format      ascii;
    class       volScalarField;
    location    "7e-06";
    object      k;
}
// * * * * * * * * * * * * * * * * * * * * * * * * * * * * * * * * * * * * * //

dimensions      [0 2 -2 0 0 0 0];

internalField   nonuniform List<scalar> 
7500
(
1.0002714e-05
1.0010453e-05
1.0024614e-05
1.0059598e-05
1.0068599e-05
1.0084567e-05
1.0120122e-05
1.0173261e-05
1.0288163e-05
1.0342728e-05
1.0374626e-05
1.0423648e-05
1.0503152e-05
1.0581926e-05
1.0672394e-05
1.0724574e-05
1.0825983e-05
1.0947106e-05
1.1062324e-05
1.1256693e-05
1.1374047e-05
1.1496529e-05
1.1584318e-05
1.1721846e-05
1.1834441e-05
1.2056405e-05
1.2129155e-05
1.2379357e-05
1.2498591e-05
1.2704727e-05
1.3092201e-05
1.3591138e-05
1.4305604e-05
1.530008e-05
1.5982606e-05
1.6701795e-05
1.8036654e-05
1.8374522e-05
1.9023891e-05
1.9732681e-05
2.1306606e-05
2.2577453e-05
2.5305156e-05
2.7704512e-05
3.0643837e-05
3.2303354e-05
3.542198e-05
3.7829631e-05
4.2248472e-05
4.7604858e-05
5.0842745e-05
5.5455049e-05
6.4200983e-05
9.0049247e-05
0.00011150048
0.0001210686
0.00012947538
0.00014724378
0.00018694422
0.00026795264
0.00035801378
0.00047713096
0.00081565789
0.0024200617
0.011351257
0.058636316
0.30120453
1.613806
5.1789564
5.4855608
2.7661692
0.85574803
0.24282062
0.059500733
0.0093807336
1.0002797e-05
1.0019886e-05
1.0046975e-05
1.0063146e-05
1.007965e-05
1.0100963e-05
1.0147416e-05
1.0176326e-05
1.0242715e-05
1.0262817e-05
1.0282166e-05
1.0319528e-05
1.0371558e-05
1.0438149e-05
1.0541625e-05
1.0626931e-05
1.0718516e-05
1.0791513e-05
1.0972983e-05
1.1152749e-05
1.1251332e-05
1.1348992e-05
1.1482802e-05
1.1702829e-05
1.190147e-05
1.2046412e-05
1.2292531e-05
1.2894901e-05
1.3439211e-05
1.4022406e-05
1.4661962e-05
1.541772e-05
1.6469235e-05
1.7051338e-05
1.8309058e-05
1.9328e-05
2.037251e-05
2.1823755e-05
2.2592074e-05
2.3781505e-05
2.5716799e-05
2.8821763e-05
3.1402433e-05
3.2847026e-05
3.5000315e-05
4.003815e-05
4.7497257e-05
5.2614849e-05
5.6746226e-05
6.6293977e-05
7.3492996e-05
7.9620911e-05
9.0536951e-05
0.00011808776
0.00017156826
0.00019718873
0.00020983487
0.00023535965
0.00029055066
0.00049311635
0.00077024591
0.00091074109
0.001130348
0.0018995634
0.0060349972
0.029279044
0.15732594
0.81753599
3.7661097
5.8687827
4.6951334
1.6913091
0.46527316
0.10285007
0.015034084
1.0002776e-05
1.0016596e-05
1.0043272e-05
1.0060334e-05
1.0077068e-05
1.0093767e-05
1.0130024e-05
1.017015e-05
1.0253016e-05
1.0291287e-05
1.0320772e-05
1.0391812e-05
1.0479951e-05
1.054149e-05
1.0673191e-05
1.0758322e-05
1.0914364e-05
1.0973676e-05
1.1135564e-05
1.1375294e-05
1.1505204e-05
1.163411e-05
1.1787698e-05
1.216527e-05
1.2566075e-05
1.3111497e-05
1.4086024e-05
1.5732977e-05
1.7744184e-05
1.9800809e-05
2.1277397e-05
2.3380751e-05
2.5582809e-05
2.6912293e-05
2.9652409e-05
3.2166059e-05
3.6016756e-05
3.8449695e-05
4.083541e-05
4.6175489e-05
5.0187335e-05
5.8819192e-05
6.6816608e-05
7.1787419e-05
8.1053431e-05
9.9775003e-05
0.00013035808
0.0001507691
0.00016253371
0.00018319461
0.00023163139
0.00026449183
0.00030329689
0.00039196777
0.00057071315
0.00067391201
0.00071602829
0.00077425495
0.00093179741
0.001578671
0.0029344815
0.0035576192
0.0038323996
0.004243889
0.0055670333
0.012685632
0.054339424
0.29333045
1.7546602
4.1589113
4.2022894
2.1943578
0.61515777
0.13619314
0.019756384
1.0001916e-05
1.0009288e-05
1.0033252e-05
1.0046496e-05
1.0068647e-05
1.0093092e-05
1.0132202e-05
1.0197446e-05
1.0269677e-05
1.0306777e-05
1.0408825e-05
1.0488976e-05
1.0745556e-05
1.0859751e-05
1.1051098e-05
1.1164213e-05
1.1300263e-05
1.1400578e-05
1.1604596e-05
1.2018154e-05
1.2289124e-05
1.2579593e-05
1.3108116e-05
1.3775535e-05
1.4560885e-05
1.6002204e-05
1.9693612e-05
2.2893943e-05
2.9960403e-05
3.4084594e-05
3.6982777e-05
4.4436736e-05
4.8472308e-05
5.6358686e-05
6.3404686e-05
6.9649384e-05
8.408767e-05
9.3162797e-05
0.00010721234
0.00013770388
0.00015417719
0.00018389315
0.00020297093
0.00023266842
0.00029316091
0.00036195933
0.00051636762
0.0006327356
0.00068802915
0.00076578718
0.00097658366
0.0012243857
0.0014219469
0.0018361323
0.002582194
0.0030042294
0.0031585692
0.0033520864
0.0039884185
0.0068564995
0.012658133
0.015283013
0.016022817
0.016442789
0.017057805
0.019723191
0.034940259
0.11254459
0.52208571
2.3540672
3.4624784
2.5618434
0.78845931
0.17628441
0.025382399
1.000239e-05
1.0011155e-05
1.0036379e-05
1.0057842e-05
1.0106025e-05
1.0171312e-05
1.023234e-05
1.0392899e-05
1.048726e-05
1.0541841e-05
1.0666641e-05
1.084395e-05
1.1108508e-05
1.1406742e-05
1.1548825e-05
1.1807478e-05
1.1974238e-05
1.2183158e-05
1.2707863e-05
1.3562518e-05
1.4225612e-05
1.5356584e-05
1.6368871e-05
1.8275012e-05
2.1068634e-05
2.4224675e-05
3.1134051e-05
3.9072977e-05
5.634788e-05
7.1495092e-05
8.2118904e-05
0.0001074917
0.00012688231
0.0001647595
0.00020252488
0.0002313071
0.00028421446
0.00034845556
0.00044984426
0.00060184914
0.00070420511
0.000828071
0.00090461928
0.0010308912
0.0015198197
0.0019558725
0.0025968623
0.0032951601
0.0035976228
0.0039409304
0.0047024136
0.0067088816
0.0078147769
0.0092472634
0.011892601
0.013749798
0.014353698
0.015084993
0.017790274
0.030496287
0.052521441
0.060958401
0.062202168
0.06175424
0.059407829
0.058979037
0.066000392
0.10990752
0.29984628
1.1610162
2.7997126
2.7868868
1.1413717
0.2415775
0.033620016
1.0003932e-05
1.002577e-05
1.0116938e-05
1.0207764e-05
1.0366297e-05
1.0520429e-05
1.0775711e-05
1.1151615e-05
1.1401821e-05
1.155338e-05
1.1735717e-05
1.203043e-05
1.2214274e-05
1.2708895e-05
1.3121338e-05
1.3747085e-05
1.4173606e-05
1.4837821e-05
1.6783237e-05
1.8620072e-05
2.0880465e-05
2.4798808e-05
3.1216644e-05
4.0045515e-05
4.9906247e-05
6.8441807e-05
9.4848133e-05
0.00012613731
0.00020168217
0.00025735268
0.00032702737
0.00051153337
0.00067487772
0.0010197586
0.0012158637
0.0013876182
0.0017116185
0.0021127432
0.003029001
0.0037990701
0.0041917447
0.0049819211
0.0054370627
0.0062418274
0.0089590316
0.01270671
0.015398693
0.018076222
0.020333401
0.021768719
0.024791043
0.033551776
0.040978085
0.045408341
0.052336481
0.05854386
0.061093585
0.064245138
0.075036648
0.12371951
0.19382944
0.21647169
0.21820012
0.2138973
0.19242184
0.17296282
0.17208788
0.19899627
0.34390025
0.90921687
2.0830224
2.5230834
1.4850132
0.32231479
0.043600145
1.008191e-05
1.0482167e-05
1.1259823e-05
1.1473327e-05
1.1968577e-05
1.2560094e-05
1.3449413e-05
1.4609299e-05
1.5348544e-05
1.5964914e-05
1.6495768e-05
1.6862697e-05
1.7549166e-05
1.8785086e-05
2.0138344e-05
2.279944e-05
2.5252087e-05
2.9263211e-05
4.1938783e-05
5.3249982e-05
7.1432724e-05
0.00010245166
0.00017115762
0.00023349678
0.00030498595
0.00047009994
0.0006680696
0.00091989663
0.001558744
0.0019943146
0.0024806686
0.003764715
0.0049389328
0.0072475012
0.0086422271
0.010062852
0.011969731
0.015470624
0.021708816
0.025579581
0.027614898
0.031483444
0.034065857
0.039108818
0.052004108
0.072697164
0.085978187
0.092634063
0.10059027
0.10901819
0.12101665
0.14828773
0.17889704
0.18958478
0.20287374
0.21690011
0.22707513
0.23958289
0.27915056
0.44476584
0.63073784
0.67751431
0.6782938
0.66467843
0.58915983
0.47776079
0.43498969
0.44912042
0.58632398
1.1547818
1.9674628
2.2640849
1.5884284
0.39926312
0.055646111
1.0750344e-05
1.4638275e-05
1.746151e-05
1.7547544e-05
1.8216534e-05
1.960587e-05
2.2329951e-05
2.4662352e-05
2.6776841e-05
2.9093966e-05
3.1099574e-05
3.2440696e-05
3.4976355e-05
3.9612255e-05
4.6489545e-05
6.6538256e-05
8.9279168e-05
0.00012886937
0.00024749405
0.00036330445
0.00053281023
0.00083223383
0.0014756255
0.0019726272
0.0025912203
0.0041087476
0.0056070019
0.007436635
0.012032287
0.01506667
0.01844889
0.027112379
0.035945635
0.048704059
0.057306907
0.064508253
0.074110459
0.094191486
0.1243449
0.14168411
0.15050921
0.16861904
0.18052865
0.20482521
0.26695127
0.32850785
0.38276409
0.4022039
0.41456189
0.43861762
0.48193649
0.54198331
0.62295204
0.64788274
0.65981354
0.67712832
0.70581401
0.74324915
0.86963542
1.3834885
1.8480343
1.9185881
1.904019
1.8754825
1.7264575
1.3060962
1.0555907
1.0078795
1.1060263
1.687944
2.3856723
2.668576
2.0802629
0.53353458
0.070569413
1.1682836e-05
2.2157245e-05
2.5807352e-05
2.593003e-05
2.704655e-05
3.0353169e-05
3.9960609e-05
4.6717083e-05
5.9013225e-05
6.816061e-05
7.4993472e-05
8.2706167e-05
9.8973533e-05
0.00013184905
0.00018806115
0.00035206262
0.00058945505
0.00095015571
0.0019532667
0.0031052744
0.0044634087
0.0069378933
0.011882707
0.015179188
0.019658098
0.030570493
0.039793371
0.050921119
0.078078643
0.095170976
0.11315055
0.16032577
0.2106053
0.26029833
0.30593931
0.34116251
0.38056562
0.46437556
0.58607101
0.63959318
0.66911339
0.73707263
0.77885983
0.87008061
1.0754078
1.2392375
1.36188
1.4193366
1.4261789
1.4520887
1.5423021
1.6236154
1.7711686
1.8360095
1.829846
1.841669
1.8871424
1.9872681
2.3657642
3.9299419
5.0896579
5.1466696
4.9647207
4.9850056
4.8755562
3.8748881
2.6602294
2.2860151
2.335353
2.8709035
4.2705084
5.5308353
3.1845954
0.60775065
0.072059214
1.1467327e-05
2.3258309e-05
2.7335177e-05
3.3470414e-05
3.7511092e-05
4.7763475e-05
6.9610156e-05
0.00011965404
0.00013957116
0.00017938634
0.00022044391
0.0002844647
0.00042698637
0.00072483128
0.0012167777
0.0025181173
0.0048356425
0.0075062996
0.014372222
0.023834548
0.032545603
0.049049979
0.078406688
0.097006986
0.12315892
0.18195062
0.22505875
0.28052498
0.40893144
0.48374398
0.55878734
0.75960096
0.98355523
1.1146775
1.307041
1.4588001
1.5712124
1.8063215
2.219909
2.3822746
2.4712834
2.7063869
2.806422
3.0371959
3.4986985
3.8749287
4.0729852
4.1258117
4.0727108
4.0708111
4.0929807
4.2612811
4.4995782
4.6493879
4.6209407
4.6284526
4.7552591
5.1269247
6.444685
10.74327
12.972558
12.907298
12.283602
12.771001
14.082134
12.773837
7.9163061
5.1912869
4.8129882
5.9933709
9.598337
8.9829938
2.8868848
0.50614179
0.058864295
1.0503532e-05
1.4325269e-05
1.7798874e-05
3.4987157e-05
4.9669156e-05
6.855537e-05
0.00010150025
0.00019782463
0.00027421019
0.00041710439
0.00072816181
0.0012728817
0.0024428132
0.005007543
0.0086319184
0.017386172
0.035779515
0.052010675
0.089907057
0.14966997
0.19417506
0.28271847
0.41098366
0.50571914
0.62776431
0.85984446
1.0334337
1.2437778
1.728442
2.0145271
2.2614022
2.9486779
3.7288276
4.0275092
4.5626257
5.1374483
5.4311494
5.980134
7.3738274
7.9282562
8.1213612
8.6630487
8.760162
9.0280243
9.849721
10.686957
10.862636
10.778265
10.420367
10.17876
10.012214
10.639837
12.70264
12.87989
12.466977
12.264138
12.711742
14.228284
18.837023
27.341027
29.084223
27.678419
26.850556
28.451234
37.972093
36.960392
26.092262
13.758336
9.2325261
9.7817879
13.243214
8.6554909
2.0706702
0.35902704
0.042802514
1.058246e-05
1.3537165e-05
1.733595e-05
2.79257e-05
4.879635e-05
9.5101383e-05
0.00023631764
0.00045453696
0.00094537813
0.0019263858
0.0042681347
0.0080686889
0.0163085
0.034294745
0.056794705
0.10656639
0.21449786
0.29575562
0.46007757
0.75535589
0.93829787
1.3232131
1.7113966
2.2141865
2.6176869
3.2865288
4.0323885
4.6125011
6.0793188
7.2367741
7.9596588
9.9497567
12.105082
12.790244
13.939276
16.120696
17.444307
19.3692
23.900284
25.675268
25.411395
25.297034
24.509462
25.401861
27.171419
29.440409
29.988572
27.690811
27.818383
26.890114
25.17383
32.462837
49.611346
46.911732
40.997553
33.931486
34.194055
44.028906
44.776141
50.187958
49.394145
48.383
54.033765
52.666815
50.510852
49.717932
42.054459
24.158143
14.249015
11.964115
11.353215
5.531827
1.2317871
0.22158485
0.028315334
1.3863877e-05
3.2358549e-05
5.3387719e-05
9.1886704e-05
0.0001566773
0.00034052174
0.00096966883
0.0024577243
0.0056529798
0.0120236
0.028589963
0.051922573
0.10368658
0.20115462
0.31444517
0.5437103
1.0238573
1.3480146
1.9154319
3.1050856
3.7261462
5.0545951
6.1163303
8.143198
9.2878426
11.070567
13.59852
15.34418
20.001989
24.668866
26.816646
31.440192
36.165667
38.525241
42.246843
55.537794
65.820061
68.753583
81.610994
86.506002
78.805434
69.12128
65.218937
89.792199
87.565701
87.744299
97.191099
79.86787
81.522627
92.265991
72.511424
76.144921
121.82373
114.10656
82.587811
61.721023
59.076389
60.459406
58.958872
58.824501
57.118026
55.462286
57.867471
62.666381
71.331867
65.03319
50.901503
40.535768
28.562388
18.308697
10.483442
3.4333563
0.75652252
0.14601808
0.020832281
1.5700015e-05
4.3811459e-05
8.0359848e-05
0.00026078402
0.00064271292
0.0018182031
0.0050287987
0.013445014
0.031828392
0.068113212
0.16553816
0.28433325
0.56836368
0.94634629
1.4670627
2.356567
4.0672987
5.206592
6.9740613
10.905402
12.812868
16.961746
20.275398
26.748667
30.217842
36.378384
43.258753
51.422645
72.757008
87.101106
94.963684
97.339366
110.16093
133.94431
145.99257
282.92314
286.11185
251.30631
305.17657
247.012
184.40572
186.58331
168.95152
243.21636
244.69683
161.41188
176.40125
150.66582
144.18141
153.59853
180.03827
124.45252
104.68559
116.48491
98.109249
78.239943
85.724686
77.889667
66.467621
81.195522
72.309165
71.658886
71.281514
73.769819
88.314558
83.678606
65.267092
71.521833
66.561333
41.165025
12.857541
3.1221156
0.61143496
0.11845224
0.018074705
1.2730967e-05
4.1665129e-05
0.00015123804
0.00085665871
0.0032259952
0.010367556
0.02901529
0.073765579
0.16848038
0.34577398
0.8191954
1.3244401
2.5367352
3.7090415
6.1145241
8.5543974
14.01312
17.856511
23.190782
35.179547
41.47664
56.628309
66.190427
90.210117
101.48694
128.80496
152.34992
208.40039
306.45924
326.87595
349.83084
301.41255
487.57838
472.03276
565.75978
1177.8333
681.72938
635.05336
563.23627
254.86877
233.01162
243.99696
267.44432
267.8522
195.39605
124.9529
83.725274
141.86412
137.21833
85.195447
124.2948
97.681566
81.730335
94.972198
104.55937
90.501222
97.146441
99.415514
85.750761
83.66629
86.808382
92.540712
108.56383
106.89667
105.75755
92.718258
81.439154
72.08626
52.314389
28.011531
9.7657258
2.3332747
0.48269335
0.1005935
0.016563893
9.5586567e-06
8.0645588e-05
0.0007292216
0.0043209138
0.017220652
0.054783101
0.14880643
0.36715045
0.80162327
1.540085
3.4441267
5.2412804
9.298365
13.090633
21.635762
28.482929
46.215634
58.468918
75.55815
117.23594
141.9063
205.22766
224.68345
365.53719
382.64003
530.8072
614.66697
940.60089
901.8121
857.62008
652.33666
554.94347
1192.4893
901.90074
952.01197
688.24206
196.05927
211.70268
132.30041
79.57503
70.053428
76.88035
115.76707
96.351717
83.514488
64.590985
64.986618
76.07619
72.00444
70.96773
62.408753
100.67856
85.677534
90.405773
143.11155
120.83999
100.2153
117.09193
105.12053
106.24102
109.74848
123.01511
163.21881
149.19766
123.97887
94.684537
76.247522
72.106189
61.006337
31.495675
10.025962
2.3449375
0.47082249
0.09673925
0.016457818
8.7769362e-06
0.00049165653
0.0046568215
0.025130672
0.090181181
0.26581743
0.67694653
1.6289591
3.2252529
6.023895
12.411247
18.008942
30.229269
42.643776
71.348518
91.502412
162.24507
195.43429
274.25873
458.26114
571.2776
807.88228
812.45944
1138.5157
1212.3801
1329.2051
1337.0476
1214.9309
580.84275
358.75951
137.51171
206.76819
196.60778
523.80135
402.13477
201.8976
89.270488
73.100209
67.01259
70.772673
88.579213
115.90467
107.07351
84.088781
85.213144
78.593483
71.401965
63.483598
70.962424
72.490984
65.536092
67.271427
74.640743
105.16462
109.23261
114.78429
96.20314
99.387638
110.6322
144.95349
152.62647
262.87506
492.02793
411.64784
248.14773
130.13422
78.585479
82.503155
94.178865
40.107134
9.8520012
2.2147246
0.45164307
0.096880431
0.017690596
1.4781578e-06
0.0032368838
0.027069252
0.13045811
0.4247308
1.1462129
2.7177276
6.1678659
11.375963
21.572389
39.210557
57.022068
95.913112
141.14895
244.93094
304.97505
659.10647
717.45595
1237.1424
1363.4963
1726.7828
1230.4414
1307.0298
1096.8676
1391.4331
673.78719
315.94055
164.91957
92.42385
65.081704
56.953856
68.828614
366.06121
125.59387
130.99038
91.011505
65.93062
59.490359
60.529348
84.628498
646.8799
417.38494
140.00776
108.78233
102.48165
76.261745
66.031312
65.64086
73.85327
85.829018
90.663693
77.29317
85.714318
106.78577
115.62806
109.58252
92.368548
96.801439
173.97837
313.32264
411.61479
623.64542
973.94151
724.21793
386.23891
217.66553
98.861162
96.725186
185.43719
71.709002
13.288591
2.6400058
0.56070145
0.12684556
0.0244497
7.3127928e-05
0.019108808
0.13899947
0.59156185
1.7460215
4.3426375
9.6671942
20.549635
37.126773
71.233515
117.52833
184.87663
331.68305
520.90901
921.17961
1181.4365
1805.7249
1638.8198
2187.3981
1199.4292
918.10558
194.56399
279.53331
182.93905
182.17683
92.429993
76.752907
135.18311
82.700696
47.540826
46.892171
54.120521
131.84436
94.21715
82.37043
63.199971
52.200471
51.536622
61.296832
95.061208
376.42901
326.10235
213.04385
173.93383
129.39105
84.877649
72.522362
80.294159
106.34225
110.65434
104.8867
81.93077
79.311184
100.63539
136.15175
119.78836
121.56682
143.68474
384.43822
454.80089
930.53033
929.45891
535.59329
683.92612
460.81271
323.99483
153.62312
101.47333
191.61587
168.97784
37.754259
6.2248225
1.2346297
0.24839822
0.0420048
0.0012358916
0.10301347
0.63537124
2.3639309
6.3055074
14.586843
31.348801
64.505176
118.83768
224.72151
385.47441
699.22751
1310.3735
1590.9245
1948.3284
2290.4225
1240.9857
1059.1589
511.84235
190.92236
99.961753
35.621009
52.781601
189.46915
186.00568
66.207843
62.832285
58.458559
49.653844
41.332579
40.662898
44.285444
72.174584
55.076304
47.999508
61.646286
53.839398
45.495582
50.469948
58.890508
1164.1432
808.96917
441.79843
212.98161
159.50715
105.24894
95.348586
127.95827
142.44131
118.82461
106.59044
92.18656
90.820065
107.66864
139.98504
135.28844
152.32056
158.64514
223.93164
427.60733
425.10777
229.39887
72.577688
411.39991
487.86244
397.96307
220.51977
111.85154
123.41059
183.91199
131.64522
24.679739
4.3201226
0.68150373
0.090744708
0.011635257
0.49208047
2.5643722
8.3297397
20.280181
44.947027
97.64206
207.10448
396.00279
798.25117
1507.3149
2067.7371
2039.709
1517.1311
935.47319
1041.3301
166.83173
275.56769
224.78588
106.10552
45.714448
29.020588
43.347899
366.23613
153.69591
72.637669
35.504858
75.405409
44.433428
34.141174
31.449367
33.612255
59.383641
55.212519
51.620188
55.005085
53.261204
51.811115
66.973701
71.934494
332.10211
823.48516
585.49123
227.69435
185.21786
153.0655
108.39731
122.44586
135.22634
129.87876
104.71328
106.27814
101.08494
122.05262
138.41057
139.45818
124.65785
140.01674
263.68588
255.11229
254.84709
93.646223
22.790816
96.206289
333.60112
335.06988
307.40675
159.00906
103.52191
129.45131
210.93889
149.4262
22.345744
2.5199603
0.22863635
0.083232919
2.0895246
9.1205943
26.153863
59.701056
133.90315
313.45112
732.05512
1487.3089
1937.3807
2194.3519
2043.2656
582.12719
196.6411
131.86635
166.44837
18.805318
75.118153
108.38484
94.617643
53.546234
45.337663
64.962734
178.40925
69.103892
55.29964
32.354003
49.809394
34.357773
38.156319
33.755437
35.758886
84.210814
61.795154
69.722358
57.009736
44.72445
46.898059
72.079448
78.67642
162.51455
187.20997
199.95928
113.9359
175.49381
192.77051
138.89143
129.11064
158.12126
156.82906
132.06304
141.60452
136.80169
142.55485
131.68099
127.96654
138.57641
173.21829
685.5228
1207.3769
423.99709
34.69237
14.736729
29.502273
184.60214
263.70591
429.40933
357.7122
147.02717
113.86627
148.33256
128.63038
38.143369
4.2535835
0.31859011
0.49473834
7.8835225
28.861882
75.117587
168.6705
412.72229
1147.3825
2006.5598
2415.6205
1643.9541
862.95648
382.03128
70.452646
41.463274
44.511814
59.202243
10.030055
28.720213
65.443222
78.532194
45.506192
61.74876
57.173971
267.14426
67.329486
40.770984
32.945375
32.428871
25.695383
34.425994
37.016838
40.532756
85.193752
80.308356
87.583636
52.651704
42.854374
49.736683
76.719684
67.938814
120.52814
125.92628
115.64142
104.29085
185.63007
203.47842
147.10464
137.19091
195.18855
173.32826
145.87363
160.35504
156.51581
148.67766
125.73936
116.3462
111.05508
160.94695
555.4889
707.94892
171.56765
15.111097
15.70417
12.975743
51.353614
100.98297
220.36568
536.46291
354.64222
146.71241
128.47863
106.35725
34.713886
4.2791696
0.30308021
2.548616
26.515016
82.883913
205.4634
489.63781
1457.8076
2195.0594
2036.086
925.77161
445.39043
339.31032
163.96336
33.159448
35.840034
34.119053
42.959231
8.9200592
13.352517
59.343918
53.863204
23.88735
58.096342
50.455482
49.086301
28.546029
27.160887
29.902812
33.875972
27.162673
29.867547
38.19639
43.461819
72.280865
80.042766
72.9563
45.898783
45.438974
42.326707
68.693183
62.650395
90.843305
144.08572
180.79579
147.67707
209.13334
227.17681
154.06822
214.59831
247.56186
193.18111
158.29807
162.95885
165.87905
153.29701
129.77595
114.6625
123.82692
252.07391
424.03681
245.16837
33.86252
24.713354
36.701929
11.229552
13.587255
28.071743
61.297629
334.40828
579.96465
361.51486
193.90808
140.98692
35.674517
3.6470812
0.22253688
11.617513
80.42285
221.97061
570.70163
1596.5176
2401.4469
1511.0326
585.33665
170.35087
148.14379
165.05386
166.42691
37.332762
20.611154
24.510397
17.508598
8.3985157
17.135213
32.394328
51.446464
21.707655
43.570999
51.668539
35.960911
25.58258
27.357221
37.810023
33.308379
30.229049
33.952026
37.444522
54.310032
71.353069
162.11539
84.241661
46.707903
47.773072
47.561139
46.095671
54.675766
85.6476
219.20484
151.99638
150.68487
129.71179
156.85185
161.01935
283.44243
229.52429
167.11648
158.28344
155.46779
143.10685
148.47102
144.95142
138.94793
172.78029
317.60766
225.31754
64.404848
23.885198
77.577259
107.04561
22.690606
5.8415923
8.1778997
18.972308
83.248509
473.51351
541.15495
382.39462
162.31962
24.778573
1.8565609
0.1039495
47.809607
221.86647
582.55428
1743.452
2370.5479
1397.4086
524.38661
154.3402
34.668798
68.449311
47.103101
26.067649
12.686758
20.591254
18.696315
12.988787
9.6336696
11.395848
24.983778
31.29816
16.98229
38.759327
45.434535
28.260615
30.683069
28.948449
44.828068
31.405778
38.809976
40.853462
40.80294
71.010137
73.146331
68.755379
63.268588
49.180754
42.194034
44.137571
43.039264
44.536447
67.618918
223.36882
131.02597
111.17453
84.473436
92.080152
199.73408
257.57795
214.26448
158.33648
176.87509
141.11131
131.13632
133.56968
152.92378
148.41804
180.91437
337.69794
94.464554
36.760783
78.488172
272.11802
307.84125
73.294223
5.8718032
3.127614
6.7785658
25.259964
140.70732
398.00474
315.14712
91.59897
8.6225911
0.64750638
0.04224057
175.06743
567.96632
1625.0575
2313.1419
1333.9949
543.16386
109.89577
25.894751
22.835931
35.022549
19.259596
24.243743
13.224175
14.615046
15.561433
18.530936
13.30298
17.572871
16.383027
28.299073
16.225827
42.546355
42.304681
22.808891
45.871705
24.743941
36.568451
29.806486
51.077793
40.781901
43.016577
55.322139
62.785351
61.221435
69.317749
48.914002
38.460532
36.443875
36.295231
41.94247
68.065947
149.37026
131.20322
86.06444
78.891626
82.624819
200.88055
194.15762
207.59946
173.32737
145.40758
127.51345
131.36919
147.6005
172.36547
143.16168
181.04294
201.15197
67.483103
162.55544
478.58884
702.14224
596.72827
213.62636
16.652259
1.9186173
2.7812385
8.9372541
38.165435
124.07151
109.18259
25.931352
2.4304289
0.22060497
0.020944903
520.34344
1477.1572
2652.7168
1463.357
619.90617
136.14146
24.056988
11.633727
21.003316
22.924717
25.473537
24.108269
8.8711678
12.332279
15.561346
19.395682
15.860435
32.252193
24.138802
19.724909
16.081895
49.034009
50.513341
22.155009
89.798904
32.75644
35.550496
30.876148
53.916587
39.023911
43.210832
44.270071
55.37848
59.819884
57.769652
43.095292
34.728293
33.331132
35.384371
42.073468
85.037572
105.61564
78.264993
78.610023
82.650924
82.424881
142.88993
192.64064
162.21022
134.8903
129.5007
124.18131
126.51004
163.71978
164.46234
130.75159
221.24422
141.75044
140.42589
745.44774
998.68575
812.29552
621.34169
393.06907
58.312695
2.6812797
1.2442463
3.3297715
11.532995
32.916314
30.482253
6.5336123
0.68214777
0.093673755
0.0135407
1503.3321
2980.2962
2202.4894
755.60744
210.34781
30.684211
20.776306
9.5295778
13.725709
18.975853
27.375284
12.858314
8.0174923
14.316248
17.067849
15.206438
18.372209
29.609171
13.259288
19.895429
17.947365
59.711098
136.7512
23.182395
108.50706
33.600591
43.412237
35.50111
30.28692
34.953401
48.655326
52.796937
54.837628
47.576304
46.774407
42.037272
34.827651
32.313399
39.20076
41.023902
75.02741
87.693971
73.972874
77.67881
97.202633
93.510756
116.55579
181.00508
144.55319
158.99076
136.79489
125.83513
131.21576
163.16845
173.64427
152.2473
296.76853
154.52729
621.65678
552.43002
614.76615
536.6454
412.23253
395.83996
161.6139
8.0249447
0.71931982
1.2833236
3.6270128
8.7178758
7.67933
1.6344197
0.22764438
0.053040751
0.010043496
4269.8801
3225.873
967.63507
229.77094
51.099744
31.520496
9.2017712
9.2261386
10.949081
15.715161
14.535048
10.598599
9.3322536
23.150601
21.925829
17.791792
16.625321
16.959836
10.724396
23.612713
22.188153
78.61093
221.4989
25.682277
85.822012
28.880803
52.242132
40.623631
35.881088
35.579165
49.801279
89.176592
60.174881
46.06727
45.85422
42.539412
36.734285
33.171101
33.777164
35.597437
70.512294
73.456446
78.999772
77.027467
112.48157
96.966061
135.41823
142.71599
107.78033
109.70967
128.81791
132.37952
144.1759
180.72392
184.36298
157.21601
239.01233
188.86869
488.40238
342.5156
466.53408
382.76335
378.39216
397.88002
257.00696
20.576327
0.73384856
0.53355482
1.1902136
2.3614352
1.8998468
0.47317102
0.10167989
0.035616973
0.0077685526
7985.3929
1655.6261
259.70411
53.179117
20.923304
34.914223
4.5246765
9.2306132
9.9034942
12.97072
10.193546
10.092848
8.8493312
42.578208
42.354061
20.497831
32.78754
15.392702
11.601844
24.848447
29.426876
81.711963
199.5725
23.956495
49.300312
45.12348
60.851806
47.814004
42.347641
38.856774
44.990085
112.43158
78.6572
45.855751
45.630211
43.452848
38.069861
33.760775
34.416553
34.992881
59.620794
69.466565
83.170224
77.89738
123.2633
108.14774
128.14008
107.10189
95.100732
134.59728
137.27309
146.43644
150.50484
172.08956
183.94101
200.89709
263.69806
551.80551
368.45006
216.57291
517.86731
470.98746
321.82587
273.63169
185.84349
34.704679
1.2376007
0.25212787
0.43785547
0.70071948
0.53403844
0.18304248
0.057318759
0.025583401
0.0060735137
1543.8161
291.39706
42.945706
15.638906
17.699242
18.649476
3.0225021
8.9874057
8.936245
11.069726
9.638366
9.5010093
10.411329
54.207792
73.874896
22.013493
29.463418
46.464261
14.503384
18.091724
36.369639
79.335864
108.05946
22.519381
48.587499
106.83295
68.964584
59.77482
33.222427
39.913973
48.756646
97.098781
80.63996
47.30131
45.655722
43.414629
37.423199
37.366118
35.858432
36.600608
52.047401
67.085561
68.940747
71.324538
126.45372
125.11957
104.82807
103.10164
108.27168
205.53181
200.32084
193.63934
163.23107
161.53553
363.80888
435.89073
241.62074
597.95607
393.4145
187.11275
250.22124
618.6276
498.9881
425.05633
233.55906
29.263396
0.8598053
0.13039319
0.19174379
0.25638029
0.19887023
0.092116207
0.036163834
0.018804268
0.0047483204
106.18822
29.425744
10.476747
9.7835427
17.066121
5.8972582
2.1695274
8.3514264
8.1792272
9.7368544
9.9091919
9.2797769
10.952685
28.597601
46.807728
15.269744
18.947948
80.90408
20.423705
16.258472
38.303829
99.325022
140.61385
23.038476
61.876125
99.571822
71.347715
68.339455
39.211812
47.7121
57.517097
55.941535
75.35985
49.905562
42.632004
41.14504
38.202141
33.121781
34.791826
38.72112
49.179765
66.284706
69.366216
77.470822
105.60392
145.949
107.00866
138.61127
148.71281
237.28719
234.26537
235.1696
217.91673
169.26252
346.86061
291.97089
282.11302
373.07736
188.50102
106.51323
164.08402
667.44402
709.2348
538.26639
184.51643
11.936536
0.25942997
0.07199808
0.098497938
0.11927783
0.096764729
0.053382486
0.023999264
0.013978429
0.0037106785
4.3360707
3.508654
8.1179472
12.096924
21.194556
2.8440838
1.6493183
6.815795
7.8118093
9.0732402
11.531409
8.6893991
12.842801
30.511835
21.064565
11.123081
14.493517
79.283511
24.012716
15.988299
31.553197
98.200917
160.51563
22.547977
61.598384
166.55583
73.694153
60.242773
49.727397
57.192484
62.120066
47.818823
59.420758
44.062128
42.157061
40.633187
38.218554
34.550931
35.404417
40.913691
65.349936
64.852522
72.615816
85.645875
105.17208
156.70159
119.43488
224.64095
198.85858
275.61099
247.54165
284.49391
295.57365
192.18289
234.58494
429.82964
374.31719
316.53532
104.05792
36.627323
59.623879
363.5865
632.10629
425.33539
62.304426
2.2168018
0.063960687
0.042390958
0.056009439
0.064975952
0.054517984
0.033040719
0.016397784
0.010475569
0.0029007315
1.3072425
1.778651
9.2525124
16.745151
22.478145
2.474915
1.565539
5.3970619
7.8373664
8.9003117
15.104547
8.7187858
19.159183
107.80143
37.275481
11.16449
12.918592
41.30972
18.892663
14.94056
21.49079
86.629959
131.98478
22.97089
55.296518
159.4898
59.563009
50.918371
78.731891
63.618468
75.896961
49.588895
59.981045
43.898092
41.968583
42.091412
40.114455
33.553563
36.476939
46.554191
80.789911
70.010483
94.349341
99.256868
113.52645
108.95756
116.47797
208.90503
197.00566
316.29979
282.39736
412.0982
423.54921
264.98892
217.93003
315.57458
565.92045
259.02886
71.67783
18.745316
26.328657
126.91697
303.28834
142.72009
11.906633
0.31724074
0.025445183
0.026192442
0.033841101
0.038407331
0.032970891
0.021271345
0.011453155
0.0079057209
0.0022706466
1.2525289
1.5684946
11.176333
20.721257
14.743107
2.5995401
1.8537167
4.6150832
7.8873384
9.3944261
21.553749
9.0031844
12.813443
104.43654
36.303308
12.693382
9.6287857
14.868097
14.457987
14.533409
21.294831
67.64481
66.875952
20.766306
47.973345
108.74766
49.319423
51.45314
46.738305
64.20773
79.547284
60.916306
59.36536
43.668041
43.144178
45.353002
43.131476
35.160894
35.605702
46.243834
76.80025
144.49452
110.81512
102.12223
140.19791
123.4688
110.31951
169.15898
189.87976
191.06899
265.64852
535.61792
478.98796
267.82555
221.9897
262.92907
482.2239
194.83838
41.982667
9.2653732
11.082634
38.214264
82.768507
32.581857
1.7916945
0.051453445
0.014620805