/*--------------------------------*- C++ -*----------------------------------*\
| =========                 |                                                 |
| \\      /  F ield         | OpenFOAM: The Open Source CFD Toolbox           |
|  \\    /   O peration     | Version:  2.3.0                                 |
|   \\  /    A nd           | Web:      www.OpenFOAM.org                      |
|    \\/     M anipulation  |                                                 |
\*---------------------------------------------------------------------------*/
FoamFile
{
    version     2.0;
    format      ascii;
    class       volScalarField;
    location    "7e-06";
    object      nuSgs;
}
// * * * * * * * * * * * * * * * * * * * * * * * * * * * * * * * * * * * * * //

dimensions      [0 2 -1 0 0 0 0];

internalField   nonuniform List<scalar> 
7500
(
4.1412517e-10
4.19274e-10
4.2451694e-10
4.3016644e-10
4.3522468e-10
4.4039355e-10
4.4595574e-10
4.5187813e-10
4.5915643e-10
4.6507222e-10
4.7044944e-10
4.7618466e-10
4.8259314e-10
4.8896574e-10
4.9559009e-10
5.0130264e-10
5.0814349e-10
5.1543177e-10
5.2256613e-10
5.3155636e-10
5.3871374e-10
5.4597501e-10
5.5239163e-10
5.5997325e-10
5.6693965e-10
5.7650494e-10
5.8247765e-10
5.9268338e-10
5.9972884e-10
6.0883528e-10
6.2224199e-10
6.3820593e-10
6.5903889e-10
6.8592372e-10
7.0545729e-10
7.25595e-10
7.5858649e-10
7.7019208e-10
7.8823346e-10
8.154898e-10
8.5259796e-10
8.8295477e-10
9.4031261e-10
9.8960853e-10
1.0467297e-09
1.0807286e-09
1.1379282e-09
1.1823238e-09
1.2561019e-09
1.3402987e-09
1.3922115e-09
1.4612847e-09
1.5800397e-09
1.8803122e-09
2.1022357e-09
2.2007607e-09
2.2862624e-09
2.4489969e-09
2.771567e-09
3.3324277e-09
3.8681844e-09
4.4839969e-09
5.8864542e-09
1.0179599e-08
2.2132064e-08
5.0492977e-08
1.1486604e-07
2.6684909e-07
4.7974076e-07
4.9545934e-07
3.530334e-07
1.9701328e-07
1.0528803e-07
5.2285207e-08
2.082503e-08
4.5553958e-10
4.6141863e-10
4.6748915e-10
4.7326651e-10
4.790098e-10
4.8482656e-10
4.9121238e-10
4.971408e-10
5.0395528e-10
5.0959931e-10
5.1518322e-10
5.2118048e-10
5.2751646e-10
5.3419585e-10
5.4179896e-10
5.4891688e-10
5.561766e-10
5.6293127e-10
5.7249687e-10
5.8200612e-10
5.8937973e-10
5.9670644e-10
6.0496255e-10
6.1547073e-10
6.2539723e-10
6.3389257e-10
6.4502616e-10
6.6538866e-10
6.8407538e-10
7.0359232e-10
7.2433873e-10
7.4771429e-10
7.7783473e-10
7.965277e-10
8.3056306e-10
8.5861573e-10
8.8683347e-10
9.2331193e-10
9.4487842e-10
9.8477687e-10
1.0303583e-09
1.0973722e-09
1.1522377e-09
1.1853016e-09
1.2305284e-09
1.3234957e-09
1.4494572e-09
1.5337948e-09
1.6013289e-09
1.7398254e-09
1.841223e-09
1.9260632e-09
2.0639671e-09
2.3685635e-09
2.8684957e-09
3.0895185e-09
3.2015773e-09
3.405873e-09
3.8007821e-09
4.9727784e-09
6.2411509e-09
6.8145417e-09
7.6225189e-09
9.9205787e-09
1.7751341e-08
3.9248112e-08
9.1317444e-08
2.0892297e-07
4.5001258e-07
5.6372099e-07
5.0593308e-07
3.0466792e-07
1.6031822e-07
7.5615819e-08
2.9000028e-08
5.0109301e-10
5.0747715e-10
5.1414331e-10
5.2052042e-10
5.2684329e-10
5.3311919e-10
5.3987037e-10
5.4668891e-10
5.5462949e-10
5.6133621e-10
5.6776445e-10
5.7530289e-10
5.832924e-10
5.9051707e-10
5.996864e-10
6.0752985e-10
6.1735828e-10
6.2442884e-10
6.3439472e-10
6.4656264e-10
6.5559113e-10
6.6457095e-10
6.7423566e-10
6.9026449e-10
7.06884e-10
7.2745416e-10
7.5952762e-10
8.0847117e-10
8.6464491e-10
9.1969532e-10
9.5983725e-10
1.0128556e-09
1.0663933e-09
1.1007525e-09
1.1626856e-09
1.2184199e-09
1.2970741e-09
1.3481023e-09
1.3973623e-09
1.5094426e-09
1.5833232e-09
1.7244313e-09
1.848823e-09
1.9275148e-09
2.0598427e-09
2.2982067e-09
2.6413915e-09
2.8560246e-09
2.9810994e-09
3.1813955e-09
3.5956284e-09
3.8614977e-09
4.1554352e-09
4.7467948e-09
5.7548943e-09
6.282667e-09
6.5055339e-09
6.7951199e-09
7.4871317e-09
9.7873002e-09
1.340011e-08
1.4815339e-08
1.5439048e-08
1.6311158e-08
1.8754143e-08
2.8417708e-08
5.9034214e-08
1.3765881e-07
3.3788381e-07
5.2200264e-07
5.2650775e-07
3.8173471e-07
2.027752e-07
9.5715144e-08
3.6568432e-08
5.5117863e-10
5.5802119e-10
5.6527545e-10
5.7217854e-10
5.7928542e-10
5.8641152e-10
5.9392124e-10
6.0216426e-10
6.1058793e-10
6.1793438e-10
6.271994e-10
6.3578481e-10
6.4970143e-10
6.5930151e-10
6.7123171e-10
6.8077262e-10
6.909952e-10
7.0010472e-10
7.1237906e-10
7.3103952e-10
7.4531363e-10
7.6015251e-10
7.8209598e-10
8.079818e-10
8.3701821e-10
8.8402e-10
9.8788122e-10
1.0727835e-09
1.2358799e-09
1.3273158e-09
1.3919729e-09
1.5359676e-09
1.6146665e-09
1.7522153e-09
1.8701897e-09
1.9721929e-09
2.1800745e-09
2.3082898e-09
2.4906095e-09
2.8673231e-09
3.0526377e-09
3.3539904e-09
3.5445632e-09
3.8171124e-09
4.3091743e-09
4.8150498e-09
5.7827709e-09
6.4359044e-09
6.7468467e-09
7.1549738e-09
8.1212618e-09
9.1390587e-09
9.8973039e-09
1.130108e-08
1.3465285e-08
1.4591558e-08
1.5029888e-08
1.5552686e-08
1.7039144e-08
2.2436804e-08
3.0614007e-08
3.3777621e-08
3.4725398e-08
3.5316953e-08
3.6111004e-08
3.8977527e-08
5.207173e-08
9.3795161e-08
2.0273767e-07
4.3200124e-07
5.2571215e-07
4.5370848e-07
2.5252473e-07
1.1978507e-07
4.5594412e-08
5.9745407e-10
6.0538445e-10
6.1376225e-10
6.2197921e-10
6.3098345e-10
6.4049565e-10
6.4985078e-10
6.6236028e-10
6.7276085e-10
6.818648e-10
6.932234e-10
7.0629125e-10
7.2220788e-10
7.3922257e-10
7.5117513e-10
7.6691732e-10
7.7967449e-10
7.9380216e-10
8.1815736e-10
8.5283693e-10
8.8116085e-10
9.2346639e-10
9.6154349e-10
1.0244891e-09
1.1090476e-09
1.19881e-09
1.3698273e-09
1.5465049e-09
1.8713567e-09
2.1237407e-09
2.2928334e-09
2.6422202e-09
2.8910582e-09
3.3174272e-09
3.7032357e-09
3.9842788e-09
4.4456922e-09
4.9545013e-09
5.6652234e-09
6.5938649e-09
7.1764139e-09
7.828986e-09
8.2313565e-09
8.8382307e-09
1.0792691e-08
1.2312149e-08
1.4265061e-08
1.6155834e-08
1.6970628e-08
1.7854433e-08
1.960297e-08
2.3532068e-08
2.5522675e-08
2.7897627e-08
3.1787196e-08
3.4338077e-08
3.5243995e-08
3.629218e-08
3.9585069e-08
5.2050625e-08
6.8595615e-08
7.4205146e-08
7.5261566e-08
7.5287272e-08
7.4129747e-08
7.4142498e-08
7.872359e-08
1.0195875e-07
1.6900734e-07
3.3372396e-07
5.2000065e-07
5.2053863e-07
3.3421082e-07
1.5424698e-07
5.772141e-08
6.3151206e-10
6.4083593e-10
6.5235405e-10
6.6386206e-10
6.7758611e-10
6.9119307e-10
7.081555e-10
7.2911113e-10
7.4598519e-10
7.5965743e-10
7.743599e-10
7.9279433e-10
8.0759824e-10
8.3266246e-10
8.5501156e-10
8.8424471e-10
9.0700585e-10
9.3729914e-10
1.0066458e-09
1.0705315e-09
1.144392e-09
1.2587626e-09
1.4251961e-09
1.6287052e-09
1.8342542e-09
2.1666723e-09
2.5723656e-09
2.991318e-09
3.8135995e-09
4.3427567e-09
4.9343906e-09
6.2195716e-09
7.1988127e-09
8.9159123e-09
9.8078388e-09
1.0554208e-08
1.180595e-08
1.3209173e-08
1.5925962e-08
1.7957593e-08
1.8989393e-08
2.0838566e-08
2.1910872e-08
2.3626238e-08
2.8482911e-08
3.4130306e-08
3.7799906e-08
4.1198733e-08
4.3951432e-08
4.5738285e-08
4.9086752e-08
5.7423121e-08
6.3808168e-08
6.7530433e-08
7.2882904e-08
7.7484842e-08
7.955877e-08
8.1994853e-08
8.9051637e-08
1.1490159e-07
1.4450474e-07
1.5342706e-07
1.5474711e-07
1.5390622e-07
1.4662379e-07
1.3961852e-07
1.3986121e-07
1.5103116e-07
1.9936511e-07
3.2547877e-07
4.9460611e-07
5.4647438e-07
4.2085153e-07
1.9680322e-07
7.2649608e-08
6.5897453e-10
6.8169044e-10
7.1657746e-10
7.3342071e-10
7.5931194e-10
7.8825922e-10
8.2638927e-10
8.7236499e-10
9.0544295e-10
9.3487013e-10
9.6182098e-10
9.8404239e-10
1.0156075e-09
1.0628188e-09
1.112832e-09
1.1971743e-09
1.2736095e-09
1.385664e-09
1.6762284e-09
1.9082463e-09
2.2325216e-09
2.700249e-09
3.5242464e-09
4.1558589e-09
4.7944902e-09
6.0077436e-09
7.2272656e-09
8.5568544e-09
1.1236977e-08
1.2820761e-08
1.4420984e-08
1.7914723e-08
2.0688802e-08
2.5265626e-08
2.7810542e-08
3.0245621e-08
3.324262e-08
3.8080691e-08
4.5447982e-08
4.9697854e-08
5.2012378e-08
5.5933343e-08
5.8591615e-08
6.3213764e-08
7.3391334e-08
8.7355512e-08
9.5628222e-08
9.9906366e-08
1.0477505e-07
1.0976362e-07
1.1636387e-07
1.2959647e-07
1.4320099e-07
1.4828925e-07
1.5429239e-07
1.6045228e-07
1.6509982e-07
1.7052867e-07
1.8507977e-07
2.3487596e-07
2.8118617e-07
2.9294725e-07
2.9462139e-07
2.9312392e-07
2.7734323e-07
2.5097339e-07
2.4062992e-07
2.4566653e-07
2.8200382e-07
3.9758066e-07
5.2129745e-07
5.616995e-07
4.7253669e-07
2.3792736e-07
8.9199955e-08
6.9899438e-10
8.2825294e-10
9.1828314e-10
9.3417532e-10
9.6562584e-10
1.0160155e-09
1.0994156e-09
1.1711952e-09
1.2367236e-09
1.3060678e-09
1.367749e-09
1.4146076e-09
1.4870982e-09
1.6018847e-09
1.756158e-09
2.1256858e-09
2.4907281e-09
3.0264037e-09
4.2408244e-09
5.1944137e-09
6.3582878e-09
8.0306519e-09
1.0804728e-08
1.2620345e-08
1.4610025e-08
1.8579431e-08
2.1915551e-08
2.5481017e-08
3.271732e-08
3.6950684e-08
4.1261568e-08
5.0469515e-08
5.8626284e-08
6.883612e-08
7.5308431e-08
8.0574396e-08
8.7080842e-08
9.8975432e-08
1.146359e-07
1.2333879e-07
1.2811546e-07
1.3664809e-07
1.4246361e-07
1.5288133e-07
1.7581777e-07
1.9645211e-07
2.1357002e-07
2.2046689e-07
2.2538028e-07
2.3341107e-07
2.4631307e-07
2.629404e-07
2.8374082e-07
2.9122719e-07
2.9576258e-07
3.0149306e-07
3.0971137e-07
3.1975029e-07
3.4794149e-07
4.4145043e-07
5.1317916e-07
5.2588223e-07
5.2684299e-07
5.2579306e-07
5.0724104e-07
4.4357587e-07
4.0090205e-07
3.9379636e-07
4.1466195e-07
5.1487539e-07
6.1518849e-07
6.5386894e-07
5.8013222e-07
2.952129e-07
1.0787432e-07
7.4195445e-10
1.0385486e-09
1.1388281e-09
1.1594779e-09
1.2024121e-09
1.2930121e-09
1.5055354e-09
1.6514392e-09
1.8824726e-09
2.0513196e-09
2.1811116e-09
2.3212672e-09
2.5727614e-09
3.0078711e-09
3.6379014e-09
5.0395857e-09
6.6008415e-09
8.4814214e-09
1.2304389e-08
1.5694607e-08
1.9031385e-08
2.3994138e-08
3.1748494e-08
3.627318e-08
4.1720722e-08
5.2574805e-08
6.0604474e-08
6.925488e-08
8.6616479e-08
9.6572206e-08
1.0632314e-07
1.2777216e-07
1.4782276e-07
1.6586427e-07
1.8146172e-07
1.9334782e-07
2.0601884e-07
2.2956403e-07
2.6011533e-07
2.740376e-07
2.8263269e-07
2.9908174e-07
3.0993852e-07
3.3020734e-07
3.7000324e-07
4.0027641e-07
4.2283277e-07
4.3492259e-07
4.3921862e-07
4.4644713e-07
4.6344046e-07
4.7889835e-07
5.0371142e-07
5.164136e-07
5.1908061e-07
5.2427641e-07
5.3424956e-07
5.5184655e-07
6.0601823e-07
7.8607698e-07
9.0022518e-07
9.1089477e-07
9.0014942e-07
9.0745818e-07
9.0281231e-07
8.0960294e-07
6.7472245e-07
6.2906393e-07
6.3942278e-07
7.1292717e-07
8.7431431e-07
1.0004224e-06
7.6321025e-07
3.3517989e-07
1.1601864e-07
7.4339849e-10
1.0771494e-09
1.1876372e-09
1.3360881e-09
1.4375317e-09
1.6480685e-09
2.0207616e-09
2.6900507e-09
2.9490604e-09
3.3926958e-09
3.8154269e-09
4.3957748e-09
5.4606256e-09
7.2120465e-09
9.4698733e-09
1.3802955e-08
1.9375673e-08
2.4447883e-08
3.4252684e-08
4.4652816e-08
5.2809888e-08
6.5603279e-08
8.3914196e-08
9.4412839e-08
1.0758537e-07
1.3222388e-07
1.4866818e-07
1.6777172e-07
2.0471467e-07
2.2498407e-07
2.4429736e-07
2.8772169e-07
3.3067244e-07
3.5549045e-07
3.8867803e-07
4.1454733e-07
4.3427481e-07
4.6995589e-07
5.2575356e-07
5.4955288e-07
5.6470142e-07
5.9613245e-07
6.1229657e-07
6.4240309e-07
6.9527999e-07
7.3777505e-07
7.6258017e-07
7.7370079e-07
7.7482309e-07
7.8072435e-07
7.8891184e-07
8.1112132e-07
8.3977946e-07
8.5999941e-07
8.6366322e-07
8.706325e-07
8.8879432e-07
9.2939439e-07
1.0492782e-06
1.3640735e-06
1.5091214e-06
1.5154221e-06
1.4881501e-06
1.5273134e-06
1.6141586e-06
1.5471556e-06
1.2256359e-06
9.9868996e-07
9.6752038e-07
1.0862129e-06
1.3828388e-06
1.3456941e-06
7.6732831e-07
3.2314857e-07
1.1083097e-07
7.1565141e-10
8.5120309e-10
9.6594405e-10
1.3782143e-09
1.6705205e-09
1.9958159e-09
2.4687417e-09
3.5025238e-09
4.1893154e-09
5.247475e-09
7.0394646e-09
9.4469728e-09
1.3279941e-08
1.9288526e-08
2.5684023e-08
3.6959376e-08
5.3746111e-08
6.567202e-08
8.748539e-08
1.1434406e-07
1.3190356e-07
1.6116064e-07
1.9671045e-07
2.2085979e-07
2.4901356e-07
2.9485976e-07
3.2700022e-07
3.6282874e-07
4.3251939e-07
4.7210531e-07
5.0564239e-07
5.8357987e-07
6.631876e-07
6.9641046e-07
7.4883466e-07
8.026385e-07
8.3348459e-07
8.8318504e-07
9.9021097e-07
1.0365658e-06
1.0589909e-06
1.1038937e-06
1.1202306e-06
1.1475028e-06
1.2092695e-06
1.2706929e-06
1.2922109e-06
1.2982048e-06
1.2872562e-06
1.2828572e-06
1.2827939e-06
1.3331369e-06
1.4683344e-06
1.4902561e-06
1.477642e-06
1.4768918e-06
1.5150699e-06
1.6149742e-06
1.8720376e-06
2.2719332e-06
2.3602493e-06
2.3190105e-06
2.3002456e-06
2.3843874e-06
2.7736458e-06
2.7551412e-06
2.3305221e-06
1.7035999e-06
1.4047474e-06
1.4553483e-06
1.704282e-06
1.3865806e-06
6.8246013e-07
2.8594102e-07
9.9336208e-08
7.1939696e-10
8.2958511e-10
9.5676006e-10
1.2370337e-09
1.6651334e-09
2.3662306e-09
3.7954126e-09
5.3541174e-09
7.8514395e-09
1.1392464e-08
1.7231619e-08
2.4067768e-08
3.4748781e-08
5.1158744e-08
6.6820999e-08
9.2876425e-08
1.3366887e-07
1.5918399e-07
2.0130592e-07
2.6147023e-07
2.9534021e-07
3.5536623e-07
4.0940368e-07
4.7163653e-07
5.1927146e-07
5.8905165e-07
6.6043645e-07
7.148282e-07
8.3035735e-07
9.1650923e-07
9.7221639e-07
1.0992585e-06
1.225981e-06
1.2740182e-06
1.3443877e-06
1.4611606e-06
1.5359236e-06
1.6352035e-06
1.8349689e-06
1.9210352e-06
1.9301163e-06
1.9446324e-06
1.93262e-06
1.9862493e-06
2.0735969e-06
2.178483e-06
2.2188208e-06
2.1514108e-06
2.1756184e-06
2.157871e-06
2.106048e-06
2.4121501e-06
3.007274e-06
2.9488281e-06
2.7795185e-06
2.5493556e-06
2.5798827e-06
2.9508516e-06
2.9992617e-06
3.2000958e-06
3.1991413e-06
3.1903295e-06
3.396854e-06
3.3785491e-06
3.3329933e-06
3.3307543e-06
3.0853201e-06
2.3550433e-06
1.8213684e-06
1.6805436e-06
1.6483123e-06
1.1583823e-06
5.5028851e-07
2.3494469e-07
8.4537204e-08
8.2165342e-10
1.2813268e-09
1.6791813e-09
2.2465511e-09
2.9903092e-09
4.4918631e-09
7.7202653e-09
1.2513703e-08
1.9315042e-08
2.8658731e-08
4.4944868e-08
6.1580241e-08
8.8445566e-08
1.2516927e-07
1.589623e-07
2.1226083e-07
2.9569896e-07
3.4435384e-07
4.1649121e-07
5.3791664e-07
5.9759659e-07
7.0569791e-07
7.8689934e-07
9.2018005e-07
9.9572792e-07
1.1012481e-06
1.2361599e-06
1.3296683e-06
1.5369761e-06
1.7277578e-06
1.8230939e-06
1.9974269e-06
2.1673194e-06
2.2626665e-06
2.3963312e-06
2.7782818e-06
3.0579157e-06
3.1593095e-06
3.4789831e-06
3.6196905e-06
3.490881e-06
3.3030201e-06
3.2410194e-06
3.8410143e-06
3.8306207e-06
3.8719702e-06
4.1143599e-06
3.7652064e-06
3.839758e-06
4.1228451e-06
3.6884276e-06
3.813922e-06
4.8672423e-06
4.7521633e-06
4.0781888e-06
3.5559393e-06
3.5085622e-06
3.5792777e-06
3.5639937e-06
3.5892092e-06
3.5655187e-06
3.5416969e-06
3.6464206e-06
3.8244162e-06
4.1119704e-06
3.9563864e-06
3.5268156e-06
3.1709315e-06
2.6815113e-06
2.1626734e-06
1.6483889e-06
9.5012101e-07
4.4916815e-07
1.9872257e-07
7.558332e-08
8.6986511e-10
1.4850347e-09
2.0543542e-09
3.7782612e-09
6.0526871e-09
1.0383667e-08
1.7606039e-08
2.933785e-08
4.5983147e-08
6.849885e-08
1.0870063e-07
1.4496314e-07
2.0848213e-07
2.735579e-07
3.4624137e-07
4.4595563e-07
5.9521421e-07
6.8397669e-07
8.0376968e-07
1.020276e-06
1.1223176e-06
1.3101313e-06
1.4529337e-06
1.6923555e-06
1.8236967e-06
2.028275e-06
2.2414708e-06
2.4761311e-06
2.983638e-06
3.306338e-06
3.4958892e-06
3.5833203e-06
3.8586807e-06
4.3061991e-06
4.5491423e-06
6.4070442e-06
6.5174805e-06
6.1777824e-06
6.8842725e-06
6.2622029e-06
5.4698652e-06
5.5614025e-06
5.3484277e-06
6.4845326e-06
6.5716599e-06
5.3920016e-06
5.6937505e-06
5.3145383e-06
5.2501264e-06
5.4715852e-06
5.980744e-06
5.0196972e-06
4.6470008e-06
4.9473143e-06
4.5819226e-06
4.128752e-06
4.3603749e-06
4.1930747e-06
3.9072918e-06
4.3558415e-06
4.1456811e-06
4.1618476e-06
4.1855354e-06
4.2931252e-06
4.7356863e-06
4.6469523e-06
4.1368012e-06
4.3647195e-06
4.2435677e-06
3.3630371e-06
1.8939068e-06
9.403331e-07
4.1925279e-07
1.8590138e-07
7.31516e-08
7.7727174e-10
1.4388549e-09
2.8034881e-09
6.8197913e-09
1.3519815e-08
2.4747546e-08
4.2252808e-08
6.8725739e-08
1.0590791e-07
1.5464285e-07
2.425122e-07
3.1404752e-07
4.4248231e-07
5.4452054e-07
7.1128165e-07
8.5563608e-07
1.1134182e-06
1.2774769e-06
1.4792728e-06
1.8507502e-06
2.0407842e-06
2.4209686e-06
2.6566552e-06
3.1471845e-06
3.3865053e-06
3.8695767e-06
4.2674672e-06
5.0600479e-06
6.219496e-06
6.5092904e-06
6.8227107e-06
6.4151852e-06
8.2635869e-06
8.2332205e-06
9.1255414e-06
1.3328066e-05
1.0262177e-05
1.0022463e-05
9.549484e-06
6.498144e-06
6.284187e-06
6.5030379e-06
6.8839957e-06
6.964804e-06
6.0130608e-06
4.8599043e-06
4.0201426e-06
5.2875097e-06
5.2537211e-06
4.1817762e-06
5.10173e-06
4.5675528e-06
4.218948e-06
4.591939e-06
4.8642486e-06
4.5682515e-06
4.777248e-06
4.8773842e-06
4.5711905e-06
4.5560849e-06
4.6823107e-06
4.8771502e-06
5.3286948e-06
5.3333242e-06
5.3501873e-06
5.0518899e-06
4.774271e-06
4.5289531e-06
3.8897878e-06
2.8693978e-06
1.7078335e-06
8.4141775e-07
3.8571363e-07
1.7745187e-07
7.2562034e-08
6.6684649e-10
1.9846361e-09
6.1109181e-09
1.5222571e-08
3.1081293e-08
5.6667561e-08
9.5418621e-08
1.5305236e-07
2.3083054e-07
3.2641798e-07
4.9779082e-07
6.2596713e-07
8.4955004e-07
1.0267226e-06
1.3439615e-06
1.5695239e-06
2.034219e-06
2.327296e-06
2.690165e-06
3.4063245e-06
3.808436e-06
4.6529792e-06
4.9447841e-06
6.4041489e-06
6.6514084e-06
7.9506397e-06
8.680899e-06
1.0893253e-05
1.0817458e-05
1.069626e-05
9.4568275e-06
8.8403514e-06
1.3131701e-05
1.1570102e-05
1.2040953e-05
1.0368409e-05
5.6034982e-06
5.894907e-06
4.7170318e-06
3.7023641e-06
3.515101e-06
3.7255881e-06
4.6246307e-06
4.2672354e-06
4.0175993e-06
3.5725515e-06
3.6228539e-06
3.9623276e-06
3.896144e-06
3.908937e-06
3.7039795e-06
4.7531102e-06
4.4294885e-06
4.5959698e-06
5.8401605e-06
5.4194042e-06
4.9833735e-06
5.4385432e-06
5.2021031e-06
5.2790007e-06
5.4153994e-06
5.786184e-06
6.7256901e-06
6.4882754e-06
5.967291e-06
5.2608676e-06
4.7621744e-06
4.6710458e-06
4.3332359e-06
3.1398547e-06
1.7863613e-06
8.7107916e-07
3.9352338e-07
1.7982831e-07
7.476925e-08
6.3147964e-10
4.8493671e-09
1.5302368e-08
3.6423853e-08
7.0654129e-08
1.2413865e-07
2.0261951e-07
3.2130177e-07
4.6192366e-07
6.4467981e-07
9.4455341e-07
1.1608651e-06
1.5338542e-06
1.8571729e-06
2.4479368e-06
2.8238593e-06
3.828899e-06
4.2775816e-06
5.1563457e-06
6.7801871e-06
7.6983338e-06
9.3068897e-06
9.4855542e-06
1.1408827e-05
1.195867e-05
1.2715624e-05
1.294742e-05
1.2527003e-05
8.7893951e-06
7.0079287e-06
4.4006724e-06
5.472152e-06
5.4099388e-06
8.9508083e-06
7.9481396e-06
5.7063993e-06
3.8440225e-06
3.5232817e-06
3.4162148e-06
3.5547047e-06
4.0259392e-06
4.6613427e-06
4.5341022e-06
4.0657557e-06
4.1407727e-06
4.0226542e-06
3.877956e-06
3.6978173e-06
3.9530814e-06
4.0393522e-06
3.8824052e-06
3.9756738e-06
4.2321733e-06
5.0761769e-06
5.2269952e-06
5.4130233e-06
5.0057113e-06
5.138788e-06
5.4753324e-06
6.3286644e-06
6.5568382e-06
8.687419e-06
1.1997841e-05
1.1076939e-05
8.6799642e-06
6.3434076e-06
4.9741747e-06
5.142424e-06
5.5430972e-06
3.6491434e-06
1.8243517e-06
8.7243886e-07
3.9734234e-07
1.8558425e-07
7.9967726e-08
2.5567676e-10
1.2294013e-08
3.6502912e-08
8.2217464e-08
1.5209766e-07
2.5600588e-07
4.0364689e-07
6.2228757e-07
8.6436924e-07
1.2167582e-06
1.6760463e-06
2.0640725e-06
2.7325023e-06
3.3820996e-06
4.5437204e-06
5.1687802e-06
7.7433869e-06
8.2297371e-06
1.1004685e-05
1.1760463e-05
1.3467961e-05
1.1565388e-05
1.2122311e-05
1.1290253e-05
1.2924598e-05
9.1387381e-06
6.3569709e-06
4.6643792e-06
3.5452848e-06
3.0198442e-06
2.8668866e-06
3.197631e-06
7.4803102e-06
4.4435773e-06
4.6013322e-06
3.8881192e-06
3.3541094e-06
3.2286145e-06
3.2995483e-06
3.952118e-06
1.1066419e-05
9.001461e-06
5.2783421e-06
4.7098481e-06
4.6268797e-06
4.0391393e-06
3.8029031e-06
3.8359098e-06
4.1157096e-06
4.4873985e-06
4.6639353e-06
4.3541814e-06
4.6356006e-06
5.2302673e-06
5.5008828e-06
5.4119269e-06
5.0207881e-06
5.1931213e-06
7.0333653e-06
9.5343415e-06
1.1037529e-05
1.372082e-05
1.7314769e-05
1.5075755e-05
1.1115337e-05
8.4235762e-06
5.7303257e-06
5.7208365e-06
7.9941219e-06
5.0165119e-06
2.1790036e-06
9.7990939e-07
4.5559248e-07
2.1859412e-07
9.6803555e-08
1.7716889e-09
2.947313e-08
8.1733846e-08
1.7323157e-07
3.0552753e-07
4.9429615e-07
7.5604813e-07
1.129302e-06
1.5541582e-06
2.2028546e-06
2.8937957e-06
3.7099073e-06
5.0768278e-06
6.4970124e-06
8.8187978e-06
1.0189621e-05
1.2847347e-05
1.2477133e-05
1.468955e-05
1.1080713e-05
9.8720916e-06
4.6262498e-06
5.6429689e-06
4.644087e-06
4.7132243e-06
3.4133059e-06
3.1614809e-06
4.2634396e-06
3.3876188e-06
2.6085757e-06
2.6305284e-06
2.8687492e-06
4.5442309e-06
3.8977584e-06
3.6970998e-06
3.2844873e-06
3.0268487e-06
3.0490821e-06
3.3705713e-06
4.2538052e-06
8.5768775e-06
8.0872118e-06
6.62087e-06
6.0583977e-06
5.290923e-06
4.3383021e-06
4.0591476e-06
4.3226517e-06
5.0339148e-06
5.195396e-06
5.116989e-06
4.5744345e-06
4.5517869e-06
5.1848167e-06
6.0975704e-06
5.782089e-06
5.8879423e-06
6.4697483e-06
1.0694734e-05
1.1754163e-05
1.6987186e-05
1.7151344e-05
1.3151652e-05
1.5010694e-05
1.2443614e-05
1.0536516e-05
7.3258231e-06
6.0112052e-06
8.3390565e-06
7.9047944e-06
3.7713158e-06
1.5454968e-06
6.945905e-07
3.1437827e-07
1.304392e-07
7.1663587e-09
6.7439794e-08
1.7247399e-07
3.4227508e-07
5.7464342e-07
8.9774833e-07
1.3508136e-06
1.9874094e-06
2.7649249e-06
3.8946769e-06
5.2219256e-06
7.1958159e-06
1.0073316e-05
1.1344393e-05
1.282499e-05
1.4198771e-05
1.0667186e-05
1.0053921e-05
7.1274513e-06
4.4374745e-06
3.27192e-06
1.9895761e-06
2.4661523e-06
4.7563546e-06
4.7957329e-06
2.9107114e-06
2.8837581e-06
2.8280649e-06
2.6492254e-06
2.4561178e-06
2.474855e-06
2.6231286e-06
3.4002749e-06
3.0153291e-06
2.8569455e-06
3.2852774e-06
3.1146583e-06
2.9039962e-06
3.1016373e-06
3.3968387e-06
1.5309115e-05
1.2933817e-05
9.6851883e-06
6.8128028e-06
5.9721289e-06
4.9131469e-06
4.7353182e-06
5.5539057e-06
5.9318128e-06
5.4835561e-06
5.2558622e-06
4.9457484e-06
4.966399e-06
5.4700127e-06
6.3084036e-06
6.2717274e-06
6.7291277e-06
6.9432264e-06
8.3391356e-06
1.1647946e-05
1.1737861e-05
8.7136088e-06
4.9524293e-06
1.1912844e-05
1.3105453e-05
1.1956359e-05
8.9894011e-06
6.4656691e-06
6.8582157e-06
8.4535703e-06
7.2209858e-06
3.1563301e-06
1.3330256e-06
5.3439672e-07
1.9680727e-07
2.1610792e-08
1.4510867e-07
3.4165695e-07
6.3446049e-07
1.0190793e-06
1.5603652e-06
2.3634268e-06
3.5345335e-06
5.0151674e-06
7.3014339e-06
1.0281626e-05
1.2332842e-05
1.253728e-05
1.1061019e-05
8.8804689e-06
9.5748988e-06
3.9146434e-06
5.1366785e-06
4.734556e-06
3.3182527e-06
2.2209551e-06
1.8037344e-06
2.2462109e-06
6.6502948e-06
4.3867e-06
3.069675e-06
2.1838531e-06
3.2375553e-06
2.5274366e-06
2.2524303e-06
2.1972853e-06
2.3082518e-06
3.1168141e-06
3.0523353e-06
2.996784e-06
3.1403548e-06
3.1362954e-06
3.1387923e-06
3.620355e-06
3.805629e-06
8.292128e-06
1.323873e-05
1.1315798e-05
7.1520104e-06
6.5364679e-06
6.0202534e-06
5.1319977e-06
5.5243214e-06
5.8789207e-06
5.8334874e-06
5.3025667e-06
5.4071543e-06
5.3368939e-06
5.9341149e-06
6.3935792e-06
6.4923186e-06
6.2086724e-06
6.6547845e-06
9.2350198e-06
9.1845297e-06
9.2805894e-06
5.6868806e-06
2.8356462e-06
5.8880013e-06
1.1079647e-05
1.1219638e-05
1.0857271e-05
7.8882857e-06
6.4291162e-06
7.2612e-06
9.3607581e-06
7.9557634e-06
3.1064242e-06
1.0532099e-06
3.2026249e-07
5.6750752e-08
2.9410899e-07
6.3479659e-07
1.1092932e-06
1.727732e-06
2.6648336e-06
4.1952607e-06
6.5914373e-06
9.6516224e-06
1.1307755e-05
1.2344894e-05
1.221167e-05
6.6777253e-06
3.9738041e-06
3.3299813e-06
3.8263788e-06
1.3147432e-06
2.6848178e-06
3.2935736e-06
3.1413606e-06
2.4113544e-06
2.2631587e-06
2.7620895e-06
4.6652244e-06
2.9581342e-06
2.6951384e-06
2.098908e-06
2.6506722e-06
2.2400126e-06
2.4012095e-06
2.2966952e-06
2.4031906e-06
3.7482539e-06
3.2625642e-06
3.5204342e-06
3.2330177e-06
2.9075538e-06
3.022427e-06
3.8028718e-06
4.031467e-06
5.87803e-06
6.3989337e-06
6.7063538e-06
5.1325829e-06
6.457231e-06
6.8591038e-06
5.8998431e-06
5.763223e-06
6.4608422e-06
6.5169841e-06
6.0561272e-06
6.3496109e-06
6.3182004e-06
6.528513e-06
6.3503616e-06
6.3348774e-06
6.6700434e-06
7.5442684e-06
1.5181373e-05
2.0377279e-05
1.2211723e-05
3.5320796e-06
2.3274505e-06
3.3290748e-06
8.4174525e-06
1.0168112e-05
1.3112542e-05
1.2093231e-05
7.8334507e-06
6.9644394e-06
8.0296663e-06
7.5526413e-06
4.15377e-06
1.4007966e-06
3.8711323e-07
1.3572757e-07
5.6144433e-07
1.1117128e-06
1.8537388e-06
2.8678022e-06
4.6264836e-06
7.9476953e-06
1.0818809e-05
1.2208467e-05
1.0349879e-05
7.7001618e-06
5.25727e-06
2.315116e-06
1.8200904e-06
1.9314092e-06
2.2799905e-06
9.6007943e-07
1.6611793e-06
2.5627632e-06
2.8678046e-06
2.229029e-06
2.6501052e-06
2.6015874e-06
5.7349751e-06
2.9350585e-06
2.32749e-06
2.1313577e-06
2.1534087e-06
1.9514144e-06
2.2987499e-06
2.4251834e-06
2.581184e-06
3.8051307e-06
3.7555958e-06
3.9859291e-06
3.1400346e-06
2.8775971e-06
3.1482731e-06
3.969991e-06
3.7922839e-06
5.1262326e-06
5.3165968e-06
5.1685125e-06
4.9782843e-06
6.7351191e-06
7.1493065e-06
6.1620166e-06
6.0311581e-06
7.2898573e-06
6.9599764e-06
6.4680292e-06
6.8685718e-06
6.8719282e-06
6.7815845e-06
6.313771e-06
6.1476873e-06
6.0789201e-06
7.4056071e-06
1.3920695e-05
1.5899057e-05
7.9173486e-06
2.3765528e-06
2.4501423e-06
2.2520725e-06
4.5298456e-06
6.4217574e-06
9.5892599e-06
1.5122326e-05
1.2426045e-05
8.0763357e-06
7.6365084e-06
7.0196827e-06
4.0513247e-06
1.436794e-06
3.8620816e-07
3.0195712e-07
1.0112318e-06
1.8535366e-06
3.0213363e-06
4.8226704e-06
8.5943509e-06
1.0880048e-05
1.079979e-05
7.4984798e-06
5.3507751e-06
4.8008103e-06
3.4278795e-06
1.5822601e-06
1.687269e-06
1.6875032e-06
1.939793e-06
9.0498373e-07
1.1329993e-06
2.44287e-06
2.3790655e-06
1.618774e-06
2.5782303e-06
2.452779e-06
2.4686599e-06
1.9202524e-06
1.9098371e-06
2.0424925e-06
2.215021e-06
2.0202216e-06
2.1570097e-06
2.4829445e-06
2.6951456e-06
3.5357853e-06
3.7840696e-06
3.6731223e-06
2.961396e-06
2.9942758e-06
2.9360248e-06
3.7991016e-06
3.6843212e-06
4.5041876e-06
5.7578557e-06
6.5453581e-06
6.002001e-06
7.2454485e-06
7.6588937e-06
6.3957222e-06
7.6527243e-06
8.3317767e-06
7.4592634e-06
6.842208e-06
7.0334949e-06
7.1884026e-06
6.9990698e-06
6.5214106e-06
6.2067153e-06
6.5298411e-06
9.4306524e-06
1.2379483e-05
9.5257123e-06
3.5820557e-06
3.0959236e-06
3.8165065e-06
2.1352397e-06
2.3753246e-06
3.4524904e-06
5.1583449e-06
1.2180607e-05
1.6215307e-05
1.294001e-05
9.5779092e-06
8.2531248e-06
4.1948862e-06
1.3551356e-06
3.3817195e-07
6.3147431e-07
1.7285719e-06
2.9827552e-06
4.9600418e-06
8.5915934e-06
1.0898678e-05
8.9312487e-06
5.7364298e-06
3.1903178e-06
3.064192e-06
3.3282516e-06
3.4362519e-06
1.672057e-06
1.2754773e-06
1.4269647e-06
1.2365102e-06
8.7748536e-07
1.2835019e-06
1.8061707e-06
2.3283369e-06
1.5463237e-06
2.2387773e-06
2.4902626e-06
2.1211814e-06
1.8259283e-06
1.9262957e-06
2.3094007e-06
2.2096405e-06
2.145125e-06
2.3159069e-06
2.4767845e-06
3.0367086e-06
3.5424732e-06
5.4327828e-06
3.9834639e-06
3.0162078e-06
3.101071e-06
3.1447743e-06
3.1457877e-06
3.4803981e-06
4.4240562e-06
7.1865779e-06
6.0750961e-06
6.1393027e-06
5.7800628e-06
6.4485153e-06
6.6273812e-06
8.9174694e-06
8.1367376e-06
7.0387423e-06
6.943482e-06
6.9739792e-06
6.77985e-06
6.996335e-06
7.0024984e-06
6.9437444e-06
7.8410849e-06
1.0763982e-05
9.1782932e-06
4.9670742e-06
3.0614285e-06
5.5832617e-06
6.63606e-06
3.0910022e-06
1.5864952e-06
1.8986224e-06
2.9246317e-06
6.1950183e-06
1.4938768e-05
1.6145653e-05
1.3719867e-05
9.0350932e-06
3.5677407e-06
9.869008e-07
2.359666e-07
1.2539735e-06
2.8164728e-06
4.7494713e-06
8.5362134e-06
1.0325236e-05
8.2118737e-06
5.2041614e-06
2.9173741e-06
1.4271561e-06
2.0677223e-06
1.7669515e-06
1.3528728e-06
9.7056826e-07
1.2705672e-06
1.2431417e-06
1.063194e-06
9.3891352e-07
1.0464917e-06
1.5869731e-06
1.8181769e-06
1.3701913e-06
2.1166971e-06
2.3423001e-06
1.8872092e-06
2.0080203e-06
1.990851e-06
2.5277502e-06
2.1578924e-06
2.4456942e-06
2.5573857e-06
2.6039386e-06
3.498693e-06
3.6154746e-06
3.5679065e-06
3.4827129e-06
3.1236441e-06
2.9424621e-06
3.0598211e-06
3.071281e-06
3.1749191e-06
3.9745924e-06
7.3375739e-06
5.7069602e-06
5.3372668e-06
4.7225269e-06
5.0038715e-06
7.477755e-06
8.6146417e-06
7.9691819e-06
6.947127e-06
7.4446902e-06
6.7408909e-06
6.5863907e-06
6.7362462e-06
7.3031432e-06
7.2887984e-06
8.1512295e-06
1.1278728e-05
6.0405513e-06
3.8152161e-06
5.6435626e-06
1.0636424e-05
1.1449558e-05
5.6534356e-06
1.6190518e-06
1.1954334e-06
1.7802423e-06
3.475895e-06
8.2965684e-06
1.4109934e-05
1.2694926e-05
6.9193337e-06
2.146037e-06
5.9442143e-07
1.5344301e-07
2.3475758e-06
4.4185809e-06
7.793881e-06
9.6783997e-06
7.6370491e-06
5.0557999e-06
2.3560169e-06
1.1833004e-06
1.1483692e-06
1.4680796e-06
1.1226848e-06
1.2977119e-06
9.8655208e-07
1.0666719e-06
1.1311252e-06
1.2675642e-06
1.1021224e-06
1.2990509e-06
1.2855299e-06
1.7305985e-06
1.3415183e-06
2.2226808e-06
2.2665938e-06
1.7012033e-06
2.4649144e-06
1.8488367e-06
2.2944037e-06
2.1137314e-06
2.8224155e-06
2.5715116e-06
2.691958e-06
3.1106211e-06
3.3754477e-06
3.3940726e-06
3.6764303e-06
3.1428793e-06
2.8353226e-06
2.8071898e-06
2.848616e-06
3.1129667e-06
4.0303532e-06
6.0664789e-06
5.7756697e-06
4.7508308e-06
4.6185517e-06
4.7982868e-06
7.5936584e-06
7.5757156e-06
7.9476645e-06
7.3664447e-06
6.8428351e-06
6.497722e-06
6.6864399e-06
7.1842856e-06
7.8683681e-06
7.2664616e-06
8.2790857e-06
8.8403482e-06
5.1862764e-06
8.151671e-06
1.4162935e-05
1.7368025e-05
1.6208144e-05
9.815718e-06
2.7734781e-06
9.5262285e-07
1.160462e-06
2.1044874e-06
4.3990666e-06
8.0221793e-06
7.610527e-06
3.7504567e-06
1.1609123e-06
3.5359473e-07
1.1013674e-07
3.9575684e-06
6.9843226e-06
9.7807255e-06
7.5755021e-06
5.1321258e-06
2.4991515e-06
1.0899652e-06
7.8529917e-07
1.0917983e-06
1.1788437e-06
1.282851e-06
1.2870574e-06
8.0440557e-07
9.7631511e-07
1.1280129e-06
1.2942729e-06
1.2019727e-06
1.7590558e-06
1.5607621e-06
1.4460938e-06
1.337559e-06
2.3911489e-06
2.4833886e-06
1.682064e-06
3.4617712e-06
2.1363302e-06
2.2730541e-06
2.1626357e-06
2.9163761e-06
2.5309939e-06
2.715845e-06
2.8021582e-06
3.1936608e-06
3.3812654e-06
3.3838202e-06
2.9753699e-06
2.7183716e-06
2.7096303e-06
2.8398129e-06
3.1489964e-06
4.5514135e-06
5.1554939e-06
4.5097358e-06
4.5916264e-06
4.7820476e-06
4.8493867e-06
6.4823735e-06
7.6400016e-06
7.1147244e-06
6.5830097e-06
6.5433988e-06
6.499036e-06
6.6521073e-06
7.672692e-06
7.7957402e-06
7.045356e-06
9.2875459e-06
7.5325974e-06
7.5955171e-06
1.772674e-05
2.07806e-05
1.8978524e-05
1.6806304e-05
1.3532692e-05
5.2761446e-06
1.145079e-06
7.893906e-07
1.3066724e-06
2.460361e-06
4.204848e-06
4.0929356e-06
1.9164856e-06
6.262352e-07