/*--------------------------------*- C++ -*----------------------------------*\
| =========                 |                                                 |
| \\      /  F ield         | OpenFOAM: The Open Source CFD Toolbox           |
|  \\    /   O peration     | Version:  2.3.0                                 |
|   \\  /    A nd           | Web:      www.OpenFOAM.org                      |
|    \\/     M anipulation  |                                                 |
\*---------------------------------------------------------------------------*/
FoamFile
{
    version     2.0;
    format      ascii;
    class       volScalarField;
    location    "7e-06";
    object      p_rgh;
}
// * * * * * * * * * * * * * * * * * * * * * * * * * * * * * * * * * * * * * //

dimensions      [1 -1 -2 0 0 0 0];

internalField   nonuniform List<scalar> 
7500
(
-30880.244
24930.274
11478.758
-17145.137
54317.148
-38311.437
38541.52
40224.523
-43348.02
21625.808
49479.267
28092.786
-37678.424
90199.618
-17012.46
2396.8352
103519.53
-74339.31
96320.204
48720.877
-21448.056
115202.9
22781.034
83960.76
48012.33
2275.0372
161871.7
96869.075
78838.235
81687.547
-42532.986
-8046.9305
57057.852
189515.51
93586.874
-34390.053
198756.12
63645.318
-66446.407
99688.03
-93482.808
1473.734
139251.59
-100862.87
67720.503
55464.465
-174031.93
40097.724
117614.64
-109915.77
-94234.547
66413.427
-30279.724
-109813.14
-5878.9833
-79693.894
-199310.28
-225558.53
-222076.96
-161095.58
-104552.22
-47777.403
-30797.015
-143084.82
-395392.98
-497381.75
-85066.922
529976.51
593461.14
575458.48
605228.43
589228.57
466015.92
292661.1
99853.851
-30848.667
23298.939
13917.086
-17149.342
52112.266
-36440.931
36736.599
41824.392
-43119.551
20455.684
50356.529
26531.041
-35133.313
88420.016
-17025.142
2591.9118
102981.73
-71678.541
92054.334
50535.567
-19983.569
111755.84
25013.862
81252.353
50040.733
6302.6198
157450.12
95260.348
79415.649
84656.745
-42088.61
-12992.977
60985.145
187625.19
90284.327
-28597.135
195729.36
62789.072
-61760.396
91096.927
-92824
7707.0885
134059.38
-94868.498
68306.481
55361.582
-164135.72
21383.158
106055.47
-95411.39
-92654.905
65895.65
-30082.152
-106403.65
-12494.616
-84741.85
-197010.98
-223360.74
-229018.06
-143850.44
-92891.861
-68402.31
-38191.386
-155860.46
-404278.02
-451458.69
-105684.67
483692.76
427494.91
565709.64
607970.73
591505.83
466403.93
292855.28
99953.419
-28706.895
20217.422
14068.322
-13895.199
47859.029
-33746.53
35184.485
42501.966
-41981.355
18285.84
53376.046
21849.21
-31801.497
86606.306
-16958.893
5459.7543
97002.924
-65328.852
89122.48
50381.853
-15916.561
104474.03
29432.132
79204.924
47311.819
13738.142
153587.77
93934.946
78111.293
86810.52
-35562.862
-20273.723
61506.39
187534.25
84609.612
-16832.545
192711.9
55201.78
-50878.941
82074.628
-94043.419
16954.579
125818.78
-88048.15
73188.569
42409.964
-155927.39
14749.405
88922.023
-81741.142
-84372.131
58103.309
-18063.943
-97371.845
-20023.54
-91167.996
-202742.32
-222425.93
-198826.21
-125481.85
-91173.989
-85590.189
-85136.445
-168142.31
-325734.46
-400081.8
-153577.93
387883.54
513568.93
428810.98
600370.24
595577.03
466964.76
292794.5
99933.889
-26223.369
16910.393
14699.909
-10879.926
43199.711
-29250.713
31062.072
43876.633
-38931.893
13467.33
57153.098
17644.486
-28232.473
83287.205
-15744.615
7902.479
90377.478
-57003.894
82222.633
52591.996
-9279.1057
95439.966
35493.494
73802.595
46853.934
23819.435
143161.11
94731.866
78021.431
88877.407
-27938.396
-31057.151
67395.029
185253.31
72020.025
3936.8764
189268.27
42747.387
-35135.511
70519.385
-95414.581
25391.633
96806.333
-61382.116
89701.653
28312.486
-139504.58
3471.7013
76181.916
-87266.892
-78490.936
59186.989
-21558.028
-85838.574
-23913.4
-99503.344
-204646.15
-230496.25
-204181.4
-123842.21
-96893.544
-94001.097
-92319.681
-167015.43
-312650.24
-380095.6
-180472.62
210270.5
439928.39
246875.46
577898.45
594626.27
466963.41
292394.11
99861.902
-23615.598
11855.172
16857.177
-7189.9258
36025.915
-22317.984
26349.14
44143.052
-34042.532
8563.4104
59500.089
13657.55
-22694.049
77804.813
-14414.576
10863.488
82264.859
-45459.397
73453.399
52885.432
432.20339
86004.702
41519.657
67839.337
47072.331
36062.223
132261.23
92330.092
76500.418
92339.198
-17321.586
-44226.432
70579.542
185631.57
60625.74
25124.056
183735.06
29410.917
-17938.463
61169.62
-90676.182
29780.83
73478.531
-47226.109
90305.907
14460.101
-120908.59
19364.287
55598.928
-85398.106
-80254.637
53678.351
-12944.151
-88488.248
-37471.198
-108940.55
-210702.04
-219289.31
-189673.67
-133995.86
-110724.77
-94631.164
-99391.208
-172340.67
-298930.02
-374792.62
-172336.35
166860.19
332258.38
268220.27
401434.52
592051.22
466480.61
291360.53
99571.734
-20749.312
6686.7734
17976.49
-1623.2492
28885.127
-17545.324
24297.175
43850.297
-31731.7
6746.5704
61148.351
8226.4361
-16084.426
72842.744
-12940.704
12611.121
74762.682
-34425.717
65676.5
53095.462
7938.6313
78999.194
46137.569
62066.422
50498.341
47910.512
121071.77
90072.93
72763.323
95301.138
-6461.8671
-55605.496
72141.603
179987.5
54948.273
49957.033
172990.28
14047.742
-1788.673
53745.121
-82344.566
37945.352
47349.101
-22829.373
82047.915
-5813.2481
-96453.763
11479.273
36340.574
-81906.03
-26929.03
39061.303
-19591.883
-60921.778
-56599.329
-138655.77
-218848.72
-219386.52
-164581.21
-122662.4
-112509.27
-96455.689
-106145.4
-171780.84
-300988.61
-392375.53
-238553.79
116127.15
320271.32
275410.54
32382.859
536527.05
465124.16
290928.28
99142.518
-17855.398
2669.4231
17457.402
2996.9401
24527.413
-14653.218
21530.007
46060.403
-30773.55
4280.3142
63765.232
3612.6331
-11377.229
67550.823
-8610.0915
12618.976
66478.99
-22942.343
58024.239
54666.833
13069.175
71677.879
52556.885
56331.926
55105.077
58846.14
111209.53
89260.633
70036.555
93915.38
3504.8876
-62658.943
71758.473
171013.47
49626.372
75462.806
162650.4
5936.6727
5702.8789
42534.373
-70847.161
34674.205
38254.809
-40.397393
79604.228
-20690.001
-83773.197
20137.932
8414.2462
-70177.908
-45522.987
31202.365
16276.523
-42722.02
-49945.278
-163233.37
-239971.62
-230912.76
-177750.31
-109599.87
-101934.4
-91697.449
-113177.8
-171812.62
-272940.53
-414481.84
-297832.31
106566.79
284014.71
102006.11
151900.46
436251.41
424545.92
287064.58
98353.376
-15496.996
104.12174
17085.938
5406.8138
21346.47
-10671.694
17559.701
46807.261
-26953.621
1278.7036
62581.555
4239.4593
-7333.8215
58962.28
-1988.8385
13070.071
57979.505
-13141.78
51165.16
56320.936
18655.391
64222.445
55590.715
55590.61
59005.892
63966.106
104118.9
91286.022
68833.304
92532.618
8337.947
-66909.417
74692.755
158003.6
46217.514
98206.015
152628.38
-2901.6267
21998.618
25054.309
-61500.432
33960.241
22703.382
36299.368
64752.016
-43960.299
-61380.848
20103.863
5285.3196
-61090.641
-44147.847
-7332.2749
28562.653
-15531.918
-57635.796
-144744.67
-224727.61
-245506.92
-232478.59
-137639.86
-106767.95
-87430.341
-114666.7
-207514.88
-270146.75
-321856.86
-307077.49
57684.86
212813.97
-66765.281
315833.15
401536.63
382320.53
279802.43
96543.168
-13828.337
-1916.252
17305.501
7270.9464
17502.131
-6327.751
15797.287
44682.479
-23281.075
2165.8309
57201.815
4478.5178
854.6729
48878.404
2695.8406
15082.721
51597.187
-5684.8835
45296.705
56809.538
22949.07
60178.419
55577.091
55144.105
65677.614
66766.193
95556.406
93997.137
69764.617
92432.692
13835.977
-73808.982
74014.009
151266.15
45122.649
113997.8
142557.68
-6612.867
26452.077
22617.686
-57419.705
25058.877
22256.434
59400.207
54832.315
-65905.455
-52757.651
19605.758
-3827.4668
-30537.465
-58124.994
16110.06
30610.065
-3289.2948
-86658.486
-159901.34
-173161.49
-229242.94
-211319.59
-179188.31
-152827.28
-114919.5
-136455.74
-258536.78
-318276.62
-312717.93
-172763.3
142471.12
161876.54
-361245.48
282411.75
320110.3
347516.69
264364.62
93261.265
-12491.164
-3674.6875
17269.706
9449.7199
14310.66
-4125.0609
16180.803
42574.282
-21833.618
4286.098
53713.093
2850.8175
6378.5981
44516.187
4874.9898
14367.264
49040.448
425.30239
40031.636
57008.946
25968.985
55528.92
55533.041
58318.709
68768.187
69458.043
90501.64
93894.606
70988.894
92447.549
20820.9
-73755.587
62644.113
142052.14
55785.898
125582.13
129033.93
-7333.2175
32785.591
10240.519
-51081.415
11653.107
30878.354
85273.651
31645.208
-66137.038
-39064.061
-660.87848
-453.45816
-30662.609
-52091.744
-3370.1508
59929.248
18699.085
-91409.192
-184134.07
-194797.87
-204017.68
-150331.15
-140142.94
-158778.77
-130797.32
-177539.05
-313625.92
-402120.82
-410878.23
-219991.3
275646.25
345440.12
-520144.82
253114.57
269214.42
326498.36
246714.75
89345.524
-11487.066
-4596.5997
16575.341
10839.084
13015.655
-2877.8326
15706.469
41719.268
-20245.67
4373.214
50565.395
5741.2977
6079.6311
40440.748
12335.414
9266.2155
46572.979
8369.6862
36120.095
54243.142
29894.614
52018.514
51301.235
64825.004
72307.517
69362.178
87643.293
92469.093
72853.242
93431.867
26149.274
-69736.58
54289.192
124725.36
66349.56
137090.35
118274.61
-5470.6974
39381.099
2860.5912
-53046.043
-15997.712
45316.165
116665.16
13247.039
-69290.798
-26686.408
-12433.153
-4475.632
-17397.121
-49326.791
-9624.2342
60998.051
43355.528
-93282.417
-188361.49
-188091.57
-214279.12
-181720.74
-92454.403
-139543.31
-129579.03
-187630.26
-317417.42
-401609.84
-429915.47
-208551.13
261748.2
318612.2
-451269.76
164640.61
270230.22
303530.61
229524.77
85478.509
-11184.108
-4625.8632
16032.159
10674.18
12460.562
-861.20107
15139.024
39185.898
-16607.878
4121.571
44104.681
12066.598
7593.8947
31469.27
20765.358
8448.6712
39463.431
15043.257
38223.24
50464.876
28653.945
50664.607
51170.76
68316.575
71599.896
72358.415
86993.304
90160.845
71978.725
93613.817
37386.913
-65836.942
39243.852
117381.66
75283.916
137723.63
106516.41
1505.8876
51164.793
-4511.9449
-51645.163
-43767.575
36720.567
145883.99
3473.7688
-66767.824
-18964.882
-19915.134
-1200.322
-9296.0336
-58936.053
-7904.8177
66257.676
46181.381
-95860.118
-194022.21
-173269.44
-213609.9
-179225.44
-103627.75
-138969.6
-122387.18
-184160.94
-328431.09
-406066.6
-438226.44
-195861.86
275293.68
239080.28
-208521.56
138031.68
262851.9
279345.99
214152.69
81888.152
-11422.675
-4277.54
16093.119
10060.664
11490.591
807.63908
16456.229
35727.803
-14397.676
6610.8466
36237.275
16083.724
12476.212
24656.612
22337.27
12267.303
35318.44
14719.394
42547.981
51581.743
27480.229
39845
55850.888
80441.198
61235.527
74426.611
87413.83
89571.989
78510.215
80621.807
47614.63
-46678.766
20620.602
102540.57
94783.493
141219.63
84853.24
4738.8102
60811.9
-1664.172
-56595.956
-43946.137
34311.557
134378.2
2071.8329
-61320.187
-17778.893
-20348.271
-2209.7114
-12134.164
-61547.195
281.76886
71286.217
40993.086
-100774.46
-188093.15
-179023.17
-210282.49
-180842.86
-110337.87
-137940.43
-109725.78
-202522.72
-336126.61
-415245.12
-458903.7
-211877.14
79125.926
33664.089
1265.6576
117488.28
252831.55
257075.51
201234.74
78766.326
-11989.978
-3827.3397
16119.511
9862.7106
10998.592
891.09605
18110.218
34173.078
-13891.28
8217.5803
32373.588
17369.778
14498.921
24574.78
20132.329
12460.21
36597.446
14611.432
44161.708
48783.482
34779.037
29213.609
49908.3
98335.132
54280.934
74734.317
85551.694
81969.416
91674.203
82821.551
31879.951
-35592.443
31637.898
85366.577
105312.93
148098.09
80928.642
8536.6415
60908.392
-4486.8684
-59845.22
-40208.731
45522.132
129910.27
-6698.7401
-53158.236
-18577.155
-21193.968
-2826.9295
-17050.931
-46209.555
-6988.0305
58495.774
30219.313
-102853.14
-194701.61
-182946.16
-212075.86
-166789.57
-113746.11
-134859.89
-96459.973
-178802.02
-354827.1
-429725.06
-456254.96
-228079.64
996.17991
-14543.279
45613.2
81072.607
216217.59
235445.29
190911.37
76245.173
-12582.277
-3170.8276
15697.218
9421.0026
11845.763
959.52542
17855.073
33427.481
-11857.428
6587.1436
30486.581
22154.681
10416.804
26402.686
21446.019
9453.4086
35074.113
16328.89
51812.747
40475.105
35826.735
29960.594
44065.508
106316.91
51914.47
74576.299
91462.83
67810.094
93826.341
88569.847
28862.932
-35266.836
31666.674
86743.906
102761.89
146224.82
82038.641
9514.3933
66195.366
-3652.1687
-64018.957
-50142.457
40262.756
129007.99
-6932.7077
-56207.592
-20553.376
-19058.757
-4304.2907
-18672.323
-56931.27
-12980.627
53389.572
11505.092
-110269.63
-209134.26
-192367.12
-208535.78
-177724.24
-119261.84
-134410.78
-75122.142
-178413.18
-360233.32
-451643.72
-421819.47
-256627.78
17669.59
-12472.403
59060.931
85192.121
181193.51
214782.1
183180.27
74403.652
-13093.326
-2149.9239
15150.23
8079.3514
12803.071
2979.3887
17171.226
30803.812
-8496.2146
4384.4181
26621.71
30956.767
6856.3437
23270.679
24436.107
11554.609
30625.875
12104.017
60586.357
42693.922
29183.842
24530.462
46873.479
106710.61
53133.788
75467.787
91591.632
66536.437
92169.03
90552.221
28587.385
-36350.505
32440.112
86117.843
105341.52
143066.8
79672.632
13330.994
59295.793
-5607.635
-61230.989
-33781.755
50913.649
123593
-8278.3579
-56387.023
-23109.958
-13572.906
-6709.6975
-20867.434
-52168.049
-8894.1934
49919.152
1765.2417
-120816.83
-223807.42
-195086.22
-208847.54
-176836.27
-122617.79
-124673.69
-57944.209
-179370.71
-390984.93
-450875.8
-452320.85
-290552.01
-27021.568
10485.989
89271.61
96764.195
152487.05
197573.45
178720.43
73377.276
-13636.74
-981.9988
15089.508
6292.2218
12456.151
5436.3587
18788.054
27718.82
-6833.8715
3124.0357
21549.231
38133.965
8340.8279
19245.056
20810.83
15778.75
32033.648
6517.3613
57465.773
47359.026
29169.018
24227.281
47327.055
104615.88
53570.735
77476.8
91770.993
68433.602
91593.307
90754.403
28711.421
-37456.094
33670.804
81223.487
98323.431
139102.26
74870.095
1425.4358
51165.157
-17760.527
-71817.21
-53467.469
46967.475
120811.31
-14592.266
-60944.98
-25429.79
-13512.247
-7297.8133
-23058.697
-49008.227
-4629.9343
40070.274
-2332.6812
-128863.68
-231143.19
-187270.58
-202657.26
-174480.83
-122984.95
-113236.49
-40172.77
-179312.79
-426192.85
-461039.24
-507269.57
-258162.92
-55398.223
21777.574
113500.02
96317.343
119821.47
181388.14
177447.55
73161.429
-14158.866
-49.273888
15430.616
5168.9268
11464.151
5760.7978
20989.459
27915.942
-6694.7108
1074.5587
18244.327
40847.574
9444.1859
21886.273
14521.33
13855.997
33683.077
6448.7378
58153.734
46960.773
29284.898
25399.022
47458.804
104459.79
52877.547
79301.316
92502.872
64390.307
86860.979
91749.686
24714.916
-39175.462
31132.91
77630.931
99738.889
134359.34
71779.012
-4289.0354
37579.301
-46355.653
-88975.107
-41398.387
49852.262
115063.93
-28368.395
-68846.718
-30872.034
-12103.908
-10917.618
-28260.254
-45133.184
-6057.9366
28069.283
-16329.552
-134158.26
-230758.93
-193162.27
-197781.49
-173557.73
-118518.65
-113681.18
-24943.948
-181145.42
-420102.85
-492792.28
-517241.01
-505939.56
-127437.19
30714.014
124022.92
93569.203
83389.417
167267.96
180300.6
73871.12
-14662.322
620.35903
15436.743
4802.933
11975.595
4640.3499
20166.202
29605.973
-3834.2944
-3898.7955
17906.214
41598.358
5532.5861
24664.104
14359.264
13978.532
33990.392
6611.6812
59165.911
47521.94
28220.766
24258.677
46909.363
105089.28
53143.752
78337.334
94522.836
66891.578
83576.747
92042.172
19401.635
-53117.021
27789.823
87004.35
113403.1
129744.15
68816.292
-3163.4867
16259.407
-19281.949
-131426.8
-47720.967
45651.799
120350.68
-33515.513
-81281.22
-40617.039
-17326.486
-12451.31
-32984.789
-42805.106
-3229.5927
7122.6417
-39033.662
-147284.92
-243270.28
-196112.29
-193024.75
-182023.94
-142103.92
-98569.853
-23169.718
-177964.07
-414099.47
-497416.6
-553084.8
-544219.76
-264632.44
74565.916
170857.43
85458.213
45690.274
157154.66
188398.6
75521.975
-15082.976
1348.6731
14735.899
3886.6857
14246.727
5740.394
16949.213
27435.175
2517.1549
-10377.199
17854.168
42731.783
5408.5679
25007.593
15051.012
14308.253
33965.338
5928.2053
57399.34
47005.894
29365.892
22312.958
46251.802
105497.95
53452.268
75944.161
91830.429
66525.378
81790.7
91365.001
10029.379
-64295.344
27788.02
90546.888
104168.81
120114.44
61426.826
-10494.673
7204.1504
1650.5538
-109755.96
-100180.59
7756.5393
107359.48
6940.9766
-87820.024
-47057.418
-22537.25
-19274.518
-40463.994
-38225.548
-218.20658
-17586.518
-49816.718
-157715.27
-260221.03
-205648.81
-166867.46
-155249.14
-156839.18
-135177.55
-67325.896
-197453.04
-412570.61
-498605.01
-559131.63
-542818.77
-362480.71
-59067.039
207517.7
78136.119
-7853.6609
145123.29
202142.18
77948.031
-15409.378
2384.5061
13914.022
1521.7861
15429.757
10388.469
16439.583
20940.324
7299.5949
-10545.377
17313.104
43673.781
6684.084
25108.283
14009.622
12481.97
34036.572
6881.9099
57013.009
45315.877
29261.335
19451.801
42680.367
106902.78
53678.73
71744.935
87229.08
65316.641
79499.387
90582.791
153.66628
-79330.06
22532.78
91543.243
102915.75
108354.47
55629.029
-17680.171
9688.9666
-7338.4546
-82863.288
-56090.865
51488.243
121349.14
-7191.5663
-103654.24
-50868.708
-35177.33
-32218.676
-47107.495
-33322.957
3951.8729
-53932.335
-55822.568
-164186.59
-265744.92
-215537.07
-151965.82
-178393.42
-193897.76
-117324.2
-78471.911
-214857.33
-414116.07
-498985.6
-542173.31
-608121.75
-703083.38
-810815.17
-1963.9288
-2269.1993
-63614.131
140211.35
224564.75
81241.884
-15639.707
3639.3954
13861.075
-951.75172
12677.309
14958.708
19962.699
18161.139
7912.4728
-9631.0218
17679.47
43590.898
6118.9904
25033.341
15355.074
13060.417
33547.774
7207.8818
55064.202
44726.457
28395.115
16435.943
34332.22
104258.06
52047.103
67847.321
85802.765
63431.993
77243.719
88860.947
-9936.444
-90503.471
19256.353
91977.944
94973.091
96746.992
39138.503
-25554.956
1409.59
-22288.123
-66176.356
-79416.619
14347.611
115851.14
-28592.048
-112608.04
-76840.401
-57007.545
-48410.434
-52796.892
-30702.746
5325.3121
-37839.125
-58659.203
-165855.96
-244826.2
-223841.29
-158150.61
-171063.83
-190375.25
-161059.93
-128813.93
-245561.17
-405062.58
-481960.78
-539523.18
-619784.17
-908144.33
-884252.21
-1294682.5
-248822.42
-92388.397
175714.33
261593.3
85440.46
-15871.37
4730.1704
14761.62
-1017.5257
7463.5977
15560.65
21588.555
17967.709
8113.1502
-10372.899
17576.258
44142.05
6190.9798
24778.891
14765.801
12475.185
32774.097
8745.7319
54315.489
44354.712
25819.106
12261.754
22015.115
103319.15
49350.761
61590.928
86321.095
61698.651
74725.781
86365.892
-22374.292
-99097.367
13545.038
90159.267
90698.438
93578.518
23552.589
-51555.515
-10511.609
-48283.636
-107963.95
-53968.385
37034.793
104957.69
-27760.464
-100036.2
-128853.4
-85275.91
-82840.865
-61757.18
-29449.945
5645.9628
-40837.254
-67972.842
-154832.83
-234728.16
-254287.4
-146249.32
-150172.8
-184415.11
-187518.17
-194270.82
-286478.34
-400502.07
-461343.52
-521053.94
-626325.85
-914340.78
-1145400.6
-1700445.8
-910201.86
-137030.32
221373.76
300548.97
87804.921
-16401.845
5330.3467
15632.54
1895.5201
4705.9981
15600.281
23019.245
17641.471
7888.3075
-10967.803
17293.566
44484.815
5548.5666
24511.824
14940.198
12391.226
31663.135
8757.684
51618.058
43509.823
22258.436
6284.971
15351.139
105031.06
45493.998
55174.584
86177.816
58816.888
70774.928
83671.176
-34848.919
-101595.79
8744.3137
84579.325
99709.808
94897.396
18084.16
-68211.31
-13359.666
-85294.662
-112805.58
-42340.157
13210.326
89870.719
-42045.285
-106253.39
-117558.44
-116329.86
-173388.87
-86867.783
-30308.274
6989.5331
-44656.318
-79694.779
-144373.43
-243967.29
-243597.49
-138138.23
-125118.49
-167807.71
-208634.79
-261052.57
-328836.79
-394132.99
-438293.35
-497711.61
-618823.47
-898959.45
-1239567.6
-1416830
-766275.22
-65595.396
274512.28
286138.53
85088.369
-17818.866
5670.9054
14993.429
4397.8559
4584.3439
15514.497
22830.946
17615.178
8302.2349
-11503.301
16942.812
44587.428
5297.8732
24430.999
14707.565
12143.101
31172.309
8915.1996
48925.969
42275.164
20053.043
1087.4287
12044.428
105764.56
40586.501
46632.994
86667.036
53968.349
64243.774
81888.162
-42295.749
-104418.73
9262.1976
75948.136
103325.64
93005.943
5705.5547
-79679.141
-14806.539
-108857.53
-134684.96
-55239.611
-29459.213
83252.526
-57641.898
-120721.18
-121537.47
-143700.09
-162397.1
-88923.036
-25471.638
3207.7997
-54702.089
-82131.78
-132006.98
-244915.88
-281495.08
-151919.79
-115813.66
-147897.85
-228360.4
-326506.12
-371040.53
-390225.69
-412977.61
-472828.91
-599747.92
-867606.47
-1224931.4
-1349577.2
-779762.58
-42317.693
257164.9
242145.89
78701.492
-19969.614
6419.6358
12653.97
5117.5193
4556.2962
15282.235
22736.475
17506.203
8666.71
-12492.117
16743.449
43993.878
4695.9134
24573.204
14707.751
11907.91
30989.809
9537.0886
46851.244
40131.942
18405.448
-1372.4455
9918.719
104056.74
36825.4
38846.567
85944.823
48986.248
56222.483
79399.617
-42114.716
-103784.59
8545.0861
69540.596
104079.6
89408.874
-10904.363
-86335.871
-12628.116
-133346.54
-168796.17
-76822.519
-37710.11
80415.906
-63757.549
-145531.16
-162659.95
-136523.87
-140473.16
-92379.435
-28179.752
-3640.1494
-59691.822
-81464.39
-124798.02
-236190.77
-260069.06
-161502.09
-110765.2
-128573.77
-246964.88
-387029.85
-407737.06
-384093.49
-387776.9
-445460.88
-575260.58
-818268.65
-1122165
-1226798.7
-747565.01
-83987.831
205694.08
200020.82
70631.124
-19670.49
7175.3448
10777.931
5608.7149
4565.9468
15124.108
22482.151
17376.633
9075.1721
-14265.2
15635.615
42763.307
3432.4225
24079.433
14623.188
11572.176
30790.211
9687.5645
43610.425
37118.709
17307.895
-4059.0072
8658.148
101810.81
33953.917
36181.813
86121.443
45399.555
48117.642
75407.311
-33726.463
-100531.4
7180.4514
64323.56
105545.01
83983.804
-25838.889
-94679.292
-25666.511
-159134.42
-177538.64
-77540.807
-25397.386
68928.724
-66520.333
-170080.37
-179504.79
-117151.85
-126350.72
-95810.873
-27403.262
-11722.599
-67434.309
-74371.835
-114370.97
-236478.29
-256639.12
-168913.36
-108852.22
-109399.62
-260310.22
-432933.95
-424792.06
-371270.41
-361444.8
-416074.45
-546270.88
-761618.02
-1019615.4
-1078581.9
-671132.05
-94992.409
158237.48
163536.35
61828.915
-10759.055
6014.5757
9885.6581
5839.7101
4745.8063
15043.477
22202.419
17250.662
9513.3081
-16354.658
13838.772
41101.854
2329.6953
24235.634
14559.229
11126.535
30837.036
10050.062
39985.45
34500.744
16940.468
-7842.4998
7927.0694
99254.991
32540.758
37549.418
84538.556
44883.865
40192.428
70957.209
-26996.763
-99886.896
6349.7153
58816.256
104159.79
75598.769
-38572.372
-103193.06
-34968.812
-160266.74
-180822.96
-61593.184
-9634.2525
60079.131
-69696.969
-194568.35
-188037.93
-98487.544
-116636.13
-100305.19
-27827.055
-14682.525
-79095.46
-77836.263
-104133.88
-226014.28
-259901.73
-190789.96
-110248.65
-98387.567
-267114.23
-463899.39
-412524.18
-347503.4
-335529.32
-384990.63
-514691.6
-705995.43
-912752.12
-933119.29
-581858.35
-98240.629
117610.63
131953.05
52971.083
6891.746
5447.4934
9695.4657
5808.4252
5004.6372
15043.182
21918.919
17242.054
9975.354
-18181.534
11702.599
39379.904
1477.5509
24204.021
14749.34
10820.861
30751.264
10138.331
36795.582
32297.927
17464.109
-12043.068
8034.7023
94915.272
33387.933
41564.92
80179.13
45310.332
34551.047
65793.356
-24199.992
-99953.221
5265.1935
47537.09
98288.031
67704.898
-52731.731
-105120.79
-40223
-154540.32
-172221.57
-30705.875
13741.413
51420.572
-80859.887
-234995.09
-192017.57
-93537.507
-155826.52
-101948.82
-28862.11
-18377.905
-88522.029
-95094.936
-108219.49
-219725.46
-256551.59
-214023.19
-94364.23
-100767.47
-272776.44
-470417.26
-367752.56
-323006.7
-316914.76
-354192.49
-482382.22
-653115.75
-818561.63
-808642.59
-506728.57
-101818.91
83112.87
104681.55
44480.783
11517.178
7185.9036
9484.841
5784.3731
5322.3452
15112.38
21683.859
17213.801
10432.317
-19505.175
9640.9327
38023.861
955.6205
24104.738
15139.764
10691.241
30458.487
10179.779
34264.967
30658.646
19174.114
-15300.458
7764.0763
88305.594
35934.159
48657.429
74365.319
43053.91
29368.341
61745.778
-20811.579
-99157.511
3493.837
39085.222
90240.54
61001.419
-64313.439
-116962.57
-42244.731
-151396.2
-114267.45
-15.555907
46163.945
44019.663
-82547.279
-270829.11
-183314.65
-28512.392
-82111.829
-95678.939
-24932.209
-18629.394
-130023.65
-85650.608
-120217.28
-197432.19
-252264.73
-223524.07
-109071.06
-122899.79
-306779.27
-516900.31
-259440.92
-331139.15
-299134.45
-327699.59
-450188.22
-604195.73
-733584.04
-706467.71
-447713.03
-105024.26
54289.397
81231.83
36600.15
2469.3645
8285.9172
9426.3021
5753.3786
5646.0987
15108.681
21386.998
17164.844
10737.572
-20488.197
7606.2785
36948.477
890.34644
24256.594
15644.357
10607.575
29760.794
10151.411
32260.026
29648.337
22730.359
-16509.822
5800.3608
78069.309
38781.654
57574.436
69166.945
37503.173
21987.793
60196.485
-19297.387
-95739.053
1583.9452
33619.438
81827.425
49159.945
-75628.369
-127470.21
-43707.518
-141644.43
-107976.32
20829.129
65133.421
27436.891
-93180.063
-277522.88
-170390.25
-3128.8129
-69781.834
-96103.556
-18533.32
-58696.432
-184622.54
-104574.77
-144068.59
-163353.9
-282380.26
-219598.62
-183040.15
-142803.37
-325386.11
-539083.34
-504767.31
-381396.6
-277262.01
-303854.35
-418916.03
-559397.08
-659803.07
-622339.77
-401596.78
-106498.96
30366.31
61140.006
29456.461
2480.5708
8236.3732
9374.9726
5706.2127
5939.6752
15099.235
21165.34
17113.832
11032.085
-21349.506
5402.7146
36100.69
1378.1967
24530.199
16370.468
10622.019
28504.837
10135.14
31320.475
28834.133
27480.153
-16378.168
1735.7128
60866.713
38949.397
68104.573
67978.572
30510.186
13615.107
59192.248
-25480.069
-94266.85
-1415.2322
21295.134
74263.038
33217.979
-88919.929
-137960.86
-53085.354
-134433.11
-107552.26
28540.997
75073.143
22396.45
-104589.9
-277487.61
-161835.21
13142.693
-72074.193
-184296.55
-127584
-73477.39
-105338.47
-168309.6
-171699.07
-216768.7
-336622.42
-192621.81
-174665.42
-151990.24
-343671.46
-565223.7
-544381.21
-364422.04
-274983.38
-293314.68
-395388.32
-519310.79
-596044.66
-552392.29
-361739.54
-109644.12
10519.352
44008.549
23087.295
2776.4283
8618.6872
9406.4229
5634.2089
6175.7126
15055.37
20909.35
17047.889
11265.834
-22186.953
3168.4581
35525.273
2421.3489
24857.519
17190.873
10769.673
26981.341
10288.293
31190.96
28887.417
30092.795
-15903.328
-3520.8012
39946.289
36455.288
74807.647
67820.704
26118.24
7768.5371
55897.698
-41233.067
-99299.775
-9313.7019
25668.76
65527.197
23326.153
-108229.74
-144628.45
-58297.6
-132499.37
-121404.19
49807.015
90082.908
21864.322
-103838.13
-272190.32
-156371.82
31153.97
-67951.86
-205644.92
-135821.06
-74138.407
-198855.19
-579378.45
-127696.93
-187972.49
-316236.95
-190401.2
-176290.8
-170313.16
-348591.58
-573389.92
-577328.02
-387584.42
-281997.59
-286537.92
-385522.17
-486905.2
-540962.28
-493774.93
-326175.7
-114322.55
-5864.6849
29493.739
17493.378
3231.9963
8915.86
9409.1165
5560.0431
6338.9755
14975.197
20605.687
16947.026
11404.2
-23045.794
790.26215
34950.631
3725.6257
25079.081
17714.841
10758.758
25370.725
10818.688
31305.279
30306.043
30901.676
-14801.55
-7090.268
28274.328
34709.848
76479.993
68461.376
23140.334
6760.7885
52266.693
-62498.356
-109745.03
-19747.498
25935.199
54128.645
17786.422
-133189.05
-164974.89
-68413.985
-125876.34
-135625.12
71410.683
100142.54
10594.607
-94259.662
-251768.83
-148219.08
42853.565
-65282.73
-203246.64
-140810.33
-71076.004
-217757.83
-720082.87
-145828.73
-153035.43
-276675.39
-234865.19
-182611.23
-186293.71
-345755.38
-560602.62
-569881.95
-392850.45
-286812.1
-288042.79
-372019.08
-454557.53
-493030.56
-444283.53
-296183.07
-117672.8
-19227.459
17278.431
12640.7
3688.3786
9257.5751
9361.4675
5501.7572
6444.6549
14850.478
20277.813
16799.372
11434.856
-23993.037
-1669.692
34388.226
4899.5163
25003.9
17612.028
10271.551
24590.063
11811.253
31843.04
32631.852
31293.349
-13531.534
-6589.6947
22905.712
34529.437
75488.955
68229.294
19570.755
7670.1494
56145.061
-82886.172
-121892.85
-26884.952
7502.1592
40646.351
5666.3656
-148377.57
-176643.68
-69862.22
-115927.84
-142469.03
84789.44
118472.49
654.71748
-97054.519
-215063.43
-139833.91
52996.412
-81292.945
-209420.5
-141242.72
-68704.056
-232868.95
-594552.59
-228270.74
-193350.62
-270607.29
-258686.76
-189356.43
-198069.85
-335269.61
-530120.63
-535865.26
-384306.08
-287519.25
-289514.73
-358635.84
-425077.35
-451162.47
-402237.06
-270867.25
-119455.4
-29981.911
7076.0232
8477.2467
4186.6548
9462.9836
9299.8746
5507.5547
6536.0276
14661.008
19923.084
16598.188
11342.416
-24990.723
-4136.7851
34112.339
6049.7152
24738.762
17265.634
9698.9213
24736.591
13299.712
32837.794
34588.732
29697.372
-11276.485
-4275.0206
21534.539
35446.404
72270.445
60788.682
15426.507
8398.7849
57750.937
-100889.64
-129836.3
-37517.473
16206.855
19672.373
-9599.6088
-162607.91
-182404.34
-73413.085
-109531.04
-106021.48
99596.869
125499.75
-5545.3266
-97105.362
-182267.52
-127594.89
28695.145
-113660.14
-219280.39
-134267.73
-62411.461
-255144.76
-433543.76
-295696.95
-251715.51
-280795.59
-275304.06
-206196.8
-214501.33
-323981.4
-487100.82
-486546.94
-365774.29
-285508.54
-288810.21
-345222.62
-398152.64
-414433.54
-366322.86
-249222.56
-119866.28
-38506.002
-1373.5798
4941.7091
4629.6168
9749.3967
9211.6427
5597.9
6634.5729
14394.161
19545.501
16340.442
11107.288
-25856.595
-6605.1352
34342.831
7408.8379
24305.056
16716.997
9015.6668
25159.165
14945.013
33697.396
36059.421
26135.848
-7486.1785
-438.12025
22904.79
36245.192
67503.829
49780.468
9138.2439
5953.5028
50903.936
-112907.45
-120864.56
-44244.694
32068.731
9709.1371
-26950.531
-173614.31
-194376.2
-78655.291
-99745.617
-90344.705
107076.36
122448.11
-15498.186
-88641.489
-163102.58
-95296.46
17152.237
-140431.02
-226872.23
-141048.08
-65617.898
-284787.73
-448405.06
-322434.23
-278820.81
-285328.52
-274263.79
-218460.75
-227091.99
-313579.29
-445457.41
-441271.06
-345050.09
-281741.13
-285999.53
-331828.69
-373485.79
-382066.58
-335523.39
-230380.48
-119174.72
-45141.366
-8305.5332
1969.3144
5080.1662
9779.5179
9180.587
5785.7831
6771.0178
14073.6
19143.601
16031.087
10761.062
-26267.532
-8840.399
34776.778
8627.8727
23693.86
15922.214
8394.185
25320.144
16437.44
34573.873
36900.421
20619.332
-5653.44
3471.8538
22758.921
35482.574
64474.136
45012.191
269.19074
2104.751
37792.059
-113225.54
-120107.21
-42297.101
43166.066
17625.497
-38988.436
-186050.62
-206344.5
-80359.014
-88593.902
-83638.174
104988.13
110254.1
-28815.429
-86387.407
-147780.31