/*--------------------------------*- C++ -*----------------------------------*\
| =========                 |                                                 |
| \\      /  F ield         | OpenFOAM: The Open Source CFD Toolbox           |
|  \\    /   O peration     | Version:  2.3.0                                 |
|   \\  /    A nd           | Web:      www.OpenFOAM.org                      |
|    \\/     M anipulation  |                                                 |
\*---------------------------------------------------------------------------*/
FoamFile
{
    version     2.0;
    format      ascii;
    class       volVectorField;
    location    "7e-06";
    object      U;
}
// * * * * * * * * * * * * * * * * * * * * * * * * * * * * * * * * * * * * * //

dimensions      [0 1 -1 0 0 0 0];

internalField   nonuniform List<vector> 
7500
(
(460.39476 0.017733555 5.1893398e-16)
(459.26933 0.023423728 2.8243943e-15)
(459.7675 0.010358518 3.4577897e-15)
(460.48584 -0.076042182 6.0736173e-17)
(459.26035 0.026026135 2.987341e-15)
(460.68831 -0.010148243 4.5790554e-15)
(459.77925 -0.027375176 2.3347308e-15)
(459.54826 0.097864835 6.4119747e-15)
(460.24796 -0.095819679 3.3364024e-15)
(459.80018 0.045485788 1.4286117e-15)
(460.36407 -0.017178876 2.3762996e-16)
(459.6155 0.050925153 -1.2719228e-15)
(459.94919 -0.0081332954 1.4512982e-15)
(459.81966 -0.10520308 2.2443656e-15)
(460.34237 0.097083827 1.1444705e-15)
(460.27656 -0.10001423 1.4802021e-15)
(459.72527 0.12765688 7.1496874e-16)
(460.06956 -0.064186657 -1.8903093e-15)
(459.36958 -0.065985592 1.9891376e-15)
(460.48187 0.13397625 9.495122e-16)
(460.08381 -0.092856689 -9.7302271e-16)
(458.96048 0.075484164 8.7403103e-16)
(460.01416 -0.036630789 8.5213297e-16)
(459.86285 -0.017042619 -1.5145847e-15)
(459.43261 0.13650169 1.1777684e-15)
(460.02954 -0.13817033 4.0141273e-16)
(459.6217 -0.054258931 2.074498e-15)
(459.03493 0.11355051 -2.1798394e-15)
(460.393 -0.046979312 -1.3604909e-15)
(459.53513 0.034021623 3.3209314e-15)
(459.62806 -0.10854806 -6.198307e-16)
(460.34805 0.16150988 8.2590993e-16)
(460.14679 -0.13989746 9.4769104e-16)
(458.81754 -0.0031169034 -1.0952543e-15)
(459.78462 0.20983129 -1.0848824e-15)
(460.6677 -0.23509015 4.9765713e-16)
(458.37674 0.14020846 -1.2040142e-15)
(460.14457 0.044297056 8.7016562e-16)
(460.48458 -0.11308745 1.1517264e-15)
(458.3389 0.056908059 5.142114e-16)
(460.37882 0.20743944 8.8267619e-16)
(460.2357 -0.25421428 8.0206299e-16)
(458.63758 0.30651977 3.1467912e-15)
(459.90788 -0.0010181859 2.7068948e-15)
(458.67212 -0.25070894 5.9238213e-16)
(459.24588 0.23639962 -9.933994e-16)
(460.78034 -0.31689228 -1.4350157e-15)
(460.4826 -0.11162938 -1.4343219e-15)
(459.10288 0.31867069 2.8380567e-16)
(460.69398 -0.089003328 7.1270351e-16)
(462.79502 0.0099867194 1.3727796e-15)
(460.72446 0.19693581 2.2892711e-15)
(459.03671 0.0038750976 5.8903133e-17)
(460.7236 -0.19522792 1.668279e-16)
(462.37435 -0.24592091 -6.9882041e-17)
(464.50504 0.18672615 -1.1741918e-15)
(466.03816 0.03988627 2.8965498e-16)
(463.74117 0.20101519 4.3315908e-16)
(460.82279 0.086393245 3.5723225e-16)
(461.16662 -0.17459022 -2.483167e-16)
(464.64647 -0.79901576 8.4851768e-16)
(468.80018 -0.57385545 2.420751e-15)
(470.00204 0.077160928 -3.5283642e-16)
(466.54607 0.2231063 -9.0304799e-16)
(463.19721 0.67182604 -1.3608686e-15)
(466.14872 -0.24472358 6.3691567e-16)
(469.62126 -1.4720636 1.0329061e-15)
(462.81825 1.2226862 4.573227e-16)
(441.50918 9.0472689 -1.4044261e-16)
(345.77796 8.8700385 -7.5951005e-16)
(311.48648 0.91437041 -8.1735324e-16)
(298.74933 0.91556388 -2.4450311e-16)
(272.08543 2.7918684 1.9365647e-16)
(239.92892 3.0845284 -3.7521848e-17)
(205.70765 1.4954744 1.8202761e-16)
(460.41707 0.045556283 8.1508738e-16)
(459.26247 -0.062589475 -9.1733408e-16)
(459.74023 0.083299894 7.4674374e-16)
(460.49388 -0.080339137 -5.1129532e-16)
(459.25252 -0.0082154673 1.7668441e-16)
(460.70004 0.10897843 -7.7919027e-17)
(459.78275 -0.12293275 -2.083007e-16)
(459.49077 0.15573354 6.7700841e-16)
(460.28745 -0.16494384 -4.3419613e-16)
(459.84322 0.032313944 9.6881594e-16)
(460.32331 -0.065791612 -4.6903787e-16)
(459.62109 0.057296631 1.0047069e-15)
(459.88352 0.094322604 -5.8680546e-16)
(459.86915 -0.25223435 1.4960119e-16)
(460.32309 0.29466519 -3.3683679e-16)
(460.30228 -0.24044996 -7.8377266e-17)
(459.70797 0.14529342 1.4798581e-17)
(459.9817 0.16592396 -3.8755347e-16)
(459.43032 -0.37568328 9.1713142e-16)
(460.47495 0.26810565 7.7511935e-17)
(460.12691 -0.11240433 7.8903425e-16)
(459.06181 0.010333904 8.3054193e-16)
(459.90357 0.079482532 -3.9993448e-16)
(459.92238 -0.17540591 1.3016575e-15)
(459.48693 0.22700386 -2.2425266e-16)
(459.86951 -0.13893114 -3.0019198e-16)
(459.65731 0.018032268 -8.6980642e-16)
(459.1479 0.0039768654 -1.7790776e-16)
(460.34975 -0.13343775 1.2855179e-15)
(459.65494 0.28203769 1.9353335e-16)
(459.64451 -0.090811621 3.4590231e-16)
(460.22455 -0.43915507 1.7705322e-16)
(460.31439 0.61740418 -1.158906e-16)
(458.70911 -0.381481 3.4982341e-16)
(459.59595 -0.042568097 -4.4181546e-16)
(460.87079 0.5094402 -2.4276924e-16)
(458.53391 -0.5909947 2.5378465e-16)
(459.62657 0.24449811 -1.1755739e-15)
(460.6517 0.19115717 3.8494236e-16)
(458.8439 -0.30167685 -5.0261143e-16)
(460.05513 0.22434252 -3.5404213e-16)
(459.76202 0.030306188 -5.8781966e-16)
(459.23079 -0.16424661 -4.4096186e-16)
(460.0348 0.32480167 2.0742321e-15)
(458.38928 -0.24279823 3.6419778e-16)
(458.92177 -0.22020585 1.2692603e-16)
(460.87261 0.14403814 -1.5578409e-15)
(460.68353 -0.42286546 -5.3925283e-17)
(459.66598 0.39912294 -1.1097576e-15)
(460.14469 0.037029777 9.5611956e-16)
(461.73633 -0.3319893 7.8056867e-16)
(461.21173 0.34018633 -6.6155704e-16)
(460.55382 0.2323545 -3.3478549e-16)
(460.46301 -0.373006 2.7980189e-17)
(460.9908 -0.53875997 -1.4449439e-15)
(464.0784 -0.40696148 1.5636628e-16)
(466.56991 0.15385316 9.9892265e-16)
(464.75195 0.7557051 -5.3978731e-16)
(461.02035 0.24908694 5.0027635e-16)
(460.29592 -0.48308452 -7.7491078e-16)
(464.17647 -1.0520955 -3.2656848e-16)
(467.89821 -0.81581699 2.9690423e-16)
(467.77587 0.23573129 -2.2822865e-16)
(467.19857 1.1481792 1.5826934e-15)
(468.61391 0.096554487 6.8490065e-16)
(468.89699 -0.71922926 -4.9607195e-16)
(464.9017 0.35893541 -1.1779066e-15)
(456.41335 2.3648101 8.8874502e-16)
(443.96098 7.4356225 4.1328232e-15)
(415.40909 13.195342 4.5596853e-15)
(340.40195 7.356391 2.8604472e-15)
(308.30997 4.2511728 2.2823694e-15)
(274.63409 6.4722167 6.3997817e-16)
(240.27265 6.6287678 4.4962841e-16)
(205.54718 3.2251797 4.6472747e-17)
(460.41184 0.11448288 5.4769234e-16)
(459.26926 -0.097270883 -1.2695242e-15)
(459.78725 0.040131324 4.1149074e-16)
(460.47227 -0.043575965 -3.093055e-16)
(459.20768 -0.099744991 2.3161176e-16)
(460.7632 0.13315063 5.0261804e-16)
(459.73623 -0.16906003 6.6704333e-17)
(459.4792 0.26511901 1.1138865e-16)
(460.21387 -0.22774365 2.698737e-19)
(460.00395 0.072886874 -1.2279364e-16)
(460.25814 -0.011906842 1.5131377e-16)
(459.63229 0.055162717 -1.0022627e-15)
(459.77675 0.094242598 -4.2486479e-16)
(460.00297 -0.35506413 5.2606329e-16)
(460.18817 0.36745805 6.0938371e-16)
(460.27426 -0.34650452 -5.4019442e-16)
(459.79138 0.25687735 5.2407256e-16)
(459.71287 0.12321596 -2.2435692e-16)
(459.7012 -0.40344925 7.9984511e-16)
(460.31012 0.34568845 -3.9573091e-16)
(460.35699 -0.15634378 7.0892805e-16)
(459.22079 0.079274773 1.0971367e-16)
(459.47761 0.03068688 4.5610803e-16)
(460.25448 -0.21521264 -5.0069627e-16)
(459.46692 0.33332997 3.2047086e-16)
(459.67904 -0.2015188 -8.0099153e-16)
(459.96081 -0.11760421 3.3366314e-16)
(459.11014 0.22992744 -7.54559e-16)
(460.29971 -0.25314133 3.5006612e-16)
(459.92988 0.23162881 -3.4801415e-16)
(459.60963 -0.10895742 1.260489e-15)
(459.87533 0.0075441339 -8.8886464e-16)
(460.41715 -0.16425785 7.2818037e-17)
(458.85266 0.083237703 -2.8308218e-16)
(459.47573 0.27873017 1.9751282e-16)
(460.51009 -0.39198359 -4.2186623e-16)
(458.94574 0.16441968 -3.0671891e-16)
(459.68387 0.10589894 -4.8657014e-16)
(460.06925 -0.27835479 -2.0099198e-16)
(459.12234 0.069104476 5.1527426e-16)
(460.6816 0.43296832 -1.1156379e-15)
(459.27743 -0.75707706 1.2426749e-15)
(458.88221 0.55943343 -1.0423435e-15)
(460.42936 0.41255414 8.5713935e-16)
(458.68554 -0.70988626 -5.7538726e-16)
(458.5597 0.2921326 4.0810579e-16)
(460.47573 -0.68705263 1.2189251e-15)
(461.00206 -0.04251357 -4.3472218e-16)
(460.10413 0.078866572 3.3875025e-16)
(459.93732 0.010611097 -5.0284696e-16)
(461.02558 -0.25589439 8.6713664e-16)
(461.14095 -0.12357407 5.3941153e-16)
(461.06379 0.44850749 -3.993824e-16)
(461.03059 -0.27840948 -1.2207079e-16)
(461.08432 -0.74967068 2.5349268e-16)
(463.41753 -0.54046047 9.3728789e-16)
(465.89935 -0.2228469 -7.8469773e-16)
(465.23676 0.84418616 -1.9219851e-16)
(461.7097 0.78986895 -1.0530527e-15)
(460.61603 -0.65330727 5.6554457e-16)
(464.33115 -1.4588568 6.7032536e-16)
(466.78283 -0.61004928 -5.6846584e-16)
(466.74776 -0.033891613 5.6674118e-16)
(468.81088 0.3105781 -1.7527214e-16)
(470.52758 0.57001944 1.0007827e-15)
(468.09864 0.071476283 -6.3872887e-16)
(463.62157 -0.2068916 -5.1264866e-16)
(456.14012 2.7944364 -1.2865132e-15)
(443.41569 10.619578 4.4485402e-16)
(427.00801 18.019438 2.0269099e-15)
(367.68386 17.914861 1.8362334e-15)
(319.45844 10.807079 1.2822635e-15)
(277.86518 12.173843 3.0725186e-16)
(240.36545 11.378942 2.3590286e-16)
(204.89204 5.4016962 3.4719122e-17)
(460.39965 0.11251075 2.2458391e-17)
(459.26577 -0.095175608 -6.1910208e-17)
(459.85558 0.077770257 -4.3899277e-16)
(460.48754 -0.11251293 -6.8278806e-16)
(459.11233 -0.020728176 5.1769979e-17)
(460.77277 0.14116845 -7.1294397e-16)
(459.7739 -0.23147612 1.6562511e-16)
(459.5062 0.37785209 6.4206752e-17)
(460.08841 -0.37563718 3.1770105e-17)
(460.05469 0.02944508 -4.0095885e-16)
(460.45234 0.0039405142 -5.2751871e-16)
(459.53227 0.12862094 6.6490078e-16)
(459.72836 0.065192859 3.36306e-16)
(459.90719 -0.43555437 7.4323624e-16)
(460.23167 0.57864074 3.026048e-16)
(460.00832 -0.52207003 2.64513e-16)
(459.94943 0.43358903 -1.8689367e-16)
(459.63524 0.154871 6.0342772e-17)
(459.88217 -0.66590921 -2.2410002e-16)
(460.1611 0.5841854 1.818403e-16)
(460.60188 -0.29493662 -6.9028802e-17)
(459.00959 0.17008208 4.8831663e-16)
(459.52594 0.0022210668 -2.5460777e-16)
(460.46771 -0.3779614 1.5462039e-16)
(459.07334 0.59959819 2.8710761e-16)
(460.53487 -0.47462997 4.4273915e-17)
(459.78574 -0.02310245 -4.0269953e-16)
(458.68418 0.23574547 3.3136103e-16)
(461.09891 -0.42882856 2.7623267e-16)
(459.28358 0.52125021 -4.6840305e-16)
(459.36088 -0.075244095 4.3507502e-16)
(460.53779 -0.63366003 -1.6442673e-16)
(459.40193 0.84476989 5.3048941e-17)
(458.93351 -0.66186372 3.9259712e-16)
(460.28228 0.12210446 -4.637601e-17)
(459.8556 0.65537962 -5.6783814e-17)
(458.32105 -1.0201946 2.0994597e-16)
(460.40725 0.59072206 -3.7751926e-16)
(460.0688 0.11100194 1.2165725e-16)
(458.32194 -0.63401363 3.0296525e-16)
(461.13485 0.51465655 -3.9946647e-16)
(460.15198 -0.10643325 9.0776491e-17)
(458.17499 -0.2914077 -2.0393596e-17)
(459.48099 0.77460054 1.4343022e-16)
(459.75671 -0.37517176 -2.6246017e-16)
(458.99063 -0.04324424 4.9996877e-17)
(459.32354 -0.090149857 1.1145823e-16)
(460.73009 -0.93547106 -9.6937629e-17)
(460.73273 0.55676624 -2.110661e-17)
(460.12852 -0.19633375 3.3155489e-16)
(460.35585 -0.40577133 3.8640431e-16)
(460.73431 0.090142762 4.305465e-17)
(461.53136 0.084071418 6.7799404e-17)
(461.29509 -0.11658737 -1.5424297e-16)
(460.97697 -0.84820177 6.3205402e-16)
(463.53499 -0.82099083 -1.18518e-16)
(465.64846 -0.11607877 1.5847891e-17)
(464.63023 1.0781415 -3.6485382e-16)
(461.92045 0.48841031 4.8761321e-16)
(461.18345 -0.9457097 -5.9298912e-17)
(463.53914 -1.3853786 5.9641177e-16)
(467.40595 -0.810564 1.8481548e-16)
(467.56799 -0.24383823 -2.3425066e-16)
(466.3582 -0.16629581 -3.5981668e-16)
(470.76268 -0.26821042 8.3484211e-16)
(471.63259 1.0788425 5.3840926e-16)
(461.37001 2.597119 1.4921392e-16)
(453.98024 2.8650853 6.7936716e-17)
(447.86257 8.4131299 -1.2266022e-15)
(432.35139 19.030167 -1.4051747e-15)
(403.58204 25.869397 -3.3988401e-16)
(331.80567 18.396549 6.4909418e-17)
(281.36683 18.100401 -7.8589499e-17)
(240.16637 16.21847 1.8626934e-16)
(203.82229 7.5630701 -4.9213193e-17)
(460.38776 0.1445184 2.2320051e-17)
(459.2953 -0.11935877 -5.6487333e-17)
(459.85529 0.094037705 2.4845277e-16)
(460.52884 -0.1045117 -4.7346407e-17)
(459.11457 -0.10068419 1.032861e-16)
(460.60644 0.20929508 -8.3961312e-17)
(459.77989 -0.29421981 -9.2079524e-18)
(459.6182 0.43639459 -5.505405e-16)
(460.04487 -0.33331931 3.0791769e-17)
(459.95013 -0.024153119 1.0060272e-16)
(460.68442 -0.00011816201 -5.9800477e-16)
(459.71794 0.24269776 1.1261271e-16)
(459.44967 0.021594002 -1.2689631e-16)
(459.82119 -0.55691695 1.8522421e-16)
(460.12386 0.63573671 -2.1657604e-16)
(460.08951 -0.58157198 8.3202464e-17)
(459.82254 0.44245912 1.8830227e-16)
(459.78168 0.18384551 2.0789648e-16)
(459.65763 -0.71341003 -6.9490569e-17)
(460.54445 0.56406605 5.7484432e-16)
(460.07562 -0.16540044 2.414364e-17)
(459.23481 0.16808389 1.7275978e-16)
(459.92288 -0.074339028 -6.0932867e-17)
(460.30158 -0.25518032 9.1572157e-17)
(459.15181 0.4169357 -8.2105545e-17)
(461.29552 -0.41244545 3.7314755e-16)
(458.45808 0.014974133 -4.6689707e-17)
(460.24737 0.075631807 -7.1397534e-17)
(459.59793 -0.29862373 1.4969029e-16)
(459.19336 0.54829728 -3.8525987e-16)
(460.92077 -0.23805684 3.0981847e-16)
(457.88898 -0.095385355 1.2067894e-16)
(461.17198 0.019585004 5.0442228e-16)
(459.15743 -0.10403736 -3.9913907e-16)
(458.18938 0.44446811 -1.8756321e-16)
(462.29674 -0.32865239 -2.5727088e-16)
(457.41214 -0.026206895 -2.4123627e-16)
(458.92706 0.16430892 9.6133767e-17)
(461.57769 -0.075352867 -1.3720946e-16)
(458.9546 0.0068324269 2.8301515e-17)
(459.31833 0.23622988 6.0827496e-17)
(460.95511 -0.84591365 1.3212065e-16)
(459.77582 1.1531294 1.1842551e-16)
(458.04237 -0.31356487 2.6437313e-16)
(458.42089 -0.71587956 -3.2693099e-16)
(460.88076 1.0487751 2.2688224e-17)
(459.4958 -0.94128951 1.5301128e-16)
(458.88522 -0.24758939 6.3315585e-16)
(461.08652 -0.35340889 8.4708821e-17)
(461.14249 0.9141322 -4.0938167e-16)
(459.66868 -0.9319713 2.5934091e-16)
(459.48001 -0.56745101 6.1563082e-16)
(462.08285 0.46603255 -1.5013323e-16)
(462.65235 -0.70994717 2.006166e-16)
(460.7772 -1.0258535 1.1476516e-16)
(462.64013 -1.0517141 -6.9320223e-17)
(465.15204 -0.3920261 -3.820363e-16)
(464.58751 1.2850705 4.3561196e-16)
(461.90497 1.0451153 -1.5102912e-16)
(461.02603 -1.0960151 2.8804923e-16)
(464.19689 -2.0650263 2.9745613e-16)
(467.32546 -1.1594018 1.0934757e-16)
(467.16319 0.0021650893 4.3626405e-16)
(467.30899 -0.52662413 -1.2393051e-16)
(469.64392 -0.51845424 4.7650477e-16)
(469.68735 1.4685017 -2.375137e-16)
(466.7153 2.9700857 4.0411617e-16)
(454.33225 4.8311578 3.5191391e-16)
(442.473 8.6754776 -9.9170006e-16)
(437.91466 16.587657 -4.6755519e-16)
(423.04107 30.213681 -2.9841294e-16)
(342.93039 35.297556 3.0565979e-16)
(284.85306 26.515052 -5.073047e-17)
(239.47499 21.510513 -5.8350357e-17)
(202.26117 9.7933236 -7.6395975e-17)
(460.39352 0.15735484 5.7074768e-18)
(459.28768 -0.11554795 -2.4762459e-16)
(459.82828 0.037504953 1.3596217e-17)
(460.59999 -0.012746934 -4.850596e-17)
(459.0406 -0.13639641 -1.3494992e-16)
(460.52324 0.18624002 4.0462007e-16)
(459.622 -0.21797493 -1.8056175e-16)
(459.86379 0.32776375 -1.4984722e-16)
(460.12505 -0.3318011 8.2045704e-17)
(459.76754 -0.015899983 4.4766085e-16)
(460.67415 -0.13489122 -4.3694035e-16)
(459.97987 0.42927707 3.7085806e-16)
(459.5003 0.016282838 -8.5498763e-17)
(459.55243 -0.53807587 -2.5354864e-16)
(460.08059 0.62990875 -1.6507143e-16)
(460.12979 -0.63207525 1.3648763e-16)
(459.8853 0.5552403 -1.9728138e-16)
(459.5237 0.17483411 2.3826403e-16)
(459.63656 -0.82324464 -1.3931248e-16)
(460.86411 0.6269471 2.1615395e-16)
(459.76115 -0.2089283 1.2494715e-16)
(459.47693 0.21642898 2.3806079e-16)
(460.15252 -0.16769323 -4.9030942e-17)
(460.19707 -0.1867039 2.9481258e-17)
(459.20183 0.41954434 3.1695058e-17)
(460.75269 -0.43203136 6.1174553e-17)
(458.30638 -0.0095054845 1.5201089e-16)
(460.89616 0.11447311 1.0566898e-16)
(457.70832 -0.31147078 -1.8693164e-16)
(461.92968 0.27733592 -1.8996022e-17)
(457.72519 0.27510564 -8.9560403e-17)
(460.8393 -0.65948798 -2.3160331e-16)
(460.25467 0.33363945 1.4365761e-16)
(457.35389 -0.10143573 2.5922096e-17)
(462.35091 0.050856772 2.7408602e-16)
(458.16832 0.40678314 9.2974713e-17)
(459.36653 -0.48970655 6.8784438e-18)
(460.1594 0.20449506 -6.1002747e-17)
(457.93522 -0.092409565 3.424956e-16)
(462.15909 0.031082684 -3.2392359e-16)
(459.4685 0.30627376 6.758103e-17)
(458.66869 -0.51304663 -4.5506655e-17)
(460.54562 0.28562792 1.8798904e-16)
(459.85923 1.1096588 4.8925261e-17)
(456.16285 -1.5909355 1.8900249e-16)
(459.92457 0.18143789 1.3958191e-16)
(462.03209 0.50256292 -1.192968e-16)
(458.39222 -1.4549442 3.6101732e-16)
(459.07667 0.43269838 4.8863221e-17)
(462.29434 0.031245624 -2.2340552e-16)
(459.84363 0.18802402 4.5225563e-16)
(458.34013 -0.89793247 7.5194325e-17)
(461.54984 -0.33006852 9.2054811e-17)
(463.69983 0.033043864 -4.9620784e-16)
(461.68763 -1.3561083 7.2362496e-16)
(461.58004 -1.483509 -1.9621648e-16)
(463.78314 -0.27453101 2.32334e-16)
(464.29583 1.1073088 -3.8152223e-17)
(462.44345 1.2159343 -6.8904517e-17)
(461.10314 -0.7342792 2.2910081e-16)
(464.4883 -2.1789727 -1.0363317e-17)
(467.67882 -1.2451991 1.0428384e-16)
(466.71351 -0.31061286 9.7844593e-17)
(466.73128 -0.56331592 1.6918708e-16)
(469.42382 -0.78738451 -2.125271e-16)
(470.37719 1.5235309 5.9422061e-16)
(466.41604 4.5284946 -6.6527684e-17)
(458.24636 6.4896028 2.2873619e-18)
(447.13483 7.4545189 -1.6219409e-16)
(433.35881 14.098866 -7.4972911e-16)
(426.04962 26.49319 -9.7778032e-16)
(398.58208 37.887308 -1.1911805e-15)
(293.85361 39.624542 -3.5279118e-16)
(239.38083 27.909758 1.6467032e-17)
(200.39786 12.128671 3.3156257e-17)
(460.33685 0.17841289 -9.5756219e-17)
(459.39975 -0.10731672 -9.8666283e-17)
(459.51726 -0.062243718 -7.917608e-17)
(460.81007 0.059040681 2.7277234e-16)
(459.00072 -0.098581296 -8.0710171e-17)
(460.34393 0.11793683 1.4263213e-17)
(459.53664 -0.2269387 -4.0781876e-17)
(460.12416 0.40150476 1.4141496e-16)
(460.1251 -0.34052797 -1.3659253e-16)
(459.63046 -0.053029297 2.3972163e-16)
(460.69314 -0.092804812 -1.1913724e-17)
(460.03083 0.42578692 8.5877834e-17)
(459.81708 -0.014263577 2.3979965e-16)
(459.68923 -0.51529108 -1.5162954e-16)
(459.71069 0.62259216 -1.4822802e-16)
(460.06224 -0.75463829 1.5811933e-16)
(460.05407 0.63879104 -1.9659855e-16)
(459.52051 0.21260125 2.0624213e-16)
(459.43365 -0.92510605 -4.0532556e-16)
(461.05552 0.6539263 2.5639334e-16)
(459.64511 -0.14297039 -1.1936947e-16)
(459.33788 0.18928487 1.8972865e-16)
(460.17652 -0.11739997 -1.970735e-17)
(460.17054 -0.12809065 7.0046006e-17)
(459.09981 0.31854778 -3.1119265e-16)
(459.76584 -0.2946832 4.7121758e-16)
(459.47756 -0.085738017 -1.0772422e-16)
(459.81858 0.21918982 -9.4110453e-17)
(458.71276 -0.5572704 -2.6026887e-16)
(461.50043 0.40505049 -5.6474689e-17)
(457.48326 0.15141392 2.5872447e-17)
(462.4938 -0.53645342 7.9927971e-17)
(457.05043 0.32919202 4.2435559e-17)
(461.88221 -0.49396676 1.8636849e-16)
(457.54729 0.66054615 -4.2536254e-17)
(462.0369 -0.030842685 -9.3405682e-17)
(458.05359 -0.38437384 3.3934609e-16)
(458.60516 0.78691317 6.46382e-17)
(461.61761 -0.98653168 9.2433673e-17)
(458.47826 0.15344989 -5.3566536e-17)
(461.09343 0.93289084 2.6723258e-16)
(460.62629 -1.2776964 -3.5495195e-16)
(455.82168 1.520134 4.5656354e-16)
(462.10573 -0.25166976 1.0682185e-16)
(457.57547 -0.17967458 2.1911102e-17)
(457.16418 -0.32834194 2.8108605e-16)
(461.78859 -0.56605944 -1.728918e-16)
(461.19851 0.62765218 2.1518246e-16)
(457.21728 -1.4441806 3.2154924e-16)
(460.40533 1.2108952 -1.6785658e-16)
(461.82912 -1.0572626 -2.7228476e-17)
(457.72715 0.47843829 4.3473868e-17)
(460.0988 -0.74481516 8.1156855e-17)
(463.83417 -0.72042815 1.0937156e-16)
(462.1106 -0.082782732 -1.8453267e-16)
(460.98404 -1.7572284 -8.3981113e-17)
(462.97862 -1.1616123 -1.3320022e-16)
(463.43789 0.83894003 7.7676304e-17)
(461.12068 1.1453521 4.1755887e-17)
(461.46869 -0.7286895 -2.4302654e-16)
(465.8246 -2.4111692 2.2095278e-16)
(467.72283 -1.1643697 -7.9675016e-17)
(465.40513 0.43136861 -3.1949292e-16)
(465.36994 -0.65773698 1.8635347e-16)
(468.7631 -0.50417657 -6.196889e-17)
(470.70328 1.0811293 1.8193777e-16)
(468.33072 3.814422 2.9858819e-16)
(460.4652 7.2215491 -2.9527029e-16)
(447.66382 10.663061 -9.0586754e-17)
(431.04854 16.299998 -4.5936538e-16)
(413.01727 28.312975 -1.0313376e-15)
(388.59565 40.044704 -9.038141e-16)
(302.26884 52.089172 -3.2013099e-16)
(238.31271 35.433351 -1.4357457e-16)
(197.84836 14.703438 3.9777538e-17)
(459.76082 0.16625663 -7.3380197e-17)
(460.30143 -0.0075153477 -7.7787914e-17)
(458.85008 -0.1753919 1.3537868e-16)
(460.73097 0.044736953 1.1434393e-16)
(459.34259 -0.01217819 -1.8636727e-16)
(459.91164 0.11602664 3.4735596e-17)
(459.41679 -0.3071001 7.0784147e-17)
(460.67666 0.3270636 6.3019298e-17)
(459.97692 -0.13288531 3.446166e-16)
(459.69048 -0.27549542 -5.9780655e-17)
(460.81521 -0.10063077 3.6245344e-16)
(459.86414 0.65525463 -7.9967962e-17)
(460.24462 -0.20700061 1.057563e-16)
(460.02041 -0.36019754 -1.0738189e-16)
(459.48576 0.6493064 6.3626342e-17)
(459.27597 -0.81803486 -3.98689e-18)
(460.61611 0.61608082 4.1528663e-17)
(459.62919 0.24828164 1.707339e-17)
(459.15351 -0.98524547 -1.8860114e-16)
(460.67474 0.61198372 6.9826208e-17)
(459.72182 0.0069889443 6.8722496e-17)
(459.20229 0.031594388 1.9886064e-16)
(460.34752 -0.15145513 2.4656388e-16)
(460.55567 0.088222015 -3.1223164e-16)
(458.89272 0.26924591 1.0487403e-18)
(459.64095 -0.44399447 -1.4161025e-16)
(460.16308 0.052318314 1.9721182e-16)
(459.34187 0.2414083 1.8163024e-16)
(459.94756 -0.55305266 3.4617094e-16)
(460.32884 0.28288471 -3.4500232e-16)
(458.40868 0.16516543 9.6756659e-17)
(460.90019 -0.35967158 -4.0135437e-17)
(458.61845 -0.0013327472 3.5923767e-17)
(460.651 -0.15295978 -1.5419018e-16)
(457.6681 0.25347309 -3.5824547e-17)
(463.55768 -0.043767527 -1.8085092e-16)
(454.74837 0.35297723 1.630313e-16)
(463.32973 -0.35774696 -3.7288461e-16)
(457.1303 0.070808065 2.5443835e-16)
(462.32175 -0.26100862 1.8380479e-16)
(459.36846 0.21217231 2.5425769e-16)
(459.11488 0.22912359 -1.3422082e-16)
(460.26631 0.23065357 4.1457945e-17)
(455.70328 0.60470822 3.0560139e-16)
(460.85432 -0.82837642 -3.9567355e-16)
(458.59751 -0.023600994 1.9493049e-16)
(457.48294 -0.24410334 -2.0650568e-16)
(462.56819 -0.82669346 -2.0851024e-16)
(459.45781 1.5300404 2.4093233e-16)
(456.70224 -1.9053025 -1.9690676e-17)
(462.11105 1.4259786 -2.205851e-16)
(459.42057 -1.1396384 3.9582842e-17)
(458.25869 -0.81113763 2.0783612e-17)
(463.38379 -0.28383506 -2.080166e-16)
(462.71263 -0.74250776 8.1458253e-17)
(460.13814 -0.023196094 1.9186335e-17)
(461.70147 -1.8377645 -1.4451518e-16)
(462.44266 0.72434473 -1.0037383e-16)
(460.03238 0.29941624 -1.7332729e-16)
(461.10762 -2.0880864 2.683976e-16)
(466.35616 -2.6983507 1.7479913e-16)
(467.74058 -0.59065118 -1.4807152e-16)
(463.05421 0.53922252 -2.2716515e-18)
(461.56089 -0.81014006 -6.7395782e-17)
(468.38171 0.13011108 -4.8945953e-17)
(471.9843 2.6207732 1.5171731e-17)
(466.34198 4.62751 -3.0367481e-16)
(460.29177 6.4247153 1.7193641e-16)
(451.6622 10.127647 -8.0802921e-16)
(433.54614 16.89124 -3.5567829e-16)
(410.4651 28.545714 -6.2989088e-17)
(388.05352 42.931856 -8.1357232e-17)
(296.79413 61.975702 -4.6776024e-16)
(231.27983 43.412589 1.0774529e-16)
(193.78818 17.256061 4.9180388e-17)
(458.44046 0.11147719 -6.9087677e-17)
(462.03578 0.056862166 2.092339e-16)
(458.36869 -0.12287163 -1.011509e-16)
(460.20347 -0.017375118 5.9964629e-17)
(459.85313 -0.005043184 9.2635301e-17)
(459.29574 0.2112443 -7.4130114e-17)
(459.76053 -0.42869193 1.254622e-16)
(460.5828 0.26729907 -2.3836516e-17)
(460.58906 0.0018587791 1.5698687e-16)
(459.59492 -0.25880497 8.7835558e-17)
(461.0481 -0.25111131 4.6001763e-17)
(459.75711 0.73219058 -1.0455032e-16)
(460.55828 -0.17469019 3.0032459e-16)
(460.18829 -0.41735088 6.8796772e-17)
(459.29052 0.79127943 1.6718614e-16)
(458.31808 -0.90720358 -1.2706975e-16)
(460.6816 0.52198525 1.7396608e-16)
(460.37166 0.35432304 -2.6255415e-16)
(458.44915 -0.96191345 3.7659136e-16)
(460.5195 0.48177522 -7.71907e-17)
(459.74657 0.13420484 4.2799069e-17)
(459.52471 0.037878689 -1.4912612e-17)
(460.43542 -0.31746766 7.5823235e-17)
(461.17762 0.2375872 -9.1683999e-17)
(458.61078 0.35843071 3.278025e-16)
(460.4978 -0.49456501 -7.7433366e-17)
(459.90064 -0.044269208 -1.1236378e-16)
(459.91897 0.31832657 4.897772e-17)
(459.87549 -0.59437461 1.9479694e-16)
(460.2979 0.51145404 -3.8726856e-16)
(458.24648 0.1063087 2.2968311e-16)
(459.71984 -0.64075141 -3.1115419e-16)
(460.04417 0.22791832 5.6777826e-16)
(459.50782 -0.17279867 -4.6670495e-16)
(458.81019 0.06778007 3.213256e-16)
(461.25879 0.16025381 -5.4810527e-16)
(457.89524 -0.17174835 3.1124841e-16)
(461.08834 0.52390603 4.2618599e-18)
(458.25074 -1.1176545 -9.7772873e-18)
(463.3192 0.50037955 1.89315e-16)
(456.75768 0.72191667 -2.1498225e-16)
(462.16003 -1.0751135 3.045171e-16)
(456.77619 2.1484673 -3.226708e-16)
(459.4559 -0.94917913 3.238367e-16)
(456.72285 -0.19558528 -2.9802635e-16)
(460.2929 0.20583331 2.0600514e-16)
(459.50193 -1.2475831 3.2898376e-17)
(456.3967 0.39895117 -3.0741532e-18)
(463.92117 -0.23937343 -2.0787401e-16)
(455.28076 1.245152 2.7691464e-16)
(460.3611 -2.4506057 -2.2428845e-16)
(460.46806 2.2674097 2.2727224e-16)
(457.1802 -2.6302289 -1.375088e-16)
(462.12505 -0.73656502 -8.349942e-17)
(463.73952 0.087375525 8.4065057e-17)
(458.84691 -0.59877962 1.0911731e-16)
(459.17736 -0.58824908 -2.2405072e-16)
(462.37611 0.90629755 -1.9904297e-16)
(459.86371 0.59337877 -6.6801781e-17)
(459.59068 -3.2429454 6.2172505e-17)
(466.22326 -4.5909925 -2.9615422e-16)
(469.20009 -0.85521082 6.0155365e-16)
(462.16604 1.4204928 -4.9225039e-16)
(457.89069 -1.5547001 8.5164615e-18)
(466.05521 -2.3012758 3.4149961e-16)
(473.56679 3.2750499 -4.6621735e-17)
(469.22604 8.0966783 -6.4612968e-16)
(458.24072 9.5833097 -8.5426771e-16)
(448.94112 12.642522 -1.0413025e-15)
(439.97706 18.859732 -1.2540446e-15)
(420.73751 29.610767 -6.7664323e-16)
(383.41002 52.274535 -3.0840476e-16)
(266.71646 74.424302 8.3631486e-17)
(218.9119 50.051184 -1.0575733e-16)
(188.53244 19.188514 -2.0062173e-17)
(457.03579 0.044063711 -2.9057938e-17)
(464.05733 0.059489582 -1.4159033e-16)
(457.36539 0.011664166 -1.565731e-16)
(460.49227 -0.079011514 -3.1059487e-16)
(460.1627 0.02839816 5.1966783e-17)
(458.59627 0.15154296 -4.9141018e-17)
(461.32774 -0.36541364 -1.0333896e-16)
(458.95121 0.061771717 1.3402006e-16)
(462.10621 0.16649884 8.7534946e-17)
(459.22671 -0.34848203 -1.6695193e-16)
(460.71896 -0.11732087 -4.7450517e-17)
(460.16947 0.60522907 -9.9647547e-18)
(460.13032 -0.18863581 8.267859e-17)
(459.98805 -0.092661791 1.5685726e-16)
(459.84033 0.65956947 -4.7857392e-17)
(457.80634 -0.82186062 8.3906753e-17)
(460.4936 0.27097933 -4.4796412e-17)
(460.76435 0.49526302 7.7230429e-17)
(457.69656 -0.93093546 -5.6352448e-17)
(460.58042 0.35402718 1.3043899e-16)
(459.73049 0.13248581 -1.6113175e-16)
(459.7711 -0.074823647 2.0689729e-16)
(460.52336 -0.24333575 -1.1409343e-16)
(460.9232 0.3354669 1.049948e-16)
(459.51314 0.1761007 -1.9679628e-16)
(460.92631 -0.35141123 -4.8504685e-17)
(460.0052 -0.010242415 1.7862418e-16)
(459.87647 0.26595113 7.7003928e-17)
(459.50373 -0.49734707 1.843918e-16)
(460.58371 0.44558291 -1.9754409e-16)
(458.30982 0.44103491 2.6563092e-16)
(458.78646 -0.73123413 -2.1295295e-16)
(461.04536 -0.53730464 8.7524679e-17)
(459.20447 0.59737449 -3.752734e-19)
(457.89605 -0.05849889 1.9828629e-16)
(460.70244 -0.37410859 -8.3489293e-17)
(459.64146 0.56446805 -1.5084462e-17)
(458.9646 -0.31692504 1.9973848e-16)
(459.75664 -0.5126741 -1.7352926e-16)
(459.94514 -0.0092219741 4.897498e-16)
(459.47972 0.64185232 -4.6966615e-16)
(457.56477 0.027970609 4.5246216e-16)
(460.31822 1.1133446 -1.415041e-16)
(456.20774 0.022295625 1.0464575e-16)
(457.15364 -0.64038938 -4.8745088e-17)
(458.78017 -0.18757991 1.764602e-16)
(457.11958 0.10486278 -1.1609492e-16)
(459.85422 -1.8478757 5.6225507e-16)
(453.90521 2.261664 -3.6836633e-16)
(465.12793 -1.6970553 -3.1147742e-17)
(453.02151 1.4652682 6.4871749e-17)
(457.90471 -2.1872611 -4.8906691e-16)
(460.80258 0.77990614 4.3825367e-16)
(456.6637 -2.9073859 7.8159241e-17)
(461.75303 0.89237471 -3.1575797e-16)
(460.85647 -0.19657515 3.4081408e-16)
(456.7757 -2.0468882 -2.4816007e-16)
(460.27987 1.1788783 1.1076542e-16)
(460.71659 1.3054671 -2.9218938e-16)
(460.86009 -2.8496127 5.2854982e-16)
(465.91093 -4.4265033 -3.192263e-16)
(468.51031 -0.26348638 2.766143e-18)
(462.34837 1.6278956 -7.1236662e-16)
(456.69254 -2.4306782 5.0370732e-16)
(465.60408 -4.1806454 -3.1613622e-16)
(477.3358 1.3558621 2.0979878e-16)
(474.95642 8.9950146 -5.7802107e-16)
(464.04891 13.07229 -4.1150872e-16)
(452.36779 16.740591 -1.7302016e-16)
(442.34485 22.515111 -4.9772458e-16)
(426.71743 34.57052 -5.7631826e-16)
(320.34792 79.246945 -1.7860987e-16)
(235.91453 82.020689 -7.2846861e-17)
(207.39496 53.158659 2.4069219e-17)
(183.12257 20.322125 7.5774267e-19)
(455.97897 -0.054646714 4.7790766e-17)
(465.9967 0.092098447 1.7375913e-16)
(455.56378 0.14115591 6.0417206e-16)
(462.37923 -0.18458417 7.7538352e-17)
(459.80304 0.17030521 -3.2032267e-17)
(458.47721 0.014654277 2.3469546e-16)
(463.10744 -0.34872947 7.8923927e-17)
(456.69722 0.1036621 1.672341e-16)
(463.15081 0.027599214 9.5067052e-17)
(458.84727 -0.15773629 1.0282525e-16)
(459.41913 -0.25805297 2.3211253e-16)
(461.38548 0.78634818 5.5199041e-17)
(458.98331 -0.44372716 7.4803071e-17)
(460.32289 0.034444083 -2.4211034e-17)
(460.21831 0.81893499 1.8715338e-17)
(458.54971 -0.94696315 2.5784537e-16)
(459.32035 0.18416972 -1.4890946e-16)
(460.80383 0.67718187 4.7759967e-17)
(457.22469 -0.9381178 6.4789533e-17)
(461.1232 0.11746993 2.8006294e-16)
(459.41979 0.33265846 -1.4709588e-16)
(460.46671 -0.24049401 2.0396487e-16)
(460.40285 -0.31626569 -2.0687298e-16)
(460.054 0.42389466 1.4288517e-16)
(461.2717 0.18400764 2.043288e-16)