/*--------------------------------*- C++ -*----------------------------------*\
| =========                 |                                                 |
| \\      /  F ield         | OpenFOAM: The Open Source CFD Toolbox           |
|  \\    /   O peration     | Version:  2.3.0                                 |
|   \\  /    A nd           | Web:      www.OpenFOAM.org                      |
|    \\/     M anipulation  |                                                 |
\*---------------------------------------------------------------------------*/
FoamFile
{
    version     2.0;
    format      ascii;
    class       volScalarField;
    location    "0.02";
    object      alpha.water;
}
// * * * * * * * * * * * * * * * * * * * * * * * * * * * * * * * * * * * * * //

dimensions      [0 0 0 0 0 0 0];

internalField   nonuniform List<scalar> 
725
(
1
1
1
1.00001
1.00011
1
1
1
1.00002
0.999993
1
1
1
1.00001
1.00003
1
1
1
1.00005
0.999776
1
1
1
1.00032
0.999427
1.00004
1
0.814078
0.0555124
0.00144335
0.0014447
0.0145016
0.525935
0.957035
0.97108
0.971378
0.975552
0.997664
0.999631
0.999805
0.999899
0.999928
0.999947
0.999965
0.999981
0.999991
0.999988
0.999987
1.00001
1.00001
0.999996
1
1.00001
0.964053
0.230047
0.000516492
0.000516498
0.000517273
0.000517941
0.351896
0.998435
0.999733
0.999914
0.999975
0.99999
0.999994
0.999996
0.999997
0.999997
0.999995
1.00004
1
0.819361
0.0472472
0.00144366
0.00145437
0.01814
0.51294
0.945011
0.97397
0.971411
0.976505
0.988488
0.999672
0.999797
0.999818
0.999809
0.99981
0.999816
0.999824
0.999836
0.999854
0.999875
0.999897
0.999924
0.999947
0.999987
1
0.981341
0.25339
0.000517989
0.000516618
0.00051855
0.000519409
0.347832
0.983906
0.99986
0.999845
0.999821
0.999802
0.999797
0.999803
0.999815
0.999827
0.99984
1.00004
1
0.799491
0.0350874
0.00145408
0.00170864
0.0162769
0.498027
0.962851
0.983258
0.971378
0.996356
0.988441
0.994969
0.999888
0.99992
0.999798
0.999778
0.999769
0.999767
0.999773
0.999789
0.99981
0.999833
0.999867
0.999892
0.999966
1
0.99918
0.312253
0.000508133
0.000517832
0.000520011
0.000525051
0.29301
0.909107
0.999937
0.999875
0.999831
0.999796
0.999756
0.999717
0.999681
0.99965
0.999629
1
0.999995
0.786248
0.0354711
0.00170818
0.00194431
0.010341
0.55883
0.993808
0.993788
0.982737
0.997377
0.992744
0.992697
0.999583
0.999731
0.999639
0.999633
0.999641
0.999643
0.999645
0.99966
0.999689
0.999726
0.999779
0.999802
0.999965
1.00001
1
0.358217
0.000504495
0.000503114
0.000518124
0.00052096
0.330565
0.841839
1
1
0.999901
0.999852
0.999813
0.999778
0.999744
0.999712
0.999678
0.980846
0.999472
0.690002
0.0687865
0.00195285
0.00181792
0.00202033
0.673811
0.999777
0.999829
0.999815
1.00002
0.998806
0.994658
0.998916
0.999524
0.999431
0.999428
0.999462
0.99949
0.999506
0.99953
0.999566
0.999615
0.999685
0.999715
0.999967
1.00003
0.999442
0.35053
0.000376089
0.000481407
0.000501589
0.000527439
0.316616
0.831271
1
1.00001
0.999876
0.999827
0.999798
0.999779
0.99976
0.999738
0.999713
0.220675
0.954508
0.535102
0.0879836
0.00162103
0.00127997
0.00565112
0.817898
0.999835
0.999852
0.999826
1.00022
0.996394
0.997183
0.998858
0.999452
0.999121
0.99911
0.999205
0.999287
0.999342
0.999408
0.999484
0.999559
0.999651
0.999706
0.999938
1.00012
0.982929
0.435083
0.000164341
0.000469114
0.00110669
0.000744251
0.320224
0.826452
1.00002
1.00004
0.999863
0.999801
0.999772
0.99976
0.999749
0.999734
0.999716
0.28054
0.936287
0.292288
0.132862
0.00150325
0.00101061
0.027743
0.810787
0.999845
0.99985
1.00008
0.998852
0.996393
0.998267
0.997776
0.998709
0.998857
0.998984
0.999132
0.999225
0.999287
0.999347
0.999422
0.999507
0.999614
0.999685
0.999948
1.00007
0.962162
0.416385
0.00208385
0.0010948
0.00372919
0.00166706
0.275815
0.844984
0.999954
0.999877
0.999805
0.999757
0.999782
0.999774
0.99976
0.999743
0.999723
0.17232
0.935143
0.74896
0.121075
0.000997319
0.000819108
0.0709642
0.81185
0.999813
0.999767
1.00007
0.999417
0.996394
0.998279
0.998265
0.998707
0.998955
0.999023
0.99919
0.999258
0.999303
0.999338
0.99939
0.999468
0.999579
0.999691
0.999829
1.00002
0.941952
0.378405
0.00174661
0.00160187
0.00135427
0.00175761
0.267651
0.855436
0.999857
0.999792
0.999731
0.999703
0.999697
0.999715
0.999723
0.99972
0.99971
0.302597
0.933644
0.863974
0.104882
0.00079898
0.000716308
0.0746258
0.821172
0.999823
0.999802
1.00006
0.999862
0.996409
0.997144
0.999175
0.998938
0.999096
0.999583
0.999453
0.999389
0.999374
0.999379
0.999405
0.999461
0.99956
0.999676
0.999795
1.00002
0.935888
0.291207
0.00126161
0.00123745
0.000504583
0.00127515
0.265607
0.862495
0.999729
0.999654
0.999647
0.999669
0.999698
0.999722
0.999732
0.999733
0.999725
0.239352
0.911288
0.573083
0.0546126
0.000693879
0.000678779
0.0746578
0.85777
0.999908
0.999801
1.00008
0.999971
0.997659
0.994599
0.99816
0.998762
0.999232
0.9993
0.999309
0.999328
0.999365
0.999388
0.999411
0.999463
0.999551
0.999663
0.99978
1.00001
0.937355
0.397872
0.00410992
0.000546348
0.000480044
0.000503942
0.249744
0.877483
0.999634
0.99953
0.999601
0.999673
0.999727
0.999751
0.999759
0.99976
0.999751
1
1
1
1
1.00002
1
1
1
0.999997
1.00005
1
1
1
0.999997
1.00004
1
1
1
0.999994
1.00002
1
1
1
0.999976
0.999951
0.905808
0.939383
0.396738
0.000689837
0.000675864
0.000674779
0.102664
0.886454
0.999991
0.999985
0.999981
1.00005
0.998015
0.994564
0.997028
0.999479
0.999474
0.999433
0.999404
0.999407
0.999433
0.999461
0.999494
0.999536
0.999595
0.999682
0.999824
1.00001
0.960048
0.414273
0.00398998
0.000477654
0.000463412
0.000452075
0.210494
0.901818
0.99993
0.999615
0.999745
0.9998
0.999821
0.999821
0.999813
0.999801
0.999782
1
0.999979
0.592948
0.00889038
0.000674767
0.000674621
0.146819
0.930685
1
0.99995
0.999901
0.99992
0.993923
0.994557
0.998495
0.999246
0.999486
0.999531
0.999537
0.999551
0.999592
0.999646
0.999693
0.999722
0.999734
0.999765
0.999844
1
0.985851
0.426838
0.00130961
0.0004782
0.000453625
0.000450783
0.271497
0.990248
0.999941
0.99994
0.999913
0.9999
0.999879
0.99985
0.999819
0.999787
0.999755
0.999962
1
0.695123
0.0205991
0.000674673
0.00067462
0.189385
0.963394
1
0.999924
0.999924
0.992182
0.992567
0.99892
0.999394
0.999577
0.999637
0.999649
0.999665
0.999794
0.999831
0.999815
0.999807
0.999806
0.999806
0.999825
0.999877
1.00001
1
0.403005
0.000607974
0.000495797
0.000463432
0.000448784
0.218883
0.998725
0.999873
0.999903
0.999883
0.999856
0.999822
0.999788
0.999756
0.999728
0.999704
1
1
0.711182
0.0293758
0.000680621
0.000674629
0.224815
0.986168
1
0.99989
0.996064
0.991103
0.997265
0.999501
0.99962
0.999707
0.999752
0.999773
0.999785
0.99979
0.999797
0.999805
0.999818
0.999835
0.999849
0.999873
0.999918
0.999999
1
0.429404
0.000736155
0.000497828
0.000479739
0.000455862
0.224333
0.999857
0.999781
0.999851
0.99984
0.99982
0.999807
0.999803
0.999806
0.999812
0.999817
0.999999
1
0.762551
0.0893084
0.000733646
0.000677896
0.240154
0.985119
1
0.999532
0.996547
0.996362
0.999168
0.999713
0.999835
0.999904
0.999943
0.999967
0.999983
1.00001
1.00001
1.00001
1.00001
1.00001
1.00001
1.00003
1.00003
1.00002
1
0.428448
0.000649294
0.000495094
0.000489707
0.000476217
0.181871
0.996511
0.999927
0.999953
0.999976
0.999985
0.99999
0.999994
0.999995
0.999995
0.999992
)
;

boundaryField
{
    AirInlet
    {
        type            fixedValue;
        value           uniform 0;
    }
    WaterInlet
    {
        type            fixedValue;
        value           uniform 1;
    }
    ChannelWall
    {
        type            zeroGradient;
    }
    Outlet
    {
        type            inletOutlet;
        inletValue      uniform 0;
        value           nonuniform List<scalar> 
15
(
0.999995
0.99984
0.999629
0.999678
0.999713
0.999716
0.999723
0.99971
0.999725
0.999751
0.999782
0.999755
0.999704
0.999817
0.999992
)
;
    }
    FrontAndBack
    {
        type            empty;
    }
}


// ************************************************************************* //
