/*--------------------------------*- C++ -*----------------------------------*\
| =========                 |                                                 |
| \\      /  F ield         | OpenFOAM: The Open Source CFD Toolbox           |
|  \\    /   O peration     | Version:  2.3.0                                 |
|   \\  /    A nd           | Web:      www.OpenFOAM.org                      |
|    \\/     M anipulation  |                                                 |
\*---------------------------------------------------------------------------*/
FoamFile
{
    version     2.0;
    format      ascii;
    class       volScalarField;
    location    "0.02";
    object      alpha.water;
}
// * * * * * * * * * * * * * * * * * * * * * * * * * * * * * * * * * * * * * //

dimensions      [0 0 0 0 0 0 0];

internalField   nonuniform List<scalar> 
725
(
1
1
1
1.00002
0.985788
1
1
1
1.00009
0.999786
1
1
1
1.00002
1
1
1
1
1.00002
1
1
1
1
1
0.78872
0.915252
0.588604
0.6708
0.854612
0.999572
0.999627
0.999779
0.999847
0.999887
0.999894
0.999887
0.999875
0.999863
0.999852
0.999843
0.999835
0.999832
0.999833
0.99985
0.999864
0.999874
0.999889
0.999871
0.999892
0.999903
0.999918
0.999918
0.999905
0.999894
0.999905
0.999924
0.999944
0.999967
0.999988
1
0.939213
0.330779
0.245334
0.245357
0.245149
0.749072
0.999746
0.999749
0.999812
0.999569
0.999702
0.314148
0.519251
0.875227
0.999926
0.999701
0.999669
0.999697
0.999769
0.999804
0.999913
0.999964
0.999929
0.999912
0.999894
0.999867
0.999826
0.99979
0.999764
0.999746
0.999746
0.999744
0.99974
0.99975
0.999767
0.999769
0.99976
0.999685
0.999583
0.999525
0.999581
0.999735
0.99987
0.999946
1
0.958208
0.3351
0.245351
0.245383
0.245093
0.738184
0.998315
0.998097
0.998049
0.999043
0.594082
0.160967
0.34619
0.986577
0.999938
0.999946
0.999729
0.9997
0.999714
0.999773
0.999803
0.999876
0.99992
0.999962
0.999922
0.999897
0.999893
0.999865
0.99982
0.999702
0.999748
0.999763
0.999843
0.999934
0.999932
0.999801
0.999742
0.999804
0.999641
0.998707
0.998563
0.999365
0.999921
0.999935
0.999996
1
0.451105
0.245424
0.24524
0.245173
0.780738
0.998365
0.998028
0.997099
0.997119
0.0924713
0.125997
0.586698
0.985062
0.999938
0.99994
0.999861
0.999717
0.999693
0.999724
0.999774
0.999744
0.999724
0.999964
0.999965
0.999958
0.999973
0.999784
0.999603
0.999343
0.999735
0.999917
0.998207
0.995856
0.996235
0.998047
0.999845
1
0.99968
0.997837
0.99756
0.998499
0.999599
0.999937
0.999998
1
0.499832
0.245329
0.245133
0.245199
0.894217
0.998802
0.997942
0.997099
0.997643
0.00718781
0.0939925
0.68735
0.903105
0.987515
0.999939
0.999872
0.999703
0.999715
0.999922
0.999581
0.997563
0.999204
0.992966
0.98846
0.996955
0.996298
0.995389
0.995674
0.999627
0.99991
0.999916
0.994294
0.979963
0.976764
0.992036
0.999958
1.00005
1.00003
0.999297
0.996019
0.995952
0.998581
0.999925
1.00004
1
0.791642
0.303863
0.245338
0.282109
0.995525
0.99882
0.998278
0.997103
0.997625
1.18117e-05
0.075846
0.694501
0.754073
0.934078
0.999907
0.999878
0.999598
0.999562
1.00005
1.00002
0.988215
0.999081
0.976405
0.969753
0.987885
0.997396
0.995407
0.998285
0.999628
0.992262
0.996851
0.971703
0.971699
0.971695
0.982218
0.998873
0.999591
1.00063
0.997639
0.99604
0.996207
0.998541
0.999607
1.00008
1.00001
0.898467
0.509476
0.245711
0.338687
0.999071
0.999034
0.999081
0.998673
0.998016
1.25245e-05
0.0967907
0.720021
0.733301
0.942386
0.999875
0.999871
0.999499
0.99938
0.999585
0.993874
0.976404
0.993011
0.970764
0.969739
0.976642
0.998284
0.999143
0.999206
0.999528
0.983562
0.971929
0.971763
0.971695
0.971693
0.971695
0.995752
0.999578
1.00035
0.998321
0.996061
0.997144
0.999164
0.999824
1.00006
1
0.884589
0.628428
0.318641
0.339412
0.999099
0.999111
0.998932
0.998992
0.998386
8.56565e-06
0.138019
0.735532
0.7738
0.940991
0.99928
0.99987
0.999474
0.999058
0.999589
0.979667
0.976318
0.976229
0.977717
0.96972
0.96971
0.998119
0.995699
0.995221
0.992939
0.983042
0.984582
0.971844
0.975168
0.971694
0.973882
0.995374
0.999637
1.00027
0.998981
0.9961
0.997307
0.999843
0.99985
1.00008
1
0.957253
0.494885
0.388941
0.413398
0.998216
0.999108
0.998139
0.998249
0.996928
0.00559644
0.109329
0.70308
0.885838
0.998962
0.99632
0.9997
0.999051
0.99918
0.999544
0.995176
0.977642
0.976216
0.993016
0.970345
0.969704
0.993837
0.985393
0.984898
0.988538
0.991354
0.992197
0.979355
0.983027
0.971733
0.991296
0.999586
0.999572
0.9998
0.999135
0.996864
0.997972
0.999573
0.999879
0.999969
1
0.979887
0.500655
0.653608
0.737871
0.995831
0.998555
0.997325
0.996682
0.996466
0.0196515
0.349849
0.776621
0.994965
0.999874
0.998442
0.999281
0.998962
0.999257
0.999016
0.999537
0.994858
0.976769
0.994489
0.978094
0.969687
0.969781
0.983251
0.999636
1
0.997223
0.991987
0.986865
0.983377
0.979801
0.997134
0.999767
0.999832
0.999888
0.99958
0.999306
0.999555
0.99985
0.999924
0.999932
0.999995
0.945102
0.598671
0.962136
0.997489
0.995773
0.997009
0.999032
0.999446
0.998763
1
1
1
1
0.873959
1
1
1
1.00001
1
1
1
1
1.00002
1
1
1
1
1.00002
1
1
1
1
1
0.968504
0.0615083
0.282363
0.877517
0.999861
0.999897
0.999746
0.999061
0.998979
0.999629
0.999629
0.999535
0.997712
0.997197
0.996882
0.972626
0.969667
0.969678
0.988039
0.999999
1.00001
0.999757
0.975224
0.967371
0.967375
0.984099
0.999993
0.999992
0.999957
0.999923
0.999873
0.999791
0.999902
0.999932
0.999948
0.999944
0.999976
0.992878
0.972147
0.999962
0.9994
0.996795
0.996792
0.999046
0.999776
0.999773
0.262838
0.512724
0.968379
0.999895
0.999895
0.999857
0.999833
0.999833
0.998927
0.998615
0.999544
0.999696
0.999694
0.984856
0.969671
0.969671
0.976888
0.997768
1
1.00002
1
0.973334
0.967378
0.967366
0.977002
0.998969
0.999955
0.999866
0.999872
0.99988
0.999873
0.999888
0.999954
1.00003
0.99999
1.00001
1
0.999997
0.999963
0.999999
0.999525
0.999336
0.998884
0.999234
0.999819
0.362233
0.61139
0.977354
0.993199
0.999886
0.999914
0.999856
0.998692
0.998362
0.998563
0.99966
0.999695
0.997336
0.970516
0.986081
0.993732
0.999131
0.999845
0.999963
1
1
0.97485
0.96742
0.971275
0.993344
0.9999
0.999857
0.999862
0.99988
0.999888
0.999955
0.999878
0.999867
0.999866
0.999971
1.00002
1.00006
0.999991
1.00005
1
0.999623
0.999357
0.999421
0.999883
0.999815
0.499519
0.752083
0.977641
0.981071
0.999886
0.999217
0.998658
0.998747
0.99882
0.999255
0.999659
0.997102
0.970555
0.969115
0.99112
0.999879
0.999878
0.999905
0.999985
0.997288
0.982503
0.974302
0.984803
0.998614
0.999911
0.999907
0.999871
0.999849
0.999927
0.999948
0.999906
0.999871
0.999847
0.999812
0.999745
0.999737
0.999766
0.999798
0.999807
0.999837
0.999623
0.999511
0.999407
0.999376
0.999378
0.85159
0.923809
0.971622
0.991771
0.999403
0.997544
0.996504
0.998571
0.998932
0.997604
0.979585
0.967254
0.967251
0.976717
0.998794
0.999483
0.999747
0.999908
0.987301
0.981299
0.984671
0.997507
0.999695
0.999693
0.999731
0.999772
0.999807
0.999842
0.999856
0.999858
0.999841
0.999816
0.999792
0.999745
0.999724
0.999704
0.999673
0.999655
0.999634
0.999632
0.999625
0.999671
0.999743
0.9998
0.999489
)
;

boundaryField
{
    AirInlet
    {
        type            fixedValue;
        value           uniform 0;
    }
    WaterInlet
    {
        type            fixedValue;
        value           uniform 1;
    }
    ChannelWall
    {
        type            zeroGradient;
    }
    Outlet
    {
        type            inletOutlet;
        inletValue      uniform 0;
        value           nonuniform List<scalar> 
15
(
0.999569
0.999043
0.997119
0.997643
0.997625
0.998016
0.998386
0.996928
0.996466
0.998763
0.999773
0.999819
0.999815
0.999378
0.999489
)
;
    }
    FrontAndBack
    {
        type            empty;
    }
}


// ************************************************************************* //
