/*--------------------------------*- C++ -*----------------------------------*\
| =========                 |                                                 |
| \\      /  F ield         | OpenFOAM: The Open Source CFD Toolbox           |
|  \\    /   O peration     | Version:  2.3.0                                 |
|   \\  /    A nd           | Web:      www.OpenFOAM.org                      |
|    \\/     M anipulation  |                                                 |
\*---------------------------------------------------------------------------*/
FoamFile
{
    version     2.0;
    format      ascii;
    class       volScalarField;
    location    "0.02";
    object      p;
}
// * * * * * * * * * * * * * * * * * * * * * * * * * * * * * * * * * * * * * //

dimensions      [1 -1 -2 0 0 0 0];

internalField   nonuniform List<scalar> 
725
(
96.3518
54.2486
42.8974
40.8202
51.3661
90.4014
54.5931
42.6628
39.1112
40.8442
87.7105
54.2473
41.4258
34.8485
19.8774
88.0296
53.0515
39.4284
28.4601
-12.3465
91.3222
51.0637
36.7461
19.8445
-56.1566
131.307
272.977
237.454
41.3195
34.8171
27.0024
-6.72054
151.065
62.429
-43.8746
-9.60478
19.5847
44.8801
26.1411
13.6029
13.2277
10.9974
9.30961
7.84705
6.15988
4.4195
2.2798
-0.834192
-5.27887
-12.4957
-25.2138
-49.6992
-96.7171
-257.078
-109.576
-2.97543
-4.4352
-4.38892
-7.49611
75.1645
276.075
75.6468
37.7647
17.2332
9.39896
6.33697
4.47967
3.02706
2.0276
1.26559
118.434
268.422
303.453
41.8552
34.7651
25.6947
-19.3753
-49.9418
1.82493
-65.7069
-10.3776
13.9953
24.6461
23.5333
12.7125
12.7894
10.3389
8.62073
7.14397
5.44264
3.73749
1.78695
-1.099
-5.31565
-11.9275
-23.0398
-42.2429
-73.5299
-142.015
-75.4577
-2.71897
-4.74246
-4.41535
-6.05938
32.2181
218.811
51.6683
29.6994
14.6471
8.10729
5.42461
3.67876
2.25593
1.30053
0.605206
91.9962
249.665
375.885
48.475
34.2302
20.8119
-16.9242
-282.709
-82.3042
-66.515
-16.6498
-8.74732
30.1897
21.7066
11.5041
13.2394
10.1225
8.46005
7.05227
5.35988
3.73241
1.97296
-0.685429
-4.43703
-10.0977
-18.8905
-31.3276
-40.1283
13.6112
40.2247
-3.27627
-5.6046
-4.597
-5.29638
-74.247
-35.2216
0.341333
15.1636
10.5729
6.88728
5.30669
4.11639
2.78659
1.64336
0.633394
49.5249
196.337
875.443
63.9208
32.193
13.1322
-12.6297
-485.413
-142.564
-32.3723
-16.9595
-4.27685
6.05259
40.6969
8.90178
12.6296
9.83831
8.35139
6.99079
5.28686
3.79072
2.32307
-0.0372964
-3.1461
-7.59022
-13.8379
-20.4488
-12.4053
44.9465
-39.8541
-0.969629
-7.37604
-6.03545
-8.23006
-5.77557
-11.4948
-40.0026
2.16724
5.7585
5.24571
4.67824
3.56276
2.11362
1.04882
0.236062
-49.6937
-25.5471
1208.4
36.8481
24.3135
5.808
-2.41422
-470.517
-104.974
8.30683
-2.85823
23.7416
47.3721
24.4095
12.4049
13.5623
9.67741
8.26111
6.96229
5.17703
3.87106
2.82644
0.767455
-1.57405
-4.68449
-8.77868
-13.1515
3.86586
89.4753
-25.5913
-0.76995
-11.015
-7.57548
-11.963
392.568
47.9037
-69.2734
-5.84458
2.19139
3.90401
4.3387
3.53129
1.89042
0.811043
-0.0868712
4073.11
-832.427
3683.83
185.267
3.80229
11.1253
-18.8951
448.273
-53.9719
38.0834
10.3466
27.4585
46.0654
21.5745
10.6027
14.4115
9.13222
8.35285
7.17249
5.08518
3.88758
3.24047
1.22358
-0.567878
-2.79401
-5.78014
-13.4925
-36.3194
41.836
1223.61
2.29493
-12.0033
-10.2741
-3.89665
157.133
-37.1647
-54.7535
-3.01191
2.46541
3.53303
3.83492
2.61388
1.10552
0.550426
-0.0996555
3223.25
-937.717
12050.4
761.593
-4.92965
13.8332
-149.621
389.557
-45.429
45.2907
16.3088
58.3266
48.6078
40.9454
46.2765
15.3297
17.1614
12.809
9.74623
7.14043
5.7147
3.5052
1.40043
-0.192476
-2.05736
-4.56864
-12.9783
-53.9277
-80.8619
608.488
17.12
-12.9077
72.2574
2.33111
2.78948
-119.74
-51.5182
-3.09819
2.64942
3.45827
3.98051
3.11539
1.38743
0.802253
0.0948641
5283.26
-830.777
1783.09
473.185
-4.30342
12.591
-27.3016
398.63
-40.4175
50.6403
21.4717
42.0685
50.1731
41.6111
30.0538
15.7522
13.6214
11.4068
7.72353
5.9481
5.15541
3.97664
2.21549
0.277124
-1.25834
-3.44039
-13.1099
-70.9474
-140.728
-388.32
45.9386
7.00608
-4.98848
3.78277
-18.4954
-134.274
-50.8788
-3.09061
3.00071
3.43461
4.01272
3.20935
2.53064
1.45556
0.220646
3334.64
-831.409
6604.9
221.472
2.17856
11.4228
-4.38361
350.149
-24.824
54.2422
26.8076
41.0304
50.8509
25.1213
60.0583
9.2516
13.0369
14.515
10.2125
5.85254
5.01944
2.68588
1.85566
0.847539
-0.353455
-2.337
-11.5932
-81.6414
-169.788
837.542
61.2191
-0.26555
-2.95895
0.354218
58.3088
-133.632
-53.0106
-3.11882
3.5162
4.51189
3.99778
3.02826
2.18931
0.97571
-0.273584
3945.02
-1118.95
-3137.25
40.9552
5.74931
10.8649
-3.02294
266.132
-3.71763
59.3891
32.9534
44.5911
52.6385
28.5486
27.2844
8.02731
12.7266
4.13304
5.11832
3.77899
5.00046
2.80495
1.92841
1.18599
0.6611
-0.976504
-8.9375
-77.0973
-63.9788
-866.029
34.4093
3.375
-3.76453
0.772097
11.1436
-168.754
-51.322
-2.72858
5.70121
4.33171
3.07313
2.10594
2.12476
0.95684
-0.282283
-228.642
-269.621
-281.053
-300.727
-332.175
-232.056
-267.825
-279.161
-294.139
-324.911
-232.499
-266.897
-277.901
-289.59
-302.571
-229.929
-266.781
-277.353
-286.743
-285.16
-224.085
-267.311
-277.592
-286.157
-276.972
-50.3703
-1571.47
-2744.38
-5.45838
7.31596
9.34151
-20.6212
304.583
51.4144
74.2971
46.1462
53.4562
56.4577
32.2339
27.8543
11.6378
11.9767
10.4671
8.9274
7.56081
5.16436
3.1915
2.27435
1.51525
1.52579
2.26024
-0.120061
-12.9236
219.407
511.982
-33.2176
-1.42637
-4.79296
2.89103
-176.158
-267.133
-35.2819
0.560773
0.493154
3.51441
3.1775
2.30541
1.99748
0.9903
-0.224204
-201.721
-925.039
-1193.07
-53.3721
5.15333
7.12329
18.9571
276.157
88.8793
99.082
63.7508
58.4399
40.7064
29.8519
19.5231
13.2324
11.7573
9.74217
7.8711
6.45237
5.10296
3.62847
2.99943
2.9704
4.14444
8.08735
15.7963
46.7306
194.091
84.0765
-14.8796
-3.47016
-5.45154
-1.99644
13.3177
62.9338
3.40595
8.1955
3.67759
4.60817
3.78058
2.655
1.9254
0.790007
-0.378454
-224.728
-462.81
-125.864
-97.5832
2.43953
5.22456
39.4322
317.283
110.523
121.404
76.0655
74.7856
60.2614
22.521
17.4993
13.0963
11.6436
9.66643
7.78655
6.41218
5.17163
3.96297
3.61344
4.24878
6.78609
13.2824
27.0427
63.2829
141.039
-67.807
-9.70295
-4.04143
-5.33157
-4.05037
22.1129
128.493
13.5633
13.4951
5.67303
4.98873
3.87522
2.77838
1.97302
1.12042
-0.0303447
-226.739
-273.617
-154.678
-125.464
2.56808
4.59172
63.4257
364.521
137.425
134.804
86.6572
94.6557
24.6423
23.4389
17.6434
13.2512
11.3807
9.45223
7.63803
6.31207
5.14311
4.14731
4.02726
5.14712
8.67692
16.9751
33.9284
69.7406
124.337
-1.98311
-10.1598
-4.59944
-5.18977
-4.47828
-14.963
15.116
4.34529
10.3169
6.24777
5.53426
4.10915
2.74304
1.61339
0.433327
-0.756984
-219.801
-153.135
94.8212
-145.616
6.73176
4.95779
77.9048
360.368
141.526
140.538
90.6125
58.2446
33.2475
24.9778
18.6767
14.0201
11.8673
9.96924
8.22881
7.03117
5.90791
4.97717
4.96079
6.25599
10.2335
19.5404
38.09
74.295
128.998
26.938
-8.96613
-4.66538
-5.10453
-4.06069
-61.8407
-79.7978
-5.02229
7.86904
6.74151
6.30216
4.86798
3.49334
2.30536
1.0686
-0.269619
)
;

boundaryField
{
    AirInlet
    {
        type            calculated;
        value           nonuniform List<scalar> 5(5560.78 9365.24 8129.02 7277.83 5649.49);
    }
    WaterInlet
    {
        type            calculated;
        value           nonuniform List<scalar> 10(96.3538 90.4074 87.7206 88.0437 91.3403 -228.66 -232.07 -232.509 -229.935 -224.087);
    }
    ChannelWall
    {
        type            calculated;
        value           nonuniform List<scalar> 
110
(
91.2961
51.0337
36.7121
19.8065
-56.1985
-228.616
-269.591
-281.019
-300.689
-332.134
-224.112
-267.342
-277.626
-286.195
-277.014
-219.845
-153.179
94.7875
-145.62
6.73168
4.95772
77.8942
360.324
141.481
140.494
90.5685
58.2006
33.2034
24.9337
18.6326
13.976
11.8231
9.9251
8.18467
6.98703
5.86377
4.93303
4.91664
6.21185
10.1894
19.4963
38.0458
74.2509
128.954
26.919
-8.9662
-4.66545
-5.10459
-4.06076
-61.8488
-79.8418
-5.06644
7.8249
6.69737
6.25802
4.82383
3.44919
2.26121
1.02445
-0.313763
96.3783
54.279
42.9318
40.8585
51.4083
131.351
273.021
237.49
41.322
34.8172
27.0025
-6.71986
151.088
62.4713
-43.8318
-9.5619
19.6277
44.9241
26.1852
13.647
13.2719
11.0415
9.35375
7.89119
6.20402
4.46364
2.32395
-0.790048
-5.23472
-12.4515
-25.1696
-49.6551
-96.6729
-257.035
-109.566
-2.97536
-4.43513
-4.38886
-7.49604
75.1801
276.119
75.691
37.8088
17.2773
9.4431
6.38111
4.52382
3.07121
2.07175
1.30973
)
;
    }
    Outlet
    {
        type            calculated;
        value           nonuniform List<scalar> 
15
(
-0.0441448
-0.132414
-0.220643
-0.308916
-0.397191
-0.451132
-0.47075
-0.490358
-0.50998
-0.529608
-0.583568
-0.671821
-0.76005
-0.84841
-0.936847
)
;
    }
    FrontAndBack
    {
        type            empty;
    }
}


// ************************************************************************* //
