/*--------------------------------*- C++ -*----------------------------------*\
| =========                 |                                                 |
| \\      /  F ield         | OpenFOAM: The Open Source CFD Toolbox           |
|  \\    /   O peration     | Version:  2.3.0                                 |
|   \\  /    A nd           | Web:      www.OpenFOAM.org                      |
|    \\/     M anipulation  |                                                 |
\*---------------------------------------------------------------------------*/
FoamFile
{
    version     2.0;
    format      ascii;
    class       volScalarField;
    location    "0.02";
    object      p_rgh;
}
// * * * * * * * * * * * * * * * * * * * * * * * * * * * * * * * * * * * * * //

dimensions      [1 -1 -2 0 0 0 0];

internalField   nonuniform List<scalar> 
725
(
96.3783
54.279
42.9318
40.8585
51.4083
90.481
54.6844
42.7659
39.2261
40.9708
87.8432
54.3996
41.5976
35.04
20.0885
88.2154
53.2646
39.669
28.7281
-12.051
91.561
51.3378
37.0555
20.1893
-55.7769
131.351
273.021
237.49
41.322
34.8172
27.0025
-6.71986
151.088
62.4713
-43.8318
-9.5619
19.6277
44.9241
26.1852
13.647
13.2719
11.0415
9.35375
7.89119
6.20402
4.46364
2.32395
-0.790048
-5.23472
-12.4515
-25.1696
-49.6551
-96.6729
-257.035
-109.566
-2.97536
-4.43513
-4.38886
-7.49604
75.1801
276.119
75.691
37.8088
17.2773
9.4431
6.38111
4.52382
3.07121
2.07175
1.30973
118.566
268.555
303.562
41.8616
34.7654
25.695
-19.3728
-49.8738
1.95009
-65.5779
-10.249
14.1247
24.777
23.6657
12.8449
12.9218
10.4713
8.75314
7.27638
5.57505
3.8699
1.91936
-0.966582
-5.18322
-11.7951
-22.9074
-42.1104
-73.3974
-141.885
-75.424
-2.71876
-4.74226
-4.41515
-6.05918
32.2642
218.941
51.8008
29.8318
14.7796
8.2397
5.55701
3.81117
2.38834
1.43294
0.73762
92.2169
249.886
376.061
48.483
34.2308
20.8125
-16.9204
-282.599
-82.0917
-66.2979
-16.4354
-8.5274
30.4079
21.9262
11.7248
13.4601
10.3431
8.68073
7.27294
5.58055
3.95309
2.19364
-0.464746
-4.21634
-9.87697
-18.6698
-31.1069
-39.9075
13.8317
40.2938
-3.27593
-5.60426
-4.59666
-5.29604
-74.1822
-35.0209
0.562044
15.3843
10.7936
7.10796
5.52736
4.33705
3.00725
1.86401
0.854037
49.8339
196.646
875.686
63.932
32.1938
13.1331
-12.6262
-485.241
-142.257
-32.0652
-16.6558
-3.96865
6.35936
41.0037
9.21066
12.9385
10.1472
8.66029
7.2997
5.59577
4.09962
2.63198
0.271622
-2.83717
-7.28127
-13.529
-20.1398
-12.0963
45.2555
-39.7432
-0.969164
-7.37557
-6.03498
-8.22959
-5.67321
-11.2346
-39.6936
2.47625
6.06748
5.55468
4.98719
3.87171
2.42255
1.35774
0.544977
-49.304
-25.15
1208.67
36.8758
24.3147
5.80912
-2.41302
-470.249
-104.577
8.70407
-2.461
24.1389
47.7689
24.8047
12.8017
13.9594
10.0745
8.65819
7.35938
5.57413
4.26817
3.22356
1.16459
-1.1769
-4.28731
-8.38149
-12.7542
4.26318
89.8724
-25.4517
-0.769403
-11.0144
-7.57489
-11.9624
392.694
48.2341
-68.8761
-5.44727
2.58865
4.30125
4.73593
3.9285
2.28763
1.20824
0.31032
4073.21
-831.997
3684.07
185.308
3.80347
11.1263
-18.8921
448.642
-53.5207
38.5346
10.7977
27.9098
46.515
22.0245
11.0534
14.8625
9.58308
8.80371
7.62339
5.53612
4.33855
3.69146
1.67461
-0.116817
-2.34291
-5.32902
-13.0413
-35.8681
42.2795
1223.8
2.29546
-12.0026
-10.2731
-3.89586
157.278
-36.7917
-54.3022
-2.56063
2.91661
3.9842
4.28608
3.06503
1.55666
1.00157
0.351476
3223.38
-937.276
12050.5
761.656
-4.92847
13.8342
-149.607
389.938
-44.9582
45.7615
16.7797
58.7969
49.0769
41.4154
46.7463
15.7999
17.6317
13.2794
10.2167
7.61095
6.18524
3.97578
1.87104
0.278172
-1.58666
-4.09791
-12.5074
-53.4568
-80.4088
608.684
17.1215
-12.9067
72.2596
2.33236
2.9197
-119.342
-51.0474
-2.62736
3.12021
3.92904
4.45129
3.58617
1.8582
1.27301
0.565614
5283.34
-830.318
1783.45
473.244
-4.30244
12.5919
-27.2663
399.028
-39.9271
51.1307
21.9622
42.5587
50.6618
42.1008
30.5434
16.242
14.1114
11.8968
8.21363
6.43824
5.64557
4.46681
2.70569
0.767363
-0.76805
-2.95004
-12.6195
-70.4569
-140.266
-388.134
45.94
7.00736
-4.98732
3.78412
-18.3638
-133.854
-50.3884
-2.60021
3.49108
3.92496
4.50307
3.69971
3.02101
1.94592
0.711003
3334.8
-830.933
6605.34
221.526
2.17948
11.4237
-4.34507
350.568
-24.314
54.7522
27.3177
41.5404
51.3592
25.63
60.568
9.76118
13.5466
15.0249
10.7224
6.36235
5.52924
3.19568
2.36548
1.35738
0.15644
-1.82704
-11.0832
-81.1312
-169.31
837.691
61.2202
-0.264409
-2.95818
0.355378
58.4447
-133.192
-52.5007
-2.60887
4.02614
5.02185
4.50774
3.53824
2.6993
1.48569
0.236396
3945.15
-1118.47
-3136.95
40.9847
5.75021
10.8658
-2.9829
266.587
-3.18794
59.9188
33.4832
45.1208
53.167
29.0755
27.8132
8.55639
13.2559
4.66241
5.64769
4.30838
5.52986
3.33437
2.45784
1.71544
1.1906
-0.446942
-8.40787
-76.5676
-63.4822
-865.818
34.412
3.37582
-3.76375
0.772894
11.2763
-168.29
-50.7925
-2.19909
6.23074
4.86127
3.60273
2.63555
2.65437
1.48645
0.247326
-227.9
-268.914
-280.381
-300.09
-331.574
-231.261
-267.057
-278.421
-293.427
-324.226
-231.65
-266.068
-277.092
-288.801
-301.801
-229.028
-265.891
-276.475
-285.877
-284.306
-223.131
-266.361
-276.645
-285.214
-276.033
-49.8415
-1570.92
-2744.15
-5.4574
7.31694
9.34248
-20.5608
305.1
51.9981
74.8808
46.7298
54.0399
57.0402
32.8144
28.4362
12.2212
12.5601
11.0504
9.51074
8.14416
5.74773
3.77488
2.85775
2.09868
2.10925
2.84375
0.463532
-12.34
219.967
512.224
-33.2147
-1.42551
-4.79211
2.89188
-176.035
-266.607
-34.6983
1.14424
1.0767
4.09799
3.76109
2.889
2.58106
1.57388
0.359364
-201.049
-924.367
-1192.67
-53.3654
5.15446
7.12442
19.0564
276.783
89.5513
99.7539
64.4227
59.1118
41.3744
30.5202
20.194
13.9039
12.4289
10.4138
8.54277
7.12406
5.77468
4.30022
3.6712
3.6422
4.81625
8.75918
16.4682
47.4026
194.754
84.3637
-14.8781
-3.46917
-5.45056
-1.99547
13.5006
63.5992
4.07789
8.86744
4.34952
5.28009
4.45248
3.32688
2.59726
1.46185
0.293367
-223.968
-462.05
-125.335
-97.5668
2.44081
5.22584
39.5768
318.015
111.283
122.165
76.8257
75.54
61.016
23.2804
18.2591
13.8562
12.4036
10.4264
8.54658
7.1723
5.93178
4.7231
4.37357
5.0089
7.54621
14.0425
27.8029
64.0432
141.799
-67.5001
-9.70173
-4.04029
-5.33045
-4.04926
22.2799
129.253
14.3234
14.2553
6.43321
5.7489
4.63536
3.53849
2.73311
1.88049
0.729705
-225.89
-272.769
-154.074
-125.439
2.5695
4.59314
63.6172
365.358
138.273
135.653
87.5025
95.4967
25.4886
24.2871
18.4917
14.0995
12.2291
10.3006
8.48641
7.16045
5.9915
4.99571
4.87567
5.99554
9.52535
17.8236
34.7769
70.5891
125.186
-1.61824
-10.1583
-4.59817
-5.18851
-4.47705
-14.772
15.9644
5.19367
11.1654
7.0962
6.38267
4.95755
3.59143
2.46179
1.28173
0.0914264
-218.864
-152.198
95.5358
-145.532
6.73338
4.95936
78.1305
361.291
142.462
141.474
91.5461
59.1781
34.1836
25.9144
19.6134
14.9569
12.8041
10.9061
9.16565
7.96803
6.84478
5.91404
5.89766
7.19286
11.1704
20.4773
39.0268
75.2319
129.935
27.3399
-8.96458
-4.66398
-5.10313
-4.05931
-61.6696
-78.8642
-4.08551
8.80586
7.67835
7.239
5.80482
4.43019
3.24221
2.00545
0.667228
)
;

boundaryField
{
    AirInlet
    {
        type            fixedFluxPressure;
        gradient        nonuniform List<scalar> 5(1.48757e+08 6.14186e+08 2.84568e+08 3.94304e+08 1.70434e+08);
        value           nonuniform List<scalar> 5(5560.78 9365.24 8129.02 7277.84 5649.49);
    }
    WaterInlet
    {
        type            fixedFluxPressure;
        gradient        nonuniform List<scalar> 10(0.0054438 -0.961256 -0.535986 -0.418934 -0.0418319 -0.059738 -11.9278 -1.71558 -2.79685 -0.400159);
        value           nonuniform List<scalar> 10(96.3783 90.481 87.8432 88.2154 91.561 -227.9 -231.261 -231.65 -229.028 -223.131);
    }
    ChannelWall
    {
        type            fixedFluxPressure;
        gradient        uniform 0;
        value           nonuniform List<scalar> 
110
(
91.561
51.3378
37.0555
20.1893
-55.7769
-227.9
-268.914
-280.381
-300.09
-331.574
-223.131
-266.361
-276.645
-285.214
-276.033
-218.864
-152.198
95.5358
-145.532
6.73338
4.95936
78.1305
361.291
142.462
141.474
91.5461
59.1781
34.1836
25.9144
19.6134
14.9569
12.8041
10.9061
9.16565
7.96803
6.84478
5.91404
5.89766
7.19286
11.1704
20.4773
39.0268
75.2319
129.935
27.3399
-8.96458
-4.66398
-5.10313
-4.05931
-61.6696
-78.8642
-4.08551
8.80586
7.67835
7.239
5.80482
4.43019
3.24221
2.00545
0.667228
96.3783
54.279
42.9318
40.8585
51.4083
131.351
273.021
237.49
41.322
34.8172
27.0025
-6.71986
151.088
62.4713
-43.8318
-9.5619
19.6277
44.9241
26.1852
13.647
13.2719
11.0415
9.35375
7.89119
6.20402
4.46364
2.32395
-0.790048
-5.23472
-12.4515
-25.1696
-49.6551
-96.6729
-257.035
-109.566
-2.97536
-4.43513
-4.38886
-7.49604
75.1801
276.119
75.691
37.8088
17.2773
9.4431
6.38111
4.52382
3.07121
2.07175
1.30973
)
;
    }
    Outlet
    {
        type            totalPressure;
        rho             rho;
        psi             none;
        gamma           1;
        p0              uniform 0;
        value           uniform 0;
    }
    FrontAndBack
    {
        type            empty;
    }
}


// ************************************************************************* //
