/*--------------------------------*- C++ -*----------------------------------*\
| =========                 |                                                 |
| \\      /  F ield         | OpenFOAM: The Open Source CFD Toolbox           |
|  \\    /   O peration     | Version:  2.3.0                                 |
|   \\  /    A nd           | Web:      www.OpenFOAM.org                      |
|    \\/     M anipulation  |                                                 |
\*---------------------------------------------------------------------------*/
FoamFile
{
    version     2.0;
    format      ascii;
    class       volScalarField;
    location    "0.02";
    object      p_rgh;
}
// * * * * * * * * * * * * * * * * * * * * * * * * * * * * * * * * * * * * * //

dimensions      [1 -1 -2 0 0 0 0];

internalField   nonuniform List<scalar> 
725
(
1503.99
1323.49
1271.77
1303.77
1168.11
1474.91
1325.39
1270.47
1294.41
1078.46
1460.11
1326.04
1268.18
1288.74
1022.58
1457.58
1321
1261.59
1254.85
981.517
1466.75
1313.81
1251.37
1200.45
1032.98
1732.43
1268.28
481.522
490.83
298.06
399.179
416.681
434.969
442.041
443.299
451.238
473.221
463.318
448.492
434.978
424.697
414.097
399.416
389.788
430.539
430.825
435.534
469.103
415.973
351.238
302.725
277.946
263.423
256.908
253.735
252.692
250.957
253.308
255.932
240.126
163.786
733.255
752.436
772.962
717.352
405.643
136.274
79.3248
45.0654
11.501
2014.28
1116.55
524.574
386.997
252.065
400.244
416.862
434.84
441.949
442.791
449.851
472.827
466.595
448.642
433.757
424.049
415.176
400.132
387.364
429.992
428.747
434.626
474.571
414.753
347.478
298.459
276.84
264.174
256.803
251.828
251.141
248.977
249.955
250.853
233.385
164.069
705.446
745.342
767.704
751.508
365.326
104.193
61.5467
36.8079
9.43771
1563.12
1609.33
1545.42
565.416
223.907
397.962
421.298
436.291
442.576
442.269
448.737
471.828
470.073
450.36
432.121
422.464
415.842
399.207
379.613
434.266
425.904
431.87
492.324
413.13
340.328
289.514
274.847
263.032
256.231
253.043
251.96
248.547
247.59
246.167
226.889
189.903
478.188
747.399
753.414
740.614
270.629
90.6541
55.4455
35.9734
9.00635
2530.1
1801.79
604.404
732.225
228.831
385.941
428.436
438.755
443.035
441.181
449.209
471.875
473.847
452.644
429.428
419.256
415.635
395.695
364.617
443.913
421.86
428.246
523.572
409.838
333.079
275.404
271.767
264.094
256.379
255.264
253.874
248.899
246.126
241.986
225.751
158.225
355.145
757.334
735.047
714.955
206.041
95.7526
48.992
36.0716
3.84435
2854.62
2047.82
775.178
538.756
187.038
378.051
436.856
444.661
443.727
440.203
452.545
473.636
477.705
459.172
428.059
414.028
439.356
430.018
374.355
452.552
417.065
418.903
570.109
409.241
338.801
254.225
270.742
262.866
258.455
247.278
264.067
270.517
250.641
237.215
231.078
181.171
309.059
624.621
722.172
669.479
322.336
74.7842
33.9685
28.962
1.55462
3014.52
2226.38
951.703
1169.91
783.426
343.659
423.71
444.434
443.805
435.448
455.65
480.077
479.833
513.216
453.171
405.625
454.112
430.033
484.861
471.685
408.888
397.989
623.736
866.942
350.606
233.307
266.13
266.573
276.132
282.128
263.563
266.473
251.137
238.279
233.025
196.295
13.965
1258.59
690.768
296.34
53.1233
-4.87104
61.1439
32.144
19.1503
3018.09
2121.88
1212.8
1877.12
540.013
346.187
422.517
445.183
443.884
440.448
459.726
484.852
475.01
704.739
453.104
405.842
479.242
567.117
509.638
474.876
505.617
1242.25
642.057
862.304
347.329
575.121
317.448
266.621
270.443
270.428
262.848
265.178
248.937
234.641
233.314
195.448
117.288
4772.43
445.333
341.263
-17.1567
-25.5316
49.7703
43.1509
30.6836
3019.84
1858.87
1244.84
625.595
576.193
355.736
423.821
446.346
449.124
439.943
957.381
492.442
474.301
482.899
449.83
431.399
475.403
441.488
495.341
467.576
523.185
792.46
654.718
860.149
339.187
482.758
332.635
266.599
270.077
268.7
262.015
264.325
251.72
233.262
234.127
179.716
215.67
2511.57
285.348
-310.583
-25.6699
-38.7602
44.4938
17.8005
42.7131
2958.01
2169.13
1468.66
675.967
366.272
440.887
426.237
447.348
445.663
440.183
421.797
443.661
478.954
483.649
445.488
431.923
443.531
439.728
849.362
620.911
316.036
855.032
668.309
875.038
326.35
441.46
266.241
268.811
268.767
267.811
260.364
262.478
250.905
231.917
232.613
157.107
618.257
2394.38
62.4391
-623.252
-32.1853
-47.3209
66.8879
72.702
58.3602
2907.74
1805.2
717.945
765.656
389.255
394.303
429.01
448.681
444.962
434.31
424.579
440.641
459.147
490.039
453.949
429.677
445.306
479.329
331.563
230.526
320.707
841.523
914.276
891.383
311.886
428.034
270.976
267.49
266.406
265.901
259.412
260.532
248.554
230.665
230.343
133.714
96.274
122.663
42.4359
-589.919
-46.3131
-50.1635
6.90236
-22.7598
-2.00996
989.574
838.806
783.101
743.21
715.979
980.138
844.673
786.3
760.766
771.038
982.535
848.839
787.805
761.695
762.702
997.294
848.164
788.857
760.033
659.667
1026.34
846.57
791.946
802.011
760.617
2655.57
1796.91
727.867
756.782
469.48
430.255
439.534
452.515
447.162
440.193
433.123
439.965
451.234
519.683
415.456
424.345
445.383
314.477
319.422
244.341
297.592
192.95
16.6907
91.2806
271.786
389.092
286.369
271.52
266.357
264.06
258.954
257.881
246.806
228.089
221.849
88.5813
-58.8255
-117.414
-64.7417
-443.613
-116.089
-48.0016
-8.34001
-19.3735
-4.03786
1972.74
1379.62
664.548
745.692
516.914
465.52
453.019
457.804
445.878
441.974
439.994
452.746
464.427
388.991
430.349
414.339
385.129
309.055
307.128
254.79
287.293
202.133
99.7638
146.989
278.154
337.166
280.135
269.939
266.393
262.628
257.787
254.669
242.776
221.045
204.794
61.3883
-30.994
-59.8841
-128.613
-284.913
-134.373
-74.3077
-24.1674
-22.8006
-5.92209
1552.5
1072.19
621
733.586
515.715
498.957
465.736
456.061
452.967
442.468
443.575
449.657
444.891
428.868
377.574
396.715
369.114
319.083
301.532
260.773
273.225
198.926
138.488
146.928
238.199
308.575
279.697
270.791
266.431
261.829
257.636
251.759
237.487
211.831
188.458
53.236
9.06979
-30.2952
-133.733
-192.272
-137.416
-78.4242
-37.1807
-25.0955
-7.42349
964.367
650.846
623.333
774.088
504.654
518.567
470.67
459.944
449.927
444.076
442.888
444.09
449.378
452.285
374.818
398.405
370.69
325.98
298.878
261.343
231.794
199.584
124.942
148.46
226.306
293.67
277.441
271.033
266.704
262.066
256.684
249.54
233.188
204.822
175.295
49.6152
25.677
-20.9954
-125.192
-149.206
-135.337
-82.161
-43.8106
-25.8002
-8.38641
1449.31
939.446
695.529
762.659
519.241
536.516
486.327
463.301
451.574
442.49
520.794
560.418
474.335
407.02
413.857
399.293
371.145
327.487
347.849
333.927
234.892
239.736
184.372
160.866
226.998
288.69
276.247
271.093
266.442
261.681
256.938
248.518
230.292
199.762
167.047
45.3699
34.0311
-14.3287
-117.696
-127.624
-134.235
-83.9966
-46.2949
-26.4298
-9.28571
)
;

boundaryField
{
    AirInlet
    {
        type            fixedFluxPressure;
        gradient        nonuniform List<scalar> 5(25990 16505.4 17171.8 512931 1.23413e+07);
        value           nonuniform List<scalar> 5(3014.78 3018.25 3020.02 2963.14 3031.15);
    }
    WaterInlet
    {
        type            fixedFluxPressure;
        gradient        nonuniform List<scalar> 10(0.00128447 -0.39389 -0.862256 -3.4878 -3.44973 0.00637847 -24.3688 0.259961 -96.4734 -17.7067);
        value           nonuniform List<scalar> 10(1503.99 1474.91 1460.11 1457.58 1466.75 989.574 980.137 982.535 997.293 1026.34);
    }
    ChannelWall
    {
        type            fixedFluxPressure;
        gradient        uniform 0;
        value           nonuniform List<scalar> 
110
(
1466.75
1313.81
1251.37
1200.45
1032.98
989.574
838.806
783.101
743.21
715.979
1026.34
846.57
791.946
802.011
760.617
1449.31
939.446
695.529
762.659
519.241
536.516
486.327
463.301
451.574
442.49
520.794
560.418
474.335
407.02
413.857
399.293
371.145
327.487
347.849
333.927
234.892
239.736
184.372
160.866
226.998
288.69
276.247
271.093
266.442
261.681
256.938
248.518
230.292
199.762
167.047
45.3699
34.0311
-14.3287
-117.696
-127.624
-134.235
-83.9966
-46.2949
-26.4298
-9.28571
1503.99
1323.49
1271.77
1303.77
1168.11
1732.43
1268.28
481.522
490.83
298.06
399.179
416.681
434.969
442.041
443.299
451.238
473.221
463.318
448.492
434.978
424.697
414.097
399.416
389.788
430.539
430.825
435.534
469.103
415.973
351.238
302.725
277.946
263.423
256.908
253.735
252.692
250.957
253.308
255.932
240.126
163.786
733.255
752.436
772.962
717.352
405.643
136.274
79.3248
45.0654
11.501
)
;
    }
    Outlet
    {
        type            totalPressure;
        rho             rho;
        psi             none;
        gamma           1;
        p0              uniform 0;
        value           uniform 0;
    }
    FrontAndBack
    {
        type            empty;
    }
}


// ************************************************************************* //
