/*--------------------------------*- C++ -*----------------------------------*\
| =========                 |                                                 |
| \\      /  F ield         | OpenFOAM: The Open Source CFD Toolbox           |
|  \\    /   O peration     | Version:  2.3.0                                 |
|   \\  /    A nd           | Web:      www.OpenFOAM.org                      |
|    \\/     M anipulation  |                                                 |
\*---------------------------------------------------------------------------*/
FoamFile
{
    version     2.0;
    format      ascii;
    class       surfaceScalarField;
    location    "0.02";
    object      phi;
}
// * * * * * * * * * * * * * * * * * * * * * * * * * * * * * * * * * * * * * //

dimensions      [0 3 -1 0 0 0 0];

internalField   nonuniform List<scalar> 
1380
(
3.12445e-13
1.87555e-13
2.81928e-13
3.05167e-14
2.73594e-13
8.33333e-15
2.66444e-13
7.15013e-15
5.20363e-14
2.14408e-13
6.00965e-13
8.65903e-14
6.16741e-13
1.47407e-14
6.0666e-13
1.84146e-14
5.56706e-13
5.7104e-14
2.28278e-13
3.80465e-13
6.84792e-13
-9.82018e-14
7.24084e-13
-2.45512e-14
7.17559e-13
2.494e-14
6.35419e-13
1.39243e-13
5.8126e-13
2.82437e-13
5.97221e-13
-1.95423e-13
6.05092e-13
-3.24223e-14
6.05008e-13
2.50246e-14
5.69016e-13
1.75234e-13
9.72733e-13
1.77544e-13
3.04577e-13
2.72155e-13
2.9718e-13
4.72414e-13
1.44515e-12
7.99101e-13
-5.84693e-13
1.69723e-12
-8.9813e-13
1.68607e-12
1.11639e-14
-1.1726e-13
1.80333e-12
-2.5209e-12
2.40364e-12
-7.41204e-12
4.89114e-12
-7.26351e-12
-1.48534e-13
-1.30623e-12
-5.95728e-12
-6.58543e-13
-6.47686e-13
-9.66328e-13
3.07785e-13
-8.34202e-13
-1.32126e-13
-3.81083e-13
-4.53118e-13
1.66773e-13
-5.47856e-13
2.60332e-13
-9.35592e-14
1.52536e-13
1.07796e-13
1.17608e-13
3.49282e-14
1.20765e-13
-3.15672e-15
1.23929e-13
-3.16486e-15
1.28367e-13
-4.4373e-15
1.31096e-13
-2.72895e-15
1.36369e-13
-5.27363e-15
1.44572e-13
-8.20306e-15
1.51748e-13
-7.17601e-15
1.60868e-13
-9.11975e-15
1.73739e-13
-1.28711e-14
1.98422e-13
-2.46828e-14
2.75325e-13
-7.69031e-14
4.17574e-13
-1.42249e-13
8.57734e-13
-4.4016e-13
-8.74606e-13
1.73234e-12
-1.0846e-12
2.09991e-13
-1.59377e-12
5.09164e-13
6.44476e-13
-2.23824e-12
2.10004e-12
-1.45556e-12
9.01059e-13
1.19898e-12
8.08265e-13
9.27939e-14
5.3475e-13
2.73516e-13
3.57651e-13
1.77099e-13
2.56812e-13
1.00839e-13
1.96143e-13
6.06693e-14
1.70435e-13
2.5708e-14
1.57708e-13
1.27266e-14
1.47926e-13
9.78296e-15
1.47183e-13
7.42646e-16
-9.4715e-15
1.13868e-12
-1.34291e-12
2.18347e-12
-1.94292e-12
2.57855e-12
-3.83908e-13
1.92754e-13
4.18912e-12
-4.19209e-12
6.78849e-12
-1.05758e-11
1.12748e-11
-5.28231e-12
-5.44199e-12
-1.05033e-12
-1.01893e-11
-5.89817e-14
-1.63904e-12
-7.73621e-13
1.02242e-12
-9.17303e-13
1.15559e-14
-4.79763e-13
-8.90658e-13
1.0121e-13
-1.12883e-12
4.3431e-13
-4.2666e-13
3.67812e-13
1.74295e-13
3.16145e-13
8.65956e-14
3.20557e-13
-7.569e-15
3.29305e-13
-1.19122e-14
3.38442e-13
-1.35742e-14
3.45682e-13
-9.96975e-15
3.57295e-13
-1.68868e-14
3.72015e-13
-2.29228e-14
3.82234e-13
-1.73946e-14
3.92947e-13
-1.98327e-14
4.04468e-13
-2.43921e-14
4.2731e-13
-4.75252e-14
5.06943e-13
-1.56535e-13
6.82378e-13
-3.17684e-13
1.28742e-12
-1.0452e-12
1.36386e-12
1.6559e-12
-1.56236e-12
3.13621e-12
-3.23337e-12
2.18018e-12
-6.73528e-13
-4.79809e-12
3.79986e-13
-2.50909e-12
1.9072e-12
-3.28235e-13
1.56747e-12
4.3253e-13
9.79921e-13
8.6106e-13
7.18901e-13
4.38119e-13
5.72085e-13
2.47655e-13
4.74736e-13
1.58019e-13
4.29656e-13
7.07888e-14
4.06815e-13
3.55674e-14
3.89679e-13
2.69186e-14
3.86697e-13
3.72443e-15
-1.76453e-14
7.65511e-13
-1.82598e-12
1.4718e-12
-2.64922e-12
4.63197e-12
-3.54408e-12
7.0534e-12
1.76769e-12
1.51474e-12
1.23272e-11
-5.7936e-12
1.85831e-11
-2.29191e-12
-8.94368e-12
5.53241e-13
-1.30344e-11
1.29325e-12
-2.37905e-12
1.22853e-13
2.19282e-12
-1.01557e-13
2.35966e-13
2.87155e-14
-1.02093e-12
2.80799e-14
-1.12819e-12
3.86185e-13
-7.84765e-13
4.67908e-13
9.2572e-14
4.68684e-13
8.58191e-14
4.80333e-13
-1.92178e-14
4.94152e-13
-2.5731e-14
5.07562e-13
-2.69842e-14
5.17465e-13
-1.98734e-14
5.31231e-13
-3.0653e-14
5.48756e-13
-4.04476e-14
5.59105e-13
-2.7743e-14
5.68627e-13
-2.93552e-14
5.7587e-13
-3.16346e-14
5.87224e-13
-5.88798e-14
6.56999e-13
-2.2631e-13
9.20128e-13
-5.80813e-13
1.38712e-12
-1.51219e-12
-1.95685e-12
4.99987e-12
-2.62574e-12
3.80509e-12
-5.0658e-12
4.62026e-12
-2.99693e-12
-6.86696e-12
-4.40779e-12
-1.09823e-12
8.79528e-13
-5.61556e-12
1.85331e-12
-5.41254e-13
1.27814e-12
1.43623e-12
9.344e-13
7.81861e-13
7.65474e-13
4.16582e-13
6.6314e-13
2.60352e-13
6.17321e-13
1.16608e-13
5.97846e-13
5.50426e-14
5.81203e-13
4.35613e-14
5.75245e-13
9.68267e-15
-2.34395e-14
-1.96672e-13
-1.45177e-12
-1.49173e-12
-1.35416e-12
2.83004e-12
-7.86585e-12
1.07181e-11
-6.12041e-12
8.9984e-12
1.40469e-11
1.02391e-13
2.74792e-11
7.7447e-14
-8.91873e-12
1.53826e-12
-1.44952e-11
1.61002e-12
-2.4508e-12
9.26612e-13
2.87623e-12
5.30673e-13
6.31905e-13
3.17356e-13
-8.07613e-13
1.39457e-13
-9.50295e-13
3.77821e-13
-1.02313e-12
5.31572e-13
-6.11794e-14
5.77831e-13
3.95606e-14
6.01696e-13
-4.30832e-14
6.18576e-13
-4.2611e-14
6.35961e-13
-4.4369e-14
6.46321e-13
-3.02329e-14
6.58229e-13
-4.25616e-14
6.75524e-13
-5.77421e-14
6.83151e-13
-3.53704e-14
6.89785e-13
-3.59891e-14
6.91803e-13
-3.36529e-14
6.914e-13
-5.8477e-14
6.99218e-13
-2.34128e-13
8.93362e-13
-7.74957e-13
1.59047e-12
-2.2093e-12
-2.51453e-13
6.8418e-12
-3.65148e-12
7.20512e-12
-6.39071e-12
7.3595e-12
-7.14899e-13
-1.25428e-11
-8.23745e-13
-9.89388e-13
-1.84468e-13
-6.25484e-12
1.25576e-12
-1.98148e-12
1.31415e-12
1.37784e-12
1.02502e-12
1.07099e-12
8.48431e-13
5.93175e-13
7.60789e-13
3.47994e-13
7.32256e-13
1.4514e-13
7.22029e-13
6.52699e-14
7.09668e-13
5.59221e-14
7.05126e-13
1.42248e-14
-2.23588e-14
-1.08295e-12
1.07633e-12
-7.82892e-12
5.3918e-12
5.26903e-12
-2.09638e-11
2.36162e-11
-2.44676e-11
1.50419e-11
2.26212e-11
6.3131e-12
3.6208e-11
9.05609e-12
-1.16617e-11
2.15761e-12
-7.59674e-12
1.46229e-12
-1.75548e-12
1.45575e-12
2.88277e-12
1.0377e-12
1.04995e-12
6.50435e-13
-4.20344e-13
7.05695e-13
-1.00556e-12
7.88358e-13
-1.10579e-12
6.85408e-13
4.17712e-14
6.82729e-13
4.22395e-14
6.85721e-13
-4.60755e-14
7.03503e-13
-6.03924e-14
7.24999e-13
-6.58657e-14
7.34066e-13
-3.92992e-14
7.404e-13
-4.88958e-14
7.54001e-13
-7.13434e-14
7.55292e-13
-3.66609e-14
7.56877e-13
-3.75744e-14
7.54847e-13
-3.16233e-14
7.39356e-13
-4.29859e-14
6.87677e-13
-1.82448e-13
3.47439e-13
-4.3472e-13
-6.46231e-13
-1.21563e-12
-6.0201e-12
1.22157e-11
-5.32992e-12
6.51495e-12
-6.86372e-12
8.8933e-12
-5.4861e-13
-1.88579e-11
4.87821e-12
-6.41621e-12
-1.29739e-12
-7.92354e-14
-3.33364e-13
-2.94551e-12
9.47071e-13
9.74092e-14
9.56776e-13
1.06128e-12
8.6314e-13
6.86811e-13
8.01728e-13
4.09405e-13
7.89425e-13
1.57443e-13
7.87363e-13
6.73316e-14
7.76832e-13
6.64538e-14
7.72082e-13
1.89743e-14
-1.95093e-14
1.06691e-12
2.09421e-13
-9.40886e-13
7.3996e-12
6.4302e-12
-2.83349e-11
6.19257e-12
-2.423e-11
2.01827e-12
2.67955e-11
8.74913e-13
3.73513e-11
6.53451e-13
-1.14403e-11
7.70115e-13
-7.7134e-12
4.02093e-13
-1.38746e-12
3.42466e-13
2.9424e-12
3.09616e-13
1.0828e-12
2.53584e-13
-3.64312e-13
2.1985e-13
-9.71821e-13
1.86347e-13
-1.07229e-12
1.63082e-13
6.50358e-14
1.57831e-13
4.74901e-14
1.57598e-13
-4.58423e-14
1.62437e-13
-6.52315e-14
1.67153e-13
-7.05812e-14
1.69531e-13
-4.16773e-14
1.70576e-13
-4.99412e-14
1.71607e-13
-7.2374e-14
1.70883e-13
-3.59366e-14
1.70345e-13
-3.70369e-14
1.69769e-13
-3.10474e-14
1.62796e-13
-3.60127e-14
1.50411e-13
-1.70064e-13
7.88755e-14
-3.63184e-13
-6.50054e-13
-4.86705e-13
-4.86452e-12
1.64301e-11
-1.10335e-12
2.75379e-12
-7.7472e-13
8.56466e-12
-7.69853e-13
-1.88627e-11
1.11767e-12
-8.30374e-12
2.22659e-13
8.15779e-13
5.27575e-14
-2.7756e-12
1.75829e-13
-2.56628e-14
1.77583e-13
1.05953e-12
1.81431e-13
6.82963e-13
1.76733e-13
4.14103e-13
1.74799e-13
1.59377e-13
1.75152e-13
6.69785e-14
1.74698e-13
6.69081e-14
1.74381e-13
1.9291e-14
-1.93773e-14
-1.22235e-12
1.63177e-12
3.74735e-13
5.80252e-12
7.65843e-12
-3.56186e-11
-4.15163e-13
-1.61564e-11
2.62527e-14
2.63541e-11
6.42307e-13
3.67353e-11
1.0829e-12
-1.18809e-11
6.3097e-13
-7.26148e-12
3.92727e-13
-1.14922e-12
3.46517e-13
2.98861e-12
3.27816e-13
1.1015e-12
3.004e-13
-3.36896e-13
2.31394e-13
-9.02815e-13
1.87923e-13
-1.02882e-12
1.67151e-13
8.58076e-14
1.58733e-13
5.59081e-14
1.59457e-13
-4.65666e-14
1.63918e-13
-6.96925e-14
1.68976e-13
-7.56392e-14
1.71304e-13
-4.40052e-14
1.7238e-13
-5.10174e-14
1.72631e-13
-7.26251e-14
1.71347e-13
-3.46527e-14
1.70474e-13
-3.61637e-14
1.69986e-13
-3.05592e-14
1.61135e-13
-2.7162e-14
1.49891e-13
-1.58819e-13
1.1609e-13
-3.29384e-13
-5.2775e-13
1.57136e-13
-4.10417e-12
2.00065e-11
3.31401e-13
-1.68179e-12
-1.91757e-13
9.08782e-12
-1.87929e-13
-1.88666e-11
-2.15495e-12
-6.33671e-12
4.67264e-13
-1.80644e-12
1.55712e-13
-2.46405e-12
1.61395e-13
-3.13467e-14
1.661e-13
1.05482e-12
1.77377e-13
6.71687e-13
1.75266e-13
4.16214e-13
1.74123e-13
1.6052e-13
1.75019e-13
6.60823e-14
1.75255e-13
6.66719e-14
1.75183e-13
1.93636e-14
-1.92965e-14
-7.04898e-13
2.53667e-12
-7.77081e-13
5.8747e-12
4.2508e-13
-3.68207e-11
-5.67624e-12
-1.0055e-11
-3.18991e-12
2.38678e-11
1.45973e-12
3.20856e-11
2.31068e-13
-1.06522e-11
3.25764e-13
-7.35617e-12
3.46678e-13
-1.17013e-12
3.4724e-13
2.98805e-12
3.37447e-13
1.11129e-12
3.05554e-13
-3.05004e-13
2.41408e-13
-8.38668e-13
1.90968e-13
-9.78377e-13
1.70191e-13
1.06584e-13
1.62592e-13
6.35071e-14
1.63174e-13
-4.7149e-14
1.68632e-13
-7.51499e-14
1.72482e-13
-7.94892e-14
1.74135e-13
-4.56586e-14
1.74027e-13
-5.09093e-14
1.72946e-13
-7.15442e-14
1.71219e-13
-3.29258e-14
1.70015e-13
-3.49593e-14
1.69415e-13
-2.99596e-14
1.598e-13
-1.75468e-14
1.47953e-13
-1.46973e-13
1.21573e-13
-3.03004e-13
1.59417e-13
1.19293e-13
1.65443e-12
1.85115e-11
1.15223e-12
-1.17958e-12
1.52817e-13
1.00872e-11
2.50604e-13
-1.89644e-11
-1.3808e-12
-4.7053e-12
6.68621e-13
-3.85586e-12
1.60434e-13
-1.95586e-12
1.44434e-13
-1.53472e-14
1.55111e-13
1.04415e-12
1.72629e-13
6.54168e-13
1.73097e-13
4.15746e-13
1.72945e-13
1.60672e-13
1.74042e-13
6.4985e-14
1.75318e-13
6.53956e-14
1.75691e-13
1.8991e-14
-1.89975e-14
-7.28412e-14
2.80951e-12
-1.417e-12
7.21887e-12
-5.59109e-12
-3.26466e-11
-4.75683e-12
-1.08893e-11
-3.57867e-12
2.26896e-11
1.5357e-12
2.69712e-11
5.09575e-13
-9.62607e-12
2.32638e-13
-7.07923e-12
3.00405e-13
-1.2379e-12
3.44108e-13
2.94434e-12
3.40087e-13
1.11531e-12
2.86782e-13
-2.51699e-13
2.4059e-13
-7.92477e-13
1.88527e-13
-9.26314e-13
1.77055e-13
1.18057e-13
1.66726e-13
7.38357e-14
1.66704e-13
-4.71274e-14
1.71775e-13
-8.02204e-14
1.75662e-13
-8.33767e-14
1.76322e-13
-4.6318e-14
1.75864e-13
-5.04517e-14
1.73726e-13
-6.94059e-14
1.70876e-13
-3.00759e-14
1.68924e-13
-3.30079e-14
1.68184e-13
-2.92189e-14
1.57719e-13
-7.08217e-15
1.42842e-13
-1.32096e-13
1.1482e-13
-2.74982e-13
9.94049e-13
-7.59937e-13
1.96646e-11
-1.59041e-13
2.28972e-12
1.61953e-11
7.03023e-13
1.16739e-11
-6.32139e-13
-1.76292e-11
1.41821e-12
-6.75566e-12
5.6196e-13
-2.99961e-12
8.72599e-14
-1.48116e-12
1.23702e-13
-5.17894e-14
1.44573e-13
1.02327e-12
1.67009e-13
6.31733e-13
1.70366e-13
4.12389e-13
1.71185e-13
1.59853e-13
1.7287e-13
6.33001e-14
1.7468e-13
6.35854e-14
1.75242e-13
1.84289e-14
-1.86096e-14
-7.37491e-14
3.08326e-12
-7.24423e-13
7.86954e-12
-4.29714e-12
-2.90739e-11
-4.36573e-12
-1.08207e-11
-2.29894e-12
2.06228e-11
9.81045e-13
2.36913e-11
1.34184e-13
-8.77921e-12
2.87756e-13
-7.23281e-12
2.66609e-13
-1.21675e-12
3.41842e-13
2.86911e-12
3.349e-13
1.12226e-12
2.74334e-13
-1.91132e-13
2.32343e-13
-7.50487e-13
1.7304e-13
-8.6701e-13
1.71187e-13
1.19909e-13
1.68746e-13
7.62762e-14
1.71917e-13
-5.02983e-14
1.73457e-13
-8.17599e-14
1.77675e-13
-8.75948e-14
1.77737e-13
-4.63797e-14
1.76973e-13
-4.96884e-14
1.74095e-13
-6.65276e-14
1.71029e-13
-2.70096e-14
1.68346e-13
-3.03252e-14
1.66442e-13
-2.73154e-14
1.55636e-13
3.72453e-15
1.35338e-13
-1.11798e-13
1.62896e-13
-3.0254e-13
2.34201e-13
-8.31242e-13
2.83112e-12
-2.75595e-12
3.40025e-12
1.56262e-11
8.43438e-13
1.42307e-11
-4.86744e-13
-1.6299e-11
-1.06891e-12
-6.17349e-12
3.28245e-13
-4.39677e-12
1.06751e-13
-1.25967e-12
1.06307e-13
-5.13455e-14
1.35653e-13
9.93928e-13
1.61487e-13
6.05898e-13
1.67608e-13
4.06268e-13
1.69526e-13
1.57935e-13
1.71071e-13
6.17552e-14
1.73451e-13
6.1205e-14
1.74177e-13
1.77029e-14
-1.81573e-14
3.07029e-13
1.92971e-13
2.8607e-13
2.09583e-14
3.58409e-13
-7.23387e-14
8.64701e-13
-5.06292e-13
-1.32691e-12
2.19161e-12
5.98195e-13
9.47769e-14
6.11551e-13
7.60184e-15
6.21798e-13
-8.25855e-14
6.55004e-13
-5.39498e-13
-1.07729e-12
4.05387e-13
6.84238e-13
-8.94611e-14
7.2111e-13
-2.92698e-14
6.97129e-13
-5.8605e-14
4.84621e-13
-3.2699e-13
-4.68686e-13
-1.23986e-13
5.99406e-13
-1.88867e-13
6.07929e-13
-3.77933e-14
5.73707e-13
-2.43825e-14
3.67788e-13
-1.21071e-13
-1.25671e-13
2.47731e-14
3.11133e-13
2.7334e-13
2.48957e-13
1.27887e-13
2.21521e-15
2.40475e-12
2.87012e-12
4.9152e-12
5.35909e-12
-5.04196e-12
-1.91168e-11
-1.92013e-11
3.33862e-12
-5.73756e-12
7.15907e-12
5.6775e-12
1.22762e-11
3.10809e-12
-6.2098e-12
1.42707e-12
-5.55178e-12
9.37223e-13
-7.26907e-13
1.50235e-12
2.30398e-12
1.41054e-12
1.21407e-12
1.0651e-12
1.54305e-13
9.96991e-13
-6.82378e-13
5.49763e-13
-4.19783e-13
6.85624e-13
-1.5951e-14
7.61583e-13
3.16611e-16
7.92118e-13
-8.08325e-14
8.07796e-13
-9.74383e-14
8.09702e-13
-8.95009e-14
8.14994e-13
-5.16716e-14
8.01619e-13
-3.63134e-14
7.79672e-13
-4.4581e-14
7.68175e-13
-1.55125e-14
7.54482e-13
-1.66317e-14
7.34758e-13
-7.59174e-15
6.94073e-13
4.44094e-14
5.16202e-13
6.60738e-14
3.78174e-14
1.75845e-13
-1.77685e-12
9.83429e-13
-1.00713e-11
5.53854e-12
8.54134e-12
-2.98651e-12
7.88602e-12
1.48861e-11
-9.82095e-13
-7.43091e-12
-6.87667e-12
-2.7891e-13
1.48787e-12
-1.27613e-11
1.15612e-12
-9.27919e-13
4.63725e-13
6.4105e-13
5.5284e-13
9.04813e-13
6.42147e-13
5.16591e-13
7.14569e-13
3.33846e-13
7.35604e-13
1.369e-13
7.4306e-13
5.42996e-14
7.59375e-13
4.48903e-14
7.63622e-13
1.34552e-14
-1.55323e-14
1.80599e-12
1.46951e-12
3.31046e-12
3.85462e-12
-4.64399e-12
-1.11623e-11
-1.01533e-11
8.84796e-12
-4.47081e-12
1.47654e-12
5.83098e-12
1.97442e-12
3.35002e-12
-3.72884e-12
8.34211e-13
-3.03598e-12
4.91892e-13
-3.84588e-13
1.117e-12
1.67887e-12
1.2071e-12
1.12397e-12
1.19208e-12
1.6932e-13
9.12444e-13
-4.02739e-13
6.31067e-13
-1.38405e-13
6.91211e-13
-7.6095e-14
7.65657e-13
-7.41298e-14
7.82463e-13
-9.76384e-14
7.74408e-13
-8.93829e-14
7.59155e-13
-7.42487e-14
7.46411e-13
-3.89273e-14
7.34128e-13
-2.40312e-14
7.15604e-13
-2.60566e-14
7.07927e-13
-7.83551e-15
6.99528e-13
-8.2322e-15
6.87118e-13
4.81886e-15
6.69577e-13
6.19495e-14
5.58127e-13
1.77524e-13
1.7886e-13
5.55112e-13
-8.25785e-13
1.98807e-12
1.46536e-12
3.2474e-12
2.2125e-12
-3.73365e-12
7.93438e-12
9.16418e-12
4.61485e-12
-4.11138e-12
8.08953e-12
-3.75359e-12
2.07276e-12
-6.74454e-12
5.39144e-13
6.05694e-13
2.24998e-13
9.55196e-13
3.992e-13
7.30611e-13
5.20183e-13
3.95608e-13
6.13876e-13
2.40153e-13
6.49783e-13
1.00993e-13
6.64106e-13
3.99764e-14
6.82729e-13
2.6267e-14
6.89756e-13
6.42877e-15
-1.04882e-14
5.3543e-13
8.10097e-13
1.41717e-12
2.97289e-12
-5.57848e-12
-4.16668e-12
-7.26336e-12
1.05328e-11
-1.76517e-12
-4.02165e-12
3.74375e-12
-3.5345e-12
2.19578e-12
-2.18088e-12
-7.46994e-15
-8.32722e-13
-1.04968e-13
-2.8709e-13
5.669e-13
1.00701e-12
8.58579e-13
8.32292e-13
9.19214e-13
1.08685e-13
7.22818e-13
-2.06343e-13
6.96942e-13
-1.12529e-13
6.97213e-13
-7.63657e-14
7.09966e-13
-8.68822e-14
6.92261e-13
-7.99341e-14
6.61506e-13
-5.86278e-14
6.32187e-13
-4.49297e-14
6.14936e-13
-2.16768e-14
6.0299e-13
-1.20847e-14
5.89917e-13
-1.29832e-14
5.85792e-13
-3.71097e-15
5.82066e-13
-4.506e-15
5.80599e-13
6.28596e-15
5.9057e-13
5.19779e-14
5.87626e-13
1.80468e-13
5.66592e-13
5.76145e-13
8.41094e-13
1.71357e-12
4.67203e-12
-5.83536e-13
2.78945e-12
-1.85107e-12
6.30009e-12
5.65354e-12
4.12707e-12
-1.93835e-12
4.40474e-12
-4.03128e-12
8.03633e-13
-3.14343e-12
-1.99801e-13
1.60913e-12
-2.63557e-14
7.81751e-13
2.23595e-13
4.8066e-13
3.83323e-13
2.3588e-13
4.8683e-13
1.36647e-13
5.30126e-13
5.76972e-14
5.47009e-13
2.30931e-14
5.59137e-13
1.41392e-14
5.63872e-13
1.69412e-15
-7.95238e-15
4.55503e-13
3.79367e-13
2.20355e-12
1.22484e-12
2.13019e-13
-2.17615e-12
-2.7057e-12
1.34516e-11
1.48059e-12
-8.20794e-12
2.18264e-12
-4.23654e-12
8.23361e-13
-8.21595e-13
-3.11509e-13
3.02147e-13
-5.28557e-13
-7.00419e-14
1.47526e-13
3.30925e-13
7.07788e-13
2.72029e-13
6.8306e-13
1.33412e-13
6.376e-13
-1.60883e-13
6.15975e-13
-9.09038e-14
5.88152e-13
-4.8543e-14
5.47865e-13
-4.65953e-14
5.01676e-13
-3.37454e-14
4.6369e-13
-2.06423e-14
4.34067e-13
-1.53066e-14
4.19326e-13
-6.93509e-15
4.10679e-13
-3.43756e-15
4.02262e-13
-4.56629e-15
4.00227e-13
-1.67574e-15
3.98623e-13
-2.90183e-15
4.03294e-13
1.61592e-15
4.34185e-13
2.10866e-14
5.23063e-13
9.15907e-14
8.02053e-13
2.97155e-13
1.70464e-12
8.10982e-13
2.13849e-12
-1.01738e-12
7.20031e-13
-4.32615e-13
4.29785e-12
2.07572e-12
3.02238e-12
-6.62873e-13
6.75304e-13
-1.68421e-12
-1.31387e-12
-1.15425e-12
-6.91563e-13
9.86819e-13
-2.36199e-13
3.26387e-13
6.77592e-14
1.76701e-13
2.22713e-13
8.0926e-14
3.13622e-13
4.57373e-14
3.52248e-13
1.90713e-14
3.67857e-13
7.48437e-15
3.77345e-13
4.65094e-15
3.78403e-13
6.36434e-16
-6.58808e-16
3.81582e-13
1.60642e-12
-5.69727e-13
1.28818e-11
4.67389e-12
4.37353e-13
-3.84243e-13
-8.2095e-14
-1.52137e-13
1.78788e-13
4.50817e-13
5.84229e-13
4.23347e-13
3.32443e-13
2.83899e-13
2.37304e-13
2.03559e-13
1.82916e-13
1.6761e-13
1.60675e-13
1.57237e-13
1.52671e-13
1.50995e-13
1.48093e-13
1.49709e-13
1.70796e-13
2.62386e-13
5.59541e-13
1.37052e-12
3.53145e-13
-7.946e-14
1.99625e-12
1.33338e-12
-3.50822e-13
-1.50507e-12
-5.18254e-13
-1.91868e-13
-1.51665e-14
6.57594e-14
1.11497e-13
1.30568e-13
1.38053e-13
1.42703e-13
1.4334e-13
)
;

boundaryField
{
    AirInlet
    {
        type            calculated;
        value           nonuniform List<scalar> 5(-2e-13 -2e-13 -2e-13 -2e-13 -2e-13);
    }
    WaterInlet
    {
        type            calculated;
        value           nonuniform List<scalar> 10(-5e-13 -5e-13 -5e-13 -5e-13 -5e-13 -5e-13 -5e-13 -5e-13 -5e-13 -5e-13);
    }
    ChannelWall
    {
        type            calculated;
        value           uniform 0;
    }
    Outlet
    {
        type            calculated;
        value           nonuniform List<scalar> 
15
(
1.56654e-13
3.94871e-13
5.81039e-13
7.04045e-13
7.69233e-13
1.74249e-13
1.75102e-13
1.75392e-13
1.74854e-13
1.73725e-13
7.60997e-13
6.84712e-13
5.61336e-13
3.71109e-13
1.42681e-13
)
;
    }
    FrontAndBack
    {
        type            empty;
        value           nonuniform 0();
    }
}


// ************************************************************************* //
