/*--------------------------------*- C++ -*----------------------------------*\
| =========                 |                                                 |
| \\      /  F ield         | OpenFOAM: The Open Source CFD Toolbox           |
|  \\    /   O peration     | Version:  2.3.0                                 |
|   \\  /    A nd           | Web:      www.OpenFOAM.org                      |
|    \\/     M anipulation  |                                                 |
\*---------------------------------------------------------------------------*/
FoamFile
{
    version     2.0;
    format      ascii;
    class       volVectorField;
    location    "0.02";
    object      U;
}
// * * * * * * * * * * * * * * * * * * * * * * * * * * * * * * * * * * * * * //

dimensions      [0 1 -1 0 0 0 0];

internalField   nonuniform List<vector> 
725
(
(0.0469004 0.00697692 -3.27268e-31)
(0.0516298 0.00185447 5.42306e-32)
(0.0378564 0.000438027 2.52499e-34)
(0.0384057 -4.89341e-05 0)
(0.0224388 0.000450362 4.53759e-31)
(0.0900413 0.014222 -1.45677e-30)
(0.106621 0.00794352 1.68754e-31)
(0.0844462 0.00547451 -1.47499e-31)
(0.0833071 0.00573643 0)
(0.0442053 0.00776114 3.97703e-30)
(0.102481 0.0099658 -3.27054e-31)
(0.123444 0.0120415 -4.03127e-32)
(0.099536 0.0110744 -4.77823e-31)
(0.09887 0.01469 0)
(0.0431056 0.0234188 4.51515e-30)
(0.090646 0.0034076 1.92075e-30)
(0.10478 0.0128396 -1.81347e-31)
(0.0826535 0.0133971 -9.56568e-31)
(0.0860386 0.022521 0)
(0.034756 0.0464858 1.2528e-29)
(0.0468682 0.0017943 2.01107e-30)
(0.0494046 0.00816318 -3.33035e-31)
(0.0373536 0.00784564 -3.9408e-31)
(0.0474406 0.0140282 -1.21244e-30)
(0.0778299 0.0582847 7.32824e-30)
(0.0302672 -0.0114695 0)
(0.171724 -0.0214113 0)
(0.1575 -0.0034807 0)
(0.183217 0.00706186 0)
(-0.115811 -0.00119855 0)
(-0.783163 0.0916735 0)
(-0.943347 -0.00320032 0)
(-0.219907 -0.156969 0)
(-0.0590108 -0.0180381 0)
(-0.104697 -0.00199408 0)
(-0.108094 -0.00551104 0)
(-0.0734561 -0.00877865 0)
(-0.00515457 -0.0106271 0)
(0.0352867 0.000296188 0)
(0.0240782 0.00222065 0)
(0.0124178 0.000294994 0)
(0.0129296 -6.94932e-05 0)
(0.0137576 -1.3127e-05 0)
(0.0139785 -7.54086e-05 0)
(0.0143769 -1.70321e-05 0)
(0.0148292 -5.92241e-05 0)
(0.0156481 -0.000130862 0)
(0.0165015 -0.000133075 0)
(0.0173884 -0.000199416 0)
(0.0187281 -0.000334372 0)
(0.0203731 -0.000542899 0)
(0.0251863 -0.00124958 0)
(0.0454314 -0.00287295 0)
(0.0534381 -0.00938539 0)
(0.0651011 0.057218 0)
(-0.127714 -0.00451659 0)
(-0.183707 0.0119836 0)
(-0.0613793 -0.0457618 0)
(0.27769 -0.00625687 0)
(0.0539809 0.0688245 0)
(0.0855339 -0.000303088 0)
(0.0886242 0.00611541 0)
(0.0469669 0.00383623 0)
(0.0342354 0.00197405 0)
(0.0246765 0.00100335 0)
(0.0199856 0.000359645 0)
(0.0181361 0.000171097 0)
(0.016877 0.000148573 0)
(0.0161409 1.95163e-05 0)
(0.0173661 -0.0001998 0)
(0.0484743 -0.0481802 0)
(0.233326 -0.0717651 0)
(0.199797 0.00534052 0)
(0.277133 0.165129 0)
(-0.130195 0.24715 0)
(-1.17257 0.422505 0)
(-0.816439 -0.0851181 0)
(-0.187292 -0.437123 0)
(0.0235268 -0.045488 0)
(-0.0484764 0.029753 0)
(-0.119568 -0.00563277 0)
(-0.0799994 -0.0381375 0)
(-0.0204824 -0.047273 0)
(0.0394041 -0.0110999 0)
(0.0512618 0.0086418 0)
(0.0343585 0.00330263 0)
(0.0345079 -0.000248023 0)
(0.0364797 -0.000325349 0)
(0.0370384 -0.000395606 0)
(0.0379124 -0.000273795 0)
(0.0389914 -0.000502273 0)
(0.0406272 -0.00072839 0)
(0.042009 -0.000598484 0)
(0.0431182 -0.000721758 0)
(0.044626 -0.000951121 0)
(0.0455849 -0.0018128 0)
(0.0506352 -0.00564283 0)
(0.0697371 -0.00937736 0)
(0.097693 -0.0271234 0)
(0.116839 0.0732663 0)
(0.10034 0.0486835 0)
(-0.355599 0.0473806 0)
(-0.227008 -0.173894 0)
(0.00340805 -0.0770699 0)
(0.143564 0.070033 0)
(0.190075 0.015677 0)
(0.149369 0.0216698 0)
(0.0899397 0.0132797 0)
(0.071482 0.00821579 0)
(0.0572928 0.00524107 0)
(0.0494333 0.00231041 0)
(0.0462607 0.00116941 0)
(0.0440671 0.000886994 0)
(0.0427295 6.79526e-05 0)
(0.0438578 -0.000724151 0)
(0.0289608 -0.0840342 0)
(0.163973 -0.124321 0)
(0.130009 -0.0685918 0)
(0.591187 0.155783 0)
(0.966017 0.496199 0)
(-0.696321 0.72791 0)
(-0.426749 -0.356187 0)
(0.0439467 -0.61909 0)
(0.156508 -0.115759 0)
(0.0682684 0.081032 0)
(-0.0338906 0.0055382 0)
(0.0101184 -0.0521337 0)
(-0.00715962 -0.0601602 0)
(0.0170332 -0.0306393 0)
(0.0590146 0.00888503 0)
(0.0498501 0.00508603 0)
(0.0519979 -0.000498858 0)
(0.0546413 -0.000890651 0)
(0.0556013 -0.000958285 0)
(0.0568633 -0.000714878 0)
(0.0581941 -0.0011769 0)
(0.0601503 -0.00156644 0)
(0.0616975 -0.00112868 0)
(0.0627038 -0.00123356 0)
(0.0639928 -0.00141494 0)
(0.0639715 -0.00269408 0)
(0.0673887 -0.00972228 0)
(0.0793657 -0.0202848 0)
(0.136818 -0.0616406 0)
(0.172717 0.186053 0)
(-0.356755 0.160591 0)
(-0.563598 0.164528 0)
(-0.397751 -0.265624 0)
(-0.575586 -0.0720728 0)
(0.0474098 -0.145838 0)
(0.207769 0.00850983 0)
(0.182924 0.057894 0)
(0.11321 0.029038 0)
(0.0921037 0.0159708 0)
(0.0782408 0.0103461 0)
(0.0701267 0.00472888 0)
(0.0672802 0.00231654 0)
(0.0653311 0.00178086 0)
(0.0639262 0.000324247 0)
(0.0645461 -0.00108184 0)
(0.0134901 -0.109137 0)
(-0.0781016 -0.123013 0)
(-0.159618 -0.23661 0)
(0.538641 0.00335795 0)
(1.82633 0.788791 0)
(0.0887242 1.11922 0)
(-0.0978016 -0.540842 0)
(0.220509 -0.725639 0)
(0.207827 -0.138285 0)
(0.1295 0.13169 0)
(0.0654602 0.0219337 0)
(0.0530227 -0.0488789 0)
(0.0116185 -0.0502836 0)
(0.024582 -0.0467426 0)
(0.0556991 -0.00154569 0)
(0.0601668 0.00296678 0)
(0.0653062 -0.001562 0)
(0.0682863 -0.00170808 0)
(0.0696493 -0.00175239 0)
(0.0712564 -0.00123745 0)
(0.0724311 -0.00186362 0)
(0.0742505 -0.0024929 0)
(0.0756474 -0.0016096 0)
(0.0762852 -0.00165651 0)
(0.0771902 -0.00164908 0)
(0.076516 -0.00298006 0)
(0.0760904 -0.0112954 0)
(0.0748167 -0.0325508 0)
(0.140275 -0.0908356 0)
(0.227165 0.25877 0)
(-0.193749 0.397019 0)
(-0.73364 0.303671 0)
(-0.39113 -0.476457 0)
(-0.00251486 -0.0982343 0)
(-0.0744563 -0.335051 0)
(0.0655672 -0.0428137 0)
(0.179073 0.0811312 0)
(0.120737 0.0450664 0)
(0.0986899 0.0243215 0)
(0.087996 0.0152487 0)
(0.0819312 0.00668878 0)
(0.0806306 0.00310958 0)
(0.0794597 0.00252581 0)
(0.078389 0.000595616 0)
(0.0782309 -0.00118661 0)
(0.222637 -0.00146527 0)
(-0.563766 0.060884 0)
(-0.753153 -0.57211 0)
(1.46899 -0.819069 0)
(3.11209 0.917303 0)
(0.80817 1.60385 0)
(1.13262 -0.503557 0)
(0.322552 -0.524149 0)
(0.192727 -0.103206 0)
(0.152705 0.147034 0)
(0.146122 0.0463375 0)
(0.0904433 -0.0285679 0)
(0.0656776 -0.051634 0)
(0.0841224 -0.0569416 0)
(0.0833959 -0.00266518 0)
(0.0741188 0.00146433 0)
(0.0754933 -0.00237813 0)
(0.0774084 -0.00251517 0)
(0.079329 -0.00272237 0)
(0.0812776 -0.00171577 0)
(0.0819189 -0.0023279 0)
(0.0831668 -0.00337302 0)
(0.0839959 -0.0018905 0)
(0.0839288 -0.00190059 0)
(0.0842828 -0.00164415 0)
(0.0833862 -0.00278254 0)
(0.0773388 -0.0112461 0)
(0.0688264 -0.036464 0)
(-0.030419 -0.11618 0)
(-0.0440481 0.503442 0)
(-0.761777 0.0254311 0)
(-0.872592 0.363008 0)
(-0.311212 -0.871438 0)
(0.659281 -0.29237 0)
(-0.106138 -0.0661482 0)
(-0.156479 -0.156469 0)
(0.101519 0.0365945 0)
(0.102051 0.0570889 0)
(0.0971428 0.0343897 0)
(0.0914523 0.0196635 0)
(0.0875382 0.00767954 0)
(0.0875226 0.00340952 0)
(0.0868994 0.00319112 0)
(0.085993 0.00088113 0)
(0.085477 -0.00102081 0)
(1.05458 0.0303837 0)
(-0.497977 0.313082 0)
(0.0293774 -1.18762 0)
(4.71075 -1.31876 0)
(1.9838 1.16439 0)
(0.463297 1.86015 0)
(0.443456 -0.570785 0)
(0.343243 -0.382207 0)
(0.306656 -0.077522 0)
(0.159964 0.145986 0)
(0.174276 0.0535386 0)
(0.138062 -0.0194596 0)
(0.118259 -0.0495869 0)
(0.0991031 -0.0546031 0)
(0.0859632 0.00268475 0)
(0.0790408 0.00222518 0)
(0.0779286 -0.00230009 0)
(0.0800067 -0.00313733 0)
(0.0824614 -0.00341166 0)
(0.0845687 -0.00202775 0)
(0.0849774 -0.00247561 0)
(0.0857293 -0.00360248 0)
(0.0857683 -0.0018218 0)
(0.0851455 -0.00186952 0)
(0.0851555 -0.00156691 0)
(0.085033 -0.00199703 0)
(0.0769945 -0.00885617 0)
(0.0688283 -0.0199723 0)
(-0.0843499 -0.0427178 0)
(-0.324312 0.709024 0)
(-2.82974 0.245225 0)
(-0.58096 0.421279 0)
(-0.127312 -0.942339 0)
(0.280553 -0.318022 0)
(0.295423 0.0400904 0)
(-0.0309049 -0.144684 0)
(0.0833315 -0.000214636 0)
(0.0830726 0.053215 0)
(0.0913814 0.0343944 0)
(0.0896444 0.020628 0)
(0.0871666 0.00793318 0)
(0.0875539 0.00336315 0)
(0.087506 0.00334209 0)
(0.0872963 0.000960413 0)
(0.0871122 -0.000972909 0)
(0.0213367 0.0370032 0)
(-0.548062 0.339692 0)
(0.871968 -1.68695 0)
(4.48451 -0.922671 0)
(-2.01746 1.31989 0)
(0.386363 1.88566 0)
(0.542357 -0.575478 0)
(0.276268 -0.373659 0)
(0.282165 -0.06329 0)
(0.158957 0.148175 0)
(0.181115 0.0547974 0)
(0.154665 -0.0174666 0)
(0.135185 -0.0469485 0)
(0.101434 -0.0526814 0)
(0.0861917 0.00387057 0)
(0.0807893 0.00256965 0)
(0.0783148 -0.00230953 0)
(0.0808713 -0.00337106 0)
(0.0833667 -0.00365892 0)
(0.0854907 -0.00214834 0)
(0.0858961 -0.00252999 0)
(0.0864325 -0.0036383 0)
(0.0860941 -0.00177376 0)
(0.0852756 -0.00183679 0)
(0.0851723 -0.00154019 0)
(0.0850333 -0.0015981 0)
(0.0763205 -0.0082421 0)
(0.0745105 -0.017436 0)
(-0.0204188 -0.0100589 0)
(-0.399634 0.898042 0)
(-1.97053 0.0972121 0)
(-0.0961069 0.454589 0)
(0.00347077 -0.952043 0)
(-1.47098 -0.350559 0)
(0.440242 -0.0133169 0)
(0.0447485 -0.131517 0)
(0.0933062 -0.00245014 0)
(0.0755154 0.0527294 0)
(0.0885587 0.0339495 0)
(0.0885602 0.0207967 0)
(0.0867725 0.00800555 0)
(0.087325 0.00333082 0)
(0.0875933 0.00334966 0)
(0.0877073 0.000970363 0)
(0.0875365 -0.000966659 0)
(0.0469347 0.119656 0)
(-0.642152 0.307334 0)
(-0.193758 -1.85013 0)
(0.97088 -0.655516 0)
(-5.18979 1.34027 0)
(0.824147 1.73399 0)
(0.220481 -0.584687 0)
(0.118121 -0.36289 0)
(0.193077 -0.0572255 0)
(0.154844 0.149777 0)
(0.185725 0.0553965 0)
(0.158539 -0.0160741 0)
(0.140022 -0.0435306 0)
(0.103681 -0.0502747 0)
(0.0869681 0.00492015 0)
(0.083562 0.00299352 0)
(0.0797986 -0.00233772 0)
(0.0830189 -0.00362624 0)
(0.0854387 -0.00388199 0)
(0.0870865 -0.00224721 0)
(0.0870576 -0.0025563 0)
(0.0869586 -0.00361828 0)
(0.0860972 -0.00169571 0)
(0.0850988 -0.00178322 0)
(0.0849 -0.00151812 0)
(0.0847439 -0.00113193 0)
(0.0754867 -0.0076963 0)
(0.0801727 -0.0161094 0)
(0.0987161 0.00864307 0)
(-0.205676 0.896049 0)
(1.71785 -0.0433387 0)
(0.0536372 0.502811 0)
(0.117416 -0.951819 0)
(-1.09286 -0.303226 0)
(0.547032 -0.126239 0)
(0.0727668 -0.111174 0)
(0.0864346 -0.000909412 0)
(0.0679199 0.052549 0)
(0.0852611 0.0332095 0)
(0.0870716 0.020839 0)
(0.0861159 0.00804118 0)
(0.0867445 0.00328038 0)
(0.0873634 0.00331197 0)
(0.0879363 0.000962286 0)
(0.0877032 -0.00095798 0)
(0.292525 0.122412 0)
(-0.738833 0.326811 0)
(-0.531657 -1.74538 0)
(-2.24968 -0.544745 0)
(-4.93402 1.23676 0)
(1.04699 1.47267 0)
(0.360964 -0.505431 0)
(0.0967608 -0.361064 0)
(0.14872 -0.0596298 0)
(0.149842 0.148731 0)
(0.188409 0.055667 0)
(0.153622 -0.0140873 0)
(0.135366 -0.0406371 0)
(0.102823 -0.0477371 0)
(0.086836 0.00575793 0)
(0.087311 0.00349015 0)
(0.0817396 -0.00235013 0)
(0.0847921 -0.00388472 0)
(0.0870164 -0.00408213 0)
(0.0884219 -0.00230089 0)
(0.0881148 -0.00254443 0)
(0.0875826 -0.0035376 0)
(0.0861567 -0.00157958 0)
(0.0847623 -0.00170396 0)
(0.0843111 -0.00148955 0)
(0.0839966 -0.000623918 0)
(0.074437 -0.00709525 0)
(0.07521 -0.0147443 0)
(0.255093 -0.0126448 0)
(0.175743 0.430979 0)
(10.8812 0.420479 0)
(0.550401 0.565697 0)
(0.224283 -0.922822 0)
(0.0886727 -0.297725 0)
(0.481122 -0.162152 0)
(0.0455166 -0.0857534 0)
(0.0597845 -0.00163261 0)
(0.0609826 0.0517859 0)
(0.0816179 0.0321798 0)
(0.0851723 0.0207464 0)
(0.0852382 0.00802743 0)
(0.0859648 0.00320999 0)
(0.0868839 0.00323366 0)
(0.0877631 0.000938367 0)
(0.087439 -0.00094155 0)
(0.308704 0.161858 0)
(-0.566495 0.369082 0)
(-0.130789 -1.53919 0)
(-2.66579 -0.271332 0)
(-3.01159 1.06697 0)
(0.933381 1.2564 0)
(0.129099 -0.460246 0)
(0.0959276 -0.358247 0)
(0.139861 -0.0613251 0)
(0.145325 0.145681 0)
(0.188926 0.055992 0)
(0.148333 -0.0111925 0)
(0.129905 -0.0385377 0)
(0.0970752 -0.0448484 0)
(0.0800939 0.00603968 0)
(0.0875882 0.00381444 0)
(0.0837549 -0.00241215 0)
(0.0864313 -0.00407078 0)
(0.0880173 -0.00427449 0)
(0.0892518 -0.00232815 0)
(0.0888114 -0.00250679 0)
(0.0879141 -0.00340634 0)
(0.0862451 -0.00143221 0)
(0.08467 -0.00158931 0)
(0.083765 -0.00141999 0)
(0.0830368 -9.18586e-05 0)
(0.0733754 -0.00617054 0)
(0.0631987 -0.0144815 0)
(0.158497 -0.0377604 0)
(-0.139571 -0.0987294 0)
(2.39671 0.576554 0)
(0.612881 0.585834 0)
(0.260652 -0.854418 0)
(-0.815782 -0.306006 0)
(0.308036 -0.191205 0)
(0.0485619 -0.0684317 0)
(0.0477697 -0.00415813 0)
(0.0558731 0.0504757 0)
(0.0778987 0.0309908 0)
(0.0831053 0.0204974 0)
(0.0843797 0.00795986 0)
(0.0850944 0.00312945 0)
(0.0861279 0.00312478 0)
(0.0872437 0.000905771 0)
(0.0868751 -0.000920216 0)
(0.0476749 -0.0020327 0)
(0.049064 -0.00838055 9.97767e-32)
(0.043604 -0.0103304 1.95314e-31)
(0.05244 -0.0227458 8.1038e-31)
(0.182748 -0.0794439 0)
(0.092272 -0.00380007 0)
(0.102942 -0.0134553 0)
(0.0888262 -0.017362 0)
(0.0765902 -0.0441212 8.02191e-31)
(0.0753437 -0.0836416 0)
(0.104352 -0.0103215 0)
(0.120752 -0.0126224 0)
(0.103446 -0.0139762 0)
(0.0815982 -0.0304889 5.4276e-31)
(0.0317227 -0.0401304 0)
(0.0915604 -0.0144195 0)
(0.103998 -0.00839536 0)
(0.0859042 -0.00702063 0)
(0.0657949 -0.0143204 -1.42103e-31)
(0.0213066 -0.0114365 0)
(0.0475405 -0.00698029 0)
(0.0501974 -0.00199651 0)
(0.0375329 -0.000686851 0)
(0.0267212 -0.00233733 -2.41123e-32)
(0.00452167 -0.00214195 0)
(0.324124 0.102763 0)
(0.221585 0.369118 0)
(0.493302 -1.14131 0)
(-1.53426 -1.11566 0)
(-2.27358 0.490645 0)
(0.798571 0.863513 0)
(0.547182 -0.301043 0)
(0.155211 -0.32722 0)
(0.110616 -0.050432 0)
(0.132051 0.133398 0)
(0.183365 0.0584557 0)
(0.135039 -0.000282205 0)
(0.118541 -0.0353533 0)
(0.0808026 -0.0336603 0)
(0.0571326 0.00377297 0)
(0.0849179 0.00308452 0)
(0.0870995 -0.00296278 0)
(0.0887264 -0.00448814 0)
(0.0901299 -0.00470184 0)
(0.0906113 -0.00248362 0)
(0.0899316 -0.00228353 0)
(0.0878574 -0.00289518 0)
(0.0859129 -0.00102368 0)
(0.0844256 -0.00118675 0)
(0.0828165 -0.000936393 0)
(0.0809532 0.00139676 0)
(0.0705453 -0.00145846 0)
(0.0391538 -0.00113925 0)
(-0.0532898 0.00561974 0)
(-0.283039 -0.0414526 0)
(-0.368953 0.836146 0)
(0.688914 0.905336 0)
(0.426431 -0.576454 0)
(-1.10858 -0.154604 0)
(0.211108 -0.442033 0)
(0.212942 -0.0564672 0)
(0.0523266 0.00981714 0)
(0.0494662 0.0476797 0)
(0.0688435 0.0280603 0)
(0.0762571 0.019263 0)
(0.0810315 0.00761833 0)
(0.0821783 0.00293842 0)
(0.0834764 0.00273533 0)
(0.0849519 0.000798749 0)
(0.0845608 -0.000855423 0)
(0.0529295 0.123234 0)
(0.332701 0.2321 0)
(0.27028 -0.535059 0)
(-0.688538 0.180414 0)
(-1.76778 0.130405 0)
(0.509836 0.301159 0)
(0.582198 -0.255849 0)
(0.11135 -0.213469 0)
(0.043126 -0.0243466 0)
(0.0881037 0.101425 0)
(0.145257 0.0603956 0)
(0.134755 0.0126714 0)
(0.121969 -0.0273757 0)
(0.0810345 -0.01152 0)
(0.0658229 -0.00461987 0)
(0.0841699 -0.00286906 0)
(0.0875767 -0.00479134 0)
(0.0864124 -0.00500635 0)
(0.085279 -0.00436129 0)
(0.0837357 -0.00240949 0)
(0.0823165 -0.00150253 0)
(0.0803693 -0.00170023 0)
(0.078984 -0.000513792 0)
(0.0780863 -0.000528478 0)
(0.0769533 0.000105518 0)
(0.0757284 0.00300535 0)
(0.070064 0.00768418 0)
(0.0499897 0.0240283 0)
(-0.0172413 0.078387 0)
(-0.115546 0.20844 0)
(0.168068 -0.192237 0)
(0.675358 0.611992 0)
(0.641181 -0.274451 0)
(0.891081 -0.117511 0)
(0.199526 -0.480834 0)
(0.124924 0.007992 0)
(0.0263697 0.0481548 0)
(0.0327626 0.0423911 0)
(0.0532397 0.0232473 0)
(0.0641248 0.0146666 0)
(0.0710705 0.0060497 0)
(0.0731503 0.00241086 0)
(0.074895 0.00177164 0)
(0.0765662 0.000496594 0)
(0.0760924 -0.000636739 0)
(-0.0444859 0.0545462 0)
(0.112972 0.173348 0)
(0.203295 -0.452107 0)
(-0.975755 0.466726 0)
(-0.848538 -0.0614662 0)
(0.279308 -0.116115 0)
(0.407438 -0.160582 0)
(0.0215881 -0.0889353 0)
(-0.0316489 -0.0177629 0)
(0.0220016 0.0675157 0)
(0.0924698 0.0515991 0)
(0.105355 0.00627502 0)
(0.093426 -0.0128536 0)
(0.0757539 -0.00409701 0)
(0.0745451 -0.00391235 0)
(0.0805707 -0.00479677 0)
(0.0790272 -0.00490262 0)
(0.0749426 -0.0039433 0)
(0.0716931 -0.00306379 0)
(0.069144 -0.00153222 0)
(0.067606 -0.000856025 0)
(0.0660708 -0.000912883 0)
(0.0652293 -0.000244506 0)
(0.0647523 -0.000267097 0)
(0.0643319 0.000385193 0)
(0.0645609 0.00312055 0)
(0.0652382 0.00994018 0)
(0.068197 0.0307248 0)
(0.0704771 0.097738 0)
(0.0755198 0.0379529 0)
(0.518488 -0.229587 0)
(0.468885 0.37515 0)
(0.682398 -0.132257 0)
(0.596403 -0.186876 0)
(0.122327 -0.263239 0)
(-0.0201818 0.0592348 0)
(-0.0124096 0.0464917 0)
(0.0116491 0.0308669 0)
(0.0363798 0.0159728 0)
(0.0497035 0.00942996 0)
(0.0574504 0.00398261 0)
(0.0600866 0.00158554 0)
(0.061604 0.000959114 0)
(0.0627247 0.000156626 0)
(0.0623713 -0.000504545 0)
(-0.0110544 0.032281 0)
(0.105441 0.11167 0)
(0.358303 -0.142286 0)
(-0.292623 0.710154 0)
(-0.0224236 -0.43219 0)
(0.179837 -0.269544 0)
(0.180615 -0.0750537 0)
(-0.028958 0.00233039 0)
(-0.0641662 -0.00808721 0)
(-0.0288065 0.0308792 0)
(0.0594468 0.0278045 0)
(0.0873432 0.00696577 0)
(0.072954 -0.00951699 0)
(0.068546 -0.00601107 0)
(0.066277 -0.00376221 0)
(0.0645345 -0.0038967 0)
(0.0586781 -0.00304737 0)
(0.0531893 -0.0019612 0)
(0.0495838 -0.00142002 0)
(0.0472057 -0.000650165 0)
(0.0460338 -0.000331717 0)
(0.045003 -0.000391212 0)
(0.0445224 -0.000117828 0)
(0.0442403 -0.000176184 0)
(0.044208 0.00023581 0)
(0.0454859 0.00196737 0)
(0.050742 0.00757112 0)
(0.0707612 0.0239641 0)
(0.12461 0.0693218 0)
(0.206496 -0.0506307 0)
(0.161641 -0.0933667 0)
(0.194473 0.188772 0)
(0.562592 -0.0520901 0)
(0.196963 -0.150184 0)
(-0.128446 -0.10671 0)
(-0.12091 0.067128 0)
(-0.0467344 0.0261271 0)
(-0.00567874 0.0154268 0)
(0.0188876 0.00733286 0)
(0.0310313 0.00423934 0)
(0.0378214 0.00180592 0)
(0.0402689 0.000718754 0)
(0.0415492 0.000428959 0)
(0.0421832 3.62979e-05 0)
(0.0412561 -0.000178645 0)
(-0.0042068 0.00605314 0)
(0.0863951 0.0242373 0)
(0.22621 -0.0233306 0)
(-0.181672 0.409122 0)
(1.6271 -0.0891731 0)
(0.195353 -0.0898751 0)
(-0.0404951 -0.0142693 0)
(-0.0212264 0.0191848 0)
(-0.0123083 -0.00107016 0)
(-0.006934 0.00254877 0)
(0.0403385 0.00177105 0)
(0.0634385 0.00345058 0)
(0.0584084 -0.00498443 0)
(0.0412295 -0.00234989 0)
(0.033884 -0.00104101 0)
(0.0293196 -0.00094369 0)
(0.0243888 -0.000493404 0)
(0.0211978 -0.000229163 0)
(0.019327 -0.000202739 0)
(0.0181357 -7.30537e-05 0)
(0.0176285 -3.06106e-05 0)
(0.017153 -8.37975e-05 0)
(0.0168456 -4.12766e-05 0)
(0.0165405 -0.00010039 0)
(0.0163185 -5.10205e-05 0)
(0.0169178 0.000221354 0)
(0.0209111 0.00150498 0)
(0.0393299 0.00602307 0)
(0.0968443 0.0228274 0)
(0.186192 -0.0327152 0)
(-0.0652162 0.102356 0)
(0.0445596 0.0422282 0)
(0.273376 -0.0199218 0)
(0.0477676 0.0129576 0)
(-0.151448 -0.0234777 0)
(-0.0861299 0.0235353 0)
(-0.03987 0.00536289 0)
(-0.00851888 0.00245448 0)
(0.00412846 0.000939978 0)
(0.0103914 0.000567495 0)
(0.0138515 0.000207737 0)
(0.0150461 7.59266e-05 0)
(0.0156707 6.26163e-05 0)
(0.0159987 1.61107e-05 0)
(0.0158529 6.42424e-05 0)
)
;

boundaryField
{
    AirInlet
    {
        type            fixedValue;
        value           uniform (0.1 0 0);
    }
    WaterInlet
    {
        type            fixedValue;
        value           uniform (0.1 0 0);
    }
    ChannelWall
    {
        type            fixedValue;
        value           uniform (0 0 0);
    }
    Outlet
    {
        type            pressureInletOutletVelocity;
        value           nonuniform List<vector> 
15
(
(0.0173661 -0.0001998 0)
(0.0438578 -0.000724151 0)
(0.0645461 -0.00108184 0)
(0.0782309 -0.00118661 0)
(0.085477 -0.00102081 0)
(0.0871122 -0.000972909 0)
(0.0875365 -0.000966659 0)
(0.0877032 -0.00095798 0)
(0.087439 -0.00094155 0)
(0.0868751 -0.000920216 0)
(0.0845608 -0.000855423 0)
(0.0760924 -0.000636739 0)
(0.0623713 -0.000504545 0)
(0.0412561 -0.000178645 0)
(0.0158529 6.42424e-05 0)
)
;
    }
    FrontAndBack
    {
        type            empty;
    }
}


// ************************************************************************* //
