/*--------------------------------*- C++ -*----------------------------------*\
| =========                 |                                                 |
| \\      /  F ield         | OpenFOAM: The Open Source CFD Toolbox           |
|  \\    /   O peration     | Version:  2.3.0                                 |
|   \\  /    A nd           | Web:      www.OpenFOAM.org                      |
|    \\/     M anipulation  |                                                 |
\*---------------------------------------------------------------------------*/
FoamFile
{
    version     2.0;
    format      ascii;
    class       volScalarField;
    location    "0.056";
    object      p;
}
// * * * * * * * * * * * * * * * * * * * * * * * * * * * * * * * * * * * * * //

dimensions      [1 -1 -2 0 0 0 0];

internalField   nonuniform List<scalar> 
725
(
-1241.01
-1290.5
-1304.88
-1278.52
-1321.05
-1247.3
-1290.31
-1302.93
-1277.67
-1317.63
-1249.97
-1290.52
-1302.04
-1278.33
-1302.87
-1249.74
-1291.39
-1301.14
-1279.81
-1278.72
-1246.31
-1292.97
-1300.77
-1280.51
-1243.7
-1379.94
-1131.02
-1664.21
-2132.72
-1955.23
-2262.86
-2321.05
-710.229
-988.187
-1169.02
-1216.02
-1367.44
-1260.78
-1325
-1326.08
-1333.83
-1338.53
-1341.57
-1343.81
-1345.67
-1347.56
-1349.35
-1351.46
-1353.45
-1355.64
-1357.17
-1356.24
-1350.6
-1316.8
-1326.87
-1367.13
-1372.52
-1255.61
-1190.38
-1439.19
-1460.79
-1420.99
-1433.29
-1418.12
-1457.54
-1406.92
-1486.45
-1356.23
-778.804
-424.193
-1409.2
-996.089
-1706.11
-2237.52
-2497.15
-2484.83
-2459.68
-681.409
-965.587
-1150.19
-1233.58
-1370.04
-1263.24
-1323.58
-1328.19
-1334.3
-1339.02
-1342.22
-1344.52
-1346.56
-1348.45
-1350.21
-1352.14
-1354.07
-1356.35
-1358.4
-1359.76
-1360.94
-1356.24
-1367.85
-1370.53
-1343.42
-1352.01
-1313.65
-1423.91
-1439.64
-1406.96
-1428.84
-1418
-1457.74
-1415.38
-1524.16
-1438.6
-1113.98
-458.285
-1480.53
-738.779
-1753.94
-2359.35
-2461.42
-2808.52
-2601.98
-672.175
-864.759
-1082.33
-1301.92
-1365.89
-1269.09
-1323.72
-1330.17
-1335.63
-1339.81
-1342.76
-1345.01
-1347.03
-1348.81
-1350.38
-1352.17
-1354.02
-1356.58
-1359.49
-1364.04
-1375.15
-1415.02
-1423.29
-1375.14
-1340.57
-1378.42
-1484.68
-1522.63
-1460.01
-1408.4
-1427.76
-1417.35
-1457.08
-1420.61
-1561
-1567.39
-2322.4
-113.183
-1620
-338.691
-1845.56
-1533.6
-1728.17
-3373.98
-2966.71
-710.854
-486.307
-916.421
-1446.98
-1353.73
-1279.33
-1325.07
-1332.37
-1337.24
-1340.7
-1343.25
-1344.9
-1347.25
-1349.06
-1350.85
-1352.58
-1354.32
-1356.81
-1360.3
-1367.02
-1385.21
-1441.86
-1451.46
-1374.6
-1348.02
-1366.42
-1494.62
-1579.01
-1489.84
-1417.19
-1427.38
-1415.86
-1454.01
-1417.52
-1563.51
-1578.18
-2940.49
81.8068
-1830.02
257.738
-1688.56
-1490.36
-1498.18
-1001.52
-3784.11
-1094.93
-23.1995
-969.477
-1634.62
-1346.68
-1293.09
-1327.88
-1334.5
-1338.68
-1341.55
-1343.98
-1346.04
-1347.8
-1349.29
-1350.67
-1352.41
-1354.07
-1356.65
-1360.23
-1367.36
-1387.36
-1436.92
-1470.41
-1380.29
-1349.37
-1361.12
-1471.83
-1555.15
-1493.23
-1423.73
-1429.42
-1413.54
-1448.31
-1405.14
-1517.86
-1434.55
-1739.46
-90.354
-2458.11
-128.628
-1640.02
-1506.11
-1553.63
-829.578
215.831
-1590.31
784.906
-965.337
-892.818
-1338.58
-1300.53
-1330.74
-1336.04
-1340.02
-1342.33
-1344.41
-1346.29
-1347.97
-1349.4
-1350.87
-1352.47
-1353.94
-1356.38
-1359.67
-1366.43
-1384.76
-1398.26
-1441.83
-1375.66
-1348.68
-1358.88
-1426.06
-1568.11
-1487.44
-1421.12
-1429.82
-1410.64
-1444.9
-1393.47
-1482.27
-1359.39
-1466.07
-134.215
-3341.2
-451.53
-1651.88
-1535.09
-1555.08
-533.219
-549.555
-1879.87
1473.8
-911.584
-875.168
-1334.79
-1303.56
-1331.76
-1336.65
-1340.52
-1342.63
-1344.58
-1346.38
-1348.02
-1349.43
-1350.89
-1352.46
-1353.88
-1356.25
-1359.42
-1366.16
-1383.57
-1414.46
-1400.42
-1359.48
-1347.86
-1358.18
-1417.11
-1568.24
-1485.35
-1422.2
-1429.77
-1409.72
-1443.5
-1389.32
-1469.37
-1335.09
-1400.37
-141.512
-3962.64
-94.1843
-1655.78
-1546.74
-1552.71
-924.163
-496.136
-1902.61
7020.94
-832.064
-859.538
-1332.22
-1307.11
-1332.69
-1337.26
-1341
-1342.94
-1344.76
-1346.47
-1348.07
-1349.46
-1350.9
-1352.45
-1353.81
-1356.09
-1359.08
-1365.38
-1381.62
-1413.18
-1434.6
-1375.65
-1348.36
-1357.63
-1407.84
-1564.18
-1483.32
-1423.2
-1429.04
-1408.55
-1441.54
-1385.24
-1456.54
-1312.24
-1336.86
-173.075
8452.24
873.263
-1624.1
-1550.47
-1534.25
-71.2399
-583.311
-2131.75
-1060.15
1152.12
-965.091
-1331.31
-1311.42
-1333.42
-1337.71
-1341.36
-1343.23
-1344.92
-1346.56
-1348.09
-1349.44
-1350.85
-1352.38
-1353.74
-1355.9
-1358.7
-1365
-1378.43
-1392.43
-1396.28
-1364.89
-1283.36
-1357.26
-1403.66
-1559.99
-1480.97
-1423.66
-1429.49
-1408.4
-1440.31
-1381.9
-1444.11
-1289.84
-1230.48
-229.268
2115.21
-2049.91
-1628.16
-1549.79
-1540.05
-1080.44
-942.032
-2300.11
-432.459
-1490.32
-1054.08
-1331.77
-1316.53
-1333.92
-1337.24
-1341.49
-1343.49
-1345.07
-1346.62
-1348.07
-1349.36
-1350.83
-1352.34
-1353.64
-1355.66
-1358.26
-1363.8
-1374.05
-1394.08
-1363
-1368.22
-1356.95
-1356.97
-1398.93
-1555.48
-1477.4
-1424.3
-1429.22
-1407.95
-1438.48
-1378.82
-1432.33
-1268.7
-1112.88
-339.768
-331.741
-370.251
-380.615
-368.537
-166.293
-335.398
-368.776
-381.631
-378.404
-247.647
-335.921
-368.131
-384.227
-389.091
-352.808
-333.467
-368.281
-386.502
-398.182
-428.573
-327.39
-368.835
-388.423
-405.069
-465.374
-83.9468
-1343.1
-1611.11
-1554.26
-1549.48
-1619.01
-1698.11
-2036.29
-4664.85
-1628.16
-1256.36
-1337.13
-1331.07
-1337.74
-1341.55
-1342.92
-1344.08
-1345.31
-1346.76
-1348.28
-1349.85
-1351.33
-1352.78
-1354.09
-1355.55
-1356.86
-1359.75
-1360.64
-1381.06
-1333.4
-1389.25
-1355.35
-1356.45
-1392.16
-1543.68
-1476.22
-1427.03
-1427.81
-1407.15
-1433.45
-1371.18
-1402.73
-1214.73
-797.726
-538.339
-704.145
-1502.67
-1588.1
-1552.02
-1552.17
-1591.23
-1534.41
-1797.74
-3560.43
-1858.7
-1448.14
-1366.21
-1354.79
-1349.81
-1347.37
-1345.75
-1345.52
-1346.2
-1347.31
-1348.69
-1350
-1351.32
-1352.63
-1353.73
-1354.74
-1355.12
-1354.09
-1344.68
-1341.8
-1314.08
-1381.42
-1360.41
-1358.05
-1388.35
-1517.89
-1464.31
-1425.29
-1427.51
-1405.23
-1428.86
-1362.82
-1379.4
-1139.33
-452.114
-379.14
-559.897
-1317.09
-1578.33
-1552.15
-1549.98
-1576.38
-1541.16
-1771.59
-2220.35
-1712.87
-1519.17
-1388.14
-1376.55
-1357.11
-1350.68
-1347.55
-1346.61
-1346.82
-1347.68
-1348.89
-1350.14
-1351.39
-1352.58
-1353.43
-1353.98
-1353.14
-1349.53
-1337.48
-1320.23
-1319.5
-1378.63
-1362.52
-1359.52
-1382.78
-1474.91
-1449.72
-1421.71
-1425.66
-1403.4
-1427.21
-1363.91
-1393.5
-1161.41
-541.042
-295.443
-655.798
-1442.69
-1570.4
-1552.32
-1550.42
-1575.36
-1547.56
-1619.03
-2437.92
-1668.5
-1566.36
-1400.39
-1389.12
-1362.44
-1353.2
-1348.81
-1347.25
-1347.16
-1347.9
-1349.04
-1350.26
-1351.46
-1352.57
-1353.27
-1353.46
-1351.84
-1346.64
-1335.26
-1318.64
-1337.07
-1375.43
-1364.22
-1361.15
-1368.12
-1419.13
-1434.9
-1417.61
-1424.33
-1403.26
-1426.75
-1372.73
-1445.03
-1280.83
-1258.24
-206.838
-731.898
-1459.06
-1566.77
-1552.46
-1550.41
-1572.95
-1550.29
-1601.65
-1866.58
-1607.17
-1564.92
-1402.95
-1395.33
-1364.66
-1354.12
-1349.06
-1347.22
-1347.07
-1347.79
-1348.91
-1350.06
-1351.2
-1352.27
-1352.85
-1352.86
-1350.73
-1344.81
-1334.3
-1324.26
-1361.24
-1374.56
-1364.75
-1361.65
-1351.39
-1381.65
-1425.24
-1414.15
-1422.73
-1401.64
-1428.66
-1380.32
-1499.28
-1453.64
-2539.04
117.783
)
;

boundaryField
{
    AirInlet
    {
        type            calculated;
        value           nonuniform List<scalar> 5(-9015.74 -10994 -5647.86 24857.8 5953.44);
    }
    WaterInlet
    {
        type            calculated;
        value           nonuniform List<scalar> 10(-1241.01 -1247.3 -1249.96 -1249.73 -1246.3 -331.759 -335.412 -335.931 -333.473 -327.393);
    }
    ChannelWall
    {
        type            calculated;
        value           nonuniform List<scalar> 
110
(
-1246.34
-1293
-1300.81
-1280.55
-1243.74
-331.715
-370.221
-380.581
-368.499
-166.251
-327.416
-368.865
-388.457
-405.107
-465.416
-731.942
-1459.08
-1566.77
-1552.46
-1550.41
-1572.95
-1550.29
-1601.65
-1866.62
-1607.22
-1564.96
-1403
-1395.38
-1364.71
-1354.16
-1349.1
-1347.26
-1347.11
-1347.83
-1348.95
-1350.11
-1351.25
-1352.31
-1352.9
-1352.91
-1350.77
-1344.86
-1334.34
-1324.3
-1361.26
-1374.56
-1364.75
-1361.65
-1351.39
-1381.7
-1425.29
-1414.19
-1422.78
-1401.68
-1428.7
-1380.36
-1499.32
-1453.69
-2539.08
117.782
-1240.98
-1290.47
-1304.85
-1278.49
-1321.01
-1379.89
-1130.98
-1664.17
-2132.68
-1955.19
-2262.82
-2321.01
-710.185
-988.143
-1168.97
-1215.98
-1367.4
-1260.74
-1324.96
-1326.03
-1333.79
-1338.48
-1341.52
-1343.76
-1345.62
-1347.51
-1349.31
-1351.41
-1353.4
-1355.59
-1357.13
-1356.2
-1350.56
-1316.76
-1326.85
-1367.13
-1372.52
-1255.6
-1190.36
-1439.15
-1460.74
-1420.95
-1433.25
-1418.08
-1457.5
-1406.88
-1486.4
-1356.19
-778.76
-424.179
)
;
    }
    Outlet
    {
        type            calculated;
        value           nonuniform List<scalar> 
15
(
-0.0141987
-0.0480865
-0.0131083
-0.00659466
-0.000397305
-0.0471618
-0.0650324
-0.014973
-0.00051012
-0.00880922
-0.17911
-0.389371
-0.0292224
-0.000848565
-0.0272924
)
;
    }
    FrontAndBack
    {
        type            empty;
    }
}


// ************************************************************************* //
