/*--------------------------------*- C++ -*----------------------------------*\
| =========                 |                                                 |
| \\      /  F ield         | OpenFOAM: The Open Source CFD Toolbox           |
|  \\    /   O peration     | Version:  2.3.0                                 |
|   \\  /    A nd           | Web:      www.OpenFOAM.org                      |
|    \\/     M anipulation  |                                                 |
\*---------------------------------------------------------------------------*/
FoamFile
{
    version     2.0;
    format      ascii;
    class       volScalarField;
    location    "0.056";
    object      p_rgh;
}
// * * * * * * * * * * * * * * * * * * * * * * * * * * * * * * * * * * * * * //

dimensions      [1 -1 -2 0 0 0 0];

internalField   nonuniform List<scalar> 
725
(
-1240.98
-1290.47
-1304.85
-1278.49
-1321.01
-1247.22
-1290.22
-1302.83
-1277.56
-1317.51
-1249.84
-1290.37
-1301.87
-1278.14
-1302.66
-1249.56
-1291.18
-1300.89
-1279.54
-1278.43
-1246.08
-1292.7
-1300.46
-1280.17
-1243.32
-1379.89
-1130.98
-1664.17
-2132.68
-1955.19
-2262.82
-2321.01
-710.185
-988.143
-1168.97
-1215.98
-1367.4
-1260.74
-1324.96
-1326.03
-1333.79
-1338.48
-1341.52
-1343.76
-1345.62
-1347.51
-1349.31
-1351.41
-1353.4
-1355.59
-1357.13
-1356.2
-1350.56
-1316.76
-1326.85
-1367.13
-1372.52
-1255.6
-1190.36
-1439.15
-1460.74
-1420.95
-1433.25
-1418.08
-1457.5
-1406.88
-1486.4
-1356.19
-778.76
-424.179
-1409.07
-995.956
-1705.98
-2237.38
-2497.08
-2484.71
-2459.55
-681.278
-965.455
-1150.06
-1233.45
-1369.91
-1263.1
-1323.45
-1328.05
-1334.17
-1338.89
-1342.09
-1344.38
-1346.43
-1348.32
-1350.08
-1352.01
-1353.93
-1356.22
-1358.27
-1359.63
-1360.81
-1356.11
-1367.79
-1370.53
-1343.42
-1352.01
-1313.59
-1423.79
-1439.51
-1406.83
-1428.7
-1417.87
-1457.6
-1415.25
-1524.03
-1438.47
-1113.85
-458.253
-1480.31
-738.558
-1753.72
-2359.21
-2461.31
-2808.34
-2601.77
-671.96
-864.546
-1082.11
-1301.7
-1365.67
-1268.86
-1323.5
-1329.94
-1335.41
-1339.59
-1342.54
-1344.79
-1346.81
-1348.59
-1350.16
-1351.95
-1353.8
-1356.36
-1359.27
-1363.82
-1374.93
-1414.8
-1423.19
-1375.14
-1340.57
-1378.42
-1484.58
-1522.42
-1459.79
-1408.18
-1427.54
-1417.13
-1456.86
-1420.39
-1560.78
-1567.17
-2322.21
-113.17
-1619.69
-338.382
-1845.3
-1533.58
-1728.14
-3373.81
-2966.41
-710.559
-486.014
-916.12
-1446.67
-1353.42
-1279.02
-1324.76
-1332.06
-1336.93
-1340.39
-1342.94
-1344.6
-1346.94
-1348.75
-1350.54
-1352.27
-1354.01
-1356.5
-1359.99
-1366.71
-1384.9
-1441.55
-1451.32
-1374.6
-1348.02
-1366.42
-1494.53
-1578.7
-1489.53
-1416.89
-1427.07
-1415.55
-1453.7
-1417.21
-1563.2
-1577.87
-2940.24
81.8134
-1829.63
258.113
-1688.47
-1490.36
-1498.18
-1001.5
-3783.82
-1094.59
-22.8219
-969.08
-1634.23
-1346.28
-1292.69
-1327.48
-1334.1
-1338.28
-1341.15
-1343.58
-1345.64
-1347.4
-1348.89
-1350.27
-1352.01
-1353.68
-1356.26
-1359.83
-1366.96
-1386.96
-1436.53
-1470.23
-1380.29
-1349.37
-1361.12
-1471.72
-1554.75
-1492.83
-1423.33
-1429.02
-1413.14
-1447.92
-1404.74
-1517.47
-1434.15
-1739.12
-90.3349
-2457.69
-128.369
-1640
-1506.11
-1553.62
-829.563
216.039
-1589.98
785.341
-964.887
-892.375
-1338.13
-1300.08
-1330.29
-1335.58
-1339.57
-1341.88
-1343.96
-1345.84
-1347.52
-1348.95
-1350.42
-1352.01
-1353.48
-1355.93
-1359.22
-1365.97
-1384.31
-1397.82
-1441.62
-1375.66
-1348.68
-1358.88
-1425.96
-1567.66
-1486.99
-1420.67
-1429.37
-1410.18
-1444.45
-1393.02
-1481.82
-1358.93
-1465.66
-134.172
-3340.81
-451.381
-1651.87
-1535.09
-1555.07
-533.172
-549.32
-1879.67
1474.18
-911.114
-874.707
-1334.32
-1303.09
-1331.29
-1336.18
-1340.05
-1342.16
-1344.11
-1345.91
-1347.55
-1348.96
-1350.42
-1351.99
-1353.41
-1355.78
-1358.95
-1365.69
-1383.1
-1414
-1400.2
-1359.47
-1347.86
-1358.18
-1417.01
-1567.77
-1484.88
-1421.73
-1429.3
-1409.25
-1443.02
-1388.85
-1468.9
-1334.62
-1399.94
-141.461
-3962.29
-94.1321
-1655.77
-1546.73
-1552.71
-924.137
-495.889
-1902.4
7021.26
-831.613
-859.047
-1331.73
-1306.62
-1332.2
-1336.77
-1340.51
-1342.45
-1344.27
-1345.98
-1347.58
-1348.97
-1350.41
-1351.96
-1353.32
-1355.6
-1358.59
-1364.89
-1381.12
-1412.71
-1434.36
-1375.64
-1348.36
-1357.62
-1407.74
-1563.69
-1482.83
-1422.71
-1428.55
-1408.06
-1441.05
-1384.75
-1456.05
-1311.75
-1336.4
-173.012
8452.39
873.305
-1624.1
-1550.46
-1534.25
-71.1828
-583.054
-2131.54
-1059.67
1152.56
-964.581
-1330.8
-1310.91
-1332.91
-1337.2
-1340.85
-1342.72
-1344.41
-1346.05
-1347.58
-1348.93
-1350.34
-1351.87
-1353.23
-1355.39
-1358.19
-1364.48
-1377.92
-1391.93
-1396.03
-1364.89
-1283.36
-1357.26
-1403.55
-1559.48
-1480.46
-1423.15
-1428.98
-1407.89
-1439.8
-1381.39
-1443.6
-1289.33
-1229.99
-229.192
2115.46
-2049.81
-1628.16
-1549.79
-1540.05
-1080.41
-941.77
-2299.9
-431.96
-1489.82
-1053.55
-1331.24
-1316
-1333.39
-1336.71
-1340.96
-1342.96
-1344.54
-1346.09
-1347.54
-1348.83
-1350.3
-1351.81
-1353.11
-1355.13
-1357.73
-1363.27
-1373.52
-1393.56
-1362.73
-1368.21
-1356.95
-1356.97
-1398.83
-1554.95
-1476.87
-1423.77
-1428.69
-1407.42
-1437.95
-1378.29
-1431.8
-1268.17
-1112.37
-339.67
-330.999
-369.544
-379.944
-367.9
-165.692
-334.603
-368.008
-380.891
-377.691
-246.962
-335.073
-367.302
-383.418
-388.302
-352.038
-332.566
-367.392
-385.624
-397.316
-427.719
-326.435
-367.884
-387.476
-404.126
-464.435
-83.4172
-1342.99
-1611.11
-1554.26
-1549.48
-1619.01
-1698.05
-2036.19
-4664.37
-1627.57
-1255.77
-1336.54
-1330.49
-1337.16
-1340.97
-1342.33
-1343.5
-1344.72
-1346.18
-1347.7
-1349.27
-1350.75
-1352.2
-1353.5
-1354.97
-1356.27
-1359.17
-1360.06
-1380.49
-1333.11
-1389.24
-1355.34
-1356.45
-1392.05
-1543.09
-1475.64
-1426.45
-1427.22
-1406.57
-1432.86
-1370.6
-1402.15
-1214.15
-797.148
-538.16
-703.5
-1502.47
-1588.1
-1552.02
-1552.17
-1591.23
-1534.4
-1797.67
-3559.88
-1858.03
-1447.47
-1365.54
-1354.12
-1349.14
-1346.7
-1345.08
-1344.85
-1345.53
-1346.64
-1348.02
-1349.33
-1350.65
-1351.96
-1353.06
-1354.07
-1354.45
-1353.42
-1344.01
-1341.13
-1313.72
-1381.41
-1360.41
-1358.05
-1388.24
-1517.22
-1463.64
-1424.62
-1426.84
-1404.55
-1428.18
-1362.15
-1378.73
-1138.66
-451.443
-378.94
-559.136
-1316.78
-1578.33
-1552.14
-1549.98
-1576.38
-1541.15
-1771.53
-2219.66
-1712.11
-1518.41
-1387.38
-1375.79
-1356.35
-1349.92
-1346.79
-1345.85
-1346.06
-1346.92
-1348.13
-1349.38
-1350.63
-1351.82
-1352.67
-1353.22
-1352.38
-1348.77
-1336.71
-1319.47
-1319.08
-1378.62
-1362.51
-1359.52
-1382.65
-1474.15
-1448.96
-1420.95
-1424.9
-1402.64
-1426.45
-1363.15
-1392.74
-1160.65
-540.296
-295.244
-654.95
-1442.35
-1570.4
-1552.31
-1550.42
-1575.36
-1547.56
-1619.02
-2437.26
-1667.65
-1565.51
-1399.54
-1388.28
-1361.59
-1352.35
-1347.96
-1346.4
-1346.31
-1347.05
-1348.19
-1349.41
-1350.61
-1351.72
-1352.42
-1352.61
-1350.99
-1345.8
-1334.41
-1317.79
-1336.59
-1375.43
-1364.21
-1361.14
-1367.97
-1418.28
-1434.05
-1416.77
-1423.48
-1402.41
-1425.9
-1371.88
-1444.18
-1279.98
-1257.48
-206.752
-730.961
-1458.65
-1566.77
-1552.46
-1550.41
-1572.95
-1550.29
-1601.61
-1865.78
-1606.23
-1563.98
-1402.02
-1394.4
-1363.73
-1353.18
-1348.12
-1346.28
-1346.13
-1346.85
-1347.97
-1349.13
-1350.27
-1351.33
-1351.92
-1351.93
-1349.79
-1343.88
-1333.36
-1323.32
-1360.71
-1374.56
-1364.75
-1361.64
-1351.21
-1380.72
-1424.31
-1413.21
-1421.8
-1400.7
-1427.72
-1379.38
-1498.34
-1452.71
-2538.29
117.81
)
;

boundaryField
{
    AirInlet
    {
        type            fixedFluxPressure;
        gradient        nonuniform List<scalar> 5(-6.55805e+08 -7.65316e+08 -1.68557e+08 1.64054e+09 3.83798e+08);
        value           nonuniform List<scalar> 5(-9015.74 -10994 -5647.86 24857.8 5953.44);
    }
    WaterInlet
    {
        type            fixedFluxPressure;
        gradient        nonuniform List<scalar> 10(0.00498172 -18.6299 -9.69232 -0.0945551 -3.69814 -0.0246589 -22.9822 1.58595 -19.8973 -64.8364);
        value           nonuniform List<scalar> 10(-1240.98 -1247.22 -1249.84 -1249.56 -1246.08 -330.999 -334.603 -335.073 -332.566 -326.436);
    }
    ChannelWall
    {
        type            fixedFluxPressure;
        gradient        uniform 0;
        value           nonuniform List<scalar> 
110
(
-1246.08
-1292.7
-1300.46
-1280.17
-1243.32
-330.999
-369.544
-379.944
-367.9
-165.692
-326.435
-367.884
-387.476
-404.126
-464.435
-730.961
-1458.65
-1566.77
-1552.46
-1550.41
-1572.95
-1550.29
-1601.61
-1865.78
-1606.23
-1563.98
-1402.02
-1394.4
-1363.73
-1353.18
-1348.12
-1346.28
-1346.13
-1346.85
-1347.97
-1349.13
-1350.27
-1351.33
-1351.92
-1351.93
-1349.79
-1343.88
-1333.36
-1323.32
-1360.71
-1374.56
-1364.75
-1361.64
-1351.21
-1380.72
-1424.31
-1413.21
-1421.8
-1400.7
-1427.72
-1379.38
-1498.34
-1452.71
-2538.29
117.81
-1240.98
-1290.47
-1304.85
-1278.49
-1321.01
-1379.89
-1130.98
-1664.17
-2132.68
-1955.19
-2262.82
-2321.01
-710.185
-988.143
-1168.97
-1215.98
-1367.4
-1260.74
-1324.96
-1326.03
-1333.79
-1338.48
-1341.52
-1343.76
-1345.62
-1347.51
-1349.31
-1351.41
-1353.4
-1355.59
-1357.13
-1356.2
-1350.56
-1316.76
-1326.85
-1367.13
-1372.52
-1255.6
-1190.36
-1439.15
-1460.74
-1420.95
-1433.25
-1418.08
-1457.5
-1406.88
-1486.4
-1356.19
-778.76
-424.179
)
;
    }
    Outlet
    {
        type            totalPressure;
        rho             rho;
        psi             none;
        gamma           1;
        p0              uniform 0;
        value           nonuniform List<scalar> 
15
(
0
-0.0479541
0
0
0
-0.0467106
-0.0645616
-0.0144825
0
-0.00827948
0
-0.189421
-0.0284621
0
0
)
;
    }
    FrontAndBack
    {
        type            empty;
    }
}


// ************************************************************************* //
