/*--------------------------------*- C++ -*----------------------------------*\
| =========                 |                                                 |
| \\      /  F ield         | OpenFOAM: The Open Source CFD Toolbox           |
|  \\    /   O peration     | Version:  2.3.0                                 |
|   \\  /    A nd           | Web:      www.OpenFOAM.org                      |
|    \\/     M anipulation  |                                                 |
\*---------------------------------------------------------------------------*/
FoamFile
{
    version     2.0;
    format      ascii;
    class       surfaceScalarField;
    location    "0.056";
    object      phi;
}
// * * * * * * * * * * * * * * * * * * * * * * * * * * * * * * * * * * * * * //

dimensions      [0 3 -1 0 0 0 0];

internalField   nonuniform List<scalar> 
1380
(
3.11117e-13
1.88883e-13
2.78968e-13
3.21492e-14
2.7505e-13
3.91797e-15
1.86771e-13
8.82785e-14
1.0819e-13
7.85818e-14
6.00484e-13
8.83989e-14
6.18183e-13
1.44502e-14
6.05765e-13
1.63357e-14
5.54238e-13
1.39805e-13
9.11813e-14
5.71247e-13
6.85861e-13
-9.74624e-14
7.26368e-13
-2.60561e-14
7.22483e-13
2.02207e-14
7.41897e-13
1.20391e-13
-1.41319e-13
9.74397e-13
5.9749e-13
-1.94952e-13
6.06308e-13
-3.4874e-14
6.06917e-13
1.96109e-14
6.50063e-13
7.72447e-14
-5.644e-13
1.07314e-12
3.05048e-13
2.70174e-13
2.89785e-13
3.67029e-13
-1.97371e-13
-6.14396e-13
6.92978e-13
-2.07378e-12
1.45938e-12
-2.65857e-12
5.84794e-13
-4.55271e-13
-2.2033e-12
5.08238e-12
-5.53765e-12
3.27936e-12
1.80302e-12
-1.84933e-12
5.12869e-12
3.42623e-13
-2.19195e-12
1.8521e-12
-1.50948e-12
2.89396e-13
1.56271e-12
8.71544e-14
2.02241e-13
9.87466e-14
-1.15919e-14
2.65764e-14
7.21702e-14
1.2228e-13
-9.57032e-14
1.59377e-13
-3.70972e-14
1.60512e-13
-1.13568e-15
1.50183e-13
1.03298e-14
1.43538e-13
6.64393e-15
1.4309e-13
4.48218e-16
1.474e-13
-4.30923e-15
1.50911e-13
-3.51126e-15
1.56023e-13
-5.11195e-15
1.6192e-13
-5.89669e-15
1.75025e-13
-1.31057e-14
2.04878e-13
-2.9852e-14
2.8413e-13
-7.92523e-14
5.26434e-13
-2.42304e-13
1.00423e-12
-4.77798e-13
1.71385e-12
-7.09618e-13
4.76008e-13
1.23784e-12
-3.40859e-12
3.88459e-12
-4.86303e-12
1.45445e-12
4.08988e-12
-8.95291e-12
2.46619e-12
1.62369e-12
1.21736e-12
1.24883e-12
4.19115e-13
7.98242e-13
2.5096e-13
1.68156e-13
1.86953e-13
6.40064e-14
1.44352e-13
4.26009e-14
1.29461e-13
1.48912e-14
1.44413e-13
-1.4952e-14
1.63799e-13
-1.93854e-14
3.49933e-13
-1.86135e-13
9.20453e-13
-5.7052e-13
1.37388e-13
-3.32683e-13
1.59691e-12
-1.26113e-12
2.38783e-12
1.22987e-12
-1.90621e-12
7.14339e-12
-8.11682e-12
5.04398e-12
-3.43824e-12
1.8155e-12
5.0315e-12
-2.35589e-12
9.30008e-12
8.16014e-13
-5.36385e-12
2.46902e-12
-3.16248e-12
5.30546e-13
3.50118e-12
4.17125e-13
3.15662e-13
4.6258e-13
-5.70468e-14
4.36366e-13
9.83843e-14
4.58043e-13
-1.17381e-13
4.85583e-13
-6.46369e-14
4.64502e-13
1.99447e-14
4.22578e-13
5.22541e-14
3.94958e-13
3.42644e-14
3.86669e-13
8.73691e-15
3.88645e-13
-6.28512e-15
3.92548e-13
-7.41473e-15
3.98841e-13
-1.14049e-14
4.05425e-13
-1.24802e-14
4.19665e-13
-2.7346e-14
4.59123e-13
-6.93097e-14
5.52149e-13
-1.72279e-13
8.07058e-13
-4.97212e-13
1.16411e-12
-8.34846e-13
1.35454e-12
-9.00055e-13
4.89618e-13
2.10277e-12
-6.47392e-12
1.08481e-11
-6.28621e-12
1.26674e-12
-3.13451e-12
-1.21046e-11
5.26567e-12
-6.77648e-12
4.56069e-12
1.95381e-12
2.27375e-12
3.08518e-12
9.97941e-13
1.44397e-12
5.75478e-13
4.86469e-13
4.32102e-13
1.85977e-13
3.8535e-13
6.16429e-14
3.87438e-13
-1.70399e-14
5.40615e-13
-1.72563e-13
8.60091e-13
-5.0561e-13
-1.23058e-12
1.52015e-12
1.6951e-12
-4.88846e-13
3.06015e-12
-1.25668e-12
3.15566e-12
2.34938e-12
-5.51227e-12
9.53174e-12
-1.52992e-11
7.76559e-12
-1.6721e-12
3.22269e-12
9.5744e-12
-2.73268e-12
1.52554e-11
-1.04899e-14
-8.08604e-12
1.62101e-12
-4.79399e-12
-2.93217e-13
5.41541e-12
1.30954e-13
-1.08509e-13
7.07794e-13
-6.33887e-13
7.45714e-13
6.04634e-14
7.35588e-13
-1.07254e-13
7.37609e-13
-6.66581e-14
6.97844e-13
5.97103e-14
6.37332e-13
1.12766e-13
5.94981e-13
7.66156e-14
5.77295e-13
2.64231e-14
5.7449e-13
-3.47976e-15
5.75215e-13
-8.1408e-15
5.78396e-13
-1.45852e-14
5.80077e-13
-1.41612e-14
5.8708e-13
-3.43493e-14
6.08165e-13
-9.03941e-14
6.48174e-13
-2.12288e-13
7.37497e-13
-5.86536e-13
7.79275e-13
-8.76624e-13
8.43364e-13
-9.64145e-13
6.45724e-13
2.30041e-12
-2.78021e-12
1.42741e-11
-9.09503e-12
7.58156e-12
-4.85765e-12
-1.6342e-11
2.38546e-12
-1.40196e-11
4.15364e-12
1.85622e-13
2.8766e-12
4.36223e-12
1.48714e-12
2.83343e-12
8.42877e-13
1.13073e-12
6.39422e-13
3.89432e-13
5.53255e-13
1.47809e-13
5.21439e-13
1.47763e-14
5.5851e-13
-2.09633e-13
5.30206e-13
-4.77306e-13
1.1681e-12
8.82256e-13
1.83471e-12
-5.59748e-13
4.69304e-12
1.4651e-12
1.13082e-12
9.07302e-12
-1.31202e-11
1.46627e-11
-2.08888e-11
1.62009e-11
-3.21027e-12
7.51664e-12
1.82586e-11
-2.78543e-12
2.55575e-11
1.45815e-14
-1.08861e-11
1.9618e-12
-6.74121e-12
-3.30212e-13
7.70742e-12
4.5532e-16
-4.39176e-13
8.13604e-13
-1.44704e-12
8.97152e-13
-2.30852e-14
8.96006e-13
-1.06108e-13
8.89251e-13
-5.99033e-14
8.33831e-13
1.1513e-13
7.7645e-13
1.70147e-13
7.32194e-13
1.20872e-13
7.07739e-13
5.08773e-14
7.01358e-13
2.90137e-15
7.01171e-13
-7.95374e-15
7.00446e-13
-1.38599e-14
6.99151e-13
-1.28667e-14
6.99317e-13
-3.45157e-14
6.97509e-13
-8.8586e-14
6.76e-13
-1.90778e-13
6.10949e-13
-5.21485e-13
4.17364e-13
-6.83039e-13
3.60934e-13
-9.07714e-13
-6.49994e-14
2.72634e-12
-2.9406e-12
1.71497e-11
2.17317e-12
2.46779e-12
4.27731e-13
-1.45966e-11
-9.59684e-13
-1.26322e-11
1.32943e-12
-2.10349e-12
1.92545e-12
3.7662e-12
1.40704e-12
3.35184e-12
9.42652e-13
1.59512e-12
7.6219e-13
5.69894e-13
6.56368e-13
2.53631e-13
6.01618e-13
6.95263e-14
4.40387e-13
-4.84025e-14
8.56593e-14
-1.22578e-13
3.69106e-12
-2.72315e-12
1.91138e-12
-2.19587e-12
6.69154e-12
1.18151e-11
-1.28801e-11
2.77221e-11
-2.90272e-11
2.9081e-11
-2.22477e-11
6.39977e-12
1.9471e-11
5.58468e-12
1.90737e-11
-5.63421e-12
3.67764e-11
-8.47504e-13
-1.56728e-11
3.76557e-12
-1.13543e-11
7.50588e-13
1.07224e-11
-1.63011e-13
4.74423e-13
8.32944e-13
-2.44299e-12
9.02897e-13
-9.30384e-14
9.16046e-13
-1.19257e-13
9.18741e-13
-6.2598e-14
8.75803e-13
1.58068e-13
8.30808e-13
2.15143e-13
8.0023e-13
1.5145e-13
7.82387e-13
6.87201e-14
7.73426e-13
1.18632e-14
7.72611e-13
-7.13944e-15
7.69615e-13
-1.08634e-14
7.68419e-13
-1.16714e-14
7.6549e-13
-3.15865e-14
7.52096e-13
-7.51921e-14
6.96599e-13
-1.35281e-13
5.47824e-13
-3.7271e-13
4.34408e-13
-5.69624e-13
2.84134e-13
-7.5744e-13
1.16835e-12
1.84212e-12
2.65665e-12
1.56614e-11
8.23612e-12
-3.11167e-12
1.54781e-12
-7.90825e-12
-7.59818e-13
-1.03245e-11
-1.79139e-13
-2.68417e-12
8.70059e-13
2.717e-12
1.04155e-12
3.18035e-12
9.07813e-13
1.72886e-12
8.18883e-13
6.58824e-13
7.27732e-13
3.44782e-13
6.71366e-13
1.25892e-13
5.12014e-13
1.1095e-13
6.37015e-14
3.25734e-13
-1.03561e-12
-1.62384e-12
1.49598e-13
-1.54376e-13
7.04592e-12
6.83748e-12
-1.9872e-11
1.18104e-11
-3.40002e-11
2.58144e-12
-1.30188e-11
-8.35318e-12
3.04056e-11
-8.48387e-12
1.92044e-11
-2.35517e-12
3.06477e-11
-2.06153e-12
-1.59664e-11
-2.06212e-13
-1.32096e-11
6.61458e-14
1.045e-11
-5.53344e-14
5.95903e-13
1.67022e-13
-2.66535e-12
1.80014e-13
-1.0603e-13
1.89735e-13
-1.28978e-13
1.92514e-13
-6.53765e-14
1.87035e-13
1.63546e-13
1.81423e-13
2.20754e-13
1.78093e-13
1.54781e-13
1.75937e-13
7.08758e-14
1.74697e-13
1.31027e-14
1.74598e-13
-7.04004e-15
1.74387e-13
-1.0653e-14
1.74705e-13
-1.19894e-14
1.73268e-13
-3.015e-14
1.70453e-13
-7.23768e-14
1.58665e-13
-1.23493e-13
1.34071e-13
-3.48115e-13
1.76842e-13
-6.12395e-13
1.68175e-13
-7.48773e-13
4.99919e-13
1.51037e-12
1.70462e-12
1.44567e-11
2.38663e-12
-3.79369e-12
8.07041e-13
-6.32865e-12
-2.27761e-13
-9.28974e-12
-1.62915e-13
-2.74902e-12
8.45122e-14
2.46958e-12
1.73355e-13
3.0915e-12
1.95416e-13
1.7068e-12
1.74222e-13
6.80018e-13
1.74407e-13
3.44598e-13
1.45269e-13
1.5503e-13
1.2679e-13
1.29428e-13
3.60731e-14
4.16451e-13
-6.61193e-13
-9.26573e-13
1.00821e-13
7.73732e-13
6.47219e-12
1.07225e-11
-2.98208e-11
1.57387e-11
-3.90164e-11
3.11149e-12
-3.91526e-13
-1.03047e-11
4.38218e-11
-4.742e-12
1.36417e-11
-3.20453e-12
2.91102e-11
-3.94991e-12
-1.5221e-11
-1.06829e-12
-1.60912e-11
2.58882e-14
9.35586e-12
7.06075e-14
5.51183e-13
1.63352e-13
-2.75809e-12
1.73753e-13
-1.16431e-13
1.84111e-13
-1.39337e-13
1.86947e-13
-6.82117e-14
1.83054e-13
1.67439e-13
1.79436e-13
2.24372e-13
1.7751e-13
1.56707e-13
1.76081e-13
7.23055e-14
1.75123e-13
1.40605e-14
1.75129e-13
-7.04669e-15
1.75039e-13
-1.05624e-14
1.75468e-13
-1.24182e-14
1.73997e-13
-2.86796e-14
1.70925e-13
-6.93049e-14
1.59162e-13
-1.1173e-13
1.37776e-13
-3.2673e-13
1.99891e-13
-6.7451e-13
2.96283e-13
-8.45165e-13
1.95023e-13
1.61163e-12
2.63973e-12
1.2012e-11
2.2847e-12
-3.43866e-12
6.92077e-13
-4.73603e-12
-2.23135e-13
-8.37453e-12
-1.89697e-13
-2.78245e-12
4.92417e-14
2.23064e-12
1.54725e-13
2.98602e-12
1.90872e-13
1.67065e-12
1.7185e-13
6.9904e-13
1.77973e-13
3.38475e-13
1.44023e-13
1.88981e-13
1.29897e-13
1.43554e-13
3.48905e-14
5.11458e-13
-5.38994e-13
-3.52688e-13
2.78745e-13
2.48547e-12
4.18672e-12
1.4774e-11
-4.21093e-11
1.64246e-11
-4.0667e-11
2.41779e-12
1.36153e-11
-8.33009e-12
5.45696e-11
1.44081e-12
3.87083e-12
-2.53389e-12
3.30849e-11
-5.34388e-12
-1.2411e-11
-1.35859e-12
-2.00765e-11
-1.09011e-14
8.00818e-12
2.24775e-13
3.15507e-13
1.60841e-13
-2.69416e-12
1.68137e-13
-1.23727e-13
1.77369e-13
-1.48569e-13
1.80113e-13
-7.09551e-14
1.78033e-13
1.69519e-13
1.76694e-13
2.2571e-13
1.7628e-13
1.57121e-13
1.75627e-13
7.2958e-14
1.74971e-13
1.47167e-14
1.75087e-13
-7.16282e-15
1.75127e-13
-1.0602e-14
1.75645e-13
-1.29366e-14
1.74166e-13
-2.72006e-14
1.70769e-13
-6.59079e-14
1.58402e-13
-9.93625e-14
1.38907e-13
-3.07234e-13
2.00866e-13
-7.36468e-13
2.89904e-13
-9.34203e-13
-6.91043e-14
1.97064e-12
1.49989e-12
1.0443e-11
2.03621e-12
-3.97497e-12
7.33665e-13
-3.43349e-12
-1.5162e-13
-7.48924e-12
-2.08196e-13
-2.72588e-12
1.80536e-14
2.00439e-12
1.37946e-13
2.86613e-12
1.84626e-13
1.62397e-12
1.70693e-13
7.12973e-13
1.78616e-13
3.30551e-13
1.4561e-13
2.21987e-13
1.28757e-13
1.60407e-13
3.21937e-14
6.08021e-13
-4.18492e-13
9.7997e-14
2.00921e-13
7.91959e-12
-3.53286e-12
1.62694e-11
-5.04592e-11
9.62567e-12
-3.40232e-11
-5.76571e-13
2.38176e-11
-7.70008e-12
6.16932e-11
4.61353e-12
-8.44278e-12
-3.98827e-13
3.80973e-11
-4.54962e-13
-1.23549e-11
-5.55731e-13
-1.99757e-11
-1.15321e-13
7.56777e-12
3.41897e-13
-1.4171e-13
1.56655e-13
-2.50892e-12
1.61867e-13
-1.28939e-13
1.69712e-13
-1.56414e-13
1.72006e-13
-7.32492e-14
1.72031e-13
1.69494e-13
1.73213e-13
2.24529e-13
1.74407e-13
1.55927e-13
1.74587e-13
7.27781e-14
1.74261e-13
1.50428e-14
1.74476e-13
-7.37802e-15
1.74655e-13
-1.07811e-14
1.75292e-13
-1.35737e-14
1.73781e-13
-2.56898e-14
1.70019e-13
-6.21455e-14
1.56787e-13
-8.61313e-14
1.35311e-13
-2.85758e-13
1.66732e-13
-7.6789e-13
6.84929e-14
-8.35963e-13
1.08449e-13
1.93069e-12
6.86661e-13
9.86475e-12
1.64403e-12
-4.93234e-12
6.33877e-13
-2.42334e-12
-1.31587e-13
-6.72378e-12
-2.16195e-13
-2.64127e-12
-8.62968e-15
1.79682e-12
1.21778e-13
2.73572e-12
1.77011e-13
1.56874e-12
1.6838e-13
7.21603e-13
1.78463e-13
3.20469e-13
1.46838e-13
2.53613e-13
1.29693e-13
1.77552e-13
2.8831e-14
7.08884e-13
-2.6506e-13
3.91888e-13
-1.03902e-13
2.89441e-12
-6.22728e-12
-4.75305e-13
-4.70894e-11
3.9351e-12
-3.84337e-11
-2.93235e-12
3.0685e-11
-6.96331e-12
6.57241e-11
2.87134e-12
-1.82774e-11
1.46442e-12
3.95042e-11
3.17001e-12
-1.40605e-11
3.82111e-13
-1.71878e-11
5.56375e-14
7.89424e-12
3.92074e-13
-4.78146e-13
1.4782e-13
-2.26466e-12
1.56452e-13
-1.37571e-13
1.61075e-13
-1.61038e-13
1.62654e-13
-7.48284e-14
1.65269e-13
1.6688e-13
1.69065e-13
2.20732e-13
1.71935e-13
1.53057e-13
1.73022e-13
7.16909e-14
1.72972e-13
1.50929e-14
1.73365e-13
-7.77115e-15
1.7372e-13
-1.11354e-14
1.74383e-13
-1.42375e-14
1.72845e-13
-2.41511e-14
1.68661e-13
-5.79614e-14
1.54148e-13
-7.16185e-14
1.26268e-13
-2.57878e-13
1.06542e-13
-7.48164e-13
-4.52371e-14
-6.84184e-13
2.45943e-13
1.63951e-12
1.37055e-12
8.74014e-12
1.6328e-12
-5.19459e-12
5.76027e-13
-1.36657e-12
-9.32105e-14
-6.05454e-12
-2.24185e-13
-2.51029e-12
-3.17983e-14
1.60444e-12
1.07569e-13
2.59635e-12
1.67843e-13
1.50846e-12
1.67342e-13
7.22104e-13
1.75678e-13
3.12132e-13
1.51446e-13
2.77845e-13
1.33002e-13
1.95995e-13
5.83349e-14
7.83551e-13
-3.11096e-13
7.61319e-13
-1.57925e-13
3.00576e-13
1.99424e-13
2.52087e-13
4.84891e-14
2.06627e-13
4.54597e-14
6.34662e-14
1.43161e-13
8.18313e-13
-7.54846e-13
5.95291e-13
1.04134e-13
5.91526e-13
5.22539e-14
5.40579e-13
9.6407e-14
3.21426e-13
3.62314e-13
1.66392e-12
-5.24177e-13
6.86587e-13
-8.2453e-14
7.31499e-13
7.34187e-15
7.5945e-13
6.84557e-14
8.38221e-13
2.83543e-13
9.89174e-13
1.51296e-12
6.03466e-13
-1.85919e-13
6.30903e-13
-2.00953e-14
6.6673e-13
3.26285e-14
7.93575e-13
1.56698e-13
3.91199e-13
1.39155e-12
3.14081e-13
2.93986e-13
3.26614e-13
4.83312e-13
8.74511e-13
-1.02663e-11
3.28415e-12
-4.15733e-11
-1.57824e-11
-2.37047e-11
-5.63022e-11
-2.0476e-11
2.74563e-11
-1.02085e-11
5.54566e-11
4.84324e-12
-3.33292e-11
9.59143e-12
3.4756e-11
1.10901e-11
-1.55592e-11
2.74996e-12
-8.84769e-12
2.17408e-12
8.47012e-12
1.64945e-12
4.64868e-14
5.8725e-13
-1.20247e-12
6.28621e-13
-1.78941e-13
6.17416e-13
-1.49833e-13
6.08393e-13
-6.58061e-14
6.52723e-13
1.22551e-13
7.02897e-13
1.70558e-13
7.35916e-13
1.20038e-13
7.53133e-13
5.44739e-14
7.62807e-13
5.41919e-15
7.66084e-13
-1.10476e-14
7.67137e-13
-1.21891e-14
7.67476e-13
-1.4576e-14
7.61122e-13
-1.77972e-14
7.36991e-13
-3.38303e-14
6.61511e-13
3.86071e-15
4.28836e-13
-2.52022e-14
-1.51336e-13
-1.67992e-13
-6.38828e-13
-1.96692e-13
2.14884e-12
-1.14817e-12
1.25967e-11
-1.70768e-12
7.23891e-12
1.63162e-13
2.25299e-12
3.61935e-12
-4.19177e-13
-3.38237e-12
-1.07422e-12
-1.85525e-12
-3.81897e-13
9.12108e-13
3.24802e-13
1.88965e-12
6.32672e-13
1.20059e-12
7.51765e-13
6.0301e-13
7.48319e-13
3.15579e-13
7.53361e-13
2.72803e-13
6.9395e-13
2.55407e-13
8.54038e-13
6.23463e-13
1.1068e-12
5.08556e-13
6.02142e-13
-9.88258e-13
3.74824e-12
-2.43696e-12
-1.43337e-11
-2.22447e-11
-3.64945e-11
-1.07416e-11
1.59532e-11
1.30711e-12
4.34079e-11
-1.62848e-11
-1.57373e-11
-1.11397e-11
2.9611e-11
-2.40139e-12
-2.42975e-11
-9.45566e-13
-1.03035e-11
1.60748e-12
5.91708e-12
1.21891e-12
4.35058e-13
5.85356e-13
-5.68914e-13
5.53736e-13
-1.47321e-13
5.12959e-13
-1.09055e-13
5.008e-13
-5.36473e-14
5.50611e-13
7.274e-14
6.15524e-13
1.05645e-13
6.6036e-13
7.5201e-14
6.83011e-13
3.18237e-14
6.89361e-13
-9.3055e-16
6.89429e-13
-1.11157e-14
6.89049e-13
-1.18094e-14
6.88452e-13
-1.39787e-14
6.85571e-13
-1.49171e-14
6.72222e-13
-2.04811e-14
6.42246e-13
3.38374e-14
4.96598e-13
1.20445e-13
1.5196e-14
3.1341e-13
-4.11759e-13
2.30263e-13
1.23679e-12
-2.79671e-12
3.2264e-12
-3.69729e-12
1.72845e-12
1.66111e-12
9.48232e-13
4.39956e-12
-4.50044e-13
-1.9841e-12
-1.00851e-12
-1.29678e-12
-5.5587e-13
4.59467e-13
9.90883e-14
1.2347e-12
4.71392e-13
8.2829e-13
6.47305e-13
4.27097e-13
6.93798e-13
2.69086e-13
7.2676e-13
2.39841e-13
6.28238e-13
3.53929e-13
5.20218e-13
7.31483e-13
-1.33834e-14
1.04216e-12
9.12634e-13
3.08203e-12
2.17917e-12
-4.40498e-12
-6.84672e-12
-1.99894e-11
-2.091e-11
-1.18958e-11
7.85961e-12
3.14305e-12
2.8369e-11
-9.76737e-12
-2.82687e-12
-1.05255e-12
2.08961e-11
3.64597e-12
-2.8996e-11
-1.01365e-12
-5.64389e-12
1.00203e-12
3.90139e-12
8.38117e-13
5.98971e-13
4.78413e-13
-2.09211e-13
4.33616e-13
-1.02523e-13
4.01639e-13
-7.70794e-14
3.94658e-13
-4.66663e-14
4.41162e-13
2.62362e-14
4.99249e-13
4.75582e-14
5.40459e-13
3.39906e-14
5.59651e-13
1.26322e-14
5.62498e-13
-3.77793e-15
5.60106e-13
-8.7232e-15
5.57296e-13
-8.9999e-15
5.54843e-13
-1.15254e-14
5.52626e-13
-1.27003e-14
5.48968e-13
-1.68226e-14
5.58842e-13
2.39639e-14
5.62888e-13
1.16399e-13
5.46711e-13
3.29587e-13
4.47266e-13
3.29707e-13
1.80339e-13
-2.52978e-12
-7.8705e-13
-2.7299e-12
-1.34622e-12
2.22028e-12
1.81024e-13
2.87232e-12
-3.30641e-13
-1.47243e-12
-8.72592e-13
-7.54827e-13
-6.1072e-13
1.97595e-13
-6.0866e-14
6.84842e-13
3.10485e-13
4.56939e-13
5.01074e-13
2.36508e-13
5.93804e-13
1.76356e-13
6.70494e-13
1.63152e-13
7.36037e-13
2.88385e-13
9.58421e-13
5.091e-13
-9.02778e-13
2.90336e-12
2.15874e-12
2.64705e-12
9.23668e-13
-8.61082e-13
-3.33859e-12
-1.55182e-11
-6.25294e-12
-1.08611e-11
3.20253e-12
5.59307e-12
1.19149e-11
4.95415e-12
-2.18795e-12
1.68337e-11
9.01655e-12
-1.08584e-12
-1.10765e-11
-1.99749e-12
-4.73224e-12
3.3819e-13
1.56572e-12
5.41266e-13
3.95894e-13
3.87594e-13
-5.55386e-14
3.33858e-13
-4.87867e-14
2.97151e-13
-4.03724e-14
2.79874e-13
-2.93897e-14
3.06288e-13
-1.7769e-16
3.44541e-13
9.30588e-15
3.71627e-13
6.90474e-15
3.82712e-13
1.54715e-15
3.81701e-13
-2.76735e-15
3.77086e-13
-4.10743e-15
3.72229e-13
-4.14336e-15
3.66693e-13
-5.98905e-15
3.61385e-13
-7.39222e-15
3.56626e-13
-1.2064e-14
3.7973e-13
8.60541e-16
4.61611e-13
3.4517e-14
6.57043e-13
1.34155e-13
7.9076e-13
1.9599e-13
-6.41312e-13
-1.09771e-12
-3.39102e-12
1.98003e-14
-2.08335e-12
9.12619e-13
3.87704e-13
4.0126e-13
-1.7172e-13
-9.13006e-13
-7.20774e-13
-2.05773e-13
-5.82541e-13
5.93617e-14
-1.40762e-13
2.43063e-13
1.63437e-13
1.5274e-13
3.18156e-13
8.17892e-14
4.2939e-13
6.51212e-14
5.07431e-13
8.51115e-14
6.85466e-13
1.1035e-13
9.93758e-13
2.00808e-13
-2.36468e-13
4.13358e-12
1.91958e-12
1.79818e-12
-1.54042e-12
-7.79335e-12
-4.59082e-12
7.32404e-12
5.13609e-12
1.41527e-11
3.07619e-12
-1.65605e-12
-9.03283e-14
3.05566e-13
2.50027e-13
2.01241e-13
1.60868e-13
1.31479e-13
1.31301e-13
1.40607e-13
1.47512e-13
1.49059e-13
1.46292e-13
1.42184e-13
1.38041e-13
1.32052e-13
1.2466e-13
1.12596e-13
1.13456e-13
1.47973e-13
2.82128e-13
4.78118e-13
-6.19593e-13
-5.99795e-13
3.12826e-13
7.14088e-13
-1.98918e-13
-4.04692e-13
-3.4533e-13
-1.02267e-13
5.04725e-14
1.32262e-13
1.97383e-13
2.82495e-13
3.92845e-13
5.93653e-13
4.72724e-12
)
;

boundaryField
{
    AirInlet
    {
        type            calculated;
        value           nonuniform List<scalar> 5(-2e-13 -2e-13 -2e-13 -2e-13 -2e-13);
    }
    WaterInlet
    {
        type            calculated;
        value           nonuniform List<scalar> 10(-5e-13 -5e-13 -5e-13 -5e-13 -5e-13 -5e-13 -5e-13 -5e-13 -5e-13 -5e-13);
    }
    ChannelWall
    {
        type            calculated;
        value           uniform 0;
    }
    Outlet
    {
        type            calculated;
        value           nonuniform List<scalar> 
15
(
7.83065e-13
-2.78829e-12
1.02849e-12
3.61439e-12
7.26173e-13
-6.12415e-13
-7.16917e-13
-3.40668e-13
3.97633e-14
-2.57073e-13
3.46733e-13
-3.23875e-13
-2.14888e-12
2.68828e-15
6.64682e-12
)
;
    }
    FrontAndBack
    {
        type            empty;
        value           nonuniform 0();
    }
}


// ************************************************************************* //
