/*--------------------------------*- C++ -*----------------------------------*\
| =========                 |                                                 |
| \\      /  F ield         | OpenFOAM: The Open Source CFD Toolbox           |
|  \\    /   O peration     | Version:  2.3.0                                 |
|   \\  /    A nd           | Web:      www.OpenFOAM.org                      |
|    \\/     M anipulation  |                                                 |
\*---------------------------------------------------------------------------*/
FoamFile
{
    version     2.0;
    format      ascii;
    class       volVectorField;
    location    "0.056";
    object      U;
}
// * * * * * * * * * * * * * * * * * * * * * * * * * * * * * * * * * * * * * //

dimensions      [0 1 -1 0 0 0 0];

internalField   nonuniform List<vector> 
725
(
(0.0511808 0.00715799 -2.2049e-31)
(0.0467741 0.00185419 3.51046e-32)
(0.0393443 0.000183758 5.79299e-32)
(0.0465406 0.00244553 0)
(-0.00881505 0.00302557 -1.40751e-31)
(0.0974202 0.0150577 -9.46499e-31)
(0.0975789 0.00740855 1.38725e-31)
(0.0944587 0.00580505 2.65074e-31)
(0.0862834 0.0115925 0)
(0.0340845 0.00859989 -1.7104e-30)
(0.110502 0.010808 -1.73933e-31)
(0.113689 0.0109977 3.61481e-32)
(0.112036 0.0120547 2.26677e-31)
(0.100471 0.0166781 0)
(0.0677629 0.00757728 -2.43965e-30)
(0.0977007 0.00415508 1.3354e-30)
(0.0963258 0.0115907 6.39244e-32)
(0.0926625 0.0144191 2.45264e-31)
(0.0858911 0.0178652 0)
(0.0736132 -0.00523924 -8.48424e-30)
(0.0507692 0.00247125 1.40948e-30)
(0.0452013 0.00733124 -2.35546e-32)
(0.0396866 0.00847046 6.37649e-32)
(0.045811 0.0104018 -3.40784e-31)
(0.0645649 -0.018851 -4.49494e-30)
(0.0191772 0.0126965 0)
(-0.119415 0.0396026 0)
(-0.355289 0.0407605 0)
(-0.325791 -0.035215 0)
(0.292623 -0.231104 0)
(0.670979 -0.00358962 0)
(-0.0519443 0.123527 0)
(-0.224713 -0.0427327 0)
(0.250406 -0.0311822 0)
(0.115252 0.0364469 0)
(-0.0361612 0.00276219 0)
(0.0466445 -0.00277656 0)
(-0.013846 0.00143806 0)
(0.0157239 -0.00240268 0)
(0.0159918 -0.00087041 0)
(0.018214 -0.000237354 0)
(0.0171822 -6.83121e-05 0)
(0.0160943 -3.98298e-05 0)
(0.0157593 -5.45747e-05 0)
(0.016081 -0.000101081 0)
(0.0165577 -5.81289e-05 0)
(0.0170757 -9.67524e-05 0)
(0.0175158 -9.65271e-05 0)
(0.0187613 -0.000259952 0)
(0.0198674 -0.000443448 0)
(0.0261786 -0.00132805 0)
(0.0381432 -0.00416448 0)
(0.0799222 -0.00959285 0)
(0.150123 -0.0226691 0)
(0.221344 0.0201505 0)
(-0.0502332 0.00385953 0)
(-0.977015 -0.0237846 0)
(0.22769 -0.226442 0)
(0.468522 0.166798 0)
(0.174587 0.0291856 0)
(0.0741603 -0.00270674 0)
(0.0277755 -0.00733508 0)
(0.0207286 -0.00099541 0)
(0.0271051 -0.00023779 0)
(-0.00277808 0.000443368 0)
(0.0405678 -0.00107389 0)
(-0.0210437 0.00256539 0)
(0.0549908 -0.00163639 0)
(0.0469559 -0.0390254 0)
(0.0911064 0.00226154 0)
(0.0813695 0.0613676 0)
(-0.116907 0.107786 0)
(-0.220631 0.0129853 0)
(0.523158 -0.196369 0)
(0.883342 -0.244176 0)
(0.425185 0.172053 0)
(-0.144556 0.368655 0)
(-0.225898 -0.191165 0)
(0.329575 -0.127841 0)
(0.168174 0.122499 0)
(-0.0302149 0.0208574 0)
(0.0991164 0.00176047 0)
(0.0288842 0.00482329 0)
(0.0515018 -0.00618344 0)
(0.0535662 -0.0029342 0)
(0.0535678 0.000133006 0)
(0.0490134 0.00118686 0)
(0.044831 0.000753022 0)
(0.0429735 8.8809e-05 0)
(0.0428996 -0.000327007 0)
(0.0433638 -0.00030555 0)
(0.0440512 -0.000443903 0)
(0.0444224 -0.000518132 0)
(0.046136 -0.00111472 0)
(0.0467287 -0.00269419 0)
(0.0562525 -0.00692089 0)
(0.0681367 -0.0205902 0)
(0.112054 -0.0376878 0)
(0.138534 -0.0490306 0)
(0.181357 0.089029 0)
(-0.0994319 0.386131 0)
(-1.13037 0.0956728 0)
(-0.696976 -0.524876 0)
(0.314076 -0.0548456 0)
(0.70063 0.118874 0)
(0.386953 0.0937981 0)
(0.136942 0.0278065 0)
(0.0709432 0.00850281 0)
(0.0675791 0.00463397 0)
(0.0158381 0.00102374 0)
(0.0854228 -0.0012885 0)
(-0.0192272 -0.00663052 0)
(0.152107 -0.0233609 0)
(0.0259824 0.0142376 0)
(-0.308729 0.00542394 0)
(0.110724 0.100074 0)
(-0.159999 0.126119 0)
(-0.205619 -0.182218 0)
(0.728545 -0.624759 0)
(1.28154 -0.159499 0)
(0.641033 0.34524 0)
(-0.104764 0.61886 0)
(-0.321547 -0.345426 0)
(0.290119 -0.198497 0)
(0.0488797 0.225596 0)
(-0.100297 0.0134428 0)
(0.122242 -0.00818433 0)
(0.0644194 0.00561856 0)
(0.0820567 -0.00576078 0)
(0.0828994 -0.00353316 0)
(0.0806695 0.00179889 0)
(0.0737689 0.0039968 0)
(0.0677207 0.00267194 0)
(0.0645401 0.000779139 0)
(0.0637196 -0.000303491 0)
(0.0638111 -0.000417182 0)
(0.0642244 -0.000690637 0)
(0.0640949 -0.000718562 0)
(0.0654063 -0.00164292 0)
(0.0645781 -0.00429049 0)
(0.0717354 -0.0104325 0)
(0.0738266 -0.0293534 0)
(0.0911863 -0.0464613 0)
(0.0752374 -0.0470431 0)
(0.107615 0.107926 0)
(0.0400911 0.650429 0)
(-0.9548 0.138141 0)
(-0.784501 -0.864267 0)
(-0.106178 -0.646667 0)
(0.544356 0.047381 0)
(0.443154 0.201672 0)
(0.206491 0.113615 0)
(0.106431 0.0401556 0)
(0.0929771 0.0139843 0)
(0.0344482 0.00484303 0)
(0.107676 -0.000967378 0)
(-0.013503 -0.0139935 0)
(0.174828 -0.0369362 0)
(-0.0943263 0.0900412 0)
(0.210387 0.154994 0)
(0.0931727 0.208559 0)
(-0.138224 0.166198 0)
(0.353937 -0.458222 0)
(1.5637 -0.99451 0)
(2.09072 -0.0182509 0)
(1.40195 0.610726 0)
(0.00939119 0.916884 0)
(-0.43887 -0.437652 0)
(0.414149 -0.266388 0)
(0.0315947 0.33492 0)
(-0.115278 -0.0278957 0)
(0.123899 -0.0525931 0)
(0.0824161 0.000455511 0)
(0.0987271 -0.00507264 0)
(0.100389 -0.00307 0)
(0.0967417 0.00438314 0)
(0.0889785 0.00716992 0)
(0.0830814 0.0050313 0)
(0.0794822 0.00194559 0)
(0.0780025 -7.4036e-05 0)
(0.0778258 -0.000419165 0)
(0.0780186 -0.000743095 0)
(0.0775135 -0.000697053 0)
(0.078436 -0.00177656 0)
(0.0764256 -0.00466709 0)
(0.0797399 -0.0106694 0)
(0.0722965 -0.0291929 0)
(0.0674727 -0.0414778 0)
(0.0212942 -0.0474003 0)
(0.044986 0.137154 0)
(-0.144155 0.836875 0)
(-0.164114 0.396607 0)
(0.372818 -0.775357 0)
(-0.216664 -0.686297 0)
(0.0369831 -0.0350568 0)
(0.253273 0.218269 0)
(0.17899 0.164155 0)
(0.115775 0.0715864 0)
(0.105873 0.0246698 0)
(0.047765 0.010021 0)
(0.119013 0.00238919 0)
(-0.00840287 -0.00783919 0)
(0.148772 -0.0165802 0)
(-0.166114 -0.0505679 0)
(0.690163 0.0758158 0)
(-0.152858 0.276787 0)
(-0.146539 -0.00412883 0)
(2.28277 -0.751532 0)
(4.2758 -1.22223 0)
(0.735447 -0.0644752 0)
(1.51234 0.57047 0)
(-0.264691 1.61372 0)
(-0.692461 -0.654902 0)
(0.498028 -0.48024 0)
(0.26493 0.456556 0)
(-0.12746 0.00347311 0)
(0.115494 -0.0984668 0)
(0.0855857 -0.00308105 0)
(0.0996998 -0.00528523 0)
(0.103508 -0.00280432 0)
(0.100584 0.00715419 0)
(0.0943467 0.0100095 0)
(0.0901224 0.00710732 0)
(0.0876073 0.00314847 0)
(0.0862179 0.000405842 0)
(0.08578 -0.000366733 0)
(0.0858223 -0.000593991 0)
(0.0852063 -0.000566455 0)
(0.0860414 -0.00170362 0)
(0.0836945 -0.00410965 0)
(0.0843797 -0.00821846 0)
(0.071969 -0.0220332 0)
(0.0527334 -0.0257175 0)
(0.0406703 -0.0396556 0)
(0.0186368 0.112733 0)
(0.091855 0.880517 0)
(0.815386 -0.0951564 0)
(0.545656 -0.569078 0)
(-0.0530169 -0.597069 0)
(-0.127407 -0.146112 0)
(0.0919945 0.165864 0)
(0.113395 0.168109 0)
(0.103668 0.087094 0)
(0.109514 0.0311408 0)
(0.0564628 0.0162873 0)
(0.126172 0.00433417 0)
(-0.00161196 0.00406884 0)
(0.146983 0.00977264 0)
(-0.14835 -0.107332 0)
(0.00412587 0.0147305 0)
(-0.814319 0.343474 0)
(0.851302 -0.756017 0)
(5.54783 -1.55995 0)
(6.86659 -0.917794 0)
(-5.19108 1.16113 0)
(-4.76628 1.03746 0)
(-1.09238 1.71349 0)
(-1.48345 -0.816569 0)
(-0.543814 -0.595759 0)
(0.234242 0.532846 0)
(-0.138581 0.0281461 0)
(0.0914208 -0.128581 0)
(0.081178 -0.00492042 0)
(0.0933725 -0.00620036 0)
(0.0971043 -0.00319529 0)
(0.0953756 0.00806005 0)
(0.0917418 0.0109234 0)
(0.0896758 0.00767391 0)
(0.0884132 0.00349893 0)
(0.0875172 0.000626781 0)
(0.0871989 -0.000353027 0)
(0.0874031 -0.000536579 0)
(0.0869652 -0.000589871 0)
(0.087819 -0.00154292 0)
(0.0854343 -0.00369166 0)
(0.085263 -0.00646799 0)
(0.0738214 -0.0179837 0)
(0.0577005 -0.0292576 0)
(0.124598 -0.0377748 0)
(0.0468758 0.081952 0)
(0.320274 0.753871 0)
(1.52944 -0.171666 0)
(0.837205 -0.358533 0)
(-0.0431795 -0.489742 0)
(-0.172933 -0.136287 0)
(0.0117695 0.129744 0)
(0.0759099 0.157263 0)
(0.0920252 0.0861721 0)
(0.108113 0.0335332 0)
(0.0581994 0.017284 0)
(0.128131 0.00701483 0)
(0.00140786 0.00613936 0)
(0.14459 0.0187022 0)
(-0.130359 -0.0662779 0)
(-0.367988 0.00983812 0)
(-1.02972 0.342918 0)
(2.11945 -1.23499 0)
(8.02284 -1.86073 0)
(8.20018 -0.457905 0)
(-5.72599 1.87294 0)
(-3.6989 1.02603 0)
(-1.05599 1.51883 0)
(-2.38172 -0.777227 0)
(-1.30599 -0.718721 0)
(0.100647 0.508819 0)
(-0.0473161 0.0310821 0)
(0.10144 -0.136751 0)
(0.0795716 -0.00557392 0)
(0.090655 -0.00669681 0)
(0.0940967 -0.00334045 0)
(0.0928197 0.00829636 0)
(0.0903044 0.0111532 0)
(0.0891306 0.00780481 0)
(0.088378 0.00358858 0)
(0.0876981 0.000683248 0)
(0.0874375 -0.000351307 0)
(0.0876946 -0.000528282 0)
(0.0873305 -0.000608223 0)
(0.0881919 -0.00147219 0)
(0.0857959 -0.00354346 0)
(0.0853357 -0.005879 0)
(0.0740339 -0.0168213 0)
(0.0628874 -0.0320888 0)
(0.159485 -0.040235 0)
(0.0778901 0.0776609 0)
(0.275581 0.663216 0)
(1.79078 -0.16874 0)
(0.784189 -0.273217 0)
(-0.0252664 -0.441395 0)
(-0.17936 -0.13826 0)
(-0.0122782 0.117286 0)
(0.0635312 0.152011 0)
(0.0872096 0.0845786 0)
(0.107209 0.0345004 0)
(0.058541 0.0171414 0)
(0.128695 0.0085676 0)
(0.00249271 0.00688668 0)
(0.14318 0.0231458 0)
(-0.120493 -0.0332167 0)
(-0.356668 0.011269 0)
(-0.66324 0.300223 0)
(3.64375 -1.89046 0)
(9.74561 -2.05792 0)
(7.93353 0.303976 0)
(-6.44412 2.47801 0)
(0.633734 0.440215 0)
(-0.501439 1.50169 0)
(-2.518 -0.707433 0)
(-1.64161 -0.948142 0)
(-0.140036 0.442999 0)
(0.112723 0.022647 0)
(0.100572 -0.137916 0)
(0.0777769 -0.00603418 0)
(0.0875473 -0.00720547 0)
(0.0904204 -0.00348522 0)
(0.0896596 0.00845119 0)
(0.0884478 0.0112825 0)
(0.0882447 0.00786561 0)
(0.0880328 0.00364223 0)
(0.0875896 0.000725051 0)
(0.0873935 -0.000353762 0)
(0.0876964 -0.000527352 0)
(0.0874154 -0.00063303 0)
(0.0882831 -0.00139797 0)
(0.0858729 -0.00338509 0)
(0.0850715 -0.00528677 0)
(0.0735703 -0.0158648 0)
(0.0686181 -0.035564 0)
(0.154186 -0.0448666 0)
(0.0606446 0.0906034 0)
(0.00215951 0.568448 0)
(1.31556 -0.190717 0)
(0.718928 -0.199739 0)
(0.0196729 -0.396165 0)
(-0.171855 -0.138082 0)
(-0.0324527 0.105658 0)
(0.0521573 0.146404 0)
(0.0820636 0.0824794 0)
(0.105963 0.035363 0)
(0.0586255 0.0167571 0)
(0.129104 0.0102987 0)
(0.0036805 0.00764466 0)
(0.137969 0.0281334 0)
(-0.115018 -0.00585143 0)
(-0.206097 0.0124938 0)
(1.42578 0.0302411 0)
(4.22609 -2.37422 0)
(8.12414 -2.078 0)
(6.15789 0.982642 0)
(-7.51087 2.92093 0)
(2.65764 -0.151585 0)
(0.0681305 1.72035 0)
(-0.0933605 -0.654423 0)
(-0.325586 -0.995785 0)
(-0.279452 0.384981 0)
(0.211836 0.00244885 0)
(0.0945247 -0.131307 0)
(0.0757867 -0.0063487 0)
(0.0840462 -0.00765163 0)
(0.0860905 -0.00361917 0)
(0.0859102 0.00850496 0)
(0.086187 0.0112891 0)
(0.0870227 0.00784668 0)
(0.0873808 0.00365499 0)
(0.0871967 0.000752347 0)
(0.0870732 -0.000361556 0)
(0.0874169 -0.000533361 0)
(0.08723 -0.000663069 0)
(0.0881023 -0.00132286 0)
(0.0856695 -0.00320892 0)
(0.0845154 -0.00465789 0)
(0.072395 -0.0149313 0)
(0.0664584 -0.038124 0)
(0.0921969 -0.044612 0)
(-0.0199679 0.0992735 0)
(0.0140324 0.508809 0)
(0.952302 -0.240081 0)
(0.57195 -0.14692 0)
(0.0381432 -0.35474 0)
(-0.164823 -0.134626 0)
(-0.0490866 0.0948311 0)
(0.0416942 0.140167 0)
(0.0764442 0.0799059 0)
(0.104029 0.0359594 0)
(0.0582133 0.0162705 0)
(0.129173 0.0119695 0)
(0.00497862 0.00852284 0)
(0.133711 0.0333451 0)
(-0.103034 0.014269 0)
(-0.0431715 0.000564049 0)
(1.12295 -0.304417 0)
(0.969367 -2.41041 0)
(-0.535536 -1.52817 0)
(3.92668 1.4535 0)
(-7.42732 3.24993 0)
(1.80331 -0.675738 0)
(0.222618 1.93198 0)
(1.68889 -0.591693 0)
(0.707799 -0.937393 0)
(-0.190479 0.376518 0)
(0.277213 -0.0178812 0)
(0.085602 -0.119792 0)
(0.0740735 -0.00664615 0)
(0.0804118 -0.00795834 0)
(0.0811982 -0.00370931 0)
(0.0816512 0.00843648 0)
(0.0835633 0.0111638 0)
(0.0854827 0.0077456 0)
(0.0864318 0.00362306 0)
(0.086536 0.000757947 0)
(0.0865155 -0.000376837 0)
(0.0869013 -0.000546491 0)
(0.0867889 -0.000694929 0)
(0.0876392 -0.00124618 0)
(0.0851682 -0.00300632 0)
(0.0836451 -0.00395582 0)
(0.0706642 -0.0136699 0)
(0.0577388 -0.0384369 0)
(0.0383406 -0.0385289 0)
(-0.0642456 0.0931412 0)
(0.241892 0.459933 0)
(1.15431 -0.24968 0)
(0.509216 -0.093568 0)
(0.0556743 -0.318475 0)
(-0.155505 -0.129304 0)
(-0.0621834 0.0848181 0)
(0.0322928 0.133405 0)
(0.0707122 0.0770082 0)
(0.101782 0.0361729 0)
(0.0575998 0.015832 0)
(0.129245 0.0133586 0)
(0.00661896 0.00946481 0)
(0.1355 0.0378115 0)
(-0.082429 0.0305834 0)
(-0.155385 -0.00898261 0)
(0.047826 -0.00171917 0)
(0.0485145 -0.00778915 -1.81893e-32)
(0.0285278 -0.00490999 -1.72504e-31)
(0.022778 -0.00401037 -3.36597e-31)
(0.0024379 0.00124372 0)
(0.0931272 -0.00325328 0)
(0.103568 -0.0113823 0)
(0.07403 -0.00668007 0)
(0.0720049 0.00337302 -8.17905e-31)
(0.0297064 0.0719484 0)
(0.105553 -0.00998016 0)
(0.123157 -0.0106224 0)
(0.0965988 -0.004962 0)
(0.115486 0.0074425 -1.01226e-30)
(0.106548 0.0648928 0)
(0.092706 -0.0144852 0)
(0.107242 -0.00717005 0)
(0.0821572 -0.00218125 0)
(0.106372 0.00456385 4.56172e-31)
(0.0911649 0.0215059 0)
(0.0480553 -0.0071636 0)
(0.0531287 -0.00151239 0)
(0.0363004 0.000342255 0)
(0.0585229 0.00323728 2.22029e-31)
(0.0673777 0.0103139 0)
(-0.231428 -0.11435 0)
(-1.6078 -1.63571 0)
(-5.51103 -2.34334 0)
(-1.05797 2.20687 0)
(-3.18354 3.60249 0)
(0.567551 -2.00381 0)
(0.344826 2.21113 0)
(1.42855 -0.567161 0)
(0.751006 -0.666837 0)
(0.0763689 0.352392 0)
(0.313456 -0.0185167 0)
(0.0604165 -0.0838219 0)
(0.0697684 -0.00786279 0)
(0.0704291 -0.0082285 0)
(0.0675701 -0.00371908 0)
(0.0693814 0.00779075 0)
(0.075481 0.0103774 0)
(0.0804081 0.00720958 0)
(0.0831003 0.00337861 0)
(0.0843728 0.000611053 0)
(0.084922 -0.000454711 0)
(0.0852581 -0.000587124 0)
(0.0850662 -0.000753301 0)
(0.0856522 -0.00101153 0)
(0.0830076 -0.00229922 0)
(0.0807708 -0.00157191 0)
(0.0655419 -0.007804 0)
(0.0352454 -0.0289033 0)
(-0.0706225 -0.023303 0)
(-0.0821171 0.036955 0)
(0.677552 0.169273 0)
(1.55039 -0.13312 0)
(0.41609 0.0601153 0)
(0.050707 -0.232275 0)
(-0.13915 -0.111017 0)
(-0.0887783 0.0594123 0)
(0.00925354 0.113311 0)
(0.0552005 0.068369 0)
(0.095491 0.0350788 0)
(0.0558121 0.0153685 0)
(0.129663 0.0155757 0)
(0.01202 0.0116315 0)
(0.151174 0.0391306 0)
(0.0671354 0.0553841 0)
(0.0688235 0.0396126 0)
(-0.196725 0.288294 0)
(0.0711231 -0.562755 0)
(-1.02892 -2.6838 0)
(-2.56735 0.962329 0)
(0.496916 2.66139 0)
(-0.924812 -0.905344 0)
(-1.84043 1.56382 0)
(-0.332318 -1.27447 0)
(-0.185022 -0.338094 0)
(0.0501641 0.397502 0)
(0.234756 0.0206204 0)
(0.0502725 -0.044235 0)
(0.0677086 -0.00950485 0)
(0.0598519 -0.00668442 0)
(0.0551746 -0.00288749 0)
(0.0574961 0.004938 0)
(0.0651702 0.0069837 0)
(0.0715733 0.00494172 0)
(0.0751675 0.0021717 0)
(0.0765255 1.77339e-05 0)
(0.0766521 -0.000602188 0)
(0.0766111 -0.000617965 0)
(0.0763126 -0.000713904 0)
(0.0768505 -0.000756614 0)
(0.074844 -0.00114141 0)
(0.07471 0.00178397 0)
(0.0669931 0.00516647 0)
(0.0471825 0.0119961 0)
(-0.0468548 0.00586103 0)
(-0.0256828 -0.145621 0)
(0.272986 -0.265714 0)
(0.333955 0.087372 0)
(0.128444 0.248206 0)
(0.0341939 -0.122928 0)
(-0.11482 -0.0792044 0)
(-0.103747 0.0310722 0)
(-0.0146293 0.0775286 0)
(0.0322899 0.0508132 0)
(0.0817219 0.0263602 0)
(0.0471495 0.0151489 0)
(0.125482 0.0129849 0)
(0.0095498 0.0165998 0)
(0.126427 0.0353087 0)
(0.0117461 0.0220434 0)
(-0.0385333 0.0491942 0)
(0.231066 0.172569 0)
(0.408786 -0.542073 0)
(-1.33366 -1.37148 0)
(-2.67617 0.55814 0)
(0.21884 1.79042 0)
(-0.196064 -0.502136 0)
(-1.01077 1.33914 0)
(0.706189 -1.09227 0)
(-0.173787 -0.467665 0)
(0.0171267 0.258374 0)
(0.168373 0.0305306 0)
(0.0383492 -0.0154542 0)
(0.0545939 -0.00594964 0)
(0.0467284 -0.0046411 0)
(0.0432582 -0.00249029 0)
(0.045598 0.00232477 0)
(0.0526223 0.00365476 0)
(0.0584434 0.00260398 0)
(0.061676 0.00103101 0)
(0.0626325 -0.000142828 0)
(0.0623974 -0.000522878 0)
(0.0620709 -0.000544136 0)
(0.0615594 -0.00066058 0)
(0.0618611 -0.000692898 0)
(0.0602217 -0.000836462 0)
(0.0616321 0.00189059 0)
(0.0625012 0.00756666 0)
(0.0633529 0.0202205 0)
(0.0461788 0.0186245 0)
(0.0775599 -0.150722 0)
(-0.00895043 -0.166946 0)
(-0.223713 0.11306 0)
(-0.0107614 0.205361 0)
(0.0287497 -0.0719156 0)
(-0.089617 -0.0502968 0)
(-0.10042 0.0145994 0)
(-0.0289858 0.0464669 0)
(0.0123291 0.0316506 0)
(0.0645486 0.0163569 0)
(0.0336144 0.0113995 0)
(0.115962 0.00983686 0)
(0.0076186 0.0174304 0)
(0.165737 0.0335972 0)
(0.0471133 0.0992335 0)
(-0.24023 0.0211729 0)
(0.231936 0.0443847 0)
(0.278238 -0.251035 0)
(-0.662893 -0.63221 0)
(-2.18206 0.2474 0)
(-0.000134828 1.00335 0)
(0.465749 -0.0173408 0)
(1.77529 0.806966 0)
(0.348162 -1.35402 0)
(-0.277457 -0.291479 0)
(-0.0715891 0.13192 0)
(0.112463 0.0297196 0)
(0.0287442 -0.00530629 0)
(0.0437521 -0.00407852 0)
(0.035542 -0.00312977 0)
(0.0312337 -0.00215541 0)
(0.0318617 0.000257065 0)
(0.0364263 0.00105507 0)
(0.0402842 0.000766624 0)
(0.0423236 0.000215418 0)
(0.0426745 -0.000217673 0)
(0.0421705 -0.000344879 0)
(0.0416217 -0.000354896 0)
(0.0408794 -0.000483667 0)
(0.0406766 -0.000574009 0)
(0.0388998 -0.000812664 0)
(0.0399932 0.000528269 0)
(0.0444622 0.0040415 0)
(0.0561336 0.0129727 0)
(0.0860867 0.0138124 0)
(0.10581 -0.0930185 0)
(-0.255506 -0.0754063 0)
(-0.435868 0.0863058 0)
(0.0300807 0.0417536 0)
(0.0178161 -0.0628037 0)
(-0.0693316 -0.0184002 0)
(-0.0874001 0.00632685 0)
(-0.0338106 0.021694 0)
(-0.00185138 0.0142014 0)
(0.0440107 0.00712311 0)
(0.0164534 0.00591107 0)
(0.0949963 0.00521018 0)
(-0.00406851 0.0072915 0)
(0.188294 0.0100273 0)
(-0.0147062 0.17955 0)
(-0.0293346 0.155212 0)
(0.136934 0.0377402 0)
(0.188051 -0.0628636 0)
(-0.472371 -0.024139 0)
(-1.03917 0.0589681 0)
(0.231843 0.218955 0)
(0.591216 -0.123736 0)
(1.60711 0.160103 0)
(0.699016 -0.0955253 0)
(-0.200276 -0.0426005 0)
(-0.0987715 0.0343467 0)
(0.0703909 0.010679 0)
(0.0150087 -0.000309771 0)
(0.0290104 -0.00135986 0)
(0.0203439 -0.000994652 0)
(0.015554 -0.000768197 0)
(0.0141748 -0.000259277 0)
(0.015189 -6.5671e-05 0)
(0.0161887 -2.96437e-05 0)
(0.0166335 -4.59269e-05 0)
(0.0164842 -7.03114e-05 0)
(0.016032 -7.75071e-05 0)
(0.0155752 -7.44136e-05 0)
(0.0149489 -0.000134643 0)
(0.0144009 -0.000162604 0)
(0.0127662 -0.000360771 0)
(0.0118409 -0.000376176 0)
(0.0132032 -0.000193489 0)
(0.0182979 0.00103091 0)
(0.0470364 0.00392302 0)
(0.0602156 -0.0210061 0)
(-0.160561 0.0670042 0)
(0.00417832 0.0136737 0)
(0.118557 0.00694024 0)
(-0.0248578 -0.0171536 0)
(-0.0429688 0.000310193 0)
(-0.0489348 0.00037676 0)
(-0.0205096 0.00352511 0)
(-0.0057606 0.00170502 0)
(0.020252 0.00129361 0)
(0.00270488 0.000527552 0)
(0.0526246 0.00240074 0)
(-0.00527122 0.00106034 0)
(0.130806 0.00328609 0)
(-0.0466074 0.102415 0)
(0.937126 0.0550562 0)
)
;

boundaryField
{
    AirInlet
    {
        type            fixedValue;
        value           uniform (0.1 0 0);
    }
    WaterInlet
    {
        type            fixedValue;
        value           uniform (0.1 0 0);
    }
    ChannelWall
    {
        type            fixedValue;
        value           uniform (0 0 0);
    }
    Outlet
    {
        type            pressureInletOutletVelocity;
        value           nonuniform List<vector> 
15
(
(0.0911064 0.00226154 0)
(-0.30981 0 0)
(0.210387 0.154994 0)
(0.690163 0.0758158 0)
(0.00412587 0.0147305 0)
(-0.306208 0 0)
(-0.358459 0 0)
(-0.170334 0 0)
(-0.0431715 0.000564049 0)
(-0.128536 -0 0)
(0.0688235 0.0396126 0)
(-0.0359861 0 0)
(-0.238765 0 0)
(-0.0293346 0.155212 0)
(0.937126 0.0550562 0)
)
;
    }
    FrontAndBack
    {
        type            empty;
    }
}


// ************************************************************************* //
