/*--------------------------------*- C++ -*----------------------------------*\
| =========                 |                                                 |
| \\      /  F ield         | OpenFOAM: The Open Source CFD Toolbox           |
|  \\    /   O peration     | Version:  2.3.0                                 |
|   \\  /    A nd           | Web:      www.OpenFOAM.org                      |
|    \\/     M anipulation  |                                                 |
\*---------------------------------------------------------------------------*/
FoamFile
{
    version     2.0;
    format      ascii;
    class       volScalarField;
    location    "2e-06";
    object      alpha.fuel;
}
// * * * * * * * * * * * * * * * * * * * * * * * * * * * * * * * * * * * * * //

dimensions      [0 0 0 0 0 0 0];

internalField   nonuniform List<scalar> 
7500
(
1
1
1
1
1
1
1
1
1
1
1
1
1
1
1
1
1
1
1
1
1
0.26588745
1.0186421e-08
2.8912051e-09
4.5666971e-10
4.3485553e-11
2.6732297e-12
1.114284e-13
3.2704906e-15
6.9799288e-17
1.1139131e-18
1.3615871e-20
1.3011549e-22
9.8926217e-25
6.0752488e-27
3.0536856e-29
1.2710157e-31
4.4262921e-34
1.3017122e-36
3.2598361e-39
7.0041773e-42
1.300096e-44
2.097822e-47
2.9595804e-50
3.669929e-53
4.0195592e-56
3.90635e-59
3.3828708e-62
2.6209518e-65
1.8236169e-68
1.1435855e-71
6.4856657e-75
3.3375264e-78
1.5633872e-81
6.687016e-85
2.6196862e-88
9.4282047e-92
3.1266352e-95
9.5830224e-99
2.7228584e-102
7.1942417e-106
1.7731694e-109
4.0900018e-113
8.8582728e-117
1.8076654e-120
3.4879714e-124
6.3871984e-128
1.1142515e-131
1.859089e-135
2.9786852e-139
4.6022618e-143
6.8865549e-147
1.0023498e-150
1.4254747e-154
1.9897358e-158
1
1
1
1
1
1
1
1
1
1
1
1
1
1
1
1
1
1
1
1
0.93117791
0.28476157
4.6373543e-09
1.2636748e-09
2.0443741e-10
1.9639208e-11
1.1939756e-12
4.8789299e-14
1.4021063e-15
2.9336626e-17
4.5965702e-19
5.5229117e-21
5.1932622e-23
3.8890074e-25
2.3546304e-27
1.167906e-29
4.8009023e-32
1.6524626e-34
4.8064869e-37
1.1912594e-39
2.5346697e-42
4.6615666e-45
7.4566056e-48
1.0433491e-50
1.2837591e-53
1.3957897e-56
1.3471274e-59
1.1590212e-62
8.924814e-66
6.1740194e-69
3.8508154e-72
2.1729014e-75
1.1129111e-78
5.1903852e-82
2.2110995e-85
8.6300444e-89
3.095461e-92
1.0234131e-95
3.1282321e-99
8.8672695e-103
2.3381071e-106
5.7529498e-110
1.3251693e-113
2.8671518e-117
5.846811e-121
1.1277626e-124
2.0651031e-128
3.6036421e-132
6.0162162e-136
9.6482172e-140
1.4925312e-143
2.23671e-147
3.2613952e-151
4.6476746e-155
6.502289e-159
1
1
1
1
1
1
1
1
1
1
1
1
1
1
1
1
1
1
1
0.91751613
0.34181058
0.0094012776
2.9022636e-09
7.4608394e-10
1.0702852e-10
9.5338442e-12
5.5654265e-13
2.2195891e-14
6.2743953e-16
1.2984404e-17
2.0217198e-19
2.4236162e-21
2.2809569e-23
1.7137634e-25
1.0430109e-27
5.2081998e-30
2.1580885e-32
7.495861e-35
2.2023081e-37
5.5180125e-40
1.1877998e-42
2.2114482e-45
3.5830071e-48
5.0804336e-51
6.3370847e-54
6.9871581e-57
6.8403056e-60
5.970762e-63
4.6651937e-66
3.2749737e-69
2.0728929e-72
1.1869774e-75
6.1690034e-79
2.919181e-82
1.2615761e-85
4.9943809e-89
1.8166083e-92
6.0889603e-96
1.8863503e-99
5.4175964e-103
1.4468542e-106
3.6044072e-110
8.4028534e-114
1.8392396e-117
3.7927181e-121
7.394303e-125
1.3679387e-128
2.4104786e-132
4.0616999e-136
6.5710659e-140
1.0249304e-143
1.5478814e-147
2.2733228e-151
3.2613259e-155
4.5908588e-159
1
1
1
1
1
1
1
1
1
1
1
1
1
0.99999999
0.99999997
0.99999993
0.99999994
0.99999997
1
0.86713635
0.016636627
2.2625207e-09
1.210005e-09
3.2649433e-10
5.2026826e-11
5.0371726e-12
3.1190524e-13
1.3009204e-14
3.8137614e-16
8.1352544e-18
1.2994992e-19
1.5925255e-21
1.5285557e-23
1.169747e-25
7.2479844e-28
3.6854327e-30
1.5559722e-32
5.5109687e-35
1.652367e-37
4.2279314e-40
9.2983328e-43
1.7690299e-45
2.9285498e-48
4.2410505e-51
5.3992305e-54
6.0703023e-57
6.0529046e-60
5.3745234e-63
4.2657489e-66
3.0374505e-69
1.9471344e-72
1.1274963e-75
5.9167273e-79
2.8227614e-82
1.2281313e-85
4.8879471e-89
1.7850145e-92
5.9994384e-96
1.8614812e-99
5.348411e-103
1.4274763e-106
3.5504152e-110
8.2561717e-114
1.8010758e-117
3.6987065e-121
7.1761892e-125
1.3203201e-128
2.312471e-132
3.8708894e-136
6.2181631e-140
9.626323e-144
1.4423876e-147
2.1010824e-151
2.988776e-155
4.1706957e-159
1
1
1
1
1
1
1
1
1
1
1
1
1
1
1
0.99999861
0.99999919
1
1
0.98392344
0.30694299
2.3774186e-09
9.8364357e-10
2.3641692e-10
3.598329e-11
3.6133836e-12
2.4649618e-13
1.1583511e-14
3.8162203e-16
9.0277704e-18
1.5734379e-19
2.0700657e-21
2.100913e-23
1.6764808e-25
1.0695896e-27
5.5368437e-30
2.3561448e-32
8.3383482e-35
2.4797111e-37
6.2546123e-40
1.3492839e-42
2.508285e-45
4.0455304e-48
5.6961524e-51
7.0411265e-54
7.6806996e-57
7.4289353e-60
6.3994029e-63
4.9298363e-66
3.4095067e-69
2.1247728e-72
1.1973373e-75
6.1215805e-79
2.8488181e-82
1.2105791e-85
4.7118836e-89
1.6849879e-92
5.5528917e-96
1.6915372e-99
4.7776302e-103
1.2550416e-106
3.076022e-110
7.0568363e-114
1.5204166e-117
3.0869856e-121
5.9273819e-125
1.080282e-128
1.8758652e-132
3.1156998e-136
4.9699517e-140
7.6453133e-144
1.1390308e-147
1.650684e-151
2.3372538e-155
3.247976e-159
1
1
1
1
1
1
1
1
1
1
0.99999999
0.99999999
1
1
1
1
0.99984906
0.99979689
0.9999146
1
0.93995564
0.18952028
1.5155985e-09
6.4117117e-10
1.2031406e-10
1.2308063e-11
7.6920874e-13
3.151999e-14
8.9331546e-16
1.82728e-17
2.7907259e-19
3.2689741e-21
3.0008121e-23
2.1972882e-25
1.3027751e-27
6.3363459e-30
2.5572675e-32
8.6517821e-35
2.47615e-37
6.0441123e-40
1.2675537e-42
2.2991979e-45
3.6291812e-48
5.0129673e-51
6.0909138e-54
6.5412383e-57
6.237037e-60
5.3023577e-63
4.0351549e-66
2.759249e-69
1.7014677e-72
9.4941625e-76
4.8098734e-79
2.2194962e-82
9.3580167e-86
3.6162692e-89
1.2847147e-92
4.208565e-96
1.2751303e-99
3.58416e-103
9.3749135e-107
2.2890335e-110
5.2339637e-114
1.1244214e-117
2.2772827e-121
4.3632714e-125
7.9375234e-129
1.3761308e-132
2.2825263e-136
3.6365277e-140
5.588024e-144
8.3169215e-148
1.2041329e-151
1.7033478e-155
2.3647788e-159
1
1
1
1
1
1
1
1
1
1
0.99999997
0.99999996
0.99999998
1
1
1
1
0.99488426
0.99532208
0.99998545
1
1
0.20629598
9.4628408e-10
1.6772622e-10
1.5281451e-11
8.5911594e-13
3.2980356e-14
9.0935607e-16
1.8603834e-17
2.9057369e-19
3.5558026e-21
3.4831192e-23
2.7762684e-25
1.8224232e-27
9.9418834e-30
4.5404698e-32
1.7471739e-34
5.6986616e-37
1.5845317e-39
3.7768196e-42
7.7583577e-45
1.3805774e-47
2.138608e-50
2.8974395e-53
3.448635e-56
3.6213861e-59
3.3686585e-62
2.7866066e-65
2.0575147e-68
1.3608472e-71
8.0904393e-75
4.3379415e-78
2.1045546e-81
9.2680792e-85
3.7165567e-88
1.3613519e-91
4.5691191e-95
1.4095673e-98
4.0096077e-102
1.0550488e-105
2.5764235e-109
5.8585468e-113
1.2447578e-116
2.4799453e-120
4.6499846e-124
8.2367462e-128
1.3837305e-131
2.2135553e-135
3.3859199e-139
4.9735324e-143
7.0462092e-147
9.6713893e-151
1.29193e-154
1.6873529e-158
1
1
1
1
1
1
1
1
1
1
0.99999991
0.99999979
0.99999995
1
1
1
1
1
0.98201145
0.93205139
0.92566198
0.7109842
0.10767733
1.0631173e-09
2.07152e-10
2.5198826e-11
2.105187e-12
1.2329333e-13
5.0547855e-15
1.463648e-16
3.0512515e-18
4.6852017e-20
5.4192648e-22
4.8204642e-24
3.3592484e-26
1.8647223e-28
8.3688822e-31
3.0776399e-33
9.3870062e-36
2.4009265e-38
5.2016097e-41
9.6337139e-44
1.538133e-46
2.1333619e-49
2.5883765e-52
2.7644829e-55
2.613846e-58
2.1990044e-61
1.6535665e-64
1.1159255e-67
6.7837156e-71
3.7272364e-74
1.8567849e-77
8.4118296e-81
3.4755906e-84
1.3134327e-87
4.5525326e-91
1.4514246e-94
4.268518e-98
1.1613627e-101
2.9319843e-105
6.8894783e-109
1.5114979e-112
3.1062248e-116
5.9995097e-120
1.0928457e-123
1.8841554e-127
3.0860113e-131
4.8201825e-135
7.2082597e-139
1.0362518e-142
1.4380793e-146
1.9348186e-150
2.5347282e-154
3.2477223e-158
1
1
1
1
1
1
1
1
1
0.99999999
1
0.99999907
0.9999878
0.99999614
1
1
1
1
1
0.70680928
0.18581424
0.0023183014
7.7753896e-09
2.1328034e-05
1.2116535e-07
3.7560246e-09
6.7846674e-11
1.3304692e-12
3.2740135e-14
6.9328475e-16
1.1161159e-17
1.3747387e-19
1.3202682e-21
1.004201e-23
6.1300796e-26
3.0394318e-28
1.2374748e-30
4.1786151e-33
1.1811005e-35
2.8187681e-38
5.7270069e-41
9.9844666e-44
1.5050441e-46
1.9758473e-49
2.2746763e-52
2.3111548e-55
2.0846459e-58
1.6781412e-61
1.211317e-64
7.8724623e-68
4.6233008e-71
2.4612731e-74
1.19115e-77
5.2541773e-81
2.1176188e-84
7.8170531e-88
2.6493483e-91
8.2642743e-95
2.3787206e-98
6.3343558e-102
1.564875e-105
3.5968978e-109
7.7154253e-113
1.5493468e-116
2.9223484e-120
5.1953267e-124
8.736961e-128
1.3951147e-131
2.1235464e-135
3.0937079e-139
4.3319702e-143
5.8554238e-147
7.6740687e-151
9.796223e-155
1.2236722e-158
1
1
1
1
1
1
1
1
0.99999999
0.99999999
0.99999999
1
1
0.99968926
0.99977141
1
1
1
1
0.60881289
0.013514537
7.4264013e-09
6.9523139e-09
1.0008593e-06
1.2581887e-07
6.8189636e-10
6.5038691e-11
1.7574714e-12
3.4016009e-14
5.7935337e-16
8.2282796e-18
9.3060735e-20
8.3370239e-22
5.9649472e-24
3.443984e-26
1.6212461e-28
6.2854506e-31
2.0267215e-33
5.4875878e-36
1.2592541e-38
2.4707122e-41
4.1794665e-44
6.1428392e-47
7.9003126e-50
8.947886e-53
8.9755494e-56
8.0135791e-59
6.3958509e-62
4.5805341e-65
2.9534081e-68
1.7195547e-71
9.0654006e-75
4.3387725e-78
1.8899702e-81
7.511796e-85
2.7310944e-88
9.1066934e-92
2.7923855e-95
7.8955073e-99
2.0645219e-102
5.0071346e-106
1.1299017e-109
2.3800482e-113
4.695722e-117
8.7084095e-121
1.5237654e-124
2.5254656e-128
3.9809914e-132
5.9942145e-136
8.6598861e-140
1.2060339e-143
1.6269731e-147
2.1367429e-151
2.7460994e-155
3.4718843e-159
1
1
1
1
1
1
1
1
0.99999999
0.99999997
1
1
1
0.99997108
0.99736392
0.99714648
0.9984738
0.9999429
1
0.43498716
7.5428036e-09
6.7160649e-09
6.8143516e-09
2.7629167e-09
6.2168808e-09
4.4167169e-10
1.749649e-11
5.1016793e-13
1.2266121e-14
2.321655e-16
3.3726207e-18
3.7809846e-20
3.3169459e-22
2.3099724e-24
1.2944901e-26
5.9123416e-29
2.2275202e-31
7.0016328e-34
1.8555256e-36
4.1863432e-39
8.1120577e-42
1.3607954e-44
1.990085e-47
2.5530092e-50
2.8886e-53
2.8962843e-56
2.5842911e-59
2.0598291e-62
1.4716936e-65
9.4561246e-69
5.48116e-72
2.874865e-75
1.368547e-78
5.9308448e-82
2.3470596e-85
8.5084017e-89
2.8346063e-92
8.7078377e-96
2.4751854e-99
6.5336157e-103
1.6076197e-106
3.7017055e-110
8.0090939e-114
1.635185e-117
3.1640787e-121
5.828564e-125
1.0267649e-128
1.7375635e-132
2.8373856e-136
4.4907216e-140
6.9182491e-144
1.0417504e-147
1.539451e-151
2.2413045e-155
3.2271722e-159
1
1
1
1
1
1
1
1
1
0.9999999
0.99999939
0.99999997
1
1
0.99703224
0.99458806
0.99705103
0.99986997
1
0.31302452
6.5556468e-09
6.0820568e-09
5.4831983e-09
2.2856436e-09
1.1164764e-09
9.1865989e-11
4.6509978e-12
1.6933117e-13
4.4621929e-15
8.5993413e-17
1.2382305e-18
1.3620293e-20
1.1676107e-22
7.9407093e-25
4.3531293e-27
1.9515439e-29
7.2482093e-32
2.2564599e-34
5.9497602e-37
1.3411403e-39
2.6056847e-42
4.3954873e-45
6.479613e-48
8.3962308e-51
9.6145105e-54
9.7774292e-57
8.8716349e-60
7.2145179e-63
5.2810687e-66
3.4945609e-69
2.0990908e-72
1.1492461e-75
5.7579462e-79
2.6501043e-82
1.1245726e-85
4.4150142e-89
1.6087097e-92
5.4561999e-96
1.7271392e-99
5.1150991e-103
1.4205902e-106
3.7079512e-110
9.1160863e-114
2.115815e-117
4.6470806e-121
9.68338e-125
1.9196197e-128
3.6310802e-132
6.5747007e-136
1.1434495e-139
1.9170301e-143
3.1100194e-147
4.9016427e-151
7.53614e-155
1.1350461e-158
1
1
1
1
1
1
0.99999999
0.99999999
0.99999999
1
0.99999582
0.99998499
1
1
1
0.99037168
0.99251535
0.99956539
1
0.21666208
5.7604513e-09
5.3777859e-09
4.0017794e-09
1.506844e-09
3.2854546e-10
3.0799773e-11
1.7498299e-12
6.5822146e-14
1.7201669e-15
3.2457809e-17
4.5647809e-19
4.9136284e-21
4.1410749e-23
2.7869361e-25
1.5240972e-27
6.8786527e-30
2.5978411e-32
8.3121448e-35
2.2782154e-37
5.4013858e-40
1.1173246e-42
2.0317099e-45
3.2683423e-48
4.6763797e-51
5.9777438e-54
6.8515225e-57
7.0623306e-60
6.5628234e-63
5.5098005e-66
4.1871185e-69
2.8854993e-72
1.8065169e-75
1.0294122e-78
5.349472e-82
2.5403941e-85
1.1048522e-88
4.410793e-92
1.6202713e-95
5.4906009e-99
1.7209547e-102
5.0032025e-106
1.3530826e-109
3.4144872e-113
8.0656607e-117
1.7894463e-120
3.7417666e-124
7.4010533e-128
1.3899935e-131
2.4885153e-135
4.2642394e-139
7.0232303e-143
1.1165961e-146
1.7211985e-150
2.5839806e-154
3.7952399e-158
1
1
1
1
1
1
0.99999999
0.99999999
0.99999998
0.99999999
1
0.999985
0.99975912
0.99981368
1
0.9814467
0.98761855
0.99985906
1
0.23365596
5.1830537e-09
4.5464625e-09
2.8767414e-09
9.1834368e-10
1.5301315e-10
1.3821848e-11
7.621518e-13
2.773441e-14
7.0492103e-16
1.3080515e-17
1.8375005e-19
2.0154342e-21
1.7729313e-23
1.2800037e-25
7.7304527e-28
3.9632794e-30
1.7427696e-32
6.6160152e-35
2.1766404e-37
6.2203951e-40
1.5469024e-42
3.353663e-45
6.3522646e-48
1.0538983e-50
1.5359677e-53
1.9725849e-56
2.2396589e-59
2.2556728e-62
2.0220098e-65
1.6186829e-68
1.1610588e-71
7.4865643e-75
4.3535899e-78
2.2904985e-81
1.0936919e-84
4.7544053e-88
1.8874789e-91
6.8643966e-95
2.2941123e-98
7.0679224e-102
2.0138569e-105
5.3241358e-109
1.310427e-112
3.013149e-116
6.4956089e-120
1.3176753e-123
2.5248598e-127
4.5878788e-131
7.9376568e-135
1.3130793e-138
2.0857855e-142
3.1954688e-146
4.7427472e-150
6.8505851e-154
9.6743524e-158
1
1
1
1
1
1
0.99999999
0.99999998
0.99999997
0.99999998
1
1
0.9986821
0.99862796
0.99972275
0.99935653
0.98529904
0.99779505
1
0.41267419
4.4821601e-09
3.6167379e-09
1.9876752e-09
5.3884248e-10
7.9089542e-11
6.724728e-12
3.6155556e-13
1.3357978e-14
3.6275206e-16
7.6179932e-18
1.2788747e-19
1.7452261e-21
1.9471795e-23
1.778602e-25
1.3319944e-27
8.2050583e-30
4.1781918e-32
1.7697343e-34
6.2775021e-37
1.8777921e-39
4.7695305e-42
1.0355136e-44
1.9339269e-47
3.1256145e-50
4.3964573e-53
5.4108088e-56
5.8559908e-59
5.5999155e-62
4.7528842e-65
3.5956543e-68
2.4344632e-71
1.4808553e-74
8.1229938e-78
4.0324051e-81
1.8178494e-84
7.467224e-88
2.8041442e-91
9.6581528e-95
3.0608584e-98
8.9546863e-102
2.4262032e-105
6.1080615e-109
1.4336246e-112
3.1478486e-116
6.4888853e-120
1.2603232e-123
2.31514e-127
4.0377247e-131
6.7126524e-135
1.0681589e-138
1.6337946e-142
2.412457e-146
3.4541581e-150
4.8171769e-154
6.5733103e-158
1
1
1
1
1
1
1
1
1
0.99999954
0.9999936
0.9999949
1
1
1
1
0.99970185
0.99321633
1
0.48220205
0.0035946231
1.4160664e-09
1.1507922e-09
2.9662027e-10
4.3512722e-11
4.0650889e-12
2.6940929e-13
1.3487032e-14
5.1511528e-16
1.4900989e-17
3.258383e-19
5.4210417e-21
6.9416986e-23
6.9344366e-25
5.4787904e-27
3.4690692e-29
1.7821684e-31
7.5133316e-34
2.626633e-36
7.687809e-39
1.9004e-41
3.9995464e-44
7.2193063e-47
1.125213e-49
1.5238056e-52
1.8033076e-55
1.8748037e-58
1.7207512e-61
1.4006722e-64
1.0154486e-67
6.5828452e-71
3.8303285e-74
2.0075892e-77
9.5107108e-81
4.0858423e-84
1.596889e-87
5.6959108e-91
1.8599775e-94
5.5779094e-98
1.541103e-101
3.935414e-105
9.3193274e-109
2.0534998e-112
4.2252515e-116
8.1479424e-120
1.4781996e-123
2.5329465e-127
4.1163475e-131
6.3715192e-135
9.4348465e-139
1.3426496e-142
1.8448214e-146
2.4591296e-150
3.1955433e-154
4.0678973e-158
1
1
1
1
1
1
1
1
1
1
0.99995607
0.99997
1
0.9996617
0.64401863
0.41649226
0.58345959
0.8726996
0.99944887
0.91913129
0.049854775
9.0562489e-10
5.8054625e-10
4.1079776e-12
4.0996281e-12
4.0548731e-12
6.1596935e-13
4.6612462e-14
2.1766944e-15
6.8662063e-17
1.5349125e-18
2.5108104e-20
3.0826409e-22
2.9028482e-24
2.1368846e-26
1.2505973e-28
5.9069461e-31
2.2822577e-33
7.300942e-36
1.9549857e-38
4.4252233e-41
8.5430465e-44
1.4179272e-46
2.0379127e-49
2.5527809e-52
2.8031914e-55
2.7124363e-58
2.3236247e-61
1.7697633e-64
1.2030854e-67
7.3261917e-71
4.0099467e-74
1.979206e-77
8.8370441e-81
3.5804262e-84
1.3204256e-87
4.4461999e-91
1.3712583e-94
3.8858742e-98
1.0151127e-101
2.4527512e-105
5.5006272e-109
1.1490833e-112
2.2443688e-116
4.1146299e-120
7.1092544e-124
1.1625537e-127
1.8072354e-131
2.6830209e-135
3.8221829e-139
5.2507001e-143
6.9910613e-147
9.0686314e-151
1.1521159e-154
1.4411422e-158
1
1
1
1
1
1
1
1
0.99999964
0.99999997
1
1
1
0.55088937
0.0042085259
5.0896954e-09
0.048605034
0.28207581
0.9108156
0.98099588
0.18473052
2.9235174e-10
3.2184179e-11
6.5618968e-05
1.9608109e-06
3.9518447e-10
3.1266877e-11
1.1645135e-12
2.6796555e-14
4.7314634e-16
7.1805153e-18
9.2039896e-20
9.4633641e-22
7.6391429e-24
4.8599424e-26
2.4702992e-28
1.0191433e-30
3.4642062e-33
9.8331234e-36
2.3581624e-38
4.8259009e-41
8.498611e-44
1.2969851e-46
1.7255116e-49
2.0114997e-52
2.0640302e-55
1.8720507e-58
1.5067233e-61
1.0802134e-64
6.9239163e-68
3.9823545e-71
2.0626967e-74
9.6557931e-78
4.0996132e-81
1.5843447e-84
5.5933615e-88
1.8105267e-91
5.3936099e-95
1.4845181e-98
3.790344e-102
9.0155106e-106
2.0064594e-109
4.1974159e-113
8.2925264e-117
1.5546052e-120
2.7787937e-124
4.7580643e-128
7.8397046e-132
1.2482896e-135
1.9284418e-139
2.9012391e-143
4.265364e-147
6.1484199e-151
8.7177237e-155
1.2197477e-158
1
1
1
1
1
1
0.99999807
0.99999463
1
1
1
0.99163616
0.6334448
0.018579495
6.2133885e-09
5.0621426e-09
0.051487463
0.12760365
0.22716483
0.92298765
0.89586914
0.19461441
1.6418584e-10
6.6715299e-10
5.8623866e-07
4.6216122e-09
2.8134129e-10
5.131075e-12
5.797273e-14
5.9938472e-16
7.1949157e-18
8.6878096e-20
8.7437939e-22
6.9213289e-24
4.3071815e-26
2.134767e-28
8.5496811e-31
2.8045501e-33
7.6281041e-36
1.7395636e-38
3.3599671e-41
5.5478377e-44
7.8974867e-47
9.767814e-50
1.0571098e-52
1.0075111e-55
8.505943e-59
6.3950355e-62
4.3024722e-65
2.6019208e-68
1.4203581e-71
7.0271391e-75
3.1633476e-78
1.3007983e-81
4.9056698e-85
1.7036654e-88
5.4712724e-92
1.6318182e-95
4.5395807e-99
1.1830054e-102
2.8999711e-106
6.7134144e-110
1.4730092e-113
3.0732169e-117
6.1146195e-121
1.1632519e-124
2.1211297e-128
3.7160726e-132
6.2702096e-136
1.0216019e-139
1.611739e-143
2.4696638e-147
3.6875378e-151
5.384079e-155
7.7157145e-159
1
1
1
1
1
1
0.99999716
1
0.99544571
0.58206418
0.432573
0.2754894
6.8868286e-09
5.7871332e-09
2.9004464e-08
6.0063592e-09
5.0621432e-09
0.17815934
0.044104451
0.37396689
0.95802302
0.957483
0.62198177
0.0055511691
1.3650051e-09
1.3331888e-09
5.6522405e-11
1.3774313e-12
3.2086882e-14
6.8590497e-16
1.1402466e-17
1.4003462e-19
1.2799767e-21
8.8946367e-24
4.8051593e-26
2.0602717e-28
7.1431368e-31
2.0364254e-33
4.8454926e-36
9.7504406e-39
1.6786275e-41
2.4975446e-44
3.2397887e-47
3.6922677e-50
3.7219414e-53
3.338508e-56
2.679189e-59
1.9333261e-62
1.2604349e-65
7.4583087e-69
4.0236518e-72
1.9879176e-75
9.0342285e-79
3.7928598e-82
1.4770604e-85
5.3555571e-89
1.8138386e-92
5.7537915e-96
1.7131958e-99
4.7961287e-103
1.2641539e-106
3.1409839e-110
7.3659843e-114
1.632716e-117
3.4263926e-121
6.8215594e-125
1.2914442e-128
2.3312536e-132
4.0248016e-136
6.6679159e-140
1.0638769e-143
1.6410158e-147
2.4570244e-151
3.5858577e-155
5.1230405e-159
1
1
1
1
1
1
1
1
0.53704042
6.4676644e-09
5.0717876e-09
5.0717876e-09
6.9767827e-09
5.7987869e-09
3.3175599e-06
5.7985679e-09
5.0621432e-09
0.092853336
0.64230213
0.17743895
0.85297406
0.95802302
0.29472503
0.0018916985
9.8874088e-10
6.1313457e-10
4.5885438e-11
1.8795786e-12
5.0170719e-14
9.2689682e-16
1.2336253e-17
1.2205942e-19
9.2114392e-22
5.4188504e-24
2.533529e-26
9.5838654e-29
2.9828894e-31
7.7607335e-34
1.713415e-36
3.2562748e-39
5.4004076e-42
7.9199869e-45
1.040229e-47
1.238025e-50
1.3483826e-53
1.3533753e-56
1.2561738e-59
1.0783361e-62
8.5417457e-66
6.2228179e-69
4.1559941e-72
2.5383281e-75
1.415771e-78
7.2083899e-82
3.3518613e-85
1.4250675e-88
5.5489617e-92
1.9829445e-95
6.5186489e-99
1.976426e-102
5.5423171e-106
1.4417001e-109
3.4896601e-113
7.8855449e-117
1.669164e-120
3.321433e-124
6.2361035e-128
1.1089848e-131
1.8753601e-135
3.0280942e-139
4.6882529e-143
6.990174e-147
1.0081301e-150
1.4126784e-154
1.93216e-158
1
1
1
1
1
0.7459046
0.6058309
0.47445868
0.044570136
0.0010006086
5.809644e-09
5.236555e-09
6.0223579e-09
6.5855377e-09
2.9767196e-06
0.00019427346
5.112483e-09
0.0040701822
0.33586008
0.51903865
0.48830645
0.23111215
1.9611394e-09
4.7231699e-05
5.642915e-07
3.9170739e-10
2.8408213e-11
1.0679942e-12
2.570382e-14
4.2738759e-16
5.1435687e-18
4.6346824e-20
3.2115783e-22
1.7510215e-24
7.669766e-27
2.7529953e-29
8.2566394e-32
2.1094494e-34
4.6799453e-37
9.1847739e-40
1.6212805e-42
2.6070488e-45
3.8467263e-48
5.2156839e-51
6.4793693e-54
7.3383255e-57
7.5399202e-60
7.002296e-63
5.8654915e-66
4.4286799e-69
3.0155035e-72
1.8540717e-75
1.0312964e-78
5.2011831e-82
2.3843015e-85
9.9611896e-89
3.8032403e-92
1.3308511e-95
4.2806805e-99
1.2694373e-102
3.4815028e-106
8.8584784e-110
2.0980227e-113
4.6407476e-117
9.6207895e-121
1.8760757e-124
3.4540987e-128
6.0276621e-132
1.0010017e-135
1.5885098e-139
2.4191549e-143
3.5510224e-147
5.046593e-151
6.9753669e-155
9.4200964e-159
1
1
1
1
0.94228389
0.098442759
4.1869686e-09
3.7715609e-09
3.7715609e-09
3.7715611e-09
9.465069e-07
6.2178096e-09
0.0034892913
0.0037373059
1.6890979e-08
0.0041580441
0.0053960977
0.00032137179
9.7742367e-09
0.28159265
0.07588561
1.8541812e-09
1.3257594e-09
1.6512501e-09
2.1556726e-08
2.7374387e-10
1.1765334e-11
3.9186109e-13
8.6380299e-15
1.3317593e-16
1.5021773e-18
1.2842266e-20
8.5859013e-23
4.6319502e-25
2.0858183e-27
8.1284242e-30
2.8342186e-32
9.0348568e-35
2.6432209e-37
7.024234e-40
1.6705509e-42
3.51271e-45
6.4843661e-48
1.0480056e-50
1.4833618e-53
1.8424541e-56
2.0141942e-59
1.9446837e-62
1.6642059e-65
1.2669463e-68
8.6112829e-72
5.2440888e-75
2.8712009e-78
1.418123e-81
6.3395486e-85
2.573433e-88
9.5165654e-92
3.2163122e-95
9.9666267e-99
2.8409515e-102
7.4737633e-106
1.8206972e-109
4.1215282e-113
8.7004857e-117
1.7190364e-120
3.1910146e-124
5.5869916e-128
9.263947e-132
1.4608535e-135
2.2003569e-139
3.1797698e-143
4.4290234e-147
5.9739655e-151
7.8403787e-155
1.0060877e-158
1
0.9999999
1
1
0.48284134
0.019928589
5.7738904e-09
7.9544825e-09
5.6351792e-09
4.0121309e-09
3.7712853e-09
0.0034397597
0.0073001575
0.0073001572
3.4695523e-05
1.9105286e-05
0.00060254711
0.00013270864
7.1005281e-08
8.0482024e-09
7.3539965e-09
0.0012666468
0.00018079396
1.4354244e-09
1.2061551e-09
7.5729979e-11
3.8534034e-12
1.2099773e-13
2.5500591e-15
3.8779664e-17
4.5259197e-19
4.3021909e-21
3.5144096e-23
2.5502299e-25
1.6490424e-27
9.3417209e-30
4.5475328e-32
1.879427e-34
6.5661252e-37
1.9410288e-39
4.8733575e-42
1.0444722e-44
1.9214857e-47
3.0511512e-50
4.2045533e-53
5.0540599e-56
5.3252617e-59
4.9410542e-62
4.054758e-65
2.9550625e-68
1.9201171e-71
1.1165451e-74
5.8314683e-78
2.7450306e-81
1.1685817e-84
4.5139815e-88
1.5873672e-91
5.0983803e-95
1.5005364e-98
4.0602659e-102
1.013471e-105
2.3415448e-109
5.0251862e-113
1.0053821e-116
1.8821919e-120
3.3100519e-124
5.4902644e-128
8.6249698e-132
1.2888955e-135
1.8405025e-139
2.5231865e-143
3.3370605e-147
4.2790707e-151
5.347386e-155
6.546805e-159
1
0.99999709
0.99403843
0.74576747
0.11914133
3.6113251e-09
4.6884439e-09
4.7206793e-09
6.3206579e-09
5.0834378e-09
4.3353429e-09
0.0048515271
0.00066154978
0.0016986121
0.0055285661
0.0063374707
2.292023e-08
1.4214061e-08
2.8827594e-07
8.0039252e-09
6.8732464e-09
0.0001354267
9.2772652e-05
1.3040495e-06
4.4468671e-10
4.9796644e-11
2.561086e-12
8.0336543e-14
1.8060306e-15
3.1875343e-17
4.5939731e-19
5.4936426e-21
5.5014502e-23
4.6318678e-25
3.2738567e-27
1.9355828e-29
9.550864e-32
3.9356854e-34
1.3587311e-36
3.9491945e-39
9.719709e-42
2.038022e-44
3.6627131e-47
5.6750718e-50
7.6229686e-53
8.9234692e-56
9.1482431e-59
8.2517674e-62
6.5774546e-65
4.6522674e-68
2.9313866e-71
1.6516309e-74
8.3512425e-78
3.8027952e-81
1.5647491e-84
5.8374661e-88
1.9809469e-91
6.1350007e-95
1.7397172e-98
4.532199e-102
1.0883672e-105
2.4176015e-109
4.9853019e-113
9.5787692e-117
1.7215707e-120
2.9060707e-124
4.627222e-128
6.9814557e-132
1.0029739e-135
1.3791216e-139
1.8251466e-143
2.3386517e-147
2.9199355e-151
3.5766096e-155
4.3287141e-159
1
1
0.27076212
1.5317351e-09
4.5556974e-10
1.8747649e-09
2.4998837e-09
0.00016232188
0.002666538
0.0028931747
0.002507632
2.906242e-09
2.7156844e-09
2.1165177e-09
0.018341295
0.043335977
0.023561739
1.3384536e-08
1.2563746e-08
9.6808157e-09
7.1001449e-09
4.4509617e-09
4.0451193e-09
5.5399304e-07
1.6887028e-08
4.2654135e-10
9.3487585e-12
1.9184342e-13
3.5796482e-15
5.865736e-17
8.4585687e-19
1.0710093e-20
1.1621422e-22
1.050611e-24
7.7805654e-27
4.6979784e-29
2.3194057e-31
9.4238633e-34
3.1760505e-36
8.9511914e-39
2.1263189e-41
4.2889568e-44
7.3969051e-47
1.0977496e-49
1.4102192e-52
1.5768473e-55
1.5425405e-58
1.3264949e-61
1.0072734e-64
6.7826912e-68
4.0664493e-71
2.1789801e-74
1.0474085e-77
4.5326448e-81
1.7720184e-84
6.2798113e-88
2.0241972e-91
5.9545705e-95
1.6040341e-98
3.9704587e-102
9.0629514e-106
1.914673e-109
3.7582473e-113
6.8819232e-117
1.1807577e-120
1.9071607e-124
2.9149482e-128
4.2399915e-132
5.9065437e-136
7.9355399e-140
1.0361661e-143
1.3257749e-147
1.6764163e-151
2.1123026e-155
2.6719027e-159
1
0.42057699
2.4570263e-09
7.8398136e-10
4.5571441e-10
1.7618599e-05
4.1808037e-06
1.281054e-05
0.0010862916
0.0046462863
0.0046469844
0.00027260433
0.0014022381
3.8608823e-05
2.4912187e-09
0.0028600482
0.0026024092
0.00021160802
9.5873274e-09
9.1055294e-09
6.8214716e-09
4.6640434e-09
3.5437598e-09
2.7249378e-09
3.4448061e-09
1.5395027e-10
5.0795635e-12
1.3832698e-13
3.2278629e-15
6.6882415e-17
1.2064328e-18
1.8006535e-20
2.1480055e-22
2.0261685e-24
1.5162721e-26
9.0836811e-29
4.403321e-31
1.7457504e-33
5.7180916e-36
1.5618122e-38
3.5876762e-41
6.9852647e-44
1.1609929e-46
1.6580244e-49
2.0468277e-52
2.1964388e-55
2.0594538e-58
1.6954267e-61
1.231035e-64
7.9174697e-68
4.5289134e-71
2.3130387e-74
1.0587192e-77
4.358815e-81
1.6199249e-84
5.4537276e-88
1.6691649e-91
4.660894e-95
1.1918074e-98
2.8014802e-102
6.0786053e-106
1.2229401e-109
2.2927698e-113
4.0283737e-117
6.6764026e-121
1.051641e-124
1.5879684e-128
2.320638e-132
3.315114e-136
4.6736821e-140
6.5548372e-144
9.1961323e-148
1.2941136e-151
1.8274763e-155
2.5874043e-159
0.99101763
0.13086589
0.0022936507
1.9883334e-09
1.8085799e-05
3.0400683e-05
3.056594e-05
1.2180458e-05
9.2006085e-10
9.2027175e-10
9.4854116e-10
9.4863171e-10
0.0038427616
0.0012353504
2.0228665e-06
0.0010667964
5.08295e-09
1.7475735e-05
1.2782277e-06
5.5361856e-09
6.2393999e-09
4.8369335e-09
3.0914908e-09
2.2630341e-09
9.5829244e-10
6.503993e-11
3.0105733e-12
1.1619399e-13
3.8880509e-15
1.0563933e-16
2.2019496e-18
3.4653696e-20
4.1454347e-22
3.82391e-24
2.7629475e-26
1.5871843e-28
7.3476195e-31
2.7746162e-33
8.6401436e-36
2.2405003e-38
4.8809478e-41
9.0046877e-44
1.4170958e-46
1.915086e-49
2.2361247e-52
2.2687195e-55
2.0106045e-58
1.5641086e-61
1.0730163e-64
6.5199037e-68
3.5235392e-71
1.700428e-74
7.3564468e-78
2.8639937e-81
1.0072433e-84
3.212575e-88
9.3304767e-92
2.478532e-95
6.0512068e-99
1.3654212e-102
2.866204e-106
5.6407359e-110
1.0503479e-113
1.8699966e-117
3.2187917e-121
5.4134609e-125
8.9705103e-129
1.4717147e-132
2.3931246e-136
3.8503561e-140
6.1118288e-144
9.546079e-148
1.464795e-151
2.2076771e-155
3.2715754e-159
0.35887088
6.0621476e-08
0.0008352097
1.1155238e-05
5.1368741e-08
7.0224937e-10
1.7521808e-06
1.9672878e-07
8.4207458e-09
2.6666487e-07
4.1870411e-05
1.5748959e-09
0.0011514602
0.00095875093
4.2048549e-09
0.057280305
4.2546339e-09
4.0305244e-09
4.0286852e-09
5.0509626e-09
5.7039778e-09
4.6734948e-09
2.6752324e-09
1.993516e-09
4.4706933e-10
4.0049346e-11
2.7698579e-12
1.5521993e-13
6.4456158e-15
1.9078421e-16
4.0512037e-18
6.3023027e-20
7.3476851e-22
6.5555233e-24
4.5590683e-26
2.5117128e-28
1.1118596e-30
4.0046028e-33
1.1866992e-35
2.9223228e-38
6.0342987e-41
1.0533528e-43
1.5660004e-46
1.9963286e-49
2.1958965e-52
2.0962704e-55
1.7461519e-58
1.275598e-61
8.2114644e-65
4.6793558e-68
2.3709832e-71
1.0728377e-74
4.3541086e-78
1.5921631e-81
5.2711743e-85
1.5886221e-88
4.3861982e-92
1.1180225e-95
2.6558886e-99
5.9474022e-103
1.2719465e-106
2.6327865e-110
5.3337353e-114
1.0645802e-117
2.0952966e-121
4.0516748e-125
7.6533564e-129
1.404569e-132
2.4950679e-136
4.2828139e-140
7.104529e-144
1.1406938e-147
1.7771752e-151
2.6953975e-155
3.9943391e-159
0.10927251
6.1501078e-08
0.0067851594
0.00017074468
2.9555085e-10
6.8465049e-10
1.8125114e-10
1.1129468e-09
2.0647031e-09
9.6897889e-08
0.00011192061
6.206996e-06
9.2173396e-10
2.1410383e-09
0.0012546804
0.00080853959
0.1369116
0.0052863908
0.02668277
3.7258617e-09
3.6444979e-09
4.2708784e-09
2.3146522e-09
1.5197986e-09
3.1409593e-10
4.2507357e-11
4.185696e-12
2.7310162e-13
1.1703364e-14
3.3989504e-16
6.9360797e-18
1.0269717e-19
1.1336369e-21
9.5458139e-24
6.2523922e-26
3.239384e-28
1.3471043e-30
4.5543794e-33
1.2661266e-35
2.9237835e-38
5.6596306e-41
9.2593824e-44
1.2899753e-46
1.5408677e-49
1.5881046e-52
1.4205956e-55
1.1089844e-58
7.5945895e-62
4.5854562e-65
2.4530208e-68
1.1685164e-71
4.9829531e-75
1.9134979e-78
6.6633388e-82
2.1224196e-85
6.2516828e-89
1.7262577e-92
4.5396265e-96
1.1551105e-99
2.8788249e-103
7.0633361e-107
1.7015727e-110
3.993756e-114
9.0521717e-118
1.9671708e-121
4.0805069e-125
8.0643357e-129
1.5187727e-132
2.7302542e-136
4.6972172e-140
7.7593951e-144
1.235307e-147
1.902853e-151
2.8479117e-155
4.1590493e-159
2.7808913e-10
0.0011376747
0.0067850962
1.0637586e-09
8.4675123e-10
1.6302285e-09
2.2941524e-09
4.3337804e-09
3.3203823e-09
1.649203e-08
9.2120809e-10
9.2140809e-10
9.2087011e-10
0.0077477555
0.012601575
0.0027592341
0.035045523
0.19576534
0.19893806
0.19711672
0.0065601074
2.348005e-09
1.9636989e-09
1.328675e-09
4.4153565e-10
8.7158929e-11
9.5431052e-12
6.1217302e-13
2.4699586e-14
6.6431005e-16
1.2460929e-17
1.6893269e-19
1.7036103e-21
1.3087494e-23
7.8141295e-26
3.6889038e-28
1.3975781e-30
4.3052141e-33
1.0909032e-35
2.2974672e-38
4.0591729e-41
6.0677738e-44
7.7337289e-47
8.464845e-50
8.0096511e-53
6.5934714e-56
4.7509356e-59
3.0149375e-62
1.6960132e-65
8.5191959e-69
3.8546883e-72
1.58856e-75
6.047612e-79
2.1639084e-82
7.4144506e-86
2.4716522e-89
8.0802354e-93
2.5851616e-96
8.0184402e-100
2.3834124e-103
6.7232102e-107
1.7883175e-110
4.4711856e-114
1.050019e-117
2.3183939e-121
4.8227282e-125
9.4782104e-129
1.7656619e-132
3.12895e-136
5.2949811e-140
8.5910623e-144
1.3419897e-147
2.0268024e-151
2.9724277e-155
4.2515386e-159
3.9603011e-05
0.0028911047
0.0014447922
0.0036878856
8.5206162e-10
2.2308426e-09
3.1269327e-09
2.4921437e-09
2.1833254e-08
2.5147712e-08
2.3337615e-09
2.3678683e-09
9.2087406e-10
0.0094692377
1.5293937e-09
0.00052101503
0.00038314184
0.19893698
0.19893805
0.10401454
0.0044838401
2.3303125e-09
1.6501739e-09
1.4526358e-09
7.3054665e-10
1.6421452e-10
1.8230213e-11
1.1365114e-12
4.3654572e-14
1.1035962e-15
1.9282076e-17
2.4180767e-19
2.2432528e-21