/*--------------------------------*- C++ -*----------------------------------*\
| =========                 |                                                 |
| \\      /  F ield         | OpenFOAM: The Open Source CFD Toolbox           |
|  \\    /   O peration     | Version:  2.3.0                                 |
|   \\  /    A nd           | Web:      www.OpenFOAM.org                      |
|    \\/     M anipulation  |                                                 |
\*---------------------------------------------------------------------------*/
FoamFile
{
    version     2.0;
    format      ascii;
    class       volScalarField;
    location    "2e-06";
    object      k;
}
// * * * * * * * * * * * * * * * * * * * * * * * * * * * * * * * * * * * * * //

dimensions      [0 2 -2 0 0 0 0];

internalField   nonuniform List<scalar> 
7500
(
1.0042623e-05
1.0368362e-05
1.0826977e-05
1.1362195e-05
1.3026799e-05
1.3870082e-05
1.5700953e-05
1.7049686e-05
1.8333147e-05
1.8421167e-05
1.9319409e-05
2.1549102e-05
2.4369945e-05
3.4431122e-05
9.6002023e-05
0.00032332326
0.0015334259
0.0075324395
0.038780255
0.19105747
0.67114561
0.91933933
0.61038121
0.1141004
0.013880092
0.0015022015
0.00021182792
4.4672726e-05
1.2018673e-05
3.7140814e-06
1.2708912e-06
4.7293836e-07
1.8909905e-07
8.0517331e-08
3.6264122e-08
1.7187639e-08
8.5391997e-09
4.434238e-09
2.4012187e-09
1.3790338e-09
8.1018013e-10
4.945943e-10
3.1373977e-10
2.0669951e-10
1.4135033e-10
1.0024802e-10
7.3649041e-11
5.5963254e-11
4.3899502e-11
3.5471499e-11
2.9451476e-11
2.506287e-11
2.1803513e-11
1.9341708e-11
1.7453897e-11
1.5986445e-11
1.4831868e-11
1.3913634e-11
1.3176415e-11
1.2579571e-11
1.2092888e-11
1.1693594e-11
1.1364358e-11
1.1091848e-11
1.0865727e-11
1.0677911e-11
1.052205e-11
1.0393135e-11
1.0287203e-11
1.0201138e-11
1.0132501e-11
1.0079426e-11
1.0040463e-11
1.0016095e-11
1.0002519e-11
1.0016484e-05
1.0203577e-05
1.0842835e-05
1.1297614e-05
1.3479287e-05
1.3889685e-05
1.5417458e-05
1.6102099e-05
1.7503916e-05
1.816567e-05
1.9612046e-05
2.2643889e-05
2.7933242e-05
4.1035628e-05
9.2757164e-05
0.0003380905
0.0017051388
0.009909258
0.057996784
0.34228108
1.5796839
2.1854882
1.1801035
0.18560915
0.018804361
0.0016922104
0.00021127419
4.3319771e-05
1.1668851e-05
3.6198955e-06
1.2431144e-06
4.6410239e-07
1.8611284e-07
7.9459481e-08
3.5876416e-08
1.7042815e-08
8.485159e-09
4.4147766e-09
2.3949604e-09
1.3776805e-09
8.1056795e-10
4.9546747e-10
3.1463982e-10
2.0748101e-10
1.4198607e-10
1.0075128e-10
7.4043534e-11
5.6272202e-11
4.4142384e-11
3.5663638e-11
2.9604586e-11
2.5185791e-11
2.1902898e-11
1.9422577e-11
1.7520057e-11
1.6040808e-11
1.487668e-11
1.3950647e-11
1.3207001e-11
1.2604831e-11
1.2113703e-11
1.1710685e-11
1.1378316e-11
1.1103162e-11
1.0874806e-11
1.0685102e-11
1.0527649e-11
1.0397396e-11
1.0290353e-11
1.020338e-11
1.0134025e-11
1.0080414e-11
1.0041057e-11
1.0016627e-11
1.0002469e-11
1.0018025e-05
1.017095e-05
1.0839553e-05
1.1325806e-05
1.3586196e-05
1.4198452e-05
1.5587015e-05
1.6992986e-05
1.9439207e-05
2.178814e-05
2.6558549e-05
2.7793992e-05
4.1430391e-05
8.6628737e-05
0.00017531662
0.00082974809
0.0036317137
0.02388246
0.13689777
0.68404167
3.4067201
3.6250798
1.0826883
0.13821001
0.014643099
0.0015804906
0.00023645081
5.1766698e-05
1.4121979e-05
4.3982877e-06
1.513929e-06
5.6604877e-07
2.2718765e-07
9.7023646e-08
4.3795069e-08
2.078689e-08
1.0333831e-08
5.364733e-09
2.9014733e-09
1.6627048e-09
9.7347428e-10
5.9150178e-10
3.7298346e-10
2.4396652e-10
1.6544436e-10
1.1623918e-10
8.4530214e-11
6.354338e-11
4.9297095e-11
3.9393503e-11
3.2354275e-11
2.7247188e-11
2.3471466e-11
2.0631752e-11
1.8462632e-11
1.6782462e-11
1.5464693e-11
1.4419601e-11
1.3582582e-11
1.2906389e-11
1.2356017e-11
1.1905189e-11
1.1533967e-11
1.1227061e-11
1.0972648e-11
1.076151e-11
1.0586416e-11
1.0441676e-11
1.03228e-11
1.0226256e-11
1.0149292e-11
1.0089805e-11
1.0046128e-11
1.0019044e-11
1.0003057e-11
1.0028999e-05
1.0356773e-05
1.1708755e-05
1.2943624e-05
1.7894454e-05
1.8862837e-05
2.034642e-05
2.399091e-05
3.454745e-05
4.029123e-05
4.7689711e-05
6.7712019e-05
8.1748852e-05
0.00011936425
0.00023340002
0.00068948543
0.0031858887
0.014881805
0.11358037
1.7866198
10.191389
6.6076536
1.3051919
0.18044877
0.019589764
0.0020168365
0.00028359706
6.0840361e-05
1.6592941e-05
5.1786949e-06
1.7856408e-06
6.6848156e-07
2.6852485e-07
1.1472756e-07
5.1787839e-08
2.4570355e-08
1.2203532e-08
6.3259607e-09
3.4140321e-09
1.9510397e-09
1.1381134e-09
6.8841267e-10
4.3173997e-10
2.8061606e-10
1.8893607e-10
1.3169503e-10
9.495507e-11
7.074224e-11
5.4379104e-11
4.3055271e-11
3.5042642e-11
2.925468e-11
2.4993388e-11
2.1800998e-11
1.9371298e-11
1.7495497e-11
1.6028677e-11
1.4868477e-11
1.3941466e-11
1.3194133e-11
1.2586972e-11
1.2090418e-11
1.1682109e-11
1.1344946e-11
1.106574e-11
1.0834229e-11
1.0642387e-11
1.0483904e-11
1.0353812e-11
1.0248213e-11
1.0164069e-11
1.0099066e-11
1.0051339e-11
1.0021791e-11
1.0003901e-11
1.0073912e-05
1.2085851e-05
1.4988346e-05
2.7335382e-05
4.6144e-05
5.4593721e-05
7.1587484e-05
9.4539749e-05
0.00015796755
0.00019537217
0.00026500037
0.00037617658
0.00050575302
0.00067120249
0.0010272361
0.00244702
0.0088420511
0.033907076
0.12043873
0.98105541
8.6079249
25.335447
9.5044525
1.0441182
0.078239242
0.0048524741
0.00041281414
7.4063673e-05
1.9871356e-05
6.2196206e-06
2.1516267e-06
8.0770896e-07
3.2517991e-07
1.3917959e-07
6.2906724e-08
2.9868936e-08
1.4838299e-08
7.6882983e-09
4.1450555e-09
2.3214967e-09
1.3486916e-09
8.1212788e-10
5.0657053e-10
3.2715781e-10
2.1866851e-10
1.5118288e-10
1.0804512e-10
7.9741786e-11
6.0703354e-11
4.7591126e-11
3.8357574e-11
3.1719127e-11
2.6853902e-11
2.3224771e-11
2.0473774e-11
1.8357779e-11
1.6708706e-11
1.5408304e-11
1.4372084e-11
1.3538715e-11
1.2863086e-11
1.2311561e-11
1.1858784e-11
1.1485426e-11
1.1176623e-11
1.092084e-11
1.0709077e-11
1.0534273e-11
1.039088e-11
1.0274553e-11
1.0181908e-11
1.0110367e-11
1.0057851e-11
1.0025395e-11
1.0005098e-11
1.0896408e-05
1.6392008e-05
3.2669814e-05
8.2181758e-05
0.00014056531
0.00023649205
0.00030932764
0.00057766156
0.00085759645
0.0010232845
0.0015362884
0.0020912732
0.0024153464
0.0028463564
0.0039488808
0.0094842613
0.043433888
0.19486916
0.41744544
0.89711856
4.157524
10.480288
8.190719
1.2229453
0.092755057
0.0055469036
0.00046185878
8.351224e-05
2.2552699e-05
7.0884762e-06
2.460494e-06
9.2628496e-07
3.7381228e-07
1.6031328e-07
7.2574551e-08
3.4500402e-08
1.7152007e-08
8.8894437e-09
4.7912417e-09
2.6806627e-09
1.554819e-09
9.3400682e-10
5.807148e-10
3.7351004e-10
2.4841501e-10
1.7075843e-10
1.2124082e-10
8.8842714e-11
6.7117267e-11
5.2203696e-11
4.1737398e-11
3.4238446e-11
2.8761057e-11
2.468849e-11
2.1610739e-11
1.925006e-11
1.7414982e-11
1.5971195e-11
1.4823018e-11
1.39012e-11
1.3154957e-11
1.2546529e-11
1.2047529e-11
1.1636372e-11
1.1296501e-11
1.1015096e-11
1.0782175e-11
1.0589922e-11
1.0432207e-11
1.0304237e-11
1.0202285e-11
1.0123523e-11
1.0065666e-11
1.0029949e-11
1.0006738e-11
1.4300398e-05
7.939774e-05
0.00012024705
0.00015461138
0.00031547231
0.00058144872
0.00091493852
0.0018349561
0.0021926493
0.0031594597
0.005051603
0.0065306806
0.0070847521
0.0082947705
0.011142947
0.026093786
0.12232535
0.76195568
1.6677066
2.0024562
3.0282817
6.4546638
4.8100966
1.0654163
0.091768957
0.0057322944
0.00049481235
9.0960056e-05
2.4724694e-05
7.8068305e-06
2.7200766e-06
1.0272794e-06
4.1569809e-07
1.786886e-07
8.104959e-08
3.858949e-08
1.9207551e-08
9.9624147e-09
5.3712251e-09
3.0045671e-09
1.7413623e-09
1.0446229e-09
6.4816035e-10
4.1574577e-10
2.7555039e-10
1.8862649e-10
1.3328711e-10
9.7148614e-11
7.2967337e-11
5.6407204e-11
4.4814396e-11
3.6529585e-11
3.0493643e-11
2.6016933e-11
2.2641763e-11
2.0058668e-11
1.8054747e-11
1.6480975e-11
1.5231426e-11
1.4229608e-11
1.3419552e-11
1.2759735e-11
1.221901e-11
1.1773739e-11
1.1405826e-11
1.110129e-11
1.0849256e-11
1.064123e-11
1.0470557e-11
1.0332043e-11
1.0221657e-11
1.013635e-11
1.0073672e-11
1.0034999e-11
1.0008745e-11
1.6917963e-05
5.7419642e-05
7.0289109e-05
9.968545e-05
0.00028515618
0.00040589024
0.00064981267
0.001005985
0.0025494267
0.0060608146
0.0082452955
0.013177477
0.01393547
0.016235937
0.023563991
0.051992429
0.21586278
1.3156169
3.9546575
4.4547806
4.6041532
6.5882471
6.607556
1.3651726
0.10054149
0.0059872951
0.00051540907
9.6365588e-05
2.6425142e-05
8.3869926e-06
2.9341928e-06
1.1119804e-06
4.5130763e-07
1.9448953e-07
8.8408412e-08
4.216995e-08
2.1020643e-08
1.0914926e-08
5.889006e-09
3.2951649e-09
1.9094422e-09
1.1446571e-09
7.0934249e-10
4.5415612e-10
3.0027729e-10
2.0493293e-10
1.4429199e-10
1.0474128e-10
7.8316642e-11
6.0251008e-11
4.7627636e-11
3.862375e-11
3.2076765e-11
2.7230407e-11
2.358334e-11
2.0797041e-11
1.8638965e-11
1.6946597e-11
1.5604616e-11
1.4529893e-11
1.3661708e-11
1.2955093e-11
1.2376373e-11
1.1900037e-11
1.1506585e-11
1.1180972e-11
1.0911515e-11
1.0689102e-11
1.0506603e-11
1.0358462e-11
1.0240374e-11
1.0149094e-11
1.0082003e-11
1.0040682e-11
1.0011163e-11
1.4260065e-05
8.5064975e-05
0.0001988843
0.00039330082
0.00091810875
0.001322212
0.0017945681
0.0028153209
0.0071537245
0.010474132
0.016885228
0.024988207
0.027758423
0.036847991
0.059060749
0.11528652
0.38079047
2.1616489
7.8761746
9.6198265
9.725837
11.806282
7.9580923
1.1081506
0.084691194
0.0052826984
0.00050024544
9.9564714e-05
2.7701742e-05
8.8430334e-06
3.1072315e-06
1.1818925e-06
4.8119926e-07
2.0793816e-07
9.474497e-08
4.5283808e-08
2.2611074e-08
1.175676e-08
6.3496512e-09
3.5551989e-09
2.0606108e-09
1.2350263e-09
7.6482527e-10
4.8910207e-10
3.2283534e-10
2.1984226e-10
1.5437182e-10
1.117052e-10
8.3227945e-11
6.3782636e-11
5.0213696e-11
4.0549467e-11
3.3532918e-11
2.8346805e-11
2.4449803e-11
2.147672e-11
1.9176965e-11
1.7375618e-11
1.5948718e-11
1.4807027e-11
1.388545e-11
1.3135851e-11
1.252223e-11
1.2017353e-11
1.1600429e-11
1.1255439e-11
1.0969957e-11
1.0734305e-11
1.0540918e-11
1.0383908e-11
1.0258722e-11
1.0161925e-11
1.0090753e-11
1.0047006e-11
1.0014031e-11
3.6277273e-05
0.00029330649
0.00062380023
0.0011790995
0.0022591669
0.0035222763
0.0041042044
0.0061952338
0.016618095
0.023750202
0.024810321
0.030520093
0.052664761
0.084527778
0.14655786
0.26396722
0.59986665
2.7630228
11.393715
18.244655
20.418973
16.311966
5.6152013
0.67252531
0.051736784
0.0037621427
0.00046093719
0.00010117326
2.8615634e-05
9.1897148e-06
3.2437555e-06
1.2385734e-06
5.0594775e-07
2.1926133e-07
1.0015429e-07
4.7973066e-08
2.3998346e-08
1.2497401e-08
6.7579769e-09
3.7872214e-09
2.196278e-09
1.3165414e-09
8.1509447e-10
5.2088616e-10
3.4342013e-10
2.3348543e-10
1.6361718e-10
1.1810489e-10
8.7748371e-11
6.7037284e-11
5.2599359e-11
4.2327443e-11
3.4878314e-11
2.9378959e-11
2.5251391e-11
2.210593e-11
1.9675386e-11
1.7773418e-11
1.6268099e-11
1.5064555e-11
1.4093657e-11
1.3304343e-11
1.2658465e-11
1.21272e-11
1.1688565e-11
1.1325642e-11
1.1025323e-11
1.0777405e-11
1.0573924e-11
1.0408689e-11
1.0276915e-11
1.0175009e-11
1.0100091e-11
1.0054042e-11
1.0017351e-11
1.9757163e-05
0.00038214144
0.0012149516
0.0048826044
0.006643516
0.0098219691
0.0098407432
0.013725294
0.04089154
0.056154084
0.05622656
0.060022289
0.082387702
0.19781556
0.48081762
0.72836118
1.1072625
3.6619116
17.344479
24.595309
24.596757
13.610346
3.0494087
0.35866235
0.030813967
0.0028759127
0.00043802487
0.00010212473
2.9226539e-05
9.4412908e-06
3.3482337e-06
1.2835676e-06
5.2612963e-07
2.2868908e-07
1.047337e-07
5.028114e-08
2.5202777e-08
1.3146785e-08
7.1190507e-09
3.9939212e-09
2.3179262e-09
1.3900509e-09
8.6065378e-10
5.498182e-10
3.6222893e-10
2.4599229e-10
1.721162e-10
1.240019e-10
9.1922055e-11
7.0047333e-11
5.4808864e-11
4.3976139e-11
3.6127223e-11
3.0338032e-11
2.5996925e-11
2.2691696e-11
2.0139857e-11
1.8144526e-11
1.6566413e-11
1.530543e-11
1.4288713e-11
1.3462488e-11
1.2786619e-11
1.2230807e-11
1.1771967e-11
1.1392346e-11
1.1078203e-11
1.0818851e-11
1.0605955e-11
1.0433045e-11
1.0295126e-11
1.0188434e-11
1.0110029e-11
1.0061911e-11
1.0021168e-11
0.00015434954
0.0020048735
0.0049045624
0.011553995
0.014798593
0.016568197
0.016142604
0.028228494
0.1224895
0.17816449
0.17008692
0.17529325
0.25439327
0.78309634
1.6632684
2.09258
2.4250092
3.9396608
23.318368
36.262179
27.761083
9.3599453
1.7887413
0.21939842
0.022205595
0.0025281812
0.00042831154
0.0001024828
2.957811e-05
9.6106729e-06
3.4247538e-06
1.3182886e-06
5.4227257e-07
2.364319e-07
1.0857225e-07
5.224772e-08
2.6242921e-08
1.3713976e-08
7.4374852e-09
4.1777387e-09
2.4268955e-09
1.456318e-09
9.0195321e-10
5.7617289e-10
3.7943509e-10
2.5747579e-10
1.7994478e-10
1.294487e-10
9.578622e-11
7.2839821e-11
5.6862267e-11
4.5510702e-11
3.7291262e-11
3.123305e-11
2.6693493e-11
2.3239631e-11
2.0574854e-11
1.8492527e-11
1.684654e-11
1.553197e-11
1.4472484e-11
1.3611786e-11
1.2907892e-11
1.2329131e-11
1.185139e-11
1.1456141e-11
1.1129053e-11
1.0858989e-11
1.0637271e-11
1.0457167e-11
1.0313479e-11
1.020232e-11
1.0120619e-11
1.0070595e-11
1.0025495e-11
0.00013244342
0.0011671348
0.012162462
0.013782856
0.026736568
0.036678015
0.034758807
0.074368816
0.41899568
0.59562619
0.5699446
0.56727347
0.77165058
2.371727
4.8090927
5.881965
5.6487353
6.6788363
18.48049
60.034145
48.470637
11.314979
1.726283
0.20404125
0.021391534
0.0025031984
0.0004261139
0.00010229363
2.9709329e-05
9.7095346e-06
3.4770215e-06
1.3440203e-06
5.5485609e-07
2.4268105e-07
1.1175079e-07
5.3908795e-08
2.7135569e-08
1.4207154e-08
7.7174289e-09
4.3408591e-09
2.5243798e-09
1.5160179e-09
9.393882e-10
6.0018962e-10
3.9518834e-10
2.6803259e-10
1.8716721e-10
1.344893e-10
9.9371806e-11
7.5437025e-11
5.8775956e-11
4.6943418e-11
3.8379794e-11
3.2071248e-11
2.734675e-11
2.3754198e-11
2.0983921e-11
1.8820253e-11
1.7110752e-11
1.5746001e-11
1.4646435e-11
1.3753413e-11
1.3023226e-11
1.2422921e-11
1.1927426e-11
1.1517492e-11
1.1178233e-11
1.0898094e-11
1.0668077e-11
1.0481204e-11
1.0332099e-11
1.0216735e-11
1.013198e-11
1.0080161e-11
1.0030356e-11
2.9592661e-05
0.00096332498
0.0050837685
0.0095867109
0.067973075
0.11009099
0.09884978
0.22067523
1.2764971
1.881829
1.7853823
1.6993344
2.1489152
6.3192752
12.402931
13.38621
11.730049
10.373942
31.443914
74.810843
66.126772
19.131915
2.5471391
0.26618708
0.025174458
0.0027005652
0.00043163812
0.00010182
2.9656258e-05
9.7481683e-06
3.5083724e-06
1.3619223e-06
5.643143e-07
2.4760992e-07
1.1434263e-07
5.5297011e-08
2.7895944e-08
1.4633726e-08
7.9626304e-09
4.4852519e-09
2.6114511e-09
1.5697547e-09
9.7331048e-10
6.2208e-10
4.0962011e-10
2.7774687e-10
1.9383907e-10
1.3916142e-10
1.0270511e-10
7.785773e-11
6.056365e-11
4.8284505e-11
3.940056e-11
3.2858575e-11
2.7961326e-11
2.4239032e-11
2.1369939e-11
1.913e-11
1.7360884e-11
1.5948992e-11
1.4811748e-11
1.3888316e-11
1.3133376e-11
1.2512778e-11
1.2000552e-11
1.157677e-11
1.1226031e-11
1.0936387e-11
1.0698538e-11
1.050528e-11
1.0351059e-11
1.023174e-11
1.0144083e-11
1.009065e-11
1.0035767e-11
1.8457718e-05
0.00014367836
0.0005810265
0.0096970025
0.29404089
0.3954016
0.32434685
0.62843546
3.3979882
5.1358041
4.9266134
4.6734586
5.598485
15.918281
32.107558
33.012793
27.077112
16.216535
23.619467
124.54162
140.75088
36.345198
4.0944164
0.38357204
0.033980289
0.003312216
0.00045919558
0.00010172689
2.948133e-05
9.7353013e-06
3.521769e-06
1.3730359e-06
5.7103821e-07
2.5137503e-07
1.1641409e-07
5.6441906e-08
2.8537825e-08
1.5000392e-08
8.1764789e-09
4.6126948e-09
2.6890746e-09
1.6180704e-09
1.0040345e-09
6.4203233e-10
4.2284669e-10
2.8669267e-10
2.0000887e-10
1.4349779e-10
1.0580877e-10
8.0118006e-11
6.2237009e-11
4.9542594e-11
4.0360062e-11
3.3600005e-11
2.8541071e-11
2.4697151e-11
2.173529e-11
1.9423658e-11
1.7598447e-11
1.6142155e-11
1.4969391e-11
1.401727e-11
1.3238963e-11
1.2599196e-11
1.2071158e-11
1.1634283e-11
1.1272686e-11
1.097405e-11
1.0728792e-11
1.0529496e-11
1.0370438e-11
1.0247388e-11
1.0156999e-11
1.0102057e-11
1.0041745e-11
1.4877786e-05
0.00037796502
0.00106129
0.033770839
0.99205035
1.3869651
1.0726091
1.655255
7.8360592
12.100716
11.604003
11.2003
13.646464
39.19046
93.072716
91.174602
64.449736
29.702732
24.469729
105.83307
241.71726
62.419311
6.3105107
0.65197339
0.064152639
0.0057010078
0.00057414314
0.00010379747
2.9217944e-05
9.6837023e-06
3.5195908e-06
1.3782883e-06
5.7537816e-07
2.5411702e-07
1.1802485e-07
5.737012e-08
2.9073647e-08
1.5313205e-08
8.3620338e-09
4.7247911e-09
2.7581202e-09
1.6614523e-09
1.0318421e-09
6.6021476e-10
4.349715e-10
2.949355e-10
2.0571932e-10
1.4752702e-10
1.087025e-10
8.2231746e-11
6.3806054e-11
5.0725063e-11
4.126383e-11
3.4299748e-11
2.9089236e-11
2.5131089e-11
2.2081968e-11
1.9702809e-11
1.78247e-11
1.6326494e-11
1.512017e-11
1.414092e-11
1.3340501e-11
1.2682584e-11
1.2139566e-11
1.1690283e-11
1.1318394e-11
1.1011233e-11
1.0758953e-11
1.0553936e-11
1.0390323e-11
1.02638e-11
1.0170808e-11
1.0114448e-11
1.0048306e-11
9.2203887e-06
0.0022347436
0.0043935852
0.094526213
2.3818687
4.3600128
3.1921255
4.0434845
16.173712
25.097796
23.9845
23.580145
30.689566
89.850597
305.41292
271.25554
151.54022
64.589067
31.794266
64.107442
394.38381
303.69737
24.469329
2.2374558
0.20336556
0.014391619
0.00090817339
0.00010968846
2.8888423e-05
9.5943382e-06
3.5052592e-06
1.3784341e-06
5.776462e-07
2.5596175e-07
1.192285e-07
5.8105608e-08
2.9514611e-08
1.5577618e-08
8.5220535e-09
4.8229863e-09
2.8193708e-09
1.7003385e-09
1.0569862e-09
6.7677776e-10
4.4608674e-10
3.0253353e-10
2.1100819e-10
1.512743e-10
1.1140353e-10
8.4211044e-11
6.5279467e-11
5.1838271e-11
4.211661e-11
3.4961404e-11
2.9608588e-11
2.5542998e-11
2.2411664e-11
1.9968791e-11
1.8040706e-11
1.6502858e-11
1.5264761e-11
1.4259807e-11
1.3438422e-11
1.2763285e-11
1.2206047e-11
1.1744983e-11
1.1363319e-11
1.1048063e-11
1.0789117e-11
1.0578677e-11
1.04107e-11
1.0280919e-11
1.0185531e-11
1.0127847e-11
1.0055464e-11
5.3495512e-05
0.018439151
0.03453949
0.28859824
5.4750123
11.858744
8.7566591
9.9302347
32.062272
48.869928
48.421103
49.079819
69.267848
216.08855
748.51368
717.2619
384.06067
145.03417
50.897693
49.054665
261.51503
341.52145
137.38912
11.463764
0.72170084
0.033082284
0.0013162299
0.00011336467
2.8415491e-05
9.4748744e-06
3.4795601e-06
1.3744329e-06
5.7810735e-07
2.5702143e-07
1.2007295e-07
5.866985e-08
2.9870776e-08
1.5798538e-08
8.6590213e-09
4.9085816e-09
2.8735313e-09
1.7351232e-09
1.079694e-09
6.9185618e-10
4.5627484e-10
3.0953859e-10
2.1590898e-10
1.5476189e-10
1.1392704e-10
8.6066495e-11
6.6664815e-11
5.2887741e-11
4.2922507e-11
3.5588074e-11
3.0101504e-11
2.5934722e-11
2.272582e-11
2.022274e-11
1.8247367e-11
1.6671966e-11
1.540374e-11
1.437439e-11
1.3533091e-11
1.2841589e-11
1.2270832e-11
1.1798562e-11
1.1407602e-11
1.1084647e-11
1.0819364e-11
1.0603758e-11
1.043168e-11
1.0298705e-11
1.020113e-11
1.0142266e-11
1.0063229e-11
0.00029081362
0.10876835
0.21901388
0.77181562
11.232401
25.662181
20.380127
21.814803
63.96642
95.780373
118.68111
131.28848
186.38338
500.34192
529.40744
1146.2657
803.0577
279.99645
90.462885
52.862916
123.59317
222.18416
138.71594
19.055739
1.1776334
0.044892716
0.0014766662
0.00011199246
2.7808466e-05
9.3310559e-06
3.4446845e-06
1.3667245e-06
5.7703427e-07
2.5739437e-07
1.2060096e-07
5.9082059e-08
3.0151161e-08
1.5980369e-08
8.7751685e-09
4.9827473e-09
2.9212358e-09
1.7661606e-09
1.1001693e-09
7.0557091e-10
4.6560954e-10
3.1599694e-10
2.204515e-10
1.5800951e-10
1.1628641e-10
8.7807421e-11
6.7968735e-11
5.3878295e-11
4.3685091e-11
3.6182447e-11
3.0570038e-11
2.630785e-11
2.3025679e-11
2.0465636e-11
1.8445461e-11
1.6834435e-11
1.5537598e-11
1.448506e-11
1.362482e-11
1.2917744e-11
1.2334116e-11
1.1851176e-11
1.1451362e-11
1.1121078e-11
1.0849766e-11
1.0629264e-11
1.0453302e-11
1.0317398e-11
1.0217644e-11
1.0157734e-11
1.0071613e-11
0.0025348119
0.53700618
1.1306556
1.9450369
21.429775
53.651115
44.029719
45.20802
139.19691
214.93753
415.33857
516.0015
437.5439
341.50157
272.93964
425.43273
714.46005
399.2811
133.08761
65.902156
80.038652
122.53593
98.092045
18.965383
1.2388601
0.044838346
0.001402401
0.00010639592
2.7100573e-05
9.1677385e-06
3.4023114e-06
1.3558581e-06
5.7465503e-07
2.5716613e-07
1.208505e-07
5.935938e-08
3.0363835e-08
1.6127058e-08
8.8724985e-09
5.046535e-09
2.9630538e-09
1.793769e-09
1.1185954e-09
7.1803044e-10
4.741569e-10
3.2194991e-10
2.2466234e-10
1.6103472e-10
1.1849353e-10
8.9442054e-11
6.9197066e-11
5.4814162e-11
4.4407487e-11
3.6746869e-11
3.1015978e-11
2.666376e-11
2.3312315e-11
2.0698324e-11
1.8635654e-11
1.6990796e-11
1.5666758e-11
1.4592156e-11
1.3713879e-11
1.2991963e-11
1.2396067e-11
1.1902954e-11
1.1494701e-11
1.1157433e-11
1.088038e-11
1.0655212e-11
1.0475525e-11
1.0336901e-11
1.0235156e-11
1.0174261e-11
1.0080624e-11
0.01194549
2.1593098
5.1173914
6.4764794
42.322338
113.64646
101.3139
111.19727
395.21442
650.43819
1591.6491
1258.6942
364.88033
202.51865
168.44949
369.70711
364.45215
261.07012
111.03011
66.21595
68.612243
94.715621
91.868035
21.980563
1.2126472
0.039597351
0.0011563532
9.7925159e-05
2.6329578e-05
8.9892372e-06
3.3537796e-06
1.3423946e-06
5.7110068e-07
2.564363e-07
1.2085328e-07
5.9517077e-08
3.0516003e-08
1.6242141e-08
8.9528074e-09
5.1008883e-09
2.9994974e-09
1.8182345e-09
1.1351368e-09
7.2933216e-10
4.8197613e-10
3.2743451e-10
2.2856523e-10
1.6385313e-10
1.2055894e-10
9.0977689e-11
7.0354963e-11
5.5699068e-11
4.5092434e-11
3.7283392e-11
3.1440883e-11
2.7003656e-11
2.3586664e-11
2.0921539e-11
1.8818527e-11
1.714151e-11
1.5791587e-11
1.4695968e-11
1.3800498e-11
1.306443e-11
1.245683e-11
1.1954012e-11
1.1537708e-11
1.1193781e-11
1.091126e-11
1.0681653e-11
1.0498457e-11
1.0357137e-11
1.0253597e-11
1.0191864e-11
1.0090271e-11
0.010429034
7.3899855
18.370438
20.396212
85.210555
240.36346
248.16002
324.0778
1427.1207
2137.5156
1990.1121
390.12456
202.03764
181.52168
167.06115
245.76398
302.08366
215.61043
105.79885
71.334151
71.362637
102.25534
115.67082
20.554684
0.91149515
0.026516807
0.00081159182
8.9183504e-05
2.5543634e-05
8.7993192e-06
3.3002496e-06
1.3267567e-06
5.6657553e-07
2.5524415e-07
1.2064555e-07
5.9568543e-08
3.0614092e-08
1.6328776e-08
9.017704e-09
5.1466539e-09
3.0310262e-09
1.839814e-09
1.1499414e-09
7.3956348e-10
4.8912037e-10
3.324839e-10
2.321814e-10
1.6647869e-10
1.2249204e-10
9.24208e-11
7.1446997e-11
5.6536301e-11
4.5742349e-11
3.7793821e-11
3.1846124e-11
2.7328588e-11
2.3849545e-11
2.113592e-11
1.8994587e-11
1.7286978e-11
1.5912404e-11
1.4796751e-11
1.3884881e-11
1.3135305e-11
1.2516531e-11
1.2004447e-11
1.1580459e-11
1.123018e-11
1.0942449e-11
1.070862e-11
1.0522116e-11
1.0378236e-11
1.0273004e-11
1.0210556e-11
1.010056e-11
0.19001452
21.115321
51.941766
54.956277
182.19639
519.89447
681.87015
1257.5067
3140.7484
2697.3636
557.64719
196.17097
201.35557
203.09936
229.33789
166.80695
193.6864
310.43712
218.19232
109.19614
87.8209
145.58738
111.60628
11.503548
0.48955857
0.014576747
0.00054865167
8.2334252e-05
2.4768407e-05
8.6009832e-06
3.2427229e-06
1.3093127e-06
5.6122383e-07
2.5366294e-07
1.2024853e-07
5.9525664e-08
3.0663824e-08
1.6389785e-08
9.0686283e-09
5.1845906e-09
3.0580524e-09
1.8587383e-09
1.163142e-09
7.4880294e-10
4.956373e-10
3.3712779e-10
2.3552987e-10
1.6892389e-10
1.243012e-10
9.3777156e-11
7.2477225e-11
5.7328778e-11
4.6359369e-11
3.8279748e-11
3.2232906e-11
2.7639482e-11
2.4101673e-11
2.134203e-11
1.9164275e-11
1.742755e-11
1.6029487e-11
1.4894726e-11
1.3967202e-11
1.3204728e-11
1.2575281e-11
1.2054345e-11
1.162302e-11
1.126668e-11
1.0973986e-11
1.0736141e-11
1.0546519e-11
1.0400243e-11
1.0293368e-11
1.0230347e-11
1.0111497e-11
1.2429231
52.832125
124.19569
131.29721
462.45375
1233.8628
1921.5906
3449.8027
3023.5863
737.94342
159.15154
165.47018
239.46205
205.78421
236.74953
198.03186
212.25692
497.61781
476.91146
275.49525
146.89613
169.22877
75.742199
5.8305391
0.24243546
0.0076000116
0.00039527542
7.7291319e-05
2.4005588e-05
8.3966239e-06
3.1820583e-06
1.2903829e-06
5.5517216e-07
2.5174643e-07
1.1968494e-07
5.9401235e-08
3.0670107e-08
1.6427687e-08
9.1068678e-09
5.2153787e-09
3.0809462e-09
1.8752147e-09
1.1748578e-09
7.5712108e-10
5.0156977e-10
3.4139288e-10
2.3862769e-10
1.7119987e-10
1.2599391e-10
9.5051897e-11
7.3449257e-11
5.8079088e-11
4.6945386e-11
3.8742584e-11
3.2602294e-11
2.7937154e-11
2.4343683e-11
2.1540364e-11
1.9327982e-11
1.7563535e-11
1.6143081e-11
1.4990087e-11
1.4047617e-11
1.327282e-11
1.2633174e-11
1.2103781e-11
1.1665448e-11
1.1303325e-11
1.1005901e-11
1.0764263e-11
1.0571743e-11
1.0423201e-11
1.0314742e-11
1.0251249e-11
1.0123089e-11
6.1295616
122.78489
276.85241
304.20423
1523.9525
1914.3
2485.9372
2652.7153
792.49035
167.67872
144.63724
150.56777
220.85253
209.75458
231.66142
217.00493
449.92698
623.90795
477.62821
386.01197
260.28982
170.89397
41.019023
2.8128117
0.11596549
0.0040475455
0.00031299712
7.3352536e-05
2.3252238e-05
8.1882375e-06
3.1189899e-06
1.2702442e-06
5.4853105e-07
2.4954116e-07
1.1897724e-07
5.9201708e-08
3.0637935e-08
1.6444725e-08
9.1335744e-09
5.2396271e-09
3.1000395e-09
1.8894293e-09
1.1851961e-09
7.6458135e-10
5.0695628e-10
3.4530314e-10
2.4149014e-10
1.7331665e-10
1.2757689e-10
9.6249623e-11
7.4366316e-11
5.8789539e-11
4.7502083e-11
3.9183577e-11
3.2955231e-11
2.8222325e-11
2.457613e-11
2.1731356e-11
1.948605e-11
1.7695204e-11
1.6253401e-11
1.5083006e-11
1.4126259e-11
1.3339688e-11
1.2690295e-11
1.215282e-11
1.1707794e-11
1.1340153e-11
1.1038226e-11
1.0792932e-11
1.059766e-11
1.0447086e-11
1.0337145e-11
1.0273246e-11
1.0135359e-11
26.138094
281.22775
630.35668
748.33403
3020.703
1657.6372
1089.9551
908.9833
152.74038
298.50775
130.22992
150.72283
196.50104
190.23473
205.4086
219.12511
362.89906
762.878
481.68592
338.5779
278.87484
142.78478
21.425902
1.3259018
0.055234192
0.0023292458
0.00026785117
7.0002313e-05
2.2507675e-05
7.9775352e-06
3.0541463e-06
1.2491364e-06
5.4139696e-07
2.470879e-07
1.1814345e-07
5.8936779e-08
3.0571233e-08
1.64428e-08
9.1497775e-09
5.2578817e-09
3.1156303e-09
1.9015493e-09
1.1942533e-09
7.7124082e-10
5.1183145e-10
3.4888011e-10
2.4413098e-10
1.752832e-10
1.2905613e-10
9.7374443e-11
7.5231279e-11
5.9462185e-11
4.8030961e-11
3.9603839e-11
3.3292555e-11
2.8495635e-11
2.4799511e-11
2.1915393e-11
1.9638781e-11
1.7822796e-11
1.6360636e-11
1.5173632e-11
1.4203249e-11
1.3405425e-11
1.2746716e-11
1.2201519e-11
1.17501e-11
1.1377194e-11
1.1070966e-11
1.0822242e-11
1.0624233e-11
1.0471799e-11
1.0360551e-11
1.0296362e-11
1.014829e-11
101.30326
667.6485
1532.3258
2046.4816
1908.1941
460.58528
322.79875
258.18656
181.57261
367.34981
134.44549
149.37177
191.03111
188.53861
157.58655
166.47916
383.00174
1023.132
696.17865
297.39031
246.77055
87.104309
10.449158
0.61402451
0.026835611
0.0015061092
0.00024076172
6.697535e-05
2.1772892e-05
7.765811e-06
2.9880198e-06
1.227255e-06
5.3385105e-07
2.4442166e-07
1.1719935e-07
5.8613855e-08
3.0473097e-08
1.6424025e-08
9.1563945e-09
5.2706319e-09
3.1279862e-09
1.9117252e-09
1.2021163e-09
7.7715089e-10
5.162265e-10
3.5214322e-10
2.465626e-10
1.7710762e-10
1.3043704e-10
9.8430056e-11
7.604673e-11
6.009887e-11
4.8533357e-11
4.0004362e-11
3.3615011e-11
2.8757654e-11
2.5014264e-11
2.2092818e-11
1.9786446e-11
1.7946524e-11
1.6464954e-11
1.5262099e-11
1.4278691e-11
1.3470115e-11
1.2802503e-11
1.2249926e-11
1.1792404e-11
1.1414478e-11
1.1104169e-11
1.0852206e-11
1.065169e-11
1.0497392e-11
1.038497e-11
1.0320598e-11
1.0161885e-11
369.60385
1706.0052
2221.2493
2895.4748
655.26122
116.09469
82.515001
105.63648
192.84669
120.00519
184.06488
163.91714
195.38189
193.76016
157.11676
140.631
354.54175
2003.5146
2531.0401
333.03015
161.99381
46.684078
4.8661255
0.28301222
0.013714007
0.0010997583
0.0002219192
6.4111015e-05
2.1047663e-05
7.554543e-06
2.9212733e-06
1.2048647e-06
5.2599917e-07
2.4158605e-07
1.1616352e-07
5.8241185e-08
3.0347645e-08
1.6389879e-08
9.1542832e-09
5.2783646e-09
3.1373673e-09
1.9201e-09
1.2088661e-09
7.8235866e-10
5.2016958e-10
3.5510973e-10
2.4879584e-10
1.7879689e-10
1.3172424e-10
9.9419584e-11
7.6814831e-11
6.0701124e-11
4.9010377e-11
4.038596e-11
3.3923208e-11
2.900884e-11
2.5220744e-11
2.2263903e-11
1.9929257e-11
1.8066553e-11
1.6566487e-11
1.5348508e-11
1.4352665e-11
1.3533818e-11
1.28577e-11
1.2298076e-11
1.1834729e-11
1.1452019e-11
1.1137822e-11
1.088276e-11
1.067995e-11
1.0523922e-11
1.0410386e-11
1.0345947e-11
1.017614e-11
1272.9644
3193.3034
1850.3983
1840.4536
151.17401
48.808303
36.310177
67.437949
174.83612
158.37893
171.21481
169.0347
203.55457
204.08742
157.61869
154.43288
264.04988
1147.3427
2297.5909
802.7629
88.33655
23.035402
2.2105414
0.13203175
0.0076648402
0.00089272342
0.00020842615
6.1575082e-05
2.0365535e-05
7.348705e-06
2.8544215e-06
1.1818732e-06
5.1772891e-07
2.385113e-07
1.1499779e-07
5.7798551e-08
3.018421e-08
1.6334744e-08
9.1404059e-09
5.2791908e-09
3.1427066e-09
1.9260434e-09
1.2141215e-09
7.8662866e-10
5.2351196e-10
3.5768368e-10
2.5076749e-10
1.8030854e-10
1.328886e-10
1.0032265e-10
7.7521057e-11
6.1258396e-11
4.9454214e-11
4.0742748e-11
3.4212633e-11
2.9245675e-11
2.5416154e-11
2.2426393e-11
2.0065363e-11
1.8181341e-11
1.6663926e-11
1.5431735e-11
1.4424189e-11
1.3595664e-11
1.2911528e-11
1.2345259e-11
1.1876421e-11
1.1489207e-11
1.1171359e-11
1.0913404e-11
1.0708389e-11
1.0550812e-11
1.0436289e-11
1.0371901e-11
1.019087e-11
3771.3141
2918.1948
668.03654
819.15401
105.37203
41.529629
32.675928
39.080592
112.49796
122.09999
74.250733
177.90074
221.6725
203.26771
170.64062
180.03081
210.89256
484.57161
901.28365
682.93787
79.0634
11.148743
1.0044712
0.063751842
0.0047855819
0.00076213978
0.00019385265
5.8359982e-05
1.9507606e-05
7.0970747e-06
2.7742065e-06
1.1545406e-06
5.0790721e-07
2.3483333e-07
1.135794e-07
5.7242885e-08
2.9967151e-08
1.6252787e-08
9.1124949e-09
5.2723328e-09
3.1435202e-09
1.9292935e-09
1.2177403e-09
7.8988284e-10
5.2621058e-10
3.5984123e-10
2.5246438e-10
1.8163531e-10
1.3392623e-10
1.0113729e-10
7.8164519e-11
6.1770412e-11
4.9864942e-11
4.1074992e-11
3.4483654e-11
2.9468578e-11
2.5600947e-11
2.2580778e-11
2.0195271e-11
1.8291394e-11
1.6757767e-11
1.5512263e-11
1.4493733e-11
1.3656117e-11
1.2964443e-11
1.2391932e-11
1.1917943e-11
1.1526515e-11
1.1205262e-11
1.0944636e-11
1.0737626e-11
1.0578672e-11
1.0463309e-11
1.0399171e-11
1.020622e-11
7537.2795
1140.4331
203.53803
251.91405
99.757578
38.892226
26.427007
34.730892
52.082828
80.667146