/*--------------------------------*- C++ -*----------------------------------*\
| =========                 |                                                 |
| \\      /  F ield         | OpenFOAM: The Open Source CFD Toolbox           |
|  \\    /   O peration     | Version:  2.3.0                                 |
|   \\  /    A nd           | Web:      www.OpenFOAM.org                      |
|    \\/     M anipulation  |                                                 |
\*---------------------------------------------------------------------------*/
FoamFile
{
    version     2.0;
    format      ascii;
    class       volScalarField;
    location    "2e-06";
    object      nuSgs;
}
// * * * * * * * * * * * * * * * * * * * * * * * * * * * * * * * * * * * * * //

dimensions      [0 2 -1 0 0 0 0];

internalField   nonuniform List<scalar> 
7500
(
4.1495049e-10
4.2670342e-10
4.4117898e-10
4.5716957e-10
4.950486e-10
5.1647801e-10
5.5547163e-10
5.8499129e-10
6.1292914e-10
6.2067097e-10
6.4198317e-10
6.8466814e-10
7.3510369e-10
8.8200627e-10
1.4863869e-09
2.7525071e-09
6.0476145e-09
1.3520394e-08
3.094022e-08
6.925098e-08
1.308606e-07
1.5439289e-07
1.2679801e-07
5.5247529e-08
1.9415972e-08
6.4351433e-09
2.4341963e-09
1.1258873e-09
5.8810201e-10
3.2918713e-10
1.9386846e-10
1.1905159e-10
7.577093e-11
4.975923e-11
3.3603577e-11
2.3276668e-11
1.6505767e-11
1.1964664e-11
8.8556625e-12
6.8173085e-12
5.2574838e-12
4.1326207e-12
3.3109494e-12
2.7030738e-12
2.2480781e-12
1.9038413e-12
1.6408239e-12
1.438043e-12
1.2804103e-12
1.156953e-12
1.0596056e-12
9.8238039e-13
9.2078958e-13
8.7143965e-13
8.3174318e-13
7.9971091e-13
7.7380301e-13
7.5281809e-13
7.3581389e-13
7.2204563e-13
7.1092258e-13
7.0197315e-13
6.9481983e-13
6.8915894e-13
6.8474571e-13
6.8138219e-13
6.7890825e-13
6.7719438e-13
6.7613614e-13
6.7565005e-13
6.7567016e-13
6.7614595e-13
6.7703804e-13
6.7837039e-13
6.8002037e-13
4.5585114e-10
4.6562894e-10
4.8565214e-10
5.0145534e-10
5.5393031e-10
5.6852715e-10
6.0547743e-10
6.2535288e-10
6.5879768e-10
6.7798683e-10
7.1150977e-10
7.720292e-10
8.6571448e-10
1.0591789e-09
1.6071563e-09
3.0961297e-09
7.0149607e-09
1.7058262e-08
4.162102e-08
1.0195958e-07
2.208403e-07
2.6185225e-07
1.9393875e-07
7.75107e-08
2.4859073e-08
7.5130104e-09
2.6741139e-09
1.2195777e-09
6.37428e-10
3.5748502e-10
2.1091196e-10
1.2972764e-10
8.2687296e-11
5.4374405e-11
3.676581e-11
2.5496234e-11
1.8098801e-11
1.3132218e-11
9.7285262e-12
7.4953588e-12
5.7846162e-12
4.5498936e-12
3.6472647e-12
2.9789968e-12
2.4784407e-12
2.0994755e-12
1.8097337e-12
1.5862076e-12
1.4123422e-12
1.2760904e-12
1.168592e-12
1.0832651e-12
1.0151744e-12
9.6058549e-13
9.1664987e-13
8.8117644e-13
8.524682e-13
8.292006e-13
8.1033416e-13
7.9504721e-13
7.826876e-13
7.7273457e-13
7.6477103e-13
7.5846136e-13
7.5353491e-13
7.4977277e-13
7.4699774e-13
7.4506653e-13
7.4386362e-13
7.4329674e-13
7.432931e-13
7.43797e-13
7.4476389e-13
7.4622727e-13
7.4802056e-13
5.0147482e-10
5.1137229e-10
5.341365e-10
5.5228867e-10
6.1173495e-10
6.3229274e-10
6.6967754e-10
7.0666151e-10
7.6368877e-10
8.1676723e-10
9.1078166e-10
9.4086296e-10
1.1597549e-09
1.6928265e-09
2.4304607e-09
5.3354184e-09
1.1261438e-08
2.9130398e-08
7.0339882e-08
1.5855158e-07
3.5674191e-07
3.7096552e-07
2.0433791e-07
7.3574005e-08
2.4130417e-08
7.9868486e-09
3.1118579e-09
1.4665076e-09
7.7136078e-10
4.3345531e-10
2.5603014e-10
1.5759601e-10
1.0049297e-10
6.6092646e-11
4.4683266e-11
3.0973681e-11
2.1970664e-11
1.5923937e-11
1.1778768e-11
9.0577103e-12
6.9732424e-12
5.4684518e-12
4.3681537e-12
3.5533556e-12
2.942892e-12
2.4805871e-12
2.1270112e-12
1.8541332e-12
1.6417817e-12
1.4752772e-12
1.3438226e-12
1.2393972e-12
1.1559862e-12
1.0890388e-12
1.0350831e-12
9.9144877e-13
9.560674e-13
9.2732453e-13
9.0395309e-13
8.8495148e-13
8.6952469e-13
8.5703789e-13
8.4698257e-13
8.3894955e-13
8.3260888e-13
8.2769361e-13
8.2398774e-13
8.2131651e-13
8.1953898e-13
8.1854246e-13
8.1823802e-13
8.1855773e-13
8.194471e-13
8.2094899e-13
8.2284679e-13
5.5192436e-10
5.6762478e-10
6.1065316e-10
6.4945969e-10
7.7226483e-10
8.0166676e-10
8.4162947e-10
9.2361852e-10
1.1198963e-09
1.2217608e-09
1.3425088e-09
1.6153866e-09
1.7920091e-09
2.1858043e-09
3.0847515e-09
5.3499605e-09
1.1602352e-08
2.5294574e-08
7.047706e-08
2.8186298e-07
6.7872725e-07
5.5092322e-07
2.4678974e-07
9.2474992e-08
3.0701219e-08
9.9244747e-09
3.7488055e-09
1.7488302e-09
9.1973801e-10
5.173749e-10
3.058638e-10
1.8838906e-10
1.201789e-10
7.9057103e-11
5.3448913e-11
3.7042174e-11
2.6263218e-11
1.9020955e-11
1.4054553e-11
1.0792861e-11
8.2938843e-12
6.4893839e-12
5.1695999e-12
4.1920118e-12
3.4593816e-12
2.9043944e-12
2.4797938e-12
2.1519781e-12
1.8967646e-12
1.696552e-12
1.5383927e-12
1.4126677e-12
1.312163e-12
1.2314199e-12
1.1662737e-12
1.1135206e-12
1.0706792e-12
1.0358123e-12
1.0073993e-12
9.8423819e-13
9.6537485e-13
9.5004726e-13
9.3764499e-13
9.2767683e-13
9.1974666e-13
9.1353397e-13
9.0877941e-13
9.0527316e-13
9.0284602e-13
9.0136282e-13
9.0071681e-13
9.0082662e-13
9.0162556e-13
9.0316769e-13
9.0516965e-13
5.9958631e-10
6.6516257e-10
7.5004706e-10
1.0253828e-09
1.3482965e-09
1.4838809e-09
1.7188766e-09
1.9977132e-09
2.6110407e-09
2.9354276e-09
3.455275e-09
4.1599292e-09
4.8730807e-09
5.6704979e-09
7.0844712e-09
1.10405e-08
2.1186826e-08
4.1877187e-08
7.9649612e-08
2.2937316e-07
6.8543922e-07
1.1861458e-06
7.3269482e-07
2.4488001e-07
6.7584065e-08
1.6966919e-08
4.9879864e-09
2.1291961e-09
1.1113006e-09
6.2639073e-10
3.7113712e-10
2.2903877e-10
1.4635857e-10
9.6419293e-11
6.5266556e-11
4.5275693e-11
3.2122428e-11
2.327241e-11
1.7196938e-11
1.2950313e-11
9.9314854e-12
7.7532527e-12
6.1596843e-12
4.9789477e-12
4.0938021e-12
3.423063e-12
2.9097236e-12
2.5132409e-12
2.2044307e-12
1.9620482e-12
1.7704637e-12
1.6180638e-12
1.4961378e-12
1.398094e-12
1.3189026e-12
1.2546942e-12
1.202471e-12
1.159893e-12
1.1251229e-12
1.0967084e-12
1.0734965e-12
1.0545661e-12
1.0391795e-12
1.0267429e-12
1.0167776e-12
1.008896e-12
1.0027846e-12
9.9818971e-13
9.949068e-13
9.9277247e-13
9.9165761e-13
9.9146355e-13
9.9210938e-13
9.9366308e-13
9.9574615e-13
6.5907974e-10
8.194153e-10
1.1722822e-09
1.8836502e-09
2.4951218e-09
3.2771092e-09
3.7941547e-09
5.2476103e-09
6.4697067e-09
7.1492661e-09
8.85981e-09
1.0452625e-08
1.1356676e-08
1.2461196e-08
1.483269e-08
2.3225706e-08
5.0209311e-08
1.0741495e-07
1.5875912e-07
2.349815e-07
5.1064856e-07
8.1830468e-07
7.3003306e-07
2.8462239e-07
7.9077122e-08
1.9505533e-08
5.6763988e-09
2.4339736e-09
1.2752654e-09
7.2073828e-10
4.2800873e-10
2.6466456e-10
1.6942407e-10
1.1178972e-10
7.5774495e-11
5.2626288e-11
3.7372741e-11
2.7095025e-11
2.0029956e-11
1.5084487e-11
1.1565212e-11
9.0228644e-12
7.1607569e-12
5.7794944e-12
4.7428867e-12
3.9565322e-12
3.3540784e-12
2.8882909e-12
2.5251382e-12
2.2398249e-12
2.0140933e-12
1.8343663e-12
1.6904521e-12
1.5746317e-12
1.4810108e-12
1.4050511e-12
1.3432343e-12
1.2928114e-12
1.2516229e-12
1.2179602e-12
1.1904658e-12
1.1680548e-12
1.1498575e-12
1.1351737e-12
1.1234383e-12
1.114194e-12
1.1070706e-12
1.1017688e-12
1.0980472e-12
1.0957131e-12
1.0946146e-12
1.0946363e-12
1.0956832e-12
1.0978461e-12
1.1006154e-12
7.8482221e-10
1.8761422e-09
2.341718e-09
2.6923357e-09
3.8983389e-09
5.3632535e-09
6.8159902e-09
9.7767922e-09
1.0822114e-08
1.3151473e-08
1.6831491e-08
1.9365536e-08
2.0406098e-08
2.2333398e-08
2.6176872e-08
4.0500823e-08
8.8643294e-08
2.2359486e-07
3.3426054e-07
3.7004642e-07
4.5966899e-07
6.7776808e-07
5.908062e-07
2.807243e-07
8.3166882e-08
2.0978795e-08
6.2199004e-09
2.6907292e-09
1.4152317e-09
8.0214767e-10
4.7753045e-10
2.9592954e-10
1.8980506e-10
1.2545395e-10
8.5167132e-11
5.9229283e-11
4.2110369e-11
3.0558583e-11
2.2606494e-11
1.7032636e-11
1.3061094e-11
1.0188481e-11
8.0819665e-12
6.5176078e-12
5.3422778e-12
4.4497224e-12
3.7651823e-12
3.235386e-12
2.8219164e-12
2.4967566e-12
2.2392592e-12
2.034056e-12
1.8696017e-12
1.7371446e-12
1.6299966e-12
1.543004e-12
1.4721685e-12
1.4143633e-12
1.3671305e-12
1.3285237e-12
1.2969957e-12
1.2713087e-12
1.2504702e-12
1.2336804e-12
1.2202937e-12
1.2097876e-12
1.2017389e-12
1.1958054e-12
1.1917113e-12
1.189237e-12
1.1882094e-12
1.1884981e-12
1.1899963e-12
1.192816e-12
1.1962916e-12
8.7687267e-10
1.6403944e-09
1.8423822e-09
2.2265687e-09
3.8204753e-09
4.6228688e-09
5.9307838e-09
7.4801065e-09
1.2067415e-08
1.8850799e-08
2.227062e-08
2.8510645e-08
2.9683369e-08
3.2430613e-08
3.9537605e-08
5.9420105e-08
1.2247294e-07
3.0578539e-07
5.3607105e-07
5.7519399e-07
5.9105621e-07
7.1451782e-07
7.2301315e-07
3.3200338e-07
9.1006299e-08
2.2428127e-08
6.6445118e-09
2.9006111e-09
1.5332476e-09
8.7180022e-10
5.2036123e-10
3.2321677e-10
2.0773306e-10
1.3755675e-10
9.3537748e-11
6.514648e-11
4.6377343e-11
3.3692402e-11
2.4947536e-11
1.8809519e-11
1.443023e-11
1.1258693e-11
8.9301524e-12
7.1988867e-12
5.8966862e-12
4.906702e-12
4.1466349e-12
3.5577807e-12
3.0977634e-12
2.7356502e-12
2.4486238e-12
2.2196861e-12
2.0360564e-12
1.8880382e-12
1.7682158e-12
1.6708698e-12
1.5915596e-12
1.52681e-12
1.4738868e-12
1.4306236e-12
1.3952965e-12
1.366526e-12
1.3432049e-12
1.3244406e-12
1.3095125e-12
1.2978369e-12
1.288941e-12
1.2824428e-12
1.2780346e-12
1.2754715e-12
1.2745613e-12
1.2751596e-12
1.2771482e-12
1.2806653e-12
1.2848489e-12
8.1971683e-10
2.0349059e-09
3.1614528e-09
4.5156823e-09
7.0055862e-09
8.5339702e-09
1.0089158e-08
1.2820019e-08
2.072622e-08
2.5428785e-08
3.2728011e-08
4.034816e-08
4.3086119e-08
5.0283745e-08
6.4468989e-08
9.1195653e-08
1.6777104e-07
4.045422e-07
7.813344e-07
8.7354255e-07
8.8838365e-07
9.8980108e-07
8.2161796e-07
3.0992795e-07
8.6596471e-08
2.1855179e-08
6.7950223e-09
3.0623451e-09
1.6315032e-09
9.3089463e-10
5.5716812e-10
3.4691538e-10
2.2344423e-10
1.4824644e-10
1.0098235e-10
7.0441746e-11
5.0217231e-11
3.6526916e-11
2.7074831e-11
2.0431027e-11
1.5684494e-11
1.2242577e-11
9.7124102e-12
7.829008e-12
6.4107595e-12
5.3313637e-12
4.5017691e-12
3.8583886e-12
3.3552766e-12
2.9588619e-12
2.6443583e-12
2.3932845e-12
2.1917324e-12
2.0291412e-12
1.8974276e-12
1.7903523e-12
1.7030671e-12
1.6317749e-12
1.5734859e-12
1.5258293e-12
1.4869174e-12
1.4552385e-12
1.4295786e-12
1.4089585e-12
1.3925872e-12
1.379824e-12
1.3701499e-12
1.3631455e-12
1.3584731e-12
1.3558645e-12
1.3551096e-12
1.3560511e-12
1.3585601e-12
1.3628045e-12
1.3676893e-12
1.3222327e-09
3.8251433e-09
5.6734291e-09
7.9301203e-09
1.1156083e-08
1.4152691e-08
1.5516482e-08
1.9356446e-08
3.217929e-08
3.9037671e-08
4.0477183e-08
4.5531732e-08
6.0645063e-08
7.7882481e-08
1.0393052e-07
1.4132178e-07
2.158028e-07
4.6905151e-07
9.6441803e-07
1.235416e-06
1.3227751e-06
1.1963529e-06
7.1013603e-07
2.4859012e-07
6.9730054e-08
1.9013005e-08
6.7280769e-09
3.1861474e-09
1.7124796e-09
9.8060702e-10
5.8859903e-10
3.6740133e-10
2.3716547e-10
1.5766465e-10
1.0759204e-10
7.5175265e-11
5.3670773e-11
3.9090338e-11
2.9008347e-11
2.1911592e-11
1.683454e-11
1.3148163e-11
1.0434925e-11
8.4128398e-12
6.8884157e-12
5.7269317e-12
4.8332976e-12
4.1395419e-12
3.596502e-12
3.1682209e-12
2.8281266e-12
2.5563878e-12
2.3380677e-12
2.1618147e-12
2.0189328e-12
1.9027045e-12
1.8079059e-12
1.730442e-12
1.6670868e-12
1.6152795e-12
1.5729801e-12
1.5385537e-12
1.5106867e-12
1.4883188e-12
1.4705933e-12
1.4568161e-12
1.4464248e-12
1.4389651e-12
1.4340715e-12
1.4314539e-12
1.4308857e-12
1.4321984e-12
1.4352553e-12
1.4402454e-12
1.4458112e-12
9.8151321e-10
4.3963662e-09
7.9805933e-09
1.6281267e-08
1.9320013e-08
2.3889058e-08
2.4308382e-08
2.9174387e-08
5.1158523e-08
6.0886173e-08
6.185808e-08
6.4871647e-08
7.7122698e-08
1.212319e-07
1.9169005e-07
2.392192e-07
2.9898893e-07
5.5104626e-07
1.2151203e-06
1.4657922e-06
1.4845633e-06
1.1181923e-06
5.3582499e-07
1.8599654e-07
5.5169428e-08
1.705271e-08
6.7321861e-09
3.2877269e-09
1.7785533e-09
1.0220403e-09
6.1526534e-10
3.8503128e-10
2.4911314e-10
1.6594712e-10
1.1345451e-10
7.9405177e-11
5.6777452e-11
4.1410076e-11
3.0767506e-11
2.3265252e-11
1.7890712e-11
1.3983221e-11
1.1103646e-11
8.9550281e-12
7.3333546e-12
6.0964121e-12
5.1437122e-12
4.4033473e-12
3.8232558e-12
3.3653225e-12
3.0013541e-12
2.7102903e-12
2.4762545e-12
2.2871705e-12
2.13378e-12
2.0089246e-12
1.9070335e-12
1.8237367e-12
1.7555883e-12
1.6998512e-12
1.6543436e-12
1.6173154e-12
1.58736e-12
1.5633414e-12
1.5443411e-12
1.5296151e-12
1.5185602e-12
1.5106895e-12
1.5056112e-12
1.5030152e-12
1.5026596e-12
1.5043641e-12
1.5079885e-12
1.5137464e-12
1.5199598e-12
2.7474383e-09
1.0095796e-08
1.6092716e-08
2.5162025e-08
2.8997834e-08
3.1232107e-08
3.1368786e-08
4.2193654e-08
8.9370863e-08
1.0956116e-07
1.0877835e-07
1.1218039e-07
1.3724147e-07
2.4446331e-07
3.6160981e-07
4.1156307e-07
4.494439e-07
5.8098149e-07
1.4331449e-06
1.8116462e-06
1.6064618e-06
9.4514387e-07
4.1855273e-07
1.4846261e-07
4.7826302e-08
1.6337619e-08
6.8065923e-09
3.3694493e-09
1.8315669e-09
1.056188e-09
6.3772052e-10
4.0012792e-10
2.5948286e-10
1.732165e-10
1.1864894e-10
8.3183988e-11
5.9572911e-11
4.3510859e-11
3.2369817e-11
2.4504647e-11
1.8862305e-11
1.4754715e-11
1.1723886e-11
9.4597009e-12
7.748844e-12
6.4424411e-12
5.4351804e-12
4.6516212e-12
4.0370887e-12
3.5515144e-12
3.1652331e-12
2.8560635e-12
2.6072702e-12
2.4061124e-12
2.2428142e-12
2.1098112e-12
2.0012117e-12
1.9123904e-12
1.8396974e-12
1.7802316e-12
1.7316783e-12
1.6921805e-12
1.6602441e-12
1.6346619e-12
1.6144579e-12
1.5988409e-12
1.5871695e-12
1.5789261e-12
1.5736947e-12
1.5711459e-12
1.5710235e-12
1.5731389e-12
1.5773431e-12
1.5838833e-12
1.5907061e-12
2.5395778e-09
7.695306e-09
2.5344729e-08
2.7514371e-08
3.9063026e-08
4.6618361e-08
4.6222447e-08
6.8835855e-08
1.6628831e-07
2.0170961e-07
2.0067332e-07
2.0354457e-07
2.4128211e-07
4.2979866e-07
6.2166047e-07
6.9814768e-07
6.9455349e-07
7.6649271e-07
1.293687e-06
2.3652516e-06
2.1553487e-06
1.0558507e-06
4.1805143e-07
1.4565799e-07
4.7786391e-08
1.6559525e-08
6.9197702e-09
3.4331735e-09
1.8731689e-09
1.0839455e-09
6.5646338e-10
4.1298208e-10
2.6845089e-10
1.7958324e-10
1.2324662e-10
8.6558912e-11
6.2089166e-11
4.5414868e-11
3.3830959e-11
2.5641071e-11
1.9757605e-11
1.5468831e-11
1.2300346e-11
9.9304943e-12
8.1377474e-12
6.7673144e-12
5.7095768e-12
4.8859228e-12
4.2393215e-12
3.7279362e-12
3.3207631e-12
2.9945991e-12
2.7319223e-12
2.5193818e-12
2.3467251e-12
2.2060125e-12
2.0910554e-12
1.9969914e-12
1.9199808e-12
1.8569695e-12
1.8055191e-12
1.7636717e-12
1.7298514e-12
1.7027846e-12
1.6814407e-12
1.6649842e-12
1.652738e-12
1.6441557e-12
1.6387981e-12
1.6363184e-12
1.6364472e-12
1.6389872e-12
1.6437857e-12
1.651116e-12
1.6585009e-12
1.1942463e-09
6.9635252e-09
1.6339872e-08
2.2907954e-08
6.224553e-08
8.07989e-08
7.8057997e-08
1.1885691e-07
2.9120662e-07
3.6004574e-07
3.569839e-07
3.5439141e-07
4.0538279e-07
7.068998e-07
1.0067387e-06
1.062871e-06
1.0108115e-06
9.6546478e-07
1.7066994e-06
2.6722625e-06
2.5496539e-06
1.3914216e-06
5.1497653e-07
1.6882393e-07
5.2638191e-08
1.7475615e-08
7.0803706e-09
3.4842795e-09
1.9048768e-09
1.1061065e-09
6.7194191e-10
4.2385523e-10
2.7617577e-10
1.8514671e-10
1.2731168e-10
8.9572422e-11
6.4355008e-11
4.7142039e-11
3.516501e-11
2.6684651e-11
2.0584028e-11
1.6131094e-11
1.2837214e-11
1.0370636e-11
8.502596e-12
7.073052e-12
5.9685421e-12
5.1076085e-12
4.4310959e-12
3.8955655e-12
3.4687964e-12
3.1266521e-12
2.8508902e-12
2.6275987e-12
2.4460856e-12
2.2980643e-12
2.1770707e-12
2.078022e-12
1.9969017e-12
1.9305127e-12
1.8763004e-12
1.8322129e-12
1.7965973e-12
1.7681173e-12
1.7456911e-12
1.7284416e-12
1.7156577e-12
1.7067659e-12
1.7013056e-12
1.6989136e-12
1.6993077e-12
1.7022839e-12
1.7076829e-12
1.7158153e-12
1.7237072e-12
9.3590375e-10
2.6719376e-09
5.4949807e-09
2.2944887e-08
1.2907519e-07
1.528316e-07
1.4126903e-07
2.0059628e-07
4.75625e-07
5.9598854e-07
5.9472211e-07
5.8992718e-07
6.5734535e-07
1.1280582e-06
1.6299111e-06
1.6808754e-06
1.5477189e-06
1.2174014e-06
1.4928824e-06
3.48225e-06
3.7594202e-06
1.9395272e-06
6.6074457e-07
2.0521923e-07
6.1966964e-08
1.9622597e-08
7.4088009e-09
3.5352754e-09
1.929045e-09
1.1233546e-09
6.84555e-10
4.3298165e-10
2.8279971e-10
1.8999613e-10
1.3090173e-10
9.2262677e-11
6.6396308e-11
4.8710283e-11
3.6384613e-11
2.7644477e-11
2.1348223e-11
1.6746451e-11
1.333823e-11
1.0783003e-11
8.8456382e-12
7.3614411e-12
6.2135213e-12
5.3178672e-12
4.6134072e-12
4.0552503e-12
3.6100677e-12
3.2528695e-12
2.9647526e-12
2.7312882e-12
2.5413789e-12
2.3864163e-12
2.2596806e-12
2.155884e-12
2.0708445e-12
2.0012314e-12
1.9443814e-12
1.8981539e-12
1.8608239e-12
1.8309957e-12
1.8075394e-12
1.7895386e-12
1.7762502e-12
1.7670752e-12
1.7615328e-12
1.7592443e-12
1.7599155e-12
1.763337e-12
1.769343e-12
1.7782816e-12
1.7866227e-12
8.3194879e-10
4.2965154e-09
7.372143e-09
4.2557012e-08
2.3590717e-07
2.851307e-07
2.561787e-07
3.2497537e-07
7.2170044e-07
9.1497088e-07
9.1371605e-07
9.1505599e-07
1.0291904e-06
1.7764908e-06
2.787481e-06
2.8080999e-06
2.4022258e-06
1.6587742e-06
1.5309212e-06
3.2364308e-06
4.970495e-06
2.5660945e-06
8.2869371e-07
2.7046469e-07
8.6124294e-08
2.6056104e-08
8.3898627e-09
3.6186644e-09
1.9471168e-09
1.1365935e-09
6.946334e-10
4.4057028e-10
2.8844993e-10
1.9421139e-10
1.3406838e-10
9.4663901e-11
6.8236274e-11
5.0135671e-11
3.7501114e-11
2.8528703e-11
2.205615e-11
1.7319331e-11
1.3806741e-11
1.1170162e-11
9.1688761e-12
7.6340688e-12
6.4457936e-12
5.517747e-12
4.7871289e-12
4.207731e-12
3.7452151e-12
3.3738105e-12
3.0740071e-12
2.8309001e-12
2.6330166e-12
2.4714502e-12
2.3392429e-12
2.2309158e-12
2.1421323e-12
2.0694363e-12
2.0100626e-12
1.961787e-12
1.9228164e-12
1.8916995e-12
1.8672607e-12
1.8485464e-12
1.8347835e-12
1.8253487e-12
1.8197422e-12
1.8175707e-12
1.8185313e-12
1.82241e-12
1.8290251e-12
1.8387716e-12
1.8474952e-12
6.4723575e-10
1.0338749e-08
1.4863578e-08
7.0641509e-08
3.6311024e-07
5.0275823e-07
4.3999128e-07
5.0621606e-07
1.0344111e-06
1.3159008e-06
1.3130587e-06
1.328345e-06
1.545488e-06
2.6957834e-06
5.0646732e-06
4.8620127e-06
3.7004293e-06
2.459107e-06
1.7556429e-06
2.5359424e-06
6.3963568e-06
5.7062532e-06
1.6461632e-06
5.0576493e-07
1.5488243e-07
4.1840464e-08
1.0670732e-08
3.7640193e-09
1.9601604e-09
1.1460287e-09
7.0260182e-10
4.4679602e-10
2.9323983e-10
1.9786387e-10
1.3685785e-10
9.6806741e-11
6.9895706e-11
5.1432612e-11
3.8524684e-11
2.9344637e-11
2.2713152e-11
1.7853701e-11
1.4245738e-11
1.1534408e-11
9.4740955e-12
7.8923473e-12
6.6664935e-12
5.7081748e-12
4.9530307e-12
4.3536574e-12
3.8747964e-12
3.4899619e-12
3.1790852e-12
2.9268223e-12
2.7213525e-12
2.5534926e-12
2.4160628e-12
2.3034055e-12
2.2110393e-12
2.1353905e-12
2.0735979e-12
2.0233588e-12
1.9828158e-12
1.9504646e-12
1.9250868e-12
1.9056935e-12
1.8914832e-12
1.8818096e-12
1.876155e-12
1.8741131e-12
1.8753671e-12
1.8797111e-12
1.886944e-12
1.8974994e-12
1.906534e-12
1.5381175e-09
2.9342733e-08
4.1233229e-08
1.2228561e-07
5.4608242e-07
8.2344885e-07
7.2454918e-07
7.8959324e-07
1.4511168e-06
1.8313696e-06
1.8625239e-06
1.914939e-06
2.3221346e-06
4.1846914e-06
7.9430931e-06
7.9267433e-06
5.910893e-06
3.7001855e-06
2.2321163e-06
2.2306817e-06
5.2412072e-06
6.0931059e-06
3.930238e-06
1.1542242e-06
2.943503e-07
6.4035765e-08
1.2975181e-08
3.8671998e-09
1.9657881e-09
1.152237e-09
7.0861626e-10
4.5186178e-10
2.972672e-10
2.0101719e-10
1.3931134e-10
9.8718583e-11
7.1393207e-11
5.2614004e-11
3.9464435e-11
3.0098829e-11
2.3324012e-11
1.8353115e-11
1.4657902e-11
1.187779e-11
9.7628904e-12
8.1375348e-12
6.8766299e-12
5.8899724e-12
5.1117929e-12
4.4936022e-12
3.9993015e-12
3.6017492e-12
3.2803627e-12
3.0193915e-12
2.8066927e-12
2.6328255e-12
2.4904029e-12
2.3736002e-12
2.2778003e-12
2.199319e-12
2.1352045e-12
2.0830799e-12
2.041027e-12
2.0074919e-12
1.9812151e-12
1.9611745e-12
1.9465414e-12
1.936648e-12
1.9309597e-12
1.9290563e-12
1.9306147e-12
1.935418e-12
1.9432776e-12
1.954647e-12
1.9639174e-12
3.5330779e-09
7.0317063e-08
1.0259618e-07
1.9787173e-07
7.749289e-07
1.2015925e-06
1.097748e-06
1.1635463e-06
2.0399882e-06
2.5543588e-06
2.907953e-06
3.126334e-06
3.8056985e-06
6.3674597e-06
6.6854747e-06
1.0036805e-05
8.5676363e-06
5.1573366e-06
2.9873066e-06
2.3262477e-06
3.6220971e-06
4.943726e-06
3.9751549e-06
1.4988564e-06
3.7894536e-07
7.5224046e-08
1.3867057e-08
3.8805501e-09
1.9643935e-09
1.1556744e-09
7.1296393e-10
4.5588163e-10
3.0062868e-10
2.0372741e-10
1.4146561e-10
1.0042387e-10
7.2745398e-11
5.3691376e-11
4.0328516e-11
3.0797138e-11
2.3893016e-11
1.8820751e-11
1.5045628e-11
1.2202142e-11
1.0036684e-11
8.3707535e-12
7.0771011e-12
6.06387e-12
5.2640186e-12
4.6280714e-12
4.119162e-12
3.7095465e-12
3.3781687e-12
3.1089018e-12
2.8893037e-12
2.7096933e-12
2.5624904e-12
2.4417134e-12
2.3426179e-12
2.2614153e-12
2.1950686e-12
2.1411309e-12
2.0976264e-12
2.0629539e-12
2.035815e-12
2.0151561e-12
2.000123e-12
1.9900273e-12
1.9843184e-12
1.9825644e-12
1.984434e-12
1.9897096e-12
1.9981859e-12
2.0103732e-12
2.019799e-12
1.0263163e-08
1.5397807e-07
2.3007795e-07
3.1047155e-07
1.0593689e-06
1.7217232e-06
1.6008768e-06
1.6637873e-06
2.9924097e-06
3.8089496e-06
5.4204336e-06
6.1815341e-06
5.8208409e-06
5.2559696e-06
4.8001992e-06
6.1193937e-06
8.0938556e-06
6.172972e-06
3.6344188e-06
2.6070975e-06
2.9277611e-06
3.6901089e-06
3.361983e-06
1.5048243e-06
3.9138396e-07
7.5747661e-08
1.3623964e-08
3.8152921e-09
1.9571842e-09
1.1567355e-09
7.158757e-10
4.5898257e-10
3.0340692e-10
2.0604364e-10
1.4335333e-10
1.0194438e-10
7.3967104e-11
5.4675027e-11
4.1124208e-11
3.1444806e-11
2.4423993e-11
1.9259454e-11
1.5411059e-11
1.2509104e-11
1.0296749e-11
8.5930047e-12
7.2687073e-12
6.2305169e-12
5.410243e-12
4.757513e-12
4.2347588e-12
3.8136831e-12
3.4727922e-12
3.1956109e-12
2.9694184e-12
2.7843096e-12
2.6325232e-12
2.5079307e-12
2.4056676e-12
2.3218472e-12
2.2533519e-12
2.1976683e-12
2.1527662e-12
2.1169995e-12
2.0890329e-12
2.0677829e-12
2.0523708e-12
2.0420889e-12
2.0363713e-12
2.034774e-12
2.036957e-12
2.0427128e-12
2.0518126e-12
2.0648148e-12
2.0743125e-12
2.1897003e-08
3.0397143e-07
4.8264082e-07
5.5944624e-07
1.4721664e-06
2.481154e-06
2.4074552e-06
2.5899085e-06
5.0101728e-06
6.5908495e-06
1.056534e-05
9.6222277e-06
5.3026682e-06
4.0412535e-06
3.7683834e-06
5.7051739e-06
5.7859295e-06
4.9997331e-06
3.3274775e-06
2.6213305e-06
2.7209079e-06
3.2585943e-06
3.2700072e-06
1.6292199e-06
3.896494e-07
7.1671174e-08
1.2463063e-08
3.6894624e-09
1.945572e-09
1.1557757e-09
7.175427e-10
4.6129044e-10
3.0565664e-10
2.080191e-10
1.4500229e-10
1.0329947e-10
7.5071535e-11
5.557414e-11
4.1858015e-11
3.2046512e-11
2.4920367e-11
1.9671768e-11
1.5756112e-11
1.2800139e-11
1.054422e-11
8.805182e-12
7.452162e-12
6.3904912e-12
5.5509418e-12
4.8823245e-12
4.3464294e-12
3.91445e-12
3.5644881e-12
3.2797452e-12
3.047241e-12
2.8568609e-12
2.7006741e-12
2.5724138e-12
2.4671026e-12
2.3807608e-12
2.3101948e-12
2.2528282e-12
2.206579e-12
2.1697585e-12
2.1409964e-12
2.1191806e-12
2.1034092e-12
2.092956e-12
2.087241e-12
2.0858084e-12
2.0883122e-12
2.0945384e-12
2.1042701e-12
2.1180925e-12
2.1275749e-12
2.0088434e-08
5.5310343e-07
9.0091282e-07
9.7960993e-07
2.0641063e-06
3.5703347e-06
3.7328449e-06
4.3856389e-06
9.4543154e-06
1.1877459e-05
1.1756363e-05
5.3359812e-06
3.9340126e-06
3.8179792e-06
3.7481119e-06
4.6495113e-06
5.269437e-06
4.5485948e-06
3.2540451e-06
2.7275987e-06
2.7837615e-06
3.3988222e-06
3.685679e-06
1.5835043e-06
3.3973775e-07
5.9017463e-08
1.0512312e-08
3.5468487e-09
1.9314314e-09
1.1531116e-09
7.1813301e-10
4.62905e-10
3.0744963e-10
2.0968132e-10
1.4644207e-10
1.045062e-10
7.6070442e-11
5.6396896e-11
4.2535736e-11
3.2606433e-11
2.5385196e-11
2.0059961e-11
1.6082499e-11
1.3076557e-11
1.0780112e-11
9.0080831e-12
7.6281012e-12
6.544308e-12
5.6865378e-12
5.0028589e-12
4.454473e-12
4.0121046e-12
3.6534814e-12
3.3615044e-12
3.1229512e-12
2.9275114e-12
2.7670949e-12
2.6353047e-12
2.5270568e-12
2.438284e-12
2.3657203e-12
2.3067295e-12
2.2591807e-12
2.2213444e-12
2.191817e-12
2.1694592e-12
2.153347e-12
2.1427368e-12
2.1370348e-12
2.1357744e-12
2.1386061e-12
2.145304e-12
2.1556669e-12
2.1703125e-12
2.1796893e-12
8.4115042e-08
9.1885163e-07
1.4913811e-06
1.5855735e-06
2.9805713e-06
5.1925378e-06
6.1268597e-06
8.5646293e-06
1.3920773e-05
1.3257455e-05
6.1899218e-06
3.7672825e-06
3.9138657e-06
4.028241e-06
4.3840404e-06
3.8271108e-06
4.2189566e-06
5.4614695e-06
4.6794615e-06
3.3816553e-06
3.0965593e-06
4.0692171e-06
3.6348253e-06
1.1900755e-06
2.502744e-07
4.4009106e-08
8.6977611e-09
3.4312379e-09
1.9158919e-09
1.1490066e-09
7.1779404e-10
4.6391412e-10
3.0884016e-10
2.1107023e-10
1.4769234e-10
1.0557968e-10
7.6974268e-11
5.7150576e-11
4.3162533e-11
3.3128296e-11
2.5821207e-11
2.0426063e-11
1.6391746e-11
1.3339525e-11
1.1005331e-11
9.2024193e-12
7.7970923e-12
6.6924259e-12
5.8174079e-12
5.11943e-12
4.5591549e-12
4.106875e-12
3.7399712e-12
3.4410649e-12
3.1967077e-12
2.9964058e-12
2.831919e-12
2.6967281e-12
2.5856482e-12
2.4945291e-12
2.4200363e-12
2.3594769e-12
2.3106732e-12
2.2718569e-12
2.2415929e-12
2.2187156e-12
2.2022803e-12
2.1915265e-12
2.1858477e-12
2.1847666e-12
2.1879327e-12
2.1951069e-12
2.2060948e-12
2.2215696e-12
2.2307474e-12
2.108702e-07
1.4274267e-06
2.2689207e-06
2.4152361e-06
4.6868846e-06
7.906721e-06
1.0179773e-05
1.4057704e-05
1.3551347e-05
6.8874393e-06
3.2879214e-06
3.4435945e-06
4.2519933e-06
4.0430224e-06
4.4451936e-06
4.164805e-06
4.4145641e-06
6.9166534e-06
6.9251811e-06
5.3804347e-06
4.0142776e-06
4.4003216e-06
3.0051988e-06
8.5081565e-07
1.7696343e-07
3.1947104e-08
7.42599e-09
3.3457796e-09
1.8991922e-09
1.1436804e-09
7.1665463e-10
4.6439504e-10
3.0987608e-10
2.1221678e-10
1.4877287e-10
1.0653532e-10
7.7792045e-11
5.7841652e-11
4.3743004e-11
3.3615417e-11
2.6230832e-11
2.077188e-11
1.6685219e-11
1.3590086e-11
1.1220684e-11
9.3888257e-12
7.9596409e-12
6.8352536e-12
5.9438869e-12
5.2323166e-12
4.660711e-12
4.1989635e-12
3.8241338e-12
3.5185827e-12
3.2686507e-12
3.0636715e-12
2.8952643e-12
2.7567939e-12
2.6429806e-12
2.5495951e-12
2.473238e-12
2.4111625e-12
2.3611462e-12
2.3213841e-12
2.2904106e-12
2.2670355e-12
2.2502939e-12
2.2394095e-12
2.2337636e-12
2.2328713e-12
2.2363824e-12
2.2440346e-12
2.2556427e-12
2.2719483e-12
2.2808311e-12
4.5868424e-07
2.1358472e-06
3.3311487e-06
3.6212908e-06
8.3940698e-06
9.7306604e-06
1.1455666e-05
1.2211926e-05
6.8811141e-06
3.2599672e-06
3.1156119e-06
3.2684304e-06
4.0668411e-06
4.0689026e-06
4.3869724e-06
4.3531818e-06
6.4225816e-06
7.7448324e-06
6.9353644e-06
6.3777639e-06
5.3545445e-06
4.433794e-06
2.2188335e-06
5.9324324e-07
1.2293511e-07
2.3430568e-08
6.6445564e-09
3.2790832e-09
1.8813637e-09
1.1373221e-09
7.1482718e-10
4.644155e-10
3.1059957e-10
2.1314802e-10
1.4970261e-10
1.0738242e-10
7.8532581e-11
5.8475866e-11
4.4281235e-11
3.4070749e-11
2.6616237e-11
2.1099025e-11
1.6964132e-11
1.3829169e-11
1.1426891e-11
9.5678682e-12
8.1161979e-12
6.9731553e-12
6.0662735e-12
5.341767e-12
4.7593507e-12
4.2885498e-12
3.9061257e-12
3.5941963e-12
3.3389043e-12
3.1294216e-12
2.9572348e-12
2.8155995e-12
2.6991457e-12
2.6035694e-12
2.5254096e-12
2.4618678e-12
2.4106794e-12
2.3700041e-12
2.3383473e-12
2.3144951e-12
2.2974635e-12
2.2864611e-12
2.280858e-12
2.2801558e-12
2.2840152e-12
2.2921589e-12
2.3043872e-12
2.3215217e-12
2.330016e-12
9.2718787e-07
3.1709457e-06
4.9404925e-06
5.5925259e-06
1.1655466e-05
8.9438664e-06
7.5029017e-06
7.0799558e-06
2.9955669e-06
4.3180282e-06
2.9380234e-06
3.2530861e-06
3.8197345e-06
3.861901e-06
4.120519e-06
4.3669103e-06
5.7626553e-06
8.5622918e-06
6.9682301e-06
5.9800669e-06
5.5524897e-06
4.0626701e-06
1.6084925e-06
4.0877556e-07
8.5196687e-08
1.7858039e-08
6.1788253e-09
3.2216712e-09
1.8624978e-09
1.1300982e-09
7.1240987e-10
4.6403485e-10
3.1104766e-10
2.1388772e-10
1.5049721e-10
1.0813273e-10
7.9203038e-11
5.9058133e-11
4.4780857e-11
3.4496917e-11
2.6979348e-11
2.1408932e-11
1.7229568e-11
1.4057603e-11
1.1624595e-11
9.7400511e-12
8.2671649e-12
7.1064551e-12
6.1848329e-12
5.4480017e-12
4.8552603e-12
4.3757934e-12
3.9860856e-12
3.6680282e-12
3.4075784e-12
3.1937563e-12
3.017923e-12
2.8732311e-12
2.7542249e-12
2.6565297e-12
2.5766257e-12
2.5116652e-12
2.4593434e-12
2.4177861e-12
2.3854711e-12
2.3611619e-12
2.3438563e-12
2.3327482e-12
2.3271957e-12
2.3266952e-12
2.3308927e-12
2.3395355e-12
2.3523923e-12
2.3703601e-12
2.3783659e-12
1.7857829e-06
4.7906612e-06
7.5682413e-06
9.1034568e-06
9.1339741e-06
4.6556408e-06
4.037884e-06
3.7364224e-06
3.2381527e-06
4.7546181e-06
2.9662476e-06
3.2211631e-06
3.7496245e-06
3.8311654e-06
3.5995272e-06
3.7992792e-06
5.9136513e-06
9.9122136e-06
8.3800274e-06
5.610139e-06
5.2316639e-06
3.1802827e-06
1.1264713e-06
2.7912388e-07
5.9619063e-08
1.4424221e-08
5.8872201e-09
3.1684868e-09
1.8427353e-09
1.1221429e-09
7.0948316e-10
4.6330292e-10
3.1125208e-10
2.144565e-10
1.5117038e-10
1.0879558e-10
7.9809232e-11
5.9593556e-11
4.5245081e-11
3.4896255e-11
2.732188e-11
2.1702879e-11
1.7482492e-11
1.4276126e-11
1.1814368e-11
9.905824e-12
8.4128998e-12
7.2354422e-12
6.2998018e-12
5.5512173e-12
4.9486054e-12
4.4608363e-12
4.064137e-12
3.7401873e-12
3.4747708e-12
3.2567641e-12
3.0774106e-12
2.9297649e-12
2.8082905e-12
2.708545e-12
2.6269527e-12
2.5606193e-12
2.5072012e-12
2.4647921e-12
2.4318434e-12
2.4070968e-12
2.3895326e-12
2.3783311e-12
2.3728401e-12
2.3725499e-12
2.3770991e-12
2.3862299e-12
2.39972e-12
2.4185249e-12
2.4259407e-12
3.3354285e-06
7.5058713e-06
8.9500257e-06
1.0656048e-05
5.2764465e-06
2.3078286e-06
2.0186381e-06
2.3663701e-06
3.3082977e-06
2.6971447e-06
3.4483955e-06
3.3560396e-06
3.7750858e-06
3.8699075e-06
3.5842784e-06
3.485089e-06
5.6829097e-06
1.3864246e-05
1.5981899e-05
5.9419737e-06
4.2451549e-06
2.3331481e-06
7.7078507e-07
1.9011183e-07
4.2780418e-08
1.2378518e-08
5.6791636e-09
3.116292e-09
1.8221507e-09
1.1136015e-09
7.0614642e-10
4.6228167e-10
3.1125104e-10
2.1487822e-10
1.5173728e-10
1.0938081e-10
8.0358089e-11
6.0085943e-11
4.5676851e-11
3.5270994e-11
2.7645443e-11
2.1982045e-11
1.7723783e-11
1.4485401e-11
1.199672e-11
1.0065583e-11
8.5537155e-12
7.3603671e-12
6.4113845e-12
5.6515829e-12
5.0395281e-12
4.5437998e-12
4.1403854e-12
3.810767e-12
3.5405651e-12
3.3185215e-12
3.1357682e-12
2.9852671e-12
2.8614049e-12
2.7596749e-12
2.6764483e-12
2.6087861e-12
2.5543079e-12
2.5110764e-12
2.4775178e-12
2.452353e-12
2.4345457e-12
2.423263e-12
2.4178419e-12
2.4177657e-12
2.4226796e-12
2.4323031e-12