/*--------------------------------*- C++ -*----------------------------------*\
| =========                 |                                                 |
| \\      /  F ield         | OpenFOAM: The Open Source CFD Toolbox           |
|  \\    /   O peration     | Version:  2.3.0                                 |
|   \\  /    A nd           | Web:      www.OpenFOAM.org                      |
|    \\/     M anipulation  |                                                 |
\*---------------------------------------------------------------------------*/
FoamFile
{
    version     2.0;
    format      ascii;
    class       volScalarField;
    location    "2e-06";
    object      p;
}
// * * * * * * * * * * * * * * * * * * * * * * * * * * * * * * * * * * * * * //

dimensions      [1 -1 -2 0 0 0 0];

internalField   nonuniform List<scalar> 
7500
(
35228.693
54922.888
-3106.0707
-42846.071
55847.954
53223.696
-103457.1
6601.8722
234165.14
142608.35
258232.65
317458.47
-223762.31
-736600.97
-940080.82
-931683.64
-863329.6
-433416.12
372958.79
842141.46
1608957.3
1670186.9
1371468.4
1151188.4
915887.8
719364.65
569169.16
455111.07
368575.81
302450.9
251326.2
211270.94
179465.65
153885.16
133062.76
115924.27
101673.07
89711.014
79583.366
70940.41
63510.195
57079.05
51477.464
46569.738
42246.318
38418.054
35011.856
31967.382
29234.476
26771.194
24542.24
22517.748
20672.301
18984.158
17434.624
16007.54
14688.871
13466.368
12329.284
11268.144
10274.552
9341.0286
8460.8752
7628.0585
6837.1127
6083.0565
5361.3216
4667.6907
3998.2434
3349.3087
2717.423
2099.2909
1491.7503
891.74438
296.20309
33982.237
56595.04
-2204.0292
-44722.293
53585.78
53277.313
-96348.38
8382.1927
224994.76
143918.83
266218.86
313236.16
-228220.06
-739608.49
-935525.39
-929936.5
-871320.52
-444634.59
307492.31
898313.66
1714202.6
1570728.1
1367639.6
1149212.7
914313.16
718204.28
568361.42
454543.29
368174.37
302163.77
251117.63
211116.85
179349.9
153796.79
132994.29
115870.48
101630.29
89676.584
79555.368
70917.423
63491.154
57063.149
51464.085
46558.403
42236.653
38409.764
35004.706
31961.184
29229.079
26766.473
24538.094
22514.094
20669.07
18981.294
17432.077
16005.27
14686.846
13464.557
12327.663
11266.692
10273.252
9339.865
8459.8349
7627.1303
6836.2869
6082.325
5360.6774
4667.1278
3997.7567
3348.8942
2717.077
2099.0108
1491.5338
891.59067
296.11084
33395.658
57273.378
-2704.999
-43861.68
49507.551
51055.025
-82521.714
9939.7798
213567.88
141122.85
272688.98
328954.52
-227351.57
-742252.16
-967651.33
-927460.28
-838639.47
-437812.21
459421.78
644310.2
1677800.9
1539081
1364133.5
1142441.6
909621.16
714994.93
566181.82
453032.69
367114.32
301408.17
250569.34
210711.68
179045.17
153563.81
132813.45
115728.15
101516.84
89585.117
79480.844
70856.118
63440.279
57020.586
51428.212
46527.96
42210.654
38387.43
34985.417
31944.441
29214.479
26753.688
24526.856
22504.179
20660.296
18973.507
17425.15
15999.095
14681.33
13459.626
12323.25
11262.741
10269.715
9336.7016
8457.0104
7624.6148
6834.0549
6080.3547
5358.9502
4665.628
3996.4713
3347.8122
2716.1897
2098.3115
1491.0175
891.25461
295.9541
30132.888
61966.186
-1810.3928
-47946.622
48836.178
47040.161
-73108.595
22823.805
194171.8
144172.18
274137.12
327343.87
-206413.02
-738096.84
-968353.39
-999945.28
-927506.22
-447853.56
430853.45
793218.4
1713505.4
1519009.3
1350101.9
1133934.4
903407.38
710485.01
563076.03
450874.43
365597.79
300325.77
249782.86
210129.74
178606.96
153228.37
132552.77
115522.75
101352.95
89452.837
79372.956
70767.278
63366.478
56958.784
51376.072
46483.669
42172.792
38354.875
34957.274
31919.989
29193.137
26734.982
24510.397
22489.647
20647.425
18962.074
17414.97
15990.011
14673.212
13452.36
12316.742
11256.911
10264.493
9332.0289
8452.8362
7620.8959
6830.7545
6077.4412
5356.3969
4663.4125
3994.5748
3346.2193
2714.8882
2097.2919
1490.2733
890.78243
295.75313
30324.351
60194.229
252.8424
-44370.455
48182.68
47850.987
-70505.901
19318.029
182306.05
142803.82
280221.67
336937.74
-193300.87
-747174.55
-1010289.4
-1024386.7
-804621.48
-391992.2
268804.99
755600.31
1666309.2
1508125.2
1341572.6
1126416.9
896274.38
704898.86
559167.11
448151.69
363681.97
298956.17
248786.03
209390.92
178049.71
152801.15
132220.26
115260.37
101143.3
89283.395
79234.573
70653.177
63271.573
56879.208
51308.853
46426.5
42123.863
38312.753
34920.817
31888.278
29165.427
26710.667
24488.978
22470.714
20630.635
18947.144
17401.662
15978.124
14662.576
13442.833
12308.2
11249.25
10257.625
9325.8772
8447.3361
7615.9918
6826.3989
6073.5939
5353.0238
4660.4847
3992.0686
3344.1154
2713.1712
2095.9503
1489.2994
890.17241
295.5068
27346.312
65216.825
-5926.2311
-49351.744
53910.687
46322.207
-52901.321
22282.594
154835.38
149425.45
282860.55
353452.52
-182564.78
-774035.09
-1023623.1
-1030122.8
-883009.36
-432848.62
301267.48
930384.7
1435074.2
1420271.2
1333581.7
1122225
888152.29
698298.36
554559.15
444944.79
361422.82
297338.35
247606.45
208515.13
177388.05
152293.06
131824.21
114947.39
100892.87
89080.71
79068.821
70516.333
63157.606
56783.53
51227.935
46357.597
42064.821
38261.866
34876.722
31849.879
29131.835
26681.156
24462.953
22447.683
20610.19
18928.944
17385.421
15963.602
14649.569
13431.168
12297.731
11239.852
10249.191
9318.3156
8440.5691
7609.9527
6821.0309
6068.8485
5348.8603
4656.869
3988.9725
3341.5159
2711.0507
2094.2955
1488.1019
889.42842
295.2171
25415.071
62835.045
-5564.8597
-47845.07
48561.006
45221.938
-41754.749
28928.567
145885.69
128640.07
291955.61
369924.6
-167615.65
-802307.27
-1051739.7
-1033160.4
-904940.53
-430296.84
266751.33
789091.92
1298595
940383.56
1269128.5
1089131.1
876927.61
690677.89
549341.28
441322.98
358868.17
295505.47
246267.51
207519.18
176634.27
151713.25
131371.52
114589.11
100605.76
88848.016
78878.266
70358.802
63026.241
56673.107
51134.429
46277.878
41996.429
38202.85
34825.523
31805.241
29092.74
26646.772
24432.596
22420.789
20586.289
18907.644
17366.393
15946.569
14634.297
13417.458
12285.414
11228.783
10239.247
9309.3919
8432.5755
7602.8122
6814.6781
6063.2279
5343.9251
4652.5801
3985.2978
3338.4297
2708.5329
2092.3319
1486.6834
888.55182
294.88454
24863.044
63368.824
-8365.4532
-49269.936
53217.176
32721.017
-29090.172
29473.523
133614.2
127523.02
295426.75
389321.47
-183061.52
-796340.26
-1102828.7
-1084871.6
-884482.04
-426557.94
234971.75
719574.69
1187368.9
1057691.5
1012605.2
1049405.8
861705.81
682002.15
543600.08
437348.44
356060.22
293486.72
244789.8
206417.86
175799.2
151069.78
130868.3
114190.2
100285.61
88588.169
78665.179
70182.408
62878.952
56549.139
51029.323
46188.16
41919.365
38136.272
34767.695
31754.766
29048.482
26607.803
24398.153
22390.24
20559.11
18883.397
17344.708
15927.138
14616.856
13401.784
12271.318
11216.103
10227.844
9299.149
8423.3913
7594.6006
6807.3657
6056.7527
5338.2348
4647.6313
3981.0549
3334.8644
2705.6236
2090.0633
1485.0464
887.54385
294.50956
24196.05
61439.028
-8672.8532
-44412.043
50258.997
27094.714
-40456.546
37234.877
123471.62
113824.28
313241.08
411111.94
-142265.5
-821783.78
-1156300.2
-1116987.6
-911631.44
-445913.57
160828.75
660589.74
1163846.6
1035323.7
965945.07
1011594
844323.26
672690.77
537447.18
433078.98
353036.73
291308.13
243191.67
205224.38
174892.5
150369.85
130319.98
113754.84
99935.668
88303.717
78431.585
69988.771
62717.051
56412.698
50913.496
46089.167
41834.232
38062.636
34703.663
31698.811
28999.363
26564.504
24359.841
22356.222
20528.812
18856.337
17320.484
15905.407
14597.33
13384.219
12255.505
11201.864
10215.028
9287.625
8413.0486
7585.3446
6799.116
6049.441
5331.8041
4642.0342
3976.2529
3330.8269
2702.3277
2087.4931
1483.1932
886.40579
294.09253
23967.528
61560.203
-12489.505
-39118.959
53695.29
17903.527
-37745.997
33774.284
104759.39
110225.05
313663.57
449290.32
-133127.23
-815939.07
-1195063
-1130688.6
-941686.48
-522191.92
157142.31
723226.61
1127951.2
1025689.6
955960.89
977597.78
827301.98
663097.79
530981.15
428565.84
349831.12
288992.82
241489.49
203950.52
173922.81
149619.89
129731.44
113286.77
99558.839
87996.953
78179.305
69779.356
62541.725
56264.75
50787.742
45981.559
41741.578
37982.399
34633.81
31637.698
28945.656
26517.11
24317.858
22318.905
20495.54
18826.59
17293.825
15881.468
14575.799
13364.83
12238.033
11186.116
10200.839
9274.8548
8401.5769
7575.0689
6789.9491
6041.3096
5324.6465
4635.7995
3970.8999
3326.3235
2698.6497
2084.6245
1481.1255
885.13869
293.6338
21288.148
61978.452
-13484.356
-36168.802
55607.211
15370.722
-36523.221
35172.559
87614.148
101742.15
320693.83
473632.59
-111266.8
-832082.59
-1189757.2
-1193299.4
-954488.52
-541787.82
66589.557
905123.3
1115251.8
1027930.7
945391.21
946942.29
811333.02
653385.1
524276.18
423852.92
346472.8
286561.25
239697.78
202606.76
172897.83
148825.67
129107.04
112789.34
99157.741
87669.937
77909.981
69555.483
62354.042
56106.171
50652.781
45865.93
41641.898
37895.976
34558.484
31571.724
28887.612
26465.831
24272.385
22278.443
20459.425
18794.268
17264.829
15855.404
14552.333
13343.678
12218.954
11168.903
10185.316
9260.8711
8389.0035
7563.7964
6779.8843
6032.3741
5316.7747
4628.9375
3965.0042
3321.3601
2694.5941
2081.4604
1478.8454
883.74357
293.13369
18236.485
64054.316
-15587.152
-33160.398
56982.416
9829.1615
-28295.318
34976.835
77467.683
86663.459
328949.26
497418.25
-90345.601
-834326.35
-1215277.5
-1238888.1
-986435.28
-525911.21
-2273.3037
919089.53
1127086.2
1031648.8
930989.16
919663.93
796609
643644.43
517388.62
418977.58
342987.52
284031.48
237829.4
201202.41
171824.43
147992.31
128450.69
112265.56
98734.719
87324.522
77625.091
69318.341
62154.969
55937.749
50509.264
45742.82
41535.643
37803.746
34478.005
31501.157
28825.458
26410.863
24223.589
22234.977
20420.59
18759.476
17233.586
15827.292
14526.999
13320.821
12198.317
11150.268
10168.495
9245.704
8375.3543
7551.5487
6768.9397
6022.6494
5308.2009
4621.4578
3958.5732
3315.9428
2690.1651
2078.0039
1476.3547
882.22146
292.59252
14559.75
64216.384
-16749.299
-32920.317
56414.588
5088.1241
-24005.861
41889.744
65087.43
81197.285
328502.61
525105.83
-91566.31
-827715.33
-1236556.8
-1275230
-1037726.2
-507417.41
-79302.514
804706.45
1131898.4
1032867.5
914795.74
895267.38
783147.94
633924.46
510360.99
413971.46
339397.75
281419.42
235895.7
199745.74
170708.69
147124.39
127765.87
111718.13
98291.879
86962.372
77325.964
69069.001
61945.376
55760.199
50357.78
45612.719
41423.222
37706.05
34392.661
31426.242
28759.404
26352.383
24171.62
22188.639
20379.146
18722.31
17200.178
15797.204
14499.858
13296.311
12176.167
11130.248
10150.408
9229.382
8360.6533
7538.3462
6757.1322
6012.1498
5298.9366
4613.3698
3951.6143
3310.0771
2685.367
2074.258
1473.6555
880.5734
292.01062
12206.426
61346.178
-19064.174
-32265.602
51346.259
2047.691
-24128.146
43070.656
54783.809
76006.555
345280.44
541707.06
-92819.64
-850086.52
-1229387.8
-1315893.4
-1080184.1
-551104.09
-127697.62
742597.73
1142501
1032554.7
897249.1
873807.77
771020.88
624249.34
503225.2
408861.37
335723.1
278739.02
233906.72
198244.03
169556.03
146225.97
127055.68
111149.45
97831.105
86584.98
77013.794
68808.429
61726.051
55574.167
50198.863
45476.07
41305.004
37603.201
34302.716
31347.203
28689.639
26290.553
24116.619
22139.548
20335.196
18682.858
17164.682
15765.205
14470.967
13270.197
12152.547
11108.881
10131.088
9211.9318
8344.923
7524.208
6744.4778
6000.8884
5288.993
4604.6825
3944.1347
3303.7685
2680.2039
2070.2255
1470.7497
878.80041
291.38831
10776.42
55322.509
-20641.852
-34579.175
44470.887
-4605.0187
-26213.144
43722.523
38314.821
77169.301
361134.87
574026.54
-100951.9
-887144.38
-1257258.7
-1331036.6
-1126284.4
-560715.11
-132189.64
767265.85
1128214.6
1030904.6
877948.26
854470.3
760070.72
614600.32
496003.97
403670.05
331980.59
276002.53
231871.28
196703.75
168371.24
145300.69
126322.91
110561.67
97354.087
86193.687
76689.659
68537.496
61497.705
55380.237
50032.995
45333.276
41181.329
37495.484
34208.41
31264.243
28616.338
26225.523
24058.713
22087.812
20288.835
18641.203
17127.169
15731.357
14440.379
13242.524
12127.496
11086.2
10110.562
9193.3781
8328.1848
7509.1522
6730.9919
5988.8781
5278.3803
4595.4043
3936.1412
3297.0224
2674.6798
2065.9093
1467.6379
876.90353
290.72594
8778.2992
48017.544
-21391.338
-41999.395
32726.686
-14989.898
-33259.09
38121.288
22958.427
76105.566
378644.79
615480.17
-92326.27
-945683.52
-1312176.2
-1389843.2
-1176014.6
-597583.43
-154734.06
669749.99
1113553.4
1022614.3
855872.5
835956.28
750158.49
604954.44
488715.61
398416.97
328185.08
273220.66
229797.14
195130.6
167158.57
144351.75
125570.02
109956.72
96862.338
85789.699
76354.526
68256.988
61260.978
55178.938
49860.617
45184.703
41052.503
37383.156
34109.963
31177.549
28539.659
26157.428
23998.019
22033.534
20240.15
18597.419
17087.703
15695.715
14408.142
13213.335
12101.05
11062.236
10088.859
9173.7446
8310.4588
7493.1959
6716.6889
5976.1311
5267.1089
4585.5436
3927.6404
3289.844
2668.7986
2061.3123
1464.3237
874.88385
290.02385
7958.1154
40722.013
-22575.962
-52524.395
21272.242
-32451.092
-44759.728
25409.65
-1141.2925
78778.674
395349.58
656678.51
-82187.803
-964624.86
-1325419.9
-1449104.9
-1252370.6
-714514.95
-254979.39
354498.7
1120846.2
1033582.6
828371.18
817963.04
741363.11
595292.39
481375.29
393118.91
324349.48
270402.79
227691.1
193529.58
165921.78
143382.02
124799.21
109336.3
96357.215
85374.097
76009.267
67967.612
61016.453
54970.748
49682.126
45030.684
40918.805
37266.456
34007.576
31087.293
28459.749
26086.396
23934.646
21976.808
20189.222
18551.577
17046.345
15658.333
14374.303
13182.67
12073.244
11037.021
10066.004
9153.0536
8291.7642
7476.3555
6701.5828
5962.659
5255.1885
4575.1084
3918.6389
3282.2385
2662.5645
2056.4374
1460.8086
872.74248
289.28239
6660.1086
34397.982
-24158.68
-60569.241
18272.682
-50369.932
-51636.839
10857.314
-41694.492
70437.205
419153.99
697055.4
-109510.04
-967308.84
-1303347.8
-1448596.7
-1252704.7
-761714.34
-422123.81
83620.169
755260.38
993341.44
808555.45
802572.9
733902.11
585591.34
473995.32
387790.36
320485.02
267557.08
225559.12
191905.11
164664.19
142394.02
124012.45
108701.97
95839.934
84947.855
75654.668
67670.009
60764.653
54756.103
49497.884
44871.523
40780.492
37145.598
33901.432
30993.632
28376.744
26012.541
23868.694
21917.718
20136.125
18503.741
17003.153
15619.26
14338.904
13150.566
12044.11
11010.581
10042.021
9131.3259
8272.119
7458.6465
6685.6868
5948.4732
5242.6284
4564.1065
3909.143
3274.2108
2655.9811
2051.2876
1457.0945
870.48051
288.50192
5332.852
29765.577
-27441.629
-63435.055
25974.53
-56968.575
-39988.015
11899.044
-83500.009
35317.613
436815.94
727546.69
-136583.97
-940144.64
-1304204.7
-1439869.3
-1239655.6
-909028.63
-550435.48
-93366.621
-789.63983
850488.36
778777.82
791964.96
728229.31
575819.65
466583.62
382443.75
316601.48
264690.65
223406.43
190261.09
163388.74
141390.02
123211.47
108055.08
95311.584
84511.846
75291.436
67364.757
60506.055
54535.397
49308.219
44707.494
40637.797
37020.781
33791.699
30896.71
28290.767
25935.97
23800.254
21856.346
20080.93
18453.972
16958.177
15578.541
14301.985
13117.057
12013.68
10982.944
10016.934
9108.5817
8251.5406
7440.0839
6669.0136
5933.5843
5229.4378
4552.5455
3899.159
3265.7662
2649.0525
2045.8656
1453.1835
868.09907
287.68281
4308.0845
26973.46
-33817.526
-62123.683
32565.786
-57163.74
-19010.068
36580.074
-59501.752
36679.251
421058.93
720527.89
-108766.14
-931897.46
-1320718.2
-1454135.3
-1259093.3
-737356.11
-673293.44
-104067.58
-406232.28
348349.43
724514.05
786850.69
723204.04
565739.43
459138.49
377089.93
312707.39
261809.71
221237.59
188600.92
162098.02
140371.99
122397.84
107396.87
94773.142
84066.858
74920.211
67052.379
60241.091
54308.989
49113.433
44538.852
40490.932
36892.186
33678.534
30796.66
28201.932
25856.783
23729.413
21792.766
20023.7
18402.327
16911.469
15536.22
14263.584
13082.177
11981.98
10954.134
9990.7649
9084.8401
8230.0455
7420.6819
6651.5756
5918.003
5215.6256
4540.4328
3888.6929
3256.9093
2641.7824
2040.1744
1449.0773
865.5993
286.82543
3231.383
24898.406
-42648.537
-54452.185
36201.512
-62673.215
-3641.4632
42590.323
44749.999
63360.119
419211.08
723447
-102344.19
-939850.63
-1339887.8
-1474674.9
-1276534.6
-963946.05
-726741.32
-359909.42
-376125.21
165295.16
554692.64
783814.37
706291.7
555087.66
451669.14
371739.33
308810.23
258919.64
219056.57
186927.59
160794.31
139341.72
121572.94
106728.43
94225.487
83613.598
74541.569
66733.349
59970.153
54077.205
48913.799
44365.827
40340.094
36759.98
33562.079
30693.604
28110.345
25775.07
23656.25
21727.047
19964.497
18348.858
16863.073
15492.337
14223.736
13045.957
11949.04
10924.176
9963.534
9060.1192
8207.6497
7400.4544
6633.3847
5901.7395
5201.2006
4527.7759
3877.7509
3247.6453
2634.1748
2034.2171
1444.778
862.98235
285.93017
2726.408
24350.846
-53932.431
-41522.287
45948.19
-22910.044
-1528.6182
38915.639
100739.71
79502.756
419323.14
715500.9
-112751.3
-953193.14
-1350887.3
-1488336.6
-1288149
-1000607
-735302.66
-667361.01
-286974.43
47850.297
510650.48
767039.78
684093.31
544103.52
444197.91
366402.21
304916.53
256025.12
216866.84
185243.73
159479.63
138300.77
120738.01
106050.75
93669.407
83152.706
74156.033
66408.096
59693.598
53840.344
48709.567
44188.63
40185.463
36624.317
33442.466
30587.657
28016.105
25690.918
23580.84
21659.253
19903.376
18293.615
16813.034
15446.93
14182.474
13008.426
11914.884
10893.091
9935.2614
9034.4366
8184.3684
7379.4146
6614.4524
5884.8038
5186.1712
4514.5818
3866.3389
3237.9789
2626.2335
2027.9968
1440.2876
860.24939
284.9974
1806.5115
22249.131
-65761.015
-34794.725
60480.649
60964.515
-1691.3842
42238.936
108368.35
79758.112
419793.85
695006.52
-131290.05
-970732.1
-1366718.9
-1501946.7
-1298145.1
-983138.65
-775760.14
-641944.16
-363035.68
20338.342
490655.18
738999.43
661803.92
533034.99
436751.18
361088.09
301032
253130.18
214671.43
183551.65
158155.77
137250.54
119894.15
105364.7
93105.612
82684.759
73764.076
66077.013
59411.75
53598.677
48500.967
44007.456
40027.205
36485.339
33319.816
30478.923
27919.303
25604.405
23503.251
21589.445
19840.391
18236.644
16761.392
15400.035
14139.832
12969.612
11879.538
10860.903
9905.9664
9007.8092
8160.2164
7357.5755
6594.79
5867.2055
5170.5457
4500.8577
3854.4629
3227.9151
2617.9624
2021.5157
1435.6081
857.40163
284.02753
1979.2729
18130.986
-84628.868
-48710.315
104694.48
97925.078
-1731.3662
41724.617
104554.8
81456.599
419729
667755.79
-158891.22
-992143.56
-1383472.9
-1513747.5
-1307000.2
-989725.03
-787182.25
-637401.41
-384164.16
15085.699
482581.92
710382.32
640609.14
522012.72
429352.32
355805.29
297161.51
250238.31
212472.95
181853.36
156824.29
136192.26
119042.35
104671.08
92534.742
82210.279
73366.128
65740.454
59124.906
53352.454
48288.209
43822.484
39865.472
36343.176
33194.243
30367.501
27820.024
25515.606
23423.548
21517.681
19775.592
18177.989
16708.186
15351.687
14095.838
12929.542
11843.024
10827.631
9875.6674
8980.2532
8135.2081
7334.9498
6574.4085
5848.9542
5154.3325
4486.6106
3842.1288
3217.4586
2609.3653
2014.7734
1430.7414
854.4403
283.02094
3646.6955
17633.31
-97199.271
-86378.02
108530.44
108618.62
-848.01944
41205.036
102667.69
83907.054
417232.61
637685.22
-181291.82
-1016809.3
-1391015.8
-1521135
-1320543.3
-997534.74
-789701.83
-634435.04
-384503.78
22228.705
474688.47
683182.63
620690.83
511121.45
422020.77
350560.91
293309.27
247352.51
210273.68
180150.63
155486.59
135127.04
118183.47
103970.6
91957.372
81729.739
72962.578
65398.745
58833.339
53101.904
48071.488
43633.879
39700.406
36197.952
33065.853
30253.482
27718.347
25424.591
23341.792
21444.013
19709.026
18117.692
16653.453
15301.918
14050.521
12888.242
11805.366
10793.297
9844.3823
8951.7844
8109.3573
7311.5495
6553.3187
5830.0593
5137.5396
4471.8474
3829.3424
3206.6145
2600.4462
2007.7785
1425.6899
851.36666
281.97805
4339.5114
26954.341
-74249.37
-100856.14
101351.03
109551.13
2271.2976
42033.09
98768.822
83891.73
416310.23
616991.51
-205124.91
-1035178.7
-1407092.4
-1502470.1
-1332437.6
-1010360.6
-794382.21
-625271.09
-372241.03
28198.144
467019.45
657817.89
602044.72
500419.33
414772.06
345360.9
289478.81
244475.35
208075.6
178445.01
154143.89
134055.86
117318.32
103263.89
91374.027
81243.568
72553.783
65052.182
58537.299
52847.238
47850.983
43441.795
39532.138
36049.778
32934.742
30136.951
27614.347
25331.423
23258.041
21368.493
19640.738
18055.793
16597.228
15250.759
14003.91
12845.736
11766.586
10757.918
9812.1282
8922.4181
8082.6777
7287.3867
6531.531
5810.53
5120.175
4456.575
3816.1097
3195.3877
2591.2092
2000.5328
1420.4558
848.18198
280.89926
2640.9909
46433.575
-64518.208
-103609.87
95854.764
105522.7
6758.0437
43619.851
92701.161
81271.054
417870.43
602481
-238543.15
-1050139.4
-1421207.9
-1473344.4
-1349484.3
-1029928.3
-810501.96
-607878.46
-349691.9
36787.981
460350.46
634591.63
584601.1
489945.12
407618.27
340210.14
285673.11
241609.03
205880.41
176737.86
152797.28
132979.59
116447.61
102551.53
90785.179
80752.159
72140.069
64701.038
58237.014
52588.651
47626.859
43246.374
39360.791
35898.761
32801.004
30017.988
27508.094
25236.166
23172.35
21291.167
19570.77
17992.328
16539.544
15198.24
13956.031
12802.047
11726.705
10721.515
9778.922
8892.1693
8055.1824
7262.4732
6509.0558
5790.3755
5102.2467
4440.8005
3802.4365
3183.7829
2581.6583
1993.039
1415.0412
844.88756
279.78496
3858.2169
52372.795
-59135.334
-100440.02
91438.019
99828.777
11400.616
46132.426
85778.467
76960.035
416578.66
582664.64
-275732.9
-1074799.2
-1428158.1
-1479047.5
-1367984.1
-1053350.3
-817808.94
-584656.94
-321416.32
48754.061
454326.06
613534.84
568268
479723.26
400568.34
335112.53
281894.66
238755.4
203689.61
175030.36
151447.72
131899
115571.95
101834.04
90191.258
80255.868
71721.734
64345.565
57932.697
52326.322
47399.272
43047.747
39186.479
35745.001
32664.725
29896.67
27399.655
25138.878
23084.768
21212.083
19499.162
17927.335
16480.434
15144.39
13906.909
12757.199
11685.742
10684.105
9744.78
8861.0524
8026.8845
7236.8205
6485.9035
5769.6047
5083.7627
4424.5304
3788.3286
3171.8051
2571.7976
1985.3001
1409.4484
841.4847
278.63556
4403.8236
50692.992
-56615.257
-97779.775
87087.704
93741.073
15622.973
48795.241
79501.494
72775.11
412486.75
551446.11
-313068.72
-1097279.7
-1442526.5
-1459318.3
-1401063
-1066901.8
-814560.84
-539422.57
-288353.81
62181.591
448683.31
594500.51
552951.92
469767.47
393628.67
330071.11
278145.48
235916.05
201504.46
173323.56
150096.06
130814.81
114691.94
101111.9
89592.657
79755.022
71299.052
63985.994
57624.545
52060.421
47168.364
42846.04
39009.31
35588.59
32525.986
29773.067
27289.093
25039.613
22995.347
21131.282
19425.953
17860.848
16419.928
15089.235
13856.569
12711.214
11643.719
10645.706
9709.718
8829.0817
7997.7967
7210.44
6462.084
5748.2267
5064.7308
4407.7719
3773.792
3159.4594
2561.6311
1977.3192
1403.6795
837.97474
277.45144
-8094.3866
50529.684
-54509.783
-93711.626
83418.798
88130.882
19111.333
51354.553
75762.793
68929
406198.41
517547.97
-339655.91
-1119382.1
-1449237.6
-1454300.2
-1453832.7
-1075208.3
-812320.15
-528642.55
-256982.73
75510.392
443463
577305.47
538564.99
460083.56
386803.43
325088.19
274427.23
233092.33
199326.08
171618.38
148743.06
129727.63
113808.09
100385.54
88989.736
79249.924
70872.278
63622.539
57312.74
51791.102
46934.27
42641.368
38829.384
35429.616
32384.864
29647.247
27176.466
24938.425
22904.131
21048.808
19351.182
17792.899
16358.056
15032.804
13805.035
12664.113
11600.653
10606.336
9673.7518
8796.2713
7967.9316
7183.343
6437.6075
5726.2503
5045.1587
4390.5316
3758.8325
3146.7506
2551.163
1969.0993
1397.7369
834.35903
276.233
-21737.961
49440.353
-52035.612
-88788.156
80318.524
83259.977
22081.77
53536.526
73628.769
65725.702
395859.04
491409.46
-368907.65
-1145898.3
-1453497.1
-1473497.8
-1463327.4
-1131362.3
-758853.43
-491396.97
-241991.88
87528.157
438547.44
561324.84
524655.83
450421.28
379920.63
320040.29
270649.66
230217.22
197104
169876.27
147358.89
128614.1
112901.9
99640.172
88370.559
78730.858
70433.447
63248.624
56991.818
51513.801
46693.157
42430.497
38643.963
35265.752
32239.375
29517.515
27060.324
24834.069
22810.054
20963.742
19274.059
17722.815
16294.24
14974.603
13751.889
12615.543
11556.249
10565.748
9636.679
8762.4581
7937.1606
7155.4313
6412.4029
5703.6281
5025.0201
4372.8011
3743.4572
3133.699
2540.4245
1960.6801
1391.6662
830.6871
275.03085
-21580.815
46485.775
-50137.896
-83005.767
77433.141
78898.62
24664.058
55472.787
72571.552
63861.25
385278.1
463594.07
-408037.54
-1167176
-1471830.2
-1477670.4
-1456638.2
-1201286.7
-731461.57
-346732.21
-242093.88
93146.696
433993.25
546306.61
511006.62
440649.17
372885.41
314857.81
266761.28
227252.19
194808.96
168074.73
145926.03
127460.42
111962.37
98866.925
87727.921
78191.92
69977.675
62860.184
56658.371
51225.643
46442.584
42211.344
38451.259
35095.457
32088.186
29382.712
26939.655
24725.661
22712.338
20875.401
19193.982
17650.059
16228.007
14914.21
13696.754
12565.168
11510.208
10523.673
9598.2592
8727.426
7905.2893
7126.5295
6386.3112
5680.216
5004.1832
4354.4596
3727.5545
3120.2007
2529.3179
1951.9684
1385.3777
826.87112
273.75771
-21062.562
43928.836
-48511.049
-77399.604
74696.941
74877.827
26937.411
57117.341
72348.665
62455.74
376830.68
422692.08
-451232.92
-1190256.9
-1490386.6
-1518516.8
-1469654
-1284905.5
-726812.01
-342489.6
-240752.15
94357.33
430143.8
532390.7
497737.1
430876.65
365776.9
309598.64
262805.54
224230.45
192466.77
166234.09
144460.67
126279.64
111000.12
98074.53
87069.051
77639.141
69510.034
62461.508
56316.048
50929.746
46185.231
41986.223
38253.277
34920.476
31932.817
29244.168
26815.626
24614.225
22611.886
20784.582
19111.653
17575.255
16159.906
14852.112
13640.061
12513.369
11462.863
10480.408
9558.752
8691.4025
7872.5165
7096.811
6359.483
5656.1439
4982.76
4335.6032
3711.2064
3106.3256
2517.9032
1943.0155
1378.916
822.95091
272.45062
-20443.529
41455.012
-47073.68
-72353.944
72017.553
71096.077
28837.148
58455.293
72812.826
59703.977
367920.81
372038.31
-488001.45
-1213623.3
-1495017.9
-1567214.7
-1529464.2
-1312975.2
-706415.43
-351478.86
-241652.28
93270.995
427124.93
519540.27
484812.25
421102.73
358595.25
304262.03
258781.36
221150.92
190076.45
164353.47
142962.09
125071.13
110014.63
97262.556
86393.591
77072.222
69030.274
62052.386
55964.673
50625.965
45920.975
41755.031
38049.932
34740.735
31773.209
29101.833
26688.196
24499.727
22508.67
20691.26
19027.054
17498.387
16089.925
14788.299
13581.803
12460.139
11414.212
10435.949
9518.1562
8654.3877
7838.8432
7066.2773
6331.9206
5631.4146
4960.7535
4316.2349
3694.4161
3092.0766
2506.1836
1933.8235
1372.2829
818.92765
271.10991
-19808.239
38939.932
-45722.082
-67594.76
69351.961
67418.05
30531.124
59454.783
73546.817
56252.796
359716.44
318977.43
-516558.61
-1235426.3
-1497435.5
-1566885.2
-1536033.3
-1309783.9
-692932.23
-351734.31
-242805.84
90344.948
425274.17
507753.79
472193.7
411323.18
351339.61
298846.88
254687.48
218012.36
187636.86
162431.91
141429.45
123834.21
109005.33
96430.515
85701.132
76490.825
68538.112
61632.581
55604.048
50314.132
45649.678
41517.651
37841.124
34556.152
31609.292
28955.649
26557.316
24382.127
22402.656
20595.408
18940.162
17419.436
16018.049
14722.76
13521.969
12405.472
11364.249
10390.294
9476.4701
8616.3809
7804.2698
7034.9297
6303.6257
5606.0303
4938.1663
4296.3577
3677.1865
3077.4566
2494.1621
1924.3948
1365.4803
814.80258
269.73595
-19044.899
36378.235
-44371.882
-62874.216
66566.479
63876.94
31923.697
60147.759
74880.137
52900.894
347304.92
264247.86
-553151.82
-1260239
-1507488.6
-1576325.4
-1548375
-1310933.4
-682295.53
-351694.24
-245386.92
86122.056
424787.79
496997.09
459832.09
401530.5
344008.23
293351.73
250522.39
214813.34
185146.74
160468.31
139861.82
122568.08
107971.55
95577.859
84991.217
75894.566
68033.228
61201.828
55233.949
49994.062
45371.182
41273.95
37626.742
34366.633
31440.986
28805.55
26422.93
24261.378
22293.805
20496.993
18850.949
17338.379
15944.259
14655.479
13460.55
12349.359
11312.968
10343.438
9433.6906
8577.3806
7768.7958
7002.7687
6274.5996
5579.9931
4915.001
4275.9743
3659.5205
3062.4683
2481.8421
1914.7315
1358.5101
810.57697
268.3291
-18372.951
33978.477
-42986.306
-58280.467
63614.415
60402.196
33235.1
60575.857
75547.693
51279.269
328149.65
201471.86
-594361.23
-1292175.1
-1513535.8
-1590522.5
-1560309.2
-1226832.3
-648846.25
-352942.57
-250623.69
80063.745
425728.94
487297.82
447673.52
391714.73
336598.48
287774.8
246284.41
211552.29
182604.69
158461.45
138258.16
121271.88
106912.56
94703.977
84263.337
75283.02
67515.265
60759.826
54854.127
49665.542
45085.308
41023.779
37406.66
34172.072
31268.203
28651.459
26284.974
24137.426
22182.072
20395.978
18759.385
17255.192
15868.535
14586.44
13397.53
12291.79
11260.361
10295.375
9389.8136
8537.3841
7732.42
6969.7943
6244.8433
5553.3046
4891.2598
4255.0874
3641.4209
3047.1142
2469.2273
1904.8355
1351.3743
806.2521
266.88971
-17686.732
31312.591
-41591.318
-51757.31
60422.228
56946.745
34424.716
60817.552
75844.767
52119.799
298692.36
147065.17
-641432.67
-1329074.8
-1520120.5
-1593598.7
-1472307.2
-1309125.3
-627723.03
-349841
-262552.37
70609.561
428277.97
478366.73
435640.2
381863.37
329106.88
282114
241971.65
208227.47
180009.15
156409.99
136617.34
119944.63
105827.56
93808.191
83516.924
74655.711
66983.826
60306.242
54464.299
49328.336
44791.859
40766.97
37180.736
33972.349
31090.84
28493.291
26143.376
24010.209
22067.405
20292.32
18665.433
17169.843
15790.852
14515.622
13332.894
12232.751
11206.417
10246.097
9344.8337
8496.3879
7695.1403
6936.0056
6214.3571
5525.966
4866.9443
4233.6992
3622.8904
3031.3965
2456.3203
1894.7083
1344.0747
801.8293
265.41817
-16960.031
28680.417
-40171.217
-47281.152
56957.894
53522.673
35371.264
60840.865
76096.288
52057.984
278446.72
130572.27
-694455.43
-1343549.1
-1524833.3
-1598736.1
-1492967.9
-1443954.9
-630951.66
-339572.51
-278431.52
64071.795
432193.4
470547.94
423724.82
371963.61
321529.21
276366.96
237582.03
204836.96
177358.42
154312.45
134938.08
118585.28
104715.64
92889.753
82751.351
74012.115
66438.469
59840.706
54064.154
48982.183
44490.613
40503.335
36948.812
33767.329
30908.784
28330.949
25998.054
23879.66
21949.747
20185.969
18569.053
17082.3
15711.181
14443.003