/*--------------------------------*- C++ -*----------------------------------*\
| =========                 |                                                 |
| \\      /  F ield         | OpenFOAM: The Open Source CFD Toolbox           |
|  \\    /   O peration     | Version:  2.3.0                                 |
|   \\  /    A nd           | Web:      www.OpenFOAM.org                      |
|    \\/     M anipulation  |                                                 |
\*---------------------------------------------------------------------------*/
FoamFile
{
    version     2.0;
    format      ascii;
    class       surfaceScalarField;
    location    "2e-06";
    object      phi;
}
// * * * * * * * * * * * * * * * * * * * * * * * * * * * * * * * * * * * * * //

dimensions      [0 3 -1 0 0 0 0];

internalField   nonuniform List<scalar> 
14825
(
1.0347883e-09
-2.1026907e-11
1.0584602e-09
-2.3671931e-11
1.0739584e-09
-1.5498152e-11
1.088461e-09
-1.4502649e-11
1.1172721e-09
-2.8811107e-11
1.1432673e-09
-2.5995148e-11
1.1550525e-09
-1.1785196e-11
1.1736734e-09
-1.8620931e-11
1.1997385e-09
-2.6065076e-11
1.2171001e-09
-1.7361635e-11
1.2389251e-09
-2.1825005e-11
1.2662264e-09
-2.7301285e-11
1.2926582e-09
-2.6431805e-11
1.3163539e-09
-2.3695687e-11
1.3321442e-09
-1.5790273e-11
1.3445262e-09
-1.2382086e-11
1.3583031e-09
-1.3776877e-11
1.3752766e-09
-1.6973495e-11
1.3774127e-09
-2.1360593e-12
1.3578065e-09
1.960622e-11
1.3058539e-09
5.1952533e-11
1.0695404e-09
2.3631349e-10
7.2113414e-10
3.4840629e-10
5.1249247e-10
2.0864167e-10
3.7040193e-10
1.4209054e-10
2.7333497e-10
9.7066958e-11
2.0711482e-10
6.6220156e-11
1.6084219e-10
4.6272626e-11
1.2762338e-10
3.3218812e-11
1.0316545e-10
2.445793e-11
8.4746096e-11
1.8419354e-11
7.0594688e-11
1.4151408e-11
5.9529108e-11
1.106558e-11
5.0740699e-11
8.7884087e-12
4.3663628e-11
7.0770711e-12
3.7893886e-11
5.7697426e-12
3.3137578e-11
4.7563074e-12
2.9177368e-11
3.9602106e-12
2.5850053e-11
3.3273148e-12
2.3031423e-11
2.8186299e-12
2.0625742e-11
2.4056808e-12
1.8558392e-11
2.0673497e-12
1.6770604e-11
1.7877881e-12
1.521565e-11
1.5549542e-12
1.3856053e-11
1.3595975e-12
1.2661508e-11
1.1945449e-12
1.160733e-11
1.0541772e-12
1.0673272e-11
9.3405845e-13
9.8426154e-12
8.306565e-13
9.1014768e-12
7.4113853e-13
8.4382603e-12
6.6321649e-13
7.8432304e-12
5.950299e-13
7.3081735e-12
5.3505681e-13
6.82613e-12
4.8204353e-13
6.3911768e-12
4.3495318e-13
5.9982567e-12
3.9292007e-13
5.6430352e-12
3.5522144e-13
5.3217896e-12
3.212456e-13
5.0313121e-12
2.9047747e-13
4.7688368e-12
2.6247522e-13
4.5319735e-12
2.3686336e-13
4.3186564e-12
2.1331699e-13
4.1270992e-12
1.9155724e-13
3.9557581e-12
1.7134108e-13
3.8033002e-12
1.5245786e-13
3.6685784e-12
1.3472181e-13
3.5506091e-12
1.1796926e-13
3.4485551e-12
1.0205403e-13
3.3617114e-12
8.684369e-14
3.2894933e-12
7.2218131e-14
3.2314285e-12
5.8064753e-14
3.187151e-12
4.4277496e-14
3.1563959e-12
3.0755125e-14
3.1390765e-12
1.7319389e-14
4.6006711e-15
2.863757e-09
-8.2817979e-11
2.9325976e-09
-9.251251e-11
2.9792321e-09
-6.2132663e-11
3.0226415e-09
-5.7912049e-11
3.1066267e-09
-1.1279631e-10
3.1825808e-09
-1.0194923e-10
3.2208604e-09
-5.0064863e-11
3.2738559e-09
-7.1616387e-11
3.3490575e-09
-1.0126668e-10
3.4018701e-09
-7.0174248e-11
3.4675171e-09
-8.7472024e-11
3.5426175e-09
-1.024017e-10
3.6266133e-09
-1.104276e-10
3.7024942e-09
-9.9576551e-11
3.7467504e-09
-6.0046513e-11
3.7821197e-09
-4.775131e-11
3.8334327e-09
-6.5089919e-11
3.8865351e-09
-7.0075888e-11
3.8854003e-09
-1.0012574e-12
3.8371253e-09
6.7881234e-11
3.6894099e-09
1.9966792e-10
3.0267282e-09
8.9899515e-10
2.0765644e-09
1.2985702e-09
1.4579227e-09
8.2728333e-10
1.0506307e-09
5.4938254e-10
7.7578878e-10
3.7190888e-10
5.8854737e-10
2.5346157e-10
4.5763053e-10
1.7718947e-10
3.6356246e-10
1.2728688e-10
2.9424001e-10
9.3780382e-11
2.4198717e-10
7.0672191e-11
2.0180824e-10
5.4330336e-11
1.7036556e-10
4.2508264e-11
1.453743e-10
3.3779673e-11
1.2523463e-10
2.7216739e-11
1.0880355e-10
2.2200822e-11
9.5249088e-11
1.8310769e-11
8.3955643e-11
1.5253656e-11
7.4460707e-11
1.2822251e-11
6.6412091e-11
1.0867245e-11
5.9538214e-11
9.2795585e-12
5.3627301e-11
7.9782627e-12
4.8512485e-11
6.9026039e-12
4.4061034e-11
6.0064053e-12
4.016645e-11
5.2541815e-12
3.6742585e-11
4.618409e-12
3.3719244e-11
4.0775187e-12
3.1038824e-11
3.6144783e-12
2.8653758e-11
3.2157223e-12
2.6524529e-11
2.8703672e-12
2.4618126e-11
2.5696198e-12
2.2906828e-11
2.3063279e-12
2.1367246e-11
2.0746388e-12
1.9979559e-11
1.8697301e-12
1.8726901e-11
1.6876116e-12
1.759487e-11
1.5249507e-12
1.6571128e-11
1.3789639e-12
1.5645079e-11
1.2472942e-12
1.4807601e-11
1.1279552e-12
1.4050834e-11
1.0192428e-12
1.3367989e-11
9.1970769e-13
1.2753212e-11
8.2809457e-13
1.2201444e-11
7.4332512e-13
1.1708326e-11
6.6445848e-13
1.1270106e-11
5.9067811e-13
1.0883565e-11
5.2126296e-13
1.0545958e-11
4.5557643e-13
1.0254963e-11
3.9304895e-13
1.0008643e-11
3.3316302e-13
9.8054134e-12
2.75448e-13
9.644017e-12
2.1946115e-13
9.5235108e-12
1.6478364e-13
9.4432587e-12
1.1100719e-13
9.4029911e-12
5.7586997e-14
5.0845729e-15
4.3698415e-09
-1.8454999e-10
4.4812674e-09
-2.0393836e-10
4.550892e-09
-1.3175733e-10
4.632587e-09
-1.3960702e-10
4.7666335e-09
-2.4684283e-10
4.8885013e-09
-2.2381702e-10
4.9635999e-09
-1.2516342e-10
5.0427696e-09
-1.5078611e-10
5.1549897e-09
-2.1348676e-10
5.2601457e-09
-1.7533023e-10
5.3626498e-09
-1.8997611e-10
5.4234968e-09
-1.6324877e-10
5.5782228e-09
-2.6515358e-10
5.7579139e-09
-2.7926765e-10
5.8247482e-09
-1.2688084e-10
5.8461528e-09
-6.9155929e-11
5.8667029e-09
-8.5640011e-11
5.9627499e-09
-1.6612281e-10
5.9217718e-09
3.9976829e-11
5.6592092e-09
3.3044381e-10
5.1855455e-09
6.7333163e-10
4.0902375e-09
1.9943031e-09
3.0034767e-09
2.3853309e-09
2.2398066e-09
1.5909535e-09
1.6381623e-09
1.1510269e-09
1.2138645e-09
7.9620669e-10
9.2273158e-10
5.4459444e-10
7.1877203e-10
3.8114902e-10
5.7198878e-10
2.7407013e-10
4.636575e-10
2.0211166e-10
3.8188961e-10
1.5244008e-10
3.1893701e-10
1.1728294e-10
2.6961573e-10
9.1829547e-11
2.3037229e-10
7.3023109e-11
1.9871555e-10
5.8873486e-11
1.7286369e-10
4.8052676e-11
1.515185e-10
3.9655966e-11
1.3371847e-10
3.3053681e-11
1.1874063e-10
2.780009e-11
1.0603401e-10
2.3573863e-11
9.5173446e-11
2.0140127e-11
8.5827164e-11
1.7324545e-11
7.7733587e-11
1.499618e-11
7.0684523e-11
1.3055469e-11
6.4512836e-11
1.1425869e-11
5.9083258e-11
1.0047987e-11
5.4285512e-11
8.8752639e-12
5.0029073e-11
7.8709178e-12
4.6239151e-11
7.0056439e-12
4.2853596e-11
6.2559227e-12
3.982047e-11
5.602745e-12
3.7096154e-11
5.0306441e-12
3.4643834e-11
4.5269592e-12
3.2432311e-11
4.0812531e-12
3.0435034e-11
3.6848879e-12
2.8629339e-11
3.3306456e-12
2.6995808e-11
3.0124949e-12
2.5517777e-11
2.7253251e-12
2.4180904e-11
2.4648278e-12
2.2972843e-11
2.2273037e-12
2.1882947e-11
2.0096044e-12
2.0902041e-11
1.8090005e-12
2.002222e-11
1.6231455e-12
1.9236689e-11
1.4499892e-12
1.8539617e-11
1.2877504e-12
1.7926026e-11
1.1348538e-12
1.7391697e-11
9.8990562e-13
1.6933089e-11
8.5165667e-13
1.6547284e-11
7.1896851e-13
1.6231929e-11
5.9080312e-13
1.598521e-11
4.6618003e-13
1.5805822e-11
3.4417095e-13
1.569297e-11
2.2385974e-13
1.5646391e-11
1.041658e-13
-1.5030132e-14
5.5956182e-09
-3.2369746e-10
5.7439682e-09
-3.5228833e-10
5.8402539e-09
-2.2804302e-10
5.9531731e-09
-2.5252626e-10
6.1457915e-09
-4.3946124e-10
6.3293544e-09
-4.0737996e-10
6.4056451e-09
-2.014541e-10
6.511194e-09
-2.5633504e-10
6.6918079e-09
-3.9410058e-10
6.815226e-09
-2.9874842e-10
6.9337221e-09
-3.0847212e-10
7.1668848e-09
-3.9641149e-10
7.2972462e-09
-3.95515e-10
7.3761082e-09
-3.5812968e-10
7.5939048e-09
-3.4467743e-10
7.6666137e-09
-1.4186482e-10
7.577907e-09
3.0666671e-12
7.8828369e-09
-4.7105267e-10
8.0559418e-09
-1.3312808e-10
7.2172256e-09
1.16916e-09
5.5992557e-09
2.2913015e-09
4.3938121e-09
3.1997467e-09
3.6737255e-09
3.1054176e-09
2.8991837e-09
2.3654952e-09
2.1435323e-09
1.9066783e-09
1.5928938e-09
1.3468452e-09
1.213506e-09
9.2398224e-10
9.4725467e-10
6.4740034e-10
7.5527815e-10
4.6604664e-10
6.1333256e-10
3.4405725e-10
5.060142e-10
2.5975844e-10
4.2326635e-10
2.0003079e-10
3.583478e-10
1.5674809e-10
3.0662965e-10
1.2474126e-10
2.6486168e-10
1.0064146e-10
2.3071591e-10
8.2198442e-11
2.02494e-10
6.7877872e-11
1.7893671e-10
5.6610973e-11
1.5909616e-10
4.7640645e-11
1.422493e-10
4.0420714e-11
1.2783771e-10
3.4551721e-11
1.1542526e-10
2.9736993e-11
1.0466785e-10
2.575359e-11
9.5291408e-11
2.2431914e-11
8.7075764e-11
1.9641512e-11
7.9842631e-11
1.728112e-11
7.3446578e-11
1.5271318e-11
6.7768157e-11
1.3549338e-11
6.2708647e-11
1.2065154e-11
5.8185971e-11
1.0778598e-11
5.4131522e-11
9.6571949e-12
5.0487657e-11
8.6745086e-12
4.7205723e-11
7.8088927e-12
4.4244481e-11
7.0424948e-12
4.1568835e-11
6.3605342e-12
3.9148827e-11
5.7506539e-12
3.6958797e-11
5.2025243e-12
3.4976735e-11
4.7073867e-12
3.3183709e-11
4.2578539e-12
3.1563435e-11
3.8475776e-12
3.0101888e-11
3.4711512e-12
2.8787005e-11
3.1238834e-12
2.7608414e-11
2.8017367e-12
2.6557223e-11
2.5011797e-12
2.5625833e-11
2.2191401e-12
2.480779e-11
1.9528968e-12
2.4097658e-11
1.7000373e-12
2.349092e-11
1.4583954e-12
2.2983897e-11
1.2259907e-12
2.2573687e-11
1.0010138e-12
2.2258118e-11
7.8174885e-13
2.2035723e-11
5.6656542e-13
2.1905738e-11
3.5384498e-13
2.1868129e-11
1.4177522e-13
-7.0850526e-14
6.5841933e-09
-5.0211949e-10
6.76622e-09
-5.3431499e-10
6.8801886e-09
-3.4201163e-10
7.0250175e-09
-3.9735514e-10
7.2604926e-09
-6.7493637e-10
7.4653344e-09
-6.1222173e-10
7.5944535e-09
-3.305732e-10
7.7404986e-09
-4.0238014e-10
7.9487485e-09
-6.0235049e-10
8.127798e-09
-4.7779787e-10
8.3015226e-09
-4.8219681e-10
8.5160857e-09
-6.1097451e-10
8.7139509e-09
-5.9338018e-10
8.9357122e-09
-5.7989104e-10
9.1178911e-09
-5.2685627e-10
9.2670808e-09
-2.910546e-10
9.4594007e-09
-1.8925317e-10
9.2280427e-09
-2.3969471e-10
9.1097969e-09
-1.4882253e-11
9.5752061e-09
7.0375075e-10
8.6902163e-09
3.1762914e-09
6.5766459e-09
5.3133171e-09
4.8156095e-09
4.866454e-09
3.5681383e-09
3.6129664e-09
2.5863116e-09
2.888505e-09
1.9187828e-09
2.014374e-09
1.464703e-09
1.378062e-09
1.145998e-09
9.6610533e-10
9.157171e-10
6.9632757e-10
7.4508543e-10
5.1468892e-10
6.1583046e-10
3.8901341e-10
5.1599719e-10
2.9986405e-10
4.3755374e-10
2.3519155e-10
3.7497338e-10
1.8732162e-10
3.2436821e-10
1.5124664e-10
2.8294883e-10
1.2361782e-10
2.4867723e-10
1.0214948e-10
2.2004028e-10
8.5247927e-11
1.958976e-10
7.1783319e-11
1.7537839e-10
6.0939924e-11
1.5780937e-10
5.212074e-11
1.4266428e-10
4.4882085e-11
1.2952751e-10
3.8890358e-11
1.180678e-10
3.3891628e-11
1.0801883e-10
2.9690481e-11
9.9164804e-11
2.6135144e-11
9.1329588e-11
2.3106533e-11
8.4368436e-11
2.051049e-11
7.8161653e-11
1.8271936e-11
7.2609688e-11
1.6330564e-11
6.7629289e-11
1.4637594e-11
6.3150494e-11
1.3153303e-11
5.9114234e-11
1.1845153e-11
5.5470435e-11
1.0686294e-11
5.2176479e-11
9.6544895e-12
4.9195994e-11
8.7311388e-12
4.6497832e-11
7.9006867e-12
4.4055284e-11
7.1499338e-12
4.1845395e-11
6.4677428e-12
3.9848439e-11
5.8445335e-12
3.8047448e-11
5.2721424e-12
3.6427854e-11
4.7434771e-12
3.4977161e-11
4.2524296e-12
3.3684691e-11
3.7936491e-12
3.2541355e-11
3.3624764e-12
3.1539475e-11
2.9547765e-12
3.0672635e-11
2.5668774e-12
2.9935555e-11
2.1954752e-12
2.9324006e-11
1.83754e-12
2.8834723e-11
1.4902971e-12
2.8465367e-11
1.1511041e-12
2.8214486e-11
8.1744622e-13
2.8081522e-11
4.868092e-13
2.8066821e-11
1.5647606e-13
-1.7616849e-13
7.3699441e-09
-7.2221698e-10
7.5982869e-09
-7.6265784e-10
7.7016164e-09
-4.4534113e-10
7.8749716e-09
-5.7071038e-10
8.19358e-09
-9.9354471e-10
8.3969283e-09
-8.1557e-10
8.4946343e-09
-4.2827921e-10
8.7619634e-09
-6.6970928e-10
9.0093777e-09
-8.4976476e-10
9.197117e-09
-6.6553722e-10
9.3853218e-09
-6.7040163e-10
9.6699779e-09
-8.9563053e-10
9.9164645e-09
-8.3986685e-10
1.0166806e-08
-8.302327e-10
1.039261e-08
-7.5265974e-10
1.0587566e-08
-4.8601081e-10
1.0788652e-08
-3.9033951e-10
1.0830194e-08
-2.8123613e-10
1.0846826e-08
-3.1514293e-11
1.1023482e-08
5.2709424e-10
1.1581387e-08
2.6183861e-09
1.0643453e-08
6.2512511e-09
6.87441e-09
8.6354975e-09
4.2493754e-09
6.238001e-09
2.9674289e-09
4.1704516e-09
2.195873e-09
2.7859299e-09
1.6800371e-09
1.8938979e-09
1.3178644e-09
1.328278e-09
1.0555212e-09
9.586708e-10
8.6066043e-10
7.0954966e-10
7.127341e-10
5.3693975e-10
5.9826207e-10
4.1433608e-10
5.0816362e-10
3.2528999e-10
4.3617532e-10
2.5930992e-10
3.7788148e-10
2.0954048e-10
3.3010801e-10
1.7139128e-10
2.9053188e-10
1.4172561e-10
2.5742574e-10
1.1835407e-10
2.2948598e-10
9.972308e-11
2.0571591e-10
8.4709987e-11
1.8534409e-10
7.2492563e-11
1.6776688e-10
6.2459294e-11
1.5250714e-10
5.4150099e-11
1.3918421e-10
4.7214556e-11
1.2749185e-10
4.1382845e-11
1.1718169e-10
3.6445296e-11
1.0805092e-10
3.2237309e-11
9.9932731e-11
2.8628678e-11
9.2689136e-11
2.5515532e-11
8.6205302e-11
2.2814397e-11
8.0385166e-11
2.045773e-11
7.5147967e-11
1.8390502e-11
7.0425504e-11
1.6567615e-11
6.6159953e-11
1.4951845e-11
6.2302096e-11
1.3512346e-11
5.8809933e-11
1.2223302e-11
5.5647503e-11
1.1063116e-11
5.2783989e-11
1.0013448e-11
5.0192916e-11
9.0588153e-12
4.7851562e-11
8.1858869e-12
4.5740408e-11
7.3832964e-12
4.3842728e-11
6.6411574e-12
4.2144209e-11
5.9509479e-12
4.0632666e-11
5.3051924e-12
3.9297768e-11
4.6973737e-12
3.8130846e-11
4.1216987e-12
3.7124712e-11
3.5730115e-12
3.6273522e-11
3.0466653e-12
3.5572677e-11
2.5383848e-12
3.5018727e-11
2.0442465e-12
3.4609333e-11
1.5604987e-12
3.4343213e-11
1.0835658e-12
3.4220166e-11
6.0985638e-13
3.4241119e-11
1.3552265e-13
-3.4357891e-13
7.9680432e-09
-9.7202364e-10
8.2310788e-09
-1.0256935e-09
8.3818562e-09
-5.9611848e-10
8.5198476e-09
-7.0870179e-10
8.9173015e-09
-1.3909986e-09
9.2350487e-09
-1.1333172e-09
9.2674278e-09
-4.6065835e-10
9.4852639e-09
-8.8754541e-10
9.8569925e-09
-1.2214933e-09
1.0079378e-08
-8.8792287e-10
1.0320898e-08
-9.1192135e-10
1.0642385e-08
-1.217118e-09
1.0795204e-08
-9.9268591e-10
1.1214274e-08
-1.2493027e-09
1.154589e-08
-1.0842751e-09
1.1621705e-08
-5.6182566e-10
1.1777077e-08
-5.4571179e-10
1.1996403e-08
-5.0056204e-10
1.2066234e-08
-1.0134521e-10
1.2062199e-08
5.3112844e-10
1.1975705e-08
2.7048807e-09
1.1405704e-08
6.8212521e-09
8.4144737e-09
1.1626728e-08
4.868418e-09
9.7840566e-09
3.283657e-09
5.7552126e-09
2.4279654e-09
3.6416215e-09
1.8630764e-09
2.4587869e-09
1.4655892e-09
1.7257653e-09
1.1767878e-09
1.2474722e-09
9.6169609e-10
9.2464134e-10
7.98028e-10
7.0060784e-10
6.7111282e-10
5.4125126e-10
5.7103774e-10
4.2536507e-10
4.90947e-10
3.3940067e-10
4.259957e-10
2.7449178e-10
3.7269391e-10
2.2469307e-10
3.2848256e-10
1.8593695e-10
2.9145568e-10
1.5538096e-10
2.6017267e-10
1.3100609e-10
2.3353065e-10
1.1135201e-10
2.1067489e-10
9.5348318e-11
1.9093589e-10
8.2198292e-11
1.7378389e-10
7.1302106e-11
1.5879584e-10
6.22026e-11
1.4563113e-10
5.4547558e-11
1.340133e-10
4.8063123e-11
1.2371641e-10
4.2534197e-11
1.1455456e-10
3.7790535e-11
1.0637382e-10
3.3696264e-11
9.9046082e-11
3.0142139e-11
9.2464089e-11
2.7039723e-11
8.653766e-11
2.4316931e-11
8.1190609e-11
2.1914666e-11
7.6358335e-11
1.9784118e-11
7.1985848e-11
1.7884833e-11
6.8026225e-11
1.6182925e-11
6.4439302e-11
1.4650039e-11
6.1190676e-11
1.3262074e-11
5.8250812e-11
1.1998679e-11
5.559439e-11
1.0842309e-11
5.319969e-11
9.7779966e-12
5.1048138e-11
8.7927086e-12
4.9123886e-11
7.8751996e-12
4.7413487e-11
7.015592e-12
4.5905597e-11
6.2052634e-12
4.4590758e-11
5.436537e-12
4.3461204e-11
4.702566e-12
4.2510701e-11
3.9971684e-12
4.1734447e-11
3.3146381e-12
4.1128965e-11
2.6497284e-12
4.0692063e-11
1.9974014e-12
4.0422783e-11
1.3528452e-12
4.0321432e-11
7.1120777e-13
4.0389545e-11
6.7409023e-14
-5.8455025e-13
8.3871011e-09
-1.2224179e-09
8.6377823e-09
-1.2763747e-09
8.9182965e-09
-8.7663262e-10
9.0755175e-09
-8.659228e-10
9.4562319e-09
-1.771713e-09
9.9114765e-09
-1.5885618e-09
9.953895e-09
-5.0307689e-10
1.0088159e-08
-1.0218097e-09
1.0596474e-08
-1.729808e-09
1.0806873e-08
-1.0983214e-09
1.0983683e-08
-1.088732e-09
1.1360393e-08
-1.5938275e-09
1.1720923e-08
-1.3532163e-09
1.1986432e-08
-1.5148116e-09
1.2453173e-08
-1.5510158e-09
1.2886874e-08
-9.9552654e-10
1.3102223e-08
-7.6106142e-10
1.3185202e-08
-5.8354085e-10
1.3085698e-08
-1.8409411e-12
1.2697034e-08
9.1979193e-10
1.2215929e-08
3.1859863e-09
1.1198448e-08
7.8387329e-09
8.1980104e-09
1.4627165e-08
5.0365357e-09
1.2945531e-08
3.5066569e-09
7.2850914e-09
2.6177481e-09
4.5305303e-09
2.0171955e-09
3.0593395e-09
1.59175e-09
2.1512107e-09
1.2814781e-09
1.5577442e-09
1.0497159e-09
1.1564035e-09
8.7291815e-10
8.7740556e-10
7.3551954e-10
6.7864987e-10
6.2696719e-10
5.3391741e-10
5.3994114e-10
4.2642672e-10
4.6925492e-10
3.45178e-10
4.1116395e-10
2.8278404e-10
3.6291686e-10
2.3418404e-10
3.2246073e-10
1.9583709e-10
2.882414e-10
1.6522542e-10
2.5906732e-10
1.4052609e-10
2.3401384e-10
1.204018e-10
2.1235582e-10
1.0385631e-10
1.9351884e-10
9.013908e-11
1.7704378e-10
7.8677662e-11
1.6256059e-10
6.9030749e-11
1.4976871e-10
6.0855004e-11
1.3842229e-10
5.3880612e-11
1.2831893e-10
4.7893901e-11
1.1929094e-10
4.2724254e-11
1.1119865e-10
3.8234425e-11
1.0392512e-10
3.4313254e-11
9.7371955e-11
3.0870095e-11
9.145602e-11
2.7830601e-11
8.6106806e-11
2.5133332e-11
8.1264292e-11
2.2727347e-11
7.6877267e-11
2.056995e-11
7.2901906e-11
1.8625399e-11
6.9300691e-11
1.6863289e-11
6.6041438e-11
1.5257931e-11
6.3096585e-11
1.3787161e-11
6.0442527e-11
1.2432054e-11
5.8059124e-11
1.1176112e-11
5.5929237e-11
1.0005087e-11
5.4038381e-11
8.9064469e-12
5.2374406e-11
7.8692389e-12
5.0927248e-11
6.8836946e-12
4.9688732e-11
5.9410825e-12
4.8652393e-11
5.0335064e-12
4.7813379e-11
4.1536527e-12
4.7168321e-11
3.2947856e-12
4.6715313e-11
2.4504097e-12
4.6453844e-11
1.6143143e-12
4.6384837e-11
7.8021417e-13
4.6510697e-11
-5.8451102e-14
-9.0946179e-13
8.7180814e-09
-1.5127912e-09
9.0587107e-09
-1.6170039e-09
9.2338929e-09
-1.0518148e-09
9.4918994e-09
-1.1239293e-09
9.9064174e-09
-2.186231e-09
1.0301991e-08
-1.9841354e-09
1.048895e-08
-6.9003616e-10
1.0587698e-08
-1.1205578e-09
1.1082421e-08
-2.2245306e-09
1.1575694e-08
-1.5915943e-09
1.1670735e-08
-1.1837735e-09
1.1909775e-08
-1.8328665e-09
1.232424e-08
-1.7676818e-09
1.2599573e-08
-1.7901449e-09
1.3106678e-08
-2.0581205e-09
1.3724292e-08
-1.6131407e-09
1.4026842e-08
-1.0636114e-09
1.4028138e-08
-5.8483652e-10
1.397982e-08
4.6476376e-11
1.416367e-08
7.3594202e-10
1.3336286e-08
4.0133704e-09
1.0257357e-08
1.0917662e-08
6.9583441e-09
1.7926179e-08
4.9925446e-09
1.4911331e-08
3.6707002e-09
8.6069358e-09
2.7718503e-09
5.4293802e-09
2.1458033e-09
3.6853866e-09
1.698759e-09
2.5982549e-09
1.3714085e-09
1.8850947e-09
1.1261248e-09
1.4016872e-09
9.385132e-10
1.0650172e-09
7.923717e-10
8.2479137e-10
6.7667572e-10
6.4961339e-10
5.8375383e-10
5.1934861e-10
5.0815523e-10
4.207766e-10
4.4593481e-10
3.4500447e-10
3.9418749e-10
2.8593136e-10
3.5074153e-10
2.3928304e-10
3.1394998e-10
2.0201696e-10
2.8254821e-10
1.7192787e-10
2.5555348e-10
1.4739652e-10
2.3219415e-10
1.2721565e-10
2.1185823e-10
1.1047499e-10
1.9405609e-10
9.6479805e-11
1.7839269e-10
8.4694144e-11
1.6454692e-10
7.4700779e-11
1.5225589e-10
6.6171641e-11
1.4130302e-10
5.8846773e-11
1.3150877e-10
5.2518504e-11
1.2272352e-10
4.7019679e-11
1.148219e-10
4.2214865e-11
1.0769845e-10
3.7993554e-11
1.0126397e-10
3.4265077e-11
9.544284e-11
3.0954461e-11
9.0170667e-11
2.799952e-11
8.5392517e-11
2.5348099e-11
8.1061396e-11
2.295652e-11
7.7137089e-11
2.0787596e-11
7.3585129e-11
1.8809891e-11
7.0376034e-11
1.6996255e-11
6.7484596e-11
1.5323491e-11
6.4889358e-11
1.377135e-11
6.2572113e-11
1.2322331e-11
6.0517544e-11
1.0961016e-11
5.8712868e-11
9.6739148e-12
5.7147587e-11
8.4489755e-12
5.5813267e-11
7.2754019e-12
5.4703359e-11
6.1434141e-12
5.3813087e-11
5.0439246e-12
5.3139325e-11
3.9685476e-12
5.2680569e-11
2.9091658e-12
5.2436879e-11
1.8580041e-12
5.2409933e-11
8.0716053e-13
5.2602934e-11
-2.5145213e-13
-1.3277333e-12
8.9338326e-09
-1.8358437e-09
9.2076939e-09
-1.8908653e-09
9.5290794e-09
-1.3732003e-09
9.7791275e-09
-1.3739774e-09
1.0220107e-08
-2.6272102e-09
1.0655607e-08
-2.4196355e-09
1.078051e-08
-8.1493972e-10
1.1084779e-08
-1.4248259e-09
1.1422647e-08
-2.5623987e-09
1.1983474e-08
-2.1524212e-09
1.228039e-08
-1.4806905e-09
1.2382357e-08
-1.9348332e-09
1.2943099e-08
-2.3284235e-09
1.3244132e-08
-2.0911783e-09
1.367084e-08
-2.4848278e-09
1.4364637e-08
-2.3069381e-09
1.4564422e-08
-1.2633961e-09
1.487998e-08
-9.003943e-10
1.4707483e-08
2.1897301e-10
1.4358159e-08
1.0852662e-09
1.2672286e-08
5.6992434e-09
9.0581834e-09
1.4531764e-08
6.4519264e-09
2.0532436e-08
5.0203929e-09
1.6342864e-08
3.8026924e-09
9.8246363e-09
2.8962181e-09
6.3358545e-09
2.2520532e-09
4.3295516e-09
1.7888369e-09
3.0614713e-09
1.448246e-09
2.2256856e-09
1.192209e-09
1.6577242e-09
9.9582594e-10
1.2614002e-09
8.4248043e-10
9.7813688e-10
7.2082243e-10
7.7127139e-10
6.2292731e-10
6.1724373e-10
5.4314751e-10
5.005564e-10
4.7738485e-10
4.1076713e-10
4.2261456e-10
3.4070166e-10
3.7657083e-10
2.8532677e-10
3.3753225e-10
2.4105555e-10
3.0417488e-10
2.0528524e-10
2.754684e-10
1.76103e-10
2.5060271e-10
1.5208133e-10
2.2893461e-10
1.3214309e-10
2.0994886e-10
1.1546555e-10
1.9322941e-10
1.014136e-10
1.7843772e-10
8.9492472e-11
1.6529643e-10
7.9312933e-11
1.5357685e-10
7.0566352e-11
1.4308929e-10
6.3006055e-11
1.3367559e-10
5.6433386e-11
1.2520315e-10
5.0687307e-11
1.1756035e-10
4.5636353e-11
1.1065281e-10
4.117261e-11
1.0440048e-10
3.7206795e-11
9.8735175e-11
3.3664824e-11
9.3598752e-11
3.0484521e-11
8.894148e-11
2.7613792e-11
8.4720827e-11
2.5008248e-11
8.090037e-11
2.2630348e-11
7.7448995e-11
2.0447631e-11
7.4340142e-11
1.8432344e-11
7.1551259e-11
1.6560233e-11
6.9063276e-11
1.4810314e-11
6.6860218e-11
1.3164074e-11
6.4928836e-11
1.1605297e-11
6.3258344e-11
1.0119468e-11
6.1840188e-11
8.6935572e-12
6.0667859e-11
7.3157428e-12
5.9736781e-11
5.9750026e-12
5.904418e-11
4.6611488e-12
5.8589066e-11
3.3642801e-12
5.8372173e-11
2.0748964e-12
5.8396007e-11
7.8332681e-13
5.8664746e-11
-5.2019105e-13
-1.8478232e-12
9.0723625e-09
-2.2052979e-09
9.3337692e-09
-2.1522721e-09
9.6212062e-09
-1.6606373e-09
9.9599812e-09
-1.7127524e-09
1.0448943e-08
-3.1161715e-09
1.0843914e-08
-2.814607e-09
1.1082514e-08
-1.0535399e-09
1.1365865e-08
-1.7081772e-09
1.1793309e-08
-2.9898423e-09
1.2270488e-08
-2.6296001e-09
1.265707e-08
-1.8672727e-09
1.2800375e-08
-2.078138e-09
1.3221709e-08
-2.7497578e-09
1.3941389e-08
-2.8108581e-09
1.4108401e-08
-2.6518395e-09
1.4844106e-08
-3.042643e-09
1.5218272e-08
-1.6375623e-09
1.5098201e-08
-7.8032373e-10
1.5007027e-08
3.1014705e-10
1.4034132e-08
2.0581618e-09
1.1612036e-08
8.1213389e-09
8.4075988e-09
1.7736201e-08
6.2868623e-09
2.2653172e-08
5.0750031e-09
1.7554723e-08
3.9062614e-09
1.0993378e-08
2.9949842e-09
7.2471317e-09
2.3387527e-09
4.985783e-09
1.8640049e-09
3.5362191e-09
1.5135083e-09
2.5761821e-09
1.2491384e-09
1.9220942e-09
1.0457765e-09
1.4647621e-09
8.8658199e-10
1.1373314e-09
7.6000508e-10
8.9784829e-10
6.5795301e-10
7.1929581e-10
5.7464018e-10
5.8386923e-10
5.0585671e-10
4.795506e-10
4.4848787e-10
3.980705e-10
4.0019548e-10
3.3361916e-10
3.5919981e-10
2.8205122e-10
3.2412972e-10
2.4035533e-10
2.9391656e-10
2.0631616e-10
2.6771894e-10
1.7827895e-10
2.4486796e-10
1.5499408e-10
2.2482721e-10
1.355063e-10
2.0716308e-10
1.1907773e-10
1.9152242e-10
1.0513313e-10
1.7761566e-10
9.3219694e-11
1.6520386e-10
8.2978154e-11
1.5408869e-10
7.4121227e-11
1.4410466e-10
6.6417409e-11
1.3511302e-10
5.9678953e-11
1.2699687e-10
5.37525e-11
1.1965737e-10
4.8512112e-11
1.1301063e-10
4.3853531e-11
1.0698524e-10
3.9690214e-11
1.0152029e-10
3.5949472e-11
9.6563693e-11
3.2570386e-11
9.2070943e-11
2.9500997e-11
8.8003955e-11
2.6697335e-11
8.4330233e-11
2.4121352e-11
8.1022098e-11
2.1740479e-11
7.8056101e-11
1.952623e-11
7.5412484e-11
1.745393e-11
7.3074776e-11
1.5501781e-11
7.1029411e-11
1.3650662e-11
6.9265443e-11
1.1883435e-11
6.7774324e-11
1.0184676e-11
6.6549697e-11
8.5403695e-12
6.5587291e-11
6.937408e-12
6.4884788e-11
5.3636519e-12
6.4441804e-11
3.8072642e-12
6.425983e-11
2.2568706e-12
6.4342354e-11
7.0080188e-13
6.4694488e-11
-8.7232434e-13
-2.4773208e-12
9.1381678e-09
-2.6246276e-09
9.4470469e-09
-2.4611512e-09
9.6700032e-09
-1.8835936e-09
1.0042073e-08
-2.0848223e-09
1.0537558e-08
-3.6116567e-09
1.0950981e-08
-3.2280297e-09
1.1220485e-08
-1.323044e-09
1.1562057e-08
-2.0497487e-09
1.2003378e-08
-3.4311638e-09
1.2540886e-08
-3.1671084e-09
1.2976906e-08
-2.3032922e-09
1.323311e-08
-2.3343418e-09
1.3422923e-08
-2.9395711e-09
1.4176382e-08
-3.5643176e-09
1.4766222e-08
-3.2416789e-09
1.4998696e-08
-3.2751173e-09
1.5876766e-08
-2.515632e-09
1.5469358e-08
-3.7291548e-10
1.5148754e-08
6.3075042e-10
1.3710623e-08
3.4962931e-09
1.0537911e-08
1.1294051e-08
7.880837e-09
2.0393275e-08
6.2062584e-09
2.4327751e-08
5.121478e-09
1.8639504e-08
3.9843061e-09
1.213055e-08
3.0716917e-09
8.1597462e-09
2.4084131e-09
5.6490616e-09
1.9260891e-09
4.0185431e-09
1.5685686e-09
2.9337027e-09
1.297971e-09
2.1926917e-09
1.0891969e-09
1.6735361e-09
9.2534185e-10
1.3011865e-09
7.9476382e-10
1.0284263e-09
6.8927491e-10
8.2478472e-10
6.0300215e-10
6.7014199e-10
5.3165986e-10
5.5089289e-10
4.7206915e-10
4.5766121e-10
4.2183847e-10
3.8384984e-10
3.7914381e-10
3.2474588e-10
3.4257753e-10
2.7692161e-10
3.1104074e-10
2.3785295e-10
2.8366705e-10
2.0565264e-10
2.5976676e-10
1.7889436e-10
2.3878618e-10
1.5648688e-10
2.2027722e-10
1.3758669e-10
2.0387461e-10
1.2153575e-10
1.8927855e-10
1.0781575e-10
1.762415e-10
9.6015208e-11
1.6455782e-10
8.5804903e-11
1.5405585e-10
7.6919378e-11
1.4459155e-10
6.9143255e-11
1.3604355e-10
6.2300493e-11
1.2830919e-10
5.6246476e-11
1.2130132e-10
5.0861405e-11
1.1494574e-10
4.6045791e-11
1.0917918e-10
4.1716027e-11
1.0394757e-10
3.7801996e-11
9.9204713e-11
3.4243856e-11
9.4911117e-11
3.0990931e-11
9.1033145e-11
2.7999323e-11
8.7542191e-11
2.5231433e-11
8.4414094e-11
2.2654327e-11
8.1628568e-11
2.0239456e-11
7.916879e-11
1.796156e-11
7.7020998e-11
1.5798454e-11
7.5174213e-11
1.373022e-11
7.3619997e-11
1.1738891e-11
7.235225e-11
9.8081171e-12
7.1367101e-11
7.9225567e-12
7.0662774e-11
6.0679791e-12
7.0239587e-11
4.2304509e-12
7.0099878e-11
2.3965795e-12
7.0248076e-11
5.5260329e-13
7.0690501e-11
-1.3147497e-12
-3.2229921e-12
9.058958e-09
-3.0122353e-09
9.562232e-09
-2.9644252e-09
9.7236558e-09
-2.0450173e-09
1.0033494e-08
-2.3946605e-09
1.0568484e-08
-4.1466472e-09
1.1066986e-08
-3.7265308e-09
1.1335151e-08
-1.5912098e-09
1.1604845e-08
-2.3194421e-09
1.2120202e-08
-3.9465206e-09
1.2578015e-08
-3.6249221e-09
1.3194577e-08
-2.9198542e-09
1.3507353e-08
-2.6471178e-09
1.3822647e-08
-3.2548648e-09
1.4331587e-08
-4.0732574e-09
1.5053428e-08
-3.9635203e-09
1.5558278e-08
-3.7799671e-09
1.5976564e-08
-2.9339184e-09
1.6348648e-08
-7.4499924e-10
1.5151777e-08
1.8276211e-09
1.4534547e-08
4.113524e-09
1.0797193e-08
1.5031404e-08
7.6505276e-09
2.3539941e-08
6.1685315e-09
2.5809747e-08
5.1599434e-09
1.9648092e-08
4.0413753e-09
1.3249118e-08
3.1294975e-09
9.0716239e-09
2.4632692e-09
6.3152899e-09
1.9767287e-09
4.5050836e-09
1.6146623e-09
3.2957691e-09
1.3396596e-09
2.4676944e-09
1.1268365e-09
1.8863593e-09
9.5935943e-10
1.4686636e-09
8.2558522e-10
1.1622005e-09
7.17293e-10
9.3307694e-10
6.2856587e-10
7.5886912e-10
5.5507319e-10
6.2438557e-10
4.9359435e-10
5.1914006e-10
4.4170082e-10
4.3574336e-10
3.9753665e-10
3.6891005e-10
3.5966695e-10
3.1479131e-10
3.2696974e-10
2.7055016e-10
2.9855913e-10
2.3406326e-10
2.7372895e-10
2.0372454e-10
2.5191162e-10
1.7830421e-10
2.326473e-10
1.5685101e-10
2.1556078e-10
1.3862227e-10
2.0034382e-10
1.230327e-10
1.8674172e-10
1.0961731e-10
1.7454273e-10
9.8003894e-11
1.6356998e-10
8.7892129e-11
1.5367499e-10
7.9038246e-11
1.447326e-10
7.1242884e-11
1.3663688e-10
6.434219e-11
1.2929794e-10
5.8200342e-11
1.2263922e-10
5.2704515e-11
1.1659544e-10
4.7759806e-11
1.1111084e-10
4.3286602e-11
1.061378e-10
3.9216895e-11
1.0163567e-10
3.5493059e-11
9.7569866e-11
3.2065123e-11
9.3911045e-11
2.8890254e-11
9.0634486e-11
2.5930885e-11
8.7719516e-11
2.3154426e-11
8.5149085e-11
2.053199e-11
8.2909361e-11
1.8038178e-11
8.0989431e-11
1.565015e-11
7.9381066e-11
1.3347257e-11
7.8078507e-11
1.1110675e-11
7.7078371e-11
8.9226928e-12
7.6379503e-11
6.7668466e-12
7.5982993e-11
4.6269613e-12
7.5892083e-11
2.487489e-12
7.6112311e-11
3.3237506e-13
7.6651104e-11
-1.8535419e-12
-4.0908214e-12
8.9031819e-09
-3.3439117e-09
9.5186085e-09
-3.5798518e-09
9.772624e-09
-2.2990328e-09
9.9279219e-09
-2.5499584e-09
1.0578634e-08
-4.7973596e-09
1.1160325e-08
-4.3082218e-09
1.1411883e-08
-1.8427673e-09
1.1646442e-08
-2.5540009e-09
1.2119173e-08
-4.419252e-09
1.2681665e-08
-4.1874145e-09
1.3228998e-08
-3.4671869e-09
1.3649483e-08
-3.0676027e-09
1.4007974e-08
-3.6133562e-09
1.465894e-08
-4.7242232e-09
1.5404696e-08
-4.709276e-09
1.585924e-08
-4.2345114e-09
1.6404576e-08
-3.4792543e-09
1.6508365e-08
-8.4878776e-10
1.5656178e-08
2.6798074e-09
1.4819038e-08
4.9506642e-09
1.289707e-08
1.6953373e-08
8.8388373e-09
2.7598173e-08
6.4606477e-09
2.8187936e-08
5.2208396e-09
2.08879e-08
4.0821455e-09
1.4387812e-08
3.1710949e-09
9.9826746e-09
2.5052927e-09
6.9810921e-09
2.0173867e-09
4.9929896e-09
1.6528959e-09
3.6602599e-09
1.3750586e-09
2.7455317e-09
1.1593675e-09
2.1020503e-09
9.8917286e-10
1.6388583e-09
8.5290634e-10
1.2984671e-09
7.4236674e-10
1.0436165e-09
6.5163017e-10
8.4960569e-10
5.7634755e-10
6.9966819e-10
5.1327572e-10
5.8221189e-10
4.5996348e-10
4.890556e-10
4.1453356e-10
4.1433997e-10
3.7553191e-10
3.5379296e-10
3.4181966e-10
3.0426241e-10
3.1249626e-10
2.6338667e-10
2.8684286e-10
2.2937794e-10
2.6428098e-10
2.0086608e-10
2.4434143e-10
1.7679056e-10
2.2664099e-10
1.5632271e-10
2.1086454e-10
1.3880915e-10
1.9675148e-10
1.2373037e-10
1.8408503e-10
1.1067035e-10
1.7268398e-10
9.929318e-11
1.6239612e-10
8.9326103e-11
1.5309313e-10
8.054588e-11
1.4466633e-10
7.2768983e-11
1.3702351e-10
6.5843167e-11
1.3008611e-10
5.9641918e-11
1.2378717e-10
5.4058738e-11
1.1806952e-10
4.9004254e-11
1.1288437e-10
4.4402045e-11
1.0819011e-10
4.0187322e-11
1.0395138e-10
3.6303848e-11
1.0013827e-10
3.2703371e-11
9.6725624e-11
2.9343526e-11
9.3692528e-11
2.6187522e-11
9.1021815e-11
2.3202702e-11
8.8699681e-11
2.0360312e-11
8.6715373e-11
1.7634458e-11
8.5060955e-11
1.5001675e-11
8.3731094e-11
1.2440536e-11
8.2722967e-11
9.9308204e-12
8.2036108e-11