/*--------------------------------*- C++ -*----------------------------------*\
| =========                 |                                                 |
| \\      /  F ield         | OpenFOAM: The Open Source CFD Toolbox           |
|  \\    /   O peration     | Version:  2.3.0                                 |
|   \\  /    A nd           | Web:      www.OpenFOAM.org                      |
|    \\/     M anipulation  |                                                 |
\*---------------------------------------------------------------------------*/
FoamFile
{
    version     2.0;
    format      ascii;
    class       volScalarField;
    location    "3.8e-05";
    object      alpha.fuel;
}
// * * * * * * * * * * * * * * * * * * * * * * * * * * * * * * * * * * * * * //

dimensions      [0 0 0 0 0 0 0];

internalField   nonuniform List<scalar> 
7500
(
1
1
1
1
1
1
1
1
1
1
1
1
1
1
1
1
1
1
1
1
1
1
1
1
1
1
1
1
1
1
1
1
1
1
1
1
1
1
1
1
1
1
1
1
1
1
1
1
1
1
1
1
1
1
1
1
1
1
1
1
1
1
1
1
1
1
1
1
1
1
1
1
1
1
1
1
1
1
1
1
1
1
1
1
1
1
1
1
1
1
1
1
1
1
1
1
1
1
1
1
1
1
1
1
1
1
1
1
1
1
1
1
1
1
1
1
1
1
1
1
1
1
1
1
1
1
1
1
1
1
1
1
1
1
1
1
1
1
1
1
1
1
1
1
1
1
1
1
1
1
1
1
1
1
1
1
1
1
1
1
1
1
1
1
1
1
1
1
1
1
1
1
1
1
1
1
1
1
1
1
1
1
1
1
1
1
1
1
1
1
1
1
1
1
1
1
1
1
1
1
1
1
1
1
1
1
1
1
1
1
1
1
1
1
1
1
1
1
1
1
1
1
1
1
1
1
1
1
1
1
1
1
1
1
1
1
1
1
1
1
1
1
1
1
1
1
1
1
1
1
1
1
1
1
1
1
1
1
1
1
1
1
1
1
1
1
1
1
1
1
1
1
1
1
1
1
1
1
1
1
1
1
1
1
1
1
1
1
1
1
1
1
1
1
1
1
1
1
1
1
1
1
1
1
1
1
1
1
1
1
1
1
1
1
1
1
1
1
1
1
1
1
1
1
1
1
1
1
1
1
1
1
1
1
1
1
1
1
1
1
1
1
1
1
1
1
1
1
1
1
1
1
1
1
1
1
1
1
1
1
1
1
1
1
1
1
1
1
1
1
1
1
1
1
1
1
1
1
1
1
1
1
1
1
1
1
1
1
1
1
1
1
1
1
1
1
1
1
1
1
1
1
1
1
1
1
1
1
1
1
1
1
1
1
1
1
1
1
1
1
1
1
1
1
1
1
1
1
1
1
1
1
1
1
1
1
1
1
1
1
1
1
1
1
1
1
1
1
1
1
1
1
1
1
1
1
1
1
1
1
1
1
1
1
1
1
1
1
1
1
1
1
1
1
1
1
1
1
1
1
1
1
1
1
1
1
1
1
1
1
1
1
1
1
1
1
1
1
1
1
1
1
1
1
1
1
1
1
1
1
1
1
1
1
1
1
1
1
1
1
1
1
1
1
1
1
1
1
1
1
1
1
1
1
1
1
1
1
1
1
1
1
1
1
1
1
1
1
1
1
1
1
1
1
1
1
1
1
1
1
1
1
1
1
1
1
1
1
1
1
1
1
1
1
1
1
1
1
1
1
1
1
1
1
1
1
1
1
1
1
1
1
1
1
1
1
1
1
1
1
1
1
1
1
1
1
1
1
1
1
1
1
1
1
1
1
1
1
1
1
1
1
1
1
1
1
1
1
1
1
1
1
1
1
1
1
1
1
1
1
1
1
1
1
1
1
1
1
1
1
1
1
1
1
1
1
1
1
1
1
1
1
1
1
1
1
1
1
1
1
1
1
1
1
1
1
1
1
1
1
1
1
1
1
1
1
1
1
1
1
1
1
1
1
1
1
1
1
1
1
1
1
1
1
1
1
1
1
1
1
1
1
1
1
1
1
1
1
1
1
1
1
1
1
1
1
1
1
1
1
1
1
1
1
1
1
1
1
1
1
1
1
1
0.99949311
0.99651277
0.99190668
0.98532075
0.97634775
0.96602145
0.94620629
1
1
1
1
1
1
1
1
1
1
1
1
1
1
1
1
1
1
1
1
1
1
1
1
1
1
1
1
1
1
1
1
1
1
1
1
1
1
1
1
1
1
1
1
1
1
1
1
1
1
1
1
0.99950521
0.99408845
0.98399331
0.96822546
0.94697707
0.92095323
0.88699325
0.83233043
0.77084828
0.70862367
0.64903082
0.59139717
0.53457087
0.48257405
0.43081155
0.37898884
0.32895219
0.28196281
0.23607305
0.19691871
0.159813
0.13088166
0.084882856
1
1
1
1
1
1
1
1
1
1
1
1
1
1
1
1
1
1
1
1
1
1
1
1
1
1
1
1
1
1
1
1
1
1
1
1
1
1
1
1
1
1
0.99235871
0.97482617
0.94734424
0.90927336
0.83519305
0.74924353
0.66026504
0.57567311
0.49107722
0.40996092
0.33009416
0.25694753
0.19151485
0.13453674
0.086983892
0.040497707
9.3732104e-10
3.6405351e-10
3.640535e-10
3.6406229e-10
3.6405175e-10
3.6405175e-10
3.6405175e-10
3.6405175e-10
3.6407044e-10
3.6415287e-10
3.6407437e-10
3.6405214e-10
3.6405214e-10
3.6405275e-10
3.6407799e-10
3.6410031e-10
3.6410824e-10
1
1
1
1
1
1
1
1
1
1
1
1
1
1
1
1
1
1
1
1
1
1
1
1
1
1
1
1
1
1
1
1
1
1
0.98827161
0.96103701
0.91339822
0.81394547
0.69823253
0.58110813
0.46752834
0.35249414
0.24987084
0.15764685
0.091376092
0.001468179
7.2517754e-10
6.9840832e-10
6.984152e-10
6.9841093e-10
6.984025e-10
6.9839775e-10
6.9839775e-10
6.9839775e-10
6.9841973e-10
6.9844096e-10
6.9839879e-10
6.9839879e-10
1.0029872e-09
9.236366e-10
3.6836288e-10
4.841239e-06
7.3648339e-10
7.6546203e-10
8.1230372e-10
9.4591012e-10
9.0822607e-06
1.7419339e-05
5.4321821e-06
7.3188743e-10
7.3995634e-10
2.2939944e-07
6.1873888e-06
5.8247016e-06
1.3590261e-06
1
1
1
1
1
1
1
1
1
1
1
1
1
1
1
1
1
1
1
1
1
1
1
1
1
1
1
1
0.98156072
0.92797237
0.81529381
0.67118346
0.52088633
0.37194543
0.23134695
0.12678658
0.0012822852
1.0717132e-09
1.0518207e-09
1.0518187e-09
1.0518152e-09
1.0518152e-09
1.0518152e-09
1.0518152e-09
1.0519837e-09
1.2630748e-09
1.215025e-09
1.2872871e-09
3.2024065e-06
2.0710654e-06
2.1305292e-06
1.1265557e-09
1.2402106e-09
1.3971803e-09
5.9764522e-06
4.3419954e-06
1.2641046e-09
1.1180753e-09
1.3382194e-09
8.6765405e-10
3.6787133e-10
3.1776083e-05
0.0024854454
0.017022715
0.027954598
0.018192623
0.00042146515
2.1506261e-09
1.8361692e-09
1.2815201e-09
2.9152842e-07
1.8760987e-05
0.00011626587
8.0072633e-05
1.3718412e-05
1
1
1
1
1
1
1
1
1
1
1
1
1
1
1
1
1
1
1
1
1
1
1
0.97688417
0.90101373
0.73836193
0.55474187
0.36094549
0.20055078
0.02530149
1.6938088e-09
1.4131537e-09
1.4128873e-09
1.412669e-09
1.4121142e-09
1.4119358e-09
1.4135692e-09
1.6053929e-09
8.3645563e-07
1.4791771e-06
1.5774061e-09
1.5970967e-09
1.5909349e-09
1.653297e-09
2.2897513e-05
0.00095330772
0.0016407599
0.0012389692
8.4543612e-05
1.7650298e-09
0.00030606002
0.00051765975
0.0032107691
0.0027829922
0.0002290042
1.565603e-09
1.208469e-09
1.2575333e-09
0.00074545087
0.0009648681
0.00018562208
2.0374907e-09
0.028479788
0.05657074
0.05657074
0.02195442
3.8842373e-08
0.0011496052
0.0078788062
0.0079512941
0.0034368815
1.4868903e-09
1.0498184e-09
1.0498805e-09
6.3553389e-05
1
1
1
1
1
1
1
1
1
1
1
1
1
1
1
1
1
1
1
0.9644582
0.84731771
0.6423547
0.40924549
0.19542799
3.4940988e-09
2.2446069e-09
2.2458605e-09
2.2471778e-09
2.2493285e-09
2.2528489e-09
2.394723e-09
9.2686859e-05
7.0987555e-05
8.6737616e-05
2.0426579e-05
2.1316931e-09
3.3260294e-06
0.00012134375
0.00040124666
0.00078712072
0.0014607086
0.0022489107
0.0023830503
0.0037685868
0.0068925576
0.0068920186
0.0068862445
0.0022286319
2.0959231e-09
1.5781231e-09
1.5077305e-09
0.0047539988
0.0055712954
0.0031164073
2.388692e-09
1.9248807e-09
1.7206121e-09
0.00019377863
0.0014025555
0.0015148259
0.0011377987
2.3953559e-09
1.9296565e-09
0.021796276
0.0043551861
1.913314e-09
0.0028361782
0.0086064739
0.0086172097
0.0086172096
0.0035855156
1.8904026e-09
2.8295809e-08
4.5178416e-08
6.6610656e-09
1
1
1
1
1
1
1
1
1
1
1
1
1
1
1
1
0.92152883
0.72106527
0.45706212
0.1598088
4.5151848e-09
3.4930454e-09
3.4929299e-09
3.4929581e-09
5.3851699e-09
1.1382497e-05
0.0003816874
0.00033263701
0.00020534145
0.0001058323
0.00075184159
0.001438625
0.00080800932
1.4755185e-08
1.832625e-09
1.8638921e-09
0.00036081482
0.0010353934
9.6998243e-05
0.00022179484
0.0069873811
0.0069912464
0.0069964132
0.0069974059
0.0010201876
5.9789777e-08
5.9789777e-08
4.5214472e-05
2.0868605e-09
1.7023343e-09
1.5210301e-09
1.5069177e-09
0.001158865
0.0020259074
0.00059762636
0.0012659725
0.0067636237
0.0043967139
0.00060738835
0.00056821408
0.00021080097
2.3998196e-09
1.9295494e-09
1.9294411e-09
1.5991155e-09
1.5991155e-09
0.00029779181
0.00020451699
0.0006615716
0.0010621275
1.7698553e-09
1.7217496e-09
2.7050844e-08
3.1678632e-08
1.180824e-07
1
1
1
1
1
1
1
1
1
1
1
1
1
0.93060364
0.71732591
0.40699628
0.047788081
5.1950881e-09
4.783863e-09
4.7838616e-09
5.427704e-09
4.5477155e-05
1.0186447e-05
1.2130365e-05
6.4456485e-09
0.0029812291
0.0042815773
0.0038038128
2.2166565e-05
0.00083567921
0.0023909051
0.0014392627
0.00059761174
2.3162523e-09
1.8319071e-09
1.246305e-05
1.925874e-09
1.9361458e-09
1.9477078e-09
1.9476693e-09
1.9479392e-09
2.0304561e-09
2.1873367e-09
0.0069727731
5.9817055e-08
5.9793342e-08
6.0228017e-08
4.0360063e-07
0.00014060001
1.7183858e-09
1.9039794e-09
1.8829595e-09
2.1736074e-09
4.5046524e-05
4.6878581e-05
0.0065916342
0.0090663192
0.0090663191
0.007465297
0.0031795562
0.00016742404
0.0025231889
0.0017349433
2.0989322e-09
1.5991157e-09
0.0038749104
0.00029177711
0.00080256014
9.5435419e-08
9.5581619e-08
4.7907804e-05
2.3850896e-05
2.7320104e-08
2.7720883e-08
2.8044114e-08
1
1
1
1
1
1
1
1
1
1
1
0.86965109
0.54726564
0.10404014
5.7445703e-09
5.0167258e-09
5.0245516e-09
6.0103053e-09
3.5430888e-07
5.0184563e-09
4.0845832e-05
0.00079372604
4.802051e-05
0.00087391862
0.0047566582
5.1091139e-09
4.2503664e-09
4.2676318e-09
5.0147779e-09
6.0558202e-09
6.1017639e-09
6.3263894e-09
0.0010317468
9.4491773e-05
1.8319175e-09
1.8336018e-09
1.8336085e-09
7.4885028e-06
7.0231819e-07
2.3881432e-09
1.9480144e-09
0.00052678889
3.1404883e-05
0.00045674832
5.8330792e-05
6.0286776e-08
2.2346605e-05
1.8764723e-08
0.0010063783
0.0029450218
0.00084341508
0.0010970368
0.0015428454
0.00035147263
0.0017195799
4.1783099e-09
0.0051360607
0.0089663362
0.009029163
0.0034432074
0.00037645442
0.0055270476
0.00099772601
2.1397295e-09
1.804707e-09
0.0017498597
0.0028604767
0.0054713671
0.00012853512
0.0042179758
2.4357976e-05
7.9659579e-08
0.00075908738
0.0039762296
0.0028418403
1
1
1
1
1
1
1
1
1
0.84763587
0.4561587
0.0048617092
6.0553711e-09
6.0260501e-09
7.183625e-09
4.7460216e-05
0.00026003345
0.00025322248
8.363634e-05
5.2545735e-09
0.00075000716
0.000676308
0.0002986867
0.00049147409
0.004828961
4.2505689e-09
4.2503668e-09
4.1358977e-05
0.0013627433
0.0014664826
4.0412384e-05
5.5208422e-05
0.0010317494
8.6539669e-09
1.9154e-09
1.9595839e-08
1.8336277e-09
1.8336299e-09
2.6017342e-09
2.390275e-09
1.9480231e-09
0.0021490647
5.9204193e-08
5.9123253e-08
5.8741444e-08
0.00055653598
0.00020058843
1.8498437e-06
1.0456909e-08
0.0024690023
0.0029782711
0.0042363122
0.00424939
0.0030707604
7.481102e-06
4.0470961e-09
0.00034999673
3.6243515e-09
3.6247723e-09
3.8933502e-09
0.004187283
0.0060628348
2.2364443e-09
2.1255927e-09
0.003056556
9.0827814e-06
5.6167186e-05
5.690533e-05
5.1813434e-05
0.0052600535
1.1317224e-07
7.9745491e-08
0.0032151569
0.0045782462
0.0045798842
1
1
1
1
1
1
1
0.89288207
0.50977232
0.0080945877
6.0928815e-09
6.0031753e-09
6.0046119e-09
1.8086028e-05
0.00072083163
0.0010617835
0.001063468
0.001063275
5.7657596e-09
6.0074374e-09
6.0233348e-09
6.0261556e-09
6.0275804e-09
0.00041806926
0.0011662651
3.5358194e-08
4.2505999e-09
0.0012397861
0.0029347799
0.0029379495
0.0002301454
0.0020066781
0.00072434115
0.00065015104
1.9215714e-09
1.9217376e-09
0.0008505892
0.0060890574
0.011522064
0.0022149563
0.0021346063
5.3832301e-05
0.00022635683
4.5468859e-06
5.879662e-08
0.0010038844
0.0010088268
1.0687676e-08
1.0556097e-08
1.001676e-08
9.4991458e-09
9.5003322e-09
9.5077523e-09
9.5077779e-09
3.1280132e-06
3.8781496e-09
3.6064698e-09
3.5981055e-09
3.8530542e-09
3.9004193e-09
0.034634468
0.04426301
0.020370392
2.2984493e-09
0.01076756
1.711354e-07
1.7118627e-07
0.00011674484
0.0019153347
4.7101703e-09
0.0006717273
0.0008185598
2.1044657e-10
1.2695241e-10
1.2695246e-10
1
1
1
1
1
1
0.73674704
0.10595645
7.2201107e-09
6.4249079e-09
7.8577433e-09
7.0317485e-08
6.559876e-09
0.0011514475
0.0011536717
1.1119481e-07
0.00063524499
6.9440276e-09
6.919214e-09
5.0072776e-07
1.0549234e-05
1.9224104e-06
7.1401559e-07
4.2506994e-09
4.2506995e-09
4.2711019e-09
8.5597129e-08
4.7437098e-09
4.743659e-09
0.0012504843
0.00043654943
0.0025471439
2.8952711e-06
5.4253449e-05
4.3128715e-07
1.9227041e-09
0.0004876522
0.012695667
0.01269152
0.012593615
0.002859163
0.00040413361
0.00052749534
5.8283684e-05
2.0753112e-05
1.975636e-09
0.00025111013
0.0021163427
0.0015264946
2.8653707e-06
9.8264741e-09
4.0135832e-06
6.1082618e-05
9.8559721e-09
9.1290823e-06
0.00073299126
0.00028409343
3.9806555e-09
0.0010851965
0.023530597
0.026845605
0.02003434
0.0074329731
0.0091566001
0.0076529522
0.0096721561
0.00034231581
0.0031125043
0.0031180969
4.9065715e-09
0.0012346024
0.0012360092
0.00014269976
3.102645e-10
9.5160621e-10
1
1
1
1
0.96944477
0.47738191
9.6695412e-09
7.3881319e-09
7.3855993e-09
3.4337471e-07
6.0670211e-05
1.0140067e-06
0.00023958022
7.0558855e-09
6.7089103e-09
8.8946291e-07
6.6274119e-07
2.0798965e-05
0.00018616569
6.1927695e-05
6.0396934e-05
3.2975418e-05
1.2956104e-06
0.00029771692
4.2507131e-09
4.2554768e-09
1.5061685e-06
5.3437716e-09
5.3742962e-09
5.3305547e-09
0.00034016825
0.00061840006
0.00062157673
2.9950644e-09
2.9391162e-09
2.4906575e-09
3.267907e-09
0.0028333088
5.0484627e-09
4.8403018e-09
6.6063017e-05
8.1308171e-05
2.258812e-09
1.5758041e-09
1.5757958e-09
1.9749941e-09
1.5755367e-09
0.0018123234
0.0018121014
0.00015140934
5.4151063e-05
1.0521984e-08
0.0012825631
0.0020878583
0.015180249
0.011849465
0.0018565562
4.0150635e-09
0.028771461
0.049458381
0.0061425822
4.4088804e-09
4.6616951e-09
0.0026951618
1.0057279e-08
0.004163464
0.012805841
0.0068572989
8.4798689e-10
5.8840422e-09
1.1934632e-10
1.1934595e-10
1.1936338e-10
7.6662813e-09
9.1370266e-09
1
1
1
0.95641
0.26648463
1.3015699e-08
1.1386795e-08
1.4125609e-06
7.7053593e-09
7.424794e-05
9.4047719e-05
2.4365432e-06
8.3331975e-08
0.00037115322
6.7352721e-09
2.4774137e-06
6.8390085e-05
0.00010601558
0.00028880676
4.5801763e-09
4.9131025e-09
6.2572534e-09
0.0048801453
0.0045296146
4.3616667e-09
5.0438252e-09
5.6691324e-09
6.6195402e-05
0.00023143866
2.4099265e-07
0.0013357734
3.104338e-07
0.0020113569
0.002386335
0.00051145052
0.0038267179
2.2168374e-05
4.9480135e-09
0.0058942576
4.8399895e-09
9.1731638e-05
1.1659556e-05
2.7878312e-09
1.9382998e-09
1.575842e-09
0.001967279
2.0626665e-09
2.5592569e-09
0.00089566014
0.0018644428
0.000382894
1.0486667e-08
1.0193912e-08
0.0066560263
0.015330623
0.015330623
0.0042358303
4.1601126e-09
0.016903932
0.049458381
0.011815932
4.1071571e-09
2.1412658e-06
1.0332771e-08
1.0169809e-08
1.1739233e-08
0.012805841
0.0021488456
8.4799317e-10
1.3233527e-09
1.0332929e-09
7.9643389e-10
2.5905559e-09
8.9973067e-09
1.2361768e-08
1
1
0.98700212
0.24927
1.5326606e-08
1.3301983e-08
4.3346618e-07
1.250443e-05
4.0985489e-06
7.4694279e-09
7.4431105e-09
8.3609191e-05
8.3123014e-05
0.0010019629
6.7060708e-09
7.8104594e-09
4.2251565e-05
9.5880634e-05
5.3673421e-09
5.3677351e-09
1.4246231e-05
0.0025602049
0.0049205821
0.0049205821
6.4970172e-05
0.0022951205
4.1736083e-05
0.00078391044
0.00078390967
8.0771365e-05
0.00049776367
2.4108326e-06
5.959839e-08
0.00085777872
0.007352325
0.0073523249
0.00050475495
4.5180987e-09
0.010786722
4.6958724e-09
6.6398495e-06
1.378539e-06
1.4581403e-05
1.7678369e-06
1.5766246e-09
0.0045372524
0.0028197427
3.098862e-09
3.3382766e-09
0.00073578177
0.00012998226
0.00018799133
1.8220762e-05
3.9948118e-08
0.012656019
0.011799898
0.0010742657
9.7008682e-05
2.436616e-09
0.021805514
0.0035835968
3.8713266e-09
3.5432215e-09
2.3692745e-08
1.6175753e-06
5.542113e-06
0.0008598512
2.1547303e-09
5.396836e-09
1.4998526e-09
1.2464377e-09
1.0514559e-09
1.2778174e-09
1.4414276e-09
1.2589757e-08
1
1
0.31555857
3.5131839e-08
3.2605133e-08
1.3456512e-08
4.7821358e-06
1.2648062e-07
1.265911e-07
5.3228777e-07
7.6483031e-09
2.5444766e-05
0.00068557438
0.00070899248
7.5256042e-09
8.956013e-09
6.5761605e-05
0.00021890609
6.0260863e-09
6.1249069e-09
1.7329809e-05
0.0033655809
0.00214584
0.0022040921
0.00058865741
0.0044355641
0.00042163178
0.00053978495
0.00068344965
0.00013665865
1.4603088e-07
0.0021884028
7.3087617e-05
1.1706334e-08
0.0030030445
0.0048226683
0.00033007775
0.0050210294
0.0068928751
4.6951382e-09
5.0124962e-09
8.0550606e-06
3.33727e-05
1.008515e-05
1.5781793e-09
0.004537386
0.0045373571
0.00030698105
0.001090399
7.7278559e-06
0.0027301976
0.0027578897
0.0010238528
0.00010278815
0.00075033892
0.0004456393
2.3204902e-09
2.1291809e-09
2.1759058e-09
2.4330783e-09
2.6679869e-09
1.4559837e-06
3.1429916e-09
3.1435837e-09
0.0001972211
3.8307607e-05
8.8307357e-10
1.9111956e-09
2.1434254e-09
6.774345e-06
3.6293166e-05
5.7012621e-05
4.7648812e-05
1.1875627e-06
1.277189e-08
1
0.64552079
0.02471635
0.00026753894
3.4648033e-08
5.0540796e-08
4.8882867e-08
1.2617295e-07
2.1160233e-07
1.4967519e-06
7.5149593e-09
6.1023032e-09
6.1021407e-09
7.6852404e-09
1.1070142e-05
0.00084521502
6.0731306e-06
7.8974668e-06
1.7849797e-05
3.2045616e-05
0.0028614772
0.0033655543
3.2312632e-05
3.231234e-05
0.00016802481
0.0016396921
0.00032549427
7.0234919e-05
5.3582452e-08
5.9286517e-05
0.00362325
0.003631021
0.0011512039
1.1209276e-08
1.0905609e-08
1.090561e-08
1.1251395e-08
0.00048433725
5.195787e-09
5.1694565e-09
4.7005332e-09
6.229009e-07
2.5328799e-07
3.6178164e-09
4.4632518e-07
0.0045376435
0.00055197576
0.002651086
0.0026504561
0.001386969
0.0032422419
2.1118666e-05
1.9569959e-09
1.9522997e-09
0.00040150999
0.0015900258
0.0049674391
2.4849736e-09
2.103256e-09
2.2837953e-09
3.0057116e-09
3.2194575e-09
0.00018141389
0.0010092061
0.00051574029
9.3453094e-10
7.0736579e-10
2.9609682e-09
2.3343658e-09
1.1109552e-05
7.3864935e-05
7.4762112e-05
7.4778978e-05
1.9753858e-05
3.2417877e-05
0.97003422
0.080683373
6.4201511e-08
6.1055614e-08
6.6785625e-08
5.0720913e-08
4.8849825e-08
1.0632431e-07
8.9754678e-07
7.677112e-09
7.1358943e-05
7.685997e-09
1.1864077e-08
9.3579689e-09
0.00049573152
0.0011484894
1.5492008e-07
2.701025e-05
0.00043891574
0.0028078797
0.0029304321
0.00040705957
0.0007760055
0.0024659896
2.0952311e-08
2.0952388e-08
0.0027628651
5.3565214e-05
5.2589712e-08
3.628703e-06
0.0011882336
7.8207884e-05
0.0031500146
0.00076672184
1.1461488e-08
1.3935222e-08
0.0010607678
0.0013919089
1.8957179e-05
0.00092513467
5.4448637e-05
3.2549104e-09
3.0845126e-09
3.6125651e-09
0.0021916282
0.0045376729
0.00012947179
0.0020502767
1.8298192e-09
0.0020839336
0.00011538248
2.7640173e-09
2.3835097e-09
2.3787677e-09
2.4344571e-09
0.011085953
0.012368228
0.012375681
0.0017893781
2.2552351e-09
2.0532902e-09
1.8964606e-07
0.00013903744
0.00031128349
0.00021423913
7.9482235e-06
5.4661053e-10
9.1547347e-09
1.3606734e-07
9.7687167e-10
7.8994471e-10
5.7751637e-10
5.7751645e-10
2.3038358e-05
9.9190214e-05
0.32175734
3.7379213e-07
2.2777006e-05
2.8123217e-06
1.9413214e-06
3.3233184e-08
3.3085599e-08
3.7618246e-08
7.6677386e-09
7.6167864e-09
0.00024100294
7.349038e-05
1.3767758e-08
3.5132746e-05
0.00022615874
0.00013371932
0.00011779927
0.00078737384
3.1230408e-09
3.123653e-09
0.0012436435
1.4098701e-07
0.00077329212
0.0025751712
3.5757222e-08
2.8724899e-07
0.0046073203
0.00024548437
0.0010594654
9.162484e-05
4.7344488e-09
4.8565165e-09
0.001943222
0.0042285749
0.00051995379
1.9610282e-07
0.0070071837
0.00086929413
3.6144496e-09
0.0016507466
0.0016520657
5.6498569e-05
3.0885298e-09
0.018770528
0.021666675
0.0028551361
2.3884391e-09
2.0673923e-09
1.6531298e-09
1.5958172e-09
1.6493345e-09
0.014922874
0.01813277
0.01861224
0.0012991895
0.002365993
0.0025905784
0.022027139
2.3455179e-09
2.2557831e-09
0.0069058622
4.8118588e-09
0.0093715076
4.0313808e-08
4.0432006e-08
1.2504227e-05
0.00034662369
7.1307691e-10
3.5220573e-08
0.00014092962
0.00019929126
7.4446011e-10
7.5549756e-10
5.8303118e-10
3.9390796e-05
0.10223278
3.7463907e-07
0.00028688257
0.00012308008
5.7236118e-08
5.7159583e-08
2.956461e-08
3.7854937e-08
2.2283731e-08
7.6472423e-09
0.00013699119
0.0001705214
1.8101027e-08
2.754054e-06
4.71641e-09
4.7245248e-09
7.937511e-06
8.7470955e-05
2.9757621e-07
3.1023675e-09
3.0893107e-09
5.5959672e-07
1.8793387e-07
0.00024356677
2.6342534e-05
2.2641564e-05
0.00374629
0.00066451386
0.0022843708
0.0011667465
4.186039e-09
0.00022285076
8.0742043e-08
0.0038679234
0.0024267713
0.0013282654
0.0069701684
0.00027209677
3.3463606e-09
2.9417261e-09
0.00021536818
1.6935579e-05
3.2469702e-09
0.021666597
0.021666675
0.00039519257
2.2100465e-09
1.9077864e-09
1.9064729e-09
1.5958179e-09
0.00046877833
0.01955489
0.019615956
0.019615956
0.0095323041
5.1175419e-05
5.1175062e-05
5.1175045e-05
0.058835108
0.067668104
0.067806756
0.063486733
0.067806859
0.028585835
2.8598561e-06
0.0031795536
0.0002090876
8.3339119e-10
6.7593068e-10
0.001462881
0.0014628933
0.00046468587
9.6710943e-10
2.8850391e-09
5.8625481e-10
2.5391375e-08
4.888878e-05
0.00028687865
1.9053264e-08
1.282668e-07
4.6899264e-08
2.852322e-08
4.419816e-08
2.4581402e-08
3.4362104e-08
8.9747022e-09
8.9742826e-09
0.00038361264
4.3181006e-08
4.5340569e-08
4.7009754e-09
3.6195776e-09
3.6070988e-09
5.0255904e-09
3.8115142e-09
4.0005552e-09
7.7439626e-06
5.7659489e-05
1.6736105e-05
0.0019715223
0.00024422918
3.2502397e-07
0.00022510978
0.0022843707
3.4907755e-09
3.4808437e-09
0.00046398905
0.00015014843
1.4284178e-09
7.4467039e-10
0.0016737226
6.2951518e-06
4.111106e-09
1.6132118e-06
3.5925488e-07
4.0868795e-09
4.0902771e-09
0.0037049069
0.0077989261
0.0040525452
2.7187687e-06
2.443854e-09
3.4255994e-06
0.00023460762
1.6374677e-09
0.0076143217
9.7305223e-10
0.0026132065
0.0012006807
0.010673454
0.002325035
8.9801324e-05
0.0001781601
0.0039206012
0.030615006
0.042782778
0.066303456
0.0059282518
0.0079726693
0.0081124704
0.00022766759
8.0093058e-10
7.5171344e-10
6.807744e-10
0.00070721174
0.0014628933
0.0014628933
1.8676776e-05
3.0492844e-09
6.5864826e-09
6.6689323e-05
0.00028270896
0.0002868643
1.9099078e-08
1.9883837e-06
2.0266896e-08
3.1971293e-08
6.4764024e-08
2.7142483e-08
3.6407823e-08
2.1150398e-08
8.9780156e-09
0.00080401726
1.62663e-05
4.6669098e-08
0.00037845174
0.0010350921
4.918544e-09
6.2244448e-09
0.00010116545
0.0022591415
4.4188039e-07
7.5545477e-06
5.4787533e-08
0.0019678479
0.00011475657
1.2288754e-05
0.0020160146
0.0001894929
3.9571646e-09
0.0006395909
0.00034768096
1.9909363e-09
1.318764e-09
1.1049783e-09
1.1050079e-09
1.7503149e-05
4.0980306e-09
3.7225097e-09
3.7659505e-09
3.6866607e-09
0.017986054
0.018586939
1.6311778e-06
2.3251199e-08
2.3290331e-08
4.1852589e-06
1.2640316e-07
0.00054096274
0.00053081145
9.2876045e-10
8.8275612e-10
6.6584187e-10
6.6355234e-10
0.0055324782
0.0035416157
0.0012444418
1.6541526e-09
1.436457e-09
1.2624987e-09
1.2841576e-09
0.0034859987
8.7422474e-10
1.0421914e-09
0.00041339351
2.5154375e-06
0.0020000036
8.1786338e-10
1.0857027e-06
6.2071336e-10
0.001229769
0.0014628934
0.00066792679
4.5338946e-07
6.7732357e-09
0.00014902951
3.3357247e-08
0.00028685633
4.7445452e-08
1.9245217e-08
2.2109269e-08
4.0739161e-08
1.0009045e-07
3.9965504e-07
3.3392824e-08
8.2642048e-08
2.1069346e-08
2.1575659e-08
0.0012631551
5.5534897e-05
0.0010409271
0.0012882339
0.00054336691
0.0028824804
0.0032336593
0.0042718412
2.240624e-05
0.00031919683
0.0014542882
8.9075928e-09
8.9122047e-09
6.3205895e-05
0.0045898907
0.00090090082
0.00041880584
0.0011158199
2.7760524e-08
3.2405641e-09
7.3776468e-10
1.4044518e-05
7.7717402e-08
2.0510324e-09
0.00081167975
4.2196087e-09
4.1623733e-09
0.0013359241
0.002665336
6.1130595e-10
1.0618176e-09
0.0091848928
0.0060931985
0.00049577916
0.00059962548
1.419669e-09
1.1645735e-09
1.1475873e-09
0.00021558498
1.4943685e-05
7.3097975e-10
4.7455276e-10
0.0039672319
0.0015255219
0.00094456271
1.2926656e-09
1.04939e-09
1.0493904e-09
1.2039581e-09
3.2559841e-09
1.2788094e-09
1.4139073e-09
0.00044146758
0.0014330133
0.0014311997
2.5941617e-05
6.205996e-10
4.9213931e-10
0.00052266759
0.0008153729
3.9667106e-05
7.0589276e-09
3.0495567e-08
3.3159168e-08
6.7469075e-05
2.9554439e-08
2.7135722e-08
2.3737269e-08
5.1750434e-08
8.2911611e-08
2.7155835e-08
3.0680902e-08
1.7109237e-07
2.2421553e-08
4.5779939e-06
0.00096444651
0.00028227946
1.9418378e-07
0.00017820177
0.0003031879
0.0032103565
0.0032263975
0.0012463332
3.0567277e-06
7.4296441e-05
0.00068205431
4.1259784e-06
1.024947e-07
5.218683e-05
0.0031377407
0.00031548519
0.0045561002
0.00047974781
8.9661559e-10
4.7315369e-10
0.00078567164
0.00051407307
1.8392767e-09
0.0026080712
0.0033296125
0.0026979465
0.0022399982
0.00031873794
9.1208584e-10
5.7036341e-10
0.014673627
0.023701301
0.023701301
0.0018834718
0.00035564689
0.0096108236
2.0365121e-05
0.0014521222
0.0016207361
7.3011169e-05
6.5877095e-10
4.7454182e-10
0.0047821568
0.0023909633
5.7060609e-05
1.3230837e-09
0.00089913702
0.0001492616
1.2004442e-09
1.3675034e-09
0.00051410805
1.0020541e-05
3.382881e-05
4.2733672e-06
0.00012443387
2.8278318e-06
1.0181106e-07
7.4814281e-10
4.841871e-10
4.8418685e-10
1.4061873e-05
5.3489832e-05
8.7432505e-07
6.8523035e-06
5.8716215e-07
0.00013298646
2.7280701e-08
2.5877685e-08
6.2846993e-08
3.3301303e-07
2.9270823e-08
3.1230783e-08
1.6010375e-07
8.1854506e-05
0.00056356322
1.3214522e-08
1.2548599e-08
3.4067937e-05
1.9781252e-07
0.0022356635
3.2702685e-09
3.2702687e-09
3.294674e-09
3.3220669e-09
4.9174033e-05
9.7585367e-09
0.00011239062
6.7871498e-06
2.6554731e-09
3.2726709e-09
3.5341313e-09
0.0044199099
0.0013079953
2.3571367e-05
1.0316265e-08
0.00080820285
1.7022289e-09
1.6053304e-09
1.0870524e-05
0.0028395966
0.0036086477
0.0036905775
0.0018135294
1.120661e-09
7.3326097e-10
0.017062953
0.017073654
0.0094827175
0.00072127499
7.0707326e-10
0.049409385
0.013620845
0.010724087
0.00057767541
9.4430639e-10
7.4233272e-10
4.7453222e-10
0.002656592
0.00036819055
1.3377376e-09
1.3232746e-09
0.00024439724
4.9001983e-05
1.3542375e-09
6.9671047e-05
0.00064701848
9.6230605e-06
5.8756926e-10
1.7836773e-05
1.5734827e-07
2.2243037e-05
2.4878595e-06
9.4891396e-10
1.018189e-09
5.1828586e-10
5.2277402e-10
6.4267707e-05
5.1346773e-06
0.00014481315
1.2599356e-05
0.00023579115
6.4560192e-05
2.5898637e-08
6.6816371e-08
1.1491388e-06
1.1505238e-06
3.7010248e-07
4.6540801e-08
0.000838352
0.0010361808
0.001035988
1.2846331e-08
0.00013047131
0.003055135
0.0030612219
3.3995492e-09
3.8496938e-09
1.2539577e-05
0.00060714751
0.00059882829
9.1207528e-09
0.00011228162
3.8394031e-09
3.1657774e-09
3.2323335e-09
0.00071073519
1.1999801e-05
0.0026487551
0.00032886269
3.7506241e-09
1.2876451e-05
2.7838177e-08
1.9342852e-09
2.2255685e-09
2.6951386e-09
0.00023400547
1.0242703e-08
0.00046186487
0.00031121368
0.0036109015
7.3681626e-10
6.4390954e-10
6.7439978e-10
6.6217993e-10
6.4390828e-10
0.049407677
0.024613375
1.2972969e-09
1.0458424e-09
1.0739612e-09
7.275056e-10
4.7452399e-10
6.7690032e-10
0.00085048236
0.0054179492
1.3272323e-09
1.3475455e-09
1.3506067e-09
5.0790749e-06
0.00031049208
0.00028092717
3.714419e-05
4.3942536e-10
4.3942158e-10
0.00043141768
0.00053633702
2.2902911e-05
1.0925089e-09
5.7860717e-09
6.432929e-10
2.6372405e-07
3.656234e-319
1.3285325e-08
0.00014415812
1.3378546e-08
1.365256e-08
1.5631385e-05
9.6026513e-07
3.7763745e-08
3.7914791e-08
1.1482234e-06
7.5381596e-09
5.4323085e-06
1.4422159e-07
8.6264891e-06
0.00047477976
1.0317579e-06
2.1185339e-05
0.0020256051
0.00023565954
3.4941064e-06
4.0191391e-09
1.9901893e-06
0.00065560636
4.7828151e-09
9.0465545e-09
9.2192131e-09
0.0011226908
0.0022737936
0.0016421147
0.0024235718
1.801171e-05
8.7719874e-05
1.4282012e-07
4.24998e-05
8.9489661e-06
4.4634967e-09
0.00073173231
2.5416138e-09
2.5516932e-09
0.0075521697
0.00048722328
1.1660161e-07
1.1650914e-07
0.011016533
0.0012234109
8.8905858e-10
0.00053023212
2.9666982e-05
6.4617268e-10
0.014422935
0.036199282
0.0030870786
1.1707258e-09
9.2641315e-10
6.6539481e-10
4.7310609e-10
4.5816555e-10
0.014982899
0.041228472
0.037079539
0.0063395206
0.0056905002
1.2371991e-09
1.234988e-09
1.2353085e-09
3.4018568e-05
9.5233163e-08
4.3942158e-10
0.002221151
0.00099587298
8.5480089e-05
6.1869735e-06
2.3666523e-07
6.6416403e-05
2.0263495e-06
-2.0298193e-319
5.9676622e-07
1.1800402e-08
1.3377007e-08
1.3380767e-08
1.4687567e-08
1.4999738e-08
4.5864979e-08
6.9650504e-08
7.5457522e-09
7.4709813e-09
7.2126637e-07
2.6053684e-05
6.2256873e-05
7.1990254e-09
5.7560416e-09
4.9514196e-09
5.2080399e-09
4.3538938e-09
4.3286375e-09
4.4994374e-09
4.0035772e-08
5.3574351e-05
1.7482239e-08
9.7475369e-09
2.0887253e-05
0.0058653028
0.0058652957
1.4235518e-09
1.4235517e-09
1.4279835e-09
0.0012282872
0.00080457543
5.6383943e-05
7.8643593e-09
0.00065966831
0.0038598648
0.00020544542
2.6226673e-05
0.0089342038
0.0009221279
0.0008813631
0.0019679294
1.3603215e-09
1.2916422e-09
0.00035957449
0.0015324858
0.000688215
8.8653054e-10
8.9235684e-10
0.03054576
0.018029987
0.00044288048
9.0596043e-10
6.8848894e-10
5.2486875e-10
4.5816558e-10
0.0029689691
0.026811504
0.0015217534
0.0010841022
0.00094260398
0.00050827016
1.2479196e-09
1.3913895e-09
1.4881139e-09
4.3010902e-08
4.3962715e-10
0.0014747407
1.0258711e-09
9.4247453e-05
2.1257889e-05
1.0487611e-06
0.00021491392
5.9516894e-06
2.9297573e-06
1.2354537e-05
1.4182792e-08
2.1806652e-05
1.5822804e-05
1.4793596e-08
7.6277007e-08
4.7042376e-08
8.0992856e-08
6.0582566e-08
8.2394239e-09
8.9504443e-09
8.091688e-05
0.00025195925
5.7285133e-09
5.7867644e-09
5.7561453e-09
5.2225126e-09
3.0990142e-06
4.7489344e-09
4.8467687e-09
5.3290612e-09
5.2714136e-09
5.6647076e-09
6.2024799e-05
3.4014322e-05
0.0058653028
0.0055283998
1.7177446e-09
1.8097553e-09
5.9181964e-08
0.0018088742
0.0018065883
0.00020991948
7.5555384e-09
0.0035179124
0.0030335348
0.00095151004
1.206277e-06
0.0014943668
1.4291581e-09
0.0051544512
0.0051501194
0.00064915121
1.3986084e-09
0.0015313477
0.0010696586
3.6348169e-05
8.8659588e-10
0.000274738
5.7473246e-10
0.022866841
0.019635025
0.009673924
0.0014121311
7.5148578e-10
5.807841e-10
7.4161155e-10
8.9596512e-10
1.0331712e-09
1.1758891e-09
1.3165698e-09
5.1577176e-05
5.1712871e-06
3.590157e-05
1.2581375e-09
9.1785877e-09
8.2965674e-09
8.511974e-10
8.9338866e-10
3.4357175e-10
3.4356587e-10
3.4355912e-10
0.0002149085
2.6864184e-10
7.877e-08
1.2387885e-05
0.00050156325
7.5604658e-05
0.00018679818
1.4795737e-08
9.9961552e-08
1.9314497e-07
7.908645e-08
4.9667071e-07
2.1151722e-07
9.0695261e-09
3.8995506e-06
0.00012644488
0.00011808019
6.5251448e-09
0.0023388118
1.6044352e-05
2.1655621e-06
5.2334413e-09
5.3154235e-09
5.6496936e-05
4.8075408e-09
2.2683544e-05
1.0590215e-05
1.0589916e-05
0.0015260262
2.2636265e-08
0.00054490865
7.7427341e-07
2.6876873e-05
0.0018088742
2.0490092e-08
2.0549648e-08
0.0019023734
2.5086371e-08
2.5059133e-08
2.315112e-06
0.0015999787
1.633838e-09
1.4280805e-09
1.0684489e-09
1.0684488e-09
1.068449e-09
1.3287599e-09
0.00031108817
7.2737732e-10
6.5594954e-10
0.024147572
0.0047856142
5.7438579e-10
0.00200545
0.019622812
0.019599303
0.018394776
4.8362924e-05
4.4446392e-10
5.9600106e-10
6.913432e-10
1.7881458e-09
1.1663478e-08
1.0736613e-07
8.6540047e-10
3.4378007e-06
9.8542299e-05
5.8740858e-05
2.1910646e-09
2.0803166e-09
6.8889329e-10
3.048064e-09
3.0541221e-09
8.986625e-10
3.4619521e-10
6.8574928e-05
6.0694214e-09
1.7310254e-08
3.6259138e-07
0.00064906923
5.4227065e-06
3.4380612e-05
1.9749595e-06
1.1639717e-08
1.1684298e-08
4.4196681e-08
4.4057986e-07
1.0808413e-05
4.8908869e-07
5.0103411e-09
1.9619281e-06
0.00054612154
0.0011988867
0.0042895048
8.2759736e-06
1.2463788e-05
0.00024304571
0.00011759402
0.00055227158
0.0018512188
0.0018528062
0.00070877128
3.8593212e-05
2.263597e-08