/*--------------------------------*- C++ -*----------------------------------*\
| =========                 |                                                 |
| \\      /  F ield         | OpenFOAM: The Open Source CFD Toolbox           |
|  \\    /   O peration     | Version:  2.3.0                                 |
|   \\  /    A nd           | Web:      www.OpenFOAM.org                      |
|    \\/     M anipulation  |                                                 |
\*---------------------------------------------------------------------------*/
FoamFile
{
    version     2.0;
    format      ascii;
    class       volScalarField;
    location    "3.8e-05";
    object      nuSgs;
}
// * * * * * * * * * * * * * * * * * * * * * * * * * * * * * * * * * * * * * //

dimensions      [0 2 -1 0 0 0 0];

internalField   nonuniform List<scalar> 
7500
(
4.1404218e-10
4.189977e-10
4.2389808e-10
4.2878319e-10
4.3360623e-10
4.3836754e-10
4.4310267e-10
4.4776876e-10
4.5240206e-10
4.5698591e-10
4.6151572e-10
4.6600916e-10
4.7045085e-10
4.748501e-10
4.7920334e-10
4.8351463e-10
4.8778464e-10
4.9201094e-10
4.961928e-10
5.0034037e-10
5.0444415e-10
5.0850724e-10
5.1252819e-10
5.1650915e-10
5.2044406e-10
5.2432454e-10
5.2814731e-10
5.3191781e-10
5.3564684e-10
5.3932113e-10
5.4295794e-10
5.465534e-10
5.5011812e-10
5.5362749e-10
5.5710312e-10
5.6053546e-10
5.6391649e-10
5.6724797e-10
5.7053111e-10
5.795631e-10
5.8313143e-10
5.8665969e-10
5.9015797e-10
5.9362204e-10
5.9706116e-10
6.0046253e-10
6.0385839e-10
6.0720784e-10
6.1058334e-10
6.1389822e-10
6.172793e-10
6.2057554e-10
6.2399359e-10
6.2729279e-10
6.3079107e-10
6.3412082e-10
6.3775608e-10
6.4115449e-10
6.4499451e-10
6.4849523e-10
6.5260526e-10
6.5625057e-10
6.6071513e-10
6.6455273e-10
6.6946891e-10
6.7355869e-10
6.7905112e-10
6.8346016e-10
6.8965748e-10
6.9441246e-10
7.013766e-10
7.0651573e-10
7.1432245e-10
7.1990156e-10
7.3082765e-10
4.5545844e-10
4.6090695e-10
4.6630982e-10
4.7167224e-10
4.769774e-10
4.8223741e-10
4.8745878e-10
4.9262014e-10
4.977436e-10
5.0280974e-10
5.0783587e-10
5.1280345e-10
5.1773209e-10
5.2260272e-10
5.2743351e-10
5.3221932e-10
5.3696219e-10
5.4165982e-10
5.4631607e-10
5.5092454e-10
5.5549322e-10
5.6000214e-10
5.644664e-10
5.6887394e-10
5.7323266e-10
5.7754052e-10
5.8180032e-10
5.8601211e-10
5.9017774e-10
5.9429707e-10
5.9837248e-10
6.0240564e-10
6.0639836e-10
6.1035338e-10
6.142796e-10
6.1817511e-10
6.2206867e-10
6.2593348e-10
6.2984324e-10
6.4010716e-10
6.4450718e-10
6.4886477e-10
6.5346968e-10
6.5800391e-10
6.6296465e-10
6.6780442e-10
6.7333566e-10
6.7863719e-10
6.8499397e-10
6.9093599e-10
6.9841615e-10
7.0520345e-10
7.1413577e-10
7.2200393e-10
7.3280741e-10
7.4199348e-10
7.5503002e-10
7.6577636e-10
7.8149151e-10
7.9400702e-10
8.1269616e-10
8.2712585e-10
8.4903536e-10
8.6547412e-10
8.9083049e-10
9.0945459e-10
9.3865365e-10
9.5966723e-10
9.9295155e-10
1.0160589e-09
1.0530674e-09
1.0780025e-09
1.1182658e-09
1.1451345e-09
1.2028074e-09
5.010664e-10
5.0714097e-10
5.1322182e-10
5.1921732e-10
5.2521726e-10
5.311388e-10
5.370811e-10
5.4291666e-10
5.4878123e-10
5.5452402e-10
5.6028296e-10
5.65911e-10
5.7154579e-10
5.77065e-10
5.8259249e-10
5.8802046e-10
5.9347981e-10
5.9882991e-10
6.0424351e-10
6.0951489e-10
6.1486307e-10
6.2004646e-10
6.2530789e-10
6.3040307e-10
6.3557675e-10
6.4060083e-10
6.4571423e-10
6.5070785e-10
6.5582679e-10
6.6086004e-10
6.6609961e-10
6.7131344e-10
6.7691438e-10
6.8255372e-10
6.8893967e-10
6.9540169e-10
7.0324399e-10
7.1109619e-10
7.2132357e-10
7.3867058e-10
7.5301793e-10
7.6668969e-10
7.8631211e-10
8.0436745e-10
8.3102264e-10
8.5477936e-10
8.9040069e-10
9.209916e-10
9.6721515e-10
1.005471e-09
1.0635245e-09
1.1099674e-09
1.1803623e-09
1.2353365e-09
1.3187548e-09
1.3820495e-09
1.477951e-09
1.5494686e-09
1.6579878e-09
1.7371907e-09
1.8572424e-09
1.9433363e-09
2.0735876e-09
2.1657474e-09
2.3053767e-09
2.4036235e-09
2.5537283e-09
2.658501e-09
2.8183175e-09
2.9277804e-09
3.0950624e-09
3.207182e-09
3.3791532e-09
3.4948573e-09
3.7316346e-09
5.5173687e-10
5.5904901e-10
5.6691067e-10
5.7424613e-10
5.8186716e-10
5.8913584e-10
5.9648264e-10
6.0359253e-10
6.108455e-10
6.1777917e-10
6.2484211e-10
6.3153233e-10
6.3845824e-10
6.4502102e-10
6.5190945e-10
6.5843189e-10
6.6537202e-10
6.7191162e-10
6.7897835e-10
6.8556167e-10
6.9276135e-10
6.9943542e-10
7.0685185e-10
7.1377693e-10
7.2167632e-10
7.2923575e-10
7.3827283e-10
7.4725967e-10
7.5874627e-10
7.7060766e-10
7.8699921e-10
8.0424656e-10
8.2974345e-10
8.5588713e-10
8.9612497e-10
9.3536507e-10
9.9676412e-10
1.0531688e-09
1.1412348e-09
1.2298357e-09
1.3501239e-09
1.4506781e-09
1.6054422e-09
1.7301157e-09
1.9204519e-09
2.0702015e-09
2.2975579e-09
2.4721557e-09
2.7366705e-09
2.9352775e-09
3.2364698e-09
3.4580025e-09
3.7933611e-09
4.0375631e-09
4.406982e-09
4.6716193e-09
5.071555e-09
5.3564535e-09
5.7871046e-09
6.0900644e-09
6.5472396e-09
6.8653773e-09
7.3432414e-09
7.6736078e-09
8.1685394e-09
8.511627e-09
9.0300206e-09
9.3870854e-09
9.9239308e-09
1.0290687e-08
1.0839165e-08
1.120784e-08
1.1760304e-08
1.2134124e-08
1.2876798e-08
5.988707e-10
6.1104912e-10
6.2114572e-10
6.3293157e-10
6.4246648e-10
6.5427991e-10
6.6353471e-10
6.7462889e-10
6.8384902e-10
6.9414505e-10
7.0383813e-10
7.1348896e-10
7.2373858e-10
7.3311088e-10
7.4410236e-10
7.5374755e-10
7.6555015e-10
7.7571431e-10
7.8850946e-10
7.9966531e-10
8.1429402e-10
8.2778119e-10
8.4666397e-10
8.653586e-10
8.9345549e-10
9.234909e-10
9.7145023e-10
1.0227718e-09
1.1056428e-09
1.1904124e-09
1.3265199e-09
1.457288e-09
1.6639273e-09
1.8484e-09
2.1363499e-09
2.3786833e-09
2.7555878e-09
3.058322e-09
3.5265218e-09
3.8892911e-09
4.4499071e-09
4.8756105e-09
5.533854e-09
6.0232133e-09
6.7777715e-09
7.3321315e-09
8.1852567e-09
8.8031886e-09
9.7537091e-09
1.0432183e-08
1.1477981e-08
1.2211809e-08
1.3341856e-08
1.4129991e-08
1.5340073e-08
1.6174385e-08
1.7453279e-08
1.8333792e-08
1.9681312e-08
2.0600893e-08
2.2004305e-08
2.2953328e-08
2.43918e-08
2.536034e-08
2.6817218e-08
2.7807774e-08
2.9309059e-08
3.032155e-08
3.184946e-08
3.2877194e-08
3.4408596e-08
3.5429319e-08
3.69503e-08
3.7969334e-08
3.9961492e-08
6.324082e-10
6.4616634e-10
6.5735608e-10
6.723566e-10
6.8407778e-10
7.002316e-10
7.1282284e-10
7.2882583e-10
7.440327e-10
7.5881383e-10
7.7617891e-10
7.9051259e-10
8.1029212e-10
8.2584511e-10
8.4846497e-10
8.6612555e-10
8.9285764e-10
9.1514817e-10
9.4965805e-10
9.8328728e-10
1.0381702e-09
1.0998872e-09
1.2031615e-09
1.3174259e-09
1.5075491e-09
1.7078621e-09
2.0330571e-09
2.3425314e-09
2.8308101e-09
3.2645218e-09
3.9464409e-09
4.5203849e-09
5.4201283e-09
6.1407695e-09
7.2713713e-09
8.1437783e-09
9.5212592e-09
1.0550488e-08
1.2172025e-08
1.3354695e-08
1.52204e-08
1.6560411e-08
1.8675715e-08
2.0170153e-08
2.2522477e-08
2.4169454e-08
2.67551e-08
2.8548572e-08
3.1357307e-08
3.3287038e-08
3.6309523e-08
3.8354735e-08
4.1555518e-08
4.3710394e-08
4.70646e-08
4.9306044e-08
5.2785563e-08
5.5113628e-08
5.871449e-08
6.1112091e-08
6.480642e-08
6.7246748e-08
7.09752e-08
7.3430536e-08
7.7131871e-08
7.9616483e-08
8.3375679e-08
8.5877819e-08
8.9655885e-08
9.217202e-08
9.5891329e-08
9.8367858e-08
1.0202251e-07
1.044649e-07
1.0911827e-07
6.5670991e-10
6.6847593e-10
6.8022908e-10
6.9485514e-10
7.0995314e-10
7.2590976e-10
7.4584182e-10
7.6302193e-10
7.8777873e-10
8.0700131e-10
8.3678744e-10
8.5915902e-10
8.9577581e-10
9.2480553e-10
9.7363384e-10
1.0199928e-09
1.0974923e-09
1.1917976e-09
1.3361708e-09
1.537488e-09
1.8384329e-09
2.2163593e-09
2.7730609e-09
3.3539647e-09
4.2510937e-09
5.0949962e-09
6.4138721e-09
7.5449395e-09
9.3225882e-09
1.0772434e-08
1.3083533e-08
1.488471e-08
1.7764441e-08
1.9921585e-08
2.3375789e-08
2.5891016e-08
2.99476e-08
3.2819163e-08
3.7434534e-08
4.0643182e-08
4.5802968e-08
4.9340294e-08
5.502686e-08
5.8871143e-08
6.5030428e-08
6.9161655e-08
7.5755633e-08
8.0159688e-08
8.7149364e-08
9.1802733e-08
9.9161209e-08
1.0400389e-07
1.1165174e-07
1.166633e-07
1.2451824e-07
1.2965093e-07
1.3766366e-07
1.4291662e-07
1.5106564e-07
1.564138e-07
1.6467074e-07
1.7005651e-07
1.7828736e-07
1.8364204e-07
1.9166987e-07
1.9705494e-07
2.0509453e-07
2.1047153e-07
2.1849162e-07
2.2387063e-07
2.3162775e-07
2.3688691e-07
2.4442591e-07
2.4957018e-07
2.5903289e-07
6.7713318e-10
7.0061475e-10
7.1682684e-10
7.420721e-10
7.595867e-10
7.8767771e-10
8.0735366e-10
8.3962887e-10
8.6267297e-10
8.9865141e-10
9.3371438e-10
9.8150671e-10
1.046244e-09
1.1404084e-09
1.2891424e-09
1.5185558e-09
1.8756377e-09
2.3741142e-09
3.0710719e-09
4.0809365e-09
5.195886e-09
6.820004e-09
8.5941268e-09
1.0723523e-08
1.3562632e-08
1.6273314e-08
2.0242257e-08
2.3598464e-08
2.8747577e-08
3.2801969e-08
3.9247415e-08
4.4034515e-08
5.1752917e-08
5.7243782e-08
6.6153874e-08
7.2360074e-08
8.2497974e-08
8.9362792e-08
1.0053355e-07
1.0800375e-07
1.2015424e-07
1.2818178e-07
1.4122016e-07
1.4973748e-07
1.6352326e-07
1.7246757e-07
1.8687426e-07
1.9624698e-07
2.1120198e-07
2.2097844e-07
2.364306e-07
2.464915e-07
2.6233821e-07
2.7262415e-07
2.8865975e-07
2.991047e-07
3.1529949e-07
3.259209e-07
3.4223317e-07
3.5303375e-07
3.6953598e-07
3.8042397e-07
3.9683343e-07
4.07613e-07
4.2349797e-07
4.3435309e-07
4.500975e-07
4.6100501e-07
4.7683272e-07
4.8757931e-07
5.0278873e-07
5.1347163e-07
5.2826384e-07
5.3895076e-07
5.5798746e-07
6.8738541e-10
7.061428e-10
7.249686e-10
7.563485e-10
7.7944156e-10
8.1671551e-10
8.4423831e-10
8.8811926e-10
9.3332171e-10
1.001262e-09
1.1114661e-09
1.2965828e-09
1.6017066e-09
2.0836086e-09
2.8003964e-09
3.8013874e-09
5.2978123e-09
7.0828427e-09
9.6123728e-09
1.2754633e-08
1.6252923e-08
2.1358138e-08
2.5961321e-08
3.3225678e-08
3.9128419e-08
4.8273003e-08
5.6429057e-08
6.6813452e-08
7.7949023e-08
8.9105407e-08
1.0329967e-07
1.1524171e-07
1.3223549e-07
1.4476218e-07
1.6428738e-07
1.7788655e-07
1.9956186e-07
2.1402325e-07
2.3732797e-07
2.5263716e-07
2.7748222e-07
2.9360574e-07
3.1975073e-07
3.3657958e-07
3.6377213e-07
3.812207e-07
4.0929308e-07
4.2753016e-07
4.5653504e-07
4.755889e-07
5.0537506e-07
5.2505738e-07
5.5553213e-07
5.756227e-07
6.0636296e-07
6.2698482e-07
6.5842003e-07
6.7980005e-07
7.1198199e-07
7.340994e-07
7.67262e-07
7.8987574e-07
8.2298124e-07
8.4536345e-07
8.7757812e-07
9.0019493e-07
9.3178117e-07
9.5502238e-07
9.8718094e-07
1.01045e-06
1.0428288e-06
1.0674201e-06
1.100948e-06
1.127356e-06
1.1741834e-06
7.0689639e-10
7.5169056e-10
7.7771165e-10
8.1871161e-10
8.4517346e-10
8.8676377e-10
9.3180457e-10
1.0126766e-09
1.1674695e-09
1.464643e-09
1.9813995e-09
2.8083932e-09
4.0304553e-09
5.8172586e-09
8.2498869e-09
1.1455071e-08
1.6304174e-08
2.1335104e-08
2.9369415e-08
3.6562004e-08
4.7458064e-08
5.883335e-08
7.1523841e-08
8.8427298e-08
1.0262681e-07
1.2472905e-07
1.4112143e-07
1.6784723e-07
1.862371e-07
2.1689687e-07
2.3743136e-07
2.7140053e-07
2.9449357e-07
3.2969061e-07
3.5853915e-07
3.9281847e-07
4.2760558e-07
4.6012399e-07
5.0038265e-07
5.3156822e-07
5.7709101e-07
6.0818636e-07
6.569445e-07
6.8884685e-07
7.3959279e-07
7.7338991e-07
8.271335e-07
8.6330104e-07
9.2023282e-07
9.5851047e-07
1.0170309e-06
1.05719e-06
1.1166353e-06
1.1580773e-06
1.2205318e-06
1.2659638e-06
1.3345822e-06
1.383897e-06
1.4559109e-06
1.5065696e-06
1.5804016e-06
1.6320899e-06
1.7045216e-06
1.7557571e-06
1.8276878e-06
1.8795179e-06
1.9495759e-06
2.0056178e-06
2.0822771e-06
2.1457609e-06
2.2442099e-06
2.3197723e-06
2.4276055e-06
2.5084173e-06
2.6467203e-06
7.0270249e-10
7.434171e-10
7.7031244e-10
8.2107934e-10
8.6492978e-10
9.5626625e-10
1.1477113e-09
1.5584942e-09
2.3034783e-09
3.5207852e-09
5.3574939e-09
8.04534e-09
1.1761609e-08
1.7256596e-08
2.4128873e-08
3.3000656e-08
4.6120109e-08
5.8525909e-08
7.8700332e-08
9.524456e-08
1.2307685e-07
1.4397343e-07
1.7942516e-07
2.0454998e-07
2.4375697e-07
2.7994955e-07
3.1865657e-07
3.6610092e-07
4.0317952e-07
4.5989847e-07
4.9876636e-07
5.6192661e-07
6.0356607e-07
6.7275346e-07
7.1769215e-07
7.9239254e-07
8.409082e-07
9.2059475e-07
9.7410527e-07
1.0559953e-06
1.123968e-06
1.1996815e-06
1.282598e-06
1.349517e-06
1.4530195e-06
1.5277457e-06
1.6438134e-06
1.7240995e-06
1.8480009e-06
1.9320062e-06
2.0549624e-06
2.1485498e-06
2.2653195e-06
2.3725989e-06
2.5386499e-06
2.6628414e-06
2.8525552e-06
2.9798541e-06
3.1537881e-06
3.2741447e-06
3.454139e-06
3.5773064e-06
3.7704527e-06
3.8929653e-06
4.0928645e-06
4.219796e-06
4.4177564e-06
4.5712015e-06
4.890318e-06
5.1053448e-06
5.5991052e-06
5.8024764e-06
6.1829275e-06
6.3707531e-06
6.7300465e-06
7.2560645e-10
7.4970634e-10
7.8326981e-10
8.4469508e-10
1.0050694e-09
1.4239599e-09
2.2940131e-09
3.8191155e-09
6.232793e-09
9.8340905e-09
1.505801e-08
2.2558653e-08
3.2446553e-08
4.7997024e-08
6.397486e-08
8.7639289e-08
1.1552775e-07
1.4446269e-07
1.8779674e-07
2.2225902e-07
2.7957568e-07
3.2004993e-07
3.8894336e-07
4.3569146e-07
5.151996e-07
5.6778253e-07
6.5748621e-07
7.1615985e-07
8.0942905e-07
8.8629029e-07
9.7610082e-07
1.0783947e-06
1.1625861e-06
1.2907026e-06
1.3767739e-06
1.5193383e-06
1.6193557e-06
1.7820186e-06
1.8941067e-06
2.0753695e-06
2.1961958e-06
2.3838572e-06
2.5189548e-06
2.7235222e-06
2.9813624e-06
3.166878e-06
3.4587476e-06
3.6380623e-06
3.9438215e-06
4.1320536e-06
4.431668e-06
4.6507607e-06
4.9633733e-06
5.4001959e-06
5.9745624e-06
6.305082e-06
6.8470822e-06
7.1059762e-06
7.3213499e-06
7.692783e-06
8.1519922e-06
8.5121891e-06
9.198042e-06
9.3792199e-06
9.9776108e-06
1.0280066e-05
1.0836818e-05
1.125625e-05
1.2039424e-05
1.2168776e-05
1.2793103e-05
1.2939766e-05
1.3448709e-05
1.3757167e-05
1.4234107e-05
7.6321375e-10
8.2019189e-10
9.1880984e-10
1.191728e-09
1.9282484e-09
3.4769955e-09
6.1751935e-09
1.0498539e-08
1.6998881e-08
2.6399915e-08
3.9874131e-08
5.9292892e-08
8.2443729e-08
1.2003678e-07
1.538035e-07
2.1102814e-07
2.5616934e-07
3.3020701e-07
3.953338e-07
4.7147733e-07
5.7012891e-07
6.450644e-07
7.6723287e-07
8.4991944e-07
9.8874839e-07
1.0836524e-06
1.2430436e-06
1.3509503e-06
1.5270345e-06
1.656154e-06
1.87428e-06
2.0256024e-06
2.2576372e-06
2.4731682e-06
2.6616151e-06
3.0018452e-06
3.23739e-06
3.617359e-06
3.8680459e-06
4.3033484e-06
4.5683574e-06
5.0124731e-06
5.3962415e-06
6.2298567e-06
6.7927073e-06
7.1787682e-06
7.9181375e-06
8.2610275e-06
9.1881198e-06
9.5105522e-06
1.0351136e-05
1.0830355e-05
1.1622929e-05
1.193229e-05
1.2514402e-05
1.3022457e-05
1.3887104e-05
1.3933676e-05
1.3992856e-05
1.4314906e-05
1.4187571e-05
1.5137861e-05
1.490635e-05
1.4326753e-05
1.4469032e-05
1.4208456e-05
1.4236164e-05
1.4667792e-05
1.4041318e-05
1.388257e-05
1.3293223e-05
1.3233366e-05
1.2925361e-05
1.2859733e-05
1.2051181e-05
7.5483124e-10
8.9524638e-10
1.2560264e-09
2.3917607e-09
4.8247765e-09
9.223073e-09
1.6337633e-08
2.7294677e-08
4.3192176e-08
6.5712468e-08
9.8245305e-08
1.4141923e-07
1.9164463e-07
2.6960021e-07
3.3442207e-07
4.444336e-07
5.262977e-07
6.6739488e-07
7.6632733e-07
9.3348493e-07
1.0593605e-06
1.2309918e-06
1.4184392e-06
1.5784419e-06
1.8330218e-06
2.0198589e-06
2.3251725e-06
2.5425433e-06
2.8951509e-06
3.2170311e-06
3.7145746e-06
4.0422668e-06
4.6122015e-06
4.9704772e-06
5.5192046e-06
6.6238698e-06
7.0699144e-06
7.9534783e-06
8.535516e-06
9.7094844e-06
1.0152668e-05
1.143651e-05
1.1731322e-05
1.2944322e-05
1.3173625e-05
1.403474e-05
1.3995221e-05
1.4239845e-05
1.509998e-05
1.4482363e-05
1.5615961e-05
1.4487473e-05
1.3850753e-05
1.2851136e-05
1.3186131e-05
1.2635644e-05
1.1612578e-05
1.0511732e-05
1.0567786e-05
1.0016387e-05
9.2181601e-06
9.2037795e-06
7.7202525e-06
8.4512238e-06
7.4429271e-06
7.344987e-06
7.009934e-06
6.6733416e-06
5.1431404e-06
5.5048757e-06
4.6084687e-06
4.8847021e-06
4.4257826e-06
4.0093762e-06
3.3237405e-06
7.0432905e-10
1.0510811e-09
2.4714994e-09
5.9405191e-09
1.2467518e-08
2.3446561e-08
4.0482906e-08
6.6004075e-08
1.0163056e-07
1.5184108e-07
2.2728616e-07
3.0220831e-07
4.1357358e-07
5.420781e-07
6.6614646e-07
8.5634944e-07
1.001248e-06
1.2463261e-06
1.4193506e-06
1.7173433e-06
1.9373194e-06
2.3048997e-06
2.5710462e-06
2.9918895e-06
3.4687207e-06
3.8995602e-06
4.5570774e-06
5.0410376e-06
5.9930827e-06
6.9517264e-06
7.9038993e-06
8.6606154e-06
1.0082944e-05
1.0668561e-05
1.206432e-05
1.2950159e-05
1.3306841e-05
1.3659815e-05
1.4423156e-05
1.4717056e-05
1.4417622e-05
1.4379052e-05
1.3484277e-05
1.3145584e-05
1.200487e-05
1.1928138e-05
9.699462e-06
9.9001978e-06
8.1839996e-06
8.098479e-06
8.2636669e-06
5.5692344e-06
5.7104769e-06
5.0175522e-06
5.1688093e-06
4.1496772e-06
3.1040575e-06
2.9816275e-06
3.0903737e-06
2.6665198e-06
2.9850926e-06
2.8715415e-06
2.1825129e-06
2.8711441e-06
2.4028983e-06
2.5955084e-06
2.7438535e-06
1.7971694e-06
1.6212746e-06
2.0085447e-06
1.6762146e-06
1.7828567e-06
1.4183209e-06
1.1716977e-06
9.5968629e-07
6.6736398e-10
1.9298761e-09
6.1676106e-09
1.4952422e-08
3.0665872e-08
5.576896e-08
9.3241002e-08
1.4851898e-07
2.2140836e-07
3.2865787e-07
4.6161724e-07
6.0359617e-07
8.2111429e-07
9.9446212e-07
1.2747612e-06
1.5367935e-06
1.8370979e-06
2.2637861e-06
2.5868539e-06
3.1828566e-06
3.6400195e-06
4.3836345e-06
4.9594225e-06
6.1147564e-06
7.0782309e-06
8.2618648e-06
9.6079053e-06
1.0701476e-05
1.1981479e-05
1.305169e-05
1.3300995e-05
1.4166076e-05
1.4295624e-05
1.3888123e-05
1.4091502e-05
1.2072314e-05
1.1647175e-05
1.0023251e-05
9.6503927e-06
7.6719035e-06
7.8259022e-06
6.1266574e-06
6.0428182e-06
4.5849158e-06
5.3418873e-06
3.92879e-06
2.8753514e-06
3.6486017e-06
2.4154017e-06
2.8222203e-06
2.2987612e-06
1.3605659e-06
1.6062379e-06
1.6933187e-06
1.5499499e-06
1.1820642e-06
9.972761e-07
1.0975162e-06
1.2063343e-06
1.0299962e-06
1.4123497e-06
1.2644117e-06
1.2428903e-06
1.5932259e-06
1.1641936e-06
1.2883747e-06
1.4011316e-06
9.5836552e-07
1.4799436e-06
1.3977739e-06
1.0702984e-06
9.9360351e-07
7.0662197e-07
6.6212566e-07
6.4185001e-07
6.1392824e-10
4.8545212e-09
1.5437655e-08
3.58741e-08
7.061586e-08
1.236044e-07
1.9958384e-07
3.1286649e-07
4.4659926e-07
6.6277993e-07
8.5485926e-07
1.1504587e-06
1.4638311e-06
1.7992862e-06
2.3256007e-06
2.7383966e-06
3.4707904e-06
4.1503665e-06
4.883675e-06
6.3432353e-06
7.3618807e-06
9.0071068e-06
1.0213871e-05
1.1983688e-05
1.25467e-05
1.3611348e-05
1.3946627e-05
1.3687796e-05
1.2855544e-05
1.1944392e-05
9.8123912e-06
9.7637596e-06
7.1209e-06
7.8486995e-06
5.7542978e-06
3.828039e-06
3.8769002e-06
3.4027973e-06
3.0312395e-06
2.1157429e-06
2.3823865e-06
1.7102132e-06
1.889753e-06
1.9924995e-06
3.119694e-06
1.4574808e-06
1.2676682e-06
2.0713438e-06
9.6574798e-07
1.8071207e-06
1.0329292e-06
8.8844777e-07
8.3191561e-07
8.488081e-07
9.5783612e-07
7.513945e-07
8.3651e-07
9.0678459e-07
8.5385925e-07
8.6172453e-07
9.6701805e-07
9.0623032e-07
1.2465354e-06
1.1946105e-06
7.0977098e-07
8.6338593e-07
8.4362883e-07
9.7158779e-07
1.7970004e-06
9.5474153e-07
8.9486865e-07
8.1159169e-07
6.7823977e-07
6.3343123e-07
6.3225437e-07
1.2951627e-09
1.2165118e-08
3.664003e-08
8.0960762e-08
1.5187826e-07
2.5530089e-07
3.9776338e-07
6.0478937e-07
8.4154087e-07
1.2057913e-06
1.5415759e-06
2.0763809e-06
2.5638709e-06
3.3351545e-06
4.2402372e-06
5.1204014e-06
6.9203257e-06
8.1294555e-06
1.0013722e-05
1.1925959e-05
1.2590144e-05
1.3646681e-05
1.3558624e-05
1.2891321e-05
1.1671894e-05
9.8671763e-06
8.7011103e-06
6.4421688e-06
5.1773546e-06
3.9304486e-06
3.4376624e-06
3.3968301e-06
2.0637734e-06
2.7294351e-06
1.3661504e-06
1.1008222e-06
1.2869846e-06
1.5036752e-06
1.0735069e-06
6.8697499e-07
7.9278895e-07
6.4838694e-07
8.6580107e-07
1.3136013e-06
1.5320082e-06
8.8939617e-07
9.6628589e-07
1.3709313e-06
9.2595053e-07
1.2660419e-06
8.9222438e-07
7.8617214e-07
8.0592025e-07
7.6805496e-07
6.9711867e-07
7.1019371e-07
8.7578453e-07
1.2516362e-06
1.3044676e-06
1.1835132e-06
1.0008298e-06
9.1786473e-07
1.1084665e-06
9.7691127e-07
7.1707795e-07
7.1031776e-07
7.0997294e-07
9.9202025e-07
9.7673405e-07
7.370509e-07
8.0833418e-07
7.2638499e-07
6.9985221e-07
6.7555453e-07
6.836764e-07
3.8592336e-10
2.8695706e-08
8.1472513e-08
1.7081226e-07
3.0501435e-07
4.9319388e-07
7.4318427e-07
1.0927154e-06
1.5213461e-06
2.1141882e-06
2.7470372e-06
3.7053812e-06
4.7268046e-06
6.4922187e-06
8.2231202e-06
1.034875e-05
1.1924993e-05
1.271242e-05
1.3624014e-05
1.269833e-05
1.0942291e-05
8.8064934e-06
6.783903e-06
5.3036284e-06
4.6599523e-06
3.336995e-06
2.8434137e-06
1.8065544e-06
1.6005026e-06
1.0798225e-06
1.4717143e-06
1.0712898e-06
9.0058808e-07
1.1595356e-06
6.145684e-07
5.4725345e-07
7.4999467e-07
6.4893521e-07
6.1242777e-07
4.8615804e-07
4.6747017e-07
6.0433792e-07
9.8705446e-07
1.0139445e-06
2.056187e-06
7.5026546e-07
7.3555949e-07
1.3073938e-06
9.1042318e-07
9.8028641e-07
7.6723075e-07
6.3828682e-07
7.6721618e-07
7.5691199e-07
7.2868091e-07
7.09817e-07
8.8406137e-07
1.3922878e-06
1.3777502e-06
1.0985255e-06
7.9360156e-07
7.7391873e-07
8.9483757e-07
8.5416374e-07
8.8147647e-07
6.8842514e-07
7.9334095e-07
7.5111472e-07
7.5884896e-07
7.3081649e-07
7.0765127e-07
7.3055614e-07
6.9289571e-07
7.2617424e-07
7.4282748e-07
5.5317168e-09
6.520219e-08
1.7081864e-07
3.3735465e-07
5.7325802e-07
8.9642222e-07
1.3188364e-06
1.9168165e-06
2.7152433e-06
3.7240299e-06
5.0507277e-06
7.0796086e-06
9.3635288e-06
1.1425822e-05
1.2731877e-05
1.2945242e-05
1.1733351e-05
9.9763161e-06
7.9858735e-06
4.9426176e-06
4.0725716e-06
2.867527e-06
1.9995666e-06
1.7602413e-06
1.9374687e-06
1.1410817e-06
1.3311122e-06
7.1541101e-07
5.1483547e-07
4.087262e-07
8.6032573e-07
6.2893203e-07
6.9056005e-07
8.3322642e-07
4.6277374e-07
4.5453203e-07
7.2063425e-07
4.7578672e-07
5.4931199e-07
4.7804197e-07
4.0996948e-07
7.5432266e-07
8.6240474e-07
8.1722352e-07
9.6360367e-07
6.4013841e-07
6.9103282e-07
1.2744824e-06
8.991452e-07
1.0642181e-06
7.7321796e-07
6.7463141e-07
7.1863922e-07
7.3162798e-07
7.6719527e-07
7.733243e-07
8.5928752e-07
1.0081919e-06
9.8226356e-07
8.9026165e-07
7.8903858e-07
9.6244519e-07
9.1652972e-07
9.4482368e-07
9.7061629e-07
6.7344796e-07
8.273434e-07
6.7064474e-07
6.7789634e-07
6.9934014e-07
7.4223789e-07
7.2415329e-07
7.123011e-07
7.4868144e-07
7.5843486e-07
1.8337627e-08
1.3979705e-07
3.3729812e-07
6.25194e-07
1.0160258e-06
1.5466482e-06
2.2829026e-06
3.4055504e-06
4.8814386e-06
7.0339812e-06
9.9874394e-06
1.1499459e-05
1.2333692e-05
1.1843788e-05
9.8366006e-06
6.6931176e-06
4.866407e-06
4.0847707e-06
2.4810871e-06
1.4200083e-06
1.4119185e-06
8.462396e-07
5.9391634e-07
7.0259129e-07
7.6675259e-07
6.3671424e-07
9.7995277e-07
6.7022619e-07
3.8452345e-07
3.3693852e-07
6.4878588e-07
3.5928522e-07
6.1174418e-07
6.3117059e-07
4.3650845e-07
4.3486937e-07
6.6823202e-07
4.052914e-07
3.3155393e-07
4.2313661e-07
4.6298155e-07
7.2411579e-07
9.5573949e-07
1.3262776e-06
9.3158399e-07
6.0449553e-07
6.4843488e-07
1.0178756e-06
8.6699339e-07
9.620584e-07
8.0351553e-07
6.9031073e-07
9.0252789e-07
9.2029219e-07
8.7157961e-07
8.7401254e-07
8.8727747e-07
1.2744474e-06
1.1727321e-06
1.0373077e-06
9.5974839e-07
1.073036e-06
9.3925726e-07
8.9050741e-07
8.2175075e-07
6.5577058e-07
7.5947082e-07
6.8709835e-07
7.4356973e-07
7.9012567e-07
7.4413545e-07
8.121184e-07
8.2953473e-07
8.0736797e-07
7.7155195e-07
4.9860081e-08
2.8313073e-07
6.2624721e-07
1.0930095e-06
1.7228071e-06
2.630214e-06
3.986296e-06
6.3081394e-06
9.432641e-06
1.1137858e-05
1.18934e-05
1.0734966e-05
7.2201117e-06
5.4291999e-06
3.695278e-06
2.185363e-06
1.7767658e-06
1.7730533e-06
8.5157136e-07
4.8899369e-07
4.6481197e-07
2.8786309e-07
3.4008567e-07
4.9916475e-07
4.799054e-07
6.1766478e-07
6.1925009e-07
6.0605237e-07
3.9913047e-07
3.5661325e-07
5.4479772e-07
2.9168208e-07
4.6679355e-07
8.6025174e-07
4.2614476e-07
4.1111468e-07
5.6608797e-07
3.7358674e-07
3.1800644e-07
4.4088412e-07
4.3355801e-07
7.6323852e-07
1.0808259e-06
1.3243988e-06
1.0729645e-06
5.8652154e-07
6.1434682e-07
8.3942658e-07
7.8166639e-07
1.2038959e-06
8.660107e-07
6.3107917e-07
9.7074178e-07
9.731058e-07
9.1328155e-07
9.3999028e-07
8.935885e-07
1.1016989e-06
1.080959e-06
1.155931e-06
1.0846619e-06
9.1439348e-07
9.5039429e-07
8.8184194e-07
7.7280958e-07
6.7501828e-07
7.0886678e-07
7.4008685e-07
8.5562021e-07
8.9537583e-07
7.7240836e-07
8.5375048e-07
9.0632643e-07
9.0451667e-07
8.4659397e-07
1.2150702e-07
5.4186292e-07
1.0981123e-06
1.8255908e-06
2.8618624e-06
4.5366343e-06
7.3977892e-06
1.0373522e-05
1.1936467e-05
1.0547293e-05
6.4980798e-06
4.7379782e-06
2.6641216e-06
2.2143726e-06
1.1005935e-06
6.1357427e-07
7.1698207e-07
7.9761703e-07
3.0185008e-07
2.5614579e-07
2.4636983e-07
1.996159e-07
2.7326966e-07
4.1914627e-07
4.8976617e-07
6.014641e-07
5.7351351e-07
5.7769194e-07
4.2504216e-07
4.6555109e-07
4.9328735e-07
3.1859772e-07
3.180032e-07
9.8926806e-07
4.2679075e-07
3.995035e-07
5.065344e-07
3.6826768e-07
3.2782138e-07
4.1528126e-07
4.4168101e-07
6.8414847e-07
1.0943217e-06
1.5745072e-06
1.0269517e-06
5.1468549e-07
5.772732e-07
8.3395109e-07
7.6293368e-07
1.1705784e-06
7.2399501e-07
6.2602276e-07
8.4655469e-07
9.3667594e-07
1.0625766e-06
1.0147451e-06
8.9950074e-07
9.3833565e-07
1.013328e-06
1.0853976e-06
9.4236767e-07
8.5564284e-07
1.1080963e-06
8.4214033e-07
8.5955168e-07
8.2689362e-07
7.1242787e-07
7.6828133e-07
8.8448707e-07
9.0546587e-07
8.09742e-07
9.1129504e-07
9.3364245e-07
9.6750702e-07
9.0507245e-07
2.7376829e-07
9.8173777e-07
1.8360193e-06
2.9678185e-06
4.8188996e-06
8.3506952e-06
1.0333375e-05
1.0401615e-05
7.6699925e-06
4.8157255e-06
2.5113196e-06
1.7356221e-06
8.73534e-07
7.8521154e-07
2.9590162e-07
2.6648262e-07
4.4057904e-07
4.0749941e-07
2.2629023e-07
2.1505026e-07
2.1068363e-07
1.8784328e-07
2.4835301e-07
4.027061e-07
5.0345551e-07
4.3348577e-07
5.4776443e-07
5.462446e-07
4.4461446e-07
7.299438e-07
4.8863149e-07
4.2969552e-07
3.4339416e-07
7.9977511e-07
3.8350789e-07
3.9964658e-07
4.690389e-07
3.7067427e-07
3.5282157e-07
3.4496704e-07
4.2302994e-07
5.9827309e-07
7.5821386e-07
8.6272407e-07
6.1872155e-07
5.0925628e-07
5.967185e-07
7.7868156e-07
7.0724198e-07
8.646645e-07
6.4457121e-07
6.2488979e-07
1.023388e-06
7.8108538e-07
1.1366614e-06
1.1491063e-06
1.0617087e-06
1.080327e-06
1.0639625e-06
1.0872827e-06
9.724963e-07
8.7603828e-07
1.1873124e-06
8.5412313e-07
1.0205226e-06
7.6761696e-07
7.5021475e-07
8.0483368e-07
8.116351e-07
8.9503702e-07
8.2979698e-07
1.063915e-06
1.0236731e-06
1.0096845e-06
9.2755548e-07
5.7818132e-07
1.6939505e-06
2.9630464e-06
4.8414996e-06
8.5778698e-06
1.0461026e-05
8.8299163e-06
5.4036275e-06
3.3999289e-06
1.6004847e-06
7.9690063e-07
5.2404311e-07
3.2108323e-07
3.6537721e-07
1.4527794e-07
2.0323301e-07
3.5002566e-07
2.7026783e-07
2.1554829e-07
2.1010142e-07
2.0829268e-07
1.7982356e-07
2.4806582e-07
4.1552927e-07
5.7523218e-07
3.1496032e-07
4.7793038e-07
5.6217789e-07
4.7105727e-07
1.0186442e-06
5.1658736e-07
5.1959579e-07
3.7993039e-07
5.4371235e-07
3.7557244e-07
4.2312342e-07
4.5256137e-07
3.4110455e-07
3.8826743e-07
3.4857829e-07
4.7269787e-07
5.457715e-07
6.6264007e-07
6.2830859e-07
5.3839241e-07
5.2389948e-07
6.2824165e-07
7.8990263e-07
7.2784565e-07
7.4628361e-07
6.3151816e-07
5.8219349e-07
8.8864838e-07
7.158033e-07
8.4021775e-07
1.0381489e-06
1.163946e-06
1.0423649e-06
1.077009e-06
1.0819749e-06
9.6119304e-07
9.4054805e-07
1.1139277e-06
1.0617873e-06
9.8597788e-07
8.3356696e-07
7.619279e-07
8.3507112e-07
7.9276916e-07
8.5261361e-07
8.4144493e-07
1.0551299e-06
1.129342e-06
1.0900123e-06
9.5346171e-07
1.157408e-06
2.7975816e-06
4.7194378e-06
8.2399655e-06
1.0008001e-05
7.7626985e-06
5.0970258e-06
2.4510884e-06
1.1627855e-06
4.831317e-07
2.8313142e-07
1.9745761e-07
1.7744487e-07
2.4636746e-07
1.3171078e-07
1.8526872e-07
3.0339882e-07
2.2452164e-07
2.1424022e-07
2.0954242e-07
2.2187609e-07
1.7683245e-07
2.6314814e-07
4.6164547e-07
7.8235016e-07
2.9215887e-07
3.1908143e-07
4.5309341e-07
4.683477e-07
1.0427998e-06
5.0740513e-07
4.8837931e-07
3.6035461e-07
4.0367772e-07
3.7346145e-07
5.1871561e-07
4.4753098e-07
3.5135232e-07
4.6980562e-07
4.4267242e-07
5.2844568e-07
5.6074807e-07
6.5225782e-07
6.1599497e-07
4.9096152e-07
4.7797674e-07
5.3742075e-07
8.4456894e-07
7.3364648e-07
6.6419276e-07
6.0503783e-07
5.8892766e-07
7.0089147e-07
6.9478256e-07
6.9691033e-07
8.7312407e-07
9.3630051e-07
9.566663e-07
1.0261103e-06
1.049248e-06
8.8017537e-07
9.2899724e-07
1.3108743e-06
1.12074e-06
8.7421385e-07
6.6939473e-07
7.1157204e-07
8.9786074e-07
7.9092686e-07
8.512991e-07
8.7230953e-07
1.2585316e-06
1.2340708e-06
1.1814096e-06
1.0000785e-06
2.2217087e-06
4.4527313e-06
7.6982214e-06
9.2951809e-06
7.0143652e-06
4.5595999e-06
2.342372e-06
8.0988444e-07
3.680992e-07
2.5791229e-07
1.9339092e-07
1.5688564e-07
1.6590611e-07
2.1104993e-07
1.3074598e-07
1.6963893e-07
2.7322728e-07
2.0868851e-07
2.1326963e-07
2.1431481e-07
2.1495058e-07
1.8007416e-07
2.7180805e-07
4.6687477e-07
7.3408857e-07
2.9315651e-07
2.8042589e-07
4.1524391e-07
5.9962464e-07
8.185107e-07
4.8986881e-07
4.561212e-07
3.6301244e-07
3.6204279e-07
3.6090439e-07
6.3478748e-07
4.2545168e-07
3.5355091e-07
5.7540783e-07
5.5871751e-07
4.8797018e-07
5.4485589e-07
6.221343e-07
5.3013523e-07
4.9887386e-07
4.4912938e-07
4.7594992e-07
8.2718752e-07
6.6042347e-07
5.9861253e-07
5.9367123e-07
6.1319296e-07
6.7362414e-07
7.0136719e-07
7.4735442e-07
8.4402764e-07
1.1921715e-06
1.1174804e-06
1.0295974e-06
1.0162149e-06
8.8110231e-07
8.6086321e-07
1.4441399e-06
1.1098153e-06
8.7351207e-07
6.5013001e-07
7.490252e-07
9.3925256e-07
7.1800524e-07
8.8531171e-07
9.6068503e-07
1.5010824e-06
1.2868234e-06
1.2106005e-06
1.0333535e-06
3.8582602e-06
7.0972706e-06
9.5434538e-06
7.2126347e-06
4.3558205e-06
2.2254631e-06
7.7770987e-07
2.6832988e-07
2.0327751e-07
2.2897167e-07
1.8753696e-07
1.4974333e-07
2.127141e-07
1.9642828e-07
1.3311841e-07
1.6308692e-07
2.5509973e-07
2.0174037e-07
2.1736789e-07
2.1750308e-07
2.1869191e-07
1.7996385e-07
2.8468575e-07
4.4473518e-07
3.4886687e-07
2.8747751e-07
2.7800687e-07
4.8694814e-07
7.3461268e-07
8.4370053e-07
4.8614434e-07
4.2281433e-07
3.8515303e-07
3.6296111e-07
3.6772524e-07
6.5391381e-07
4.4017034e-07
3.8181591e-07
5.0762214e-07
5.5532475e-07
4.1076488e-07
5.1339873e-07
4.9532699e-07
5.037444e-07
4.8105748e-07
4.5958726e-07
4.7541855e-07
7.2125341e-07
6.0276783e-07
5.6510101e-07
5.9065259e-07
6.3952608e-07
6.0570548e-07
6.4023168e-07
8.3151961e-07
9.2070884e-07
1.2469691e-06
1.1766833e-06
1.0729576e-06
9.8742012e-07
8.673586e-07
9.0638755e-07
1.1406452e-06
1.0265432e-06
9.6431469e-07
7.4678184e-07
7.7865257e-07
9.2566873e-07
7.3309172e-07
7.5908213e-07
1.1340657e-06
1.1786233e-06
1.2687312e-06
1.1868802e-06