/*--------------------------------*- C++ -*----------------------------------*\
| =========                 |                                                 |
| \\      /  F ield         | OpenFOAM: The Open Source CFD Toolbox           |
|  \\    /   O peration     | Version:  2.3.0                                 |
|   \\  /    A nd           | Web:      www.OpenFOAM.org                      |
|    \\/     M anipulation  |                                                 |
\*---------------------------------------------------------------------------*/
FoamFile
{
    version     2.0;
    format      ascii;
    class       surfaceScalarField;
    location    "3.8e-05";
    object      phi;
}
// * * * * * * * * * * * * * * * * * * * * * * * * * * * * * * * * * * * * * //

dimensions      [0 3 -1 0 0 0 0];

internalField   nonuniform List<scalar> 
14825
(
1.0341989e-09
-2.0437553e-11
1.0548936e-09
-2.0694728e-11
1.0748982e-09
-2.0004597e-11
1.0956337e-09
-2.0735484e-11
1.1156758e-09
-2.004208e-11
1.1362792e-09
-2.060337e-11
1.1560857e-09
-1.9806484e-11
1.1763488e-09
-2.0263138e-11
1.1960271e-09
-1.9678297e-11
1.215963e-09
-1.993588e-11
1.2355908e-09
-1.9627865e-11
1.255167e-09
-1.9576132e-11
1.2746988e-09
-1.9531868e-11
1.2938167e-09
-1.9117843e-11
1.3132413e-09
-1.9424603e-11
1.3318438e-09
-1.8602548e-11
1.3511531e-09
-1.9309212e-11
1.36927e-09
-1.8116985e-11
1.388402e-09
-1.9131967e-11
1.4060993e-09
-1.7697263e-11
1.4248572e-09
-1.875798e-11
1.4422231e-09
-1.7365806e-11
1.4605196e-09
-1.8296574e-11
1.4776214e-09
-1.710182e-11
1.4953101e-09
-1.7688668e-11
1.5122796e-09
-1.6969523e-11
1.5292475e-09
-1.6967817e-11
1.5460348e-09
-1.6787372e-11
1.5623266e-09
-1.6291729e-11
1.5788412e-09
-1.6514638e-11
1.5945177e-09
-1.5676502e-11
1.6106877e-09
-1.616996e-11
1.6258413e-09
-1.5153624e-11
1.6414259e-09
-1.5584593e-11
1.6561555e-09
-1.4729621e-11
1.671156e-09
-1.5000461e-11
1.6855322e-09
-1.4376254e-11
1.6998352e-09
-1.4303019e-11
1.7138667e-09
-1.4031442e-11
1.7273404e-09
-1.3473709e-11
1.7409093e-09
-1.3568874e-11
1.7538201e-09
-1.2910876e-11
1.7669272e-09
-1.3107109e-11
1.7792684e-09
-1.2341112e-11
1.7916767e-09
-1.240831e-11
1.803551e-09
-1.1874365e-11
1.8152282e-09
-1.1677213e-11
1.826575e-09
-1.1346766e-11
1.8375422e-09
-1.0967195e-11
1.8483138e-09
-1.077159e-11
1.8586831e-09
-1.0369343e-11
1.8688292e-09
-1.0146031e-11
1.8785322e-09
-9.7030512e-12
1.8880505e-09
-9.5183008e-12
1.8972236e-09
-9.1730565e-12
1.9060562e-09
-8.8326295e-12
1.9144357e-09
-8.3794988e-12
1.9225516e-09
-8.1158909e-12
1.930351e-09
-7.7994237e-12
1.9377765e-09
-7.425508e-12
1.944873e-09
-7.0964779e-12
1.9517049e-09
-6.8318763e-12
1.958194e-09
-6.4891387e-12
1.9642974e-09
-6.1033704e-12
1.9700164e-09
-5.7190266e-12
1.9753869e-09
-5.3704436e-12
1.9803324e-09
-4.9455608e-12
1.9852029e-09
-4.8704522e-12
1.9895049e-09
-4.3019965e-12
1.9935264e-09
-4.0215272e-12
1.9972026e-09
-3.676158e-12
2.0004709e-09
-3.2682906e-12
2.0033158e-09
-2.8449855e-12
2.0059823e-09
-2.6664198e-12
-2.280124e-12
2.8619578e-09
-8.0429388e-11
2.9226135e-09
-8.1350489e-11
2.9817783e-09
-7.9169416e-11
3.0427591e-09
-8.171619e-11
3.1021338e-09
-7.9416865e-11
3.1629199e-09
-8.1389471e-11
3.2217871e-09
-7.867364e-11
3.2819206e-09
-8.0396693e-11
3.340576e-09
-7.8333667e-11
3.400057e-09
-7.9416846e-11
3.4586895e-09
-7.8260343e-11
3.5173744e-09
-7.8261047e-11
3.5759032e-09
-7.8060664e-11
3.6335345e-09
-7.6749191e-11
3.6919192e-09
-7.7809275e-11
3.7483296e-09
-7.5013e-11
3.8065669e-09
-7.7546464e-11
3.8618105e-09
-7.3360547e-11
3.919706e-09
-7.7027515e-11
3.9739913e-09
-7.198255e-11
4.0309994e-09
-7.5766097e-11
4.0845666e-09
-7.0932955e-11
4.1404319e-09
-7.4161871e-11
4.1934377e-09
-7.0107634e-11
4.2478211e-09
-7.2072137e-11
4.3005759e-09
-6.9724304e-11
4.3531996e-09
-6.9591503e-11
4.4054713e-09
-6.9059011e-11
4.4565326e-09
-6.7353082e-11
4.5080651e-09
-6.8047181e-11
4.5577247e-09
-6.5336102e-11
4.6083386e-09
-6.6783824e-11
4.6567528e-09
-6.3567766e-11
4.705835e-09
-6.4666862e-11
4.7532877e-09
-6.2182334e-11
4.8008851e-09
-6.2597843e-11
4.8474427e-09
-6.0933871e-11
4.893419e-09
-6.027933e-11
4.9388771e-09
-5.9489535e-11
4.9829047e-09
-5.750124e-11
5.0270883e-09
-5.7752548e-11
5.0698116e-09
-5.5634108e-11
5.1127581e-09
-5.6053669e-11
5.1540466e-09
-5.362955e-11
5.1951911e-09
-5.3552845e-11
5.2352474e-09
-5.1930655e-11
5.2745824e-09
-5.1012185e-11
5.3131709e-09
-4.9935243e-11
5.350803e-09
-4.8599319e-11
5.3877935e-09
-4.7762148e-11
5.4238954e-09
-4.6471173e-11
5.4592567e-09
-4.5507359e-11
5.493623e-09
-4.4069405e-11
5.5274365e-09
-4.3331766e-11
5.5602941e-09
-4.2030682e-11
5.5922438e-09
-4.0782241e-11
5.6231e-09
-3.9235748e-11
5.6532235e-09
-3.8239423e-11
5.6823921e-09
-3.6967985e-11
5.7107023e-09
-3.5735719e-11
5.7380911e-09
-3.4485317e-11
5.7647731e-09
-3.3513845e-11
5.7904951e-09
-3.2211102e-11
5.8153083e-09
-3.0916593e-11
5.8389453e-09
-2.9355982e-11
5.8616703e-09
-2.8095525e-11
5.8834476e-09
-2.6722789e-11
5.9047388e-09
-2.6161647e-11
5.9245862e-09
-2.4149469e-11
5.9438846e-09
-2.3319919e-11
5.9619707e-09
-2.1762183e-11
5.9789272e-09
-2.0224818e-11
5.9950229e-09
-1.8940703e-11
6.0104182e-09
-1.8061686e-11
-1.6644662e-11
4.3656323e-09
-1.7795217e-10
4.4641171e-09
-1.7983533e-10
4.5610643e-09
-1.761166e-10
4.6604198e-09
-1.8107165e-10
4.7578785e-09
-1.768756e-10
4.8572225e-09
-1.8073348e-10
4.9542158e-09
-1.7566691e-10
5.0530876e-09
-1.7926848e-10
5.1500158e-09
-1.7526193e-10
5.2483753e-09
-1.7777629e-10
5.3454614e-09
-1.7534647e-10
5.4429975e-09
-1.7579713e-10
5.5401925e-09
-1.7525565e-10
5.6365509e-09
-1.7310764e-10
5.7337543e-09
-1.750127e-10
5.828715e-09
-1.6997363e-10
5.9259132e-09
-1.7474473e-10
6.0195277e-09
-1.6697497e-10
6.1164375e-09
-1.7393732e-10
6.2089281e-09
-1.6447315e-10
6.3048526e-09
-1.7169058e-10
6.3965293e-09
-1.6260974e-10
6.4910725e-09
-1.6870499e-10
6.582039e-09
-1.6107415e-10
6.6748801e-09
-1.6491324e-10
6.7655427e-09
-1.6038696e-10
6.8562422e-09
-1.6029097e-10
6.946162e-09
-1.589788e-10
7.0350335e-09
-1.5622461e-10
7.1239345e-09
-1.5694819e-10
7.2111497e-09
-1.5255126e-10
7.2988171e-09
-1.5445121e-10
7.3843816e-09
-1.4913224e-10
7.4700628e-09
-1.5034806e-10
7.5544012e-09
-1.4652079e-10
7.638197e-09
-1.463936e-10
7.7212934e-09
-1.4403031e-10
7.803158e-09
-1.4214389e-10
7.8843994e-09
-1.4073094e-10
7.963814e-09
-1.3691589e-10
8.0432913e-09
-1.3722978e-10
8.1210911e-09
-1.3343391e-10
8.1988083e-09
-1.3377091e-10
8.2746611e-09
-1.2948238e-10
8.3499458e-09
-1.2883754e-10
8.4240666e-09
-1.2605146e-10
8.4969625e-09
-1.2390805e-10
8.5689227e-09
-1.2189542e-10
8.6396101e-09
-1.1928676e-10
8.7092339e-09
-1.1738591e-10
8.7778679e-09
-1.1510521e-10
8.8451205e-09
-1.1275991e-10
8.9113565e-09
-1.1030545e-10
8.9766265e-09
-1.0860174e-10
9.0405189e-09
-1.0592308e-10
9.1030441e-09
-1.0330742e-10
9.1641933e-09
-1.0038497e-10
9.2242895e-09
-9.8335597e-11
9.2828614e-09
-9.5539973e-11
9.3403316e-09
-9.3205866e-11
9.3964588e-09
-9.0612524e-11
9.4516138e-09
-8.8668884e-11
9.505292e-09
-8.5889259e-11
9.5577868e-09
-8.3411442e-11
9.6083502e-09
-7.9919362e-11
9.6576642e-09
-7.7409531e-11
9.705915e-09
-7.4973568e-11
9.7528721e-09
-7.3118761e-11
9.7980661e-09
-6.9343479e-11
9.8427025e-09
-6.7956246e-11
9.8850494e-09
-6.4109079e-11
9.9259398e-09
-6.111526e-11
9.9657294e-09
-5.873029e-11
1.0004236e-08
-5.6568138e-11
-5.3707327e-11
5.5894363e-09
-3.1091774e-10
5.7237222e-09
-3.1412127e-10
5.8569095e-09
-3.0930391e-10
5.9927367e-09
-3.1689883e-10
6.1268846e-09
-3.1102345e-10
6.263084e-09
-3.1693289e-10
6.3971893e-09
-3.0977228e-10
6.5334665e-09
-3.1554566e-10
6.6679158e-09
-3.0971124e-10
6.8041783e-09
-3.1403874e-10
6.9391203e-09
-3.1028849e-10
7.0749096e-09
-3.1158638e-10
7.2102914e-09
-3.1063751e-10
7.345282e-09
-3.0809822e-10
7.4808757e-09
-3.106064e-10
7.6148809e-09
-3.0397883e-10
7.7506496e-09
-3.1051341e-10
7.8837007e-09
-3.0002614e-10
8.0193614e-09
-3.0959798e-10
8.1514619e-09
-2.9657365e-10
8.286443e-09
-3.0667166e-10
8.4178743e-09
-2.9404102e-10
8.5516616e-09
-3.0249236e-10
8.6822618e-09
-2.9167432e-10
8.8148222e-09
-2.974736e-10
8.9450261e-09
-2.9059087e-10
9.0757175e-09
-2.909824e-10
9.2049431e-09
-2.8820441e-10
9.3340868e-09
-2.8536832e-10
9.4622068e-09
-2.8506821e-10
9.5899047e-09
-2.8024912e-10
9.7167049e-09
-2.8125142e-10
9.8425946e-09
-2.7502193e-10
9.9675463e-09
-2.7529975e-10
1.0092104e-08
-2.7107802e-10
1.021521e-08
-2.6949962e-10
1.0338441e-08
-2.6726219e-10
1.0459733e-08
-2.634356e-10
1.0580469e-08
-2.6146714e-10
1.0699327e-08
-2.5577341e-10
1.0818216e-08
-2.5611935e-10
1.0935464e-08
-2.5068174e-10
1.1052365e-08
-2.5067141e-10
1.1167429e-08
-2.4454659e-10
1.1281624e-08
-2.4303262e-10
1.1394724e-08
-2.3915161e-10
1.1506398e-08
-2.3558196e-10
1.1617112e-08
-2.3260888e-10
1.1726361e-08
-2.2853579e-10
1.1834375e-08
-2.2540039e-10
1.1941404e-08
-2.2213388e-10
1.2046473e-08
-2.1782892e-10
1.215099e-08
-2.1482286e-10
1.2253939e-08
-2.1155042e-10
1.2355451e-08
-2.0743571e-10
1.2455153e-08
-2.0300904e-10
1.2553572e-08
-1.9880351e-10
1.2650613e-08
-1.9537655e-10
1.2745885e-08
-1.9081222e-10
1.2839825e-08
-1.8714573e-10
1.2932302e-08
-1.8308958e-10
1.3023598e-08
-1.7996468e-10
1.3113187e-08
-1.7547847e-10
1.3201384e-08
-1.7160852e-10
1.3286918e-08
-1.65454e-10
1.3371449e-08
-1.619403e-10
1.3454643e-08
-1.5816783e-10
1.3535674e-08
-1.5414935e-10
1.3615361e-08
-1.4902997e-10
1.3694219e-08
-1.4681454e-10
1.3769694e-08
-1.3958453e-10
1.3844154e-08
-1.3557506e-10
1.3916956e-08
-1.3153243e-10
1.3988212e-08
-1.2782387e-10
-1.2322178e-10
6.5720594e-09
-4.7720584e-10
6.7402558e-09
-4.8231765e-10
6.9079412e-09
-4.7698936e-10
7.0784465e-09
-4.8740403e-10
7.2477123e-09
-4.8028925e-10
7.4191914e-09
-4.8841202e-10
7.5892029e-09
-4.7978381e-10
7.7615631e-09
-4.8790581e-10
7.932602e-09
-4.8075019e-10
8.1057177e-09
-4.8715445e-10
8.27775e-09
-4.8232073e-10
8.451068e-09
-4.8490436e-10
8.6239695e-09
-4.8353909e-10
8.7972672e-09
-4.8139588e-10
8.9706491e-09
-4.8398832e-10
9.1438475e-09
-4.7717723e-10
9.3176258e-09
-4.8429167e-10
9.4907852e-09
-4.7318557e-10
9.6647391e-09
-4.8355188e-10
9.8374219e-09
-4.6925638e-10
1.0011362e-08
-4.8061133e-10
1.0183761e-08
-4.6644008e-10
1.0357015e-08
-4.7574725e-10
1.0528552e-08
-4.6321122e-10
1.0701581e-08
-4.7050262e-10
1.0872648e-08
-4.6165701e-10
1.1044581e-08
-4.6291575e-10
1.1214623e-08
-4.5824698e-10
1.1385669e-08
-4.5641433e-10
1.1554753e-08
-4.5415212e-10
1.1724985e-08
-4.5048048e-10
1.1892794e-08
-4.4906059e-10
1.2061375e-08
-4.4360279e-10
1.2228036e-08
-4.4196129e-10
1.2395361e-08
-4.3840243e-10
1.2560471e-08
-4.346099e-10
1.2726794e-08
-4.3358535e-10
1.2890387e-08
-4.270282e-10
1.3053831e-08
-4.2491119e-10
1.3215513e-08
-4.1745608e-10
1.337745e-08
-4.1805573e-10
1.3537702e-08
-4.1093435e-10
1.3697745e-08
-4.107135e-10
1.3855928e-08
-4.0273008e-10
1.4013405e-08
-4.0050946e-10
1.4169616e-08
-3.953627e-10
1.4324684e-08
-3.9065039e-10
1.4478634e-08
-3.8655824e-10
1.4631155e-08
-3.8105688e-10
1.4782707e-08
-3.7695227e-10
1.4933203e-08
-3.7263052e-10
1.5081379e-08
-3.6600402e-10
1.522977e-08
-3.6321446e-10
1.537586e-08
-3.5764002e-10
1.5520913e-08
-3.524887e-10
1.5663634e-08
-3.4573074e-10
1.5805567e-08
-3.4073586e-10
1.5945584e-08
-3.3539386e-10
1.608413e-08
-3.2935814e-10
1.6220942e-08
-3.2395795e-10
1.6356686e-08
-3.1883294e-10
1.6490779e-08
-3.1405766e-10
1.662375e-08
-3.0845018e-10
1.6754668e-08
-3.0252633e-10
1.6882455e-08
-2.9324143e-10
1.7010186e-08
-2.8967129e-10
1.7135483e-08
-2.8346397e-10
1.7258277e-08
-2.7694392e-10
1.7381053e-08
-2.7180543e-10
1.7501889e-08
-2.6765053e-10
1.7618881e-08
-2.5657698e-10
1.7735885e-08
-2.525787e-10
1.7850029e-08
-2.4567658e-10
1.7962784e-08
-2.4057906e-10
-2.341073e-10
7.3476639e-09
-6.7502314e-10
7.5477551e-09
-6.8240884e-10
7.7482907e-09
-6.7752502e-10
7.951639e-09
-6.9075227e-10
8.1544512e-09
-6.8310151e-10
8.3596945e-09
-6.9365525e-10
8.5642512e-09
-6.843406e-10
8.7714114e-09
-6.95066e-10
8.9778614e-09
-6.8720011e-10
9.1867669e-09
-6.9606003e-10
9.3948614e-09
-6.9041517e-10
9.6049098e-09
-6.9495279e-10
9.8144478e-09
-6.9307711e-10
1.0025517e-08
-6.9246513e-10
1.0235976e-08
-6.9444732e-10
1.0448089e-08
-6.8928984e-10
1.0659304e-08
-6.9550734e-10
1.0872628e-08
-6.8650925e-10
1.1084465e-08
-6.9538834e-10
1.1298003e-08
-6.8279439e-10
1.1510834e-08
-6.9344304e-10
1.1724702e-08
-6.8030762e-10
1.1937613e-08
-6.8865876e-10
1.2150918e-08
-6.7651627e-10
1.2364797e-08
-6.8438176e-10
1.2577785e-08
-6.7464442e-10
1.2791624e-08
-6.7675483e-10
1.3004033e-08
-6.7065626e-10
1.3217762e-08
-6.7014355e-10
1.3429736e-08
-6.6612566e-10
1.3643545e-08
-6.6428975e-10
1.385439e-08
-6.5990518e-10
1.4067114e-08
-6.5632745e-10
1.4277971e-08
-6.5281797e-10
1.4489745e-08
-6.5017613e-10
1.4699525e-08
-6.4439021e-10
1.4911117e-08
-6.4517749e-10
1.5119554e-08
-6.3546511e-10
1.5328443e-08
-6.3379961e-10
1.5535874e-08
-6.2488752e-10
1.5744004e-08
-6.2618555e-10
1.5950183e-08
-6.1711314e-10
1.6156976e-08
-6.1750648e-10
1.6361439e-08
-6.0719375e-10
1.6566243e-08
-6.0531273e-10
1.6768767e-08
-5.9788672e-10
1.6971557e-08
-5.9344121e-10
1.7172508e-08
-5.8750878e-10
1.7372583e-08
-5.8113172e-10
1.7572124e-08
-5.7649386e-10
1.7770054e-08
-5.7055996e-10
1.7966275e-08
-5.6222544e-10
1.8163277e-08
-5.6021623e-10
1.8357339e-08
-5.5170202e-10
1.8551103e-08
-5.4625228e-10
1.8742098e-08
-5.3672576e-10
1.8933149e-08
-5.3178743e-10
1.9121344e-08
-5.235882e-10
1.9308933e-08
-5.1694793e-10
1.9494214e-08
-5.0923855e-10
1.9679521e-08
-5.0413991e-10
1.9862102e-08
-4.9663864e-10
2.004535e-08
-4.9169824e-10
2.0224716e-08
-4.8189267e-10
2.0401753e-08
-4.7027812e-10
2.0579917e-08
-4.6783554e-10
2.0753569e-08
-4.5711577e-10
2.0925762e-08
-4.4913658e-10
2.1099133e-08
-4.4517629e-10
2.1268114e-08
-4.3663176e-10
2.1434576e-08
-4.230388e-10
2.1601893e-08
-4.1989637e-10
2.1765337e-08
-4.0912054e-10
2.1927736e-08
-4.0297776e-10
-3.9442507e-10
7.9464167e-09
-9.0320329e-10
8.1758284e-09
-9.1182056e-10
8.4080893e-09
-9.0978596e-10
8.6419005e-09
-9.2456344e-10
8.877111e-09
-9.1831199e-10
9.1141104e-09
-9.3065465e-10
9.352069e-09
-9.2229917e-10
9.5922454e-09
-9.3524246e-10
9.8330224e-09
-9.2797707e-10
1.0076132e-08
-9.3916968e-10
1.0319325e-08
-9.3360791e-10
1.0564837e-08
-9.4046492e-10
1.0810214e-08
-9.3845455e-10
1.1058059e-08
-9.4030984e-10
1.1305065e-08
-9.4145329e-10
1.1555237e-08
-9.3946208e-10
1.1803588e-08
-9.4385828e-10
1.2056422e-08
-9.3934263e-10
1.2306026e-08
-9.4499287e-10
1.2560021e-08
-9.3678887e-10
1.2811898e-08
-9.4531994e-10
1.3067097e-08
-9.3550691e-10
1.3320023e-08
-9.4158497e-10
1.3575594e-08
-9.320871e-10
1.3830664e-08
-9.3945147e-10
1.4086394e-08
-9.3037444e-10
1.4342648e-08
-9.3300932e-10
1.4598938e-08
-9.2694636e-10
1.4855736e-08
-9.269414e-10
1.5112626e-08
-9.2301519e-10
1.5370368e-08
-9.2203254e-10
1.5626457e-08
-9.1599397e-10
1.5884081e-08
-9.1395147e-10
1.6141707e-08
-9.10444e-10
1.6398824e-08
-9.0729338e-10
1.6656259e-08
-9.0182485e-10
1.6914207e-08
-9.0312583e-10
1.7170148e-08
-8.9140614e-10
1.7426396e-08
-8.9004757e-10
1.7682572e-08
-8.8106285e-10
1.7939116e-08
-8.8272989e-10
1.8193976e-08
-8.7197288e-10
1.8450352e-08
-8.7388289e-10
1.8703813e-08
-8.6065487e-10
1.8959564e-08
-8.6106324e-10
1.9210718e-08
-8.4904034e-10
1.9465171e-08
-8.4789491e-10
1.9715868e-08
-8.3820562e-10
1.9967368e-08
-8.3263118e-10
2.0218654e-08
-8.277807e-10
2.046747e-08
-8.1937531e-10
2.0716397e-08
-8.1115258e-10
2.0965377e-08
-8.0919606e-10
2.1211681e-08
-7.980061e-10
2.1458214e-08
-7.9278544e-10
2.170222e-08
-7.8073159e-10
2.1947288e-08
-7.7685542e-10
2.2188147e-08
-7.6444764e-10
2.2429499e-08
-7.5829975e-10
2.2667956e-08
-7.4769551e-10
2.2908334e-08
-7.4451811e-10
2.3144393e-08
-7.3269772e-10
2.3383757e-08
-7.3106216e-10
2.3615725e-08
-7.138608e-10
2.3849038e-08
-7.035906e-10
2.4082311e-08
-7.0110907e-10
2.430973e-08
-6.8453476e-10
2.4538868e-08
-6.782742e-10
2.4768558e-08
-6.748665e-10
2.499137e-08
-6.5944371e-10
2.5215478e-08
-6.4714719e-10
2.5438393e-08
-6.4281122e-10
2.5657603e-08
-6.2832999e-10
2.587681e-08
-6.2218501e-10
-6.1091709e-10
8.39354e-09
-1.1600365e-09
8.6499889e-09
-1.1682694e-09
8.9125781e-09
-1.1723753e-09
9.1744448e-09
-1.1864301e-09
9.4409003e-09
-1.1847675e-09
9.7073186e-09
-1.197073e-09
9.9777417e-09
-1.1927222e-09
1.0248627e-08
-1.2061279e-09
1.052304e-08
-1.20239e-09
1.0798203e-08
-1.214333e-09
1.1076013e-08
-1.2114181e-09
1.1355201e-08
-1.2196526e-09
1.1636197e-08
-1.2194502e-09
1.1919247e-08
-1.2233604e-09
1.2203022e-08
-1.2252277e-09
1.2489724e-08
-1.2261642e-09
1.2775809e-08
-1.2299434e-09
1.306675e-08
-1.2302837e-09
1.3354895e-08
-1.2331378e-09
1.3648385e-08
-1.2302792e-09
1.3940107e-08
-1.2370416e-09
1.4235936e-08
-1.2313357e-09
1.4529859e-08
-1.2355087e-09
1.4827589e-08
-1.2298165e-09
1.5124751e-08
-1.2366134e-09
1.5423283e-08
-1.2289068e-09
1.5722953e-08
-1.2326791e-09
1.6023792e-08
-1.2277851e-09
1.6324489e-08
-1.2276389e-09
1.6627482e-08
-1.2260079e-09
1.692951e-08
-1.224061e-09
1.7232558e-08
-1.2190413e-09
1.7535559e-08
-1.2169533e-09
1.784196e-08
-1.2168448e-09
1.8144813e-08
-1.2101458e-09
1.8452844e-08
-1.2098566e-09
1.8756919e-08
-1.2072002e-09
1.9063139e-08
-1.1976262e-09
1.936738e-08
-1.1942888e-09
1.9675422e-08
-1.1891044e-09
1.9980819e-08
-1.1881273e-09
2.028742e-08
-1.1785735e-09
2.0594245e-08
-1.1807085e-09
2.0899551e-08
-1.1659605e-09
2.1208504e-08
-1.1700168e-09
2.1510273e-08
-1.1508091e-09
2.1819068e-08
-1.1566896e-09
2.2121454e-08
-1.1405916e-09
2.2427645e-08
-1.1388218e-09
2.2732589e-08
-1.1327248e-09
2.3034943e-08
-1.1217292e-09
2.3340223e-08
-1.1164334e-09
2.3643189e-08
-1.1121618e-09
2.3945188e-08
-1.100005e-09
2.4246728e-08
-1.0943251e-09
2.4547254e-08
-1.0812581e-09
2.4849276e-08
-1.0788769e-09
2.5146329e-08
-1.0615016e-09
2.5444051e-08
-1.0560211e-09
2.5738634e-08
-1.0422785e-09
2.6037727e-08
-1.0436117e-09
2.6331322e-08
-1.0262925e-09
2.6629081e-08
-1.0288211e-09
2.6916832e-08
-1.0016119e-09
2.7212743e-08
-9.9950185e-10
2.7500945e-08
-9.8931037e-10
2.778711e-08
-9.7070021e-10
2.8078174e-08
-9.6933816e-10
2.8365115e-08
-9.6180706e-10
2.8645228e-08
-9.3955709e-10
2.8933379e-08
-9.3529787e-10
2.9213205e-08
-9.2263792e-10
2.9493774e-08
-9.0889816e-10
2.9773425e-08
-9.018362e-10
-8.8734884e-10
8.7095775e-09
-1.4419058e-09
8.9927902e-09
-1.4514821e-09
9.2825338e-09
-1.4621189e-09
9.571909e-09
-1.4758052e-09
9.8670636e-09
-1.4799221e-09
1.0162116e-08
-1.492125e-09
1.0463175e-08
-1.4937817e-09
1.0763742e-08
-1.5066944e-09
1.1070603e-08
-1.5092509e-09
1.1376781e-08
-1.5205116e-09
1.1688346e-08
-1.5229831e-09
1.2000329e-08
-1.5316359e-09
1.2316394e-08
-1.5355146e-09
1.2633681e-08
-1.5406479e-09
1.2954234e-08
-1.5457805e-09
1.3276235e-08
-1.5481655e-09
1.3600708e-08
-1.5544162e-09
1.3928204e-08
-1.5577799e-09
1.4255946e-08
-1.5608797e-09
1.458762e-08
-1.5619531e-09
1.4920214e-08
-1.5696352e-09
1.5255101e-08
-1.5662224e-09
1.559151e-08
-1.5719176e-09
1.5929895e-08
-1.5682016e-09
1.6270632e-08
-1.5773505e-09
1.6610236e-08
-1.5685112e-09
1.6955106e-08
-1.5775486e-09
1.7298835e-08
-1.571514e-09
1.7645582e-08
-1.5743858e-09
1.799317e-08
-1.5735962e-09
1.8340882e-08
-1.5717728e-09
1.8690336e-08
-1.568496e-09
1.9040062e-08
-1.5666794e-09
1.9394611e-08
-1.5713938e-09
1.9744281e-08
-1.5598149e-09
2.0103994e-08
-1.5695697e-09
2.0453469e-08
-1.5566758e-09
2.0811364e-08
-1.5555207e-09
2.1163552e-08
-1.5464767e-09
2.1525338e-08
-1.5508906e-09
2.1878396e-08
-1.5411855e-09
2.2239442e-08
-1.5396197e-09
2.2594761e-08
-1.5360275e-09
2.2954686e-08
-1.525885e-09
2.3315823e-08
-1.5311542e-09
2.3670319e-08
-1.5053051e-09
2.40325e-08
-1.5188701e-09
2.4387349e-08
-1.4954413e-09
2.4749546e-08
-1.5010184e-09
2.5106703e-08
-1.4898818e-09
2.546401e-08
-1.4790363e-09
2.5825581e-08
-1.478004e-09
2.6181726e-08
-1.4683072e-09
2.6539771e-08
-1.4580504e-09
2.6895718e-08
-1.4502716e-09
2.7252705e-08
-1.4382456e-09
2.7610617e-08
-1.4367881e-09
2.796509e-08
-1.4159747e-09
2.8316513e-08
-1.4074441e-09
2.8666281e-08
-1.392047e-09
2.9023182e-08
-1.4005121e-09
2.937557e-08
-1.3786806e-09
2.9726123e-08
-1.3793745e-09
3.0071556e-08
-1.3470443e-09
3.0429898e-08
-1.3578436e-09
3.0766841e-08
-1.3262541e-09
3.1114399e-08
-1.3182582e-09
3.146674e-08
-1.3216791e-09
3.1805774e-08
-1.3008408e-09
3.2142835e-08
-1.2766178e-09
3.2496507e-08
-1.2889702e-09
3.2826338e-08
-1.2524685e-09
3.316975e-08
-1.2523106e-09
3.3507825e-08
-1.2399111e-09
-1.2218528e-09
8.9146961e-09
-1.7458219e-09
9.2247279e-09
-1.7615139e-09
9.5384068e-09
-1.7757978e-09
9.8557186e-09
-1.793117e-09
1.0176533e-08
-1.800736e-09
1.050085e-08
-1.8164426e-09
1.082978e-08
-1.8227114e-09
1.1160657e-08
-1.8375721e-09
1.1497456e-08
-1.8460495e-09
1.183525e-08
-1.8583059e-09
1.2178029e-08
-1.865762e-09
1.2523553e-08
-1.8771595e-09
1.2871964e-08
-1.8839252e-09
1.3224286e-08
-1.8929702e-09
1.3578886e-08
-1.9003809e-09
1.3936935e-08
-1.9062147e-09
1.4297469e-08
-1.9149497e-09
1.4661683e-08
-1.9219936e-09
1.5027226e-08
-1.9264227e-09
1.5397222e-08
-1.9319496e-09
1.5769008e-08
-1.9414211e-09
1.6142336e-08
-1.9395499e-09
1.6520523e-08
-1.9501052e-09
1.689866e-08
-1.9463387e-09
1.7282623e-08
-1.9613134e-09
1.7661804e-08
-1.9476919e-09
1.8052478e-08
-1.9682228e-09
1.8436538e-08
-1.9555741e-09
1.8831647e-08
-1.9694949e-09
1.9220119e-08
-1.962068e-09
1.9615784e-08
-1.9674381e-09
2.0008168e-08
-1.9608794e-09
2.0407546e-08
-1.9660574e-09
2.0805233e-08
-1.9690811e-09
2.1204732e-08
-1.9593138e-09
2.1612775e-08
-1.9776133e-09
2.200822e-08
-1.9521204e-09
2.2414268e-08
-1.9615691e-09
2.2815497e-08
-1.9477057e-09
2.3227371e-08
-1.9627638e-09
2.3626772e-08
-1.9405873e-09
2.4040491e-08
-1.9533388e-09
2.4440038e-08
-1.9355745e-09
2.4853925e-08
-1.9397712e-09
2.5260543e-08
-1.9377722e-09
2.5669518e-08
-1.9142803e-09
2.6075985e-08
-1.9253371e-09
2.6481327e-08
-1.9007837e-09
2.6895447e-08
-1.9151385e-09
2.7296956e-08
-1.8913903e-09
2.7707161e-08
-1.8892413e-09
2.8117735e-08
-1.8885786e-09
2.8521544e-08
-1.8721155e-09
2.8929228e-08
-1.8657349e-09
2.9334026e-08
-1.8550697e-09
2.9739704e-08
-1.8439233e-09
3.0145518e-08
-1.8426018e-09
3.0552757e-08
-1.8232141e-09
3.094757e-08
-1.8022565e-09
3.1343562e-08
-1.7880391e-09
3.175095e-08
-1.8079008e-09
3.2157727e-08
-1.7854572e-09
3.2548007e-08
-1.7696551e-09
3.2952625e-08
-1.7516614e-09
3.3362558e-08
-1.7677774e-09
3.3739215e-08
-1.702911e-09
3.4146482e-08
-1.7255245e-09
3.4550678e-08
-1.7258755e-09
3.4932043e-08
-1.6822054e-09
3.5320158e-08
-1.6647329e-09
3.5734638e-08
-1.7034506e-09
3.6101383e-08
-1.6192135e-09
3.6502939e-08
-1.6538669e-09
3.6888207e-08
-1.6251784e-09
-1.603449e-09
9.029147e-09
-2.0720607e-09
9.3631832e-09
-2.0955501e-09
9.7004425e-09
-2.1130571e-09
1.0043547e-08
-2.1362217e-09
1.0389206e-08
-2.1463949e-09
1.0741184e-08
-2.16842e-09
1.1096573e-08
-2.1781005e-09
1.145647e-08
-2.1974693e-09
1.1821471e-08
-2.2110508e-09
1.2189537e-08
-2.2263715e-09
1.2561741e-08
-2.2379659e-09
1.2939575e-08
-2.2549936e-09
1.3318178e-08
-2.2625289e-09
1.37049e-08
-2.2796917e-09
1.4090649e-08
-2.2861296e-09
1.4485138e-08
-2.3007037e-09
1.4878306e-08
-2.3081183e-09
1.5280076e-08
-2.3237637e-09
1.5679539e-08
-2.3258852e-09
1.6090022e-08
-2.3424325e-09
1.6496157e-08
-2.3475565e-09
1.6910665e-08
-2.3540581e-09
1.7325699e-08
-2.3651389e-09
1.7747279e-08
-2.3679187e-09
1.8168667e-08
-2.3827017e-09
1.8591289e-08
-2.3703142e-09
1.9022236e-08
-2.3991696e-09
1.9448604e-08
-2.3819414e-09
1.9888445e-08
-2.4093363e-09
2.0317243e-08
-2.3908662e-09
2.0757634e-08
-2.4078286e-09
2.1190555e-08
-2.3938003e-09
2.1638021e-08
-2.4135234e-09
2.2071438e-08
-2.4024987e-09
2.2520996e-08
-2.4088715e-09
2.2968282e-08
-2.4248993e-09
2.3408518e-08
-2.3923564e-09
2.385118e-08
-2.4042315e-09
2.4300922e-08
-2.3974472e-09
2.4748638e-08
-2.4104795e-09
2.5191771e-08
-2.3837204e-09
2.5645518e-08
-2.4070865e-09
2.6082914e-08
-2.3729698e-09
2.6539532e-08
-2.396389e-09
2.6978752e-08
-2.3769922e-09
2.7436623e-08
-2.3721519e-09
2.7868578e-08
-2.357292e-09
2.8316695e-08
-2.3489006e-09
2.8772988e-08
-2.3714319e-09
2.9203347e-08
-2.3217487e-09
2.9663047e-08
-2.3489412e-09
3.0105312e-08
-2.3308435e-09
3.0548435e-08
-2.3152385e-09
3.0990112e-08
-2.3074129e-09
3.1435342e-08
-2.3002997e-09
3.1870054e-08
-2.2786346e-09
3.2305115e-08
-2.2776627e-09
3.274721e-08
-2.2653093e-09
3.3155809e-08
-2.2108553e-09
3.3596853e-08
-2.2290831e-09
3.4063716e-08
-2.2747637e-09
3.4529156e-08
-2.2508975e-09
3.4942092e-08
-2.1825909e-09
3.540966e-08
-2.2192299e-09
3.5864186e-08
-2.2223031e-09
3.6235428e-08
-2.0741527e-09
3.6695058e-08
-2.185155e-09
3.7130474e-08
-2.1612917e-09
3.7472934e-08
-2.0246649e-09
3.7850585e-08
-2.0423844e-09
3.8285301e-08
-2.1381665e-09
3.8531531e-08
-1.8654431e-09
3.8923211e-08
-2.0455473e-09
3.9168314e-08
-1.870281e-09
-1.8634426e-09
9.0678896e-09
-2.4211122e-09
9.4223371e-09
-2.4499976e-09
9.7832757e-09
-2.4739956e-09
1.0148814e-08
-2.5017598e-09
1.0518977e-08
-2.5165577e-09
1.0895533e-08
-2.5449768e-09
1.1276514e-08
-2.5590815e-09
1.1662625e-08
-2.5835804e-09
1.2054981e-08
-2.6034066e-09
1.2450205e-08
-2.6215953e-09
1.2851975e-08
-2.6397363e-09
1.3258199e-08
-2.6612173e-09
1.3668306e-08
-2.672636e-09
1.4085164e-08
-2.6965493e-09
1.4503907e-08
-2.7048728e-09
1.4930789e-08
-2.7275858e-09
1.5358951e-08
-2.7362804e-09
1.5794053e-08
-2.7588656e-09
1.622948e-08
-2.7613121e-09
1.6677843e-08
-2.7907953e-09
1.7118479e-08
-2.7881928e-09
1.7572727e-08
-2.8083056e-09
1.8022613e-08
-2.8150255e-09
1.8487776e-08
-2.8330814e-09
1.8940526e-08
-2.8354514e-09
1.9408375e-08
-2.8381631e-09
1.9869758e-08
-2.8605526e-09
2.0339517e-08
-2.8517008e-09
2.081156e-08
-2.8813792e-09
2.1281427e-08
-2.860733e-09
2.1749789e-08
-2.8761904e-09
2.2223565e-08
-2.8675769e-09
2.2700413e-08
-2.8903717e-09
2.316548e-08
-2.8675657e-09
2.3647898e-08
-2.8912893e-09
2.4125184e-08
-2.9021848e-09
2.4593085e-08
-2.8602576e-09
2.5058375e-08
-2.8695216e-09
2.5542795e-08
-2.8818673e-09
2.6011356e-08
-2.8790405e-09
2.6486511e-08
-2.8588749e-09
2.6964381e-08
-2.8849569e-09
2.7424019e-08
-2.8326074e-09
2.7907156e-08
-2.8795268e-09
2.8350251e-08
-2.8200864e-09
2.883236e-08
-2.8542611e-09
2.9279061e-08
-2.8039935e-09
2.9781882e-08
-2.8517211e-09
3.027899e-08
-2.8685403e-09
3.0709312e-08
-2.7520706e-09
3.1216346e-08
-2.8559746e-09
3.1635869e-08
-2.7503673e-09
3.2069665e-08
-2.7490346e-09
3.2437516e-08
-2.6752636e-09
3.2812045e-08
-2.6748285e-09
3.3054306e-08
-2.5208955e-09
3.3252575e-08
-2.4759321e-09
3.3043328e-08
-2.056062e-09
3.2927335e-08
-2.0948627e-09
3.3365099e-08
-2.6668467e-09
3.3646154e-08
-2.5558187e-09
3.4023349e-08
-2.6280927e-09
3.4249217e-08
-2.4084588e-09
3.4259901e-08
-2.2299141e-09
3.46025e-08
-2.5649019e-09
3.4436929e-08
-1.9085817e-09
3.4420263e-08
-2.1684894e-09
3.4588487e-08
-2.3295157e-09
3.4280247e-08
-1.7164245e-09
3.4129491e-08
-1.8916287e-09
3.4051717e-08
-2.0603922e-09
3.3548814e-08
-1.36254e-09
3.3436107e-08
-1.9328405e-09
3.296803e-08
-1.402204e-09
-1.4438438e-09
9.0421844e-09
-2.7919463e-09
9.4143881e-09
-2.8222013e-09
9.7978679e-09
-2.8574755e-09
1.0183216e-08
-2.8871077e-09
1.0576518e-08
-2.9098599e-09
1.0975549e-08
-2.9440074e-09
1.13803e-08
-2.9638327e-09
1.1791553e-08
-2.9948333e-09
1.2208963e-08
-3.020817e-09
1.2631209e-08
-3.0438406e-09
1.3060422e-08
-3.0689492e-09
1.3495073e-08
-3.0958692e-09
1.3935337e-08
-3.1128999e-09
1.4382301e-08
-3.1435125e-09
1.4833309e-08
-3.1558816e-09
1.5291596e-08
-3.1858723e-09
1.5755683e-08
-3.2003677e-09
1.6219979e-08
-3.2231619e-09
1.6693739e-08
-3.2350718e-09
1.7173137e-08
-3.2701933e-09
1.7650327e-08
-3.2653824e-09
1.8133498e-08
-3.2914772e-09
1.861964e-08
-3.3011678e-09
1.9112675e-08
-3.3261162e-09
1.9596282e-08
-3.3190585e-09
2.0090733e-08
-3.3326136e-09
2.057791e-08
-3.3477301e-09
2.1070659e-08
-3.3444489e-09
2.1565842e-08
-3.3765626e-09
2.2056021e-08
-3.3509123e-09
2.2537406e-08
-3.3575749e-09
2.3034978e-08
-3.3651492e-09
2.3524998e-08
-3.3803912e-09
2.4005771e-08
-3.3483388e-09
2.4501273e-08
-3.3867918e-09
2.4985726e-08
-3.3866374e-09
2.5442521e-08
-3.3170527e-09
2.5936322e-08
-3.3633224e-09
2.6453338e-08
-3.3988831e-09
2.693379e-08
-3.3594934e-09
2.7397398e-08
-3.3224823e-09
2.7858484e-08
-3.3460432e-09
2.8187708e-08
-3.1618316e-09
2.8560514e-08
-3.2523327e-09
2.8414426e-08
-2.673998e-09
2.8271616e-08
-2.7114514e-09
2.8576221e-08
-3.1085987e-09
2.8849004e-08
-3.1245034e-09
2.9135402e-08
-3.1549382e-09
2.9101616e-08
-2.7182846e-09
2.9083593e-08
-2.837952e-09
2.9016476e-08
-2.68325e-09
2.874907e-08
-2.4816293e-09
2.8428966e-08
-2.3551595e-09
2.7949793e-08
-2.1956548e-09
2.7452274e-08
-2.0233772e-09
2.6767391e-08
-1.7910483e-09
2.610826e-08
-1.3969312e-09
2.5326995e-08
-1.3135977e-09
2.4164263e-08
-1.5041152e-09
2.2994415e-08
-1.3859708e-09
2.1708778e-08
-1.3424547e-09
2.0638494e-08
-1.3381756e-09
1.9241507e-08
-8.3292682e-10
1.7864642e-08
-1.188037e-09
1.6562336e-08
-6.062757e-10
1.5321483e-08
-9.2763626e-10
1.4007479e-08
-1.0155116e-09
1.3067976e-08
-7.7692111e-10
1.1925336e-08
-7.4898936e-10
1.0790512e-08
-9.2556796e-10
9.8697549e-09
-4.41783e-10
8.7410502e-09
-8.0413573e-10
7.9665267e-09
-6.2768048e-10
-9.4288405e-10
8.9619554e-09
-3.1823962e-09
9.3494927e-09
-3.2097386e-09
9.7544272e-09
-3.2624099e-09
1.0156696e-08
-3.2893761e-09
1.0573036e-08
-3.3262002e-09
1.099173e-08
-3.3627012e-09
1.1420695e-08
-3.3927984e-09
1.1854782e-08
-3.4289197e-09
1.2297797e-08
-3.4638322e-09
1.2745538e-08
-3.4915815e-09
1.3202533e-08
-3.5259447e-09
1.3665199e-08
-3.5585347e-09
1.4134534e-08
-3.5822345e-09
1.4612929e-08
-3.6219078e-09
1.5091551e-08
-3.6345039e-09
1.5583645e-08
-3.6779656e-09
1.6074947e-08
-3.6916704e-09
1.6569119e-08
-3.7173338e-09
1.7068445e-08
-3.7343978e-09
1.7575807e-08
-3.7775553e-09
1.8072332e-08
-3.7619075e-09
1.8577074e-08
-3.7962192e-09
1.9077806e-08
-3.8018992e-09
1.9586164e-08
-3.8344749e-09
2.0078368e-08
-3.8112621e-09
2.0579455e-08
-3.8337006e-09
2.1076918e-08
-3.8451933e-09
2.1571328e-08
-3.838859e-09
2.2071868e-08
-3.8771022e-09
2.2548621e-08
-3.8276657e-09
2.3041106e-08
-3.8500595e-09
2.3548968e-08
-3.8730118e-09
2.4046929e-08
-3.8783517e-09
2.4428614e-08
-3.7300235e-09
2.4860914e-08
-3.8190922e-09
2.4878374e-08
-3.4040978e-09
2.4615998e-08
-3.054676e-09
2.4964003e-08
-3.7113272e-09
2.5149523e-08
-3.5844035e-09
2.5164438e-08
-3.3744079e-09
2.5047009e-08
-3.2050538e-09
2.4705665e-08
-3.0046989e-09
2.4215274e-08