/*--------------------------------*- C++ -*----------------------------------*\
| =========                 |                                                 |
| \\      /  F ield         | OpenFOAM: The Open Source CFD Toolbox           |
|  \\    /   O peration     | Version:  2.3.0                                 |
|   \\  /    A nd           | Web:      www.OpenFOAM.org                      |
|    \\/     M anipulation  |                                                 |
\*---------------------------------------------------------------------------*/
FoamFile
{
    version     2.0;
    format      ascii;
    class       volSymmTensorField;
    location    "30";
    object      sigma;
}
// * * * * * * * * * * * * * * * * * * * * * * * * * * * * * * * * * * * * * //

dimensions      [1 -1 -2 0 0 0 0];

internalField   nonuniform List<symmTensor> 
1000
(
(7759.92 -5512.99 3.59557e-13 4436.67 -2.30286e-13 2814.6)
(10705.8 -4210.09 1.87668e-14 1273.89 6.91765e-14 2764.55)
(12209.2 -3338.68 1.23721e-13 -447.193 6.03037e-14 2714.31)
(12977 -2720.04 1.88261e-14 -1395.99 -1.58617e-14 2672.54)
(13342.3 -2264.37 9.43574e-14 -1909.37 4.9387e-14 2638.37)
(13477.6 -1919.22 1.01262e-15 -2168.92 5.15032e-15 2609.69)
(13478.9 -1651.74 -7.48177e-14 -2276.6 -3.91458e-14 2585.14)
(13401.4 -1439.64 -1.16009e-13 -2294.96 -5.07354e-14 2563.02)
(13284.5 -1264.6 0 -2264.9 0 2542.99)
(13134.7 -1035.69 1.33613e-14 -2199.7 -2.2417e-15 2523.47)
(10601.2 -6688.81 2.13214e-13 4936.47 -1.46146e-13 3585.62)
(12820.7 -4532.82 -5.31388e-14 1896.76 2.85439e-14 3396.33)
(13853.2 -3192.3 6.43483e-14 216.3 2.92429e-14 3246.8)
(14291.3 -2317.23 2.14748e-14 -739.546 -1.34789e-14 3127.32)
(14412.5 -1725.31 -9.37297e-14 -1284.67 -5.04786e-14 3029.51)
(14362.5 -1312.94 -1.03181e-15 -1585.45 7.31222e-15 2948.56)
(14218.4 -1018.08 8.46613e-14 -1738.95 4.05359e-14 2879.87)
(14026.7 -800.115 -7.98471e-14 -1801.55 -3.34706e-14 2821.19)
(13821.9 -628.295 -2.83205e-14 -1808.05 7.20116e-15 2772.43)
(13600.7 -428.156 -1.15688e-14 -1749.5 -1.56721e-14 2734.89)
(13727.1 -7553.92 1.55034e-13 5016.55 -1.34748e-13 4325.46)
(14990.2 -4699.89 -2.85763e-14 2360.25 1.09901e-14 4003.95)
(15425.7 -2977.23 -5.09733e-16 870.824 2.07681e-16 3760.73)
(15462.1 -1897.36 -1.16516e-14 -11.3422 5.15147e-15 3565.56)
(15304.6 -1198.89 -9.30804e-14 -541.909 -4.93711e-14 3406.77)
(15054 -736.23 -7.98225e-14 -860.442 -4.66167e-14 3275.44)
(14763 -423.122 -3.0774e-14 -1047.41 -2.07061e-14 3165.15)
(14461.7 -205.721 3.19131e-14 -1150.96 1.80579e-14 3071.71)
(14173.3 -47.6607 -1.69705e-14 -1199.91 5.29452e-15 2993.85)
(13890.9 118.146 -9.39867e-15 -1181.62 -1.44005e-14 2932.92)
(17007.3 -8006.41 2.74347e-13 4741.33 -1.21404e-13 5018.92)
(17140.2 -4676.96 -7.25684e-14 2676.8 -2.92555e-14 4573.15)
(16884.5 -2700.6 1.43805e-15 1493.74 -3.67674e-16 4241.14)
(16474.1 -1488.63 0 754.661 0 3975.87)
(16016.4 -726.173 7.95022e-14 276.832 5.03934e-14 3759.98)
(15559.3 -237.507 -3.70656e-15 -38.0668 6.03555e-16 3581.81)
(15122.8 79.5194 -7.01358e-14 -248.98 -3.83566e-14 3432.41)
(14717.1 287.66 4.78136e-14 -390.959 4.03826e-14 3306.04)
(14351.1 427.951 -1.49237e-14 -485.078 5.83537e-15 3199.84)
(14011 561.471 5.21377e-14 -517.779 2.79323e-14 3113.82)
(20280.1 -7979.36 -2.61709e-13 4195.83 4.39505e-14 5648.3)
(19190.7 -4445.17 -1.72309e-13 2864.01 -5.02464e-14 5089.55)
(18199.9 -2369.07 1.56087e-14 2070.95 -1.58386e-15 4677.88)
(17322.3 -1114.86 9.86487e-15 1520.82 -9.65896e-16 4348.4)
(16559.6 -339.63 0 1123.47 0 4080.7)
(15898 145.64 1.49986e-13 827.501 7.73513e-14 3859.74)
(15322.5 450.69 1.01503e-13 601.554 5.31069e-14 3674.77)
(14820.2 641.968 5.21446e-14 425.635 3.65924e-14 3518.27)
(14383.9 762.404 -4.08595e-14 287.085 -7.61487e-15 3385.6)
(13993.6 866.011 -5.37478e-14 200.231 -2.72153e-14 3275.5)
(23375.8 -7442.38 -4.03849e-13 3492.41 6.4504e-14 6200.36)
(21060 -4000.38 1.38211e-13 2953.98 2.79166e-14 5541.68)
(19339.8 -1993.84 8.85048e-14 2583.96 2.44456e-14 5059.34)
(18008 -793.092 0 2246.29 0 4674.08)
(16953.4 -60.1634 -7.44474e-14 1944.01 -3.61525e-14 4360.94)
(16100.5 391.141 2.84776e-17 1677.49 2.95966e-17 4102.62)
(15397.4 668.063 1.32759e-13 1443.35 5.80327e-14 3886.32)
(14808.7 835.453 6.20942e-14 1238.18 2.49786e-14 3703.13)
(14311.7 934.969 5.46998e-15 1058.99 -3.62511e-15 3547.09)
(13880.3 1012.07 -4.38673e-14 919.382 -1.36249e-14 3415.31)
(26121.2 -6410.39 -6.22564e-14 2745.59 2.83221e-15 6661.58)
(22669.7 -3355.18 1.66235e-13 2976.61 4.25239e-14 5918.39)
(20282 -1584.84 0 3019.43 0 5377.25)
(18538.7 -532.707 -1.11063e-13 2890.1 -3.91846e-14 4945.12)
(17223.4 104.469 -1.17671e-16 2684.63 -6.11154e-17 4594.15)
(16201.8 492.215 -1.36737e-13 2451.16 -4.80239e-14 4304.52)
(15388.4 726.05 -1.84726e-15 2213.94 5.30212e-15 4062.07)
(14726.7 863.523 5.26045e-15 1985.1 -6.1508e-15 3856.57)
(14179.8 941.423 3.3664e-14 1770.36 2.93294e-15 3680.81)
(13716.2 996.022 -1.8792e-16 1583.07 1.51615e-16 3530.61)
(28350.3 -4938 -6.37969e-14 2068.14 -2.78548e-14 7019.64)
(23945.4 -2540.95 4.03472e-14 2962.45 2.38524e-14 6209.5)
(21006.1 -1157.07 -7.55987e-14 3361.3 -2.41533e-14 5623.24)
(18924.4 -337.163 -9.36952e-14 3414.21 -2.54145e-14 5155.07)
(17395.7 156.969 8.938e-17 3295.01 8.64837e-17 4774.78)
(16237.7 455.396 -2.05804e-17 3092.98 -5.59064e-17 4460.92)
(15336.2 633.125 -6.17974e-14 2855.48 -1.32681e-14 4198.08)
(14617.5 735.669 -5.42979e-14 2608.16 -1.72337e-14 3975.15)
(14032.8 791.915 3.07499e-15 2364.85 -4.13084e-15 3784.06)
(13545.9 828.299 5.77823e-15 2138.25 1.79337e-15 3619.43)
(29908 -3122.4 2.92231e-13 1552.68 -1.36919e-14 7260.15)
(24825.5 -1611.76 1.35304e-13 2933.56 4.63087e-15 6405.93)
(21495.4 -734.929 -1.17516e-14 3597.57 -1.37414e-14 5790.69)
(19172.9 -213.985 8.84734e-14 3788.05 1.05202e-14 5298.69)
(17492.6 99.8602 3.68141e-15 3734.07 6.85398e-15 4898.46)
(16238.4 288.805 6.84156e-14 3556.02 1.90825e-14 4567.94)
(15275.9 400.988 0 3318.96 0 4291.12)
(14518.4 465.404 0 3058.64 0 4056.23)
(13908.8 500.73 -2.41071e-14 2794.41 -4.55244e-15 3854.58)
(13407.7 523.017 1.93621e-14 2538.69 -1.28046e-14 3679.93)
(30678.2 -1099.48 7.16294e-15 1274.88 1.27604e-14 7373.8)
(25302.7 -678.639 -4.33796e-13 2935.78 -8.56898e-15 6516.57)
(21735.1 -395.622 5.24453e-14 3737.05 -1.20888e-14 5878.19)
(19264.5 -217.183 9.11686e-14 3994.5 3.59017e-15 5367.45)
(17494.4 -105.675 7.65425e-14 3969.57 3.20295e-15 4953.23)
(16185.4 -35.7521 0 3800.17 0 4612.06)
(15189.6 8.25365 0 3560.84 0 4327.03)
(14412.2 35.7489 3.82248e-16 3291.84 -3.78081e-15 4085.55)
(13791.6 53.1285 7.10497e-14 3014.92 2.95181e-15 3878.42)
(13287.1 65.5473 -1.07919e-15 2741.44 -2.52928e-16 3698.9)
(-435.901 375.837 -1.11679e-14 -10566.2 1.86921e-13 -2538.95)
(-341.473 142.587 1.50666e-15 -6812.67 -3.52779e-14 -1650.96)
(96.9848 -42.9161 0 -4465.63 0 -1008.15)
(815.679 -151.825 5.40562e-15 -2951.7 1.62672e-14 -492.929)
(1625.22 -207.108 -8.58771e-15 -1949.94 9.97623e-15 -74.9351)
(2434.74 -230.242 -6.48168e-15 -1267.11 2.54722e-14 269.454)
(3203.2 -234.926 3.38623e-14 -787.408 2.20509e-14 557.491)
(3914.45 -229.167 4.39604e-14 -439.947 8.34354e-17 801.808)
(4564.78 -217.97 -8.7474e-16 -179.872 -2.85164e-15 1011.9)
(5155.99 -206.538 4.23296e-15 20.9758 5.43442e-15 1194.68)
(-497.138 887.527 -3.15218e-15 -10201.2 -4.32306e-14 -2468.84)
(-161.354 -234.297 2.33012e-16 -6560 5.86234e-16 -1551.08)
(393.003 -827.123 -2.54107e-14 -4411.32 -3.39899e-14 -927.303)
(1162.02 -1127.42 -8.99715e-15 -3023.89 -7.19485e-15 -429.664)
(1985.01 -1264.42 1.22168e-14 -2093.44 4.19199e-15 -25.0212)
(2789.09 -1309.06 -1.54138e-15 -1449.28 -7.77453e-15 309.187)
(3542.73 -1301.96 -1.68299e-14 -989.323 -8.56455e-15 589.248)
(4234.42 -1266.67 -4.60714e-14 -649.996 -7.64652e-15 827.175)
(4862.03 -1217.22 -3.67022e-14 -390.838 6.50288e-16 1031.81)
(5425.09 -1169 4.30522e-14 -184.808 -2.45226e-16 1209.3)
(-547.072 1263.56 -4.92252e-15 -9119.82 -3.22419e-14 -2230.82)
(194.31 -523.283 4.87263e-14 -6081.06 5.46228e-14 -1358.48)
(952.877 -1445.34 4.77818e-17 -4257.55 2.3549e-16 -762.616)
(1814.99 -1899.67 -8.40985e-14 -3061.84 -4.62897e-14 -287.735)
(2667.01 -2100.69 -7.26205e-14 -2245.12 -3.12364e-14 97.3602)
(3464.87 -2160.46 -3.29975e-14 -1666.61 -1.27386e-14 414.984)
(4193.08 -2141.5 -2.1747e-14 -1242.69 -1.42949e-14 680.861)
(4849.24 -2079.72 1.45967e-14 -921.017 8.97775e-17 906.512)
(5435.76 -1996.25 -6.94483e-14 -668.211 -1.17792e-14 1100.2)
(5950.94 -1915.75 -8.79882e-14 -461.87 -6.87718e-15 1266.71)
(-538.213 1389.72 -2.19274e-14 -7564.5 3.89387e-14 -1869.86)
(754.65 -837.266 1.59764e-15 -5380.4 -1.61324e-14 -1067.48)
(1782.22 -1978.78 -3.0865e-14 -4022.67 5.34837e-15 -517.027)
(2755.04 -2531.86 4.31543e-15 -3095.8 1.53151e-14 -78.6377)
(3636.54 -2767.49 5.71488e-16 -2436.25 5.59359e-16 276.99)
(4419.08 -2828.35 8.57807e-15 -1948.93 2.97966e-15 570.034)
(5108.04 -2792.71 -6.09903e-14 -1575.73 -1.60387e-14 815.149)
(5712.56 -2705.08 9.10897e-15 -1279.91 1.19262e-14 1022.92)
(6241.29 -2591.53 1.60035e-14 -1037.99 5.47201e-15 1200.76)
(6690.56 -2485.57 3.62816e-14 -834.387 1.16649e-14 1351.42)
(-392.718 1196.7 4.40602e-14 -5680.56 -1.39847e-13 -1401.53)
(1525.12 -1213.06 -4.64141e-14 -4504.32 -3.89567e-15 -687.508)
(2850.59 -2437.88 -7.59846e-14 -3709.25 -3.69889e-14 -198.151)
(3940.99 -3017.22 6.76971e-14 -3105.32 1.09954e-14 192.847)
(4844.25 -3250.81 6.1246e-14 -2634.92 2.32322e-14 509.845)
(5598.63 -3295.51 6.83342e-14 -2257.67 2.62415e-14 770.991)
(6233.39 -3237.27 7.34303e-14 -1946.64 2.59649e-14 989.249)
(6770.92 -3124.66 -2.54484e-14 -1683.6 -1.30647e-16 1174)
(7226.79 -2986.01 2.80641e-14 -1456.92 2.26524e-14 1331.51)
(7594.19 -2863.24 -1.25455e-14 -1259.36 -1.18006e-14 1461.88)
(-23.6811 657.645 -1.01975e-14 -3627.26 1.87167e-13 -842.525)
(2515.4 -1659.94 -5.8146e-14 -3514.7 -2.42286e-15 -230.608)
(4128.94 -2815.1 9.42038e-14 -3319.49 2.66375e-14 186.795)
(5319.23 -3341.45 2.62195e-15 -3065.62 -1.92182e-14 520.062)
(6227.23 -3532.3 7.17866e-14 -2801.48 2.88685e-14 790.558)
(6936.64 -3542.27 -6.43236e-14 -2545.7 -2.47012e-14 1013.29)
(7501.84 -3455.48 5.69593e-14 -2304.54 2.1415e-14 1199.38)
(7958.43 -3319.36 -2.48203e-14 -2079.72 -1.87811e-17 1356.63)
(8328.74 -3161.59 4.64365e-14 -1872.49 -3.40416e-15 1489.9)
(8602.3 -3031.55 -1.15055e-14 -1685.12 -3.06824e-14 1596.27)
(667.126 -216.351 2.57623e-13 -1540.52 -4.15205e-13 -201.552)
(3735.42 -2164.08 -2.41981e-14 -2465.47 4.46209e-14 293.067)
(5579.01 -3103.45 2.08094e-13 -2859.05 7.78559e-14 627.684)
(6830.37 -3497.65 6.65006e-15 -2950.75 -2.14119e-14 895.296)
(7714.84 -3606.08 1.69004e-15 -2894.08 1.32186e-14 1112.48)
(8358.86 -3563.32 -6.25486e-14 -2763.03 -2.21733e-14 1291.35)
(8838.92 -3442.64 -1.58206e-14 -2595.76 -3.02211e-15 1440.73)
(9202.57 -3285.05 0 -2413.24 0 1566.77)
(9477.91 -3114.59 -5.14976e-14 -2229.42 -2.07113e-14 1672.73)
(9650.23 -2987.03 7.85163e-14 -2057.48 2.25801e-14 1752.17)
(1757.29 -1373.83 1.03956e-13 426.529 -2.47328e-13 503.957)
(5184.11 -2706.47 9.52903e-14 -1415.61 -1.92751e-14 869.654)
(7157.63 -3297.21 -4.34386e-14 -2329.81 -4.28912e-14 1114.11)
(8410.79 -3490.95 8.691e-14 -2736.29 6.57205e-14 1309.5)
(9234.49 -3482.71 -2.60446e-13 -2873.52 -1.02718e-13 1467.92)
(9789.56 -3372.33 7.68777e-14 -2863.18 3.37796e-14 1598.4)
(10169.9 -3213.59 -1.39595e-14 -2770.41 -2.90387e-15 1707.58)
(10431.7 -3036.57 0 -2633.01 0 1799.7)
(10606.5 -2859.62 1.36801e-14 -2476.87 -1.5217e-15 1876.07)
(10675 -2743.59 1.61583e-14 -2326.1 -2.77402e-15 1926.67)
(3294.71 -2720.79 0 2137.94 0 1253.69)
(6845.09 -3253.77 -1.90649e-14 -411.73 2.14198e-14 1484.62)
(8817.66 -3397.34 -2.05727e-13 -1741.35 -1.42542e-13 1633)
(9996.41 -3339.79 -2.12415e-14 -2407.02 3.14092e-14 1751.4)
(10715.8 -3189.93 -3.78684e-15 -2710.95 1.27821e-14 1847.28)
(11157.4 -3001.99 7.1277e-14 -2809.65 2.4253e-14 1926.41)
(11425.3 -2803.09 0 -2788.97 0 1992.99)
(11580.4 -2608.61 0 -2699.23 0 2049.49)
(11656.1 -2428.72 0 -2575.27 0 2095.58)
(11628.3 -2330.2 1.10609e-13 -2448.96 2.31689e-14 2118.31)
(5304.62 -4145.78 2.13884e-13 3497.78 -2.15169e-13 2031.32)
(8699.63 -3769.85 -4.93625e-14 495.881 4.40929e-14 2122.04)
(10516.8 -3410.21 -4.46662e-14 -1107.55 -4.41435e-14 2171.36)
(11534 -3072.67 -9.02252e-14 -1957.84 -7.01205e-14 2209.88)
(12100.6 -2768.83 1.876e-13 -2389.5 9.26198e-14 2241.02)
(12402.4 -2499.96 0 -2579.99 0 2266.7)
(12545.2 -2263.42 -7.43981e-14 -2626.7 -3.70107e-14 2288.88)
(12590.7 -2055.66 0 -2587.89 0 2308.35)
(12579.3 -1871.79 1.17713e-14 -2497.3 -1.84081e-15 2326.61)
(12499.6 -1780.74 -2.51254e-14 -2405.01 -1.31537e-14 2329.52)
(5676.75 -177.603 6.75712e-14 174.226 -7.9489e-15 1350.23)
(6155.8 -148.745 -9.41222e-15 317.003 -2.61372e-14 1493.72)
(6586.71 -125.264 -8.38399e-14 444.885 -1.05511e-14 1622.68)
(6977.09 -105.333 -9.55298e-17 564.02 -9.47103e-20 1740.26)
(7332.12 -88.346 -5.49286e-15 678.954 -1.58735e-14 1848.71)
(7655.98 -73.8115 -3.0243e-14 793.185 -8.47887e-17 1949.81)
(7952.18 -61.3544 0 909.8 0 2045.07)
(8223.65 -50.6578 0 1031.27 0 2135.75)
(8472.78 -41.4381 -6.30923e-14 1160.02 4.52615e-15 2222.96)
(8701.57 -33.4174 1.01887e-13 1298.17 1.477e-14 2307.63)
(8911.51 -26.3435 9.71249e-14 1448.03 -1.88494e-14 2390.66)
(9103.79 -19.9322 -7.02583e-14 1611.84 -8.79054e-15 2472.84)
(9279.09 -13.9452 -3.55265e-14 1792.24 -5.80304e-15 2554.92)
(9437.88 -8.09854 -1.03456e-13 1991.89 -1.45427e-15 2637.64)
(9580.02 -2.1028 3.67605e-14 2214.05 7.80957e-15 2721.71)
(9704.88 4.40419 6.82936e-14 2462.07 -1.18878e-15 2807.76)
(9811.07 11.497 9.74629e-16 2739.85 7.63448e-16 2896.36)
(9896.04 18.4575 3.32066e-14 3050.24 1.27925e-15 2987.6)
(9958.83 20.8181 -3.41722e-14 3393.98 -1.13204e-16 3081.42)
(10022.6 5.71589 7.76068e-14 3766.58 4.92062e-15 3182.13)
(5904.78 -1081.42 9.15845e-14 -12.1054 8.78116e-15 1359.85)
(6342.73 -963.946 4.23031e-14 160.867 9.12796e-15 1500.83)
(6737.35 -867.421 -2.17661e-14 310.854 2.83011e-15 1626.51)
(7099.63 -781.948 6.72497e-14 448.062 6.21842e-15 1741.78)
(7431.97 -706.281 2.01539e-15 577.762 6.95239e-17 1848.4)
(7737.17 -639.193 -9.62077e-14 704.302 -3.78156e-15 1948.03)
(8017.79 -579.496 8.68291e-15 831.035 5.6273e-15 2042.04)
(8276.16 -526.07 -6.38726e-14 960.934 -1.00997e-15 2131.64)
(8514.19 -477.88 -1.70633e-15 1096.46 -8.81061e-17 2217.84)
(8733.53 -433.941 6.04252e-14 1240.12 -3.44045e-15 2301.61)
(8935.38 -393.337 4.19869e-14 1394.14 7.88391e-15 2383.74)
(9120.77 -355.162 -6.43988e-15 1561.09 -4.35885e-15 2465.04)
(9290.24 -318.565 -3.47822e-14 1743.4 -1.28314e-15 2546.22)
(9444.17 -282.586 0 1944.01 0 2628.04)
(9582.53 -246.41 -4.67052e-15 2165.88 -2.64107e-15 2711.17)
(9705.03 -209.04 -6.91614e-14 2412.61 -3.82968e-15 2796.38)
(9810.66 -169.639 -3.18245e-15 2687.99 -5.66655e-16 2884.3)
(9897.45 -127.19 2.26082e-15 2997.13 -2.15722e-17 2975.67)
(9962.4 -79.8825 1.43185e-15 3349.16 -6.95639e-16 3071.9)
(10020.9 -20.4695 1.09793e-13 3771.94 3.39278e-14 3182.97)
(6361.98 -1777.84 -9.84552e-15 -275.031 -2.00579e-15 1404.68)
(6733.32 -1597.6 6.4727e-14 -69.192 4.75001e-15 1537.87)
(7061.3 -1447.84 -5.8355e-14 106.929 -1.03285e-15 1654.21)
(7368.44 -1313.39 1.85477e-14 267.642 -3.10587e-15 1762.17)
(7655 -1192.85 1.05754e-13 417.804 8.17849e-15 1862.95)
(7922.04 -1084.84 -9.97935e-14 561.822 -5.06749e-15 1957.81)
(8170.7 -987.878 -3.38663e-14 703.295 -8.99021e-16 2047.85)
(8402.15 -900.457 6.46523e-14 845.463 1.80371e-15 2134.07)
(8617.39 -821.09 1.66701e-15 991.053 1.52234e-16 2217.33)
(8817.37 -748.32 -6.15527e-15 1142.76 -2.82992e-15 2298.49)
(9002.74 -680.747 1.00345e-13 1303.02 4.49595e-15 2378.25)
(9174.09 -616.968 2.44338e-14 1474.46 -3.00371e-15 2457.36)
(9331.68 -555.629 -1.0148e-13 1659.64 -6.02711e-15 2536.46)
(9475.72 -495.355 -3.42114e-14 1861.5 -2.34772e-15 2616.28)
(9605.99 -434.723 2.95264e-14 2083.06 1.08944e-15 2697.47)
(9722.01 -372.19 3.03085e-14 2327.99 1.93851e-15 2780.77)
(9822.62 -306.104 -4.1254e-14 2600.44 -4.90074e-15 2866.86)
(9905.06 -233.704 -3.77609e-14 2906.08 -4.25809e-15 2956.42)
(9965.52 -149.669 2.32958e-14 3253.66 6.09206e-15 3050.58)
(10004.9 -39.4849 -3.27633e-14 3658.25 -1.64501e-14 3153.04)
(7009.83 -2312.67 -4.377e-14 -631.889 -1.59366e-14 1471.83)
(7289.43 -2093.66 -1.40245e-14 -386.418 -4.6355e-15 1593)
(7527.42 -1910.25 3.18716e-14 -177.391 1.24534e-15 1696.16)
(7758.67 -1743.41 -2.07016e-14 13.4265 -8.08103e-15 1793.56)
(7981.23 -1591.8 1.1428e-14 190.472 4.05129e-15 1885.78)
(8194.25 -1454.28 -2.10158e-14 357.956 2.82806e-15 1973.59)
(8397.21 -1329.52 -8.09713e-14 519.56 -1.97812e-14 2057.72)
(8589.88 -1216.03 -6.50413e-14 678.695 -2.72291e-15 2138.9)
(8772.09 -1112.21 2.14856e-14 838.341 -2.15317e-15 2217.79)
(8943.84 -1016.4 6.75756e-14 1001.39 3.75724e-15 2295.05)
(9105.05 -926.931 8.2821e-14 1170.47 1.03606e-14 2371.27)
(9255.7 -842.106 2.35242e-14 1348.33 8.66178e-15 2447.08)
(9395.58 -760.2 -8.02371e-14 1537.63 -5.61133e-16 2523.05)
(9524.46 -679.411 3.3748e-14 1741.33 3.16748e-15 2599.8)
(9641.86 -597.893 2.79618e-14 1962.52 1.76019e-15 2677.93)
(9747 -513.528 -2.76516e-14 2204.87 -2.59523e-15 2758.12)
(9838.23 -423.689 5.22995e-15 2472.51 1.00973e-15 2840.94)
(9912.73 -324.27 2.85024e-14 2770.67 5.01426e-15 2926.94)
(9967.35 -207.963 -4.77977e-14 3106.33 -5.92264e-15 3017)
(9984.25 -56.6049 -9.27544e-15 3483.41 -8.42409e-15 3107.92)
(7805.9 -2673.51 8.46631e-14 -1042.14 1.67052e-15 1560.87)
(7973.83 -2443.77 -8.3831e-14 -759.029 -1.99636e-14 1664.95)
(8105.58 -2248.9 -1.76886e-14 -515.499 3.2312e-15 1751.56)
(8245.99 -2068.36 1.40675e-14 -292.491 5.03319e-15 1835.42)
(8391.21 -1901.27 4.24961e-14 -85.8482 1.47039e-14 1916.62)
(8538.26 -1747.18 1.10285e-13 108.144 9.63463e-15 1995.32)
(8684.87 -1605.37 3.06075e-14 292.997 9.6201e-15 2071.82)
(8829.31 -1474.77 -6.62008e-14 472.07 -3.83686e-15 2146.47)
(8970.16 -1354.03 -5.47786e-14 648.47 -2.00647e-14 2219.68)
(9106.34 -1241.59 -8.93106e-14 825.172 -3.32741e-15 2291.89)
(9236.92 -1135.74 1.86234e-14 1004.97 7.0033e-15 2363.51)
(9361.12 -1034.67 2.72684e-14 1190.66 9.83636e-15 2435.03)
(9478.18 -936.448 -3.0092e-14 1385 -9.78113e-15 2506.89)
(9587.41 -839.016 9.11991e-14 1590.91 8.90572e-15 2579.61)
(9687.91 -740.083 2.51422e-14 1811.44 7.38941e-15 2653.7)
(9778.52 -636.975 -2.60033e-14 2050.07 -3.17797e-15 2729.67)
(9857.63 -526.404 4.776e-14 2310.68 8.90151e-15 2808.07)
(9922.45 -403.213 1.0561e-13 2597.74 2.10993e-14 2889.27)
(9970.38 -258.825 -2.56471e-14 2916.87 -7.40307e-15 2973.98)
(9963.58 -73.1826 -3.40206e-14 3263.04 -2.68964e-14 3052.3)
(8700.6 -2844.02 1.10654e-14 -1458.29 6.76377e-15 1671.3)
(8744.79 -2634.34 -9.34733e-15 -1150.24 4.15565e-15 1752.59)
(8762.95 -2451.84 -1.04161e-13 -877.1 -1.01217e-14 1819.81)
(8804.34 -2277.88 -6.79398e-14 -625.144 -5.76528e-15 1887.51)
(8864.2 -2112.27 -3.97093e-15 -390.448 -5.96826e-16 1955.48)
(8937.6 -1955.81 4.95766e-16 -170.219 3.65718e-17 2023.24)
(9020.59 -1808.85 3.95973e-14 38.3617 1.50738e-14 2090.53)
(9110.06 -1671.13 1.65556e-13 238.345 1.25991e-14 2157.32)
(9203.37 -1541.9 1.77642e-14 432.615 5.48973e-15 2223.69)
(9298.4 -1419.99 -1.64782e-13 624.138 -1.45399e-14 2289.82)
(9393.26 -1303.93 -2.60885e-14 815.646 -8.85306e-15 2355.9)
(9486.47 -1191.98 1.63979e-13 1009.97 1.78563e-14 2422.26)
(9576.63 -1082.2 3.5894e-15 1209.77 -6.31632e-15 2489.17)
(9662.49 -972.329 -1.62504e-13 1417.92 -2.24721e-14 2557.02)
(9742.84 -859.859 -3.52161e-14 1637.24 -5.70197e-15 2626.17)
(9816.36 -741.72 -2.86018e-14 1870.97 -7.80386e-15 2697.08)
(9881.14 -614.02 -2.81665e-14 2122.41 -6.56674e-15 2770.05)
(9934.75 -470.914 7.24408e-14 2395.47 1.6856e-14 2845.44)
(9974.97 -302.968 5.42885e-14 2694.62 1.12632e-14 2923.75)
(9946.67 -89.1354 -3.37779e-14 3008.06 -3.13023e-14 2989.55)
(9639.13 -2819.36 -6.33242e-15 -1830.89 -4.29155e-15 1801.9)
(9556.8 -2659.9 -4.45296e-14 -1521.57 -7.36825e-15 1854.28)
(9463.62 -2512.83 0 -1230.73 0 1899.9)
(9405.18 -2365.53 0 -958.732 0 1949.18)
(9377.43 -2218.56 -5.89379e-14 -701.996 -2.14729e-14 2002.02)
(9374.02 -2074.35 0 -459.256 0 2057.25)
(9389.76 -1934.69 -3.40918e-14 -229.214 -1.24746e-14 2113.97)
(9420.5 -1800.4 -5.38938e-14 -9.43851 -1.87533e-14 2171.78)
(9462.48 -1671.68 4.61063e-14 202.169 1.67413e-14 2230.3)
(9512.72 -1547.98 3.23199e-14 408.478 1.11998e-14 2289.51)
(9568.42 -1428.35 -2.77366e-14 611.748 -9.92867e-15 2349.27)
(9627.44 -1311.3 3.2094e-14 814.886 4.05414e-15 2409.77)
(9687.68 -1195.06 3.88228e-14 1020.11 1.32327e-14 2471.03)
(9747.57 -1077.41 1.17177e-14 1230.33 3.92874e-15 2533.36)
(9805.34 -955.683 3.73582e-14 1447.78 -1.15567e-15 2596.87)
(9859.5 -826.58 5.43328e-14 1675.56 1.02017e-14 2661.94)
(9908.14 -685.91 -1.12465e-13 1916.17 -2.67908e-14 2728.69)
(9949.12 -527.233 -9.41379e-14 2173.07 -2.54028e-14 2797.43)
(9980.2 -340.403 3.1182e-14 2449.26 9.82642e-15 2868.34)
(9936.54 -103.783 -3.06549e-14 2728.89 -3.43788e-14 2922.79)
(10566.6 -2608.42 2.21401e-14 -2113.59 -5.57957e-15 1950.68)
(10364.5 -2524.4 -2.946e-14 -1836.62 -5.36e-15 1967.97)
(10171.2 -2432.02 -1.13469e-13 -1545.53 -1.95751e-14 1990.54)
(10019 -2329.44 1.07253e-14 -1267.98 -4.10214e-15 2019.46)
(9907.04 -2217.06 2.87069e-15 -998.6 6.07551e-16 2055.79)
(9828.02 -2099.4 -3.45501e-14 -740.961 -4.33415e-15 2097.01)
(9776.76 -1979.29 3.46093e-14 -493.775 -1.17537e-14 2142.23)
(9747.87 -1859.22 4.89283e-14 -258.046 1.64617e-14 2189.96)
(9737.43 -1740.14 -1.22844e-13 -30.7144 -5.17291e-15 2240.01)
(9741.16 -1622.68 -2.29696e-14 188.446 -7.59276e-15 2291.45)
(9756.15 -1506.3 1.01361e-14 403.161 -1.04857e-14 2344.46)
(9779.06 -1390.23 0 613.949 0 2398.39)
(9807.83 -1272.87 1.45052e-14 824.71 5.13503e-15 2453.66)
(9839.78 -1152.28 1.22531e-13 1035.87 2.63894e-14 2509.77)
(9873.51 -1025.81 4.71925e-14 1251.46 1.13048e-14 2567.3)
(9906.63 -890.092 -5.42544e-14 1471.76 -8.85172e-15 2625.78)
(9937.9 -740.712 3.98377e-15 1701.05 2.10793e-15 2685.91)
(9964.53 -570.954 0 1939.3 0 2747.04)
(9985.85 -370.016 1.98034e-14 2191.54 8.26179e-15 2810.17)
(9935.89 -116.114 -1.98128e-14 2433.44 -3.25742e-14 2854.46)
(11437.4 -2226.72 1.97513e-14 -2263.82 -5.73535e-16 2116.98)
(11132.6 -2231.86 -3.82548e-14 -2052.77 7.44237e-15 2095.35)
(10854.8 -2208.83 8.38768e-15 -1784.81 -4.16486e-15 2093.08)
(10620.1 -2165.82 -2.48589e-14 -1517.8 -1.04679e-14 2100.52)
(10431.2 -2103.04 4.30209e-14 -1250.92 2.51246e-14 2118.53)
(10281.9 -2025.41 1.54308e-13 -988.056 3.56128e-14 2144.74)
(10166.7 -1937.41 -5.7211e-14 -733.35 -7.44253e-15 2176.93)
(10080.4 -1842.33 -1.28504e-13 -486.932 -8.20239e-15 2213.88)
(10018.3 -1742.63 2.26774e-14 -249.919 -1.3016e-14 2254.24)
(9976.14 -1639.63 1.19998e-13 -20.3847 8.07061e-15 2297.48)
(9950 -1533.9 -8.5235e-14 201.789 -2.51835e-14 2342.72)
(9936.64 -1425.12 -5.2967e-14 419.347 -5.86064e-16 2389.84)
(9932.94 -1312.36 -5.99688e-14 632.666 -1.03827e-14 2438.22)
(9936.56 -1193.9 -3.10884e-15 844.747 -8.67197e-16 2487.99)
(9944.99 -1067.35 8.75401e-14 1055.74 2.2631e-14 2538.63)
(9956.53 -929.399 1.38676e-14 1268.78 4.64691e-15 2590.46)
(9969.01 -775.659 0 1483.73 0 2642.94)
(9981.14 -599.124 1.64611e-14 1703.84 5.5824e-15 2696.53)
(9993.32 -389.497 -5.80138e-14 1926.45 -2.14029e-14 2750.72)
(9948.39 -126 5.19063e-14 2131.06 6.45927e-14 2787.57)
(12235.6 -1685.83 5.47146e-14 -2259.38 3.69838e-14 2302.2)
(11852.8 -1782.55 1.00532e-14 -2116.14 -5.05102e-15 2246.91)
(11494.9 -1845.85 3.88706e-14 -1896.18 1.16618e-14 2215.1)
(11183.3 -1878.78 -8.18518e-14 -1666.85 -9.89955e-15 2196.1)
(10922.4 -1881.16 -1.05298e-13 -1425.55 -2.43104e-14 2191.59)
(10707.3 -1857.98 4.40266e-14 -1177.77 -3.05431e-15 2199.12)
(10532.1 -1814.63 1.48731e-13 -929.832 3.53489e-14 2215.91)
(10391.9 -1755.62 4.66531e-14 -684.739 -2.74988e-15 2240.11)
(10281.3 -1684.66 -7.88235e-14 -445.547 -1.9989e-14 2269.78)
(10195.9 -1604.28 2.54812e-16 -212.397 -8.80868e-16 2303.88)
(10131 -1516.05 8.52001e-17 13.7087 1.62798e-14 2341.09)
(10083.4 -1420.57 -1.04869e-13 234.127 -2.42097e-14 2380.96)
(10049.1 -1317.5 5.78121e-14 448.612 1.07948e-14 2422.54)
(10025.7 -1205.78 -2.3471e-14 659.038 -1.41988e-14 2465.71)
(10010.3 -1083.25 -3.0885e-16 865.095 2.22465e-16 2509.71)
(10001.2 -946.935 -4.35677e-14 1068.69 -1.29234e-14 2554.59)
(9996.06 -792.283 2.80772e-14 1269.05 8.17072e-15 2599.64)
(9995.39 -613.521 5.01326e-16 1467.56 1.48914e-16 2645.3)
(9998.87 -400.916 -1.5596e-14 1658.86 -7.14441e-15 2690.24)
(9972.23 -132.213 -8.00445e-15 1827.05 -5.71915e-15 2722.91)
(12823.2 -1205.48 -2.72629e-14 -2207.75 -2.20452e-14 2449.71)
(12393.9 -1358.99 -3.25173e-14 -2012.72 -1.87219e-14 2395.65)
(11968.3 -1496.91 -2.21149e-14 -1860.42 -6.45689e-15 2332.6)
(11614.3 -1585.7 2.93624e-14 -1671.61 1.60131e-14 2294.46)
(11313.8 -1635.53 -4.26755e-14 -1459.99 -3.55189e-14 2273.95)
(11059.2 -1654.01 -3.07651e-14 -1236.16 -2.26092e-14 2266.85)
(10845.3 -1646.88 -5.46655e-14 -1005.53 -1.83628e-14 2270.72)
(10667 -1619.24 -5.52907e-15 -774.558 6.36933e-15 2282.88)
(10520.1 -1574.94 9.53334e-14 -545.171 3.75421e-14 2301.91)
(10399.9 -1517.05 -5.53682e-15 -320.889 -8.20915e-16 2325.93)
(10302.8 -1447.48 4.46858e-14 -101.342 1.92139e-14 2354.19)
(10224.8 -1367.27 -4.187e-14 111.449 -1.77096e-14 2385.29)
(10163.1 -1276.56 0 318.959 0 2418.93)
(10114.3 -1174.57 -1.68982e-14 519.515 -7.21212e-15 2453.96)
(10076.7 -1059.67 1.6005e-14 714.829 6.58799e-15 2490.34)
(10047.4 -928.957 -1.62052e-15 902.78 -3.47658e-16 2526.97)
(10025.9 -778.696 -2.58883e-14 1085.08 -7.9299e-15 2564.06)
(10010.7 -603.688 4.20357e-16 1257.89 1.41654e-16 2600.45)
(10005.7 -395.998 -1.29595e-14 1418.45 -4.22544e-15 2636.35)
(10014.5 -132.016 -4.55069e-15 1558.04 -3.81736e-15 2670.59)
(12756.5 -862.88 4.11718e-14 -2002.24 1.79459e-14 2481.74)
(12471.8 -1037.28 0 -1919.17 0 2435.22)
(12106.8 -1202.3 -3.37621e-14 -1812.72 -9.97792e-15 2375.57)
(11781.5 -1323.7 6.14785e-28 -1655.46 1.96259e-28 2336.78)
(11494.2 -1404.4 6.47746e-29 -1468.69 7.64298e-29 2313.58)
(11243 -1451.25 4.4927e-28 -1264 2.15319e-28 2302.84)
(11025 -1470.27 5.34826e-28 -1049.42 1.70274e-28 2302.05)
(10837.4 -1466.36 -2.9588e-14 -830.788 -6.09722e-15 2309.21)
(10677.1 -1443.38 0 -612.295 0 2322.65)
(10541.1 -1404.27 2.84499e-14 -396.744 5.70183e-15 2341.02)
(10426.5 -1351.07 -2.30258e-28 -186.069 -2.45172e-29 2363.18)
(10330.5 -1284.96 -2.75552e-14 18.5681 -5.82899e-15 2388.24)
(10250.4 -1206.29 2.71833e-14 216.272 6.0776e-15 2415.39)
(10184.2 -1114.62 2.82293e-28 406.433 9.29646e-29 2443.98)
(10129.7 -1008.61 -2.65633e-14 588.188 -6.95381e-15 2473.36)
(10085.4 -885.734 -1.82248e-28 760.541 -5.28799e-29 2502.92)
(10050.1 -742.614 2.60834e-14 922.177 8.40531e-15 2532.06)
(10025.1 -576.01 2.58973e-14 1071.34 9.38421e-15 2560.72)
(10010.9 -379.424 -1.28551e-28 1201.51 -5.50102e-29 2587.48)
(10011.9 -131.209 -3.40684e-14 1304.37 -4.8436e-14 2611.46)
(12722.2 -531.907 1.89861e-14 -1716.82 -2.11706e-15 2539.71)
(12499.6 -715.316 -1.66245e-14 -1699.48 -1.45433e-14 2492.34)
(12191.3 -896.538 -5.05886e-14 -1650.48 -2.46756e-14 2432.5)
(11898.7 -1042.66 0 -1540.82 0 2390.29)
(11628.4 -1150.94 1.56203e-14 -1392.25 -4.48363e-15 2362.2)
(11383.8 -1225.28 -1.25474e-15 -1218.96 -1.69312e-14 2345.73)
(11165.2 -1270.52 -4.66647e-14 -1030.47 -1.89153e-14 2338.79)
(10971.9 -1291.03 -6.14629e-14 -833.762 -2.88178e-14 2339.57)
(10802.2 -1290.4 2.93365e-14 -633.825 6.5119e-15 2346.56)
(10654.3 -1271.42 -3.03607e-14 -434.442 -1.93795e-14 2358.44)
(10526.2 -1236.13 -1.49081e-14 -238.255 -9.06359e-15 2374.15)
(10415.8 -1185.82 -2.93086e-14 -47.38 -1.69315e-14 2392.71)
(10321.2 -1121.02 -2.88424e-14 136.64 -1.57978e-14 2413.34)
(10240.6 -1041.58 -1.42093e-14 312.273 -7.36567e-15 2435.28)
(10172.7 -946.491 -2.80339e-14 478.048 -1.37377e-14 2457.87)
(10116.2 -833.658 -2.76814e-14 632.063 -1.28252e-14 2480.37)
(10070.6 -700.299 -2.62581e-14 772.294 -8.81605e-15 2502.2)
(10035.7 -543.987 -1.35141e-14 895.52 -5.64507e-15 2522.6)
(10015.6 -360.415 -1.33496e-14 996.916 -5.35833e-15 2541.35)
(10011 -129.48 -4.71664e-15 1067.27 -5.1669e-15 2556.53)
(12620.2 -258.235 1.54266e-13 -1466.61 6.78776e-14 2573.91)
(12442.6 -436.605 1.48761e-14 -1487.24 1.39312e-14 2528.15)
(12185.7 -620.289 -8.25948e-14 -1477.25 -3.54638e-14 2471.19)
(11931.8 -778.552 1.27098e-27 -1407.34 4.72979e-28 2428.72)
(11687.6 -904.93 4.90528e-14 -1294.37 5.43736e-15 2398.45)
(11459 -1000.04 0 -1151.79 0 2378.58)
(11248.6 -1066.79 1.52738e-14 -989.784 1.16477e-14 2367.43)
(11057.7 -1108.41 -6.0328e-14 -815.923 -1.48928e-14 2363.48)
(10886 -1127.87 1.42668e-27 -635.976 4.3838e-28 2365.38)
(10732.8 -1127.61 5.80152e-14 -454.304 1.3957e-14 2371.97)
(10597.2 -1109.5 -1.46258e-14 -274.347 -9.21671e-15 2382.19)
(10477.7 -1074.79 -1.87828e-28 -98.8003 -4.51626e-29 2395.14)
(10373.3 -1024.15 -1.13878e-27 69.9971 -2.95852e-28 2409.99)
(10282.7 -957.638 1.41255e-14 229.962 7.61903e-15 2426)
(10205 -874.564 -5.55043e-28 378.855 -1.62953e-28 2442.44)
(10139.5 -773.175 -5.32975e-14 514.219 -1.69338e-14 2458.56)
(10085.8 -651.209 4.45909e-28 633.215 1.66071e-28 2473.61)
(10045.6 -507.536 3.88967e-14 732.716 1.3968e-14 2487.3)
(10019.5 -338.718 -1.34007e-14 806.698 -5.86914e-15 2498.36)
(10008.9 -126.475 -7.38903e-14 846.863 -1.04652e-13 2505.18)
(12470.4 -36.0358 2.55784e-14 -1240.84 2.65918e-14 2591.45)
(12330.1 -205.089 4.72852e-14 -1286.23 2.52305e-14 2548.57)
(12117.2 -383.188 2.75819e-14 -1302.24 2.63539e-14 2495.76)
(11900.6 -543.925 1.69842e-28 -1263.13 2.45348e-29 2454.8)
(11685.7 -679.322 6.07654e-14 -1180.88 3.4618e-14 2424.18)
(11478.2 -787.688 -1.70533e-14 -1066.85 3.0689e-15 2402.61)
(11282 -869.973 -1.63744e-14 -930.595 3.07289e-15 2388.79)
(11099.5 -928.093 2.8946e-14 -779.793 2.19356e-14 2381.46)
(10931.6 -964.133 2.96712e-14 -620.53 7.73706e-15 2379.49)
(10778.8 -979.998 4.34875e-14 -457.65 1.74058e-14 2381.81)
(10640.8 -977.251 2.85296e-14 -295.084 1.8614e-14 2387.48)
(10517.2 -957.026 -1.40123e-14 -136.106 1.25944e-15 2395.63)
(10407.3 -919.992 3.57932e-16 16.4137 8.90122e-15 2405.46)
(10310.6 -866.345 1.39524e-14 159.8 7.82861e-15 2416.24)
(10226.7 -795.652 5.4747e-14 291.317 2.31435e-14 2427.24)
(10155.4 -706.526 1.37329e-14 408.019 7.04188e-15 2437.7)
(10096.7 -597.217 5.89318e-30 506.652 2.10374e-30 2446.93)
(10051 -467.174 5.33516e-14 583.123 2.32375e-14 2454.03)