/*--------------------------------*- C++ -*----------------------------------*\
| =========                 |                                                 |
| \\      /  F ield         | OpenFOAM: The Open Source CFD Toolbox           |
|  \\    /   O peration     | Version:  2.3.0                                 |
|   \\  /    A nd           | Web:      www.OpenFOAM.org                      |
|    \\/     M anipulation  |                                                 |
\*---------------------------------------------------------------------------*/
FoamFile
{
    version     2.0;
    format      ascii;
    class       volScalarField;
    location    "30";
    object      sigmaEq;
}
// * * * * * * * * * * * * * * * * * * * * * * * * * * * * * * * * * * * * * //

dimensions      [1 -1 -2 0 0 0 0];

internalField   nonuniform List<scalar> 
1000
(
10499.8
11414.8
12790.9
13669.5
14118
14280.4
14263.9
14140
13962
13720.2
13258.5
12916.6
13579.2
14101.9
14360.5
14413.8
14330.9
14165.3
13959.5
13691.3
15923.5
14412.7
14308.2
14410.9
14437.5
14359
14200.4
13992.4
13764.4
13495.8
18423.8
15842.3
14967.3
14611.3
14374.5
14145.3
13902.3
13649.8
13400.3
13132.3
20699.3
17159.8
15547.6
14721.7
14202.7
13808.7
13472.9
13171.4
12899
12631.1
22693.8
18321.6
16041.7
14763.1
13959.1
13393.5
12958.9
12604.7
12307.5
12039
24361.8
19295.4
16443.5
14757.9
13685.4
12952.1
12418.3
12010.1
11687.4
11417.2
25657.1
20051.5
16749.9
14728.8
13424.9
12541.7
11917.1
11458.6
11112
10839.3
26533.2
20569.1
16956.2
14692.6
13216
12218.1
11522.7
11024.4
10659.4
10385.3
26945.4
20842.1
17042.5
14636.7
13062.1
12000.1
11265.3
10745.7
10372.3
10101.7
9282.52
5931.12
4123.35
3323.36
3118.12
3245.86
3540.1
3905.53
4291.86
4674.07
9015.85
5843.49
4531.44
4148
4156.01
4329.43
4578.49
4861.87
5156.4
5449.17
8165.93
5733.12
5236.41
5364.38
5598.96
5829.77
6045.64
6250.29
6445.66
6636.06
6897.78
5646.52
6114.18
6701.76
7123.23
7406.39
7603.07
7749.04
7864.57
7967.98
5285.91
5685.38
7082.15
8037.37
8602.94
8926.44
9108.05
9207.37
9258.35
9289.37
3464.54
5967.42
8088.95
9305.55
9970.97
10318.8
10483.5
10542
10538.4
10507.7
1962.39
6557.81
9101.16
10466.3
11185.2
11538.4
11680.9
11700.9
11649.3
11565
2708.53
7461.34
10090.2
11492.9
12217.8
12556.4
12670.4
12652.5
12558
12426
5034.98
8617.26
11039.7
12370.2
13053
13356.5
13435.5
13381.4
13250.4
13077.6
7721.87
9961.96
11943.6
13095.5
13686
13931.8
13969.2
13882.5
13724.3
13546.6
5028.36
5354.62
5650
5916.17
6154.17
6365.09
6549.83
6709.25
6843.86
6954.08
7039.8
7100.8
7136.19
7145.05
7125.72
7076.3
6994.3
6877.41
6726.68
6567.83
5681.77
5874.95
6069.02
6256.69
6432.88
6594.45
6739.46
6866.54
6974.75
7063.19
7130.98
7177.1
7200.35
7199.27
7172.31
7117.53
7032.71
6914.59
6757.55
6563.43
6723.48
6751.42
6803.36
6871.5
6948.04
7026.91
7103.34
7173.49
7234.32
7283.23
7317.99
7336.51
7336.77
7316.77
7274.38
7207.23
7112.51
6985.68
6820.59
6614.13
7924.06
7797
7706.24
7647.78
7613.39
7596.18
7590.07
7589.68
7590.39
7588.18
7579.53
7561.28
7530.53
7484.47
7420.42
7335.41
7225.95
7087.51
6915.5
6697.2
9136.46
8881.79
8665.49
8491.11
8351.04
8238.76
8148.12
8073.32
8009.01
7950.31
7892.83
7832.58
7765.91
7689.43
7599.82
7493.71
7367.59
7217.26
7039.42
6809.53
10269.8
9921.37
9604.17
9332.83
9100.89
8902.89
8733.54
8587.39
8459.16
8343.73
8236.31
8132.46
8028.08
7919.31
7802.63
7674.53
7531.51
7369.94
7187.71
6949.59
11266.6
10860.6
10470.6
10125
9819.24
9549.31
9311.56
9101.49
8914.55
8745.79
8590.64
8444.42
8303.04
8162.44
8019.08
7869.37
7710.35
7538.95
7354.06
7114.95
12090.5
11663.6
11229.4
10834
10473.7
10148.2
9854.54
9590.97
9352.88
9137.12
8938.51
8753.69
8577.73
8407.64
8239.1
8069.8
7896.17
7717.02
7531.47
7303.82
12718.8
12300.8
11849.9
11426.9
11033.2
10669
10335.3
10030.2
9752.13
9497.24
9262.8
9044.38
8839.11
8642.76
8453.03
8266.36
8081.62
7896.78
7717.5
7513.8
13165
12757.4
12304.1
11874.3
11467.7
11085.1
10728.2
10396.9
10090.8
9807.88
9545.96
9301.92
9073.14
8856.51
8649.85
8450.75
8258.46
8074.45
7905.69
7739.64
13489.8
13000.6
12552
12128.3
11723.5
11339.4
10976.7
10636.8
10319.1
10023.5
9747.53
9490.13
9248.41
9021.13
8805.85
8602.26
8409.58
8231.43
8076.92
7962.02
13190.2
12908.3
12543.3
12169.8
11799.6
11439.2
11092.4
10761.9
10448.9
10154
9876.64
9616.06
9371.22
9141.12
8925.2
8723.27
8536.4
8369.48
8230.98
8136.36
12883.8
12696.5
12416.2
12103.9
11778.1
11450.6
11128.3
10815.8
10515.6
10229.4
9957.99
9701.52
9459.97
9233.41
9022.19
8827.27
8650.82
8497.47
8377.52
8302.97
12571.7
12441.9
12226
11970.7
11691.3
11400.6
11107.5
10817.8
10535.6
10263.4
10003
9755.57
9522.09
9303.5
9101.09
8916.59
8752.93
8616.3
8514.54
8458.59
12253.3
12166.3
11999.1
11792
11556.1
11302.7
11040.7
10776.9
10515.9
10261.4
10015.9
9781.53
9559.93
9352.92
9162.54
8991.32
8842.89
8722.53
8640.04
8603.4
11934.3
11880.2
11752
11585
11387.7
11169.5
10938.6
10701.7
10464
10229.6
10001.8
9783.22
9576.37
9383.66
9207.79
9051.76
8919.46
8817.5
8753.02
8733.94
11619.8
11591.7
11495.2
11361.6
11198
11011.9
10810.6
10600.6
10386.9
10174
9965.5
9764.71
9574.56
9398.05
9238.34
9098.9
8983.99
8898.9
8852.89
8851.18
11314.5
11306.2
11235.7
11130.4
10995.9
10838.7
10665.2
10481
10291.2
10100.3
9912.01
9730.03
9557.73
9398.52
9255.93
9133.67
9035.97
8969.18
8939.58
8952.51
11021.3
11028.2
10979
10897.4
10788.3
10657.1
10509.1
10349.5
10183
10013.8
9845.91
9683.11
9529.07
9387.52
9262.3
9157.42
9077.23
9026.45
9013.24
9040.05
10741.9
10760.1
10728.4
10667.2
10580.4
10472.4
10348
10211.5
10067.2
9919.3
9771.5
9627.66
9491.65
9367.48
9259.27
9171.16
9107.35
9073.51
9074.27
9112.15
10476.8
10503.7
10486.7
10443
10375.9
10289
10186.3
10071.5
9948.62
9821.14
9692.77
9567.26
9448.55
9340.84
9248.57
9176.21
9128.18
9108.36
9123.25
9172.08
10226.3
10259.9
10255.4
10227.1
10177.7
10110.1
10027.7
9933.59
9831.02
9723.22
9613.49
9505.4
9402.85
9310.19
9232.18
9173.64
9139.16
9133.96
9160.74
9218.82
9989.59
10028.9
10035.4
10021.1
9988.02
9938.62
9875.4
9800.99
9717.99
9629.13
9537.26
9445.63
9357.89
9278.44
9212.31
9165.1
9142.3
9148.01
9187.49
9256.41
9766.06
9810.58
9827.47
9826.36
9808.89
9776.82
9732.13
9676.75
9612.75
9542.24
9467.62
9391.55
9317.37
9249.12
9192.12
9152.58
9137.39
9153.66
9203.9
9283.72
9554.9
9605.33
9632.52
9644.39
9642.18
9627.13
9600.55
9563.79
9518.32
9465.75
9407.91
9346.9
9285.35
9226.73
9175.93
9139.89
9127.71
9148.27
9209.97
9304.67
9356.07
9413.39
9451.52
9476.9
9490.21
9492.24
9483.52
9465.02
9437.6
9402.59
9361.2
9315.14
9266.05
9216.51
9170.05
9133.14
9116.1
9135.54
9204.37
9317.26
9169.69
9235.71
9286.26
9326.32
9356.05
9375.32
9384.3
9383.39
9373.38
9355.18
9329.96
9298.81
9262.95
9223.54
9182.21
9142.5
9113.92
9116.63
9183.76
9324.77
8996.79
9073.51
9139.36
9196.44
9243.81
9280.49
9306.5
9322.04
9328.06
9325.39
9315.35
9298.88
9277.15
9250.48
9218.85
9181.03
9139.44
9112.74
9151.74
9323.24
8837.33
8929.64
9016.23
9093.67
9159.61
9213.26
9254.65
9284.57
9304.01
9314.43
9317.26
9314.08
9306.19
9294.75
9279.41
9257.06
9222
9173.96
9154.63
9310.25
8686.87
8815.04
8929.83
9029.21
9112.8
9181.01
9234.64
9275.05
9303.82
9323
9334.64
9341.08
9344.45
9346.98
9350.77
9358.35
9370.26
9381.09
9369.88
9237.86
9897.08
10156.2
10581.2
11127.1
11719.5
12290.7
12784.3
13158.1
13384.1
13446.6
9728.5
9951.71
10330.7
10826.4
11375.9
11921.1
12412.9
12813.4
13095.5
13204.8
9588.28
9780.5
10113.5
10555.6
11053.3
11557.2
12024.9
12422.8
12725.1
12869.6
9470.67
9636.83
9928.48
10320.7
10768.7
11230.4
11669.1
12055.1
12362.7
12533.7
9369.3
9513.18
9767.88
10114.2
10514.8
10934
11340
11706.6
12009.3
12196.7
9278.9
9403.51
9625.57
9930.22
10286.5
10664.1
11035.8
11378.3
11669
11863.8
9195.09
9303.16
9496.66
9764.09
10079.7
10417.9
10755.2
11071.1
11345.2
11539.6
9114.5
9208.3
9377
9611.57
9890.53
10192.2
10496.3
10784.9
11039.7
11228.7
9034.1
9115.79
9263.09
9468.94
9715.29
9983.69
10256.7
10518.5
10753.1
10932.7
8951.46
9022.79
9151.77
9332.76
9550.47
9789.14
10033.7
10270.2
10484.5
10653.1
8864.06
8926.78
9040.19
9199.88
9392.73
9605.23
9824.22
10037.4
10232.4
10389.2
8769.74
8825.19
8925.57
9067.23
9238.86
9428.75
9625.34
9817.75
9995.03
10140.5
8665.96
8715.62
8805.29
8931.93
9085.74
9256.49
9434
9608.54
9770.5
9905.49
8550.38
8595.49
8676.54
8791
8930.2
9085.33
9247.31
9407.4
9556.69
9683.24
8420.15
8462.14
8536.59
8641.4
8769.08
8912.09
9062.33
9211.65
9351.62
9471.96
8272.47
8312.58
8382.26
8479.74
8598.94
8733.39
8875.97
9018.7
9153.38
9270.91
8103.7
8143.63
8209.91
8302.25
8416.04
8545.78
8684.91
8825.83
8960.3
9079.33
7910.93
7950.99
8014.56
8104.24
8216.32
8345.6
8485.78
8629.9
8769.94
8897.13
7695.83
7729.4
7790.84
7881.82
7997.07
8130.54
8276.06
8427.37
8577.77
8721.91
7485.18
7479.46
7538.54
7629.71
7745.22
7879.91
8028.78
8186.83
8350.67
8523.5
)
;

boundaryField
{
    left
    {
        type            symmetryPlane;
    }
    right
    {
        type            calculated;
        value           nonuniform List<scalar> 
30
(
6560.87
6557.66
6619.2
6716.23
6842.37
6993.49
7165.06
7353.52
7553.99
7762.61
7955.32
8131.2
8298.22
8455.15
8600.37
8732.38
8850.1
8952.92
9040.82
9114.36
9174.55
9222.83
9260.79
9289.98
9311.7
9327.03
9337.52
9342.26
9325.96
9170.61
)
;
    }
    down
    {
        type            symmetryPlane;
    }
    up
    {
        type            calculated;
        value           nonuniform List<scalar> 
30
(
7484.68
7478.98
7542.81
7640.03
7761.39
7900.5
8051.29
8207.89
8366.31
8530.17
8679.82
8810.25
8926.47
9026.66
9110.87
9179.59
9233.71
9274.56
9303.82
9323.46
9335.64
9342.63
9346.68
9349.9
9354.65
9364.11
9379.87
9395.49
9381.26
9192.17
)
;
    }
    hole
    {
        type            calculated;
        value           nonuniform List<scalar> 
20
(
10507
13378.5
16138.4
18722.8
21070.8
23128
24847.4
26182.3
27083.5
27508.3
9465.53
9188.11
8294.27
6948.55
5206.46
3125.99
768.938
1911.49
4695.09
7589.11
)
;
    }
    frontAndBack
    {
        type            empty;
    }
}


// ************************************************************************* //
