/*--------------------------------*- C++ -*----------------------------------*\
| =========                 |                                                 |
| \\      /  F ield         | OpenFOAM: The Open Source CFD Toolbox           |
|  \\    /   O peration     | Version:  2.3.0                                 |
|   \\  /    A nd           | Web:      www.OpenFOAM.org                      |
|    \\/     M anipulation  |                                                 |
\*---------------------------------------------------------------------------*/
FoamFile
{
    version     2.0;
    format      ascii;
    class       volScalarField;
    location    "0.01";
    object      alpha.water;
}
// * * * * * * * * * * * * * * * * * * * * * * * * * * * * * * * * * * * * * //

dimensions      [0 0 0 0 0 0 0];

internalField   nonuniform List<scalar> 
725
(
1
1
1
0.999979
1.00001
1
1
1
0.999991
1.00002
1
1
1
1
1.00003
1
1
1
1.00002
1
1
1
1
1.00002
1
0.92889
0.0381118
0.00115814
0.00115621
0.00115614
0.0489381
0.817797
0.999929
0.999928
0.999883
0.999821
0.999608
0.999602
0.99976
0.99986
0.999907
0.999942
0.999967
0.999983
0.999991
0.999995
0.999997
0.999998
0.999998
0.999999
0.999999
0.999999
1
1
1
1
1
1
1
1
1
1
1
1
1
1
1
1
1
0.999999
0.897125
0.0550434
0.00120098
0.00115858
0.0011562
0.0285562
0.786091
0.999928
0.999927
0.999861
0.999845
0.99967
0.999366
0.99943
0.999596
0.999684
0.999749
0.999794
0.999822
0.999835
0.999843
0.999851
0.999861
0.999874
0.999888
0.999903
0.99992
0.999935
0.99995
0.999962
0.999971
0.999978
0.999983
0.999987
0.99999
0.999994
0.999996
0.999997
0.999998
0.999998
0.999998
0.999999
0.999999
1
1
0.867268
0.114786
0.00143855
0.00117421
0.00115913
0.00117462
0.742248
0.999926
0.999926
0.99991
0.999959
0.999836
0.999281
0.998986
0.999201
0.999313
0.999458
0.999562
0.999804
0.999866
0.999842
0.999831
0.999824
0.99982
0.999818
0.999817
0.999817
0.999819
0.999821
0.999826
0.999831
0.999836
0.999843
0.999851
0.999862
0.999877
0.999892
0.999907
0.99992
0.999933
0.999945
0.999957
0.999967
0.999976
0.999983
0.872191
0.0855105
0.00123682
0.00125914
0.00117558
0.0135562
0.739485
0.997886
0.981823
0.996735
0.999958
1.00004
0.999914
0.99826
0.998009
0.998584
0.999002
0.999302
0.99952
0.999653
0.999693
0.999772
0.999885
0.999855
0.99984
0.99983
0.999824
0.99982
0.999815
0.99981
0.999804
0.999797
0.99979
0.999782
0.999777
0.999773
0.999772
0.999774
0.999778
0.999786
0.999798
0.999813
0.999832
0.999852
0.999872
0.879658
0.110306
0.121084
0.00133096
0.00125327
0.00136308
0.56018
0.992474
0.962495
0.982865
0.999751
0.999855
0.999877
0.999657
0.998044
0.997888
0.998333
0.998902
0.9993
0.999527
0.999641
0.999705
0.99974
0.99976
0.99977
0.999773
0.999773
0.999858
0.999847
0.999833
0.999824
0.999815
0.999805
0.999794
0.999782
0.999769
0.999756
0.999744
0.999733
0.999726
0.999722
0.999723
0.999728
0.999739
0.999753
0.746084
0.170078
0.31825
0.0013196
0.00419498
0.0912409
0.681982
0.984459
0.962653
0.959398
0.998832
0.999576
0.999988
0.99958
0.998274
0.997889
0.997951
0.998337
0.998929
0.999318
0.999532
0.999649
0.999715
0.999749
0.999769
0.999782
0.99979
0.999796
0.999807
0.999814
0.999816
0.999814
0.999807
0.999797
0.999784
0.99977
0.999755
0.99974
0.999725
0.999713
0.999704
0.999699
0.9997
0.999706
0.999718
0.70322
0.204479
0.343145
0.00160798
0.0125718
0.0444454
0.583923
0.978293
0.978574
0.959339
0.998102
0.999866
0.999881
0.999759
0.999662
0.999043
0.997963
0.998067
0.999286
0.999598
0.999685
0.999732
0.999759
0.999776
0.999785
0.999791
0.999798
0.999805
0.99981
0.999813
0.999813
0.999811
0.999804
0.999793
0.99978
0.999765
0.99975
0.999734
0.999719
0.999706
0.999696
0.99969
0.99969
0.999695
0.999705
0.496003
0.262887
0.353938
0.0026521
0.00455778
0.15251
0.382304
0.953984
0.988436
0.961447
0.998809
0.999919
0.99985
0.999791
0.999548
0.99805
0.997971
0.998398
0.998913
0.99938
0.999592
0.999688
0.999736
0.999761
0.999778
0.999791
0.999801
0.99981
0.999817
0.99982
0.999819
0.999814
0.999805
0.999793
0.999778
0.999762
0.999746
0.99973
0.999714
0.9997
0.99969
0.999685
0.999684
0.999689
0.9997
0.478539
0.285474
0.356676
0.0117447
0.00348768
0.115426
0.277034
0.920091
0.991473
0.99045
0.998566
0.999202
0.999724
0.999008
0.99863
0.998028
0.998116
0.998498
0.998953
0.999341
0.999578
0.999702
0.999762
0.99979
0.999802
0.999809
0.999815
0.99982
0.999822
0.999822
0.999819
0.999813
0.999802
0.999788
0.999772
0.999756
0.999739
0.999723
0.999708
0.999695
0.999686
0.999681
0.999681
0.999687
0.999698
0.949914
0.358552
0.356608
0.0436677
0.0033555
0.00860797
0.124158
0.809677
0.996607
0.99153
0.998605
0.998691
0.999927
0.999133
0.998274
0.998028
0.998374
0.998754
0.999086
0.999363
0.999576
0.999699
0.99976
0.999789
0.999804
0.999814
0.999821
0.999828
0.999829
0.999827
0.999821
0.999812
0.999799
0.999782
0.999764
0.999747
0.999731
0.999716
0.999702
0.999691
0.999684
0.999681
0.999683
0.999691
0.999704
1
1
1
1.00006
1.00002
1
1
1
1.00001
1.00007
1
1
1
0.999999
1.00005
1
1
1
0.999989
1.00001
1
1
1
0.999978
0.999979
1
0.586255
0.341476
0.0526067
0.00297127
0.00223126
0.144285
0.846443
0.997191
0.9972
0.99896
0.999683
0.999817
1.00008
0.999248
0.998658
0.99877
0.999065
0.999342
0.999545
0.99968
0.999756
0.999794
0.999809
0.99981
0.999833
0.999885
0.999852
0.999847
0.999837
0.999825
0.99981
0.999792
0.999772
0.999752
0.999734
0.999718
0.999704
0.999694
0.999687
0.999685
0.999687
0.999695
0.999708
0.999726
1
0.948602
0.581278
0.059967
0.00221446
0.00185388
0.0688299
0.755249
0.997049
0.999867
0.997879
0.999646
0.999811
0.999876
0.999636
0.998916
0.998975
0.999431
0.999943
0.999924
0.999909
0.999896
0.999887
0.999879
0.99987
0.999857
0.999841
0.999824
0.999806
0.999787
0.999768
0.999748
0.999727
0.999709
0.999694
0.999681
0.999671
0.999669
0.999675
0.999688
0.999707
0.999729
0.999755
0.999784
0.999814
1
0.999957
0.679528
0.0571184
0.00183448
0.00183664
0.0538313
0.649392
0.999865
0.999867
0.999807
0.999817
0.999859
0.999733
0.999499
0.99936
0.99946
0.999626
0.99975
0.99982
0.999849
0.999858
0.999854
0.999842
0.999827
0.999809
0.999791
0.999774
0.999755
0.99974
0.999731
0.999731
0.99974
0.999757
0.999776
0.999795
0.999814
0.999839
0.999868
0.999896
0.999919
0.999938
0.999954
0.999967
0.999976
1
1
0.780872
0.0650752
0.0018343
0.00182291
0.0375736
0.639727
0.99985
0.99884
0.999805
0.999541
0.999528
0.999488
0.999546
0.99968
0.999785
0.999827
0.999832
0.999826
0.999818
0.999812
0.99981
0.999813
0.999823
0.999838
0.999857
0.999876
0.999894
0.999911
0.999928
0.999947
0.999964
0.999976
0.999983
0.999987
0.99999
0.999993
0.999997
0.999998
0.999999
1
1
1
1
1
1
0.782526
0.0781695
0.00182009
0.00189204
0.0171298
0.596826
0.999839
0.996521
0.999678
0.999308
0.999423
0.99966
0.999816
0.999895
0.999934
0.999956
0.999969
0.999977
0.999984
0.999989
0.999993
0.999996
0.999997
0.999997
0.999998
0.999998
0.999998
0.999998
0.999999
1
1
1
1
1
1
1
1
1
1
1
1
1
0.999999
)
;

boundaryField
{
    AirInlet
    {
        type            fixedValue;
        value           uniform 0;
    }
    WaterInlet
    {
        type            fixedValue;
        value           uniform 1;
    }
    ChannelWall
    {
        type            zeroGradient;
    }
    Outlet
    {
        type            inletOutlet;
        inletValue      uniform 0;
        value           nonuniform List<scalar> 
15
(
0.999999
1
0.999983
0.999872
0.999753
0.999718
0.999705
0.9997
0.999698
0.999704
0.999726
0.999814
0.999976
1
0.999999
)
;
    }
    FrontAndBack
    {
        type            empty;
    }
}


// ************************************************************************* //
