/*--------------------------------*- C++ -*----------------------------------*\
| =========                 |                                                 |
| \\      /  F ield         | OpenFOAM: The Open Source CFD Toolbox           |
|  \\    /   O peration     | Version:  2.3.0                                 |
|   \\  /    A nd           | Web:      www.OpenFOAM.org                      |
|    \\/     M anipulation  |                                                 |
\*---------------------------------------------------------------------------*/
FoamFile
{
    version     2.0;
    format      ascii;
    class       volScalarField;
    location    "0.01";
    object      alpha.water;
}
// * * * * * * * * * * * * * * * * * * * * * * * * * * * * * * * * * * * * * //

dimensions      [0 0 0 0 0 0 0];

internalField   nonuniform List<scalar> 
725
(
1
1
1
1.00002
0.996092
1
1
1
1
1
1
1
1
1
1
1
1
1
1.00007
1.00001
1
1
1
1.00002
0.980916
0.996077
0.995896
0.982589
0.979706
0.991067
1.00001
1.00006
0.994936
0.983782
0.983763
0.996121
0.999108
0.999211
0.99898
0.999315
0.99945
0.999502
0.999534
0.999584
0.999625
0.999625
0.999579
0.999516
0.999475
0.99948
0.999525
0.999589
0.999628
0.999649
0.99968
0.999702
0.999715
0.999724
0.999733
0.999742
0.999752
0.999762
0.999773
0.999791
0.999816
0.999845
0.999875
0.999902
0.99983
0.99951
0.992694
0.995179
0.981735
0.974692
0.992684
0.999997
1.00008
1.00003
0.991939
0.983766
0.994247
0.999129
0.997275
0.997276
0.998491
0.999876
0.999893
0.999824
0.999763
0.999724
0.999682
0.99963
0.999604
0.99961
0.999654
0.999721
0.999741
0.999773
0.999792
0.999782
0.999804
0.999793
0.999772
0.999754
0.999738
0.999727
0.999727
0.999739
0.999748
0.999752
0.999754
0.999762
0.999767
0.999758
0.999748
0.967903
0.982894
0.959287
0.969458
0.980813
0.992297
1.00001
1.00002
0.999273
0.984386
0.988983
0.999261
0.997493
0.998376
0.999504
0.999875
0.999899
0.999904
0.999901
0.999814
0.999769
0.999731
0.999698
0.999664
0.999616
0.99961
0.999629
0.999734
0.99979
0.999897
0.999913
0.999914
0.999775
0.999746
0.99974
0.999745
0.999751
0.999758
0.999769
0.999783
0.999788
0.999786
0.999781
0.999772
0.999763
0.843451
0.961073
0.95809
0.986218
0.990026
0.986733
0.988061
0.999156
0.999674
0.992069
0.99463
0.999399
0.999405
0.999444
0.999483
0.988856
0.961621
0.984067
0.998842
0.999819
0.999818
0.999806
0.999396
0.999663
0.999632
0.999289
0.999445
0.999895
0.999959
0.999965
0.995872
0.991169
0.996508
0.999613
0.999928
0.999872
0.999802
0.999761
0.999769
0.999881
0.999898
0.999867
0.999835
0.999814
0.999801
0.313654
0.906603
0.972165
0.999022
0.999143
0.996165
0.991768
0.997185
0.999013
0.998425
0.993368
0.994511
0.999069
0.999427
0.984406
0.715101
0.51339
0.6899
0.94658
0.999839
0.999872
0.999869
0.996476
0.991373
0.991331
0.99402
0.999433
0.999966
0.999966
0.999965
0.980834
0.975035
0.982595
0.996531
0.999931
0.999775
0.999652
0.999697
0.99982
0.999933
0.999998
0.999999
0.999934
0.999898
0.999883
0.130946
0.85011
0.990017
0.999166
0.999196
0.999148
0.998505
0.997721
0.994199
0.982668
0.979802
0.98062
0.998681
0.999415
0.891302
0.38102
0.281298
0.436178
0.840651
0.999641
0.999857
0.999333
0.991663
0.991412
0.991383
0.994952
0.991775
0.989344
0.984488
0.999736
0.983155
0.974794
0.974603
0.974797
0.998106
0.999781
0.999058
0.999764
0.999933
0.989935
0.986324
0.998488
0.9999
0.999848
0.999863
0.145141
0.780305
0.977417
0.999265
0.999295
0.999191
0.999162
0.996867
0.986595
0.979682
0.979683
0.985377
0.999164
0.999499
0.859106
0.276672
0.2314
0.334793
0.780638
0.995362
0.999751
0.996181
0.991688
0.994345
0.994069
0.993273
0.991276
0.991421
0.983632
0.983705
0.988878
0.974552
0.974577
0.974602
0.998016
0.997471
0.997814
0.999884
1
0.97075
0.956242
0.990821
0.999801
0.999758
0.9998
0.140269
0.714093
0.982661
0.999411
0.999457
0.998748
0.999062
0.985322
0.979693
0.979672
0.979675
0.992899
0.999861
0.999754
0.77829
0.191176
0.187008
0.20379
0.676528
0.987436
0.999648
0.998718
0.99182
0.994362
0.99436
0.990622
0.991677
0.998556
0.987698
0.98268
0.989031
0.982353
0.975348
0.981215
0.984143
0.989121
0.997002
0.999976
1
0.95626
0.930689
0.978588
0.999608
0.999612
0.999694
0.0509803
0.6923
0.988425
0.999642
0.999582
0.999547
0.992747
0.979741
0.979675
0.979677
0.990781
0.999863
0.999865
0.995398
0.627203
0.141237
0.15076
0.0913835
0.513983
0.981579
0.999949
1.00003
0.995749
0.991362
0.994363
0.990544
0.999512
0.999746
0.999769
0.982687
0.989099
0.991121
0.994342
0.994116
0.982738
0.994142
0.99897
0.999681
0.999982
0.942797
0.921842
0.971934
0.999572
0.999527
0.999603
0.10376
0.773385
0.989295
0.999779
0.999634
0.999773
0.99753
0.995826
0.97974
0.979675
0.98202
0.99919
0.99986
0.985867
0.466449
0.086296
0.117102
0.0398015
0.390217
0.982235
1.00001
1.00001
0.997951
0.989187
0.990539
0.990506
0.999003
1.00019
1.00001
0.984762
0.981148
0.976404
0.978836
0.994334
0.988766
0.998105
0.998987
0.999927
0.99867
0.928682
0.921722
0.964538
0.999162
0.999236
0.999483
1
1
1
1.00002
0.963102
1
1
1
1.00003
1
1
1
1
1.00002
1
1
1
1
1.00006
1
1
1
1
1.00001
0.975517
0.20816
0.733005
0.999747
0.999765
0.999746
0.999654
0.999861
1
0.999396
0.986523
0.981889
0.987989
0.999917
0.95333
0.28254
0.0165921
0.0108224
0.0107111
0.238889
0.968354
0.999984
0.999977
0.99591
0.989057
0.98904
0.990348
0.999228
1.00001
1.00004
1.00001
0.978482
0.976376
0.976378
0.985394
0.999743
0.999866
0.999856
0.999987
0.976867
0.921726
0.921696
0.946177
0.996337
0.999891
0.999857
0.505467
0.707574
0.982148
1
1.00001
1.00003
0.999962
1.00001
1
0.999298
0.990515
0.992084
0.99998
0.869828
0.114349
0.00914762
0.00875229
0.00892774
0.0522897
0.822926
0.999934
0.999971
0.994377
0.989046
0.989042
0.991757
0.999392
0.999696
0.999866
0.999872
0.997016
0.979721
0.988969
0.998951
0.999805
0.999799
0.999919
0.999988
0.940225
0.921697
0.921686
0.928721
0.990846
0.999909
0.9999
0.645469
0.748588
0.97058
0.991633
1.00001
0.999831
0.999874
0.9999
1.00001
1.00001
1
0.999947
0.999984
0.701528
0.0202082
0.00880885
0.00869158
0.00878828
0.00953412
0.647015
0.999874
0.999896
0.999114
0.995516
0.995012
0.996834
0.996621
0.996606
0.998667
0.999871
0.999581
0.998336
0.999641
0.999642
0.999712
0.99978
0.999993
0.999115
0.922561
0.921686
0.921683
0.924832
0.990389
0.999888
0.999853
0.703854
0.83039
0.979633
0.985868
0.999703
0.99986
0.999917
0.999948
0.999972
0.999915
0.999853
0.999901
0.999986
0.619985
0.0169811
0.00889619
0.00886201
0.00886957
0.00884608
0.547656
0.999167
0.999486
0.999469
0.998473
0.995401
0.995206
0.995207
0.997293
0.999707
0.999632
0.999568
0.999462
0.99956
0.999592
0.999666
0.999813
0.999997
0.98137
0.921709
0.921692
0.921686
0.921692
0.986247
0.999855
0.999837
0.906706
0.947988
0.981966
0.994257
0.999984
0.999972
0.999985
0.999996
0.999982
0.999957
0.99995
0.99997
0.999986
0.53836
0.0088951
0.00888723
0.00889597
0.00888059
0.00886928
0.474382
0.998909
0.998827
0.998085
0.997766
0.998359
0.999012
0.999516
0.999728
0.999802
0.999804
0.999838
0.999876
0.999926
0.999934
0.999931
0.999974
0.999997
0.963797
0.921699
0.921694
0.92169
0.926918
0.99219
0.999693
0.999644
)
;

boundaryField
{
    AirInlet
    {
        type            fixedValue;
        value           uniform 0;
    }
    WaterInlet
    {
        type            fixedValue;
        value           uniform 1;
    }
    ChannelWall
    {
        type            zeroGradient;
    }
    Outlet
    {
        type            inletOutlet;
        inletValue      uniform 0;
        value           nonuniform List<scalar> 
15
(
0.99951
0.999748
0.999763
0.999801
0.999883
0.999863
0.9998
0.999694
0.999603
0.999483
0.999857
0.9999
0.999853
0.999837
0.999644
)
;
    }
    FrontAndBack
    {
        type            empty;
    }
}


// ************************************************************************* //
