/*--------------------------------*- C++ -*----------------------------------*\
| =========                 |                                                 |
| \\      /  F ield         | OpenFOAM: The Open Source CFD Toolbox           |
|  \\    /   O peration     | Version:  2.3.0                                 |
|   \\  /    A nd           | Web:      www.OpenFOAM.org                      |
|    \\/     M anipulation  |                                                 |
\*---------------------------------------------------------------------------*/
FoamFile
{
    version     2.0;
    format      ascii;
    class       volScalarField;
    location    "0.01";
    object      p;
}
// * * * * * * * * * * * * * * * * * * * * * * * * * * * * * * * * * * * * * //

dimensions      [1 -1 -2 0 0 0 0];

internalField   nonuniform List<scalar> 
725
(
99.8304
45.5225
62.0203
14.7744
50.2827
93.5674
46.1272
61.5057
12.3925
39.3834
90.7641
46.1914
60.7308
11.8016
34.1835
90.9451
45.5874
58.9986
17.6536
58.0572
94.2072
44.195
55.8878
12.0384
31.6767
38.1242
65.0136
168.483
131.658
126.025
134.671
554.356
224.695
131.313
80.2552
45.7406
39.4418
42.3043
48.0981
49.4339
44.7408
43.4133
41.7824
39.5157
36.816
34.8466
33.2288
31.6029
30.1312
28.7623
27.3753
25.9301
24.4211
22.9746
21.5999
20.192
18.7912
17.4327
16.0886
14.728
13.3367
11.918
10.5156
9.13529
7.76546
6.391
4.99623
3.56254
2.1322
0.705896
-11.3412
15.2523
161.647
130.5
128.25
137.012
316.924
190.314
119.776
74.2539
43.0479
39.13
44.0764
47.8482
49.6296
44.0935
42.6396
41.0011
38.8446
36.1778
34.2148
32.6182
31.0056
29.5652
28.2433
26.9103
25.5249
24.0515
22.6872
21.3675
19.9988
18.6232
17.2801
15.9465
14.5968
13.2205
11.813
10.4163
9.0368
7.66608
6.29176
4.90323
3.46981
2.04031
0.617329
-70.6544
-32.1562
154.309
118.245
128.189
132.495
244.675
143.954
100.219
63.25
34.9424
37.1573
45.258
50.4592
51.873
43.9735
42.736
41.042
38.8161
36.0711
34.1219
32.5663
30.8983
29.5344
28.1722
26.8296
25.4447
23.9075
22.5898
21.2883
19.9145
18.5362
17.1951
15.8614
14.5089
13.1321
11.7217
10.3264
8.94743
7.57643
6.20142
4.81957
3.37848
1.9498
0.529626
-174.252
75.6025
169.261
108.815
127.982
113.831
-232.848
17.3981
13.2394
46.0056
20.4135
34.6128
45.2308
57.5126
58.7053
43.421
42.9648
41.1145
38.7493
35.7258
34.0041
32.5316
30.8558
29.4165
28.0797
26.7558
25.3918
23.7159
22.5053
21.2662
19.9613
18.5585
17.1727
15.8085
14.4396
13.055
11.6322
10.2374
8.86083
7.49199
6.11693
4.74551
3.28708
1.85532
0.429393
-626.937
-63.8245
-50.2723
100.261
121.821
104.095
799.465
24.2098
113.345
37.3948
9.18481
28.2701
45.8516
53.7064
63.1813
48.0198
43.2355
41.6254
40.1747
36.1632
34.2175
32.9768
31.4995
29.9461
28.5315
27.1705
25.728
23.4438
22.4561
21.248
19.8593
18.4453
17.0645
15.7129
14.3535
12.9769
11.5509
10.1616
8.78661
7.41798
6.0385
4.68648
3.19533
1.76371
0.326622
-1424.07
-335.395
136.028
98.0034
115.052
-947.624
1457.35
-177.658
98.0243
184.366
15.0752
25.0756
46.8254
56.5607
67.5342
44.7405
44.3639
43.2628
38.74
36.3693
34.5119
33.286
31.5385
29.938
28.4914
27.1289
25.7081
25.523
23.1746
21.4288
19.8132
18.3855
17.0257
15.6889
14.3195
12.9357
11.4803
10.1019
8.7352
7.37517
5.98843
4.67255
3.13032
1.71461
0.269398
-1715.47
-372.599
258.608
94.1526
231.126
-223.01
259.359
-314.552
133.215
186.314
20.1576
33.2563
46.4205
62.3746
76.4582
83.6969
44.0806
52.5012
49.3123
45.4243
39.024
34.1517
31.5231
29.9063
28.4698
27.1216
25.7085
25.1099
23.0583
21.4557
19.8996
18.4588
17.0084
15.6527
14.2842
12.9072
11.4492
10.0786
8.71688
7.36011
5.97159
4.6674
3.1079
1.69757
0.24859
4068.51
-273.265
383.761
82.4766
144.862
1886.07
-106.657
-545.382
165.335
109.301
23.867
36.5387
46.2916
64.1079
74.2628
47.8414
43.4875
41.0937
40.6716
38.0445
35.8795
33.0211
31.4286
29.8773
28.4539
27.111
25.717
24.973
22.8812
21.2428
19.696
18.3869
16.9863
15.6354
14.2649
12.8874
11.4216
10.0549
8.69733
7.34352
5.95511
4.66122
3.08692
1.6903
0.24285
4496.78
-221.316
417.974
-6.85659
165.166
639.54
-228.523
-785.708
193.684
103.5
28.8848
33.9369
50.2636
70.6798
48.8904
48.145
42.9371
40.7873
39.7071
38.8866
36.0502
32.9416
31.3968
29.8764
28.4402
27.0967
25.7255
24.8893
22.8736
21.2362
19.6809
18.3355
16.9562
15.6145
14.2456
12.8679
11.3942
10.0312
8.67811
7.32704
5.94003
4.66308
3.17361
1.74836
0.276403
3777.64
-48.3816
422.319
-33.3831
175.204
232.603
88.4423
-577.94
246.654
100.295
31.8935
40.4208
44.0902
67.2672
60.7263
47.2794
42.6375
40.4819
36.0316
38.1268
36.0658
33.0122
31.3477
29.851
28.4268
27.0824
25.7438
24.8044
22.8675
21.2314
19.6852
18.2986
16.9344
15.5972
14.2296
12.8489
11.3683
10.0082
8.65981
7.31062
5.94043
4.64929
3.06915
1.60473
0.0956188
2471.27
2388
2575.41
2195.21
2783.64
2467.92
2386.39
2576.67
2172.78
2701.87
2467.77
2383.62
2575.53
2152.46
2679.86
2470.77
2380.53
2573.43
2135.96
2665.84
2477.52
2377.05
2571.56
2125.88
2654.52
2978.23
439.94
630.348
119.07
197.322
246.868
-292.134
-996.472
181.554
90.9662
37.7544
28.754
42.777
30.708
22.7574
42.8
41.9836
39.8718
36.3287
35.8831
34.3651
32.6979
31.2388
29.8125
28.4021
27.0447
26.0176
24.6498
22.8917
21.2435
19.714
18.2344
16.883
15.5521
14.1886
12.8027
11.3326
9.97752
8.63382
7.2765
5.86502
4.3074
2.96885
1.5318
0.0635541
2285.07
1096.27
580.879
109.546
210.905
225.401
30.4019
48.2983
130.081
85.8855
45.9674
33.9704
44.0452
32.9014
26.6324
40.7385
41.04
39.4696
37.2971
35.8836
34.2254
32.7356
31.6281
30.2101
28.7296
27.1295
25.557
24.2633
22.6827
21.1346
19.7812
18.5492
17.2619
15.922
14.639
13.1963
11.6012
10.1337
8.67315
7.17963
5.68272
4.23071
2.86646
1.44422
-0.000341422
2128.43
1696.43
697.62
172.574
207.803
225.01
47.2688
-330.023
31.9456
61.596
41.1677
39.1933
45.4097
34.059
30.7158
39.49
40.0717
39.0049
37.0055
35.627
34.1347
32.7001
31.4471
30.0641
28.5951
27.1378
25.8866
24.5387
23.0216
21.44
19.9774
18.5688
17.0697
15.5069
13.918
12.4897
11.3117
9.99622
8.56623
7.08745
5.60318
4.15325
2.76949
1.36159
-0.060878
2097.83
1943.09
861.755
199.01
210.205
221.662
81.7097
-225.593
-10.4822
37.5244
41.138
41.7396
46.2775
36.8441
32.9102
39.2363
39.8559
38.667
36.9069
35.5315
34.0606
32.7026
31.6145
30.1678
28.5319
26.8641
25.2713
23.7575
22.3466
21.0865
19.819
18.4563
16.974
15.4194
13.8505
12.4233
11.2094
9.8949
8.47368
6.99768
5.51733
4.07269
2.67915
1.27186
-0.148051
2001.55
2049.3
899.507
232.948
213.688
220.107
132.952
-259.414
-41.3233
36.9927
40.235
44.8422
48.1202
36.9578
35.0806
40.4199
40.5561
39.1459
37.306
35.9611
34.6008
33.333
32.2451
30.7872
29.1141
27.3831
25.7172
24.1151
22.6572
21.3446
20.0167
18.585
17.0312
15.4191
13.8136
12.3784
11.1628
9.83891
8.40168
6.91245
5.42779
3.98696
2.59125
1.18329
-0.23776
)
;

boundaryField
{
    AirInlet
    {
        type            calculated;
        value           nonuniform List<scalar> 5(-3497.41 -4258.28 34444.3 6448.46 1913.72);
    }
    WaterInlet
    {
        type            calculated;
        value           nonuniform List<scalar> 10(99.8324 93.5735 90.7741 90.9591 94.2253 2471.25 2467.91 2467.76 2470.76 2477.52);
    }
    ChannelWall
    {
        type            calculated;
        value           nonuniform List<scalar> 
110
(
94.1812
44.1649
55.8538
12.0005
31.6348
2471.29
2388.03
2575.45
2195.24
2783.69
2477.49
2377.02
2571.53
2125.84
2654.48
2001.5
2049.26
899.473
232.944
213.688
220.107
132.951
-259.44
-41.3674
36.9487
40.1909
44.798
48.0761
36.9137
35.0365
40.3758
40.512
39.1018
37.2618
35.917
34.5566
33.2888
32.2009
30.743
29.0699
27.339
25.6731
24.071
22.6131
21.3004
19.9726
18.5408
16.987
15.3749
13.7694
12.3342
11.1187
9.79477
8.35754
6.86831
5.38364
3.94281
2.5471
1.13915
-0.281905
99.857
45.5529
62.0547
14.8127
50.3249
38.1652
65.0153
168.483
131.658
126.025
134.673
554.393
224.739
131.357
80.2993
45.7848
39.4859
42.3484
48.1423
49.478
44.7849
43.4575
41.8266
39.5599
36.8601
34.8908
33.2729
31.647
30.1754
28.8065
27.4194
25.9743
24.4652
23.0188
21.6441
20.2362
18.8354
17.4769
16.1327
14.7721
13.3809
11.9621
10.5598
9.17943
7.80961
6.43515
5.04038
3.60668
2.17635
0.750041
)
;
    }
    Outlet
    {
        type            calculated;
        value           nonuniform List<scalar> 
15
(
-0.044145
-0.132435
-0.220721
-0.308976
-0.397207
-0.451133
-0.470741
-0.490353
-0.509966
-0.529583
-0.583535
-0.67186
-0.760257
-0.848565
-0.936854
)
;
    }
    FrontAndBack
    {
        type            empty;
    }
}


// ************************************************************************* //
