/*--------------------------------*- C++ -*----------------------------------*\
| =========                 |                                                 |
| \\      /  F ield         | OpenFOAM: The Open Source CFD Toolbox           |
|  \\    /   O peration     | Version:  2.3.0                                 |
|   \\  /    A nd           | Web:      www.OpenFOAM.org                      |
|    \\/     M anipulation  |                                                 |
\*---------------------------------------------------------------------------*/
FoamFile
{
    version     2.0;
    format      ascii;
    class       volScalarField;
    location    "0.01";
    object      p;
}
// * * * * * * * * * * * * * * * * * * * * * * * * * * * * * * * * * * * * * //

dimensions      [1 -1 -2 0 0 0 0];

internalField   nonuniform List<scalar> 
725
(
675.606
503.044
453.057
431.671
439.355
649.534
504.729
454.099
430.111
430.102
634.772
505.175
452.633
421.554
419.169
632.39
501.521
448.088
407.527
387.441
640.125
495.965
442.642
395.249
391.905
598.866
372.785
293.008
232.468
224.914
263.647
230.076
266.331
298.227
248.999
202.778
202.769
207.989
262.395
292.258
286.937
273.926
269.66
211.114
186.068
174.028
160.402
152.557
139.505
125.069
120.564
117.254
90.3299
110.58
129.395
146.747
176.845
177.226
188.216
171.543
142.413
124.813
114.562
105.197
80.0249
56.7
35.0054
19.7632
10.3782
4.91184
594.794
344.766
300.304
260.603
216.893
261.666
230.251
255.916
255.114
252.459
195.767
200.088
203.815
263.082
295.324
287.668
273.094
278.055
205.509
185.513
175.115
162.033
153.786
139.86
124.78
120.8
116.52
83.6031
110.394
130.924
144.904
178.185
177.264
190.242
175.336
141.247
123.476
113.167
105.093
78.8189
56.4614
35.1355
19.4142
10.7525
3.9145
635.338
244.726
325.883
286.731
260.552
256.471
224.911
264.675
262.496
237.631
220.074
193.512
196.353
239.339
304.593
284.217
266.938
297.951
186.846
184.098
175.384
163.148
156.695
140.393
123.354
120.736
115.213
67.5747
112.495
134.067
142.071
183.758
176.318
195.32
182.092
137.565
121.101
111.838
106.52
75.3705
54.6129
32.6945
18.3302
11.1986
4.40999
789.994
149.328
317.818
196.44
212.131
309.298
286.145
271.399
275.592
243.656
215.814
180.169
194.258
226.462
318.411
277.126
256.269
344.542
145.334
185.585
173.986
163.481
160.3
138.229
119.943
125.044
114.357
34.2912
122.613
137.666
142.998
197.628
173.832
202.764
194.967
130.974
118.406
110.817
110.121
70.0526
53.1469
28.2395
15.5379
11.789
5.38532
2271.61
215.611
275.413
223.385
217.612
236.942
231.838
293.372
269.439
280.241
213.64
146.293
191.622
210.065
370.773
405.387
467.705
595.308
117.389
201.018
168.979
162.51
169.996
200.212
183.325
139.201
115.798
-36.5816
151.546
141.657
233.997
252.467
171.574
211.421
214.525
114.184
115.041
110.442
118.007
59.6779
52.5318
20.81
12.7577
13.7516
7.34481
5020.25
134.954
316.331
205.967
218.361
233.387
205.037
325.206
261.955
280.829
236.893
774.515
206.142
206.507
392.368
712.911
704.503
750.16
25.6065
236.655
161.284
159.239
185.749
194.1
182.453
152.306
136.369
465.962
190.567
139.895
226.51
279.503
170.786
615.888
211.342
93.3711
110.793
108.67
129.921
51.6372
59.111
13.3219
9.46723
14.9692
8.38563
4990.91
0.380189
370.376
202.076
218.278
232.677
219.149
337.828
258.521
282.082
240.295
622.814
208.942
204.219
344.218
839.941
762.478
783.021
-48.4852
237.487
159.36
259.409
188.481
243.933
182.669
155.179
159.098
365.698
234.882
129.295
222.205
291.13
166.245
626.926
219.805
81.49
119.074
110.22
134.405
61.7543
70.1034
17.9879
9.29596
15.2608
8.77685
5032.59
507.988
282.815
200.626
217.985
228.597
208.428
374.437
254.519
280.37
236.578
612.742
206.882
198.293
168.643
952.115
823.957
810.379
-123.226
278.06
159.553
179.034
183.704
244.141
192.766
161.21
148.99
343.316
105.249
157.904
228.238
288.424
131.24
471.794
205.468
353.667
144.774
112.082
140.04
76.6849
90.8459
38.1324
9.74045
15.2438
9.15866
6352.49
755.611
269.429
200.911
217.717
206.461
410.025
592.14
249.789
277.711
596.862
675.397
206.226
172.891
94.9777
984.741
881.629
887.43
-36.3671
336.386
160.789
183.157
188.629
199.766
191.372
166.544
159.225
324.5
124.627
153.369
228.108
598.046
792.152
473.156
262.553
161.53
92.6262
114.123
146.631
94.9578
134.846
49.2347
9.71382
15.3625
9.57875
4893.37
49.1224
305.319
205.143
216.601
205.176
239.607
74.8591
238.303
274.223
289.247
652.384
202.652
158.072
240.269
1011.71
936.347
1005.34
187.783
365.455
165.755
183.64
203.772
207.563
193.73
169.562
152.928
308.325
138.851
142.201
238.085
104.325
236.861
493.282
50.3249
144.957
93.0999
109.345
136.934
125.079
139.552
54.8286
8.54662
20.3625
13.857
1273.16
1134.43
1080.34
1085.89
1248.21
1265.26
1139.16
1080.11
1067.89
1080.88
1267.47
1142.19
1078.85
1049.28
995.531
1282.06
1141.36
1077.02
1042.41
886.281
1307.88
1139.49
1075.72
1056.74
931.394
3017.28
601.68
426.561
218.631
211.255
202.993
219.812
127.785
215.984
233.862
287.064
199.116
185.961
152.876
501.287
1102.32
1118.09
1115.49
516.799
438.699
183.395
184.097
182.92
205.989
201.383
180.22
173.745
262.802
158.714
153.323
242.698
137.701
230.936
61.9503
49.085
124.418
97.0951
103.977
39.7691
140.417
135.313
66.5305
3.23429
2.61424
-3.42612
1737.35
768.199
339.777
234.291
213.862
204.075
213.634
157.563
204.525
219.864
203.596
187.077
168.484
203.208
879.114
1116.77
1122.53
1110.56
986.427
240.58
158.364
181.092
187.539
204.734
202.314
187.907
186.795
220.028
167.998
152.291
112.558
102.714
100.953
7.20477
59.3926
107.513
96.6078
101.229
75.6301
131.411
131.867
102.231
10.2915
5.02626
-2.07545
1292.09
653.033
318.476
249.741
216.181
204.429
211.731
176.803
201.867
212.703
197.49
175.912
148.886
204.266
1076.95
1113.29
1119.51
1110.22
1089.87
253.708
125.91
176.203
171.182
187.182
192.234
181.783
182.312
212.952
174.779
152.466
115.015
91.1806
85.4299
29.4769
68.5599
98.4256
94.9087
101.258
124
129.577
128.679
111.411
14.015
5.92767
-2.10444
1044.24
416.185
319.339
301.294
223.425
207.631
212.128
186.55
201.909
209.58
196.944
174.098
145.968
373.108
1090.25
1113.19
1116.3
1110.59
1092.54
524.152
128.072
173.779
176.52
185.507
191.438
188.464
193.827
195.259
169.977
152.192
116.181
93.5421
81.4113
42.1614
74.0971
93.3693
90.3176
82.543
129.129
128.654
126.739
113.369
24.3984
7.05282
-1.90545
1330.89
683.634
362.326
306.689
234.672
210.565
214.644
191.08
203.543
209.458
197.481
174.569
136.371
486.072
1101.62
1113.46
1116.82
1111.49
1095.41
614.125
117.691
173.197
171.145
185.667
200.853
196.453
178.543
193.002
172.05
152.458
116.443
96.5022
80.7081
48.0605
77.9556
92.2374
85.6354
115.274
136.644
128.826
125.459
101.883
36.5229
8.94839
-1.71161
)
;

boundaryField
{
    AirInlet
    {
        type            calculated;
        value           nonuniform List<scalar> 5(7237.57 3831.35 4120.18 8138.27 6801.92);
    }
    WaterInlet
    {
        type            calculated;
        value           nonuniform List<scalar> 10(675.608 649.54 634.782 632.404 640.142 1273.15 1265.25 1267.46 1282.05 1307.88);
    }
    ChannelWall
    {
        type            calculated;
        value           nonuniform List<scalar> 
110
(
640.099
495.935
442.608
395.211
391.863
1273.19
1134.46
1080.37
1085.93
1248.25
1307.86
1139.46
1075.69
1056.7
931.353
1330.85
683.592
362.283
306.645
234.628
210.52
214.599
191.036
203.499
209.413
197.437
174.525
136.327
486.049
1101.62
1113.46
1116.82
1111.49
1095.41
614.104
117.647
173.153
171.101
185.623
200.809
196.409
178.499
192.958
172.005
152.414
116.399
96.4581
80.664
48.0164
77.9114
92.1933
85.5913
115.232
136.604
128.785
125.419
101.842
36.4791
8.90426
-1.75574
675.633
503.074
453.092
431.709
439.397
598.91
372.829
293.052
232.512
224.957
263.691
230.121
266.374
298.27
249.043
202.822
202.813
208.033
262.439
292.302
286.982
273.971
269.704
211.158
186.112
174.072
160.446
152.601
139.549
125.113
120.608
117.298
90.374
110.624
129.439
146.791
176.889
177.271
188.261
171.587
142.457
124.857
114.606
105.241
80.069
56.7441
35.0495
19.8073
10.4224
4.95597
)
;
    }
    Outlet
    {
        type            calculated;
        value           nonuniform List<scalar> 
15
(
-0.0441234
-0.132402
-0.220673
-0.308954
-0.397258
-0.451198
-0.470786
-0.49035
-0.509918
-0.529466
-0.583611
-0.671918
-0.760163
-0.848427
-0.936522
)
;
    }
    FrontAndBack
    {
        type            empty;
    }
}


// ************************************************************************* //
