/*--------------------------------*- C++ -*----------------------------------*\
| =========                 |                                                 |
| \\      /  F ield         | OpenFOAM: The Open Source CFD Toolbox           |
|  \\    /   O peration     | Version:  2.3.0                                 |
|   \\  /    A nd           | Web:      www.OpenFOAM.org                      |
|    \\/     M anipulation  |                                                 |
\*---------------------------------------------------------------------------*/
FoamFile
{
    version     2.0;
    format      ascii;
    class       volScalarField;
    location    "0.01";
    object      p_rgh;
}
// * * * * * * * * * * * * * * * * * * * * * * * * * * * * * * * * * * * * * //

dimensions      [1 -1 -2 0 0 0 0];

internalField   nonuniform List<scalar> 
725
(
99.857
45.5529
62.0547
14.8127
50.3249
93.6471
46.2185
61.6088
12.5074
39.5101
90.8968
46.3436
60.9027
11.993
34.3946
91.1309
45.8005
59.2392
17.9216
58.3527
94.446
44.4691
56.1971
12.3831
32.0567
38.1652
65.0153
168.483
131.658
126.025
134.673
554.393
224.739
131.357
80.2993
45.7848
39.4859
42.3484
48.1423
49.478
44.7849
43.4575
41.8266
39.5599
36.8601
34.8908
33.2729
31.647
30.1754
28.8065
27.4194
25.9743
24.4652
23.0188
21.6441
20.2362
18.8354
17.4769
16.1327
14.7721
13.3809
11.9621
10.5598
9.17943
7.80961
6.43515
5.04038
3.60668
2.17635
0.750041
-11.2224
15.2597
161.647
130.501
128.25
137.016
317.029
190.447
119.908
74.3863
43.1803
39.2624
44.2087
47.9805
49.762
44.2259
42.772
41.1336
38.977
36.3102
34.3472
32.7506
31.138
29.6976
28.3757
27.0427
25.6574
24.1839
22.8197
21.4999
20.1312
18.7556
17.4125
16.079
14.7293
13.3529
11.9454
10.5488
9.16923
7.79852
6.42419
5.03566
3.60225
2.17274
0.749764
-70.463
-32.1306
154.31
118.245
128.189
132.495
244.839
144.174
100.44
63.4707
35.1631
37.378
45.4785
50.6797
52.0935
44.1941
42.9566
41.2627
39.0368
36.2918
34.3426
32.787
31.119
29.7551
28.3929
27.0503
25.6654
24.1282
22.8104
21.509
20.1352
18.7569
17.4158
16.0821
14.7296
13.3528
11.9424
10.5472
9.16813
7.79714
6.42213
5.04028
3.59919
2.17052
0.750348
-173.982
75.6293
169.261
108.816
127.982
113.835
-232.619
17.7064
13.5428
46.3136
20.7225
34.9218
45.5398
57.8211
59.0137
43.7296
43.2735
41.4233
39.0582
36.0347
34.313
32.8405
31.1648
29.7255
28.3887
27.0648
25.7008
24.0249
22.8142
21.5751
20.2702
18.8674
17.4816
16.1175
14.7486
13.3639
11.9411
10.5463
9.16977
7.80094
6.42588
5.05447
3.59605
2.16429
0.738369
-626.587
-63.7804
-50.2239
100.262
121.822
104.096
799.688
24.6041
113.727
37.7853
9.58202
28.6674
46.2489
54.1036
63.5778
48.4162
43.6322
42.0222
40.5717
36.5603
34.6146
33.374
31.8967
30.3433
28.9287
27.5677
26.1253
23.841
22.8534
21.6453
20.2566
18.8425
17.4617
16.1101
14.7507
13.3742
11.9481
10.5588
9.18381
7.81517
6.43569
5.08367
3.59253
2.16091
0.72383
-1423.73
-335.317
136.172
98.0045
115.054
-947.583
1457.65
-177.213
98.4588
184.799
15.5259
25.5266
47.2767
57.0118
67.9847
45.1908
44.8143
43.7133
39.1907
36.8202
34.963
33.7371
31.9896
30.3892
28.9425
27.5801
26.1592
25.9742
23.6258
21.88
20.2644
18.8367
17.4769
16.14
14.7707
13.3869
11.9315
10.553
9.18634
7.8263
6.43956
5.12368
3.58145
2.16574
0.720531
-1715.14
-372.502
258.77
94.1538
231.132
-222.989
259.634
-314.092
133.676
186.766
20.6276
33.7271
46.8913
62.8454
76.929
84.1673
44.5505
52.9712
49.7829
45.895
39.4947
34.6224
31.9939
30.377
28.9406
27.5923
26.1793
25.5807
23.5291
21.9265
20.3704
18.9295
17.4792
16.1235
14.7549
13.378
11.92
10.5493
9.18763
7.83085
6.44232
5.13813
3.57863
2.16831
0.719332
4068.75
-273.136
383.935
82.4783
144.865
1886.14
-106.469
-544.914
165.82
109.773
24.3569
37.0291
46.7821
64.5983
74.7531
48.3309
43.977
41.5835
41.1616
38.5347
36.3698
33.5114
31.919
30.3677
28.9443
27.6014
26.2074
25.4634
23.3717
21.7332
20.1864
18.8774
17.4767
16.1258
14.7553
13.3778
11.9119
10.5453
9.18769
7.83387
6.44546
5.15157
3.57726
2.18065
0.733203
4497.03
-221.17
418.156
-6.85009
165.169
639.599
-228.381
-785.238
194.19
104.005
29.3942
34.4466
50.7736
71.1894
49.3999
48.6541
43.4463
41.2967
40.2167
39.3964
36.5601
33.4515
31.9068
30.3864
28.9502
27.6067
26.2355
25.3993
23.3836
21.7462
20.1909
18.8455
17.4662
16.1245
14.7556
13.3779
11.9042
10.5412
9.18808
7.83701
6.44999
5.17303
3.68357
2.25832
0.786369
3778.14
-48.1913
422.509
-33.3595
175.206
232.608
88.5085
-577.511
247.182
100.82
32.4225
40.9499
44.6199
67.7965
61.2551
47.8081
43.1664
41.011
36.5609
38.6562
36.5954
33.5418
31.8773
30.3806
28.9564
27.612
26.2734
25.334
23.3971
21.7611
20.2149
18.8283
17.4641
16.1268
14.7592
13.3786
11.8979
10.5377
9.18939
7.84019
6.47
5.17886
3.59872
2.13431
0.625202
2472.01
2388.71
2576.08
2195.84
2784.24
2468.72
2387.16
2577.41
2173.5
2702.56
2468.61
2384.45
2576.34
2153.25
2680.63
2471.67
2381.42
2574.31
2136.83
2666.7
2478.47
2378
2572.51
2126.82
2655.46
2978.81
440.282
630.548
119.102
197.324
246.87
-292.049
-995.978
182.136
91.5483
38.3375
29.3375
43.3606
31.2917
23.3407
43.3829
42.5665
40.4549
36.912
36.4665
34.9487
33.2814
31.8224
30.3961
28.9857
27.6283
26.6013
25.2334
23.4754
21.8271
20.2976
18.818
17.4666
16.1356
14.7722
13.3862
11.9161
10.561
9.21734
7.86002
6.44854
4.89091
3.55237
2.11532
0.647089
2285.74
1096.91
581.27
109.587
210.908
225.403
30.4488
48.806
130.751
86.5574
46.6379
34.6421
44.717
33.5733
27.3041
41.4098
41.7113
40.1412
37.9691
36.5555
34.8973
33.4075
32.3
30.882
29.4015
27.8014
26.2289
24.9351
23.3545
21.8064
20.453
19.221
17.9337
16.5938
15.3108
13.868
12.2729
10.8055
9.34492
7.8514
6.35451
4.90251
3.53828
2.11606
0.671518
2129.19
1697.19
698.137
172.618
207.805
225.012
47.3105
-329.529
32.7058
62.3562
41.9278
39.9535
46.1699
34.8191
31.4757
40.2498
40.8316
39.7649
37.7656
36.3872
34.8948
33.4603
32.2073
30.8243
29.3553
27.8979
26.6467
25.2988
23.7817
22.2001
20.7375
19.3289
17.8297
16.267
14.6782
13.2499
12.0718
10.7564
9.32641
7.84764
6.36339
4.91348
3.52973
2.12184
0.699379
2098.68
1943.94
862.418
199.066
210.208
221.665
81.7424
-225.05
-9.63375
38.3719
41.9864
42.5878
47.1257
37.6922
33.7584
40.0846
40.7043
39.5154
37.7554
36.3799
34.909
33.551
32.4629
31.0162
29.3803
27.7126
26.1198
24.6059
23.1951
21.935
20.6675
19.3048
17.8225
16.2679
14.6991
13.2718
12.058
10.7435
9.32224
7.84625
6.3659
4.92125
3.52772
2.12042
0.700514
2002.48
2050.24
900.241
233.022
213.691
220.11
132.969
-258.855
-40.3866
37.9263
41.1715
45.7784
49.0565
37.8944
36.0173
41.3567
41.4929
40.0827
38.2428
36.898
35.5376
34.2698
33.1819
31.724
30.0509
28.32
26.6541
25.052
23.5941
22.2814
20.9536
19.5218
17.968
16.3559
14.7504
13.3152
12.0997
10.7758
9.33854
7.84931
6.36464
4.92381
3.5281
2.12015
0.699095
)
;

boundaryField
{
    AirInlet
    {
        type            fixedFluxPressure;
        gradient        nonuniform List<scalar> 5(-2.07369e+08 -2.54313e+08 3.03756e+09 1.95143e+08 -1.86443e+08);
        value           nonuniform List<scalar> 5(-3497.41 -4258.28 34444.3 6448.46 1913.72);
    }
    WaterInlet
    {
        type            fixedFluxPressure;
        gradient        nonuniform List<scalar> 10(0.0196462 0.241202 -2.54449 -7.19085 0.859422 0.401041 -49.2476 -0.689715 -27.5349 -9.76283);
        value           nonuniform List<scalar> 10(99.857 93.6471 90.8968 91.1308 94.446 2472.01 2468.72 2468.61 2471.67 2478.47);
    }
    ChannelWall
    {
        type            fixedFluxPressure;
        gradient        uniform 0;
        value           nonuniform List<scalar> 
110
(
94.446
44.4691
56.1971
12.3831
32.0567
2472.01
2388.71
2576.08
2195.84
2784.24
2478.47
2378
2572.51
2126.82
2655.46
2002.48
2050.24
900.241
233.022
213.691
220.11
132.969
-258.855
-40.3866
37.9263
41.1715
45.7784
49.0565
37.8944
36.0173
41.3567
41.4929
40.0827
38.2428
36.898
35.5376
34.2698
33.1819
31.724
30.0509
28.32
26.6541
25.052
23.5941
22.2814
20.9536
19.5218
17.968
16.3559
14.7504
13.3152
12.0997
10.7758
9.33854
7.84931
6.36464
4.92381
3.5281
2.12015
0.699095
99.857
45.5529
62.0547
14.8127
50.3249
38.1652
65.0153
168.483
131.658
126.025
134.673
554.393
224.739
131.357
80.2993
45.7848
39.4859
42.3484
48.1423
49.478
44.7849
43.4575
41.8266
39.5599
36.8601
34.8908
33.2729
31.647
30.1754
28.8065
27.4194
25.9743
24.4652
23.0188
21.6441
20.2362
18.8354
17.4769
16.1327
14.7721
13.3809
11.9621
10.5598
9.17943
7.80961
6.43515
5.04038
3.60668
2.17635
0.750041
)
;
    }
    Outlet
    {
        type            totalPressure;
        rho             rho;
        psi             none;
        gamma           1;
        p0              uniform 0;
        value           uniform 0;
    }
    FrontAndBack
    {
        type            empty;
    }
}


// ************************************************************************* //
