/*--------------------------------*- C++ -*----------------------------------*\
| =========                 |                                                 |
| \\      /  F ield         | OpenFOAM: The Open Source CFD Toolbox           |
|  \\    /   O peration     | Version:  2.3.0                                 |
|   \\  /    A nd           | Web:      www.OpenFOAM.org                      |
|    \\/     M anipulation  |                                                 |
\*---------------------------------------------------------------------------*/
FoamFile
{
    version     2.0;
    format      ascii;
    class       volScalarField;
    location    "0.01";
    object      p_rgh;
}
// * * * * * * * * * * * * * * * * * * * * * * * * * * * * * * * * * * * * * //

dimensions      [1 -1 -2 0 0 0 0];

internalField   nonuniform List<scalar> 
725
(
675.633
503.074
453.092
431.709
439.397
649.613
504.82
454.202
430.226
430.229
634.904
505.327
452.805
421.745
419.38
632.575
501.734
448.329
407.795
387.736
640.364
496.239
442.951
395.593
392.277
598.91
372.829
293.052
232.512
224.957
263.691
230.121
266.374
298.27
249.043
202.822
202.813
208.033
262.439
292.302
286.982
273.971
269.704
211.158
186.112
174.072
160.446
152.601
139.549
125.113
120.608
117.298
90.374
110.624
129.439
146.791
176.889
177.271
188.261
171.587
142.457
124.857
114.606
105.241
80.069
56.7441
35.0495
19.8073
10.4224
4.95597
594.926
344.898
300.434
260.732
217.024
261.799
230.383
256.049
255.246
252.589
195.899
200.22
203.947
263.214
295.456
287.8
273.226
278.187
205.642
185.645
175.247
162.165
153.918
139.992
124.913
120.932
116.652
83.7355
110.527
131.056
145.037
178.317
177.396
190.374
175.468
141.38
123.608
113.299
105.225
78.9513
56.5938
35.2679
19.5466
10.8849
4.04691
635.551
244.943
326.095
286.945
260.769
256.69
225.132
264.896
262.717
237.849
220.292
193.732
196.573
239.56
304.814
284.438
267.158
298.172
187.067
184.319
175.605
163.369
156.916
140.614
123.575
120.956
115.434
67.7954
112.716
134.287
142.292
183.979
176.539
195.541
182.313
137.785
121.322
112.058
106.74
75.5911
54.8336
32.9152
18.5509
11.4193
4.63066
790.254
149.625
318.114
196.745
212.437
309.603
286.45
271.708
275.901
243.962
216.121
180.478
194.567
226.771
318.72
277.431
256.566
344.846
145.643
185.894
174.295
163.79
160.609
138.538
120.252
125.353
114.665
34.6002
122.922
137.975
143.305
197.935
174.14
203.073
195.276
131.283
118.715
111.126
110.43
70.3616
53.4558
28.5485
15.8469
12.098
5.69427
2271.73
215.971
275.799
223.782
218.009
237.338
232.232
293.768
269.836
280.638
214.035
146.688
192.019
210.462
371.164
405.672
467.909
595.582
117.765
201.415
169.377
162.908
170.392
200.606
183.719
139.596
116.195
-36.1843
151.943
142.054
234.386
252.854
171.965
211.817
214.922
114.581
115.438
110.839
118.404
60.0752
52.9291
21.2073
13.155
14.1489
7.74207
5020.31
135.337
316.778
206.418
218.812
233.838
205.488
325.656
262.404
281.272
237.335
774.957
206.593
206.958
392.77
713.083
704.63
750.357
25.9859
237.106
161.736
159.69
186.197
194.547
182.9
152.755
136.817
466.408
191.011
140.347
226.953
279.943
171.226
616.328
211.793
93.8223
111.243
109.121
130.372
52.0839
59.5561
13.7725
9.91844
15.4204
8.83683
4990.98
0.747722
370.836
202.547
218.748
233.147
219.62
338.298
258.986
282.543
240.757
623.278
209.412
204.69
344.623
840.072
762.587
783.179
-48.1175
237.955
159.831
259.879
188.948
244.401
183.137
155.647
159.565
366.165
235.345
129.758
222.67
291.589
166.704
627.385
220.275
81.9597
119.544
110.691
134.876
62.2115
70.5537
18.4545
9.76675
15.7316
9.24764
5032.65
508.339
283.297
201.117
218.475
229.087
208.918
374.92
254.999
280.851
237.058
613.229
207.372
198.783
169.025
952.209
824.049
810.48
-122.894
278.545
160.043
179.524
184.191
244.628
193.254
161.696
149.477
343.805
105.733
158.386
228.724
288.906
131.718
472.275
205.951
354.152
145.263
112.573
140.531
77.154
91.3024
38.6124
10.2308
15.7342
9.64901
6352.52
755.965
269.934
201.421
218.227
206.971
410.531
592.64
250.289
278.211
597.367
675.907
206.736
173.399
95.2979
984.814
881.707
887.477
-36.1046
336.887
161.299
183.667
189.137
200.272
191.879
167.05
159.734
325.01
125.137
153.87
228.612
598.551
792.659
473.663
263.055
162.037
93.1358
114.633
147.142
95.4387
135.317
49.7305
10.2237
15.8724
10.0887
4893.42
49.5322
305.843
205.673
217.13
205.705
240.135
75.3866
238.822
274.742
289.767
652.913
203.182
158.594
240.516
1011.76
936.409
1005.37
187.99
365.976
166.285
184.169
204.301
208.087
194.255
170.087
153.458
308.855
139.381
142.722
238.605
104.843
237.379
493.808
50.8487
145.486
93.6292
109.875
137.463
125.571
140.04
55.3396
9.07592
20.8918
14.3865
1273.91
1135.14
1081.01
1086.52
1248.78
1266.06
1139.93
1080.85
1068.6
1081.57
1268.32
1143.02
1079.66
1050.07
996.301
1282.96
1142.25
1077.9
1043.28
887.136
1308.84
1140.44
1076.67
1057.68
932.31
3017.4
602.108
427.144
219.215
211.839
203.577
220.396
128.369
216.567
234.438
287.637
199.693
186.545
153.433
501.452
1102.33
1118.09
1115.5
516.938
439.265
183.979
184.681
183.501
206.566
201.96
180.798
174.328
263.385
159.297
153.906
243.27
138.271
231.506
62.5255
49.6685
125.001
97.6787
104.561
40.3394
140.955
135.851
67.0828
3.81585
3.19787
-2.84251
1737.69
768.675
340.437
234.963
214.534
204.747
214.306
158.235
205.197
220.535
204.262
187.743
169.156
203.793
879.192
1116.78
1122.54
1110.57
986.463
241.133
159.036
181.764
188.207
205.399
202.978
188.573
187.466
220.7
168.67
152.963
113.228
103.372
101.617
7.87605
60.0644
108.185
97.2797
101.901
76.2619
132.03
132.487
102.855
10.9573
5.69818
-1.40353
1292.58
653.603
319.214
250.495
216.942
205.19
212.491
177.564
202.627
213.463
198.25
176.672
149.647
204.8
1076.96
1113.3
1119.52
1110.23
1089.88
254.2
126.67
176.963
171.942
187.939
192.99
182.541
183.069
213.71
175.538
153.226
115.775
91.9396
86.1899
30.2369
69.3199
99.1857
95.669
102.018
124.701
130.278
129.379
112.114
14.768
6.68786
-1.34428
1044.84
416.889
320.17
302.131
224.273
208.479
212.976
187.398
202.757
210.429
197.793
174.946
146.816
373.635
1090.26
1113.19
1116.31
1110.6
1092.55
524.617
128.92
174.627
177.368
186.354
192.282
189.309
194.671
196.106
170.826
153.04
117.029
94.3902
82.2595
43.0096
74.9453
94.2177
91.1662
83.3758
129.912
129.436
127.521
114.151
25.2353
7.90126
-1.05702
1331.74
684.522
363.246
307.62
235.609
211.501
215.58
192.017
204.48
210.394
198.418
175.506
137.308
486.577
1101.63
1113.47
1116.83
1111.49
1095.42
614.57
118.627
174.133
172.08
186.602
201.789
197.389
179.48
193.939
172.986
153.395
117.38
97.439
81.6449
48.9973
78.8923
93.1742
86.5723
116.177
137.508
129.689
126.323
102.751
37.4524
9.88496
-0.775092
)
;

boundaryField
{
    AirInlet
    {
        type            fixedFluxPressure;
        gradient        nonuniform List<scalar> 5(2.21726e+08 -1.15963e+08 -9.12474e+07 1.78575e+08 1.9085e+08);
        value           nonuniform List<scalar> 5(7237.57 3831.35 4120.18 8138.27 6801.92);
    }
    WaterInlet
    {
        type            fixedFluxPressure;
        gradient        nonuniform List<scalar> 10(-0.00227405 -16.6495 -0.705715 -6.87119 -65.3366 -0.0679725 -1.28813 -13.5565 -0.134091 -22.7459);
        value           nonuniform List<scalar> 10(675.633 649.613 634.904 632.575 640.363 1273.91 1266.06 1268.32 1282.96 1308.84);
    }
    ChannelWall
    {
        type            fixedFluxPressure;
        gradient        uniform 0;
        value           nonuniform List<scalar> 
110
(
640.364
496.239
442.951
395.593
392.277
1273.91
1135.14
1081.01
1086.52
1248.78
1308.84
1140.44
1076.67
1057.68
932.31
1331.74
684.522
363.246
307.62
235.609
211.501
215.58
192.017
204.48
210.394
198.418
175.506
137.308
486.577
1101.63
1113.47
1116.83
1111.49
1095.42
614.57
118.627
174.133
172.08
186.602
201.789
197.389
179.48
193.939
172.986
153.395
117.38
97.439
81.6449
48.9973
78.8923
93.1742
86.5723
116.177
137.508
129.689
126.323
102.751
37.4524
9.88496
-0.775092
675.633
503.074
453.092
431.709
439.397
598.91
372.829
293.052
232.512
224.957
263.691
230.121
266.374
298.27
249.043
202.822
202.813
208.033
262.439
292.302
286.982
273.971
269.704
211.158
186.112
174.072
160.446
152.601
139.549
125.113
120.608
117.298
90.374
110.624
129.439
146.791
176.889
177.271
188.261
171.587
142.457
124.857
114.606
105.241
80.069
56.7441
35.0495
19.8073
10.4224
4.95597
)
;
    }
    Outlet
    {
        type            totalPressure;
        rho             rho;
        psi             none;
        gamma           1;
        p0              uniform 0;
        value           uniform 0;
    }
    FrontAndBack
    {
        type            empty;
    }
}


// ************************************************************************* //
