/*--------------------------------*- C++ -*----------------------------------*\
| =========                 |                                                 |
| \\      /  F ield         | OpenFOAM: The Open Source CFD Toolbox           |
|  \\    /   O peration     | Version:  2.3.0                                 |
|   \\  /    A nd           | Web:      www.OpenFOAM.org                      |
|    \\/     M anipulation  |                                                 |
\*---------------------------------------------------------------------------*/
FoamFile
{
    version     2.0;
    format      ascii;
    class       surfaceScalarField;
    location    "0.01";
    object      phi;
}
// * * * * * * * * * * * * * * * * * * * * * * * * * * * * * * * * * * * * * //

dimensions      [0 3 -1 0 0 0 0];

internalField   nonuniform List<scalar> 
1380
(
3.12612e-13
1.87388e-13
2.85324e-13
2.72879e-14
2.99841e-13
-1.45173e-14
2.8554e-13
1.43015e-14
-2.5801e-13
5.4355e-13
6.01993e-13
8.53951e-14
6.1949e-13
9.79062e-15
6.33739e-13
-2.87655e-14
6.22636e-13
2.54041e-14
-3.6024e-13
7.24866e-13
6.85655e-13
-1.0026e-13
7.22e-13
-2.65535e-14
7.11289e-13
-1.80547e-14
7.15319e-13
2.13743e-14
-1.36267e-13
4.91346e-13
5.96889e-13
-1.97149e-13
6.05337e-13
-3.50014e-14
5.92047e-13
-4.76556e-15
5.95479e-13
1.79427e-14
4.04688e-13
5.45232e-14
3.02851e-13
2.6785e-13
2.63084e-13
2.81026e-13
6.85715e-13
-1.12952e-12
1.67307e-12
-1.24997e-11
1.13702e-11
8.47262e-12
-2.09723e-11
1.14659e-11
-2.99333e-12
1.12793e-11
1.86634e-13
8.05089e-12
3.22842e-12
3.06214e-12
4.98875e-12
1.22233e-12
1.83981e-12
9.37096e-13
2.85234e-13
1.02411e-12
-8.70156e-14
7.21695e-13
3.02417e-13
4.51671e-13
2.70024e-13
3.21679e-13
1.29992e-13
2.8609e-13
3.55886e-14
2.37466e-13
4.86247e-14
1.76958e-13
6.05074e-14
1.69447e-13
7.51133e-15
1.76758e-13
-7.31146e-15
1.76971e-13
-2.1219e-16
1.6104e-13
1.59313e-14
1.4985e-13
1.1189e-14
1.45149e-13
4.70112e-15
1.41113e-13
4.03594e-15
1.38996e-13
2.11639e-15
1.39379e-13
-3.82453e-16
1.40907e-13
-1.52782e-15
1.42424e-13
-1.51675e-15
1.43732e-13
-1.30837e-15
1.43018e-13
7.13776e-16
1.42917e-13
1.01596e-16
1.42098e-13
8.18051e-16
1.40869e-13
1.22967e-15
1.40482e-13
3.86785e-16
1.41069e-13
-5.87732e-16
1.4209e-13
-1.02023e-15
1.4274e-13
-6.50137e-16
1.42451e-13
2.8821e-16
1.4195e-13
5.0099e-16
1.41818e-13
1.32741e-16
1.42235e-13
-4.17848e-16
1.4309e-13
-8.54799e-16
1.43811e-13
-7.21232e-16
1.44037e-13
-2.25396e-16
1.44262e-13
-2.25592e-16
-6.04987e-16
-1.36103e-12
3.75897e-12
-6.16869e-12
1.61778e-11
1.98591e-11
-4.70001e-11
1.70136e-11
-1.47836e-13
1.30905e-11
4.10971e-12
7.17653e-12
9.14244e-12
3.05779e-12
9.10749e-12
1.15059e-12
3.747e-12
1.19192e-12
2.4391e-13
1.65858e-12
-5.53678e-13
1.31775e-12
6.43247e-13
9.09561e-13
6.78212e-13
7.05782e-13
3.3377e-13
6.39245e-13
1.02126e-13
5.41632e-13
1.46238e-13
4.2403e-13
1.7811e-13
4.14003e-13
1.75382e-14
4.34126e-13
-2.74345e-14
4.39214e-13
-5.29999e-15
4.11824e-13
4.33213e-14
3.89714e-13
3.32984e-14
3.79175e-13
1.52395e-14
3.71072e-13
1.21398e-14
3.67076e-13
6.11191e-15
3.67932e-13
-1.23825e-15
3.70931e-13
-4.52705e-15
3.74316e-13
-4.90123e-15
3.77096e-13
-4.08856e-15
3.76535e-13
1.27406e-15
3.76462e-13
1.7514e-16
3.75048e-13
2.23103e-15
3.7279e-13
3.48803e-15
3.72019e-13
1.1577e-15
3.73224e-13
-1.7936e-15
3.75417e-13
-3.213e-15
3.76889e-13
-2.12228e-15
3.76466e-13
7.10985e-16
3.75495e-13
1.47245e-15
3.75255e-13
3.72886e-16
3.76203e-13
-1.36632e-15
3.77986e-13
-2.63799e-15
3.79487e-13
-2.22183e-15
3.80028e-13
-7.66638e-16
3.8063e-13
-8.27119e-16
-1.59557e-15
-1.21583e-12
5.46615e-12
1.01079e-11
4.85415e-12
1.99722e-11
-5.68645e-11
1.25935e-11
7.23091e-12
1.00208e-11
6.68246e-12
7.24532e-12
1.19179e-11
2.80134e-12
1.35515e-11
1.16752e-12
5.38083e-12
1.30886e-12
1.02567e-13
1.96841e-12
-1.21323e-12
1.69138e-12
9.20273e-13
1.16675e-12
1.20285e-12
9.08326e-13
5.92193e-13
8.43859e-13
1.66594e-13
7.62079e-13
2.28018e-13
6.03958e-13
3.3623e-13
5.8291e-13
3.85865e-14
6.08825e-13
-5.33495e-14
6.22904e-13
-1.93792e-14
5.9609e-13
7.01351e-14
5.7252e-13
5.68686e-14
5.61625e-13
2.61338e-14
5.50933e-13
2.28322e-14
5.47766e-13
9.27886e-15
5.48139e-13
-1.61146e-15
5.51372e-13
-7.75895e-15
5.55797e-13
-9.32675e-15
5.59024e-13
-7.31504e-15
5.58797e-13
1.50057e-15
5.59285e-13
-3.12903e-16
5.57979e-13
3.53658e-15
5.5541e-13
6.05654e-15
5.54327e-13
2.24115e-15
5.55695e-13
-3.16183e-15
5.58479e-13
-5.99741e-15
5.60495e-13
-4.13805e-15
5.59988e-13
1.2173e-15
5.58683e-13
2.77789e-15
5.58266e-13
7.89725e-16
5.59409e-13
-2.50884e-15
5.6155e-13
-4.77951e-15
5.63482e-13
-4.15343e-15
5.64028e-13
-1.3126e-15
5.64659e-13
-1.45884e-15
-2.64244e-15
-3.56496e-12
9.08563e-12
-2.65679e-12
3.94598e-12
2.47674e-13
-5.9769e-11
-5.64835e-12
1.31269e-11
-4.59981e-12
5.63393e-12
-5.4237e-12
1.27418e-11
2.46707e-12
5.6607e-12
1.58405e-12
6.26384e-12
9.74977e-13
7.11645e-13
1.69447e-12
-1.93272e-12
1.81256e-12
8.02179e-13
1.31453e-12
1.70088e-12
9.69799e-13
9.36919e-13
9.4357e-13
1.92823e-13
9.30841e-13
2.40747e-13
7.40675e-13
5.26396e-13
6.9318e-13
8.60816e-14
7.05098e-13
-6.52681e-14
7.27423e-13
-4.17036e-14
7.1077e-13
8.67881e-14
6.97441e-13
7.01973e-14
6.92119e-13
3.1456e-14
6.82656e-13
3.22948e-14
6.79278e-13
1.26574e-14
6.79676e-13
-2.0103e-15
6.82088e-13
-1.01705e-14
6.87132e-13
-1.43702e-14
6.89556e-13
-9.73902e-15
6.89715e-13
1.34045e-15
6.9105e-13
-1.64716e-15
6.91378e-13
3.2081e-15
6.88831e-13
8.60342e-15
6.87253e-13
3.81962e-15
6.88312e-13
-4.22149e-15
6.91275e-13
-8.96001e-15
6.93705e-13
-6.56847e-15
6.93052e-13
1.87051e-15
6.91428e-13
4.40139e-15
6.90741e-13
1.47709e-15
6.91789e-13
-3.55653e-15
6.93791e-13
-6.78161e-15
6.95857e-13
-6.21977e-15
6.96044e-13
-1.49958e-15
6.96478e-13
-1.89295e-15
-3.34164e-15
-1.19101e-12
1.09624e-11
-9.7059e-12
1.24609e-11
-4.79717e-11
-2.15032e-11
-1.74099e-11
-1.74349e-11
8.57794e-13
-1.26337e-11
1.30854e-11
5.14151e-13
6.26917e-12
1.24769e-11
2.80782e-12
9.72519e-12
6.7642e-13
2.84305e-12
7.53308e-13
-2.0096e-12
1.41877e-12
1.36715e-13
1.21521e-12
1.90445e-12
8.41521e-13
1.3106e-12
8.60347e-13
1.73997e-13
9.79096e-13
1.21997e-13
8.36709e-13
6.68784e-13
7.5915e-13
1.6364e-13
7.09644e-13
-1.57622e-14
7.47966e-13
-8.00251e-14
7.61692e-13
7.30615e-14
7.64918e-13
6.69722e-14
7.68046e-13
2.83273e-14
7.65812e-13
3.45291e-14
7.63095e-13
1.53748e-14
7.62917e-13
-1.83301e-15
7.64955e-13
-1.22083e-14
7.67926e-13
-1.73413e-14
7.6719e-13
-9.00227e-15
7.69745e-13
-1.21505e-15
7.72889e-13
-4.79178e-15
7.72425e-13
3.67275e-15
7.70393e-13
1.06344e-14
7.69189e-13
5.0244e-15
7.70242e-13
-5.27429e-15
7.73378e-13
-1.20968e-14
7.76256e-13
-9.44588e-15
7.75528e-13
2.59822e-15
7.73637e-13
6.29204e-15
7.72657e-13
2.45776e-15
7.73376e-13
-4.27627e-15
7.74641e-13
-8.04647e-15
7.76579e-13
-8.15765e-15
7.75936e-13
-8.55937e-16
7.75959e-13
-1.91629e-15
-3.55235e-15
-2.17937e-13
1.13803e-11
-5.98166e-13
1.28411e-11
-6.10609e-12
-1.59952e-11
-1.34735e-12
-2.21937e-11
1.51211e-12
-1.54932e-11
-3.26897e-12
5.29522e-12
1.5677e-12
7.64026e-12
8.3458e-13
1.04583e-11
2.34418e-13
3.44321e-12
-4.81826e-14
-1.727e-12
1.36802e-13
-4.82698e-14
2.20846e-13
1.8204e-12
1.60268e-13
1.37118e-12
1.63991e-13
1.70275e-13
2.01719e-13
8.42681e-14
1.95626e-13
6.74877e-13
1.7172e-13
1.87546e-13
1.61994e-13
-6.03581e-15
1.68428e-13
-8.64596e-14
1.7517e-13
6.63195e-14
1.7722e-13
6.49221e-14
1.76887e-13
2.86608e-14
1.75562e-13
3.58536e-14
1.74711e-13
1.62266e-14
1.74419e-13
-1.54192e-15
1.74426e-13
-1.22148e-14
1.7418e-13
-1.70952e-14
1.75239e-13
-1.00609e-14
1.75985e-13
-1.9623e-15
1.76328e-13
-5.13395e-15
1.75987e-13
4.01363e-15
1.75486e-13
1.11356e-14
1.7519e-13
5.32011e-15
1.75377e-13
-5.46164e-15
1.76061e-13
-1.27806e-14
1.76667e-13
-1.0052e-14
1.76576e-13
2.68958e-15
1.76159e-13
6.70829e-15
1.75941e-13
2.67577e-15
1.76015e-13
-4.34952e-15
1.76216e-13
-8.24784e-15
1.76405e-13
-8.34712e-15
1.76213e-13
-6.639e-16
1.76096e-13
-1.79889e-15
-3.56929e-15
5.11505e-14
1.15291e-11
2.0794e-14
1.28715e-11
-5.58533e-12
-1.03891e-11
3.28187e-13
-2.81072e-11
3.0948e-12
-1.82598e-11
-2.54585e-12
1.09359e-11
1.78078e-12
3.31363e-12
1.01253e-12
1.12266e-11
3.71724e-13
4.08401e-12
-1.78737e-13
-1.17654e-12
8.75618e-14
-3.14569e-13
2.02499e-13
1.70547e-12
1.49538e-13
1.42414e-12
1.56905e-13
1.62908e-13
1.87564e-13
5.36092e-14
2.03321e-13
6.59121e-13
1.70503e-13
2.20364e-13
1.59676e-13
4.79107e-15
1.70018e-13
-9.68018e-14
1.76326e-13
6.00114e-14
1.79215e-13
6.20333e-14
1.78453e-13
2.94232e-14
1.76898e-13
3.74085e-14
1.75997e-13
1.71277e-14
1.75628e-13
-1.17312e-15
1.75497e-13
-1.20836e-14
1.75358e-13
-1.69562e-14
1.76262e-13
-1.09654e-14
1.77099e-13
-2.79942e-15
1.77383e-13
-5.41784e-15
1.77e-13
4.39638e-15
1.76516e-13
1.16203e-14
1.76214e-13
5.6221e-15
1.76392e-13
-5.63988e-15
1.77058e-13
-1.34463e-14
1.77653e-13
-1.06476e-14
1.77561e-13
2.78215e-15
1.77143e-13
7.12606e-15
1.76925e-13
2.89385e-15
1.7697e-13
-4.39476e-15
1.77121e-13
-8.39896e-15
1.77242e-13
-8.4681e-15
1.77007e-13
-4.28292e-16
1.76853e-13
-1.64504e-15
-3.57678e-15
3.90239e-12
7.82675e-12
1.48793e-12
1.52859e-11
-1.43445e-12
-7.46673e-12
-6.80114e-13
-2.88615e-11
6.04814e-12
-2.49881e-11
3.89767e-12
1.30863e-11
2.56718e-12
4.64411e-12
1.29408e-12
1.24997e-11
4.12584e-13
4.96551e-12
-3.33449e-15
-7.60622e-13
8.24029e-14
-4.00307e-13
1.84478e-13
1.60339e-12
1.44446e-13
1.46417e-12
1.56266e-13
1.51088e-13
1.88473e-13
2.14018e-14
1.97117e-13
6.50477e-13
1.74453e-13
2.43027e-13
1.59401e-13
1.98432e-14
1.6341e-13
-1.0081e-13
1.72644e-13
5.07771e-14
1.78591e-13
5.60864e-14
1.78818e-13
2.91958e-14
1.77541e-13
3.86855e-14
1.76697e-13
1.79725e-14
1.7628e-13
-7.56575e-16
1.76085e-13
-1.18889e-14
1.7594e-13
-1.68114e-14
1.76815e-13
-1.18402e-14
1.77653e-13
-3.63738e-15
1.77853e-13
-5.61715e-15
1.77342e-13
4.90745e-15
1.76877e-13
1.20844e-14
1.76671e-13
5.82833e-15
1.76859e-13
-5.82747e-15
1.77505e-13
-1.40928e-14
1.78093e-13
-1.1235e-14
1.77995e-13
2.88036e-15
1.77577e-13
7.5442e-15
1.77355e-13
3.11547e-15
1.77374e-13
-4.41338e-15
1.77458e-13
-8.48368e-15
1.77511e-13
-8.52077e-15
1.77218e-13
-1.35399e-16
1.7703e-13
-1.45735e-15
-3.58285e-15
4.27939e-12
3.74736e-12
3.18175e-12
1.63836e-11
-7.49656e-13
-3.53531e-12
-1.71453e-12
-2.78966e-11
-2.55278e-12
-2.41498e-11
1.65967e-12
8.8739e-12
2.37973e-12
3.92406e-12
1.60866e-12
1.32707e-11
5.33787e-13
6.04038e-12
7.9497e-14
-3.06333e-13
9.72085e-14
-4.18018e-13
1.62072e-13
1.53853e-12
1.46211e-13
1.48003e-12
1.6579e-13
1.31509e-13
1.94069e-13
-6.87645e-15
1.93972e-13
6.50574e-13
1.75644e-13
2.61355e-13
1.58407e-13
3.70803e-14
1.56814e-13
-9.92169e-14
1.67941e-13
3.96498e-14
1.763e-13
4.7727e-14
1.78165e-13
2.73312e-14
1.77546e-13
3.93041e-14
1.76814e-13
1.87053e-14
1.76378e-13
-3.20819e-16
1.76136e-13
-1.16474e-14
1.75962e-13
-1.66372e-14
1.76753e-13
-1.26314e-14
1.77578e-13
-4.46168e-15
1.77721e-13
-5.76022e-15
1.77172e-13
5.45647e-15
1.7674e-13
1.25157e-14
1.7659e-13
5.97897e-15
1.76779e-13
-6.01615e-15
1.77401e-13
-1.47151e-14
1.77977e-13
-1.18115e-14
1.77876e-13
2.98114e-15
1.77461e-13
7.95992e-15
1.77233e-13
3.34299e-15
1.77225e-13
-4.40512e-15
1.77241e-13
-8.49967e-15
1.77207e-13
-8.48727e-15
1.76859e-13
2.12676e-16
1.76599e-13
-1.19642e-15
-3.64547e-15
3.41414e-12
5.33225e-13
3.74405e-12
1.60536e-11
1.81672e-12
-1.60799e-12
-2.74338e-12
-2.33365e-11
-2.80222e-12
-2.4091e-11
-6.83337e-13
6.75502e-12
4.10479e-13
2.83024e-12
1.61786e-12
1.20634e-11
6.05222e-13
7.05302e-12
1.1982e-13
1.7907e-13
9.83795e-14
-3.96578e-13
1.49107e-13
1.4878e-12
1.41999e-13
1.48714e-12
1.728e-13
1.00708e-13
1.8862e-13
-2.2697e-14
1.89682e-13
6.49512e-13
1.75544e-13
2.75492e-13
1.62522e-13
5.01029e-14
1.576e-13
-9.4295e-14
1.66415e-13
3.0835e-14
1.75157e-13
3.89846e-14
1.7728e-13
2.52082e-14
1.76912e-13
3.96724e-14
1.76346e-13
1.92716e-14
1.75922e-13
1.0298e-16
1.75641e-13
-1.13669e-14
1.75387e-13
-1.63828e-14
1.76116e-13
-1.33607e-14
1.76893e-13
-5.23838e-15
1.76993e-13
-5.861e-15
1.76459e-13
5.99057e-15
1.76103e-13
1.28723e-14
1.75971e-13
6.11118e-15
1.7615e-13
-6.19574e-15
1.76738e-13
-1.53033e-14
1.77307e-13
-1.23803e-14
1.77202e-13
3.08614e-15
1.76796e-13
8.36611e-15
1.76555e-13
3.58375e-15
1.7653e-13
-4.37946e-15
1.76477e-13
-8.44697e-15
1.76353e-13
-8.36313e-15
1.76071e-13
4.9476e-16
1.75874e-13
-9.99329e-16
-3.54555e-15
3.0853e-13
1.9147e-13
3.12517e-13
-3.98728e-15
3.59111e-13
-4.6594e-14
1.18763e-12
-8.28522e-13
-5.1257e-13
1.7002e-12
5.9963e-13
9.18402e-14
6.17472e-13
-2.18293e-14
6.12664e-13
-4.1787e-14
8.65505e-13
-1.08136e-12
-5.23257e-13
8.76191e-13
6.85937e-13
-9.40965e-14
7.07819e-13
-4.37112e-14
7.1351e-13
-4.7478e-14
4.46092e-13
-8.13945e-13
3.87709e-16
-7.75514e-14
5.98503e-13
-1.926e-13
5.91889e-13
-3.70974e-14
5.84307e-13
-3.98961e-14
1.38929e-13
-3.68566e-13
2.18556e-13
-7.92393e-14
3.074e-13
2.70303e-13
2.30407e-13
-1.3816e-13
8.0396e-14
9.71039e-12
-7.47696e-12
1.44582e-11
1.13058e-11
3.11906e-12
9.73114e-12
-1.13098e-11
-8.90766e-12
-2.02252e-11
-1.51756e-11
-2.94017e-11
1.59315e-11
-8.24945e-12
-1.8322e-11
1.6482e-12
2.1657e-12
1.8516e-12
6.84962e-12
7.97571e-13
1.2331e-12
3.82428e-13
1.85656e-14
4.98568e-13
1.37166e-12
6.63904e-13
1.32181e-12
6.81737e-13
8.28749e-14
6.35523e-13
2.35172e-14
7.7528e-13
5.09755e-13
7.8555e-13
2.65222e-13
7.64476e-13
7.11765e-14
7.18146e-13
-4.79643e-14
7.43165e-13
5.81546e-15
7.70749e-13
1.14011e-14
7.79786e-13
1.61706e-14
7.81279e-13
3.81797e-14
7.80511e-13
2.00397e-14
7.78625e-13
1.98853e-15
7.78654e-13
-1.13956e-14
7.7342e-13
-1.11492e-14
7.77567e-13
-1.75072e-14
7.80491e-13
-8.16296e-15
7.80075e-13
-5.44415e-15
7.78961e-13
7.10479e-15
7.77719e-13
1.41135e-14
7.77397e-13
6.43341e-15
7.77968e-13
-6.76632e-15
7.79934e-13
-1.7269e-14
7.8307e-13
-1.5517e-14
7.82247e-13
3.90982e-15
7.80576e-13
1.00373e-14
7.79214e-13
4.94559e-15
7.78408e-13
-3.57316e-15
7.78014e-13
-8.05343e-15
7.75338e-13
-5.68676e-15
7.75412e-13
4.20419e-16
7.74912e-13
-4.99068e-16
-2.16054e-15
1.05559e-12
-7.65636e-12
2.70598e-12
9.65545e-12
-1.79085e-13
1.26162e-11
6.42223e-12
-1.5509e-11
1.31154e-12
-1.00649e-11
8.30901e-12
8.93404e-12
-3.87238e-13
-9.62573e-12
-9.26461e-13
2.70493e-12
5.31713e-13
5.39145e-12
2.93469e-13
1.47134e-12
-6.82643e-14
3.80299e-13
2.06122e-13
1.09727e-12
5.01994e-13
1.02593e-12
4.72638e-13
1.12231e-13
4.4127e-13
5.48851e-14
6.16017e-13
3.35007e-13
6.92351e-13
1.88889e-13
7.05748e-13
5.77792e-14
6.75552e-13
-1.77677e-14
6.81159e-13
2.07881e-16
6.91271e-13
1.28937e-15
6.96019e-13
1.1423e-14
7.04294e-13
2.99041e-14
7.06989e-13
1.73447e-14
7.07419e-13
1.55885e-15
7.06077e-13
-1.00537e-14
7.03409e-13
-8.4813e-15
7.02697e-13
-1.67948e-14
7.04856e-13
-1.03219e-14
7.02967e-13
-3.55568e-15
7.02578e-13
7.49479e-15
7.04467e-13
1.2224e-14
7.04993e-13
5.90799e-15
7.03085e-13
-4.85809e-15
7.0294e-13
-1.71243e-14
7.02281e-13
-1.48585e-14
7.00127e-13
6.06437e-15
7.005e-13
9.66486e-15
7.00767e-13
4.67816e-15
6.99479e-13
-2.28549e-15
6.97137e-13
-5.71128e-15
6.95077e-13
-3.6265e-15
6.9526e-13
2.3774e-16
6.94992e-13
-2.32037e-16
-9.9033e-16
-3.92613e-12
-3.80778e-12
-2.40034e-12
8.12966e-12
2.18693e-12
8.02893e-12
2.88922e-12
-1.62113e-11
3.04654e-12
-1.02223e-11
3.95267e-12
8.02792e-12
-3.22119e-12
-2.45188e-12
-2.52918e-12
2.01292e-12
-4.38614e-13
3.30088e-12
-2.71048e-13
1.30378e-12
-4.71398e-13
5.8065e-13
-8.98052e-14
7.1568e-13
2.92266e-13
6.43863e-13
3.04355e-13
1.00142e-13
3.13524e-13
4.57154e-14
4.64999e-13
1.83533e-13
5.45077e-13
1.08812e-13
5.67716e-13
3.514e-14
5.56733e-13
-6.78453e-15
5.57239e-13
-2.98068e-16
5.60208e-13
-1.67964e-15
5.66431e-13
5.19959e-15
5.77504e-13
1.88316e-14
5.83799e-13
1.10495e-14
5.83987e-13
1.37126e-15
5.79246e-13
-5.31292e-15
5.77771e-13
-7.00669e-15
5.73148e-13
-1.21714e-14
5.70792e-13
-7.96603e-15
5.67557e-13
-3.20368e-16
5.68684e-13
6.36812e-15
5.72871e-13
8.03719e-15
5.75015e-13
3.76357e-15
5.7333e-13
-3.17277e-15
5.6705e-13
-1.08443e-14
5.61313e-13
-9.12147e-15
5.63495e-13
3.88248e-15
5.66781e-13
6.37908e-15
5.68367e-13
3.09222e-15
5.67264e-13
-1.18211e-15
5.64748e-13
-3.1956e-15
5.63009e-13
-1.88783e-15
5.63074e-13
1.72451e-16
5.62873e-13
-3.09429e-17
-4.72632e-16
-3.06533e-12
-8.21682e-13
8.23944e-13
4.24038e-12
5.46955e-12
3.38333e-12
-5.02395e-12
-5.71775e-12
-9.15677e-12
-6.08944e-12
-4.68956e-12
3.56071e-12
-3.6316e-12
-3.50984e-12
-3.52249e-12
1.9038e-12
-1.54923e-12
1.32762e-12
-9.29636e-13
6.84185e-13
-7.33793e-13
3.84807e-13
-3.1215e-13
2.94037e-13
7.91223e-14
2.52591e-13
1.36981e-13
4.2283e-14
1.67243e-13
1.54535e-14
2.88473e-13
6.23036e-14
3.58792e-13
3.8492e-14
3.80638e-13
1.32944e-14
3.76648e-13
-2.79408e-15
3.76598e-13
-2.47807e-16
3.75953e-13
-1.03495e-15
3.79678e-13
1.47485e-15
3.91667e-13
6.84251e-15
3.98582e-13
4.13446e-15
3.99214e-13
7.38983e-16
3.95688e-13
-1.78683e-15
3.91192e-13
-2.51112e-15
3.83738e-13
-4.71723e-15
3.78753e-13
-2.98051e-15
3.78249e-13
1.83482e-16
3.82025e-13
2.59249e-15
3.87107e-13
2.95565e-15
3.89595e-13
1.27577e-15
3.87562e-13
-1.1402e-15
3.8072e-13
-4.00205e-15
3.74985e-13
-3.38675e-15
3.7729e-13
1.57767e-15
3.81309e-13
2.36009e-15
3.83293e-13
1.10853e-15
3.82496e-13
-3.84969e-16
3.80388e-13
-1.08776e-15
3.79123e-13
-6.23285e-16
3.79201e-13
9.45376e-17
3.7916e-13
9.80131e-18
-1.58926e-16
-7.41286e-13
3.49909e-12
6.88242e-12
1.16467e-12
-4.92478e-12
-1.36407e-12
-4.8739e-12
-2.9701e-12
-1.64248e-12
-9.58291e-13
-5.73485e-13
-2.79447e-13
-2.68564e-14
1.54267e-14
3.08801e-14
9.31837e-14
1.31676e-13
1.4497e-13
1.42176e-13
1.41928e-13
1.40893e-13
1.42368e-13
1.49211e-13
1.53345e-13
1.54084e-13
1.52297e-13
1.49786e-13
1.45069e-13
1.42089e-13
1.42272e-13
1.44865e-13
1.47821e-13
1.49096e-13
1.47956e-13
1.43954e-13
1.40568e-13
1.42145e-13
1.44505e-13
1.45614e-13
1.45229e-13
1.44141e-13
1.43518e-13
1.43612e-13
1.43622e-13
)
;

boundaryField
{
    AirInlet
    {
        type            calculated;
        value           nonuniform List<scalar> 5(-2e-13 -2e-13 -2e-13 -2e-13 -2e-13);
    }
    WaterInlet
    {
        type            calculated;
        value           nonuniform List<scalar> 10(-5e-13 -5e-13 -5e-13 -5e-13 -5e-13 -5e-13 -5e-13 -5e-13 -5e-13 -5e-13);
    }
    ChannelWall
    {
        type            calculated;
        value           uniform 0;
    }
    Outlet
    {
        type            calculated;
        value           nonuniform List<scalar> 
15
(
1.44867e-13
3.8162e-13
5.65706e-13
6.97177e-13
7.7617e-13
1.76113e-13
1.7686e-13
1.77036e-13
1.76661e-13
1.75774e-13
7.73527e-13
6.93822e-13
5.62356e-13
3.78847e-13
1.43463e-13
)
;
    }
    FrontAndBack
    {
        type            empty;
        value           nonuniform 0();
    }
}


// ************************************************************************* //
