/*--------------------------------*- C++ -*----------------------------------*\
| =========                 |                                                 |
| \\      /  F ield         | OpenFOAM: The Open Source CFD Toolbox           |
|  \\    /   O peration     | Version:  2.3.0                                 |
|   \\  /    A nd           | Web:      www.OpenFOAM.org                      |
|    \\/     M anipulation  |                                                 |
\*---------------------------------------------------------------------------*/
FoamFile
{
    version     2.0;
    format      ascii;
    class       surfaceScalarField;
    location    "0.01";
    object      phi;
}
// * * * * * * * * * * * * * * * * * * * * * * * * * * * * * * * * * * * * * //

dimensions      [0 3 -1 0 0 0 0];

internalField   nonuniform List<scalar> 
1380
(
1.33036e-12
6.69635e-13
1.10507e-12
2.25294e-13
1.05703e-12
4.80374e-14
9.09039e-13
1.47995e-13
-1.27465e-14
9.21785e-13
2.40651e-12
2.63124e-13
2.48884e-12
1.42967e-13
2.50521e-12
3.16621e-14
2.28718e-12
3.66028e-13
-1.88951e-13
2.46338e-12
2.67132e-12
-4.08197e-13
2.92849e-12
-1.14199e-13
2.99795e-12
-3.78011e-14
2.88606e-12
4.77914e-13
-3.12011e-13
3.00912e-12
2.34801e-12
-7.56211e-13
2.4306e-12
-1.96782e-13
2.43748e-12
-4.46828e-14
2.59343e-12
3.21966e-13
-5.69618e-13
2.85103e-12
1.24379e-12
1.04701e-12
1.00232e-12
1.32429e-12
7.54673e-13
2.37911e-12
-1.45732e-12
1.06367e-12
1.31543e-12
6.72423e-13
3.9125e-13
5.17992e-13
1.54431e-13
5.56411e-13
-3.84195e-14
7.02895e-13
-1.46484e-13
3.11e-13
3.91895e-13
7.1565e-13
-4.0465e-13
8.63263e-13
-1.47612e-13
8.43656e-13
1.96066e-14
3.41236e-13
5.0242e-13
-9.06693e-14
4.31906e-13
-3.25923e-13
2.35254e-13
2.81679e-13
-6.07602e-13
7.26291e-13
-4.44612e-13
9.29173e-13
-2.02882e-13
1.06156e-12
-1.3239e-13
1.23003e-12
-1.68464e-13
1.11718e-12
1.12844e-13
9.4812e-13
1.69063e-13
8.25042e-13
1.23078e-13
6.11974e-13
2.13068e-13
5.75089e-13
3.68848e-14
4.77675e-13
9.74144e-14
3.02102e-13
1.75573e-13
3.39448e-13
-3.73457e-14
5.72982e-13
-2.33535e-13
4.7295e-13
1.00032e-13
4.02039e-13
7.0911e-14
2.47944e-13
1.54095e-13
2.7706e-13
-2.91162e-14
5.2408e-13
-2.4702e-13
5.28694e-13
-4.61407e-15
6.6307e-13
-1.34376e-13
5.84134e-13
7.89362e-14
5.16033e-13
6.81011e-14
5.36519e-13
-2.04866e-14
6.71433e-13
-1.34914e-13
8.8251e-13
-2.11078e-13
9.41561e-13
-5.9051e-14
9.21395e-13
2.01663e-14
7.88994e-13
1.32401e-13
6.4216e-13
1.46833e-13
5.67821e-13
7.43396e-14
-4.34743e-15
4.52823e-12
-3.52217e-12
2.55651e-12
3.28716e-12
1.356e-12
1.59176e-12
5.36224e-13
9.74207e-13
9.62227e-13
-4.64423e-13
1.44856e-12
-6.32815e-13
8.48546e-13
9.91907e-13
9.34145e-13
-4.9025e-13
1.45151e-12
-6.64977e-13
1.12651e-12
3.44603e-13
7.15477e-13
9.13456e-13
5.78344e-14
1.08955e-12
-2.00624e-13
4.93712e-13
8.30976e-13
-1.6392e-12
1.79742e-12
-1.41105e-12
2.25447e-12
-6.59935e-13
2.52377e-12
-4.0169e-13
2.84321e-12
-4.87904e-13
2.64087e-12
3.15183e-13
2.31229e-12
4.97646e-13
2.00181e-12
4.33561e-13
1.5592e-12
6.55673e-13
1.42559e-12
1.70499e-13
1.18345e-12
3.39552e-13
8.13229e-13
5.45794e-13
8.65167e-13
-8.92836e-14
1.30917e-12
-6.77537e-13
1.27503e-12
1.34167e-13
1.24079e-12
1.05151e-13
1.01556e-12
3.7933e-13
1.05776e-12
-7.13141e-14
1.45293e-12
-6.42192e-13
1.46586e-12
-1.7549e-14
1.63992e-12
-3.08433e-13
1.461e-12
2.57857e-13
1.32798e-12
2.01122e-13
1.37849e-12
-7.09959e-14
1.63428e-12
-3.90707e-13
2.02403e-12
-6.00823e-13
2.18556e-12
-2.20583e-13
2.20177e-12
3.956e-15
1.98875e-12
3.45422e-13
1.69028e-12
4.45306e-13
1.50782e-12
2.56799e-13
3.82007e-14
5.25055e-12
-5.7636e-12
2.27056e-12
6.26715e-12
7.4167e-13
3.12065e-12
6.42776e-13
1.0731e-12
1.2297e-12
-1.05135e-12
1.82533e-12
-1.22845e-12
1.12859e-12
1.68866e-12
1.1108e-12
-4.72468e-13
1.65901e-12
-1.21319e-12
1.65585e-12
3.47768e-13
1.36673e-12
1.20257e-12
5.79556e-13
1.87672e-12
2.82105e-13
7.91163e-13
1.26795e-12
-2.62505e-12
2.24504e-12
-2.38815e-12
2.72288e-12
-1.13777e-12
2.92305e-12
-6.01864e-13
3.53062e-12
-1.09547e-12
3.43439e-12
4.11416e-13
3.18279e-12
7.49244e-13
2.85773e-12
7.58619e-13
2.29676e-12
1.21664e-12
2.12338e-12
3.43878e-13
1.76178e-12
7.01159e-13
1.28569e-12
1.02188e-12
1.38213e-12
-1.85729e-13
2.01005e-12
-1.30545e-12
1.91581e-12
2.28402e-13
1.85299e-12
1.67974e-13
1.65008e-12
5.82241e-13
1.65752e-12
-7.87565e-14
2.14256e-12
-1.12723e-12
2.06424e-12
6.07698e-14
2.33037e-12
-5.74561e-13
2.08863e-12
4.99599e-13
1.89876e-12
3.90985e-13
1.9356e-12
-1.07837e-13
2.20417e-12
-6.59273e-13
2.70272e-12
-1.09937e-12
2.90172e-12
-4.19586e-13
2.98929e-12
-8.36167e-14
2.78258e-12
5.52133e-13
2.44777e-12
7.80118e-13
2.22048e-12
4.84089e-13
1.01206e-13
3.82895e-12
-6.74152e-12
1.47809e-12
8.61801e-12
1.12704e-12
3.4717e-12
2.1156e-12
8.45358e-14
2.11638e-12
-1.05213e-12
2.27538e-12
-1.38745e-12
1.47803e-12
2.48601e-12
1.56985e-12
-5.64295e-13
1.44424e-12
-1.08757e-12
2.25018e-12
-4.58171e-13
1.97674e-12
1.47602e-12
1.14819e-12
2.70527e-12
9.1065e-13
1.02871e-12
1.50992e-12
-3.22431e-12
2.4548e-12
-3.33303e-12
2.73056e-12
-1.41354e-12
2.25361e-12
-1.24907e-13
3.15743e-12
-1.99929e-12
3.34554e-12
2.23304e-13
3.49342e-12
6.0137e-13
3.36444e-12
8.87595e-13
2.77088e-12
1.8102e-12
2.65951e-12
4.55255e-13
2.17379e-12
1.18688e-12
1.69929e-12
1.49639e-12
1.96137e-12
-4.47815e-13
2.84586e-12
-2.18994e-12
2.49556e-12
5.787e-13
2.24989e-12
4.13648e-13
2.15355e-12
6.7858e-13
2.14536e-12
-7.057e-14
2.66729e-12
-1.64916e-12
2.33404e-12
3.94015e-13
2.76263e-12
-1.00315e-12
2.45005e-12
8.12184e-13
2.20942e-12
6.31617e-13
2.19779e-12
-9.62144e-14
2.41605e-12
-8.77531e-13
3.01503e-12
-1.69835e-12
3.16046e-12
-5.65019e-13
3.3056e-12
-2.28751e-13
3.12604e-12
7.31687e-13
2.83252e-12
1.07364e-12
2.66062e-12
6.55992e-13
1.38747e-13
4.95286e-13
-6.48213e-12
2.15602e-12
6.95728e-12
3.43001e-12
2.19772e-12
3.7926e-12
-2.78062e-13
3.61717e-12
-8.76698e-13
3.36682e-12
-1.1371e-12
2.40457e-12
3.44827e-12
2.6792e-12
-8.38924e-13
2.21575e-12
-6.24127e-13
2.40799e-12
-6.50417e-13
1.87963e-12
2.00438e-12
1.59194e-12
2.99296e-12
1.88513e-12
7.35517e-13
2.24679e-12
-3.58598e-12
3.90261e-12
-4.98885e-12
3.32106e-12
-8.31985e-13
4.37232e-13
2.75892e-12
1.51133e-12
-3.07339e-12
2.69692e-12
-9.62292e-13
3.36359e-12
-6.52975e-14
3.48248e-12
7.68706e-13
2.99267e-12
2.30001e-12
2.85275e-12
5.95173e-13
2.38091e-12
1.65872e-12
2.31157e-12
1.56572e-12
2.49924e-12
-6.35485e-13
3.52746e-12
-3.21816e-12
3.00723e-12
1.09894e-12
2.49705e-12
9.2383e-13
2.34763e-12
8.27998e-13
3.02565e-12
-7.48588e-13
3.0415e-12
-1.66502e-12
2.43584e-12
9.9968e-13
2.9842e-12
-1.55152e-12
2.58221e-12
1.21418e-12
2.25081e-12
9.63015e-13
2.21397e-12
-5.93675e-14
2.34907e-12
-1.01264e-12
3.02726e-12
-2.37654e-12
2.9986e-12
-5.36359e-13
3.15853e-12
-3.88681e-13
2.99002e-12
9.00199e-13
2.8209e-12
1.24276e-12
2.81215e-12
6.64744e-13
9.74527e-14
-4.16216e-13
-5.90591e-12
6.27089e-13
5.91398e-12
1.05795e-12
1.76685e-12
1.03299e-12
-2.53097e-13
8.59465e-13
-7.03175e-13
7.39054e-13
-1.01668e-12
7.5987e-13
3.42745e-12
8.14769e-13
-8.93823e-13
6.22762e-13
-4.32119e-13
4.62388e-13
-4.90043e-13
3.0948e-13
2.15729e-12
4.8514e-13
2.8173e-12
5.52001e-13
6.68656e-13
5.97423e-13
-3.6314e-12
8.27616e-13
-5.21904e-12
5.67352e-13
-5.71721e-13
1.07153e-13
3.21912e-12
6.27362e-13
-3.5936e-12
6.91361e-13
-1.02629e-12
7.13935e-13
-8.78719e-14
7.09672e-13
7.72969e-13
7.12288e-13
2.29739e-12
6.48569e-13
6.58893e-13
5.80791e-13
1.7265e-12
5.8065e-13
1.56586e-12
5.56052e-13
-6.10887e-13
5.50081e-13
-3.21219e-12
8.33363e-13
8.15653e-13
7.11786e-13
1.04541e-12
5.7745e-13
9.62334e-13
6.14812e-13
-7.8595e-13
5.42589e-13
-1.59279e-12
4.96525e-13
1.04574e-12
6.91393e-13
-1.74639e-12
5.22963e-13
1.38261e-12
4.45864e-13
1.04011e-12
4.74148e-13
-8.76508e-14
5.0336e-13
-1.04185e-12
5.96969e-13
-2.47015e-12
5.9332e-13
-5.3271e-13
5.82279e-13
-3.77641e-13
5.79089e-13
9.03389e-13
5.87672e-13
1.23417e-12
6.11699e-13
6.40718e-13
7.60585e-14
1.20851e-12
-6.95443e-12
1.4527e-13
6.97722e-12
1.08572e-12
8.26397e-13
1.06982e-12
-2.37196e-13
8.6447e-13
-4.97824e-13
7.57962e-13
-9.10177e-13
8.2747e-13
3.35794e-12
9.01291e-13
-9.67644e-13
6.56667e-13
-1.87495e-13
4.49722e-13
-2.83098e-13
3.41522e-13
2.26549e-12
5.98036e-13
2.56079e-12
5.68307e-13
6.98385e-13
4.6476e-13
-3.52785e-12
4.73382e-13
-5.22766e-12
5.19218e-13
-6.17558e-13
2.36164e-13
3.50218e-12
7.53974e-13
-4.11141e-12
5.0686e-13
-7.79176e-13
6.18847e-13
-1.9986e-13
6.83471e-13
7.08345e-13
7.51054e-13
2.22981e-12
6.27823e-13
7.82124e-13
6.06988e-13
1.74733e-12
5.98666e-13
1.57418e-12
5.54127e-13
-5.66349e-13
5.33441e-13
-3.1915e-12
7.84926e-13
5.64169e-13
7.61249e-13
1.06908e-12
5.91314e-13
1.13227e-12
5.29832e-13
-7.24468e-13
5.18176e-13
-1.58114e-12
5.36811e-13
1.02711e-12
5.8938e-13
-1.79896e-12
4.94362e-13
1.47762e-12
4.18567e-13
1.11591e-12
4.6872e-13
-1.37804e-13
4.87085e-13
-1.06021e-12
5.65208e-13
-2.54827e-12
5.53547e-13
-5.21048e-13
5.24196e-13
-3.48291e-13
5.34558e-13
8.93027e-13
5.69453e-13
1.19928e-12
6.04193e-13
6.05977e-13
5.0568e-14
-1.4749e-12
-5.31953e-12
-1.79347e-13
5.68167e-12
1.09696e-12
-4.49914e-13
1.07247e-12
-2.12701e-13
8.66512e-13
-2.91866e-13
7.9057e-13
-8.34236e-13
9.21814e-13
3.2267e-12
9.85825e-13
-1.03166e-12
6.76648e-13
1.21682e-13
4.62684e-13
-6.91339e-14
4.5526e-13
2.27291e-12
7.01153e-13
2.31489e-12
5.95036e-13
8.04502e-13
3.72462e-13
-3.30528e-12
2.66712e-13
-5.12191e-12
4.68279e-13
-8.19124e-13
3.66118e-13
3.60434e-12
7.26768e-13
-4.47206e-12
2.85427e-15
-5.52621e-14
4.92105e-13
-6.8911e-13
6.30756e-13
5.69694e-13
6.62504e-13
2.19806e-12
6.23026e-13
8.21602e-13
6.20137e-13
1.75022e-12
6.03028e-13
1.59129e-12
5.58279e-13
-5.21599e-13
5.15757e-13
-3.14898e-12
7.23316e-13
3.5661e-13
7.5311e-13
1.03929e-12
5.97157e-13
1.28822e-12
4.62719e-13
-5.90029e-13
5.27699e-13
-1.64612e-12
6.08864e-13
9.45945e-13
6.81961e-13
-1.87205e-12
4.07059e-13
1.75253e-12
3.87283e-13
1.13568e-12
4.6556e-13
-2.16081e-13
4.69011e-13
-1.06366e-12
5.09433e-13
-2.58869e-12
5.05627e-13
-5.17242e-13
4.47812e-13
-2.90476e-13
4.9052e-13
8.50319e-13
5.5094e-13
1.13886e-12
5.94647e-13
5.6227e-13
2.20206e-14
-9.25466e-12
4.09512e-12
5.31626e-14
-3.62615e-12
1.05365e-12
-1.4504e-12
1.05071e-12
-2.09756e-13
8.57063e-13
-9.82215e-14
8.0469e-13
-7.81862e-13
1.08205e-12
2.94934e-12
1.03138e-12
-9.80986e-13
6.78697e-13
4.74364e-13
4.54879e-13
1.54685e-13
6.44998e-13
2.08279e-12
8.02193e-13
2.1577e-12
6.34121e-13
9.72573e-13
5.15671e-13
-3.18683e-12
1.86017e-13
-4.79226e-12
4.78949e-13
-1.11206e-12
4.00956e-13
3.68233e-12
4.22861e-13
-4.49396e-12
-4.3582e-13
8.03419e-13
3.89072e-13
-1.514e-12
5.75778e-13
3.82989e-13
6.03897e-13
2.16994e-12
5.98829e-13
8.2667e-13
6.20524e-13
1.72853e-12
6.58979e-13
1.55284e-12
5.6474e-13
-4.2736e-13
5.2114e-13
-3.10538e-12
6.71422e-13
2.06328e-13
6.94693e-13
1.01602e-12
5.86377e-13
1.39654e-12
4.72341e-13
-4.75993e-13
5.28303e-13
-1.70208e-12
7.60275e-13
7.13973e-13
7.70213e-13
-1.88199e-12
4.32504e-13
2.09024e-12
4.5588e-13
1.11231e-12
4.65474e-13
-2.25674e-13
4.64184e-13
-1.06237e-12
4.33195e-13
-2.5577e-12
4.66231e-13
-5.50278e-13
3.50461e-13
-1.74707e-13
4.55534e-13
7.45247e-13
5.31146e-13
1.06325e-12
5.82921e-13
5.10496e-13
-8.33315e-15
-2.80632e-12
7.06145e-12
3.10135e-13
-6.74261e-12
9.74574e-13
-2.11484e-12
9.97332e-13
-2.32514e-13
8.41878e-13
5.72332e-14
8.06651e-13
-7.46635e-13
1.01895e-12
2.73704e-12
9.27515e-13
-8.89549e-13
6.73072e-13
7.28807e-13
4.93029e-13
3.34728e-13
6.59521e-13
1.9163e-12
8.64807e-13
1.95241e-12
6.90592e-13
1.14679e-12
7.85932e-13
-3.28217e-12
4.51011e-13
-4.45734e-12
5.77744e-13
-1.23879e-12
2.95188e-13
3.96488e-12
-4.99143e-13
-3.69963e-12
-3.78087e-13
6.82363e-13
3.60276e-13
-2.25236e-12
5.34203e-13
2.09062e-13
5.49219e-13
2.15493e-12
5.76223e-13
7.99666e-13
6.27336e-13
1.67741e-12
6.67272e-13
1.5129e-12
6.46587e-13
-4.06675e-13
5.29835e-13
-2.98863e-12
6.35279e-13
1.00884e-13
6.01859e-13
1.04944e-12
5.87439e-13
1.41096e-12
5.88579e-13
-4.77133e-13
5.12652e-13
-1.62615e-12
7.7028e-13
4.56345e-13
7.46409e-13
-1.85812e-12
5.04871e-13
2.33177e-12
5.01535e-13
1.11564e-12
4.90128e-13
-2.14267e-13
4.63539e-13
-1.03578e-12
4.60727e-13
-2.55489e-12
4.54502e-13
-5.44053e-13
2.20869e-13
5.89261e-14
4.31269e-13
5.34848e-13
5.08116e-13
9.86399e-13
5.67194e-13
4.51418e-13
-4.20694e-14
1.24389e-12
7.5611e-13
1.06413e-12
1.79762e-13
9.56875e-13
1.07253e-13
9.17086e-13
3.9789e-14
1.69992e-12
-7.82834e-13
2.35287e-12
4.03244e-13
2.46183e-12
7.08005e-14
2.538e-12
3.10771e-14
3.0164e-12
-4.38607e-13
1.88494e-12
2.83138e-12
2.67345e-12
-2.70211e-13
2.93322e-12
-1.88967e-13
3.11604e-12
-1.5174e-13
3.84052e-12
-1.16308e-12
7.79225e-13
4.94624e-12
2.40408e-12
-6.74292e-13
2.46073e-12
-2.45613e-13
2.49508e-12
-1.86094e-13
2.53734e-12
-1.20535e-12
-3.29396e-13
3.64596e-12
1.32571e-12
1.0801e-12
8.94001e-13
-3.11345e-13
-6.40741e-13
-5.95614e-13
6.87423e-12
5.00638e-13
-7.83886e-12
2.36426e-12
-3.97846e-12
3.4754e-12
-1.34366e-12
3.51486e-12
1.77657e-14
3.12137e-12
-3.53143e-13
4.06941e-12
1.789e-12
3.31909e-12
-1.39223e-13
2.95613e-12
1.09177e-12
2.22849e-12
1.06236e-12
2.90935e-12
1.23544e-12
3.41898e-12
1.44278e-12
3.35202e-12
1.21375e-12
5.25969e-12
-5.18984e-12
8.45812e-12
-7.65576e-12
3.37032e-12
3.849e-12
-1.66026e-12
8.99547e-12
-1.08652e-11
5.50531e-12
3.74357e-13
-1.05572e-11
1.97117e-12
-3.84917e-12
1.91808e-12
2.6215e-13
2.11136e-12
1.96165e-12
2.356e-12
5.55025e-13
2.84277e-12
1.19064e-12
3.11124e-12
1.24443e-12
3.17724e-12
-4.72669e-13
2.39183e-12
-2.20322e-12
2.5244e-12
-3.16896e-14
2.64148e-12
9.32359e-13
2.95545e-12
1.09699e-12
3.29849e-12
-8.20172e-13
2.17473e-12
-5.02391e-13
2.85565e-12
-2.24578e-13
2.44244e-12
-1.44491e-12
2.71977e-12
2.05444e-12
2.68631e-12
1.1491e-12
2.34667e-12
1.25378e-13
2.35593e-12
-1.04505e-12
2.0572e-12
-2.25616e-12
1.84923e-12
-3.36085e-13
1.25652e-12
6.5164e-13
1.5325e-12
2.58866e-13
2.07062e-12
4.48274e-13
2.39356e-12
1.28483e-13
-1.24382e-13
1.8588e-12
7.8468e-12
2.35434e-13
-6.21549e-12
1.15141e-12
-4.89444e-12
2.17371e-12
-2.36595e-12
2.47145e-12
-2.79974e-13
2.23604e-12
-1.17733e-13
2.85577e-12
1.16926e-12
2.53328e-12
1.83268e-13
2.64828e-12
9.7677e-13
2.64895e-12
1.06169e-12
2.8551e-12
1.02929e-12
3.16107e-12
1.13681e-12
3.15062e-12
1.2242e-12
2.90564e-12
-4.94486e-12
6.55721e-12
-1.13073e-11
3.91268e-12
6.49354e-12
-3.5147e-13
1.32596e-11
-1.03593e-12
6.18977e-12
2.11856e-12
-1.37117e-11
1.82134e-12
-3.55195e-12
1.60924e-12
4.74253e-13
2.00266e-12
1.56823e-12
2.35989e-12
1.97796e-13
2.6985e-12
8.52033e-13
3.12275e-12
8.20167e-13
3.06273e-12
-4.12641e-13
2.33736e-12
-1.47784e-12
2.21969e-12
8.5977e-14
2.41452e-12
7.37524e-13
2.80692e-12
7.04592e-13
2.63085e-12
-6.44106e-13
2.23596e-12
-1.07502e-13
2.31108e-12
-2.99696e-13
1.83124e-12
-9.65065e-13
2.48749e-12
1.39819e-12
2.66999e-12
9.66607e-13
2.32955e-12
4.6581e-13
2.17914e-12
-8.94638e-13
1.5542e-12
-1.63122e-12
1.48207e-12
-2.63953e-13
1.36479e-12
7.68921e-13
1.2212e-12
4.02455e-13
1.77313e-12
-1.03655e-13
2.08376e-12
-1.8215e-13
-1.95912e-13
4.32779e-12
8.46525e-12
1.39549e-12
-3.28319e-12
1.15497e-12
-4.65392e-12
1.16364e-12
-2.37463e-12
1.32739e-12
-4.43725e-13
1.28489e-12
-7.52309e-14
1.79135e-12
6.6281e-13
1.79956e-12
1.75054e-13
2.16535e-12
6.10985e-13
2.51594e-12
7.111e-13
2.87266e-12
6.72573e-13
3.23649e-12
7.72972e-13
3.43895e-12
1.02174e-12
2.59288e-12
-4.09879e-12
-1.31123e-12
-7.40323e-12
8.34028e-13
4.34829e-12
3.20293e-12
1.08907e-11
3.89533e-12
5.49738e-12
-1.91834e-12
-7.89801e-12
8.2064e-13
-6.29094e-12
1.11531e-12
1.79585e-13
1.71703e-12
9.6651e-13
1.85129e-12
6.35328e-14
2.25505e-12
4.48267e-13
2.60016e-12
4.75064e-13
2.41641e-12
-2.28893e-13
1.73567e-12
-7.97105e-13
1.67737e-12
1.44271e-13
2.0204e-12
3.94502e-13
2.3186e-12
4.06391e-13
2.03551e-12
-3.61015e-13
1.92189e-12
6.11798e-15
1.84895e-12
-2.26764e-13
1.42232e-12
-5.38433e-13
2.02773e-12
7.92783e-13
2.33055e-12
6.63788e-13
2.15907e-12
6.37293e-13
1.89756e-12
-6.33125e-13
1.34007e-12
-1.07373e-12
1.24183e-12
-1.65719e-13
1.34617e-12
6.6458e-13
1.137e-12
6.1163e-13
1.51274e-12
-4.79397e-13
1.72991e-12
-3.99323e-13
-2.03509e-13
5.36652e-12
6.74469e-12
3.32494e-12
-1.24161e-12
1.59695e-12
-2.92593e-12
5.12307e-13
-1.28998e-12
5.11376e-13
-4.42794e-13
5.2684e-13
-9.06948e-14
9.60165e-13
2.29485e-13
1.0958e-12
3.94171e-14
1.49756e-12
2.09226e-13
1.9471e-12
2.61561e-13
2.37501e-12
2.44662e-13
2.84449e-12
3.03489e-13
3.30699e-12
5.59251e-13
9.25359e-13
-1.71716e-12
-3.31204e-12
-3.16583e-12
-9.78683e-13
2.01493e-12
5.15496e-12
4.75706e-12
7.91339e-12
2.73895e-12
4.54913e-12
-4.53375e-12
4.28467e-13
-2.17027e-12
4.8517e-13
1.22882e-13
1.07685e-12
3.74828e-13
1.14621e-12
-5.82851e-15
1.48152e-12
1.12959e-13
1.72787e-12
2.28719e-13
1.53061e-12
-3.1641e-14
1.05141e-12
-3.17907e-13
1.10977e-12
8.59212e-14
1.37562e-12
1.28642e-13
1.6218e-12
1.60211e-13
1.39785e-12
-1.37064e-13
1.39174e-12
1.22337e-14
1.25816e-12
-9.31904e-14
9.38651e-13
-2.18919e-13
1.4392e-12
2.92233e-13
1.81179e-12
2.912e-13
1.97912e-12
4.69965e-13
1.44425e-12
-9.82625e-14
1.04068e-12
-6.70152e-13
9.65023e-13
-9.00664e-14
1.24098e-12
3.88626e-13
1.2582e-12
5.94406e-13
1.37156e-12
-5.92757e-13
1.28287e-12
-3.1063e-13
-1.13757e-13
6.10395e-12
4.86234e-12
1.93641e-12
6.46425e-13
2.03632e-13
1.12937e-13
3.42422e-13
3.81839e-13
5.91065e-13
8.52626e-13
1.09729e-12
1.40078e-12
1.96003e-12
2.42868e-13
-2.92296e-12
-9.08033e-13
3.84903e-12
6.58798e-12
2.05422e-12
-1.16052e-13
6.82941e-15
3.81658e-13
3.75829e-13
4.88789e-13
7.17508e-13
6.85867e-13
3.6796e-13
4.53881e-13
5.82523e-13
7.42735e-13
6.05671e-13
6.17905e-13
5.24714e-13
3.05795e-13
5.98028e-13
8.89228e-13
1.35919e-12
1.26093e-12
5.90779e-13
5.00713e-13
8.89339e-13
1.48375e-12
8.90988e-13
5.80358e-13
)
;

boundaryField
{
    AirInlet
    {
        type            calculated;
        value           nonuniform List<scalar> 5(-1.6e-13 -1.6e-13 -1.6e-13 -1.6e-13 -1.6e-13);
    }
    WaterInlet
    {
        type            calculated;
        value           nonuniform List<scalar> 10(-2e-12 -2e-12 -2e-12 -2e-12 -2e-12 -2e-12 -2e-12 -2e-12 -2e-12 -2e-12);
    }
    ChannelWall
    {
        type            calculated;
        value           uniform 0;
    }
    Outlet
    {
        type            calculated;
        value           nonuniform List<scalar> 
15
(
5.72169e-13
1.46527e-12
2.15748e-12
2.62308e-12
2.85345e-12
6.33093e-13
6.29683e-13
6.23194e-13
6.13275e-13
6.0093e-13
2.47587e-12
2.15529e-12
1.73751e-12
1.19312e-12
4.66601e-13
)
;
    }
    FrontAndBack
    {
        type            empty;
        value           nonuniform 0();
    }
}


// ************************************************************************* //
