/*--------------------------------*- C++ -*----------------------------------*\
| =========                 |                                                 |
| \\      /  F ield         | OpenFOAM: The Open Source CFD Toolbox           |
|  \\    /   O peration     | Version:  2.3.0                                 |
|   \\  /    A nd           | Web:      www.OpenFOAM.org                      |
|    \\/     M anipulation  |                                                 |
\*---------------------------------------------------------------------------*/
FoamFile
{
    version     2.0;
    format      ascii;
    class       volVectorField;
    location    "0.01";
    object      U;
}
// * * * * * * * * * * * * * * * * * * * * * * * * * * * * * * * * * * * * * //

dimensions      [0 1 -1 0 0 0 0];

internalField   nonuniform List<vector> 
725
(
(0.0499859 0.00703293 -2.74544e-31)
(0.0454606 0.00178046 4.63884e-32)
(0.0538272 -0.000107432 1.23517e-33)
(0.0127018 0.000653292 0)
(0.0686565 -0.00519835 3.62104e-31)
(0.0949909 0.0146626 -1.20758e-30)
(0.0974429 0.00706152 1.83732e-31)
(0.108621 0.00499279 -3.90629e-32)
(0.0414823 0.00250313 0)
(0.131538 -0.0168062 1.44513e-30)
(0.10778 0.0104017 -2.46183e-31)
(0.113451 0.0108629 2.48585e-32)
(0.124417 0.0111943 -1.88352e-31)
(0.0462528 0.00697133 0)
(0.154089 0.00219635 -1.45443e-30)
(0.0952749 0.00379496 1.6475e-30)
(0.0957547 0.0115117 -7.44252e-32)
(0.104781 0.0142869 -7.35313e-31)
(0.0356708 0.00645943 0)
(0.120615 0.0232218 -1.7585e-30)
(0.0494517 0.00222567 1.72444e-30)
(0.0435639 0.00689441 -1.949e-31)
(0.0489845 0.00948088 -3.79302e-31)
(0.0109787 0.00173205 -7.32325e-31)
(0.076078 0.0398498 2.13773e-30)
(0.0418104 0.0269961 0)
(-0.362824 0.321774 0)
(-1.09728 -0.337229 0)
(1.72464 0.025405 0)
(1.38004 0.059057 0)
(1.16153 0.131388 0)
(0.412279 0.120541 0)
(0.213732 0.041775 0)
(0.0858539 0.011055 0)
(0.123071 0.00313977 0)
(0.102718 0.00753505 0)
(0.0633168 0.00511884 0)
(0.0401132 0.002346 0)
(0.0337565 0.000377146 0)
(0.0296883 0.00043919 0)
(0.0214714 0.000872677 0)
(0.0188709 0.000142101 0)
(0.0191647 -7.44658e-05 0)
(0.019981 4.28886e-06 0)
(0.0188921 0.000245772 0)
(0.017133 0.000135836 0)
(0.0163256 4.21614e-05 0)
(0.0158703 5.37035e-05 0)
(0.0155182 3.10123e-05 0)
(0.015431 -5.36679e-06 0)
(0.0155674 -2.02658e-05 0)
(0.0157383 -1.63367e-05 0)
(0.0159203 -1.70261e-05 0)
(0.015948 1.9702e-05 0)
(0.0158885 -1.95999e-06 0)
(0.0158476 1.13013e-05 0)
(0.015715 1.78159e-05 0)
(0.0156104 4.47863e-06 0)
(0.0156258 -7.72881e-06 0)
(0.0157313 -1.27301e-05 0)
(0.01584 -8.33231e-06 0)
(0.0158563 5.66486e-06 0)
(0.0157973 7.33711e-06 0)
(0.0157544 1.93307e-06 0)
(0.0157689 -4.49748e-06 0)
(0.0158512 -1.10106e-05 0)
(0.0159472 -9.79633e-06 0)
(0.0159947 -1.85994e-06 0)
(0.0160104 -5.96926e-07 0)
(0.016095 -1.07771e-05 0)
(0.0138552 0.132361 0)
(-0.435245 0.809269 0)
(0.171148 -1.95604 0)
(2.45549 -0.120586 0)
(1.74973 0.0245564 0)
(1.22559 0.251439 0)
(0.435234 0.344705 0)
(0.189924 0.141407 0)
(0.0805885 0.0180218 0)
(0.183587 -0.0115308 0)
(0.180024 0.0242789 0)
(0.121065 0.0226918 0)
(0.0842293 0.0111918 0)
(0.0756546 0.00347312 0)
(0.0674282 0.00467983 0)
(0.0501849 0.00550922 0)
(0.0455498 0.000603894 0)
(0.0470862 -0.000698423 0)
(0.0493008 -3.01633e-05 0)
(0.0475979 0.0014363 0)
(0.0442366 0.00104235 0)
(0.0425687 0.000455994 0)
(0.0415989 0.000370991 0)
(0.0409021 0.00019747 0)
(0.0407566 -3.91809e-05 0)
(0.0410372 -0.000142509 0)
(0.0413945 -0.000146445 0)
(0.0417965 -0.000120672 0)
(0.0419077 5.3706e-05 0)
(0.0418404 1.02842e-05 0)
(0.0417855 7.65338e-05 0)
(0.0415386 0.000111786 0)
(0.0413293 3.38793e-05 0)
(0.0413601 -5.62826e-05 0)
(0.0415893 -9.62887e-05 0)
(0.0418359 -6.11669e-05 0)
(0.0418864 2.51554e-05 0)
(0.0417697 4.55453e-05 0)
(0.0416813 1.06582e-05 0)
(0.0417168 -4.12568e-05 0)
(0.0418982 -8.03305e-05 0)
(0.0421034 -6.73578e-05 0)
(0.0422043 -2.25491e-05 0)
(0.0422445 -2.45378e-05 0)
(0.0424009 -5.36375e-05 0)
(-0.0671575 0.232372 0)
(-0.168707 0.544826 0)
(1.77386 -3.1171 0)
(2.5196 -0.0957514 0)
(1.05446 0.300072 0)
(1.17944 0.570712 0)
(0.397628 0.606486 0)
(0.176748 0.233425 0)
(0.0964026 0.00636186 0)
(0.198022 -0.0417403 0)
(0.229256 0.0408431 0)
(0.157112 0.045533 0)
(0.105968 0.0216873 0)
(0.0973032 0.0068743 0)
(0.0924371 0.0097327 0)
(0.0725408 0.0125232 0)
(0.0641337 0.00113922 0)
(0.0659407 -0.00204342 0)
(0.0693148 -0.000485345 0)
(0.0682333 0.002926 0)
(0.0646299 0.0022916 0)
(0.0628496 0.00106125 0)
(0.0617278 0.000875708 0)
(0.0609083 0.000384141 0)
(0.0607851 -7.43618e-05 0)
(0.0610703 -0.000308561 0)
(0.0614907 -0.000352688 0)
(0.0619945 -0.000278483 0)
(0.0621483 7.25332e-05 0)
(0.0621205 2.65048e-06 0)
(0.0621175 0.000154735 0)
(0.0618601 0.00023976 0)
(0.061594 7.99246e-05 0)
(0.0616068 -0.000125323 0)
(0.0618883 -0.000225424 0)
(0.0622204 -0.000150049 0)
(0.0622994 4.80024e-05 0)
(0.0621431 0.000102183 0)
(0.062016 2.57247e-05 0)
(0.0620505 -9.68459e-05 0)
(0.0622728 -0.000183426 0)
(0.0625319 -0.000157067 0)
(0.0626525 -5.3025e-05 0)
(0.0626884 -5.82233e-05 0)
(0.0628549 -0.000107562 0)
(-0.126905 0.378123 0)
(-0.406197 0.174889 0)
(-0.50506 -3.18468 0)
(0.236733 0.927166 0)
(-0.776242 0.503798 0)
(-0.813905 0.744395 0)
(0.312938 0.423887 0)
(0.217911 0.268655 0)
(0.113418 0.00121703 0)
(0.119502 -0.0840028 0)
(0.237031 0.0467394 0)
(0.179826 0.0731618 0)
(0.114218 0.0370965 0)
(0.102265 0.00925197 0)
(0.10844 0.0127601 0)
(0.09174 0.0218343 0)
(0.0774165 0.00269215 0)
(0.0766579 -0.00357828 0)
(0.0799186 -0.00139359 0)
(0.0805728 0.00420183 0)
(0.0781373 0.00334585 0)
(0.0770971 0.00155239 0)
(0.0763371 0.00144868 0)
(0.0755685 0.000561568 0)
(0.075409 -9.54171e-05 0)
(0.0756392 -0.000457003 0)
(0.0760493 -0.000607143 0)
(0.0765155 -0.000442879 0)
(0.0766576 8.14091e-05 0)
(0.0767327 -2.48734e-05 0)
(0.0768549 0.000178156 0)
(0.0766869 0.000370718 0)
(0.0763971 0.00015143 0)
(0.0763517 -0.000186128 0)
(0.0766223 -0.000372065 0)
(0.0770049 -0.000263556 0)
(0.0771069 7.73057e-05 0)
(0.0769134 0.000175906 0)
(0.076746 5.2968e-05 0)
(0.0767606 -0.000154659 0)
(0.0769729 -0.000292867 0)
(0.0772378 -0.00026246 0)
(0.0773435 -7.5773e-05 0)
(0.0773442 -8.8534e-05 0)
(0.0774633 -0.000153419 0)
(0.0408947 0.494036 0)
(-0.304966 0.281905 0)
(-1.82519 -1.6897 0)
(-6.00679 0.179819 0)
(0.486679 -0.221402 0)
(0.673949 -0.194268 0)
(0.686475 0.517243 0)
(0.505037 0.427932 0)
(0.185339 0.0816155 0)
(-0.0116809 -0.122586 0)
(0.161712 0.0281168 0)
(0.165977 0.0965996 0)
(0.102893 0.0578225 0)
(0.0858466 0.0094682 0)
(0.106117 0.0102997 0)
(0.103618 0.0318225 0)
(0.0873564 0.00560531 0)
(0.0795038 -0.00227759 0)
(0.0804028 -0.00301533 0)
(0.0845098 0.00428575 0)
(0.0850838 0.00358837 0)
(0.0852585 0.00145811 0)
(0.085179 0.00163976 0)
(0.0848628 0.000687119 0)
(0.0847156 -0.000114642 0)
(0.0848658 -0.000588516 0)
(0.0851381 -0.00083279 0)
(0.0852623 -0.000448982 0)
(0.085398 3.45315e-05 0)
(0.0857634 -0.000166377 0)
(0.0859083 0.00015589 0)
(0.0857202 0.000477346 0)
(0.0854851 0.000220095 0)
(0.0854509 -0.000240149 0)
(0.0857214 -0.000527399 0)
(0.0861549 -0.000401488 0)
(0.0862882 0.000115518 0)
(0.0860652 0.000267082 0)
(0.0858633 9.75651e-05 0)
(0.0858495 -0.000202272 0)
(0.085998 -0.000379794 0)
(0.0862156 -0.000374605 0)
(0.0862695 -6.67366e-05 0)
(0.0861919 -0.000104803 0)
(0.0862409 -0.000175637 0)
(0.0297388 0.567125 0)
(-0.167203 0.619193 0)
(-0.51146 -0.916888 0)
(-4.59292 -1.00867 0)
(3.08756 -0.719444 0)
(-2.40229 0.200174 0)
(0.408903 0.502614 0)
(0.736495 0.507257 0)
(0.264703 0.154356 0)
(-0.0438312 -0.0948885 0)
(-0.00124038 0.0029032 0)
(0.133796 0.093746 0)
(0.0878524 0.0671883 0)
(0.0719729 0.00865585 0)
(0.0936969 0.0051769 0)
(0.104773 0.0336924 0)
(0.0922871 0.00877803 0)
(0.0798865 -0.000572045 0)
(0.0816081 -0.004159 0)
(0.0867515 0.0035011 0)
(0.0885341 0.00331423 0)
(0.0887752 0.00142565 0)
(0.0880636 0.00175862 0)
(0.0874978 0.000789331 0)
(0.0872167 -8.52213e-05 0)
(0.0872107 -0.000611825 0)
(0.0871217 -0.000860282 0)
(0.0872733 -0.000477783 0)
(0.0878205 -7.82e-05 0)
(0.088183 -0.000248549 0)
(0.0881342 0.000191112 0)
(0.0878586 0.00054437 0)
(0.0876277 0.000258975 0)
(0.0875681 -0.000268486 0)
(0.0878116 -0.000622128 0)
(0.0882542 -0.000487506 0)
(0.0884014 0.00013211 0)
(0.0881778 0.000324989 0)
(0.0879811 0.000128324 0)
(0.0879623 -0.000215935 0)
(0.0880451 -0.000408107 0)
(0.0881924 -0.000413166 0)
(0.0881878 -3.87592e-05 0)
(0.0880369 -9.33623e-05 0)
(0.0880566 -0.000178038 0)
(0.189704 0.591531 0)
(0.00309007 0.661758 0)
(-0.112492 -0.660668 0)
(-3.78318 -1.31516 0)
(3.51811 -0.814905 0)
(-1.93591 0.43617 0)
(0.675575 0.252498 0)
(0.785953 0.539927 0)
(0.3318 0.185822 0)
(-0.0414409 -0.0732817 0)
(-0.0663515 -0.00916814 0)
(0.121808 0.0883885 0)
(0.0819701 0.070038 0)
(0.0681191 0.00836906 0)
(0.0880134 0.00344158 0)
(0.103466 0.0334017 0)
(0.0942187 0.0102174 0)
(0.0793148 -5.1203e-05 0)
(0.0811628 -0.00461839 0)
(0.087081 0.00317837 0)
(0.089492 0.00319472 0)
(0.0897848 0.00145652 0)
(0.088793 0.00183126 0)
(0.0881576 0.000833614 0)
(0.0878445 -6.87155e-05 0)
(0.0877907 -0.000608772 0)
(0.0876619 -0.000853382 0)
(0.087799 -0.000522772 0)
(0.0883807 -0.000119075 0)
(0.0887426 -0.000265513 0)
(0.0886408 0.000209131 0)
(0.0883567 0.000569066 0)
(0.0881438 0.000273997 0)
(0.0880816 -0.000277578 0)
(0.0883121 -0.000655875 0)
(0.0887496 -0.000517651 0)
(0.0888955 0.000136891 0)
(0.088669 0.000345866 0)
(0.0884739 0.000139217 0)
(0.0884525 -0.000218991 0)
(0.0885116 -0.0004168 0)
(0.0886264 -0.000421515 0)
(0.0885959 -2.77503e-05 0)
(0.08842 -8.66784e-05 0)
(0.0884302 -0.000178629 0)
(1.15029 0.521443 0)
(1.66393 0.717112 0)
(0.420708 -0.450065 0)
(-1.84194 -1.53841 0)
(3.11333 -1.12845 0)
(0.757094 0.553818 0)
(1.91657 0.179713 0)
(1.02122 0.590274 0)
(0.375903 0.224054 0)
(0.0184114 -0.0490575 0)
(-0.0230566 -0.0188048 0)
(0.107181 0.0824908 0)
(0.076526 0.0723866 0)
(0.0683718 0.00791952 0)
(0.0878398 0.0018028 0)
(0.10183 0.0327773 0)
(0.0939886 0.0116021 0)
(0.0805473 0.000601494 0)
(0.0791344 -0.00498887 0)
(0.0841267 0.00277751 0)
(0.0885723 0.00297834 0)
(0.0898274 0.00147541 0)
(0.0890613 0.00190612 0)
(0.0885098 0.000878612 0)
(0.08819 -4.8873e-05 0)
(0.0880965 -0.000599942 0)
(0.0879569 -0.000845717 0)
(0.0880748 -0.000569472 0)
(0.0886588 -0.000161054 0)
(0.0890098 -0.000277089 0)
(0.0888326 0.000231997 0)
(0.0885252 0.000592901 0)
(0.0883532 0.000286766 0)
(0.0883179 -0.000286597 0)
(0.0885395 -0.000688699 0)
(0.0889698 -0.000546958 0)
(0.0891139 0.000141582 0)
(0.0888853 0.000366759 0)
(0.0886915 0.000150084 0)
(0.0886652 -0.000220604 0)
(0.0887016 -0.000422681 0)
(0.0887752 -0.000426189 0)
(0.0887127 -1.42308e-05 0)
(0.0885154 -7.77986e-05 0)
(0.0885174 -0.000179415 0)
(1.08764 0.318802 0)
(2.60878 0.796614 0)
(0.884499 -0.27328 0)
(-1.11443 -1.46446 0)
(-1.57978 -1.18722 0)
(-0.0517334 0.5343 0)
(1.25089 0.194568 0)
(1.21965 0.638008 0)
(0.448054 0.276559 0)
(0.0669872 -0.0261628 0)
(0.007514 -0.0216103 0)
(0.092842 0.0782496 0)
(0.0719479 0.0738196 0)
(0.0731113 0.0070851 0)
(0.09176 0.000258478 0)
(0.101541 0.0325243 0)
(0.0933465 0.0126723 0)
(0.0816212 0.0014231 0)
(0.0770811 -0.00505771 0)
(0.0807188 0.00226421 0)
(0.0869181 0.00261073 0)
(0.0891864 0.00142283 0)
(0.0889274 0.00195486 0)
(0.0885599 0.000918402 0)
(0.0882535 -2.74613e-05 0)
(0.0881302 -0.000588121 0)
(0.0879809 -0.000838667 0)
(0.0880592 -0.00061183 0)
(0.0886238 -0.000202731 0)
(0.0889658 -0.000285226 0)
(0.0887453 0.000259176 0)
(0.0884409 0.00061533 0)
(0.0883032 0.000295711 0)
(0.0882846 -0.000296065 0)
(0.0884926 -0.000720433 0)
(0.0889124 -0.000575712 0)
(0.0890548 0.000146473 0)
(0.0888267 0.000387627 0)
(0.0886345 0.000161186 0)
(0.0886007 -0.000220956 0)
(0.088617 -0.000425073 0)
(0.0886384 -0.000427013 0)
(0.0885383 2.38938e-06 0)
(0.0883301 -6.64351e-05 0)
(0.0883202 -0.000181324 0)
(0.442658 0.0453623 0)
(2.76422 0.802034 0)
(1.23154 -0.114463 0)
(0.0128867 -1.13475 0)
(-2.19924 -1.24583 0)
(-0.673175 0.456668 0)
(-0.325217 0.212682 0)
(1.13993 0.647803 0)
(0.464637 0.33168 0)
(0.0967833 -0.00186441 0)
(0.0213969 -0.0210394 0)
(0.081062 0.07544 0)
(0.0687808 0.0743493 0)
(0.0759574 0.00585142 0)
(0.0913325 -0.000892153 0)
(0.0983088 0.0324572 0)
(0.0923155 0.0135008 0)
(0.0835346 0.00220137 0)
(0.078242 -0.00487804 0)
(0.0801531 0.00175164 0)
(0.0862632 0.00217425 0)
(0.0886908 0.00132031 0)
(0.0885906 0.00197886 0)
(0.0883117 0.000951107 0)
(0.0880328 -5.21628e-06 0)
(0.0878932 -0.000576165 0)
(0.0877253 -0.000825303 0)
(0.0877493 -0.00065193 0)
(0.0882857 -0.000242718 0)
(0.0886128 -0.000290986 0)
(0.0883774 0.000286167 0)
(0.0881034 0.000635653 0)
(0.0879933 0.000302733 0)
(0.0879794 -0.000305577 0)
(0.0881694 -0.000750944 0)
(0.0885749 -0.000605283 0)
(0.0887167 0.000151576 0)
(0.0884934 0.000408359 0)
(0.0883037 0.000173165 0)
(0.0882591 -0.000219905 0)
(0.0882595 -0.000424742 0)
(0.0882269 -0.000421875 0)
(0.0881162 1.79262e-05 0)
(0.0879614 -5.48333e-05 0)
(0.0878905 -0.000180394 0)
(0.0545604 -0.00348707 0)
(0.0301139 -0.00547184 3.68758e-31)
(0.101438 -0.0214238 -9.64064e-31)
(-0.0572631 -0.0101682 -1.92975e-30)
(0.443246 -0.107607 0)
(0.104112 -0.00540816 0)
(0.0745086 -0.011338 0)
(0.164329 -0.0259939 0)
(-0.0677595 -0.0478404 -2.37591e-30)
(0.36817 -0.0872817 0)
(0.117809 -0.0118641 0)
(0.0892492 -0.0106142 0)
(0.180712 -0.0202354 0)
(-0.0630173 -0.0432435 -2.08971e-30)
(0.236622 -0.0335362 0)
(0.104093 -0.0156231 0)
(0.0731338 -0.00672954 0)
(0.158144 -0.011948 0)
(-0.0689539 -0.025523 8.60488e-31)
(0.141911 0.00332322 0)
(0.0555007 -0.00703476 0)
(0.0271069 -0.00183468 0)
(0.0909026 -0.00155257 0)
(-0.0715256 -0.00684618 2.80495e-31)
(0.0772037 0.00700785 0)
(-0.0901903 -0.237838 0)
(2.15042 0.749396 0)
(1.0876 0.277668 0)
(-0.544043 -0.648005 0)
(-1.99925 -0.987037 0)
(-3.8102 0.117398 0)
(-1.48246 -0.349994 0)
(0.251865 0.394394 0)
(0.181477 0.393554 0)
(0.132796 0.0505317 0)
(0.034002 -0.0122221 0)
(0.0549838 0.0713812 0)
(0.0646669 0.0735816 0)
(0.0754046 0.00307671 0)
(0.0705919 -0.00158864 0)
(0.0795523 0.0309546 0)
(0.087595 0.0149447 0)
(0.0866785 0.00374885 0)
(0.0812538 -0.00379782 0)
(0.0801572 0.000577218 0)
(0.0845653 0.00102983 0)
(0.0865563 0.00101506 0)
(0.0868028 0.00200978 0)
(0.0867982 0.00102479 0)
(0.0866329 6.56536e-05 0)
(0.0864935 -0.000560717 0)
(0.0862354 -0.000720973 0)
(0.0860735 -0.000782753 0)
(0.0865371 -0.000343806 0)
(0.0868147 -0.000300389 0)
(0.0866107 0.000346628 0)
(0.0864528 0.000690057 0)
(0.0863989 0.000321137 0)
(0.0863853 -0.000334395 0)
(0.0865115 -0.000833533 0)
(0.0868669 -0.000702559 0)
(0.0870158 0.000162967 0)
(0.0868216 0.000465941 0)
(0.0866427 0.000214179 0)
(0.0865396 -0.000209511 0)
(0.0864758 -0.000424105 0)
(0.0862933 -0.000373813 0)
(0.0861462 3.92793e-05 0)
(0.0861302 -2.98933e-05 0)
(0.0859505 -0.000157165 0)
(-0.217409 -0.425744 0)
(0.413849 0.578999 0)
(0.229901 0.627237 0)
(-0.189917 -0.64686 0)
(0.860234 -0.721555 0)
(0.619125 0.849557 0)
(0.0493177 -0.849724 0)
(-0.18245 -0.0184627 0)
(0.0245936 0.317018 0)
(0.0778495 0.0736496 0)
(-0.0177658 0.0129843 0)
(0.00420897 0.063511 0)
(0.0468318 0.0604587 0)
(0.0581501 0.00506329 0)
(0.0453642 0.00300214 0)
(0.0588872 0.0214893 0)
(0.074357 0.0115888 0)
(0.0789167 0.00350033 0)
(0.0763505 -0.00135496 0)
(0.0747127 5.11245e-05 0)
(0.0763809 0.00016671 0)
(0.0771894 0.000669291 0)
(0.0778525 0.0017549 0)
(0.0784991 0.000976343 0)
(0.0786603 0.000106494 0)
(0.0785191 -0.000557166 0)
(0.0783146 -0.000476115 0)
(0.0780597 -0.00088937 0)
(0.0781783 -0.000504156 0)
(0.0782511 -0.000250234 0)
(0.0780393 0.000380616 0)
(0.0781489 0.000688143 0)
(0.0783464 0.000325078 0)
(0.0782755 -0.00030681 0)
(0.0781042 -0.000912681 0)
(0.0780225 -0.000810281 0)
(0.0779001 0.000265154 0)
(0.0778184 0.000522857 0)
(0.0778691 0.000261296 0)
(0.0778241 -0.000147433 0)
(0.0775963 -0.0003534 0)
(0.0773139 -0.000228207 0)
(0.0772222 1.56879e-05 0)
(0.0772579 -1.60887e-05 0)
(0.0770932 -7.28902e-05 0)
(-0.278006 -0.257158 0)
(-0.500046 0.44218 0)
(-0.00118206 0.525926 0)
(0.455224 -0.916289 0)
(-0.0312086 -0.602763 0)
(0.840106 0.45963 0)
(-0.3142 -0.227982 0)
(-0.353661 0.129001 0)
(-0.118047 0.219864 0)
(-0.00408656 0.0740546 0)
(-0.0632584 0.0270174 0)
(-0.0396136 0.0456887 0)
(0.022491 0.041981 0)
(0.0378029 0.00579857 0)
(0.0293755 0.00292692 0)
(0.0442245 0.0126518 0)
(0.0574733 0.0073025 0)
(0.0628877 0.00238678 0)
(0.062419 -0.000471504 0)
(0.0616042 -2.03858e-05 0)
(0.062067 -5.98082e-05 0)
(0.0624964 0.000410248 0)
(0.0635816 0.00124036 0)
(0.0646564 0.00072796 0)
(0.0649956 6.97365e-05 0)
(0.0646458 -0.000399675 0)
(0.0643124 -0.000407318 0)
(0.0639105 -0.000760883 0)
(0.063505 -0.000498531 0)
(0.0632041 -8.04067e-05 0)
(0.0630439 0.00037422 0)
(0.0634194 0.000527798 0)
(0.0638575 0.000252102 0)
(0.0638911 -0.000205384 0)
(0.063373 -0.000738454 0)
(0.0626019 -0.000629094 0)
(0.0624032 0.000282535 0)
(0.0627835 0.000425789 0)
(0.0631202 0.0002056 0)
(0.0631476 -8.44135e-05 0)
(0.0628871 -0.000221383 0)
(0.0626114 -0.000132884 0)
(0.0625449 1.05854e-05 0)
(0.0625745 -5.12511e-06 0)
(0.0624844 -3.11871e-05 0)
(-0.187508 -0.0968232 0)
(-0.365051 0.324802 0)
(0.481929 0.270174 0)
(0.645606 -0.508719 0)
(-1.51804 -0.373127 0)
(-0.594035 0.295614 0)
(-0.461163 -0.0196238 0)
(-0.436076 0.10977 0)
(-0.252361 0.106134 0)
(-0.121342 0.0565237 0)
(-0.0978355 0.0299227 0)
(-0.0651385 0.0256077 0)
(-0.00150991 0.0220682 0)
(0.0168383 0.0038188 0)
(0.0132941 0.00155899 0)
(0.0265 0.00570847 0)
(0.0367737 0.00348105 0)
(0.0419369 0.00119476 0)
(0.0421622 -0.000194718 0)
(0.0417539 -2.02747e-05 0)
(0.0417414 -9.33695e-05 0)
(0.0418326 0.000143308 0)
(0.0428691 0.000618255 0)
(0.0440333 0.000371503 0)
(0.0444435 5.72996e-05 0)
(0.0441845 -0.000163522 0)
(0.0437559 -0.000247409 0)
(0.0430555 -0.000428093 0)
(0.0422983 -0.000276661 0)
(0.041977 2.7764e-05 0)
(0.0421535 0.000237517 0)
(0.0427418 0.000271486 0)
(0.0432387 0.000120443 0)
(0.0432883 -0.000106865 0)
(0.0427168 -0.000365624 0)
(0.0418623 -0.00030334 0)
(0.0416838 0.000136356 0)
(0.0421533 0.000214587 0)
(0.0425399 0.000102312 0)
(0.0425956 -3.62794e-05 0)
(0.0423775 -9.97755e-05 0)
(0.0421612 -5.68713e-05 0)
(0.0421193 7.61619e-06 0)
(0.0421437 1.27972e-07 0)
(0.0420944 -1.31661e-05 0)
(-0.0921609 -0.00991162 0)
(0.00625054 0.10506 0)
(0.604712 0.0804391 0)
(0.748795 -0.0567456 0)
(-0.503898 -0.0911882 0)
(-0.167339 0.0717152 0)
(-0.488557 -0.178179 0)
(-0.327251 0.0422288 0)
(-0.246995 0.0244157 0)
(-0.141292 0.0157071 0)
(-0.0820294 0.00887633 0)
(-0.049472 0.00477354 0)
(-0.0103759 0.00406384 0)
(0.00282611 0.000567123 0)
(0.00070215 -1.78052e-05 0)
(0.00727064 0.000873519 0)
(0.0128324 0.000575402 0)
(0.0158427 0.000191085 0)
(0.0160228 -6.61602e-05 0)
(0.0157702 6.7978e-06 0)
(0.0156783 -2.23097e-05 0)
(0.0156546 5.43658e-06 0)
(0.0161988 0.000106928 0)
(0.0168688 6.01865e-05 0)
(0.0171331 1.32415e-05 0)
(0.0170398 -2.4201e-05 0)
(0.01681 -2.75188e-05 0)
(0.0163826 -7.18321e-05 0)
(0.0159108 -4.1827e-05 0)
(0.01575 3.87629e-06 0)
(0.0159192 4.0116e-05 0)
(0.0162719 4.14663e-05 0)
(0.0165374 1.63446e-05 0)
(0.0165564 -1.36817e-05 0)
(0.016233 -5.87797e-05 0)
(0.0157461 -5.41182e-05 0)
(0.0156531 3.13018e-05 0)
(0.0159308 3.47129e-05 0)
(0.016146 1.51525e-05 0)
(0.0161801 -5.43401e-06 0)
(0.0160736 -1.56306e-05 0)
(0.0159674 -8.99815e-06 0)
(0.0159482 2.79216e-06 0)
(0.0159618 7.31067e-07 0)
(0.0159407 -2.52933e-06 0)
)
;

boundaryField
{
    AirInlet
    {
        type            fixedValue;
        value           uniform (0.1 0 0);
    }
    WaterInlet
    {
        type            fixedValue;
        value           uniform (0.1 0 0);
    }
    ChannelWall
    {
        type            fixedValue;
        value           uniform (0 0 0);
    }
    Outlet
    {
        type            pressureInletOutletVelocity;
        value           nonuniform List<vector> 
15
(
(0.016095 -1.07771e-05 0)
(0.0424009 -5.36375e-05 0)
(0.0628549 -0.000107562 0)
(0.0774633 -0.000153419 0)
(0.0862409 -0.000175637 0)
(0.0880566 -0.000178038 0)
(0.0884302 -0.000178629 0)
(0.0885174 -0.000179415 0)
(0.0883202 -0.000181324 0)
(0.0878905 -0.000180394 0)
(0.0859505 -0.000157165 0)
(0.0770932 -7.28902e-05 0)
(0.0624844 -3.11871e-05 0)
(0.0420944 -1.31661e-05 0)
(0.0159407 -2.52933e-06 0)
)
;
    }
    FrontAndBack
    {
        type            empty;
    }
}


// ************************************************************************* //
