/*--------------------------------*- C++ -*----------------------------------*\
| =========                 |                                                 |
| \\      /  F ield         | OpenFOAM: The Open Source CFD Toolbox           |
|  \\    /   O peration     | Version:  2.3.0                                 |
|   \\  /    A nd           | Web:      www.OpenFOAM.org                      |
|    \\/     M anipulation  |                                                 |
\*---------------------------------------------------------------------------*/
FoamFile
{
    version     2.0;
    format      ascii;
    class       volScalarField;
    location    "2.2e-05";
    object      k;
}
// * * * * * * * * * * * * * * * * * * * * * * * * * * * * * * * * * * * * * //

dimensions      [0 2 -2 0 0 0 0];

internalField   nonuniform List<scalar> 
7500
(
9.9983594e-06
9.9997766e-06
1.0000635e-05
9.9996388e-06
9.9975299e-06
9.995188e-06
9.9933549e-06
9.9925104e-06
9.993573e-06
9.9951141e-06
9.9956882e-06
9.9961641e-06
9.9971914e-06
9.9986815e-06
1.0001224e-05
1.0005311e-05
1.0007493e-05
1.001094e-05
1.0013492e-05
1.0016492e-05
1.0020166e-05
1.0027485e-05
1.0036284e-05
1.0044805e-05
1.0050676e-05
1.0053893e-05
1.0056692e-05
1.0063128e-05
1.0075154e-05
1.0094599e-05
1.0112577e-05
1.0134659e-05
1.0147913e-05
1.0158846e-05
1.0165586e-05
1.0168962e-05
1.0170316e-05
1.0171758e-05
1.0173669e-05
1.0177591e-05
1.0186795e-05
1.0193e-05
1.0204777e-05
1.0211799e-05
1.022649e-05
1.0228581e-05
1.0234349e-05
1.0238753e-05
1.0242022e-05
1.0248538e-05
1.0260921e-05
1.0270742e-05
1.0276489e-05
1.0286548e-05
1.0300665e-05
1.0319954e-05
1.0339612e-05
1.0363503e-05
1.0418424e-05
1.0442806e-05
1.0500764e-05
1.0556368e-05
1.0616407e-05
1.0657734e-05
1.0732962e-05
1.0785712e-05
1.0888238e-05
1.0958691e-05
1.1103055e-05
1.1198486e-05
1.1389449e-05
1.1507818e-05
1.1746167e-05
1.189755e-05
1.2297073e-05
9.9990643e-06
9.9975861e-06
9.9964172e-06
9.9958985e-06
9.9947094e-06
9.994346e-06
9.9934674e-06
9.9931895e-06
9.9928676e-06
9.9931343e-06
9.9937613e-06
9.9947925e-06
9.9964243e-06
9.9971793e-06
9.9985149e-06
1.0000061e-05
1.0002955e-05
1.0007393e-05
1.0016738e-05
1.0026374e-05
1.0045201e-05
1.0063778e-05
1.0082883e-05
1.0099071e-05
1.0110003e-05
1.0121243e-05
1.0129882e-05
1.014503e-05
1.0152721e-05
1.0165355e-05
1.017135e-05
1.0180672e-05
1.019077e-05
1.0202431e-05
1.0215563e-05
1.0224147e-05
1.0235095e-05
1.0242909e-05
1.0253305e-05
1.0263347e-05
1.0278145e-05
1.029194e-05
1.0314345e-05
1.0337822e-05
1.0369749e-05
1.0417725e-05
1.0479584e-05
1.0534795e-05
1.0604535e-05
1.0719699e-05
1.0801603e-05
1.09359e-05
1.1057065e-05
1.1269118e-05
1.1434776e-05
1.1704671e-05
1.1944563e-05
1.2234135e-05
1.2636607e-05
1.2936658e-05
1.3488606e-05
1.3841254e-05
1.4409209e-05
1.4944909e-05
1.5730895e-05
1.6365372e-05
1.7373074e-05
1.8055887e-05
1.9318614e-05
2.0050395e-05
2.132025e-05
2.217161e-05
2.3626168e-05
2.4656869e-05
2.7217252e-05
1.0000825e-05
1.0001832e-05
1.0003886e-05
1.0005874e-05
1.0009348e-05
1.0012459e-05
1.0016498e-05
1.0020131e-05
1.0024939e-05
1.0028385e-05
1.0032755e-05
1.0035879e-05
1.0039656e-05
1.0043003e-05
1.0048442e-05
1.0056101e-05
1.0072167e-05
1.0091083e-05
1.0133312e-05
1.0172112e-05
1.0253058e-05
1.032625e-05
1.0414466e-05
1.0490503e-05
1.0546367e-05
1.0599695e-05
1.0623934e-05
1.0657661e-05
1.0675191e-05
1.0700578e-05
1.0720049e-05
1.0752437e-05
1.0791325e-05
1.0852549e-05
1.0958306e-05
1.1043686e-05
1.1179385e-05
1.1295255e-05
1.1481825e-05
1.1658577e-05
1.1961076e-05
1.2238911e-05
1.2728627e-05
1.3156367e-05
1.3861852e-05
1.457921e-05
1.5641636e-05
1.6525096e-05
1.7789131e-05
1.9518606e-05
2.0812305e-05
2.3004798e-05
2.4928062e-05
2.8234531e-05
3.0681347e-05
3.4735168e-05
3.8133922e-05
4.2592705e-05
4.8092174e-05
5.2208831e-05
5.9391328e-05
6.4079706e-05
7.1398493e-05
7.9276149e-05
8.8017105e-05
9.6226339e-05
0.00010785602
0.00011588904
0.00012969585
0.00013760119
0.00015011425
0.00015894721
0.00017275687
0.00018348073
0.00020901742
1.0021758e-05
1.0042136e-05
1.0079863e-05
1.0107431e-05
1.0144274e-05
1.0174684e-05
1.0202627e-05
1.0226651e-05
1.0251382e-05
1.0269761e-05
1.0289525e-05
1.0301798e-05
1.0317136e-05
1.0329642e-05
1.0355061e-05
1.0386672e-05
1.0460043e-05
1.0530789e-05
1.0693108e-05
1.0824016e-05
1.1103258e-05
1.1332995e-05
1.1652939e-05
1.1923095e-05
1.2141817e-05
1.2384245e-05
1.2509554e-05
1.2715153e-05
1.2863037e-05
1.3130489e-05
1.3396877e-05
1.3911136e-05
1.4439374e-05
1.5326892e-05
1.6552484e-05
1.777162e-05
1.9891804e-05
2.1788318e-05
2.5030397e-05
2.7964156e-05
3.3131748e-05
3.7541161e-05
4.5393271e-05
5.1808492e-05
6.3297511e-05
7.2537004e-05
8.8094276e-05
0.00010029319
0.00011894007
0.00013953881
0.0001564416
0.00018627654
0.0002103385
0.00025098309
0.00027991378
0.00032903861
0.00037227288
0.00042102046
0.00048435727
0.00053027059
0.00060844677
0.00065924514
0.00074260827
0.00081932013
0.0009095905
0.00099376378
0.0011111376
0.0011902603
0.0013196446
0.0013936262
0.0015054771
0.001584987
0.0017067437
0.0018044041
0.002034532
1.0103829e-05
1.029123e-05
1.0455238e-05
1.0677031e-05
1.0804919e-05
1.0981415e-05
1.1061346e-05
1.1180961e-05
1.1257711e-05
1.1327112e-05
1.1390282e-05
1.1418063e-05
1.1455132e-05
1.1482255e-05
1.155854e-05
1.164656e-05
1.1850354e-05
1.2022966e-05
1.241837e-05
1.2729026e-05
1.3421444e-05
1.391299e-05
1.4919204e-05
1.5682721e-05
1.6685225e-05
1.802687e-05
1.9215059e-05
2.1428487e-05
2.3588862e-05
2.7732538e-05
3.174157e-05
3.9592951e-05
4.697676e-05
6.0758299e-05
7.469802e-05
9.1933956e-05
0.0001219997
0.00014616476
0.00018849018
0.00022544482
0.00029062294
0.00034311931
0.00043655001
0.00050989633
0.00064325024
0.00074269696
0.0009152092
0.0010406905
0.0012479383
0.0014341254
0.0016137522
0.0019266332
0.0021457745
0.0025174811
0.0027827365
0.0032420803
0.0036634345
0.0040442321
0.0046149749
0.0050023031
0.0056527697
0.0060680533
0.0067740245
0.0073197752
0.0080626056
0.0087028853
0.0096018282
0.010236146
0.011150222
0.011689146
0.012488396
0.013041682
0.013898191
0.014580072
0.016198609
1.0231763e-05
1.1182032e-05
1.1588296e-05
1.2479924e-05
1.274315e-05
1.3376011e-05
1.3585595e-05
1.4089589e-05
1.4302389e-05
1.4663475e-05
1.4849327e-05
1.4916091e-05
1.5004761e-05
1.5066133e-05
1.520656e-05
1.5401169e-05
1.5733369e-05
1.6147491e-05
1.6997732e-05
1.8038563e-05
2.022536e-05
2.2552601e-05
2.7341116e-05
3.2288072e-05
4.169749e-05
5.3270336e-05
6.8201607e-05
9.5847448e-05
0.00012309731
0.00017484714
0.00022314977
0.00031750747
0.00040109436
0.00056165938
0.00069746568
0.00092186488
0.0012044829
0.0014392515
0.0018745806
0.0022288212
0.0028453016
0.0033126413
0.0041503239
0.0047859644
0.0059414321
0.0067498087
0.0081836853
0.0091681399
0.010881484
0.012120426
0.013732966
0.015909381
0.017423955
0.020073007
0.021933794
0.025124021
0.02808599
0.030323885
0.034176429
0.036601052
0.040631121
0.04314582
0.047453351
0.050448637
0.054875779
0.058514136
0.063624182
0.067478918
0.07230566
0.075400253
0.079591784
0.082493462
0.08710008
0.090662458
0.09915772
1.0384994e-05
1.2279756e-05
1.2999368e-05
1.5029516e-05
1.5902788e-05
1.8345321e-05
1.9421437e-05
2.1922062e-05
2.2845653e-05
2.486827e-05
2.5018987e-05
2.5337983e-05
2.5419809e-05
2.5632979e-05
2.6065992e-05
2.6941586e-05
2.8574554e-05
3.1510245e-05
3.7578973e-05
4.6667392e-05
6.5923807e-05
8.8994229e-05
0.00013757223
0.00018981486
0.00029778763
0.000406672
0.00059566186
0.00086707096
0.0011405433
0.0016528181
0.0021112583
0.002993489
0.003726823
0.0051394371
0.0062528056
0.0082614831
0.010147362
0.01208381
0.015634732
0.018052612
0.022286157
0.025484239
0.031284529
0.035425598
0.042858627
0.047843002
0.056818283
0.062686824
0.073076223
0.079617889
0.090292935
0.10078829
0.10895342
0.12362163
0.13367782
0.1493275
0.16467479
0.17541923
0.1944919
0.20584641
0.22457905
0.23603954
0.25547763
0.26853472
0.28720347
0.30408449
0.32567709
0.34379501
0.36332015
0.37737332
0.39409046
0.40601801
0.42526047
0.43997852
0.47455583
1.0139296e-05
1.1566091e-05
1.2594163e-05
1.5540829e-05
1.7822041e-05
2.2423188e-05
2.5666547e-05
3.0785863e-05
3.3443896e-05
3.8840129e-05
4.0911412e-05
4.5443198e-05
4.7275623e-05
5.1140667e-05
5.6778053e-05
6.7704947e-05
8.8308796e-05
0.00012241745
0.00019406898
0.00028840417
0.00049111888
0.00071865619
0.0012037283
0.0016882259
0.002707997
0.0036392283
0.0055131917
0.0072304907
0.0097698741
0.013609706
0.017020375
0.023247025
0.028240742
0.037753381
0.044758613
0.057855021
0.067457456
0.081985695
0.09978422
0.11286117
0.1365353
0.15367861
0.18328365
0.20369898
0.24016962
0.26423562
0.30727736
0.33406706
0.38133213
0.41004067
0.46135344
0.49595691
0.53940685
0.5984149
0.6391822
0.69728442
0.7599882
0.802492
0.87598448
0.91780441
0.98750986
1.0306159
1.1018972
1.150366
1.2136314
1.2829972
1.3570257
1.4340545
1.4972393
1.553869
1.6140999
1.6600386
1.7324582
1.788276
1.9163733
1.0441477e-05
1.2439086e-05
1.3982092e-05
1.6031813e-05
1.8883086e-05
2.0669342e-05
2.4093183e-05
2.8063858e-05
3.250695e-05
4.0844128e-05
4.8610604e-05
6.4110822e-05
8.393953e-05
0.00012251239
0.00018743198
0.0003112997
0.00053409976
0.00087028107
0.0015776219
0.0024084928
0.0041989257
0.0060361757
0.0099482513
0.013524795
0.021058975
0.027312876
0.04017751
0.050178293
0.070102457
0.085677463
0.1106781
0.14042527
0.17049367
0.21741769
0.25236405
0.31516985
0.35784001
0.433977
0.4920553
0.56988327
0.65709573
0.74065472
0.8426755
0.94125715
1.0753432
1.1733254
1.3345986
1.4359719
1.6137876
1.7204976
1.9105265
2.0218091
2.2167826
2.3727126
2.5336599
2.7477971
2.947332
3.1090944
3.3646974
3.5124639
3.7619914
3.9260862
4.1901994
4.3688965
4.595978
4.8801195
5.1608356
5.4691761
5.6796064
5.9349958
6.1743413
6.387214
6.7089472
6.9573197
7.4899823
1.1777231e-05
2.1480048e-05
2.4687468e-05
3.3285465e-05
3.5909021e-05
4.1804868e-05
4.5421548e-05
4.8458537e-05
5.5326387e-05
7.1730593e-05
0.00010689965
0.00018263751
0.00033188207
0.00064094565
0.0011967739
0.0023692591
0.0040393998
0.0069341253
0.012344699
0.018245919
0.030873882
0.042588862
0.067330591
0.088041799
0.13121983
0.16401306
0.23139579
0.27963238
0.37717505
0.44389058
0.57807688
0.66763914
0.84397388
0.9650878
1.165984
1.3598077
1.556238
1.8269294
2.0238337
2.3584055
2.6005818
2.9827847
3.2505067
3.7011806
4.0444674
4.5066211
4.9876812
5.3794926
6.0103127
6.3919729
7.0468435
7.4458251
8.1597964
8.6129076
9.3429952
10.180369
10.740111
11.611442
12.620427
13.288844
14.413444
15.134084
16.275973
17.012743
18.073815
19.336435
20.616834
21.825823
22.971847
24.7247
25.916071
27.378042
29.187592
30.426697
32.819275
1.0418556e-05
1.3652345e-05
1.7320891e-05
2.4718863e-05
4.1225267e-05
5.6885876e-05
9.2198937e-05
0.00013715437
0.00021322461
0.00036251645
0.00065377785
0.001256649
0.002393138
0.00492559
0.0088206307
0.017477678
0.028049146
0.050636252
0.076481694
0.11341083
0.18345309
0.24193882
0.36498712
0.45985223
0.6532277
0.78978246
1.0679358
1.2551772
1.6323174
1.8759035
2.3674198
2.6815242
3.3122762
3.7164961
4.4913501
4.9990131
5.8726541
6.6088235
7.5465316
8.4829451
9.5371377
10.705252
11.694703
13.34222
14.504288
16.529744
17.968423
19.833408
22.144438
23.652211
26.144086
27.787679
30.832916
32.912072
37.567661
40.862935
43.90033
50.134684
55.372238
58.629985
64.432495
67.250671
73.548021
76.887822
83.513958
90.021727
98.609182
106.3601
120.02898
135.78765
139.30384
151.85944
159.81979
164.64625
176.18928
1.0128144e-05
1.0827479e-05
1.132982e-05
1.277955e-05
1.8696683e-05
3.81755e-05
9.9368509e-05
0.00027192384
0.0006977872
0.0016903245
0.0037572507
0.0083083825
0.01634348
0.034746676
0.058352063
0.11158281
0.16700442
0.28902222
0.39781922
0.61999765
0.85008248
1.1045896
1.6004873
1.9459245
2.6398104
3.1203929
4.0880472
4.7212208
5.9834382
6.7915636
8.440017
9.4964188
11.697989
13.069379
15.832027
17.673238
20.969018
23.543341
27.683236
30.440416
35.29448
38.368088
44.041428
50.507191
56.762169
65.814686
72.102281
81.183602
91.039764
98.697154
111.20019
117.99395
143.85752
151.5795
202.6373
209.2831
223.06295
295.64379
299.06667
303.03977
333.53463
343.32774
399.84837
402.26548
458.40425
500.55116
528.62578
534.26958
572.50585
571.59345
582.69527
672.91521
631.42141
662.13298
671.32082
1.0308228e-05
1.1197851e-05
1.3698301e-05
2.4147338e-05
6.62365e-05
0.00020998635
0.00064066095
0.0017787193
0.004478331
0.010673797
0.02327781
0.052614332
0.097382365
0.19952233
0.31502911
0.57231935
0.81130616
1.3283949
1.7444565
2.6226501
3.2680616
4.4804326
5.7885192
6.9607677
9.2147789
10.817705
13.961019
16.084865
20.196878
23.087188
29.179002
33.091613
41.98883
46.867293
59.055246
66.715326
80.618052
93.730347
110.20196
120.91758
145.28082
155.9652
205.42586
233.99575
277.28818
307.4746
341.23602
402.07478
435.62093
513.29115
531.75041
570.09497
700.02153
654.04547
934.91205
781.76139
887.22107
1306.7381
1024.3614
832.37297
894.47589
957.42302
870.32984
845.08463
1007.0208
868.01367
688.72185
656.39769
549.93491
492.81477
667.42881
548.65918
372.05329
426.86125
316.32206
1.1455625e-05
1.666861e-05
3.1231683e-05
0.00010674556
0.00041535362
0.0014592029
0.004429193
0.011918241
0.028680912
0.067047428
0.13800694
0.30430955
0.51097877
0.97389334
1.4348626
2.4414905
3.2882249
5.0803298
6.4484297
9.22014
11.284258
15.441641
18.517154
23.774874
30.442196
36.459184
47.676961
55.435282
71.064482
83.52199
113.29996
126.56166
173.986
185.26733
268.44356
295.88377
369.37159
445.67289
502.10031
547.54612
715.63842
693.35103
962.3623
878.07439
1024.4749
1004.4438
1095.3585
1041.0376
1142.2012
1085.1068
937.57899
1028.9443
837.82121
826.57194
804.42868
561.10882
725.9922
442.36166
301.50907
337.30875
301.15929
345.88397
178.24485
257.83251
239.51148
120.65552
70.094089
64.052472
46.543851
49.399267
86.712296
38.90979
31.101362
35.446393
27.740572
1.0204578e-05
2.1470748e-05
0.00011720517
0.00065883174
0.0027983539
0.0095213068
0.027372899
0.069717037
0.15824649
0.37302508
0.69078957
1.427251
2.2153662
3.910811
5.5152358
8.8575361
11.5361
17.1627
21.460378
29.694713
37.091389
50.529584
61.521519
82.992925
106.07142
136.31982
179.50704
211.28555
298.37665
360.36589
511.08301
549.33875
814.2738
782.21701
1104.1101
1031.6442
1306.0885
1257.9027
1167.3708
1252.9602
1162.2952
998.78331
1128.84
676.05789
668.32339
497.0777
598.66473
389.05399
430.90222
202.45279
220.08
170.69941
79.118571
210.0416
72.394584
81.376015
218.9169
52.614717
22.622676
54.176133
49.631393
27.152023
18.186145
55.100895
24.269294
13.062004
11.886344
9.9224479
10.266003
13.662584
21.697434
11.565562
10.793183
12.21132
9.8556738
1.0229346e-05
7.6012432e-05
0.00074353811
0.0041920123
0.017005168
0.05409884
0.14620019
0.35243164
0.75146764
1.7129729
2.8977413
5.5414088
8.1376956
13.456563
18.935786
28.703762
37.314322
55.661173
69.74798
97.823781
131.97163
176.10519
226.85704
336.66769
449.24675
616.24402
749.77809
954.47662
1108.1779
1324.0866
1319.8537
1476.8232
1505.508
1263.4762
1264.4487
891.10516
868.13125
458.55794
374.28201
393.04997
170.13958
269.93558
110.95609
56.11836
58.965317
49.179751
47.918002
37.096479
31.306149
16.492026
22.238077
17.349049
12.19361
40.289611
22.277231
36.490138
88.76677
18.128289
8.935662
16.629852
23.32237
12.263851
12.958382
24.25517
12.392681
7.8880641
8.2814494
7.2333255
6.8315733
9.6651109
10.177459
7.2606872
7.8218731
7.826368
7.3829183
9.5625189e-06
0.00050067695
0.0047899834
0.024726767
0.091834114
0.26953778
0.68041214
1.5585089
3.0834876
6.5759799
10.41695
18.573482
26.735146
43.357174
63.272987
88.942592
123.74272
191.306
242.56128
384.28872
536.40698
724.19264
982.32716
1295.1693
1407.3619
1621.4236
1515.9147
1630.718
1262.133
1197.7684
757.14681
826.13314
246.46433
482.61924
138.50431
196.95459
133.5892
36.235222
37.159299
29.66302
17.915765
38.003603
13.938915
8.9482426
13.242468
14.025206
9.7000998
6.9345287
6.5705232
9.7072227
7.8633864
6.3948801
7.033936
13.526441
21.814162
94.006169
66.922187
9.7409691
7.8694748
11.376037
14.235265
7.9742056
6.7061348
12.756387
9.2639094
7.4592612
7.3481093
6.457516
5.4348642
5.6331726
5.8477776
6.3602642
7.9626103
8.9289194
8.3467855
1.8091732e-06
0.0031792858
0.027528853
0.12859403
0.43326498
1.1689194
2.7653714
5.8527022
11.157842
21.858603
33.711269
58.030239
85.506759
147.11462
207.99638
303.947
486.24304
741.99411
946.64204
1369.3053
1486.6652
1697.7387
1704.7021
1492.6553
1206.5815
677.27291
432.12006
502.23086
222.1757
181.89117
102.05601
93.621743
30.398926
86.584649
20.023233
71.189357
15.781185
13.51638
14.668801
10.72747
12.156252
15.252563
9.3423938
6.9751484
7.6311741
8.1203585
6.632941
5.3095879
9.8225103
16.060691
11.934266
8.1457013
9.8002899
11.876913
31.404272
87.292341
40.415994
8.1849649
8.0105504
10.485316
10.037957
5.8283287
5.0216418
12.152155
8.3222152
7.4502834
7.2826234
6.6007473
5.7009677
5.9112045
5.8396846
6.4322707
6.6550894
8.0858134
8.2535739
1.9325851e-06
0.018121804
0.13948829
0.58575618
1.7856575
4.4376053
9.9809839
19.265762
37.683153
66.180084
106.16905
186.4866
293.12221
547.2803
779.08519
1264.8263
1457.2752
1735.3703
1668.6258
1513.7701
1056.8262
887.56948
464.13416
254.60004
146.3162
62.159236
47.297287
59.344398
21.090812
27.127594
13.280483
10.950899
5.524103
11.635247
5.0359714
30.738317
18.472267
10.278963
30.400878
14.441097
8.1583433
8.0113927
9.4804288
7.4840299
6.3858546
6.6095879
6.4228498
5.8127731
11.347294
22.245503
15.728379
8.303323
8.0190102
10.236293
28.596802
30.516694
28.219973
7.7067037
8.35592
10.619506
10.127421
5.9864225
5.2902008
10.241902
6.361536
7.5763263
7.7961685
6.2682049
6.2930476
6.5391337
6.5201881
6.6731855
7.0865469
8.2731014
7.8476225
0.00071977081
0.096577546
0.63118029
2.3457879
6.468229
14.925266
31.211483
61.095563
118.96952
204.00814
360.3439
692.74424
1167.8624
1580.0013
1918.4396
1890.1064
1420.6841
899.46642
563.97697
303.40047
170.17811
152.67749
41.544294
26.893715
12.954272
16.735766
13.159044
6.8216412
4.894552
10.49197
2.3137383
2.8834342
2.5498452
6.8254021
4.2486307
16.771474
3.9668946
12.983822
41.090806
15.888644
8.9294352
7.6753388
6.6506531
9.2787469
6.4891968
6.9568536
6.0213561
5.5113728
10.239993
23.177998
16.479617
11.11648
8.6021857
7.9618572
15.625141
37.84725
16.286296
6.3938176
8.2084918
10.474716
9.3652289
6.9585653
7.5611994
6.7805861
6.4867505
7.9070566
8.4044993
8.1432201
6.9748944
7.110585
8.340409
8.0186793
7.9126682
7.8175531
7.3212827
0.0082412737
0.45922256
2.5411789
8.2933008
20.911189
45.879651
94.501468
196.183
381.52436
731.06051
1430.93
1855.6247
2002.6224
1614.9224
1171.6333
414.33632
215.59491
129.34571
82.78511
47.513381
42.211472
32.498868
11.145017
4.1612837
3.4656197
13.089909
7.5850153
3.188135
3.9879572
12.657043
1.6269204
2.139227
2.233391
7.6149841
4.6186273
9.7994063
4.150097
19.830062
32.213933
15.020357
8.8669081
6.556909
6.641508
18.595504
8.37396
5.8739555
5.2273141
5.1083223
24.6404
23.357209
19.690114
11.341052
9.8290862
7.0396774
8.6689022
17.037404
6.8124738
6.5338058
8.3223321
8.2485912
8.7430431
8.2509975
9.0292344
6.4913876
7.3109683
9.0666641
7.9536758
7.78674
6.8107391
6.3747373
6.9073074
8.5464758
8.0772604
7.8021224
7.1702275
0.063268474
1.9512557
9.0692903
26.151288
62.151086
135.6183
294.1288
679.24768
1444.5907
1842.9095
2150.1176
1658.7539
644.57366
306.79571
167.80764
35.085833
30.058079
27.640925
10.862493
7.2049719
13.36852
5.4989537
3.3402831
3.2408342
3.6814419
8.5332556
5.2247225
2.3869606
3.7598852
7.6818869
1.9835708
1.9041719
2.2431358
4.4171227
3.4355835
7.1537642
4.4326201
20.994698
27.320577
16.207929
8.8917916
5.6220152
7.1340404
23.230438
12.134311
6.1284172
5.0562815
5.6155079
23.183372
14.318166
17.042873
11.239873
9.5943828
6.496688
6.3836901
11.105028
7.5466292
7.0729497
9.7790741
11.774615
14.207358
9.3919125
13.133408
8.1360771
12.730541
9.800378
7.2316117
8.2639098
8.4689267
6.9104319
8.1663358
9.4907951
9.1033898
8.1533382
7.1502009
0.39025529
7.4134445
28.950503
75.427969
178.20243
410.89301
1036.8415
1837.3549
2317.2951
1698.0447
738.10581
314.88014
75.914554
58.174131
18.069426
2.7522721
6.170652
7.3154794
6.3922209
3.5156117
6.147093
3.2464915
2.883341
3.1072845
2.8509735
3.9905065
3.8495558
2.1581711
3.8302739
5.3025386
3.0441115
1.7681998
2.5875927
2.3172206
2.6263335
5.0298467
3.2518305
5.4328144
64.438289
14.273623
8.7276272
5.5647704
8.5912312
19.981012
19.109848
8.5913052
6.1118072
4.5430609
10.141879
15.821758
21.835002
11.773886
8.6823798
5.8891622
6.8326901
11.532457
7.0532833
7.0754842
9.1914914
20.650162
16.141391
12.639562
8.945959
15.067158
14.718506
9.8772598
7.1350975
8.8834942
11.300859
9.1695089
9.620946
9.7046618
9.2510707
7.9237878
7.2296826
2.0589833
25.284866
84.333669
206.38166
527.72595
1410.6159
2004.9144
1847.3755
911.62443
385.66647
131.20307
32.51917
6.3783367
12.175669
3.3431816
1.0042275
2.612718
1.916117
2.0679732
3.0196331
4.107335
3.2883063
2.3438097
2.4318771
2.7296946
3.2308624
3.0767651
2.5477427
4.1426142
4.2635654
3.3672553
1.7282355
2.7038156
2.1946968
2.5762196
3.6485973
2.3851898
7.5386535
34.469998
9.4988663
8.6091414
7.1532537
9.0711926
16.595037
15.033434
10.557298
6.7127147
4.4092779
6.7599213
6.4600839
7.2295453
8.6124868
7.4223752
6.0468651
9.5781379
11.205029
6.6654708
6.7195988
7.2293401
14.313492
10.666206
11.944359
9.1345508
17.948034
8.5922814
7.8562991
7.1464213
7.7520704
11.098498
10.993104
10.865179
9.8071223
8.5240736
7.4000968
7.605093
9.5504052
78.424504
230.00312
568.44217
1745.9477
2244.0699
1416.7636
472.73568
175.99421
55.932113
13.630137
2.5703292
1.075902
4.2156701
1.3151364
0.83381887
1.9359906
1.0735096
1.9461547
2.7747588
3.0573449
4.1619895
2.3112751
3.152989
3.4959745
5.2306895
2.9709229
3.9849421
4.2085678
3.1751111
3.2256078
1.7908087
2.7901673
2.0466955
2.4445148
3.0011468
2.2893235
2.3099408
9.7908966
7.6930963
6.3074786
6.3005003
8.3454237
18.454137
16.039101
11.917697
7.1504695
5.1626095
5.2065002
5.8765576
5.8072693
12.130041
7.4674527
6.253465
8.1364231
8.6833913
6.2143001
8.0626181
7.5898849
10.588792
12.49344
10.826818
9.8331274
9.6128146
6.7736631
6.5649476
7.7261752
8.500664
9.5886451
11.768262
11.20387
9.1228764
8.2752428
7.5158132
7.8641595
39.836771
223.77556
614.59932
1713.8982
2368.656
1176.1809
431.92725
95.637465
22.831398
7.3279828
1.5528471
0.82233353
0.6768866
2.2348875
1.0266714
0.84545072
1.7145936
1.0359302
1.0783609
2.4711606
3.4072888
10.0425
2.5758027
5.3863837
6.4772712
8.6432644
3.2037344
3.3841861
4.2338182
2.576974
2.9037192
1.8137941
3.2962823
2.026322
2.39979
2.9560201
2.3216773
2.1393184
9.7515995
7.7829287
4.6974823
4.3206665
6.0343125
15.018642
7.8138408
11.569365
8.584199
8.9114798
7.5764766
6.9144006
7.2529432
13.568349
7.5829637
6.3351639
6.2038757
6.3564541
6.3041991
11.818949
8.9115085
19.612608
14.620574
8.7351156
7.3121329
8.0685016
6.3938921
6.248955
8.1319971
10.973314
10.745417
10.551902
10.258162
8.9217008
8.3933142
7.9748297
8.4024936
152.99728
597.04039
1731.0318
2294.6958
1117.0308
326.12798
82.466883
11.199974
2.6744102
2.6916639
0.61406594
0.72385614
0.62020722
1.328093
0.99513753
0.87153649
1.6209879
1.2298586
0.93132716
2.3212875
4.5107009
16.666615
3.2527119
5.5813026
7.8928298
9.3696351
3.0391967
3.6200764
4.2441764
2.3894463
3.5446754
1.8524192
2.4058503
2.0958532
2.2799125
2.4901037
2.3641598
2.0837821
9.8387957
8.3638387
5.4628405
5.9223758
5.0607325
5.3882946
5.0600655
6.6656309
7.7266271
7.4711379
12.792744
7.803623
8.1287542
6.7877827
6.9272641
6.6191099
12.022709
6.6536771
7.4287797
15.069856
9.1947259
24.338912
15.277466
9.8300449
8.3602303
8.8479821
6.6374736
6.2280733
7.5102986
9.0173554
9.9672598
9.5942499
9.9873264
8.9533293
8.8294641
8.4697092
9.0312195
494.0603
1598.3763
2784.1555
1433.3787
365.98005
53.705046
10.406957
1.4229343
0.57053653
1.4620825
0.52886303
0.74466372
0.60576692
0.8328946
1.0644541
0.821444
1.5797659
2.6213657
0.84524343
2.3539659
5.1712543
15.242662
4.7088086
4.3437246
4.4682627
6.8578883
3.2211565
8.0474761
4.4246469
2.5860966
4.1387702
1.8947442
1.8128375
1.9919882
2.015434
2.0214532
2.4417445
2.2300387
5.9567355
4.7141424
3.6406793
3.9237167
4.3586636
4.096481
4.3755712
4.6977117
5.6398985
6.039599
11.529641
7.0657354
7.0870527
5.8907209
6.1746607
9.4535221
10.421845
6.78745
7.179449
11.821937
8.7736846
17.564686
11.402921
10.442802
8.085547
7.8626735
7.1550768
6.0440571
6.7231393
9.9412192
9.078215
8.9582241
9.7439044
8.7718404
8.8147401
8.5717781
8.8830978
1486.013
3255.2406
2250.3493
610.48302
59.609531
6.0858248
1.4420451
0.5929856
0.30051505
0.60631068
0.5198159
0.81403403
0.60388961
0.61027046
1.1589952
0.85806328
1.4732658
2.6956198
0.86166892
2.3632522
4.7700728
6.2988581
5.1557683
3.0433924
2.5446835
5.2351478
3.8054894
18.143994
4.7075951
5.8329658
4.5271551
1.9172521
1.611444
2.5116561
2.0770382
1.8425364
2.5458944
2.3757862
2.6154843
4.407826
3.3352678
3.8906608
3.7790815
3.5028354
4.1994053
4.3140887
5.2677907
6.6019267
6.5352844
6.2148187
5.8525208
8.4785187
6.9791857
7.8602179
5.4423982
5.7550839
6.9993729
8.4397659
8.138459
9.6095028
14.155805
10.510926
6.8817273
8.770921
7.5860367
5.6296866
7.4032901
8.2483816
7.5306123
7.3496247
8.2217669
8.5196481
8.7039148
9.1483659
8.9545713
4290.729
3512.3229
895.90802
119.41995
6.2586652
1.011117
0.56510033
0.54803574
0.26091882
0.3137566
0.51727669
0.85154681
0.61202323
0.57725493
1.2377135
0.87694201
1.3612036
1.3987029
0.9054874
2.4305171
4.2267455
4.6167308
3.6478386
2.28941
2.086373
4.6557118
3.6223241
20.370536
4.823727
8.608375
4.4892032
1.9315562
1.5829434
1.7805286
2.806303
1.9150314
2.6807859
2.7512982
2.9397876
4.4749595
3.3327305
4.1619627
2.9480739
3.2945869
4.6652052
4.187703
8.160963
6.6834517
8.3929599
4.7464971
5.1053485
8.9710746
7.6811384
6.8240248
4.8910541
4.8065973
9.3078563
7.9943131
7.8305878
8.5386638
27.127721
12.119584
5.7169319
9.1231482
7.5965025
5.5103572
7.5298973
6.9121359
6.2637065
6.638523
7.9002622
8.6561879
9.6108917
10.110099
9.7739493
8113.6865
1790.152
166.86194
13.934578
1.0236033
0.57274682
0.50046076
0.62535554
0.27602763
0.25057089
0.51930002
0.9330086
0.62212119
0.68901947
1.3830925
0.88969501
1.255621
0.67178727
0.92081138
2.4163945
3.6710276
4.987662
3.2293577
1.9984266
1.6932241
4.0625393
3.3400221
11.747878
4.0146991
5.0038074
3.6200023
1.8725095
1.6891774
1.7175649
2.7369373
2.6439266
2.8802032
3.8460865
2.8902851
3.1033444
3.2625939
3.3926508
2.6466398
3.4581616
4.7545072
4.1371308
12.576919
7.2442049
6.7125694
3.5549424
4.3891543
5.2801041
6.2073477
6.9692475
5.2948708
4.9479614
10.351473
6.1173988
11.681601
15.418809
28.297306
11.410793
6.4722972
8.977402
7.3582102
4.8161043
6.2488602
5.947503
5.9567035
6.67016
7.9071602
9.648674
9.9742191
9.9090066
9.4184326
1659.3224
350.55794
18.367058
1.7398045
0.67290998
0.55398146
0.50931946
0.65398276
0.33539492
0.2440317
0.52958282
1.0851462
0.6269678
0.89672033
1.5089594
0.94556435
1.1936003
0.55328637
0.94000475
2.3755013
3.043011
5.2274536
3.2720785
1.9691846
1.5376303
3.0260244
2.784194
3.2405576
3.6560548
2.015097
2.4240554
1.8780355
1.8968326
1.8616112
3.0799857
2.8293705
3.0398536
5.6920954
2.9479058
2.941041
5.2331738
3.1999965
2.3545521
5.0563974
4.5625014
4.1988799
9.6054138
8.644419
5.9247096
3.2157496
4.338163
4.6960238
4.5821523
5.7114941
4.9654938
5.1745488
7.1508732
6.3603609
16.835485
20.023095
19.143955
10.502714
7.0279901
8.3643168
6.9224941
3.7842373
5.3241543
5.7745703
5.9694178
7.5959275
8.6206077
10.460667
9.9834439
9.6400623
9.2880125
124.36682
36.139698
2.0821071
0.83279704
0.65519249
0.58768757
0.51261203
0.65964758
0.43499604
0.25919319
0.54722957
1.1841081
0.61467363
0.98638598
1.7097099
0.9811683
1.120384
0.56525001
1.0462213
2.292979
2.359295
4.5767422
3.7053627
1.986057
1.5415886
1.9236014
2.5632129
2.3775464
3.6401593
1.6042283
1.9018858
2.0135574
2.0671589
2.0112803
5.7372743
3.2007299
3.0602671
7.6274679
3.0315223
3.06522
3.7182932
2.6228252
2.2538365
8.6031622
5.2087505
4.8859414
6.4650277
7.6639418
6.0505409
3.1220023
4.0501117
5.2388935
4.2245649
4.4739362
5.0747467
6.0043693
6.3923329
6.2332701
15.522656
18.621328
18.834818
10.804777
7.5413423
8.5009177
6.6837074
3.1782782
4.791594
6.1645286
6.6526122
9.2846193
10.491565
10.764806
9.7024396
9.5266604
9.1891516
5.4800875
3.2762398
0.87937305
0.80657581
0.65939296
0.59472422
0.51440226
0.66400448
0.56766816
0.28378996
0.56635794
1.2233204
0.6067802
0.87714497
1.9147604
1.0490019
1.0604958
0.6439039
1.1347526
2.1025428
2.1006602
4.0294007
3.9958838
1.9961791
1.6253718
1.8034717
3.0727209
2.8077009
3.7997035
1.9778432
2.6074943
2.4601687
2.1503451
2.1774933
5.3163515
3.4163685
2.7007559
8.536864
3.0364478
3.4439796
3.3215429
2.2053482
2.2190027
7.9958335
4.3116896
5.8309245
8.6982487
6.6297772
5.6250806
3.087531
3.442141
4.901609
4.1949141
5.0122982
7.2844531
11.695917
6.314491
7.3280124
12.784239
13.173555
13.391079
9.8939249
10.138333
8.3982091
5.1104337
2.0835355
3.5105485
7.2733892
8.2839257
12.01242
11.223908
10.987529
10.243667
9.2441095
8.0404834
1.2980557
1.0330547
0.83045709
0.8110698
0.67809793
0.59412469
0.51864722
0.67784483
0.71313375
0.31104827
0.58243272
1.2827263
0.68311425
0.88255202
2.2336195
1.1187315
0.99313279
0.77388241
1.1727402
1.9337372
2.1467241
3.767307
3.5274538
1.7831862
2.006748
1.9370879
2.6099921
4.3549181
3.8554971
2.1342633
2.8674
2.7725048
2.226678
2.319869
3.3301661
3.2288026
2.5453216
13.90826
3.4194191
4.3072885
3.8249941
2.13218
2.2008906
4.1528772
3.4340873
7.4837314
7.1392842
6.1247725
5.477028
2.9417971
3.5038343
4.3416983
4.9134631
5.8009736
9.1871517
16.2897
4.4433914
6.4484336
10.766905
10.429624
10.272207
10.834947
16.828948
5.0793387
2.7248819
1.7295278
2.4178218
7.7432911
10.903019
13.730808
11.285572
11.899498
13.407869
9.651998
9.700715
1.1916166
0.91827653
0.83584789
0.81520326
0.72360772
0.58479761
0.51243823
0.70934844
0.92468823
0.34388872
0.6025847
1.42838
1.3749266
1.2383265
2.6302367
1.2033997
0.94121331
0.88477567
1.1701201
1.9291307
2.8636232
3.614689
2.5144942
1.5776711
2.3792674
2.2195461
2.6714382
5.1397812
3.5974938
1.753522
2.5527885
3.3411121
2.287738
2.1902292
2.2253082
2.4346887
2.138354
23.436292
4.876873
5.5216432
3.7797663
2.1742773
2.1652328
3.4729794
3.3587585
7.9247148
5.1023026
5.5796849
6.0596427
2.6217693
3.7551631
5.3077955
5.7743678
4.6583328