/*--------------------------------*- C++ -*----------------------------------*\
| =========                 |                                                 |
| \\      /  F ield         | OpenFOAM: The Open Source CFD Toolbox           |
|  \\    /   O peration     | Version:  2.3.0                                 |
|   \\  /    A nd           | Web:      www.OpenFOAM.org                      |
|    \\/     M anipulation  |                                                 |
\*---------------------------------------------------------------------------*/
FoamFile
{
    version     2.0;
    format      ascii;
    class       volScalarField;
    location    "2.2e-05";
    object      p_rgh;
}
// * * * * * * * * * * * * * * * * * * * * * * * * * * * * * * * * * * * * * //

dimensions      [1 -1 -2 0 0 0 0];

internalField   nonuniform List<scalar> 
7500
(
-20071.443
-9847.4604
-4279.1505
-1319.0695
5059.6691
5092.313
5104.828
-1723.421
2005.7657
673.70954
6496.5478
826.48211
5100.3553
-772.07086
5421.5677
-1126.0637
5131.8265
-1856.1377
5266.7461
-3198.1641
5651.3942
3689.6354
-601.20466
10903.625
-8167.7654
16618.354
-6644.4399
10751.713
-1404.0599
5590.8479
4119.4657
1374.4242
11365.588
-126.67596
13924.945
534.18372
11071.45
5876.4564
11754.835
3913.3686
11721.042
8416.0118
10217.522
9812.9143
-5235.6048
14377.081
3444.9288
2063.8481
7583.5896
8129.1688
14161.27
9784.0859
7725.9076
22611.487
20237.481
25292.493
22811.199
25685.533
36912.679
6794.2234
40889.104
51737.792
24982.329
44662.588
39118.736
60596.89
69966.91
39029.972
48631.641
35803.685
14624.383
28048.363
24646.318
13908.844
5503.2304
-19644.101
-10003.052
-5067.7333
-901.00257
5021.4953
5421.2133
4823.1988
-1389.6144
1915.8273
565.23924
6472.508
971.82112
4902.9704
-587.40534
5350.2215
-1207.7491
5251.0046
-2074.5228
5524.5585
-3153.9622
5173.8599
4126.5982
-723.89746
10621.406
-7371.7919
15476.978
-5351.4999
9503.9867
-778.67523
5424.5576
4046.3026
1862.4384
10743.528
382.07253
13267.922
1466.9444
10207.089
6461.0576
10965.464
4707.4148
11493.984
8347.8679
10092.007
9547.9253
-3451.7892
12230.158
3679.3152
2521.6699
8431.9824
7003.1753
13619.07
11347.473
6511.0875
23579.371
19799.398
24541.853
25104.637
23378.761
36154.372
11232.455
38986.194
48957.358
27552.781
45406.733
38249.861
59709.944
70371.585
40262.798
46566.053
35979.352
16154.978
26557.087
24991.861
15002.814
5034.1317
-19845.525
-9504.6322
-5742.5642
-790.11956
4948.4843
5728.4526
4645.0348
-1177.9417
1690.3978
916.87111
6151.9776
1020.8101
5064.8448
-699.12914
5387.4257
-1210.3265
5002.7799
-1706.7776
5156.0906
-2759.196
4949.7926
3682.5475
431.85186
8702.3232
-4855.5335
13139.527
-3730.2627
8711.2956
-929.88362
5935.7934
3307.8482
2960.8834
9308.4628
1923.7603
11594.664
3046.5942
9336.9849
6962.7005
10302.622
4886.5854
11770.968
8164.4989
10226.001
8491.1267
-556.70054
9618.9338
3525.5298
3364.8847
9091.0169
6247.1411
12287.613
12926.821
6335.3787
23842.436
19276.401
24050.223
27204.948
21453.944
33089.054
17110.767
38734.995
42582.065
29284.233
48376.093
39160.227
57005.306
69108.422
44747.784
43594.69
33793.009
20636.043
25261.257
23704.213
16463.323
4861.1445
-20019.379
-8948.7581
-6460.8152
-476.66713
4552.8352
6240.8718
4141.8758
-724.05833
1604.589
909.88062
6283.2406
764.50272
5150.3521
-517.91094
5129.0052
-960.53842
4540.4345
-1099.6185
4491.2468
-2215.2276
4879.9032
2738.8632
2264.4846
6134.2577
-1864.2795
10446.103
-1738.2661
7584.7002
-901.03863
6405.5875
2458.4303
4324.1936
7379.6285
4122.3741
9456.8416
4825.7123
8484.9185
7272.8948
9878.3818
5196.7793
11411.019
8406.9651
10595.633
7005.0198
2984.1578
7107.9435
2636.0529
4005.2647
10431.309
5386.4777
11136.975
13741.883
6475.149
24932.048
18054.009
23653.912
29681.448
18856.492
30292.674
23793.816
37610.199
36978.111
30943.209
49892.949
42443.704
55007.317
65794.629
50319.092
40307.985
30310.127
26243.895
24712.05
22538.703
17556.903
4419.5767
-20033.346
-8449.3401
-7196.5352
79.262529
3920.3463
6766.3811
3635.6295
-473.29678
1908.8719
702.38171
6352.7725
756.98719
4987.794
-307.2772
4889.3506
-570.37352
3898.2038
-347.79379
3725.0418
-1478.6366
4435.549
2241.7917
3670.5248
3844.9833
1153.6602
7443.7837
802.43855
5783.4509
-282.01773
6461.4475
1866.7576
5620.5584
5434.1684
6278.3674
7613.7279
6373.4875
7627.8463
7564.5045
9397.334
5816.6644
10714.421
8908.9474
10559.894
6205.8858
5714.0208
5030.7464
1728.2132
4136.963
12243.638
4238.4991
10515.995
13899.797
6931.6209
26134.771
16596.98
23610.601
31540.518
15528.165
28822.085
30753.005
33984.211
32460.934
34944.679
49644.271
45084.246
54679.769
62141.521
54790.831
37778.282
27709.61
30479.663
23787.623
22269.854
18726.235
3769.7437
-20101.353
-7911.3466
-7749.2449
475.40616
3524.8718
6843.9095
3533.2459
-468.32647
2165.3161
850.05986
6060.9378
979.06414
4762.8672
-39.079976
4450.4464
45.160379
3014.3675
713.73956
2700.7779
-501.20153
3769.0664
1869.1978
4975.7633
1736.5076
3993.3126
4614.8801
3162.5686
3961.5791
685.92768
6063.2028
1762.1628
6297.4766
4211.4088
7843.7221
6205.5216
7849.7346
6665.4298
7849.8956
9006.6
6145.8118
10296.642
9904.0379
9437.547
6790.9443
6963.337
3370.9759
1394.1823
4193.7018
13365.027
3006.5853
10922.167
12946.748
8862.0136
26076.908
15378.361
25285.852
30638.868
12873.386
29588.99
36247.917
29292.942
27692.844
39373.903
50837.816
46696.595
54766.661
59609.589
56313.73
35545.922
27639.563
33779.628
22465.766
22271.299
19274.691
3230.965
-20322.008
-7479.608
-7884.4188
604.26806
3483.504
6567.1016
3505.1463
-250.89084
2179.5229
1055.336
5863.659
1124.703
4421.1473
686.02966
3501.9608
915.16042
1961.5017
1864.7743
1856.6967
32.576889
3626.2463
1248.9405
6002.9578
556.30139
5664.0903
2768.8462
4795.6966
2444.7967
1842.3598
5258.943
2255.9405
6018.6515
3794.6107
9000.8574
5138.0437
9183.1497
5674.9777
7901.7193
9148.8796
5737.9862
10416.377
11172.741
7813.9126
8674.8123
6472.9622
2219.8191
1288.8637
4536.1376
13751.318
1738.5839
12061.437
10886.868
12135.144
25143.16
14812.7
28002.112
26671.256
12178.775
32662.813
37845.094
26109.031
25310.861
40893.886
51973.18
49215.808
55758.965
58348.456
55360.425
33329.83
28615.327
36068.227
22990.787
22214.29
18088.499
2865.3095
-20744.967
-7217.9109
-7507.5319
583.68234
3481.1703
6313.2262
3308.2708
27.316161
2397.9434
1009.0305
5719.2211
1346.4389
3923.508
1557.527
2549.3004
1701.1135
1057.2575
2701.3911
1459.3628
191.30762
3458.9619
1209.5955
6091.5427
551.86085
6272.2769
1711.4867
5801.068
1287.0193
3023.7727
4267.3219
3025.3809
5222.1225
3760.9054
9657.0692
5018.9561
9884.1772
4797.8226
7605.1462
9763.258
4777.4485
10985.588
12127.735
6959.0198
10879.203
4334.9298
1958.5793
1170.6864
5102.5848
13136.862
1376.8456
12689.322
9017.0239
15328.846
23031.48
16984.649
28827.235
20708.859
15296.482
35819.375
34503.973
24202.174
27219.23
41233.886
50382.555
51856.504
58738.864
57221.579
52407.027
33839.218
29450.58
35498.782
26864.914
22489.164
14556.593
2543.0119
-21351.066
-7042.8884
-6848.662
561.1641
3343.1494
6105.1296
3211.9878
54.358606
2855.1763
961.7414
5426.6004
1596.5529
3540.5836
2110.561
1965.4924
2219.2345
500.65023
3272.7818
957.05043
789.82636
2579.123
1805.5593
5849.295
916.21835
6420.9525
1165.1038
6109.898
761.14305
4015.1249
3395.8629
3721.3633
3985.1074
4471.5404
9318.117
5913.0345
10338.768
3716.5132
7557.2834
9537.6526
4203.5241
12055.644
11770.967
8033.8529
12404.756
1378.2996
2501.3619
1322.3072
5771.2107
10784.272
2744.9604
11626.664
8922.8831
17991.851
19547.598
23018.442
24824.85
15153.09
24184.013
35681.343
27356.344
23473.958
30410.678
42392.651
47291.638
54527.86
63752.654
54521.218
47072.718
37889.33
31153.706
31925.533
33355.181
24101.929
9471.9617
1729.0156
-22099.139
-6926.1903
-6117.0404
615.16597
3203.543
5708.2598
3367.3715
-9.7800804
3185.5901
1056.7388
5194.1715
1683.6092
3368.8612
2376.0081
1579.3213
2579.4758
118.51624
3913.481
183.74728
1579.9986
1592.779
2193.0847
5981.1213
1497.4486
6104.3093
1002.9074
5654.7533
944.89444
4793.5973
2834.7799
4147.4767
2450.8427
5705.7146
8604.6117
6965.4763
10961.243
2612.7315
8083.5753
7760.5297
4350.1196
13228.237
10454.254
11084.903
12546.53
-1073.9784
3090.171
1796.6942
6638.3239
7567.2628
5029.5519
8279.7074
10751.797
19825.084
16880.272
31939.056
14521.45
12527.864
38819.298
30315.031
19532.985
25875.645
31912.184
42753.061
43402.192
58486.437
70415.545
50002.658
41152.495
42989.543
33297.928
27977.707
39797.679
26547.474
6693.6688
1159.4497
-22903.497
-6789.0278
-5329.9426
632.5553
3207.8282
5116.0029
3533.6455
106.02547
3380.2753
1130.655
5089.409
1767.4284
3231.0118
2548.8573
1200.2599
2905.5613
-115.01664
4313.6535
-82.975214
1716.1144
1086.2117
1988.959
6489.2714
2459.7391
5408.617
1206.1907
4446.4419
1559.5337
5416.3792
2862.6466
3714.3777
1514.3786
6709.1188
7784.1445
8516.1212
10706.783
2926.564
8753.2723
4632.3995
5671.4058
12642.536
9775.8141
15428.805
10033.747
-1296.7356
3342.0118
2160.052
6884.9549
5702.336
6478.3769
3523.9304
13600.823
18473.743
17988.141
39612.725
-957.54137
13915.632
54193.479
20576.515
12706.046
29066.324
32023.997
41586.821
38506.3
62212.802
73802.641
44955.668
38340.801
44049.001
35007.661
27311.947
39973.788
25925.765
7718.4371
2719.4349
-23690.879
-6563.5093
-4502.2733
511.99476
3309.4856
4570.2283
3521.412
376.74588
3550.9876
1202.6161
4888.1292
1995.2776
3063.8947
2716.394
807.91338
3166.0972
41.971885
3932.2239
643.72257
1174.7153
805.86432
1473.5966
7091.1308
3830.7245
4399.6453
1756.317
2981.009
1918.0782
5952.6564
3800.098
1892.7408
1447.1092
7587.4971
6216.1181
11233.101
8564.1493
5514.6561
9326.9833
363.17464
8656.9435
9542.8419
9852.194
19917.717
5181.7378
840.9758
3852.2565
2671.5951
5216.2278
5891.3792
6187.1298
-55.839111
15392.515
13061.26
23963.233
38111.541
-7164.6529
18430.253
57820.169
22450.918
11979.303
27701.73
32104.403
39823.528
38039.001
64195.883
71413.945
43848.965
38977.106
41422.049
35501.027
29993.253
36348.063
23897.896
7956.6778
2996.8124
-24470.219
-6305.0297
-3668.3572
307.84033
3380.3167
4152.9509
3421.5904
692.5175
3579.8501
1435.3546
4567.892
2252.9318
2907.204
2842.4485
492.72228
3331.456
535.53323
2947.7508
1871.7412
657.88666
280.14438
952.83949
7590.3868
5523.413
3228.0042
2279.6593
1786.427
1674.9101
6224.5642
5713.3725
-1206.7394
1957.1223
8102.9098
3998.1146
14101.198
5275.9784
9370.1692
9788.2724
-3236.1394
11048.037
5154.8743
10600.206
20527.363
1681.0116
2418.2944
5079.1603
3862.3857
4685.1335
6061.6123
4838.5748
342.14875
14520.138
12379.666
26364.714
33882.376
-9646.3972
18809.054
55635.513
25660.573
15854.242
27493.972
32435.326
40338.913
37542.214
66788.181
72544.844
43319.421
40887.059
41271.969
31845.388
31982.245
40594.852
22634.412
8345.9608
3243.0509
-25232.902
-6064.9444
-2872.2467
114.25502
3417.8924
3716.3429
3356.4848
1104.4866
3400.1159
1739.3427
4329.0002
2443.5467
2812.4747
2802.3893
276.03607
3579.9221
1036.3209
1865.7046
2867.6676
744.29639
-798.03076
677.88886
7691.4009
7002.3356
2375.0802
2586.8403
855.12053
797.56318
5863.1313
7947.6365
-4866.5757
2809.6259
7265.4669
2562.7113
13899.983
2628.1898
12243.917
10089.866
-2763.196
11093.191
4217.763
11597.696
19463.661
-184.77082
1512.2571
5497.5593
5163.623
5901.3357
6336.0345
5587.3811
783.7565
15730.75
12547.288
29825.631
33570.972
-10190.26
21538.502
50657.668
20192.622
19003.644
29117.591
32062.333
39751.203
36884.331
65046.311
70264.746
43814.299
40894.01
41438.038
34487.664
28951.661
35128.721
24063.538
9491.8313
2873.2235
-25953.367
-5796.0137
-2201.6923
4.5757927
3499.1229
3208.9803
3273.2471
1650.6701
3157.2243
1905.4607
4273.2062
2537.894
2871.2844
2547.3927
76.70317
3931.2529
1449.1739
993.34808
3095.2811
1464.4851
-2297.9144
488.06323
7459.2534
7251.3586
2248.2535
2641.6329
101.07189
-483.89368
4557.6922
9551.186
-4414.4981
3489.185
6925.5236
2827.8614
13189.661
163.13632
13268.093
11290.03
-1674.0329
11878.672
4597.3164
12748.04
19873.345
-65.159746
1058.2738
5235.1169
4607.5002
5477.0588
6015.8806
4170.0382
805.44339
14590.657
10131.393
27615.852
32974.039
-10955.418
11734.026
49664.733
19317.248
11800.834
28266.224
34092.22
38889.849
34104.427
62455.909
65167.446
43453.749
40383.229
39053.357
32415.002
29310.422
31513.902
22939.184
9693.542
3082.1219
-26579.302
-5469.1553
-1706.2503
-12.088549
3635.3468
2729.9546
3114.9132
2233.5059
2967.6574
1921.7555
4334.8022
2533.8841
3022.0364
2164.9495
-71.919185
3986.5275
1780.2718
565.59204
2255.3722
2200.3271
-3590.0151
85.9641
6771.9942
6232.0347
3126.7733
3227.1829
56.36733
-648.18686
3674.4098
9201.6831
-3303.4556
4256.7931
7489.6748
3998.9087
13504.267
1110.7652
13180.522
8709.5379
-2206.7281
11567.339
3319.6999
12628.987
19229.056
-519.06516
3372.4127
4792.7117
5020.969
4623.2879
5815.6623
4539.2545
1535.8681
15480.642
10105.397
28566.03
31360.577
-15116.65
8010.0881
48059.143
16148.544
11767.866
28117.493
35135.248
37236.212
28982.341
58540.883
58976.237
42005.293
39601.503
37860.472
32755.917
29493.04
28577.676
21326.496
10325.269
4086.0952
-27069.121
-5142.0115
-1337.5793
6.7291725
3815.1641
2270.5912
2993.8299
2783.3605
2787.5754
1892.5288
4386.1515
2505.93
3027.34
1576.237
12.667752
3236.5221
1933.7972
573.79666
772.39951
1923.3516
-2902.8507
688.05123
6695.2165
5197.4426
3809.1817
3981.7428
670.56993
-436.91126
4336.3405
9002.1493
-3451.5039
4197.6038
5781.397
2579.7214
13197.7
-84.834801
13970.093
10238.117
-1597.4748
11691.259
3714.4092
11762.034
18105.04
-1549.6152
41.806731
4055.1256
5049.4486
5607.2401
6681.7885
2580.3978
-1924.4204
15123.702
9542.1239
28054.191
29038.696
-14436.323
598.22883
43574.889
14800.877
9230.4964
27947.089
35899.176
34649.586
27245.098
58328.209
56034.934
39310.826
38273.352
38187.073
34239.874
29898.842
26121.202
20603.447
10880.281
4071.8895
-27479.138
-4862.7703
-1053.7895
21.231653
4087.3247
1655.1453
3029.1877
3272.7471
2655.0566
1780.8376
4260.6349
2546.8475
2524.2393
764.70607
204.8464
1749.2501
2199.5015
1380.5738
887.68026
1316.7996
-2299.357
1721.9556
7363.2957
5186.8218
3820.4934
3663.7642
-350.02859
-1564.9575
4049.3966
8981.5862
-3147.2538
4148.7802
6240.6886
3491.6443
12690.204
1589.3615
12903.801
5086.5889
-2940.7896
11754.46
3791.797
10778.638
16302.942
-1925.1272
368.67347
3347.9639
4951.446
3099.7544
7211.9208
1644.9461
-1869.6101
14858.879
10392.91
26661.62
30268.991
-10124.73
3284.6651
39505.151
13414.854
8061.0643
27846.16
34406.111
33257.083
31501.881
58662.284
53091.091
36523.483
36717.637
37282.81
34867.274
31320.893
25878.765
20475.618
11431.047
3482.9907
-27875.266
-4627.0731
-885.61045
36.753797
4489.6307
841.76698
3129.0871
3544.0161
2794.2966
1324.1193
3905.8706
2574.7768
1458.6915
339.39567
1100.9344
1492.0898
2244.3068
2194.3354
1907.3062
1236.398
-2804.8207
1081.6008
6792.6972
4806.6089
3840.067
3865.5644
497.84467
-1257.9809
4001.3259
9068.2269
-3089.2788
4479.2018
6273.3595
3238.9143
11706.659
71.357096
12405.241
2028.1055
-3055.0042
11950.455
3492.0518
11197.175
15861.679
-2169.7045
-738.39009
2791.3354
4876.8723
1709.3699
7806.2294
2071.4747
-1678.6365
12009.443
8951.2083
25272.221
29324.03
-7731.3739
14149.047
36766.647
13947.501
7800.3028
27176.322
33643.445
33445.058
33422.84
57698.393
49244.526
35419.035
37839.511
36542.631
35098.407
34323.267
27419.337
19857.427
11445.216
2785.3496
-28258.445
-4382.08
-879.08808
84.747468
4869.2389
184.6367
2967.347
3409.8915
3135.0182
573.30135
3277.2117
3351.5377
1533.1853
137.08203
2023.28
1916.9235
2118.7039
1444.4314
966.88352
1082.9093
-2464.664
1649.118
7117.5819
4894.9005
3631.2569
3383.6684
-152.6769
-1688.958
3795.6637
9205.5241
-3152.9032
4501.2674
6406.8079
3217.7759
11208.397
1558.8489
10758.567
2232.2425
-2458.9988
11304.683
3368.1577
10071.219
14546.858
-2670.9326
-1344.3923
2337.0556
4690.0605
2959.8982
8243.1036
3720.035
-984.2651
11540.852
5927.6977
22562.162
19314.818
-1237.7873
18576.966
33468.287
15899.222
8841.53
26883.998
32902.733
35010.675
34450.047
56518.425
47046.724
33901.855
38229.826
35905.922
35832.207
36653.404
26930.167
18302.755
10720.611
2155.6196
-28570.738
-4064.269
-1010.3624
221.19413
4880.5207
192.28883
2192.1868
2925.6509
3005.2088
1405.8427
2895.5275
4300.7267
2146.977
29.636442
1461.6939
1475.3679
1940.9396
1856.6255
1340.9288
1045.7795
-2639.9465
1158.7463
6857.1463
4905.4104
3413.4005
3141.2705
221.26785
-1835.2222
3362.7438
9121.5061
-3253.6908
4176.4351
6269.5208
3304.9695
11197.279
635.65361
10320.991
3873.2844
-1881.7129
11442.895
3477.7561
8056.3045
13484.004
-3288.2516
-1910.1237
2250.499
4418.0416
2081.8435
8354.7183
5214.3758
-323.46396
11952.261
5522.9454
19996.329
16129.596
3848.0378
17954.146
29085.658
19982.812
10600.791
25318.362
32558.679
36411.999
35235.266
57148.368
47084.909
31185.308
37694.778
35295.775
36980.691
38052.44
25585.032
17563.537
9862.9604
1183.4298
-28754.963
-3649.9863
-1146.4711
551.21846
4305.0757
875.62116
1065.058
2671.0028
2940.5116
2595.9399
2949.5027
3941.1981
1738.7668
-80.546682
1724.3241
1498.9587
1958.5671
1639.0885
1338.4131
1039.9519
-2641.892
1470.7561
6601.122
4873.4659
3142.4777
2885.7459
192.12235
-2246.5196
2707.6729
9216.482
-3213.7707
3677.8729
5958.2332
3103.517
11064.87
1173.7754
8917.3412
5560.0583
-758.13126
9310.0567
2805.8834
6823.304
12957.501
-3439.8821
-1805.9324
2132.4832
4320.1399
2288.6671
8163.4466
5325.2168
518.47396
9897.3383
5691.8893
17098.741
14929.021
5758.8829
18551.98
24547.285
23824.507
11837.509
21205.992
32533.455
36919.569
35495.253
58371.462
47207.982
28412.448
36492.497
34430.169
38190.196
38717.859
22253.915
16620.277
8735.2829
235.20006
-28881.586
-3163.7806
-1075.3225
1197.1106
3410.3243
1396.7072
1637.343
2803.1421
2979.1109
2299.0243
2758.9642
3944.0086
1821.5771
-101.08403
1632.4131
1301.7367
1888.5635
1659.8923
1497.7022
1105.4168
-2959.4668
1383.9385
6372.3998
4562.6883
2831.8307
2845.8084
603.87457
-2340.627
1813.8321
8824.5629
-3294.5543
3045.9555
5344.3947
3179.498
10574.01
-225.50289
6916.0872
5250.6295
-1275.3676
7970.3179
1686.6517
6633.3931
12452.409
-2432.0153
-26.954312
2646.9481
4043.9989
1942.9606
7594.6373
4664.6469
1019.6331
6802.8478
3617.4888
15652.161
14429.378
7030.9125
19089.784
22805.347
25059.047
13633.996
19978.225
32318.913
37254.314
36008.237
59337.128
45078.7
26358.33
35428.672
33513.487
39434.439
39180.729
18610.869
14844.248
7403.7973
-268.60499
-29352.297
-2665.4077
-604.15916
2078.7528
2984.1788
1531.1901
2676.7948
2618.6689
2551.5428
2280.1463
2817.618
3835.0153
1752.8521
-108.41395
1655.8868
1172.1111
1856.9186
1603.1183
1507.5537
1110.3116
-3282.0382
1148.0552
6295.5396
4563.2214
2441.1931
2766.4432
1070.4888
-2701.5549
647.54935
8761.1828
-3046.6876
2625.546
4815.1938
2827.9502
10009.162
-919.45469
5504.6786
4933.1422
-2213.5088
7196.5706
1010.5193
7086.6538
11965.455
-857.04296
1931.0849
3162.5999
3436.4616
1406.5943
8703.9465
5376.8956
1080.3777
5984.7458
739.20641
15169.622
13802.897
7674.2299
20415.588
22247.585
22369.914
16323.314
21895.911
31329.64
38022.338
34839.45
57409.144
41374.344
25501.664
35520.051
32675.38
40472.632
39623.835
16800.865
12978.487
5839.2682
-756.7338
-30884.61
-2213.1417
146.08825
2677.6256
3199.7704
1558.5173
2505.5261
2676.0032
2611.8965
2255.6639
2770.0264
3733.65
1753.4294
-77.722548
1595.6812
1042.056
1781.5827
1629.7574
1610.4038
994.99244
-3666.7609
804.33335
6304.3417
4437.9976
1997.0131
2648.198
1488.2746
-2893.4418
-1067.0186
8380.5272
-3086.5599
2326.5239
4413.1515
3088.718
9421.7436
-1009.7607
4051.2898
4298.6022
288.14396
7875.5701
869.06019
7794.0391
11106.882
104.97978
2717.9684
3233.0127
2654.8593
613.53488
9437.2766
5731.7411
1316.3921
5036.5426
-1061.9296
14436.334
12764.027
8600.5616
21909.293
22333.217
20411.98
19501.408
23313.452
29201.556
37714.518
33245.736
54008.454
39082.955
25550.748
36133.369
32992.501
41120.981
38679.741
14786.478
10856.533
3572.4042
-1551.2579
-33276.491
-2021.5166
327.85653
3002.0806
3251.8708
1391.9231
2486.4319
2694.3298
2569.1522
2255.8533
2779.7002
3617.2601
1763.6092
-28.817648
1500.0383
916.94931
1704.0786
1566.949
1675.1511
894.93427
-4055.3208
375.02855
6242.423
4319.3178
1574.5404
2591.6461
1772.2464
-3230.5883
-3387.6548
7918.4846
-2995.4394
2006.3263
3953.6993
2981.2933
8818.2546
-1526.3384
2684.1049
3581.3736
1132.9297
8519.2316
900.10413
8900.2034
10486.382
614.65392
2763.8969
2424.0139
1509.7544
-618.46283
10261.995
6350.3987
1240.777
4702.7218
-423.14008
13950.022
12004.553
9815.5655
23112.59
22188.963
19606.431
20233.901
21992.181
27262.999
37001.589
32386.952
49966.852
38829.595
27106.327
37042.973
32399.546
40943.956
37015.718
12657.366
8323.4297
448.02787
-3218.8348
-32974.697
-3073.2525
-424.98095
3388.0296
3211.9958
1344.3135
2445.9055
2699.4134
2588.0486
2261.2542
2782.8892
3488.9647
1782.9966
26.026405
1356.7255
788.10916
1576.6278
1530.5928
1841.3009
814.31657
-4253.3791
-36.823638
6114.7964
4184.4322
1096.7245
2748.3559
1898.427
-3706.0379
-6054.4031
7436.5956
-3106.0231
1757.4341
3509.72
2582.2756
8093.3562
-1646.7417
1950.2108
3230.1663
1612.2114
8485.7968
564.87501
9839.9046
10041.644
1200.7692
3424.5476
1717.5994
1225.5568
-1193.2152
11433.663
6886.357
1026.3075
5316.6189
1497.2818
12657.306
10924.224
12134.836
24175.87
22025.247
19407.173
20986.305
22042.693
25514.141
36574.424
31986.76
47983.961
39632.905
29684.056
39003.544
31507.085
40282.41
34910.383
10925.749
5652.0359
-2331.6837
-4604.2864
-23430.601
-5764.7657
-992.76537
3561.6214
3210.423
1335.518
2425.2147
2701.0105
2599.9072
2265.4882
2782.1702
3356.1735
1794.8259
79.581031
1166.4351
674.77836
1475.9294
1468.9963
1899.3658
577.42414
-4181.0708
-283.94925
5882.6097
4059.8092
1028.9705
2930.3035
1794.4735
-4108.0013
-8397.9541
6883.8696
-3160.3906
1681.5996
3175.8755
2100.8928
7457.8488
-1674.3516
1378.9249
3168.9065
1694.2745
8018.6104
927.76412
10413.986
9277.6647
1461.8656
4050.3086
1306.8887
1037.9282
-2263.0591
11670.528
5270.5602
-234.06428
5558.7971
2990.4132
11894.133
9691.4585
13385.834
25015.583
22162.763
20007.749
21709.133
20968.544
22745.242
37154.704
31666.001
47035.774
40178.181
31397.201
40882.279
31070.099
39352.756
31996.336
9438.7525
3499.0944
-5521.5282
-5916.5317
-4872.3717
-6895.2285
-1077.6409
3457.9467
3205.0398
1328.9971
2416.9267
2704.0451
2615.6035
2269.5808
2779.4665
3218.2323
1796.0313
129.20583
954.86245
534.81735
1384.8611
1360.9859
1993.7277
300.03046
-3839.4651
-483.59941
5477.5439
3977.4408
939.54485
3055.6864
1592.2491
-4244.587
-9476.1626
6234.9309
-3101.1776
1771.3076
2654.453
1681.5538
6908.7809
-1573.6733
831.25496
3305.8363
1817.9598
7574.7689
1018.4817
10552.014
8636.2665
1253.2988
4172.9328
785.06962
-311.78252
-4001.1395
11730.043
1333.1859
-2133.6866
5897.9778
3793.8118
12268.575
9273.4909
12871.021
25419.82
21979.139
20900.37
22360.817
19022.529
18951.375
38401.067
30796.227
45854.026
40001.28
32468.593
41579.055
29746.568
37184.806
28649.047
7836.0408
1360.4369
-8774.3011
-7791.9943
-290.13781
-5352.5751
-1136.6557
3440.5102
3184.725
1326.1307
2409.8007
2707.3724
2629.7774
2273.7073
2775.4694
3071.9806
1777.1175
171.43563
738.26841
404.66283
1335.3331
1284.6327
2057.7482
5.5763581
-3404.8923
-737.77937
4862.4235
3710.7709
837.11322
3074.9993
1514.9099
-3924.0392
-9024.3168
5700.2565
-2810.7681
2054.8569
2097.8799
1148.7217
6401.6696
-1501.097
404.38394
3396.7721
1972.2184
7282.9542
1209.07
10216.768
7459.7089
1972.8997
4774.3827
237.60644
-2308.2604
-6113.0301
10689.629
-712.69755
-3041.1139
6226.7579
3569.9521
12310.403
8901.5237
12492.397
26390.423
21529.009
20683.951
22857.28
16844.979
15312.078
38815.887
28807.832
44553.602
38791.572
33213.418
41840.664
28342.731
35480.096
24733.911
6480.8455
-289.89744
-11714.219
-9759.2185
-9556.9268
-4348.3852
-1052.3968
3443.7471
3133.0268
1299.4897
2402.3234
2710.3742
2643.6775
2278.0828
2766.1843
2912.9468
1746.1501
218.769
528.13821
277.22666
1325.7323
1189.043
2108.089
-311.39207
-3208.3697
-1046.7885
4127.8039
3419.9167
754.91075
2935.6891
1633.4129
-3104.9362
-7061.1267
5365.038
-2226.5692
2447.7569
1675.8109
539.85169
5808.3416
-1431.5894
329.57487
3317.1358
1784.8648
7086.7202
1541.5104
10030.244
5836.5726
1305.8388
5066.0254
-226.11657
-3442.8624
-7514.4741
9969.7336
-410.00606
-2539.0746
6641.5219
3069.4589
12242.932
8308.4381
12307.829
25848.014
20739.64
21218.19
23511.326
15491.468
13071.053
38237.085
27364.097
42477.093
37717.788
34022.111
41668.323
26950.015
34058.176
20950.583
4822.7401
-1043.1197
-13650.633
-10531.488
-9269.0454
-4557.0682
-996.17198
3431.8134
3070.2474
1290.0821
2392.3176
2712.5923
2656.5592
2282.7425
2744.7433
2736.3009
1709.3865
262.60629
338.11043
152.16608
1366.2839
1096.3858
2130.5704
-649.37525
-3219.7606
-1374.2024
3569.3166
3157.156
607.73344
2721.6678
1961.781
-2055.4887
-4528.781
5212.8246
-1521.338
2918.6094
1292.8397
-208.53572
5058.1801
-1051.5489
989.1567
3131.8131
1723.807
6923.47
1807.4327
9718.1786
4363.4776
399.44322
5275.4871
-280.27613
-3935.1925
-7098.1942
9698.3761
256.20044
-953.62232
7211.3562
2745.122
12114.632
7361.1547
11009.422
24863.618
19922.136
22142.877
23513.038
14836.665
14043.58
37802.16
26967.915
40812.615
36721.951
34824.946
41139.534
25651.511
32295.161
18049.816
3538.9569
-1984.5017
-14869.838
-10834.377
-8588.5738
-4195.3846
-956.50628
3408.8465
2992.6452
1278.5704
2379.0544
2713.1911
2667.4154
2287.1788
2700.9339
2543.6079
1682.1877
319.03456
176.82742
34.625336
1373.9577
932.45558
2059.8965
-1007.0725
-3409.0366
-1664.9523
3183.5459
2916.7138
410.38182
2332.4082
2377.7806
-1084.9191
-2442.4961
5128.5589
-854.67492
3434.262
966.12293
-714.76521
4420.8706
-597.24361
2242.8377
3161.9753
1974.8074
6766.9613
1948.4234
9383.6798
3377.5352
-38.159682
5502.6662
180.72784
-2598.6231
-5492.8505
8684.6797
1076.459
339.20128
7461.8814
2576.9865
11873.84
6022.6258
9421.3536
24610.887
20324.831
21402.419
22959.908
13552.505
15908.657
37800.236
27917.755
39519.493
35441.93
35012.69
40399.637
24337.409
30854.626
16086.691
2734.7789
-2100.4495
-15440.044
-10645.697
-7766.9664
-3935.5645
-930.18901
3381.3665
2910.1095
1265.1994
2360.3542
2710.6711
2674.1084
2290.2013
2632.8424
2336.2457
1669.6224
379.61126
46.544294
-75.240972
1410.3578
792.59196
2018.6295
-1323.9888
-3639.8337
-1824.334
2879.2217
2673.8642
181.42354
1976.9269
2758.2426
-205.42844
-925.60441
5131.8644
-322.39823
3833.5801
672.16597
-808.63262
3999.333
-106.99172
3806.2002
3353.9197
2409.1533
6632.4423
2146.3179
8962.7323
3117.4362
-364.48185
5340.6935
170.06128
-2425.4235
-4056.0077
7914.0062
1952.3309
903.95952
7583.3152
2603.1051
11540.188
4422.0935
8668.6433
24150.586
20271.277
20504.038
22409.306
12396.484
16025.39
37549.593
29713.002
38223.705
34461.149
34799.422
38903.505
22636.633
29082.495
14838.734
1979.374
-1782.8922
-15494.178
-9783.5205
-6933.142
-3623.1457
-928.92251
3328.5641
2794.8585
1251.4301
2333.7253
2702.9235
2674.5406
2292.1197
2542.8955
2104.6986
1659.4875
450.19545
-41.187626
-176.01259
1454.2543
646.86211
1972.8196
-1571.0239
-3910.8455
-1869.7361
2690.446
2427.9646
-45.306899
1609.4852
3033.7795
275.01076
81.670279
5133.5991
128.74976
4078.1437
467.55298
-760.07269
3719.0233
733.97724
5272.6886
3520.0644
2915.9661
5883.6944
2510.8737
8170.0642
3123.5436
-86.433845
4878.9012
307.60815
-2480.1851
-3709.4952
7811.8936
2857.8512
645.76021
7526.2163
2702.9595
11072.188
4206.2364
8879.0873
22811.746
19823.776
19369.333
20940.821
11791.391
17058.456
36682.541
30129.139
36829.381
33300.905
34319.457
36760.635
21032.455
27319.992
13286.758
1897.1005
-1759.0289
-15367.677
-8888.8423
-6093.7543
-3422.1145
-923.80662
3278.5734
2677.8028
1237.384
2296.6846
2687.5309
2666.6221
2293.7372
2442.4176
1867.4399
1650.6155
515.35747
-77.852833
-263.84335
1508.0197
499.06088
1925.9237
-1774.375
-4187.945
-1909.8892
2608.5196
2151.0632
-252.80738
1204.8513
3279.9532
590.91321
639.35796
5016.0798
384.24263
4130.0567
422.88842
-492.06496
3706.5493
1432.1793
6230.9794
3533.4791
3321.6152
5684.3842
2594.8788
7298.2729
3385.2919
550.44381
4545.889
324.86957
-2411.8613
-4114.7548
8048.7317
3526.9548
705.90118
7683.0442
3106.8317
10565.727
5470.9938
9785.9328
20997.742
19081.563
17951.54
19089.481
10448.436
18306.984
35276.238
29470.922
35434.602
32192.134
33496.801
34726.381
19259.209
25226.527
11670.22
1841.0698
-1110.0885
-14195.762
-7608.887
-5327.9585
-3106.9598
-930.23334
3220.1175
2545.0724
1223.8225
2243.7594
2660.5026
2646.9576
2296.004
2335.7656
1678.8124
1639.6029
589.3308
-42.278201
-337.28599
1564.7434
352.22931
1834.7279
-1846.8493
-4384.7671
-1912.7032
2558.0611
1862.4198
-377.11235
940.78787
3375.5033
898.03634
1025.6532
4923.8958
497.18972
4150.5975
432.47969
-272.27897
3701.6689
1926.2891
6498.8141
3288.0444
3624.4842
5814.695
2745.8296
6916.8476
3352.8176
1035.2535
4422.5356
551.24624
-2029.0785
-4038.581
8087.949
3060.2181
166.48758
7844.0787
3486.1173
10145.513
6459.0322
10707.91
19177.659
18103.623
15982.294
17669.766
8975.4108
17705.396
33501.847
28488.422
34178.475
31454.39
32786.379
33135.719
17720.739
22814.736
11233.137
1406.176
-278.05415
-11426.266
-5669.5995
-4593.0094
-3004.8476
-937.59954
3152.6073
2395.8983
1210.366
2173.4755
2617.699
2611.5144
2298.4695
2225.3373
1651.3597
1639.838
678.77699
89.040061
-392.10833
1620.5184
223.81977
1805.3059
-1760.7783
-4514.9414
-1644.1263
2555.9336
1598.5772
-468.58766
830.61981
3388.7033
1047.9339
1233.9952
4873.6816
442.67707
4128.8503
497.61403
-65.31341
3682.0338
2221.0984
6505.0032
3105.2997
3084.846
5572.2078
2957.9841
6660.2272
2732.4586
748.65402
4783.9493
904.60838
-1129.8636
-3616.7409
8052.5505
2262.3871
170.89784
7892.596
3709.4263
9784.4053
7070.2674
11038.761
17526.918
16611.6
13868.546
16298.928
10255.498
17768.772
32473.745
28340.022
32828.412
30667.927
32082.404
31884.751
16485.567
20890.465
11171.806
997.75177
107.31268
-8039.2342
-4277.6711
-3961.4938
-2670.0926
-965.06954
3076.6092
2230.2654
1197.3354
2084.6308
2552.98
2558.3973
2301.8943
2112.4418
1780.9649
1656.135
792.32817
315.07132
-444.46979
1662.1288
120.97624
1773.7381
-1369.7197
-4327.3961
-1119.7361
2637.6967
1399.6427
-591.48123
707.35703
3409.4809
1090.8405
1222.2388
4798.5501
332.32707
4032.7889
553.33161
108.31755
3699.7918
2453.0714
6309.2077
2921.6209
2972.571
5581.1504
3116.0641
6567.8783
2784.7857
595.27011
4853.5147
1134.7786