/*--------------------------------*- C++ -*----------------------------------*\
| =========                 |                                                 |
| \\      /  F ield         | OpenFOAM: The Open Source CFD Toolbox           |
|  \\    /   O peration     | Version:  2.3.0                                 |
|   \\  /    A nd           | Web:      www.OpenFOAM.org                      |
|    \\/     M anipulation  |                                                 |
\*---------------------------------------------------------------------------*/
FoamFile
{
    version     2.0;
    format      ascii;
    class       surfaceScalarField;
    location    "2.2e-05";
    object      phi;
}
// * * * * * * * * * * * * * * * * * * * * * * * * * * * * * * * * * * * * * //

dimensions      [0 3 -1 0 0 0 0];

internalField   nonuniform List<scalar> 
14825
(
1.0342737e-09
-2.0512378e-11
1.0548418e-09
-2.0568072e-11
1.0753971e-09
-2.0555285e-11
1.0954295e-09
-2.0032411e-11
1.1160094e-09
-2.0579861e-11
1.1358594e-09
-1.9850024e-11
1.1564291e-09
-2.0569743e-11
1.1758606e-09
-1.9431436e-11
1.1964227e-09
-2.0562107e-11
1.2154744e-09
-1.905173e-11
1.2359762e-09
-2.0501744e-11
1.2546713e-09
-1.8695125e-11
1.2749987e-09
-2.0327413e-11
1.2933766e-09
-1.8377903e-11
1.3135054e-09
-2.0128812e-11
1.3314907e-09
-1.7985306e-11
1.3513967e-09
-1.9905947e-11
1.3688081e-09
-1.7411415e-11
1.3886476e-09
-1.98395e-11
1.40549e-09
-1.6842426e-11
1.4252192e-09
-1.9729215e-11
1.44163e-09
-1.6410789e-11
1.4606571e-09
-1.9027045e-11
1.4773925e-09
-1.6735446e-11
1.4947429e-09
-1.7350431e-11
1.5126796e-09
-1.7936616e-11
1.5280114e-09
-1.5331818e-11
1.5469821e-09
-1.8970775e-11
1.5609786e-09
-1.3996447e-11
1.5797935e-09
-1.8814873e-11
1.5934183e-09
-1.3624864e-11
1.611294e-09
-1.7875674e-11
1.6251848e-09
-1.3890747e-11
1.6415009e-09
-1.6316124e-11
1.6560499e-09
-1.4548997e-11
1.6706712e-09
-1.4621368e-11
1.6858444e-09
-1.5173159e-11
1.6991544e-09
-1.331004e-11
1.7143106e-09
-1.5156117e-11
1.7264724e-09
-1.2161803e-11
1.7415703e-09
-1.5097934e-11
1.7529402e-09
-1.1369932e-11
1.7675145e-09
-1.4574263e-11
1.7785331e-09
-1.1018609e-11
1.7917433e-09
-1.3210174e-11
1.8040445e-09
-1.2301251e-11
1.8149342e-09
-1.0889629e-11
1.826659e-09
-1.1724883e-11
1.8371256e-09
-1.0466548e-11
1.8487143e-09
-1.1588716e-11
1.8579788e-09
-9.2644472e-12
1.8684247e-09
-1.0445945e-11
1.8779643e-09
-9.5396411e-12
1.8874378e-09
-9.4734646e-12
1.8968408e-09
-9.4030369e-12
1.9053265e-09
-8.4856949e-12
1.9134109e-09
-8.0844118e-12
1.9230927e-09
-9.6817959e-12
1.9292025e-09
-6.109796e-12
1.9361783e-09
-6.9757974e-12
1.9458327e-09
-9.6543548e-12
1.951097e-09
-5.2643388e-12
1.9569691e-09
-5.8720229e-12
1.9633932e-09
-6.4241424e-12
1.9688901e-09
-5.4969054e-12
1.9752702e-09
-6.3801186e-12
1.9793873e-09
-4.1170329e-12
1.9842295e-09
-4.8422497e-12
1.9900096e-09
-5.7801396e-12
1.9925532e-09
-2.5435989e-12
1.9965788e-09
-4.0255612e-12
2.000539e-09
-3.9601967e-12
2.0028099e-09
-2.2709157e-12
2.0058899e-09
-3.0799681e-12
-2.3940824e-12
2.8621814e-09
-8.0727881e-11
2.9224798e-09
-8.0866446e-11
2.9829752e-09
-8.1050661e-11
3.0422786e-09
-7.9335833e-11
3.1029481e-09
-8.1249344e-11
3.161946e-09
-7.8847945e-11
3.2225953e-09
-8.1219043e-11
3.2807272e-09
-7.7563376e-11
3.3415258e-09
-8.1360662e-11
3.3988373e-09
-7.6363273e-11
3.4596423e-09
-8.1306669e-11
3.5161242e-09
-7.5177037e-11
3.5766368e-09
-8.0840062e-11
3.6324128e-09
-7.4153836e-11
3.6925857e-09
-8.0301698e-11
3.7473807e-09
-7.2780397e-11
3.8072474e-09
-7.9772628e-11
3.8604338e-09
-7.0597772e-11
3.9205548e-09
-7.9960502e-11
3.9720966e-09
-6.8384289e-11
4.0321794e-09
-7.9812013e-11
4.0827909e-09
-6.7022195e-11
4.1409168e-09
-7.7153e-11
4.1927534e-09
-6.8572069e-11
4.2463816e-09
-7.0978646e-11
4.301562e-09
-7.3117019e-11
4.3500251e-09
-6.3794911e-11
4.4078044e-09
-7.6750067e-11
4.453047e-09
-5.9239025e-11
4.5104615e-09
-7.6229383e-11
4.5548423e-09
-5.800567e-11
4.6099233e-09
-7.2956685e-11
4.6550178e-09
-5.8985166e-11
4.7061004e-09
-6.7398777e-11
4.7529795e-09
-6.1428032e-11
4.799799e-09
-6.1440875e-11
4.8481503e-09
-6.3524462e-11
4.8919131e-09
-5.707289e-11
4.9397145e-09
-6.2957474e-11
4.9811387e-09
-5.3586079e-11
5.0285048e-09
-6.2464008e-11
5.06789e-09
-5.0755146e-11
5.1142501e-09
-6.0934319e-11
5.1524373e-09
-4.9205838e-11
5.1956369e-09
-5.6409785e-11
5.2364054e-09
-5.3069761e-11
5.2743736e-09
-4.8857783e-11
5.3133923e-09
-5.0743559e-11
5.3503538e-09
-4.7428103e-11
5.3886878e-09
-4.9922649e-11
5.4227352e-09
-4.3311853e-11
5.4586311e-09
-4.6341875e-11
5.4920743e-09
-4.2982823e-11
5.5267279e-09
-4.4127053e-11
5.5589863e-09
-4.1661441e-11
5.5912021e-09
-4.0701512e-11
5.6212481e-09
-3.813044e-11
5.6544522e-09
-4.2885874e-11
5.6801572e-09
-3.1814788e-11
5.7072345e-09
-3.4053117e-11
5.7404677e-09
-4.2887541e-11
5.7629405e-09
-2.7737127e-11
5.7874042e-09
-3.0335747e-11
5.8123913e-09
-3.1411203e-11
5.8357091e-09
-2.8814742e-11
5.8614608e-09
-3.2131803e-11
5.8814673e-09
-2.4123526e-11
5.9025538e-09
-2.5928753e-11
5.9263506e-09
-2.9576965e-11
5.9415372e-09
-1.7730191e-11
5.9605449e-09
-2.3033288e-11
5.9792798e-09
-2.2695081e-11
5.9940342e-09
-1.7025305e-11
6.0103688e-09
-1.9414608e-11
-1.6961895e-11
4.3659386e-09
-1.7855694e-10
4.4640308e-09
-1.7895863e-10
4.5623525e-09
-1.7937237e-10
4.6599855e-09
-1.7696889e-10
4.758762e-09
-1.8002586e-10
4.8562494e-09
-1.7633534e-10
4.9550566e-09
-1.8002622e-10
5.0517476e-09
-1.7425441e-10
5.1510674e-09
-1.8068043e-10
5.2469471e-09
-1.7224301e-10
5.3466002e-09
-1.8095972e-10
5.4414375e-09
-1.7001438e-10
5.5410951e-09
-1.8049757e-10
5.6350177e-09
-1.6807647e-10
5.7346975e-09
-1.7998149e-10
5.8271791e-09
-1.6526202e-10
5.926983e-09
-1.795765e-10
6.0171035e-09
-1.6071829e-10
6.1178593e-09
-1.8071627e-10
6.2056849e-09
-1.5620995e-10
6.3067682e-09
-1.8089533e-10
6.3935023e-09
-1.5375623e-10
6.4922493e-09
-1.7590002e-10
6.5804997e-09
-1.5682245e-10
6.6737197e-09
-1.6419872e-10
6.7661517e-09
-1.65549e-10
6.8526959e-09
-1.5033905e-10
6.9485582e-09
-1.726124e-10
7.0305823e-09
-1.4126316e-10
7.1268179e-09
-1.7246498e-10
7.2070364e-09
-1.3822413e-10
7.3011654e-09
-1.6708573e-10
7.381662e-09
-1.3948172e-10
7.4710485e-09
-1.5678527e-10
7.5535788e-09
-1.4395832e-10
7.6377141e-09
-1.4557619e-10
7.7217087e-09
-1.4751903e-10
7.8020498e-09
-1.3741399e-10
7.8847702e-09
-1.4567791e-10
7.962637e-09
-1.3145285e-10
8.044227e-09
-1.4405402e-10
8.11887e-09
-1.2539818e-10
8.2000142e-09
-1.4207847e-10
8.2722517e-09
-1.2144332e-10
8.3514462e-09
-1.3560432e-10
8.4249459e-09
-1.2656943e-10
8.498149e-09
-1.2206091e-10
8.5689565e-09
-1.2155107e-10
8.6402958e-09
-1.187674e-10
8.7098349e-09
-1.1946177e-10
8.7770918e-09
-1.1056874e-10
8.844511e-09
-1.1376109e-10
8.9084344e-09
-1.0690619e-10
8.9764417e-09
-1.1213436e-10
9.0374939e-09
-1.0271365e-10
9.1020585e-09
-1.0526609e-10
9.1626058e-09
-9.8677747e-11
9.2247661e-09
-1.0504623e-10
9.2796988e-09
-8.674745e-11
9.336931e-09
-9.1285335e-11
9.398985e-09
-1.0494146e-10
9.4480393e-09
-7.6791441e-11
9.5016443e-09
-8.3940736e-11
9.5536942e-09
-8.3461102e-11
9.6042076e-09
-7.9328232e-11
9.6578049e-09
-8.5729076e-11
9.7046182e-09
-7.0936845e-11
9.7519857e-09
-7.3296226e-11
9.8013598e-09
-7.8951047e-11
9.8411066e-09
-5.7476982e-11
9.884928e-09
-6.6854705e-11
9.9271685e-09
-6.4935579e-11
9.9655505e-09
-5.5407273e-11
1.0004276e-08
-5.8139702e-11
-5.3971304e-11
5.589778e-09
-3.1186422e-10
5.7237027e-09
-3.128833e-10
5.8577451e-09
-3.1341476e-10
5.992656e-09
-3.1187983e-10
6.1273922e-09
-3.1476212e-10
6.2627218e-09
-3.1166493e-10
6.3975816e-09
-3.1488597e-10
6.5326378e-09
-3.093106e-10
6.6685841e-09
-3.1662671e-10
6.8031277e-09
-3.0678665e-10
6.9400369e-09
-3.1786888e-10
7.0735121e-09
-3.0348959e-10
7.211037e-09
-3.1802246e-10
7.3435266e-09
-3.0056607e-10
7.4817537e-09
-3.1820862e-10
7.6125691e-09
-2.9607739e-10
7.7517763e-09
-3.1878366e-10
7.880034e-09
-2.8897609e-10
8.0209702e-09
-3.2165239e-10
8.1467453e-09
-2.8198508e-10
8.2886086e-09
-3.2275868e-10
8.413415e-09
-2.7856262e-10
8.5537905e-09
-3.1627551e-10
8.6794472e-09
-2.824791e-10
8.8154153e-09
-3.0016681e-10
8.9444269e-09
-2.9456059e-10
9.0740388e-09
-2.7995097e-10
9.2060536e-09
-3.0462724e-10
9.3303878e-09
-2.6559738e-10
9.4642609e-09
-3.0633804e-10
9.5855665e-09
-2.5952978e-10
9.7192421e-09
-3.007613e-10
9.8393061e-09
-2.5954574e-10
9.969721e-09
-2.8720014e-10
1.0090774e-08
-2.6501103e-10
1.0216574e-08
-2.7137685e-10
1.0338307e-08
-2.6925212e-10
1.0460131e-08
-2.592373e-10
1.0580118e-08
-2.656651e-10
1.070018e-08
-2.5151493e-10
1.0817938e-08
-2.6181179e-10
1.0934841e-08
-2.4230151e-10
1.1053239e-08
-2.6047598e-10
1.1165614e-08
-2.3381917e-10
1.1284512e-08
-2.5450232e-10
1.1393991e-08
-2.3604807e-10
1.1509128e-08
-2.3719802e-10
1.1616902e-08
-2.2932477e-10
1.1729575e-08
-2.314407e-10
1.1833908e-08
-2.2379494e-10
1.1941803e-08
-2.1846329e-10
1.2045388e-08
-2.1734579e-10
1.2147193e-08
-2.0871201e-10
1.2254129e-08
-2.1907021e-10
1.2349907e-08
-1.9849098e-10
1.2454862e-08
-2.1022162e-10
1.2552635e-08
-1.9645038e-10
1.2648878e-08
-2.0128961e-10
1.2742788e-08
-1.8065705e-10
1.2838447e-08
-1.8694496e-10
1.2933647e-08
-2.0014086e-10
1.3018552e-08
-1.6169702e-10
1.3109623e-08
-1.7501124e-10
1.3196601e-08
-1.7043913e-10
1.3282704e-08
-1.6543116e-10
1.3371464e-08
-1.7448941e-10
1.3456008e-08
-1.5548055e-10
1.3539181e-08
-1.5646938e-10
1.3619566e-08
-1.593355e-10
1.3695029e-08
-1.3294014e-10
1.3771106e-08
-1.4293224e-10
1.3843744e-08
-1.3757305e-10
1.3916029e-08
-1.2769254e-10
1.398667e-08
-1.2878084e-10
-1.231366e-10
6.5723057e-09
-4.7839865e-10
6.7402618e-09
-4.8083939e-10
6.9079215e-09
-4.8107449e-10
7.0789274e-09
-4.8288564e-10
7.2474948e-09
-4.8332959e-10
7.4198398e-09
-4.8400989e-10
7.5889248e-09
-4.8397096e-10
7.7616599e-09
-4.8204569e-10
7.9326403e-09
-4.8760717e-10
8.1052736e-09
-4.7941988e-10
8.2779796e-09
-4.9057488e-10
8.4498702e-09
-4.7538021e-10
8.6238736e-09
-4.9202584e-10
8.7951253e-09
-4.7181784e-10
8.9707135e-09
-4.9379675e-10
9.1403134e-09
-4.6567732e-10
9.3180203e-09
-4.9649052e-10
9.4853873e-09
-4.5634315e-10
9.6656428e-09
-5.0190782e-10
9.8312573e-09
-4.4759965e-10
1.0013137e-08
-5.046386e-10
1.0178058e-08
-4.4348296e-10
1.0359788e-08
-4.9800621e-10
1.0524636e-08
-4.4732682e-10
1.0704835e-08
-4.8036587e-10
1.0870877e-08
-4.6060296e-10
1.1046753e-08
-4.5582671e-10
1.1214095e-08
-4.7196936e-10
1.1385151e-08
-4.3665334e-10
1.155534e-08
-4.7652636e-10
1.1722459e-08
-4.266494e-10
1.1894986e-08
-4.7328825e-10
1.2058936e-08
-4.2349603e-10
1.2231437e-08
-4.5970045e-10
1.239456e-08
-4.2813416e-10
1.256419e-08
-4.410069e-10
1.272663e-08
-4.3169223e-10
1.2892584e-08
-4.2519127e-10
1.3053492e-08
-4.2657264e-10
1.3218644e-08
-4.1666773e-10
1.3375953e-08
-4.1912051e-10
1.3539517e-08
-4.058653e-10
1.3697189e-08
-4.1814826e-10
1.3856306e-08
-3.9293606e-10
1.4017849e-08
-4.1604513e-10
1.4169434e-08
-3.8763283e-10
1.4329861e-08
-3.976258e-10
1.4478061e-08
-3.7752414e-10
1.4635753e-08
-3.8913321e-10
1.4779817e-08
-3.67859e-10
1.4936215e-08
-3.7486079e-10
1.5079013e-08
-3.6014414e-10
1.5225654e-08
-3.5535318e-10
1.5375106e-08
-3.6852235e-10
1.5512641e-08
-3.3602536e-10
1.5665e-08
-3.6258067e-10
1.5804316e-08
-3.3576636e-10
1.5940286e-08
-3.3725969e-10
1.6083717e-08
-3.2408797e-10
1.6222766e-08
-3.2599365e-10
1.635594e-08
-3.3331534e-10
1.6485948e-08
-2.9170494e-10
1.6621333e-08
-3.1039601e-10
1.6750013e-08
-2.9911959e-10
1.6878729e-08
-2.9414662e-10
1.7007728e-08
-3.0348923e-10
1.7137696e-08
-2.8544825e-10
1.7263032e-08
-2.8180558e-10
1.7380751e-08
-2.7705395e-10
1.7503759e-08
-2.5594833e-10
1.7619997e-08
-2.5917005e-10
1.773155e-08
-2.4912602e-10
1.784686e-08
-2.4300271e-10
1.7957091e-08
-2.3901197e-10
-2.33908e-10
7.3472988e-09
-6.7585084e-10
7.5476807e-09
-6.8122132e-10
7.7471151e-09
-6.8050885e-10
7.9526712e-09
-6.8844175e-10
8.1534762e-09
-6.8413459e-10
8.361434e-09
-6.9196769e-10
8.5634593e-09
-6.8599627e-10
8.7725043e-09
-6.9109073e-10
8.9771992e-09
-6.9230208e-10
9.1868261e-09
-6.8904672e-10
9.3937727e-09
-6.9752149e-10
9.6036512e-09
-6.8525872e-10
9.8125505e-09
-7.0092513e-10
1.0022761e-08
-6.8202879e-10
1.0234405e-08
-7.0544036e-10
1.0443428e-08
-6.7469979e-10
1.0658591e-08
-7.1165355e-10
1.0866506e-08
-6.6425828e-10
1.1084667e-08
-7.2006895e-10
1.1291995e-08
-6.5492801e-10
1.1512284e-08
-7.2492718e-10
1.1719607e-08
-6.5080623e-10
1.1941351e-08
-7.1975006e-10
1.2147223e-08
-6.5319869e-10
1.2371361e-08
-7.0450447e-10
1.2576046e-08
-6.6528734e-10
1.2799408e-08
-6.7918851e-10
1.3003222e-08
-6.7578343e-10
1.322336e-08
-6.5679192e-10
1.342985e-08
-6.830159e-10
1.3645966e-08
-6.4276573e-10
1.3856214e-08
-6.8353665e-10
1.4067398e-08
-6.346795e-10
1.4281669e-08
-6.7397167e-10
1.4490363e-08
-6.3682819e-10
1.4704925e-08
-6.5556845e-10
1.4911684e-08
-6.3845123e-10
1.5123872e-08
-6.3737915e-10
1.5329948e-08
-6.3264921e-10
1.5540638e-08
-6.2735732e-10
1.5741875e-08
-6.203578e-10
1.5953576e-08
-6.175658e-10
1.6153189e-08
-6.1776204e-10
1.6364152e-08
-6.0389856e-10
1.6567876e-08
-6.1976952e-10
1.6768726e-08
-5.8848241e-10
1.6975723e-08
-6.0462267e-10
1.7173824e-08
-5.7562582e-10
1.7379465e-08
-5.9477369e-10
1.7568066e-08
-5.5645977e-10
1.777455e-08
-5.8134494e-10
1.7959739e-08
-5.4533337e-10
1.8160623e-08
-5.5623674e-10
1.8353512e-08
-5.6141197e-10
1.8541001e-08
-5.2351386e-10
1.874642e-08
-5.6799975e-10
1.8928205e-08
-5.1755186e-10
1.9113146e-08
-5.2220072e-10
1.9313502e-08
-5.2444416e-10
1.9498169e-08
-5.1065993e-10
1.9675971e-08
-5.1111762e-10
1.9858798e-08
-4.7453151e-10
2.0042312e-08
-4.9391069e-10
2.0218326e-08
-4.7513334e-10
2.0395122e-08
-4.7094274e-10
2.0572673e-08
-4.8104006e-10
2.0754923e-08
-4.6769857e-10
2.0929018e-08
-4.5590013e-10
2.1090926e-08
-4.3896225e-10
2.1266872e-08
-4.3189426e-10
2.1428469e-08
-4.2076704e-10
2.1589949e-08
-4.106059e-10
2.1759929e-08
-4.1298247e-10
2.191848e-08
-3.9756295e-10
-3.9474637e-10
7.9452221e-09
-9.0283638e-10
8.1759642e-09
-9.1196349e-10
8.4060717e-09
-9.1061633e-10
8.6437221e-09
-9.2609219e-10
8.8758159e-09
-9.1622838e-10
9.1171992e-09
-9.3335093e-10
9.3508848e-09
-9.196819e-10
9.5948806e-09
-9.3508655e-10
9.8313405e-09
-9.2876194e-10
1.0077587e-08
-9.3529287e-10
1.0316484e-08
-9.3641885e-10
1.0564629e-08
-9.3340368e-10
1.0806554e-08
-9.4284966e-10
1.1056267e-08
-9.3174188e-10
1.1302767e-08
-9.5194034e-10
1.1552019e-08
-9.2395226e-10
1.1803511e-08
-9.6314505e-10
1.2053151e-08
-9.1389904e-10
1.2307757e-08
-9.7467452e-10
1.2557832e-08
-9.0500285e-10
1.2815081e-08
-9.8217655e-10
1.3065567e-08
-9.0129193e-10
1.3325542e-08
-9.7972537e-10
1.3574084e-08
-9.0174047e-10
1.3840253e-08
-9.7067357e-10
1.4085555e-08
-9.1058917e-10
1.4355312e-08
-9.4894589e-10
1.4598265e-08
-9.1873638e-10
1.4867494e-08
-9.2602032e-10
1.5111782e-08
-9.2730477e-10
1.5378582e-08
-9.0956544e-10
1.5626319e-08
-9.3127372e-10
1.5887282e-08
-8.9564249e-10
1.6142893e-08
-9.2958265e-10
1.6400069e-08
-8.9400412e-10
1.6659773e-08
-9.1527217e-10
1.6913595e-08
-8.9227335e-10
1.7173268e-08
-8.9705182e-10
1.7428589e-08
-8.8797052e-10
1.7684692e-08
-8.8346041e-10
1.7937472e-08
-8.7313765e-10
1.8196443e-08
-8.7653733e-10
1.8443301e-08
-8.6461979e-10
1.8708127e-08
-8.6872397e-10
1.8953911e-08
-8.6555419e-10
1.9209436e-08
-8.440074e-10
1.9461577e-08
-8.5676311e-10
1.9715811e-08
-8.2986018e-10
1.9969613e-08
-8.4857592e-10
2.0213403e-08
-8.0024913e-10
2.0474536e-08
-8.4247807e-10
2.0706212e-08
-7.7700941e-10
2.0965597e-08
-8.1562178e-10
2.1200232e-08
-7.9604717e-10
2.1448264e-08
-7.7154625e-10
2.1707683e-08
-8.2741881e-10
2.1933734e-08
-7.4360232e-10
2.2179896e-08
-7.6836317e-10
2.2438386e-08
-7.8293395e-10
2.2668469e-08
-7.4074267e-10
2.2901195e-08
-7.4384362e-10
2.3141563e-08
-7.148992e-10
2.3377606e-08
-7.2995385e-10
2.3605154e-08
-7.0268195e-10
2.3831613e-08
-6.9740161e-10
2.4066483e-08
-7.1591015e-10
2.4304269e-08
-7.0548399e-10
2.4533933e-08
-6.8556482e-10
2.4753624e-08
-6.5865308e-10
2.4991906e-08
-6.7017635e-10
2.5208695e-08
-6.3755622e-10
2.5426497e-08
-6.2840708e-10
2.5651295e-08
-6.3778057e-10
2.5866859e-08
-6.1312728e-10
-6.1208607e-10
8.3941619e-09
-1.1602914e-09
8.6511566e-09
-1.1689582e-09
8.9118442e-09
-1.171304e-09
9.1777376e-09
-1.1919856e-09
9.4402275e-09
-1.1787182e-09
9.7123414e-09
-1.2054649e-09
9.9760757e-09
-1.1834162e-09
1.0254013e-08
-1.2130234e-09
1.0519995e-08
-1.1947447e-09
1.0803434e-08
-1.2187319e-09
1.1071764e-08
-1.2047487e-09
1.1359425e-08
-1.2210646e-09
1.1632245e-08
-1.2156693e-09
1.1922272e-08
-1.2217689e-09
1.2201917e-08
-1.2315858e-09
1.2491849e-08
-1.2138843e-09
1.2777908e-08
-1.2492036e-09
1.3069614e-08
-1.2056048e-09
1.3358992e-08
-1.2640523e-09
1.3651752e-08
-1.1977631e-09
1.3944732e-08
-1.2751571e-09
1.4238289e-08
-1.194849e-09
1.4535028e-08
-1.2764643e-09
1.4827468e-08
-1.1941806e-09
1.5133224e-08
-1.2764293e-09
1.5421583e-08
-1.1989484e-09
1.5734326e-08
-1.2616884e-09
1.6019698e-08
-1.2041086e-09
1.6336402e-08
-1.2427238e-09
1.6620953e-08
-1.2118559e-09
1.6939338e-08
-1.2279511e-09
1.7225899e-08
-1.2178346e-09
1.7539201e-08
-1.2089446e-09
1.7836583e-08
-1.2269645e-09
1.814504e-08
-1.2024608e-09
1.8450584e-08
-1.220816e-09
1.8753306e-08
-1.1949953e-09
1.9062338e-08
-1.2060843e-09
1.9368602e-08
-1.1942347e-09
1.9669967e-08
-1.1848249e-09
1.9979838e-08
-1.1830095e-09
2.0283334e-08
-1.1800329e-09
2.0585894e-08
-1.1671793e-09
2.0902718e-08
-1.1855482e-09
2.119579e-08
-1.1586265e-09
2.151095e-08
-1.159167e-09
2.180898e-08
-1.1547937e-09
2.2122298e-08
-1.1431779e-09
2.2423173e-08
-1.1494511e-09
2.2727499e-08
-1.1045746e-09
2.30394e-08
-1.1543795e-09
2.3327036e-08
-1.0646453e-09
2.3648971e-08
-1.1375572e-09
2.3928374e-08
-1.0754498e-09
2.4244848e-08
-1.0880202e-09
2.4550236e-08
-1.1328072e-09
2.4824557e-08
-1.0179232e-09
2.5140135e-08
-1.0839409e-09
2.5453164e-08
-1.095963e-09
2.5730943e-08
-1.0185215e-09
2.6029434e-08
-1.0423351e-09
2.6326355e-08
-1.0118196e-09
2.6619565e-08
-1.0231638e-09
2.6904674e-08
-9.8779104e-10
2.7190863e-08
-9.8359066e-10
2.7488895e-08
-1.0139421e-09
2.7778388e-08
-9.9497723e-10
2.8064336e-08
-9.7151307e-10
2.8347172e-08
-9.414887e-10
2.8642056e-08
-9.6505999e-10
2.8920675e-08
-9.1617547e-10
2.9208186e-08
-9.1591827e-10
2.9492256e-08
-9.2185094e-10
2.9762376e-08
-8.8324728e-10
-8.8964657e-10
8.716657e-09
-1.4492403e-09
8.9940095e-09
-1.4463107e-09
9.2863241e-09
-1.4636185e-09
9.5749475e-09
-1.480609e-09
9.8683966e-09
-1.4721674e-09
1.0167336e-08
-1.5044041e-09
1.0461521e-08
-1.4776012e-09
1.0770652e-08
-1.522155e-09
1.1066679e-08
-1.4907716e-09
1.1385513e-08
-1.5375654e-09
1.1683338e-08
-1.502574e-09
1.2009619e-08
-1.547345e-09
1.2312146e-08
-1.5181969e-09
1.2642228e-08
-1.5518504e-09
1.2952404e-08
-1.5417618e-09
1.3283428e-08
-1.5449085e-09
1.3600553e-08
-1.5663293e-09
1.393554e-08
-1.5405913e-09
1.4256171e-08
-1.5846834e-09
1.4593633e-08
-1.5352255e-09
1.491966e-08
-1.6011833e-09
1.5257739e-08
-1.5329279e-09
1.5589976e-08
-1.6087022e-09
1.5927984e-08
-1.5321878e-09
1.6271271e-08
-1.6197166e-09
1.6605352e-08
-1.5330299e-09
1.6958661e-08
-1.6149969e-09
1.7289568e-08
-1.5350161e-09
1.765226e-08
-1.6054151e-09
1.7979229e-08
-1.5388248e-09
1.8349888e-08
-1.5986109e-09
1.8675826e-08
-1.5437718e-09
1.904461e-08
-1.5777286e-09
1.9382816e-08
-1.5651711e-09
1.9745572e-08
-1.5652169e-09
2.0097056e-08
-1.5722997e-09
2.0449594e-08
-1.5475331e-09
2.0810088e-08
-1.566578e-09
2.1165011e-08
-1.5491581e-09
2.1514628e-08
-1.5344418e-09
2.1882164e-08
-1.5505456e-09
2.2228228e-08
-1.5260972e-09
2.259267e-08
-1.5316212e-09
2.2954983e-08
-1.5478609e-09
2.3301788e-08
-1.5054319e-09
2.3674238e-08
-1.5316163e-09
2.4020132e-08
-1.5006876e-09
2.4392575e-08
-1.5156211e-09
2.4743537e-08
-1.5004138e-09
2.5109695e-08
-1.4707324e-09
2.5463984e-08
-1.5086686e-09
2.5814142e-08
-1.414803e-09
2.6185539e-08
-1.5089544e-09
2.6519993e-08
-1.4099034e-09
2.6907723e-08
-1.4757504e-09
2.7243606e-08
-1.4686903e-09
2.7583629e-08
-1.3579465e-09
2.7968024e-08
-1.468336e-09
2.8315121e-08
-1.4430593e-09
2.8653692e-08
-1.3570931e-09
2.9020043e-08
-1.4086853e-09
2.9366099e-08
-1.3578759e-09
2.9719309e-08
-1.3763743e-09
3.0052593e-08
-1.3210741e-09
3.0404431e-08
-1.3354293e-09
3.0766746e-08
-1.3762573e-09
3.1098336e-08
-1.3265673e-09
3.1443807e-08
-1.3169839e-09
3.1793783e-08
-1.2914639e-09
3.2135495e-08
-1.3067721e-09
3.2471575e-08
-1.2522558e-09
3.2825334e-08
-1.269677e-09
3.3160141e-08
-1.2566579e-09
3.3491799e-08
-1.2149057e-09
-1.2255033e-09
8.9256811e-09
-1.7641414e-09
9.2229423e-09
-1.7435719e-09
9.5457574e-09
-1.7864336e-09
9.8537284e-09
-1.78858e-09
1.0180667e-08
-1.7991058e-09
1.050085e-08
-1.8245868e-09
1.0830229e-08
-1.806981e-09
1.1162978e-08
-1.8549039e-09
1.1495183e-08
-1.8229759e-09
1.1840441e-08
-1.8828243e-09
1.217405e-08
-1.8361828e-09
1.253042e-08
-1.903715e-09
1.2866891e-08
-1.8546673e-09
1.3231712e-08
-1.9166716e-09
1.3572763e-08
-1.8828129e-09
1.3944091e-08
-1.9162361e-09
1.4289413e-08
-1.9116521e-09
1.4670106e-08
-1.9212843e-09
1.5017181e-08
-1.9317581e-09
1.5404526e-08
-1.9225699e-09
1.5757765e-08
-1.9544228e-09
1.6145668e-08
-1.9208311e-09
1.6509605e-08
-1.9726388e-09
1.6897424e-08
-1.9200064e-09
1.7275412e-08
-1.9977048e-09
1.7658392e-08
-1.9160102e-09
1.8049557e-08
-2.0061616e-09
1.842913e-08
-1.9145895e-09
1.8834875e-08
-2.0111602e-09
1.9206905e-08
-1.9108546e-09
1.9626896e-08
-2.0186015e-09
1.9992238e-08
-1.9091137e-09
2.0417753e-08
-2.003244e-09
2.079232e-08
-1.9397386e-09
2.1211446e-08
-1.9843425e-09
2.1605181e-08
-1.9660345e-09
2.2008545e-08
-1.9508971e-09
2.2418862e-08
-1.9768947e-09
2.2816413e-08
-1.9467098e-09
2.3218586e-08
-1.9366148e-09
2.3636011e-08
-1.9679705e-09
2.40244e-08
-1.914486e-09
2.4451043e-08
-1.9582643e-09
2.4846684e-08
-1.9435017e-09
2.5253218e-08
-1.9119661e-09
2.5671767e-08
-1.9501658e-09
2.6065089e-08
-1.894009e-09
2.6484411e-08
-1.9349432e-09
2.6887468e-08
-1.9034711e-09
2.7309719e-08
-1.8929829e-09
2.7698049e-08
-1.8969988e-09
2.8117871e-08
-1.8346245e-09
2.8514058e-08
-1.9051413e-09
2.8912423e-08
-1.8082684e-09
2.9361113e-08
-1.9244411e-09
2.9697399e-08
-1.8049761e-09
3.0129887e-08
-1.7904343e-09
3.056808e-08
-1.9065296e-09
3.0920878e-08
-1.7958564e-09
3.1333495e-08
-1.7697107e-09
3.1750757e-08
-1.825947e-09
3.2133911e-08
-1.7410297e-09
3.2549125e-08
-1.7915882e-09
3.2909124e-08
-1.681074e-09
3.3331981e-08
-1.758286e-09
3.3743742e-08
-1.7880181e-09
3.4108476e-08
-1.691302e-09
3.4517273e-08
-1.7257801e-09
3.4925194e-08
-1.6993852e-09
3.530165e-08
-1.6832277e-09
3.5691407e-08
-1.6420129e-09
3.6105652e-08
-1.6839228e-09
3.6473052e-08
-1.6240573e-09
3.6856962e-08
-1.5988158e-09
-1.6088314e-09
9.0335858e-09
-2.0948189e-09
9.3597997e-09
-2.0697858e-09
9.7041936e-09
-2.1308275e-09
1.0037755e-08
-2.1221414e-09
1.0393616e-08
-2.1549665e-09
1.0735313e-08
-2.1662837e-09
1.1100276e-08
-2.1719448e-09
1.1450995e-08
-2.205622e-09
1.1824031e-08
-2.1960121e-09
1.218537e-08
-2.244164e-09
1.2563023e-08
-2.213835e-09
1.2936256e-08
-2.2769487e-09
1.3317019e-08
-2.2354295e-09
1.3703795e-08
-2.3034481e-09
1.4085014e-08
-2.2640317e-09
1.4487265e-08
-2.3184869e-09
1.4867634e-08
-2.2920215e-09
1.5287294e-08
-2.3409447e-09
1.566528e-08
-2.3097438e-09
1.6099592e-08
-2.3568822e-09
1.6480287e-08
-2.335117e-09
1.6918909e-08
-2.3594532e-09
1.7310874e-08
-2.3646044e-09
1.7753314e-08
-2.3624463e-09
1.8158674e-08
-2.403065e-09
1.8595984e-08
-2.3533199e-09
1.9016649e-08
-2.4268263e-09
1.9450208e-08
-2.3481487e-09
1.9887083e-08
-2.4480357e-09
2.0314884e-08
-2.3386553e-09
2.0765202e-08
-2.4689192e-09
2.1180343e-08
-2.3242546e-09
2.1650399e-08
-2.4733007e-09
2.2059236e-08
-2.3485752e-09
2.2531303e-08
-2.4564096e-09
2.2956397e-08
-2.391128e-09
2.3413355e-08
-2.4078558e-09
2.3859221e-08
-2.4227603e-09
2.4292272e-08
-2.3797607e-09
2.4747115e-08
-2.391458e-09
2.5195069e-08
-2.4159247e-09
2.5624338e-08
-2.3437552e-09
2.6106429e-08
-2.4403547e-09
2.6511406e-08
-2.3484792e-09
2.6984429e-08
-2.3849891e-09
2.7421214e-08
-2.3869507e-09
2.7861909e-08
-2.3347036e-09
2.8304779e-08
-2.3778137e-09
2.876176e-08
-2.3604522e-09
2.9218052e-08
-2.349275e-09
2.9630928e-08
-2.3098749e-09
3.012121e-08
-2.3249058e-09
3.0510053e-08
-2.2939848e-09
3.0985925e-08
-2.2841396e-09
3.1472778e-08
-2.4112945e-09
3.1774602e-08
-2.1067998e-09
3.2309651e-08
-2.3254835e-09
3.2764409e-08
-2.3612877e-09
3.3081555e-08
-2.1130021e-09
3.360547e-08
-2.293626e-09
3.4055382e-08
-2.2758591e-09
3.4470233e-08
-2.155881e-09
3.495667e-08
-2.2780252e-09
3.5290306e-08
-2.0147102e-09
3.580575e-08
-2.2737296e-09
3.6252876e-08
-2.2351437e-09
3.6589007e-08
-2.0274332e-09
3.7044239e-08
-2.1810123e-09
3.7478984e-08
-2.1341297e-09
3.7800151e-08
-2.0043948e-09
3.8168025e-08
-2.0098868e-09
3.8624593e-08
-2.140491e-09
3.8885777e-08
-1.8852413e-09
3.919329e-08
-1.9063286e-09
-1.9133759e-09
9.0651074e-09
-2.4410882e-09
9.4226321e-09
-2.4273105e-09
9.7806334e-09
-2.4888288e-09
1.0147478e-08
-2.488986e-09
1.0519085e-08
-2.5265738e-09
1.0892249e-08
-2.5394475e-09
1.1278873e-08
-2.5585692e-09
1.1656662e-08
-2.5834109e-09
1.2059113e-08
-2.5984624e-09
1.2442536e-08
-2.6275874e-09
1.285773e-08
-2.629029e-09
1.3248592e-08
-2.6678107e-09
1.3674206e-08
-2.6610437e-09
1.4076504e-08
-2.7057463e-09
1.4506222e-08
-2.6937491e-09
1.4925831e-08
-2.7380958e-09
1.535633e-08
-2.7225206e-09
1.5795256e-08
-2.7798707e-09
1.6223368e-08
-2.737856e-09
1.6683214e-08
-2.8167283e-09
1.7109755e-08
-2.7616575e-09
1.757932e-08
-2.8290183e-09
1.8011645e-08
-2.7969295e-09
1.849676e-08
-2.8475612e-09
1.8930739e-08
-2.837044e-09
1.9417179e-08
-2.8397601e-09
1.9861413e-08
-2.8710601e-09
2.0347166e-08
-2.8339017e-09
2.0799924e-08
-2.9007934e-09
2.1292373e-08
-2.8311052e-09
2.1742092e-08
-2.9186374e-09
2.222266e-08
-2.8048227e-09
2.2702938e-08
-2.9535786e-09
2.3153166e-08
-2.798803e-09
2.3652998e-08
-2.9562416e-09
2.4100294e-08
-2.8384247e-09
2.4599883e-08
-2.9074442e-09
2.5060367e-08
-2.8832447e-09
2.5514718e-08
-2.8341114e-09
2.6020097e-08
-2.8968369e-09
2.6466107e-08
-2.8619344e-09
2.6941042e-08
-2.8186903e-09
2.7452169e-08
-2.9514822e-09
2.7840601e-08
-2.736911e-09
2.8381503e-08
-2.9258906e-09
2.876888e-08
-2.7743286e-09
2.9293059e-08
-2.8588818e-09
2.9729264e-08
-2.8140191e-09
3.0272791e-08
-2.9039796e-09
3.0728093e-08
-2.8045765e-09
3.113441e-08
-2.7161923e-09
3.170782e-08
-2.8983151e-09
3.1931779e-08
-2.5179437e-09
3.2447824e-08
-2.8001855e-09
3.3031705e-08
-2.9951754e-09
3.280637e-08
-1.881464e-09
3.3006602e-08
-2.5257163e-09
3.3265341e-08
-2.6200259e-09
3.2909196e-08
-1.756858e-09
3.30861e-08
-2.4705292e-09
3.3695014e-08
-2.8847733e-09
3.3881238e-08
-2.342105e-09
3.4189047e-08
-2.5858341e-09
3.3760838e-08
-1.5865018e-09
3.3944629e-08
-2.4575205e-09
3.4600956e-08
-2.8914706e-09
3.4230107e-08
-1.6565846e-09
3.4314404e-08
-2.2653088e-09
3.4429706e-08
-2.2494316e-09
3.4269049e-08
-1.843738e-09
3.3936404e-08
-1.6772415e-09
3.4117493e-08
-2.3215806e-09
3.4058373e-08
-1.8261213e-09
3.3842531e-08
-1.6904864e-09
-1.7013906e-09
9.0414667e-09
-2.8112046e-09
9.4167192e-09
-2.802563e-09
9.7948949e-09
-2.8670045e-09
1.0185599e-08
-2.8796904e-09
1.0573129e-08
-2.9141039e-09
1.0977224e-08
-2.9435422e-09
1.1377276e-08
-2.9586211e-09
1.1790853e-08
-2.9969879e-09
1.2207512e-08
-3.0151214e-09
1.2628336e-08
-3.0484113e-09
1.3062087e-08
-3.0627801e-09
1.3488855e-08
-3.0945787e-09
1.3940506e-08
-3.1126944e-09
1.4374457e-08
-3.1396972e-09
1.4838927e-08
-3.1582196e-09
1.5284317e-08
-3.1834852e-09
1.5760239e-08
-3.1984426e-09
1.6215535e-08
-3.2351674e-09
1.6697752e-08
-3.220073e-09
1.7170195e-08
-3.2891707e-09
1.7653066e-08
-3.2445292e-09
1.8129329e-08
-3.305281e-09
1.8617859e-08
-3.2854594e-09
1.9113785e-08
-3.3434874e-09
1.9591237e-08
-3.3144958e-09
2.0092318e-08
-3.3408415e-09
2.0570862e-08
-3.3496035e-09
2.1074756e-08
-3.3377962e-09
2.154625e-08
-3.3722866e-09
2.2074202e-08
-3.3590576e-09
2.2515746e-08
-3.360181e-09
2.303998e-08
-3.3290571e-09
2.3514754e-08
-3.4283527e-09
2.399113e-08
-3.2751793e-09
2.4496125e-08
-3.461236e-09
2.4942662e-08
-3.2849624e-09
2.5448735e-08
-3.4135166e-09
2.592509e-08
-3.3596003e-09
2.6394556e-08
-3.3035768e-09
2.6965715e-08
-3.4679964e-09
2.7330355e-08
-3.2265739e-09
2.7823313e-08
-3.3116484e-09
2.8272191e-08
-3.4003607e-09
2.8413713e-08
-2.8784328e-09
2.8434387e-08
-2.9465644e-09
2.8232158e-08
-2.5721e-09
2.8703873e-08
-3.3305967e-09
2.8810641e-08
-2.9207866e-09
2.919421e-08
-3.2875485e-09
2.9294201e-08
-2.9045679e-09
2.8991158e-08
-2.4131492e-09
2.9310749e-08
-3.2179062e-09
2.8551015e-08
-1.7582091e-09
2.8457322e-08
-2.7064926e-09
2.832761e-08
-2.8654634e-09
2.741604e-08
-9.6989387e-10
2.6337997e-08
-1.4476738e-09
2.5600507e-08
-1.8825362e-09
2.4982118e-08
-1.1384689e-09
2.3460079e-08
-9.4849032e-10
2.2935908e-08
-2.3606015e-09
2.1444804e-08
-8.5100161e-10
2.0363878e-08
-1.504908e-09
1.8684231e-08
9.3145439e-11
1.6946846e-08
-7.2013554e-10
1.665204e-08
-2.5966648e-09
1.5619246e-08
-6.2379101e-10
1.4478856e-08
-1.1249179e-09
1.3983791e-08
-1.7543671e-09
1.4038118e-08
-1.8980654e-09
1.1217273e-08
1.1436037e-09
1.1858662e-08
-2.9629693e-09
1.2504528e-08
-2.4719874e-09
1.0859961e-08
-4.5919108e-11
-1.9822233e-09
8.9629159e-09
-3.202615e-09
9.3493179e-09
-3.1889651e-09
9.7531709e-09
-3.2708574e-09
1.01555e-08
-3.2820199e-09
1.0570498e-08
-3.3291011e-09
1.0991086e-08
-3.3641304e-09
1.1416893e-08
-3.3844279e-09
1.185438e-08
-3.4344754e-09
1.2293739e-08
-3.4544803e-09
1.2745877e-08
-3.5005498e-09
1.3199896e-08
-3.5167988e-09
1.3664806e-08
-3.5594884e-09
1.4134786e-08
-3.5826741e-09
1.4611772e-08
-3.6166836e-09
1.5092999e-08
-3.6394471e-09
1.5582108e-08
-3.6725935e-09
1.6077377e-08
-3.6937122e-09
1.6567467e-08
-3.7252568e-09
1.7073329e-08
-3.7259348e-09
1.7571768e-08
-3.7876096e-09
1.8079375e-08
-3.7521368e-09
1.856593e-08
-3.7918354e-09
1.9082373e-08
-3.8019026e-09
1.9578402e-08
-3.8395171e-09
2.0079106e-08
-3.8151997e-09
2.0567564e-08
-3.8292995e-09
2.1074633e-08
-3.856672e-09
2.1565901e-08
-3.8290642e-09
2.2040491e-08
-3.8468767e-09
2.2574967e-08
-3.8935334e-09
2.3001247e-08
-3.7864619e-09
2.3547601e-08
-3.8754107e-09
2.4028155e-08
-3.9089067e-09
2.4384072e-08
-3.6310966e-09
2.4895219e-08
-3.9723828e-09
2.4679567e-08
-3.0693102e-09
2.4719543e-08
-3.4534927e-09
2.5102618e-08
-3.7426752e-09
2.5034198e-08
-3.2351566e-09
2.5345967e-08
-3.7797651e-09
2.4930047e-08
-2.8106544e-09
2.4634934e-08
-3.0165359e-09
2.4327375e-08