/*--------------------------------*- C++ -*----------------------------------*\
| =========                 |                                                 |
| \\      /  F ield         | OpenFOAM: The Open Source CFD Toolbox           |
|  \\    /   O peration     | Version:  2.3.0                                 |
|   \\  /    A nd           | Web:      www.OpenFOAM.org                      |
|    \\/     M anipulation  |                                                 |
\*---------------------------------------------------------------------------*/
FoamFile
{
    version     2.0;
    format      ascii;
    class       volVectorField;
    location    "2.2e-05";
    object      U;
}
// * * * * * * * * * * * * * * * * * * * * * * * * * * * * * * * * * * * * * //

dimensions      [0 1 -1 0 0 0 0];

internalField   nonuniform List<vector> 
7500
(
(460.03566 0.0081418156 2.2461712e-16)
(459.94102 -0.026731441 3.3365746e-15)
(459.96582 0.017239899 2.7381201e-15)
(459.99439 0.0054801284 -5.0806449e-16)
(459.9044 -0.00091598205 2.2397719e-15)
(459.98972 0.0074716438 5.8434258e-15)
(459.91904 -0.012004246 2.1096622e-15)
(459.97019 0.022060256 5.2166274e-15)
(459.94756 -0.030314549 5.0772553e-15)
(459.94745 0.025837819 1.6808461e-15)
(459.90548 -0.020082512 1.3863847e-15)
(459.97631 0.01859445 -1.5744554e-15)
(459.8743 -0.022547749 1.435892e-15)
(460.00675 0.028807804 9.7322445e-16)
(459.88053 -0.03498955 1.4323928e-15)
(459.99287 0.035654284 1.2684651e-15)
(459.92188 -0.033087179 1.1481077e-15)
(459.94487 0.030347472 -1.3486779e-15)
(459.92917 -0.022387929 1.705151e-15)
(459.9317 0.020818041 5.2169358e-16)
(459.92238 -0.02740936 -1.7365033e-15)
(459.9036 0.037091821 1.0361993e-15)
(459.96451 -0.041658782 1.0045469e-15)
(459.86316 0.039306954 -1.28229e-15)
(459.97475 -0.025076286 1.7425031e-15)
(459.82076 0.007695347 8.8888626e-16)
(459.94133 0.016734776 1.1758931e-15)
(459.85225 -0.043856499 -1.5243669e-15)
(459.93785 0.063797518 -1.5081184e-15)
(459.91034 -0.073058753 3.3062716e-15)
(459.9289 0.07282508 -1.2899141e-15)
(459.95519 -0.066306059 8.957293e-16)
(459.88988 0.053394064 1.098346e-15)
(459.9551 -0.042625081 -1.4973986e-15)
(459.88513 0.031239193 -6.4352557e-16)
(459.95072 -0.015749739 7.7561675e-16)
(459.89787 -0.0034487292 -1.5331395e-15)
(459.95194 0.015323077 1.0590716e-15)
(459.88127 -0.021983647 1.2131991e-15)
(459.95699 0.037747177 1.0613798e-15)
(459.90427 -0.051538566 9.1049197e-16)
(459.90083 0.05255353 7.5413842e-16)
(459.96756 -0.053828786 2.3648272e-15)
(459.87277 0.052184454 3.0380765e-15)
(460.06076 -0.038911469 7.9510083e-16)
(459.88613 -0.00248874 -1.7358432e-15)
(460.0022 0.021534406 -1.2266853e-15)
(459.98219 -0.0079920138 -1.033565e-15)
(459.88748 0.014081356 5.0721037e-16)
(459.99467 -0.034168953 5.6687259e-16)
(459.81999 0.043473955 7.0975846e-16)
(459.93192 -0.021786816 2.7125332e-15)
(459.85264 0.0034168656 4.280479e-16)
(459.86025 0.014843065 3.1388765e-16)
(459.82113 -0.025795308 3.8567859e-16)
(459.87849 0.022962868 -1.3222721e-15)
(459.79033 0.0013569126 7.5703982e-16)
(459.89117 -0.043477549 6.0281517e-16)
(459.79942 0.062563798 4.1858696e-16)
(459.86832 -0.010191048 3.0925596e-16)
(459.87314 -0.067511073 6.1727079e-16)
(459.6701 0.055556088 2.5015654e-15)
(459.97595 0.0045215429 7.7506702e-17)
(459.63905 -0.024124864 -9.5971681e-16)
(459.86463 0.0057425658 -1.3647446e-15)
(459.67379 -0.0086995428 3.588605e-16)
(459.68669 0.018790344 2.0532781e-16)
(459.82949 -0.020006768 -5.175733e-17)
(459.75805 -0.017614168 2.0806092e-16)
(459.86417 0.038081939 -1.2365608e-15)
(459.88599 -0.022061095 -1.5782362e-15)
(459.88493 -0.0063012073 7.6905301e-16)
(459.88034 0.021762439 2.2205461e-15)
(459.91106 -0.019989396 2.6904145e-16)
(459.97229 -0.006380454 2.0009152e-15)
(460.03263 0.0015856929 -8.7799109e-17)
(459.94755 -7.8161982e-10 4.7211214e-17)
(459.96252 -0.012417509 -2.0800065e-17)
(460.00046 0.021492874 1.1867919e-16)
(459.89725 -0.013593431 -4.6834701e-17)
(459.9952 0.018630802 1.2083854e-16)
(459.9163 -0.018084762 1.4890042e-16)
(459.97156 0.022344285 1.021e-16)
(459.9479 -0.024858992 2.8331789e-16)
(459.94917 0.032983723 1.8346903e-16)
(459.9056 -0.042113243 3.4213044e-16)
(459.97717 0.052273347 1.500804e-16)
(459.87441 -0.054387594 2.2369302e-16)
(460.00697 0.05116689 -5.8250241e-16)
(459.87908 -0.050006754 2.0899195e-16)
(459.99316 0.047919717 -8.4175687e-16)
(459.91922 -0.049740299 4.0226959e-16)
(459.94529 0.060271261 4.2977012e-16)
(459.92594 -0.063972656 3.6042859e-16)
(459.93132 0.0708654 2.7519874e-16)
(459.92082 -0.077068198 2.2200402e-16)
(459.90327 0.077786322 2.6722617e-16)
(459.96314 -0.068264123 2.6066019e-16)
(459.86872 0.048801682 1.2377308e-15)
(459.97377 -0.0054309798 9.1747093e-17)
(459.8301 -0.039222618 5.9321692e-16)
(459.93829 0.081260353 -6.5925185e-16)
(459.85806 -0.11120487 -5.3757473e-16)
(459.93254 0.11800986 1.5940531e-15)
(459.90865 -0.11796697 3.4646598e-16)
(459.92625 0.10795174 7.2368797e-17)
(459.95183 -0.09383002 1.8076686e-16)
(459.89384 0.071985369 1.471577e-16)
(459.9548 -0.045593598 1.366235e-16)
(459.89399 0.01906078 2.4959696e-17)
(459.95101 0.0099894021 2.1274476e-16)
(459.90681 -0.035011181 -1.0287201e-17)
(459.95456 0.045702191 -4.8623827e-16)
(459.88505 -0.057679916 1.3751295e-16)
(459.95761 0.071622887 1.4195289e-16)
(459.90226 -0.069642701 3.8189015e-17)
(459.90174 0.062491231 -5.8164214e-16)
(459.96075 -0.065757744 1.4707359e-16)
(459.87417 0.05986458 4.2178119e-16)
(460.05009 -0.039008844 2.6666847e-16)
(459.89579 -0.015347265 -4.196152e-16)
(460.00287 0.039054345 8.3763767e-17)
(459.98974 -0.020845839 -4.3647612e-16)
(459.89135 0.020615132 1.3112709e-16)
(460.00693 -0.031080397 2.467707e-16)
(459.82875 0.039579795 1.7558992e-16)
(459.931 -0.0028483833 -2.4834422e-16)
(459.86094 -0.00039361404 3.0455688e-16)
(459.8551 -0.0055068967 -3.3957549e-16)
(459.8249 0.0071671786 2.6450955e-16)
(459.87985 -0.0052435241 3.3411289e-16)
(459.78755 0.02393297 2.6152768e-16)
(459.89896 -0.055611085 1.47984e-16)
(459.8076 0.05647583 1.8332694e-16)
(459.85279 0.030785576 -4.7717277e-16)
(459.88098 -0.10455846 9.9217677e-17)
(459.67349 0.056926518 1.9585597e-16)
(459.96495 0.038095287 9.7200068e-17)
(459.63706 -0.014495069 8.9107157e-17)
(459.8715 -0.0090140259 -3.3452991e-16)
(459.68695 -0.034050893 1.5730977e-16)
(459.70587 0.046261091 -5.763868e-16)
(459.85599 -0.0072904187 1.2642218e-16)
(459.79822 -0.060611311 1.3925901e-16)
(459.90457 0.064589045 2.7129687e-16)
(459.91407 -0.018657393 8.5715776e-16)
(459.92558 -0.034427081 -5.2187102e-16)
(459.89954 0.029174431 1.4089575e-16)
(459.9288 -0.013703518 1.3680934e-16)
(459.97911 -0.0063963729 1.2353276e-16)
(460.0166 0.00066681477 -1.2570318e-17)
(459.96513 0.0075870511 -7.8061347e-16)
(459.94149 -0.024334754 4.765607e-17)
(460.01881 0.027282076 5.8683107e-17)
(459.87908 -0.021587431 -2.0077701e-17)
(460.00631 0.027599709 6.5228557e-16)
(459.90752 -0.027130131 5.6722321e-17)
(459.97739 0.039735039 -9.3401609e-17)
(459.94663 -0.046750567 3.2204777e-18)
(459.9517 0.058770406 -1.3071804e-17)
(459.90777 -0.06688587 5.0991985e-17)
(459.9823 0.070013012 -7.6612814e-16)
(459.87088 -0.067703003 -6.5490793e-16)
(460.01165 0.065324565 5.7761321e-16)
(459.87197 -0.072519017 8.5069306e-16)
(459.98943 0.075746803 -8.7562941e-16)
(459.91223 -0.082696263 5.4615197e-16)
(459.93644 0.10112752 9.5248797e-17)
(459.91605 -0.11479757 1.4114775e-16)
(459.92477 0.13309339 -4.4137349e-17)
(459.90729 -0.14113043 -9.6425591e-17)
(459.90329 0.12968696 3.7719844e-16)
(459.95056 -0.098595702 5.7551528e-16)
(459.88621 0.052401262 -2.0895489e-16)
(459.96831 0.015808805 1.1745853e-16)
(459.85702 -0.075925656 -9.6789847e-18)
(459.94098 0.12865846 -4.4549625e-16)
(459.8659 -0.16321249 -2.515646e-17)
(459.93133 0.16784428 -6.8020011e-16)
(459.89542 -0.1682748 3.1200054e-16)
(459.92205 0.15186484 5.762827e-17)
(459.93594 -0.13172023 1.8356492e-17)
(459.90464 0.10104591 -3.1284279e-16)
(459.94866 -0.059876041 -1.3011821e-16)
(459.91877 0.016172414 6.8736011e-17)
(459.95396 0.025301397 -1.7397344e-16)
(459.92707 -0.056662507 -6.0290705e-16)
(459.96417 0.065701796 -5.064418e-16)
(459.89304 -0.073563817 -1.9246562e-17)
(459.96869 0.08257694 -2.6380586e-17)
(459.89402 -0.081675802 -4.9049768e-17)
(459.90924 0.087582033 -9.3228051e-17)
(459.94795 -0.09346004 -2.8436623e-16)
(459.88093 0.076219034 -6.2230653e-17)
(460.03162 -0.045359915 2.4963691e-17)
(459.91285 -0.027494441 -2.9966245e-17)
(460.0064 0.04046636 3.9738047e-16)
(460.0024 -0.012926945 2.3994357e-16)
(459.90812 0.01918522 -2.6247586e-16)
(460.02337 -0.027111403 -2.4870964e-17)
(459.85218 0.036157739 4.0740743e-16)
(459.92887 0.0011220984 8.8645163e-16)
(459.86983 0.018646056 8.0180401e-17)
(459.84956 -0.030743504 3.8267195e-17)
(459.83061 0.022592481 4.4625433e-17)
(459.87542 -0.018794093 4.1101188e-16)
(459.78989 0.031770504 -8.9712755e-16)
(459.90574 -0.067890245 -1.3587358e-17)
(459.82621 0.063618403 7.321132e-17)
(459.83832 0.048712396 -2.9689486e-16)
(459.87831 -0.12674443 -4.0583416e-16)
(459.6959 0.068417442 -5.0049636e-16)
(459.95152 0.033547995 5.6608357e-17)
(459.63645 0.016864581 7.7098646e-17)
(459.88072 0.00071761466 -2.719856e-16)
(459.73248 -0.081852019 -6.5094567e-16)
(459.76199 0.054776166 -1.0034148e-16)
(459.90863 0.0042319945 2.1239849e-17)
(459.88449 -0.10071184 1.0301977e-18)
(459.98946 0.094201486 -6.005539e-18)
(459.96609 -0.0093820119 4.9571324e-17)
(459.97875 -0.049512109 4.2553165e-17)
(459.93194 0.023647559 2.4125579e-17)
(459.93091 -0.016986564 2.8970062e-16)
(459.96673 -0.0054515292 3.1428902e-16)
(459.94393 0.0057404648 1.0446026e-17)
(460.03138 -0.0036506833 2.868963e-18)
(459.87479 -0.014594121 -6.4176743e-16)
(460.06386 0.019948285 -4.7473617e-16)
(459.83558 -0.024887671 -8.300651e-17)
(460.02829 0.033588285 -5.1276247e-16)
(459.88652 -0.038899761 1.4018975e-16)
(459.99406 0.059613455 -6.0087078e-17)
(459.9289 -0.065598601 6.1362879e-17)
(459.97781 0.069001836 -4.5808005e-16)
(459.88618 -0.070107428 -4.3389734e-16)
(460.01226 0.070269858 5.4911284e-16)
(459.84765 -0.071944496 4.6568406e-16)
(460.0241 0.077759016 4.9489114e-16)
(459.84781 -0.087955219 5.8234469e-16)
(459.97901 0.096455573 -1.0467932e-16)
(459.8828 -0.10780383 8.2751859e-17)
(459.91535 0.13184111 -2.1527605e-17)
(459.88281 -0.14687955 -5.933456e-16)
(459.90539 0.16703148 1.5819369e-16)
(459.87316 -0.17546655 2.9064969e-17)
(459.89999 0.16183204 4.8673079e-16)
(459.92346 -0.1336685 4.5343796e-17)
(459.91379 0.084588471 2.7128519e-18)
(459.96819 -0.01558828 3.9943921e-16)
(459.90132 -0.051070311 8.2431747e-17)
(459.95963 0.11921343 -4.7290191e-16)
(459.8901 -0.16970867 -1.3902868e-17)
(459.93739 0.19219035 4.9681367e-16)
(459.88253 -0.20073571 -1.8412053e-16)
(459.91932 0.18862626 2.9068145e-16)
(459.91212 -0.17032345 -6.8448611e-17)
(459.92135 0.13232193 -6.4045373e-17)
(459.94294 -0.085873946 3.9646343e-16)
(459.9577 0.031992762 -5.4319193e-17)
(459.96834 0.0083544045 4.2612302e-17)
(459.95967 -0.042883426 -8.2686876e-17)
(459.99131 0.055274064 -3.6310636e-16)
(459.90759 -0.06000793 2.5781735e-16)
(459.99435 0.075725687 1.7878582e-17)
(459.89838 -0.085094289 2.5201184e-17)
(459.92753 0.10119788 3.9176725e-17)
(459.93995 -0.10533612 -6.1469767e-18)
(459.90096 0.085819506 -1.5646352e-17)
(460.01385 -0.061104235 1.5349112e-17)
(459.93638 -0.014431671 -9.2886734e-18)
(460.01929 0.014356155 -6.8929042e-18)
(460.02101 0.015436765 -1.5391391e-17)
(459.93337 0.0091543053 -3.8689686e-17)
(460.04317 -0.020088269 3.4288066e-16)
(459.88648 0.037924322 -2.2210264e-17)
(459.92855 -0.0011913477 -1.7213187e-17)
(459.88313 0.036900888 2.5673544e-16)
(459.83283 -0.037570494 3.9445597e-17)
(459.83659 0.021851622 7.6265635e-18)
(459.86553 -0.025068247 9.0119599e-19)
(459.78575 0.038876605 -3.0302403e-16)
(459.91995 -0.081545834 -2.8656359e-17)
(459.8459 0.087804059 3.0552516e-16)
(459.83759 0.030598142 1.098421e-16)
(459.88412 -0.1322925 3.3090278e-17)
(459.7393 0.11571212 -1.0305203e-17)
(459.94819 -0.0098618514 -2.8952176e-16)
(459.66929 0.013235117 -3.1329555e-16)
(459.88517 0.033276639 2.5624547e-16)
(459.79346 -0.11094019 1.2330026e-17)
(459.8335 0.035225367 2.4647386e-16)
(459.96328 0.0077049845 2.8932908e-17)
(459.97658 -0.11049682 -2.7457795e-16)
(460.05769 0.092158335 -2.9119689e-16)
(460.00194 -0.0013831118 2.4033765e-16)
(459.97546 -0.029634924 -3.4891956e-17)
(459.92527 0.028572137 -1.3764149e-17)
(459.8658 -0.020064378 -3.6276374e-17)
(459.90282 -0.0068058233 -2.9419234e-16)
(459.73056 0.0081331704 -1.5033149e-17)
(460.21271 -0.0047761306 6.9281486e-18)
(459.69541 -0.011628113 2.5314487e-16)
(460.19209 0.011549684 -3.3385923e-18)
(459.71315 -0.01996499 -5.1946352e-17)
(460.11843 0.024494515 1.0507257e-17)
(459.80553 -0.025735438 -5.6138588e-17)
(460.08442 0.043189586 -5.280968e-16)
(459.84591 -0.042543172 3.8546899e-17)
(460.08136 0.050303273 -1.714347e-17)
(459.79218 -0.06233158 -4.5512459e-16)
(460.10428 0.076378498 -2.9170115e-17)
(459.75717 -0.083648718 1.1866941e-17)
(460.07309 0.091056825 2.7888835e-17)
(459.7692 -0.092695371 2.1255572e-17)
(459.98187 0.10510357 -6.0161829e-17)
(459.80711 -0.11733672 4.2277997e-16)
(459.90383 0.14996645 -5.1526744e-17)
(459.80705 -0.16893094 5.0543196e-17)
(459.90032 0.1939343 4.3369896e-16)
(459.81485 -0.21425278 3.1581127e-16)
(459.91125 0.20773527 -6.6222526e-17)
(459.89094 -0.19562066 -1.4678416e-17)
(459.95757 0.14377152 -2.3911825e-17)
(459.97187 -0.075246025 1.1466394e-16)
(459.97437 -0.0056233024 3.1913166e-16)
(459.99173 0.086112069 -2.2126024e-17)
(459.96173 -0.14121659 1.8493072e-17)
(459.96753 0.18151672 -2.8396883e-17)
(459.91617 -0.19581559 -3.6901471e-16)
(459.93785 0.19588759 3.0823925e-16)
(459.91709 -0.18559624 2.7260438e-16)
(459.9443 0.14657398 2.9843829e-16)
(459.95358 -0.11233956 -1.4293808e-16)
(459.99059 0.058173602 -2.692677e-16)
(459.99978 -0.026161482 -3.7833786e-16)
(459.98804 -0.012429547 -2.5483575e-16)
(460.03683 0.028500775 -1.2053249e-17)
(459.92669 -0.03155382 6.4204809e-17)
(460.03525 0.053332984 -3.440268e-17)
(459.91392 -0.057724242 6.4435953e-18)
(459.95938 0.076466348 2.4639575e-16)
(459.94413 -0.093116857 4.7049243e-17)
(459.92341 0.090838069 2.5333697e-16)
(460.00394 -0.089143627 -2.4755055e-16)
(459.95302 0.022569217 1.4344261e-17)
(460.02936 -0.023617716 2.4109935e-16)
(460.03061 0.040128998 2.8348422e-16)
(459.95328 -0.017990623 2.4445852e-16)
(460.05423 0.017276055 -2.4204529e-16)
(459.92073 0.015701403 3.1696069e-16)
(459.92476 0.019236658 2.8429892e-16)
(459.89597 0.04021915 1.6914755e-17)
(459.81302 -0.056791082 1.9872579e-16)
(459.83256 0.058288996 -9.7160994e-18)
(459.85206 -0.060470046 -2.4609642e-16)
(459.77024 0.041327057 -2.2086287e-16)
(459.93429 -0.06474817 2.487e-16)
(459.86492 0.078604889 5.8823329e-18)
(459.84811 0.015984534 2.6257141e-16)
(459.91782 -0.13797265 9.4998093e-17)
(459.80384 0.15060652 1.3007409e-17)
(459.94486 -0.005483715 2.0410051e-16)
(459.72416 -0.013297121 4.8262315e-18)
(459.87221 0.019766699 2.0744956e-16)
(459.81319 -0.10004007 -2.6290899e-16)
(459.83949 0.0053730538 1.457926e-17)
(459.93852 -0.0011628855 9.2939394e-17)
(459.97258 -0.072609034 -1.4209862e-16)
(460.02002 0.070969045 -2.3319584e-17)
(459.95809 -0.0098817301 -4.5447027e-17)
(459.88184 -0.00025285107 1.6670317e-16)
(459.85285 0.039573913 -1.4253145e-16)
(459.73607 -0.006072794 4.4222625e-17)
(459.80335 -0.0059250444 6.4310224e-18)
(459.28323 0.0097580822 3.1751318e-17)
(460.60078 -0.001886861 -2.5232302e-16)
(459.3053 -0.0062973502 4.2536296e-17)
(460.53729 -0.0011278838 -7.0529778e-17)
(459.38775 -0.0013525097 -1.4073281e-16)
(460.44656 -0.0046003103 5.0265896e-16)
(459.52568 0.0095558622 -2.5572484e-16)
(460.40979 0.0091193231 -2.7288388e-16)
(459.57741 -0.016512317 9.4821842e-17)
(460.37966 0.03737777 3.0284298e-16)
(459.53313 -0.053967613 -3.6174553e-16)
(460.33219 0.071422257 4.228788e-16)
(459.53585 -0.073339057 2.0856867e-17)
(460.20663 0.087463794 -2.9415513e-16)
(459.60685 -0.096004012 9.0635308e-18)
(460.05383 0.12337718 -2.9707561e-17)
(459.68114 -0.13738246 -7.4130786e-18)
(459.97684 0.17917433 -1.0309699e-18)
(459.7021 -0.20387309 6.6683969e-18)
(459.9908 0.22893883 2.2188176e-17)
(459.74032 -0.25269107 3.6570279e-16)
(460.00832 0.23336599 5.494756e-17)
(459.83995 -0.22464432 4.1169951e-17)
(460.05737 0.16251606 2.962009e-17)
(459.95176 -0.11338746 -2.7527714e-17)
(460.08641 0.037326087 6.632289e-17)
(460.01091 0.030281098 2.9229545e-16)
(460.09556 -0.07529723 4.7150249e-18)
(460.00736 0.1269982 -2.392434e-16)
(460.0352 -0.14428465 2.710132e-17)
(459.97079 0.16193625 4.1084491e-17)
(459.98663 -0.16411634 -1.8135945e-16)
(459.94933 0.1457875 -3.0276078e-17)
(459.98849 -0.13286865 8.470675e-17)
(459.97276 0.081953784 3.0792369e-16)
(460.03317 -0.056374329 -5.6389884e-18)
(459.96047 0.013424506 3.8843772e-17)
(460.08525 0.0027180724 3.0016914e-17)
(459.90464 0.00087211936 2.357919e-16)
(460.07923 0.019922871 -2.184479e-16)
(459.90286 -0.012038259 -2.2363168e-16)
(459.98209 0.037679154 4.2171222e-17)
(459.9313 -0.068829514 8.9671819e-17)
(459.92204 0.081476074 2.4777374e-16)
(459.96785 -0.11180915 4.849811e-17)
(459.93608 0.057639975 2.9990013e-16)
(459.99669 -0.057950475 6.5085974e-17)
(459.99775 0.064649638 3.3601394e-17)
(459.93833 -0.059909346 5.0335562e-17)
(460.03191 0.073533337 4.8930756e-17)
(459.92377 -0.019436815 2.4412912e-16)
(459.91884 0.049115273 3.3023055e-17)
(459.88692 0.046880994 -2.4289362e-16)
(459.81046 -0.086388061 4.604459e-17)
(459.82094 0.10154677 2.3781218e-16)
(459.8374 -0.096257189 -1.8455716e-16)
(459.75682 0.027651852 3.2481113e-17)
(459.9367 -0.017036137 2.8824547e-16)
(459.86793 0.033612388 5.3837955e-17)
(459.84458 0.0067472745 -1.7866257e-16)
(459.94213 -0.10913135 -8.8551844e-17)
(459.84893 0.12187477 3.2399519e-17)
(459.915 0.014784767 2.238599e-16)
(459.71905 0.023470344 4.9465131e-17)
(459.80462 -0.010289208 -3.1320234e-16)
(459.74754 -0.08688918 2.2657773e-16)
(459.73514 -0.020579366 -1.3320426e-16)
(459.81008 -0.032500649 5.3736271e-17)
(459.84784 -0.014108256 1.8357294e-16)
(459.87912 0.058444489 2.7740907e-17)
(459.83411 -0.0030205115 2.1376821e-17)
(459.76676 0.016337601 5.5948034e-17)
(459.76165 0.02263556 6.5370308e-17)
(459.63837 0.010331405 -1.0979155e-16)
(459.72817 -0.0063297207 4.8276554e-17)
(458.56921 0.0078903199 -6.404527e-18)
(461.33614 0.0063558264 -2.2974621e-16)
(458.59669 0.0033330906 2.1783267e-17)
(461.31467 -0.019520369 2.6851295e-16)
(458.67394 0.015886895 -6.0262064e-18)
(461.25966 -0.032094775 -8.6268735e-18)
(458.81556 0.031467666 3.1806133e-17)
(461.18902 -0.005198091 -6.4219986e-17)
(458.92025 -0.0071464797 -1.610996e-16)
(461.02901 0.030166084 2.3006117e-16)
(458.99259 -0.033782505 3.0986382e-17)
(460.78329 0.053554306 9.0349262e-18)
(459.16067 -0.048618873 3.5071701e-16)
(460.47715 0.07612996 -3.4377886e-16)
(459.38711 -0.093952691 6.2692144e-17)
(460.25399 0.13132081 -2.1012668e-17)
(459.54961 -0.15037823 9.1260661e-17)
(460.19574 0.1945475 -9.8179228e-18)
(459.60746 -0.21717621 -2.4824877e-16)
(460.23203 0.22628049 5.8195077e-17)
(459.65127 -0.23989783 4.2395252e-17)
(460.23072 0.21007683 5.8763834e-17)
(459.74278 -0.21826424 9.1180549e-17)
(460.22282 0.1713927 2.4503654e-17)
(459.86246 -0.1634035 -1.8999697e-16)
(460.21941 0.1015014 3.7296056e-16)
(459.93935 -0.054872884 2.276458e-17)
(460.24565 0.011619227 -2.4074711e-16)
(459.95649 0.04788497 -1.9699924e-16)
(460.18724 -0.06903459 -1.5026595e-16)
(459.91941 0.10842497 2.9305453e-16)
(460.09633 -0.11732735 3.3229788e-17)
(459.86341 0.12518895 7.1119205e-17)
(460.0424 -0.11494475 7.8013893e-17)
(459.8481 0.071738734 3.5102409e-17)
(460.07454 -0.059359736 -1.7375432e-16)
(459.81288 0.018325613 2.4792087e-16)
(460.14118 -0.006312607 2.329485e-16)
(459.77387 0.022539101 4.8757762e-17)
(460.13047 -0.010825144 -4.5915226e-18)
(459.79882 0.037404902 1.9363909e-17)
(460.00833 -0.0084261385 -9.7268566e-17)
(459.83804 -0.018909521 2.1802933e-16)
(459.9145 0.036701851 1.8508295e-16)
(459.8607 -0.097038522 4.1847479e-17)
(459.90655 0.066870662 2.6816587e-16)
(459.89089 -0.072147331 6.9431238e-17)
(459.94217 0.079053336 2.433845e-16)
(459.86163 -0.087783357 2.1127135e-16)
(459.99274 0.11248259 -1.7957798e-16)
(459.87224 -0.055898015 -3.6333386e-18)
(459.92109 0.092106483 3.1337592e-18)
(459.83895 0.026536162 3.9015952e-17)
(459.82987 -0.062410684 1.9132486e-16)
(459.78942 0.10401959 -1.4525317e-16)
(459.83274 -0.12593429 -1.6326248e-16)
(459.71971 0.044388936 4.4395926e-17)
(459.91194 0.009902609 1.3790296e-17)
(459.80142 -0.017451478 5.0229823e-17)
(459.78282 0.0033772888 -1.3875285e-16)
(459.86629 -0.034737357 4.8485074e-17)
(459.78393 0.084154373 4.6675926e-17)
(459.79583 -0.019298964 -1.2848802e-16)
(459.60724 0.073861272 1.8387887e-17)
(459.63049 0.0096679987 6.500166e-17)
(459.59009 -0.070501533 1.4720754e-16)
(459.54216 -0.041037581 -1.1669419e-16)
(459.62079 -0.053807259 2.298515e-16)
(459.64986 0.020862856 -1.6433541e-16)
(459.68905 0.007236993 -1.5470709e-16)
(459.63353 0.0355566 5.328824e-18)
(459.61815 0.029118558 -1.2034914e-18)
(459.59765 -0.019418403 -1.1652141e-16)
(459.51028 0.022151562 3.6831025e-17)
(459.56006 -0.0083460451 1.8355123e-16)
(457.80255 -0.003003872 -1.4290998e-17)
(462.43652 0.025000425 -1.8379331e-16)
(457.56468 -0.0034474813 2.8267989e-16)
(462.62254 -0.024212612 -1.1081962e-18)
(457.44404 0.014502334 -1.0829005e-16)
(462.64752 -0.033532159 5.296024e-17)
(457.50169 0.031445331 9.4414782e-17)
(462.50726 -0.0049798067 8.2495609e-18)
(457.71181 0.0087460835 2.1000786e-16)
(462.12149 0.0081705191 7.9245589e-17)
(458.07596 -0.00086483429 2.2445394e-16)
(461.5512 0.030410841 -2.4468745e-18)
(458.60528 -0.021028044 9.3421041e-17)
(460.96573 0.05402494 -1.1197169e-16)
(459.1094 -0.070639122 1.0659728e-16)
(460.60308 0.10582719 4.993556e-17)
(459.42169 -0.13231649 5.566395e-17)
(460.483 0.16706515 1.4088031e-17)
(459.54818 -0.18941807 -2.5156691e-16)
(460.46721 0.1946034 1.1135584e-16)
(459.59212 -0.21550441 3.4186341e-17)
(460.41046 0.20447434 2.3362576e-16)
(459.63665 -0.23053303 8.4731206e-17)
(460.33708 0.20016526 -1.3763046e-16)
(459.7103 -0.21072012 -1.4318707e-16)
(460.28396 0.15551423 2.8782172e-17)
(459.7621 -0.129762 7.2696797e-17)
(460.30167 0.092454461 2.2624378e-16)
(459.76924 -0.037424294 2.9514806e-16)
(460.27653 0.015258519 -1.2715143e-16)
(459.71196 0.03490466 5.6127028e-18)
(460.21918 -0.038587245 -3.1870121e-17)
(459.63553 0.06670971 3.0058697e-19)
(460.17015 -0.059662874 -1.7498863e-16)
(459.5897 0.043780442 3.1006242e-17)
(460.22469 -0.057191455 -1.6777261e-16)
(459.53192 0.021103959 2.3489876e-17)
(460.29843 -0.020137604 -1.7851837e-16)
(459.51197 0.042799343 7.2876671e-17)
(460.27406 -0.028768751 4.2300726e-16)
(459.56232 0.064316601 3.7709033e-17)
(460.1253 -0.031915493 3.8556348e-17)
(459.62362 0.031441437 -2.4338965e-17)
(459.99062 -0.025177487 1.9254397e-16)
(459.65791 -0.046416049 -1.8142416e-16)
(459.94371 0.04035481 3.0652983e-17)
(459.69773 -0.056998388 -1.0091088e-16)
(459.92416 0.051030342 4.9404132e-17)
(459.69389 -0.086840038 2.3034889e-17)
(459.95162 0.13612766 -4.2704501e-18)
(459.70711 -0.10839297 -9.9804777e-18)
(459.89525 0.15985319 -8.6549836e-17)
(459.64042 -0.051896561 -1.9815256e-17)
(459.79406 0.01244333 -2.2188443e-19)
(459.56458 0.081263341 3.0300791e-17)
(459.73479 -0.16348395 3.1492513e-17)
(459.46649 0.11348181 -1.2251839e-16)
(459.71574 -0.010207809 -1.2826843e-16)
(459.4721 -0.080226346 1.2963594e-16)
(459.51699 0.025439525 7.0388912e-17)
(459.47981 0.020121124 1.4700335e-16)
(459.43421 0.097257677 -1.7639101e-16)
(459.34236 -0.048133713 3.2881504e-17)
(459.22414 0.075107551 1.3473937e-17)
(459.10811 0.03652903 -1.6712784e-16)
(459.12352 -0.057346362 -1.0353518e-16)
(458.979 -0.060534529 6.9562297e-17)
(459.08876 -0.04071442 -1.0683197e-16)
(459.02733 0.065723276 -1.9153271e-16)
(459.08279 -0.080544361 -1.5106501e-16)
(458.94865 0.064401581 2.5962649e-17)
(458.94662 0.046549004 1.699329e-16)
(458.8398 -0.068507552 4.3356256e-17)
(458.77518 0.027235228 7.2868834e-18)
(458.68606 -0.005209256 1.2361469e-16)
(457.69514 -0.036380819 1.5946409e-17)
(463.15152 0.061062284 1.8086546e-16)
(456.78036 -0.028520065 -3.3844776e-17)
(463.79353 0.00077694729 3.5272873e-17)
(456.13461 -0.0055849407 9.5256853e-17)
(464.08064 -0.01394094 -1.3867206e-16)
(455.91524 0.027609232 1.3269443e-16)
(464.03027 -0.012982279 5.2546627e-17)
(456.1291 0.033361358 1.2195204e-16)
(463.56662 -0.020290605 2.0511836e-16)
(456.74484 0.033350604 -1.0108912e-16)
(462.77263 -0.0064157911 1.9599039e-17)
(457.63538 0.020050198 2.0632324e-16)
(461.8987 0.010196291 1.3351385e-16)
(458.46244 -0.029756505 1.1548007e-17)
(461.25075 0.063213412 6.5368228e-17)
(459.03172 -0.095196104 -2.7039196e-17)
(460.8325 0.12113139 -1.1682652e-16)
(459.40271 -0.15178474 2.8805774e-16)
(460.52366 0.16978603 2.1653169e-18)
(459.62743 -0.20058687 1.9222943e-17)
(460.28237 0.20872588 -2.5824065e-17)
(459.70973 -0.22687893 2.4660975e-17)
(460.1514 0.20412374 -3.8453862e-17)
(459.73903 -0.22392515 2.3927708e-16)
(460.08441 0.18509518 2.9656653e-17)
(459.7595 -0.17761555 -1.5959174e-16)
(460.11582 0.15846064 1.8196693e-16)
(459.71937 -0.1158716 2.5045515e-17)
(460.21375 0.094389742 -1.6634825e-16)
(459.54625 -0.04668173 1.409991e-17)
(460.34433 0.039694002 -5.765044e-17)
(459.3524 0.014619127 2.8673694e-16)
(460.42904 -0.026931514 -2.8668743e-18)
(459.225 0.030290207 -1.6165085e-16)
(460.53916 -0.054134419 -2.4558088e-16)
(459.14375 0.012099102 -1.3125974e-17)
(460.57385 -0.019045805 2.0351435e-16)
(459.12767 0.02216655 5.606852e-17)
(460.50358 0.016048457 1.3228776e-17)
(459.12877 0.026532418 4.2681527e-17)
(460.33074 -0.0091509718 6.2716166e-18)
(459.14338 0.058813258 4.5246662e-18)
(460.11773 -0.080607686 1.0946996e-17)
(459.18068 0.014593788 2.59391e-17)
(459.93628 -0.0076534562 1.3772865e-17)
(459.21241 -0.015680457 2.0446197e-17)
(459.76006 -0.0091258754 -2.7590141e-17)
(459.17151 -0.062560469 -9.5691192e-17)
(459.65739 0.13906439 -4.0538606e-18)
(459.07825 -0.14172206 -3.8926767e-18)
(459.51584 0.23876128 1.2385266e-16)
(458.84525 -0.14441437 -7.6513342e-17)
(459.31081 0.10470456 6.5869174e-18)
(458.61351 0.017156454 -1.2658651e-17)
(459.06623 -0.16738137 -9.7632993e-18)
(458.40998 0.20457835 -1.4573533e-16)
(458.7876 -0.065925497 -1.2248456e-16)
(458.26822 -0.14024487 -1.3757378e-16)
(458.43742 0.082592448 -7.5016744e-18)
(458.11494 0.0082439174 -3.6326861e-18)
(458.14127 0.10507492 -2.9595998e-17)
(457.76628 -0.025573475 -1.4015549e-16)
(457.78165 0.088633467 -8.4836489e-17)
(457.32489 0.057457759 -1.0359317e-17)
(457.42727 -0.072384462 -3.2710988e-17)
(456.99145 -0.074982295 -3.6228822e-17)
(457.14571 -0.020835816 -1.3479451e-16)
(456.8146 0.11388507 -1.3294755e-16)
(456.88499 -0.10899717 -4.826419e-18)
(456.56721 0.083228615 1.1623657e-17)
(456.53476 0.068611226 -1.0551235e-16)
(456.21326 -0.070646709 -1.2061607e-17)
(456.15066 0.019317255 -4.084691e-17)
(455.75394 -0.010256771 -3.0484686e-17)
(458.84362 -0.077935424 -3.8878837e-17)
(462.18016 0.11229705 -1.6703683e-16)
(457.45118 -0.061042335 -1.4136755e-16)
(463.27553 0.039702762 -2.960935e-16)
(456.20115 -0.031504889 5.2935603e-17)
(464.14673 0.0051990123 -9.1350814e-17)
(455.40497 0.02693029 -3.3291016e-17)
(464.67093 -0.021181605 9.991465e-17)
(455.15115 0.044893434 1.541793e-16)
(464.69739 -0.038658072 -1.9425794e-16)
(455.42556 0.057760971 1.1305112e-18)
(464.24398 -0.045209241 -3.1878308e-17)
(456.11677 0.057501324 1.6202723e-16)
(463.46885 -0.031925887 8.2390945e-17)
(456.96009 0.0090200934 -1.0399743e-17)
(462.62423 0.024445466 -3.1469885e-17)
(457.80051 -0.053382035 4.9287747e-17)
(461.75756 0.07604066 -9.4946482e-18)
(458.65419 -0.1085946 2.0753008e-17)
(460.87642 0.12852532 -5.0300264e-18)
(459.41516 -0.15474756 3.5543161e-17)
(460.14275 0.17234804 -3.0936428e-18)
(459.88679 -0.17898231 6.0796499e-17)
(459.73548 0.17212321 -2.5644709e-17)
(460.1089 -0.21020936 -1.3088165e-16)
(459.55472 0.1836526 3.7706015e-17)
(460.2153 -0.19382075 5.9475258e-17)
(459.54452 0.19913287 2.2657835e-16)
(460.15783 -0.17390945 3.0269798e-17)
(459.73783 0.16270193 2.3545152e-17)
(459.79882 -0.12878077 6.7762111e-17)
(460.09376 0.12661174 -8.655968e-18)
(459.3098 -0.063036475 -1.3859921e-16)
(460.38803 0.048092008 1.388528e-16)
(458.91124 -0.038236762 2.2899081e-17)
(460.56437 0.0047769832 3.0735156e-17)
(458.67577 -0.027889661 2.7770587e-17)
(460.4966 0.00048839909 4.7054342e-17)
(458.53283 -0.0187483 1.9770419e-16)
(460.33386 0.076168595 -1.836757e-18)
(458.26015 -0.029346678 1.6486635e-17)
(460.13959 0.059560259 1.7288651e-16)
(457.96265 0.021685028 -2.429174e-18)
(459.79612 -0.070322111 1.0292956e-17)
(457.79865 0.052450266 4.4220253e-17)
(459.30811 -0.048492996 -2.1051384e-17)
(457.66923 0.037085004 1.8588195e-16)
(458.75416 -0.05399951 1.6727964e-16)
(457.41262 -0.024222662 -1.6025713e-17)
(458.31358 0.105284 -3.6650832e-16)
(457.02667 -0.12360448 -1.8033602e-16)
(457.85674 0.28630153 -1.5952814e-17)
(456.45185 -0.17509214 2.0204868e-16)
(457.31803 0.20420895 -3.5502045e-17)
(455.84966 -0.071987747 2.6624227e-18)
(456.65893 -0.10836715 1.240702e-16)
(455.34391 0.30000476 -1.7848903e-16)
(455.81929 -0.12599291 -1.890238e-16)
(454.85855 -0.14070779 1.2510254e-16)
(455.08244 0.16476677 8.7933467e-17)
(454.28514 -0.0056535197 -1.8551994e-16)
(454.35153 0.10719528 -2.2620631e-16)
(453.50473 -0.015181919 -1.2562779e-16)
(453.64135 0.14872776 1.0544767e-16)
(452.60978 0.097287254 -3.2087801e-17)
(452.79702 -0.058799798 -5.0479056e-17)
(451.88056 -0.039567394 -6.7302171e-17)
(452.07988 -0.017417335 -1.0360681e-16)
(451.32101 0.10133176 -9.8352246e-17)
(451.41945 -0.071894715 4.6208941e-17)
(450.73524 0.078257529 -1.5396357e-16)
(450.69492 0.070674699 8.7233825e-17)
(449.90096 0.019685501 -6.8944664e-17)
(449.85591 0.070919405 -6.1487139e-17)
(448.91777 -0.0083581189 -6.6003825e-17)
(460.2028 -0.084426431 -7.1115631e-18)
(460.12887 0.13665184 2.6279513e-16)
(459.44284 -0.077915493 5.3895047e-16)
(460.92963 0.060158104 1.6956449e-16)
(458.39343 -0.045001198 -5.6646256e-17)
(462.02038 0.014633385 1.695043e-16)