/*--------------------------------*- C++ -*----------------------------------*\
| =========                 |                                                 |
| \\      /  F ield         | OpenFOAM: The Open Source CFD Toolbox           |
|  \\    /   O peration     | Version:  2.3.0                                 |
|   \\  /    A nd           | Web:      www.OpenFOAM.org                      |
|    \\/     M anipulation  |                                                 |
\*---------------------------------------------------------------------------*/
FoamFile
{
    version     2.0;
    format      ascii;
    class       volScalarField;
    location    "9";
    object      p;
}
// * * * * * * * * * * * * * * * * * * * * * * * * * * * * * * * * * * * * * //

dimensions      [0 2 -2 0 0 0 0];

internalField   nonuniform List<scalar> 
1720
(
0.000670179
0.000669379
0.000401121
0.000230324
0.000220228
0.000283764
0.000333237
0.00033941
0.000314048
0.000275975
0.00023565
0.000191823
0.00014117
7.97794e-05
9.83859e-06
-6.53062e-05
-0.000147987
-0.000231336
-0.000307629
-0.000378519
-0.000438891
-0.000499658
-0.000583468
-0.000791177
-0.0012863
-0.00225269
-0.00386545
-0.00561987
-0.00732084
-0.00892689
-0.0104346
-0.0118384
-0.0130856
-0.0141299
-0.0149312
-0.0154354
-0.0156055
-0.0154158
-0.0148644
-0.0139649
-0.0127452
-0.0112639
-0.00957455
-0.00775707
-0.00591011
-0.00411008
-0.00241547
-0.000918649
-2.66284e-05
0.000203
0.000124041
0.000216772
0.000293947
0.000309182
0.000294867
0.000267814
0.000218413
0.000152396
9.19048e-05
0.000100633
0.00210372
0.00185571
0.00106795
0.000685865
0.000715118
0.000884211
0.00099621
0.00100126
0.000931992
0.000830523
0.00071797
0.000590874
0.000439579
0.000256415
4.2796e-05
-0.000194677
-0.000448059
-0.000701533
-0.000940994
-0.00116005
-0.00135379
-0.00153379
-0.00171726
-0.00191373
-0.00207631
-0.0021863
-0.00234821
-0.00266485
-0.00290526
-0.00299053
-0.00296084
-0.00285382
-0.00271517
-0.00253235
-0.00225407
-0.00190217
-0.00150272
-0.00107649
-0.000641821
-0.000212356
0.000170404
0.000483287
0.000720455
0.000878736
0.000963415
0.00101015
0.00102059
0.00102832
0.00085704
0.000812542
0.000868552
0.000969911
0.00103471
0.00103232
0.000976469
0.000882867
0.000743244
0.000566811
0.000419355
0.000324291
0.00368161
0.00290586
0.0016357
0.00116151
0.00127017
0.00152237
0.00166805
0.00166149
0.00155485
0.00140143
0.00122583
0.00101898
0.000766973
0.000457284
9.09529e-05
-0.000322765
-0.000765644
-0.00121208
-0.0016358
-0.00201595
-0.00234009
-0.00260753
-0.00282992
-0.00303213
-0.00326961
-0.00363994
-0.00413916
-0.00464472
-0.00512577
-0.00557491
-0.0059444
-0.00620604
-0.00635236
-0.00637252
-0.00627433
-0.0060578
-0.00573062
-0.0053105
-0.00482222
-0.00433455
-0.0037958
-0.00323524
-0.00268196
-0.00212087
-0.00155226
-0.000999989
-0.00041871
0.000180777
0.000739425
0.00119162
0.00147811
0.00162036
0.00167564
0.00166585
0.00158967
0.00144457
0.00123022
0.000948761
0.000683065
0.000428494
0.00498547
0.00391791
0.00222617
0.00166779
0.00186364
0.00218628
0.00235124
0.00233008
0.00219462
0.0020017
0.00177431
0.00149304
0.00114102
0.000698388
0.000168362
-0.000440602
-0.00110485
-0.00178471
-0.00242996
-0.00299267
-0.00343921
-0.00376633
-0.00400729
-0.00422108
-0.00447234
-0.00478511
-0.00514637
-0.0055435
-0.00597341
-0.0063703
-0.00670546
-0.00695186
-0.00708684
-0.00710549
-0.00699839
-0.0067436
-0.00633253
-0.00578708
-0.00513031
-0.00437269
-0.00358539
-0.00278471
-0.00198252
-0.00120175
-0.000468555
0.000202342
0.000778403
0.00120941
0.00153846
0.00179963
0.00204039
0.00219282
0.00225325
0.00223277
0.00213466
0.00194593
0.00166427
0.0013022
0.000925443
0.0005269
0.00631294
0.00488113
0.00279958
0.00217474
0.00246985
0.00286307
0.00304702
0.00301749
0.00286597
0.00264908
0.0023837
0.0020359
0.00158563
0.00100047
0.000290781
-0.000542046
-0.00146793
-0.0024381
-0.00336958
-0.00416074
-0.0047333
-0.00508514
-0.00529603
-0.00546844
-0.00567683
-0.00594337
-0.006269
-0.00664579
-0.00704802
-0.00743174
-0.00776178
-0.0080051
-0.00813311
-0.00811682
-0.00792046
-0.00752823
-0.00695843
-0.00623022
-0.00538087
-0.00446271
-0.00353264
-0.0026193
-0.00175166
-0.000951782
-0.00023212
0.000394152
0.000928917
0.00139381
0.00175056
0.00218542
0.00245484
0.00262269
0.00268117
0.00263143
0.00248941
0.00224959
0.00190765
0.00150893
0.00103266
0.000524268
0.00761837
0.00576799
0.00334036
0.00267683
0.00308237
0.00355012
0.00375974
0.00373548
0.00358545
0.00336488
0.00307797
0.00267628
0.00213059
0.00139115
0.000474158
-0.000633236
-0.00187047
-0.00319849
-0.0045013
-0.00558551
-0.00629411
-0.00662636
-0.00673612
-0.00680288
-0.00693563
-0.00715749
-0.00745641
-0.00782009
-0.0082281
-0.00865047
-0.0090329
-0.0093233
-0.00947709
-0.00945718
-0.0092167
-0.00871743
-0.00798597
-0.00707481
-0.00605085
-0.0049748
-0.00389665
-0.00285689
-0.00188539
-0.000998984
-0.000197661
0.000525183
0.00117806
0.00176277
0.00228019
0.00257153
0.00279028
0.00290337
0.00289226
0.00276279
0.00252393
0.00221999
0.00188005
0.00150704
0.000980554
0.000425032
0.00887461
0.00658161
0.00385314
0.00318782
0.00370559
0.0042444
0.00448624
0.00448687
0.00436363
0.00416816
0.00388244
0.00344883
0.00281309
0.00191495
0.000744616
-0.000736188
-0.00238803
-0.0041614
-0.00590041
-0.0072937
-0.0080793
-0.00835003
-0.00831854
-0.00823658
-0.00825697
-0.00839621
-0.00864198
-0.00899202
-0.00943138
-0.00994525
-0.0104439
-0.0108478
-0.0110845
-0.011091
-0.0108347
-0.0102749
-0.0093889
-0.00826235
-0.00700416
-0.00569678
-0.00440419
-0.00317578
-0.00204066
-0.00101015
-9.08377e-05
0.000711896
0.00139322
0.00195588
0.00239778
0.0026964
0.00286153
0.00287683
0.00273991
0.00250685
0.00224052
0.00194377
0.00162103
0.00127408
0.00080653
0.00029087
0.0100525
0.00730539
0.00432119
0.00372404
0.004354
0.00494278
0.0052188
0.00526792
0.0052064
0.00507465
0.00482804
0.00439705
0.0036861
0.00263675
0.00115739
-0.000845215
-0.00322247
-0.00570195
-0.00787297
-0.00934508
-0.0100035
-0.010036
-0.00979189
-0.00957222
-0.00949346
-0.00953298
-0.00971204
-0.0100666
-0.0105914
-0.0112299
-0.0119118
-0.0125169
-0.0129291
-0.01303
-0.0127604
-0.0121267
-0.0111024
-0.00972543
-0.0081527
-0.00653679
-0.00497505
-0.00352435
-0.00221645
-0.00106764
-8.59843e-05
0.000732651
0.0014023
0.00193671
0.00232569
0.00253781
0.00255497
0.00244448
0.00224051
0.00200491
0.00175515
0.00149283
0.001228
0.000946492
0.000594301
0.000181072
0.0111481
0.00799531
0.00460342
0.00428179
0.00504416
0.00564452
0.00595437
0.00607532
0.00611439
0.00609197
0.00594613
0.00557293
0.00483728
0.00364994
0.00180117
-0.000891769
-0.00452774
-0.00886422
-0.0115888
-0.0125183
-0.0122365
-0.0114266
-0.0106967
-0.0104655
-0.0102985
-0.0101637
-0.0102502
-0.0106268
-0.0112817
-0.0121305
-0.0130722
-0.0139907
-0.0147422
-0.0151123
-0.0149607
-0.0142589
-0.0130584
-0.0114285
-0.00952512
-0.0075626
-0.00569647
-0.00401381
-0.00255057
-0.00131357
-0.000292208
0.000540753
0.00120323
0.00167846
0.00193568
0.00198032
0.00186978
0.00169017
0.00149588
0.00130782
0.00112891
0.000952929
0.000780481
0.000590929
0.000358745
8.81613e-05
0.0121399
0.00860302
0.00491602
0.00477048
0.00566158
0.00631805
0.00668405
0.00689779
0.00707056
0.0072077
0.00724216
0.00702095
0.00638908
0.00508923
0.00288849
-0.00103142
-0.00588333
-0.0150146
-0.0191152
-0.0192962
-0.016789
-0.0136211
-0.0111733
-0.0110143
-0.0106754
-0.0102781
-0.0103025
-0.0107415
-0.0114825
-0.0124648
-0.0136237
-0.0148361
-0.0159295
-0.0167247
-0.0169602
-0.0164199
-0.0151241
-0.0132672
-0.0110705
-0.00878102
-0.00661807
-0.00470269
-0.00308278
-0.001753
-0.000686017
0.000144255
0.00073102
0.00105007
0.00111942
0.00101802
0.000847828
0.000682776
0.000562227
0.000478764
0.00041873
0.00036354
0.00030699
0.00023111
0.000130461
8.8037e-06
0.0130146
0.00912482
0.00523596
0.00518339
0.00619369
0.0069357
0.00737901
0.00770463
0.00803417
0.00838262
0.00867123
0.00874528
0.00841916
0.00726614
0.00503341
-0.00201554
-0.00748103
-0.0144783
-0.0117495
-0.0111637
-0.0106157
-0.010323
-0.0103394
-0.0107574
-0.0115263
-0.0125842
-0.0138671
-0.0152686
-0.0166284
-0.0177269
-0.018264
-0.0179968
-0.016856
-0.0149715
-0.0126087
-0.0100813
-0.00765988
-0.00553291
-0.00377957
-0.0023742
-0.00130131
-0.000553706
-0.000134734
-1.4613e-05
-0.000104529
-0.000293239
-0.00045234
-0.000533912
-0.000526677
-0.000459584
-0.000362515
-0.000262463
-0.000172628
-0.00010188
-7.99761e-05
-8.84474e-05
0.0137504
0.0095543
0.00551373
0.00552715
0.00664319
0.00747418
0.00800311
0.00844894
0.00894734
0.00954048
0.0101371
0.0106579
0.0108268
0.010371
0.00836072
0.0027636
-0.0106514
-0.0104132
-0.0105011
-0.0109319
-0.0116812
-0.0127329
-0.0140509
-0.0155371
-0.0170212
-0.0182593
-0.0189963
-0.0189379
-0.0179664
-0.0161625
-0.0137814
-0.0111608
-0.0086208
-0.0064102
-0.0046138
-0.0031959
-0.00220299
-0.00162099
-0.00140146
-0.00145519
-0.00168717
-0.0018948
-0.00197648
-0.0019259
-0.00174316
-0.0014794
-0.00118262
-0.000893552
-0.000630589
-0.000405331
-0.000262529
-0.000176232
0.0143259
0.00988368
0.00573313
0.005799
0.00700235
0.00790807
0.00851812
0.00907382
0.0097397
0.0105678
0.0115027
0.012494
0.0133182
0.0138541
0.0123929
0.00899783
-0.0105972
-0.010519
-0.0106711
-0.0110686
-0.0117493
-0.0127303
-0.0140012
-0.0154716
-0.0169847
-0.0183011
-0.0190858
-0.0191262
-0.0182808
-0.0166024
-0.0143317
-0.0118013
-0.00935607
-0.00724561
-0.00548499
-0.00415878
-0.00334532
-0.00297515
-0.0029499
-0.00321949
-0.00351818
-0.00367367
-0.00366008
-0.00342095
-0.00301154
-0.00250814
-0.00198194
-0.00148501
-0.00103834
-0.000644722
-0.000380947
-0.000238534
0.0147243
0.0101085
0.00588571
0.00599006
0.00725474
0.00821474
0.00888724
0.00952864
0.0103297
0.0113491
0.0125799
0.0139738
0.0154463
0.0167581
0.017033
-0.0107356
-0.0107221
-0.0110402
-0.0116176
-0.0124593
-0.0135971
-0.0149191
-0.0163158
-0.0175504
-0.0183332
-0.0184239
-0.0177078
-0.0162267
-0.014196
-0.0119199
-0.00972425
-0.00781531
-0.00624189
-0.00514181
-0.00456264
-0.00443871
-0.00469995
-0.00508905
-0.00538091
-0.00549106
-0.00533502
-0.0048781
-0.00421007
-0.0034443
-0.00268277
-0.00198809
-0.00136827
-0.000813168
-0.000438671
-0.000235488
0.0149337
0.0102254
0.00596549
0.00609106
0.0073872
0.00837702
0.00908308
0.00977366
0.0106484
0.0117804
0.0131772
0.014831
0.0167078
0.0186589
0.0201175
-0.0105362
-0.0105877
-0.0108358
-0.0112846
-0.0119404
-0.0128133
-0.0138619
-0.0149837
-0.015985
-0.0166306
-0.016726
-0.016144
-0.0149309
-0.0132457
-0.0113411
-0.00949287
-0.0078949
-0.00667965
-0.00590496
-0.00568775
-0.00589766
-0.00633881
-0.0068011
-0.00714871
-0.00718933
-0.00683403
-0.00614299
-0.00521632
-0.004199
-0.00322196
-0.00235611
-0.00158107
-0.000949688
-0.00047224
-0.000200304
0.0149479
0.0102323
0.00596929
0.00609595
0.00739371
0.00838487
0.00909207
0.0097842
0.010661
0.0117961
0.0131969
0.0148574
0.0167443
0.0187164
0.0202022
-0.0102458
-0.0103452
-0.0105414
-0.0108478
-0.0112732
-0.0118152
-0.0124564
-0.0131354
-0.0137224
-0.014035
-0.0139879
-0.0135015
-0.012565
-0.011281
-0.00984337
-0.00847142
-0.00733204
-0.0066026
-0.0063612
-0.00653792
-0.00700469
-0.00764099
-0.00824979
-0.0085779
-0.00849985
-0.0079757
-0.00707479
-0.00592795
-0.00470937
-0.00356975
-0.00256209
-0.00167484
-0.00104731
-0.000494628
-0.000162755
0.0147662
0.010129
0.00589698
0.00600451
0.00727398
0.008238
0.00891379
0.00955976
0.0103669
0.0113954
0.0126376
0.0140498
0.015548
0.0169089
0.017292
-0.0100535
-0.0101701
-0.0102925
-0.0104354
-0.0106033
-0.0107856
-0.0109682
-0.0111235
-0.0112
-0.0111309
-0.0108393
-0.0102931
-0.00951253
-0.00858336
-0.00764056
-0.00684204
-0.00631838
-0.00615333
-0.00636766
-0.0069058
-0.00773949
-0.00859427
-0.00925843
-0.0095364
-0.00933929
-0.00866087
-0.00759188
-0.00628552
-0.00493406
-0.0037052
-0.00262081
-0.00170098
-0.00105804
-0.000500567
-0.000148998
0.0143938
0.0099172
0.0057515
0.00582227
0.00703365
0.00794577
0.00856125
0.00912406
0.00979999
0.0106423
0.0115967
0.0126158
0.0134852
0.014088
0.0128032
0.00962534
-0.0101814
-0.010186
-0.0101707
-0.0101633
-0.010102
-0.00997321
-0.00977129
-0.00949688
-0.00915773
-0.00875762
-0.00830036
-0.00777687
-0.00713856
-0.00645911
-0.00582114
-0.00532225
-0.00505359
-0.00506326
-0.00539708
-0.00610409
-0.00707142
-0.008136
-0.00911098
-0.00977658
-0.00997261
-0.00966191
-0.0088572
-0.00767894
-0.00629251
-0.00488671
-0.00364625
-0.00257714
-0.00164841
-0.000998313
-0.000492292
-0.000154623
0.0138414
0.00960006
0.00553855
0.00555799
0.00668541
0.00752481
0.00806118
0.00851609
0.00902819
0.00963951
0.0102626
0.0108185
0.0110446
0.010673
0.00881912
0.00354082
-0.0104468
-0.0103721
-0.0102877
-0.0101408
-0.00986227
-0.00943174
-0.00885128
-0.00814388
-0.00734968
-0.00651509
-0.00568021
-0.00488368
-0.00422309
-0.00368753
-0.00331561
-0.00317521
-0.00335981
-0.00389455
-0.00475005
-0.00583136
-0.00706122
-0.00824991
-0.00921151
-0.00979508
-0.00990825
-0.00949213
-0.00860011
-0.0073762
-0.00599166
-0.00463536
-0.00342979
-0.00243141
-0.00156109
-0.000922466
-0.00046001
-0.000159231
0.0131248
0.00918158
0.00526635
0.00522043
0.00624493
0.0069973
0.00744958
0.00778597
0.00813143
0.00850147
0.00882002
0.00893549
0.00867002
0.00761002
0.00551343
-0.00114174
-0.00628472
-0.0128841
-0.011257
-0.0109746
-0.0106394
-0.0105976
-0.0104209
-0.0101324
-0.00964816
-0.00894667
-0.00804586
-0.00699555
-0.00586454
-0.00472973
-0.00365202
-0.00269597
-0.00197923
-0.0015611
-0.0014506
-0.00167446
-0.00223072
-0.00312092
-0.00429241
-0.00561106
-0.00692214
-0.00808326
-0.0089674
-0.00944356
-0.00943244
-0.0089171
-0.00798238
-0.00678449
-0.00548141
-0.00423032
-0.00312188
-0.00221569
-0.00144759
-0.000859112
-0.000433089
-0.00016185
0.0122648
0.00866905
0.00495097
0.00481223
0.00571953
0.00638802
0.00676417
0.00698966
0.00717956
0.00733983
0.00740589
0.0072265
0.00665406
0.00543572
0.00335467
-0.000359461
-0.00492892
-0.0134223
-0.0170948
-0.0171593
-0.0149225
-0.0124378
-0.0108012
-0.0109688
-0.0108656
-0.0106932
-0.0104211
-0.00998173
-0.00931521
-0.00840563
-0.00728796
-0.00602983
-0.00471814
-0.00345398
-0.00232054
-0.0013763
-0.000749122
-0.000445455
-0.000507635
-0.000950292
-0.00174661
-0.00282777
-0.00409394
-0.00541146
-0.00665197
-0.0077027
-0.00843464
-0.00875986
-0.00862758
-0.00805255
-0.00713675
-0.00603289
-0.00487113
-0.00377261
-0.00279694
-0.00198411
-0.00131692
-0.000798629
-0.000413366
-0.00016676
0.0112826
0.00806803
0.00464209
0.00432652
0.00510631
0.00571979
0.00604064
0.0061735
0.00623001
0.0062304
0.00611578
0.00578107
0.00509756
0.00397563
0.00221648
-0.000343863
-0.00379785
-0.0078903
-0.0104323
-0.0113227
-0.011173
-0.0106298
-0.0102217
-0.0102094
-0.0101449
-0.0100003
-0.00974584
-0.00927885
-0.00856525
-0.00761791
-0.00648148
-0.00522207
-0.00392325
-0.00269524
-0.00163598
-0.000796537
-0.00030096
-0.00013611
-0.000326143
-0.000869905
-0.00172405
-0.00280499
-0.0040002
-0.0051938
-0.00627571
-0.00714034
-0.00769644
-0.00784108
-0.00758026
-0.00701041
-0.0062099
-0.00526453
-0.00427965
-0.00334703
-0.0025094
-0.00179824
-0.00120864
-0.000746083
-0.000394076
-0.000168756
0.0101919
0.00738101
0.004363
0.00376991
0.00441752
0.00502019
0.0053075
0.00536818
0.00532319
0.00521297
0.00499456
0.00459741
0.00392831
0.00293062
0.0015128
-0.000399313
-0.00267572
-0.00504971
-0.00711561
-0.00850316
-0.00915468
-0.00928272
-0.00916956
-0.00904268
-0.00894137
-0.00879802
-0.00853771
-0.00811117
-0.00746505
-0.00662623
-0.00563542
-0.00455701
-0.00345601
-0.00242876
-0.00156328
-0.000931515
-0.000477261
-0.000372882
-0.000601134
-0.00113389
-0.00192037
-0.00287812
-0.00390222
-0.00490716
-0.00576333
-0.00638499
-0.00671098
-0.00672586
-0.00646993
-0.00599607
-0.00532962
-0.00455752
-0.0037616
-0.00299896
-0.00229716
-0.00168345
-0.00115837
-0.00073159
-0.000391646
-0.000165788
0.00901218
0.00665862
0.00389578
0.00323267
0.00376765
0.00432076
0.00457366
0.00458518
0.00447655
0.00430047
0.00403856
0.00363345
0.00302966
0.00217035
0.00104517
-0.000377694
-0.00196799
-0.00367351
-0.00534161
-0.00664943
-0.00738881
-0.00767122
-0.00765242
-0.00754742
-0.00744265
-0.00730794
-0.00708438
-0.00672789
-0.00622971
-0.00557952
-0.00480991
-0.00397171
-0.00312686
-0.00234657
-0.00168308
-0.00118861
-0.000875308
-0.000826759
-0.00103703
-0.0014854
-0.00212304
-0.00289242
-0.0036997
-0.00444207
-0.00506615
-0.00549432
-0.00569682
-0.00570234
-0.0055035
-0.00509498
-0.00454271
-0.00393442
-0.00330999
-0.00270224
-0.00213061
-0.0016157
-0.0011587
-0.000769148
-0.000436355
-0.00018462
0.00774797
0.00584402
0.00338172
0.00271851
0.00314027
0.00362226
0.0038423
0.00382784
0.00369004
0.00348601
0.00321855
0.0028399
0.00231877
0.00160822
0.00072353
-0.000346379
-0.00154045
-0.00282005
-0.00406729
-0.00509179
-0.00573825
-0.00601581
-0.00606234
-0.0060286
-0.00597167
-0.00587714
-0.00571137
-0.0054494
-0.0050794
-0.00460252
-0.00404248
-0.00343296
-0.00282756
-0.00227551
-0.00179156
-0.00142825
-0.00122798
-0.00121499
-0.00137971
-0.00171568
-0.00217739
-0.0027747
-0.00337144
-0.00392453
-0.00438538
-0.00471458
-0.00488148
-0.00487405
-0.00468429
-0.00434485
-0.00390975
-0.00342375
-0.00291833
-0.00242133
-0.00194625
-0.00151419
-0.00112137
-0.000783482
-0.000486284
-0.000240389
0.00642872
0.00495274
0.00283767
0.00221133
0.00252117
0.00292794
0.0031214
0.00310016
0.00295843
0.00275481
0.002505
0.00217506
0.00174354
0.00117903
0.000491975
-0.000315574
-0.00121135
-0.00214633
-0.00303589
-0.00377638
-0.00428335
-0.00455703
-0.00466402
-0.00468021
-0.00465128
-0.00458365
-0.00446418
-0.0042791
-0.00401887
-0.00368925
-0.00330994
-0.00289707
-0.00249059
-0.00213152
-0.00181241
-0.00160641
-0.00152571
-0.00155116
-0.00169621
-0.00194416
-0.00230338
-0.00268926
-0.00311805
-0.00352528
-0.00386375
-0.00411051
-0.00423796
-0.00423008
-0.00409135
-0.00383646
-0.00349135
-0.0030821
-0.00264322
-0.00220183
-0.00176755
-0.00136655
-0.000992327
-0.000674388
-0.00039844
-0.000200318
0.00508274
0.00398117
0.00225888
0.0016976
0.00190593
0.00224095
0.00241435
0.0023998
0.00227173
0.00208877
0.00187332
0.00160525
0.00126686
0.000838297
0.000323482
-0.000268656
-0.000912939
-0.00156818
-0.00218137
-0.00270003
-0.00308304
-0.0033234
-0.00344387
-0.00348138
-0.00347011
-0.00342278
-0.0033421
-0.00321741
-0.00304793
-0.00284074
-0.00260773
-0.00237902
-0.00213522
-0.00185753
-0.00159273
-0.00140607
-0.00127859
-0.00123584
-0.00134214
-0.00158822
-0.00193589
-0.0023248
-0.00272736
-0.00310305
-0.00343155
-0.0036835
-0.00384272
-0.00389765
-0.00384755
-0.00369561
-0.00345477
-0.00313915
-0.00277051
-0.00237276
-0.00195518
-0.00153244
-0.00110835
-0.000715231
-0.00034987
-8.6919e-05
0.00375711
0.00295686
0.00166134
0.00118307
0.00130107
0.00156399
0.00171698
0.00171535
0.00161376
0.00146718
0.00130003
0.00110227
0.000859304
0.000558369
0.000201185
-0.000201988
-0.000632402
-0.00106311
-0.00146469
-0.00181038
-0.00207841
-0.00226059
-0.00236072
-0.00239771
-0.00239419
-0.00235675
-0.00230154
-0.00222407
-0.00213332
-0.00203475
-0.00192579
-0.00185434
-0.00187063
-0.00190214
-0.00195171
-0.00203192
-0.00215919
-0.00233504
-0.00254874
-0.00279114
-0.00305385
-0.00332679
-0.00359483
-0.00383777
-0.00402968
-0.00416286
-0.00422585
-0.00421599
-0.00413291
-0.00399379
-0.00380231
-0.00358166
-0.00332173
-0.00304405
-0.00273213
-0.00241288
-0.00204683
-0.00164874
-0.00118188
-0.000608147
0.00214998
0.0018908
0.00108535
0.000698482
0.000733591
0.000910675
0.00102812
0.00103631
0.00096988
0.000872419
0.000764941
0.000643349
0.000497002
0.000318568
0.000108681
-0.00012357
-0.000369019
-0.000614105
-0.000842902
-0.00104151
-0.00119869
-0.00130917
-0.00137195
-0.0013963
-0.00139302
-0.0013659
-0.00132544
-0.00126724
-0.00123381
-0.00122875
-0.00120601
-0.00112476
-0.000974743
-0.000768511
-0.000539368
-0.00031888
-0.000133668
-4.6946e-06
5.98173e-05
6.5981e-05
2.74171e-05
-3.47157e-05
-0.000101384
-0.000153661
-0.000179242
-0.000167835
-0.00011767
-2.66391e-05
9.78474e-05
0.0002504
0.000415043
0.000584331
0.000741078
0.000877553
0.000980619
0.00104255
0.00105747
0.000988725
0.000809343
0.000398139
0.000685553
0.000683105
0.000408016
0.00023448
0.000226349
0.000293351
0.000345168
0.00035257
0.000328006
0.000291459
0.000252772
0.00021125
0.000161877
0.000102645
3.27462e-05
-4.23083e-05
-0.000120699
-0.000201041
-0.000276045
-0.000340491
-0.000392211
-0.000429101
-0.000448596
-0.00045829
-0.000453584
-0.000442622
-0.00042343
-0.00037423
-0.000321475
-0.000337526
-0.000813725
-0.00157219
-0.00231468
-0.00291774
-0.00339898
-0.00385496
-0.00434921
-0.00490079
-0.00551568
-0.0062005
-0.00695794
-0.00777806
-0.00864133
-0.00951467
-0.0103611
-0.0111337
-0.0117905
-0.0122849
-0.0125861
-0.0126601
-0.0125034
-0.0121042
-0.0114838
-0.0106484
-0.00963633
-0.00844969
-0.00709673
-0.00556904
-0.00376376
-0.0016456
)
;

boundaryField
{
    upstream
    {
        type            fixedValue;
        value           uniform 0;
    }
    downstream
    {
        type            fixedValue;
        value           uniform 0;
    }
    upANDdown
    {
        type            fixedValue;
        value           uniform 0;
    }
    frontAndBack
    {
        type            empty;
    }
    cylinder
    {
        type            zeroGradient;
    }
}


// ************************************************************************* //
