/*--------------------------------*- C++ -*----------------------------------*\
| =========                 |                                                 |
| \\      /  F ield         | OpenFOAM: The Open Source CFD Toolbox           |
|  \\    /   O peration     | Version:  2.3.0                                 |
|   \\  /    A nd           | Web:      www.OpenFOAM.org                      |
|    \\/     M anipulation  |                                                 |
\*---------------------------------------------------------------------------*/
FoamFile
{
    version     2.0;
    format      ascii;
    class       surfaceScalarField;
    location    "9";
    object      phi;
}
// * * * * * * * * * * * * * * * * * * * * * * * * * * * * * * * * * * * * * //

dimensions      [0 3 -1 0 0 0 0];

internalField   nonuniform List<scalar> 
3330
(
1.99251e-07
-3.5811e-09
1.99173e-07
-1.09064e-08
1.98536e-07
-1.49069e-08
1.97935e-07
-1.72026e-08
1.97646e-07
-1.94902e-08
1.97501e-07
-2.22694e-08
1.97357e-07
-2.55341e-08
1.97179e-07
-2.89169e-08
1.9702e-07
-3.21747e-08
1.96905e-07
-3.51184e-08
1.96877e-07
-3.77349e-08
1.96943e-07
-3.99923e-08
1.97139e-07
-4.18159e-08
1.97476e-07
-4.31431e-08
1.97978e-07
-4.37976e-08
1.98629e-07
-4.36597e-08
1.99413e-07
-4.28333e-08
2.00343e-07
-4.10812e-08
2.01356e-07
-3.83942e-08
2.02368e-07
-3.49158e-08
2.03312e-07
-3.05112e-08
2.04039e-07
-2.55203e-08
2.04993e-07
-2.00044e-08
2.0734e-07
-1.50854e-08
2.12569e-07
-9.60357e-09
2.18732e-07
-1.88444e-09
2.22697e-07
3.36024e-09
2.25842e-07
7.46766e-09
2.28022e-07
1.15963e-08
2.29233e-07
1.55347e-08
2.29475e-07
1.92716e-08
2.28715e-07
2.28363e-08
2.27033e-07
2.6023e-08
2.24477e-07
2.87826e-08
2.21022e-07
3.11223e-08
2.16751e-07
3.28381e-08
2.1173e-07
3.38872e-08
2.06137e-07
3.41096e-08
1.99992e-07
3.36628e-08
1.93585e-07
3.22956e-08
1.87032e-07
3.02289e-08
1.80452e-07
2.75575e-08
1.74399e-07
2.3941e-08
1.68956e-07
1.99852e-08
1.64455e-07
1.56212e-08
1.619e-07
1.0321e-08
1.61382e-07
5.09926e-09
1.62341e-07
7.89379e-10
1.67329e-07
-4.93705e-09
1.7217e-07
-1.11751e-08
1.75892e-07
-1.94205e-08
1.78894e-07
-2.70589e-08
1.81744e-07
-3.58175e-08
1.84394e-07
-4.20269e-08
1.87271e-07
-4.91949e-08
1.9025e-07
-5.3283e-08
1.93574e-07
-5.76913e-08
1.97283e-07
-5.87989e-08
2.01257e-07
-5.96864e-08
-5.56961e-08
1.98537e-07
-5.78089e-09
1.98027e-07
-1.03966e-08
1.96826e-07
-1.3705e-08
1.95942e-07
-1.6319e-08
1.95518e-07
-1.90663e-08
1.95321e-07
-2.20723e-08
1.95232e-07
-2.54447e-08
1.9512e-07
-2.88055e-08
1.95077e-07
-3.21315e-08
1.9512e-07
-3.51618e-08
1.95379e-07
-3.79936e-08
1.95847e-07
-4.04608e-08
1.96604e-07
-4.25723e-08
1.97633e-07
-4.41718e-08
1.98931e-07
-4.50956e-08
2.00558e-07
-4.52875e-08
2.02312e-07
-4.45867e-08
2.04172e-07
-4.29412e-08
2.06107e-07
-4.03295e-08
2.07914e-07
-3.67226e-08
2.09651e-07
-3.22483e-08
2.1134e-07
-2.72092e-08
2.13286e-07
-2.19507e-08
2.14448e-07
-1.62471e-08
2.1444e-07
-9.59542e-09
2.16363e-07
-3.80807e-09
2.19035e-07
6.88671e-10
2.20286e-07
6.21653e-09
2.21308e-07
1.05745e-08
2.22217e-07
1.46259e-08
2.22824e-07
1.86639e-08
2.23014e-07
2.26462e-08
2.22572e-07
2.64658e-08
2.21325e-07
3.00295e-08
2.19383e-07
3.30639e-08
2.16683e-07
3.55386e-08
2.13263e-07
3.73069e-08
2.09295e-07
3.8077e-08
2.04789e-07
3.81689e-08
2.00202e-07
3.68833e-08
1.95577e-07
3.48533e-08
1.91145e-07
3.19897e-08
1.8716e-07
2.79256e-08
1.83677e-07
2.34683e-08
1.80939e-07
1.83598e-08
1.79111e-07
1.21485e-08
1.77998e-07
6.21248e-09
1.78274e-07
5.13825e-10
1.77533e-07
-4.1963e-09
1.77138e-07
-1.07801e-08
1.77209e-07
-1.94917e-08
1.77757e-07
-2.76065e-08
1.78997e-07
-3.70578e-08
1.80487e-07
-4.35168e-08
1.82586e-07
-5.1294e-08
1.85061e-07
-5.57578e-08
1.88211e-07
-6.08415e-08
1.91961e-07
-6.25494e-08
1.96587e-07
-6.43117e-08
-6.11035e-08
1.94502e-07
-6.20074e-09
1.94089e-07
-9.98362e-09
1.93844e-07
-1.34596e-08
1.93404e-07
-1.58794e-08
1.93005e-07
-1.86669e-08
1.92782e-07
-2.18498e-08
1.92734e-07
-2.53959e-08
1.92703e-07
-2.87753e-08
1.92839e-07
-3.22671e-08
1.93102e-07
-3.54253e-08
1.93703e-07
-3.85942e-08
1.94612e-07
-4.13698e-08
1.95926e-07
-4.38868e-08
1.97626e-07
-4.58714e-08
1.99769e-07
-4.72383e-08
2.02233e-07
-4.77523e-08
2.04978e-07
-4.7331e-08
2.07835e-07
-4.57987e-08
2.1062e-07
-4.31143e-08
2.13196e-07
-3.92989e-08
2.1548e-07
-3.4532e-08
2.1743e-07
-2.91593e-08
2.18961e-07
-2.34812e-08
2.20304e-07
-1.75907e-08
2.22674e-07
-1.19657e-08
2.25626e-07
-6.75927e-09
2.26845e-07
-5.30888e-10
2.28794e-07
4.26741e-09
2.30191e-07
9.17795e-09
2.30905e-07
1.39117e-08
2.30974e-07
1.85951e-08
2.30339e-07
2.32809e-08
2.28988e-07
2.78168e-08
2.26981e-07
3.20369e-08
2.24221e-07
3.5824e-08
2.20787e-07
3.89725e-08
2.16776e-07
4.1318e-08
2.1214e-07
4.27129e-08
2.07469e-07
4.284e-08
2.02233e-07
4.21189e-08
1.96966e-07
4.01202e-08
1.91799e-07
3.71571e-08
1.86591e-07
3.3133e-08
1.81708e-07
2.83513e-08
1.77184e-07
2.28847e-08
1.72645e-07
1.66874e-08
1.68289e-07
1.05684e-08
1.64498e-07
4.30435e-09
1.63986e-07
-3.68451e-09
1.64781e-07
-1.1575e-08
1.66058e-07
-2.07688e-08
1.67361e-07
-2.89092e-08
1.68734e-07
-3.84306e-08
1.69881e-07
-4.46639e-08
1.71122e-07
-5.25347e-08
1.72533e-07
-5.71693e-08
1.74855e-07
-6.31633e-08
1.78289e-07
-6.59831e-08
1.83394e-07
-6.94168e-08
-6.72753e-08
1.9211e-07
-6.3387e-09
1.91898e-07
-9.77176e-09
1.91255e-07
-1.28161e-08
1.90878e-07
-1.5503e-08
1.90511e-07
-1.82993e-08
1.90247e-07
-2.15864e-08
1.90194e-07
-2.53421e-08
1.90173e-07
-2.87542e-08
1.90431e-07
-3.25259e-08
1.90831e-07
-3.58249e-08
1.91761e-07
-3.95244e-08
1.92989e-07
-4.25979e-08
1.94909e-07
-4.58069e-08
1.97272e-07
-4.82342e-08
2.00265e-07
-5.02316e-08
2.03836e-07
-5.13232e-08
2.07719e-07
-5.12139e-08
2.11651e-07
-4.97303e-08
2.15439e-07
-4.69026e-08
2.18732e-07
-4.25918e-08
2.21403e-07
-3.7203e-08
2.23558e-07
-3.13141e-08
2.25419e-07
-2.53429e-08
2.27329e-07
-1.95003e-08
2.2927e-07
-1.39064e-08
2.30826e-07
-8.31538e-09
2.3292e-07
-2.62544e-09
2.34526e-07
2.66167e-09
2.35772e-07
7.93151e-09
2.36452e-07
1.32326e-08
2.36468e-07
1.85782e-08
2.35733e-07
2.40166e-08
2.34137e-07
2.94123e-08
2.31663e-07
3.45111e-08
2.28292e-07
3.91946e-08
2.24114e-07
4.31509e-08
2.1926e-07
4.61716e-08
2.13847e-07
4.81263e-08
2.0781e-07
4.88766e-08
2.0156e-07
4.83696e-08
1.95144e-07
4.65356e-08
1.8879e-07
4.35118e-08
1.82619e-07
3.9304e-08
1.76878e-07
3.40917e-08
1.71687e-07
2.80762e-08
1.6715e-07
2.12247e-08
1.63891e-07
1.38274e-08
1.62509e-07
5.68594e-09
1.61072e-07
-2.24753e-09
1.60338e-07
-1.08412e-08
1.59772e-07
-2.02022e-08
1.58984e-07
-2.81211e-08
1.57604e-07
-3.70514e-08
1.55741e-07
-4.28e-08
1.54023e-07
-5.08174e-08
1.53044e-07
-5.61896e-08
1.53978e-07
-6.40981e-08
1.56946e-07
-6.89507e-08
1.62652e-07
-7.51227e-08
-7.43564e-08
1.89767e-07
-6.28945e-09
1.89558e-07
-9.56303e-09
1.8886e-07
-1.21179e-08
1.88445e-07
-1.50876e-08
1.87999e-07
-1.78532e-08
1.87639e-07
-2.12264e-08
1.875e-07
-2.5204e-08
1.87409e-07
-2.8663e-08
1.87693e-07
-3.28092e-08
1.88143e-07
-3.62759e-08
1.8931e-07
-4.06907e-08
1.90822e-07
-4.41105e-08
1.93378e-07
-4.83623e-08
1.96412e-07
-5.1268e-08
2.0048e-07
-5.43001e-08
2.05192e-07
-5.60351e-08
2.10488e-07
-5.65103e-08
2.15977e-07
-5.52191e-08
2.20999e-07
-5.19247e-08
2.24961e-07
-4.65539e-08
2.27914e-07
-4.01551e-08
2.30275e-07
-3.36753e-08
2.32337e-07
-2.74048e-08
2.34292e-07
-2.14558e-08
2.3601e-07
-1.56238e-08
2.37549e-07
-9.85457e-09
2.3921e-07
-4.28649e-09
2.40746e-07
1.12537e-09
2.41993e-07
6.68457e-09
2.42855e-07
1.23706e-08
2.43079e-07
1.83538e-08
2.42503e-07
2.45932e-08
2.40881e-07
3.10346e-08
2.37967e-07
3.74242e-08
2.3374e-07
4.34223e-08
2.28277e-07
4.86139e-08
2.21839e-07
5.26089e-08
2.14869e-07
5.50969e-08
2.07633e-07
5.61119e-08
2.00403e-07
5.55997e-08
1.93298e-07
5.36409e-08
1.86519e-07
5.02909e-08
1.80123e-07
4.56997e-08
1.7422e-07
3.99946e-08
1.68958e-07
3.3338e-08
1.64348e-07
2.58355e-08
1.60123e-07
1.80522e-08
1.55948e-07
9.86102e-09
1.52529e-07
1.17128e-09
1.49949e-07
-8.26099e-09
1.46909e-07
-1.71624e-08
1.42981e-07
-2.41933e-08
1.37888e-07
-3.19581e-08
1.32828e-07
-3.77402e-08
1.2901e-07
-4.69993e-08
1.27498e-07
-5.46775e-08
1.28881e-07
-6.54807e-08
1.33161e-07
-7.32312e-08
1.40095e-07
-8.20563e-08
-8.23751e-08
1.87506e-07
-6.10649e-09
1.87182e-07
-9.23924e-09
1.86514e-07
-1.14506e-08
1.85943e-07
-1.45164e-08
1.8537e-07
-1.72798e-08
1.84901e-07
-2.0758e-08
1.8457e-07
-2.4873e-08
1.84339e-07
-2.84316e-08
1.84499e-07
-3.29689e-08
1.84924e-07
-3.67007e-08
1.86227e-07
-4.19944e-08
1.87961e-07
-4.58445e-08
1.91225e-07
-5.16255e-08
1.94932e-07
-5.49752e-08
2.00447e-07
-5.9815e-08
2.06281e-07
-6.18694e-08
2.13397e-07
-6.36259e-08
2.21004e-07
-6.28262e-08
2.27528e-07
-5.84493e-08
2.32272e-07
-5.1298e-08
2.35779e-07
-4.3662e-08
2.3798e-07
-3.58764e-08
2.39398e-07
-2.8822e-08
2.40495e-07
-2.25531e-08
2.41405e-07
-1.65339e-08
2.42355e-07
-1.08046e-08
2.43543e-07
-5.47478e-09
2.45033e-07
-3.64223e-10
2.46452e-07
5.26556e-09
2.4761e-07
1.12121e-08
2.48274e-07
1.76897e-08
2.4808e-07
2.47878e-08
2.46801e-07
3.23135e-08
2.43985e-07
4.02407e-08
2.39481e-07
4.79256e-08
2.33412e-07
5.46831e-08
2.25927e-07
6.00945e-08
2.17477e-07
6.35461e-08
2.08651e-07
6.49385e-08
1.9986e-07
6.43906e-08
1.91376e-07
6.21245e-08
1.83382e-07
5.82854e-08
1.75891e-07
5.31899e-08
1.68951e-07
4.69348e-08
1.62492e-07
3.97973e-08
1.56359e-07
3.19687e-08
1.50774e-07
2.36365e-08
1.46091e-07
1.45443e-08
1.41942e-07
5.32044e-09
1.36839e-07
-3.15856e-09
1.29877e-07
-1.02002e-08
1.21647e-07
-1.5963e-08
1.13527e-07
-2.3838e-08
1.0831e-07
-3.25236e-08
1.06482e-07
-4.51713e-08
1.08193e-07
-5.63881e-08
1.11706e-07
-6.89937e-08
1.17269e-07
-7.87943e-08
1.24095e-07
-8.88827e-08
-8.99393e-08
1.85311e-07
-5.78408e-09
1.84786e-07
-8.71444e-09
1.8411e-07
-1.07744e-08
1.83328e-07
-1.37338e-08
1.82627e-07
-1.65788e-08
1.82036e-07
-2.01671e-08
1.81383e-07
-2.42203e-08
1.80932e-07
-2.79802e-08
1.80742e-07
-3.27791e-08
1.81108e-07
-3.70674e-08
1.82249e-07
-4.31349e-08
1.84278e-07
-4.78741e-08
1.8795e-07
-5.52966e-08
1.92667e-07
-5.96924e-08
2.00365e-07
-6.75133e-08
2.07483e-07
-6.89877e-08
2.16921e-07
-7.30639e-08
2.27038e-07
-7.29433e-08
2.35011e-07
-6.64223e-08
2.39629e-07
-5.59152e-08
2.41915e-07
-4.59482e-08
2.42077e-07
-3.60382e-08
2.41915e-07
-2.86604e-08
2.4202e-07
-2.26584e-08
2.41818e-07
-1.63314e-08
2.41672e-07
-1.06587e-08
2.42128e-07
-5.93066e-09
2.43382e-07
-1.61813e-09
2.45047e-07
3.60014e-09
2.46708e-07
9.55148e-09
2.47962e-07
1.64353e-08
2.48419e-07
2.43313e-08
2.4761e-07
3.31218e-08
2.45426e-07
4.24249e-08
2.41595e-07
5.17562e-08
2.35709e-07
6.057e-08
2.27999e-07
6.78036e-08
2.18919e-07
7.26261e-08
2.09016e-07
7.48424e-08
1.98879e-07
7.4527e-08
1.89001e-07
7.20024e-08
1.79579e-07
6.77079e-08
1.70704e-07
6.20645e-08
1.62457e-07
5.51823e-08
1.54719e-07
4.75355e-08
1.47533e-07
3.91543e-08
1.41245e-07
2.99247e-08
1.35308e-07
2.04807e-08
1.28017e-07
1.26115e-08
1.18073e-07
6.7857e-09
1.06771e-07
1.10226e-09
9.75559e-08
-6.74826e-09
9.28008e-08
-1.90828e-08
9.31041e-08
-3.28269e-08
9.5741e-08
-4.78082e-08
1.00226e-07
-6.08731e-08
1.04845e-07
-7.36126e-08
1.10347e-07
-8.42962e-08
1.15301e-07
-9.38369e-08
-9.51971e-08
1.83322e-07
-5.40535e-09
1.82618e-07
-8.01008e-09
1.81401e-07
-9.55702e-09
1.80515e-07
-1.28487e-08
1.79851e-07
-1.59139e-08
1.79048e-07
-1.93651e-08
1.77947e-07
-2.31193e-08
1.7713e-07
-2.71629e-08
1.76405e-07
-3.20537e-08
1.76505e-07
-3.71681e-08
1.77177e-07
-4.38066e-08
1.79439e-07
-5.0136e-08
1.83113e-07
-5.89708e-08
1.89278e-07
-6.58572e-08
1.98962e-07
-7.71974e-08
2.10319e-07
-8.03441e-08
2.22622e-07
-8.53675e-08
2.34157e-07
-8.44778e-08
2.40407e-07
-7.26728e-08
2.41784e-07
-5.72925e-08
2.40761e-07
-4.49249e-08
2.37705e-07
-3.29821e-08
2.34415e-07
-2.537e-08
2.31977e-07
-2.02213e-08
2.28771e-07
-1.3125e-08
2.26401e-07
-8.28816e-09
2.25635e-07
-5.16467e-09
2.26301e-07
-2.28499e-09
2.28665e-07
1.23646e-09
2.32024e-07
6.19258e-09
2.35826e-07
1.2633e-08
2.39154e-07
2.10037e-08
2.40964e-07
3.13115e-08
2.4067e-07
4.27192e-08
2.37947e-07
5.44794e-08
2.32956e-07
6.5561e-08
2.25699e-07
7.50604e-08
2.16435e-07
8.18905e-08
2.05901e-07
8.53762e-08
1.94876e-07
8.55521e-08
1.83826e-07
8.30518e-08
1.73131e-07
7.84035e-08
1.63164e-07
7.20308e-08
1.53797e-07
6.45497e-08
1.4496e-07
5.63719e-08
1.37089e-07
4.70258e-08
1.29642e-07
3.73714e-08
1.20358e-07
2.97653e-08
1.07938e-07
2.50308e-08
9.4736e-08
1.9988e-08
8.5119e-08
1.07192e-08
8.13772e-08
-3.00639e-09
8.22707e-08
-1.99764e-08
8.65499e-08
-3.71061e-08
9.19499e-08
-5.32081e-08
9.78997e-08
-6.6823e-08
1.02745e-07
-7.8458e-08
1.07051e-07
-8.86017e-08
1.09671e-07
-9.64572e-08
-9.76544e-08
1.814e-07
-4.90839e-09
1.8011e-07
-6.71944e-09
1.80407e-07
-9.85478e-09
1.79167e-07
-1.16078e-08
1.77428e-07
-1.4175e-08
1.7594e-07
-1.7877e-08
1.74338e-07
-2.15172e-08
1.72984e-07
-2.58093e-08
1.71523e-07
-3.05932e-08
1.70934e-07
-3.65782e-08
1.70769e-07
-4.36417e-08
1.72756e-07
-5.21229e-08
1.76044e-07
-6.22588e-08
1.83409e-07
-7.32228e-08
1.95299e-07
-8.90875e-08
2.12911e-07
-9.79556e-08
2.31699e-07
-1.04155e-07
2.35758e-07
-8.85374e-08
2.33058e-07
-6.99719e-08
2.24985e-07
-4.92203e-08
2.15209e-07
-3.51488e-08
2.03074e-07
-2.08473e-08
1.94975e-07
-1.72702e-08
1.85959e-07
-1.12054e-08
1.78177e-07
-5.34367e-09
1.73891e-07
-4.00197e-09
1.72583e-07
-3.85684e-09
1.74251e-07
-3.95274e-09
1.78879e-07
-3.39144e-09
1.86007e-07
-9.35027e-10
1.95175e-07
3.46427e-09
2.05096e-07
1.10826e-08
2.14467e-07
2.19404e-08
2.21085e-07
3.61017e-08
2.23533e-07
5.20314e-08
2.21831e-07
6.7263e-08
2.16727e-07
8.0164e-08
2.08865e-07
8.97532e-08
1.98782e-07
9.54584e-08
1.87328e-07
9.70066e-08
1.75531e-07
9.48484e-08
1.64267e-07
8.96679e-08
1.53555e-07
8.27427e-08
1.43237e-07
7.48674e-08
1.3394e-07
6.56689e-08
1.25138e-07
5.58285e-08
1.14205e-07
4.83038e-08
9.98913e-08
4.40793e-08
8.5284e-08
3.96381e-08
7.5056e-08
3.02161e-08
7.12746e-08
1.45006e-08
7.3122e-08
-4.85377e-09
7.82994e-08
-2.51537e-08
8.50804e-08
-4.38871e-08
9.17034e-08
-5.98311e-08
9.76173e-08
-7.27369e-08
1.0206e-07
-8.29002e-08
1.04935e-07
-9.14772e-08
1.05976e-07
-9.74975e-08
-9.80846e-08
1.79698e-07
-4.34665e-09
1.78707e-07
-5.72865e-09
1.77767e-07
-8.91417e-09
1.76516e-07
-1.0357e-08
1.74787e-07
-1.24461e-08
1.72839e-07
-1.59294e-08
1.70654e-07
-1.9332e-08
1.68509e-07
-2.36637e-08
1.66172e-07
-2.82569e-08
1.6436e-07
-3.4766e-08
1.62822e-07
-4.21037e-08
1.63239e-07
-5.25394e-08
1.65794e-07
-6.48143e-08
1.7314e-07
-8.05689e-08
1.91363e-07
-1.0731e-07
2.06254e-07
-1.12846e-07
2.16206e-07
-1.14108e-07
2.84858e-07
-1.57189e-07
2.14886e-07
1.65666e-07
1.30517e-07
1.0967e-07
7.97482e-08
1.26512e-08
7.2639e-08
-4.09626e-09
7.01457e-08
-2.85039e-09
7.34703e-08
-7.32658e-09
8.08309e-08
-1.12174e-08
9.14671e-08
-1.4589e-08
1.04106e-07
-1.60299e-08
1.1829e-07
-1.51194e-08
1.33072e-07
-1.13177e-08
1.47897e-07
-3.74247e-09
1.6279e-07
7.0477e-09
1.76768e-07
2.2123e-08
1.87986e-07
4.08143e-08
1.94427e-07
6.08216e-08
1.95446e-07
7.91447e-08
1.91758e-07
9.34418e-08
1.84572e-07
1.02644e-07
1.75079e-07
1.065e-07
1.6455e-07
1.05377e-07
1.53406e-07
1.00813e-07
1.4189e-07
9.42578e-08
1.31151e-07
8.56065e-08
1.21164e-07
7.56565e-08
1.09228e-07
6.77645e-08
9.37607e-08
6.37707e-08
7.7834e-08
6.0006e-08
6.66121e-08
5.086e-08
6.25686e-08
3.42595e-08
6.45964e-08
1.24728e-08
7.04125e-08
-1.06699e-08
7.78607e-08
-3.26018e-08
8.55404e-08
-5.15669e-08
9.24852e-08
-6.67759e-08
9.81423e-08
-7.8394e-08
1.02111e-07
-8.68688e-08
1.04113e-07
-9.34794e-08
1.04393e-07
-9.77776e-08
-9.74053e-08
1.78139e-07
-3.67342e-09
1.77142e-07
-4.73197e-09
1.75752e-07
-7.52405e-09
1.74188e-07
-8.7928e-09
1.72276e-07
-1.05342e-08
1.6988e-07
-1.35333e-08
1.67122e-07
-1.65744e-08
1.6403e-07
-2.05717e-08
1.60647e-07
-2.48744e-08
1.57143e-07
-3.12614e-08
1.53627e-07
-3.85877e-08
1.50999e-07
-4.99112e-08
1.50021e-07
-6.38365e-08
1.53473e-07
-8.40209e-08
1.71297e-07
-1.25134e-07
2.71297e-07
-2.12847e-07
1.57189e-07
1.26512e-08
8.55492e-09
1.19431e-08
-6.23854e-09
2.24273e-08
-1.78108e-08
3.55336e-08
-2.43238e-08
4.88682e-08
-2.79235e-08
6.25277e-08
-2.96894e-08
7.66256e-08
-2.92173e-08
9.10522e-08
-2.57442e-08
1.05739e-07
-1.84295e-08
1.19812e-07
-7.02553e-09
1.32968e-07
8.96699e-09
1.44854e-07
2.89291e-08
1.544e-07
5.12749e-08
1.6035e-07
7.31948e-08
1.62056e-07
9.17361e-08
1.59796e-07
1.04904e-07
1.54286e-07
1.12009e-07
1.46043e-07
1.13621e-07
1.35841e-07
1.11015e-07
1.25672e-07
1.04427e-07
1.1595e-07
9.53277e-08
1.04123e-07
8.74842e-08
8.8378e-08
8.35093e-08
7.17349e-08
8.04138e-08
5.96675e-08
7.20735e-08
5.50093e-08
5.55182e-08
5.68041e-08
3.24647e-08
6.26828e-08
6.59416e-09
7.0585e-08
-1.85721e-08
7.91383e-08
-4.11552e-08
8.73488e-08
-5.97773e-08
9.44946e-08
-7.39217e-08
9.99868e-08
-8.38862e-08
1.03509e-07
-9.03906e-08
1.04739e-07
-9.47094e-08
1.04265e-07
-9.73035e-08
-9.57985e-08
1.76803e-07
-2.88622e-09
1.75741e-07
-3.67014e-09
1.74114e-07
-5.89631e-09
1.72229e-07
-6.90852e-09
1.70032e-07
-8.33686e-09
1.67203e-07
-1.07043e-08
1.63855e-07
-1.3226e-08
1.59842e-07
-1.6559e-08
1.55254e-07
-2.02864e-08
1.49918e-07
-2.59249e-08
1.438e-07
-3.24703e-08
1.37133e-07
-4.3244e-08
1.29076e-07
-5.57792e-08
1.21984e-07
-7.69288e-08
1.08718e-07
-1.11868e-07
-1.04129e-07
1.02337e-09
-7.26194e-09
7.99919e-09
-2.47866e-08
1.80426e-08
-3.43672e-08
2.85193e-08
-3.84002e-08
3.90805e-08
-4.02506e-08
5.00028e-08
-4.01396e-08
6.13821e-08
-3.71236e-08
7.30726e-08
-3.012e-08
8.44769e-08
-1.84298e-08
9.55382e-08
-2.09434e-09
1.05504e-07
1.89635e-08
1.1436e-07
4.24191e-08
1.21276e-07
6.62786e-08
1.2545e-07
8.75617e-08
1.26374e-07
1.03981e-07
1.24207e-07
1.14176e-07
1.198e-07
1.18027e-07
1.13802e-07
1.17013e-07
1.06582e-07
1.11647e-07
9.6396e-08
1.05514e-07
8.15959e-08
1.02284e-07
6.5275e-08
9.98302e-08
5.3171e-08
9.25178e-08
4.83528e-08
7.68916e-08
4.98926e-08
5.39784e-08
5.59418e-08
2.64155e-08
6.41749e-08
-1.63897e-09
7.35077e-08
-2.79049e-08
8.28591e-08
-5.05066e-08
9.13739e-08
-6.82922e-08
9.85104e-08
-8.10582e-08
1.03814e-07
-8.91897e-08
1.07088e-07
-9.36649e-08
1.078e-07
-9.54217e-08
1.06696e-07
-9.61993e-08
-9.30765e-08
1.75754e-07
-2.00635e-09
1.74616e-07
-2.53223e-09
1.72813e-07
-4.09328e-09
1.70704e-07
-4.79993e-09
1.68201e-07
-5.83335e-09
1.64987e-07
-7.4912e-09
1.61082e-07
-9.32008e-09
1.5625e-07
-1.17274e-08
1.5049e-07
-1.45266e-08
1.43349e-07
-1.87841e-08
1.3471e-07
-2.38308e-08
1.24017e-07
-3.25507e-08
1.10278e-07
-4.20407e-08
9.54902e-08
-6.2141e-08
1.04129e-07
-1.20507e-07
-7.26192e-09
1.40663e-09
-3.34552e-08
6.64584e-09
-3.96064e-08
1.21934e-08
-4.39478e-08
1.80038e-08
-4.6061e-08
2.46105e-08
-4.67463e-08
3.21966e-08
-4.47097e-08
4.07155e-08
-3.86389e-08
4.97301e-08
-2.74444e-08
5.85578e-08
-1.0922e-08
6.72133e-08
1.03079e-08
7.5307e-08
3.43254e-08
8.24224e-08
5.91632e-08
8.80581e-08
8.1926e-08
9.17546e-08
1.00284e-07
9.32867e-08
1.12644e-07
9.28478e-08
1.18466e-07
9.00428e-08
1.19818e-07
8.2733e-08
1.18956e-07
7.03555e-08
1.17892e-07
5.63539e-08
1.16286e-07
4.60533e-08
1.10131e-07
4.23767e-08
9.61944e-08
4.43787e-08
7.48897e-08
5.07448e-08
4.76123e-08
5.97807e-08
1.73796e-08
6.98988e-08
-1.1757e-08
8.03164e-08
-3.83225e-08
9.01401e-08
-6.03304e-08
9.85392e-08
-7.66912e-08
1.05145e-07
-8.76639e-08
1.09798e-07
-9.38424e-08
1.12431e-07
-9.62987e-08
1.12996e-07
-9.59861e-08
1.11497e-07
-9.4701e-08
-8.946e-08
1.75024e-07
-1.06035e-09
1.73824e-07
-1.33166e-09
1.71894e-07
-2.1635e-09
1.69635e-07
-2.54083e-09
1.66899e-07
-3.09804e-09
1.63388e-07
-3.98029e-09
1.59049e-07
-4.98071e-09
1.53593e-07
-6.2712e-09
1.46908e-07
-7.84211e-09
1.3825e-07
-1.01259e-08
1.27489e-07
-1.30694e-08
1.12783e-07
-1.78453e-08
9.45638e-08
-2.38211e-08
6.89735e-08
-3.65507e-08
-5.15334e-08
-3.14179e-09
-3.03134e-08
-2.36816e-09
-4.038e-08
-2.34315e-09
-4.39728e-08
-1.6912e-09
-4.67129e-08
-7.15597e-11
-4.83659e-08
2.86905e-09
-4.76503e-08
7.42903e-09
-4.31989e-08
1.35418e-08
-3.35571e-08
2.05555e-08
-1.79357e-08
2.82668e-08
2.59671e-09
3.64546e-08
2.61375e-08
4.44987e-08
5.11192e-08
5.19058e-08
7.45188e-08
5.7983e-08
9.42069e-08
6.19675e-08
1.0866e-07
6.26235e-08
1.1781e-07
5.91983e-08
1.23243e-07
5.18614e-08
1.26293e-07
4.30555e-08
1.26698e-07
3.71582e-08
1.22183e-07
3.62771e-08
1.11012e-07
3.98171e-08
9.26544e-08
4.73427e-08
6.73641e-08
5.78166e-08
3.71383e-08
6.91667e-08
6.02954e-09
8.0639e-08
-2.32293e-08
9.1499e-08
-4.91824e-08
1.01143e-07
-6.99748e-08
1.08916e-07
-8.44641e-08
1.14476e-07
-9.3224e-08
1.17979e-07
-9.73447e-08
1.19794e-07
-9.81138e-08
1.19744e-07
-9.59356e-08
1.17464e-07
-9.24211e-08
-8.4925e-08
1.74639e-07
-7.83909e-11
1.73402e-07
-9.50014e-11
1.71403e-07
-1.6399e-10
1.69057e-07
-1.94851e-10
1.66198e-07
-2.39279e-10
1.62527e-07
-3.09256e-10
1.57936e-07
-3.89663e-10
1.52151e-07
-4.86019e-10
1.44909e-07
-6.00169e-10
1.35523e-07
-7.39991e-10
1.23369e-07
-9.1503e-10
1.06654e-07
-1.13017e-09
8.42532e-08
-1.42068e-09
4.94862e-08
-1.78374e-09
-2.0472e-09
-4.21382e-09
-2.60995e-08
-8.75604e-09
-3.58378e-08
-1.33811e-08
-3.93477e-08
-1.70618e-08
-4.30322e-08
-1.96655e-08
-4.57622e-08
-2.11552e-08
-4.61606e-08
-2.11148e-08
-4.32392e-08
-1.90333e-08
-3.56387e-08
-1.47542e-08
-2.22148e-08
-9.33691e-09
-2.82054e-09
-1.89951e-09
1.87001e-08
6.38677e-09
4.28329e-08
1.4382e-08
6.65236e-08
2.12665e-08
8.73223e-08
2.60119e-08
1.03914e-07
2.78198e-08
1.16002e-07
2.70779e-08
1.23985e-07
2.56496e-08
1.27721e-07
2.59795e-08
1.26368e-07
2.92181e-08
1.18945e-07
3.5339e-08
1.04891e-07
4.51008e-08
8.28926e-08
5.80704e-08
5.43945e-08
7.16446e-08
2.35641e-08
8.43594e-08
-6.68521e-09
9.62376e-08
-3.51075e-08
1.06654e-07
-5.95984e-08
1.15274e-07
-7.85951e-08
1.21757e-07
-9.09473e-08
1.25865e-07
-9.73318e-08
1.27854e-07
-9.93335e-08
1.28632e-07
-9.8892e-08
1.27389e-07
-9.46928e-08
1.24292e-07
-8.93242e-08
-7.99658e-08
1.74612e-07
9.07209e-10
1.73371e-07
1.14561e-09
1.71365e-07
1.84213e-09
1.69011e-07
2.15926e-09
1.66142e-07
2.62941e-09
1.62458e-07
3.37541e-09
1.5785e-07
4.21788e-09
1.52045e-07
5.3195e-09
1.44777e-07
6.66735e-09
1.35365e-07
8.67238e-09
1.23171e-07
1.12789e-08
1.06431e-07
1.56095e-08
8.39379e-08
2.10724e-08
4.92303e-08
3.29238e-08
4.71831e-08
-5.10291e-09
-2.09966e-08
-1.33589e-08
-2.75818e-08
-2.08709e-08
-3.18358e-08
-2.72574e-08
-3.66456e-08
-3.24649e-08
-4.05547e-08
-3.6433e-08
-4.21925e-08
-3.93103e-08
-4.03619e-08
-4.08463e-08
-3.41027e-08
-4.03954e-08
-2.26657e-08
-3.74059e-08
-5.81002e-09
-3.25767e-08
1.38709e-08
-2.59777e-08
3.6234e-08
-1.8396e-08
5.89419e-08
-1.08237e-08
7.975e-08
-4.00949e-09
9.71e-08
1.85502e-09
1.10138e-07
7.41224e-09
1.18428e-07
1.37676e-08
1.21366e-07
2.14275e-08
1.18708e-07
3.07266e-08
1.09646e-07
4.38846e-08
9.17329e-08
6.0214e-08
6.65632e-08
7.63889e-08
3.82196e-08
9.10934e-08
8.8597e-09
1.0429e-07
-1.98816e-08
1.15675e-07
-4.64932e-08
1.24909e-07
-6.88316e-08
1.31843e-07
-8.55291e-08
1.36381e-07
-9.54862e-08
1.38556e-07
-9.95063e-08
1.39036e-07
-9.98137e-08
1.38384e-07
-9.82403e-08
1.35571e-07
-9.18792e-08
1.31743e-07
-8.54966e-08
-7.49388e-08
1.74943e-07
1.86391e-09
1.73731e-07
2.35794e-09
1.71782e-07
3.79157e-09
1.69499e-07
4.44244e-09
1.66734e-07
5.39415e-09
1.63184e-07
6.92503e-09
1.58796e-07
8.60652e-09
1.53278e-07
1.0837e-08
1.46515e-07
1.34303e-08
1.37777e-07
1.74109e-08
1.26888e-07
2.21671e-08
1.12095e-07
3.04028e-08
9.36748e-08
3.94927e-08
6.7952e-08
5.86466e-08
1.15135e-07
-6.47266e-09
-1.45239e-08
-1.59991e-08
-1.80553e-08
-2.43339e-08
-2.35009e-08
-3.16238e-08
-2.93557e-08
-3.77971e-08
-3.43814e-08
-4.28046e-08
-3.7185e-08
-4.67939e-08
-3.63726e-08
-4.96769e-08
-3.12197e-08
-5.10277e-08
-2.1315e-08
-4.99674e-08
-6.87024e-09
-4.6899e-08
1.08025e-08
-4.16844e-08
3.10194e-08
-3.45945e-08
5.1852e-08
-2.61821e-08
7.13376e-08
-1.69992e-08
8.79171e-08
-7.27687e-09
1.00415e-07
3.03931e-09
1.08112e-07
1.4071e-08
1.10335e-07
2.71314e-08
1.05647e-07
4.4336e-08
9.24409e-08
6.41886e-08
7.18803e-08
8.3161e-08
4.75907e-08
9.99567e-08
2.1424e-08
1.14724e-07
-5.90797e-09
1.27266e-07
-3.2423e-08
1.37473e-07
-5.67004e-08
1.44981e-07
-7.63393e-08
1.49736e-07
-9.02845e-08
1.5191e-07
-9.76595e-08
1.52199e-07
-9.97954e-08
1.51021e-07
-9.86356e-08
1.48073e-07
-9.5293e-08
1.43662e-07
-8.7468e-08
1.39222e-07
-8.1056e-08
-6.98875e-08
1.75623e-07
2.76097e-09
1.74466e-07
3.51499e-09
1.72631e-07
5.62664e-09
1.70485e-07
6.58878e-09
1.67932e-07
7.94677e-09
1.64657e-07
1.02e-08
1.6067e-07
1.25943e-08
1.55744e-07
1.57626e-08
1.49856e-07
1.93182e-08
1.4257e-07
2.4697e-08
1.33732e-07
3.10057e-08
1.22807e-07
4.13278e-08
1.0876e-07
5.35394e-08
9.34891e-08
7.39173e-08
1.00465e-07
1.0816e-07
1.00465e-07
-3.93153e-10
3.93196e-10
-9.22434e-09
-5.69268e-09
-1.64331e-08
-1.08466e-08
-2.31234e-08
-1.68106e-08
-2.94936e-08
-2.29855e-08
-3.5682e-08
-2.8193e-08
-4.14606e-08
-3.14063e-08
-4.62006e-08
-3.16326e-08
-4.93831e-08
-2.80372e-08
-5.06204e-08
-2.00776e-08
-4.99044e-08
-7.58615e-09
-4.68672e-08
7.76524e-09
-4.17093e-08
2.58615e-08
-3.44781e-08
4.46208e-08
-2.54357e-08
6.22952e-08
-1.49035e-08
7.7385e-08
-3.00961e-09
8.85214e-08
1.07788e-08
9.43231e-08
2.77678e-08
9.33455e-08
4.84863e-08
8.49288e-08
7.08941e-08
7.00332e-08
9.18686e-08
5.09058e-08
1.10413e-07
2.90467e-08
1.26618e-07
5.21886e-09
1.40409e-07
-1.96991e-08
1.51616e-07
-4.36303e-08
1.60053e-07
-6.51372e-08
1.65318e-07
-8.16049e-08
1.67521e-07
-9.24869e-08
1.67136e-07
-9.7275e-08
1.65499e-07
-9.81585e-08
1.61829e-07
-9.49653e-08
1.56743e-07
-9.02066e-08
1.51461e-07
-8.21862e-08
1.4653e-07
-7.61256e-08
-6.47206e-08
1.76629e-07
3.57091e-09
1.75542e-07
4.60265e-09
1.73871e-07
7.2974e-09
1.71938e-07
8.52203e-09
1.69672e-07
1.02127e-08
1.66762e-07
1.31095e-08
1.63302e-07
1.60539e-08
1.59165e-07
1.99003e-08
1.54402e-07
2.40805e-08
1.48866e-07
3.02337e-08
1.42483e-07
3.73882e-08
1.35479e-07
4.8332e-08
1.2705e-07
6.19685e-08
1.1938e-07
8.15872e-08
1.05872e-07
1.21668e-07
2.06336e-07
-2.78643e-09
3.17966e-09
-7.43825e-09
-1.04083e-09
-1.17391e-08
-6.54565e-09
-1.55494e-08
-1.30003e-08
-1.92813e-08
-1.92536e-08
-2.30745e-08
-2.43998e-08
-2.69199e-08
-2.75609e-08
-3.07154e-08
-2.7837e-08
-3.40842e-08
-2.46684e-08
-3.63312e-08
-1.78307e-08
-3.64458e-08
-7.47145e-09
-3.44529e-08
5.77226e-09
-2.96381e-08
2.10467e-08
-2.20079e-08
3.69906e-08
-1.16969e-08
5.19842e-08
1.44415e-09
6.4244e-08
1.76609e-08
7.23047e-08
3.70542e-08
7.49298e-08
5.89508e-08
7.14489e-08
8.1551e-08
6.23287e-08
1.03014e-07
4.85698e-08
1.22378e-07
3.15419e-08
1.39385e-07
1.20402e-08
1.54144e-07
-9.54062e-09
1.66403e-07
-3.19583e-08
1.75819e-07
-5.30461e-08
1.81925e-07
-7.12432e-08
1.84484e-07
-8.41632e-08
1.84104e-07
-9.21072e-08
1.81191e-07
-9.43624e-08
1.76729e-07
-9.3696e-08
1.70772e-07
-8.90087e-08
1.64644e-07
-8.40787e-08
1.58674e-07
-7.62161e-08
1.53178e-07
-7.06296e-08
-5.93926e-08
1.77929e-07
4.27095e-09
1.769e-07
5.63098e-09
1.75458e-07
8.7396e-09
1.73833e-07
1.01477e-08
1.7184e-07
1.22051e-08
1.69346e-07
1.56041e-08
1.66457e-07
1.89428e-08
1.63208e-07
2.31489e-08
1.59625e-07
2.76638e-08
1.5587e-07
3.39882e-08
1.5204e-07
4.12187e-08
1.48984e-07
5.13881e-08
1.47476e-07
6.34759e-08
1.50154e-07
7.89096e-08
1.66793e-07
1.05028e-07
2.62743e-07
1.10387e-07
1.51112e-07
1.11631e-07
1.51112e-07
1.00395e-08
-1.00395e-08
6.36109e-09
3.67849e-09
7.24305e-09
2.29773e-09
7.37452e-09
-1.17228e-09
6.6684e-09
-5.83949e-09
5.18154e-09
-1.15134e-08
3.14217e-09
-1.72142e-08
8.28699e-10
-2.20863e-08
-1.5137e-09
-2.52185e-08
-3.51856e-09
-2.58321e-08
-4.8596e-09
-2.33274e-08
-5.28155e-09
-1.74087e-08
-4.13157e-09
-8.62142e-09
-1.07429e-09
2.71499e-09
4.40846e-09
1.5564e-08
1.29005e-08
2.84985e-08
2.46241e-08
4.02606e-08
3.9434e-08
4.94341e-08
5.69441e-08
5.47946e-08
7.64835e-08
5.53904e-08
9.69771e-08
5.09553e-08
1.17174e-07
4.21318e-08
1.35963e-07
2.97806e-08
1.52822e-07
1.46827e-08
1.68034e-07
-3.17139e-09
1.81063e-07
-2.25701e-08
1.91491e-07
-4.23856e-08
1.98504e-07
-6.0059e-08
2.01621e-07
-7.43609e-08
2.01049e-07
-8.35913e-08
1.9761e-07
-8.8668e-08
1.9212e-07
-8.88724e-08
1.85577e-07
-8.71527e-08
1.78606e-07
-8.20375e-08
1.71597e-07
-7.70702e-08
1.6491e-07
-6.95286e-08
1.58871e-07
-6.45904e-08
-5.39466e-08
1.79463e-07
4.86143e-09
1.78434e-07
6.65934e-09
1.77435e-07
9.73867e-09
1.76112e-07
1.14714e-08
1.74298e-07
1.40185e-08
1.72234e-07
1.76684e-08
1.6991e-07
2.1267e-08
1.67577e-07
2.54821e-08
1.65029e-07
3.02112e-08
1.62918e-07
3.60996e-08
1.61057e-07
4.30791e-08
1.60982e-07
5.14636e-08
1.62991e-07
6.14668e-08
1.69531e-07
7.23701e-08
1.86615e-07
8.79439e-08
2.00099e-07
9.69032e-08
2.08858e-07
1.02871e-07
2.72482e-07
8.74888e-08
2.02531e-07
6.99512e-08
1.52475e-07
5.00558e-08
1.15884e-07
3.65905e-08
9.28075e-08
2.3077e-08
6.48793e-08
1.78887e-08
5.79758e-08
1.0582e-08
5.58498e-08
4.4237e-09
5.51073e-08
-4.29738e-10
5.46687e-08
-5.40087e-09
5.32635e-08
-1.01082e-08
5.07657e-08
-1.47164e-08
4.73246e-08
-1.86451e-08
4.33438e-08
-2.12377e-08
3.94927e-08
-2.1981e-08
3.65136e-08
-2.03482e-08
3.51612e-08
-1.60563e-08
3.59456e-08
-9.40582e-09
3.95552e-08
-8.94611e-10
4.59116e-08
9.20757e-09
5.51404e-08
1.92697e-08
6.71241e-08
2.82769e-08
8.15515e-08
3.50067e-08
9.7964e-08
3.83822e-08
1.15599e-07
3.77552e-08
1.33534e-07
3.30209e-08
1.50839e-07
2.4826e-08
1.67057e-07
1.35627e-08
1.82054e-07
-3.13569e-10
1.95591e-07
-1.67086e-08
2.06882e-07
-3.38607e-08
2.1462e-07
-5.01238e-08
2.18025e-07
-6.34641e-08
2.17336e-07
-7.3672e-08
2.13404e-07
-7.96594e-08
2.07289e-07
-8.25532e-08
1.99988e-07
-8.1571e-08
1.92107e-07
-7.92722e-08
1.84319e-07
-7.42491e-08
1.76846e-07
-6.95975e-08
1.69857e-07
-6.25397e-08
1.63536e-07
-5.82689e-08
-4.84843e-08
1.81151e-07
5.38579e-09
1.79813e-07
7.99775e-09
1.80053e-07
9.49856e-09
1.78733e-07
1.27911e-08
1.76906e-07
1.58459e-08
1.7529e-07
1.92843e-08
1.73544e-07
2.3013e-08
1.71986e-07
2.70398e-08
1.70308e-07
3.18893e-08
1.69401e-07
3.70066e-08
1.68898e-07
4.35817e-08
1.70396e-07
4.99661e-08
1.73157e-07
5.87056e-08
1.79802e-07
6.57255e-08
1.90845e-07
7.69004e-08
2.07217e-07
8.05312e-08
2.24423e-07
8.56652e-08
2.26889e-07
8.50226e-08
2.23309e-07
7.35316e-08
2.13886e-07
5.94786e-08
2.02368e-07
4.81089e-08
1.88561e-07
3.68833e-08
1.77541e-07
2.89087e-08
1.6566e-07
2.24632e-08
1.55563e-07
1.4521e-08
1.47537e-07
7.59601e-09
1.40419e-07
1.71769e-09
1.33921e-07
-3.61028e-09
1.27489e-07
-8.2851e-09
1.20748e-07
-1.19033e-08
1.13654e-07
-1.41437e-08
1.06499e-07
-1.48267e-08
9.9893e-08
-1.37418e-08
9.45961e-08