/*--------------------------------*- C++ -*----------------------------------*\
| =========                 |                                                 |
| \\      /  F ield         | OpenFOAM: The Open Source CFD Toolbox           |
|  \\    /   O peration     | Version:  2.3.0                                 |
|   \\  /    A nd           | Web:      www.OpenFOAM.org                      |
|    \\/     M anipulation  |                                                 |
\*---------------------------------------------------------------------------*/
FoamFile
{
    version     2.0;
    format      ascii;
    class       volVectorField;
    location    "9";
    object      U;
}
// * * * * * * * * * * * * * * * * * * * * * * * * * * * * * * * * * * * * * //

dimensions      [0 1 -1 0 0 0 0];

internalField   nonuniform List<vector> 
1720
(
(0.196813 -0.00319649 0)
(0.196636 -0.0109104 0)
(0.197787 -0.0154787 0)
(0.198497 -0.0178014 0)
(0.198407 -0.0198052 0)
(0.197904 -0.0224306 0)
(0.19744 -0.0256761 0)
(0.19714 -0.0290866 0)
(0.197012 -0.0323291 0)
(0.196916 -0.0352343 0)
(0.196909 -0.037769 0)
(0.196877 -0.0399328 0)
(0.197051 -0.041628 4.2463e-26)
(0.197199 -0.0428141 -2.52257e-26)
(0.197732 -0.0433021 -3.75717e-26)
(0.198234 -0.0430086 -1.89859e-26)
(0.198972 -0.0420475 4.05604e-26)
(0.199755 -0.0401479 0)
(0.200902 -0.037373 6.60622e-26)
(0.201714 -0.0338913 -6.6172e-26)
(0.2031 -0.0295502 0)
(0.203727 -0.0247763 0)
(0.2055 -0.0190666 0)
(0.206519 -0.0129603 -3.81179e-24)
(0.210626 -0.00523845 9.7843e-25)
(0.21451 0.00438666 -1.84104e-25)
(0.219722 0.0151457 6.44292e-25)
(0.224122 0.027661 -1.80862e-24)
(0.227113 0.0409834 0)
(0.228813 0.0540658 0)
(0.22946 0.066334 0)
(0.229195 0.0774117 0)
(0.227956 0.0871504 0)
(0.225855 0.0954312 0)
(0.222843 0.10202 0)
(0.219041 0.106701 0)
(0.214401 0.109393 0)
(0.209142 0.109977 0)
(0.203309 0.108554 0)
(0.197011 0.104957 0)
(0.190598 0.0993297 0)
(0.183969 0.0918507 0)
(0.177631 0.082303 0)
(0.17186 0.0711928 0)
(0.166737 0.0587448 0)
(0.163002 0.044546 0)
(0.161646 0.0298523 0)
(0.161335 0.0168248 0)
(0.162074 0.00484957 0)
(0.169406 -0.0064329 0)
(0.174916 -0.0159352 0)
(0.177471 -0.0242076 0)
(0.180254 -0.0330409 0)
(0.183053 -0.0394263 0)
(0.185694 -0.0463615 0)
(0.188806 -0.0503424 0)
(0.191584 -0.0544084 0)
(0.195485 -0.0551422 0)
(0.198714 -0.0557784 0)
(0.20474 -0.0521331 0)
(0.19054 -0.00411751 0)
(0.192223 -0.0110842 0)
(0.195977 -0.0146943 0)
(0.197593 -0.0168719 0)
(0.197156 -0.0192449 0)
(0.196045 -0.0221664 0)
(0.195201 -0.0255331 0)
(0.194866 -0.028918 0)
(0.194863 -0.0321869 0)
(0.195029 -0.0351547 0)
(0.195255 -0.0378605 0)
(0.195622 -0.0402017 2.00094e-25)
(0.196171 -0.0421457 -2.00092e-25)
(0.197014 -0.0435525 0)
(0.198138 -0.0443186 0)
(0.19957 -0.0443193 -4.99156e-25)
(0.201263 -0.043444 4.99161e-25)
(0.203151 -0.0416811 -1.27575e-24)
(0.205096 -0.0389865 1.27582e-24)
(0.207055 -0.0354425 0)
(0.208897 -0.031107 -1.12145e-24)
(0.210622 -0.0261499 3.64667e-24)
(0.212249 -0.020717 -2.52505e-24)
(0.213709 -0.015029 7.29998e-24)
(0.214854 -0.00969196 -3.0987e-24)
(0.215545 -0.0049636 0)
(0.216982 -0.00208153 0)
(0.219159 -0.00114858 1.07443e-24)
(0.220952 -0.00116821 -1.0701e-24)
(0.222085 -0.00151601 0)
(0.222738 -0.00164221 0)
(0.22299 -0.00132755 0)
(0.222858 -0.000793709 0)
(0.222218 -3.77711e-05 0)
(0.22065 0.000840514 0)
(0.218322 0.001621 0)
(0.215189 0.00218566 0)
(0.211499 0.00219987 0)
(0.207213 0.0019519 0)
(0.202568 0.000981736 0)
(0.197922 -0.000294884 0)
(0.193231 -0.00177435 0)
(0.18903 -0.00403315 0)
(0.185169 -0.00589447 0)
(0.182052 -0.00766481 0)
(0.179753 -0.0101417 0)
(0.178401 -0.0118912 0)
(0.177966 -0.0121022 0)
(0.177791 -0.0123612 0)
(0.177343 -0.014297 0)
(0.177275 -0.0206004 0)
(0.177418 -0.0280103 0)
(0.178065 -0.037012 0)
(0.179753 -0.0432371 0)
(0.181222 -0.0507678 0)
(0.183896 -0.0550842 0)
(0.186085 -0.0598418 0)
(0.190136 -0.0612191 0)
(0.193577 -0.0624829 0)
(0.201758 -0.0588429 0)
(0.185342 -0.00665774 0)
(0.187832 -0.0101906 0)
(0.194009 -0.0135718 0)
(0.195987 -0.0158896 0)
(0.195115 -0.0186533 0)
(0.193563 -0.0218406 0)
(0.192558 -0.025389 0)
(0.192284 -0.0288146 0)
(0.192482 -0.0322216 0)
(0.192893 -0.035327 5.10161e-25)
(0.193425 -0.0383093 3.61634e-25)
(0.194153 -0.040923 -8.7174e-25)
(0.195186 -0.043212 -1.90159e-24)
(0.196611 -0.0449469 1.06585e-25)
(0.198476 -0.0460495 0)
(0.200739 -0.0463263 -3.38108e-24)
(0.203356 -0.0456842 3.38118e-24)
(0.206173 -0.0439989 -4.65396e-24)
(0.209059 -0.0412538 5.67096e-24)
(0.21184 -0.0375079 -6.5166e-24)
(0.214369 -0.0329415 8.45591e-25)
(0.216573 -0.0277987 0)
(0.218397 -0.0223908 -2.88265e-23)
(0.220014 -0.0168373 4.90525e-23)
(0.221599 -0.0112079 -1.95757e-23)
(0.223642 -0.00512131 0)
(0.226002 0.00145078 -2.80551e-23)
(0.227772 0.00769342 1.35824e-23)
(0.22935 0.0135825 -1.29608e-23)
(0.23054 0.0192148 -1.89272e-24)
(0.231032 0.0246003 -2.1972e-24)
(0.230868 0.0297776 0)
(0.229878 0.0344873 0)
(0.228208 0.038494 0)
(0.2258 0.0418753 0)
(0.222716 0.0446014 0)
(0.218987 0.046584 0)
(0.214693 0.0476797 0)
(0.209894 0.0478834 0)
(0.204948 0.0471598 0)
(0.199665 0.0455622 0)
(0.194319 0.0431038 0)
(0.189265 0.039659 0)
(0.184025 0.0354275 0)
(0.179437 0.030293 0)
(0.175045 0.024173 0)
(0.170745 0.0180446 0)
(0.165915 0.0108861 0)
(0.163685 0.00138406 0)
(0.163934 -0.00829265 0)
(0.165192 -0.0187309 0)
(0.16676 -0.0274685 0)
(0.167803 -0.0373667 0)
(0.16959 -0.0439662 0)
(0.170136 -0.0519761 0)
(0.171916 -0.0566111 0)
(0.172959 -0.0620225 0)
(0.176411 -0.0642001 0)
(0.17983 -0.0664918 0)
(0.189308 -0.0636863 0)
(0.180089 -0.00626513 0)
(0.183564 -0.00973805 0)
(0.191987 -0.0129788 0)
(0.194179 -0.0155785 0)
(0.192906 -0.0184201 0)
(0.190969 -0.0217116 0)
(0.189878 -0.0254202 0)
(0.18966 -0.028863 0)
(0.190004 -0.0324879 0)
(0.190576 -0.0357331 7.3322e-25)
(0.191326 -0.039118 5.72554e-24)
(0.192364 -0.0420454 -4.09128e-24)
(0.193816 -0.0448403 6.84617e-24)
(0.195827 -0.047001 1.81654e-23)
(0.19842 -0.0485754 -3.95741e-24)
(0.201571 -0.0492595 0)
(0.205236 -0.0489227 0)
(0.20917 -0.0473468 -2.15195e-23)
(0.213174 -0.0444855 4.30121e-23)
(0.21692 -0.0403846 -2.1831e-23)
(0.220137 -0.0353391 4.99297e-24)
(0.222716 -0.0298139 4.82752e-23)
(0.224728 -0.0241432 -3.76568e-23)
(0.226457 -0.0184659 -1.12582e-23)
(0.22816 -0.0128153 0)
(0.229904 -0.00717582 6.16785e-23)
(0.231626 -0.00197 -4.50139e-23)
(0.233462 0.00305803 5.3099e-23)
(0.235004 0.00819308 3.49714e-23)
(0.236102 0.0133379 2.52185e-24)
(0.236551 0.018526 -2.51637e-24)
(0.236302 0.0237957 0)
(0.235123 0.0290499 0)
(0.233056 0.0341133 0)
(0.230197 0.0387411 0)
(0.226466 0.0426289 0)
(0.221967 0.0455995 0)
(0.216779 0.0474552 0)
(0.211074 0.0481553 0)
(0.204806 0.0472499 0)
(0.198451 0.0449718 0)
(0.191977 0.0414253 0)
(0.185787 0.0365824 0)
(0.179607 0.0306967 0)
(0.174306 0.0239668 0)
(0.169206 0.0164075 0)
(0.165074 0.00849282 0)
(0.162547 0.000610725 0)
(0.161812 -0.00632069 0)
(0.160706 -0.0135299 0)
(0.159907 -0.0221367 0)
(0.15968 -0.0297124 0)
(0.158035 -0.0388315 0)
(0.157149 -0.0446743 0)
(0.154275 -0.0523602 0)
(0.153458 -0.0570701 0)
(0.152464 -0.0637002 0)
(0.155012 -0.0673498 0)
(0.158495 -0.0720213 0)
(0.169449 -0.0706627 0)
(0.17478 -0.00632039 0)
(0.179476 -0.00970819 0)
(0.19009 -0.0124894 0)
(0.192241 -0.0153732 0)
(0.190605 -0.018115 0)
(0.188242 -0.0214308 0)
(0.187092 -0.0253196 0)
(0.186844 -0.0287866 -1.31129e-24)
(0.187293 -0.0327596 -1.25272e-24)
(0.187878 -0.0361642 0)
(0.188791 -0.0401685 -6.45805e-24)
(0.190026 -0.0434368 0)
(0.19187 -0.0470274 -8.46484e-24)
(0.19446 -0.0496923 -3.49532e-23)
(0.197795 -0.0519892 -7.65926e-24)
(0.201958 -0.0531972 -2.90552e-23)
(0.206833 -0.0532602 4.98717e-23)
(0.212121 -0.0518425 7.20557e-23)
(0.217605 -0.0488422 -1.41094e-22)
(0.222507 -0.0441516 5.63217e-23)
(0.226496 -0.0383772 6.89882e-24)
(0.229362 -0.0322086 1.28815e-22)
(0.23141 -0.026129 -1.2849e-22)
(0.233136 -0.0203414 0)
(0.234766 -0.014716 1.31008e-22)
(0.236394 -0.00925497 -2.86984e-22)
(0.238003 -0.00375274 -2.05369e-22)
(0.239632 0.00169095 -3.7843e-23)
(0.24114 0.00711514 9.48878e-23)
(0.242318 0.0126492 0)
(0.242978 0.01835 0)
(0.24287 0.0241521 -3.36481e-24)
(0.241878 0.030032 -3.41955e-24)
(0.239763 0.0357446 0)
(0.236311 0.0411048 0)
(0.231453 0.0455185 0)
(0.225443 0.0486654 0)
(0.218629 0.0506292 0)
(0.211461 0.0513252 0)
(0.204117 0.0505612 0)
(0.196933 0.0484054 0)
(0.189848 0.0449591 0)
(0.183326 0.0403724 0)
(0.176978 0.0349795 0)
(0.171464 0.029051 0)
(0.166368 0.0225957 0)
(0.162289 0.0160825 0)
(0.15794 0.00903727 0)
(0.154078 0.000376729 0)
(0.151121 -0.00871911 0)
(0.148463 -0.0182239 0)
(0.145502 -0.0260103 0)
(0.140104 -0.034459 0)
(0.135653 -0.0399354 0)
(0.129794 -0.0482101 0)
(0.127951 -0.0543302 0)
(0.12677 -0.0637907 0)
(0.130622 -0.0700819 0)
(0.135025 -0.0780211 0)
(0.147874 -0.0780266 0)
(0.169611 -0.00620267 0)
(0.175546 -0.00942891 0)
(0.188326 -0.0117997 0)
(0.190242 -0.0149174 0)
(0.188213 -0.0176302 0)
(0.185354 -0.0209865 0)
(0.184156 -0.0250515 0)
(0.183741 -0.0285727 -1.88193e-24)
(0.184273 -0.0329838 -4.92109e-24)
(0.184649 -0.0365834 0)
(0.185726 -0.0414469 0)
(0.186924 -0.045039 0)
(0.189223 -0.0498806 0)
(0.192262 -0.0530005 -5.22768e-23)
(0.196462 -0.0565592 -7.88735e-24)
(0.20184 -0.0583654 -1.30644e-22)
(0.208041 -0.0588997 4.01514e-22)
(0.215182 -0.0576928 -2.74008e-22)
(0.222572 -0.0543773 -4.03339e-22)
(0.228901 -0.0487726 4.39152e-22)
(0.234062 -0.0423548 1.75393e-22)
(0.237076 -0.0355231 0)
(0.238515 -0.0288737 0)
(0.239254 -0.0226446 -6.69643e-22)
(0.239971 -0.0167517 1.36576e-22)
(0.240961 -0.011049 6.94568e-22)
(0.242211 -0.0054792 -2.28376e-22)
(0.243726 2.90884e-05 1.99064e-22)
(0.24534 0.00558904 -2.933e-22)
(0.246793 0.0114742 0)
(0.247853 0.0178073 0)
(0.248229 0.0246002 3.36461e-24)
(0.247596 0.0316669 -4.56576e-24)
(0.245812 0.0386514 0)
(0.242396 0.045244 0)
(0.237162 0.0512007 0)
(0.230366 0.0558928 0)
(0.222155 0.0586073 0)
(0.213377 0.059568 0)
(0.204388 0.0589816 0)
(0.195681 0.0569815 0)
(0.187277 0.0536425 0)
(0.179585 0.0491863 0)
(0.172217 0.0436412 0)
(0.165718 0.0371504 0)
(0.159321 0.0296319 0)
(0.153485 0.0212231 0)
(0.148103 0.0118884 0)
(0.144027 0.00231658 0)
(0.13977 -0.00655702 0)
(0.133707 -0.0146892 0)
(0.126108 -0.0208837 0)
(0.1168 -0.0279328 0)
(0.110185 -0.0343253 0)
(0.105945 -0.0452002 0)
(0.106891 -0.0547817 0)
(0.109197 -0.0669294 0)
(0.114163 -0.0759853 0)
(0.11922 -0.0859944 0)
(0.131526 -0.0867697 0)
(0.16464 -0.00594974 0)
(0.171834 -0.00898849 0)
(0.186621 -0.0109313 0)
(0.18818 -0.0142431 0)
(0.185704 -0.0170443 0)
(0.182325 -0.0204921 0)
(0.181085 -0.0246029 -1.88452e-24)
(0.180336 -0.028239 1.69408e-23)
(0.180892 -0.0330024 -7.57339e-24)
(0.180779 -0.0369461 -5.00056e-23)
(0.182007 -0.0427314 -5.81588e-23)
(0.182813 -0.0467895 0)
(0.185694 -0.0533411 0)
(0.188773 -0.0567936 8.16179e-23)
(0.194381 -0.0628166 0)
(0.200893 -0.0649446 3.08396e-22)
(0.209066 -0.0665248 -9.82747e-22)
(0.218941 -0.0653028 6.70887e-22)
(0.228173 -0.060516 1.28741e-22)
(0.236764 -0.0538041 -9.5692e-22)
(0.240808 -0.0455285 -6.42921e-22)
(0.241768 -0.0374834 -3.99959e-22)
(0.241307 -0.0302963 -1.61572e-21)
(0.240446 -0.0238813 1.61844e-21)
(0.239973 -0.0178343 1.62938e-21)
(0.240049 -0.0121913 -1.64195e-21)
(0.240611 -0.00684554 3.97497e-22)
(0.241769 -0.00149853 0)
(0.243434 0.00409542 0)
(0.24544 0.010186 -3.85855e-22)
(0.247164 0.0170012 1.2468e-22)
(0.248164 0.0246276 6.95292e-23)
(0.248314 0.0328516 -2.56692e-23)
(0.246725 0.0417217 -4.58916e-24)
(0.24415 0.0502198 0)
(0.239685 0.0576969 0)
(0.232858 0.063993 0)
(0.224168 0.0682186 0)
(0.21447 0.0700439 0)
(0.20415 0.0696701 0)
(0.19402 0.0674166 0)
(0.18421 0.0634544 0)
(0.17508 0.0581508 0)
(0.166389 0.0515552 0)
(0.158558 0.0438954 0)
(0.15085 0.0354855 0)
(0.144163 0.0266704 0)
(0.138284 0.0173433 0)
(0.132334 0.00824852 0)
(0.123628 0.000829066 0)
(0.112335 -0.00483012 0)
(0.100913 -0.0105431 0)
(0.0935473 -0.0202233 0)
(0.091979 -0.0315737 0)
(0.0939456 -0.0457304 0)
(0.0976484 -0.0583094 0)
(0.10232 -0.0714619 0)
(0.107358 -0.0820374 0)
(0.112093 -0.0921341 0)
(0.120528 -0.0933011 0)
(0.159994 -0.00560955 0)
(0.168613 -0.00863525 0)
(0.184999 -0.00975489 0)
(0.186008 -0.0131946 0)
(0.182978 -0.0162454 0)
(0.179193 -0.0198335 -2.05584e-24)
(0.177902 -0.0237975 1.8845e-24)
(0.176659 -0.0276619 1.76188e-23)
(0.177101 -0.0325233 3.22917e-24)
(0.176179 -0.0371415 3.19169e-23)
(0.177445 -0.0435357 1.08025e-22)
(0.177468 -0.0487661 4.00102e-22)
(0.180821 -0.0568075 2.25087e-22)
(0.18377 -0.0616012 -6.17146e-22)
(0.19115 -0.0711678 -6.01157e-23)
(0.198336 -0.0729367 6.06202e-23)
(0.211399 -0.0787171 0)
(0.223518 -0.0752251 6.22185e-22)
(0.235418 -0.0671064 -1.34442e-21)
(0.240911 -0.0552647 -1.3102e-21)
(0.242027 -0.0449398 -1.28298e-21)
(0.239213 -0.0357676 -2.1262e-21)
(0.235058 -0.0293477 1.013e-21)
(0.230451 -0.0233766 -3.76308e-21)
(0.22715 -0.0176078 4.7077e-21)
(0.224946 -0.0126086 -3.76828e-21)
(0.22398 -0.00814205 3.78102e-21)
(0.224362 -0.00374115 1.0192e-21)
(0.22618 0.00111836 -1.02115e-21)
(0.229347 0.00695149 2.61392e-22)
(0.233339 0.0139132 -7.51346e-23)
(0.237348 0.0222188 1.19963e-22)
(0.240373 0.0320197 4.1988e-23)
(0.241454 0.0424694 4.53828e-24)
(0.239984 0.0531193 -5.26595e-24)
(0.236384 0.0632765 0)
(0.230785 0.071567 0)
(0.222221 0.0774802 0)
(0.21186 0.0804788 0)
(0.20068 0.0804204 0)
(0.189516 0.077741 0)
(0.178367 0.0731918 0)
(0.167988 0.0671785 0)
(0.158316 0.0598188 0)
(0.149193 0.0518906 0)
(0.140627 0.0433166 0)
(0.1335 0.0336785 0)
(0.125798 0.02426 0)
(0.11481 0.0176352 0)
(0.100667 0.0131696 0)
(0.0882412 0.00694894 0)
(0.0815685 -0.00369117 0)
(0.0808884 -0.0186221 0)
(0.0836808 -0.0346782 0)
(0.0891251 -0.0506585 0)
(0.0948643 -0.06437 0)
(0.10056 -0.0765818 0)
(0.104753 -0.087266 0)
(0.108437 -0.095877 0)
(0.112152 -0.0971271 0)
(0.155595 -0.00515582 0)
(0.166007 -0.00721462 0)
(0.183825 -0.01022 0)
(0.183338 -0.0121291 0)
(0.179966 -0.0148909 0)
(0.176098 -0.0185674 -2.67049e-25)
(0.174615 -0.0223291 0)
(0.172825 -0.0265048 1.31476e-24)
(0.172865 -0.0312906 -1.73872e-22)
(0.170828 -0.0367817 1.87281e-22)
(0.171963 -0.0434704 1.36271e-22)
(0.170378 -0.0505777 -2.84367e-22)
(0.174486 -0.0597642 -2.20446e-21)
(0.176104 -0.0675693 0)
(0.185832 -0.0810767 0)
(0.19508 -0.0850291 0)
(0.214473 -0.0981867 2.61093e-21)
(0.227222 -0.0898476 -3.97396e-21)
(0.235822 -0.0739007 2.03929e-21)
(0.233435 -0.0529449 -1.04591e-20)
(0.224034 -0.0360327 -9.33711e-21)
(0.209558 -0.0241684 2.13561e-21)
(0.196383 -0.0199888 3.18518e-21)
(0.185352 -0.0150243 -4.19739e-21)
(0.178292 -0.0100576 -8.90445e-21)
(0.173209 -0.00724171 8.20403e-24)
(0.170614 -0.00501316 0)
(0.171447 -0.00275982 -4.12121e-21)
(0.174672 -0.00023715 2.80082e-21)
(0.180946 0.00363355 -2.67666e-22)
(0.189385 0.00933556 -3.95929e-22)
(0.199151 0.0172067 -1.32115e-22)
(0.209733 0.0274873 -8.69588e-23)
(0.218804 0.0399215 0)
(0.223744 0.0533626 -8.01305e-25)
(0.224185 0.0662671 0)
(0.220879 0.0775465 0)
(0.214484 0.0858095 0)
(0.204998 0.0904117 0)
(0.193636 0.0912502 0)
(0.181536 0.0890888 0)
(0.169679 0.0842916 0)
(0.158818 0.0774303 0)
(0.148144 0.0697484 0)
(0.138176 0.0614059 0)
(0.129614 0.0515269 0)
(0.120556 0.0419652 0)
(0.107545 0.0358676 0)
(0.0916978 0.0323895 0)
(0.0782571 0.0263442 0)
(0.071344 0.0141989 0)
(0.0710009 -0.00301145 0)
(0.0751125 -0.022225 0)
(0.0815128 -0.0405423 0)
(0.0885261 -0.0566637 0)
(0.0948979 -0.070071 0)
(0.1001 -0.0810033 0)
(0.103736 -0.0904665 0)
(0.105773 -0.0972411 0)
(0.106449 -0.0982039 0)
(0.151582 -0.00463169 0)
(0.163747 -0.00620961 0)
(0.182227 -0.00940378 0)
(0.181156 -0.0110642 0)
(0.177018 -0.0133644 0)
(0.173138 -0.0168947 -2.82433e-24)
(0.170989 -0.0203839 0)
(0.169043 -0.0247369 0)
(0.167888 -0.0293125 8.1879e-23)
(0.165172 -0.03552 -3.86783e-22)
(0.164998 -0.0422576 0)
(0.161727 -0.0514785 0)
(0.165923 -0.0614018 2.19716e-21)
(0.164293 -0.0746566 0)
(0.180368 -0.0933403 0)
(0.183856 -0.103822 0)
(0.210784 -0.121718 8.67043e-22)
(0.203132 -0.110952 -7.61888e-22)
(0.205966 -0.0979614 -2.55678e-20)
(0.184859 -0.072066 -1.76346e-20)
(0.153462 -0.0439904 1.10949e-20)
(0.0966035 -0.0207691 0)
(0.0759895 -0.0107742 9.21112e-22)
(0.0719271 -0.00403778 -1.12867e-21)
(0.0692775 -0.00210453 0)
(0.0700516 -0.00315104 1.49457e-20)
(0.0747483 -0.00478193 2.32789e-23)
(0.0846772 -0.00649244 4.17304e-21)
(0.0967551 -0.00706863 -2.24503e-21)
(0.109984 -0.00583779 0)
(0.124545 -0.00178833 -6.82167e-22)
(0.139566 0.00532161 1.79034e-22)
(0.154247 0.0157412 0)
(0.169626 0.0300113 0)
(0.183853 0.0471348 -7.44157e-24)
(0.193617 0.0645004 0)
(0.197466 0.0797984 0)
(0.195761 0.0916158 0)
(0.189899 0.0991644 0)
(0.180721 0.102076 0)
(0.170125 0.100433 0)
(0.159115 0.0952816 0)
(0.147555 0.0885651 0)
(0.135986 0.0807106 0)
(0.126085 0.0707916 0)
(0.115982 0.0608625 0)
(0.102007 0.0548996 0)
(0.0848028 0.0520274 0)
(0.0701134 0.0463962 0)
(0.0625656 0.0336246 0)
(0.0622828 0.0144927 0)
(0.066909 -0.00735179 0)
(0.0739665 -0.028756 0)
(0.081842 -0.0478006 0)
(0.0892402 -0.0634921 0)
(0.0956745 -0.0758565 0)
(0.100496 -0.0851814 0)
(0.103557 -0.0926886 0)
(0.104676 -0.097784 0)
(0.103759 -0.0979615 0)
(0.148027 -0.00401519 0)
(0.161652 -0.00522295 0)
(0.180783 -0.00824555 0)
(0.179308 -0.00967155 0)
(0.174385 -0.0115491 0)
(0.170517 -0.0147116 -4.48996e-25)
(0.16727 -0.0178963 -1.19458e-23)
(0.165592 -0.0220562 -5.01784e-23)
(0.162278 -0.0264311 0)
(0.159896 -0.0326938 5.98193e-22)
(0.155989 -0.0396592 -2.11006e-22)
(0.153007 -0.0497732 0)
(0.152523 -0.061617 7.68862e-22)
(0.148582 -0.0786508 5.95871e-21)
(0.168226 -0.108198 -9.77786e-21)
(0.143321 -0.130982 0)
(0.185686 -0.152355 -8.5505e-20)
(0.124396 -0.0990027 0)
(0.022655 0.000592451 -1.68067e-19)
(0.0076465 0.00117783 2.03862e-19)
(0.00622675 -0.0043338 0)
(0.0167847 -0.0128753 -1.5764e-20)
(0.0286495 -0.0183741 -6.99005e-21)
(0.0416852 -0.0223939 -1.03433e-21)
(0.0551421 -0.0242628 0)
(0.0687918 -0.0235851 3.27412e-22)
(0.0828484 -0.01989 3.53883e-22)
(0.0972877 -0.0123633 0)
(0.111706 -0.000674652 -1.04531e-22)
(0.125871 0.0148762 -2.79473e-23)
(0.139488 0.0341018 -7.90716e-25)
(0.151335 0.0553105 0)
(0.159799 0.07556 0)
(0.163732 0.0921441 0)
(0.163013 0.103449 0)
(0.158532 0.109033 0)
(0.151091 0.10931 0)
(0.141144 0.105902 0)
(0.130392 0.0998864 0)
(0.120665 0.0905939 0)
(0.110796 0.08047 0)
(0.0968052 0.074249 0)
(0.0790916 0.0719017 0)
(0.0634827 0.0672064 0)
(0.0551513 0.0546953 0)
(0.0544986 0.0343912 0)
(0.0590885 0.0101233 0)
(0.0664569 -0.0144841 0)
(0.0749181 -0.0369183 0)
(0.0834983 -0.0557964 0)
(0.0912554 -0.070485 0)
(0.0977033 -0.0812345 0)
(0.102276 -0.0886925 0)
(0.104775 -0.0942635 0)
(0.104762 -0.0978236 0)
(0.102739 -0.0969462 0)
(0.145023 -0.00328525 0)
(0.159886 -0.00421106 0)
(0.179556 -0.00674076 0)
(0.177759 -0.00790472 0)
(0.172223 -0.00946139 0)
(0.168069 -0.0120904 2.36642e-23)
(0.164006 -0.0148548 -1.20937e-23)
(0.162191 -0.0184863 7.75931e-23)
(0.156996 -0.02244 2.70012e-23)
(0.154586 -0.0282276 0)
(0.14624 -0.0349188 0)
(0.14437 -0.044992 0)
(0.133369 -0.058115 1.04607e-21)
(0.133752 -0.0755169 -7.97837e-21)
(0.128369 -0.116932 1.18485e-20)
(0.0931536 -0.118363 -6.30018e-21)
(-0.00205598 -0.00656666 6.44248e-20)
(0.00293135 -0.0224372 1.79049e-20)
(0.0125243 -0.0309838 1.06339e-21)
(0.0231798 -0.0349117 -1.05792e-21)
(0.0335149 -0.0366688 0)
(0.0439244 -0.0363068 0)
(0.0547593 -0.0329634 0)
(0.0661126 -0.0256322 -5.05409e-23)
(0.0776732 -0.0138071 2.60748e-22)
(0.0892715 0.00250632 8.58141e-23)
(0.100599 0.0227935 -4.34022e-23)
(0.11101 0.0458619 0)
(0.119736 0.0690451 0)
(0.125617 0.0892557 0)
(0.12811 0.104299 0)
(0.126802 0.113141 0)
(0.122769 0.116358 0)
(0.117191 0.114816 0)
(0.110415 0.107769 0)
(0.102384 0.0988579 0)
(0.0896884 0.0932041 0)
(0.0725618 0.0914588 0)
(0.0569811 0.087815 0)
(0.0484466 0.0760483 0)
(0.0475927 0.055492 0)
(0.0521733 0.0300548 0)
(0.0598281 0.00267467 0)
(0.0689148 -0.023359 0)
(0.0784365 -0.0460471 0)
(0.087497 -0.0642987 0)
(0.09537 -0.0777409 0)
(0.101693 -0.0867407 0)
(0.106021 -0.0921935 0)
(0.108236 -0.0952632 0)
(0.107503 -0.0968968 0)
(0.104092 -0.0947277 0)
(0.142667 -0.00245073 0)
(0.158523 -0.00311193 0)
(0.178578 -0.00501889 0)
(0.176525 -0.00588255 0)
(0.170649 -0.00709497 0)
(0.165798 -0.00908393 -2.87577e-25)
(0.161648 -0.0112335 -1.35185e-23)
(0.158721 -0.0141006 -2.52087e-23)
(0.153184 -0.01723 -1.53816e-22)
(0.148527 -0.0221471 -2.71881e-22)
(0.138945 -0.0274424 0)
(0.133195 -0.0372308 0)
(0.117054 -0.0469938 0)
(0.114086 -0.0689021 2.99359e-21)
(0.0767575 -0.106466 -8.07508e-22)
(0.0618465 -0.0925505 8.41316e-20)
(-0.00162121 -0.00934366 1.54702e-19)
(-0.00147666 -0.0265513 -8.67136e-22)
(0.00387699 -0.0382196 2.11593e-21)
(0.00943781 -0.0423484 0)
(0.0148437 -0.0443372 0)
(0.0207565 -0.0446367 0)
(0.0275299 -0.0421393 -3.42401e-22)
(0.0353571 -0.035594 -1.38328e-22)
(0.0440877 -0.0240012 -1.56035e-22)
(0.0532602 -0.00718044 -2.78456e-23)
(0.0626784 0.0137838 0)
(0.0719227 0.0376008 0)
(0.0802694 0.0621016 0)
(0.0870352 0.0843237 0)
(0.0917327 0.101929 0)
(0.0940073 0.113327 0)
(0.093581 0.117906 0)
(0.0924606 0.11733 0)
(0.0879194 0.113454 0)
(0.0772062 0.110162 0)
(0.0626142 0.109482 0)
(0.0490931 0.10662 0)
(0.0419084 0.0957745 0)
(0.0418885 0.0763578 0)
(0.0466205 0.0514979 0)
(0.0549499 0.0223332 0)
(0.0649507 -0.0068762 0)
(0.0754403 -0.0334858 0)
(0.0856902 -0.0558315 0)
(0.0948988 -0.0729285 0)
(0.102382 -0.0847978 0)
(0.107951 -0.0919331 0)
(0.111676 -0.0953491 0)
(0.113193 -0.0956881 0)
(0.112986 -0.0954485 0)
(0.108029 -0.0914414 0)
(0.141031 -0.00153629 0)
(0.15759 -0.00193902 0)
(0.177885 -0.00314421 0)
(0.175652 -0.00368622 0)
(0.169552 -0.00447666 0)
(0.164138 -0.00572106 6.26092e-24)
(0.159983 -0.00714009 6.54024e-24)
(0.156074 -0.00894524 0)
(0.150451 -0.0111092 1.24626e-22)
(0.143552 -0.0142447 2.71928e-22)
(0.133743 -0.01812 0)
(0.122673 -0.0246476 0)
(0.106156 -0.0319896 1.5977e-21)
(0.0905128 -0.0500617 -6.19248e-21)
(0.0406317 -0.0593431 0)
(-0.00326975 -0.0253336 0)
(-0.00286369 -0.0405222 3.65449e-23)
(-0.00266514 -0.0444814 -2.15595e-21)
(-0.00232406 -0.0468265 0)
(-0.00123107 -0.0480022 0)
(0.000927326 -0.0466736 3.42339e-22)
(0.00441488 -0.0414512 1.88669e-22)
(0.00956927 -0.0310218 0)
(0.0161791 -0.0149 1.48231e-23)
(0.0238794 0.00619492 0)
(0.0325129 0.0301282 0)
(0.0413034 0.0549649 0)
(0.0494758 0.077882 0)
(0.0564062 0.0966442 0)
(0.0614452 0.1097 0)
(0.0636009 0.116916 0)
(0.0623314 0.12033 0)
(0.0564069 0.122275 0)
(0.0469415 0.123484 0)
(0.0384069 0.121276 0)
(0.0347546 0.11179 0)
(0.0367814 0.0949182 0)
(0.0423091 0.0721757 0)
(0.052123 0.0427755 0)
(0.0637162 0.0118118 0)
(0.0753759 -0.0179462 0)
(0.0867016 -0.0442845 0)
(0.0969623 -0.0656652 0)
(0.105731 -0.0810142 0)
(0.112301 -0.090888 0)
(0.116658 -0.0959824 0)
(0.119345 -0.0973089 0)
(0.120243 -0.0960645 0)
(0.119534 -0.0937619 0)
(0.113049 -0.0873226 0)
(0.140168 -0.000570522 0)
(0.157103 -0.000716089 -4.47364e-28)
(0.177513 -0.00117015 1.04545e-27)
(0.175184 -0.00137504 0)
(0.168925 -0.00167358 0)
(0.163309 -0.00213944 0)
(0.158984 -0.00268453 6.97905e-24)
(0.154766 -0.00335415 -3.79643e-24)
(0.148721 -0.00421086 8.2706e-24)
(0.141104 -0.0053341 1.73134e-22)
(0.130269 -0.00695861 5.97862e-23)
(0.117321 -0.00913021 -9.55369e-22)
(0.0983041 -0.0128061 2.38013e-21)
(0.0758524 -0.0181722 7.73177e-21)
(0.028245 -0.027014 -7.42657e-21)
(-0.00196366 -0.027758 3.99021e-20)
(-0.00664717 -0.0387615 -1.05765e-20)
(-0.0115082 -0.0417925 2.677e-21)
(-0.0156906 -0.0448691 -8.35969e-22)
(-0.018832 -0.0470569 3.23868e-22)
(-0.0211506 -0.0469237 0)
(-0.0221956 -0.0432851 2.03622e-23)
(-0.0213471 -0.034705 -2.72005e-24)
(-0.0179711 -0.0202438 1.29956e-23)
(-0.0126968 -0.00026719 0)
(-0.00578287 0.0234589 0)
(0.00241313 0.0483021 0)
(0.010881 0.0717835 -2.60702e-27)
(0.0187559 0.0918122 5.81375e-28)
(0.024827 0.107187 6.2769e-29)
(0.0280495 0.117959 0)
(0.0281889 0.125201 7.04953e-31)
(0.0261968 0.129181 0)
(0.0247691 0.128608 4.34743e-33)
(0.026247 0.121467 0)
(0.0312944 0.10883 7.04685e-35)
(0.0386277 0.0893853 0)
(0.0509567 0.0615098 0)
(0.0651591 0.0304495 0)
(0.0786333 -0.00052869 1.77332e-34)
(0.0911308 -0.0296562 0)
(0.102352 -0.0549299 0)
(0.111763 -0.0748121 0)
(0.11922 -0.0881788 -1.25862e-35)
(0.124383 -0.0956495 0)
(0.127367 -0.0986074 0)
(0.128572 -0.0987104 0)
(0.128273 -0.0957582 0)
(0.127079 -0.0910109 0)
(0.119391 -0.0824175 0)
(0.140106 0.000415153 0)
(0.157068 0.00052686 4.47369e-28)
(0.177485 0.00084286 -1.04546e-27)
(0.175147 0.000986241 0)
(0.168873 0.00119818 0)
(0.163247 0.00152632 0)
(0.158901 0.00191179 0)
(0.154675 0.00238931 -2.62428e-23)
(0.148594 0.00301864 -8.27056e-24)
(0.140964 0.0038608 3.47037e-22)
(0.130064 0.00513613 5.2226e-22)
(0.117099 0.00688247 7.83273e-22)
(0.097952 0.0099896 -4.30593e-21)
(0.0754629 0.0146601 3.53494e-21)
(0.0279339 0.0229098 0)
(-0.000273915 -0.0221722 3.93307e-21)
(-0.00916787 -0.0315312 -4.10969e-21)
(-0.0173621 -0.0353292 1.06184e-21)
(-0.024493 -0.0395792 -1.19739e-21)
(-0.0303582 -0.0428511 2.9546e-23)
(-0.0349832 -0.043723 3.48156e-22)
(-0.0385524 -0.0413466 -9.15625e-23)
(-0.0409392 -0.034515 -3.42924e-23)
(-0.0415625 -0.0222938 0)
(-0.0396188 -0.00468948 -2.43851e-24)
(-0.0353363 0.017441 0)
(-0.0291572 0.0414844 0)
(-0.0216573 0.0651076 2.60702e-27)
(-0.0138431 0.0860818 -5.81375e-28)
(-0.00665515 0.103092 -6.2769e-29)
(-0.000626066 0.115632 0)
(0.00464394 0.123507 -7.04953e-31)
(0.0100954 0.126178 0)
(0.0168882 0.123557 -4.32638e-33)
(0.0251691 0.116004 0)
(0.0354524 0.100518 -6.97529e-35)
(0.0513089 0.0755636 0)
(0.0686475 0.0463914 0)
(0.0844326 0.0162017 0)
(0.0986573 -0.0135473 -1.77332e-34)
(0.111092 -0.041139 0)
(0.121433 -0.064642 0)
(0.129306 -0.0825575 0)
(0.134805 -0.0937302 1.25862e-35)
(0.138016 -0.0988853 0)
(0.139164 -0.0998504 0)
(0.139168 -0.0989631 0)
(0.136879 -0.0936091 0)
(0.135045 -0.0875491 0)
(0.126713 -0.0774704 0)
(0.140849 0.00138813 0)
(0.157487 0.00175777 0)
(0.177801 0.00283019 0)
(0.175545 0.00331412 0)
(0.169398 0.00402013 0)
(0.163957 0.00513529 6.28459e-24)
(0.159736 0.0063987 1.35734e-23)
(0.155808 0.00802384 3.0039e-23)
(0.150071 0.0099671 0)
(0.143145 0.0128364 -6.35693e-22)
(0.133133 0.0163838 -2.35145e-22)
(0.122036 0.0224774 -3.3033e-22)
(0.105206 0.0293808 -2.87554e-21)
(0.0894435 0.0464986 3.05596e-21)
(0.0402819 0.0558011 0)
(-0.000682955 -0.0145227 0)
(-0.0114901 -0.0223188 2.02084e-21)
(-0.0203514 -0.0271922 2.02606e-21)
(-0.0282973 -0.0326541 0)
(-0.0351502 -0.0373398 -6.61662e-23)
(-0.0406511 -0.0398987 -4.64881e-22)
(-0.0451707 -0.0385227 1.97032e-22)
(-0.0487501 -0.0325571 3.70928e-23)
(-0.0509587 -0.0218047 1.53476e-23)
(-0.0511231 -0.00648717 2.4387e-24)
(-0.0487967 0.0124078 0)
(-0.04443 0.0339386 0)
(-0.0381242 0.056271 0)
(-0.0301875 0.0768307 0)
(-0.0213969 0.0939508 0)
(-0.0121018 0.106631 0)
(-0.00228248 0.114518 0)
(0.00811453 0.117395 0)
(0.0194697 0.114635 0)
(0.0338079 0.103573 0)
(0.0536328 0.0826363 0)
(0.0739466 0.0572214 0)
(0.0922359 0.029808 0)
(0.108304 0.00142121 0)
(0.122217 -0.0263006 0)
(0.13366 -0.0518148 0)
(0.142557 -0.0728885 0)
(0.14838 -0.0883099 0)
(0.151468 -0.0970618 0)
(0.152329 -0.100036 0)
(0.152074 -0.0996819 0)
(0.150296 -0.0973365 0)
(0.145069 -0.0897876 0)
(0.142836 -0.0833383 0)
(0.134146 -0.0724388 0)
(0.142372 0.00231659 0)
(0.158354 0.00294634 0)
(0.178441 0.00473095 0)
(0.176351 0.00554169 0)
(0.170408 0.00667854 0)
(0.16549 0.00854744 -2.7695e-25)
(0.161269 0.0105605 -1.35726e-23)
(0.158261 0.013252 2.93888e-23)
(0.152613 0.0162023 -2.93746e-23)
(0.1478 0.020838 -2.29812e-22)
(0.138068 0.0259032 -1.00805e-21)
(0.131989 0.035187 2.24333e-21)
(0.115755 0.0446986 4.23358e-21)
(0.11195 0.06565 -9.22338e-21)
(0.0749974 0.10222 -8.4315e-22)
(0.0599043 0.0885235 0)
(-0.000803734 -0.00119678 1.46681e-19)
(-0.00356403 -0.00851442 -1.07138e-19)
(-0.0135262 -0.0139475 1.53563e-21)
(-0.0199958 -0.0195493 -6.03769e-21)
(-0.0264004 -0.0255775 2.0372e-21)
(-0.0326217 -0.0306945 -1.0237e-21)
(-0.0386887 -0.0336344 2.55027e-22)
(-0.044047 -0.0333806 -9.81162e-23)
(-0.0480921 -0.029115 -2.89711e-23)
(-0.0504168 -0.0203166 -1.55009e-23)
(-0.0507627 -0.00698272 0)
(-0.0487664 0.0101028 0)
(-0.0445477 0.0292979 0)
(-0.0382939 0.0490519 0)
(-0.0301223 0.0677946 0)
(-0.0203623 0.0839495 0)
(-0.0092698 0.0962626 0)
(0.00320537 0.103637 0)
(0.0177784 0.104661 0)
(0.0366269 0.0971953 0)
(0.0592384 0.0815574 0)
(0.0815064 0.061405 0)
(0.101694 0.0382221 0)
(0.11938 0.0131965 0)
(0.134631 -0.0127558 0)
(0.147416 -0.0380151 0)
(0.157261 -0.0610399 0)
(0.164107 -0.0792661 0)
(0.167481 -0.0917803 0)
(0.167868 -0.0978768 0)
(0.166465 -0.0993375 0)
(0.164249 -0.0974873 0)
(0.1599 -0.0930088 0)
(0.152915 -0.0849221 0)
(0.150384 -0.078689 0)
(0.141351 -0.0673502 0)
(0.144629 0.00317116 0)
(0.159656 0.00406824 0)
(0.179374 0.00649059 0)
(0.177526 0.00760688 0)
(0.171915 0.00910408 0)
(0.167632 0.0116266 -3.68331e-25)
(0.163532 0.0142773 1.20459e-23)
(0.161527 0.0177521 5.06409e-23)
(0.156299 0.0215572 0)
(0.153528 0.0271039 9.53124e-22)
(0.145173 0.0335882 1.89695e-21)
(0.142653 0.0432854 -4.1369e-21)
(0.131685 0.0560681 0)
(0.131058 0.0729713 4.86214e-21)
(0.125311 0.113206 1.07414e-21)
(0.0906654 0.114475 4.17779e-20)
(-0.000974234 0.00211858 -6.41568e-20)
(-0.00488913 -0.0031038 -1.7014e-20)
(-0.0101945 -0.00828347 -4.06034e-21)
(-0.0137956 -0.0144909 6.10424e-24)
(-0.0174165 -0.0206412 -4.02006e-21)
(-0.02108 -0.0257531 1.99077e-21)
(-0.0248299 -0.0289035 4.19199e-22)
(-0.0286368 -0.0291702 0)
(-0.0322924 -0.0258368 4.10498e-23)
(-0.0352591 -0.0185624 8.7329e-24)
(-0.036685 -0.00734347 3.6241e-24)
(-0.0360219 0.00760451 0)
(-0.0326478 0.0248885 0)
(-0.0263107 0.0425747 0)
(-0.017379 0.0590562 0)
(-0.00593078 0.0728075 0)
(0.00844077 0.0822297 0)
(0.026075 0.0858478 0)
(0.0470689 0.0826072 0)
(0.0697144 0.0732553 0)
(0.092253 0.0589214 0)
(0.113077 0.0409341 0)
(0.131513 0.0201718 0)
(0.147668 -0.00217868 0)
(0.161517 -0.02566 0)
(0.172616 -0.0482323 0)
(0.180452 -0.0682791 0)
(0.184552 -0.0831251 0)
(0.185196 -0.0926439 0)
(0.183162 -0.0963 0)
(0.179476 -0.096564 0)
(0.173449 -0.0921096 0)
(0.16845 -0.0872772 0)