/*--------------------------------*- C++ -*----------------------------------*\
| =========                 |                                                 |
| \\      /  F ield         | OpenFOAM: The Open Source CFD Toolbox           |
|  \\    /   O peration     | Version:  2.3.0                                 |
|   \\  /    A nd           | Web:      www.OpenFOAM.org                      |
|    \\/     M anipulation  |                                                 |
\*---------------------------------------------------------------------------*/
FoamFile
{
    version     2.0;
    format      ascii;
    class       volScalarField;
    location    "1.15";
    object      k;
}
// * * * * * * * * * * * * * * * * * * * * * * * * * * * * * * * * * * * * * //

dimensions      [0 2 -2 0 0 0 0];

internalField   nonuniform List<scalar> 
2268
(
0.00243647
0.00438796
0.00640347
0.0084401
0.0106109
0.0130936
0.0159136
0.0189179
0.0218116
0.0243135
0.026247
0.0276767
0.0286767
0.029668
0.0310822
0.0331447
0.0358563
0.0393457
0.0407947
0.038523
0.0309716
0.018961
0.00733402
0.00476306
0.010931
0.0156808
0.0202468
0.0251585
0.0306977
0.0368546
0.0433118
0.0495465
0.0550801
0.0595523
0.0628256
0.0651538
0.0672641
0.0699435
0.0737901
0.0788009
0.0836218
0.0851097
0.0799361
0.0658806
0.0424543
0.0142841
0.00677584
0.0154585
0.0216596
0.0276871
0.0342122
0.0415117
0.0495035
0.0577781
0.0657611
0.0729515
0.0789426
0.0836391
0.0873344
0.0906979
0.0944834
0.0992154
0.1047
0.109463
0.109944
0.102536
0.0851893
0.05729
0.0179652
0.00866481
0.0194376
0.0267922
0.0340413
0.0419555
0.0507678
0.0602932
0.070028
0.0793547
0.0877887
0.094931
0.100778
0.105669
0.110245
0.115185
0.120844
0.126743
0.131177
0.13047
0.121246
0.101728
0.0705941
0.0224996
0.010428
0.0231162
0.0316122
0.0400907
0.0494247
0.0597621
0.070794
0.0819075
0.0924382
0.101939
0.110063
0.116901
0.122872
0.128632
0.134778
0.14143
0.147747
0.151723
0.149801
0.139125
0.118326
0.0849527
0.0286047
0.0120761
0.0265977
0.0363359
0.0461552
0.0570324
0.0690027
0.0815818
0.0940609
0.105727
0.116201
0.125214
0.132941
0.1399
0.14678
0.15408
0.161648
0.168288
0.171718
0.168633
0.156921
0.135783
0.101765
0.0379819
0.0136055
0.0299848
0.0411114
0.0524469
0.06504
0.0787688
0.0929446
0.106779
0.119526
0.130898
0.140743
0.149271
0.157106
0.164966
0.173234
0.181484
0.188254
0.191042
0.186907
0.174682
0.154203
0.121931
0.0574084
0.0150741
0.0333758
0.0460743
0.0591434
0.07365
0.089255
0.105043
0.120198
0.133952
0.14614
0.156754
0.165978
0.174522
0.183129
0.19206
0.200638
0.207168
0.209278
0.204373
0.192187
0.173203
0.145388
0.0936772
0.0124641
0.0169886
0.0285769
0.0444881
0.0604175
0.0777721
0.0872794
0.0831947
0.070842
0.0631694
0.0600846
0.0576243
0.0529052
0.0460314
0.038065
0.0302921
0.0234167
0.0158866
0.00665405
0.0242233
0.0428038
0.0670396
0.0940107
0.123345
0.154383
0.172508
0.169497
0.151745
0.138394
0.131099
0.124849
0.115419
0.102186
0.0858947
0.0695989
0.0544491
0.0376393
0.0125473
0.0315353
0.061304
0.0906322
0.122725
0.153927
0.186973
0.206962
0.207185
0.190315
0.175551
0.166839
0.159398
0.148731
0.13365
0.114252
0.0936664
0.0737016
0.051722
0.017788
0.0377161
0.0764097
0.108339
0.141852
0.17359
0.205528
0.225702
0.229259
0.215466
0.201135
0.192462
0.184959
0.174351
0.158831
0.137558
0.113862
0.0903386
0.0646165
0.0239756
0.0425379
0.0896476
0.122911
0.155685
0.188223
0.21847
0.238553
0.244673
0.233885
0.221203
0.21348
0.206642
0.197006
0.182069
0.159529
0.133167
0.106525
0.0775353
0.0315434
0.0472992
0.10191
0.135786
0.167068
0.200137
0.228622
0.248456
0.256796
0.248705
0.238043
0.231923
0.225982
0.218124
0.205061
0.181818
0.15293
0.123129
0.090764
0.0413944
0.0555473
0.114223
0.148456
0.177748
0.211085
0.237525
0.256661
0.267086
0.261778
0.252418
0.248396
0.243322
0.237873
0.228925
0.205612
0.173693
0.139118
0.104551
0.050251
0.0755868
0.128194
0.161727
0.189869
0.222548
0.246294
0.264157
0.276317
0.273867
0.264885
0.262483
0.258928
0.255105
0.254178
0.230937
0.188883
0.152095
0.116951
0.05525
0.0170428
0.0386367
0.0541855
0.0703626
0.0881878
0.106913
0.125249
0.142356
0.157514
0.17079
0.182437
0.192492
0.201787
0.2111
0.220485
0.228835
0.234153
0.234361
0.228098
0.216124
0.199487
0.178438
0.152354
0.0196147
0.0465907
0.0672327
0.0889077
0.112185
0.13548
0.156963
0.175708
0.191298
0.20435
0.215713
0.225163
0.233627
0.242215
0.250922
0.258364
0.262837
0.262871
0.257502
0.247216
0.233872
0.21867
0.203519
0.0226583
0.0566391
0.0839017
0.112323
0.141616
0.169289
0.193167
0.212315
0.226833
0.23819
0.248146
0.256052
0.262664
0.269645
0.27695
0.283882
0.288873
0.290514
0.287206
0.278469
0.267056
0.256055
0.246668
0.0268704
0.0704625
0.105923
0.141894
0.17702
0.208202
0.233271
0.251352
0.262933
0.270766
0.278287
0.285028
0.290733
0.297482
0.305764
0.314456
0.320436
0.324332
0.322828
0.313802
0.300659
0.290001
0.28366
0.0337103
0.0900553
0.134847
0.178214
0.217979
0.251055
0.275942
0.291541
0.298469
0.300661
0.303975
0.310534
0.319683
0.332482
0.348237
0.357886
0.359502
0.362036
0.364617
0.356648
0.336786
0.320604
0.313192
0.0445721
0.116919
0.171458
0.220907
0.26284
0.294963
0.317247
0.327935
0.329644
0.328711
0.332252
0.341885
0.358019
0.381483
0.404345
0.409404
0.400411
0.389827
0.381824
0.383739
0.377955
0.347961
0.334556
0.0610405
0.151854
0.215979
0.268929
0.308342
0.331742
0.342606
0.345883
0.345627
0.34606
0.352499
0.366883
0.388274
0.414562
0.432198
0.431707
0.42388
0.411502
0.394025
0.381509
0.388589
0.371227
0.347939
0.0822721
0.197433
0.270267
0.319431
0.3388
0.343177
0.345271
0.347197
0.348776
0.35153
0.358902
0.372991
0.392387
0.410036
0.418033
0.41511
0.406487
0.395099
0.380288
0.370457
0.372543
0.367983
0.350999
0.113112
0.255638
0.32052
0.334717
0.335549
0.337005
0.339965
0.343396
0.346639
0.350491
0.357535
0.368669
0.381785
0.391082
0.392693
0.387747
0.379045
0.369389
0.360033
0.355107
0.357359
0.356488
0.344385
0.137547
0.278891
0.313788
0.318249
0.323257
0.329484
0.335143
0.339714
0.342933
0.346126
0.352061
0.360703
0.369046
0.372896
0.37113
0.366119
0.357643
0.349522
0.343721
0.341366
0.344688
0.344083
0.335171
0.135625
0.257733
0.287507
0.299874
0.312618
0.325671
0.333548
0.336757
0.337618
0.33914
0.343181
0.349502
0.354369
0.353768
0.348692
0.342304
0.335117
0.329572
0.326671
0.327448
0.33078
0.329314
0.323771
0.121328
0.227186
0.261647
0.281926
0.302764
0.31975
0.327911
0.330911
0.330812
0.329997
0.330257
0.331436
0.331602
0.328783
0.323957
0.319009
0.314767
0.311886
0.310823
0.311332
0.312043
0.310929
0.309573
0.102958
0.194704
0.232885
0.259126
0.282841
0.299394
0.310347
0.315982
0.317221
0.316123
0.314572
0.312937
0.310695
0.307371
0.303351
0.29964
0.296925
0.29521
0.29431
0.293879
0.29363
0.293954
0.295921
0.086465
0.164828
0.202299
0.229254
0.251991
0.269934
0.283123
0.291292
0.294714
0.294799
0.293272
0.291055
0.288405
0.285375
0.282214
0.279443
0.277526
0.276369
0.275768
0.275643
0.276296
0.278593
0.283173
0.0723356
0.138713
0.173612
0.198216
0.219033
0.236736
0.250692
0.260451
0.265849
0.267607
0.267044
0.265279
0.262981
0.260502
0.258136
0.256254
0.255113
0.254706
0.255
0.256134
0.258559
0.262993
0.269835
0.0599322
0.115914
0.147811
0.170168
0.188658
0.204636
0.217919
0.228009
0.234529
0.237707
0.238382
0.237532
0.235941
0.234142
0.232541
0.231527
0.231242
0.231775
0.233232
0.235848
0.240035
0.2463
0.254942
0.0490555
0.0961296
0.124964
0.145479
0.162055
0.176205
0.188153
0.197657
0.204418
0.208457
0.210233
0.210448
0.209791
0.208833
0.208038
0.207847
0.208383
0.209792
0.212249
0.216014
0.221443
0.228909
0.238635
0.0397172
0.0793617
0.105132
0.123996
0.139122
0.151826
0.162525
0.171229
0.17782
0.182304
0.18494
0.186187
0.186566
0.186567
0.186633
0.187196
0.188409
0.190442
0.193499
0.197844
0.203797
0.211675
0.221672
0.0320413
0.0657047
0.0885109
0.10573
0.119641
0.13127
0.141053
0.149133
0.155536
0.160315
0.163644
0.165818
0.167202
0.168167
0.169074
0.170294
0.172003
0.174379
0.177634
0.18203
0.187873
0.195462
0.204996
0.026122
0.0551218
0.0752302
0.0908119
0.103581
0.114335
0.123459
0.131133
0.137452
0.142497
0.146402
0.149363
0.151621
0.153437
0.155078
0.156831
0.158874
0.161381
0.164559
0.168663
0.173985
0.180823
0.189387
0.0218814
0.0473097
0.0651226
0.0791788
0.0908614
0.100828
0.109412
0.116789
0.123067
0.128331
0.132682
0.136249
0.139187
0.14167
0.143883
0.146036
0.148291
0.150808
0.153778
0.157439
0.162068
0.167952
0.175313
0.0190314
0.0417455
0.0577043
0.0704375
0.0811368
0.090379
0.0984635
0.105555
0.111755
0.117136
0.121771
0.125742
0.129145
0.132091
0.134706
0.137135
0.139517
0.141988
0.144721
0.147929
0.151864
0.156793
0.162941
0.0171733
0.0378392
0.0523358
0.0639716
0.073823
0.0824135
0.0900231
0.0968076
0.102859
0.108237
0.112994
0.11718
0.120853
0.124081
0.126944
0.129545
0.131994
0.134406
0.136927
0.139741
0.143073
0.147163
0.152228
0.0159382
0.0350664
0.0484033
0.0591355
0.0682693
0.0762867
0.0834517
0.0899131
0.095757
0.101036
0.105786
0.110041
0.113832
0.1172
0.120196
0.122888
0.125366
0.12772
0.130071
0.132578
0.135432
0.138847
0.143022
0.0150603
0.033026
0.0454184
0.0553915
0.0639119
0.0714271
0.0781841
0.0843249
0.0899312
0.095051
0.0997134
0.103939
0.107747
0.111159
0.114206
0.116936
0.119418
0.121723
0.123951
0.126233
0.128734
0.131638
0.135128
0.0143776
0.0314395
0.0430381
0.0523551
0.0603396
0.0674103
0.0737973
0.0796337
0.0849973
0.0899325
0.0944645
0.0986074
0.102372
0.105769
0.108818
0.111552
0.114025
0.116293
0.118437
0.120567
0.122823
0.125364
0.128351
0.0138014
0.0301289
0.0410439
0.0497831
0.0572909
0.0639643
0.070017
0.0755724
0.0807032
0.0854507
0.0898367
0.0938721
0.0975625
0.100913
0.103935
0.106657
0.109117
0.111359
0.113451
0.115486
0.117583
0.119879
0.122517
0.0132889
0.0289931
0.0393128
0.0475411
0.0546229
0.0609396
0.0666907
0.0719904
0.0769051
0.0814726
0.0857122
0.0896323
0.093236
0.0965253
0.0995056
0.102207
0.104653
0.10688
0.108945
0.110927
0.112929
0.11507
0.117477
0.0128253
0.0279895
0.0377914
0.0455711
0.0522745
0.058272
0.0637518
0.0688196
0.0735362
0.0779352
0.0820338
0.0858389
0.0893522
0.0925744
0.0955103
0.0981857
0.100617
0.102834
0.104887
0.106845
0.108796
0.110847
0.113109
0.0124131
0.0271149
0.0364724
0.0438637
0.0502348
0.0559486
0.0611848
0.0660422
0.0705766
0.0748185
0.0787831
0.0824763
0.0858992
0.0890515
0.0919428
0.0945889
0.0970036
0.0992137
0.101262
0.103211
0.105139
0.10714
0.109313
0.0120634
0.0263883
0.0353726
0.0424332
0.0485164
0.0539798
0.0589975
0.0636634
0.0680298
0.0721248
0.0759624
0.079548
0.0828824
0.0859653
0.0888111
0.0914252
0.0938203
0.0960206
0.098065
0.100009
0.101925
0.103895
0.10601
0.0117899
0.0258344
0.0345146
0.0412987
0.0471352
0.0523791
0.0572011
0.0616926
0.065904
0.0698625
0.0735813
0.0770657
0.0803164
0.0833358
0.0861331
0.0887113
0.091081
0.0932645
0.0952976
0.0972314
0.0991316
0.101075
0.103141
0.011604
0.0254728
0.033914
0.0404709
0.0460978
0.0511499
0.0557974
0.0601314
0.0642025
0.0680376
0.0716496
0.0750433
0.0782186
0.0811816
0.0839314
0.0864698
0.0888066
0.0909623
0.0929704
0.094879
0.0967494
0.0986524
0.100663
0.0115119
0.0253106
0.0335723
0.039945
0.0453946
0.0502799
0.0547737
0.0589694
0.0629191
0.0666503
0.0701757
0.0734981
0.0766167
0.0795311
0.082236
0.0847312
0.0870252
0.0891376
0.0911011
0.0929618
0.094778
0.0966166
0.0985472
0.0115132
0.0253407
0.033474
0.0396986
0.0449985
0.0497402
0.0541023
0.0581835
0.0620394
0.0656985
0.0691706
0.0724537
0.0755419
0.0784232
0.0810885
0.0835359
0.0857737
0.0878224
0.0897153
0.0914984
0.0932284
0.0949692
0.0967866
0.0115998
0.0255406
0.0335875
0.0396928
0.0448665
0.049487
0.0537432
0.0577426
0.0615469
0.0651851
0.0686596
0.0719554
0.0750491
0.077918
0.0805484
0.0829386
0.0851002
0.0870576
0.0888474
0.0905172
0.092123
0.0937268
0.095391
0.011756
0.0258736
0.0338659
0.0398751
0.0449434
0.0494665
0.0536487
0.0576125
0.0614312
0.0651329
0.0687011
0.0720853
0.0752334
0.0781098
0.0807008
0.0830124
0.0850657
0.0868942
0.0885409
0.0900564
0.0914972
0.0929228
0.094392
0.0119582
0.026289
0.0342504
0.0401829
0.0451658
0.0496178
0.0537668
0.057762
0.0616995
0.0656074
0.0694209
0.0730021
0.0762555
0.0791415
0.0816637
0.0838506
0.0857442
0.0873927
0.0888482
0.0901651
0.0913997
0.092608
0.0938436
0.0121751
0.0267243
0.0346731
0.0405471
0.0454656
0.0498764
0.0540432
0.058164
0.0623885
0.0667579
0.0710788
0.0749959
0.0783734
0.081216
0.0835867
0.0855628
0.0872185
0.0886209
0.0898308
0.0909045
0.0918951
0.0928531
0.0938244
0.0123688
0.027108
0.0350626
0.0408982
0.0457744
0.0501749
0.0544159
0.0587856
0.0635687
0.0689021
0.074207
0.0785705
0.0819635
0.0845858
0.0866346
0.0882604
0.0895726
0.0906516
0.0915602
0.0923503
0.0930674
0.0937521
0.0944404
0.0125017
0.0273719
0.0353537
0.0411727
0.0460279
0.0504422
0.0548016
0.0595495
0.0653258
0.0728644
0.0799185
0.084515
0.0874759
0.0894899
0.0909401
0.0920316
0.0928812
0.0935611
0.094121
0.0945987
0.0950253
0.0954278
0.0958289
0.0125379
0.0274919
0.0355055
0.0413222
0.0461709
0.0506048
0.0550747
0.060233
0.0675777
0.0820821
0.0905506
0.0937488
0.0951941
0.0960029
0.0965339
0.0969165
0.0972069
0.097435
0.0976197
0.0977747
0.0979112
0.0980389
0.0981653
0.106617
0.0880882
0.080699
0.0840175
0.191792
0.185884
0.182684
0.182587
0.241572
0.239589
0.239213
0.240655
0.282117
0.28242
0.284014
0.28694
0.313126
0.314415
0.316479
0.319167
0.333636
0.334837
0.336959
0.339595
0.345414
0.346685
0.349304
0.352207
0.347017
0.34713
0.348612
0.350677
0.340319
0.339486
0.340001
0.34123
0.331274
0.330262
0.330346
0.331099
0.321233
0.320625
0.320944
0.321813
0.309879
0.310654
0.311958
0.313612
0.298848
0.301116
0.303714
0.306533
0.288193
0.291796
0.295689
0.299739
0.276608
0.281375
0.286431
0.29161
0.263075
0.268756
0.274725
0.280801
0.247481
0.253708
0.260226
0.266864
0.230623
0.236993
0.243661
0.250479
0.213495
0.219621
0.226065
0.232709
0.19704
0.202626
0.208547
0.214716
0.181923
0.186801
0.192018
0.197515
0.168486
0.172614
0.177064
0.181803
0.156805
0.16023
0.163948
0.167943
0.146785
0.149608
0.152687
0.156016
0.138249
0.140588
0.143144
0.145919
0.130991
0.13296
0.135112
0.13745
0.124811
0.126511
0.128363
0.130373
0.119534
0.121044
0.122682
0.124454
0.115008
0.116389
0.117879
0.119483
0.111109
0.112404
0.113791
0.115278
0.107737
0.10897
0.110285
0.111687
0.104813
0.105996
0.107252
0.108586
0.102276
0.10341
0.104609
0.105879
0.100088
0.101164
0.102298
0.103496
0.0982298
0.0992314
0.100285
0.101397
0.0967067
0.0976144
0.098568
0.0995741
0.0955484
0.0963415
0.0971743
0.0980532
0.0948117
0.0954718
0.0961648
0.0968968
0.0945817
0.0950951
0.0956341
0.0962044
0.0949739
0.0953336
0.0957114
0.0961121
0.0961378
0.0963449
0.0965625
0.0967943
0.0982621
0.0983266
0.0983947
0.0984679
0.119001
0.154331
0.186094
0.215718
0.243414
0.260254
0.274645
0.288229
0.289573
0.281639
0.281325
0.280551
0.279291
0.28881
0.25811
0.205002
0.16914
0.131576
0.0594162
0.186756
0.205534
0.234377
0.267896
0.28266
0.284178
0.290886
0.301098
0.303079
0.300842
0.30419
0.307878
0.306507
0.299238
0.263407
0.224289
0.188297
0.148427
0.0667662
0.245564
0.263719
0.293134
0.320927
0.317454
0.306676
0.308435
0.314901
0.3135
0.31675
0.328805
0.342442
0.338348
0.306667
0.2774
0.243539
0.20684
0.164728
0.0748713
0.293462
0.310406
0.33283
0.342299
0.331987
0.320957
0.321951
0.325116
0.323678
0.330868
0.350182
0.385273
0.382123
0.32586
0.293788
0.260373
0.225431
0.181403
0.0843686
0.324629
0.335283
0.344663
0.345216
0.336448
0.327062
0.324206
0.324998
0.32804
0.33747
0.357005
0.392155
0.40191
0.343527
0.309516
0.280162
0.245523
0.193023
0.0908215
0.344299
0.350772
0.352439
0.347409
0.338839
0.331184
0.327828
0.326554
0.328168
0.3354
0.349867
0.371854
0.382554
0.34976
0.327215
0.307652
0.271299
0.19886
0.0881148
0.357535
0.362777
0.359207
0.349725
0.340381
0.333899
0.330255
0.327155
0.327184
0.331254
0.339698
0.353103
0.362362
0.351037
0.345528
0.346049
0.299285
0.192466
0.0817939
0.354557
0.356509
0.35252
0.345855
0.338892
0.332956
0.328953
0.326679
0.3267
0.328512
0.331585
0.338748
0.347449
0.348354
0.349384
0.357085
0.292578
0.180574
0.0734191
0.343105
0.344091
0.343107
0.340328
0.335789
0.330014
0.325494
0.32372
0.323966
0.323079
0.32245
0.324911
0.331963
0.333644
0.327227
0.314859
0.263888
0.172564
0.0678865
0.332645
0.334495
0.335356
0.334483
0.331233
0.326129
0.321383
0.318654
0.317404
0.314609
0.311585
0.310116
0.311685
0.311261
0.300424
0.28286
0.243502
0.16873
0.0690979
0.323597
0.326111
0.327628
0.327521
0.325355
0.321329
0.316565
0.312381
0.308738
0.303878
0.298425
0.293702
0.290111
0.285563
0.273968
0.257384
0.223668
0.150782
0.0584747
0.316479
0.320273
0.32276
0.323359
0.321742
0.317964
0.312618
0.306586
0.300273
0.293047
0.28472
0.27617
0.267973
0.259111
0.245704
0.226858
0.194256
0.130257
0.0505105
0.311079
0.316771
0.320754
0.322429
0.321404
0.317608
0.311394
0.303464
0.29453
0.28461
0.27341
0.261402
0.249272
0.236151
0.21954
0.197637
0.165254
0.113988
0.0479418
0.306159
0.314077
0.319954
0.323125
0.323076
0.319624
0.313024
0.303906
0.293099
0.280962
0.267483
0.252901
0.237635
0.221026
0.201541
0.177939
0.147638
0.105523
0.0474183
0.299859
0.310063
0.318027
0.32302
0.324431
0.321968
0.315786
0.306457
0.294814
0.281409
0.266464
0.25023
0.233003
0.214479
0.193765
0.170013
0.14172
0.104156
0.0491672
0.290638
0.302951
0.312988
0.319964
0.323201
0.322299
0.317258
0.308546
0.296941
0.283135
0.267564
0.250656
0.232789
0.213875
0.193345
0.17035
0.143282
0.10696
0.0521361
0.277857
0.291859
0.303735
0.312643
0.317849
0.318842
0.315429
0.307942
0.297077
0.283588
0.268135
0.251341
0.233685
0.215208
0.19547
0.173644
0.147854
0.112529
0.0554335
0.261868
0.276909
0.290185
0.300758
0.307806
0.31072
0.309182
0.303339
0.293749
0.28117
0.266441
0.250329
0.233381
0.215726
0.197044
0.176529
0.152349
0.118582
0.0583997
0.243944
0.259028
0.27308
0.284876
0.293466
0.298135
0.298455
0.29442
0.286453
0.275276
0.261793
0.246826
0.23098
0.214471
0.197064
0.178038
0.155533
0.123352
0.0607499
0.225293
0.239778
0.253731
0.266131
0.275845
0.281988
0.284019
0.281809
0.275655
0.266217
0.254376
0.240941
0.226546
0.211458
0.195581
0.178147
0.157229
0.12646
0.0625958
0.207066
0.220436
0.233727
0.246003
0.256243
0.263502
0.267016
0.266553
0.26227
0.254791
0.244862
0.233255
0.220593
0.207182
0.192964
0.177075
0.157511
0.127969
0.0643624
0.190142
0.202069
0.214277
0.22595
0.236159
0.243987
0.248667
0.249787
0.247359
0.241911
0.234049
0.224462
0.213711
0.202131
0.189623
0.175316
0.157044
0.128441
0.0653535
0.175046
0.185412
0.196299
0.207032
0.216805
0.224774
0.230196
0.232586
0.231903
0.228443
0.222679
0.215202
0.206507
0.196866
0.186068
0.173199
0.155988
0.127943
0.0654758
0.161984
0.170843
0.180352
0.189979
0.199054
0.20684
0.212653
0.216006
0.216816
0.215175
0.211426
0.206028
0.199371
0.191599
0.182411
0.170823
0.154514
0.126909
0.0650915
0.150921
0.158444
0.166659
0.175164
0.183423
0.190818
0.196741
0.200814
0.202808
0.202724
0.200777
0.197284
0.192507
0.186447
0.178709
0.168249
0.152743
0.125697
0.064629
0.141678
0.148092
0.155184
0.162658
0.170098
0.177008
0.182898
0.187416
0.190296
0.191469
0.191037
0.189183
0.186034
0.181462
0.174982
0.165506
0.15072
0.124299
0.0640331
0.134008
0.139549
0.145723
0.152315
0.159012
0.165421
0.171183
0.175942
0.179445
0.181576
0.182345
0.181817
0.179999
0.176656
0.171226
0.162585
0.148421
0.12259
0.0631887
0.127653
0.132533
0.137989
0.143869
0.149938
0.1559
0.161462
0.166316
0.170223
0.173039
0.174706
0.175188
0.174388
0.172012
0.167418
0.159462
0.145829
0.120563
0.0620249
0.12237
0.126764
0.131678
0.137002
0.142562
0.148136
0.153477
0.158327
0.162469
0.165741
0.168033
0.169236
0.169172
0.167501
0.163536
0.156124
0.142959
0.118278
0.060691
0.117943
0.121985
0.126495
0.131395
0.136552
0.141796
0.14692
0.151705
0.155953
0.159495
0.162184
0.163858
0.164284
0.163084
0.15957
0.152579
0.139824
0.115798
0.0593434
0.11419
0.117972
0.12218
0.126754
0.131593
0.136559
0.141476
0.146157
0.150419
0.154089
0.156995
0.158937
0.159646
0.158718
0.155509
0.148845
0.136463
0.11319
0.0578893
0.110959
0.114537
0.118506
0.122821
0.127399
0.132127
0.13685
0.141403
0.145613
0.149307
0.152295
0.154352
0.155186
0.154389
0.151348
0.144951
0.132965
0.110468
0.0561741
0.108132
0.111527
0.115287
0.119377
0.123727
0.128241
0.132778
0.137187
0.141303
0.14495
0.147925
0.149988
0.150835
0.150061
0.147082
0.140912
0.12938
0.107605
0.0540715
0.105619
0.108825
0.112377
0.116247
0.120379
0.124685
0.129035
0.133289
0.137284
0.140841
0.143747
0.145748
0.146536
0.145716
0.142742
0.136714
0.125627
0.104476
0.0516655
0.103366
0.106354
0.109674
0.113305
0.117201
0.121287
0.125441
0.129528
0.133389
0.136836
0.139645
0.14155
0.142239
0.141328
0.1383
0.132306
0.121534
0.100935
0.0493987
0.101356
0.104081
0.107123
0.110472
0.114094
0.117927
0.121863
0.125771
0.129492
0.13283
0.135543
0.137345
0.137918
0.136889
0.133763
0.127726
0.117052
0.0969958
0.0474106
0.0996107
0.102017
0.104723
0.10773
0.111018
0.114542
0.118224
0.121936
0.125524
0.128776
0.131417
0.133134
0.133596
0.13244
0.129196
0.123093
0.112513
0.0930522
0.0457464
0.0981963
0.100228
0.102534
0.105126
0.108003
0.111147
0.114516
0.118006
0.12148
0.124693
0.127314
0.128989
0.129368
0.128098
0.124743
0.118591
0.108147
0.0893218
0.044179
0.0972192
0.0988271
0.100671
0.102774
0.105154
0.107826
0.110797
0.114036
0.117442
0.120696
0.123378
0.125071
0.125411
0.124061
0.120623
0.114456
0.104193
0.0860119
0.0428204
0.0968275
0.0979779
0.0993127
0.10086
0.102653
0.10474
0.1072
0.110151
0.113605
0.117024
0.119859
0.121638
0.12199
0.1206
0.117115
0.110962
0.100907
0.0833696
0.0418845
0.0972104
0.0978904
0.0986895
0.0996322
0.100757
0.102134
0.103918
0.106472
0.110307
0.114055
0.117119
0.119027
0.119426
0.118029
0.114523
0.108397
0.098536
0.0816151
0.0416238
0.0986008
0.0988224
0.0990863
0.0994033
0.0997942
0.100308
0.101094
0.102758
0.108074
0.112281
0.115563
0.117584
0.118031
0.116643
0.113127
0.107011
0.0972763
0.0808672
0.0421487
)
;

boundaryField
{
    leftWall
    {
        type            kqRWallFunction;
        value           nonuniform List<scalar> 
50
(
0.00243647
0.00476306
0.00677584
0.00866481
0.010428
0.0120761
0.0136055
0.0150741
0.0170428
0.0196147
0.0226583
0.0268704
0.0337103
0.0445721
0.0610405
0.0822721
0.113112
0.137547
0.135625
0.121328
0.102958
0.086465
0.0723356
0.0599322
0.0490555
0.0397172
0.0320413
0.026122
0.0218814
0.0190314
0.0171733
0.0159382
0.0150603
0.0143776
0.0138014
0.0132889
0.0128253
0.0124131
0.0120634
0.0117899
0.011604
0.0115119
0.0115132
0.0115998
0.011756
0.0119582
0.0121751
0.0123688
0.0125017
0.0125379
)
;
    }
    rightWall
    {
        type            kqRWallFunction;
        value           nonuniform List<scalar> 
50
(
0.00665405
0.0125473
0.017788
0.0239756
0.0315434
0.0413944
0.050251
0.05525
0.0594162
0.0667662
0.0748713
0.0843686
0.0908215
0.0881148
0.0817939
0.0734191
0.0678865
0.0690979
0.0584747
0.0505105
0.0479418
0.0474183
0.0491672
0.0521361
0.0554335
0.0583997
0.0607499
0.0625958
0.0643624
0.0653535
0.0654758
0.0650915
0.064629
0.0640331
0.0631887
0.0620249
0.060691
0.0593434
0.0578893
0.0561741
0.0540715
0.0516655
0.0493987
0.0474106
0.0457464
0.044179
0.0428204
0.0418845
0.0416238
0.0421487
)
;
    }
    lowerWall
    {
        type            kqRWallFunction;
        value           nonuniform List<scalar> 
62
(
0.00243647
0.00438796
0.00640347
0.0084401
0.0106109
0.0130936
0.0159136
0.0189179
0.0218116
0.0243135
0.026247
0.0276767
0.0286767
0.029668
0.0310822
0.0331447
0.0358563
0.0393457
0.0407947
0.038523
0.0309716
0.018961
0.00733402
0.00733402
0.0142841
0.0179652
0.0224996
0.0286047
0.0379819
0.0574084
0.0936772
0.106617
0.0880882
0.080699
0.0840175
0.0124641
0.0242233
0.0315353
0.0377161
0.0425379
0.0472992
0.0555473
0.0755868
0.0124641
0.0169886
0.0285769
0.0444881
0.0604175
0.0777721
0.0872794
0.0831947
0.070842
0.0631694
0.0600846
0.0576243
0.0529052
0.0460314
0.038065
0.0302921
0.0234167
0.0158866
0.00665405
)
;
    }
    atmosphere
    {
        type            inletOutlet;
        inletValue      uniform 0.1;
        value           nonuniform List<scalar> 
46
(
0.0125379
0.0274919
0.0355055
0.0413222
0.0461709
0.0506048
0.0550747
0.060233
0.0675777
0.1
0.1
0.1
0.1
0.1
0.1
0.1
0.1
0.1
0.1
0.1
0.1
0.1
0.1
0.1
0.1
0.1
0.1
0.1
0.1
0.1
0.1
0.1
0.1
0.1
0.1
0.108074
0.112281
0.115563
0.117584
0.118031
0.116643
0.113127
0.107011
0.0972763
0.0808672
0.0421487
)
;
    }
    defaultFaces
    {
        type            empty;
    }
}


// ************************************************************************* //
