/*--------------------------------*- C++ -*----------------------------------*\
| =========                 |                                                 |
| \\      /  F ield         | OpenFOAM: The Open Source CFD Toolbox           |
|  \\    /   O peration     | Version:  2.3.0                                 |
|   \\  /    A nd           | Web:      www.OpenFOAM.org                      |
|    \\/     M anipulation  |                                                 |
\*---------------------------------------------------------------------------*/
FoamFile
{
    version     2.0;
    format      ascii;
    class       volScalarField;
    location    "1.15";
    object      p_rgh;
}
// * * * * * * * * * * * * * * * * * * * * * * * * * * * * * * * * * * * * * //

dimensions      [1 -1 -2 0 0 0 0];

internalField   nonuniform List<scalar> 
2268
(
1147.87
1144.74
1138.54
1129.33
1117.21
1102.78
1086.66
1069.64
1052.69
1036.79
1022.72
1010.82
1000.48
992.277
985.291
979.711
976.543
976.132
973.752
962.183
940.065
920.513
913.623
1147.73
1144.6
1139.29
1130.11
1117.96
1103.42
1087.21
1070.24
1053.61
1038.38
1025.34
1014.77
1006.28
998.21
990.305
982.641
975.682
970.215
963.803
951.381
932.37
916.013
912.214
1148.28
1144.96
1140.09
1131.04
1118.83
1104.13
1087.8
1070.9
1054.65
1040.18
1028.23
1018.93
1011.84
1005.07
996.496
985.347
973.479
963.246
953.586
940.83
925.075
912.497
909.532
1149.77
1146.2
1141.49
1132.4
1120.02
1105.03
1088.45
1071.42
1055.27
1041.19
1029.87
1021.31
1014.68
1007.87
998.427
985.347
970.832
958.187
947.424
934.716
920.811
909.965
905.957
1152.25
1148.34
1143.6
1134.36
1121.69
1106.29
1089.24
1071.79
1055.33
1041.15
1029.92
1021.59
1015.06
1008.02
997.8
983.329
967.317
954.351
943.629
929.528
918.279
907.77
902.111
1155.56
1151.58
1146.55
1137.08
1123.99
1108
1090.23
1072
1054.81
1040.11
1028.54
1020.11
1013.49
1006.13
995.135
979.598
961.2
939.768
926.6
927.306
916.118
905.202
898.118
1159.79
1155.75
1150.39
1140.62
1126.98
1110.19
1091.41
1072.06
1053.77
1038.19
1025.98
1017.24
1010.41
1002.63
990.87
974.534
932.263
893.05
918.199
926.337
912.303
901.703
894.54
1164.91
1160.77
1155.07
1144.89
1130.54
1112.77
1092.76
1072.04
1052.44
1035.86
1022.91
1013.69
1006.35
997.769
985.566
958.609
881.775
880.02
935.124
921.276
905.774
894.632
885.775
616.553
598.508
574.816
516.609
480.071
487.409
508.879
509.892
490.029
473.068
463.371
458.835
455.278
449.07
439.438
427.739
414.163
403.785
400.141
615.523
599.554
583.718
515.549
443.065
443.941
469.365
474.333
478.519
469.724
462.205
456.762
454.711
450.651
442.629
429.635
414.256
404.314
400.461
619.665
605.456
590.145
491.781
420.693
428.377
442.245
441.286
413.536
446.025
459.316
461.34
461.464
458.773
450.499
437.595
421.699
405.425
398.384
627.804
615.107
585.766
431.468
408.186
467.964
485.444
470.116
402.785
367.639
429.045
462.197
464.427
465.358
458.83
442.298
421.602
403.409
392.983
639.733
628.061
589.655
417.923
399.852
474.517
485.054
488.206
421.903
340.917
323.552
422.69
469.444
471.306
463.003
443.113
392.794
313.477
289.942
654.216
640.852
588.791
386.266
465.592
472.417
484.392
488.702
470.849
341.209
287.866
293.515
420.844
466.419
446.571
350.963
198.732
154.458
147.206
670.723
650.097
499.435
271.427
390.568
483.01
497.595
502.673
452.859
390.357
279.186
254.234
255.019
315.332
254.316
146.889
150.952
150.759
145.775
694.767
678.246
371.795
230.004
339.016
496.517
514.822
503.872
231.669
348.334
368.993
334.73
160.938
121.087
113.497
132.634
164.853
177.893
144.04
1174.28
1169.92
1163.58
1152.46
1136.76
1117.19
1095
1071.93
1050.11
1031.71
1017.29
1006.8
997.742
986.526
972.975
882.318
840.924
877.094
927.503
912.773
891.323
877.676
870.374
1190.98
1186.15
1178.79
1166.04
1147.88
1124.94
1098.46
1070.37
1043.16
1018.88
997.239
982.501
969.411
951.827
873.029
778.791
927.473
918.402
917.187
907.845
790.556
726.718
824.256
1211.49
1207.06
1198.41
1183.78
1162.69
1135.28
1102.55
1065.56
1025.43
942.017
796.293
764.52
755.448
669.653
529.812
737.896
873.518
811.676
840.986
893.124
687.35
417.052
514.141
1236.57
1231.84
1222.51
1206.59
1182.79
1150.25
1108.49
972.564
590.564
396.581
220.574
175.026
169.946
133.544
143.183
377.168
288.071
154.543
258.312
460.177
622.357
412.485
366.416
1264.88
1260.98
1252.24
1237.12
1212.03
1172.55
870.395
421.539
201.816
114.677
83.2689
71.9958
66.8867
59.4912
52.1944
44.2404
38.5571
27.7943
22.6633
18.5772
132.822
379.083
396.047
1294.7
1293.53
1288.5
1275.13
1145.24
736.017
354.8
263.495
191.168
137.057
72.8962
66.7063
62.0427
56.5659
50.5076
43.2799
36.5702
32.0656
17.8338
13.8969
4.82261
73.4359
319.662
1014.69
980.816
926.834
710.614
416.233
313.837
322.29
293.48
288.831
246.461
91.8185
64.9275
61.9677
60.1467
60.1769
81.3615
49.2404
28.9998
25.2518
15.1067
3.2608
3.11022
3.70181
137.402
97.6097
92.4644
78.004
91.339
228.875
312.124
298.396
294.679
292.224
285.962
164.625
67.5964
102.432
127.487
123.014
119.343
73.9356
61.5081
24.5901
2.39652
2.41626
4.21465
1.25032
2.17249
5.01978
12.6559
145.404
294.558
306.388
221.919
172.573
227.293
251.487
187.497
109.784
99.0509
125.276
124.939
93.9118
54.1388
30.7255
7.81274
1.40835
2.27595
17.5219
0.685304
1.03959
1.99131
25.6694
130.123
145.343
58.1074
12.2552
5.86143
16.4969
26.1585
30.6892
27.823
22.3959
20.6395
1.75761
-0.178293
0.132539
0.312462
0.387488
0.809879
0.419493
6.28364
0.393333
0.410484
4.81454
21.9397
18.15
0.447297
-0.03857
-0.130712
-0.0884291
-0.179135
-0.250521
-0.416006
-0.556132
-0.504649
-0.293327
-0.0994358
-0.0177626
0.0660717
0.149319
0.222527
0.244118
0.179505
0.136374
0.160728
0.295872
2.79417
3.54665
-0.290029
-0.414637
-0.45569
-0.45535
-0.432511
-0.435696
-0.418653
-0.393878
-0.354167
-0.28891
-0.198287
-0.136247
-0.074473
-0.00503834
0.063318
0.122327
0.1501
0.131664
0.121487
-0.0272575
-0.00892576
0.0256006
-0.302422
-0.426189
-0.450052
-0.460951
-0.459223
-0.456773
-0.456254
-0.443195
-0.413629
-0.369944
-0.313871
-0.248788
-0.186461
-0.123188
-0.0585243
0.000608588
0.0489686
0.0790076
0.0871775
0.0939366
-0.138759
-0.195205
-0.262813
-0.342688
-0.395126
-0.418608
-0.428934
-0.431387
-0.431605
-0.430299
-0.420888
-0.399352
-0.364347
-0.317448
-0.262958
-0.206742
-0.149924
-0.0940238
-0.0432203
-0.00103029
0.0298777
0.0497065
0.0664887
-0.187918
-0.221862
-0.266772
-0.317667
-0.353781
-0.375153
-0.388077
-0.394497
-0.396727
-0.394822
-0.385953
-0.367834
-0.339398
-0.301571
-0.257138
-0.209826
-0.161357
-0.113723
-0.0696488
-0.0314026
-0.000306115
0.0241408
0.0456914
-0.205856
-0.224239
-0.252082
-0.286311
-0.314
-0.333195
-0.345989
-0.353441
-0.356554
-0.355068
-0.347357
-0.332091
-0.308772
-0.278126
-0.241979
-0.202618
-0.161616
-0.120764
-0.0820723
-0.0471521
-0.0168711
0.00891365
0.0320117
-0.208502
-0.217026
-0.233248
-0.256042
-0.276927
-0.292886
-0.304185
-0.311241
-0.314379
-0.313284
-0.306937
-0.294437
-0.27547
-0.250567
-0.220995
-0.188282
-0.153717
-0.118729
-0.0848251
-0.0532249
-0.0246455
0.000705726
0.0236796
-0.202038
-0.203859
-0.212477
-0.227237
-0.242329
-0.254865
-0.26427
-0.270411
-0.273177
-0.272231
-0.266944
-0.256729
-0.241349
-0.221129
-0.196931
-0.169832
-0.140847
-0.111066
-0.0816175
-0.053443
-0.0271833
-0.0032714
0.0186405
-0.190757
-0.188035
-0.191495
-0.200481
-0.210886
-0.220265
-0.227707
-0.232723
-0.234953
-0.23403
-0.229539
-0.221117
-0.208601
-0.19217
-0.172386
-0.150009
-0.125813
-0.10062
-0.0752766
-0.0505137
-0.0268983
-0.00496723
0.0153683
-0.177397
-0.171997
-0.171791
-0.176462
-0.183143
-0.18981
-0.195416
-0.199295
-0.200954
-0.200005
-0.196134
-0.189114
-0.178848
-0.165441
-0.149248
-0.130791
-0.110642
-0.0894147
-0.0677535
-0.0462237
-0.025313
-0.00557812
0.0129451
-0.163371
-0.15679
-0.154042
-0.155498
-0.159294
-0.163732
-0.167728
-0.170549
-0.171652
-0.170639
-0.167243
-0.161315
-0.152805
-0.141784
-0.128479
-0.11324
-0.0964718
-0.0786253
-0.0601876
-0.0415967
-0.0232625
-0.00571718
0.0109483
-0.149429
-0.142627
-0.138331
-0.13754
-0.139183
-0.141838
-0.144462
-0.146325
-0.146889
-0.145765
-0.142714
-0.137624
-0.130475
-0.121325
-0.110323
-0.0976991
-0.083728
-0.0687309
-0.0530694
-0.0370798
-0.0211026
-0.00562523
0.0092387
-0.135978
-0.129456
-0.124431
-0.122229
-0.122341
-0.123608
-0.125086
-0.126104
-0.126159
-0.124893
-0.122084
-0.117638
-0.111544
-0.103855
-0.0946737
-0.0841524
-0.0724704
-0.0598506
-0.0465551
-0.0328387
-0.0189813
-0.00541825
0.00773138
-0.123246
-0.11722
-0.112023
-0.10905
-0.108134
-0.10836
-0.108925
-0.109237
-0.108854
-0.107454
-0.104834
-0.100902
-0.0956454
-0.0891069
-0.0813657
-0.0725243
-0.0627005
-0.0520488
-0.0407575
-0.0290178
-0.0170577
-0.00525865
0.00626671
-0.111356
-0.105897
-0.100847
-0.0975277
-0.0959602
-0.095443
-0.0953211
-0.0950954
-0.0943838
-0.0929046
-0.090472
-0.0869886
-0.0824317
-0.0768321
-0.0702521
-0.0627655
-0.0544551
-0.0454336
-0.0358386
-0.0258149
-0.0155472
-0.00536556
0.00463287
-0.100361
-0.0954735
-0.0907218
-0.087305
-0.0853483
-0.0843264
-0.083722
-0.0831239
-0.0822087
-0.0807302
-0.0785149
-0.0754602
-0.0715297
-0.066739
-0.0611352
-0.0547756
-0.0477243
-0.0400708
-0.0319209
-0.0233874
-0.0146207
-0.00590474
0.00268408
-0.0902475
-0.0859022
-0.0815039
-0.0781243
-0.0759521
-0.074604
-0.0736805
-0.0728498
-0.0718401
-0.0704346
-0.068471
-0.065843
-0.0625003
-0.0584418
-0.0536979
-0.0483165
-0.0423479
-0.0358689
-0.028966
-0.0217302
-0.0142857
-0.00687598
0.000444028
-0.0809564
-0.0770982
-0.0730565
-0.0697863
-0.0675139
-0.0659672
-0.0648443
-0.0638815
-0.0628517
-0.0615644
-0.0598685
-0.057657
-0.054869
-0.0514874
-0.0475278
-0.0430158
-0.0380039
-0.0325556
-0.0267429
-0.0206409
-0.0143534
-0.00808864
-0.00188212
-0.0724038
-0.0689633
-0.0652585
-0.0621387
-0.0598466
-0.0581924
-0.0569516
-0.055919
-0.0549068
-0.0537493
-0.0523093
-0.0504823
-0.0482004
-0.0454324
-0.0421764
-0.0384503
-0.0342929
-0.0297573
-0.0249029
-0.0197922
-0.0145113
-0.00923721
-0.00398993
-0.0645085
-0.0614165
-0.0580229
-0.0550809
-0.0528287
-0.0511329
-0.0498288
-0.0487598
-0.0477742
-0.0467317
-0.0455107
-0.0440131
-0.0421681
-0.0399344
-0.0372965
-0.0342614
-0.0308565
-0.0271223
-0.0231059
-0.0188574
-0.0144476
-0.0100245
-0.00559703
-0.057208
-0.0544085
-0.0513043
-0.0485606
-0.0463939
-0.0447055
-0.0433753
-0.0422867
-0.0413213
-0.0403643
-0.0393116
-0.0380745
-0.0365829
-0.0347901
-0.0326708
-0.0302228
-0.0274621
-0.0244169
-0.0211223
-0.0176168
-0.0139564
-0.0102626
-0.00653719
-0.0504605
-0.047917
-0.045088
-0.0425589
-0.0405121
-0.0388677
-0.0375384
-0.0364403
-0.0354847
-0.0345819
-0.0336463
-0.0326
-0.031377
-0.0299284
-0.0282243
-0.0262553
-0.0240278
-0.0215593
-0.0188744
-0.0160007
-0.0129809
-0.00991231
-0.00679248
-0.044236
-0.0419302
-0.0393699
-0.0370672
-0.0351644
-0.0335914
-0.0322844
-0.0311858
-0.0302332
-0.0293605
-0.0285007
-0.0275872
-0.0265596
-0.0253688
-0.0239844
-0.0223924
-0.0205926
-0.0185947
-0.0164148
-0.0140715
-0.0115956
-0.00906318
-0.00646974
-0.0385035
-0.0364296
-0.034136
-0.0320665
-0.0303231
-0.0288412
-0.0275743
-0.0264858
-0.0255361
-0.0246812
-0.0238725
-0.0230537
-0.0221682
-0.0211692
-0.0200268
-0.0187254
-0.0172618
-0.0156411
-0.0138736
-0.011971
-0.00995431
-0.00788178
-0.00574828
-0.0332217
-0.0313797
-0.0293512
-0.027516
-0.0259408
-0.0245642
-0.0233526
-0.022286
-0.0213451
-0.0205078
-0.0197442
-0.0190052
-0.0182333
-0.0173839
-0.0164282
-0.0153523
-0.0141528
-0.0128336
-0.0114014
-0.00986345
-0.00823359
-0.00655553
-0.00482452
-0.0283354
-0.0267255
-0.0249574
-0.0233534
-0.0219504
-0.0206893
-0.0195455
-0.0185126
-0.0175901
-0.0167789
-0.0160719
-0.0154208
-0.0147585
-0.0140391
-0.0132377
-0.012344
-0.0113577
-0.0102833
-0.0091267
-0.00789248
-0.00658934
-0.00524985
-0.00387014
-0.0237766
-0.022395
-0.020879
-0.0195004
-0.0182715
-0.0171339
-0.0160683
-0.0150789
-0.0141838
-0.0134099
-0.0127861
-0.0122526
-0.011716
-0.0111273
-0.0104669
-0.00973194
-0.0089271
-0.00805954
-0.00713559
-0.00615862
-0.00513395
-0.00408553
-0.00301033
-0.0194663
-0.0183038
-0.0170282
-0.0158703
-0.014819
-0.0138133
-0.0128354
-0.0118964
-0.0110318
-0.0103008
-0.0098018
-0.00943889
-0.00906016
-0.00861571
-0.00809699
-0.00751184
-0.00687211
-0.00618863
-0.00546879
-0.00471548
-0.0039316
-0.00313412
-0.00232044
-0.0153148
-0.0143583
-0.0133134
-0.0123803
-0.0115179
-0.0106561
-0.00977339
-0.00888072
-0.00802527
-0.0073113
-0.00701623
-0.0069269
-0.00675536
-0.0064725
-0.00609867
-0.00565977
-0.0051765
-0.00466345
-0.00412881
-0.00357479
-0.00300203
-0.00242129
-0.00183039
-0.0112202
-0.0104696
-0.00966697
-0.00898593
-0.00833446
-0.00762533
-0.00682646
-0.00592775
-0.00495225
-0.00407613
-0.00417947
-0.00465724
-0.00479672
-0.00468577
-0.0044471
-0.00414442
-0.00380758
-0.00345306
-0.00308815
-0.00271322
-0.00232616
-0.0019317
-0.00152884
-0.00707019
-0.00658907
-0.00609492
-0.00572282
-0.00530559
-0.00474275
-0.00398863
-0.00297507
-0.00159113
1.01534e-05
-0.000761054
-0.00251844
-0.00315636
-0.003214
-0.00308658
-0.00290565
-0.00270724
-0.00250492
-0.0023016
-0.00209348
-0.00187464
-0.00164272
-0.00138911
-0.00290796
-0.00264813
-0.00247932
-0.00237715
-0.00218636
-0.001835
-0.00127912
-0.000412449
0.00105091
0.00332901
0.00308571
-3.30438e-05
-0.00111284
-0.00141509
-0.00152143
-0.00159108
-0.00165891
-0.00173111
-0.00180149
-0.0018579
-0.00188703
-0.00187786
-0.00181682
861.473
849.227
834.108
812.047
848.028
839.446
830.034
817.061
783.181
778.4
684.335
586.268
372.865
288.845
180.225
174.151
393.472
264.688
209.406
327.009
385.565
306.599
268.106
320.568
50.848
15.8169
1.1397
5.69994
4.48263
4.59432
1.37299
0.701459
16.5096
14.5413
1.21532
0.431532
11.1448
0.192833
0.236585
0.30715
0.171855
0.183243
0.168113
0.153656
0.134548
0.136314
0.13471
0.133564
0.105807
0.111276
0.114887
0.118168
0.0809268
0.0895076
0.0970905
0.104221
0.0624609
0.0735597
0.0842991
0.0942479
0.0499813
0.0627189
0.0756124
0.0874231
0.0419825
0.0556031
0.0697221
0.0825246
0.036545
0.0503493
0.0649204
0.0780855
0.0323711
0.0458108
0.0601945
0.0731942
0.0287474
0.0414593
0.055202
0.0676318
0.0254084
0.0371698
0.0499556
0.0615104
0.0223102
0.0329896
0.0446056
0.0550713
0.0194121
0.0289404
0.0392708
0.0485365
0.0165787
0.0249471
0.0339821
0.0420522
0.0136254
0.0208902
0.0287214
0.0357041
0.0104418
0.0167135
0.023501
0.0295687
0.00708504
0.0125006
0.018423
0.0237575
0.00378002
0.00847052
0.0136796
0.0184254
0.000831002
0.00490092
0.00949684
0.0137388
-0.0014958
0.00202579
0.00605927
0.00982736
-0.00305695
-3.63787e-05
0.00345463
0.00674648
-0.00385545
-0.00130105
0.00165944
0.00446591
-0.00401341
-0.00189175
0.00055852
0.00288237
-0.00371959
-0.00199273
-1.71229e-05
0.00184719
-0.00317568
-0.00180023
-0.000249458
0.00119813
-0.00255596
-0.00148525
-0.000300538
0.000786819
-0.00198697
-0.00117399
-0.000293931
0.000495767
-0.00154557
-0.000945404
-0.000310779
0.000243849
-0.00126509
-0.000836532
-0.000392565
-1.26727e-05
-0.00114927
-0.000859101
-0.00055531
-0.000287728
-0.00112457
-0.000924234
-0.000711226
-0.000514705
-0.00168997
-0.00158395
-0.0014605
-0.00132926
752.445
720.808
418.595
206.112
228.029
392.641
546.58
381.304
117.057
265.28
365.334
358.569
238.02
99.261
107.993
137.872
205.136
208.85
144.624
784.506
673.071
293.33
187.382
177.424
260.359
539.834
273.301
69.2905
84.2051
309.602
384.226
218.775
83.3792
96.4868
193.661
208.446
215.521
138.739
396.842
215.949
174.081
178.207
171.893
286.214
194.824
81.1738
51.9412
54.0755
58.7817
137.244
143.527
67.5804
85.494
205.667
214.576
222.179
134.656
174.421
170.522
171.05
204.758
338.627
233.956
37.337
38.0037
46.309
46.4293
40.3942
39.1958
35.2122
40.43
161.755
212.312
221.264
228.972
220.283
330.129
341.616
366.772
365.152
355.262
87.3077
33.0288
34.4197
68.3374
78.7819
64.0408
33.1099
29.503
27.646
178.761
223.766
229.897
235.602
242.345
330.922
294.725
255.774
269.376
115.37
27.8215
30.3421
31.684
75.6892
78.167
78.6596
70.4664
24.0403
20.2351
109.221
156.873
119.599
232.589
249.329
0.436494
1.09261
4.57368
8.63557
12.7586
26.6209
31.6029
34.2789
35.3959
54.1431
78.2959
77.0831
48.4258
13.9245
16.716
17.2253
12.8391
157.638
260.305
1.03262
2.11121
8.40099
9.36378
13.7265
25.4687
24.5629
1.72444
0.38232
0.511445
0.50657
16.7334
26.8323
12.0068
1.22738
1.72138
3.26118
90.6925
280.096
0.859997
1.22547
0.151679
0.186095
1.0533
3.09975
3.27938
0.322431
0.348446
0.437321
0.522878
0.368508
1.66241
2.41846
0.825441
0.949648
2.40234
10.3319
34.889
0.138817
0.140854
0.167345
0.185204
0.194655
0.20346
0.218701
0.245069
0.311982
1.29645
1.76707
1.5355
0.233938
0.281243
0.463193
0.421311
0.638706
0.211925
0.225571
0.144592
0.149504
0.162146
0.193174
0.220112
0.220763
0.199197
0.199478
0.345177
1.27709
1.47029
0.453728
0.189476
0.253707
0.338045
0.398039
0.387071
0.316934
0.286334
0.135741
0.145396
0.157206
0.216918
0.242036
0.24546
0.220567
0.179408
0.165185
0.143328
0.137885
0.149493
0.189948
0.239062
0.442976
0.850013
0.843852
0.591719
0.320428
0.125901
0.139548
0.151845
0.178487
0.242147
0.245885
0.20174
0.177859
0.169165
0.15793
0.154394
0.1641
0.293788
0.794376
0.885506
0.897911
0.894297
0.49191
0.270507
0.116627
0.133643
0.148132
0.159142
0.194228
0.252729
0.220981
0.184507
0.177798
0.171614
0.169917
0.262851
0.845916
0.873673
0.88883
0.795295
0.307806
0.31773
0.40103
0.109615
0.128674
0.144895
0.157756
0.193563
0.258148
0.262575
0.264593
0.200529
0.181457
0.172857
0.242353
0.6434
0.748837
0.392202
0.232986
0.275233
0.526957
0.602559
0.104475
0.124355
0.141355
0.155123
0.177075
0.250663
0.264646
0.266385
0.265767
0.228404
0.169498
0.174606
0.170311
0.15367
0.143535
0.147291
0.274521
0.595123
0.595653
0.100155
0.119865
0.136733
0.150459
0.160324
0.165795
0.20622
0.257776
0.260323
0.224501
0.161011
0.151453
0.139517
0.130633
0.125814
0.12165
0.116537
0.274206
0.588496
0.0955977
0.114484
0.130606
0.143671
0.153138
0.15884
0.161098
0.160189
0.15909
0.161308
0.154812
0.140345
0.128055
0.121164
0.110037
0.10008
0.0929852
0.210926
0.585674
0.0901217
0.107835
0.122891
0.135044
0.143816
0.149081
0.15108
0.151722
0.14862
0.141164
0.133452
0.127046
0.117521
0.106894
0.0943007
0.0818942
0.0809713
0.505039
0.588479
0.0835822
0.099902
0.113752
0.124892
0.132878
0.137605
0.139156
0.139609
0.13743
0.130227
0.119141
0.109241
0.0998373
0.0890322
0.0773659
0.0676635
0.0672599
0.582131
0.596921
0.0761849
0.0909725
0.103556
0.113691
0.120914
0.125133
0.126383
0.124783
0.122744
0.117785
0.10699
0.0965889
0.0864926
0.0766101
0.0672965
0.0583021
0.0493822
0.325134
0.607803
0.0682713
0.0814735
0.0927843
0.101959
0.108513
0.11233
0.113422
0.111893
0.108394
0.102692
0.0953695
0.0864552
0.0770704
0.0684576
0.0606986
0.053875
0.0483361
0.0461816
0.295255
0.0601802
0.0718272
0.0819114
0.0901911
0.0961674
0.0997015
0.100785
0.0995
0.0960905
0.0913207
0.084851
0.0770255
0.0693969
0.0624515
0.0566996
0.0527179
0.0517377
0.0689028
0.137294
0.0521848
0.06238
0.071323
0.078781
0.0842588
0.0876012
0.0887878
0.087888
0.08509
0.080784
0.0755313
0.0694538
0.0632588
0.0579423
0.0540732
0.0523926
0.0542415
0.395567
0.523057
0.0444831
0.0533839
0.0612959
0.0680062
0.0730455
0.0762555
0.0776091
0.0771653
0.0750978
0.0717081
0.0674106
0.0627069
0.0581624
0.0543988
0.0520539
0.0518218
0.0545369
0.528921
0.541519
0.0372182
0.045009
0.0520111
0.0580462
0.0626923
0.0658021
0.0673477
0.0673822
0.0660606
0.0636472
0.0605071
0.0570884
0.053905
0.0515145
0.0504715
0.0513062
0.0545139
0.509057
0.559162
0.0305064
0.0373674
0.0435796
0.0490104
0.0533008
0.0563252
0.0580615
0.058559
0.057951
0.0564641
0.054413
0.0521884
0.050242
0.0490739
0.0491953
0.0511255
0.055462
0.466658
0.488786
0.0244537
0.0305351
0.0360628
0.040956
0.0449237
0.0478676
0.049776
0.0506931
0.0507317
0.050082
0.0490081
0.0478409
0.046969
0.0468341
0.0479138
0.0507117
0.136961
0.569344
0.386282
0.019152
0.0245586
0.0294845
0.0338965
0.037568
0.0404276
0.0424745
0.0437484
0.0443428
0.0444127
0.0441734
0.0438959
0.0439045
0.0445772
0.0463285
0.0495135
0.18312
0.589648
0.395948
0.0146617
0.0194535
0.0238338
0.0278052
0.0311956
0.0339562
0.0360955
0.0376492
0.0386931
0.0393496
0.0397885
0.0402241
0.0409131
0.0421845
0.0444121
0.0479353
0.131864
0.610319
0.378701
0.010995
0.015199
0.0190667
0.0226209
0.0257312
0.0283659
0.0305402
0.0322866
0.0336657
0.034772
0.0357294
0.0366887
0.0378611
0.0395458
0.0420821
0.0459573
0.180959
0.627911
0.270617
0.00810949
0.011737
0.0151094
0.0182551
0.0210738
0.0235456
0.0256895
0.0275361
0.0291343
0.0305531
0.0318679
0.0331837
0.0346816
0.0365248
0.0390365
0.0425785
0.433804
0.640539
0.238812
0.00591462
0.00897631
0.0118644
0.0146025
0.0171104
0.019376
0.0214203
0.0232739
0.0249799
0.0265854
0.0281285
0.0296724
0.0313123
0.0331112
0.035235
0.037718
0.551466
0.651047
0.162886
0.0042873
0.0068041
0.00922128
0.0115514
0.0137276
0.0157422
0.0176175
0.019388
0.0210994
0.0227902
0.0244684
0.026149
0.0278249
0.0295202
0.031282
0.0328583
0.423137
0.336097
0.0688617
0.00309257
0.00510042
0.00706789
0.00899436
0.0108214
0.012543
0.0141822
0.0157827
0.0174145
0.0191081
0.0208505
0.0226132
0.0243769
0.0261791
0.0277618
0.029413
0.105674
0.120803
0.0639627
0.00220332
0.00375318
0.00530274
0.0068383
0.00830599
0.00969761
0.0110352
0.0123742
0.0138271
0.0154616
0.0172217
0.0190697
0.0237452
0.0288106
0.0318778
0.0435317
0.0349295
0.0403646
0.0516199
0.00151416
0.00266905
0.00384335
0.00501104
0.0061186
0.00715044
0.0081214
0.0090969
0.0102746
0.0118027
0.0135521
0.0177891
0.0346138
0.0376791
0.0397381
0.0394193
0.0295719
0.0372415
0.0470048
0.000949137
0.00178133
0.00263401
0.00346928
0.00422893
0.00488203
0.00542262
0.00591043
0.00671373
0.00813169
0.00984605
0.0199517
0.0324323
0.0343752
0.0365374
0.0311837
0.0252974
0.0330338
0.0418987
0.000468507
0.00106067
0.00165872
0.00221445
0.0026606
0.00293746
0.00297916
0.00274895
0.00295435
0.00434111
0.00640103
0.0115172
0.0156393
0.0182894
0.0195477
0.0182171
0.0209615
0.0279736
0.0360534
7.61916e-05
0.000523057
0.00095052
0.00130523
0.00151012
0.00144579
0.00083594
-0.000771813
-0.0018831
-0.000117253
0.0021639
0.00402115
0.0060051
0.0079949
0.0100518
0.0124217
0.0159353
0.0220565
0.0292368
-0.000234148
0.000152397
0.000507067
0.00076779
0.000852182
0.000527925
-0.00104911
-0.00556637
-0.00909328
-0.00580778
-0.00276812
-0.000253136
0.00206315
0.00425711
0.00628581
0.0081633
0.010432
0.01503
0.0209957
-0.00111136
-0.000756318
-0.000416041
-0.000158702
-8.78821e-05
-0.000545754
-0.00295315
-0.0113243
-0.0125303
-0.00792703
-0.00492548
-0.00275811
-0.000839422
0.000935933
0.00249773
0.00373571
0.00479481
0.00701128
0.0117852
)
;

boundaryField
{
    leftWall
    {
        type            fixedFluxPressure;
        gradient        uniform 0;
        value           nonuniform List<scalar> 
50
(
1147.87
1147.73
1148.28
1149.77
1152.25
1155.56
1159.79
1164.91
1174.28
1190.98
1211.49
1236.57
1264.88
1294.7
1014.69
137.402
1.25032
0.685304
0.393333
0.160728
-0.0272575
-0.138759
-0.187918
-0.205856
-0.208502
-0.202038
-0.190757
-0.177397
-0.163371
-0.149429
-0.135978
-0.123246
-0.111356
-0.100361
-0.0902475
-0.0809564
-0.0724038
-0.0645085
-0.057208
-0.0504605
-0.044236
-0.0385035
-0.0332217
-0.0283354
-0.0237766
-0.0194663
-0.0153148
-0.0112202
-0.00707019
-0.00290796
)
;
    }
    rightWall
    {
        type            fixedFluxPressure;
        gradient        uniform 0;
        value           nonuniform List<scalar> 
50
(
400.141
400.461
398.384
392.983
289.942
147.206
145.775
144.04
144.624
138.739
134.656
220.283
242.345
249.329
260.305
280.096
34.889
0.225571
0.286334
0.320428
0.270507
0.40103
0.602559
0.595653
0.588496
0.585674
0.588479
0.596921
0.607803
0.295255
0.137294
0.523057
0.541519
0.559162
0.488786
0.386282
0.395948
0.378701
0.270617
0.238812
0.162886
0.0688617
0.0639627
0.0516199
0.0470048
0.0418987
0.0360534
0.0292368
0.0209957
0.0117852
)
;
    }
    lowerWall
    {
        type            fixedFluxPressure;
        gradient        uniform 0;
        value           nonuniform List<scalar> 
62
(
1147.87
1144.74
1138.54
1129.33
1117.21
1102.78
1086.66
1069.64
1052.69
1036.79
1022.72
1010.82
1000.48
992.277
985.291
979.711
976.543
976.132
973.752
962.183
940.065
920.513
913.623
913.623
912.214
909.532
905.957
902.111
898.118
894.54
885.775
861.473
849.227
834.108
812.047
616.553
615.523
619.665
627.804
639.733
654.216
670.723
694.767
616.553
598.508
574.816
516.609
480.071
487.409
508.879
509.892
490.029
473.068
463.371
458.835
455.278
449.07
439.438
427.739
414.163
403.785
400.141
)
;
    }
    atmosphere
    {
        type            totalPressure;
        rho             rho;
        psi             none;
        gamma           1;
        p0              uniform 0;
        value           nonuniform List<scalar> 
46
(
0
0
0
0
0
0
0
0
0
-4.40984e-07
-1.55928e-05
-7.01643e-05
-0.000181067
-0.000346226
-0.000561148
-0.000817787
-0.00110364
-0.0014023
-0.00169437
-0.00195913
-0.00217678
-0.00233086
-0.00241111
-0.00241328
-0.00238081
-0.00231175
-0.00220718
-0.00198694
-0.001638
-0.00126545
-0.00089706
-0.000568096
-0.000310156
-0.000135206
-2.33227e-05
0
0
0
0
0
0
0
0
0
0
0
)
;
    }
    defaultFaces
    {
        type            empty;
    }
}


// ************************************************************************* //
