/*--------------------------------*- C++ -*----------------------------------*\
| =========                 |                                                 |
| \\      /  F ield         | OpenFOAM: The Open Source CFD Toolbox           |
|  \\    /   O peration     | Version:  2.3.0                                 |
|   \\  /    A nd           | Web:      www.OpenFOAM.org                      |
|    \\/     M anipulation  |                                                 |
\*---------------------------------------------------------------------------*/
FoamFile
{
    version     2.0;
    format      ascii;
    class       volVectorField;
    location    "1.15";
    object      U;
}
// * * * * * * * * * * * * * * * * * * * * * * * * * * * * * * * * * * * * * //

dimensions      [0 1 -1 0 0 0 0];

internalField   nonuniform List<vector> 
2268
(
(0.026279 -0.0140077 0)
(0.0549331 -0.00428945 0)
(0.0563937 0.000690436 0)
(0.054308 0.00205165 0)
(0.0510226 0.00219601 0)
(0.0476456 0.00204891 0)
(0.0445617 0.00188118 0)
(0.0407992 0.00187718 0)
(0.0346428 0.00274588 0)
(0.0236849 0.00450091 0)
(0.00508987 0.00721477 0)
(-0.0224464 0.0103031 0)
(-0.0594313 0.0139019 0)
(-0.105636 0.0161205 0)
(-0.155275 0.0155908 0)
(-0.196718 0.0100358 0)
(-0.212241 -0.00177044 0)
(-0.185767 -0.0167073 0)
(-0.124649 -0.02882 0)
(-0.0440801 -0.0333519 0)
(0.0328386 -0.0273652 0)
(0.0819345 -0.00297337 0)
(0.0650374 0.0194653 0)
(0.0146554 -0.0282435 0)
(0.0342526 -0.00897464 0)
(0.0353541 -0.000955028 0)
(0.0358327 0.00155885 0)
(0.0349234 0.00196326 0)
(0.0341867 0.00190004 0)
(0.0331799 0.0021923 0)
(0.0304321 0.00349712 0)
(0.0240111 0.00652603 0)
(0.0116189 0.011376 0)
(-0.00917014 0.0177862 0)
(-0.0397847 0.024786 0)
(-0.0798303 0.0316768 0)
(-0.127023 0.0355401 0)
(-0.174506 0.0327945 0)
(-0.209591 0.0198882 0)
(-0.219329 -0.00305297 0)
(-0.199169 -0.030089 0)
(-0.149711 -0.051871 0)
(-0.0825215 -0.0592279 0)
(-0.0156978 -0.0470577 0)
(0.0321688 -0.00886257 0)
(0.0515494 0.0455307 0)
(0.00617917 -0.0363981 0)
(0.0209307 -0.0118093 0)
(0.0223581 -0.00189685 0)
(0.0246323 0.00124691 0)
(0.0257965 0.00179376 0)
(0.0268025 0.00187942 0)
(0.0268249 0.00281385 0)
(0.0243127 0.00557818 0)
(0.0173614 0.0109531 0)
(0.00391309 0.019085 0)
(-0.0180307 0.0294945 0)
(-0.0494848 0.0406601 0)
(-0.0895931 0.0507696 0)
(-0.135475 0.0557809 0)
(-0.180808 0.0501701 0)
(-0.214957 0.029542 0)
(-0.227078 -0.00444014 0)
(-0.211757 -0.0433622 0)
(-0.169955 -0.0749753 0)
(-0.111524 -0.0863684 0)
(-0.0515708 -0.071189 0)
(-0.00428426 -0.0243635 0)
(0.0223014 0.05666 0)
(0.000596451 -0.0410987 0)
(0.01147 -0.0143915 0)
(0.013657 -0.00348429 0)
(0.0173858 0.000115529 0)
(0.0202446 0.000904843 0)
(0.0225966 0.00139811 0)
(0.0233711 0.00330539 0)
(0.020973 0.00785726 0)
(0.0135258 0.0159096 0)
(-0.000883531 0.0275981 0)
(-0.0240084 0.0421898 0)
(-0.0565396 0.0575345 0)
(-0.0973708 0.0708278 0)
(-0.143563 0.0768883 0)
(-0.189202 0.0685951 0)
(-0.224427 0.0406542 0)
(-0.238885 -0.00431895 0)
(-0.227201 -0.0554996 0)
(-0.190541 -0.0971864 0)
(-0.137781 -0.112978 0)
(-0.0822149 -0.0960527 0)
(-0.0346798 -0.0415847 0)
(-0.0023908 0.053909 0)
(-0.00297532 -0.042768 0)
(0.00498228 -0.0166351 0)
(0.00801775 -0.00548722 0)
(0.0130139 -0.00171817 0)
(0.017415 -0.000649288 0)
(0.0210228 0.000449506 0)
(0.0225408 0.00360683 0)
(0.0202824 0.0102502 0)
(0.0123444 0.0212807 0)
(-0.00312428 0.0367766 0)
(-0.0277721 0.0557136 0)
(-0.0620459 0.0752589 0)
(-0.10464 0.0917449 0)
(-0.152675 0.0989139 0)
(-0.200392 0.0880431 0)
(-0.237797 0.0528053 0)
(-0.254262 -0.00307114 0)
(-0.244842 -0.0660907 0)
(-0.211547 -0.117457 0)
(-0.162524 -0.138048 0)
(-0.109879 -0.120536 0)
(-0.061473 -0.0618813 0)
(-0.0195788 0.039887 0)
(-0.0052691 -0.0426449 0)
(0.000948034 -0.0185594 0)
(0.00498612 -0.00789551 0)
(0.011226 -0.00419951 0)
(0.0171681 -0.00285264 0)
(0.0220672 -0.000982503 0)
(0.0243851 0.00368017 0)
(0.0222837 0.0127073 0)
(0.0137758 0.0270193 0)
(-0.00300042 0.0466031 0)
(-0.0296868 0.0701166 0)
(-0.0665058 0.0939831 0)
(-0.111909 0.113772 0)
(-0.163064 0.122177 0)
(-0.21412 0.108698 0)
(-0.254224 0.0658575 0)
(-0.271812 -0.000863994 0)
(-0.263574 -0.0750763 0)
(-0.232643 -0.136513 0)
(-0.185716 -0.161672 0)
(-0.135736 -0.144307 0)
(-0.0870532 -0.085226 0)
(-0.0338011 0.016626 0)
(-0.00647652 -0.0416147 0)
(-0.000897556 -0.0203172 0)
(0.00432185 -0.0108026 0)
(0.0119222 -0.00736338 0)
(0.0194662 -0.0057328 0)
(0.0257193 -0.00292302 0)
(0.0288724 0.00351471 0)
(0.0268859 0.0152584 0)
(0.0176338 0.0332294 0)
(-0.00080423 0.0572854 0)
(-0.0301208 0.085729 0)
(-0.0702636 0.114138 0)
(-0.119322 0.137418 0)
(-0.174488 0.147196 0)
(-0.229624 0.130905 0)
(-0.272415 0.0800421 0)
(-0.290729 0.00241626 0)
(-0.283585 -0.0838448 0)
(-0.253144 -0.155588 0)
(-0.207445 -0.18405 0)
(-0.159902 -0.16728 0)
(-0.112925 -0.110798 0)
(-0.0524754 -0.0121591 0)
(-0.00671334 -0.0402893 0)
(-0.000798831 -0.0223873 0)
(0.00576505 -0.0144071 0)
(0.0148329 -0.0113561 0)
(0.0240045 -0.00939327 0)
(0.0316195 -0.00542741 0)
(0.0355812 0.00313405 0)
(0.0336203 0.0180509 0)
(0.0234191 0.0402187 0)
(0.00296258 0.0693118 0)
(-0.0295215 0.103239 0)
(-0.0735576 0.136457 0)
(-0.126699 0.163326 0)
(-0.186158 0.174499 0)
(-0.245438 0.155119 0)
(-0.290353 0.0957104 0)
(-0.310455 0.00572326 0)
(-0.302353 -0.093849 0)
(-0.27133 -0.173851 0)
(-0.227642 -0.205655 0)
(-0.18122 -0.189644 0)
(-0.136 -0.139068 0)
(-0.0780739 -0.0687994 0)
(0.0684621 -0.0430717 0)
(0.135076 0.00813979 0)
(-0.00235366 0.0415372 0)
(-0.181179 0.045161 0)
(-0.292325 0.00585906 0)
(-0.248656 -0.031813 0)
(-0.121053 -0.0489673 0)
(0.0151199 -0.0412297 0)
(0.0908942 -0.0154036 0)
(0.0983442 -0.00233398 0)
(0.0987592 -0.00341849 0)
(0.111509 -0.00627838 0)
(0.127688 -0.00470253 0)
(0.132404 0.00167716 0)
(0.113841 0.00901339 0)
(0.0772865 0.0101727 0)
(0.0474697 0.00547645 0)
(0.0313752 -0.00128338 0)
(0.0416095 0.00972758 0)
(0.0152625 -0.06172 0)
(0.0710525 0.0323577 0)
(-0.0442993 0.0865214 0)
(-0.190206 0.0969929 0)
(-0.261223 0.0325829 0)
(-0.208844 -0.0527181 0)
(-0.0839191 -0.089759 0)
(0.0454868 -0.0677543 0)
(0.11118 -0.021186 0)
(0.119448 -0.00170457 0)
(0.116414 -0.0044738 0)
(0.125642 -0.0101941 0)
(0.136221 -0.00656272 0)
(0.135288 0.00472081 0)
(0.11823 0.017735 0)
(0.0855781 0.0220119 0)
(0.053988 0.0163537 0)
(0.0295935 0.00606464 0)
(0.0271257 0.0226292 0)
(-0.011931 -0.0695861 0)
(0.028283 0.0455049 0)
(-0.0438395 0.120038 0)
(-0.151712 0.137378 0)
(-0.216959 0.0382746 0)
(-0.161164 -0.0979247 0)
(-0.0533751 -0.147465 0)
(0.06381 -0.115854 0)
(0.137716 -0.0316562 0)
(0.140403 0.000673794 0)
(0.132886 -0.00442891 0)
(0.137536 -0.0131806 0)
(0.14241 -0.00698585 0)
(0.135715 0.00894778 0)
(0.116965 0.026888 0)
(0.0872176 0.0340845 0)
(0.0575127 0.0275993 0)
(0.0315174 0.0155825 0)
(0.00932532 0.0315195 0)
(-0.0214484 -0.0695829 0)
(0.0141483 0.0513293 0)
(-0.0252877 0.143458 0)
(-0.108131 0.180451 0)
(-0.167282 0.036569 0)
(-0.112372 -0.129127 0)
(-0.0293055 -0.187913 0)
(0.0657358 -0.157985 0)
(0.142268 -0.0568898 0)
(0.160385 0.00397607 0)
(0.150733 -0.00245756 0)
(0.151271 -0.0142818 0)
(0.150428 -0.00518972 0)
(0.137528 0.0152542 0)
(0.115833 0.0370005 0)
(0.0878114 0.0461735 0)
(0.0609984 0.0386258 0)
(0.0360385 0.0259202 0)
(0.00151828 0.0349199 0)
(-0.0197185 -0.0685905 0)
(0.0174335 0.0517062 0)
(-0.00408366 0.161063 0)
(-0.0688153 0.217396 0)
(-0.119567 0.0316132 0)
(-0.0672497 -0.152727 0)
(-0.00253109 -0.218926 0)
(0.074137 -0.188302 0)
(0.133592 -0.0793309 0)
(0.162459 -0.000231496 0)
(0.169371 0.000844237 0)
(0.168291 -0.0130164 0)
(0.161007 -0.00031661 0)
(0.140393 0.0242956 0)
(0.11372 0.0482232 0)
(0.0861268 0.0570398 0)
(0.0630745 0.0473554 0)
(0.0451158 0.0355832 0)
(0.0128786 0.0390725 0)
(-0.0118209 -0.0709253 0)
(0.0309579 0.0469347 0)
(0.0208944 0.172656 0)
(-0.022327 0.239892 0)
(-0.0647203 0.0259017 0)
(-0.0226414 -0.173638 0)
(0.0289967 -0.247159 0)
(0.0905382 -0.212964 0)
(0.12352 -0.0926326 0)
(0.145349 -0.0131339 0)
(0.176753 -0.00224571 0)
(0.192287 -0.00994799 0)
(0.17508 0.00830968 0)
(0.143257 0.0354584 0)
(0.108202 0.0589908 0)
(0.0782147 0.0668002 0)
(0.0554175 0.0572016 0)
(0.0570276 0.0469769 0)
(0.0595447 0.0774028 0)
(0.00173617 -0.0815861 0)
(0.0471059 0.0351015 0)
(0.0502922 0.176184 0)
(0.0380108 0.264326 0)
(0.000389563 0.0237374 0)
(0.0264078 -0.189429 0)
(0.0653423 -0.268738 0)
(0.111567 -0.229939 0)
(0.116085 -0.0977913 0)
(0.131113 -0.0253792 0)
(0.166613 -0.0227952 0)
(0.220069 -0.0158029 0)
(0.198536 0.0205141 0)
(0.146758 0.0480812 0)
(0.0933368 0.0711431 0)
(0.0461402 0.0832796 0)
(-0.0193472 0.0628276 0)
(0.043951 0.022373 0)
(0.0948741 0.115474 0)
(0.0307878 -0.0939965 0)
(0.0559162 0.0212612 0)
(0.0777719 0.171157 0)
(0.0968037 0.283296 0)
(0.0705057 0.0240155 0)
(0.08053 -0.197816 0)
(0.10613 -0.283219 0)
(0.134134 -0.241433 0)
(0.119871 -0.0970445 0)
(0.127271 -0.0335996 0)
(0.16023 -0.0443802 0)
(0.21615 -0.0316138 0)
(0.236429 0.0381046 0)
(0.154914 0.0742537 0)
(0.0453361 0.0995794 0)
(-0.0848611 0.122743 0)
(-0.0743412 0.0391871 0)
(0.0141989 -0.0160863 0)
(0.0704367 0.139884 0)
(-0.00577539 -0.0388799 0)
(0.00163851 -0.0266882 0)
(0.0102231 -0.0214599 0)
(0.0214128 -0.0192002 0)
(0.0328502 -0.0166021 0)
(0.0423483 -0.0104168 0)
(0.0473929 0.00214239 0)
(0.0453484 0.0229402 0)
(0.0335171 0.052827 0)
(0.00967214 0.0910421 0)
(-0.0281819 0.134802 0)
(-0.0784929 0.175915 0)
(-0.137602 0.208185 0)
(-0.20297 0.221107 0)
(-0.267767 0.196854 0)
(-0.31656 0.123002 0)
(-0.338978 0.00799297 0)
(-0.32492 -0.110948 0)
(-0.295886 -0.201206 0)
(-0.256639 -0.239587 0)
(-0.210994 -0.224135 0)
(-0.165872 -0.177329 0)
(-0.114312 -0.136189 0)
(-0.00277902 -0.0392304 0)
(0.00621066 -0.0343326 0)
(0.0158946 -0.0325782 0)
(0.0281171 -0.0315578 0)
(0.0406437 -0.0280709 0)
(0.0510473 -0.0184723 0)
(0.0566513 0.000332998 0)
(0.0545747 0.0305293 0)
(0.0414265 0.0730765 0)
(0.0146044 0.125247 0)
(-0.0295261 0.182842 0)
(-0.0866527 0.232921 0)
(-0.149517 0.270443 0)
(-0.216068 0.285687 0)
(-0.282378 0.256905 0)
(-0.333142 0.152857 0)
(-0.346514 0.00446547 0)
(-0.33574 -0.127189 0)
(-0.319123 -0.230218 0)
(-0.292138 -0.280591 0)
(-0.253867 -0.268768 0)
(-0.21049 -0.217953 0)
(-0.166909 -0.185596 0)
(-0.000194106 -0.0425045 0)
(0.00818032 -0.0431626 0)
(0.0170429 -0.0440851 0)
(0.028113 -0.0442446 0)
(0.0395463 -0.0399114 0)
(0.0490191 -0.0269196 0)
(0.0541829 -0.00175259 0)
(0.0523561 0.0378016 0)
(0.0383467 0.0916934 0)
(0.010475 0.154685 0)
(-0.0355785 0.226527 0)
(-0.0962141 0.28351 0)
(-0.155099 0.322585 0)
(-0.211184 0.339711 0)
(-0.263726 0.304896 0)
(-0.294461 0.167926 0)
(-0.294608 0.00535725 0)
(-0.301936 -0.133543 0)
(-0.31374 -0.243184 0)
(-0.314004 -0.302789 0)
(-0.298967 -0.303722 0)
(-0.262046 -0.255938 0)
(-0.216967 -0.224376 0)
(0.00015339 -0.0467687 0)
(0.00406488 -0.0502492 0)
(0.00950749 -0.0533888 0)
(0.0168792 -0.0547783 0)
(0.0245011 -0.0497737 0)
(0.0302211 -0.0340281 0)
(0.0321943 -0.00406307 0)
(0.0289746 0.0413693 0)
(0.019796 0.108112 0)
(-0.00567383 0.186133 0)
(-0.0442263 0.27778 0)
(-0.102792 0.335623 0)
(-0.151448 0.365144 0)
(-0.184174 0.381412 0)
(-0.189211 0.343149 0)
(-0.184349 0.179029 0)
(-0.177548 0.0186835 0)
(-0.207663 -0.109483 0)
(-0.26808 -0.229283 0)
(-0.312688 -0.304261 0)
(-0.327086 -0.320499 0)
(-0.307938 -0.29554 0)
(-0.267288 -0.266116 0)
(-0.00489129 -0.0484765 0)
(-0.00976361 -0.0517926 0)
(-0.00973697 -0.0569505 0)
(-0.00895388 -0.0590824 0)
(-0.00907147 -0.0529686 0)
(-0.0127384 -0.0343039 0)
(-0.0201588 -0.00055535 0)
(-0.0325056 0.0523701 0)
(-0.0497497 0.131256 0)
(-0.0687199 0.223653 0)
(-0.0733957 0.347354 0)
(-0.0947609 0.414019 0)
(-0.120461 0.423943 0)
(-0.1175 0.413812 0)
(-0.0673192 0.344427 0)
(-0.0156801 0.166853 0)
(-0.0185581 0.0295713 0)
(-0.0510487 -0.0377113 0)
(-0.136852 -0.163396 0)
(-0.273258 -0.268088 0)
(-0.331461 -0.316075 0)
(-0.322841 -0.31894 0)
(-0.289164 -0.3045 0)
(-0.0166629 -0.0281099 0)
(-0.030351 -0.0413178 0)
(-0.0383518 -0.0496052 0)
(-0.0483617 -0.0507747 0)
(-0.063041 -0.041344 0)
(-0.0850571 -0.0173165 0)
(-0.122043 0.0252068 0)
(-0.183545 0.0867164 0)
(-0.228387 0.154731 0)
(-0.249241 0.225641 0)
(-0.21743 0.335959 0)
(-0.188643 0.408862 0)
(-0.179371 0.417896 0)
(-0.151519 0.367623 0)
(-0.0904353 0.26311 0)
(-0.0520396 0.120587 0)
(-0.0157348 0.051602 0)
(-0.00787622 0.0276975 0)
(-0.00774085 0.00118471 0)
(-0.0341876 -0.059658 0)
(-0.275965 -0.278149 0)
(-0.313174 -0.33024 0)
(-0.292216 -0.329141 0)
(-0.0357017 0.00479024 0)
(-0.0507572 -0.0220297 0)
(-0.0725952 -0.0331444 0)
(-0.101984 -0.0306301 0)
(-0.149004 -0.0130583 0)
(-0.223679 0.0296256 0)
(-0.302188 0.0947479 0)
(-0.360253 0.146231 0)
(-0.399008 0.183156 0)
(-0.420199 0.226477 0)
(-0.419358 0.292781 0)
(-0.377393 0.355763 0)
(-0.335207 0.384755 0)
(-0.312017 0.309383 0)
(-0.270508 0.183716 0)
(-0.24099 0.087162 0)
(-0.220367 0.0230334 0)
(-0.169185 -0.0386324 0)
(-0.127709 -0.0853631 0)
(-0.0790361 -0.0523057 0)
(-0.0863904 0.00598273 0)
(-0.279839 -0.312828 0)
(-0.303495 -0.347249 0)
(-0.056142 0.0247779 0)
(-0.0668855 -0.0144839 0)
(-0.125418 -0.0180553 0)
(-0.211055 0.00965009 0)
(-0.34561 0.063714 0)
(-0.411018 0.104306 0)
(-0.44332 0.149269 0)
(-0.474622 0.187045 0)
(-0.504483 0.21019 0)
(-0.525515 0.235208 0)
(-0.529703 0.275669 0)
(-0.513021 0.318837 0)
(-0.467257 0.336047 0)
(-0.418513 0.255363 0)
(-0.384671 0.154198 0)
(-0.351689 0.0619422 0)
(-0.327152 -0.0169468 0)
(-0.290229 -0.0845945 0)
(-0.256545 -0.124217 0)
(-0.23617 -0.080158 0)
(-0.222667 0.034013 0)
(-0.265491 -0.1727 0)
(-0.291491 -0.359753 0)
(-0.109274 0.0916949 0)
(-0.152843 0.0400466 0)
(-0.314915 0.0896368 0)
(-0.486631 0.156994 0)
(-0.49957 0.145954 0)
(-0.503845 0.150432 0)
(-0.511742 0.179301 0)
(-0.527684 0.212519 0)
(-0.553171 0.232157 0)
(-0.571325 0.246477 0)
(-0.570207 0.270334 0)
(-0.549645 0.293366 0)
(-0.505097 0.287512 0)
(-0.447538 0.220959 0)
(-0.406523 0.127335 0)
(-0.373382 0.0412655 0)
(-0.343461 -0.0394437 0)
(-0.321103 -0.111441 0)
(-0.310557 -0.150333 0)
(-0.318197 -0.106741 0)
(-0.300686 -0.00650276 0)
(-0.271218 -0.217985 0)
(-0.271674 -0.365626 0)
(-0.143838 0.316866 0)
(-0.305519 0.302467 0)
(-0.476643 0.321938 0)
(-0.514016 0.231271 0)
(-0.510362 0.157808 0)
(-0.514744 0.142513 0)
(-0.525335 0.172347 0)
(-0.541474 0.218095 0)
(-0.571641 0.245184 0)
(-0.587072 0.245951 0)
(-0.58131 0.258679 0)
(-0.549332 0.272212 0)
(-0.492971 0.257931 0)
(-0.426047 0.19124 0)
(-0.374833 0.103969 0)
(-0.325398 0.0273079 0)
(-0.28583 -0.0489564 0)
(-0.285434 -0.10863 0)
(-0.322803 -0.136661 0)
(-0.364598 -0.0751252 0)
(-0.308708 -0.0390995 0)
(-0.245169 -0.193275 0)
(-0.236883 -0.368062 0)
(-0.124408 0.49231 0)
(-0.289392 0.457937 0)
(-0.39876 0.367935 0)
(-0.425189 0.234799 0)
(-0.443297 0.141273 0)
(-0.495026 0.131042 0)
(-0.544948 0.187056 0)
(-0.554272 0.262927 0)
(-0.563069 0.289471 0)
(-0.56997 0.252322 0)
(-0.566155 0.231147 0)
(-0.532488 0.221094 0)
(-0.468827 0.194852 0)
(-0.403929 0.127391 0)
(-0.364021 0.0427762 0)
(-0.383394 -0.0556339 0)
(-0.377218 -0.0964649 0)
(-0.373861 -0.100357 0)
(-0.374253 -0.100661 0)
(-0.355847 -0.0989922 0)
(-0.294408 -0.121325 0)
(-0.236859 -0.228125 0)
(-0.210609 -0.361121 0)
(-0.0759285 0.637511 0)
(-0.163296 0.569052 0)
(-0.237654 0.410412 0)
(-0.279689 0.248893 0)
(-0.337871 0.167288 0)
(-0.393259 0.214181 0)
(-0.439128 0.236794 0)
(-0.458839 0.270517 0)
(-0.464092 0.283598 0)
(-0.465134 0.254988 0)
(-0.462664 0.204054 0)
(-0.447372 0.143988 0)
(-0.420001 0.0888974 0)
(-0.391097 0.0437303 0)
(-0.366944 0.00879352 0)
(-0.357183 -0.0339272 0)
(-0.352766 -0.0753778 0)
(-0.347353 -0.10374 0)
(-0.335276 -0.125387 0)
(-0.30791 -0.147031 0)
(-0.262503 -0.188494 0)
(-0.22591 -0.270173 0)
(-0.218416 -0.354379 0)
(-0.0225866 0.710884 0)
(-0.032926 0.629381 0)
(-0.0696663 0.468911 0)
(-0.123657 0.31707 0)
(-0.196652 0.267394 0)
(-0.259556 0.263143 0)
(-0.299867 0.265619 0)
(-0.320545 0.27654 0)
(-0.324542 0.276834 0)
(-0.32171 0.25187 0)
(-0.318149 0.208921 0)
(-0.311661 0.157303 0)
(-0.301755 0.105568 0)
(-0.290139 0.0583103 0)
(-0.277933 0.014339 0)
(-0.269044 -0.0342253 0)
(-0.263605 -0.0783578 0)
(-0.257273 -0.113991 0)
(-0.245733 -0.14492 0)
(-0.226152 -0.177474 0)
(-0.200085 -0.222022 0)
(-0.181865 -0.285039 0)
(-0.182289 -0.34966 0)
(0.0109151 0.70592 0)
(0.0390756 0.637045 0)
(0.0288446 0.512456 0)
(-0.0128125 0.395749 0)
(-0.0742219 0.331575 0)
(-0.125593 0.305633 0)
(-0.158963 0.294039 0)
(-0.176415 0.288219 0)
(-0.179134 0.275813 0)
(-0.174383 0.247445 0)
(-0.168967 0.205354 0)
(-0.164547 0.155438 0)
(-0.160667 0.103859 0)
(-0.156387 0.0540831 0)
(-0.151193 0.0067939 0)
(-0.146784 -0.0399828 0)
(-0.144119 -0.0831757 0)
(-0.140993 -0.121321 0)
(-0.135235 -0.156757 0)
(-0.126326 -0.193256 0)
(-0.116672 -0.235848 0)
(-0.113465 -0.287084 0)
(-0.122027 -0.339742 0)
(0.0265822 0.657364 0)
(0.0689295 0.617838 0)
(0.0757988 0.525087 0)
(0.057364 0.437293 0)
(0.0215075 0.37643 0)
(-0.0115612 0.340437 0)
(-0.0340976 0.316419 0)
(-0.0451698 0.297233 0)
(-0.0452989 0.274491 0)
(-0.039098 0.241859 0)
(-0.0319255 0.199478 0)
(-0.0265418 0.15084 0)
(-0.0233374 0.10025 0)
(-0.0214639 0.0507455 0)
(-0.0201761 0.00342491 0)
(-0.0197951 -0.0419291 0)
(-0.0208076 -0.0841226 0)
(-0.022269 -0.122839 0)
(-0.0233321 -0.159508 0)
(-0.0242259 -0.196328 0)
(-0.0268395 -0.235662 0)
(-0.0350283 -0.278566 0)
(-0.0516318 -0.322563 0)
(0.0336015 0.597201 0)
(0.0799608 0.589115 0)
(0.0981818 0.519415 0)
(0.100398 0.453229 0)
(0.0890345 0.400107 0)
(0.0754254 0.360249 0)
(0.066196 0.328403 0)
(0.0635802 0.30009 0)
(0.0677259 0.270163 0)
(0.076035 0.23454 0)
(0.0848981 0.19254 0)
(0.0918196 0.145978 0)
(0.0958947 0.0976451 0)
(0.0973696 0.0498628 0)
(0.0967808 0.00390282 0)
(0.0943395 -0.0397932 0)
(0.090022 -0.0806645 0)
(0.0842662 -0.118701 0)
(0.0773602 -0.154713 0)
(0.0689289 -0.189898 0)
(0.057704 -0.225438 0)
(0.0415373 -0.261919 0)
(0.0186785 -0.298771 0)
(0.0375771 0.534876 0)
(0.084417 0.555745 0)
(0.109905 0.501788 0)
(0.126047 0.449462 0)
(0.132802 0.403359 0)
(0.135675 0.363787 0)
(0.139092 0.3287 0)
(0.145174 0.295679 0)
(0.154364 0.261842 0)
(0.16533 0.224804 0)
(0.175859 0.18389 0)
(0.184114 0.139966 0)
(0.189163 0.0947046 0)
(0.190895 0.049749 0)
(0.189588 0.00625118 0)
(0.185568 -0.0351195 0)
(0.17904 -0.0739355 0)
(0.170281 -0.110189 0)
(0.159412 -0.1443 0)
(0.146139 -0.176887 0)
(0.129674 -0.208548 0)
(0.108735 -0.239683 0)
(0.0820816 -0.270433 0)
(0.0393494 0.471753 0)
(0.0856168 0.517976 0)
(0.116026 0.476095 0)
(0.140409 0.432408 0)
(0.15864 0.391749 0)
(0.173117 0.354218 0)
(0.186287 0.318913 0)
(0.199549 0.284569 0)
(0.213273 0.24964 0)
(0.226787 0.212832 0)
(0.238811 0.17372 0)
(0.248133 0.132768 0)
(0.254021 0.0909851 0)
(0.256264 0.0494875 0)
(0.254983 0.00919578 0)
(0.250472 -0.0292221 0)
(0.243009 -0.0653574 0)
(0.23283 -0.0991187 0)
(0.220036 -0.130661 0)
(0.204463 -0.160251 0)
(0.185641 -0.18816 0)
(0.162756 -0.214645 0)
(0.134824 -0.24003 0)
(0.0376657 0.410324 0)
(0.0832059 0.476414 0)
(0.117431 0.445355 0)
(0.146554 0.40772 0)
(0.171257 0.371151 0)
(0.192689 0.336078 0)
(0.212077 0.302065 0)
(0.230146 0.268406 0)
(0.247078 0.234275 0)
(0.262487 0.198995 0)
(0.275629 0.162353 0)
(0.285758 0.124641 0)
(0.292375 0.0865032 0)
(0.295296 0.0486997 0)
(0.294584 0.0119331 0)
(0.290468 -0.023213 0)
(0.283224 -0.0563388 0)
(0.273062 -0.0872683 0)
(0.260098 -0.115973 0)
(0.244272 -0.142488 0)
(0.225317 -0.16687 0)
(0.202682 -0.189239 0)
(0.175556 -0.209888 0)
(0.0324579 0.354224 0)
(0.0768684 0.432425 0)
(0.114017 0.411276 0)
(0.145991 0.378839 0)
(0.174071 0.345741 0)
(0.199086 0.313217 0)
(0.221715 0.281181 0)
(0.242328 0.249251 0)
(0.260977 0.216971 0)
(0.277412 0.183985 0)
(0.29119 0.150199 0)
(0.301862 0.115823 0)
(0.309116 0.08129 0)
(0.31283 0.0471327 0)
(0.313044 0.0138869 0)
(0.309934 -0.0179557 0)
(0.303733 -0.0480103 0)
(0.294623 -0.0760364 0)
(0.282727 -0.101878 0)
(0.268048 -0.125413 0)
(0.250444 -0.146544 0)
(0.229531 -0.165263 0)
(0.204649 -0.181756 0)
(0.0256387 0.306098 0)
(0.0678283 0.387825 0)
(0.106564 0.374958 0)
(0.140139 0.34761 0)
(0.169817 0.318003 0)
(0.196337 0.288213 0)
(0.220217 0.258537 0)
(0.241728 0.228843 0)
(0.260908 0.198897 0)
(0.27761 0.168516 0)
(0.291576 0.137673 0)
(0.302538 0.10653 0)
(0.310312 0.0753922 0)
(0.314826 0.0446516 0)
(0.316114 0.0147264 0)
(0.3143 -0.0139673 0)
(0.30957 -0.0410627 0)
(0.302072 -0.0662777 0)
(0.29192 -0.0893711 0)
(0.279152 -0.110114 0)
(0.263708 -0.128298 0)
(0.245322 -0.143805 0)
(0.223474 -0.156706 0)
(0.0194874 0.266479 0)
(0.0581873 0.344583 0)
(0.0968118 0.337738 0)
(0.130803 0.315315 0)
(0.160916 0.289405 0)
(0.187725 0.262599 0)
(0.211704 0.235535 0)
(0.233133 0.208311 0)
(0.252102 0.180859 0)
(0.268564 0.153115 0)
(0.282384 0.125101 0)
(0.293418 0.0969524 0)
(0.30156 0.0689058 0)
(0.306773 0.0412635 0)
(0.309084 0.0143657 0)
(0.308584 -0.0114278 0)
(0.30541 -0.0357709 0)
(0.29968 -0.0583579 0)
(0.291494 -0.0788939 0)
(0.280909 -0.0970804 0)
(0.267918 -0.112633 0)
(0.252346 -0.125352 0)
(0.233801 -0.135208 0)
(0.0151169 0.23407 0)
(0.049611 0.304237 0)
(0.0865542 0.301131 0)
(0.119786 0.283113 0)
(0.149419 0.260926 0)
(0.175756 0.237245 0)
(0.199196 0.212927 0)
(0.220031 0.188251 0)
(0.238405 0.163293 0)
(0.254347 0.138086 0)
(0.267817 0.112697 0)
(0.278749 0.0872592 0)
(0.287092 0.0619736 0)
(0.292834 0.0370913 0)
(0.296 0.0129019 0)
(0.296658 -0.0102758 0)
(0.294907 -0.0321159 0)
(0.290843 -0.0523026 0)
(0.284554 -0.0705106 0)
(0.276106 -0.0863999 0)
(0.265529 -0.0996391 0)
(0.25272 -0.109972 0)
(0.237401 -0.117299 0)
(0.0123939 0.207001 0)
(0.0427031 0.267585 0)
(0.0769077 0.266402 0)
(0.108419 0.252005 0)
(0.136836 0.233285 0)
(0.162171 0.212675 0)
(0.184701 0.191096 0)
(0.204684 0.168942 0)
(0.222282 0.146398 0)
(0.237574 0.123578 0)
(0.250577 0.100595 0)
(0.26128 0.0775935 0)
(0.269672 0.05476 0)
(0.27576 0.0323191 0)
(0.27957 0.0105298 0)
(0.281159 -0.0103175 0)
(0.280603 -0.0299154 0)
(0.27798 -0.0479462 0)
(0.273373 -0.0640704 0)
(0.266853 -0.0779272 0)
(0.258475 -0.0891607 0)
(0.248196 -0.0974824 0)
(0.235829 -0.102747 0)
(0.010686 0.183764 0)
(0.0372608 0.234785 0)
(0.0682538 0.234328 0)
(0.0974356 0.222718 0)
(0.124119 0.207015 0)
(0.148083 0.189242 0)
(0.169462 0.170265 0)
(0.188445 0.150522 0)
(0.205179 0.130267 0)
(0.219755 0.109671 0)
(0.232224 0.0888865 0)
(0.242608 0.0680756 0)
(0.250923 0.0474231 0)
(0.257191 0.0271417 0)
(0.261445 0.00747278 0)
(0.263735 -0.0113123 0)
(0.264127 -0.0289213 0)
(0.262691 -0.0450394 0)
(0.259503 -0.0593235 0)
(0.254642 -0.0714066 0)
(0.248182 -0.0809248 0)
(0.240122 -0.0875761 0)
(0.230356 -0.0911895 0)
(0.00946884 0.163417 0)
(0.032834 0.205638 0)
(0.0605711 0.205223 0)
(0.0871567 0.195673 0)
(0.111811 0.182466 0)
(0.134163 0.167191 0)
(0.154225 0.150588 0)
(0.172105 0.133084 0)
(0.18791 0.114957 0)
(0.201725 0.0964162 0)
(0.213609 0.0776395 0)
(0.223602 0.0588043 0)
(0.231738 0.0400999 0)
(0.23805 0.0217343 0)
(0.242575 0.00393957 0)
(0.245367 -0.0130256 0)
(0.246482 -0.0288806 0)
(0.24599 -0.0433163 0)
(0.243965 -0.0559929 0)
(0.240491 -0.0665464 0)
(0.235658 -0.0746167 0)
(0.229497 -0.0799014 0)
(0.221967 -0.0822187 0)
(0.00849359 0.145417 0)
(0.029084 0.179823 0)
(0.0537439 0.179094 0)
(0.0777046 0.171033 0)
(0.100208 0.15983 0)
(0.120812 0.146682 0)
(0.13944 0.13218 0)
(0.156128 0.116703 0)
(0.170943 0.100525 0)
(0.183946 0.0838637 0)
(0.195195 0.0669137 0)
(0.204735 0.0498625 0)
(0.212605 0.0329034 0)
(0.218847 0.016243 0)
(0.223503 0.000108162 0)
(0.226626 -0.0152525 0)
(0.228274 -0.0295661 0)
(0.228514 -0.0425312 0)
(0.227423 -0.0538153 0)
(0.225089 -0.0630637 0)
(0.221613 -0.0699276 0)
(0.217049 -0.0741129 0)
(0.211408 -0.0754379 0)
(0.00769594 0.129404 0)
(0.0258515 0.157002 0)
(0.047692 0.155789 0)
(0.0691261 0.148796 0)
(0.0894673 0.139183 0)
(0.108259 0.127812 0)
(0.125374 0.115132 0)
(0.140798 0.101454 0)
(0.154558 0.0870273 0)
(0.166695 0.072066 0)
(0.177254 0.0567673 0)
(0.186277 0.0413227 0)
(0.193806 0.0259271 0)
(0.199882 0.0107859 0)
(0.20455 -0.0038782 0)
(0.207865 -0.0178244 0)
(0.209885 -0.030787 0)
(0.210678 -0.0424729 0)
(0.210321 -0.0525598 0)
(0.208908 -0.0607061 0)
(0.206548 -0.0665783 0)
(0.203311 -0.0698963 0)
(0.199244 -0.0704856 0)
(0.00706926 0.115073 0)
(0.0230784 0.13684 0)
(0.0423669 0.135095 0)
(0.0614237 0.12888 0)
(0.0796521 0.120529 0)
(0.0966172 0.110632 0)
(0.112173 0.0995076 0)
(0.126276 0.0873993 0)
(0.138926 0.0745229 0)
(0.150143 0.0610783 0)
(0.159957 0.0472576 0)
(0.168405 0.0332506 0)
(0.175522 0.0192505 0)
(0.181348 0.00546009 0)
(0.18593 -0.00790298 0)
(0.189319 -0.0206041 0)
(0.191575 -0.0323865 0)
(0.192766 -0.0429656 0)
(0.192973 -0.052031 0)
(0.192291 -0.0592564 0)
(0.190834 -0.0643259 0)
(0.188684 -0.066976 0)
(0.185912 -0.0670438 0)
(0.00659499 0.102147 0)
(0.0207208 0.119027 0)
(0.0377097 0.116791 0)
(0.0545529 0.111168 0)
(0.0707495 0.103832 0)
(0.0859099 0.0951546 0)
(0.099893 0.0853448 0)
(0.112643 0.0745866 0)
(0.124143 0.0630611 0)
(0.134396 0.0509502 0)
(0.14342 0.0384366 0)
(0.15124 0.0257043 0)
(0.157885 0.012942 0)
(0.16339 0.000347347 0)
(0.167798 -0.0118681 0)
(0.17116 -0.0234783 0)
(0.173536 -0.0342345 0)
(0.174995 -0.0438621 0)
(0.175616 -0.0520637 0)
(0.175499 -0.0585291 0)
(0.174758 -0.0629607 0)
(0.173484 -0.0651128 0)
(0.171761 -0.0648361 0)
(0.00622915 0.090391 0)
(0.0187092 0.103278 0)
(0.033628 0.100666 0)
(0.048423 0.09553 0)
(0.0626896 0.0890266 0)
(0.0760981 0.0813591 0)
(0.0885273 0.072652 0)
(0.0999217 0.0630396 0)
(0.110255 0.0526736 0)
(0.119521 0.0417186 0)
(0.127723 0.0303463 0)
(0.134876 0.0187329 0)
(0.140999 0.00705987 0)
(0.146122 -0.00448225 0)
(0.150283 -0.0156913 0)
(0.153532 -0.0263504 0)
(0.155927 -0.0362197 0)
(0.157537 -0.0450359 0)
(0.158443 -0.0525145 0)
(0.158743 -0.0583623 0)
(0.158553 -0.0622995 0)
(0.157967 -0.0640976 0)
(0.15708 -0.063622 0)
(0.00591602 0.0796343 0)
(0.0169513 0.0893553 0)
(0.0300045 0.0865275 0)
(0.0429147 0.0818285 0)
(0.0553699 0.0760242 0)
(0.0671066 0.0691954 0)
(0.0780317 0.0614059 0)
(0.0880975 0.0527539 0)
(0.0972761 0.043369 0)
(0.105553 0.0334015 0)
(0.112921 0.0230137 0)
(0.119383 0.0123732 0)
(0.124948 0.00165193 0)
(0.129639 -0.00896909 0)
(0.133491 -0.0193004 0)
(0.136551 -0.029135 0)
(0.138877 -0.0382436 0)
(0.140537 -0.0463741 0)
(0.141611 -0.053256 0)
(0.142198 -0.0586119 0)
(0.14241 -0.0621793 0)
(0.142347 -0.0637462 0)
(0.142106 -0.0631917 0)
(0.00560563 0.0697756 0)
(0.0153538 0.0770667 0)
(0.0267211 0.074199 0)
(0.0379071 0.0699214 0)
(0.048683 0.0647164 0)
(0.0588512 0.0585856 0)
(0.0683487 0.0515541 0)
(0.0771401 0.0436971 0)
(0.0851998 0.0351302 0)
(0.0925085 0.0259953 0)
(0.09905 0.0164483 0)
(0.104813 0.00664823 0)
(0.109798 -0.00324434 0)
(0.114019 -0.0130627 0)
(0.11751 -0.0226316 0)
(0.120315 -0.0317554 0)
(0.122492 -0.0402164 0)
(0.12411 -0.0477743 0)
(0.125249 -0.0541717 0)
(0.126004 -0.0591467 0)
(0.126487 -0.0624529 0)
(0.126798 -0.0638933 0)
(0.127034 -0.0633596 0)
(0.00526411 0.0607673 0)
(0.0138431 0.0662635 0)
(0.0236833 0.0635187 0)
(0.0333026 0.0596604 0)
(0.0425416 0.0549783 0)
(0.0512609 0.0494299 0)
(0.0594263 0.0430203 0)
(0.0670172 0.0358131 0)
(0.0740139 0.0279183 0)
(0.0803949 0.0194765 0)
(0.0861336 0.0106428 0)
(0.0912044 0.00156792 0)
(0.0955951 -0.00760219 0)
(0.0993165 -0.0167208 0)
(0.1024 -0.0256281 0)
(0.104891 -0.0341421 0)
(0.10685 -0.0420567 0)
(0.108344 -0.0491428 0)
(0.109454 -0.0551556 0)
(0.110272 -0.0598472 0)
(0.110906 -0.0629861 0)
(0.111456 -0.0643891 0)
(0.11202 -0.0639586 0)
(0.00487575 0.0525959 0)
(0.0123781 0.0568274 0)
(0.0208375 0.0543338 0)
(0.0290462 0.0508938 0)
(0.0368952 0.0466744 0)
(0.0442931 0.041615 0)
(0.0512314 0.0357132 0)
(0.0577058 0.02903 0)
(0.0637063 0.021678 0)
(0.069212 0.0138061 0)
(0.0741833 0.00557692 0)
(0.0785749 -0.0028665 0)
(0.0823621 -0.0114015 0)
(0.0855553 -0.0199061 0)
(0.0881888 -0.028239 0)
(0.0903137 -0.0362324 0)
(0.0919915 -0.043691 0)
(0.0932911 -0.0503956 0)
(0.0942904 -0.0561121 0)
(0.0950789 -0.060605 0)
(0.0957589 -0.0636568 0)
(0.0964279 -0.0650968 0)
(0.0971824 -0.0648363 0)
(0.00444278 0.0452608 0)
(0.0109576 0.0486516 0)
(0.0181814 0.0464948 0)
(0.0251348 0.0434685 0)
(0.03174 0.0396661 0)
(0.0379425 0.0350231 0)
(0.0437568 0.0295366 0)
(0.0491972 0.0232704 0)
(0.0542686 0.0163472 0)
(0.0589547 0.00893666 0)
(0.0631974 0.00122474 0)
(0.0669206 -0.00665618 0)
(0.0700893 -0.0146218 0)
(0.0727212 -0.0225819 0)
(0.0748625 -0.0304165 0)
(0.0765729 -0.0379704 0)
(0.0779175 -0.0450559 0)
(0.0789645 -0.0514607 0)
(0.0797876 -0.0569589 0)
(0.0804699 -0.0613261 0)
(0.0811059 -0.0643571 0)
(0.0817886 -0.0658933 0)
(0.0826109 -0.0658536 0)
(0.00398859 0.0387454 0)
(0.00962839 0.041619 0)
(0.0157699 0.0398485 0)
(0.0216217 0.0372326 0)
(0.0271213 0.033819 0)
(0.0322437 0.0295428 0)
(0.037024 0.0244018 0)
(0.0414984 0.0184633 0)
(0.0456944 0.0118668 0)
(0.0496088 0.00482026 0)
(0.0531535 -0.002436 0)
(0.0562035 -0.00979247 0)
(0.0587195 -0.0172321 0)
(0.0607453 -0.0247066 0)
(0.0623508 -0.0321153 0)
(0.0636076 -0.0393093 0)
(0.0645826 -0.0461021 0)
(0.0653388 -0.0522833 0)
(0.0659412 -0.0576327 0)
(0.0664621 -0.0619348 0)
(0.0669852 -0.0649967 0)
(0.0675952 -0.0666715 0)
(0.0683792 -0.066885 0)
(0.00356584 0.0329788 0)
(0.0084934 0.0355845 0)
(0.0137174 0.0342371 0)
(0.0186142 0.032043 0)
(0.0231308 0.0290133 0)
(0.0272685 0.0250806 0)
(0.0310813 0.0202399 0)
(0.0346291 0.0145574 0)
(0.0379721 0.00819163 0)
(0.04114 0.0014141 0)
(0.0439927 -0.0054135 0)
(0.0463282 -0.0122407 0)
(0.0481228 -0.0191803 0)
(0.0494845 -0.0262305 0)
(0.0505173 -0.0332959 0)
(0.0513015 -0.0402182 0)
(0.0518969 -0.0468019 0)
(0.0523531 -0.0528334 0)
(0.0527192 -0.0580952 0)
(0.0530519 -0.0623806 0)
(0.0534195 -0.0655088 0)
(0.0538952 -0.0673453 0)
(0.0545565 -0.067823 0)
(0.00327579 0.0278057 0)
(0.00773008 0.0303732 0)
(0.0121977 0.0295101 0)
(0.016263 0.0277786 0)
(0.0198929 0.0251548 0)
(0.0231161 0.0215698 0)
(0.0259975 0.0170126 0)
(0.0286143 0.0115371 0)
(0.0310693 0.00530809 0)
(0.0334705 -0.00131269 0)
(0.0355805 -0.00768939 0)
(0.0370965 -0.013926 0)
(0.0380596 -0.0203925 0)
(0.0387006 -0.0271086 0)