/*--------------------------------*- C++ -*----------------------------------*\
| =========                 |                                                 |
| \\      /  F ield         | OpenFOAM: The Open Source CFD Toolbox           |
|  \\    /   O peration     | Version:  2.3.0                                 |
|   \\  /    A nd           | Web:      www.OpenFOAM.org                      |
|    \\/     M anipulation  |                                                 |
\*---------------------------------------------------------------------------*/
FoamFile
{
    version     2.0;
    format      ascii;
    class       volScalarField;
    location    "2.35";
    object      alpha.water;
}
// * * * * * * * * * * * * * * * * * * * * * * * * * * * * * * * * * * * * * //

dimensions      [0 0 0 0 0 0 0];

internalField   nonuniform List<scalar> 
2268
(
0.998234
0.998234
0.980399
0.979328
0.975968
0.991777
1
1
1
1
0.999998
0.999691
0.992591
0.990315
0.990561
0.99914
0.999844
0.999813
0.999662
0.999759
0.999801
0.999801
0.999801
0.979207
0.955659
0.910401
0.931345
0.985177
0.99982
1
1
1
1
0.999998
0.999626
0.993613
0.990315
0.99033
0.996277
0.99988
0.999706
0.999195
0.999234
0.999801
0.999801
0.999801
0.945687
0.884458
0.884458
0.888625
0.999995
1
1
1
0.999995
0.999984
0.999984
0.999985
0.999945
0.994532
0.990428
0.992562
0.999884
0.999887
0.999565
0.999231
0.999581
0.999801
0.999802
0.935551
0.904799
0.910743
0.890106
0.985574
1
1
0.999989
0.999933
0.999933
0.999987
0.99999
0.999992
0.999981
0.998046
0.997582
0.99974
0.999894
0.999887
0.999346
0.999568
0.999558
0.99975
0.979765
0.989597
0.980515
0.913096
0.900659
0.999999
1
0.999999
0.999931
0.999913
0.999942
0.999993
0.999996
0.999996
0.999996
0.999996
0.999994
0.99997
0.999912
0.998999
0.980925
0.970056
0.995737
0.992387
0.992432
0.991589
0.935912
0.896965
0.980173
0.999999
0.999998
0.999741
0.985002
0.976185
0.998894
0.999993
0.999926
0.999996
0.999996
0.998552
0.991027
0.982051
0.966858
0.950516
0.95051
0.987086
0.992455
0.992441
0.99242
0.985497
0.909202
0.930545
0.999998
0.999976
0.972045
0.904715
0.907194
0.993079
0.997962
0.999709
0.999929
0.999989
0.996135
0.967224
0.95079
0.950675
0.95051
0.950512
0.974887
0.992463
0.99246
0.984334
0.995393
0.989221
0.932514
0.999976
0.999955
0.973674
0.904715
0.909001
0.987983
0.993225
0.999922
0.999733
0.999952
0.997228
0.962449
0.951066
0.950738
0.958087
0.969026
0.977895
0.985182
0.985156
0.946245
0.970683
0.999099
0.999099
0.999088
0.999115
0.999119
0.999119
0.999119
0.999119
0.942608
0.881743
0.898241
0.881828
0.897015
0.935759
0.961181
0.944898
0.938438
0.945944
0.999067
0.999099
0.997984
0.995119
0.998172
0.999124
0.999119
0.999119
0.999119
0.910122
0.880882
0.880673
0.880191
0.880122
0.903404
0.970831
0.935743
0.935743
0.976595
0.999005
0.999067
0.993846
0.988592
0.988408
0.989217
0.994487
0.999117
0.999119
0.90568
0.880312
0.880197
0.880149
0.880105
0.88009
0.963772
0.935743
0.95111
0.998983
0.998987
0.999006
0.9985
0.9956
0.98887
0.971691
0.958642
0.984034
0.99911
0.957491
0.880386
0.880312
0.949982
0.901595
0.880105
0.933301
0.935953
0.950674
0.998975
0.998979
0.998987
0.998972
0.998898
0.998785
0.99875
0.945144
0.937043
0.973764
0.972873
0.881424
0.930879
0.980505
0.972562
0.889009
0.966278
0.951843
0.941593
0.99844
0.997585
0.998926
0.998898
0.998692
0.998753
0.998743
0.953487
0.93695
0.936307
0.935391
0.932524
0.942563
0.981004
0.983057
0.978858
0.983057
0.9946
0.942041
0.992137
0.997826
0.998812
0.991829
0.989147
0.997157
0.998551
0.981035
0.93695
0.949554
0.969503
0.982885
0.983012
0.983057
0.983057
0.983057
0.983057
0.994705
0.978149
0.99217
0.986805
0.975621
0.964278
0.98605
0.99772
0.998436
0.997919
0.98109
0.982378
0.982871
0.982981
0.983025
0.983043
0.983057
0.983043
0.973415
0.992463
0.9598
0.908974
0.970467
0.998881
0.997942
0.999955
0.99995
0.993682
0.912999
0.995481
0.987352
0.993663
0.999923
0.999923
0.999927
0.999916
0.98917
0.964885
0.971773
0.980057
0.98019
0.98433
0.813428
0.758528
0.782642
0.933178
0.998871
0.998881
0.985892
0.978739
0.974132
0.992841
0.996385
0.999103
0.999844
0.999922
0.999924
0.999916
0.999007
0.992024
0.986014
0.981962
0.98042
0.979411
0.971171
0.352032
0.253692
0.343374
0.551961
0.744756
0.866188
0.957084
0.987777
0.989889
0.992825
0.9102
0.873177
0.999458
0.999844
0.999905
0.999544
0.965904
0.792587
0.657161
0.643797
0.697242
0.621712
0.432568
0.0120403
0.00206119
0.0186117
0.0734276
0.206596
0.43349
0.659703
0.783558
0.760132
0.433368
0.241379
0.305134
0.675246
0.880106
0.919089
0.611565
0.186372
0.0577812
0.0309055
0.0257364
0.0626759
0.0857354
0.0535951
0.00208226
0.000704292
0.00259587
0.00271503
0.00164041
0.0058442
0.0582526
0.0960346
0.0871473
0.00421313
0.00078412
0.00058522
0.000551254
0.0430068
0.131781
0.12775
0.0342258
0.000731082
0.000895426
0.000905064
0.000921382
0.000911457
0.0008467
0.000320323
0.000143253
7.27392e-05
0.000559716
0.0008053
0.000897472
0.00072154
0.000242504
0.000400862
0.000609675
0.000577291
0.000553981
0.000532342
0.000529822
0.000531582
0.000530355
0.000531577
0.000559294
0.00204063
0.00184358
0.00107087
0.0008467
0.00083694
0.000132627
7.63281e-05
5.3843e-05
7.32968e-05
0.000171205
0.00106086
0.00113877
8.13225e-05
0.000118334
0.00045066
0.00121809
0.00175491
0.00114984
0.000689611
0.000578493
0.000531582
0.000553791
0.000871916
0.00280589
0.00289645
0.00299879
0.00215091
0.00113346
7.25667e-05
5.39778e-05
4.64977e-05
6.22098e-05
0.000684394
0.00101083
0.000602251
1.8791e-05
4.66978e-05
0.00046923
0.00162029
0.0018149
0.00192578
0.00194009
0.00197456
0.00113019
0.000988067
0.000805949
0.000830541
0.00178744
0.00306246
0.00337179
0.00338437
5.47608e-05
4.65936e-05
4.21653e-05
0.000179564
0.000878931
0.000918437
0.000249053
9.93448e-06
7.62215e-05
0.000186094
9.42109e-06
9.42069e-06
0.000431051
0.00145031
0.00199219
0.00222353
0.00222353
0.00214015
0.000813662
0.000825856
0.000896417
0.00244075
0.00338437
6.00733e-05
5.33195e-05
4.09229e-05
0.000160049
0.000775036
0.00025844
9.31419e-06
9.27063e-06
9.99513e-06
9.60536e-06
9.57723e-06
9.45051e-06
9.53383e-06
9.64374e-06
1.05486e-05
0.00105703
0.00205015
0.00218145
0.00224946
0.000845847
0.000872762
0.000900827
0.00338276
0.000896771
8.82448e-05
3.92637e-05
0.000128729
0.000106575
9.19869e-06
9.31578e-06
9.68425e-06
9.68856e-06
9.63603e-06
9.60646e-06
9.61757e-06
9.64614e-06
9.67023e-06
9.69544e-06
1.06235e-05
2.39808e-05
0.00134466
0.00236932
0.00110054
0.000901438
0.0009089
0.00279266
0.00103847
0.000159263
3.07354e-05
2.83361e-05
1.06019e-05
9.25442e-06
9.69243e-06
9.68917e-06
9.69476e-06
1.13926e-05
1.23146e-05
9.59412e-06
9.62509e-06
9.62107e-06
9.6507e-06
0.000148592
8.58032e-05
0.000106194
0.00143893
0.00430248
0.00194911
0.000986048
0.00365004
0.00104412
0.000226466
2.10514e-05
1.31551e-05
1.02865e-05
9.70314e-06
9.69012e-06
9.69024e-06
1.05127e-05
2.17487e-05
2.17566e-05
1.29141e-05
9.65365e-06
9.608e-06
2.37592e-05
0.000561542
0.000283807
0.000104003
0.000592576
0.00525006
0.00522543
0.00529247
0.00530412
0.00104507
0.000201515
1.44991e-05
1.13895e-05
9.94153e-06
9.74688e-06
9.70847e-06
1.09315e-05
2.17119e-05
2.17636e-05
2.1727e-05
2.05785e-05
9.70713e-06
9.8836e-06
0.000242784
0.000570471
0.000561542
0.000143922
0.000622254
0.00520567
0.00521211
0.00525257
0.00528987
0.00104519
0.000750001
2.91259e-05
1.13511e-05
1.05073e-05
9.99377e-06
1.40043e-05
2.16642e-05
2.17636e-05
2.18721e-05
2.18229e-05
1.34366e-05
1.04063e-05
1.11701e-05
0.000467159
0.000570471
0.000537781
0.000186954
0.00229528
0.0050763
0.00518727
0.00520283
0.0041868
0.00104519
0.00104519
0.000162084
1.37874e-05
1.12117e-05
1.05068e-05
2.09266e-05
2.18322e-05
2.18134e-05
2.20569e-05
1.35944e-05
1.2286e-05
1.15708e-05
1.42619e-05
0.000548079
0.000570471
0.000253296
0.000221353
0.00420915
0.00502887
0.00271889
0.00046364
0.000339875
0.000218279
0.000956079
0.000661126
4.44471e-05
1.358e-05
1.13723e-05
1.30616e-05
1.33269e-05
1.20728e-05
1.1866e-05
1.18755e-05
1.17735e-05
1.17966e-05
0.000379429
0.000542812
0.000493046
0.000190948
0.00143219
0.00418702
0.00299974
2.09974e-05
2.04141e-05
2.06306e-05
6.73837e-05
9.73681e-05
0.000618166
0.00027563
1.88834e-05
1.36414e-05
1.21089e-05
1.21381e-05
1.20187e-05
1.19412e-05
1.18755e-05
1.19799e-05
0.000254688
0.000636522
0.00054887
6.08521e-05
4.35078e-06
0.00209583
0.00360946
0.000959197
2.03744e-05
2.02758e-05
2.04445e-05
6.73837e-05
0.000110613
0.000350622
0.000355446
0.000265396
7.25041e-05
3.91151e-05
1.70442e-05
1.21711e-05
1.20187e-05
1.21621e-05
0.000185838
0.00074975
0.000654863
4.52316e-05
5.91679e-07
2.74538e-06
0.000405608
0.000137493
0.00146422
0.00024484
2.02887e-05
2.03365e-05
0.00157454
0.000653295
0.000254375
0.000249157
0.000294725
0.000312504
0.000221521
3.82202e-05
1.40344e-05
1.27561e-05
0.000336483
0.00074975
0.000739576
0.000172994
1.73397e-07
7.44556e-08
6.75855e-06
3.5296e-06
0.000123204
0.00147899
0.00129777
2.03168e-05
2.03017e-05
0.00303074
0.00303074
0.000526343
0.000235125
0.000245851
0.00054268
0.000752175
0.000512867
0.000294825
0.000660369
0.000813381
0.000660022
3.81584e-05
1.1707e-07
7.43352e-08
7.4455e-08
7.29311e-06
3.33968e-06
9.04716e-08
1.36509e-05
0.000903202
2.05445e-05
2.03094e-05
0.00303074
0.00302181
0.00109349
0.000231916
0.00106674
0.00154015
0.00154553
0.00153991
0.00152678
0.00102216
0.000256258
9.71579e-06
1.33394e-07
1.00808e-07
8.53662e-08
7.44163e-08
3.51579e-06
1.55091e-06
3.20543e-08
2.89103e-08
3.5487e-07
0.000211351
0.000189805
0.00302181
0.00286993
0.000731733
0.000235242
0.00153235
0.00154486
0.00154464
0.0013265
0.00069608
0.000111094
2.72199e-06
2.53918e-06
2.3837e-06
2.39927e-06
5.34913e-07
1.0113e-06
1.87241e-07
3.21568e-08
2.8906e-08
2.89103e-08
2.89091e-08
0.000166051
0.000188735
0.00268418
0.000426853
0.000636312
0.00082741
0.000732447
0.000279792
0.000444247
0.000152851
1.77312e-05
1.45029e-05
1.35318e-05
3.52137e-05
3.06778e-05
6.85233e-06
9.57567e-06
1.55505e-05
1.09047e-05
1.24265e-06
3.20948e-08
2.88815e-08
3.26979e-08
5.6075e-06
2.017e-05
0.001194
0.000269724
0.00036564
0.000890636
0.000260937
1.43872e-05
2.67684e-05
5.6052e-05
2.22843e-05
2.14256e-05
4.38491e-05
4.34518e-05
1.88027e-05
6.1158e-06
1.19943e-05
1.6748e-05
1.67134e-05
1.20443e-05
4.83661e-07
3.40474e-08
3.56298e-08
3.83802e-08
1.22316e-07
0.00278054
0.000269247
0.00028702
0.000890795
0.000199939
1.23673e-05
1.53499e-05
6.5048e-05
2.71716e-05
1.80226e-05
1.49846e-05
3.0034e-06
3.02935e-06
7.32662e-06
4.4382e-06
7.94585e-06
1.67507e-05
1.34383e-05
7.51217e-07
4.50548e-08
3.9746e-08
4.74641e-08
6.12645e-08
0.00281495
0.000269729
0.000270578
0.000881367
0.000107357
1.0181e-05
5.0143e-05
6.45155e-05
3.36553e-05
2.8499e-06
2.8667e-06
2.86874e-06
9.67348e-06
1.6761e-05
4.45463e-06
7.25789e-06
1.66343e-05
1.63217e-05
8.25256e-06
1.15592e-07
4.74678e-08
5.62546e-08
6.17037e-08
0.00282738
0.000366712
0.000287764
0.000783913
3.84378e-05
7.04001e-06
6.3283e-05
6.34423e-05
2.29309e-05
2.8633e-06
2.83958e-06
4.23077e-06
1.6761e-05
1.6761e-05
8.36109e-06
1.30485e-05
1.29718e-05
1.32986e-05
1.1397e-05
1.30749e-06
5.8254e-08
6.17036e-08
1.61586e-06
0.00282738
0.00223355
0.000252527
0.000672114
1.56183e-05
5.35435e-06
2.08804e-05
3.32977e-05
3.43371e-06
2.83968e-06
2.92978e-06
3.72788e-06
1.62182e-05
1.6761e-05
1.44646e-06
1.31165e-05
5.3891e-06
2.72527e-06
2.79353e-06
3.98844e-07
8.39483e-08
1.25147e-06
1.29432e-05
0.00282738
0.00218874
0.000240651
0.000433725
2.65082e-05
4.86668e-06
3.86525e-06
3.52365e-06
3.42067e-06
9.25316e-06
3.59194e-05
1.034e-05
8.25671e-06
1.48634e-05
1.1603e-06
1.29997e-05
7.50878e-06
4.82493e-07
4.40469e-07
4.18108e-07
4.96052e-06
1.31409e-05
1.36802e-05
0.00281711
0.000846775
0.000240008
0.000963184
4.45611e-05
4.0537e-06
3.71211e-06
3.50887e-06
3.52365e-06
8.54851e-05
0.000113046
2.13476e-05
4.64443e-06
3.70576e-06
1.15062e-06
8.01386e-06
1.34683e-05
7.74321e-06
6.04005e-06
1.0729e-05
1.35739e-05
1.34955e-05
1.16581e-05
0.00205654
0.00024593
0.000241096
0.000966711
0.000867591
2.55222e-05
3.8955e-06
3.71211e-06
1.18395e-05
0.000138299
9.49683e-05
2.76436e-05
7.33518e-05
1.15161e-05
7.0207e-07
6.51473e-07
1.36839e-05
1.36839e-05
1.36845e-05
1.36747e-05
1.36587e-05
6.83854e-06
6.9387e-07
0.000344756
0.000333823
0.000325737
0.000664472
0.000887702
0.000277731
8.43204e-06
8.83845e-06
8.36766e-05
0.000100973
0.000396183
0.000600487
0.0002914
1.19384e-06
9.87849e-08
3.09931e-08
6.523e-06
1.32797e-05
1.06982e-05
3.73982e-06
1.54273e-06
2.1978e-08
4.44845e-10
0.000491877
0.00100079
0.0010442
0.00101598
0.000700984
0.000544495
6.59574e-05
1.82096e-05
2.30907e-05
0.000346899
0.00198666
0.00187889
0.000271379
1.097e-06
2.59533e-08
3.62991e-10
1.60108e-11
1.48147e-11
1.40373e-11
1.44094e-11
6.89797e-11
3.64104e-11
1.68783e-11
0.000571109
0.00236441
0.00236441
0.00185194
0.000162345
0.000292122
6.9079e-05
2.30907e-05
0.000451335
0.00202703
0.00200685
0.00162028
0.000113443
1.80112e-07
2.94425e-09
2.33105e-11
1.70311e-11
1.54565e-11
1.39018e-11
1.24815e-11
8.61882e-12
1.00478e-11
1.06317e-11
3.81638e-05
0.000261014
0.00236441
0.0016477
1.40461e-05
1.58695e-05
1.87665e-05
0.00046728
0.00202703
0.00202703
0.00190475
0.000206476
2.52266e-07
1.03241e-07
3.87455e-11
3.18251e-10
3.19443e-10
5.66855e-11
6.40609e-11
4.97304e-11
7.21034e-12
9.35384e-12
9.39697e-12
1.1452e-05
1.4435e-07
0.000788747
0.00142555
1.3965e-05
1.40461e-05
1.50596e-05
0.00177978
0.00202069
0.0020193
9.94172e-05
1.38699e-08
4.40266e-09
2.39559e-11
6.21564e-12
5.44385e-10
2.18859e-09
1.7215e-10
9.4059e-11
8.73764e-11
5.04065e-12
5.95233e-12
5.33599e-12
1.22237e-07
1.22238e-07
1.13171e-06
0.00103183
1.3965e-05
1.3965e-05
0.00120909
0.00198483
0.00201435
0.000155628
1.04725e-05
1.45893e-10
2.52179e-11
5.95765e-12
5.15106e-12
7.6418e-10
3.86022e-09
4.67437e-10
9.03564e-11
1.05466e-10
2.88813e-12
3.18724e-12
2.29641e-12
1.22238e-07
6.61317e-07
4.35226e-05
0.000611167
1.3965e-05
0.00101654
0.00193973
0.00193196
0.000225471
4.0507e-05
1.9072e-13
5.05705e-13
3.79608e-12
7.22852e-12
2.67981e-12
9.06938e-10
3.93015e-09
5.3456e-10
5.01686e-11
5.57362e-11
1.41375e-12
1.31615e-12
7.36368e-13
4.71713e-07
7.10997e-06
2.5309e-06
0.000215527
0.00232845
0.00237613
0.00163101
1.19099e-05
1.01193e-05
1.57545e-05
1.07471e-13
4.11775e-13
4.48529e-12
4.67532e-12
2.65055e-12
2.57007e-10
3.48778e-09
2.91281e-10
1.51633e-11
2.1996e-11
5.42259e-13
3.4194e-13
1.18777e-13
7.1918e-07
7.15314e-06
1.63162e-06
2.46155e-06
0.000742324
0.00209606
1.56748e-16
5.30583e-08
5.95103e-06
3.70441e-06
1.05116e-13
3.89327e-13
2.36711e-12
2.35822e-12
6.43629e-13
2.89055e-11
6.33523e-10
5.35879e-11
1.15777e-12
3.15433e-13
1.44632e-13
3.7827e-14
1.03511e-14
6.01949e-08
2.28637e-06
2.30946e-06
1.81883e-06
2.3156e-13
0.000173943
5.72145e-27
5.51847e-23
6.81197e-23
1.22065e-20
1.05116e-13
2.47159e-13
8.75022e-15
2.78696e-16
2.10924e-14
1.33925e-14
8.78923e-17
3.47715e-15
7.19184e-14
9.12035e-14
1.09451e-14
1.00592e-15
5.91191e-16
0.990024
0.992977
0.993626
0.993988
0.953496
0.883229
0.822849
0.815095
0.386626
0.379711
0.374182
0.382601
0.0191218
0.000376465
0.000216432
0.000179402
0.0147586
0.0161991
0.00362756
0.000704766
0.000828469
0.00097881
0.00178803
0.00219957
0.000809443
0.000809351
0.000864102
0.00183014
0.00171241
0.000795873
0.000770322
0.000752145
0.00217779
0.000787031
0.000752193
0.000717249
0.00415957
0.00185085
0.000756873
0.000687557
0.00515197
0.00500974
0.00142071
0.000717249
0.00529833
0.00530209
0.00530533
0.00528588
0.00530159
0.00538815
0.00530209
0.00478222
0.0053848
0.00541186
0.00385904
0.00241621
0.00232152
0.00154175
0.000561449
0.000136096
8.16897e-05
5.0917e-05
5.03501e-05
5.00115e-05
2.07683e-05
2.5918e-05
3.13035e-05
3.88607e-05
2.01999e-05
1.82296e-05
2.43514e-05
3.36607e-05
2.06671e-05
2.00805e-05
2.05039e-05
5.18613e-05
2.03097e-05
2.02301e-05
2.07067e-05
8.3459e-05
2.01466e-05
2.00396e-05
2.01729e-05
3.07826e-05
0.00011523
3.87247e-05
2.05616e-05
1.95028e-05
0.000184688
0.000175968
0.000156862
0.000143111
6.46235e-05
7.23683e-05
8.04011e-05
0.000138498
3.44182e-07
6.16893e-07
1.29844e-06
1.20337e-05
1.38347e-07
3.45583e-07
5.83281e-07
1.59925e-07
3.06462e-07
1.15333e-06
8.72681e-07
1.00222e-07
1.27129e-05
1.35335e-05
6.81012e-06
5.33782e-08
1.36802e-05
1.35764e-05
1.02221e-05
3.37795e-07
1.36487e-05
1.1584e-05
2.48451e-06
5.67284e-09
6.02107e-06
1.09768e-06
6.67165e-09
4.64282e-10
2.45147e-08
9.437e-10
1.37098e-10
5.1452e-11
1.09753e-10
2.93831e-11
1.88862e-11
2.64443e-11
1.45392e-11
8.79204e-12
1.37135e-11
1.57672e-11
1.37112e-11
6.39081e-12
4.83864e-12
6.84397e-12
5.02598e-12
2.76183e-12
1.86728e-12
2.78985e-12
2.58625e-12
1.22851e-12
5.81046e-13
4.75356e-13
1.03226e-12
4.3825e-13
1.72052e-13
1.08538e-13
2.71069e-13
1.05261e-13
3.88425e-14
2.64072e-14
3.89565e-14
1.43311e-14
5.03455e-15
3.60642e-15
3.80752e-15
1.50076e-15
4.72024e-16
2.39216e-16
3.19306e-16
1.24663e-16
2.72503e-17
3.97466e-18
0.993993
0.992417
0.970694
0.891239
0.906844
0.950418
0.995478
0.997407
0.984557
0.943303
0.910931
0.890403
0.848623
0.763608
0.636758
0.507385
0.401288
0.301317
0.252522
0.829163
0.833262
0.834813
0.882912
0.914072
0.919576
0.895527
0.869729
0.673104
0.500719
0.336446
0.205243
0.0886893
0.0330497
0.0113815
0.00197869
0.000726795
0.000609261
0.000511234
0.396211
0.416258
0.459562
0.482531
0.437473
0.29223
0.187498
0.13043
0.137789
0.118976
0.0832516
0.0315813
0.00183596
0.00102847
0.00103755
0.00140298
0.000669455
0.000512372
0.000496616
0.000119887
9.77519e-05
9.60236e-05
9.62851e-05
9.60236e-05
0.000101704
0.00012836
0.000153551
0.000164686
0.000182893
0.000225855
0.000363502
0.00104875
0.00102847
0.001453
0.00265588
0.00154014
0.000496616
0.000494883
0.00135684
0.000954882
0.000110179
9.60236e-05
0.000260028
0.00124451
0.00137293
0.00137528
0.000416272
0.000225855
0.000383113
0.00160725
0.00192982
0.00195576
0.00216561
0.00269337
0.00269038
0.000497532
0.000494883
0.00219918
0.00219951
0.000626448
0.000370377
0.00125932
0.00126515
0.000827864
0.000116861
8.00305e-05
0.000365022
0.00114223
0.00155169
0.000617515
0.000508463
0.000505677
0.0013852
0.00269337
0.00218153
0.000494883
0.00219964
0.00219918
0.000907523
3.98845e-05
0.000185468
6.96582e-05
2.81152e-05
1.23001e-05
1.55838e-05
0.000477892
0.000853859
0.00070723
0.000663779
0.000531794
0.000494759
0.000488922
0.00183849
0.00250951
0.000497814
0.00215008
0.0015593
0.000127825
2.66545e-05
1.87702e-05
1.51353e-05
1.28432e-05
1.15589e-05
1.1715e-05
1.24438e-05
1.27301e-05
1.83238e-05
0.000481641
0.000838572
0.000834477
0.000488922
0.000506652
0.00250819
0.00213087
0.00115924
0.000745491
4.0627e-05
3.49183e-05
0.000103184
0.000135122
3.21469e-05
1.15696e-05
1.15584e-05
1.15773e-05
1.17684e-05
1.26156e-05
0.000120474
0.000840472
0.000854275
0.00055567
0.000670017
0.00136198
0.00109543
0.000582477
6.16226e-05
5.17817e-05
0.000102023
0.000145545
0.000144288
9.06035e-05
1.15598e-05
1.15773e-05
1.17684e-05
1.26572e-05
1.7968e-05
2.25883e-05
0.000302787
0.000873784
0.000879489
0.000416008
0.000389646
0.000392263
0.00112575
6.3954e-05
6.20561e-05
0.000148324
0.0001469
0.000118515
3.01293e-05
2.86722e-05
8.96644e-05
0.000140192
0.000134621
3.98611e-05
2.6741e-05
2.18603e-05
0.000428719
0.000879489
0.000692919
0.000390496
0.000389481
0.00115752
7.33094e-05
7.23181e-05
0.000148256
0.000138167
8.9584e-05
9.08683e-05
0.00042258
0.000531488
0.00053364
0.0005325
0.000446593
7.85458e-05
1.59639e-05
1.01096e-05
0.000857385
0.000916449
0.000412242
0.000637488
0.000970195
7.03467e-05
0.000121257
0.000148243
0.0001183
0.000116349
0.000493279
0.000527669
0.000527737
0.000531443
0.000535556
0.000533397
0.000493164
5.14399e-05
7.00736e-06
9.97105e-06
0.000916449
0.000588986
0.00124719
0.000347045
6.54553e-05
8.72258e-05
0.000119793
0.000136586
0.000444249
0.000511088
0.000522143
0.000346749
0.000251046
0.000393913
0.000532849
0.00051422
0.000139058
7.62568e-07
5.0317e-07
0.000411184
0.00124727
0.00124719
6.27391e-05
6.19937e-05
6.54172e-05
0.000125812
0.000419783
0.000439821
0.00031192
3.1433e-05
3.08047e-06
1.66778e-06
1.28722e-06
0.000159895
0.000172867
3.66135e-05
3.90666e-07
3.57521e-07
2.40256e-06
0.00124712
0.00124719
4.98938e-05
5.79639e-05
6.69919e-05
0.000386971
0.000407284
0.000216964
1.03747e-05
7.08443e-06
3.75033e-06
1.40472e-06
6.99581e-07
3.94243e-07
3.69149e-07
3.62785e-07
3.54543e-07
3.51676e-07
3.51095e-07
0.000755375
0.00124712
4.48361e-05
5.07493e-05
0.000206032
0.000385036
0.000220508
2.31718e-05
1.75821e-05
1.34146e-05
2.02077e-05
2.48117e-05
7.9989e-06
4.59477e-07
3.62433e-07
3.53594e-07
3.52425e-07
3.5117e-07
3.51315e-07
0.000357036
0.00124597
4.17439e-05
4.58683e-05
0.000251009
0.000202121
2.0048e-05
2.42457e-05
2.31718e-05
0.000127314
0.000182426
8.05891e-05
1.19283e-06
4.48078e-07
3.58529e-07
3.52549e-07
3.50772e-07
3.50027e-07
3.49683e-07
0.00033113
0.00124002
4.53068e-05
0.000197436
0.000251009
8.49549e-05
1.67103e-05
2.00474e-05
0.000133563
0.000186113
0.000183221
6.69708e-05
7.09093e-07
3.79435e-07
3.53825e-07
3.50466e-07
3.49929e-07
3.48697e-07
3.48401e-07
0.000393531
0.0012024
0.000209617
0.000219057
0.000217343
2.20161e-05
1.34241e-05
6.33406e-05
0.000186113
0.000186113
0.000178916
1.54165e-05
6.90351e-07
3.80546e-07
3.52188e-07
3.50156e-07
3.49547e-07
3.49177e-07
3.48503e-07
0.000690557
0.00081279
0.000158078
0.000174545
5.00805e-05
3.77226e-06
7.3143e-06
0.000184341
0.000185167
0.000186113
5.20693e-05
1.84066e-05
1.49891e-05
5.39582e-07
4.4571e-07
3.49936e-07
3.49209e-07
3.49116e-07
3.49209e-07
0.000681686
0.00065357
1.87044e-05
1.01079e-05
1.36608e-06
2.65821e-06
0.000111534
0.000180002
0.000184221
0.000135414
2.71189e-05
0.000122703
0.000205255
7.86812e-05
5.41055e-07
3.49429e-07
3.49025e-07
3.49118e-07
3.49118e-07
0.000627519
0.000505447
4.36696e-05
1.36593e-06
6.95025e-07
1.55123e-05
0.000172099
0.000177083
0.000101891
4.15827e-08
5.51788e-06
0.000236097
0.000236181
0.000236097
6.99267e-05
3.68952e-07
3.49017e-07
3.48993e-07
3.49361e-07
0.000404646
0.000498728
8.0117e-05
6.95025e-07
1.61474e-07
3.73353e-05
0.000143719
5.5147e-05
1.98811e-09
6.40433e-10
2.03208e-08
0.000232059
0.000236097
0.000223736
0.000227236
0.000204477
3.04039e-05
3.49688e-07
3.49258e-07
0.000192505
0.00113393
1.28593e-05
2.57782e-06
2.47949e-08
1.53977e-05
5.26575e-09
1.98736e-09
6.23469e-10
6.25563e-10
6.40354e-10
0.000127834
0.000160787
0.000172806
0.000186422
0.000217493
7.61875e-05
4.09232e-07
3.7399e-07
0.000460489
0.00117709
7.19267e-08
1.28936e-07
2.08289e-08
6.80916e-09
4.05848e-09
1.46228e-09
1.14586e-09
6.29074e-10
9.0864e-07
3.27922e-06
0.000182999
0.000344022
0.000165807
5.38747e-05
4.02817e-05
1.36739e-06
9.40256e-05
0.00114294
0.00118214
4.67129e-08
1.10933e-07
1.19104e-07
4.5181e-08
7.68993e-08
6.92637e-08
1.10603e-08
5.69562e-10
9.87063e-07
2.02482e-05
0.000579985
0.000743605
0.000740064
6.26647e-05
3.18318e-05
6.68406e-05
0.00102446
0.00118219
0.00118321
9.12608e-09
4.5327e-09
5.26399e-09
2.52944e-07
5.66153e-07
3.31918e-07
2.2287e-09
3.28717e-10
1.20403e-10
4.04835e-05
0.000741721
0.000743605
0.000743605
0.000452435
3.19186e-05
0.000800552
0.00118091
0.00118321
0.00118321
1.9232e-09
3.40547e-10
2.85577e-07
5.66153e-07
5.66153e-07
3.21713e-07
1.96123e-09
1.20636e-10
1.16651e-10
2.75358e-06
0.000369196
0.000743801
0.000742245
0.00069642
0.000315365
0.00116764
0.00117328
0.00118111
0.000703034
3.4029e-10
8.14659e-11
1.36911e-07
5.60219e-07
3.30277e-07
2.34978e-08
1.44624e-10
1.17412e-10
1.16651e-10
1.16651e-10
6.78798e-06
0.000635203
0.000738286
0.000773817
0.000797338
0.00115919
0.00116771
0.000258205
0.000173288
1.53184e-10
6.35416e-11
2.21672e-10
3.98076e-10
4.4225e-09
1.12763e-08
2.14456e-09
1.18899e-10
1.16862e-10
1.17061e-10
1.1907e-06
4.06897e-06
0.000266576
0.000616952
0.000774239
0.00067865
0.000730836
0.000162113
0.00016602
9.74683e-11
6.04588e-11
6.15552e-11
1.91787e-08
2.71701e-08
1.19807e-08
3.0806e-10
1.37595e-10
1.27668e-10
1.25026e-10
7.94786e-10
4.17767e-09
4.5961e-08
0.00019613
0.000696296
0.00053262
8.24515e-05
0.000146118
0.000172356
4.0289e-11
2.29394e-11
3.13549e-09
2.18826e-08
1.99418e-08
2.76655e-09
1.53424e-10
1.49385e-10
1.30209e-10
1.52135e-10
3.80401e-09
7.79964e-08
1.05763e-07
2.44863e-07
0.000165635
0.000451439
5.61205e-05
0.000380187
0.000392937
2.30273e-11
2.28917e-11
3.09403e-09
4.54391e-09
3.66289e-10
6.36031e-10
2.99481e-10
1.51479e-10
1.46775e-10
2.55834e-07
7.11249e-08
1.06498e-07
3.5797e-07
4.1445e-07
7.49991e-07
4.04707e-05
5.32184e-05
0.000395235
0.000375447
1.30266e-11
1.44585e-10
4.18947e-10
3.40998e-11
3.64129e-10
8.29425e-10
2.82352e-10
2.16324e-10
6.62892e-10
1.05068e-06
1.92384e-05
3.11123e-05
4.23822e-07
6.01556e-07
7.22297e-07
1.17791e-06
5.0819e-05
0.000394956
0.000115338
7.52822e-12
2.70626e-11
3.69733e-12
3.35571e-11
4.62692e-10
6.77158e-10
2.45878e-10
2.15264e-10
8.81457e-10
1.4719e-06
0.000198047
0.00042496
0.000231656
1.20424e-05
1.17791e-06
0.000144527
9.53057e-05
0.000323501
1.14741e-08
6.88996e-13
1.34538e-12
2.24702e-12
1.69273e-11
8.36299e-11
1.50182e-10
1.0499e-10
1.45487e-10
4.26441e-09
3.93379e-06
0.000312282
0.000458413
0.000460026
0.000434228
0.000407806
0.000397818
4.58994e-05
1.35596e-05
1.14741e-08
1.54189e-13
4.28282e-13
1.09121e-12
3.1697e-12
8.22629e-12
1.85047e-11
1.76857e-11
2.45929e-11
3.45173e-09
1.4693e-07
0.000114841
0.000460084
0.000460054
0.000460026
0.000457632
0.000192821
6.17069e-07
1.13683e-08
1.14765e-08
4.58097e-14
1.60514e-13
4.64261e-13
1.03724e-12
1.92509e-12
4.96264e-12
6.10667e-12
1.33479e-11
3.07446e-10
1.41235e-08
2.99053e-07
0.000140324
0.000353145
0.000349856
9.57094e-05
7.49658e-07
6.72502e-08
1.32913e-08
1.4996e-08
7.99288e-15
3.79107e-14
1.45196e-13
4.23282e-13
9.70901e-13
2.06544e-12
6.34781e-12
7.16937e-12
1.10033e-11
4.5907e-10
3.08738e-07
3.80223e-06
1.29343e-05
1.48257e-05
4.0972e-07
7.59745e-08
2.98819e-08
4.65783e-08
1.99854e-08
6.3138e-16
4.29341e-15
2.23083e-14
8.55784e-14
2.51938e-13
6.46819e-13
2.04994e-12
9.47301e-12
1.03858e-11
2.19012e-11
2.41893e-09
3.90317e-09
2.40909e-08
7.78639e-08
5.09694e-08
2.92587e-08
2.77213e-08
7.18919e-08
1.46219e-08
5.27467e-18
8.31336e-17
8.84227e-16
5.68557e-15
2.29835e-14
7.21972e-14
2.47378e-13
1.72443e-12
1.1604e-11
1.29796e-11
3.34628e-11
4.93285e-10
6.32006e-09
3.5272e-08
3.20204e-08
2.77786e-08
2.76906e-08
2.7594e-08
9.43701e-10
)
;

boundaryField
{
    leftWall
    {
        type            zeroGradient;
    }
    rightWall
    {
        type            zeroGradient;
    }
    lowerWall
    {
        type            zeroGradient;
    }
    atmosphere
    {
        type            inletOutlet;
        inletValue      uniform 0;
        value           nonuniform List<scalar> 
46
(
0
0
0
1.81883e-06
0
0.000173943
0
0
0
0
0
0
0
0
0
0
0
0
0
0
0
0
0
0
0
0
0
0
0
0
0
0
0
2.47378e-13
1.72443e-12
1.1604e-11
1.29796e-11
3.34628e-11
4.93285e-10
6.32006e-09
3.5272e-08
3.20204e-08
2.77786e-08
2.76906e-08
0
0
)
;
    }
    defaultFaces
    {
        type            empty;
    }
}


// ************************************************************************* //
