/*--------------------------------*- C++ -*----------------------------------*\
| =========                 |                                                 |
| \\      /  F ield         | OpenFOAM: The Open Source CFD Toolbox           |
|  \\    /   O peration     | Version:  2.3.0                                 |
|   \\  /    A nd           | Web:      www.OpenFOAM.org                      |
|    \\/     M anipulation  |                                                 |
\*---------------------------------------------------------------------------*/
FoamFile
{
    version     2.0;
    format      ascii;
    class       volScalarField;
    location    "2.35";
    object      p;
}
// * * * * * * * * * * * * * * * * * * * * * * * * * * * * * * * * * * * * * //

dimensions      [1 -1 -2 0 0 0 0];

internalField   nonuniform List<scalar> 
2268
(
788.748
785.993
786.9
794.582
811.872
823.026
829.749
834.932
839.488
847.558
857.704
864.091
862.675
856.117
847.389
838.825
831.194
823.377
813.002
800.088
790.645
787.349
788.215
730.499
727.042
729.236
736.648
753.534
764.991
772.02
776.038
778.349
785.711
797.893
805.366
804.65
798.501
789.331
779.69
771.938
764.443
754.295
740.812
730.353
726.425
728.426
675.565
672.174
673.567
679.598
693.551
705.965
713.382
716.43
717.105
724.92
738.932
747.296
746.776
740.785
731.323
721.283
713.178
705.431
695.426
681.058
669.496
665.009
668.162
620.081
614.679
615.919
622.823
632.797
646.307
654.394
656.987
656.388
664.303
680.379
689.264
688.218
682.118
672.931
663.235
654.864
646.189
636.178
620.953
608.187
602.902
607.202
559.188
549.462
552.781
564.641
575.013
586.383
595.784
598.197
596.267
604.181
622.061
630.667
628.556
622.514
614.218
605.525
596.854
586.992
575.957
561.362
545.99
538.968
544.594
491.753
477.773
484.637
506.297
520.846
526.649
537.824
540.399
537.599
546.824
564.89
571.971
568.36
562.388
555.473
548.114
539.236
528.186
516.494
501.221
483.52
473.79
479.713
421.376
406.498
416.114
447.613
467.76
469.604
480.78
484.275
482.131
495.753
512.488
515.106
509.275
502.594
496.975
490.857
482.045
470.491
458.263
441.86
421.742
407.026
415.891
351.939
338.086
348.884
385.134
410.771
415.54
424.902
430.219
429.61
449.031
465.049
461.777
452.708
444.13
438.852
433.381
424.69
413.904
401.579
383.903
361.278
347.12
354.797
696.98
685.726
686.689
681.443
675.435
694.8
715.147
689.552
644.641
605.753
582.898
569.952
554.554
537.896
518.345
501.283
490.623
483.185
490.238
638.063
622.882
626.669
616.756
607.912
628.691
648.666
624.702
581.571
543.583
521.908
509.35
497.2
484.1
464.007
447.424
437.587
425.064
431.893
586.023
572.776
565.159
546.078
537.871
559.542
578.879
557.966
517.349
480.797
460.972
449.398
439.201
426.503
407.702
393.045
384.158
373.099
374.258
537.999
524.221
504.479
477.036
467.457
489.668
509.701
492.353
454.698
419.272
400.453
390.022
380.799
368.703
352.996
338.809
328.944
319.295
318.593
488.29
473.557
444.761
412.534
403.329
425.884
445.038
429.802
393.742
360.166
341.896
331.507
322.575
313.271
298.368
281.942
270.454
263.179
261.521
435.283
420.726
387.895
356.232
350.248
371.702
385.998
370.891
336.017
303.408
285.607
275.546
265.672
257.588
241.655
223.53
210.021
203.289
200.082
379.206
368.71
336.485
310.462
306.04
323.357
330.831
315.37
282.26
249.291
231.542
220.292
208.879
199.377
182.671
163.445
148.747
140.185
136.181
322.427
318.863
292.609
269.867
264.902
275.705
276.225
262.011
231.11
199.518
179.375
165.526
151.113
138.834
121.017
101.878
86.8252
75.973
70.5655
246.17
239.735
253.012
285.532
313.967
328.759
340.578
351.698
354.139
380.173
390.311
383.221
367.537
354.269
348.307
343.168
335.005
325.437
312.83
292.422
268.333
254.839
256.742
112.755
113.536
130.694
153.567
182.992
210.436
228.62
247.434
270.783
285.757
289.872
275.45
250.093
233.827
230.509
225.104
212.033
195.996
179.143
161.655
147.785
139.01
134.875
30.2674
22.812
30.1794
48.79
74.9586
99.0573
110.772
126.865
148.06
156.95
152.52
139.209
128.312
123.98
122.41
109
86.507
62.9665
49.3865
47.8794
53.1947
50.6081
38.1881
4.57562
3.1747
3.10058
5.7207
13.7467
27.1084
34.9288
43.5757
48.7457
31.4701
17.5787
20.6494
40.8147
55.8163
60.7221
42.0905
15.5922
5.0548
3.34881
3.5119
5.58973
6.83358
4.67044
1.61356
1.11745
0.738419
0.466491
0.266382
0.228155
1.70298
2.91158
2.28789
0.516519
0.226768
0.109606
0.0183533
2.55743
8.31164
7.25885
1.34933
1.39236
1.5304
1.455
1.41331
1.34675
1.38609
0.507384
0.229685
0.0713452
-0.116831
-0.307998
-0.57474
-1.13815
-1.72203
-1.64645
-0.72241
-0.406979
-0.365982
-0.332821
-0.230749
-0.101668
-0.176956
-0.0706673
0.52525
0.808408
0.922172
1.02754
1.01554
1.02227
-0.00634722
-0.217319
-0.2845
-0.433197
-0.610031
-0.901921
-1.29201
-1.4806
-1.39857
-1.1225
-0.880676
-0.744228
-0.623245
-0.491958
-0.365246
-0.175963
0.125698
0.261582
0.196121
0.317653
0.545011
0.671772
0.685799
-0.312903
-0.577375
-0.617497
-0.768921
-0.9642
-1.24728
-1.53827
-1.65903
-1.63069
-1.52465
-1.41454
-1.26721
-1.05355
-0.822898
-0.603252
-0.338675
-0.048635
0.0580367
-0.0426597
-0.044129
0.0612603
0.221986
0.313325
-0.592419
-0.865542
-0.945096
-1.14671
-1.36281
-1.60755
-1.80596
-1.89288
-1.89173
-1.83191
-1.75526
-1.62696
-1.45282
-1.26854
-1.07512
-0.784613
-0.471816
-0.265205
-0.249512
-0.297987
-0.271579
-0.194056
-0.0681376
-0.831179
-1.08961
-1.27464
-1.52503
-1.74718
-1.93418
-2.08487
-2.18979
-2.22987
-2.19248
-2.06944
-1.87805
-1.67889
-1.51497
-1.3664
-1.18893
-0.980044
-0.765443
-0.592588
-0.523054
-0.503841
-0.493519
-0.418182
-1.08016
-1.33069
-1.54581
-1.81566
-2.04499
-2.20322
-2.37361
-2.54278
-2.63817
-2.62092
-2.47176
-2.20609
-1.91309
-1.68144
-1.52532
-1.40207
-1.26631
-1.14042
-0.960303
-0.771214
-0.725635
-0.730539
-0.752213
-1.32824
-1.51843
-1.72223
-2.00562
-2.25798
-2.43265
-2.64057
-2.8565
-2.9935
-3.00479
-2.85844
-2.55288
-2.18233
-1.87847
-1.68973
-1.54879
-1.42555
-1.36234
-1.28328
-1.10838
-1.03063
-1.02256
-1.13679
-1.43641
-1.58449
-1.79182
-2.09496
-2.38338
-2.60265
-2.82315
-3.04727
-3.20133
-3.23311
-3.11079
-2.80817
-2.40956
-2.06908
-1.8572
-1.7124
-1.59202
-1.52434
-1.49103
-1.46099
-1.54376
-1.61309
-1.77623
-1.42748
-1.5454
-1.77747
-2.09479
-2.41283
-2.66747
-2.89308
-3.10698
-3.26088
-3.30791
-3.211
-2.9337
-2.54631
-2.21063
-1.99937
-1.86538
-1.76358
-1.69234
-1.63239
-1.76989
-2.09312
-2.3264
-2.56156
-1.37207
-1.46526
-1.72186
-2.03487
-2.35947
-2.63312
-2.86133
-3.06113
-3.20646
-3.25919
-3.17686
-2.92373
-2.57548
-2.28342
-2.09608
-1.98083
-1.90941
-1.845
-1.77479
-2.08846
-2.53536
-2.84889
-3.09571
-1.36475
-1.41569
-1.65574
-1.958
-2.26912
-2.54551
-2.77473
-2.96268
-3.09327
-3.13282
-3.03883
-2.80096
-2.51593
-2.29486
-2.15804
-2.06654
-2.002
-1.94031
-1.95596
-2.4365
-2.80863
-3.07984
-3.23638
-1.45715
-1.47116
-1.60384
-1.86582
-2.16156
-2.42951
-2.65306
-2.82542
-2.92652
-2.92496
-2.80034
-2.59497
-2.40636
-2.28428
-2.2292
-2.18907
-2.1361
-2.0463
-2.19473
-2.7258
-2.95085
-3.08574
-3.15574
-1.52716
-1.55494
-1.61437
-1.80563
-2.04379
-2.26722
-2.46289
-2.60803
-2.67033
-2.63247
-2.52007
-2.39466
-2.31792
-2.30843
-2.33436
-2.33528
-2.32725
-2.29551
-2.46248
-2.76418
-2.91762
-3.00661
-3.02296
-1.58061
-1.60354
-1.7297
-1.89892
-2.02687
-2.14921
-2.28844
-2.39866
-2.43839
-2.41901
-2.36689
-2.32577
-2.33436
-2.40439
-2.46025
-2.48521
-2.5139
-2.57519
-2.65928
-2.71264
-2.79101
-2.80761
-2.84015
-1.72602
-1.81704
-1.98308
-2.12285
-2.15197
-2.20051
-2.31523
-2.41071
-2.43703
-2.40686
-2.38364
-2.40454
-2.46591
-2.52569
-2.57596
-2.62059
-2.65593
-2.70271
-2.73126
-2.70764
-2.68797
-2.70341
-2.72772
-2.08788
-2.31555
-2.44515
-2.47003
-2.34325
-2.35929
-2.47062
-2.5599
-2.58709
-2.57973
-2.56887
-2.57747
-2.60118
-2.64138
-2.69333
-2.73814
-2.76437
-2.79566
-2.81032
-2.78774
-2.71391
-2.71224
-2.71949
-2.62962
-3.04939
-3.12172
-2.86188
-2.63912
-2.67768
-2.76724
-2.81985
-2.81814
-2.79253
-2.7611
-2.74381
-2.74719
-2.774
-2.81253
-2.84629
-2.86075
-2.87997
-2.88851
-2.86166
-2.82069
-2.79862
-2.80112
-3.11366
-3.6017
-3.45356
-3.12178
-3.06715
-3.10312
-3.13364
-3.13646
-3.09143
-3.00638
-2.93282
-2.89395
-2.88732
-2.91008
-2.93728
-2.95984
-2.97101
-2.99018
-3.00145
-2.98393
-2.96111
-2.93991
-2.95087
-3.37074
-3.70045
-3.52192
-3.25078
-3.33151
-3.3415
-3.35166
-3.33332
-3.27345
-3.18559
-3.11175
-3.06781
-3.05372
-3.06094
-3.07748
-3.09457
-3.10937
-3.12908
-3.14351
-3.13595
-3.11806
-3.11013
-3.11743
-3.4279
-3.57372
-3.50024
-3.3677
-3.44877
-3.44849
-3.46559
-3.46599
-3.43571
-3.38153
-3.32231
-3.27669
-3.24785
-3.23694
-3.24172
-3.25486
-3.27326
-3.29395
-3.30622
-3.30039
-3.28488
-3.27748
-3.27809
-3.42852
-3.51263
-3.53418
-3.50694
-3.53291
-3.54762
-3.58681
-3.62578
-3.63503
-3.60713
-3.55757
-3.50223
-3.4574
-3.4312
-3.42593
-3.43705
-3.45915
-3.48079
-3.48856
-3.47804
-3.45701
-3.44185
-3.43488
-3.53698
-3.57277
-3.62647
-3.61399
-3.62693
-3.66723
-3.74042
-3.81738
-3.85491
-3.83832
-3.78753
-3.72328
-3.66605
-3.62863
-3.61511
-3.6253
-3.65151
-3.67504
-3.67938
-3.66187
-3.62988
-3.60257
-3.58634
-3.69645
-3.69417
-3.74958
-3.71846
-3.73082
-3.79914
-3.90468
-4.01199
-4.06667
-4.05667
-4.00354
-3.92916
-3.85954
-3.81202
-3.79149
-3.79927
-3.82823
-3.8542
-3.85787
-3.83484
-3.7936
-3.75586
-3.73145
-3.86915
-3.87738
-3.89256
-3.84063
-3.84657
-3.93521
-4.05811
-4.18183
-4.24744
-4.24465
-4.18881
-4.10483
-4.02348
-3.96696
-3.94089
-3.94509
-3.97187
-3.99854
-4.00489
-3.98145
-3.93909
-3.89835
-3.87116
-4.04748
-4.06812
-4.03594
-3.97887
-3.95759
-4.0637
-4.18631
-4.3086
-4.37856
-4.38106
-4.32941
-4.24099
-4.15095
-4.08857
-4.05988
-4.06101
-4.08438
-4.11036
-4.11834
-4.10175
-4.06723
-4.03082
-4.00697
-4.17217
-4.20879
-4.15913
-4.12777
-4.06488
-4.17987
-4.29056
-4.38827
-4.45166
-4.46253
-4.42204
-4.3365
-4.24295
-4.18138
-4.15682
-4.15983
-4.18025
-4.20362
-4.21326
-4.2048
-4.18251
-4.15812
-4.14046
-4.27044
-4.27515
-4.25271
-4.2957
-4.21154
-4.29952
-4.37532
-4.43328
-4.47958
-4.49946
-4.47239
-4.40044
-4.31643
-4.2673
-4.25321
-4.26164
-4.28056
-4.30008
-4.31007
-4.30791
-4.29676
-4.28352
-4.27354
-4.37115
-4.34057
-4.34305
-4.43032
-4.40236
-4.44114
-4.46027
-4.46613
-4.48495
-4.50645
-4.51668
-4.48934
-4.42528
-4.38643
-4.37481
-4.38526
-4.40096
-4.41507
-4.42297
-4.42346
-4.41909
-4.41339
-4.40907
-4.49003
-4.46693
-4.48387
-4.58399
-4.62577
-4.60942
-4.55354
-4.50027
-4.48155
-4.51587
-4.63286
-4.69211
-4.63453
-4.56262
-4.53167
-4.53422
-4.54192
-4.54872
-4.55257
-4.55278
-4.5512
-4.54916
-4.54768
-4.74904
-4.74141
-4.71709
-4.81572
-4.84824
-4.77817
-4.65776
-4.55811
-4.54008
-4.64483
-4.82847
-4.93041
-4.86365
-4.76035
-4.71334
-4.69854
-4.69413
-4.69304
-4.69269
-4.69172
-4.68948
-4.68863
-4.68789
-4.96324
-4.98302
-4.93946
-4.99549
-4.98709
-4.89257
-4.77558
-4.67045
-4.73273
-4.87504
-5.02962
-5.08146
-5.00853
-4.92461
-4.88055
-4.85757
-4.84604
-4.83944
-4.83562
-4.83307
-4.83138
-4.82936
-4.82837
-5.04997
-5.06932
-5.06674
-5.07546
-5.05135
-4.96347
-4.876
-4.8894
-4.9713
-5.0964
-5.17961
-5.16391
-5.11378
-5.06043
-5.02867
-5.0057
-4.99203
-4.98328
-4.97769
-4.97399
-4.97149
-4.96953
-4.96845
-5.16042
-5.15789
-5.15914
-5.13596
-5.10375
-5.04558
-5.00677
-5.08536
-5.18804
-5.26646
-5.26695
-5.24884
-5.21659
-5.18557
-5.16278
-5.14475
-5.13225
-5.12386
-5.11782
-5.11373
-5.11094
-5.10903
-5.10792
-5.28722
-5.28149
-5.26765
-5.24567
-5.195
-5.16414
-5.18304
-5.2918
-5.35747
-5.36829
-5.36065
-5.34594
-5.32696
-5.30783
-5.29143
-5.27845
-5.26851
-5.26135
-5.25594
-5.25216
-5.24955
-5.24781
-5.24679
-5.42169
-5.4373
-5.4068
-5.43126
-5.40659
-5.35532
-5.38164
-5.48064
-5.47493
-5.47142
-5.46294
-5.45291
-5.44118
-5.42906
-5.4181
-5.40904
-5.40197
-5.39649
-5.39235
-5.38936
-5.38728
-5.38589
-5.38506
-5.55621
-5.57657
-5.54112
-5.58638
-5.54931
-5.65141
-5.56184
-5.60947
-5.57726
-5.57558
-5.56923
-5.56317
-5.55633
-5.5494
-5.5431
-5.53775
-5.53344
-5.53008
-5.52751
-5.52562
-5.52428
-5.52338
-5.52283
-5.69544
-5.70147
-5.68009
-5.73848
-5.75074
-6.01281
-5.70132
-5.70704
-5.68614
-5.68148
-5.67739
-5.67457
-5.67201
-5.66959
-5.66745
-5.66562
-5.66413
-5.66295
-5.66205
-5.66137
-5.66089
-5.66056
-5.66036
246.402
239.39
233.96
230.581
127.25
121.733
118.561
118.464
29.5219
25.6363
24.9111
25.4824
1.498
1.45878
1.55536
1.55126
1.53139
1.31723
1.33844
1.33846
0.839449
0.709115
0.646185
0.673996
0.573211
0.477003
0.370883
0.298978
0.28076
0.215236
0.154658
0.131077
-0.062959
-0.0812217
-0.0977174
-0.0904294
-0.345441
-0.322153
-0.320936
-0.319675
-0.623032
-0.56721
-0.550576
-0.565769
-1.08631
-1.01962
-1.02212
-1.07312
-1.82516
-1.82934
-1.87647
-1.93401
-2.6576
-2.64545
-2.60661
-2.61683
-3.15024
-3.10807
-3.01912
-2.92844
-3.23197
-3.19237
-3.12204
-3.04402
-3.13782
-3.10499
-3.06674
-3.03945
-3.00017
-2.98764
-2.98629
-3.00356
-2.85846
-2.88385
-2.92091
-2.97123
-2.77663
-2.82665
-2.88818
-2.95893
-2.77484
-2.82905
-2.89389
-2.96761
-2.84152
-2.88323
-2.93405
-2.99149
-2.9714
-2.99311
-3.0203
-3.05084
-3.12885
-3.13882
-3.15005
-3.16182
-3.28415
-3.28906
-3.2941
-3.30007
-3.43549
-3.43687
-3.43846
-3.44097
-3.58177
-3.58031
-3.57961
-3.57995
-3.72284
-3.71933
-3.71729
-3.71656
-3.86083
-3.85642
-3.85376
-3.85256
-3.99716
-3.99293
-3.99042
-3.98928
-4.13304
-4.12989
-4.12812
-4.12753
-4.26945
-4.26782
-4.26712
-4.2672
-4.40757
-4.40713
-4.40718
-4.40766
-4.54737
-4.54743
-4.54777
-4.54838
-4.68785
-4.68802
-4.68839
-4.68899
-4.82828
-4.8284
-4.82871
-4.82921
-4.96827
-4.96832
-4.96855
-4.96893
-5.10764
-5.10761
-5.10772
-5.10798
-5.24649
-5.24642
-5.24647
-5.24665
-5.3848
-5.38472
-5.38474
-5.38483
-5.52265
-5.52259
-5.52259
-5.52264
-5.66029
-5.66027
-5.66027
-5.66028
232.997
239.154
226.75
209.145
200.6
198.098
189.22
178.447
153.721
126.959
103.686
84.3226
67.8563
55.0579
43.6562
34.0996
27.0182
20.7089
17.7764
121.062
120.145
111.255
101.717
96.265
87.3768
77.0875
69.8007
58.869
45.7113
31.8819
17.8146
7.51175
3.69357
2.51002
1.98679
1.74496
1.77616
1.86209
26.5412
27.3927
29.8403
31.351
28.3775
18.9918
12.3325
8.77034
9.20444
7.90863
4.9593
2.25399
1.78305
1.75988
1.73029
1.63962
1.51837
1.4974
1.55747
1.46516
1.20692
1.03813
0.978283
0.861507
0.693199
0.56287
0.50653
0.48532
0.418559
0.27599
0.548857
1.05885
1.14932
1.25279
1.2337
1.18399
1.15757
1.23627
1.19769
0.870464
0.729438
0.802931
0.732414
0.51789
0.337002
0.253535
0.171592
0.100154
0.198048
0.49047
0.688676
0.759013
0.752076
0.784458
0.799036
0.847351
0.915605
0.685026
0.4168
0.388573
0.503766
0.415173
0.195405
0.0440744
-0.0385422
-0.0871332
-0.119384
-0.0494474
0.122886
0.231719
0.291193
0.304694
0.308913
0.382621
0.513843
0.581991
0.31857
0.126315
0.0793106
0.136879
0.0343289
-0.115986
-0.217685
-0.280662
-0.347147
-0.404451
-0.395443
-0.297909
-0.124634
-0.00625839
0.0253318
0.0298151
0.0607763
0.150128
0.280495
0.143756
-0.0498223
-0.146859
-0.139022
-0.227328
-0.33561
-0.427587
-0.502911
-0.577803
-0.642393
-0.65584
-0.596688
-0.46957
-0.319292
-0.241527
-0.204642
-0.231119
-0.247932
-0.0269858
-0.0821409
-0.253055
-0.345186
-0.400179
-0.501792
-0.595015
-0.663938
-0.714718
-0.764096
-0.807468
-0.81926
-0.784469
-0.708746
-0.590771
-0.470282
-0.404952
-0.432336
-0.490489
-0.299932
-0.316033
-0.489914
-0.590347
-0.695623
-0.802983
-0.880251
-0.918198
-0.931422
-0.945284
-0.960156
-0.955823
-0.922058
-0.862556
-0.789614
-0.67526
-0.56084
-0.535642
-0.532271
-0.45101
-0.635679
-0.788546
-0.905642
-1.03128
-1.12727
-1.1814
-1.18487
-1.16068
-1.14161
-1.12595
-1.09566
-1.0446
-0.985757
-0.934328
-0.873051
-0.748866
-0.65499
-0.666514
-0.60279
-1.19399
-1.21945
-1.29745
-1.40088
-1.46897
-1.48853
-1.45536
-1.40735
-1.36376
-1.3271
-1.27479
-1.19642
-1.11968
-1.07119
-1.04177
-0.984474
-0.870815
-0.882652
-0.806364
-1.88882
-1.72256
-1.73417
-1.78519
-1.80629
-1.7805
-1.72806
-1.66178
-1.60264
-1.55331
-1.48868
-1.3926
-1.29221
-1.23731
-1.20972
-1.1982
-1.13266
-1.05863
-1.03439
-2.45253
-2.19502
-2.15193
-2.14278
-2.11396
-2.06001
-1.98812
-1.90353
-1.83092
-1.77651
-1.71717
-1.62522
-1.51892
-1.44262
-1.40079
-1.38007
-1.37536
-1.27717
-1.28088
-2.75663
-2.55759
-2.5035
-2.45834
-2.4022
-2.32106
-2.22212
-2.12309
-2.04325
-1.98631
-1.93262
-1.85677
-1.75929
-1.67003
-1.61042
-1.57816
-1.57997
-1.54351
-1.50788
-2.92225
-2.82307
-2.79327
-2.74117
-2.66629
-2.54991
-2.42515
-2.32342
-2.25159
-2.20127
-2.14928
-2.07954
-1.98913
-1.89792
-1.82762
-1.78408
-1.77149
-1.78101
-1.71668
-3.00984
-3.01342
-3.02241
-2.9743
-2.8726
-2.73061
-2.60457
-2.51836
-2.4674
-2.43432
-2.3914
-2.32294
-2.23073
-2.13469
-2.04966
-1.98931
-1.96047
-1.9645
-1.92005
-3.05014
-3.12753
-3.17223
-3.12615
-3.00611
-2.86544
-2.75886
-2.7015
-2.67758
-2.66004
-2.62717
-2.56851
-2.48361
-2.37876
-2.27649
-2.19638
-2.1489
-2.13194
-2.1178
-3.06597
-3.18606
-3.24675
-3.19615
-3.07389
-2.95362
-2.87832
-2.85164
-2.85234
-2.84374
-2.81884
-2.77526
-2.70468
-2.60623
-2.49776
-2.40436
-2.344
-2.30806
-2.30019
-3.07806
-3.21175
-3.26498
-3.20412
-3.0933
-3.00415
-2.9641
-2.95916
-2.97218
-2.96543
-2.95142
-2.92588
-2.87815
-2.79814
-2.69987
-2.60708
-2.54765
-2.50622
-2.50357
-3.09069
-3.2075
-3.23416
-3.17491
-3.09199
-3.04438
-3.0345
-3.04309
-3.05891
-3.04943
-3.04005
-3.02788
-2.99786
-2.94832
-2.87368
-2.79455
-2.74477
-2.70697
-2.68116
-3.08961
-3.17459
-3.18712
-3.14858
-3.10772
-3.10209
-3.11457
-3.13212
-3.14511
-3.13638
-3.12572
-3.11456
-3.10125
-3.0719
-3.02123
-2.96067
-2.9213
-2.88976
-2.83321
-3.10652
-3.16205
-3.17993
-3.17258
-3.16843
-3.18766
-3.21031
-3.23075
-3.24308
-3.24675
-3.24912
-3.23545
-3.21012
-3.18167
-3.14928
-3.10637
-3.07637
-3.05065
-2.96567
-3.18574
-3.22148
-3.2432
-3.25265
-3.26698
-3.29161
-3.31235
-3.33293
-3.34599
-3.36552
-3.39344
-3.39999
-3.37171
-3.3282
-3.287
-3.24399
-3.21429
-3.18087
-3.09622
-3.31181
-3.33274
-3.35002
-3.36288
-3.38101
-3.40093
-3.41829
-3.43708
-3.44693
-3.46876
-3.49878
-3.52458
-3.53323
-3.51857
-3.46191
-3.38937
-3.34469
-3.30689
-3.21687
-3.44704
-3.45967
-3.47347
-3.48478
-3.49998
-3.51697
-3.5313
-3.54489
-3.5508
-3.56587
-3.58667
-3.61705
-3.63293
-3.64032
-3.60692
-3.52192
-3.47669
-3.4695
-3.35941
-3.58237
-3.5906
-3.60125
-3.61248
-3.62608
-3.64041
-3.65262
-3.66321
-3.66892
-3.6834
-3.70673
-3.73837
-3.74887
-3.73053
-3.71282
-3.65509
-3.67482
-3.70855
-3.58251
-3.71733
-3.72364
-3.73305
-3.74388
-3.75639
-3.76975
-3.78228
-3.79389
-3.80411
-3.82266
-3.86037
-3.89411
-3.90638
-3.8846
-3.85524
-3.87087
-3.99379
-4.03672
-3.82777
-3.8527
-3.85828
-3.86705
-3.87751
-3.8897
-3.90343
-3.91764
-3.93197
-3.94722
-3.96904
-4.01445
-4.05604
-4.06693
-4.04488
-4.02449
-4.14616
-4.28981
-4.25625
-4.00658
-3.98954
-3.99488
-4.00314
-4.01328
-4.02541
-4.03966
-4.05537
-4.07206
-4.09046
-4.114
-4.15277
-4.18936
-4.21125
-4.17643
-4.16182
-4.28231
-4.36616
-4.28303
-4.14762
-4.12832
-4.13346
-4.1411
-4.15074
-4.16249
-4.17673
-4.19313
-4.2112
-4.23155
-4.25502
-4.28623
-4.32141
-4.33463
-4.29773
-4.24227
-4.26574
-4.36415
-4.35418
-4.29693
-4.26849
-4.27325
-4.28011
-4.28894
-4.30001
-4.31373
-4.33005
-4.34872
-4.37046
-4.39597
-4.42831
-4.46003
-4.46656
-4.44158
-4.38307
-4.32496
-4.44229
-4.48664
-4.46001
-4.40919
-4.41344
-4.41951
-4.42744
-4.43756
-4.4503
-4.46582
-4.4844
-4.50733
-4.53697
-4.57472
-4.61218
-4.62402
-4.59928
-4.56588
-4.50977
-4.57916
-4.6125
-4.61255
-4.54991
-4.55365
-4.55894
-4.5659
-4.57486
-4.58626
-4.60046
-4.61818
-4.64152
-4.67486
-4.71978
-4.76934
-4.79318
-4.77125
-4.73193
-4.71
-4.72684
-4.72832
-4.74232
-4.69037
-4.69359
-4.69811
-4.70406
-4.71174
-4.72157
-4.73407
-4.7501
-4.77234
-4.80614
-4.85515
-4.91984
-4.95645
-4.94364
-4.89422
-4.87624
-4.86266
-4.84905
-4.86752
-4.83037
-4.83305
-4.83683
-4.84179
-4.84815
-4.85632
-4.86691
-4.88047
-4.89994
-4.93051
-4.98358
-5.07146
-5.11869
-5.10665
-5.05298
-5.04096
-4.99353
-4.97584
-4.97617
-4.96981
-4.97197
-4.97504
-4.97905
-4.98411
-4.99053
-4.9988
-5.00977
-5.02527
-5.05082
-5.10875
-5.20853
-5.27404
-5.26753
-5.2223
-5.19874
-5.1087
-5.08368
-5.08439
-5.10868
-5.11039
-5.11279
-5.11589
-5.11973
-5.12443
-5.13045
-5.13842
-5.14932
-5.16837
-5.21607
-5.29506
-5.36687
-5.37996
-5.34992
-5.29525
-5.20191
-5.18197
-5.19918
-5.24712
-5.24837
-5.25014
-5.2524
-5.25513
-5.25833
-5.26224
-5.2673
-5.27407
-5.28616
-5.31381
-5.35709
-5.39468
-5.41466
-5.39809
-5.35352
-5.30601
-5.30011
-5.31659
-5.38514
-5.38597
-5.38718
-5.38869
-5.39046
-5.39239
-5.39452
-5.39714
-5.40076
-5.40726
-5.42007
-5.43959
-5.45843
-5.46669
-5.45712
-5.43917
-5.42765
-5.43137
-5.4343
-5.5228
-5.52329
-5.52399
-5.52484
-5.52582
-5.52675
-5.52756
-5.52848
-5.53047
-5.53363
-5.53904
-5.54671
-5.55393
-5.55742
-5.55693
-5.55417
-5.55145
-5.55333
-5.55266
-5.66034
-5.66051
-5.66075
-5.66102
-5.6613
-5.66145
-5.66146
-5.66127
-5.66125
-5.66204
-5.66426
-5.66729
-5.67011
-5.67218
-5.67355
-5.67337
-5.67054
-5.66996
-5.67119
)
;

boundaryField
{
    leftWall
    {
        type            calculated;
        value           nonuniform List<scalar> 
50
(
788.748
730.499
675.565
620.081
559.188
491.753
421.376
351.939
246.17
112.755
30.2674
4.57562
1.61356
0.507384
-0.00634722
-0.312903
-0.592419
-0.831179
-1.08016
-1.32824
-1.43641
-1.42748
-1.37207
-1.36475
-1.45715
-1.52716
-1.58061
-1.72602
-2.08788
-2.62962
-3.11366
-3.37074
-3.4279
-3.42852
-3.53698
-3.69645
-3.86915
-4.04748
-4.17217
-4.27044
-4.37115
-4.49003
-4.74904
-4.96324
-5.04997
-5.16042
-5.28722
-5.42169
-5.55621
-5.69544
)
;
    }
    rightWall
    {
        type            calculated;
        value           nonuniform List<scalar> 
50
(
490.238
431.893
374.258
318.593
261.521
200.082
136.181
70.5655
17.7764
1.86209
1.55747
1.23627
0.915605
0.581991
0.280495
-0.0269858
-0.299932
-0.45101
-0.60279
-0.806364
-1.03439
-1.28088
-1.50788
-1.71668
-1.92005
-2.1178
-2.30019
-2.50357
-2.68116
-2.83321
-2.96567
-3.09622
-3.21687
-3.35941
-3.58251
-3.82777
-4.00658
-4.14762
-4.29693
-4.46001
-4.61255
-4.74232
-4.86752
-4.97617
-5.08439
-5.19918
-5.31659
-5.4343
-5.55266
-5.67119
)
;
    }
    lowerWall
    {
        type            calculated;
        value           nonuniform List<scalar> 
62
(
818.125
815.37
815.753
823.404
840.595
852.214
859.179
864.362
868.918
876.988
887.133
893.511
891.887
885.262
876.541
868.229
860.619
852.801
842.421
829.511
820.069
816.772
817.639
788.215
728.426
668.162
607.202
544.594
479.713
415.891
354.797
308.375
301.548
296.158
292.802
696.98
638.063
586.023
537.999
488.29
435.283
379.206
322.427
725.974
714.719
714.538
710.01
704.838
724.203
744.549
718.955
674.045
635.157
612.301
599.355
582.296
563.849
544.782
527.238
517.025
510.726
518.526
)
;
    }
    atmosphere
    {
        type            calculated;
        value           nonuniform List<scalar> 
46
(
-5.76507
-5.74667
-5.73154
-5.73945
-5.74382
-6.72457
-5.79139
-5.75824
-5.74542
-5.73652
-5.73244
-5.73083
-5.73007
-5.72961
-5.72947
-5.72937
-5.7293
-5.72924
-5.72918
-5.72914
-5.72911
-5.72909
-5.72908
-5.72908
-5.72908
-5.72908
-5.72909
-5.7291
-5.72913
-5.72916
-5.72919
-5.72917
-5.72909
-5.72904
-5.72904
-5.72904
-5.72904
-5.72904
-5.72904
-5.72908
-5.72924
-5.72922
-5.7292
-5.7292
-5.72929
-5.73287
)
;
    }
    defaultFaces
    {
        type            empty;
    }
}


// ************************************************************************* //
