/*--------------------------------*- C++ -*----------------------------------*\
| =========                 |                                                 |
| \\      /  F ield         | OpenFOAM: The Open Source CFD Toolbox           |
|  \\    /   O peration     | Version:  2.3.0                                 |
|   \\  /    A nd           | Web:      www.OpenFOAM.org                      |
|    \\/     M anipulation  |                                                 |
\*---------------------------------------------------------------------------*/
FoamFile
{
    version     2.0;
    format      ascii;
    class       volScalarField;
    location    "2.35";
    object      p_rgh;
}
// * * * * * * * * * * * * * * * * * * * * * * * * * * * * * * * * * * * * * //

dimensions      [1 -1 -2 0 0 0 0];

internalField   nonuniform List<scalar> 
2268
(
818.125
815.37
815.753
823.404
840.595
852.214
859.179
864.362
868.918
876.988
887.133
893.511
891.887
885.262
876.541
868.229
860.619
852.801
842.421
829.511
820.069
816.772
817.639
816.953
811.419
809.622
818.881
840.514
853.263
860.308
864.326
866.637
873.999
886.181
893.621
892.375
885.935
876.766
867.65
860.216
852.706
842.512
829.033
818.624
814.695
816.696
814.728
802.336
803.729
810.373
840.697
853.111
860.529
863.576
864.251
872.064
886.076
894.441
893.915
887.128
877.063
867.336
860.307
852.561
842.509
828.091
816.581
812.127
815.28
812.823
801.092
803.556
806.213
835.833
852.312
860.4
862.99
862.38
870.295
886.381
895.268
894.222
888.12
878.534
868.743
860.816
852.172
842.161
826.824
814.104
808.817
813.157
818.698
811.574
812.49
806.511
813.592
851.247
860.648
863.061
861.113
869.023
886.91
895.529
893.419
887.377
879.081
870.388
861.716
851.848
840.798
825.961
805.807
795.909
808.331
813.014
799.048
805.639
809.294
811.248
843.96
861.547
864.122
861.239
865.697
880.911
895.337
892.081
886.087
879.195
871.836
862.491
849.007
834.413
814.226
791.24
781.508
799.259
801.074
786.19
795.798
824.652
815.639
825.64
863.361
866.848
854.028
841.917
859.6
895.043
891.078
885.064
879.53
873.434
863.149
840.546
822.037
805.59
785.408
770.694
788.874
790.055
776.201
783.416
824.542
847.458
827.219
866.332
871.639
859.441
848.451
866.359
897.918
891.16
885.536
880.175
874.8
864.908
838.785
821.44
803.619
784.234
774.901
786.489
725.974
714.719
714.538
710.01
704.838
724.203
744.549
718.955
674.045
635.157
612.301
599.355
582.296
563.849
544.782
527.238
517.025
510.726
518.526
721.491
705.741
710.189
704.962
696.12
716.801
736.523
712.829
669.782
631.793
610.118
597.561
577.561
561.882
541.771
525.145
515.302
504.833
517.608
723.724
710.477
708.865
693.078
684.88
705.784
724.348
703.408
662.91
627.133
607.989
596.415
572.483
556.056
537.237
522.574
513.68
502.619
516.079
730.78
720.165
710.275
682.834
673.258
695.365
714.801
696.067
654.878
616.766
603.173
595.844
578.056
550.092
534.369
534.52
514.698
500.626
510.872
736.208
725.37
709.354
677.128
667.925
690.476
709.611
694.344
658.276
610.516
590.102
589.429
580.261
546.76
544.943
541.648
528.058
498.675
517.462
743.432
725.561
711.113
679.174
673.624
695.069
709.298
694.211
659.333
612.089
588.939
578.671
568.501
559.489
546.803
541.11
528.265
520.175
518.325
759.724
729.14
716.061
692.213
688.168
702.816
709.265
696.865
664.288
624.624
590.026
583.594
579.805
575.418
558.76
539.551
524.853
516.291
512.287
761.533
750.668
730.597
705.489
695.591
701.393
711.513
702.446
671.861
640.041
612.476
599.195
584.999
572.769
554.972
535.84
520.794
509.935
500.282
775.62
751.778
737.969
803.26
846.837
861.129
874.021
885.138
884.239
867.275
921.37
909.947
897.627
887.695
881.734
876.596
868.428
853.133
827.584
810.846
791.171
777.749
781.858
648.651
613.308
646.334
768.259
840.911
868.362
877.998
892.106
912.423
939.708
946.155
933.522
908.652
892.438
889.121
883.711
870.042
849.409
828.602
808.447
793.563
784.124
774.567
306.718
222.255
299.85
481.799
658.94
778.129
861.022
901.15
923.999
935.187
866.056
823.753
911.744
907.714
906.192
892.499
843.663
684.403
564.775
552.803
599.969
538.237
377.704
16.419
5.9556
20.9117
73.3124
202.274
421.687
634.942
756.066
739.962
425.939
237.695
298.663
654.943
855.986
896.294
598.387
185.754
58.4374
32.3244
27.7932
63.4174
85.6025
54.2514
4.79923
2.87938
4.45474
4.30593
2.99551
7.30069
62.9245
103.17
93.3636
5.90382
2.07117
1.74851
1.62216
48.0268
145.503
140.286
37.7461
3.18197
3.48981
3.42437
3.39954
3.32272
3.29515
2.03785
1.55505
1.31504
1.69092
1.7842
1.62422
0.857033
-0.281699
-0.0227008
1.1432
1.42113
1.43512
1.44322
1.54237
1.67349
1.59678
1.70449
2.33251
4.33147
4.21699
3.42735
3.1557
3.15112
1.44849
1.16527
1.06923
0.945502
0.894318
1.74417
1.45406
-0.0915962
0.0379319
0.740489
1.96719
2.79257
2.13703
1.67769
1.6618
1.79088
2.12104
2.66519
5.08169
5.31944
5.67814
4.71678
3.42505
1.19913
0.908477
0.85782
0.728526
1.40954
1.58622
0.719785
-0.222731
-0.155088
0.546053
2.27734
2.69875
3.06858
3.31938
3.58758
2.66294
2.75281
2.60298
2.53692
3.88316
5.78432
6.38071
6.48976
1.02658
0.740932
0.654587
0.663673
1.52004
1.33589
0.110985
-0.342624
-0.239826
-0.0115154
-0.205788
-0.0774856
0.743219
2.49051
3.51491
4.16017
4.47297
4.55172
2.53325
2.50348
2.63809
5.08383
6.65677
0.928674
0.659045
0.453456
0.400637
1.19848
0.154676
-0.409205
-0.514195
-0.553078
-0.516334
-0.393334
-0.202163
-0.00285687
0.161247
0.31131
2.22443
4.08047
4.51284
4.79849
2.54005
2.6039
2.66077
6.85253
2.30476
0.61212
0.309638
0.199354
-0.069486
-0.401399
-0.571581
-0.740091
-0.835476
-0.818321
-0.669217
-0.403525
-0.110475
0.121215
0.277383
0.402292
0.561879
3.04336
5.0511
2.97716
2.66761
2.67601
6.01426
2.56449
0.696159
0.247044
-0.040924
-0.32714
-0.50438
-0.711467
-0.927398
-1.06439
-1.07244
-0.924329
-0.623956
-0.253348
0.0504978
0.239298
0.645436
0.648824
0.750959
3.37381
9.01435
4.60025
2.77011
7.74064
2.72288
0.911887
0.286795
-0.0324042
-0.326655
-0.547115
-0.767637
-0.991759
-1.14415
-1.15308
-1.03074
-0.746102
-0.354129
-0.0137366
0.226924
1.46545
1.02098
0.722979
1.74993
11.2522
11.1194
11.1864
11.0469
2.98966
1.05064
0.414823
0.0907958
-0.230374
-0.485433
-0.71113
-0.922383
-1.05301
-1.09993
-1.00309
-0.728276
-0.364354
-0.0283007
0.685762
1.52716
1.60969
0.779356
1.87195
11.6293
11.32
11.174
11.0194
3.30123
2.53386
0.630849
0.277247
-0.0492862
-0.324106
-0.543156
-0.725462
-0.870563
-0.923041
-0.840825
-0.606849
-0.265525
0.0282788
1.25706
1.60826
1.60502
0.868176
5.75359
11.7915
11.5981
11.3201
8.75273
3.56446
3.51352
1.1461
0.486598
0.169278
-0.10881
-0.312935
-0.498703
-0.629333
-0.668303
-0.594699
-0.359983
-0.0766712
0.150879
1.57366
1.7191
1.01956
1.00431
10.5952
12.0893
6.15248
0.448438
-0.00624844
1.63256
3.48817
2.60806
0.783394
0.409428
0.135888
-0.0833816
-0.255065
-0.359346
-0.358311
-0.233664
-0.0285607
0.160117
1.21379
1.68289
1.59691
0.884352
4.11952
10.9519
7.41224
-0.361064
-0.497425
-0.56688
1.31379
1.36574
2.69118
1.58908
0.6682
0.430832
0.23108
0.0860181
0.0234081
0.0610562
0.173278
0.298966
1.0211
2.04593
1.78692
0.488307
0.346096
5.93931
9.79725
2.4482
-0.201666
-0.290916
-0.306823
1.39397
1.49139
2.03346
1.87767
1.49901
0.839626
0.607436
0.43576
0.382467
0.401425
0.453942
0.978605
2.54005
2.20584
0.452647
0.303406
0.280713
1.34106
0.510495
4.15099
0.677639
0.0358434
0.00343702
5.76688
2.99573
1.66913
1.51417
1.61762
1.6208
1.24139
0.612648
0.515967
0.54241
1.50744
2.68883
2.59786
0.889757
0.336704
0.291786
0.275896
0.219721
0.539335
4.50729
3.99972
0.26786
0.243503
10.1457
9.91805
2.1893
1.28077
1.44009
2.32474
2.84907
2.03367
1.34486
2.4614
2.93655
2.4626
0.551959
0.396329
0.344256
0.299447
0.295113
0.251826
0.22731
0.291041
3.06405
0.387457
0.37949
10.1082
9.66022
3.49561
1.03339
3.89368
5.35079
5.27825
5.20786
5.1681
3.59941
1.21107
0.44944
0.415788
0.38887
0.35029
0.316499
0.312906
0.287486
0.274146
0.300988
0.342981
1.03168
0.961101
10.0991
9.1122
2.23754
0.938608
5.25353
5.25865
5.2274
4.50811
2.48256
0.646256
0.363865
0.40214
0.408251
0.38555
0.352224
0.331225
0.317353
0.297677
0.28639
0.303913
0.326733
0.893226
0.956774
9.19399
1.16786
2.06054
2.98323
2.57874
1.0254
1.57595
0.600769
0.199948
0.276797
0.347332
0.465193
0.463813
0.375366
0.368109
0.371395
0.340747
0.288093
0.269545
0.277088
0.294991
0.321927
0.364281
4.33056
0.917781
1.33029
3.31847
1.01167
0.140499
0.167161
0.270262
0.181191
0.232333
0.370816
0.415034
0.356743
0.322813
0.338815
0.342472
0.323948
0.286756
0.233621
0.23787
0.253385
0.260787
0.260481
10.4106
1.13606
1.17954
3.4164
0.862125
0.160971
0.132696
0.275602
0.127742
0.122161
0.1606
0.172095
0.217012
0.258946
0.253638
0.255362
0.265485
0.231724
0.177515
0.185455
0.206466
0.221653
0.228672
10.9054
1.2366
1.18613
3.51028
0.56791
0.159831
0.237887
0.215323
0.0609923
-0.0390066
0.0118469
0.0761002
0.159085
0.223332
0.190273
0.190697
0.199976
0.175258
0.140379
0.127095
0.158826
0.186172
0.202421
11.2718
1.65332
1.28924
3.26021
0.333187
0.142107
0.256465
0.149776
-0.0632933
-0.131757
-0.0787208
0.00110234
0.119712
0.167235
0.154923
0.16547
0.13621
0.11151
0.100408
0.0839908
0.120349
0.158098
0.188587
11.5779
9.17364
1.16526
2.91018
0.255366
0.125311
0.0650525
-0.00856633
-0.194672
-0.194275
-0.138071
-0.0508742
0.0808727
0.139583
0.103862
0.14675
0.0887924
0.0513741
0.0452938
0.0590736
0.10016
0.145618
0.219981
11.8784
9.20103
1.12927
1.98951
0.316787
0.120655
-0.00612109
-0.129835
-0.200221
-0.178459
-0.0158822
-0.0338637
0.0475049
0.137372
0.109057
0.157173
0.11096
0.055753
0.0476041
0.0640997
0.11751
0.187957
0.214045
12.1885
3.70896
1.15861
4.28879
0.415364
0.126799
0.0146491
-0.0839276
-0.14726
0.193079
0.351668
0.0442797
0.0662579
0.123801
0.137415
0.163812
0.166763
0.118866
0.101923
0.130479
0.164957
0.189015
0.198803
9.21356
1.22392
1.22504
4.38207
4.0291
0.227533
0.0563564
-0.00241219
-0.0128659
0.524946
0.360923
0.135966
0.42155
0.197981
0.164383
0.155734
0.194284
0.174761
0.164781
0.166894
0.17797
0.161131
0.144017
1.73207
1.71306
1.67391
3.12286
4.16319
1.35811
0.117659
0.113647
0.434232
0.491167
1.81976
2.77365
1.43596
0.158679
0.165327
0.154577
0.168319
0.184844
0.165238
0.133192
0.127596
0.126402
0.130622
2.46711
4.86188
5.04722
4.81559
3.30586
2.59294
0.418723
0.249482
0.290945
1.76564
9.29028
8.72881
1.29505
0.10738
0.13334
0.130669
0.122966
0.116164
0.11232
0.112106
0.113683
0.11573
0.117206
2.77397
11.363
11.3874
8.83641
0.718704
1.4098
0.462886
0.342469
2.40977
9.8452
9.56495
7.61321
0.469295
0.030595
0.0767537
0.0915377
0.0959486
0.0970447
0.0973944
0.098363
0.1006
0.101447
0.10219
0.13943
1.21393
11.5859
8.01057
-0.00284019
0.100636
0.231849
2.53934
10.136
9.9937
9.23868
0.847685
-0.092011
-0.00882769
0.0347209
0.0577039
0.0692377
0.0758334
0.0796575
0.0822106
0.0838955
0.0859173
0.0869029
0.0481687
-0.0281192
3.94541
7.14328
0.0594406
0.147728
0.240305
9.11303
10.2442
10.1121
0.361473
-0.123373
-0.0732855
-0.019957
0.0118022
0.0347752
0.0484484
0.0571937
0.062778
0.0664763
0.0689777
0.0709431
0.0720196
0.00587751
0.00840567
0.0123607
5.35446
0.133984
0.192147
6.3984
10.323
10.3727
0.702325
-0.0472458
-0.083178
-0.0509253
-0.0199041
0.00288622
0.0209165
0.0334329
0.0418104
0.0478472
0.0519394
0.054726
0.0566367
0.0577446
0.00428929
0.0128677
0.253253
3.27555
0.169674
5.49974
10.3604
10.2106
1.12513
0.136676
-0.0697901
-0.0550768
-0.0360993
-0.0169677
-0.00056643
0.012418
0.0223705
0.0295127
0.0349145
0.0387003
0.041311
0.0430511
0.0440738
-0.00308879
0.0172215
0.0229464
1.15094
12.6079
12.9171
8.85924
-0.000150712
-0.00412797
0.0298761
-0.0468873
-0.0368609
-0.0251224
-0.0130081
-0.00204674
0.00701814
0.0140976
0.0195615
0.0237073
0.0266928
0.0287772
0.0301658
0.0309926
-0.0109831
0.00427606
0.009165
-0.0315045
4.10122
11.493
-0.0205959
-0.0679231
-0.00307083
-0.0138234
-0.027986
-0.0219209
-0.0150783
-0.00814873
-0.001856
0.00350307
0.00780756
0.0111703
0.0137404
0.0156312
0.01697
0.0178705
0.0184153
-0.0286576
-0.0220862
-0.000576133
-0.0617435
-0.0843004
0.638285
-0.0348751
-0.040594
-0.0196968
-0.0150349
-0.0109455
-0.00812242
-0.00557024
-0.00315081
-0.00101199
0.000826676
0.00231367
0.00348916
0.00439512
0.00507008
0.00555436
0.00588235
0.00608172
774.552
769.115
764.03
760.844
755.312
703.559
660.657
655.457
333.062
323.762
318.706
325.871
19.7724
2.70971
2.66096
2.62323
17.8143
19.0886
6.12071
3.10087
2.95849
3.00229
3.87666
4.38115
2.89664
2.80032
2.76446
3.93232
4.10238
2.74599
2.64942
2.60024
4.81168
2.6607
2.59079
2.54449
8.21367
4.40781
2.5946
2.4809
10.3516
10.1537
3.76885
2.49895
10.9372
11.0111
11.0148
10.9266
10.9928
11.1647
10.9425
9.82771
11.1283
11.1989
7.88541
4.76036
4.43809
2.69933
0.549362
-0.331424
-0.623801
-0.658326
-0.589364
-0.512159
-0.548609
-0.502735
-0.45084
-0.404394
-0.284686
-0.277394
-0.259762
-0.252279
-0.0139473
-0.0409785
-0.0768531
-0.0398736
0.194623
0.144371
0.0842263
0.196041
0.323644
0.269115
0.204676
0.163154
0.68509
0.401666
0.293466
0.232679
0.922941
0.872601
0.782653
0.706952
0.504425
0.520868
0.537021
0.723336
0.255205
0.251261
0.248623
0.280598
0.228349
0.227728
0.227007
0.222943
0.207913
0.212578
0.212216
0.20895
0.240588
0.247304
0.223057
0.19737
0.23328
0.237277
0.226396
0.187717
0.223722
0.219369
0.184022
0.174849
0.182062
0.164118
0.161212
0.161778
0.14516
0.146681
0.147378
0.147302
0.132118
0.132563
0.132515
0.13203
0.117517
0.117455
0.117119
0.116502
0.102229
0.102065
0.101689
0.101093
0.0869995
0.0868769
0.0865637
0.0860622
0.072203
0.0721461
0.071917
0.0715385
0.0580215
0.058053
0.0579442
0.0576806
0.0443724
0.0444388
0.044385
0.0442139
0.0312571
0.0313322
0.031318
0.031219
0.0185988
0.0186572
0.0186601
0.0186108
0.00615024
0.00617305
0.00617576
0.00615921
763.263
768.58
744.599
684.649
684.421
705.141
720.277
710.532
678.958
630.211
589.685
559.382
520.649
462.544
383.54
305.035
241.412
181.824
152.887
667.312
669.092
661.224
683.334
698.386
693.119
667.005
642.744
502.432
375.844
253.923
153.524
66.5282
26.099
10.6578
3.94743
2.88185
2.83572
2.85715
337.587
354.136
390.494
409.991
371.734
248.613
159.941
111.69
117.887
101.859
70.9352
27.7683
4.00459
3.3491
3.32662
3.52211
2.82646
2.68248
2.73021
2.48309
2.20474
2.03438
1.97477
1.85776
1.69461
1.58849
1.55503
1.54393
1.4937
1.39015
1.78802
2.92031
2.99237
3.48136
4.55467
3.4917
2.51761
2.59474
3.63384
2.8913
1.87752
1.93639
2.03532
2.83798
2.78978
2.70873
1.63593
1.36775
1.62813
3.18534
3.71683
3.81398
4.02386
4.60152
4.61301
2.39565
2.46117
4.39173
4.12388
2.27362
2.09221
3.03326
2.82025
2.16241
1.25626
1.165
1.46285
2.43301
3.07962
2.10641
2.03958
2.04985
3.07281
4.66174
4.20011
2.31464
4.42611
4.23326
2.52861
1.4727
1.55698
1.25804
1.10303
1.01976
0.957486
1.49349
1.98499
1.89435
2.01186
1.96085
1.94491
1.94191
3.70483
4.65534
2.204
4.5818
3.55616
1.443
1.30835
1.20894
1.09554
1.00033
0.923198
0.848525
0.784962
0.771918
0.838948
1.61861
2.2716
2.34359
1.89379
1.89229
4.69448
4.384
3.23057
2.42517
1.25214
1.18839
1.19146
1.14722
0.920382
0.838047
0.788652
0.745309
0.73381
0.769901
1.01102
2.23311
2.37476
1.98219
2.13015
3.13311
2.91492
2.31026
1.27251
1.15575
1.13381
1.09863
1.01928
0.892291
0.747968
0.734136
0.71958
0.725387
0.767961
0.835126
1.37279
2.43418
2.55806
1.81455
1.7742
1.8598
3.15764
1.11094
0.990455
1.01869
0.920159
0.8154
0.654285
0.67587
0.80373
0.909514
0.929863
0.811911
0.847351
0.890075
1.67704
2.60523
2.36633
1.8154
1.87731
2.92597
0.83108
0.751194
0.792702
0.705358
0.593062
0.628688
1.30983
1.5613
1.60207
1.6522
1.5666
0.940843
0.869883
0.888136
2.56262
2.78901
1.8148
2.32101
2.12013
0.456307
0.548238
0.552101
0.470111
0.491924
1.31095
1.44718
1.50646
1.56332
1.63632
1.72801
1.74657
0.903113
0.840336
0.857885
2.76698
2.17503
3.5379
0.457681
0.107285
0.197368
0.276831
0.3419
1.06004
1.27623
1.38469
1.07865
0.926455
1.29421
1.6861
1.7522
1.01858
0.761851
0.782011
1.67332
3.57648
3.57259
-0.327152
-0.129814
-0.0679078
0.115195
0.842735
0.969637
0.776467
0.234886
0.249971
0.303685
0.356514
0.794602
0.92171
0.699787
0.676663
0.708848
0.71171
3.59099
3.62676
-0.39067
-0.272048
-0.220503
0.602422
0.72623
0.384135
0.0112301
0.105031
0.168834
0.213502
0.26379
0.332797
0.423146
0.514336
0.584623
0.628154
0.640744
2.45005
3.69899
-0.359639
-0.34824
0.0362608
0.53798
0.222753
-0.135316
-0.0234326
0.0522119
0.120383
0.165138
0.165453
0.214808
0.306768
0.402789
0.487813
0.548164
0.577005
1.47683
3.77386
-0.277361
-0.343785
0.157002
0.0730865
-0.29103
-0.139191
-0.0354742
0.298818
0.469281
0.21603
0.0377807
0.0944563
0.179121
0.28395
0.386219
0.466328
0.513809
1.41035
3.84132
-0.152855
0.150609
0.239076
-0.17265
-0.240395
-0.110836
0.280511
0.453502
0.44475
0.129688
-0.0298998
0.0127667
0.0832738
0.181714
0.290184
0.383583
0.443938
1.57457
3.83447
0.443928
0.337705
0.279484
-0.227906
-0.142087
0.0922825
0.489518
0.494453
0.460495
-0.00841493
-0.037244
-0.0126095
0.035034
0.115043
0.21331
0.306098
0.365525
2.41495
2.7732
0.426328
0.359481
-0.0448411
-0.12611
-0.0324433
0.552328
0.564711
0.558993
0.136445
0.0437808
0.0427933
0.0111185
0.0408518
0.0901012
0.164741
0.243865
0.293646
2.39884
2.33934
0.132037
0.0198925
-0.0202491
0.0223707
0.40721
0.629157
0.630011
0.458262
0.103122
0.413839
0.685309
0.296581
0.0630147
0.0917549
0.142422
0.202985
0.242358
2.25537
1.92625
0.324662
0.130181
0.110095
0.166116
0.684568
0.681714
0.412094
0.057136
0.0627941
0.816449
0.814349
0.827751
0.307296
0.107289
0.13961
0.182525
0.212525
1.56614
1.96013
0.500359
0.193834
0.170289
0.287583
0.635973
0.309359
0.100602
0.0800139
0.0670161
0.83863
0.824481
0.775783
0.815997
0.78191
0.229603
0.170139
0.199844
0.88842
4.1829
0.271781
0.214503
0.188201
0.229678
0.157149
0.137215
0.119848
0.10106
0.0912113
0.521221
0.607676
0.624358
0.663833
0.788315
0.345513
0.150209
0.19477
1.85889
4.48179
0.216553
0.204129
0.189936
0.178573
0.163364
0.146368
0.132039
0.118447
0.115858
0.109464
0.746373
1.30529
0.637193
0.220177
0.203824
0.146415
0.530747
4.37662
4.63017
0.20633
0.198347
0.187721
0.176215
0.162732
0.148376
0.135943
0.125314
0.123337
0.181764
2.27688
2.86451
2.8406
0.295166
0.196179
0.386411
3.99102
4.55423
4.68415
0.196429
0.1901
0.180695
0.170828
0.159543
0.145271
0.131452
0.119829
0.109607
0.249345
2.95333
2.92696
2.91469
1.79805
0.183275
3.17285
4.53705
4.50312
4.71208
0.18622
0.180637
0.173016
0.163691
0.151503
0.136779
0.121281
0.106949
0.0916982
0.0809826
1.51412
2.98402
2.96685
2.804
1.28688
4.60404
4.48315
4.5483
2.86899
0.174572
0.169232
0.161541
0.153156
0.140074
0.124543
0.108742
0.0920493
0.0736469
0.0501117
0.0395722
2.61716
3.02409
3.20672
3.31917
4.70395
4.65556
0.955196
0.73736
0.160988
0.155843
0.148203
0.138569
0.126831
0.112622
0.0961789
0.0780986
0.057756
0.0342807
0.00817638
-0.0146673
1.09695
2.63523
3.36466
2.93159
3.0568
0.629777
0.703767
0.146003
0.141249
0.134393
0.125645
0.114607
0.100815
0.084452
0.0657817
0.0440418
0.0185242
-0.0138088
-0.0455095
-0.0518622
0.837864
3.10215
2.43843
0.335826
0.572248
0.714595
0.130504
0.126251
0.120193
0.11235
0.10222
0.0894037
0.0738684
0.0552953
0.0323611
0.00272167
-0.0350101
-0.0721299
-0.0838515
-0.0584735
0.724991
2.07727
0.215052
1.6514
1.70917
0.114975
0.111233
0.105959
0.099006
0.0900294
0.0786338
0.0644307
0.0467041
0.0233711
-0.00878307
-0.0545609
-0.103953
-0.12663
-0.104435
-0.0635468
0.143487
0.186058
1.77845
1.67223
0.0997093
0.0964931
0.091977
0.0860181
0.0783436
0.0685122
0.0560121
0.0399798
0.0177454
-0.0110304
0.0269908
0.0191256
-0.164338
-0.150681
-0.100685
-0.0805184
0.170608
1.83101
0.474486
0.084903
0.0822299
0.0784491
0.0734863
0.0671287
0.0589628
0.048363
0.0348106
0.0153377
-0.00801047
0.904181
1.93052
0.934096
-0.132244
-0.13192
0.583997
0.389734
1.52794
-0.060836
0.0706642
0.0685005
0.0654267
0.0614231
0.056359
0.0499379
0.0416686
0.0306962
0.0152244
0.00945788
1.5042
2.14024
2.08287
1.95947
1.87165
1.84491
0.162892
0.0250727
-0.0438662
0.0569798
0.0552781
0.0528752
0.0497769
0.0459368
0.0412301
0.0352127
0.0272455
0.0163613
-0.00194746
0.54223
2.24487
2.17291
2.15967
2.17735
0.865465
-0.0330587
-0.0162495
-0.0334554
0.0437376
0.0424917
0.0407175
0.0384545
0.0357335
0.032531
0.0286238
0.0235634
0.0167889
0.00477574
-0.0213735
0.675458
1.76275
1.72539
0.398646
-0.0586962
-0.0148001
-0.00917787
-0.0256508
0.030918
0.0300793
0.0288753
0.0273611
0.0255888
0.0236621
0.0215384
0.0189093
0.0152929
0.0088001
-0.00234451
-0.00296584
0.0276051
0.0295815
-0.0388446
-0.0227043
-0.0114343
-0.0150638
-0.0181373
0.0184453
0.0179588
0.0172606
0.0164052
0.0154235
0.0144932
0.01369
0.0127682
0.0107801
0.00761958
0.00222002
-0.00544492
-0.0125528
-0.0157394
-0.0153995
-0.0127595
-0.0100451
-0.0116792
-0.0113295
0.00610169
0.0059307
0.00569176
0.00541856
0.00514604
0.00498816
0.0049864
0.00517564
0.00519024
0.00440224
0.00218258
-0.000848014
-0.00363315
-0.00553765
-0.0069248
-0.00677351
-0.00394376
-0.00335619
-0.00473954
)
;

boundaryField
{
    leftWall
    {
        type            fixedFluxPressure;
        gradient        uniform 0;
        value           nonuniform List<scalar> 
50
(
818.125
816.953
814.728
812.823
818.698
813.014
801.074
790.055
775.62
648.651
306.718
16.419
4.79923
2.03785
1.44849
1.19913
1.02658
0.928674
2.30476
2.56449
2.72288
2.98966
3.30123
3.56446
1.63256
1.31379
1.39397
5.76688
10.1457
10.1082
10.0991
9.19399
4.33056
10.4106
10.9054
11.2718
11.5779
11.8784
12.1885
9.21356
1.73207
2.46711
2.77397
0.13943
0.0481687
0.00587751
0.00428929
-0.00308879
-0.0109831
-0.0286576
)
;
    }
    rightWall
    {
        type            fixedFluxPressure;
        gradient        uniform 0;
        value           nonuniform List<scalar> 
50
(
518.526
517.608
516.079
510.872
517.462
518.325
512.287
500.282
152.887
2.85715
2.73021
2.59474
2.46117
2.31464
2.204
4.384
2.91492
1.8598
1.87731
2.32101
3.5379
3.57259
3.62676
3.69899
3.77386
3.84132
3.83447
2.7732
2.33934
1.92625
1.96013
4.1829
4.48179
4.63017
4.68415
4.71208
2.86899
0.73736
0.703767
0.714595
1.70917
1.67223
0.474486
-0.060836
-0.0438662
-0.0334554
-0.0256508
-0.0181373
-0.0113295
-0.00473954
)
;
    }
    lowerWall
    {
        type            fixedFluxPressure;
        gradient        uniform 0;
        value           nonuniform List<scalar> 
62
(
818.125
815.37
815.753
823.404
840.595
852.214
859.179
864.362
868.918
876.988
887.133
893.511
891.887
885.262
876.541
868.229
860.619
852.801
842.421
829.511
820.069
816.772
817.639
817.639
816.696
815.28
813.157
808.331
799.259
788.874
786.489
774.552
769.115
764.03
760.844
725.974
721.491
723.724
730.78
736.208
743.432
759.724
761.533
725.974
714.719
714.538
710.01
704.838
724.203
744.549
718.955
674.045
635.157
612.301
599.355
582.296
563.849
544.782
527.238
517.025
510.726
518.526
)
;
    }
    atmosphere
    {
        type            totalPressure;
        rho             rho;
        psi             none;
        gamma           1;
        p0              uniform 0;
        value           nonuniform List<scalar> 
46
(
-0.0360305
-0.0176315
-0.0024955
0
-0.0147846
0
-0.0623454
-0.0292003
-0.0163754
-0.00747736
-0.00340037
-0.00179376
-0.00103423
-0.000572952
-0.000427177
-0.000326403
-0.000255141
-0.000195832
-0.000141748
-9.99412e-05
-6.93838e-05
-4.99651e-05
-4.06967e-05
-4.04e-05
-4.17802e-05
-4.49466e-05
-4.99855e-05
-6.17591e-05
-9.07478e-05
-0.000124187
-0.000146249
-0.000127795
-5.31702e-05
0
0
0
0
0
0
0
0
0
0
0
-0.000248704
-0.00383018
)
;
    }
    defaultFaces
    {
        type            empty;
    }
}


// ************************************************************************* //
