/*--------------------------------*- C++ -*----------------------------------*\
| =========                 |                                                 |
| \\      /  F ield         | OpenFOAM: The Open Source CFD Toolbox           |
|  \\    /   O peration     | Version:  2.3.0                                 |
|   \\  /    A nd           | Web:      www.OpenFOAM.org                      |
|    \\/     M anipulation  |                                                 |
\*---------------------------------------------------------------------------*/
FoamFile
{
    version     2.0;
    format      ascii;
    class       surfaceScalarField;
    location    "2.35";
    object      phi;
}
// * * * * * * * * * * * * * * * * * * * * * * * * * * * * * * * * * * * * * //

dimensions      [0 3 -1 0 0 0 0];

internalField   nonuniform List<scalar> 
4432
(
1.5936e-06
-1.5936e-06
-1.72499e-06
3.3186e-06
-4.03277e-06
2.30777e-06
-8.31577e-06
4.283e-06
-1.35798e-05
5.26403e-06
-1.53893e-05
1.80954e-06
-1.75876e-05
2.19825e-06
-2.19235e-05
4.33589e-06
-2.67453e-05
4.82178e-06
-2.81179e-05
1.3726e-06
-2.46648e-05
-3.45308e-06
-1.93335e-05
-5.33137e-06
-1.51218e-05
-4.21167e-06
-1.33404e-05
-1.7814e-06
-1.40361e-05
6.95659e-07
-1.4951e-05
9.14967e-07
-1.36281e-05
-1.32295e-06
-1.09191e-05
-2.70894e-06
-9.14175e-06
-1.77739e-06
-8.9851e-06
-1.56652e-07
-8.02538e-06
-9.59709e-07
-4.56669e-06
-3.45867e-06
-4.5667e-06
-3.13655e-06
1.54294e-06
-6.32681e-06
6.50886e-06
-7.58502e-06
3.56598e-06
-1.12167e-05
7.91466e-06
-1.65492e-05
1.05965e-05
-2.11591e-05
6.41945e-06
-2.54728e-05
6.51195e-06
-2.95658e-05
8.42884e-06
-3.09967e-05
6.25272e-06
-2.86998e-05
-9.24408e-07
-2.40707e-05
-8.08208e-06
-1.95628e-05
-9.83931e-06
-1.67377e-05
-7.03675e-06
-1.58956e-05
-2.62356e-06
-1.58128e-05
6.12935e-07
-1.43977e-05
-5.00145e-07
-1.16562e-05
-4.06452e-06
-9.32199e-06
-5.0431e-06
-7.89793e-06
-3.20146e-06
-7.05567e-06
-9.98914e-07
-4.942e-06
-3.07338e-06
-1.84156e-06
-6.5591e-06
-6.40825e-06
-6.87687e-06
8.41981e-06
-1.13314e-05
1.09633e-05
-1.1114e-05
3.34863e-06
-1.12863e-05
8.0869e-06
-1.57941e-05
1.51044e-05
-2.08741e-05
1.14994e-05
-2.45313e-05
1.01692e-05
-2.73235e-05
1.1221e-05
-2.78342e-05
6.7635e-06
-2.53847e-05
-3.3739e-06
-2.03679e-05
-1.30989e-05
-1.57634e-05
-1.44438e-05
-1.3408e-05
-9.39217e-06
-1.22768e-05
-3.75475e-06
-1.1227e-05
-4.36824e-07
-9.44767e-06
-2.27949e-06
-7.00125e-06
-6.51094e-06
-5.21575e-06
-6.82862e-06
-3.96368e-06
-4.45353e-06
-2.26507e-06
-2.6975e-06
9.63288e-07
-6.30176e-06
2.3495e-06
-7.9453e-06
-4.05874e-06
-1.00624e-05
1.84822e-05
-1.56164e-05
1.65173e-05
-1.45161e-05
2.2484e-06
-1.12457e-05
4.81651e-06
-1.47266e-05
1.85853e-05
-1.95166e-05
1.62894e-05
-2.20121e-05
1.26647e-05
-2.41209e-05
1.33299e-05
-2.45987e-05
7.24128e-06
-2.17946e-05
-6.17805e-06
-1.56729e-05
-1.92206e-05
-1.07581e-05
-1.93586e-05
-8.76371e-06
-1.13866e-05
-7.92677e-06
-4.5917e-06
-6.83064e-06
-1.53295e-06
-4.92084e-06
-4.18929e-06
-2.69053e-06
-8.74123e-06
-9.86684e-07
-8.53246e-06
1.11821e-07
-5.55205e-06
3.56313e-06
-6.14881e-06
7.20065e-06
-9.93929e-06
5.68297e-06
-6.42761e-06
1.62422e-06
-1.05986e-05
2.90808e-05
-1.67326e-05
2.26513e-05
-1.70687e-05
2.58446e-06
-1.29348e-05
6.82648e-07
-1.36634e-05
1.93138e-05
-1.8311e-05
2.0937e-05
-1.99507e-05
1.43044e-05
-2.1332e-05
1.47112e-05
-2.10707e-05
6.97995e-06
-1.72356e-05
-1.00131e-05
-1.08168e-05
-2.56394e-05
-6.86077e-06
-2.33146e-05
-5.12146e-06
-1.31259e-05
-4.3108e-06
-5.40238e-06
-4.01773e-06
-1.826e-06
-2.79086e-06
-5.41614e-06
-9.99376e-07
-1.05327e-05
7.81527e-07
-1.03134e-05
3.00583e-06
-7.77635e-06
7.96842e-06
-1.11114e-05
1.08944e-05
-1.28653e-05
7.12759e-06
-2.66076e-06
8.7518e-06
-8.52363e-06
3.76044e-05
-1.41469e-05
2.82746e-05
-1.72378e-05
5.67538e-06
-1.54273e-05
-1.12791e-06
-1.34153e-05
1.73018e-05
-1.66956e-05
2.42173e-05
-1.77937e-05
1.54024e-05
-1.79564e-05
1.48739e-05
-1.63413e-05
5.36484e-06
-1.17327e-05
-1.46217e-05
-7.00004e-06
-3.03721e-05
-5.52272e-06
-2.47919e-05
-4.23406e-06
-1.44145e-05
-2.94319e-06
-6.69326e-06
-2.65536e-06
-2.11382e-06
-2.58784e-06
-5.48365e-06
-1.97897e-06
-1.11416e-05
-2.69042e-07
-1.20233e-05
3.75514e-06
-1.18005e-05
8.28074e-06
-1.5637e-05
8.9089e-06
-1.34935e-05
5.53293e-06
7.15212e-07
1.42847e-05
-5.10057e-06
4.2705e-05
-8.33425e-06
3.15082e-05
-1.21892e-05
9.53033e-06
-1.46174e-05
1.30025e-06
-1.22363e-05
1.49208e-05
-1.33495e-05
2.53306e-05
-1.46103e-05
1.66633e-05
-1.38614e-05
1.4125e-05
-1.15599e-05
3.06335e-06
-7.49343e-06
-1.86882e-05
-6.23786e-06
-3.16277e-05
-7.2287e-06
-2.38011e-05
-5.95045e-06
-1.56928e-05
-4.20063e-06
-8.44307e-06
-3.56114e-06
-2.7533e-06
-4.09779e-06
-4.947e-06
-4.10401e-06
-1.11354e-05
-2.05355e-06
-1.40737e-05
1.45775e-06
-1.53118e-05
2.56987e-06
-1.67491e-05
1.06059e-06
-1.19842e-05
1.11167e-06
6.64129e-07
1.53964e-05
-1.39525e-06
4.41002e-05
-1.67263e-06
3.17856e-05
-3.19533e-06
1.1053e-05
-7.39794e-06
5.50286e-06
-7.5602e-06
1.5083e-05
-7.91967e-06
2.569e-05
-9.49417e-06
1.82378e-05
-8.5307e-06
1.31615e-05
-5.98857e-06
5.21211e-07
-4.87989e-06
-1.97968e-05
-8.7517e-06
-2.77559e-05
-1.08746e-05
-2.16782e-05
-8.83646e-06
-1.77309e-05
-6.77726e-06
-1.05023e-05
-5.97709e-06
-3.55346e-06
-6.11094e-06
-4.81317e-06
-6.15258e-06
-1.10937e-05
-5.57583e-06
-1.46505e-05
-5.99728e-06
-1.48904e-05
-6.95448e-06
-1.57919e-05
-6.16281e-06
-1.27759e-05
-3.37351e-06
-2.12517e-06
1.20229e-05
9.70814e-06
-9.70814e-06
8.86756e-06
8.40571e-07
-3.77474e-06
1.26423e-05
-1.87721e-05
1.49974e-05
-2.15984e-05
2.82624e-06
-9.91775e-06
-1.16806e-05
7.74459e-06
-1.76623e-05
2.1133e-05
-1.33884e-05
2.79977e-05
-6.86469e-06
2.85799e-05
-5.82197e-07
2.61587e-05
2.42117e-06
2.25664e-05
3.59228e-06
1.4779e-05
7.78744e-06
5.2921e-06
9.4869e-06
-3.32376e-06
8.61586e-06
-6.97446e-06
3.65069e-06
-7.71718e-06
7.4272e-07
-7.23252e-06
-4.84663e-07
-7.23252e-06
3.02932e-06
-1.27375e-05
-3.40426e-06
7.27414e-06
-1.62389e-05
2.54769e-05
-2.34952e-05
2.22537e-05
-1.90254e-05
-1.64355e-06
-7.00956e-06
-2.36964e-05
7.77051e-06
-3.24424e-05
1.95227e-05
-2.51406e-05
2.6534e-05
-1.3876e-05
2.80037e-05
-2.05191e-06
2.62642e-05
4.16071e-06
2.39409e-05
5.91555e-06
1.66157e-05
1.51127e-05
5.53258e-06
2.057e-05
-3.92224e-07
1.45407e-05
-9.55086e-07
4.21355e-06
-2.30936e-06
2.09699e-06
-3.07424e-06
2.80227e-07
-1.03068e-05
-5.75507e-06
-6.9824e-06
-1.47288e-05
1.62479e-05
-2.08813e-05
3.16294e-05
-1.98766e-05
2.1249e-05
-1.37204e-05
-7.79978e-06
-3.98708e-06
-3.34297e-05
7.31243e-06
-4.37419e-05
1.6121e-05
-3.39491e-05
2.22309e-05
-1.9986e-05
2.35793e-05
-3.40025e-06
2.12706e-05
6.46941e-06
1.84365e-05
8.74957e-06
1.37741e-05
1.97751e-05
7.2671e-06
2.7077e-05
6.96714e-06
1.48406e-05
1.01651e-05
1.0156e-06
8.04866e-06
4.21342e-06
2.7e-06
5.62889e-06
-7.60676e-06
-9.99938e-06
3.01698e-06
-1.80241e-05
2.42726e-05
-1.85699e-05
3.21753e-05
-1.35365e-05
1.62155e-05
-6.24073e-06
-1.50956e-05
1.56204e-06
-4.12325e-05
7.37152e-06
-4.95514e-05
1.25482e-05
-3.91258e-05
1.74797e-05
-2.49175e-05
1.89259e-05
-4.8465e-06
1.66139e-05
8.78146e-06
1.33697e-05
1.19938e-05
1.13393e-05
2.18054e-05
1.03062e-05
2.81101e-05
1.18331e-05
1.33137e-05
1.32415e-05
-3.92731e-07
1.21023e-05
5.35255e-06
6.40232e-06
1.13289e-05
-1.20444e-06
-9.13008e-06
1.21471e-05
-1.45984e-05
2.97409e-05
-1.10546e-05
2.86315e-05
-2.98353e-06
8.14451e-06
4.75922e-06
-2.28383e-05
7.84124e-06
-4.43145e-05
8.23953e-06
-4.99497e-05
9.08803e-06
-3.99743e-05
1.20077e-05
-2.78372e-05
1.4123e-05
-6.96176e-06
1.28945e-05
1.001e-05
9.91793e-06
1.49703e-05
9.34911e-06
2.23742e-05
1.19404e-05
2.55189e-05
1.27976e-05
1.24565e-05
1.04358e-05
1.96906e-06
8.89272e-06
6.89566e-06
6.34052e-06
1.38811e-05
5.13607e-06
-4.89621e-06
1.70433e-05
-6.48409e-06
3.13288e-05
4.31867e-07
2.17155e-05
1.09837e-05
-2.40737e-06
1.60452e-05
-2.78998e-05
1.35223e-05
-4.17916e-05
8.90735e-06
-4.53347e-05
5.79042e-06
-3.68574e-05
5.57543e-06
-2.76222e-05
7.79202e-06
-9.17835e-06
8.40046e-06
9.40156e-06
7.16674e-06
1.6204e-05
8.04611e-06
2.14949e-05
1.17958e-05
2.17691e-05
1.15006e-05
1.27517e-05
7.70223e-06
5.76747e-06
5.35703e-06
9.24086e-06
4.91305e-06
1.43251e-05
1.00491e-05
-2.71017e-07
1.73143e-05
3.32606e-06
2.77317e-05
1.31047e-05
1.19368e-05
2.19746e-05
-1.12772e-05
2.26268e-05
-2.85521e-05
1.56212e-05
-3.4786e-05
8.14646e-06
-3.786e-05
2.33841e-06
-3.10493e-05
-8.28482e-07
-2.44553e-05
6.67244e-07
-1.06741e-05
2.86092e-06
7.20789e-06
3.70381e-06
1.53612e-05
5.82943e-06
1.93693e-05
8.96083e-06
1.86377e-05
8.33735e-06
1.33752e-05
4.75121e-06
9.35362e-06
2.60459e-06
1.13875e-05
2.6095e-06
1.43202e-05
1.26586e-05
2.4368e-06
1.48775e-05
1.1947e-05
1.82215e-05
2.20629e-05
1.82093e-06
2.64922e-05
-1.57065e-05
2.18484e-05
-2.39083e-05
1.34574e-05
-2.63951e-05
6.13297e-06
-3.05355e-05
-4.12572e-07
-2.45038e-05
-6.10841e-06
-1.87595e-05
-7.38877e-06
-9.3937e-06
-4.89973e-06
4.71885e-06
-2.59335e-06
1.30548e-05
3.41739e-07
1.64342e-05
2.71778e-06
1.62617e-05
2.03361e-06
1.40593e-05
-4.15192e-07
1.18024e-05
-1.57974e-06
1.2552e-05
-5.44804e-07
1.32853e-05
1.21138e-05
7.19491e-06
3.69053e-05
1.19032e-05
2.70773e-05
7.44027e-06
1.5516e-05
-2.52211e-06
1.54653e-05
-8.48672e-06
2.10476e-05
-6.74614e-06
2.39495e-05
-3.95863e-06
1.54502e-05
-9.60123e-08
9.29889e-06
-5.67585e-07
9.92772e-07
-1.57053e-05
-4.65918e-06
-3.55217e-05
-7.93943e-06
-3.82818e-05
-1.89181e-05
-3.19592e-05
-2.40535e-05
-2.67171e-05
-1.57445e-05
-2.31058e-05
-7.16472e-06
-2.33269e-05
-4.59212e-06
-2.97976e-05
-4.62303e-06
-3.86942e-05
-5.75393e-06
-4.35808e-05
-1.00038e-05
-4.27022e-05
-1.66705e-05
-3.78022e-05
-1.76758e-05
-2.98908e-05
-1.00366e-05
-2.02686e-06
-1.58411e-05
6.35861e-06
3.05467e-05
1.39032e-06
3.20456e-05
-1.19274e-05
2.88337e-05
-2.05667e-05
2.41046e-05
-1.97839e-05
2.02648e-05
-1.24761e-05
1.66417e-05
-8.59895e-06
1.1573e-05
-1.24763e-05
1.31763e-05
-2.89201e-05
1.74365e-05
-5.18644e-05
1.82852e-05
-6.52691e-05
5.46525e-06
-6.51378e-05
-1.90493e-05
-6.08872e-05
-2.83041e-05
-5.70934e-05
-1.95383e-05
-5.64829e-05
-7.77519e-06
-6.24213e-05
1.34628e-06
-7.18912e-05
4.84689e-06
-7.66529e-05
-9.92225e-07
-7.70654e-05
-9.59134e-06
-7.70248e-05
-1.67111e-05
-7.64294e-05
-1.82713e-05
-7.4464e-05
-1.20019e-05
-4.51753e-06
-7.19733e-05
-4.17178e-05
7.22645e-05
-6.31075e-05
5.34353e-05
-6.92447e-05
3.49709e-05
-6.7137e-05
2.19968e-05
-6.15464e-05
1.46742e-05
-5.32147e-05
8.30997e-06
-5.24207e-05
1.07791e-05
-6.05064e-05
2.1262e-05
-7.57317e-05
3.26618e-05
-9.54215e-05
3.7975e-05
-0.000107774
1.78174e-05
-0.000107293
-1.95299e-05
-9.89886e-05
-3.66085e-05
-9.27611e-05
-2.57658e-05
-8.85221e-05
-1.20142e-05
-8.7812e-05
6.36129e-07
-8.8906e-05
5.94088e-06
-9.12066e-05
1.30838e-06
-9.26369e-05
-8.16095e-06
-9.17172e-05
-1.76309e-05
-8.94767e-05
-2.05117e-05
-9.03177e-05
-1.1161e-05
-9.87241e-07
-9.3848e-05
-0.000134073
0.000206338
-0.000163293
8.26556e-05
-0.000153317
2.49945e-05
-0.000138042
6.72142e-06
-0.000120333
-3.03459e-06
-9.83063e-05
-1.37165e-05
-8.8757e-05
1.22968e-06
-9.22403e-05
2.47453e-05
-0.000103275
4.36962e-05
-0.000123459
5.81595e-05
-0.000136632
3.09899e-05
-0.000137125
-1.90366e-05
-0.000117092
-5.66415e-05
-0.000103695
-3.91632e-05
-9.02197e-05
-2.54892e-05
-7.53294e-05
-1.42541e-05
-6.96843e-05
2.95696e-07
-8.18523e-05
1.34764e-05
-7.9672e-05
-1.03412e-05
-7.04621e-05
-2.68407e-05
-5.30137e-05
-3.79601e-05
-2.43417e-05
-3.98329e-05
-4.56863e-05
2.03574e-05
-7.04366e-05
0.000276774
-0.000108215
0.000120434
-0.000127187
4.39666e-05
-0.00013561
1.51445e-05
-0.000135474
-3.1703e-06
-0.00013185
-1.73404e-05
-0.000113552
-1.7069e-05
-0.000111401
2.25944e-05
-0.000116402
4.86969e-05
-0.000131533
7.32913e-05
-0.000125784
2.52408e-05
-0.000115144
-2.96766e-05
-0.000121903
-4.98828e-05
-0.000104889
-5.61775e-05
-6.98398e-05
-6.05381e-05
-8.54197e-06
-7.55519e-05
8.84291e-06
-1.70892e-05
-5.3668e-05
7.59874e-05
-5.67818e-05
-7.22722e-06
-3.551e-05
-4.81123e-05
-2.23907e-05
-5.10796e-05
-1.82817e-05
-4.39419e-05
-5.63587e-05
-7.60897e-06
-3.94122e-05
0.000316186
-8.11692e-05
0.000162191
-0.000114736
7.75337e-05
-0.000138924
3.93319e-05
-0.000150787
8.69304e-06
-0.000155709
-1.2418e-05
-0.000166897
-5.88116e-06
-0.00016849
2.41875e-05
-0.000170241
5.04472e-05
-0.000145836
4.88867e-05
-0.000122426
1.83009e-06
-0.000110503
-4.1599e-05
-0.00010998
-5.04067e-05
-0.000121145
-4.50127e-05
-0.000125552
-5.61315e-05
-0.000137187
-6.3917e-05
-0.0001436
-1.06762e-05
-9.87374e-05
3.11254e-05
-7.06614e-05
-3.53033e-05
-4.69435e-05
-7.18303e-05
-1.96455e-05
-7.83778e-05
2.97559e-06
-6.65637e-05
-5.1552e-05
-1.83158e-06
-1.94076e-05
0.000335593
-6.59546e-05
0.000208738
-0.000105181
0.00011676
-0.000140003
7.41544e-05
-0.000162586
3.12767e-05
-0.000182505
7.5001e-06
-0.000199787
1.14011e-05
-0.000210013
3.44136e-05
-0.000199696
4.01297e-05
-0.000168287
1.7478e-05
-0.000137525
-2.89317e-05
-0.000125335
-5.37896e-05
-0.00012011
-5.56312e-05
-0.000114259
-5.08643e-05
-0.000115053
-5.5337e-05
-0.000120845
-5.81251e-05
-9.4086e-05
-3.74357e-05
-4.35708e-05
-1.93896e-05
-2.73908e-05
-5.14832e-05
-2.64615e-05
-7.27595e-05
-1.85833e-05
-8.62559e-05
5.52955e-06
-9.06766e-05
-7.89666e-05
3.29443e-05
6.76744e-06
0.000328826
-4.29788e-05
0.000258484
-8.71133e-05
0.000160894
-0.000122956
0.000109997
-0.000142944
5.12648e-05
-0.000159941
2.44973e-05
-0.000178938
3.03978e-05
-0.000186182
4.16575e-05
-0.000168827
2.27741e-05
-0.000140585
-1.07639e-05
-0.000125731
-4.3786e-05
-0.000123186
-5.6335e-05
-0.000117541
-6.12759e-05
-0.00010041
-6.79954e-05
-8.01882e-05
-7.55587e-05
-5.89341e-05
-7.93791e-05
-1.77984e-05
-7.85715e-05
3.59189e-05
-7.31071e-05
4.83796e-05
-6.39439e-05
3.57505e-05
-6.01305e-05
1.68397e-05
-6.73451e-05
1.37035e-05
-8.75405e-05
-9.86739e-05
3.34108e-05
3.61174e-05
0.000292709
-6.61252e-06
0.000301214
-5.70231e-05
0.000211305
-9.77247e-05
0.000150699
-0.000126214
7.97538e-05
-0.000148355
4.66389e-05
-0.00016456
4.66025e-05
-0.000165379
4.24766e-05
-0.000155216
1.26111e-05
-0.000140594
-2.53859e-05
-0.000128829
-5.55521e-05
-0.000114182
-7.09819e-05
-9.8337e-05
-7.71206e-05
-8.35893e-05
-8.27429e-05
-6.72429e-05
-9.19051e-05
-4.5178e-05
-0.000101444
-1.67667e-05
-0.000106983
2.28504e-05
-0.000112724
6.25563e-05
-0.00010365
7.67405e-05
-7.4315e-05
6.0519e-05
-5.11238e-05
3.47369e-05
-6.17585e-05
-9.59406e-05
3.20036e-05
5.32522e-05
0.000239457
2.77352e-05
0.000326731
-1.83266e-05
0.000257367
-5.97448e-05
0.000192117
-9.79626e-05
0.000117972
-0.000132604
8.12802e-05
-0.000157882
7.18811e-05
-0.000167753
5.23467e-05
-0.00016866
1.3518e-05
-0.000162864
-3.11817e-05
-0.000144798
-7.36182e-05
-0.000112491
-0.00010329
-7.47565e-05
-0.000114855
-4.59733e-05
-0.000111526
-2.99398e-05
-0.000107939
-1.63727e-05
-0.000115012
-5.15313e-06
-0.000118203
6.16417e-06
-0.000124042
3.20485e-05
-0.000129534
6.4288e-05
-0.000106555
7.74481e-05
-6.42842e-05
5.84693e-05
-4.27798e-05
-7.78507e-05
4.03794e-05
5.23087e-05
0.000187148
5.33352e-05
0.000325705
2.07541e-05
0.000289948
-1.49608e-05
0.000227832
-5.41289e-05
0.00015714
-8.88394e-05
0.000115991
-0.000113852
9.6893e-05
-0.000129099
6.7594e-05
-0.000136609
2.10275e-05
-0.000135654
-3.21369e-05
-0.000122599
-8.66733e-05
-9.43706e-05
-0.000131518
-5.56191e-05
-0.000153606
-1.7372e-05
-0.000149773
1.17117e-05
-0.000137023
2.81806e-05
-0.000131481
3.37342e-05
-0.000123756
2.73225e-05
-0.00011763
2.71759e-05
-0.000129388
4.63869e-05
-0.000125766
6.92421e-05
-8.71394e-05
7.55407e-05
-4.90784e-05
-6.0627e-05
5.8317e-05
4.16404e-05
0.000145508
6.62257e-05
0.00030112
5.40315e-05
0.000302141
3.03833e-05
0.00025148
1.19816e-06
0.000186324
-2.47388e-05
0.000141928
-4.22005e-05
0.000114355
-5.32778e-05
7.86714e-05
-6.18948e-05
2.96447e-05
-6.5386e-05
-2.86455e-05
-5.99389e-05
-9.21203e-05
-4.15032e-05
-0.000149953
-1.26244e-05
-0.000182485
1.83106e-05
-0.000180709
4.30858e-05
-0.000161798
6.0076e-05
-0.000148471
6.91689e-05
-0.000132849
6.24105e-05
-0.000110872
5.08755e-05
-0.000117853
5.2136e-05
-0.000127027
6.60752e-05
-0.000101079
8.52335e-05
-6.82367e-05
-5.33675e-05
7.79739e-05
3.22244e-05
0.000113283
7.19886e-05
0.000261356
8.09693e-05
0.00029316
7.21043e-05
0.000260345
5.49077e-05
0.000203521
4.05011e-05
0.000156334
3.23574e-05
0.000122499
2.75901e-05
8.34384e-05
2.32039e-05
3.40311e-05
1.95069e-05
-2.49485e-05
2.07902e-05
-9.34036e-05
3.06332e-05
-0.000159796
4.79069e-05
-0.000199759
6.67697e-05
-0.000199571
8.09729e-05
-0.000176001
8.65598e-05
-0.000154058
8.84114e-05
-0.0001347
8.4763e-05
-0.000107223
7.42443e-05
-0.000107334
6.89212e-05
-0.000121703
7.46868e-05
-0.000106844
8.5364e-05
-7.89138e-05
-5.17747e-05
8.37712e-05
2.8747e-05
8.45361e-05
7.57838e-05
0.000214319
0.000102259
0.000266685
0.000108581
0.000254024
0.000103756
0.000208346
9.84273e-05
0.000161662
9.7595e-05
0.000123331
9.8071e-05
8.29626e-05
9.74103e-05
3.46919e-05
9.63684e-05
-2.39066e-05
9.81282e-05
-9.51635e-05
0.000103321
-0.000164989
0.000108712
-0.00020515
0.000111647
-0.000202507
0.000110793
-0.000175147
0.000105425
-0.00014869
9.63632e-05
-0.000125639
8.43858e-05
-9.52458e-05
7.90879e-05
-0.000102036
7.45713e-05
-0.000117187
7.48274e-05
-0.0001071
7.82769e-05
-8.23632e-05
-4.74971e-05
7.39993e-05
3.25929e-05
5.19434e-05
7.988e-05
0.000167032
0.00011741
0.000229155
0.000136759
0.000234674
0.000142642
0.000202463
0.000144401
0.000159904
0.000147987
0.000119746
0.000152462
7.84876e-05
0.000156332
3.08214e-05
0.000161045
-2.86192e-05
0.000166211
-0.00010033
0.00016699
-0.000165769
0.000159102
-0.000197262
0.000143716
-0.00018712
0.000126206
-0.000157637
0.000109488
-0.000131972
8.76521e-05
-0.000103803
6.4623e-05
-7.22166e-05
6.32797e-05
-0.000100693
5.99067e-05
-0.000113814
5.98485e-05
-0.000107042
5.81903e-05
-8.07049e-05
-2.95028e-05
4.01959e-05
3.88571e-05
1.30862e-05
8.69595e-05
0.00011893
0.000129481
0.000186633
0.000158719
0.000205436
0.00017372
0.000187462
0.000181575
0.000152049
0.000188971
0.00011235
0.000197472
6.99865e-05
0.000207028
2.12649e-05
0.000217752
-3.93435e-05
0.000222837
-0.000105415
0.000214008
-0.000156939
0.000189179
-0.000172433
0.000157149
-0.00015509
0.000127143
-0.000127631
9.8698e-05
-0.000103526
5.95048e-05
-6.46099e-05
3.71902e-05
-4.99017e-05
3.80665e-05
-0.000101569
3.54491e-05
-0.000111196
3.81084e-05
-0.000109702
2.20027e-05
-6.45991e-05
1.98514e-05
-2.73515e-05
3.09014e-05
-1.78152e-05
8.97801e-05
6.00507e-05
0.00014376
0.000132653
0.000183336
0.00016586
0.000208225
0.000162573
0.00022439
0.000135883
0.000237642
9.90983e-05
0.000250582
5.70463e-05
0.000261922
9.92507e-06
0.00026899
-4.64117e-05
0.000261837
-9.8262e-05
0.000234179
-0.00012928
0.000191526
-0.00012978
0.000149759
-0.000113323
0.000116915
-9.47879e-05
8.3019e-05
-6.96297e-05
3.10663e-05
-1.26573e-05
1.51565e-05
-3.39918e-05
1.49656e-05
-0.000101378
1.38767e-05
-0.000110107
4.58224e-06
-0.000100407
-2.81194e-05
-3.18974e-05
7.13839e-05
-7.96523e-05
9.67335e-06
-2.74885e-05
6.81748e-05
1.5491e-06
0.000136697
6.41307e-05
0.000191788
0.00011077
0.00023252
0.000121841
0.000262124
0.000106279
0.000283483
7.77392e-05
0.000297588
4.29417e-05
0.000302453
5.05942e-06
0.000292785
-3.67431e-05
0.000263081
-6.85586e-05
0.00021478
-8.09791e-05
0.000164756
-7.97571e-05
0.000125753
-7.43196e-05
9.58804e-05
-6.49155e-05
6.16515e-05
-3.54004e-05
1.67387e-05
3.22555e-05
-8.33875e-07
-1.64191e-05
-7.917e-06
-9.42951e-05
-2.05381e-05
-9.74861e-05
-4.18591e-05
-7.9086e-05
-7.5735e-05
1.97866e-06
0.000101058
-0.000105409
1.69371e-05
-4.44259e-05
5.34221e-05
-3.49358e-05
9.85672e-05
1.89855e-05
0.000149766
5.95706e-05
0.000200556
7.10514e-05
0.000242666
6.4169e-05
0.000270342
5.00628e-05
0.000281775
3.15095e-05
0.000277568
9.26597e-06
0.000252562
-1.17376e-05
0.000208848
-2.48443e-05
0.000159979
-3.21101e-05
0.000121581
-4.13599e-05
9.34219e-05
-4.616e-05
6.97653e-05
-4.12591e-05
4.8914e-05
-1.45491e-05
2.9623e-05
5.15467e-05
4.35002e-06
8.8539e-06
-2.1458e-05
-6.84871e-05
-3.47256e-05
-8.42185e-05
-6.44058e-05
-4.94058e-05
-8.60395e-05
2.36124e-05
0.000114658
-9.96392e-05
4.09207e-05
-8.53467e-05
8.28313e-05
-7.68464e-05
9.90065e-05
2.81044e-06
0.000106132
5.24447e-05
0.000133103
4.40808e-05
0.000168843
2.84289e-05
0.000195294
2.36118e-05
0.000203149
2.36539e-05
0.000190415
2.20003e-05
0.000161298
1.73793e-05
0.000129209
7.24428e-06
0.000104206
-7.10682e-06
8.21146e-05
-1.92686e-05
6.11969e-05
-2.52424e-05
4.8889e-05
-2.89514e-05
4.28471e-05
-8.50728e-06
4.30155e-05
5.13783e-05
1.93499e-05
3.25195e-05
-1.73349e-05
-3.18021e-05
-3.04378e-05
-7.11156e-05
-5.15525e-05
-2.82911e-05
-7.29239e-05
4.49838e-05
0.000114145
-7.2411e-05
3.65972e-05
-0.000121944
7.25032e-05
-0.000112752
8.37972e-05
-8.48343e-06
5.7285e-05
7.89567e-05
6.07282e-05
4.06376e-05
7.77676e-05
1.13894e-05
9.45223e-05
6.85706e-06
0.000102814
1.53623e-05
0.000101927
2.28872e-05
9.5638e-05
2.36686e-05
8.58248e-05
1.70575e-05
6.63436e-05
1.23745e-05
4.60019e-05
1.07313e-06
3.42837e-05
-1.35242e-05
2.96438e-05
-2.43115e-05
3.2764e-05
-1.16275e-05
4.52147e-05
3.89277e-05
4.1923e-05
3.58113e-05
1.13922e-05
-1.27127e-06
-2.83415e-05
-3.13819e-05
-3.73057e-05
-1.93268e-05
-4.52382e-05
5.29164e-05
0.00010361
-3.47027e-05
3.69766e-05
-0.00015892
4.80635e-05
-0.000123839
2.86085e-05
1.09716e-05
1.36159e-05
9.39493e-05
3.57921e-05
1.84617e-05
5.55082e-05
-8.3267e-06
6.11315e-05
1.2338e-06
5.96112e-05
1.68826e-05
5.44803e-05
2.80181e-05
4.18903e-05
3.62586e-05
2.60798e-05
3.28679e-05
1.56492e-05
2.28051e-05
1.39118e-05
2.81036e-06
1.65048e-05
-1.61171e-05
1.66885e-05
-2.44952e-05
2.19749e-05
-1.69138e-05
4.22344e-05
1.86684e-05
5.1885e-05
2.61608e-05
3.93307e-05
1.12831e-05
4.65188e-06
3.297e-06
-1.92603e-05
4.58546e-06
-1.37726e-05
4.74287e-05
8.58121e-05
4.02537e-06
2.89295e-05
-0.00018785
9.55855e-06
-0.000104468
-2.2956e-05
4.34861e-05
3.27773e-06
6.77156e-05
3.85902e-05
-1.68507e-05
3.44583e-05
-4.19485e-06
1.96478e-05
1.60444e-05
3.19547e-06
3.3335e-05
-1.6428e-05
4.76415e-05
-3.11335e-05
5.0964e-05
-3.44761e-05
3.62104e-05
-2.39093e-05
1.22383e-05
-8.25298e-06
-1.2846e-05
5.04186e-06
-2.94119e-05
1.50065e-05
-3.44598e-05
2.30853e-05
-2.49923e-05
4.18523e-05
-9.85659e-08
5.32181e-05
1.4795e-05
4.71249e-05
1.73764e-05
3.06279e-05
1.97941e-05
8.65515e-06
2.65582e-05
1.0235e-05
4.58489e-05
6.85032e-05
2.75439e-05
5.77706e-06
-0.000193627
-3.42685e-05
-6.44228e-05
-4.55328e-05
5.47507e-05
-4.47487e-08
2.22278e-05
4.19627e-06
-2.10917e-05
-2.27898e-05
2.27913e-05
-4.68701e-05
4.01246e-05
-7.13458e-05
5.78106e-05
-8.67406e-05
6.30362e-05
-8.45026e-05
4.87259e-05
-6.89583e-05
2.06661e-05
-4.7021e-05
-9.69877e-06
-2.53648e-05
-3.45021e-05
-5.17868e-06
-4.95977e-05
1.39899e-05
-5.36282e-05
3.18529e-05
-4.28552e-05
5.04546e-05
-1.87002e-05
5.98137e-05
5.43588e-06
5.5525e-05
2.16649e-05
4.3629e-05
3.16903e-05
3.02448e-05
3.99425e-05
2.75913e-05
4.85025e-05
5.82354e-05
3.78593e-05
-1.23698e-05
-0.000181257
-5.1213e-05
-2.55796e-05
-4.18263e-05
4.53641e-05
-9.02504e-06
-1.05733e-05
-3.65366e-05
6.4198e-06
-6.56552e-05
5.191e-05
-9.35572e-05
6.80266e-05
-0.000112328
7.65811e-05
-0.000114511
6.52193e-05
-0.000100889
3.51042e-05
-7.92792e-05
-9.43859e-07
-5.6822e-05
-3.21558e-05
-3.39356e-05
-5.73884e-05
-1.10865e-05
-7.24467e-05
1.05924e-05
-7.5307e-05
3.21404e-05
-6.44032e-05
5.26385e-05
-3.91983e-05
6.54611e-05
-7.38678e-06
6.56722e-05
2.14537e-05
5.66588e-05
4.07037e-05
4.60386e-05
5.05628e-05
4.02621e-05
5.42791e-05
5.52968e-05
4.32007e-05
-1.55538e-05
-0.000165703
-3.94831e-05
-1.64998e-06
-3.36175e-05
3.94986e-05
-2.50372e-05
-1.91535e-05
-5.69891e-05
3.83716e-05
-8.40068e-05
7.89276e-05
-0.000106078
9.00983e-05
-0.000115991
8.6494e-05
-0.000110279
5.95069e-05
-9.46958e-05
1.9521e-05
-7.57289e-05
-1.99106e-05
-5.41304e-05
-5.37541e-05
-3.27791e-05
-7.87395e-05
-1.21641e-05
-9.30617e-05
7.59324e-06
-9.50643e-05
2.75823e-05
-8.43923e-05
4.61139e-05
-5.77301e-05
6.01845e-05
-2.14573e-05
6.62303e-05
1.54078e-05
6.31584e-05
4.37757e-05
5.56436e-05
5.80778e-05
4.92445e-05
6.06785e-05
5.67666e-05
4.77747e-05
-1.32035e-05
-0.0001525
-1.84666e-05
3.61336e-06
-2.48379e-05
4.58699e-05
-3.1005e-05
-1.29864e-05
-5.78359e-05
6.52024e-05
-7.93074e-05
0.000100399
-9.45902e-05
0.000105381
-9.84896e-05
9.03934e-05
-9.14588e-05
5.24761e-05
-7.83986e-05
6.46091e-06
-6.17312e-05
-3.6578e-05
-4.33992e-05
-7.20859e-05
-2.64911e-05
-9.56476e-05
-1.17214e-05
-0.000107831
2.74533e-06
-0.000109531
1.81937e-05
-9.98408e-05
3.28544e-05
-7.23908e-05
4.54339e-05
-3.40368e-05
5.44226e-05
6.41936e-06
5.70342e-05
4.11642e-05
5.48267e-05
6.02854e-05
5.10999e-05
6.44054e-05
5.86825e-05
4.91841e-05
-1.07826e-05
-0.000141717
-7.86743e-06
6.98153e-07
-1.73255e-05
5.53278e-05
-2.43136e-05
-5.9983e-06
-4.18735e-05
8.27623e-05
-5.76507e-05
0.000116176
-6.79531e-05
0.000115683
-6.99105e-05
9.23508e-05
-6.47082e-05
4.72738e-05
-5.48508e-05
-3.39634e-06
-4.20631e-05
-4.93656e-05
-2.87759e-05
-8.5373e-05
-1.76855e-05
-0.000106738
-1.00824e-05
-0.000115435
-3.19809e-06
-0.000116416
4.91464e-06
-0.000107953
1.40563e-05
-8.15323e-05
2.36036e-05
-4.3584e-05
3.22016e-05
-2.17855e-06
3.86846e-05
3.46813e-05
4.20115e-05
5.69585e-05
4.31082e-05
6.33085e-05
5.80306e-05
4.37601e-05
-1.09412e-05
-0.000130776
-8.72373e-06
-1.51947e-06
-1.42656e-05
6.08696e-05
-1.31318e-05
-7.13229e-06
-1.73811e-05
8.70116e-05
-2.71355e-05
0.000125931
-3.30176e-05
0.000121565
-3.45673e-05
9.39004e-05
-3.14275e-05
4.41341e-05
-2.51645e-05
-9.6593e-06
-1.6604e-05
-5.79261e-05
-9.12772e-06
-9.28492e-05
-4.93517e-06
-0.000110931
-5.19712e-06
-0.000115173
-7.05802e-06
-0.000114555
-7.96864e-06
-0.000107043
-6.40119e-06
-8.30995e-05
-1.61227e-06
-4.83728e-05
5.6145e-06
-9.4053e-06
1.38618e-05
2.6434e-05
2.12641e-05
4.95562e-05
2.74185e-05
5.71542e-05
5.373e-05
3.17192e-05
-1.29452e-05
-0.000117831
-1.44298e-05
-3.50466e-08
-1.31635e-05
5.96032e-05
-2.91975e-06
-1.73762e-05
6.81531e-06
7.72765e-05
5.27983e-06
0.000127466
2.30963e-06
0.000124536
2.70302e-06
9.3507e-05
5.2461e-06
4.1591e-05
9.53072e-06
-1.3944e-05
1.4389e-05
-6.27843e-05
1.65763e-05
-9.50365e-05
1.33275e-05
-0.000107682
4.47396e-06
-0.000106319
-6.49694e-06
-0.000103584
-1.60575e-05
-9.74823e-05
-2.17305e-05
-7.74266e-05
-2.27048e-05
-4.73983e-05
-1.8911e-05
-1.3199e-05
-1.0453e-05
1.79761e-05
-1.91187e-08
3.91225e-05
9.3255e-06
4.78098e-05
4.63243e-05
1.67314e-05
-1.89733e-05
-9.88578e-05
-2.65387e-05
7.53018e-06
-7.64434e-06
4.07088e-05
5.8537e-06
-3.08744e-05
2.78393e-05
5.52911e-05
3.33995e-05
0.000121906
3.3845e-05
0.00012409
3.62035e-05
9.11485e-05
3.91265e-05
3.8668e-05
4.36533e-05
-1.84708e-05
4.84862e-05
-6.76171e-05
4.82917e-05
-9.48419e-05
3.78575e-05
-9.72478e-05
1.93019e-05
-8.77632e-05
-6.88283e-07
-8.35934e-05
-1.77985e-05
-8.0372e-05
-2.9841e-05
-6.53841e-05
-3.57989e-05
-4.14404e-05
-3.50145e-05
-1.39834e-05
-2.8181e-05
1.11425e-05
-1.75153e-05
2.84569e-05
-6.13829e-06
3.64328e-05
3.61753e-05
4.01081e-06
-2.56985e-05
-7.31593e-05
-2.64388e-05
8.27027e-06
-2.42169e-06
1.66917e-05
9.59216e-06
-4.28883e-05
3.5329e-05
2.95544e-05
4.85856e-05
0.000108649
5.1292e-05
0.000121384
5.57697e-05
8.66707e-05
6.26902e-05
3.17475e-05
7.26729e-05
-2.84535e-05
8.29144e-05
-7.78585e-05
8.28723e-05
-9.47997e-05
6.51588e-05
-7.95344e-05
3.61164e-05
-5.87209e-05
8.4222e-06
-5.58992e-05
-1.36997e-05
-5.82501e-05
-2.96489e-05
-4.94349e-05
-3.86861e-05
-3.24032e-05
-4.01667e-05
-1.25027e-05
-3.48886e-05
5.86448e-06
-2.50751e-05
1.86435e-05
-1.34014e-05
2.47592e-05
2.47775e-05
-2.00338e-06
-2.72834e-05
-4.58759e-05
-5.79977e-06
-1.32138e-05
2.0723e-05
-9.83106e-06
2.00877e-05
-4.22531e-05
3.54123e-05
1.42299e-05
4.83557e-05
9.5706e-05
5.38676e-05
0.000115872
6.15101e-05
7.90281e-05
7.50753e-05
1.81825e-05
9.55232e-05
-4.89014e-05
0.000111036
-9.33715e-05
0.000108383
-9.2146e-05
8.26621e-05
-5.38137e-05
4.63896e-05
-2.24484e-05
1.5827e-05
-2.53366e-05
-6.9568e-06
-3.54664e-05
-2.3174e-05
-3.32178e-05
-3.26622e-05
-2.2915e-05
-3.51572e-05
-1.00077e-05
-3.08352e-05
1.54261e-06
-2.23879e-05
1.01963e-05
-1.2044e-05
1.44153e-05
1.52605e-05
-2.52678e-06
-2.67745e-05
-1.91014e-05
4.51706e-06
-4.45055e-05
3.82779e-05
-4.35919e-05
3.57505e-05
-3.97257e-05
3.19575e-05
1.80228e-05
3.66635e-05
9.1e-05
4.23254e-05
0.00011021
5.28645e-05
6.84892e-05
7.76654e-05
-6.61823e-06
0.000105141
-7.63767e-05
0.000113957
-0.000102188
0.000103332
-8.15211e-05
7.29387e-05
-2.34203e-05
4.06204e-05
9.86977e-06
1.63929e-05
-1.10921e-06
-1.70646e-06
-1.7367e-05
-1.45717e-05
-2.03527e-05
-2.1946e-05
-1.55409e-05
-2.3674e-05
-8.27969e-06
-2.07097e-05
-1.42163e-06
-1.44443e-05
3.93098e-06
-7.65496e-06
7.62604e-06
9.30935e-06
-1.70364e-06
-2.24552e-05
3.35379e-06
-8.14831e-06
-5.88124e-05
1.68883e-05
-6.86285e-05
2.41939e-05
-4.70312e-05
1.19493e-05
3.02673e-05
1.32473e-05
8.97019e-05
1.5481e-05
0.000107976
3.93159e-05
4.46546e-05
7.76222e-05
-4.49243e-05
9.69243e-05
-9.56787e-05
9.20473e-05
-9.73106e-05
6.52536e-05
-5.47275e-05
3.41368e-05
7.69647e-06
1.84603e-05
2.55462e-05
9.86239e-06
7.48849e-06
2.11048e-07
-7.71582e-06
-7.71726e-06
-1.24244e-05
-1.24101e-05
-1.08481e-05
-1.3573e-05
-7.11662e-06
-1.20314e-05
-2.96315e-06
-8.83646e-06
7.36122e-07
-5.04801e-06
3.83769e-06
5.40332e-06
-1.14186e-06
2.24591e-06
1.10788e-06
-7.72922e-06
-4.88372e-05
-5.09864e-06
-7.12591e-05
-6.64219e-06
-4.54876e-05
-1.91427e-05
4.27678e-05
-1.69901e-05
8.75493e-05
3.78479e-07
9.06075e-05
4.83769e-05
-3.34368e-06
7.95658e-05
-7.6113e-05
7.99769e-05
-9.60898e-05
5.38018e-05
-7.11355e-05
1.208e-05
-1.30057e-05
-3.17398e-06
2.29503e-05
2.22086e-06
2.01512e-05
4.302e-06
5.40727e-06
8.5851e-07
-4.27243e-06
-3.33281e-06
-8.23313e-06
-6.23121e-06
-7.94954e-06
-7.41372e-06
-5.93394e-06
-7.08581e-06
-3.2909e-06
-5.74177e-06
-6.07768e-07
-3.46223e-06
1.55828e-06
2.71995e-06
-7.7873e-07
2.34921e-05
-2.2384e-05
8.30496e-06
-3.36499e-05
-1.50948e-05
-4.78592e-05
-3.14874e-05
-2.9095e-05
-4.4697e-05
5.59775e-05
-3.49243e-05
7.77765e-05
1.99655e-05
3.57179e-05
6.52171e-05
-4.85952e-05
7.36512e-05
-8.45471e-05
5.03957e-05
-7.28343e-05
3.17883e-06
-2.39188e-05
-2.08059e-05
1.09789e-05
-1.25695e-05
1.47137e-05
-1.02092e-06
8.60249e-06
2.46111e-06
1.92508e-06
1.45241e-06
-3.26387e-06
-9.82519e-07
-5.7982e-06
-2.9189e-06
-6.01306e-06
-4.14965e-06