/*--------------------------------*- C++ -*----------------------------------*\
| =========                 |                                                 |
| \\      /  F ield         | OpenFOAM: The Open Source CFD Toolbox           |
|  \\    /   O peration     | Version:  2.3.0                                 |
|   \\  /    A nd           | Web:      www.OpenFOAM.org                      |
|    \\/     M anipulation  |                                                 |
\*---------------------------------------------------------------------------*/
FoamFile
{
    version     2.0;
    format      ascii;
    class       volVectorField;
    location    "2.35";
    object      U;
}
// * * * * * * * * * * * * * * * * * * * * * * * * * * * * * * * * * * * * * //

dimensions      [0 1 -1 0 0 0 0];

internalField   nonuniform List<vector> 
2268
(
(0.0236709 -0.0160303 0)
(0.00690813 0.00423147 0)
(-0.0476817 0.0106813 0)
(-0.0499313 0.0157289 0)
(-0.124588 0.0148292 0)
(-0.177764 0.00188718 0)
(-0.182222 0.00326391 0)
(-0.222191 0.0128202 0)
(-0.284505 0.0179495 0)
(-0.327539 0.00857759 0)
(-0.30858 -0.00912199 0)
(-0.248257 -0.0179771 0)
(-0.191778 -0.015897 0)
(-0.156003 -0.00793071 0)
(-0.153117 0.00251248 0)
(-0.171042 0.00593246 0)
(-0.169379 -0.00188319 0)
(-0.136084 -0.00871692 0)
(-0.111227 -0.0057833 0)
(-0.108331 0.000531659 0)
(-0.10354 -0.000578414 0)
(-0.0729135 -0.00940239 0)
(-0.0241519 -0.0145333 0)
(-0.027735 -0.00389439 0)
(-0.0534825 0.0286173 0)
(-0.0850913 0.0140958 0)
(-0.0973962 0.0321884 0)
(-0.143228 0.0418968 0)
(-0.227748 0.0203576 0)
(-0.261887 0.0235461 0)
(-0.320989 0.03616 0)
(-0.361161 0.0312936 0)
(-0.349162 0.00214976 0)
(-0.298108 -0.0311005 0)
(-0.244935 -0.0414281 0)
(-0.201686 -0.0302596 0)
(-0.181729 -0.00997278 0)
(-0.184544 0.00560366 0)
(-0.181962 0.00255328 0)
(-0.147576 -0.0139295 0)
(-0.111755 -0.0213993 0)
(-0.0973634 -0.0129031 0)
(-0.0938057 -0.00232779 0)
(-0.0751792 -0.011452 0)
(-0.034035 -0.0318546 0)
(-0.00115764 -0.0370414 0)
(-0.0627869 0.024829 0)
(-0.107185 0.0491119 0)
(-0.14366 0.024028 0)
(-0.120245 0.0496266 0)
(-0.127236 0.068835 0)
(-0.223844 0.0478654 0)
(-0.256892 0.0453279 0)
(-0.304488 0.0529622 0)
(-0.328954 0.0344341 0)
(-0.309684 -0.0114932 0)
(-0.258888 -0.0551335 0)
(-0.199424 -0.06398 0)
(-0.161558 -0.0439632 0)
(-0.145097 -0.0163852 0)
(-0.138306 0.00153476 0)
(-0.124958 -0.00804279 0)
(-0.0923087 -0.0296449 0)
(-0.0611551 -0.0325652 0)
(-0.0523223 -0.0206842 0)
(-0.0480343 -0.00939624 0)
(-0.0106486 -0.0234132 0)
(0.0321199 -0.0410015 0)
(0.0295415 -0.0324713 0)
(-0.0865754 0.0718857 0)
(-0.158056 0.0723412 0)
(-0.191639 0.015606 0)
(-0.139134 0.0376495 0)
(-0.117361 0.0926211 0)
(-0.209451 0.0748216 0)
(-0.234607 0.0624434 0)
(-0.26952 0.0667583 0)
(-0.292932 0.0381916 0)
(-0.27358 -0.0246674 0)
(-0.209166 -0.0856038 0)
(-0.141763 -0.0905756 0)
(-0.106833 -0.0555373 0)
(-0.0943539 -0.0228932 0)
(-0.0901669 -0.00629352 0)
(-0.07171 -0.0162642 0)
(-0.0417831 -0.039609 0)
(-0.015662 -0.0412773 0)
(-0.00226158 -0.0275036 0)
(0.00323227 -0.0217615 0)
(0.0729534 -0.0419213 0)
(0.0881119 -0.0394066 0)
(0.0553115 -0.0084871 0)
(-0.0899611 0.126379 0)
(-0.171679 0.0992664 0)
(-0.204691 0.00705197 0)
(-0.167507 0.0115779 0)
(-0.123516 0.105537 0)
(-0.193028 0.100342 0)
(-0.216513 0.0733948 0)
(-0.240549 0.0763742 0)
(-0.26024 0.0382575 0)
(-0.228546 -0.0446582 0)
(-0.146091 -0.123052 0)
(-0.0944648 -0.119369 0)
(-0.0679544 -0.0682514 0)
(-0.0514889 -0.0272072 0)
(-0.0506792 -0.0106006 0)
(-0.04436 -0.0284203 0)
(-0.01898 -0.0539956 0)
(-0.00243228 -0.0519334 0)
(0.0214023 -0.0337122 0)
(0.044737 -0.0412822 0)
(0.126138 -0.0631368 0)
(0.115005 -0.0269396 0)
(0.0656902 0.0275547 0)
(-0.0736976 0.179715 0)
(-0.142926 0.134836 0)
(-0.179825 0.0179413 0)
(-0.185386 -0.00281648 0)
(-0.154473 0.104776 0)
(-0.170139 0.121864 0)
(-0.19636 0.0803713 0)
(-0.209834 0.081039 0)
(-0.216009 0.0337256 0)
(-0.166787 -0.066279 0)
(-0.0808185 -0.156575 0)
(-0.0743515 -0.136098 0)
(-0.0595775 -0.0776496 0)
(-0.0408347 -0.0341714 0)
(-0.028761 -0.0102202 0)
(-0.0313805 -0.0296422 0)
(-0.0263614 -0.0595943 0)
(-0.0193613 -0.0585354 0)
(0.0160095 -0.0499017 0)
(0.0699805 -0.0766101 0)
(0.106616 -0.0789871 0)
(0.0849615 -0.00499632 0)
(0.0595392 0.0587852 0)
(-0.0489991 0.219804 0)
(-0.0861844 0.165805 0)
(-0.108518 0.0436156 0)
(-0.140632 -0.00331385 0)
(-0.175805 0.0899306 0)
(-0.128628 0.138504 0)
(-0.161857 0.0858607 0)
(-0.169447 0.078421 0)
(-0.164832 0.0216373 0)
(-0.104719 -0.0905495 0)
(-0.0494036 -0.176247 0)
(-0.0923724 -0.134892 0)
(-0.0815477 -0.0819772 0)
(-0.0595776 -0.0424873 0)
(-0.0366606 -0.0137117 0)
(-0.0401284 -0.02818 0)
(-0.0524948 -0.0586749 0)
(-0.0421764 -0.070231 0)
(-5.72912e-05 -0.0795757 0)
(0.0336217 -0.0964161 0)
(0.0171823 -0.0716184 0)
(-0.000759854 0.00964384 0)
(0.0369739 0.0926388 0)
(-0.0218546 0.242493 0)
(-0.0202019 0.171844 0)
(-0.0198125 0.0535754 0)
(-0.0403551 0.017741 0)
(-0.118264 0.0718497 0)
(-0.0728524 0.1394 0)
(-0.102527 0.0927919 0)
(-0.110297 0.0712013 0)
(-0.102193 0.0073771 0)
(-0.0304926 -0.110477 0)
(-0.0678804 -0.16601 0)
(-0.138361 -0.120647 0)
(-0.119041 -0.0860997 0)
(-0.0896751 -0.0486621 0)
(-0.0644098 -0.0164366 0)
(-0.065237 -0.0252056 0)
(-0.0739914 -0.0614288 0)
(-0.0651601 -0.0843238 0)
(-0.0564782 -0.0861847 0)
(-0.0781895 -0.0836225 0)
(-0.0937816 -0.060078 0)
(-0.063467 -0.0005794 0)
(0.00495811 0.0790202 0)
(0.0591014 -0.0390047 0)
(0.139984 -0.0195154 0)
(0.0771042 0.0181153 0)
(-0.167772 0.0458339 0)
(-0.287209 0.0153141 0)
(-0.182054 -0.0331592 0)
(-0.0105679 -0.0515722 0)
(0.166804 -0.0379869 0)
(0.288826 -0.017872 0)
(0.339958 -0.000586284 0)
(0.322145 0.00512449 0)
(0.2864 0.00818296 0)
(0.227978 0.0187556 0)
(0.118131 0.0245213 0)
(-0.00420673 0.024703 0)
(-0.0695075 0.0121544 0)
(-0.090778 0.00391989 0)
(-0.100607 -1.5315e-05 0)
(-0.0428092 -0.0241631 0)
(0.0227941 -0.06834 0)
(0.030102 0.0210641 0)
(-0.0900988 0.0957485 0)
(-0.292725 0.0949917 0)
(-0.269268 0.00544357 0)
(-0.139311 -0.088994 0)
(0.0044981 -0.129338 0)
(0.155246 -0.100673 0)
(0.267976 -0.0540324 0)
(0.327386 -0.0067815 0)
(0.320626 0.0154878 0)
(0.288813 0.022675 0)
(0.262004 0.0540644 0)
(0.124633 0.0722765 0)
(-0.00654129 0.0561589 0)
(-0.000764893 0.0196897 0)
(-0.0148074 0.00292989 0)
(-0.0513575 -0.00839946 0)
(-0.00286253 -0.052844 0)
(-0.0348938 -0.0492635 0)
(-0.112023 0.0633053 0)
(-0.213941 0.146926 0)
(-0.279658 0.109223 0)
(-0.191685 -0.0237966 0)
(-0.0967003 -0.145143 0)
(0.023812 -0.195145 0)
(0.129259 -0.151235 0)
(0.219248 -0.086022 0)
(0.276716 -0.014471 0)
(0.27222 0.025182 0)
(0.220036 0.0355294 0)
(0.209725 0.0850925 0)
(0.105231 0.116777 0)
(0.0503897 0.0742845 0)
(0.112781 0.0157251 0)
(0.12974 0.0190732 0)
(0.037123 0.0134301 0)
(0.0343115 -0.0490001 0)
(-0.0572773 -0.00896873 0)
(-0.180265 0.103185 0)
(-0.235265 0.160614 0)
(-0.20786 0.0917117 0)
(-0.113974 -0.0617335 0)
(-0.00792623 -0.19332 0)
(0.0520869 -0.236609 0)
(0.1047 -0.184221 0)
(0.164642 -0.112794 0)
(0.221083 -0.0200784 0)
(0.222685 0.0372274 0)
(0.16123 0.0506633 0)
(0.153142 0.104693 0)
(0.103412 0.141328 0)
(0.124745 0.0734225 0)
(0.145468 -0.00418951 0)
(0.159937 0.0191685 0)
(0.10364 0.0420583 0)
(0.0541665 -0.0186518 0)
(-0.0433119 0.0376728 0)
(-0.168246 0.130985 0)
(-0.177204 0.146997 0)
(-0.0960397 0.0550344 0)
(0.0203502 -0.0981057 0)
(0.103051 -0.216437 0)
(0.0919045 -0.248617 0)
(0.0871066 -0.197254 0)
(0.105059 -0.132663 0)
(0.156867 -0.0303072 0)
(0.175363 0.0452219 0)
(0.123536 0.0661236 0)
(0.108487 0.11069 0)
(0.110812 0.136241 0)
(0.154761 0.06146 0)
(0.128291 3.50131e-06 0)
(0.110874 0.0301256 0)
(0.0921381 0.0645869 0)
(0.0574255 0.0102861 0)
(-0.0109462 0.0740202 0)
(-0.0989226 0.149869 0)
(-0.0626709 0.124999 0)
(0.066934 0.0148733 0)
(0.18807 -0.118834 0)
(0.19994 -0.209287 0)
(0.123572 -0.23331 0)
(0.0729755 -0.189192 0)
(0.0464142 -0.13796 0)
(0.0727033 -0.0410613 0)
(0.111369 0.0481013 0)
(0.0869591 0.0777598 0)
(0.0790206 0.108964 0)
(0.113347 0.115284 0)
(0.148089 0.0613031 0)
(0.105379 0.0208708 0)
(0.0668427 0.040077 0)
(0.0607456 0.0689959 0)
(0.0496661 0.03783 0)
(0.0090882 0.0850414 0)
(-0.0128175 0.149942 0)
(0.0734442 0.0872235 0)
(0.209358 -0.0335878 0)
(0.297312 -0.138235 0)
(0.240417 -0.184584 0)
(0.126824 -0.199856 0)
(0.0550727 -0.164703 0)
(-0.00887835 -0.127761 0)
(-0.0170597 -0.0513058 0)
(0.0334366 0.0388994 0)
(0.0362066 0.0771038 0)
(0.0486319 0.0997771 0)
(0.0905769 0.0956846 0)
(0.109419 0.0605331 0)
(0.0722354 0.0329129 0)
(0.0350227 0.0493075 0)
(0.0258988 0.0710778 0)
(0.0338302 0.0584393 0)
(0.00489174 0.0891485 0)
(0.0610075 0.129506 0)
(0.188971 0.0419351 0)
(0.29867 -0.0665525 0)
(0.313281 -0.128786 0)
(0.2064 -0.144929 0)
(0.10439 -0.163796 0)
(0.0361224 -0.131921 0)
(-0.0513841 -0.102482 0)
(-0.0988735 -0.0448972 0)
(-0.0657405 0.0356226 0)
(-0.0414655 0.0766251 0)
(-0.0129882 0.092924 0)
(0.0240851 0.0891549 0)
(0.0365353 0.0720135 0)
(0.00746008 0.0571849 0)
(-0.0187539 0.0594365 0)
(-0.0188131 0.0625864 0)
(0.00849287 0.0548827 0)
(0.0114869 0.241579 0)
(0.0501746 0.202056 0)
(0.0675674 0.0913019 0)
(0.0300817 0.0446123 0)
(-0.0537359 0.0846828 0)
(-0.0445523 0.136874 0)
(-0.0317807 0.119204 0)
(-0.00779179 0.0848951 0)
(0.000913226 0.000346793 0)
(-0.00122813 -0.0935575 0)
(-0.158692 -0.0988475 0)
(-0.226922 -0.0961631 0)
(-0.195644 -0.102747 0)
(-0.15892 -0.0644294 0)
(-0.125335 -0.0250912 0)
(-0.113873 -0.033176 0)
(-0.136003 -0.0583992 0)
(-0.180367 -0.0551594 0)
(-0.224077 -0.0510776 0)
(-0.245729 -0.0771606 0)
(-0.231297 -0.0785738 0)
(-0.184452 -0.0273268 0)
(-0.105502 0.021341 0)
(0.00243416 0.12972 0)
(0.0555815 0.0764305 0)
(-0.0346774 0.0748858 0)
(-0.0990276 0.114442 0)
(-0.110927 0.127218 0)
(-0.0884374 0.111106 0)
(-0.0539237 0.048976 0)
(-0.0447757 0.0261443 0)
(-0.0781392 0.0235187 0)
(-0.224797 0.0555658 0)
(-0.332566 0.0306057 0)
(-0.364187 -0.0852037 0)
(-0.350936 -0.146116 0)
(-0.314454 -0.110953 0)
(-0.288935 -0.057471 0)
(-0.304945 -0.0127067 0)
(-0.36511 0.0124134 0)
(-0.407764 -0.00180737 0)
(-0.414769 -0.0549518 0)
(-0.416423 -0.103693 0)
(-0.415032 -0.113046 0)
(-0.403779 -0.0800758 0)
(-0.386779 -0.0347703 0)
(-0.200269 0.18249 0)
(-0.297117 0.21148 0)
(-0.371578 0.181681 0)
(-0.367794 0.133458 0)
(-0.335961 0.10738 0)
(-0.302355 0.0716008 0)
(-0.284046 0.0554487 0)
(-0.284577 0.0903222 0)
(-0.345556 0.133857 0)
(-0.466739 0.129673 0)
(-0.566023 0.021242 0)
(-0.595708 -0.12472 0)
(-0.555762 -0.173815 0)
(-0.507278 -0.116279 0)
(-0.480515 -0.0420459 0)
(-0.467915 0.0210611 0)
(-0.475136 0.0336666 0)
(-0.488882 -0.0150524 0)
(-0.497888 -0.0686812 0)
(-0.494373 -0.0886416 0)
(-0.47665 -0.0734979 0)
(-0.476445 -0.0371618 0)
(-0.49981 -0.0227213 0)
(-0.687421 0.660049 0)
(-0.872023 0.320134 0)
(-0.856644 0.170663 0)
(-0.77819 0.0839822 0)
(-0.670873 0.0385565 0)
(-0.562462 0.0310435 0)
(-0.484253 0.0842419 0)
(-0.463571 0.167874 0)
(-0.508451 0.234956 0)
(-0.619042 0.235177 0)
(-0.735658 0.0922014 0)
(-0.751494 -0.138194 0)
(-0.664611 -0.213752 0)
(-0.585549 -0.125514 0)
(-0.516105 -0.0569572 0)
(-0.452502 -0.00647339 0)
(-0.391923 0.0353709 0)
(-0.389209 0.0192055 0)
(-0.456196 -0.0421881 0)
(-0.399126 -0.1248 0)
(-0.328172 -0.151045 0)
(-0.220592 -0.0784342 0)
(-0.0580943 0.00403687 0)
(-0.388473 1.33919 0)
(-0.475041 0.523236 0)
(-0.64994 0.114521 0)
(-0.70761 0.000120926 0)
(-0.742147 -0.0768018 0)
(-0.74317 -0.153745 0)
(-0.630324 -0.0487037 0)
(-0.588568 0.151578 0)
(-0.608431 0.27875 0)
(-0.67615 0.347968 0)
(-0.718993 0.169662 0)
(-0.625569 -0.134296 0)
(-0.660797 -0.351579 0)
(-0.601627 -0.270906 0)
(-0.479901 -0.189685 0)
(-0.262858 -0.123991 0)
(0.116838 -0.0376596 0)
(-0.00310578 0.210432 0)
(-0.468993 0.0084987 0)
(-0.21891 -0.141185 0)
(-0.166141 -0.241919 0)
(-0.116683 -0.315415 0)
(-0.0508797 -0.414373 0)
(-0.226549 1.66519 0)
(-0.274413 0.828378 0)
(-0.543472 0.352797 0)
(-0.699309 0.15588 0)
(-0.773078 0.0269076 0)
(-0.813883 -0.0815756 0)
(-0.902316 -0.101402 0)
(-0.947849 0.15218 0)
(-0.877366 0.344673 0)
(-0.834201 0.447828 0)
(-0.745205 0.194013 0)
(-0.623319 -0.0991919 0)
(-0.591575 -0.245649 0)
(-0.589133 -0.345719 0)
(-0.64295 -0.484993 0)
(-0.77807 -0.588075 0)
(-0.802649 -0.0501771 0)
(-0.556662 0.385188 0)
(-0.530031 -0.142092 0)
(-0.281014 -0.374165 0)
(-0.196224 -0.344721 0)
(-0.0383278 -0.224615 0)
(0.0901575 -0.274528 0)
(-0.112345 1.82178 0)
(-0.152659 1.01531 0)
(-0.483625 0.531839 0)
(-0.670863 0.306177 0)
(-0.811659 0.102843 0)
(-0.951743 -0.0202023 0)
(-1.06468 -0.0156746 0)
(-1.12575 0.0802941 0)
(-1.10924 0.169893 0)
(-0.978357 0.142809 0)
(-0.803357 -0.151422 0)
(-0.697445 -0.300243 0)
(-0.662427 -0.263883 0)
(-0.620469 -0.180864 0)
(-0.613774 -0.176984 0)
(-0.646474 -0.213 0)
(-0.58432 -0.103952 0)
(-0.396822 0.0429241 0)
(-0.157584 -0.263224 0)
(-0.112143 -0.434884 0)
(-0.136799 -0.493727 0)
(-0.0547305 -0.455128 0)
(0.129719 -0.307696 0)
(0.0120506 1.8382 0)
(-0.00707235 1.25896 0)
(-0.379915 0.741143 0)
(-0.585372 0.487589 0)
(-0.730051 0.211855 0)
(-0.826715 0.0963675 0)
(-0.92931 0.138047 0)
(-1.00897 0.229186 0)
(-0.966251 0.175309 0)
(-0.81571 0.017102 0)
(-0.693785 -0.188324 0)
(-0.662594 -0.307315 0)
(-0.65936 -0.342309 0)
(-0.596315 -0.350061 0)
(-0.480247 -0.363939 0)
(-0.372564 -0.383051 0)
(-0.208453 -0.343359 0)
(0.0328765 -0.226379 0)
(0.274579 -0.222535 0)
(0.263259 -0.315303 0)
(0.135936 -0.433307 0)
(0.0560858 -0.521168 0)
(0.104067 -0.510817 0)
(0.137082 1.70735 0)
(0.167729 1.53288 0)
(-0.207837 0.99024 0)
(-0.438421 0.680508 0)
(-0.616633 0.327489 0)
(-0.751947 0.163705 0)
(-0.866028 0.184756 0)
(-0.902993 0.217313 0)
(-0.858073 0.0838164 0)
(-0.787085 -0.101792 0)
(-0.729565 -0.237708 0)
(-0.65372 -0.285919 0)
(-0.562022 -0.333442 0)
(-0.500703 -0.411192 0)
(-0.404236 -0.485851 0)
(-0.292551 -0.52408 0)
(-0.166054 -0.544359 0)
(-0.00215359 -0.559078 0)
(0.213205 -0.462391 0)
(0.423966 -0.309223 0)
(0.415284 -0.275361 0)
(0.244481 -0.409477 0)
(0.150906 -0.555175 0)
(0.19399 1.4445 0)
(0.321846 1.71947 0)
(0.00811437 1.26607 0)
(-0.228602 0.919751 0)
(-0.424587 0.523315 0)
(-0.625855 0.335859 0)
(-0.810903 0.315335 0)
(-0.892368 0.23597 0)
(-0.908189 0.0493222 0)
(-0.900252 -0.169435 0)
(-0.837197 -0.354793 0)
(-0.692431 -0.459832 0)
(-0.49903 -0.481394 0)
(-0.321442 -0.476113 0)
(-0.192029 -0.514433 0)
(-0.118616 -0.590073 0)
(-0.0440347 -0.639508 0)
(-0.00177841 -0.688021 0)
(0.0730755 -0.684681 0)
(0.246603 -0.504142 0)
(0.429326 -0.278581 0)
(0.399569 -0.245982 0)
(0.254806 -0.479689 0)
(0.132544 1.13099 0)
(0.395393 1.78785 0)
(0.198799 1.50005 0)
(-0.00192249 1.14715 0)
(-0.172025 0.744434 0)
(-0.38199 0.532505 0)
(-0.577888 0.442155 0)
(-0.678534 0.297025 0)
(-0.727058 0.0659224 0)
(-0.741892 -0.208606 0)
(-0.69772 -0.472656 0)
(-0.58098 -0.669676 0)
(-0.399151 -0.74937 0)
(-0.194032 -0.710325 0)
(-0.0101448 -0.642027 0)
(0.1166 -0.64474 0)
(0.195544 -0.632274 0)
(0.163414 -0.652519 0)
(0.145106 -0.724371 0)
(0.158859 -0.670767 0)
(0.309502 -0.412004 0)
(0.431861 -0.214833 0)
(0.379063 -0.354318 0)
(0.0436616 0.884736 0)
(0.387143 1.71989 0)
(0.33768 1.62918 0)
(0.213784 1.31335 0)
(0.0961048 0.938676 0)
(-0.0641653 0.698995 0)
(-0.210861 0.567585 0)
(-0.285939 0.385667 0)
(-0.323408 0.124979 0)
(-0.348488 -0.189858 0)
(-0.333228 -0.511331 0)
(-0.263269 -0.788477 0)
(-0.137231 -0.934557 0)
(0.0130233 -0.91462 0)
(0.156741 -0.826456 0)
(0.292451 -0.775792 0)
(0.355076 -0.697423 0)
(0.367446 -0.602023 0)
(0.30898 -0.668471 0)
(0.253805 -0.697349 0)
(0.298849 -0.534697 0)
(0.419043 -0.330156 0)
(0.461815 -0.289223 0)
(-0.00594088 0.695821 0)
(0.343699 1.53649 0)
(0.437201 1.63693 0)
(0.407011 1.40354 0)
(0.350523 1.06902 0)
(0.25877 0.816309 0)
(0.174205 0.650556 0)
(0.136518 0.450599 0)
(0.123279 0.186986 0)
(0.107409 -0.134585 0)
(0.109668 -0.501045 0)
(0.15102 -0.848408 0)
(0.224432 -1.0531 0)
(0.305048 -1.05022 0)
(0.386694 -0.936251 0)
(0.464564 -0.828307 0)
(0.472166 -0.73935 0)
(0.471738 -0.595842 0)
(0.433896 -0.602556 0)
(0.365857 -0.665579 0)
(0.372812 -0.574275 0)
(0.430207 -0.411203 0)
(0.465792 -0.28855 0)
(0.00261785 0.548039 0)
(0.303247 1.28786 0)
(0.508658 1.5345 0)
(0.570605 1.41311 0)
(0.577574 1.13237 0)
(0.545426 0.87578 0)
(0.513459 0.680261 0)
(0.508946 0.469876 0)
(0.512396 0.209176 0)
(0.511472 -0.110027 0)
(0.527675 -0.49542 0)
(0.564373 -0.876087 0)
(0.590511 -1.10654 0)
(0.589908 -1.10973 0)
(0.58816 -0.970657 0)
(0.586843 -0.833539 0)
(0.545228 -0.720643 0)
(0.490231 -0.569396 0)
(0.438348 -0.5639 0)
(0.388451 -0.637153 0)
(0.397692 -0.578101 0)
(0.410669 -0.444171 0)
(0.411521 -0.28713 0)
(0.0574062 0.397115 0)
(0.290562 1.0407 0)
(0.555816 1.34813 0)
(0.693627 1.33632 0)
(0.758868 1.12649 0)
(0.774408 0.882129 0)
(0.778126 0.667385 0)
(0.796864 0.447224 0)
(0.818091 0.189693 0)
(0.841927 -0.128228 0)
(0.888525 -0.519571 0)
(0.927052 -0.895951 0)
(0.901566 -1.10148 0)
(0.813281 -1.07454 0)
(0.713608 -0.912132 0)
(0.634341 -0.769278 0)
(0.531437 -0.634454 0)
(0.412374 -0.473972 0)
(0.328383 -0.540325 0)
(0.305588 -0.620934 0)
(0.321525 -0.57025 0)
(0.320238 -0.434038 0)
(0.276613 -0.222019 0)
(0.106922 0.191517 0)
(0.331697 0.79069 0)
(0.587574 1.12683 0)
(0.789074 1.19495 0)
(0.90388 1.05993 0)
(0.958465 0.845855 0)
(0.990648 0.626217 0)
(1.02958 0.399079 0)
(1.07372 0.14098 0)
(1.13795 -0.181616 0)
(1.20674 -0.558969 0)
(1.21365 -0.883351 0)
(1.1061 -1.01768 0)
(0.925813 -0.940418 0)
(0.747321 -0.775278 0)
(0.614114 -0.638986 0)
(0.435625 -0.458582 0)
(0.236985 -0.310492 0)
(0.175704 -0.533837 0)
(0.182158 -0.604159 0)
(0.20141 -0.548597 0)
(0.183093 -0.404605 0)
(0.0239601 -0.0790929 0)
(0.0220004 -0.081226 0)
(0.334796 0.490604 0)
(0.635173 0.900316 0)
(0.890251 1.03193 0)
(1.06321 0.965562 0)
(1.16707 0.79072 0)
(1.23854 0.577599 0)
(1.30525 0.345524 0)
(1.37221 0.0790183 0)
(1.44126 -0.235014 0)
(1.46205 -0.558641 0)
(1.37063 -0.788419 0)
(1.1518 -0.830924 0)
(0.898287 -0.720881 0)
(0.697063 -0.594934 0)
(0.550973 -0.47051 0)
(0.317556 -0.225139 0)
(0.0813398 -0.191379 0)
(0.0545406 -0.552089 0)
(0.0633757 -0.596871 0)
(0.0753422 -0.638495 0)
(-0.0207667 -0.333251 0)
(-0.274182 0.258872 0)
(-0.095595 -0.134907 0)
(0.198713 0.134247 0)
(0.561434 0.554895 0)
(0.890922 0.787012 0)
(1.15285 0.816558 0)
(1.33706 0.702626 0)
(1.46947 0.519428 0)
(1.56534 0.30065 0)
(1.62706 0.0489353 0)
(1.62813 -0.221909 0)
(1.53197 -0.461114 0)
(1.30572 -0.580584 0)
(0.998801 -0.556847 0)
(0.757539 -0.489805 0)
(0.579729 -0.42262 0)
(0.449589 -0.286236 0)
(0.188906 0.0682155 0)
(0.0288544 -0.151631 0)
(-0.04719 -0.521956 0)
(-0.06459 -0.587853 0)
(-0.150558 -0.50683 0)
(-0.30784 -0.0457413 0)
(-0.480344 0.513695 0)
(0.00122893 -0.138992 0)
(0.18452 -0.09136 0)
(0.378209 0.145278 0)
(0.663575 0.402297 0)
(0.950413 0.506618 0)
(1.2007 0.47177 0)
(1.3907 0.361292 0)
(1.50159 0.21044 0)
(1.5288 0.0313168 0)
(1.45839 -0.148473 0)
(1.26863 -0.277517 0)
(0.980867 -0.301211 0)
(0.726257 -0.302127 0)
(0.562828 -0.30964 0)
(0.428713 -0.282908 0)
(0.340864 -0.119755 0)
(0.206078 0.249593 0)
(0.106907 -0.0532122 0)
(-0.068135 -0.463162 0)
(-0.152829 -0.467446 0)
(-0.242405 -0.343483 0)
(-0.417276 0.102438 0)
(-0.504719 0.619926 0)
(0.0769562 -0.356135 0)
(0.335896 -0.289474 0)
(0.512475 0.0783317 0)
(0.546435 0.236144 0)
(0.629723 0.232761 0)
(0.799282 0.188466 0)
(0.985593 0.143406 0)
(1.09804 0.0978565 0)
(1.0931 0.0475659 0)
(0.975104 0.00925097 0)
(0.762166 -0.00797778 0)
(0.612934 -0.0620624 0)
(0.49806 -0.147163 0)
(0.382994 -0.189866 0)
(0.26897 -0.176492 0)
(0.25842 -0.0447989 0)
(0.223373 0.306035 0)
(0.204393 0.141939 0)
(-0.00820737 -0.301293 0)
(-0.151155 -0.395408 0)
(-0.171884 -0.139362 0)
(-0.370803 0.178568 0)
(-0.399926 0.634936 0)
(0.0817573 -0.550814 0)
(0.266612 -0.572595 0)
(0.469898 -0.0631313 0)
(0.435078 0.312655 0)
(0.271136 0.253342 0)
(0.333891 0.128387 0)
(0.459372 0.099214 0)
(0.546534 0.12606 0)
(0.57045 0.146129 0)
(0.535148 0.13268 0)
(0.494602 0.0647064 0)
(0.429199 -0.00771882 0)
(0.290561 -0.0429565 0)
(0.196145 -0.0919131 0)
(0.153652 -0.133207 0)
(0.165998 -0.0414984 0)
(0.208057 0.273439 0)
(0.247611 0.223149 0)
(0.194907 -0.0618073 0)
(-0.0799415 -0.344434 0)
(-0.178696 -0.132706 0)
(-0.231099 0.273084 0)
(-0.229311 0.58813 0)
(0.113976 -0.767744 0)
(0.217043 -0.684494 0)
(0.271574 -0.0656643 0)
(0.102849 0.47608 0)
(0.0795444 0.171579 0)
(0.245703 -0.0197144 0)
(0.325306 -0.0374184 0)
(0.334294 0.0382417 0)
(0.316487 0.113561 0)
(0.273636 0.1409 0)
(0.188187 0.125841 0)
(0.105332 0.127008 0)
(0.062227 0.0468154 0)
(0.0765394 -0.063489 0)
(0.0867722 -0.119552 0)
(0.0887414 -0.0753959 0)
(0.169421 0.171171 0)
(0.258412 0.191393 0)
(0.276281 0.0565506 0)
(0.165551 -0.0290269 0)
(-0.0997639 -0.0697794 0)
(-0.102393 0.27697 0)
(-0.0365329 0.508143 0)
(0.102437 -0.965522 0)
(0.125848 -0.665805 0)
(-0.00376415 0.156718 0)
(-0.159462 0.508146 0)
(0.155422 -0.00324045 0)
(0.233152 -0.0982689 0)
(0.142925 0.0401367 0)
(0.0589056 0.127047 0)
(-0.0231702 0.191992 0)
(-0.131495 0.25068 0)
(-0.193331 0.229391 0)
(-0.16703 0.133214 0)
(-0.0967084 -0.00797359 0)
(-0.00966726 -0.0969265 0)
(0.059151 -0.132023 0)
(0.102926 -0.0956782 0)
(0.165203 0.0388047 0)
(0.258457 0.0953299 0)
(0.292532 0.0686019 0)
(0.236957 0.0571389 0)
(0.100023 0.0966997 0)
(0.010671 0.228769 0)
(0.089223 0.401527 0)
(0.0437227 -1.06183 0)
(-0.0449213 -0.463006 0)
(-0.24957 0.343462 0)
(-0.135507 0.272443 0)
(0.103584 -0.154549 0)
(-0.0441282 0.0623956 0)
(-0.194703 0.158333 0)
(-0.319398 0.256198 0)
(-0.433994 0.32649 0)
(-0.477679 0.300916 0)
(-0.421203 0.171361 0)
(-0.314258 0.00740825 0)
(-0.198298 -0.125084 0)
(-0.0847784 -0.205073 0)
(0.024005 -0.226015 0)
(0.127706 -0.166895 0)
(0.222323 -0.0414871 0)
(0.299461 0.059628 0)
(0.326287 0.109837 0)
(0.281836 0.141005 0)
(0.201696 0.183266 0)
(0.130244 0.243018 0)
(0.162819 0.325312 0)
(-0.0129613 -1.02258 0)
(-0.172036 -0.198733 0)
(-0.297504 0.295688 0)
(-0.0742877 -0.0132338 0)
(-0.0681431 -0.0476708 0)
(-0.278213 0.207343 0)
(-0.441858 0.298604 0)
(-0.571321 0.378768 0)
(-0.631336 0.36182 0)
(-0.589676 0.227791 0)
(-0.482701 0.0458244 0)
(-0.364077 -0.122885 0)
(-0.243293 -0.255998 0)
(-0.120941 -0.336231 0)
(-0.00148671 -0.353874 0)
(0.113729 -0.294776 0)
(0.226222 -0.161635 0)
(0.323449 -0.0028688 0)
(0.3693 0.124436 0)
(0.34328 0.202443 0)
(0.277442 0.245739 0)
(0.218605 0.274379 0)
(0.214681 0.296239 0)
(-0.0367684 -0.924594 0)
(-0.161033 -0.0386692 0)
(-0.232729 0.21642 0)
(-0.0902098 -0.11052 0)
(-0.204784 0.125869 0)
(-0.38737 0.356628 0)
(-0.527503 0.431041 0)
(-0.624072 0.445095 0)
(-0.62637 0.332971 0)
(-0.552227 0.136877 0)
(-0.454202 -0.0623325 0)
(-0.345136 -0.240815 0)
(-0.229088 -0.378736 0)
(-0.11848 -0.460537 0)
(-0.0141441 -0.473585 0)
(0.0917935 -0.414159 0)
(0.194023 -0.273567 0)
(0.286646 -0.0856939 0)
(0.353597 0.0986328 0)
(0.364523 0.231547 0)
(0.32488 0.296305 0)
(0.275185 0.310435 0)
(0.254033 0.298626 0)
(-0.0516673 -0.854136 0)
(-0.0804901 0.0107342 0)
(-0.155796 0.214076 0)
(-0.0759659 -0.0804062 0)
(-0.239418 0.290397 0)
(-0.378661 0.489189 0)
(-0.486965 0.530324 0)
(-0.547283 0.47485 0)
(-0.521169 0.293897 0)
(-0.453474 0.0606697 0)
(-0.370631 -0.162885 0)
(-0.275483 -0.351516 0)
(-0.181062 -0.483827 0)
(-0.0986121 -0.55768 0)
(-0.0267698 -0.568447 0)
(0.0519343 -0.51433 0)
(0.130498 -0.367824 0)
(0.20693 -0.163522 0)
(0.276663 0.052934 0)
(0.315926 0.228183 0)
(0.310548 0.323042 0)
(0.283097 0.34139 0)
(0.265303 0.313392 0)
(-0.0677404 -0.79367 0)
(-0.0245875 0.00421682 0)
(-0.0950441 0.268446 0)
(-0.0501777 -0.0512753 0)
(-0.185498 0.40814 0)
(-0.277517 0.589271 0)
(-0.357532 0.597767 0)
(-0.397869 0.487129 0)
(-0.367325 0.258103 0)
(-0.31522 -0.00178077 0)
(-0.249874 -0.245011 0)
(-0.181774 -0.436391 0)
(-0.116573 -0.557867 0)
(-0.0691716 -0.615761 0)
(-0.037017 -0.624308 0)
(-0.000402932 -0.576329 0)
(0.0420808 -0.430422 0)
(0.093757 -0.223537 0)
(0.153435 0.00471798 0)
(0.205312 0.201413 0)
(0.228267 0.319521 0)
(0.230509 0.35047 0)
(0.231459 0.319869 0)
(-0.0830384 -0.737589 0)
(-0.0380576 0.00513881 0)
(-0.078699 0.307776 0)
(-0.0372346 -0.00803433 0)
(-0.0820971 0.470588 0)
(-0.127495 0.657497 0)
(-0.176548 0.643094 0)
(-0.206745 0.499115 0)
(-0.180836 0.237954 0)
(-0.145806 -0.0440241 0)
(-0.100322 -0.298076 0)
(-0.059203 -0.489246 0)
(-0.0287537 -0.596812 0)
(-0.0214185 -0.632756 0)
(-0.0332469 -0.634547 0)
(-0.0472779 -0.590233 0)
(-0.0486895 -0.451888 0)
(-0.0296922 -0.253622 0)
(0.00907989 -0.0319221 0)
(0.0625372 0.166478 0)
(0.103549 0.292228 0)
(0.13425 0.331139 0)
(0.158705 0.306646 0)
(-0.105037 -0.680872 0)
(-0.0493516 -0.0152435 0)
(-0.0995082 0.335707 0)
(-0.0199666 -0.0827478 0)
(0.00631688 0.46814 0)
(0.0387058 0.696903 0)
(0.0145033 0.668344 0)
(-0.00199101 0.511421 0)
(0.0219691 0.235274 0)
(0.0426111 -0.0609761 0)
(0.0759399 -0.325942 0)
(0.0990627 -0.510535 0)
(0.0932532 -0.597347 0)
(0.0529796 -0.605959 0)
(-0.00531673 -0.596079 0)
(-0.0692927 -0.556738 0)
(-0.1154 -0.434965 0)
(-0.133159 -0.256094 0)
(-0.117661 -0.0572598 0)
(-0.0744697 0.126104 0)
(-0.0251071 0.246001 0)
(0.0268194 0.288806 0)
(0.0706117 0.274653 0)
(-0.13307 -0.587379 0)
(-0.101003 0.0199777 0)
(-0.141077 0.310707 0)
(0.043084 -0.0985891 0)
(0.0588293 0.360821 0)
(0.178638 0.687207 0)
(0.178166 0.678264 0)
(0.173252 0.507823 0)
(0.197465 0.229116 0)
(0.220687 -0.0755576 0)
(0.25875 -0.34064 0)
(0.28557 -0.508305 0)
(0.252465 -0.556261 0)
(0.156107 -0.529042 0)
(0.0476948 -0.508218 0)
(-0.0593843 -0.480382 0)
(-0.14299 -0.383564 0)
(-0.190642 -0.235093 0)
(-0.19715 -0.0682486 0)
(-0.168552 0.0843575 0)
(-0.119 0.188658 0)
(-0.0602192 0.233165 0)
(-0.00517905 0.228333 0)
(-0.165038 -0.453842 0)
(-0.131761 0.0540205 0)
(-0.104164 0.144999 0)
(0.0579101 -0.228795 0)
(0.0905267 0.237876 0)
(0.243035 0.630466 0)
(0.273487 0.668931 0)
(0.279332 0.484074 0)
(0.306007 0.196293 0)
(0.353445 -0.110296 0)
(0.42906 -0.374668 0)
(0.480855 -0.501612 0)
(0.429855 -0.472662 0)
(0.270791 -0.396869 0)
(0.110041 -0.375773 0)
(-0.0249334 -0.371643 0)
(-0.130942 -0.306698 0)
(-0.196998 -0.195558 0)
(-0.219571 -0.0685535 0)
(-0.203613 0.0481803 0)
(-0.160126 0.131431 0)
(-0.102178 0.169199 0)
(-0.0403476 0.166299 0)
(-0.190798 -0.308599 0)
(-0.0726476 0.0273281 0)
(0.0286376 0.0410365 0)
(0.139 -0.229967 0)
(0.122692 0.104044 0)
(0.232959 0.539643 0)
(0.284675 0.642604 0)
(0.304019 0.454236 0)
(0.348496 0.155773 0)
(0.445235 -0.183615 0)
(0.569844 -0.459831 0)
(0.631201 -0.506558 0)
(0.55334 -0.358877 0)
(0.340683 -0.219203 0)
(0.148448 -0.215605 0)
(0.0124933 -0.249686 0)
(-0.0933355 -0.220941 0)
(-0.161603 -0.147919 0)
(-0.189506 -0.0605759 0)
(-0.180621 0.019248 0)
(-0.143775 0.0751534 0)
(-0.0920373 0.101325 0)
(-0.0369055 0.10202 0)
(-0.189027 -0.173468 0)
(-0.0632171 -0.175231 0)
(0.11563 -0.154955 0)
(0.241671 -0.221502 0)
(0.154535 0.0636697 0)
(0.188367 0.494421 0)
(0.222907 0.614096 0)
(0.2508 0.420874 0)
(0.332282 0.0650077 0)
(0.487776 -0.337129 0)
(0.60258 -0.542177 0)
(0.624055 -0.490242 0)
(0.513868 -0.230538 0)
(0.290826 -0.0315094 0)
(0.130599 -0.061826 0)
(0.0307394 -0.139166 0)
(-0.0528983 -0.143923 0)
(-0.107274 -0.105145 0)
(-0.128271 -0.05318 0)
(-0.121726 -0.00445556 0)
(-0.0948959 0.0305445 0)
(-0.0584365 0.051393 0)
(-0.0241446 0.0612549 0)
(-0.145975 -0.0766074 0)
(-0.082365 -0.297317 0)
(0.011937 -0.30873 0)
(0.139973 -0.239903 0)
(0.0767851 0.0962891 0)
(0.0755151 0.480523 0)
(0.0922548 0.588002 0)
(0.104853 0.333755 0)
(0.309005 -0.150596 0)
(0.484649 -0.488951 0)
(0.524784 -0.564277 0)
(0.458795 -0.400966 0)
(0.285466 -0.0570427 0)
(0.110485 0.119686 0)
(0.0657656 0.0339604 0)
(0.025414 -0.0642584 0)
(-0.0252336 -0.0883299 0)
(-0.0606485 -0.0731415 0)
(-0.0734273 -0.045253 0)
(-0.0703836 -0.0160923 0)
(-0.0561705 0.00918799 0)
(-0.0371586 0.0275201 0)
(-0.0164563 0.0375886 0)
(0.00436817 0.0942441 0)
(0.00997374 -0.324478 0)
(-0.0679646 -0.40368 0)
(-0.00190099 -0.269017 0)
(-0.089113 0.200869 0)
(-0.0852854 0.485074 0)
(-0.079039 0.551855 0)
(0.0984619 0.115854 0)
(0.376485 -0.35328 0)
(0.456559 -0.543983 0)
(0.375706 -0.470013 0)
(0.182423 -0.191362 0)
(-0.0127211 0.137971 0)
(-0.014249 0.145995 0)
(0.0248333 0.0418566 0)
(0.0140507 -0.0301156 0)
(-0.0087385 -0.0556637 0)
(-0.0298337 -0.0523047 0)
(-0.0388242 -0.03818 0)
(-0.0401976 -0.0203081 0)
(-0.0351193 -0.00201634 0)
(-0.0251835 0.0128877 0)
(-0.0112659 0.0205798 0)
(0.0718684 -0.064992 0)
(0.145791 -0.184646 0)
(-0.0427234 -0.316524 0)
(-0.12536 -0.199633 0)
(-0.233357 0.28631 0)
(-0.220196 0.470207 0)
(-0.105468 0.389062 0)
(0.277428 -0.168013 0)
(0.417147 -0.462505 0)
(0.351172 -0.477163 0)
(0.147083 -0.281268 0)
(-0.0981195 0.0528258 0)
(-0.101829 0.130206 0)
(-0.0272642 0.0786911 0)
(0.0116353 0.0198592 0)
(0.0108603 -0.0188434 0)
(0.00097022 -0.0375902 0)
(-0.0123157 -0.0385913 0)
(-0.0204245 -0.0301795 0)
(-0.0244179 -0.0184278 0)
(-0.0232929 -0.00615844 0)
(-0.0172038 0.00364227 0)
(-0.00796371 0.00876248 0)
(0.0351136 -0.169737 0)
(0.135666 -0.169686 0)
(-0.00985225 -0.178547 0)
(-0.198463 -0.0829331 0)
(-0.301328 0.346612 0)
(-0.210492 0.334142 0)
(0.138818 0.0100152 0)
(0.34995 -0.326378 0)
(0.327109 -0.428946 0)
(0.139202 -0.292394 0)
(-0.120636 0.00397258 0)
(-0.13612 0.0671215 0)
(-0.0682663 0.0396289 0)
(-0.0167284 0.021987 0)
(0.00493529 0.00384447 0)
(0.0085717 -0.0159998 0)
(0.00366771 -0.0269165 0)
(-0.00492348 -0.0285789 0)
(-0.0116172 -0.0230603 0)
(-0.015439 -0.0155868 0)
(-0.0151376 -0.0083128 0)
(-0.0111962 -0.00250417 0)
(-0.00535369 0.000930539 0)
(0.0569175 -0.24923 0)
(0.0609764 -0.193724 0)
(0.0374757 0.0249001 0)
(-0.23348 0.0539035 0)
(-0.254764 0.253204 0)
(0.00839827 0.0597494 0)
(0.231539 -0.215451 0)
(0.27508 -0.336994 0)
(0.101024 -0.269362 0)
(-0.126228 -0.0202098 0)
(-0.128878 0.0200527 0)
(-0.0774122 -0.00476061 0)
(-0.0381154 -0.0116183 0)
(-0.0173606 -0.00152819 0)
(-0.00227573 -0.00786355 0)
(0.00261106 -0.0169811 0)
(0.0012405 -0.0212546 0)
(-0.00311708 -0.0216841 0)
(-0.00718062 -0.0183028 0)
(-0.00909202 -0.0138592 0)
(-0.00868536 -0.00974089 0)
(-0.00638006 -0.00617537 0)
(-0.00293441 -0.00392834 0)