/*--------------------------------*- C++ -*----------------------------------*\
| =========                 |                                                 |
| \\      /  F ield         | OpenFOAM: The Open Source CFD Toolbox           |
|  \\    /   O peration     | Version:  2.3.0                                 |
|   \\  /    A nd           | Web:      www.OpenFOAM.org                      |
|    \\/     M anipulation  |                                                 |
\*---------------------------------------------------------------------------*/
FoamFile
{
    version     2.0;
    format      ascii;
    class       volScalarField;
    location    "1.05";
    object      epsilon;
}
// * * * * * * * * * * * * * * * * * * * * * * * * * * * * * * * * * * * * * //

dimensions      [0 2 -3 0 0 0 0];

internalField   nonuniform List<scalar> 
2268
(
0.010919
0.0413267
0.0772099
0.110544
0.143327
0.178639
0.220017
0.270855
0.333987
0.411248
0.502478
0.594572
0.677357
0.742168
0.791016
0.824462
0.846417
0.863461
0.85644
0.793678
0.617766
0.317447
0.0705062
0.0214521
0.0357333
0.0555006
0.0727633
0.0880348
0.103022
0.119774
0.14028
0.166257
0.198965
0.238701
0.281122
0.322006
0.358177
0.387671
0.40875
0.421121
0.427126
0.421755
0.394542
0.326586
0.205271
0.0967436
0.0385591
0.0401645
0.0549546
0.068417
0.0804095
0.0926103
0.107111
0.125826
0.150148
0.180676
0.216421
0.25395
0.289506
0.320322
0.345068
0.363415
0.375888
0.383647
0.384083
0.368115
0.320585
0.232563
0.142226
0.05651
0.0455713
0.0571545
0.0690382
0.0804955
0.0932757
0.109611
0.131415
0.159786
0.194644
0.233882
0.273488
0.309314
0.33871
0.361301
0.378441
0.391964
0.402961
0.409313
0.400885
0.363334
0.289253
0.207187
0.0740698
0.0512098
0.0602698
0.0715327
0.0837794
0.098888
0.119276
0.146858
0.182337
0.224765
0.270685
0.314939
0.352714
0.381589
0.402568
0.419117
0.434638
0.450041
0.462688
0.460577
0.430717
0.370525
0.297637
0.0913467
0.0569197
0.0639169
0.0752573
0.0893555
0.108318
0.134812
0.170687
0.215992
0.268534
0.323137
0.373176
0.413175
0.441302
0.460583
0.477158
0.496066
0.51729
0.536087
0.538316
0.513881
0.47456
0.45204
0.108239
0.0626493
0.0680088
0.0801105
0.0971696
0.121678
0.15662
0.203594
0.261495
0.326361
0.390899
0.446891
0.488444
0.51493
0.532281
0.549907
0.574182
0.60286
0.62655
0.628494
0.602712
0.591653
0.737287
0.124661
0.0684072
0.0725689
0.0862047
0.107543
0.139681
0.185948
0.247265
0.320581
0.399607
0.47456
0.535726
0.577327
0.600819
0.616195
0.636639
0.668697
0.704871
0.730906
0.723286
0.682818
0.691024
1.28751
0.305302
0.628928
1.27387
2.00385
2.76557
3.51693
3.93829
3.94955
3.47807
2.78135
2.18933
1.8122
1.50798
1.20837
0.961783
0.766565
0.562501
0.301296
0.0701033
0.435227
0.706193
0.998557
1.21614
1.40909
1.62805
1.78407
1.79323
1.62725
1.36525
1.11129
0.91711
0.764561
0.633687
0.527949
0.433104
0.33119
0.209984
0.0833127
0.727898
0.739185
0.914913
1.05046
1.17473
1.3309
1.47243
1.49685
1.39087
1.21811
1.02935
0.85822
0.715397
0.595997
0.504918
0.430137
0.348245
0.244392
0.137192
0.935773
0.757025
0.878288
0.996338
1.09456
1.23491
1.37346
1.41689
1.35798
1.24336
1.09187
0.928359
0.777165
0.645384
0.549197
0.483732
0.415553
0.321887
0.240322
1.09027
0.770599
0.860983
0.969833
1.05453
1.18177
1.30331
1.36222
1.36029
1.3169
1.20497
1.05011
0.888189
0.733137
0.621903
0.562825
0.511963
0.435972
0.39904
1.2095
0.781547
0.85213
0.951865
1.03407
1.14454
1.24293
1.3126
1.35896
1.39613
1.33937
1.2003
1.03273
0.846176
0.709861
0.654745
0.62647
0.577467
0.635081
1.30791
0.789286
0.847039
0.942951
1.02768
1.11668
1.1957
1.27181
1.34491
1.45491
1.46929
1.35815
1.19854
0.974418
0.800605
0.750268
0.741018
0.721547
1.01547
1.43011
0.793587
0.844763
0.939717
1.02882
1.08989
1.15719
1.23679
1.32234
1.47036
1.55313
1.45754
1.33519
1.08834
0.885138
0.836921
0.817411
0.825476
1.4092
0.151158
0.0775853
0.0805875
0.0980881
0.12872
0.176963
0.246506
0.335981
0.437546
0.539765
0.629771
0.696619
0.735688
0.752351
0.765502
0.794691
0.840986
0.879139
0.889589
0.841564
0.759164
0.702221
0.717585
0.17334
0.0871935
0.092553
0.120587
0.173479
0.259581
0.381477
0.528839
0.681537
0.817652
0.921517
0.983967
1.00399
0.995257
0.99918
1.03804
1.06256
1.05678
1.0349
0.930571
0.826197
0.746371
0.695958
0.186896
0.0956721
0.107778
0.154776
0.246712
0.39683
0.598739
0.821348
1.02984
1.19487
1.29905
1.34066
1.3143
1.24732
1.2032
1.19136
1.1734
1.16809
1.11597
1.01623
0.926142
0.866099
0.839775
0.189948
0.103432
0.128065
0.20703
0.364734
0.616777
0.929356
1.2315
1.48132
1.65609
1.70058
1.65693
1.57636
1.47724
1.40517
1.36598
1.34578
1.3455
1.27434
1.16201
1.07457
1.0288
1.0237
0.188209
0.112678
0.15734
0.288529
0.552423
0.956013
1.40458
1.74116
1.88817
1.89654
1.82784
1.74544
1.68162
1.65198
1.67586
1.69651
1.68303
1.63055
1.51473
1.35171
1.24127
1.19015
1.1837
0.200296
0.13055
0.205868
0.421502
0.847589
1.44753
2.00026
2.08651
1.91022
1.79465
1.73166
1.69614
1.68717
1.72209
1.83119
1.97675
2.04461
1.95972
1.76135
1.55418
1.4063
1.33799
1.32037
0.25262
0.168929
0.29626
0.641494
1.29834
2.02943
2.19189
1.93624
1.73623
1.65009
1.62931
1.63717
1.65869
1.70614
1.8043
1.95927
2.08666
2.06821
1.91423
1.71853
1.55862
1.46989
1.44305
0.361312
0.243777
0.44866
0.905086
1.50341
1.87282
1.83844
1.68388
1.58175
1.5589
1.58405
1.62479
1.65174
1.68077
1.73103
1.80317
1.87073
1.88809
1.85632
1.76332
1.65244
1.57592
1.54198
0.529623
0.337855
0.547691
0.909395
1.29084
1.51464
1.53285
1.48265
1.47895
1.51352
1.55692
1.61394
1.6631
1.69223
1.70721
1.72347
1.73945
1.73903
1.72086
1.6769
1.62931
1.60211
1.58532
0.633103
0.371962
0.533207
0.806046
1.08749
1.25877
1.30032
1.3143
1.37105
1.43499
1.4928
1.56116
1.63257
1.68956
1.71422
1.71568
1.71014
1.68844
1.65867
1.62283
1.58941
1.56991
1.57265
0.617891
0.346116
0.467922
0.678353
0.897594
1.04187
1.09866
1.14105
1.21232
1.2924
1.36962
1.45026
1.53526
1.61689
1.67628
1.71062
1.7178
1.69601
1.65619
1.61268
1.56925
1.53897
1.54295
0.534023
0.292707
0.382307
0.543871
0.719238
0.848001
0.913874
0.96371
1.03338
1.11525
1.19862
1.28321
1.37154
1.46147
1.54414
1.61678
1.66324
1.66815
1.6551
1.62275
1.56947
1.51055
1.48199
0.429649
0.234435
0.297808
0.419404
0.559496
0.675577
0.746657
0.797809
0.857828
0.928615
1.0039
1.08077
1.16001
1.24231
1.32595
1.40939
1.48211
1.52554
1.5463
1.53833
1.50013
1.44172
1.38819
0.333499
0.183952
0.226528
0.315456
0.425604
0.525201
0.596382
0.64876
0.700415
0.757333
0.818006
0.880243
0.943679
1.00908
1.07691
1.14761
1.21978
1.27704
1.31579
1.33008
1.31964
1.29308
1.26077
0.264669
0.147645
0.173429
0.236314
0.317921
0.398985
0.465342
0.517519
0.564193
0.610687
0.657922
0.705173
0.752091
0.799183
0.847335
0.897678
0.951926
1.00354
1.04596
1.07407
1.0869
1.08862
1.08457
0.219
0.123755
0.13683
0.179207
0.237203
0.299607
0.356708
0.405484
0.448432
0.488336
0.526312
0.562378
0.596472
0.628989
0.660753
0.692908
0.727165
0.765178
0.801314
0.83255
0.857933
0.879465
0.900141
0.189354
0.108534
0.113075
0.140524
0.180407
0.226224
0.271983
0.314286
0.352662
0.387689
0.419718
0.448738
0.474734
0.497996
0.519187
0.539329
0.560014
0.58427
0.610396
0.63722
0.66448
0.693465
0.726031
0.170517
0.0990944
0.0983519
0.115549
0.142389
0.174927
0.209671
0.244003
0.276573
0.306795
0.334305
0.358786
0.380064
0.398247
0.413782
0.427464
0.440588
0.455559
0.473021
0.49307
0.516227
0.543816
0.577427
0.158409
0.0931238
0.0893121
0.0997675
0.117649
0.140357
0.165855
0.192404
0.218714
0.243872
0.267183
0.288106
0.306295
0.321666
0.334433
0.345119
0.354637
0.364631
0.376394
0.39059
0.408164
0.430561
0.459401
0.150052
0.088927
0.0834198
0.0895771
0.101502
0.117308
0.135743
0.155705
0.176225
0.19647
0.215725
0.233397
0.249061
0.262501
0.273743
0.283061
0.291031
0.298698
0.307258
0.317464
0.330324
0.34723
0.369776
0.143501
0.0854165
0.079011
0.0824787
0.0905227
0.101636
0.114981
0.129849
0.145573
0.161515
0.177082
0.191748
0.2051
0.21687
0.226966
0.235485
0.242741
0.249366
0.256259
0.264055
0.27363
0.286186
0.30316
0.137651
0.0820021
0.0751516
0.0769481
0.0824857
0.0904634
0.100259
0.111396
0.123423
0.135887
0.148343
0.160376
0.171633
0.181854
0.190894
0.19874
0.205533
0.211633
0.217659
0.224079
0.23158
0.241128
0.253935
0.131981
0.0784461
0.0714181
0.0721742
0.0760892
0.0819794
0.0893384
0.097823
0.107122
0.116923
0.126907
0.136767
0.146223
0.155051
0.163096
0.170289
0.17667
0.182428
0.18797
0.193618
0.199884
0.207514
0.217484
0.126317
0.0747313
0.0676908
0.0677948
0.0706455
0.0751359
0.0808251
0.0874475
0.0947815
0.102609
0.110708
0.118854
0.126838
0.134478
0.14163
0.148208
0.154194
0.15968
0.164928
0.170151
0.17572
0.182203
0.190369
0.120669
0.0709582
0.0640054
0.0636959
0.0658334
0.0693694
0.0739047
0.0792203
0.0851505
0.0915406
0.0982336
0.105071
0.111897
0.118568
0.124964
0.130996
0.136624
0.141887
0.14695
0.151952
0.157164
0.163018
0.170112
0.115127
0.0672724
0.0604612
0.0598843
0.0615305
0.0644012
0.0681261
0.0725163
0.0774414
0.0827881
0.0884447
0.0942975
0.100232
0.10614
0.111921
0.117497
0.122821
0.127911
0.132864
0.137776
0.142847
0.14841
0.15493
0.109823
0.0638168
0.0571697
0.0564145
0.0577115
0.0601059
0.0632495
0.0669735
0.0711707
0.0757552
0.0806462
0.0857618
0.0910185
0.0963335
0.101629
0.106837
0.111909
0.116882
0.121785
0.126693
0.131761
0.137248
0.14352
0.104906
0.0607061
0.0542267
0.053348
0.0543887
0.0564326
0.0591486
0.0623819
0.0660417
0.0700607
0.0743793
0.0789383
0.0836771
0.0885341
0.0934493
0.0983692
0.103256
0.108142
0.113035
0.117993
0.12314
0.128683
0.134913
0.10053
0.0580187
0.0516997
0.0507329
0.0515799
0.0533581
0.0557504
0.0586126
0.0618652
0.0654545
0.0693359
0.0734668
0.0778038
0.0823022
0.0869175
0.0916092
0.0963593
0.101184
0.106089
0.111124
0.116391
0.12206
0.128368
0.0968319
0.0558004
0.0496269
0.0485956
0.0492922
0.0508631
0.0530026
0.055575
0.0585096
0.0617623
0.0653
0.0690922
0.0731089
0.0773189
0.0816903
0.0861932
0.0908367
0.095614
0.100537
0.105651
0.111047
0.116867
0.123303
0.0939304
0.0540744
0.048022
0.0469416
0.047518
0.0489218
0.0508571
0.0531952
0.0558725
0.0588526
0.0621107
0.065626
0.0693787
0.0733483
0.0775147
0.0818627
0.0864026
0.0911295
0.0960583
0.101233
0.106736
0.112691
0.119259
0.0919176
0.0528525
0.0468849
0.0457621
0.0462379
0.0475012
0.0492646
0.0514058
0.0538672
0.0566186
0.0596418
0.0629234
0.0664513
0.0702131
0.074196
0.0784057
0.0828394
0.0874997
0.0924058
0.0976022
0.103166
0.109207
0.115866
0.0908658
0.0521453
0.0462109
0.0450417
0.0454257
0.0465634
0.0481745
0.0501428
0.0524162
0.05497
0.0577912
0.0608718
0.0642051
0.0677851
0.0716065
0.0756767
0.0799922
0.0845591
0.0893997
0.0945596
0.100113
0.106163
0.112835
0.0908328
0.0519683
0.0459977
0.0447641
0.0450523
0.0460675
0.0475349
0.0493441
0.0514486
0.0538287
0.0564759
0.0593857
0.0625542
0.065977
0.0696552
0.0735863
0.0777675
0.0822059
0.0869259
0.0919745
0.0974258
0.10338
0.109953
0.0918595
0.0523423
0.0462459
0.0449124
0.0450863
0.0459697
0.0472919
0.0489483
0.0508982
0.0531276
0.0556319
0.0584082
0.0614513
0.0647542
0.0683103
0.0721067
0.0761364
0.0804054
0.084939
0.0897868
0.0950247
0.100753
0.107086
0.0939527
0.0532836
0.0469521
0.045464
0.0454894
0.0462199
0.047387
0.048892
0.0507018
0.0528096
0.0552157
0.0579159
0.0608969
0.064137
0.0676075
0.0712807
0.0751415
0.079194
0.0834657
0.0880103
0.0929079
0.0982614
0.104187
0.0970485
0.0547848
0.0480945
0.0463798
0.0462087
0.0467557
0.0477525
0.0491073
0.0507974
0.0528282
0.0552086
0.0579307
0.0609583
0.0642268
0.0676686
0.071235
0.0749042
0.078683
0.0826062
0.0867351
0.0911558
0.0959749
0.101311
0.100967
0.0567877
0.0496134
0.0475902
0.0471673
0.0474967
0.0483083
0.0495185
0.0511217
0.0531467
0.0556231
0.058539
0.0618043
0.0652436
0.0687286
0.0721947
0.0756294
0.0790578
0.0825321
0.0861261
0.0899325
0.0940597
0.0986252
0.10537
0.0591573
0.0513914
0.0489818
0.0482567
0.0483407
0.0489593
0.0500399
0.0516056
0.0537324
0.0565029
0.0599171
0.0637704
0.0675871
0.0711709
0.0744943
0.0776034
0.0805708
0.0834792
0.086418
0.089484
0.0927819
0.0964207
0.109746
0.0616635
0.0532371
0.050389
0.0493345
0.0491649
0.0495978
0.0505751
0.0521651
0.0545325
0.0578899
0.0623367
0.0674879
0.0719294
0.0755567
0.0785718
0.0811767
0.0835255
0.0857367
0.0879093
0.090135
0.0925045
0.0951084
0.113444
0.0639634
0.0548706
0.0515904
0.0502279
0.0498328
0.0501106
0.0510186
0.0526847
0.0554126
0.0596884
0.0660271
0.0741841
0.0793256
0.0826008
0.0849136
0.0867222
0.0882548
0.0896389
0.0909603
0.092288
0.0936853
0.0952132
0.115644
0.065486
0.0558968
0.0523135
0.0507477
0.0502106
0.0503953
0.0512696
0.0530112
0.0560673
0.0613152
0.0703994
0.0866506
0.0912153
0.0929721
0.0939199
0.0945785
0.0951078
0.0955711
0.0960039
0.0964321
0.0968791
0.0973668
1.03525
0.699458
0.932897
1.45023
0.694911
0.716559
0.79051
0.880152
0.844935
0.852008
0.867242
0.887273
1.04965
1.06373
1.06758
1.07569
1.2071
1.22726
1.2445
1.25989
1.32763
1.33551
1.34712
1.36237
1.44696
1.45596
1.46966
1.48627
1.54347
1.55715
1.58055
1.6063
1.58251
1.58728
1.59589
1.60499
1.58786
1.57681
1.55549
1.54048
1.57257
1.55561
1.51629
1.48619
1.48064
1.47555
1.45399
1.42197
1.35129
1.32718
1.30258
1.27647
1.23253
1.21195
1.189
1.16601
1.07877
1.0737
1.06743
1.06083
0.915758
0.925776
0.935092
0.9438
0.75332
0.772777
0.792451
0.812045
0.60734
0.629915
0.653677
0.67827
0.486344
0.50753
0.530564
0.555196
0.391651
0.409361
0.429127
0.450851
0.320038
0.333948
0.349779
0.367541
0.266777
0.277442
0.289723
0.303685
0.227401
0.235619
0.245121
0.255984
0.198308
0.204821
0.212325
0.220893
0.17679
0.182181
0.188335
0.195312
0.160857
0.165551
0.170841
0.176771
0.149046
0.153337
0.158104
0.163381
0.140265
0.144348
0.148823
0.153716
0.133685
0.13768
0.142011
0.146695
0.128661
0.132636
0.136906
0.141484
0.124681
0.128661
0.132908
0.137433
0.121337
0.125316
0.129543
0.134024
0.118305
0.122252
0.126432
0.13085
0.115341
0.119202
0.123284
0.127591
0.112283
0.115984
0.119894
0.124019
0.10906
0.11251
0.116156
0.120007
0.105709
0.108806
0.112085
0.115552
0.102397
0.10504
0.107842
0.110812
0.0994324
0.101531
0.10376
0.10613
0.0972652
0.0987595
0.10035
0.102045
0.0964787
0.0973508
0.0982805
0.0992735
0.0977718
0.0980499
0.098347
0.0986652
0.960929
0.784655
0.848278
0.950044
1.03596
1.0604
1.11605
1.19665
1.28186
1.43961
1.56943
1.5129
1.39669
1.18879
0.995011
0.928134
0.890453
0.932358
1.77467
0.843344
0.820365
0.906787
1.03623
1.07638
1.0595
1.096
1.16946
1.22939
1.3499
1.46741
1.48249
1.36
1.2385
1.12442
1.04714
1.01497
1.07975
1.97753
0.901133
0.947095
1.06501
1.1838
1.14132
1.09485
1.11193
1.17073
1.21895
1.32044
1.4548
1.51306
1.4048
1.3823
1.29164
1.21496
1.20395
1.30424
2.20696
1.10203
1.18028
1.29104
1.29645
1.20294
1.15057
1.15723
1.20329
1.2583
1.36141
1.56872
1.65682
1.5402
1.54865
1.46648
1.41618
1.43662
1.53996
2.42187
1.28827
1.35241
1.39674
1.34482
1.26842
1.21548
1.22026
1.25453
1.34097
1.44254
1.77174
1.88847
1.69686
1.64492
1.6235
1.63417
1.69537
1.74839
2.53375
1.38781
1.42732
1.4486
1.41412
1.34303
1.27949
1.27202
1.32594
1.37359
1.47567
1.7351
1.85748
1.71811
1.73675
1.81724
1.89928
2.04408
2.02257
2.34758
1.51345
1.55028
1.55771
1.50907
1.42249
1.34664
1.33198
1.34445
1.3774
1.45478
1.60462
1.71244
1.77018
1.94161
2.13811
2.25612
2.33886
1.99826
2.09451
1.64314
1.67423
1.64746
1.55281
1.44944
1.39073
1.37991
1.37932
1.4132
1.48955
1.59168
1.72259
1.96713
2.3283
2.56954
2.54487
2.23384
1.84517
1.88872
1.61865
1.61693
1.57022
1.48651
1.40712
1.3763
1.39182
1.42874
1.4849
1.60003
1.67041
1.82449
2.19428
2.62643
2.73936
2.50258
2.10726
1.85672
1.82682
1.52276
1.48897
1.43905
1.38613
1.34669
1.3406
1.37867
1.47072
1.56722
1.69559
1.75397
1.92552
2.25874
2.6017
2.65043
2.41973
2.16967
2.0675
1.96595
1.45071
1.39638
1.3387
1.30033
1.29066
1.31179
1.37449
1.47764
1.59751
1.69421
1.81117
2.00074
2.26551
2.48357
2.51066
2.41924
2.38315
2.34137
2.17948
1.37657
1.31138
1.25661
1.23088
1.23943
1.2789
1.35438
1.4543
1.5721
1.69492
1.84249
2.014
2.20488
2.35516
2.42109
2.45305
2.46687
2.33745
2.21215
1.23558
1.18564
1.15703
1.15578
1.18459
1.23994
1.3171
1.41777
1.53882
1.67387
1.8233
1.97405
2.12482
2.25099
2.32871
2.34681
2.25815
2.01057
1.98781
1.13416
1.10481
1.09658
1.11221
1.15168
1.21149
1.28926
1.3863
1.50051
1.62777
1.76259
1.89395
2.01606
2.11097
2.14745
2.08883
1.90988
1.66179
1.72689
1.05091
1.04506
1.05547
1.08506
1.13325
1.19632
1.27111
1.35743
1.45432
1.55915
1.66626
1.76716
1.85133
1.89941
1.88136
1.77147
1.57726
1.39355
1.54078
0.957467
0.978424
1.00903
1.05269
1.10877
1.17351
1.24304
1.31576
1.3905
1.4653
1.53704
1.59985
1.64206
1.64539
1.58906
1.46507
1.31456
1.20259
1.44264
0.844224
0.888669
0.938291
0.995605
1.05953
1.12594
1.19054
1.25067
1.30414
1.34978
1.38749
1.41444
1.42127
1.39484
1.32515
1.22122
1.11989
1.07309
1.41044
0.720165
0.778082
0.841328
0.909449
0.980133
1.04875
1.11009
1.16044
1.1974
1.22077
1.23227
1.23225
1.21542
1.17533
1.111
1.03861
0.97923
0.984976
1.4136
0.598579
0.660405
0.72807
0.80136
0.87594
0.94608
1.00578
1.05014
1.07675
1.08634
1.08179
1.06622
1.03809
0.996924
0.949016
0.902958
0.87667
0.920995
1.42976
0.490213
0.548379
0.613661
0.684681
0.758396
0.8281
0.886595
0.928293
0.950567
0.954447
0.9436
0.922473
0.893546
0.86044
0.827714
0.802802
0.801491
0.872025
1.44855
0.400441
0.450714
0.508859
0.573345
0.641088
0.706772
0.763563
0.804391
0.826594
0.830905
0.821184
0.802508
0.779515
0.756422
0.737573
0.729504
0.746759
0.836986
1.47228
0.329932
0.3711
0.419995
0.475475
0.534946
0.593936
0.646518
0.686699
0.711
0.71928
0.715099
0.703459
0.689347
0.677065
0.670669
0.676025
0.706695
0.809606
1.48625
0.276558
0.309352
0.34904
0.394982
0.445285
0.496467
0.543741
0.582139
0.608307
0.621737
0.624951
0.62218
0.61796
0.616232
0.620577
0.636141
0.67557
0.78621
1.48507
0.23713
0.263145
0.294917
0.332206
0.373781
0.417144
0.458686
0.494516
0.521777
0.539773
0.550228
0.556215
0.561375
0.56897
0.582022
0.605051
0.64985
0.764149
1.4741
0.208465
0.229429
0.255016
0.285231
0.319358
0.355726
0.391781
0.424645
0.452052
0.473483
0.489916
0.503355
0.516402
0.531541
0.551173
0.579211
0.626635
0.740657
1.45229
0.187848
0.205266
0.226333
0.251177
0.279435
0.310055
0.341323
0.37121
0.398287
0.421891
0.442465
0.461462
0.480433
0.501078
0.525168
0.556029
0.603896
0.715133
1.41798
0.173127
0.188173
0.206097
0.227078
0.25097
0.277153
0.304535
0.331864
0.358138
0.382738
0.405857
0.428402
0.451248
0.475378
0.502002
0.533951
0.580814
0.688814
1.37836
0.162651
0.176178
0.192003
0.210314
0.23109
0.253998
0.278378
0.303538
0.3287
0.353412
0.37771
0.402059
0.426965
0.452799
0.480389
0.512238
0.557321
0.66198
1.33473
0.155161
0.167756
0.182225
0.198744
0.217357
0.237909
0.260041
0.283316
0.307217
0.33141
0.355832
0.380641
0.406088
0.43218
0.459534
0.490492
0.533524
0.634491
1.2834
0.149691
0.161734
0.175349
0.190685
0.207813
0.226671
0.247084
0.268749
0.291334
0.314582
0.338364
0.362651
0.387483
0.412762
0.43901
0.46853
0.50946
0.606607
1.22755
0.14549
0.157207
0.170282
0.184836
0.200938
0.21857
0.237628
0.257906
0.27917
0.301203
0.32383
0.3469
0.370306
0.394074
0.418635
0.446325
0.485059
0.578729
1.17121
0.141968
0.153467
0.166178
0.180193
0.195563
0.212276
0.230243
0.249308
0.269281
0.289957
0.311121
0.332551
0.35409
0.375849
0.398364
0.424012
0.460617
0.551005
1.11206
0.138656
0.149956
0.162375
0.175976
0.190785
0.206774
0.22384
0.241836
0.260582
0.279861
0.299423
0.319006
0.338444
0.357918
0.378224
0.401825
0.436615
0.523125
1.04471
0.135189
0.146233
0.158345
0.171565
0.185894
0.201272
0.217575
0.23463
0.252241
0.270171
0.28813
0.305823
0.323092
0.340188
0.358246
0.379853
0.412899
0.494285
0.97117
0.131294
0.141956
0.153668
0.166458
0.180303
0.19512
0.210755
0.226988
0.243595
0.260298
0.276759
0.292642
0.307793
0.322553
0.338249
0.357742
0.388672
0.463639
0.89818
0.126805
0.136888
0.148027
0.160248
0.173523
0.187754
0.202771
0.218294
0.234063
0.249743
0.264907
0.279141
0.29228
0.304716
0.317832
0.334817
0.362943
0.431177
0.824962
0.121688
0.130929
0.141232
0.152644
0.165152
0.178672
0.193045
0.207959
0.223109
0.238074
0.252257
0.265092
0.276364
0.286498
0.296922
0.310788
0.335312
0.39726
0.761837
0.116084
0.124165
0.13329
0.143537
0.15494
0.16747
0.181028
0.195397
0.210214
0.224954
0.23866
0.250475
0.26011
0.268045
0.27578
0.286444
0.307083
0.363591
0.703675
0.110348
0.116939
0.124487
0.133114
0.14292
0.153978
0.166345
0.180059
0.194889
0.210242
0.224282
0.235657
0.244028
0.250016
0.25528
0.263044
0.280343
0.332076
0.648871
0.105071
0.109886
0.11548
0.121997
0.129594
0.138465
0.148913
0.161448
0.176611
0.194187
0.209857
0.221594
0.229229
0.233699
0.236904
0.242212
0.256689
0.304511
0.60281
0.101051
0.103923
0.107302
0.111309
0.116101
0.121924
0.12927
0.139254
0.154401
0.177855
0.197002
0.20997
0.217454
0.220959
0.222687
0.226146
0.238473
0.283803
0.573728
0.0992363
0.100169
0.101275
0.102601
0.104217
0.106253
0.10904
0.113664
0.124735
0.164321
0.188506
0.203044
0.210748
0.213839
0.214782
0.217179
0.228334
0.273537
0.568314
)
;

boundaryField
{
    leftWall
    {
        type            epsilonWallFunction;
        value           nonuniform List<scalar> 
50
(
0.010919
0.0214521
0.0385591
0.05651
0.0740698
0.0913467
0.108239
0.124661
0.151158
0.17334
0.186896
0.189948
0.188209
0.200296
0.25262
0.361312
0.529623
0.633103
0.617891
0.534023
0.429649
0.333499
0.264669
0.219
0.189354
0.170517
0.158409
0.150052
0.143501
0.137651
0.131981
0.126317
0.120669
0.115127
0.109823
0.104906
0.10053
0.0968319
0.0939304
0.0919176
0.0908658
0.0908328
0.0918595
0.0939527
0.0970485
0.100967
0.10537
0.109746
0.113444
0.115644
)
;
        Cmu             0.09;
        kappa           0.41;
        E               9.8;
        value           nonuniform List<scalar> 
50
(
0.010919
0.0214521
0.0385591
0.05651
0.0740698
0.0913467
0.108239
0.124661
0.151158
0.17334
0.186896
0.189948
0.188209
0.200296
0.25262
0.361312
0.529623
0.633103
0.617891
0.534023
0.429649
0.333499
0.264669
0.219
0.189354
0.170517
0.158409
0.150052
0.143501
0.137651
0.131981
0.126317
0.120669
0.115127
0.109823
0.104906
0.10053
0.0968319
0.0939304
0.0919176
0.0908658
0.0908328
0.0918595
0.0939527
0.0970485
0.100967
0.10537
0.109746
0.113444
0.115644
)
;
    }
    rightWall
    {
        type            epsilonWallFunction;
        value           nonuniform List<scalar> 
50
(
0.0701033
0.0833127
0.137192
0.240322
0.39904
0.635081
1.01547
1.4092
1.77467
1.97753
2.20696
2.42187
2.53375
2.34758
2.09451
1.88872
1.82682
1.96595
2.17948
2.21215
1.98781
1.72689
1.54078
1.44264
1.41044
1.4136
1.42976
1.44855
1.47228
1.48625
1.48507
1.4741
1.45229
1.41798
1.37836
1.33473
1.2834
1.22755
1.17121
1.11206
1.04471
0.97117
0.89818
0.824962
0.761837
0.703675
0.648871
0.60281
0.573728
0.568314
)
;
        Cmu             0.09;
        kappa           0.41;
        E               9.8;
        value           nonuniform List<scalar> 
50
(
0.0701033
0.0833127
0.137192
0.240322
0.39904
0.635081
1.01547
1.4092
1.77467
1.97753
2.20696
2.42187
2.53375
2.34758
2.09451
1.88872
1.82682
1.96595
2.17948
2.21215
1.98781
1.72689
1.54078
1.44264
1.41044
1.4136
1.42976
1.44855
1.47228
1.48625
1.48507
1.4741
1.45229
1.41798
1.37836
1.33473
1.2834
1.22755
1.17121
1.11206
1.04471
0.97117
0.89818
0.824962
0.761837
0.703675
0.648871
0.60281
0.573728
0.568314
)
;
    }
    lowerWall
    {
        type            epsilonWallFunction;
        value           nonuniform List<scalar> 
62
(
0.010919
0.0413267
0.0772099
0.110544
0.143327
0.178639
0.220017
0.270855
0.333987
0.411248
0.502478
0.594572
0.677357
0.742168
0.791016
0.824462
0.846417
0.863461
0.85644
0.793678
0.617766
0.317447
0.0705062
0.0705062
0.0967436
0.142226
0.207187
0.297637
0.45204
0.737287
1.28751
1.03525
0.699458
0.932897
1.45023
0.305302
0.435227
0.727898
0.935773
1.09027
1.2095
1.30791
1.43011
0.305302
0.628928
1.27387
2.00385
2.76557
3.51693
3.93829
3.94955
3.47807
2.78135
2.18933
1.8122
1.50798
1.20837
0.961783
0.766565
0.562501
0.301296
0.0701033
)
;
        Cmu             0.09;
        kappa           0.41;
        E               9.8;
        value           nonuniform List<scalar> 
62
(
0.010919
0.0413267
0.0772099
0.110544
0.143327
0.178639
0.220017
0.270855
0.333987
0.411248
0.502478
0.594572
0.677357
0.742168
0.791016
0.824462
0.846417
0.863461
0.85644
0.793678
0.617766
0.317447
0.0705062
0.0705062
0.0967436
0.142226
0.207187
0.297637
0.45204
0.737287
1.28751
1.03525
0.699458
0.932897
1.45023
0.305302
0.435227
0.727898
0.935773
1.09027
1.2095
1.30791
1.43011
0.305302
0.628928
1.27387
2.00385
2.76557
3.51693
3.93829
3.94955
3.47807
2.78135
2.18933
1.8122
1.50798
1.20837
0.961783
0.766565
0.562501
0.301296
0.0701033
)
;
    }
    atmosphere
    {
        type            inletOutlet;
        inletValue      uniform 0.1;
        value           nonuniform List<scalar> 
46
(
0.115644
0.065486
0.0558968
0.0523135
0.0507477
0.0502106
0.0503953
0.0512696
0.0530112
0.0560673
0.0613152
0.0703994
0.1
0.1
0.1
0.1
0.1
0.1
0.1
0.1
0.1
0.1
0.1
0.1
0.1
0.1
0.1
0.1
0.1
0.1
0.1
0.1
0.1
0.1
0.1
0.1
0.164321
0.188506
0.203044
0.210748
0.213839
0.214782
0.217179
0.228334
0.273537
0.568314
)
;
    }
    defaultFaces
    {
        type            empty;
    }
}


// ************************************************************************* //
