/*--------------------------------*- C++ -*----------------------------------*\
| =========                 |                                                 |
| \\      /  F ield         | OpenFOAM: The Open Source CFD Toolbox           |
|  \\    /   O peration     | Version:  2.3.0                                 |
|   \\  /    A nd           | Web:      www.OpenFOAM.org                      |
|    \\/     M anipulation  |                                                 |
\*---------------------------------------------------------------------------*/
FoamFile
{
    version     2.0;
    format      ascii;
    class       volScalarField;
    location    "1.05";
    object      k;
}
// * * * * * * * * * * * * * * * * * * * * * * * * * * * * * * * * * * * * * //

dimensions      [0 2 -2 0 0 0 0];

internalField   nonuniform List<scalar> 
2268
(
0.00230636
0.00454481
0.00689055
0.00876859
0.0104502
0.012147
0.0140223
0.0161881
0.0186974
0.021543
0.0246016
0.0274311
0.0297703
0.0315117
0.0327405
0.0335283
0.0340145
0.0344731
0.0344045
0.0328128
0.0278044
0.0178408
0.0065483
0.00483586
0.0116923
0.0165347
0.0204284
0.0239218
0.0274868
0.0315086
0.0362473
0.0417995
0.0480566
0.0545342
0.060652
0.0658346
0.0696863
0.0722127
0.0737074
0.0744789
0.0745409
0.0734093
0.0693352
0.0593433
0.0403822
0.0133032
0.00716507
0.0164982
0.0226311
0.0276376
0.0322237
0.0369847
0.0424074
0.0488036
0.0562456
0.064517
0.0730032
0.080912
0.0874845
0.0922535
0.0952436
0.0968386
0.0974191
0.0970246
0.0950949
0.0894383
0.0766895
0.0541057
0.0171794
0.00926897
0.0205154
0.0275646
0.0334245
0.0389462
0.0448146
0.0515911
0.0596144
0.0689025
0.0790998
0.0893937
0.0987727
0.106329
0.111584
0.114671
0.116152
0.11653
0.115819
0.113352
0.106527
0.0917415
0.0660054
0.0220515
0.0111194
0.0240822
0.0319137
0.0385543
0.0450292
0.0521141
0.0604352
0.0703308
0.0817115
0.0940161
0.106165
0.116909
0.125217
0.130664
0.133597
0.134856
0.135104
0.134253
0.131429
0.123625
0.107137
0.0787583
0.0280385
0.0127936
0.0273217
0.0359001
0.0433405
0.0508782
0.0593961
0.0695789
0.0817218
0.0955464
0.1102
0.124275
0.136278
0.145105
0.15047
0.153057
0.154081
0.15437
0.153605
0.150503
0.141726
0.123614
0.0932678
0.0370829
0.0143293
0.0302984
0.0396422
0.0479653
0.0567499
0.0670099
0.0794773
0.0943324
0.11099
0.128213
0.144223
0.157306
0.166364
0.171367
0.173473
0.174357
0.174948
0.174528
0.171114
0.16108
0.140977
0.109513
0.0513107
0.0157457
0.0330594
0.0432235
0.0525682
0.0628597
0.0752703
0.0905498
0.108646
0.12851
0.14845
0.166294
0.180171
0.189097
0.193443
0.19501
0.195979
0.197185
0.197092
0.193253
0.181171
0.158278
0.126519
0.0744919
0.0169616
0.0273151
0.0439877
0.0597433
0.074267
0.0875758
0.0948326
0.095149
0.0874665
0.0760097
0.065313
0.0576151
0.0506892
0.0432647
0.0369735
0.0316485
0.0258587
0.0171092
0.00799078
0.0376997
0.0685772
0.0940332
0.122249
0.151495
0.175737
0.192633
0.196331
0.18568
0.167842
0.148526
0.131012
0.11476
0.0988278
0.0848497
0.0726034
0.0587158
0.0398081
0.0127776
0.0530908
0.0925301
0.123628
0.157577
0.189026
0.217468
0.239674
0.245709
0.235542
0.217728
0.196552
0.174592
0.15308
0.131944
0.113419
0.0976202
0.0797476
0.0545355
0.0180059
0.0629329
0.109716
0.144719
0.181539
0.212954
0.243703
0.268413
0.277096
0.270378
0.255886
0.235696
0.211623
0.186247
0.160481
0.137923
0.119871
0.100067
0.0708715
0.0262529
0.0697741
0.122916
0.160756
0.1984
0.229477
0.26062
0.28487
0.29601
0.295587
0.288303
0.271392
0.246914
0.218788
0.18827
0.161522
0.141912
0.121826
0.0907826
0.0367368
0.0748954
0.133278
0.173175
0.210547
0.241923
0.271826
0.294104
0.307327
0.313179
0.315574
0.304711
0.281409
0.251903
0.216327
0.18477
0.163974
0.144949
0.113739
0.0498341
0.0790571
0.141522
0.182908
0.220213
0.252178
0.279503
0.299843
0.314692
0.324661
0.336716
0.334378
0.31397
0.28514
0.244296
0.206877
0.185695
0.167646
0.136532
0.0673358
0.0841558
0.148767
0.191006
0.228172
0.260691
0.284198
0.303377
0.31947
0.331932
0.349913
0.356246
0.337174
0.312632
0.268683
0.227052
0.205604
0.185205
0.153832
0.0834287
0.0178995
0.0371185
0.048692
0.0599404
0.0731282
0.089712
0.110361
0.134383
0.159722
0.183781
0.204029
0.218584
0.2268
0.229731
0.230548
0.232246
0.234588
0.233558
0.226662
0.208297
0.180031
0.147776
0.111328
0.0196322
0.0411621
0.0552368
0.0702488
0.0894104
0.114674
0.146015
0.180768
0.21479
0.244044
0.265945
0.279195
0.283881
0.282338
0.281063
0.283196
0.280947
0.273154
0.262233
0.236179
0.205681
0.174103
0.142279
0.0206918
0.0445469
0.0620087
0.0826132
0.110893
0.14896
0.194464
0.241239
0.283377
0.316319
0.337616
0.347214
0.344662
0.334138
0.325166
0.319232
0.310986
0.304621
0.290212
0.265768
0.239221
0.214293
0.192922
0.0210008
0.0474814
0.0695791
0.0983634
0.140103
0.195856
0.258149
0.315673
0.362638
0.396057
0.40869
0.406355
0.39612
0.380917
0.367793
0.35825
0.350922
0.346585
0.330391
0.305813
0.28234
0.263435
0.250397
0.0209338
0.0505061
0.0790123
0.119547
0.180246
0.258508
0.338061
0.398541
0.43104
0.442303
0.439669
0.431677
0.42344
0.417961
0.418912
0.418811
0.413758
0.403044
0.382045
0.352263
0.328132
0.311855
0.302547
0.0219122
0.0557738
0.0928463
0.149934
0.23555
0.338102
0.426813
0.454464
0.445316
0.438896
0.436053
0.434136
0.433609
0.437665
0.451428
0.469658
0.476803
0.463091
0.432787
0.398869
0.371624
0.355454
0.347318
0.0257031
0.0673261
0.116048
0.194496
0.310032
0.423367
0.460725
0.443415
0.428364
0.424574
0.427127
0.431537
0.436023
0.442966
0.456664
0.4781
0.495091
0.491383
0.468158
0.43746
0.410337
0.393045
0.385488
0.0331191
0.0869089
0.150888
0.244112
0.346704
0.410424
0.419789
0.41258
0.409284
0.413825
0.422915
0.432505
0.438608
0.444135
0.452338
0.463596
0.473854
0.476212
0.470821
0.455784
0.437307
0.423476
0.416288
0.0432571
0.108949
0.173913
0.249302
0.31916
0.362813
0.378181
0.383859
0.393988
0.406781
0.418579
0.430851
0.440849
0.447246
0.451199
0.455159
0.458854
0.459715
0.457506
0.450919
0.443331
0.43865
0.435629
0.0496237
0.116724
0.17321
0.233762
0.288949
0.324987
0.342533
0.356345
0.374978
0.392187
0.406352
0.420584
0.43424
0.445139
0.451026
0.453423
0.454681
0.453356
0.450589
0.446674
0.442963
0.441305
0.443039
0.0492441
0.111199
0.160536
0.211313
0.257517
0.289477
0.308252
0.325255
0.345653
0.365507
0.38309
0.399698
0.415862
0.430761
0.441959
0.449489
0.453186
0.452685
0.44951
0.445758
0.442043
0.440314
0.443897
0.0448393
0.098883
0.141572
0.184845
0.225018
0.254881
0.274306
0.291437
0.311139
0.331455
0.350524
0.368423
0.3858
0.402574
0.417689
0.43112
0.440838
0.444712
0.446214
0.445199
0.441234
0.436302
0.435988
0.0387938
0.0844201
0.120827
0.157745
0.193187
0.221707
0.241679
0.258137
0.275679
0.294159
0.312304
0.329623
0.346379
0.362852
0.378955
0.394649
0.408574
0.418314
0.425031
0.427966
0.426786
0.422789
0.419491
0.0326208
0.0706896
0.10143
0.132727
0.163989
0.190533
0.21063
0.226832
0.242445
0.258355
0.274157
0.289435
0.304198
0.318701
0.333157
0.347749
0.362265
0.374415
0.383939
0.390218
0.393306
0.39455
0.395257
0.0276395
0.0591326
0.0852059
0.111553
0.138158
0.16219
0.181885
0.198037
0.212538
0.226415
0.23982
0.252634
0.264857
0.27669
0.288415
0.300326
0.312707
0.324484
0.334872
0.343348
0.350039
0.355806
0.361368
0.0240218
0.0504372
0.0725717
0.0945729
0.116884
0.137985
0.156492
0.172295
0.186182
0.198834
0.210541
0.221372
0.2314
0.240807
0.249872
0.25892
0.268307
0.278263
0.287971
0.297168
0.306003
0.315065
0.324832
0.021486
0.0443674
0.0634129
0.0818879
0.100515
0.118632
0.135347
0.150269
0.163539
0.175434
0.186139
0.195744
0.204344
0.212105
0.219278
0.226179
0.2332
0.240907
0.24906
0.257635
0.266844
0.277163
0.288973
0.0197832
0.0403776
0.0571514
0.0729382
0.0886179
0.104045
0.118749
0.132368
0.144781
0.155998
0.166051
0.174969
0.182811
0.1897
0.195835
0.201487
0.207015
0.212944
0.21946
0.226731
0.235064
0.244926
0.256713
0.0186594
0.0378431
0.0530097
0.0668317
0.0802775
0.0934919
0.106298
0.118463
0.129817
0.140259
0.149722
0.158171
0.165609
0.172101
0.17778
0.182848
0.187588
0.192406
0.197634
0.203536
0.210483
0.218958
0.22941
0.0178894
0.0362161
0.0502483
0.0626543
0.0744561
0.0859536
0.0971496
0.107934
0.118178
0.127764
0.136591
0.144587
0.151715
0.157987
0.163474
0.168304
0.172676
0.176879
0.181233
0.186019
0.191611
0.198484
0.20712
0.0173054
0.0350898
0.0482908
0.0596589
0.0702517
0.0804489
0.0903547
0.0999485
0.109156
0.117886
0.126044
0.133548
0.140341
0.146403
0.151754
0.156463
0.160654
0.16452
0.168321
0.172305
0.17681
0.182272
0.189164
0.0168016
0.0342001
0.0467501
0.057323
0.0670034
0.0762102
0.0851023
0.0937151
0.102021
0.109962
0.117464
0.124456
0.130875
0.136684
0.141873
0.146467
0.150535
0.154198
0.157651
0.161097
0.16482
0.169199
0.17467
0.0163226
0.0333963
0.0453964
0.0553246
0.0642857
0.0727172
0.0808064
0.0886221
0.0961697
0.103418
0.110318
0.11681
0.12284
0.128362
0.133352
0.137807
0.141757
0.145276
0.148508
0.151608
0.154809
0.15843
0.162854
0.0158456
0.0326039
0.0441099
0.0534876
0.0618544
0.0696563
0.077095
0.0842587
0.0911738
0.0978302
0.104196
0.110228
0.115878
0.121104
0.125874
0.13017
0.134
0.137405
0.140493
0.143382
0.146259
0.14939
0.153101
0.0153659
0.0317947
0.0428405
0.0517309
0.059589
0.0668623
0.0737603
0.0803821
0.0867673
0.09292
0.0988221
0.104442
0.109741
0.114681
0.119228
0.123359
0.127068
0.130381
0.133377
0.136148
0.138846
0.141689
0.144955
0.0148887
0.0309695
0.0415813
0.0500336
0.0574472
0.0642674
0.0707067
0.0768705
0.0828069
0.0885294
0.09403
0.0992862
0.104268
0.108941
0.113275
0.117245
0.12084
0.124077
0.127019
0.129736
0.132356
0.135059
0.138078
0.0144241
0.0301479
0.0403535
0.0484117
0.0554348
0.0618629
0.0679084
0.0736802
0.0792318
0.0845834
0.0897343
0.0946696
0.0993658
0.103795
0.107929
0.111746
0.115231
0.118412
0.121325
0.124033
0.126641
0.129304
0.132215
0.0139853
0.0293618
0.039195
0.0469022
0.0535837
0.0596722
0.0653779
0.0708112
0.0760293
0.0810574
0.0859006
0.0905501
0.0949885
0.0991936
0.103142
0.106815
0.110203
0.113333
0.116233
0.118955
0.121593
0.124278
0.127173
0.0135874
0.0286487
0.0381504
0.0455506
0.0519362
0.0577314
0.0631434
0.0682829
0.0732093
0.0779521
0.0825211
0.086913
0.0911159
0.0951134
0.0988876
0.102424
0.105721
0.108803
0.111693
0.11444
0.117127
0.119866
0.122798
0.0132451
0.0280458
0.0372631
0.0444006
0.0505329
0.0560763
0.0612342
0.0661171
0.0707865
0.0752751
0.079597
0.0837538
0.087739
0.0915416
0.0951491
0.0985508
0.101762
0.104793
0.107669
0.110437
0.113172
0.115975
0.118964
0.0129717
0.0275849
0.0365689
0.0434875
0.0494059
0.0547335
0.0596711
0.0643286
0.0687696
0.0730298
0.0771271
0.0810676
0.08485
0.0884684
0.0919161
0.0951905
0.0983078
0.101278
0.104128
0.106903
0.109672
0.112526
0.115569
0.0127786
0.0272906
0.0360936
0.0428347
0.0485741
0.0537169
0.0584619
0.0629199
0.0671564
0.0712101
0.0751026
0.0788441
0.0824375
0.0858818
0.089174
0.092325
0.0953419
0.0982387
0.101043
0.103801
0.106577
0.109455
0.112526
0.0126743
0.0271792
0.0358526
0.0424531
0.0480431
0.053026
0.0576008
0.0618802
0.0659324
0.0697994
0.0735061
0.0770664
0.0804867
0.0837698
0.0869179
0.089943
0.0928515
0.0956591
0.0983947
0.101104
0.103849
0.106708
0.109765
0.0126651
0.0272597
0.0358503
0.0423412
0.0478046
0.0526463
0.0570681
0.0611859
0.0650718
0.0687717
0.0723137
0.0757142
0.0789817
0.0821204
0.0851377
0.088039
0.0908319
0.0935331
0.0961724
0.0987951
0.101463
0.10425
0.107236
0.0127545
0.0275323
0.0360799
0.0424842
0.0478367
0.0525498
0.0568309
0.0608015
0.0645392
0.0680943
0.0714984
0.0747688
0.0779133
0.0809349
0.0838373
0.0866209
0.0892924
0.0918687
0.0943806
0.0968746
0.0994121
0.102066
0.104913
0.0129413
0.0279859
0.0365212
0.0428534
0.0481034
0.0526953
0.056845
0.0606822
0.0642922
0.0677319
0.0710362
0.074221
0.0772881
0.0802317
0.0830438
0.0857191
0.0882626
0.0906926
0.0930426
0.0953612
0.097711
0.100164
0.102797
0.0132169
0.0285943
0.0371372
0.0434041
0.0485545
0.0530289
0.0570552
0.0607746
0.0642838
0.0676496
0.0709119
0.0740815
0.0771431
0.080065
0.0828195
0.085395
0.0877984
0.0900539
0.0922013
0.0942941
0.096397
0.0985822
0.100924
0.0135618
0.029312
0.0378723
0.044075
0.0491258
0.0534857
0.0573981
0.0610195
0.0644638
0.0678155
0.071125
0.074394
0.0775675
0.0805471
0.0832775
0.0857492
0.0879842
0.0900232
0.0919189
0.0937321
0.0955299
0.0973836
0.099364
0.0139432
0.0300719
0.0386515
0.0447891
0.0497412
0.0539921
0.0578033
0.0613517
0.0647774
0.0681968
0.0716879
0.0752469
0.0787364
0.0818792
0.0845979
0.0869251
0.0889302
0.0906884
0.0922719
0.0937498
0.0951901
0.0966595
0.0982219
0.0143155
0.0307858
0.0393827
0.0454577
0.0503174
0.0544705
0.0581978
0.061701
0.065158
0.0687419
0.0726009
0.0767694
0.0809784
0.0843953
0.0870364
0.0890994
0.0907599
0.0921445
0.0933454
0.0944352
0.0954763
0.0965254
0.0976345
0.014624
0.0313505
0.039964
0.0459864
0.0507699
0.0548449
0.0585103
0.0619931
0.0655169
0.0693411
0.0737664
0.0790445
0.0849474
0.0886165
0.0909004
0.0924454
0.0935834
0.0944805
0.0952291
0.0958894
0.0965076
0.0971229
0.0977697
0.0148027
0.0316708
0.0402952
0.0462844
0.0510213
0.0550503
0.0586812
0.0621583
0.065742
0.0697781
0.0747907
0.0816696
0.0922173
0.095248
0.0964285
0.0970517
0.0974625
0.09777
0.0980188
0.0982331
0.0984304
0.0986251
0.0988295
0.0649005
0.0494356
0.0592402
0.079444
0.117911
0.10927
0.109908
0.119936
0.179228
0.173155
0.171686
0.175996
0.245019
0.242597
0.240686
0.242101
0.3003
0.300417
0.30115
0.30279
0.345019
0.344602
0.345388
0.3474
0.384094
0.384558
0.386148
0.38859
0.415501
0.417178
0.420567
0.424523
0.43508
0.435911
0.437481
0.439217
0.446325
0.445202
0.442462
0.44067
0.450643
0.449068
0.443749
0.439749
0.438811
0.439676
0.437605
0.433612
0.417286
0.415478
0.413276
0.410538
0.394967
0.394127
0.392596
0.390761
0.36512
0.367186
0.368868
0.370275
0.332425
0.337356
0.342074
0.346535
0.298715
0.305488
0.312273
0.318949
0.266869
0.274254
0.281883
0.289625
0.238744
0.24576
0.253198
0.260955
0.215052
0.221156
0.227772
0.234831
0.195612
0.200651
0.206205
0.212242
0.179825
0.183884
0.188407
0.193387
0.167002
0.170268
0.173926
0.177982
0.156525
0.159204
0.162203
0.16553
0.147895
0.150169
0.152699
0.155495
0.140721
0.142734
0.144954
0.147387
0.134698
0.136559
0.138588
0.140791
0.129589
0.131373
0.133297
0.135366
0.125205
0.12696
0.128836
0.130835
0.121393
0.123145
0.125004
0.126971
0.118026
0.119783
0.121637
0.12359
0.114998
0.116753
0.118599
0.120538
0.112223
0.113958
0.11578
0.11769
0.109638
0.111325
0.113095
0.114949
0.107205
0.108809
0.110491
0.112254
0.10492
0.106398
0.107951
0.109581
0.102815
0.104126
0.105505
0.106956
0.100964
0.102069
0.103233
0.104461
0.0994845
0.100352
0.101268
0.102236
0.0985302
0.0991431
0.0997907
0.100477
0.0982919
0.0986477
0.0990243
0.0994242
0.0989952
0.0991079
0.0992275
0.0993552
0.10407
0.161079
0.202992
0.2402
0.271467
0.288964
0.306779
0.324131
0.338073
0.359391
0.372866
0.358552
0.33383
0.294446
0.253986
0.229621
0.204901
0.173073
0.097829
0.13961
0.183611
0.223434
0.2628
0.286485
0.296946
0.312018
0.329361
0.341156
0.359436
0.372982
0.36809
0.340546
0.312102
0.282465
0.254965
0.228298
0.194726
0.106105
0.187967
0.221257
0.259375
0.294956
0.304581
0.309457
0.321277
0.33672
0.347665
0.364103
0.380853
0.381941
0.355238
0.339062
0.310892
0.281085
0.254389
0.220515
0.115259
0.249894
0.275558
0.307303
0.324567
0.3239
0.326287
0.335514
0.348604
0.360781
0.377353
0.404526
0.409106
0.379733
0.364994
0.33523
0.306239
0.280625
0.243638
0.123189
0.307954
0.324976
0.342954
0.347684
0.34609
0.346021
0.353328
0.363652
0.38013
0.395514
0.439039
0.445788
0.404544
0.37873
0.35307
0.328124
0.303916
0.259457
0.12662
0.351933
0.362157
0.372073
0.374569
0.370517
0.366283
0.369751
0.381646
0.390438
0.40466
0.437611
0.4446
0.409087
0.389016
0.371205
0.349322
0.327798
0.272899
0.120188
0.393269
0.40129
0.406314
0.403949
0.39527
0.387104
0.38726
0.390363
0.394581
0.40292
0.418608
0.423216
0.413265
0.408869
0.398877
0.372948
0.336514
0.25028
0.111061
0.430583
0.436731
0.435113
0.424139
0.411191
0.403649
0.402143
0.400532
0.402052
0.407181
0.412893
0.418287
0.429224
0.44108
0.427915
0.379453
0.303333
0.213031
0.102109
0.441962
0.442946
0.437325
0.42597
0.414551
0.409296
0.409704
0.411326
0.413103
0.420436
0.416919
0.420058
0.439997
0.452299
0.421642
0.353477
0.269929
0.192817
0.0970695
0.438668
0.43449
0.427486
0.41936
0.412357
0.409125
0.410887
0.418455
0.423007
0.427802
0.417948
0.418426
0.430037
0.431945
0.39705
0.331949
0.262505
0.197785
0.0991346
0.435071
0.427475
0.418498
0.411609
0.4081
0.407642
0.411125
0.417525
0.422172
0.419194
0.414172
0.413982
0.417078
0.408833
0.376335
0.328838
0.281714
0.223274
0.105598
0.427636
0.418251
0.40927
0.403654
0.402026
0.40307
0.406887
0.410745
0.413046
0.411646
0.409351
0.406884
0.403649
0.392467
0.369223
0.339204
0.302276
0.24014
0.107794
0.405635
0.398876
0.394224
0.39246
0.393711
0.396692
0.39985
0.402852
0.404763
0.404655
0.403234
0.399994
0.395057
0.385468
0.368625
0.343026
0.30185
0.23052
0.101192
0.388049
0.38546
0.384742
0.386068
0.389092
0.392669
0.395794
0.398212
0.399422
0.399142
0.397494
0.394172
0.388826
0.379493
0.362553
0.333182
0.285113
0.210453
0.0927179
0.372233
0.374737
0.37808
0.382459
0.387456
0.392022
0.395207
0.396758
0.396611
0.394892
0.391735
0.386929
0.379731
0.368017
0.347887
0.314675
0.264209
0.192935
0.0865111
0.353457
0.361803
0.369748
0.377546
0.384809
0.390619
0.394113
0.395013
0.393395
0.38957
0.38395
0.376528
0.366449
0.351556
0.328528
0.293986
0.246317
0.1808
0.0833362
0.329738
0.343311
0.355777
0.367162
0.377026
0.384493
0.388793
0.389616
0.386956
0.381242
0.373214
0.363155
0.350409
0.333212
0.309167
0.276366
0.233417
0.174362
0.0825262
0.302538
0.319287
0.33531
0.349906
0.362386
0.371845
0.377444
0.378767
0.3758
0.369066
0.35946
0.347576
0.333146
0.315063
0.291843
0.262455
0.224657
0.17191
0.0829511
0.274263
0.292193
0.309901
0.326685
0.341334
0.352733
0.359917
0.36228
0.359782
0.353028
0.342984
0.330517
0.315714
0.298111
0.277067
0.251267
0.218328
0.171301
0.0837766
0.247247
0.264633
0.282476
0.299871
0.315749
0.328659
0.337382
0.34115
0.339834
0.334008
0.324675
0.31283
0.298941
0.283032
0.264499
0.242089
0.213293
0.1708
0.0846301
0.223071
0.238776
0.255508
0.272368
0.288258
0.301859
0.31183
0.317087
0.317413
0.313258
0.305579
0.295406
0.283423
0.269765
0.253896
0.234551
0.209064
0.169385
0.0856327
0.202448
0.21597
0.230846
0.246324
0.261406
0.274864
0.285409
0.291974
0.294096
0.292029
0.28661
0.278793
0.269271
0.258184
0.244961
0.228326
0.205449
0.168096
0.0862245
0.185423
0.196753
0.209525
0.223185
0.236911
0.249643
0.260218
0.267635
0.271356
0.271458
0.268543
0.263382
0.256551
0.248126
0.237504
0.223271
0.202484
0.16688
0.0862394
0.171652
0.181073
0.191858
0.203636
0.215786
0.227453
0.237659
0.245521
0.250498
0.252544
0.252048
0.249521
0.245341
0.239446
0.231148
0.218931
0.199734
0.165343
0.0858683
0.160629
0.168539
0.177652
0.18774
0.198361
0.208866
0.21848
0.226465
0.232322
0.235965
0.237571
0.237392
0.235574
0.231891
0.225541
0.214915
0.196863
0.163203
0.0850323
0.15183
0.158629
0.16645
0.175161
0.184464
0.193886
0.20284
0.210736
0.217199
0.222044
0.225279
0.226999
0.227103
0.225198
0.220364
0.210918
0.193676
0.160617
0.0837151
0.144781
0.150815
0.157702
0.165373
0.173631
0.182145
0.190481
0.198214
0.205022
0.210677
0.215084
0.218185
0.21971
0.21911
0.215367
0.206754
0.190102
0.157758
0.0822116
0.13908
0.14462
0.150872
0.157804
0.165288
0.173095
0.180911
0.188442
0.195389
0.201523
0.206679
0.210674
0.213141
0.2134
0.210379
0.202346
0.186153
0.154586
0.0805017
0.134395
0.139638
0.145483
0.151917
0.158857
0.166141
0.17355
0.18085
0.187787
0.194139
0.19969
0.20417
0.207152
0.207884
0.205283
0.19765
0.181873
0.15109
0.0784381
0.130453
0.13553
0.141129
0.147242
0.153811
0.160718
0.167804
0.174868
0.181695
0.188065
0.193734
0.198377
0.201529
0.202429
0.200013
0.192643
0.17728
0.14734
0.0761805
0.12703
0.132017
0.137468
0.143377
0.149697
0.156334
0.163155
0.169987
0.176635
0.182881
0.188462
0.193026
0.196084
0.196936
0.194533
0.18732
0.172358
0.143423
0.0738762
0.123941
0.128867
0.134219
0.139989
0.146134
0.152567
0.159165
0.165769
0.172194
0.178223
0.183579
0.1879
0.190702
0.191338
0.188829
0.181706
0.167172
0.139361
0.071405
0.121037
0.125889
0.131149
0.136803
0.142804
0.149067
0.155468
0.16185
0.168032
0.17379
0.178843
0.182824
0.185269
0.18558
0.182897
0.175846
0.161815
0.135094
0.0685133
0.118198
0.122935
0.128072
0.133593
0.139447
0.145546
0.151761
0.15793
0.163865
0.169338
0.174057
0.177659
0.179697
0.179629
0.176733
0.169746
0.156228
0.130409
0.0652758
0.115346
0.119894
0.124845
0.130182
0.135853
0.141768
0.147796
0.153758
0.159462
0.164665
0.169065
0.172291
0.173917
0.173457
0.170292
0.163321
0.150237
0.125135
0.0619983
0.112444
0.116705
0.121375
0.126443
0.131863
0.137547
0.143366
0.149128
0.15463
0.159614
0.163747
0.16664
0.167875
0.167011
0.163503
0.156437
0.14366
0.119359
0.0586318
0.109511
0.113366
0.117634
0.122315
0.127375
0.132743
0.138304
0.143867
0.149219
0.154075
0.158043
0.160682
0.161573
0.160311
0.156424
0.149107
0.136474
0.113099
0.0556768
0.106628
0.109952
0.113676
0.117817
0.122368
0.127285
0.132489
0.137841
0.14312
0.148006
0.151978
0.154497
0.155126
0.153505
0.149242
0.141653
0.12909
0.106719
0.0528821
0.10395
0.106622
0.109656
0.113087
0.116937
0.121211
0.125899
0.130967
0.136267
0.141466
0.145722
0.148319
0.148813
0.146914
0.142332
0.134529
0.122106
0.100717
0.050197
0.101696
0.103625
0.105843
0.108398
0.111335
0.114713
0.118617
0.123199
0.128608
0.13467
0.139647
0.142586
0.143107
0.141046
0.136238
0.128288
0.116028
0.0955484
0.0479112
0.100137
0.10128
0.102609
0.104165
0.105999
0.108193
0.11091
0.114528
0.11991
0.128109
0.134423
0.137963
0.138658
0.136551
0.131615
0.123578
0.111463
0.0917745
0.0464811
0.0995834
0.0999535
0.100387
0.100901
0.101519
0.102286
0.10332
0.105002
0.108948
0.122929
0.13108
0.135267
0.136167
0.134082
0.129093
0.121005
0.108979
0.0899184
0.0462804
)
;

boundaryField
{
    leftWall
    {
        type            kqRWallFunction;
        value           nonuniform List<scalar> 
50
(
0.00230636
0.00483586
0.00716507
0.00926897
0.0111194
0.0127936
0.0143293
0.0157457
0.0178995
0.0196322
0.0206918
0.0210008
0.0209338
0.0219122
0.0257031
0.0331191
0.0432571
0.0496237
0.0492441
0.0448393
0.0387938
0.0326208
0.0276395
0.0240218
0.021486
0.0197832
0.0186594
0.0178894
0.0173054
0.0168016
0.0163226
0.0158456
0.0153659
0.0148887
0.0144241
0.0139853
0.0135874
0.0132451
0.0129717
0.0127786
0.0126743
0.0126651
0.0127545
0.0129413
0.0132169
0.0135618
0.0139432
0.0143155
0.014624
0.0148027
)
;
    }
    rightWall
    {
        type            kqRWallFunction;
        value           nonuniform List<scalar> 
50
(
0.00799078
0.0127776
0.0180059
0.0262529
0.0367368
0.0498341
0.0673358
0.0834287
0.097829
0.106105
0.115259
0.123189
0.12662
0.120188
0.111061
0.102109
0.0970695
0.0991346
0.105598
0.107794
0.101192
0.0927179
0.0865111
0.0833362
0.0825262
0.0829511
0.0837766
0.0846301
0.0856327
0.0862245
0.0862394
0.0858683
0.0850323
0.0837151
0.0822116
0.0805017
0.0784381
0.0761805
0.0738762
0.071405
0.0685133
0.0652758
0.0619983
0.0586318
0.0556768
0.0528821
0.050197
0.0479112
0.0464811
0.0462804
)
;
    }
    lowerWall
    {
        type            kqRWallFunction;
        value           nonuniform List<scalar> 
62
(
0.00230636
0.00454481
0.00689055
0.00876859
0.0104502
0.012147
0.0140223
0.0161881
0.0186974
0.021543
0.0246016
0.0274311
0.0297703
0.0315117
0.0327405
0.0335283
0.0340145
0.0344731
0.0344045
0.0328128
0.0278044
0.0178408
0.0065483
0.0065483
0.0133032
0.0171794
0.0220515
0.0280385
0.0370829
0.0513107
0.0744919
0.0649005
0.0494356
0.0592402
0.079444
0.0169616
0.0376997
0.0530908
0.0629329
0.0697741
0.0748954
0.0790571
0.0841558
0.0169616
0.0273151
0.0439877
0.0597433
0.074267
0.0875758
0.0948326
0.095149
0.0874665
0.0760097
0.065313
0.0576151
0.0506892
0.0432647
0.0369735
0.0316485
0.0258587
0.0171092
0.00799078
)
;
    }
    atmosphere
    {
        type            inletOutlet;
        inletValue      uniform 0.1;
        value           nonuniform List<scalar> 
46
(
0.0148027
0.0316708
0.0402952
0.0462844
0.0510213
0.0550503
0.0586812
0.0621583
0.065742
0.0697781
0.0747907
0.0816696
0.1
0.1
0.1
0.1
0.1
0.1
0.1
0.1
0.1
0.1
0.1
0.1
0.1
0.1
0.1
0.1
0.1
0.1
0.1
0.1
0.1
0.1
0.1
0.1
0.122929
0.13108
0.135267
0.136167
0.134082
0.129093
0.121005
0.108979
0.0899184
0.0462804
)
;
    }
    defaultFaces
    {
        type            empty;
    }
}


// ************************************************************************* //
