/*--------------------------------*- C++ -*----------------------------------*\
| =========                 |                                                 |
| \\      /  F ield         | OpenFOAM: The Open Source CFD Toolbox           |
|  \\    /   O peration     | Version:  2.3.0                                 |
|   \\  /    A nd           | Web:      www.OpenFOAM.org                      |
|    \\/     M anipulation  |                                                 |
\*---------------------------------------------------------------------------*/
FoamFile
{
    version     2.0;
    format      ascii;
    class       volScalarField;
    location    "1.05";
    object      nut;
}
// * * * * * * * * * * * * * * * * * * * * * * * * * * * * * * * * * * * * * //

dimensions      [0 2 -1 0 0 0 0];

internalField   nonuniform List<scalar> 
2268
(
4.38444e-05
4.49825e-05
5.53448e-05
6.25987e-05
6.85745e-05
7.43371e-05
8.04313e-05
8.70758e-05
9.42057e-05
0.000101567
0.000108406
0.0001139
0.000117758
0.000120416
0.000121963
0.000122714
0.000123023
0.000123868
0.000124387
0.000122091
0.000112628
9.02399e-05
5.47359e-05
9.81116e-05
0.000344323
0.000443341
0.000516176
0.000585027
0.000660025
0.000745997
0.000842941
0.000945813
0.00104465
0.00112131
0.00117771
0.0012114
0.00122022
0.00121061
0.00119621
0.0011855
0.00117078
0.00114996
0.00109662
0.000970486
0.00071498
0.000164638
0.000119827
0.00060992
0.000838781
0.0010048
0.00116222
0.00132931
0.00151109
0.00170363
0.00189627
0.00207343
0.00221629
0.00232017
0.00237929
0.00239123
0.00236597
0.0023224
0.00227233
0.00220838
0.00211901
0.00195572
0.00165109
0.00113289
0.000186758
0.00013683
0.000831212
0.00119646
0.00145641
0.0016959
0.00193782
0.00218543
0.00243389
0.00267407
0.00289302
0.00307511
0.00321054
0.00328965
0.00330839
0.00327554
0.0032085
0.00311796
0.00299597
0.00282519
0.00254765
0.00208482
0.00135557
0.000211229
0.000150233
0.00101926
0.00152089
0.00187018
0.00217818
0.00247178
0.00275593
0.00303136
0.00329559
0.00353931
0.0037475
0.00390579
0.00400083
0.00402676
0.0039902
0.00390524
0.00377966
0.00360444
0.00335997
0.00298644
0.00239842
0.00150667
0.000237719
0.000161264
0.00118031
0.00181476
0.00224637
0.00260726
0.00293128
0.00323199
0.00352142
0.00380393
0.00407012
0.00430152
0.00447896
0.00458643
0.00461753
0.00457766
0.00447796
0.00432341
0.00410505
0.00380275
0.00335818
0.00267619
0.00164974
0.000273787
0.000170728
0.00131876
0.00207967
0.00258468
0.00298293
0.00332129
0.00362979
0.00393369
0.00423983
0.00453327
0.004789
0.00498348
0.00509974
0.00513274
0.00508824
0.00497543
0.00479745
0.00454731
0.00420588
0.00371555
0.00296777
0.00182433
0.000321382
0.000178992
0.00143791
0.00231703
0.00288508
0.00330679
0.0036505
0.0039685
0.00429639
0.00463636
0.00496332
0.00524449
0.00545341
0.00557429
0.0056054
0.0055544
0.00542963
0.00523312
0.00495986
0.00459868
0.00408424
0.003302
0.00208477
0.000387892
8.48095e-05
0.00010677
0.000136703
0.000160308
0.000179494
0.000196267
0.000205518
0.000206302
0.000197964
0.00018695
0.00017536
0.000164858
0.000153348
0.000139415
0.000127922
0.000117598
0.000106987
8.74398e-05
8.19751e-05
0.000293901
0.000599348
0.000796952
0.00110599
0.00146588
0.00170726
0.00187193
0.00193456
0.00190685
0.0018571
0.00178657
0.00168439
0.00155028
0.00138716
0.0012273
0.00109538
0.000936862
0.000679203
0.000176373
0.000348506
0.00104245
0.00150347
0.0021274
0.00273746
0.00319806
0.00351117
0.00363
0.00358996
0.00350255
0.00337781
0.00319663
0.00294805
0.00262891
0.00229292
0.00199395
0.00164359
0.00109525
0.000212688
0.000380914
0.0014311
0.00214613
0.00297698
0.00372884
0.00432841
0.00472098
0.00487717
0.00484499
0.00473956
0.00457904
0.00434162
0.00401707
0.00359146
0.00311736
0.00267339
0.00216869
0.00140437
0.00025811
0.00040188
0.00176454
0.00270135
0.00365283
0.00449431
0.00517281
0.00560386
0.00578905
0.00578072
0.00568055
0.00550126
0.00522518
0.00485048
0.00435132
0.00377556
0.00322037
0.00260906
0.00170133
0.00030439
0.000417396
0.00204553
0.00316743
0.00419148
0.00509384
0.0058102
0.00626321
0.00647606
0.00649564
0.00641974
0.00623902
0.00593783
0.00552995
0.0049774
0.00432847
0.00369589
0.00301837
0.00201622
0.000351938
0.000430078
0.0022838
0.00355472
0.00462849
0.00556932
0.00629631
0.0067672
0.00700795
0.00705359
0.00701348
0.00684869
0.00653237
0.00610533
0.00551228
0.00481115
0.00413643
0.00341352
0.00232513
0.000401855
0.000445698
0.00250991
0.00388688
0.0049862
0.00594504
0.00666964
0.00715816
0.00742691
0.00749891
0.00749444
0.0073542
0.00701988
0.00658817
0.00596978
0.00524184
0.0045459
0.00377665
0.00258007
0.00044453
0.000190762
0.00159824
0.00264783
0.0032966
0.0037391
0.00409318
0.00444681
0.00483746
0.00524742
0.00563168
0.00594897
0.0061728
0.00629266
0.00631336
0.0062491
0.00610857
0.0058893
0.00558439
0.00519769
0.00464004
0.0038424
0.00279882
0.00155445
0.000200116
0.00174885
0.00296694
0.00368314
0.00414736
0.00455933
0.00503004
0.00556115
0.00609229
0.00655559
0.00690751
0.0071298
0.0072241
0.0072085
0.00711551
0.00695344
0.00668557
0.00635439
0.00598025
0.00539478
0.00460839
0.00365509
0.00261784
0.000206176
0.00186678
0.00321082
0.0039686
0.00448598
0.00503245
0.00568441
0.00637693
0.00701781
0.00753654
0.00789698
0.00809315
0.00813457
0.00805598
0.00790888
0.00769861
0.00741785
0.00714967
0.00679235
0.0062554
0.00556113
0.00477191
0.00398879
0.000208968
0.00196171
0.00340227
0.00420607
0.00484355
0.00559741
0.0064536
0.00728252
0.00798989
0.00852462
0.00883959
0.00896913
0.00895862
0.00884
0.00866405
0.00845612
0.00823549
0.00803483
0.00770929
0.00724345
0.00667656
0.00607094
0.00551227
0.000209555
0.00203747
0.00357102
0.00445794
0.00529297
0.0062911
0.00732292
0.00821015
0.00885596
0.00928373
0.00951824
0.00960851
0.00959619
0.00951722
0.0094243
0.00930514
0.00915466
0.00896631
0.00867236
0.00826219
0.00780685
0.00735437
0.00695965
0.000215746
0.00214449
0.00376863
0.00480001
0.00589149
0.00710739
0.00819655
0.00890884
0.00934321
0.00966024
0.00988227
0.0100008
0.0100295
0.0100108
0.0100158
0.0100428
0.0100071
0.00984878
0.00957072
0.00921303
0.00883837
0.00849874
0.00822245
0.000235367
0.00241493
0.00409114
0.00530727
0.00666296
0.00794882
0.00871578
0.00913913
0.00951175
0.00983195
0.0100775
0.0102373
0.0103156
0.0103506
0.0104022
0.0104999
0.0105721
0.0105072
0.0103047
0.0100222
0.00972264
0.00945898
0.00926792
0.000273222
0.00278855
0.00456705
0.00592557
0.00719583
0.0080949
0.0086269
0.00909805
0.00953131
0.00988686
0.010162
0.0103617
0.0104823
0.0105624
0.0106381
0.0107272
0.0108024
0.0108099
0.0107473
0.010603
0.0104157
0.0102415
0.0101147
0.000317973
0.00316198
0.00497015
0.00615093
0.00710208
0.00782165
0.00839731
0.00894431
0.00944618
0.00983957
0.0101282
0.0103516
0.0105173
0.0106384
0.0107322
0.0108185
0.0108938
0.0109374
0.0109469
0.0109128
0.0108566
0.0108091
0.0107736
0.000350063
0.00329656
0.00506398
0.00610141
0.0069097
0.00755144
0.00812078
0.00869538
0.00923
0.0096467
0.00995508
0.0101977
0.0103952
0.010555
0.0106802
0.0107848
0.0108799
0.0109556
0.0110165
0.011065
0.0111107
0.0111646
0.011233
0.000353215
0.0032153
0.00495693
0.00592434
0.0066493
0.00723864
0.00778379
0.00834421
0.0088696
0.00930326
0.0096437
0.00991427
0.0101381
0.0103284
0.0104872
0.0106298
0.0107602
0.0108744
0.0109802
0.011089
0.0112067
0.011338
0.0114936
0.000338844
0.00300644
0.00471831
0.00565407
0.00633584
0.00689478
0.00741016
0.00793203
0.00843123
0.00886586
0.00922562
0.00952002
0.00976696
0.00998034
0.0101686
0.0103464
0.0105159
0.01067
0.0108269
0.0109926
0.0111642
0.0113418
0.0115437
0.000315248
0.00273597
0.00441201
0.00533975
0.00600346
0.00654829
0.00704043
0.00751697
0.00797354
0.00838631
0.00874397
0.00904785
0.00930857
0.00953832
0.00974744
0.0099456
0.0101369
0.0103234
0.0105145
0.0107155
0.0109278
0.0111586
0.0114088
0.000287169
0.00244483
0.00408747
0.00502599
0.00568675
0.00622097
0.00669515
0.00713783
0.00755293
0.00793211
0.00826958
0.00856531
0.00882535
0.00905905
0.00927596
0.00948373
0.00968314
0.00987973
0.0100828
0.0103034
0.0105499
0.0108349
0.0111523
0.000259777
0.00213145
0.00376756
0.00473933
0.00540352
0.00593383
0.00639831
0.00682039
0.00720593
0.00755498
0.00786756
0.00814572
0.00839452
0.00862154
0.00883531
0.00904293
0.00924516
0.00944269
0.00964906
0.00987818
0.0101458
0.0104663
0.0108363
0.000237141
0.00185004
0.00346414
0.00449181
0.00518365
0.00571945
0.00617891
0.00658895
0.00695696
0.00728623
0.00758007
0.00784262
0.00807937
0.0082973
0.0085043
0.00870756
0.00890995
0.00910732
0.00931403
0.00954636
0.00982291
0.0101584
0.01055
0.00021942
0.00163232
0.0032006
0.0042947
0.00504024
0.00559893
0.00606176
0.00646628
0.00682533
0.00714476
0.00742949
0.0076847
0.00791618
0.00813052
0.00833503
0.00853675
0.00873979
0.00893977
0.00914615
0.0093748
0.00964444
0.00996984
0.0103514
0.000206569
0.00148073
0.00298891
0.00414369
0.00496375
0.00556959
0.00605286
0.00646269
0.00682115
0.00713892
0.00742302
0.00767943
0.00791393
0.00813254
0.00834164
0.00854745
0.00875411
0.00895835
0.00916377
0.00938328
0.00963325
0.00992794
0.0102717
0.000197815
0.00138407
0.00283168
0.00402919
0.00492995
0.00560475
0.00613145
0.00656436
0.00693477
0.00726009
0.00755104
0.00781523
0.00805876
0.00828708
0.00850546
0.0087188
0.00893033
0.0091375
0.00933945
0.00954562
0.00976877
0.0100214
0.0103104
0.000191953
0.00132743
0.00272405
0.0039441
0.00491549
0.00566818
0.00625759
0.00673379
0.00713265
0.00747757
0.00778374
0.00806133
0.00831749
0.00855761
0.00878607
0.00900644
0.00922076
0.00942673
0.0096208
0.00980985
0.0100033
0.0102112
0.0104412
0.000187823
0.00129736
0.00265635
0.00388375
0.0049068
0.00573104
0.00639025
0.00692396
0.00736647
0.00774378
0.00807441
0.00837114
0.00864267
0.00889489
0.00913186
0.00935631
0.00956936
0.00976888
0.00995037
0.0101192
0.0102824
0.0104481
0.010623
0.000184571
0.00128373
0.00261739
0.00384329
0.00489844
0.00577824
0.00650132
0.00709561
0.00758975
0.00800847
0.0083712
0.00869226
0.00898162
0.00924598
0.00948959
0.00971491
0.00992277
0.0101115
0.0102769
0.0104236
0.0105575
0.0106854
0.0108133
0.000181682
0.00127958
0.00259703
0.00381678
0.00488819
0.00580513
0.00657804
0.0072258
0.00777032
0.00823262
0.00863074
0.0089789
0.00928758
0.00956402
0.00981287
0.0100368
0.0102369
0.0104122
0.0105597
0.0106841
0.0107909
0.010886
0.0109751
0.000178893
0.0012802
0.00258693
0.00379797
0.00487416
0.00581186
0.00661834
0.00730676
0.00789331
0.00839465
0.00882608
0.00920048
0.00952785
0.00981549
0.0100683
0.0102895
0.0104805
0.0106414
0.010771
0.0108741
0.0109564
0.0110237
0.0110816
0.000176103
0.00128218
0.00258068
0.00378122
0.00485432
0.00580012
0.00662545
0.00734048
0.00795733
0.00848882
0.00894726
0.00934349
0.00968643
0.00998294
0.010238
0.010455
0.0106363
0.0107827
0.0108952
0.0109789
0.0110396
0.0110836
0.0111167
0.000173293
0.00128314
0.00257373
0.0037623
0.00482715
0.00577206
0.00660465
0.00733376
0.00796897
0.0085202
0.00899711
0.00940849
0.0097619
0.0100635
0.0103181
0.0105294
0.0107001
0.0108323
0.0109287
0.0109949
0.0110371
0.0110618
0.0110753
0.000170501
0.0012818
0.00256354
0.00373897
0.00479232
0.00573042
0.00656194
0.00729528
0.00793853
0.00849963
0.00898618
0.00940524
0.00976307
0.0100651
0.0103159
0.0105192
0.0106786
0.0107967
0.0108781
0.0109286
0.0109548
0.0109638
0.0109621
0.000167798
0.00127813
0.00254971
0.00371116
0.00475116
0.0056788
0.0065037
0.00723416
0.00787746
0.00844021
0.00892858
0.00934829
0.00970461
0.0100023
0.0102457
0.0104388
0.0105855
0.0106897
0.0107569
0.0107933
0.0108059
0.0108021
0.0107889
0.00016528
0.00127317
0.00253368
0.00368079
0.00470654
0.00562168
0.00643652
0.00715938
0.00779702
0.00835524
0.00883923
0.0092538
0.00960351
0.00989269
0.0101256
0.0103063
0.0104394
0.0105297
0.0105834
0.010607
0.010608
0.010594
0.0105722
0.000163054
0.00126865
0.00251816
0.0036511
0.00466244
0.00556414
0.00636699
0.00707931
0.00770755
0.00825699
0.00873219
0.00913739
0.0094767
0.00975424
0.00997426
0.0101412
0.0102601
0.0103368
0.0103775
0.0103896
0.0103805
0.0103581
0.01033
0.000161225
0.00126647
0.00250626
0.00362589
0.00462318
0.00551121
0.00630113
0.00700129
0.00761794
0.00815599
0.00861965
0.00901283
0.00933942
0.00960348
0.00980938
0.00996194
0.0100668
0.0101301
0.0101587
0.0101601
0.010142
0.0101126
0.0100794
0.000159885
0.00126824
0.00250076
0.00360851
0.00459255
0.00546713
0.00624387
0.00693117
0.00753516
0.00806058
0.0085114
0.00889136
0.00920427
0.00945424
0.00964582
0.00978439
0.00987582
0.00992661
0.0099439
0.00993539
0.00990913
0.00987324
0.00983542
0.000159106
0.00127498
0.00250345
0.0036012
0.00457301
0.0054347
0.00619845
0.00687286
0.00746405
0.00797664
0.0084145
0.00878126
0.00908074
0.00931716
0.00949531
0.0096209
0.00970003
0.00973946
0.00974654
0.00972908
0.00969519
0.00965297
0.00961007
0.000158934
0.00128691
0.00251473
0.00360445
0.00456525
0.00541482
0.00616619
0.00682825
0.00740721
0.00790766
0.00833337
0.00868792
0.0089751
0.00919925
0.00936553
0.00947972
0.00954821
0.0095779
0.00957622
0.00955094
0.00951005
0.00946148
0.00941274
0.000159384
0.00130339
0.00253338
0.00361686
0.00456793
0.00540647
0.00614646
0.00679727
0.00736524
0.00785497
0.00827011
0.0086141
0.00889068
0.00910429
0.00926043
0.00936511
0.00942495
0.00944696
0.00943846
0.00940698
0.00936018
0.00930562
0.00925048
0.000160432
0.0013229
0.00255668
0.00363534
0.00457808
0.00540701
0.00613716
0.00677839
0.00733728
0.00781836
0.00822506
0.00856048
0.0088282
0.00903286
0.00918041
0.0092774
0.00933074
0.00934747
0.00933465
0.00929935
0.00924861
0.00918937
0.00912825
0.000162
0.0013432
0.00258087
0.00365573
0.00459174
0.00541294
0.00613532
0.00676926
0.00732156
0.00779663
0.00819736
0.00852616
0.00878625
0.0089828
0.00912264
0.00921327
0.0092621
0.00927613
0.009262
0.00922608
0.00917456
0.00911343
0.00904847
0.000163945
0.00136169
0.00260188
0.00367375
0.0046049
0.00542069
0.00613784
0.00676725
0.00731594
0.00778797
0.00818524
0.00850888
0.0087616
0.00894962
0.00908156
0.00916637
0.00921215
0.00922586
0.0092136
0.00918088
0.00913282
0.00907425
0.00900975
0.000166055
0.0013758
0.00261628
0.00368598
0.00461442
0.00542739
0.00614205
0.00676985
0.007318
0.00778994
0.00818585
0.00850489
0.00874932
0.00892741
0.00905023
0.00912871
0.00917192
0.00918689
0.00917916
0.00915333
0.0091134
0.00906292
0.00900511
0.000168061
0.00138329
0.00262203
0.0036908
0.00461878
0.00543137
0.00614601
0.0067747
0.00732484
0.00779885
0.00819454
0.00850893
0.00874491
0.00891195
0.00902342
0.00909338
0.0091327
0.00914876
0.00914665
0.0091301
0.00910206
0.00906489
0.00902049
0.000169666
0.00138293
0.00261963
0.00368921
0.00461861
0.00543251
0.00614863
0.00677953
0.00733272
0.00780936
0.00820483
0.00851655
0.00875452
0.00890961
0.00900305
0.00905808
0.00908886
0.00910308
0.00910511
0.00909771
0.00908281
0.00906179
0.00903554
0.000170529
0.00137852
0.00261434
0.00368552
0.00461668
0.00543207
0.00614965
0.00678237
0.00733772
0.00781576
0.0082105
0.00852697
0.00883275
0.00895131
0.0090012
0.00902591
0.00903909
0.00904562
0.00904762
0.00904628
0.00904232
0.00903623
0.00902827
0.000366179
0.000314456
0.000338565
0.000391678
0.00180063
0.00149966
0.0013753
0.0014709
0.00342159
0.00316714
0.00305895
0.00314189
0.0051475
0.00497948
0.00488363
0.00490395
0.0067237
0.0066184
0.00655862
0.00654925
0.00806962
0.00800262
0.00796984
0.00797271
0.00917614
0.00914148
0.00913132
0.00914382
0.0100668
0.010059
0.0100717
0.0100976
0.0107655
0.0107742
0.0107934
0.0108176
0.011291
0.011313
0.0113273
0.0113452
0.0116225
0.0116672
0.0116879
0.0117106
0.0117044
0.0117911
0.0118534
0.0119002
0.0115974
0.011706
0.011801
0.0118833
0.0113911
0.0115354
0.0116669
0.0117859
0.0111221
0.0113014
0.0114722
0.0116317
0.0108605
0.011064
0.0112623
0.0114514
0.0106605
0.0108686
0.0110749
0.0112747
0.0105537
0.0107465
0.01094
0.0111305
0.0105479
0.0107103
0.0108749
0.0110389
0.0106274
0.0107531
0.0108807
0.0110084
0.0107605
0.0108505
0.0109407
0.0110306
0.0109092
0.0109687
0.0110269
0.0110833
0.0110381
0.0110738
0.0111069
0.0111373
0.0111192
0.0111372
0.0111521
0.0111638
0.0111351
0.0111403
0.0111425
0.0111415
0.0110795
0.0110755
0.011069
0.0110599
0.0109558
0.0109455
0.0109333
0.0109193
0.0107753
0.0107608
0.0107452
0.0107286
0.0105536
0.0105367
0.0105195
0.0105021
0.0103082
0.0102901
0.0102723
0.0102553
0.0100553
0.0100366
0.010019
0.0100028
0.00980905
0.00978978
0.00977223
0.00975679
0.00958081
0.00956046
0.00954232
0.00952678
0.00937948
0.00935717
0.00933734
0.00932042
0.00921213
0.00918693
0.00916422
0.00914445
0.00908437
0.00905573
0.00902927
0.00900547
0.009
0.00896827
0.00893808
0.00890991
0.00895963
0.00892648
0.00889399
0.0088626
0.0089583
0.0089269
0.00889524
0.00886364
0.00898306
0.00895754
0.00893111
0.00890394
0.00901253
0.00899657
0.00897963
0.00896177
0.00902104
0.00901596
0.00901044
0.0090045
0.00101438
0.00297604
0.00437183
0.00546568
0.00640228
0.00708693
0.00758941
0.00790164
0.00802463
0.0080748
0.00797275
0.0076478
0.00718113
0.00656371
0.00583493
0.00511277
0.00424346
0.00289147
0.000485356
0.00208005
0.00369856
0.0049549
0.00599844
0.00686247
0.00749022
0.00799447
0.00834834
0.00852039
0.00861362
0.00853235
0.00822544
0.00767461
0.00707846
0.00638623
0.00558727
0.0046216
0.00316059
0.000512376
0.0035287
0.00465203
0.00568516
0.00661421
0.00731542
0.00787207
0.00835463
0.00871614
0.00892435
0.00903594
0.00897334
0.00867716
0.00808478
0.00748513
0.00673474
0.00585269
0.00483758
0.00335553
0.000541748
0.00509989
0.00579006
0.0065832
0.00731301
0.00784911
0.0083278
0.00875473
0.00908947
0.00930992
0.00941343
0.00938836
0.00909158
0.00842601
0.00774211
0.00689686
0.00595997
0.00493349
0.00346915
0.000563944
0.00662534
0.00702806
0.00757875
0.00808997
0.00849879
0.0088654
0.00920756
0.00948714
0.00969816
0.00975974
0.0097915
0.00947087
0.00868018
0.00784797
0.00691057
0.00592953
0.00490326
0.00346525
0.000569486
0.00803214
0.00827019
0.00860104
0.00892932
0.00919968
0.00943711
0.00967312
0.0098864
0.00998822
0.00998696
0.0099333
0.00957758
0.00876642
0.00784222
0.00682429
0.00578237
0.00473104
0.00331391
0.000553792
0.00919713
0.00934865
0.00953851
0.00973164
0.00988511
0.0100149
0.0101333
0.0102008
0.0101732
0.0100435
0.00982845
0.00941351
0.00868322
0.00774907
0.00669718
0.0055485
0.00435758
0.00282125
0.00053001
0.0101551
0.0102531
0.0103426
0.0104266
0.0104986
0.010544
0.0105476
0.0104677
0.0102944
0.0100176
0.00963963
0.00914137
0.00842903
0.00752034
0.00641361
0.00509205
0.00370705
0.00221356
0.000496827
0.0108608
0.0109208
0.010962
0.0109858
0.0109918
0.0109548
0.0108542
0.0106577
0.0103434
0.00994297
0.00936532
0.00870401
0.00794055
0.00701017
0.00584091
0.00449342
0.00311187
0.00180212
0.000464207
0.0113732
0.0114108
0.011429
0.0114186
0.0113638
0.0112372
0.0110211
0.0107154
0.0102756
0.00971421
0.00896324
0.00818335
0.00736865
0.00645421
0.00535324
0.00409845
0.00285842
0.00170287
0.000449904
0.0117431
0.0117777
0.0117746
0.0117262
0.0116135
0.0114008
0.0110674
0.0106179
0.010041
0.0093348
0.00852403
0.00770932
0.00691054
0.00605702
0.00507696
0.00402279
0.00299715
0.00191623
0.00046047
0.0119562
0.0120057
0.0119967
0.0119136
0.0117362
0.0114332
0.0110014
0.0104408
0.00976691
0.00899789
0.00818521
0.00739819
0.00665067
0.0058861
0.0050677
0.00422141
0.00333352
0.00222039
0.000472736
0.0119852
0.0120771
0.0120888
0.0119938
0.0117769
0.0114222
0.0109249
0.0103021
0.00958204
0.00880423
0.00802596
0.00729442
0.00661058
0.0059408
0.00525167
0.00451252
0.00363139
0.00237871
0.000463621
0.0119493
0.0121036
0.012149
0.012061
0.0118308
0.0114546
0.0109355
0.0102947
0.00956905
0.00880854
0.00806776
0.00738323
0.00674916
0.00613999
0.00550887
0.00478302
0.00383064
0.00239871
0.000448028
0.011866
0.0120936
0.0121889
0.0121327
0.0119224
0.0115616
0.0110588
0.0104371
0.00973443
0.00900143
0.00828863
0.00762483
0.00700987
0.0064174
0.00578957
0.00503073
0.00398322
0.00240406
0.000437165
0.0117434
0.0120409
0.0121941
0.0121865
0.0120196
0.0117021
0.011246
0.010673
0.0100168
0.00932151
0.00863189
0.00797549
0.00736007
0.00676024
0.00611289
0.00530929
0.00415386
0.00244637
0.000433263
0.0115911
0.0119365
0.0121411
0.0121863
0.0120745
0.0118169
0.0114271
0.0109238
0.0103334
0.00969126
0.00903505
0.00839155
0.00777531
0.00716408
0.0064918
0.0056288
0.00437856
0.0025498
0.000434581
0.0114386
0.0117918
0.0120274
0.0121162
0.0120587
0.0118658
0.0115502
0.0111267
0.0106149
0.0100419
0.00943711
0.00882354
0.0082184
0.00760111
0.00689969
0.005969
0.00463872
0.00270036
0.000438086
0.0113098
0.0116351
0.0118718
0.011986
0.0119709
0.011836
0.0115916
0.0112482
0.0108195
0.0103251
0.00978696
0.00922111
0.00864159
0.00802298
0.00728014
0.00629283
0.00489355
0.0028675
0.0004418
0.0112233
0.0114935
0.0117024
0.0118201
0.0118312
0.0117395
0.0115547
0.0112836
0.0109344
0.0105197
0.0100543
0.00954785
0.00900114
0.00837901
0.00760696
0.00657026
0.00510852
0.00301085
0.000444997
0.0111838
0.0113848
0.0115466
0.011645
0.0116651
0.011603
0.0114613
0.0112495
0.0109698
0.010629
0.0102341
0.00978657
0.00927444
0.00865864
0.00786592
0.00678717
0.00526772
0.00308512
0.000448261
0.0111801
0.011312
0.0114194
0.0114849
0.0114965
0.0114483
0.0113395
0.0111728
0.0109484
0.0106708
0.0103385
0.00994414
0.00946639
0.00886074
0.00805246
0.00694051
0.00537548
0.00314112
0.000450207
0.0111889
0.0112625
0.0113198
0.01135
0.0113443
0.0112977
0.0112079
0.0110739
0.0108943
0.010667
0.0103854
0.0100345
0.00958586
0.00899173
0.00818067
0.00705269
0.00546202
0.00318795
0.00045072
0.0111829
0.0112139
0.0112331
0.0112342
0.0112117
0.0111619
0.0110824
0.0109708
0.0108235
0.0106342
0.0103912
0.0100743
0.00965002
0.0090692
0.00826196
0.00712959
0.00552503
0.00321983
0.000450174
0.0111393
0.0111428
0.0111382
0.0111214
0.0110886
0.0110373
0.0109653
0.0108698
0.0107457
0.0105836
0.0103683
0.0100763
0.00967185
0.0091049
0.00830625
0.00717696
0.00556619
0.00323655
0.000448083
0.0110446
0.0110329
0.011017
0.0109935
0.0109593
0.0109119
0.0108489
0.0107672
0.0106602
0.0105177
0.010323
0.0100497
0.00966177
0.00910894
0.00832196
0.00720063
0.00559024
0.00324666
0.000444817
0.0108968
0.0108786
0.0108604
0.0108391
0.0108113
0.0107735
0.0107228
0.0106549
0.0105632
0.010437
0.0102585
0.0100009
0.0096278
0.00908926
0.00831564
0.00720526
0.00559986
0.00325178
0.000441313
0.0107032
0.0106843
0.0106697
0.0106564
0.01064
0.0106165
0.0105812
0.010529
0.010453
0.0103422
0.0101784
0.00993511
0.00957599
0.00905158
0.00829187
0.00719383
0.00559598
0.00324893
0.000436979
0.0104767
0.0104609
0.0104535
0.0104511
0.0104491
0.0104421
0.0104243
0.0103898
0.0103307
0.0102353
0.0100858
0.00985619
0.00951046
0.00899955
0.00825337
0.00716811
0.00557987
0.00323809
0.000431454
0.0102318
0.0102215
0.0102228
0.0102326
0.0102457
0.010256
0.0102566
0.0102404
0.0101986
0.0101187
0.00998316
0.00976646
0.0094333
0.00893485
0.00820133
0.00712873
0.00555201
0.0032209
0.000425492
0.00998209
0.00997772
0.009988
0.0100096
0.0100371
0.0100637
0.010082
0.0100835
0.0100583
0.00999354
0.00987124
0.00966653
0.00934477
0.00885756
0.0081357
0.00707552
0.00551201
0.00319893
0.00041939
0.00973836
0.00973887
0.00975656
0.00978803
0.0098278
0.0098688
0.00990263
0.00992
0.00991002
0.00985904
0.00974898
0.00955518
0.00924361
0.00876656
0.00805565
0.00700814
0.00546045
0.00317227
0.000412641
0.00950903
0.00951165
0.00953358
0.00957151
0.00962001
0.00967189
0.00971816
0.0097487
0.00975174
0.00971296
0.00961391
0.00943
0.00912767
0.00866005
0.00795983
0.00692576
0.00539738
0.00313985
0.000404386
0.00930085
0.00930138
0.00932282
0.00936221
0.00941444
0.0094724
0.00952699
0.00956726
0.00958074
0.00955238
0.00946321
0.00928848
0.0089949
0.00853639
0.00784684
0.00682695
0.00532004
0.00309654
0.000394868
0.00912014
0.00911345
0.00912848
0.00916298
0.00921251
0.00927044
0.00932803
0.00937384
0.00939478
0.00937506
0.00929493
0.00912915
0.00884439
0.00839503
0.00771607
0.00671051
0.00522651
0.00303964
0.000385158
0.00897382
0.00895475
0.00895696
0.0089793
0.00901847
0.00906893
0.0091228
0.00916892
0.00919386
0.00918102
0.00910954
0.00895313
0.00867792
0.00823833
0.00757001
0.00657833
0.00511772
0.00297369
0.000375037
0.00886964
0.00883437
0.00881811
0.00882106
0.00884156
0.00887584
0.00891769
0.00895748
0.00898206
0.00897421
0.00891142
0.00876556
0.00850154
0.00807328
0.00741662
0.00643837
0.00499911
0.00289791
0.00036621
0.00881488
0.00876292
0.00872532
0.00870356
0.00869788
0.00870686
0.0087269
0.00875152
0.00876959
0.00876412
0.00871019
0.00857667
0.00832631
0.00791185
0.00726875
0.00630456
0.00488399
0.00281909
0.000357674
0.0088131
0.00874942
0.00869319
0.00864649
0.00861098
0.00858755
0.00857578
0.00857343
0.00857509
0.00856694
0.0085211
0.00840148
0.00816739
0.00776959
0.00714221
0.00619224
0.00478661
0.00274924
0.000349494
0.00885856
0.00879483
0.00873098
0.00866832
0.00860848
0.00855313
0.00850361
0.00846104
0.00842872
0.00840549
0.00836341
0.00825736
0.00804075
0.0076614
0.00705127
0.00611531
0.00472018
0.00269828
0.000342718
0.00893075
0.00888329
0.00883088
0.00877311
0.00870981
0.00864065
0.00856422
0.00847737
0.00838118
0.00830501
0.00825503
0.00815854
0.00795726
0.00759493
0.00700102
0.00607765
0.00468886
0.00267097
0.000338913
0.00899385
0.00897645
0.00895569
0.00893064
0.00890012
0.00886206
0.00881111
0.00872992
0.00856439
0.00827669
0.00820336
0.0081103
0.00791812
0.0075665
0.00698309
0.00606775
0.0046812
0.00266026
0.000339195
)
;

boundaryField
{
    leftWall
    {
        type            nutkWallFunction;
        Cmu             0.09;
        kappa           0.41;
        E               9.8;
        value           nonuniform List<scalar> 
50
(
8.25099e-06
1.17574e-05
1.41456e-05
1.59523e-05
1.73612e-05
1.85277e-05
1.95256e-05
2.03948e-05
2.16377e-05
2.25787e-05
2.31318e-05
2.32902e-05
2.32559e-05
2.37542e-05
2.57165e-05
3.04907e-05
3.37353e-05
3.6184e-05
3.59449e-05
3.39748e-05
3.11018e-05
2.78958e-05
2.50483e-05
2.27923e-05
2.10934e-05
1.98878e-05
1.90595e-05
1.84754e-05
1.80228e-05
1.76253e-05
1.72411e-05
1.6852e-05
1.6454e-05
1.6051e-05
1.56514e-05
1.52673e-05
1.49129e-05
1.46033e-05
1.43528e-05
1.41739e-05
1.40767e-05
1.40681e-05
1.41515e-05
1.43247e-05
1.45776e-05
1.48899e-05
1.523e-05
1.55569e-05
1.58242e-05
1.59775e-05
)
;
    }
    rightWall
    {
        type            nutkWallFunction;
        Cmu             0.09;
        kappa           0.41;
        E               9.8;
        value           nonuniform List<scalar> 
50
(
1.64219e-05
2.04121e-05
2.39072e-05
2.84258e-05
3.31696e-05
3.8662e-05
4.44495e-05
4.90121e-05
5.26907e-05
5.45841e-05
5.61976e-05
5.78419e-05
5.85776e-05
5.74237e-05
5.88336e-05
6.0835e-05
5.97258e-05
6.01995e-05
6.23357e-05
6.29316e-05
6.03905e-05
5.76475e-05
5.56977e-05
5.49713e-05
5.46905e-05
5.4838e-05
5.51233e-05
5.54165e-05
5.57588e-05
5.59593e-05
5.59631e-05
5.57752e-05
5.52105e-05
5.503e-05
5.45151e-05
5.37144e-05
5.2905e-05
5.20793e-05
5.12161e-05
5.01828e-05
4.89658e-05
4.76239e-05
4.62777e-05
4.48542e-05
4.35662e-05
4.23122e-05
4.10716e-05
3.99858e-05
3.92932e-05
3.91974e-05
)
;
    }
    lowerWall
    {
        type            nutkWallFunction;
        Cmu             0.09;
        kappa           0.41;
        E               9.8;
        value           nonuniform List<scalar> 
62
(
3.86466e-06
5.49749e-06
6.76918e-06
7.61989e-06
8.29874e-06
8.92449e-06
9.56174e-06
1.02412e-05
1.0968e-05
1.17294e-05
1.24878e-05
1.3144e-05
1.36588e-05
1.40278e-05
1.42813e-05
1.44411e-05
1.45386e-05
1.46299e-05
1.46163e-05
1.4296e-05
1.3228e-05
1.07265e-05
6.60068e-06
6.60068e-06
1.88658e-05
2.12318e-05
2.38191e-05
2.65977e-05
3.02334e-05
3.50733e-05
4.15781e-05
3.92305e-05
3.46463e-05
3.76304e-05
4.302e-05
1.04716e-05
3.35428e-05
3.92186e-05
4.23815e-05
4.44227e-05
4.588e-05
4.70246e-05
4.83825e-05
1.04716e-05
1.31179e-05
1.63904e-05
1.88922e-05
2.0891e-05
2.25403e-05
2.33817e-05
2.34176e-05
2.25275e-05
2.11159e-05
1.96889e-05
1.85794e-05
1.75084e-05
1.6266e-05
1.51171e-05
1.40568e-05
1.27849e-05
1.05153e-05
7.28138e-06
)
;
    }
    atmosphere
    {
        type            calculated;
        value           nonuniform List<scalar> 
46
(
0.000170529
0.00137852
0.00261434
0.00368552
0.00461668
0.00543207
0.00614965
0.00678237
0.00733772
0.00781576
0.0082105
0.00852697
0.009
0.009
0.009
0.009
0.009
0.009
0.009
0.009
0.009
0.009
0.009
0.009
0.009
0.009
0.009
0.009
0.009
0.009
0.009
0.009
0.009
0.009
0.009
0.009
0.00827669
0.00820336
0.0081103
0.00791812
0.0075665
0.00698309
0.00606775
0.0046812
0.00266026
0.000339195
)
;
    }
    defaultFaces
    {
        type            empty;
    }
}


// ************************************************************************* //
