/*--------------------------------*- C++ -*----------------------------------*\
| =========                 |                                                 |
| \\      /  F ield         | OpenFOAM: The Open Source CFD Toolbox           |
|  \\    /   O peration     | Version:  2.3.0                                 |
|   \\  /    A nd           | Web:      www.OpenFOAM.org                      |
|    \\/     M anipulation  |                                                 |
\*---------------------------------------------------------------------------*/
FoamFile
{
    version     2.0;
    format      ascii;
    class       volScalarField;
    location    "1.05";
    object      p;
}
// * * * * * * * * * * * * * * * * * * * * * * * * * * * * * * * * * * * * * //

dimensions      [1 -1 -2 0 0 0 0];

internalField   nonuniform List<scalar> 
2268
(
1076.69
1070.77
1061.77
1048.75
1032.26
1012.5
989.89
964.942
938.31
910.792
883.503
857.859
835.516
818.483
808.17
805.642
810.781
821.917
835.713
845.263
845.065
837.874
834.544
1018.86
1013.28
1004.94
992.148
975.653
955.68
932.645
907.086
879.717
851.437
823.484
797.447
775.269
758.863
749.234
746.784
750.955
760.905
773.068
781.478
781.692
776.506
775.304
962.05
956.578
948.6
936.08
919.638
899.451
875.929
849.619
821.306
792.013
763.081
736.308
713.747
697.282
687.941
685.708
689.746
699.049
710.715
719.101
720.356
716.889
715.78
906.706
900.558
892.535
880.222
863.82
843.422
819.403
792.319
763.019
732.603
702.441
674.51
651.003
633.86
624.304
622.32
626.929
637.255
650.637
660.637
662.964
659.437
656.145
851.854
845.154
836.837
824.639
808.256
787.663
763.175
735.327
704.993
673.29
641.547
611.975
586.955
568.559
558.469
556.813
562.458
574.983
592.021
605.092
608.246
603.175
596.349
797.643
790.347
781.632
769.511
753.158
732.406
707.473
678.829
647.338
614.089
580.301
548.532
521.429
501.262
490.405
489.137
495.873
511.299
534.304
552.062
555.354
547.121
536.319
743.901
736.082
726.987
714.947
698.67
677.811
652.449
622.945
590.121
555.006
518.626
484.019
454.195
431.605
419.51
418.322
425.879
445.769
478.441
502.801
504.438
490.32
475.325
690.497
682.309
672.867
660.886
644.721
623.798
598.02
567.623
533.348
496.017
456.546
418.496
385.187
358.83
343.639
340.824
349.483
380.387
429.217
457.517
452.592
431.13
409.526
694.495
668.333
621.133
550.937
516.62
519.873
535.648
545.914
538.683
522.111
498.408
472.206
444.444
417.003
395.072
382.693
378.083
375.525
376.755
639.023
616.024
568.677
487.234
445.445
450.943
466.101
474.307
468.143
457.751
441.475
417.028
389.335
362.196
340.418
327.088
321.891
318.483
321.62
592.172
564.277
508.588
424.112
399.466
412.805
428.717
431.504
412.042
394.823
382.329
360.472
333.537
306.49
284.039
270.374
265.646
263.821
266.175
548.381
510.75
444.277
375.187
371.091
390.819
407.937
411.004
385.653
344.509
324.369
303.912
277.614
247.944
222.928
209.486
207.582
209.612
211.096
504.691
458.286
390.615
341.213
343.503
360.749
376.163
380.762
365.129
318.82
276.676
249.108
220.034
184.793
161.67
155.652
159.61
163.736
164.849
459.585
409.028
345.999
307.239
315.327
325.729
331.881
333.215
326.186
307.957
249.834
197.557
159.745
133.187
126.253
131.134
139.211
142.684
143.978
412.466
362.048
300.691
271.653
290.705
295.627
292.483
284.259
269.937
282.002
234.341
162.759
120.211
111.569
115.994
124.836
134.163
138.195
140.346
362.694
315.34
254.73
245.073
266.339
267.771
262.49
243.582
207.594
232.698
212.317
146.698
108.04
104.005
110.34
119.585
128.353
134.116
136.862
607.404
598.884
588.922
576.924
560.968
540.03
513.659
481.856
445.28
404.079
359.007
315.001
275.84
244.684
227.545
225.392
244.656
304.33
365.696
382.191
367.704
339.441
304.667
495.456
486.913
477.14
465.754
450.688
430.36
403.473
369.171
328.996
282.521
226.928
184.567
161.223
145.085
137.357
141.153
162.089
208.233
252.381
270.412
266.216
246.994
217.413
384.775
377.263
368.785
358.961
345.806
327.008
299.783
261.152
214.405
177.873
146.049
129.524
121.977
116.196
112.202
113.14
118.862
132.167
155.585
181.693
187.537
183.045
178.024
275.464
270.338
264.218
256.92
246.803
229.802
201.741
164.977
136.231
132.588
134.678
125.992
112.643
102.333
96.846
95.0826
92.0829
85.3342
93.7446
120.58
128.151
132.084
145.202
167.382
165.915
162.102
155.473
145.686
130.597
113.036
105.216
108.241
109.317
107.823
106.305
99.6087
89.2774
83.1879
79.7795
75.3307
65.6847
59.32
69.4743
76.5614
77.1199
82.9369
67.1615
68.3365
65.6581
57.5705
47.4112
40.7363
43.4386
58.4203
68.0864
68.5435
68.6765
70.5572
72.432
72.012
69.3231
65.9757
63.3819
55.7833
46.3282
39.7171
39.526
39.0468
27.3903
7.90365
8.35612
7.11673
3.96449
2.17477
5.15706
11.48
17.6517
23.3218
25.6632
23.9998
26.0354
31.8682
40.5691
47.4394
50.8745
50.1755
44.7836
36.4488
29.4039
23.3352
16.8325
15.0546
-1.38295
-1.61708
-1.44078
-1.12272
-0.916929
-0.57171
0.140381
1.2459
3.10101
2.3213
0.93315
1.46329
3.59242
7.40082
10.9686
20.9406
27.7364
28.8853
26.7826
22.2283
16.8266
11.9313
6.5339
-1.56961
-1.64136
-1.66958
-1.64899
-1.59569
-1.60051
-1.69122
-1.74721
-1.63404
-1.67845
-1.67893
-1.57635
-1.51319
-1.64624
-1.56821
0.23545
2.9016
6.25305
11.7586
11.9893
9.35971
7.34074
4.91575
-1.7082
-1.74788
-1.77332
-1.77817
-1.78575
-1.85819
-2.01596
-2.08707
-2.04861
-2.06749
-2.07998
-2.08322
-2.08592
-2.06071
-2.01714
-2.12463
-2.36621
-1.95114
0.251127
1.37602
1.90927
2.11812
-1.02703
-1.84107
-1.87616
-1.89769
-1.91028
-1.94105
-2.01455
-2.12093
-2.18738
-2.1994
-2.20495
-2.20612
-2.21456
-2.23001
-2.2353
-2.23627
-2.25232
-2.26029
-2.20371
-2.27672
-2.31797
-1.6932
-0.866498
-2.59271
-1.98001
-2.00913
-2.03156
-2.05093
-2.08458
-2.14335
-2.21809
-2.27521
-2.29953
-2.31526
-2.32827
-2.34421
-2.36443
-2.38426
-2.40136
-2.41526
-2.40931
-2.38666
-2.3592
-2.31679
-2.29222
-2.46596
-2.64942
-2.12216
-2.14311
-2.16224
-2.18205
-2.21185
-2.25729
-2.31301
-2.36171
-2.39396
-2.4202
-2.44416
-2.46786
-2.49149
-2.51343
-2.53184
-2.54491
-2.54543
-2.53349
-2.51619
-2.49185
-2.47596
-2.47599
-2.47491
-2.26034
-2.27494
-2.28882
-2.30593
-2.33048
-2.36561
-2.40832
-2.4497
-2.48398
-2.51427
-2.54259
-2.56988
-2.59576
-2.61856
-2.63673
-2.64889
-2.65195
-2.64543
-2.63448
-2.61911
-2.60378
-2.58681
-2.56332
-2.39254
-2.40254
-2.41187
-2.42569
-2.44546
-2.47266
-2.50563
-2.53981
-2.57163
-2.60136
-2.62975
-2.65713
-2.68294
-2.70567
-2.72369
-2.7356
-2.73978
-2.7361
-2.72688
-2.71238
-2.69403
-2.67107
-2.63916
-2.52079
-2.52622
-2.53194
-2.54255
-2.5583
-2.57953
-2.60518
-2.63288
-2.66045
-2.68733
-2.71352
-2.73888
-2.76279
-2.784
-2.80105
-2.81261
-2.81747
-2.81529
-2.80682
-2.79233
-2.77253
-2.7474
-2.71488
-2.64612
-2.6473
-2.65006
-2.65774
-2.67016
-2.68688
-2.70707
-2.72937
-2.75246
-2.77565
-2.79858
-2.82089
-2.84193
-2.86069
-2.87595
-2.88658
-2.89156
-2.8903
-2.88276
-2.86898
-2.84931
-2.82407
-2.7929
-2.76877
-2.76688
-2.76737
-2.7725
-2.78208
-2.79531
-2.81135
-2.82933
-2.84838
-2.86788
-2.88736
-2.90638
-2.92431
-2.94029
-2.95336
-2.96256
-2.96707
-2.96622
-2.95965
-2.94713
-2.92882
-2.90519
-2.8766
-2.88945
-2.8858
-2.88468
-2.88769
-2.8948
-2.90517
-2.918
-2.93256
-2.94822
-2.96444
-2.98076
-2.99671
-3.01171
-3.02504
-3.03589
-3.0435
-3.04719
-3.04636
-3.04056
-3.02943
-3.013
-2.99179
-2.96626
-3.0091
-3.00462
-3.00241
-3.00373
-3.00871
-3.01668
-3.02692
-3.03877
-3.05167
-3.06513
-3.07872
-3.09199
-3.10443
-3.11542
-3.12428
-3.13039
-3.1332
-3.13221
-3.12699
-3.11719
-3.10277
-3.08417
-3.06178
-3.12842
-3.12365
-3.12072
-3.12073
-3.12395
-3.1299
-3.138
-3.14765
-3.15832
-3.16951
-3.18081
-3.19181
-3.20206
-3.21105
-3.21823
-3.22308
-3.22513
-3.22399
-3.21928
-3.2107
-3.1982
-3.18212
-3.16273
-3.24776
-3.24296
-3.23957
-3.2386
-3.24042
-3.24473
-3.25106
-3.2589
-3.26773
-3.27707
-3.28648
-3.29558
-3.304
-3.31133
-3.31712
-3.32094
-3.3224
-3.32119
-3.31699
-3.30955
-3.29881
-3.28505
-3.26845
-3.36718
-3.36248
-3.3588
-3.35715
-3.35793
-3.36093
-3.36581
-3.37214
-3.37944
-3.38724
-3.3951
-3.40266
-3.40959
-3.41554
-3.42019
-3.42318
-3.42421
-3.423
-3.4193
-3.41291
-3.40377
-3.3921
-3.37801
-3.48663
-3.48209
-3.47827
-3.47619
-3.47623
-3.47825
-3.48196
-3.48702
-3.49302
-3.49951
-3.5061
-3.5124
-3.51812
-3.52298
-3.52671
-3.52905
-3.52974
-3.52858
-3.52536
-3.51993
-3.51221
-3.50241
-3.49058
-3.60612
-3.60177
-3.59794
-3.59563
-3.59518
-3.59647
-3.59925
-3.60325
-3.60814
-3.61352
-3.61902
-3.62429
-3.62905
-3.63305
-3.63607
-3.63791
-3.63837
-3.6373
-3.63453
-3.62995
-3.6235
-3.61534
-3.60549
-3.7257
-3.7216
-3.71787
-3.71547
-3.71472
-3.71548
-3.71754
-3.72068
-3.72461
-3.72902
-3.73358
-3.73799
-3.74197
-3.7453
-3.74779
-3.74927
-3.7496
-3.74865
-3.74631
-3.74249
-3.73714
-3.73041
-3.72228
-3.84551
-3.84169
-3.83814
-3.83576
-3.83485
-3.83523
-3.83674
-3.83916
-3.84229
-3.84586
-3.84961
-3.85326
-3.85659
-3.85939
-3.86147
-3.86271
-3.86298
-3.86219
-3.86025
-3.8571
-3.85271
-3.84718
-3.84052
-3.96568
-3.96216
-3.95883
-3.95655
-3.95556
-3.95568
-3.95674
-3.95859
-3.96104
-3.96389
-3.96692
-3.96991
-3.97267
-3.97501
-3.97677
-3.97783
-3.97809
-3.97747
-3.9759
-3.97333
-3.96974
-3.96523
-3.95978
-4.08627
-4.08306
-4.07999
-4.07786
-4.07683
-4.07675
-4.07747
-4.07884
-4.08071
-4.08293
-4.08533
-4.08774
-4.08998
-4.09191
-4.09339
-4.0943
-4.09455
-4.09407
-4.09282
-4.09074
-4.08783
-4.08415
-4.0797
-4.20729
-4.20438
-4.20159
-4.19963
-4.1986
-4.19837
-4.19879
-4.19976
-4.20115
-4.20283
-4.20467
-4.20655
-4.20832
-4.20986
-4.21106
-4.21181
-4.21204
-4.21167
-4.21067
-4.209
-4.20663
-4.20364
-4.19999
-4.3287
-4.32606
-4.32356
-4.32176
-4.32076
-4.32041
-4.3206
-4.32122
-4.32218
-4.32339
-4.32475
-4.32615
-4.32749
-4.32867
-4.3296
-4.33018
-4.33035
-4.33005
-4.32924
-4.32789
-4.32596
-4.32352
-4.32054
-4.45039
-4.44802
-4.44578
-4.44416
-4.4432
-4.44276
-4.44274
-4.44307
-4.44368
-4.44448
-4.44541
-4.44639
-4.44735
-4.4482
-4.44887
-4.44928
-4.44937
-4.4491
-4.44843
-4.44732
-4.44576
-4.44376
-4.44132
-4.57229
-4.57017
-4.56818
-4.56672
-4.56581
-4.5653
-4.56512
-4.5652
-4.5655
-4.56596
-4.56653
-4.56716
-4.56778
-4.56834
-4.56878
-4.56902
-4.56904
-4.56877
-4.5682
-4.56729
-4.56601
-4.56439
-4.5624
-4.69431
-4.69242
-4.69066
-4.68936
-4.6885
-4.68795
-4.68764
-4.68752
-4.68757
-4.68775
-4.68802
-4.68835
-4.6887
-4.68902
-4.68926
-4.68937
-4.68931
-4.68905
-4.68855
-4.6878
-4.68676
-4.68545
-4.68384
-4.81638
-4.81471
-4.81316
-4.81201
-4.8112
-4.81063
-4.81023
-4.80996
-4.80981
-4.80976
-4.80979
-4.80989
-4.81003
-4.81018
-4.81027
-4.81028
-4.81016
-4.8099
-4.80948
-4.80886
-4.80803
-4.80698
-4.8057
-4.93845
-4.937
-4.93565
-4.93463
-4.93389
-4.93331
-4.93284
-4.93247
-4.93217
-4.93194
-4.93178
-4.93171
-4.9317
-4.93173
-4.93174
-4.93169
-4.93155
-4.93131
-4.93095
-4.93046
-4.9298
-4.92899
-4.928
-5.06049
-5.05924
-5.05808
-5.05719
-5.05652
-5.05595
-5.05546
-5.055
-5.05459
-5.05423
-5.05393
-5.05372
-5.05364
-5.05363
-5.05361
-5.05355
-5.05342
-5.05322
-5.05294
-5.05256
-5.05207
-5.05147
-5.05072
-5.18247
-5.18142
-5.18044
-5.17968
-5.17909
-5.17856
-5.17806
-5.17756
-5.17706
-5.17659
-5.17617
-5.17586
-5.17577
-5.17581
-5.17583
-5.17581
-5.17572
-5.17558
-5.17539
-5.17512
-5.17479
-5.17437
-5.17384
-5.30436
-5.30351
-5.3027
-5.30209
-5.30159
-5.30112
-5.30064
-5.30012
-5.29956
-5.29899
-5.29844
-5.29803
-5.29801
-5.29822
-5.29836
-5.29842
-5.29841
-5.29835
-5.29824
-5.2981
-5.2979
-5.29764
-5.29731
-5.42613
-5.42547
-5.42486
-5.42442
-5.42406
-5.42368
-5.42324
-5.42272
-5.42209
-5.42136
-5.42057
-5.4199
-5.42012
-5.42082
-5.42121
-5.42138
-5.42145
-5.42148
-5.42148
-5.42144
-5.42137
-5.42125
-5.42107
-5.5477
-5.54731
-5.54697
-5.54677
-5.54659
-5.54633
-5.54594
-5.54539
-5.54466
-5.54365
-5.54228
-5.54079
-5.54149
-5.54349
-5.54437
-5.54468
-5.54483
-5.54495
-5.54504
-5.54511
-5.54515
-5.54515
-5.54509
-5.66906
-5.66895
-5.66891
-5.66893
-5.6689
-5.66876
-5.66849
-5.66806
-5.66743
-5.66647
-5.66483
-5.6621
-5.66253
-5.66607
-5.6674
-5.66791
-5.66823
-5.66851
-5.66878
-5.66903
-5.66925
-5.66941
-5.66949
286.073
276.57
264.924
250.243
195.495
190.175
196.714
205.355
171.721
168.507
171.518
175.916
149.131
147.226
146.626
147.495
96.426
106.454
112.604
116.305
20.3497
23.1415
31.6388
37.5658
9.81945
5.30029
3.95157
4.42472
3.01434
1.74161
1.32093
1.37002
3.28431
3.44135
4.5343
5.28089
-2.41784
-2.68471
-1.34833
-1.03962
-3.0032
-3.00884
-2.30913
-2.07261
-2.62224
-2.56848
-2.51581
-2.47658
-2.44207
-2.38511
-2.30474
-2.25516
-2.54125
-2.51649
-2.48205
-2.44276
-2.60385
-2.57708
-2.5485
-2.52028
-2.68166
-2.65622
-2.6289
-2.60237
-2.76185
-2.73753
-2.7114
-2.68656
-2.84825
-2.82556
-2.80109
-2.77806
-2.94065
-2.91985
-2.89732
-2.87629
-3.03896
-3.02022
-2.99983
-2.98089
-3.14269
-3.12607
-3.10791
-3.09108
-3.25109
-3.23659
-3.22065
-3.20587
-3.36321
-3.35076
-3.33696
-3.32413
-3.47811
-3.46757
-3.4558
-3.44477
-3.5951
-3.58629
-3.57635
-3.56696
-3.7137
-3.70638
-3.69804
-3.69009
-3.83347
-3.82742
-3.82044
-3.81371
-3.95402
-3.94903
-3.94319
-3.93752
-4.07499
-4.07088
-4.06602
-4.06126
-4.19615
-4.19277
-4.18876
-4.18481
-4.31739
-4.31464
-4.31137
-4.30814
-4.43875
-4.43651
-4.43388
-4.4313
-4.56029
-4.5585
-4.55641
-4.55439
-4.68213
-4.68071
-4.67907
-4.67751
-4.80433
-4.80321
-4.80195
-4.80076
-4.92692
-4.92605
-4.92509
-4.92421
-5.0499
-5.04924
-5.04852
-5.04788
-5.17324
-5.17275
-5.17223
-5.17177
-5.29688
-5.29654
-5.29617
-5.29586
-5.4208
-5.42057
-5.42032
-5.42011
-5.54494
-5.54479
-5.54462
-5.54446
-5.66944
-5.66938
-5.6693
-5.6692
274.721
246.131
210.434
213.497
219.337
219.188
215.506
181.577
142.848
160.557
152.039
120.535
97.9139
96.5359
102.722
107.731
114.385
123.863
130.919
212.319
185.167
175.777
178.881
175.188
170.296
149.202
109.082
97.2979
108.222
102.487
85.2877
77.7728
82.346
87.7723
89.1379
93.4452
105.028
117.975
170.665
154.616
156.194
155.983
146.32
122.851
85.6592
63.2645
66.1505
71.685
67.6214
50.0914
51.9928
62.5561
66.4503
67.8482
70.8457
80.0487
95.7138
143.115
142.444
140.299
133.023
106.279
66.5035
39.2744
36.5703
44.3382
43.2372
35.3359
22.7262
30.3156
39.9835
45.169
46.2726
46.0446
50.0216
65.4836
119.677
119.658
111.955
85.7695
46.1498
22.6827
19.5838
26.1284
30.4751
27.522
20.841
13.0747
16.4068
22.4176
26.9796
24.3685
19.0406
16.8393
31.3489
44.819
43.0488
37.258
22.6471
16.0931
13.6544
15.971
19.9181
20.8746
16.4375
12.8873
9.02911
7.95232
7.97778
9.74317
6.19624
2.27639
0.292633
7.67913
4.87857
4.48863
6.80874
9.33433
11.3526
12.5929
12.758
13.5338
12.5479
8.64367
5.0174
2.96618
0.979129
-0.0901999
-0.438948
-0.47
-0.670928
-1.42554
-0.21841
1.96301
4.34
7.57527
10.8592
11.823
9.54648
7.77253
4.37348
4.35583
2.8516
-0.0353663
-0.511373
-0.716588
-0.699526
-0.755159
-0.907475
-1.05548
-1.20181
-0.791379
5.71558
6.58535
7.42272
7.10317
5.29402
3.55767
1.30626
-1.39462
-0.882123
-0.981752
-1.16128
-1.10714
-1.00798
-0.986959
-0.994387
-1.06078
-1.08167
-1.05885
-0.935289
-0.642596
-0.25424
0.0742808
-0.153993
-0.904172
-0.938929
-1.03965
-1.6284
-1.49573
-1.34711
-1.40391
-1.33897
-1.26191
-1.22281
-1.19975
-1.1837
-1.14283
-1.10907
-1.09607
-2.51124
-2.50437
-2.1315
-1.97115
-2.08639
-2.07272
-1.76379
-1.61614
-1.63668
-1.60357
-1.62466
-1.57667
-1.49159
-1.41356
-1.36802
-1.31991
-1.26943
-1.25868
-1.29046
-2.44587
-2.38354
-2.28276
-2.09438
-1.9396
-1.88185
-1.81978
-1.78521
-1.78812
-1.77832
-1.7788
-1.71981
-1.64678
-1.57876
-1.52883
-1.47834
-1.44163
-1.45046
-1.49716
-2.22099
-2.16977
-2.10847
-2.05036
-2.02102
-1.99972
-1.9645
-1.93445
-1.91302
-1.89436
-1.87593
-1.82943
-1.77564
-1.72734
-1.68975
-1.65602
-1.63625
-1.64046
-1.66785
-2.37114
-2.30473
-2.24428
-2.19138
-2.15373
-2.12276
-2.08849
-2.05457
-2.02336
-1.9981
-1.97374
-1.93801
-1.90084
-1.86973
-1.84928
-1.83505
-1.81564
-1.80695
-1.81634
-2.47345
-2.41393
-2.35761
-2.30648
-2.26464
-2.23035
-2.19629
-2.16229
-2.1323
-2.10698
-2.08271
-2.05597
-2.03206
-2.01313
-2.00215
-1.9934
-1.97696
-1.96318
-1.96788
-2.56155
-2.50854
-2.45758
-2.41068
-2.36999
-2.33493
-2.30215
-2.27233
-2.24783
-2.22626
-2.20592
-2.18733
-2.17265
-2.16168
-2.15452
-2.1475
-2.13857
-2.13204
-2.13133
-2.65017
-2.6033
-2.5579
-2.51558
-2.47787
-2.44504
-2.41599
-2.39164
-2.37186
-2.35549
-2.3417
-2.33011
-2.32057
-2.3144
-2.31099
-2.30854
-2.30663
-2.30691
-2.30188
-2.74534
-2.70414
-2.66396
-2.62615
-2.59203
-2.56271
-2.53853
-2.51861
-2.5021
-2.4903
-2.48201
-2.47557
-2.47062
-2.46822
-2.46777
-2.46844
-2.47088
-2.4755
-2.46639
-2.84716
-2.81122
-2.77589
-2.74254
-2.71251
-2.68678
-2.66615
-2.64989
-2.63708
-2.62843
-2.62352
-2.62106
-2.62021
-2.62072
-2.62207
-2.62399
-2.62742
-2.63249
-2.623
-2.95514
-2.92399
-2.89317
-2.86403
-2.83794
-2.81573
-2.79798
-2.78455
-2.77514
-2.76951
-2.76715
-2.76708
-2.7684
-2.77042
-2.77246
-2.77424
-2.77611
-2.77775
-2.7716
-3.06848
-3.04162
-3.01495
-2.98965
-2.9671
-2.94804
-2.93294
-2.92192
-2.91486
-2.91139
-2.91066
-2.91183
-2.91402
-2.91649
-2.91855
-2.91979
-2.91979
-2.91708
-2.91296
-3.18615
-3.16307
-3.14009
-3.11821
-3.09873
-3.08233
-3.06947
-3.06031
-3.05477
-3.05244
-3.05251
-3.0541
-3.05641
-3.05869
-3.06039
-3.06124
-3.06088
-3.05667
-3.04831
-3.30702
-3.28722
-3.26744
-3.24851
-3.23162
-3.21741
-3.20628
-3.19843
-3.19375
-3.19185
-3.19202
-3.19345
-3.19533
-3.19698
-3.19794
-3.19814
-3.19774
-3.194
-3.17998
-3.43002
-3.41305
-3.39601
-3.37959
-3.36486
-3.35239
-3.34256
-3.33554
-3.33123
-3.32929
-3.3291
-3.3299
-3.33096
-3.33161
-3.33138
-3.33007
-3.32753
-3.32139
-3.3082
-3.55432
-3.53978
-3.52509
-3.51081
-3.49787
-3.4868
-3.47791
-3.47136
-3.4671
-3.4648
-3.46395
-3.46388
-3.46389
-3.46334
-3.46166
-3.45832
-3.45229
-3.4407
-3.42755
-3.67929
-3.66685
-3.65419
-3.64175
-3.63034
-3.6204
-3.61221
-3.60593
-3.6015
-3.59867
-3.59702
-3.59598
-3.59491
-3.5932
-3.59024
-3.58539
-3.57776
-3.56403
-3.5477
-3.80451
-3.79389
-3.783
-3.77218
-3.7621
-3.75312
-3.7455
-3.73937
-3.73469
-3.73129
-3.72883
-3.72684
-3.72478
-3.72207
-3.71813
-3.71236
-3.70441
-3.69232
-3.67603
-3.9297
-3.92065
-3.91132
-3.90195
-3.89305
-3.88494
-3.87783
-3.87181
-3.86691
-3.863
-3.85982
-3.85701
-3.85412
-3.85063
-3.84596
-3.83959
-3.83108
-3.81963
-3.80367
-4.05466
-4.04701
-4.03906
-4.03097
-4.02316
-4.01586
-4.00924
-4.00339
-3.99835
-3.99404
-3.99031
-3.98687
-3.98337
-3.97935
-3.9743
-3.96796
-3.9594
-3.94647
-3.92858
-4.1793
-4.17288
-4.16616
-4.15923
-4.15242
-4.14589
-4.13978
-4.13418
-4.12913
-4.1246
-4.12051
-4.11665
-4.11276
-4.10847
-4.10334
-4.09731
-4.08929
-4.0747
-4.05582
-4.30362
-4.29829
-4.29266
-4.28677
-4.28088
-4.2751
-4.26954
-4.26427
-4.25935
-4.25478
-4.25052
-4.24645
-4.24238
-4.238
-4.23289
-4.22688
-4.2186
-4.20484
-4.18641
-4.42766
-4.4233
-4.41863
-4.41368
-4.40864
-4.40359
-4.39861
-4.39376
-4.38909
-4.38463
-4.38038
-4.37629
-4.37224
-4.36796
-4.36304
-4.35735
-4.34919
-4.33666
-4.31894
-4.55152
-4.54801
-4.54419
-4.54008
-4.53582
-4.53148
-4.5271
-4.52273
-4.51842
-4.51421
-4.51012
-4.50616
-4.50228
-4.49834
-4.494
-4.48931
-4.48267
-4.47096
-4.45193
-4.6753
-4.67253
-4.66945
-4.66609
-4.66255
-4.65888
-4.65511
-4.65127
-4.64741
-4.64354
-4.6397
-4.63596
-4.63237
-4.62891
-4.62557
-4.62264
-4.61701
-4.60396
-4.58459
-4.79911
-4.79696
-4.79453
-4.79183
-4.78895
-4.78592
-4.78276
-4.77949
-4.77613
-4.77267
-4.76913
-4.76562
-4.76228
-4.75925
-4.75658
-4.7545
-4.74961
-4.73412
-4.71671
-4.923
-4.92139
-4.91951
-4.91739
-4.9151
-4.91267
-4.91013
-4.90747
-4.90467
-4.90167
-4.89843
-4.89512
-4.89201
-4.88914
-4.88647
-4.88365
-4.87822
-4.86411
-4.84876
-5.04703
-5.04585
-5.04444
-5.04282
-5.04106
-5.0392
-5.03726
-5.03525
-5.03311
-5.03063
-5.02771
-5.02464
-5.02172
-5.01884
-5.01598
-5.01247
-5.00602
-4.99405
-4.98083
-5.17119
-5.17035
-5.16933
-5.16814
-5.16685
-5.16551
-5.16417
-5.16284
-5.16148
-5.15962
-5.15701
-5.15421
-5.15137
-5.14853
-5.14552
-5.1417
-5.13553
-5.12508
-5.11331
-5.29547
-5.29489
-5.29417
-5.29333
-5.29244
-5.29156
-5.29078
-5.29021
-5.28988
-5.28887
-5.28638
-5.2836
-5.28079
-5.27799
-5.27507
-5.27148
-5.26601
-5.25691
-5.24645
-5.41983
-5.41941
-5.41889
-5.4183
-5.41771
-5.41721
-5.41695
-5.41732
-5.41887
-5.41945
-5.41645
-5.41318
-5.41016
-5.40732
-5.40455
-5.40151
-5.39715
-5.38956
-5.38064
-5.54423
-5.54388
-5.54345
-5.54301
-5.5426
-5.54232
-5.54249
-5.54424
-5.54969
-5.55303
-5.54798
-5.54344
-5.53981
-5.53666
-5.5339
-5.53148
-5.52874
-5.52339
-5.51709
-5.66903
-5.6687
-5.6683
-5.66789
-5.66754
-5.66738
-5.66786
-5.67082
-5.68118
-5.68238
-5.67577
-5.67124
-5.66806
-5.66547
-5.66334
-5.66176
-5.66058
-5.65838
-5.65554
)
;

boundaryField
{
    leftWall
    {
        type            calculated;
        value           nonuniform List<scalar> 
50
(
1076.69
1018.86
962.05
906.706
851.854
797.643
743.901
690.497
607.404
495.456
384.775
275.464
167.382
67.1615
7.90365
-1.38295
-1.56961
-1.7082
-1.84107
-1.98001
-2.12216
-2.26034
-2.39254
-2.52079
-2.64612
-2.76877
-2.88945
-3.0091
-3.12842
-3.24776
-3.36718
-3.48663
-3.60612
-3.7257
-3.84551
-3.96568
-4.08627
-4.20729
-4.3287
-4.45039
-4.57229
-4.69431
-4.81638
-4.93845
-5.06049
-5.18247
-5.30436
-5.42613
-5.5477
-5.66906
)
;
    }
    rightWall
    {
        type            calculated;
        value           nonuniform List<scalar> 
50
(
376.755
321.62
266.175
211.096
164.849
143.978
140.346
136.862
130.919
117.975
95.7138
65.4836
31.3489
7.67913
-0.21841
-0.791379
-0.935289
-1.09607
-1.29046
-1.49716
-1.66785
-1.81634
-1.96788
-2.13133
-2.30188
-2.46639
-2.623
-2.7716
-2.91296
-3.04831
-3.17998
-3.3082
-3.42755
-3.5477
-3.67603
-3.80367
-3.92858
-4.05582
-4.18641
-4.31894
-4.45193
-4.58459
-4.71671
-4.84876
-4.98083
-5.11331
-5.24645
-5.38064
-5.51709
-5.65554
)
;
    }
    lowerWall
    {
        type            calculated;
        value           nonuniform List<scalar> 
62
(
1106.12
1100.2
1091.2
1078.18
1061.69
1041.93
1019.32
994.371
967.739
940.221
912.932
887.288
864.678
847.101
836.789
834.26
839.4
850.538
864.425
874.074
873.868
866.825
863.927
834.544
775.304
715.78
656.145
596.349
536.319
475.325
409.526
348.641
339.129
327.483
312.798
694.495
639.023
592.172
548.381
504.691
459.585
412.466
362.694
723.638
697.573
650.464
580.268
545.932
549.172
564.875
575.087
567.857
551.285
525.722
498.926
471.164
443.724
422.279
410.222
405.613
403.048
404.445
)
;
    }
    atmosphere
    {
        type            calculated;
        value           nonuniform List<scalar> 
46
(
-5.72904
-5.72904
-5.72904
-5.72904
-5.72904
-5.72904
-5.72904
-5.72904
-5.72904
-5.72904
-5.72904
-5.72904
-5.72905
-5.72914
-5.72932
-5.72958
-5.72992
-5.73031
-5.73071
-5.73111
-5.73146
-5.73174
-5.73192
-5.73198
-5.73198
-5.73195
-5.73189
-5.73174
-5.73142
-5.73099
-5.73052
-5.73005
-5.72965
-5.72935
-5.72917
-5.72906
-5.72905
-5.72905
-5.72904
-5.72904
-5.72904
-5.72904
-5.72904
-5.72904
-5.72904
-5.73338
)
;
    }
    defaultFaces
    {
        type            empty;
    }
}


// ************************************************************************* //
