/*--------------------------------*- C++ -*----------------------------------*\
| =========                 |                                                 |
| \\      /  F ield         | OpenFOAM: The Open Source CFD Toolbox           |
|  \\    /   O peration     | Version:  2.3.0                                 |
|   \\  /    A nd           | Web:      www.OpenFOAM.org                      |
|    \\/     M anipulation  |                                                 |
\*---------------------------------------------------------------------------*/
FoamFile
{
    version     2.0;
    format      ascii;
    class       volScalarField;
    location    "1.05";
    object      p_rgh;
}
// * * * * * * * * * * * * * * * * * * * * * * * * * * * * * * * * * * * * * //

dimensions      [1 -1 -2 0 0 0 0];

internalField   nonuniform List<scalar> 
2268
(
1106.12
1100.2
1091.2
1078.18
1061.69
1041.93
1019.32
994.371
967.739
940.221
912.932
887.288
864.678
847.101
836.789
834.26
839.4
850.538
864.425
874.074
873.868
866.825
863.927
1107.15
1101.56
1093.23
1080.44
1063.94
1043.97
1020.93
995.374
968.005
939.725
911.772
885.735
863.557
847.09
837.09
834.417
838.628
848.99
861.356
869.766
869.98
864.612
863.462
1109.2
1103.73
1095.75
1083.23
1066.78
1046.6
1023.08
996.766
968.453
939.159
910.228
883.455
860.894
844.429
835.087
832.855
836.893
846.196
857.862
866.248
867.503
864.035
862.857
1112.71
1106.56
1098.54
1086.23
1069.83
1049.43
1025.41
998.325
969.025
938.609
908.446
880.516
857.009
839.866
830.31
828.325
832.934
843.26
856.642
866.642
868.969
865.42
862.12
1116.72
1110.02
1101.7
1089.5
1073.12
1052.53
1028.04
1000.19
969.858
938.154
906.411
876.839
851.82
833.424
823.333
821.677
827.323
839.847
856.884
869.952
873.103
867.967
861.119
1121.37
1114.07
1105.36
1093.23
1076.88
1056.13
1031.2
1002.55
971.061
937.812
904.024
872.255
845.152
824.985
814.128
812.86
819.596
835.014
858.008
875.718
878.517
870.324
859.932
1126.48
1118.66
1109.57
1097.53
1081.25
1060.39
1035.03
1005.53
972.703
937.587
901.207
866.601
836.777
814.187
802.091
800.904
808.459
828.249
859.315
875.61
875.269
872.118
857.776
1131.94
1123.75
1114.31
1102.33
1086.16
1065.24
1039.46
1009.06
974.788
937.458
897.986
859.936
826.628
800.27
785.079
782.262
790.888
801.628
782.964
805.747
879.308
872.418
850.817
723.638
697.573
650.464
580.268
545.932
549.172
564.875
575.087
567.857
551.285
525.722
498.926
471.164
443.724
422.279
410.222
405.613
403.048
404.445
726.457
703.942
656.67
575.227
527.028
526.578
540.939
557.99
555.663
544.796
522.96
497.189
469.496
442.368
420.594
407.273
402.567
402.033
405.562
738.015
710.79
655.147
545.708
456.577
455.405
472.24
495.538
528.301
536.541
523.372
501.045
474.18
446.471
422.139
410.177
405.544
403.725
406.078
752.984
715.686
635.596
460.285
428.213
448.271
466.801
471.936
447.827
531.17
521.761
501.138
474.738
444.783
419.711
405.08
403.431
405.458
402.205
767.607
721.212
579.069
414.655
411.737
454.844
472.556
484.956
444.375
397.57
524.954
502.552
473.018
422.723
358.665
320.933
311.631
323.665
335.866
780.688
729.814
578.372
410.911
391.256
540.359
573.304
568.631
450.397
356.37
418.581
478.893
391.794
242.594
170.407
153.025
158.954
170.235
166.577
790.911
740.52
591.748
375.28
363.149
453.531
581.683
569.649
548.051
353.404
275.989
256.437
189.217
137.987
139.753
147.531
157.128
161.409
163.799
800.327
752.394
561.316
294.691
349.14
573.928
597.518
577.277
525.908
447.538
255.228
176.557
137.432
129.701
131.705
145.495
171.483
165.242
164.054
1140.87
1132.35
1122.39
1110.39
1094.44
1073.5
1047.13
1015.32
978.747
937.544
892.471
848.454
805.027
740.601
668.045
618.286
585.488
559.469
603.967
777.847
900.96
872.72
837.949
1154.12
1145.57
1135.8
1124.42
1109.35
1089.02
1062.13
1027.83
987.656
941.153
876.165
737.399
502.626
319.133
244.826
215.897
218.559
288.62
645.493
928.58
924.584
905.396
875.799
1168.63
1161.12
1152.64
1142.82
1129.66
1110.86
1083.64
1045
998.197
926.11
481.416
201.776
177.889
174.131
155.643
152.24
160.604
261.123
786.382
963.621
970.803
964.918
948.768
1184.51
1179.39
1173.27
1165.97
1155.85
1138.85
1110.77
1043.38
597.569
284.427
289.816
241.768
164.866
147.598
140.557
137.535
135.064
147.11
521.07
982.619
1035.09
1037.65
1008.47
1201.63
1200.16
1196.35
1189.72
1173.87
1079.03
845.655
484.964
292.623
287.001
293.595
309.523
302.272
205.797
131.291
127.137
121.49
110.507
102.568
486.774
1026.4
1097.22
1057.46
1059.53
1079.86
1001.99
843.81
617.375
378.567
182.723
152.318
295.397
297.063
297.196
299.077
302.506
293.125
143.48
117.116
114.756
104.442
90.1551
81.7018
352.168
940.672
1072.04
197.028
220.606
165.351
78.968
26.1763
17.5464
30.6612
110.834
275.807
278.578
248.921
261.097
280.687
292.808
267.889
114.837
105.483
97.1095
83.2703
72.8441
58.1912
85.6952
455.75
0.876972
0.924507
1.69606
2.47791
3.44585
4.99025
12.9463
71.874
100.325
63.2727
22.5187
22.834
51.7792
138.622
194.835
201.967
199.937
197.654
104.306
70.0323
49.6622
35.8923
29.3357
0.0945092
0.120478
0.284367
0.566048
1.0168
1.90901
5.63018
9.84441
1.30311
0.565836
0.211055
0.145438
0.0998252
0.155393
1.53398
61.4388
147.691
169.655
169.047
159.161
151.977
64.835
34.9859
-0.0221927
-0.0377094
-0.00325002
0.0924827
0.249387
0.437388
0.521268
0.207186
-0.0704307
-0.263308
-0.362203
-0.393754
-0.414574
-0.397841
-0.357219
-0.461911
-0.684653
-0.180063
88.8563
134.465
146.373
134.561
106.135
-0.0501707
-0.0792148
-0.0846768
-0.0670463
-0.0466818
-0.0571445
-0.139681
-0.227166
-0.321885
-0.384387
-0.408073
-0.424122
-0.443053
-0.449572
-0.450821
-0.466943
-0.475017
-0.440593
-0.552163
-0.533668
20.5966
74.5103
23.5091
-0.0681415
-0.0957624
-0.11413
-0.125395
-0.144777
-0.185943
-0.248667
-0.311597
-0.360834
-0.39323
-0.413768
-0.432379
-0.453512
-0.473594
-0.490748
-0.504661
-0.498757
-0.476275
-0.44933
-0.408297
-0.385198
-0.555663
-0.738828
-0.0860599
-0.106653
-0.124804
-0.142618
-0.16871
-0.20954
-0.261895
-0.311841
-0.349829
-0.380795
-0.407056
-0.431642
-0.455606
-0.477609
-0.496022
-0.50905
-0.509616
-0.497677
-0.480388
-0.456049
-0.440158
-0.440187
-0.439106
-0.0992742
-0.113789
-0.127441
-0.144088
-0.167776
-0.201743
-0.243606
-0.285229
-0.320734
-0.352224
-0.381181
-0.408762
-0.434731
-0.457557
-0.475728
-0.48787
-0.49091
-0.484399
-0.47346
-0.458106
-0.442778
-0.425811
-0.40232
-0.106336
-0.116314
-0.125595
-0.139308
-0.158873
-0.185813
-0.218606
-0.252823
-0.284891
-0.314898
-0.343438
-0.370887
-0.396728
-0.419472
-0.437489
-0.4494
-0.453581
-0.449896
-0.440683
-0.426181
-0.407835
-0.384874
-0.35297
-0.109404
-0.114827
-0.120533
-0.131128
-0.146835
-0.168001
-0.193624
-0.221328
-0.248941
-0.275883
-0.302102
-0.327478
-0.351391
-0.372606
-0.389657
-0.401222
-0.406078
-0.403907
-0.39543
-0.380945
-0.36114
-0.336016
-0.30349
-0.109539
-0.110714
-0.113471
-0.121154
-0.133565
-0.150273
-0.170454
-0.192757
-0.215855
-0.239058
-0.261995
-0.284304
-0.305345
-0.324101
-0.339366
-0.349996
-0.35498
-0.353721
-0.34618
-0.3324
-0.312731
-0.287488
-0.256315
-0.106991
-0.105109
-0.105596
-0.110723
-0.120303
-0.133525
-0.149573
-0.167553
-0.186602
-0.206102
-0.225588
-0.244606
-0.262533
-0.278516
-0.29158
-0.300786
-0.305293
-0.304448
-0.297876
-0.285359
-0.267042
-0.243418
-0.214828
-0.102476
-0.0988316
-0.0977084
-0.100719
-0.10783
-0.118202
-0.131028
-0.145594
-0.161253
-0.177471
-0.193788
-0.20974
-0.224745
-0.238074
-0.248924
-0.256533
-0.26022
-0.259395
-0.253586
-0.242459
-0.226036
-0.204824
-0.179293
-0.0969348
-0.092458
-0.0902449
-0.0915641
-0.0965483
-0.104521
-0.114754
-0.126605
-0.139505
-0.152967
-0.166554
-0.179825
-0.192264
-0.203252
-0.212116
-0.218227
-0.221032
-0.220046
-0.214825
-0.205022
-0.190602
-0.172002
-0.149616
-0.0910618
-0.0862951
-0.0833636
-0.0833717
-0.0865891
-0.0925458
-0.100643
-0.110296
-0.12096
-0.132154
-0.143453
-0.154449
-0.164699
-0.173692
-0.180874
-0.185719
-0.187769
-0.186628
-0.181921
-0.173344
-0.160838
-0.144758
-0.125377
-0.0852031
-0.0804119
-0.0770157
-0.0760497
-0.0778715
-0.0821785
-0.0885082
-0.0963475
-0.105178
-0.114514
-0.123925
-0.13303
-0.141451
-0.148778
-0.154567
-0.158385
-0.159852
-0.158639
-0.154439
-0.147
-0.136257
-0.122497
-0.105893
-0.0794291
-0.074729
-0.0710493
-0.069404
-0.070182
-0.073186
-0.0780657
-0.0843924
-0.0916927
-0.0994906
-0.107355
-0.114915
-0.121839
-0.127797
-0.132443
-0.135434
-0.13646
-0.135249
-0.131552
-0.125163
-0.116018
-0.104351
-0.0902665
-0.0736937
-0.0691445
-0.0653286
-0.0632499
-0.0632918
-0.0653045
-0.069014
-0.0740741
-0.0800741
-0.0865731
-0.0931548
-0.099459
-0.10518
-0.110041
-0.113771
-0.116105
-0.116799
-0.115638
-0.112421
-0.106985
-0.0992698
-0.0894687
-0.0776379
-0.0679842
-0.0636344
-0.0598092
-0.0574926
-0.0570472
-0.0583304
-0.0611133
-0.0651182
-0.0700029
-0.0753834
-0.0808807
-0.0861541
-0.090915
-0.0949165
-0.097937
-0.0997717
-0.100235
-0.0991602
-0.0963943
-0.0918107
-0.0853605
-0.0772027
-0.0673584
-0.0623736
-0.0582697
-0.0545399
-0.0521364
-0.051391
-0.0521506
-0.0542119
-0.057348
-0.0612802
-0.0656904
-0.0702526
-0.0746593
-0.0786414
-0.0819722
-0.0844598
-0.0859391
-0.086267
-0.085318
-0.0829789
-0.0791557
-0.0738102
-0.0670763
-0.0589514
-0.0569896
-0.0531699
-0.0496138
-0.0472349
-0.0463207
-0.046708
-0.048211
-0.0506385
-0.0537647
-0.057335
-0.0610811
-0.0647389
-0.0680677
-0.0708611
-0.0729469
-0.0741834
-0.0744546
-0.0736634
-0.0717269
-0.068576
-0.0641819
-0.0586597
-0.0519931
-0.0519573
-0.0484423
-0.0451151
-0.0428355
-0.0418377
-0.0419567
-0.0430229
-0.0448718
-0.0473199
-0.050166
-0.0531963
-0.0561935
-0.0589524
-0.0612911
-0.0630543
-0.0641149
-0.064373
-0.0637491
-0.06218
-0.0596125
-0.0560247
-0.0515156
-0.0460627
-0.0473534
-0.044144
-0.0410808
-0.038945
-0.0379167
-0.0378365
-0.0385525
-0.0399227
-0.0417979
-0.0440197
-0.0464199
-0.0488261
-0.0510711
-0.0530001
-0.054476
-0.0553837
-0.0556343
-0.0551592
-0.0539057
-0.0518304
-0.048914
-0.0452395
-0.0407828
-0.043184
-0.0402694
-0.037486
-0.0355169
-0.0344916
-0.0342593
-0.0346865
-0.0356533
-0.0370393
-0.0387195
-0.0405636
-0.0424381
-0.0442114
-0.0457562
-0.0469549
-0.0477064
-0.0479289
-0.0475636
-0.0465638
-0.0448901
-0.0425234
-0.0395295
-0.0358841
-0.0393938
-0.0367595
-0.0342539
-0.0324599
-0.0314592
-0.0311093
-0.0312944
-0.0319169
-0.0328816
-0.0340911
-0.0354456
-0.0368447
-0.0381869
-0.0393702
-0.0402964
-0.040879
-0.0410475
-0.0407486
-0.0399399
-0.0385846
-0.0366617
-0.0342202
-0.0312356
-0.0358962
-0.0335263
-0.0312852
-0.0296651
-0.0287029
-0.0282627
-0.0282457
-0.0285752
-0.0291785
-0.0299819
-0.0309113
-0.0318928
-0.0328497
-0.0337017
-0.0343688
-0.0347789
-0.0348725
-0.0346031
-0.0339323
-0.0328253
-0.0312589
-0.0292668
-0.0268243
-0.0326
-0.0304782
-0.0284844
-0.0270306
-0.0261156
-0.0256089
-0.0254272
-0.0255124
-0.0258114
-0.0262709
-0.0268392
-0.0274639
-0.0280886
-0.0286501
-0.0290841
-0.0293315
-0.0293435
-0.0290808
-0.0285095
-0.0275972
-0.0263197
-0.0246976
-0.0227062
-0.0294233
-0.0275346
-0.0257712
-0.0244728
-0.0236104
-0.0230593
-0.0227493
-0.0226376
-0.0226872
-0.0228633
-0.0231335
-0.0234639
-0.0238153
-0.0241377
-0.0243771
-0.0244858
-0.0244243
-0.0241609
-0.0236667
-0.0229126
-0.0218745
-0.0205629
-0.0189534
-0.0262987
-0.0246318
-0.0230826
-0.0219283
-0.0211228
-0.0205481
-0.0201445
-0.0198804
-0.0197323
-0.0196816
-0.0197134
-0.0198114
-0.0199526
-0.0200956
-0.0201901
-0.0201957
-0.0200814
-0.0198229
-0.0193969
-0.0187784
-0.017945
-0.0169
-0.0156194
-0.0231759
-0.0217226
-0.0203728
-0.0193536
-0.0186099
-0.0180314
-0.0175661
-0.01719
-0.0168903
-0.0166624
-0.0165084
-0.0164311
-0.0164275
-0.0164579
-0.0164653
-0.0164117
-0.0162737
-0.0160345
-0.0156774
-0.0151822
-0.0145293
-0.0137176
-0.0127239
-0.02002
-0.0187734
-0.0176111
-0.0167223
-0.0160476
-0.0154846
-0.0149865
-0.0145335
-0.0141206
-0.0137553
-0.0134568
-0.0132512
-0.0131686
-0.0131599
-0.013143
-0.0130786
-0.0129505
-0.0127503
-0.0124687
-0.0120912
-0.0116017
-0.0109968
-0.0102549
-0.0168049
-0.0157581
-0.0147755
-0.0140176
-0.0134226
-0.0128956
-0.0123915
-0.0118922
-0.0113973
-0.010923
-0.0105054
-0.0101999
-0.0101055
-0.0101426
-0.0101676
-0.0101412
-0.0100571
-0.00991754
-0.00972109
-0.00945963
-0.00912095
-0.00870044
-0.00817775
-0.013502
-0.0126492
-0.011844
-0.0112266
-0.0107301
-0.0102629
-0.00977959
-0.00926082
-0.00870551
-0.00813129
-0.00758582
-0.00717135
-0.00715421
-0.00736381
-0.00750554
-0.00755992
-0.00754805
-0.0074875
-0.00738549
-0.00723951
-0.00704058
-0.00678282
-0.00644721
-0.0100728
-0.00942077
-0.00881125
-0.00836913
-0.00800623
-0.00762838
-0.0071883
-0.00666165
-0.00603726
-0.00531016
-0.00451151
-0.00384963
-0.00406383
-0.00476817
-0.00515903
-0.0053283
-0.00540036
-0.00542706
-0.00542303
-0.00538867
-0.00531629
-0.00519777
-0.00501544
-0.00645281
-0.00605905
-0.00571772
-0.00552259
-0.00534073
-0.00507899
-0.00469155
-0.00414578
-0.0034081
-0.00240548
-0.00102898
0.000457267
-0.000242713
-0.00224523
-0.00312449
-0.00343385
-0.00358553
-0.00369827
-0.0037916
-0.00386419
-0.00390614
-0.00390493
-0.00384109
-0.00261813
-0.00250345
-0.00246266
-0.00248261
-0.00245302
-0.00231928
-0.00205208
-0.00162157
-0.000985871
-2.5131e-05
0.00161602
0.00434475
0.00390778
0.000373652
-0.000958098
-0.00146854
-0.00178586
-0.00206796
-0.00233835
-0.00259058
-0.00280652
-0.0029648
-0.00304259
819.285
809.71
798.061
783.35
853.825
848.452
854.917
863.184
938.978
950.86
954.367
956.864
545.834
370.199
452.762
501.384
529.813
249.134
236.8
231.754
1037.84
1023.26
1020.99
949.1
537.962
486.57
540.752
583.255
25.6639
24.0687
24.148
24.7848
22.7164
24.7724
33.0806
43.4496
3.99719
21.2226
77.2999
77.6789
0.766589
2.95438
33.334
53.6122
-0.711646
-0.657898
-0.605255
-0.566086
-0.406271
-0.349304
-0.268934
-0.21936
-0.380252
-0.355491
-0.32105
-0.281763
-0.317659
-0.290892
-0.262311
-0.234088
-0.27027
-0.24483
-0.21751
-0.190988
-0.225267
-0.200952
-0.174823
-0.149981
-0.186471
-0.163791
-0.139314
-0.116285
-0.15368
-0.132878
-0.11035
-0.0893204
-0.1268
-0.108054
-0.0876688
-0.0687314
-0.105329
-0.0887093
-0.0705489
-0.0537237
-0.0885396
-0.0740378
-0.0580945
-0.0433171
-0.0754624
-0.0630084
-0.0492148
-0.03638
-0.0651674
-0.0546289
-0.0428588
-0.0318338
-0.0569657
-0.0481525
-0.038215
-0.028828
-0.0503667
-0.0430514
-0.0347108
-0.0267577
-0.0449478
-0.0388984
-0.0319145
-0.0251888
-0.040302
-0.0353086
-0.0294712
-0.0237957
-0.0360772
-0.0319645
-0.027106
-0.0223453
-0.0320375
-0.028663
-0.0246525
-0.020704
-0.0280875
-0.0253343
-0.0220626
-0.0188396
-0.0242479
-0.0220173
-0.0193851
-0.0168029
-0.020603
-0.0188104
-0.0167226
-0.0146934
-0.0172476
-0.0158205
-0.0141867
-0.0126218
-0.0142521
-0.0131286
-0.0118668
-0.0106819
-0.0116481
-0.0107766
-0.00981635
-0.00893629
-0.00943145
-0.00876913
-0.00805185
-0.00741251
-0.00757185
-0.00708325
-0.00656081
-0.0061084
-0.00602561
-0.00567997
-0.00531196
-0.00500008
-0.00474944
-0.00451994
-0.0042698
-0.00405326
-0.00368685
-0.00354043
-0.00337013
-0.00321031
-0.00300133
-0.00293997
-0.00285481
-0.00275823
807.476
746.772
360.101
268.141
404.806
624.058
620.376
534.075
304.411
423.457
353.812
168.706
119.569
118.758
126.621
181.811
215.306
203.035
164.244
868.598
669.946
243.24
245.383
356.336
670.111
649.107
266.576
122.105
425.388
417.806
221.682
98.8344
107.228
172.921
213.782
218.369
230.074
163.895
814.614
303.3
235.336
235.125
305.847
713.32
677.51
136.448
94.2157
425.518
440.7
212.914
69.089
112.596
214.501
216.499
219.604
228.858
216.491
346.204
234.282
232.109
224.805
532.906
733.753
356.02
64.4983
73.2145
198.515
163.258
87.6828
40.9379
137.481
216.515
217.987
213.167
223.721
239.074
230.587
230.972
227.379
444.271
596.09
394.572
31.6932
41.4196
85.5081
52.8679
30.5147
22.8638
26.9244
186.215
219.028
218.863
175.268
166.568
224.597
818.98
800.512
787.103
756.223
506.825
27.232
29.2434
41.1723
106.134
78.7768
23.8333
16.4925
38.6804
140.785
190.68
109.879
28.7989
19.5588
140.734
590.465
438.14
337.143
190.249
26.6365
27.298
27.5257
92.3202
107.013
103.109
63.5657
9.80776
18.8274
8.65073
1.24908
1.37069
1.11804
2.01393
14.1572
25.8422
28.174
31.5235
35.7981
41.4111
37.0342
23.9307
97.7641
108.027
86.2249
23.3576
3.72802
1.13847
1.14879
1.10044
1.99712
0.66458
1.46855
2.54119
39.3086
39.9193
56.4296
62.1875
81.2248
79.4885
71.891
16.7622
17.063
0.775153
0.789703
0.914012
1.0067
1.04157
1.60076
1.47736
0.620423
0.851812
1.20016
78.2627
78.8508
79.1782
80.4604
81.2194
72.1255
49.4136
0.136127
0.261968
0.479886
2.14383
2.29016
2.09292
0.900653
0.95176
0.569285
0.643562
0.73189
0.907022
38.8381
31.9473
43.6771
32.6075
6.80861
-0.275364
0.0598039
0.243538
0.222704
0.826168
2.20958
0.936469
0.602037
0.478222
0.471082
0.547355
0.619024
1.12531
1.30335
-0.535419
-0.473105
-0.372152
-0.183747
-0.0287763
0.0305974
0.146567
0.327344
0.196151
0.19495
0.135373
0.195524
0.271574
0.352962
0.416359
0.6474
1.34874
1.32769
0.99019
-0.185186
-0.133969
-0.0726597
-0.0144837
0.0155374
0.142025
0.314482
0.320758
0.126266
0.144972
0.163346
0.209943
0.264675
0.316413
0.453773
1.28267
1.33696
1.21625
0.375243
-0.210144
-0.143736
-0.0832755
-0.0303131
0.0195435
0.172045
0.216084
0.114082
0.141558
0.166621
0.19099
0.226744
0.264324
0.297779
0.452735
0.911871
0.897724
0.409698
0.352398
-0.187258
-0.12774
-0.0714208
-0.0201532
0.0243366
0.0590579
0.0947814
0.157554
0.242881
0.247128
0.221452
0.236176
0.260069
0.289686
0.326134
0.314539
0.313663
0.334093
0.422382
-0.150168
-0.0971491
-0.046194
0.000712351
0.0414894
0.0835095
0.150853
0.255125
0.280672
0.302239
0.322576
0.320351
0.241254
0.252114
0.259276
0.266586
0.276054
0.400573
0.726441
-0.113593
-0.066718
-0.0213189
0.0210002
0.0587999
0.122229
0.20581
0.232029
0.225811
0.299086
0.316083
0.284823
0.218551
0.224721
0.228129
0.230621
0.23197
0.399195
0.704263
-0.08357
-0.0423659
-0.00218337
0.0356257
0.0697485
0.101933
0.155698
0.178154
0.16035
0.171861
0.185261
0.194237
0.19523
0.200235
0.201665
0.197629
0.19166
0.268936
0.688128
-0.0601864
-0.0242487
0.0110803
0.0444265
0.0744585
0.100185
0.12082
0.138522
0.157305
0.158952
0.163534
0.165966
0.170458
0.174362
0.173006
0.163778
0.159817
0.187592
0.679877
-0.0429756
-0.0118224
0.0189897
0.048132
0.0742186
0.096429
0.114184
0.127614
0.139308
0.149308
0.146025
0.145107
0.143949
0.144379
0.143017
0.137934
0.136064
0.160382
0.679587
-0.0311254
-0.00426392
0.0224079
0.0477049
0.0702574
0.0893213
0.104416
0.115434
0.123405
0.129491
0.129466
0.125538
0.123341
0.120872
0.118813
0.11757
0.117581
0.434728
0.686325
-0.0236
-0.000520912
0.0224614
0.0443433
0.0638258
0.0802209
0.0930862
0.102239
0.108354
0.110695
0.110832
0.109125
0.106246
0.103867
0.102178
0.101342
0.101684
0.686702
0.698325
-0.0192689
0.000529133
0.0203082
0.0392396
0.0561286
0.0703381
0.0814644
0.089319
0.0941388
0.0965138
0.0963069
0.0943626
0.0924257
0.0907776
0.0898514
0.0896451
0.0900167
0.58973
0.712803
-0.0170791
-0.000106446
0.0169296
0.033349
0.0480829
0.0605476
0.0703793
0.0774053
0.081708
0.0837793
0.0841369
0.0831901
0.0819817
0.0813381
0.0816118
0.0828872
0.0854234
0.198896
0.632253
-0.016182
-0.00164111
0.013046
0.0273258
0.0402646
0.0513397
0.0602275
0.0667726
0.0710406
0.0733371
0.0741874
0.0742575
0.0742424
0.0747967
0.0765095
0.0798171
0.0858548
0.25108
0.296242
-0.0159608
-0.00351738
0.00914139
0.0215758
0.0329908
0.0429318
0.0511156
0.0574015
0.061834
0.0646595
0.0663105
0.0673535
0.0684195
0.0701356
0.0731021
0.0779514
0.085575
0.666139
0.672418
-0.0159886
-0.00536167
0.00552677
0.0163427
0.0264283
0.0354018
0.043021
0.0491589
0.0538362
0.0572347
0.0596945
0.061682
0.0637425
0.0664572
0.0704042
0.0761717
0.0884058
0.689911
0.700923
-0.015977
-0.00693365
0.00239571
0.0117719
0.0206683
0.0287748
0.0358917
0.0419051
0.0468091
0.0507236
0.0539013
0.0567074
0.059598
0.0630953
0.0677687
0.0741389
0.193485
0.710918
0.432167
-0.0157432
-0.00809153
-0.000142961
0.00794276
0.0157562
0.0230542
0.029678
0.0355261
0.0405683
0.0448708
0.0486067
0.0520453
0.0555495
0.0595681
0.0646166
0.0709643
0.387849
0.730115
0.358078
-0.0151939
-0.00877407
-0.0020512
0.00487465
0.0116919
0.0182162
0.0243251
0.0299296
0.0349827
0.0395095
0.0436143
0.0474709
0.0513596
0.0556588
0.0607793
0.0668091
0.393554
0.749821
0.362163
-0.0143163
-0.00898992
-0.00335473
0.00252855
0.00842495
0.0141993
0.0197599
0.0250307
0.0299588
0.034537
0.0388004
0.0428684
0.0469498
0.0513586
0.0564237
0.0624332
0.347921
0.767359
0.355473
-0.0131629
-0.00880414
-0.00413192
0.000815259
0.00586
0.0109062
0.0158873
0.0207413
0.0254149
0.0298748
0.0341214
0.0382337
0.0423373
0.0466101
0.0514625
0.0571573
0.585501
0.780587
0.24393
-0.0118273
-0.00831764
-0.00449439
-0.000385669
0.00387362
0.00821673
0.0125972
0.0169681
0.0212807
0.0254928
0.0295836
0.033585
0.0374852
0.041408
0.0457043
0.0840565
0.77012
0.791458
0.13933
-0.0104164
-0.00764275
-0.00456326
-0.00120211
0.00233658
0.00600654
0.00977641
0.0136148
0.0174878
0.0213625
0.0252051
0.0289528
0.0325419
0.0360018
0.0393336
0.186376
0.758155
0.274279
0.0818859
-0.00902613
-0.00688148
-0.00444787
-0.00174864
0.00113327
0.00416386
0.00732175
0.0105984
0.01397
0.0174349
0.0209681
0.0244748
0.0286978
0.0325709
0.0335384
0.0387345
0.410629
0.200098
0.0733749
-0.00772662
-0.00611082
-0.00423157
-0.00211306
0.000174803
0.00260216
0.0051505
0.00781797
0.0106187
0.0136186
0.0168601
0.0212629
0.0385982
0.0323811
0.0353597
0.0608707
0.0370808
0.0511713
0.0665194
-0.00655656
-0.00537611
-0.00396505
-0.00234979
-0.000593936
0.00126847
0.00321034
0.00522679
0.00736633
0.00984304
0.0142207
0.0346194
0.0382682
0.0411469
0.0421923
0.0318876
0.034449
0.0464245
0.0596361
-0.00552406
-0.00469014
-0.00366434
-0.0024765
-0.00118932
0.000151459
0.00149676
0.00282311
0.00418642
0.00604196
0.0126138
0.0284544
0.0305114
0.0338335
0.0344761
0.027058
0.0301383
0.0405896
0.0523509
-0.00461037
-0.00403324
-0.00330776
-0.00246747
-0.00157708
-0.000699221
7.80558e-05
0.000653363
0.000977662
0.00198978
0.00630015
0.00922098
0.011117
0.0136756
0.0163392
0.0195284
0.0248558
0.0339497
0.0444072
-0.0037732
-0.00335458
-0.00283426
-0.00224785
-0.00166102
-0.00115365
-0.000892723
-0.0012587
-0.0028099
-0.0033738
-0.000382957
0.0028834
0.0059207
0.00880915
0.0115634
0.014556
0.0189078
0.0264929
0.0354183
-0.00298553
-0.00262805
-0.00220528
-0.00175781
-0.0013483
-0.00106836
-0.00123705
-0.00297994
-0.00843689
-0.0117767
-0.00672291
-0.00217431
0.00145168
0.00459206
0.00734945
0.00976978
0.0125078
0.0178552
0.0258197
-0.00259009
-0.00226003
-0.00186157
-0.00144686
-0.00109388
-0.000933563
-0.00141792
-0.00436982
-0.0147283
-0.0159291
-0.00931965
-0.00479295
-0.00161769
0.000974862
0.00310447
0.00468211
0.00586075
0.00806712
0.0151905
)
;

boundaryField
{
    leftWall
    {
        type            fixedFluxPressure;
        gradient        uniform 0;
        value           nonuniform List<scalar> 
50
(
1106.12
1107.15
1109.2
1112.71
1116.72
1121.37
1126.48
1131.94
1140.87
1154.12
1168.63
1184.51
1201.63
1059.53
197.028
0.876972
0.0945092
-0.0221927
-0.0501707
-0.0681415
-0.0860599
-0.0992742
-0.106336
-0.109404
-0.109539
-0.106991
-0.102476
-0.0969348
-0.0910618
-0.0852031
-0.0794291
-0.0736937
-0.0679842
-0.0623736
-0.0569896
-0.0519573
-0.0473534
-0.043184
-0.0393938
-0.0358962
-0.0326
-0.0294233
-0.0262987
-0.0231759
-0.02002
-0.0168049
-0.013502
-0.0100728
-0.00645281
-0.00261813
)
;
    }
    rightWall
    {
        type            fixedFluxPressure;
        gradient        uniform 0;
        value           nonuniform List<scalar> 
50
(
404.445
405.562
406.078
402.205
335.866
166.577
163.799
164.054
164.244
163.895
216.491
239.074
224.597
140.734
14.1572
2.54119
1.20016
0.907022
1.30335
0.99019
0.375243
0.352398
0.422382
0.726441
0.704263
0.688128
0.679877
0.679587
0.686325
0.698325
0.712803
0.632253
0.296242
0.672418
0.700923
0.432167
0.358078
0.362163
0.355473
0.24393
0.13933
0.0818859
0.0733749
0.0665194
0.0596361
0.0523509
0.0444072
0.0354183
0.0258197
0.0151905
)
;
    }
    lowerWall
    {
        type            fixedFluxPressure;
        gradient        uniform 0;
        value           nonuniform List<scalar> 
62
(
1106.12
1100.2
1091.2
1078.18
1061.69
1041.93
1019.32
994.371
967.739
940.221
912.932
887.288
864.678
847.101
836.789
834.26
839.4
850.538
864.425
874.074
873.868
866.825
863.927
863.927
863.462
862.857
862.12
861.119
859.932
857.776
850.817
819.285
809.71
798.061
783.35
723.638
726.457
738.015
752.984
767.607
780.688
790.911
800.327
723.638
697.573
650.464
580.268
545.932
549.172
564.875
575.087
567.857
551.285
525.722
498.926
471.164
443.724
422.279
410.222
405.613
403.048
404.445
)
;
    }
    atmosphere
    {
        type            totalPressure;
        rho             rho;
        psi             none;
        gamma           1;
        p0              uniform 0;
        value           nonuniform List<scalar> 
46
(
0
0
0
0
0
0
0
0
0
0
0
0
-1.21764e-05
-9.58425e-05
-0.000277021
-0.00054468
-0.000881884
-0.00126748
-0.00167441
-0.00207108
-0.00242417
-0.00270282
-0.00288383
-0.00293751
-0.0029404
-0.00291144
-0.00285041
-0.00269855
-0.00237572
-0.00195469
-0.00147806
-0.00100777
-0.000605675
-0.000313428
-0.00013296
-2.40659e-05
0
0
0
0
0
0
0
0
0
0
)
;
    }
    defaultFaces
    {
        type            empty;
    }
}


// ************************************************************************* //
