/*--------------------------------*- C++ -*----------------------------------*\
| =========                 |                                                 |
| \\      /  F ield         | OpenFOAM: The Open Source CFD Toolbox           |
|  \\    /   O peration     | Version:  2.3.0                                 |
|   \\  /    A nd           | Web:      www.OpenFOAM.org                      |
|    \\/     M anipulation  |                                                 |
\*---------------------------------------------------------------------------*/
FoamFile
{
    version     2.0;
    format      ascii;
    class       volVectorField;
    location    "1.05";
    object      U;
}
// * * * * * * * * * * * * * * * * * * * * * * * * * * * * * * * * * * * * * //

dimensions      [0 1 -1 0 0 0 0];

internalField   nonuniform List<vector> 
2268
(
(0.0183234 -0.00705792 0)
(0.0196319 0.00479428 0)
(-0.00595473 0.00784131 0)
(-0.029596 0.00829409 0)
(-0.0543071 0.00810222 0)
(-0.0768601 0.00741321 0)
(-0.0957798 0.00617773 0)
(-0.109564 0.00438774 0)
(-0.117306 0.00213279 0)
(-0.118952 -0.000176718 0)
(-0.115542 -0.0018419 0)
(-0.110533 -0.00227182 0)
(-0.107203 -0.00136689 0)
(-0.108408 0.000831638 0)
(-0.115988 0.00230696 0)
(-0.126789 0.002302 0)
(-0.134376 -0.000247272 0)
(-0.129844 -0.00627004 0)
(-0.105213 -0.0145365 0)
(-0.0581003 -0.0222252 0)
(0.00132863 -0.0229879 0)
(0.0519144 -0.00626888 0)
(0.050215 0.0139967 0)
(0.00128459 -0.0120645 0)
(-0.00466622 0.0110818 0)
(-0.0316288 0.017712 0)
(-0.0575291 0.0185244 0)
(-0.082502 0.0173732 0)
(-0.103313 0.0148584 0)
(-0.118552 0.0112696 0)
(-0.127484 0.00698073 0)
(-0.130417 0.00256208 0)
(-0.128779 -0.00114586 0)
(-0.124853 -0.00318471 0)
(-0.120635 -0.00308301 0)
(-0.118305 -0.000822039 0)
(-0.119727 0.00324083 0)
(-0.126091 0.00657349 0)
(-0.135642 0.00684386 0)
(-0.143579 0.00204686 0)
(-0.143068 -0.00909144 0)
(-0.125966 -0.0252379 0)
(-0.0882235 -0.0401409 0)
(-0.0366749 -0.0414723 0)
(0.0108931 -0.0162527 0)
(0.0380426 0.0316434 0)
(-0.00986964 -0.00725984 0)
(-0.0204296 0.0200071 0)
(-0.0456117 0.0289062 0)
(-0.0701257 0.0296945 0)
(-0.0931247 0.0271175 0)
(-0.111944 0.0223303 0)
(-0.125394 0.0160485 0)
(-0.133025 0.00909554 0)
(-0.135306 0.00249946 0)
(-0.133571 -0.00253892 0)
(-0.129797 -0.0049388 0)
(-0.12592 -0.00436864 0)
(-0.123774 -0.000867262 0)
(-0.12515 0.00493763 0)
(-0.13129 0.0101187 0)
(-0.141132 0.0109446 0)
(-0.151007 0.00438941 0)
(-0.154886 -0.011349 0)
(-0.144183 -0.0353917 0)
(-0.112776 -0.0583765 0)
(-0.0655881 -0.0628497 0)
(-0.0189021 -0.0329326 0)
(0.0134608 0.0361655 0)
(-0.0162435 0.00134514 0)
(-0.0305912 0.029955 0)
(-0.0546849 0.0399652 0)
(-0.0780253 0.0405045 0)
(-0.0995041 0.0364974 0)
(-0.116986 0.0295318 0)
(-0.129426 0.0207229 0)
(-0.136478 0.0112873 0)
(-0.138583 0.00261305 0)
(-0.136917 -0.00379596 0)
(-0.133285 -0.00667008 0)
(-0.129561 -0.00571156 0)
(-0.127454 -0.00097241 0)
(-0.128961 0.0068175 0)
(-0.135708 0.0141034 0)
(-0.147121 0.0160468 0)
(-0.160311 0.00859794 0)
(-0.169648 -0.0114341 0)
(-0.165054 -0.0439454 0)
(-0.137849 -0.0763238 0)
(-0.091761 -0.0852424 0)
(-0.0431014 -0.0515184 0)
(-0.00692428 0.029359 0)
(-0.019932 0.0129399 0)
(-0.0374703 0.0406292 0)
(-0.0609878 0.0507963 0)
(-0.0834819 0.0508508 0)
(-0.1038 0.0454227 0)
(-0.12029 0.0363843 0)
(-0.132045 0.0251891 0)
(-0.138771 0.0133982 0)
(-0.140833 0.00271748 0)
(-0.139236 -0.00504688 0)
(-0.135704 -0.00839111 0)
(-0.132101 -0.0070588 0)
(-0.130099 -0.00104063 0)
(-0.132079 0.0090056 0)
(-0.140237 0.0188692 0)
(-0.154438 0.0226546 0)
(-0.172423 0.0152372 0)
(-0.188457 -0.00871791 0)
(-0.189745 -0.0506427 0)
(-0.164662 -0.0939874 0)
(-0.116591 -0.108814 0)
(-0.0630441 -0.0733342 0)
(-0.0203724 0.013783 0)
(-0.0221124 0.0262181 0)
(-0.0420941 0.0518652 0)
(-0.0652456 0.0614363 0)
(-0.0870386 0.0607653 0)
(-0.106404 0.0539192 0)
(-0.122115 0.042919 0)
(-0.13339 0.0294833 0)
(-0.139964 0.0154662 0)
(-0.1421 0.00284605 0)
(-0.140615 -0.00626452 0)
(-0.137224 -0.0100577 0)
(-0.133853 -0.00834119 0)
(-0.132172 -0.000950619 0)
(-0.135086 0.011771 0)
(-0.145501 0.0249158 0)
(-0.163729 0.0314754 0)
(-0.188089 0.0249789 0)
(-0.211985 -0.00296236 0)
(-0.218394 -0.0556333 0)
(-0.192946 -0.111883 0)
(-0.14066 -0.134083 0)
(-0.0806294 -0.0987889 0)
(-0.0288282 -0.00703974 0)
(-0.0234444 0.0407701 0)
(-0.0449806 0.0634926 0)
(-0.0676859 0.071906 0)
(-0.0887563 0.0703129 0)
(-0.10727 0.0620637 0)
(-0.122347 0.0492159 0)
(-0.133321 0.0336837 0)
(-0.139944 0.0175624 0)
(-0.142352 0.00304975 0)
(-0.141127 -0.00741002 0)
(-0.138031 -0.0116084 0)
(-0.135148 -0.00946976 0)
(-0.134158 -0.0005208 0)
(-0.138587 0.0154735 0)
(-0.152209 0.032823 0)
(-0.17593 0.0432159 0)
(-0.208555 0.0384453 0)
(-0.24099 0.006052 0)
(-0.250299 -0.0592271 0)
(-0.222323 -0.129729 0)
(-0.165246 -0.16202 0)
(-0.0999 -0.128614 0)
(-0.0365669 -0.0295595 0)
(-0.0241857 0.0560658 0)
(-0.0462861 0.0752392 0)
(-0.0683016 0.0820598 0)
(-0.0885469 0.0793895 0)
(-0.106273 0.0697792 0)
(-0.120868 0.0552199 0)
(-0.131774 0.0377662 0)
(-0.138756 0.0197193 0)
(-0.141787 0.00340008 0)
(-0.141129 -0.00843876 0)
(-0.138621 -0.0128946 0)
(-0.136603 -0.0101912 0)
(-0.136754 0.00049603 0)
(-0.143302 0.0202803 0)
(-0.161139 0.0423945 0)
(-0.1922 0.0571804 0)
(-0.2354 0.0547629 0)
(-0.277036 0.0185468 0)
(-0.289437 -0.0606228 0)
(-0.256418 -0.152466 0)
(-0.192258 -0.194121 0)
(-0.12542 -0.164909 0)
(-0.0550351 -0.0787864 0)
(0.0908699 -0.0439193 0)
(0.0432534 0.040381 0)
(-0.219115 0.0583852 0)
(-0.375525 0.0340216 0)
(-0.425773 -0.00358144 0)
(-0.376559 -0.0318538 0)
(-0.289876 -0.0393708 0)
(-0.18789 -0.0380905 0)
(-0.102193 -0.0242095 0)
(-0.0554762 -0.00899367 0)
(-0.0400973 -0.00125927 0)
(-0.0312897 -0.00401951 0)
(-0.0164903 -0.00625314 0)
(-0.00702058 -0.00248366 0)
(-0.0127222 0.000614443 0)
(-0.0196962 -0.00295788 0)
(-0.00918372 -0.00938955 0)
(0.0106569 -0.0101231 0)
(0.0503847 0.00762667 0)
(-0.0146031 -0.0267444 0)
(-0.0890296 0.106281 0)
(-0.309271 0.117623 0)
(-0.396735 0.0675059 0)
(-0.419003 0.00237106 0)
(-0.384585 -0.0439873 0)
(-0.290662 -0.0615731 0)
(-0.181468 -0.0646132 0)
(-0.0961219 -0.0473003 0)
(-0.0482737 -0.0235146 0)
(-0.0263236 -0.0087773 0)
(-0.0147427 -0.00820788 0)
(-0.00549326 -0.00826071 0)
(-0.00419888 -1.5129e-05 0)
(-0.0154134 0.00672672 0)
(-0.0290633 0.00161749 0)
(-0.0304174 -0.0100711 0)
(-0.0231179 -0.0169118 0)
(0.0251662 0.0161609 0)
(-0.0745177 0.0145455 0)
(-0.16084 0.158613 0)
(-0.300223 0.159999 0)
(-0.362691 0.0919275 0)
(-0.411371 0.00818724 0)
(-0.3865 -0.0673347 0)
(-0.276381 -0.102374 0)
(-0.15266 -0.0986732 0)
(-0.0719521 -0.0659274 0)
(-0.0279771 -0.0370076 0)
(-0.00590206 -0.0165516 0)
(0.00371985 -0.0114987 0)
(0.00678387 -0.00849903 0)
(0.000900039 0.00367465 0)
(-0.0149201 0.0132191 0)
(-0.032182 0.00649561 0)
(-0.0396442 -0.00996382 0)
(-0.0412624 -0.022905 0)
(-0.0152888 0.00831101 0)
(-0.105659 0.0711969 0)
(-0.182805 0.200013 0)
(-0.270791 0.191734 0)
(-0.328742 0.124368 0)
(-0.404069 0.0180804 0)
(-0.365295 -0.105618 0)
(-0.247348 -0.161558 0)
(-0.121875 -0.152321 0)
(-0.0312011 -0.0871085 0)
(-0.00085341 -0.04522 0)
(0.02315 -0.0239906 0)
(0.0287936 -0.0131378 0)
(0.0240221 -0.005714 0)
(0.00946787 0.0103087 0)
(-0.0123873 0.0208558 0)
(-0.0326846 0.0120027 0)
(-0.04265 -0.00803125 0)
(-0.0495395 -0.0253076 0)
(-0.043524 -0.0114419 0)
(-0.117712 0.130889 0)
(-0.182088 0.231389 0)
(-0.243473 0.218504 0)
(-0.30722 0.164624 0)
(-0.372552 0.0206984 0)
(-0.316702 -0.14718 0)
(-0.203424 -0.217752 0)
(-0.097249 -0.204198 0)
(-0.00654546 -0.123525 0)
(0.0364881 -0.0508282 0)
(0.0595368 -0.0273949 0)
(0.0616802 -0.0119455 0)
(0.0461459 0.00044532 0)
(0.0203501 0.0180606 0)
(-0.00905496 0.0279084 0)
(-0.0327341 0.017414 0)
(-0.0408527 -0.00498434 0)
(-0.0451475 -0.0260894 0)
(-0.0461813 -0.0345697 0)
(-0.120142 0.191157 0)
(-0.174331 0.257336 0)
(-0.224737 0.243001 0)
(-0.288708 0.191083 0)
(-0.320243 0.0168642 0)
(-0.254609 -0.175324 0)
(-0.15993 -0.254818 0)
(-0.0800489 -0.237966 0)
(-0.00775309 -0.160337 0)
(0.0777071 -0.0668702 0)
(0.105105 -0.0264631 0)
(0.102959 -0.00727245 0)
(0.0752636 0.00699303 0)
(0.0361677 0.0280132 0)
(-0.00732641 0.0415123 0)
(-0.0375759 0.027491 0)
(-0.0343463 -0.00161197 0)
(-0.0254432 -0.0249296 0)
(-0.0184696 -0.0491064 0)
(-0.118055 0.249506 0)
(-0.162531 0.279361 0)
(-0.203071 0.26435 0)
(-0.260515 0.212243 0)
(-0.271957 0.00667634 0)
(-0.18791 -0.21237 0)
(-0.111878 -0.284563 0)
(-0.0520959 -0.26229 0)
(-0.00678059 -0.18557 0)
(0.078013 -0.124584 0)
(0.174638 -0.0281102 0)
(0.168341 0.00267474 0)
(0.122783 0.0217182 0)
(0.0564049 0.0525154 0)
(-0.0143536 0.0673496 0)
(-0.0249838 0.0323918 0)
(0.0305284 -0.0167829 0)
(0.0500683 -0.0292608 0)
(0.0616185 -0.051343 0)
(-0.120341 0.307751 0)
(-0.149455 0.294976 0)
(-0.178948 0.282414 0)
(-0.22637 0.237314 0)
(-0.206768 -0.0263871 0)
(-0.125687 -0.246241 0)
(-0.064429 -0.311832 0)
(-0.0198295 -0.281856 0)
(0.00340477 -0.20177 0)
(0.0742242 -0.166145 0)
(0.223451 -0.0924623 0)
(0.290918 0.0219145 0)
(0.222329 0.0671535 0)
(0.10234 0.100672 0)
(0.0166453 0.0814278 0)
(0.0473533 0.0111526 0)
(0.115189 -0.0389828 0)
(0.133995 -0.0312559 0)
(0.123492 -0.00194601 0)
(-0.024574 0.0798751 0)
(-0.0459646 0.0933637 0)
(-0.0666324 0.0970687 0)
(-0.0856233 0.0924602 0)
(-0.102478 0.0808341 0)
(-0.116881 0.0638648 0)
(-0.128415 0.0437626 0)
(-0.136869 0.0231237 0)
(-0.141901 0.00416441 0)
(-0.143034 -0.00996941 0)
(-0.142052 -0.0144333 0)
(-0.141818 -0.0107876 0)
(-0.144154 0.00232801 0)
(-0.154395 0.0275012 0)
(-0.180133 0.0568172 0)
(-0.22736 0.0798636 0)
(-0.295371 0.0868294 0)
(-0.357512 0.0504972 0)
(-0.37325 -0.0767251 0)
(-0.315327 -0.206128 0)
(-0.246247 -0.246553 0)
(-0.184352 -0.221792 0)
(-0.116411 -0.154223 0)
(-0.0225025 0.110588 0)
(-0.0414056 0.117134 0)
(-0.0605109 0.116844 0)
(-0.0789852 0.110184 0)
(-0.0969723 0.0969399 0)
(-0.114243 0.0779986 0)
(-0.130224 0.0555344 0)
(-0.144742 0.0324581 0)
(-0.156917 0.010121 0)
(-0.164139 -0.0101878 0)
(-0.167055 -0.0165868 0)
(-0.171079 -0.0113585 0)
(-0.176105 0.00813967 0)
(-0.185418 0.05015 0)
(-0.22218 0.104067 0)
(-0.307399 0.156891 0)
(-0.441558 0.191272 0)
(-0.507509 0.0820535 0)
(-0.454464 -0.149916 0)
(-0.390298 -0.268409 0)
(-0.344758 -0.30007 0)
(-0.307563 -0.270429 0)
(-0.277333 -0.177543 0)
(-0.0174166 0.136967 0)
(-0.0326384 0.138241 0)
(-0.0501813 0.135875 0)
(-0.0692582 0.129314 0)
(-0.0906818 0.116874 0)
(-0.113987 0.0982815 0)
(-0.137846 0.0750598 0)
(-0.161889 0.0497996 0)
(-0.186529 0.0230021 0)
(-0.209121 -0.00173825 0)
(-0.224694 -0.00476997 0)
(-0.226807 0.00477251 0)
(-0.24611 0.0194823 0)
(-0.271506 0.0850672 0)
(-0.309918 0.194106 0)
(-0.391509 0.30376 0)
(-0.482812 0.310109 0)
(-0.473491 0.0365422 0)
(-0.442082 -0.187235 0)
(-0.421689 -0.30011 0)
(-0.406199 -0.325164 0)
(-0.395235 -0.289897 0)
(-0.382581 -0.19691 0)
(-0.00846287 0.156411 0)
(-0.01956 0.15584 0)
(-0.0353529 0.155033 0)
(-0.0558455 0.152552 0)
(-0.0826734 0.144778 0)
(-0.115376 0.129031 0)
(-0.152709 0.105495 0)
(-0.192513 0.081804 0)
(-0.236858 0.0650029 0)
(-0.301857 0.0374117 0)
(-0.409202 0.0240513 0)
(-0.47568 0.0331431 0)
(-0.489569 0.0397187 0)
(-0.458977 0.0909741 0)
(-0.423768 0.224234 0)
(-0.406591 0.333929 0)
(-0.387514 0.324774 0)
(-0.385431 0.0508236 0)
(-0.390919 -0.194818 0)
(-0.412283 -0.302648 0)
(-0.418208 -0.325915 0)
(-0.419462 -0.293311 0)
(-0.415396 -0.217408 0)
(0.00241036 0.1702 0)
(-0.0033257 0.171509 0)
(-0.0170747 0.175671 0)
(-0.0392748 0.180811 0)
(-0.0732931 0.179967 0)
(-0.120674 0.169118 0)
(-0.184399 0.152832 0)
(-0.272368 0.144772 0)
(-0.404469 0.162292 0)
(-0.539844 0.161763 0)
(-0.625398 0.118608 0)
(-0.672091 0.0614805 0)
(-0.685925 0.0221811 0)
(-0.667506 0.0365073 0)
(-0.581619 0.154517 0)
(-0.467074 0.257355 0)
(-0.362899 0.253155 0)
(-0.300427 0.100734 0)
(-0.325893 -0.175051 0)
(-0.385002 -0.289387 0)
(-0.404368 -0.315032 0)
(-0.403512 -0.291209 0)
(-0.395787 -0.232723 0)
(0.00693375 0.171773 0)
(0.0100732 0.18201 0)
(-0.000806291 0.19148 0)
(-0.0234882 0.203285 0)
(-0.0675345 0.211338 0)
(-0.143233 0.219955 0)
(-0.275142 0.242854 0)
(-0.506459 0.287561 0)
(-0.636403 0.286243 0)
(-0.688754 0.246432 0)
(-0.73822 0.176073 0)
(-0.77467 0.0922616 0)
(-0.793145 0.0220561 0)
(-0.792576 -0.00475929 0)
(-0.749561 0.0343011 0)
(-0.613793 0.123704 0)
(-0.468233 0.124269 0)
(-0.3562 0.0414346 0)
(-0.315977 -0.0884736 0)
(-0.349755 -0.261627 0)
(-0.384399 -0.306889 0)
(-0.382448 -0.288233 0)
(-0.361875 -0.239055 0)
(-0.0153166 0.157032 0)
(0.00725528 0.17416 0)
(-0.00151359 0.195659 0)
(-0.0266018 0.22225 0)
(-0.0969994 0.254072 0)
(-0.278329 0.323414 0)
(-0.570575 0.477179 0)
(-0.683583 0.442479 0)
(-0.701475 0.340862 0)
(-0.721865 0.27558 0)
(-0.754017 0.200195 0)
(-0.796735 0.106386 0)
(-0.832569 0.0263474 0)
(-0.85035 -0.0195393 0)
(-0.843183 -0.026478 0)
(-0.788269 -0.00570573 0)
(-0.668004 -0.0331113 0)
(-0.553912 -0.0940334 0)
(-0.446276 -0.144202 0)
(-0.394525 -0.218952 0)
(-0.372713 -0.301044 0)
(-0.382961 -0.306525 0)
(-0.364644 -0.26587 0)
(-0.064804 0.150292 0)
(-0.0167767 0.165271 0)
(-0.0517893 0.211065 0)
(-0.143764 0.305912 0)
(-0.341224 0.527491 0)
(-0.532042 0.72732 0)
(-0.632962 0.693581 0)
(-0.639279 0.492366 0)
(-0.641848 0.352589 0)
(-0.665823 0.289934 0)
(-0.688558 0.236499 0)
(-0.74994 0.148543 0)
(-0.813204 0.0606158 0)
(-0.844668 -0.0107758 0)
(-0.85364 -0.0498527 0)
(-0.828029 -0.0841925 0)
(-0.770114 -0.136543 0)
(-0.707016 -0.185954 0)
(-0.636597 -0.236805 0)
(-0.557361 -0.306783 0)
(-0.495239 -0.350603 0)
(-0.413563 -0.33243 0)
(-0.387974 -0.299069 0)
(-0.0416057 0.193152 0)
(-0.0956811 0.20717 0)
(-0.189404 0.346155 0)
(-0.301816 0.511515 0)
(-0.414356 0.676527 0)
(-0.48008 0.767896 0)
(-0.494332 0.672283 0)
(-0.484396 0.481404 0)
(-0.526906 0.353307 0)
(-0.601655 0.315955 0)
(-0.629791 0.31042 0)
(-0.674775 0.237248 0)
(-0.725544 0.110848 0)
(-0.779854 0.00748178 0)
(-0.814347 -0.0265529 0)
(-0.792448 -0.0880257 0)
(-0.76213 -0.166017 0)
(-0.726571 -0.235498 0)
(-0.683439 -0.312516 0)
(-0.631488 -0.374314 0)
(-0.586908 -0.407336 0)
(-0.532688 -0.405513 0)
(-0.463437 -0.368849 0)
(-0.0609198 0.277625 0)
(-0.136181 0.318322 0)
(-0.22049 0.427824 0)
(-0.293595 0.567135 0)
(-0.337922 0.695319 0)
(-0.341899 0.74286 0)
(-0.331928 0.653226 0)
(-0.338881 0.498 0)
(-0.398812 0.441386 0)
(-0.452275 0.401634 0)
(-0.484686 0.368577 0)
(-0.518717 0.3147 0)
(-0.562435 0.22706 0)
(-0.615343 0.111576 0)
(-0.659545 0.00913287 0)
(-0.706839 -0.100076 0)
(-0.690488 -0.171696 0)
(-0.665128 -0.244428 0)
(-0.65134 -0.337505 0)
(-0.626662 -0.402209 0)
(-0.597867 -0.442889 0)
(-0.56083 -0.449936 0)
(-0.521319 -0.411264 0)
(-0.0621847 0.36693 0)
(-0.129842 0.408899 0)
(-0.189428 0.490416 0)
(-0.225055 0.596312 0)
(-0.227635 0.690605 0)
(-0.202927 0.718617 0)
(-0.180931 0.651695 0)
(-0.192337 0.546971 0)
(-0.235024 0.482345 0)
(-0.273662 0.426794 0)
(-0.302317 0.373549 0)
(-0.327838 0.309711 0)
(-0.358759 0.227452 0)
(-0.396716 0.134168 0)
(-0.433708 0.0371135 0)
(-0.472657 -0.0855569 0)
(-0.506883 -0.202962 0)
(-0.531195 -0.253558 0)
(-0.574123 -0.344461 0)
(-0.580514 -0.412936 0)
(-0.58001 -0.462769 0)
(-0.570366 -0.476362 0)
(-0.551209 -0.457666 0)
(-0.0478674 0.443841 0)
(-0.0975504 0.471939 0)
(-0.134696 0.528124 0)
(-0.146242 0.602745 0)
(-0.127673 0.667949 0)
(-0.0897611 0.687409 0)
(-0.0583812 0.644785 0)
(-0.0560324 0.571015 0)
(-0.0761621 0.507939 0)
(-0.0983641 0.450684 0)
(-0.117683 0.393843 0)
(-0.135329 0.329185 0)
(-0.156358 0.251985 0)
(-0.183431 0.165163 0)
(-0.214755 0.0711732 0)
(-0.253158 -0.033342 0)
(-0.29882 -0.13269 0)
(-0.343076 -0.213764 0)
(-0.389931 -0.312674 0)
(-0.437781 -0.396513 0)
(-0.507687 -0.458111 0)
(-0.551075 -0.490591 0)
(-0.530921 -0.521645 0)
(-0.0280481 0.498193 0)
(-0.0578475 0.511664 0)
(-0.0774224 0.544438 0)
(-0.0744414 0.591382 0)
(-0.0468533 0.633334 0)
(-0.00381755 0.647004 0)
(0.0355802 0.621647 0)
(0.055353 0.571377 0)
(0.0577217 0.518354 0)
(0.0533652 0.465079 0)
(0.0466429 0.409442 0)
(0.0382685 0.346853 0)
(0.0262084 0.274046 0)
(0.00816271 0.192061 0)
(-0.0161474 0.102957 0)
(-0.0484485 0.00804842 0)
(-0.0885586 -0.0836222 0)
(-0.130794 -0.166198 0)
(-0.174604 -0.248139 0)
(-0.21885 -0.322349 0)
(-0.263928 -0.397477 0)
(-0.3004 -0.48841 0)
(-0.327705 -0.566297 0)
(-0.00755639 0.525208 0)
(-0.0195198 0.531505 0)
(-0.0261617 0.546446 0)
(-0.0140407 0.571462 0)
(0.0169394 0.59486 0)
(0.0606908 0.602324 0)
(0.104581 0.586365 0)
(0.137422 0.551991 0)
(0.157853 0.509763 0)
(0.170216 0.462916 0)
(0.177369 0.411198 0)
(0.180245 0.352588 0)
(0.178092 0.28534 0)
(0.169509 0.209689 0)
(0.153742 0.1274 0)
(0.12992 0.0407728 0)
(0.0982999 -0.0450548 0)
(0.0624514 -0.126503 0)
(0.0239312 -0.205354 0)
(-0.0161754 -0.279465 0)
(-0.0567206 -0.353492 0)
(-0.0989673 -0.428083 0)
(-0.143306 -0.493064 0)
(0.0094995 0.521919 0)
(0.0126382 0.53758 0)
(0.0161023 0.538734 0)
(0.0344743 0.547548 0)
(0.0664644 0.556679 0)
(0.108646 0.557515 0)
(0.153345 0.544809 0)
(0.193121 0.519408 0)
(0.225185 0.48566 0)
(0.250372 0.445574 0)
(0.269777 0.399345 0)
(0.283775 0.346185 0)
(0.291838 0.285343 0)
(0.292965 0.21705 0)
(0.286387 0.142638 0)
(0.271613 0.0641395 0)
(0.248951 -0.0151521 0)
(0.220263 -0.0925202 0)
(0.186805 -0.167923 0)
(0.149456 -0.240499 0)
(0.108385 -0.311597 0)
(0.0618855 -0.380474 0)
(0.00898654 -0.44133 0)
(0.0196965 0.498073 0)
(0.0351198 0.531062 0)
(0.0478759 0.523374 0)
(0.0709309 0.520926 0)
(0.103293 0.519704 0)
(0.143192 0.514458 0)
(0.186358 0.501585 0)
(0.228145 0.480386 0)
(0.265851 0.452156 0)
(0.298743 0.417688 0)
(0.326654 0.377022 0)
(0.349263 0.329759 0)
(0.365878 0.275605 0)
(0.375562 0.214871 0)
(0.377512 0.148614 0)
(0.371239 0.0784668 0)
(0.356859 0.006658 0)
(0.335315 -0.0647185 0)
(0.307396 -0.134744 0)
(0.273636 -0.20256 0)
(0.234059 -0.267969 0)
(0.187548 -0.329509 0)
(0.133411 -0.383562 0)
(0.0230128 0.464642 0)
(0.0474067 0.512725 0)
(0.0686717 0.501309 0)
(0.0956364 0.491931 0)
(0.128404 0.483812 0)
(0.166207 0.473782 0)
(0.206888 0.45944 0)
(0.247759 0.439723 0)
(0.286769 0.414623 0)
(0.322765 0.384166 0)
(0.354979 0.348156 0)
(0.38265 0.306301 0)
(0.404889 0.258473 0)
(0.42072 0.204976 0)
(0.429284 0.146648 0)
(0.429998 0.0847559 0)
(0.422706 0.0209312 0)
(0.407772 -0.0431771 0)
(0.385638 -0.106382 0)
(0.356584 -0.167664 0)
(0.320609 -0.226126 0)
(0.277141 -0.280177 0)
(0.225649 -0.327163 0)
(0.0221041 0.428375 0)
(0.0518405 0.4854 0)
(0.0797456 0.473643 0)
(0.109877 0.460799 0)
(0.143093 0.448669 0)
(0.179217 0.435448 0)
(0.217301 0.419595 0)
(0.255919 0.400164 0)
(0.293719 0.37672 0)
(0.329649 0.348955 0)
(0.36281 0.316554 0)
(0.3923 0.279253 0)
(0.417163 0.236981 0)
(0.436425 0.189995 0)
(0.449213 0.13894 0)
(0.454877 0.0847908 0)
(0.453073 0.0287865 0)
(0.443812 -0.02773 0)
(0.427271 -0.0835337 0)
(0.403564 -0.137534 0)
(0.372694 -0.188566 0)
(0.334383 -0.235001 0)
(0.288188 -0.27467 0)
(0.0197493 0.393019 0)
(0.0516519 0.452729 0)
(0.0836232 0.44205 0)
(0.11584 0.428068 0)
(0.149268 0.414086 0)
(0.183993 0.399159 0)
(0.219687 0.382342 0)
(0.255666 0.36294 0)
(0.291121 0.340489 0)
(0.325257 0.314619 0)
(0.357277 0.285012 0)
(0.386337 0.251445 0)
(0.411546 0.213871 0)
(0.43201 0.172498 0)
(0.446913 0.127822 0)
(0.455603 0.0805971 0)
(0.45765 0.0317878 0)
(0.452869 -0.0175002 0)
(0.441263 -0.0661168 0)
(0.422844 -0.112955 0)
(0.397607 -0.156767 0)
(0.365397 -0.195955 0)
(0.325822 -0.228603 0)
(0.0174752 0.360046 0)
(0.0493937 0.417905 0)
(0.0829942 0.40846 0)
(0.116012 0.394596 0)
(0.149151 0.380157 0)
(0.182523 0.364672 0)
(0.216057 0.347567 0)
(0.249451 0.328384 0)
(0.282247 0.306768 0)
(0.313898 0.282419 0)
(0.34378 0.255085 0)
(0.371193 0.224605 0)
(0.395386 0.190959 0)
(0.415601 0.154324 0)
(0.431127 0.115088 0)
(0.441368 0.0738448 0)
(0.445883 0.0313664 0)
(0.444405 -0.0114233 0)
(0.436832 -0.0534839 0)
(0.423113 -0.0937402 0)
(0.403236 -0.130944 0)
(0.377101 -0.163557 0)
(0.344379 -0.18981 0)
(0.0157082 0.329613 0)
(0.0464828 0.383101 0)
(0.0799157 0.374587 0)
(0.112554 0.361355 0)
(0.144806 0.347216 0)
(0.176696 0.331913 0)
(0.20821 0.315078 0)
(0.239207 0.296422 0)
(0.26942 0.275715 0)
(0.298483 0.25276 0)
(0.325935 0.227397 0)
(0.351233 0.199537 0)
(0.373786 0.169197 0)
(0.392984 0.136538 0)
(0.408244 0.101881 0)
(0.419056 0.0657091 0)
(0.425014 0.0286588 0)
(0.425836 -0.00848167 0)
(0.421372 -0.0447821 0)
(0.411541 -0.0792245 0)
(0.396326 -0.110606 0)
(0.375663 -0.137464 0)
(0.34931 -0.158152 0)
(0.0143525 0.301508 0)
(0.043442 0.349551 0)
(0.075609 0.341647 0)
(0.10701 0.32918 0)
(0.137855 0.315667 0)
(0.168071 0.300942 0)
(0.197615 0.284736 0)
(0.226391 0.266866 0)
(0.254223 0.247195 0)
(0.28085 0.225617 0)
(0.305936 0.202056 0)
(0.329075 0.176492 0)
(0.349817 0.14898 0)
(0.367689 0.11968 0)
(0.382232 0.0888757 0)
(0.39303 0.0569761 0)
(0.399736 0.0245254 0)
(0.402089 -0.00778858 0)
(0.399929 -0.0391337 0)
(0.39317 -0.068561 0)
(0.381801 -0.0949364 0)
(0.365788 -0.116891 0)
(0.344993 -0.132905 0)
(0.013197 0.275561 0)
(0.0403533 0.317859 0)
(0.070686 0.310348 0)
(0.100348 0.29863 0)
(0.12944 0.285838 0)
(0.157814 0.271854 0)
(0.185392 0.256463 0)
(0.212075 0.239535 0)
(0.237717 0.220995 0)
(0.262121 0.200799 0)
(0.285032 0.178935 0)
(0.306148 0.155434 0)
(0.32513 0.130387 0)
(0.341618 0.103963 0)
(0.355261 0.0764221 0)
(0.365731 0.0481288 0)
(0.372744 0.0195642 0)
(0.376076 -0.00865862 0)
(0.375584 -0.0357903 0)
(0.371194 -0.0609531 0)
(0.362905 -0.0830933 0)
(0.350721 -0.100951 0)
(0.334597 -0.113146 0)
(0.012111 0.251692 0)
(0.0372189 0.288278 0)
(0.0654723 0.281015 0)
(0.0931649 0.269989 0)
(0.120325 0.25792 0)
(0.146759 0.244719 0)
(0.172363 0.23021 0)
(0.197033 0.214291 0)
(0.220633 0.196919 0)
(0.243 0.178088 0)
(0.263934 0.157829 0)
(0.283203 0.13621 0)
(0.300552 0.113346 0)
(0.315709 0.0894145 0)
(0.328408 0.0646646 0)
(0.338394 0.0394329 0)
(0.345444 0.014157 0)
(0.349379 -0.0106064 0)
(0.350081 -0.0341768 0)
(0.347495 -0.0557452 0)
(0.341643 -0.0743422 0)
(0.332558 -0.0888249 0)
(0.320277 -0.0979619 0)
(0.0110841 0.22984 0)
(0.0341176 0.260899 0)
(0.0602168 0.25376 0)
(0.0858675 0.243362 0)
(0.11103 0.231991 0)
(0.135484 0.219568 0)
(0.159118 0.205944 0)
(0.181827 0.191035 0)
(0.203487 0.174815 0)
(0.223955 0.157304 0)
(0.243069 0.138553 0)
(0.260647 0.118654 0)
(0.276493 0.0977377 0)
(0.2904 0.0759869 0)
(0.302166 0.0536451 0)
(0.311598 0.0310296 0)
(0.318523 0.00854694 0)
(0.322805 -0.0132899 0)
(0.324354 -0.0338582 0)
(0.323142 -0.0524135 0)
(0.319208 -0.0680701 0)
(0.312614 -0.0798026 0)
(0.303461 -0.0865299 0)
(0.010175 0.209889 0)
(0.0311926 0.235723 0)
(0.0551474 0.228598 0)
(0.0787556 0.218769 0)
(0.101913 0.208067 0)
(0.124383 0.196401 0)
(0.146062 0.183635 0)
(0.166852 0.169702 0)
(0.186642 0.154586 0)
(0.205309 0.138318 0)
(0.222718 0.120966 0)
(0.238724 0.102632 0)
(0.253171 0.083456 0)
(0.265903 0.0636227 0)
(0.276764 0.0433705 0)
(0.285609 0.0230023 0)
(0.292307 0.00290078 0)
(0.296758 -0.0164574 0)
(0.298901 -0.0344989 0)
(0.29873 -0.0505386 0)
(0.296306 -0.0637715 0)
(0.291709 -0.073285 0)
(0.285089 -0.0781432 0)
(0.0094389 0.191638 0)
(0.028572 0.212691 0)
(0.0504391 0.20551 0)
(0.0720333 0.1962 0)
(0.0932007 0.186139 0)
(0.113705 0.175201 0)
(0.133455 0.163256 0)
(0.152367 0.150244 0)
(0.170345 0.136161 0)
(0.187284 0.121046 0)
(0.203072 0.104973 0)
(0.217591 0.088051 0)
(0.230719 0.0704243 0)
(0.242333 0.0522772 0)
(0.252316 0.0338418 0)
(0.260555 0.0154087 0)
(0.266955 -0.00265952 0)
(0.271445 -0.0199187 0)
(0.273992 -0.0358375 0)
(0.274606 -0.0497858 0)
(0.273365 -0.0610345 0)
(0.270366 -0.0687763 0)
(0.26579 -0.0722102 0)
(0.00888165 0.17483 0)
(0.0263047 0.191686 0)
(0.0461728 0.184453 0)
(0.065798 0.175631 0)
(0.0850067 0.166186 0)
(0.10358 0.155943 0)
(0.121441 0.144772 0)
(0.138522 0.132618 0)
(0.154743 0.119486 0)
(0.170018 0.105421 0)
(0.184254 0.0905027 0)
(0.197355 0.0748435 0)
(0.209225 0.0585881 0)
(0.219767 0.0419182 0)
(0.22889 0.0250595 0)
(0.23651 0.00829088 0)
(0.242558 -0.00804334 0)
(0.246988 -0.0235286 0)
(0.249786 -0.0376708 0)
(0.25098 -0.0498901 0)
(0.25066 -0.0595274 0)
(0.248931 -0.0658719 0)
(0.245995 -0.0682441 0)
(0.00845752 0.159225 0)
(0.0243486 0.172565 0)
(0.0423277 0.165363 0)
(0.0600473 0.157023 0)
(0.0773478 0.14817 0)
(0.0940414 0.138584 0)
(0.11007 0.128133 0)
(0.125379 0.116769 0)
(0.139908 0.104501 0)
(0.153585 0.0913819 0)
(0.166335 0.0774945 0)
(0.178082 0.0629528 0)
(0.188747 0.0479012 0)
(0.198255 0.0325179 0)
(0.206535 0.0170214 0)
(0.213526 0.00167933 0)
(0.219178 -0.0131821 0)
(0.223466 -0.0271746 0)
(0.226393 -0.0398383 0)
(0.227999 -0.0506393 0)
(0.228381 -0.0589821 0)
(0.227652 -0.0642418 0)
(0.226016 -0.0658449 0)
(0.00809498 0.144647 0)
(0.0226017 0.155176 0)
(0.0388105 0.148151 0)
(0.0547078 0.140312 0)
(0.0701734 0.132031 0)
(0.08506 0.123062 0)
(0.0993293 0.113275 0)
(0.112944 0.102628 0)
(0.125856 0.0911373 0)
(0.13801 0.0788597 0)
(0.149346 0.0658825 0)
(0.159803 0.0523208 0)
(0.169317 0.0383178 0)
(0.17783 0.0240478 0)
(0.185286 0.00972163 0)
(0.191641 -0.00440399 0)
(0.196863 -0.0180215 0)
(0.200942 -0.0307663 0)
(0.203894 -0.0422093 0)
(0.20577 -0.0518593 0)
(0.20667 -0.059177 0)
(0.206711 -0.0636126 0)
(0.206091 -0.064682 0)
(0.00772584 0.131012 0)
(0.0209482 0.139387 0)
(0.035502 0.132713 0)
(0.049676 0.125409 0)
(0.0634004 0.117683 0)
(0.076572 0.109291 0)
(0.0891745 0.10011 0)
(0.101185 0.0901092 0)
(0.11257 0.0793101 0)
(0.123287 0.0677747 0)
(0.133289 0.0555937 0)
(0.142526 0.0428842 0)
(0.15095 0.0297883 0)
(0.15851 0.0164758 0)
(0.165166 0.00315004 0)
(0.170884 -0.00994428 0)
(0.175649 -0.0225176 0)
(0.179462 -0.0342273 0)
(0.182351 -0.0446731 0)
(0.184374 -0.0534017 0)
(0.185633 -0.0599239 0)
(0.186246 -0.0637533 0)
(0.186402 -0.0644797 0)
(0.00730374 0.118317 0)
(0.0192966 0.1251 0)
(0.0322979 0.11894 0)
(0.0448551 0.112208 0)
(0.0569461 0.105025 0)
(0.0685098 0.0971699 0)
(0.0795509 0.0885408 0)
(0.0900614 0.0791159 0)
(0.100019 0.0689261 0)
(0.109393 0.0580383 0)
(0.118149 0.0465476 0)
(0.126248 0.0345734 0)
(0.133646 0.0222575 0)
(0.140304 0.00976546 0)
(0.146187 -0.00270797 0)
(0.151274 -0.0149317 0)
(0.155561 -0.0266338 0)
(0.15906 -0.037492 0)
(0.161808 -0.0471328 0)
(0.16387 -0.0551368 0)
(0.16535 -0.0610585 0)
(0.166364 -0.0644647 0)
(0.167088 -0.0650051 0)
(0.00680914 0.106605 0)
(0.0175963 0.112249 0)
(0.0291325 0.106729 0)
(0.040179 0.100595 0)
(0.0507511 0.0939402 0)
(0.0608224 0.0865861 0)
(0.0704158 0.0784555 0)
(0.079536 0.0695414 0)
(0.0881723 0.0598832 0)
(0.0963057 0.0495545 0)
(0.103911 0.0386561 0)
(0.110955 0.0273117 0)
(0.117399 0.0156643 0)
(0.123208 0.00387485 0)
(0.128351 -0.00787208 0)
(0.132816 -0.0193616 0)
(0.136609 -0.0303389 0)
(0.139752 -0.0405019 0)
(0.142291 -0.0495012 0)
(0.144296 -0.0569482 0)
(0.145872 -0.062435 0)
(0.147136 -0.0655728 0)
(0.148251 -0.0660592 0)
(0.00624421 0.0959352 0)
(0.0158363 0.10079 0)
(0.025983 0.0959844 0)
(0.0356218 0.0904572 0)
(0.0447906 0.0843107 0)
(0.0534877 0.0774208 0)
(0.0617491 0.0697393 0)
(0.0695905 0.0612744 0)
(0.0770125 0.0520751 0)
(0.0840067 0.0422228 0)
(0.0905565 0.0318263 0)
(0.0966339 0.0210172 0)
(0.1022 0.0099431 0)
(0.107214 -0.00124053 0)
(0.11165 -0.012364 0)
(0.115503 -0.023231 0)
(0.118787 -0.033605 0)
(0.121536 -0.0432035 0)
(0.123803 -0.0516991 0)
(0.125665 -0.0587305 0)
(0.127226 -0.0639221 0)
(0.128606 -0.0669228 0)
(0.129956 -0.0674684 0)
(0.00562343 0.0863621 0)
(0.0140348 0.0906875 0)
(0.0228657 0.0866157 0)
(0.0311983 0.0816811 0)
(0.0390784 0.0760175 0)
(0.0465176 0.0695563 0)
(0.0535599 0.062278 0)
(0.0602299 0.0542057 0)
(0.0665392 0.0453975 0)
(0.0724911 0.0359439 0)
(0.0780779 0.0259653 0)
(0.0832749 0.0156075 0)
(0.0880356 0.00502849 0)
(0.092308 -0.00562383 0)
(0.0960645 -0.016203 0)
(0.0993093 -0.0265357 0)
(0.102069 -0.0364052 0)
(0.104388 -0.0455471 0)
(0.106328 -0.0536541 0)
(0.107969 -0.060388 0)
(0.109418 -0.0654015 0)
(0.110791 -0.0683754 0)
(0.112234 -0.0690765 0)
(0.00496651 0.0779179 0)
(0.012232 0.0818984 0)
(0.0198304 0.0785321 0)
(0.026962 0.0741566 0)
(0.0336667 0.0689452 0)
(0.03996 0.0628792 0)
(0.0458893 0.0559637 0)
(0.0514862 0.0482337 0)
(0.0567735 0.0397548 0)
(0.0617677 0.0306268 0)
(0.066473 0.0209867 0)
(0.0708681 0.0110043 0)
(0.0748901 0.000860317 0)
(0.0784624 -0.00931067 0)
(0.081555 -0.019401 0)
(0.0841874 -0.0292669 0)
(0.0864031 -0.038712 0)
(0.0882589 -0.0474876 0)
(0.0898231 -0.0553022 0)
(0.0911785 -0.0618367 0)
(0.0924285 -0.0667681 0)
(0.0936886 -0.0698047 0)
(0.0950957 -0.0707394 0)
(0.00429794 0.0706001 0)
(0.0104894 0.0743561 0)
(0.016959 0.0716326 0)
(0.0230028 0.0677718 0)
(0.0286451 0.062982 0)
(0.0338997 0.0572832 0)
(0.0388133 0.0506987 0)
(0.043423 0.0432701 0)
(0.0477619 0.0350669 0)
(0.0518623 0.0261964 0)
(0.055746 0.0168171 0)
(0.0594018 0.00713844 0)
(0.0627364 -0.00260947 0)
(0.0656291 -0.0123202 0)
(0.0680508 -0.0219549 0)
(0.0700521 -0.0314076 0)
(0.071701 -0.0404983 0)
(0.0730669 -0.048987 0)
(0.0742208 -0.0565915 0)
(0.0752424 -0.0630075 0)
(0.0762278 -0.0679323 0)
(0.0772855 -0.0710987 0)
(0.0785423 -0.072323 0)
(0.00365357 0.0643537 0)
(0.00889858 0.0679569 0)
(0.0143693 0.0657998 0)
(0.0194482 0.0624113 0)
(0.0241409 0.05802 0)
(0.0284585 0.052671 0)
(0.0324452 0.0463979 0)
(0.0361393 0.0392442 0)
(0.039581 0.0312762 0)
(0.0428195 0.0226026 0)
(0.0459037 0.0134046 0)
(0.0488516 0.00395442 0)
(0.0515202 -0.00540983 0)
(0.0537154 -0.0146432 0)
(0.0554251 -0.0238395 0)
(0.0567629 -0.0329321 0)
(0.0578278 -0.0417414 0)
(0.0586951 -0.0500214 0)
(0.0594287 -0.0574905 0)
(0.0600959 -0.0638537 0)
(0.0607779 -0.0688267 0)
(0.0615699 -0.0721652 0)
(0.0625841 -0.0737068 0)
(0.00309771 0.0590564 0)
(0.0076023 0.0625594 0)
(0.0122256 0.0609056 0)
(0.0164647 0.057964 0)
(0.0203162 0.053961 0)
(0.0237942 0.0489564 0)
(0.0269371 0.0429913 0)
(0.0297759 0.0361067 0)
(0.0323469 0.0283572 0)
(0.0347101 0.0198373 0)
(0.0369533 0.0107382 0)
(0.0391677 0.00141919 0)
(0.0411286 -0.00754051 0)
(0.0425464 -0.0162303 0)
(0.043461 -0.0250072 0)
(0.0441024 -0.0338168 0)
(0.0445921 -0.0424384 0)
(0.0449896 -0.0505962 0)
(0.0453332 -0.0580001 0)
(0.0456652 -0.0643624 0)
(0.0460436 -0.0694164 0)