/*--------------------------------*- C++ -*----------------------------------*\
| =========                 |                                                 |
| \\      /  F ield         | OpenFOAM: The Open Source CFD Toolbox           |
|  \\    /   O peration     | Version:  2.3.0                                 |
|   \\  /    A nd           | Web:      www.OpenFOAM.org                      |
|    \\/     M anipulation  |                                                 |
\*---------------------------------------------------------------------------*/
FoamFile
{
    version     2.0;
    format      ascii;
    class       volScalarField;
    location    "0.042";
    object      alpha.water;
}
// * * * * * * * * * * * * * * * * * * * * * * * * * * * * * * * * * * * * * //

dimensions      [0 0 0 0 0 0 0];

internalField   nonuniform List<scalar> 
725
(
1
1
1
0.999768
0.99922
1
1
1
0.999918
0.999164
1
1
1
0.999939
0.999812
1
1
1
1.00004
1
1
1
1
1.00002
0.906679
0.999793
0.999823
0.985829
0.961358
0.99286
1.00022
1
1.00002
1.00001
1.00004
1.00003
1.00001
0.370304
0.00435599
0.00435019
0.00437107
0.266798
0.999998
0.999994
0.99993
0.999978
1.00001
1.00002
1.00001
1
0.999999
1
1.00001
1.00001
1.00001
1.00001
1.00001
1.00002
1.00002
0.999985
1.00003
1.00002
1
0.594606
0.000249005
0.000249006
0.000249007
0.00117716
0.00496339
0.00277878
0.999807
0.999822
0.99922
0.975346
0.989726
1
0.99996
0.999993
1.00001
1.00005
1.00004
1.00001
0.395439
0.00434957
0.00434189
0.0043482
0.241834
0.999998
0.999962
0.999706
0.99967
0.999653
0.999675
0.999715
0.999763
0.999811
0.999854
0.999889
0.999916
0.99993
0.999931
0.999929
0.999929
0.999942
0.999956
0.999987
1
0.999997
0.587806
0.000249005
0.000249019
0.000249045
0.00024922
0.00496131
0.00265605
0.99736
0.92851
0.888051
0.929512
0.990086
1
0.999921
0.999907
0.999913
1.00004
1.00003
1
0.414539
0.00439648
0.00434083
0.00433055
0.220384
0.999877
0.999897
0.99973
0.999703
0.999641
0.999583
0.999525
0.999491
0.999492
0.999525
0.999582
0.999651
0.999718
0.999768
0.999806
0.999827
0.999858
0.999897
0.99995
0.999953
0.998604
0.574579
0.000248979
0.000249333
0.000249437
0.000323682
0.00541952
0.00546658
0.603152
0.624205
0.778718
0.940397
0.992438
1.00007
0.999919
0.999891
0.99988
1.00002
1.00003
1
0.463161
0.00444846
0.00429063
0.00427317
0.182965
0.995045
0.999859
0.999702
0.999683
0.999782
0.999602
0.999527
0.999418
0.999322
0.999263
0.999253
0.999296
0.99938
0.999475
0.999574
0.999653
0.999729
0.999808
0.999898
1
0.971767
0.570994
0.003039
0.000251555
0.000254912
0.000270372
0.00548269
0.00548694
0.150461
0.477021
0.788036
0.96909
0.991633
1.00002
1.00002
0.999892
0.999858
0.999944
1.00008
0.999647
0.486581
0.00433841
0.00427477
0.00418388
0.181732
0.9858
1.00001
0.999734
0.999625
0.999629
0.999609
0.999513
0.999357
0.999179
0.999026
0.998939
0.99894
0.999024
0.999163
0.999327
0.999481
0.999632
0.999725
0.999762
0.999999
0.948433
0.562539
0.008804
0.000260776
0.000559217
0.0010475
0.00506906
0.00167477
8.77367e-06
0.0826679
0.534891
0.979952
0.9942
0.999706
0.999869
0.999839
0.999845
0.999895
1.00015
0.977378
0.500786
0.00461627
0.00419865
0.00406689
0.184943
0.982631
1.00004
0.99984
0.999688
0.999546
0.999487
0.999416
0.999289
0.999131
0.998986
0.998896
0.998888
0.998965
0.999099
0.999264
0.999419
0.999583
0.999707
0.998613
1.00001
0.939995
0.54886
0.0271209
0.000331176
0.000344481
0.00088266
0.00246105
0.000560154
0.0035343
0.00872366
0.299265
0.982448
0.998355
0.999738
0.999899
0.999829
0.999846
0.999908
1.00017
0.969441
0.523893
0.00621242
0.00406555
0.00397173
0.189676
0.983895
1.00007
0.999854
0.999708
0.999571
0.999476
0.999382
0.999251
0.999097
0.998957
0.998869
0.998862
0.998936
0.99907
0.999237
0.999403
0.999571
0.999713
0.998467
0.999999
0.946874
0.539168
0.0315158
0.000345159
0.000322132
0.00195933
0.000516192
0.000548649
0.000719767
0.00361771
0.260456
0.998902
1.00001
1.00002
0.999877
0.999811
0.999846
0.999914
1.00001
0.967847
0.524422
0.0105157
0.0039659
0.00397641
0.191599
0.983215
1.00002
0.999868
0.999724
0.999587
0.999467
0.999352
0.999218
0.999071
0.998941
0.998861
0.998857
0.998932
0.999066
0.999232
0.999404
0.999571
0.999722
0.998661
1
0.932042
0.568116
0.0248733
0.000314817
0.000295358
0.00223406
0.00047967
0.000471881
1.02445e-05
0.00084236
0.204991
0.999935
0.999956
0.999927
0.999842
0.999799
0.99985
0.99992
1.00001
0.965114
0.516488
0.0125364
0.00416305
0.00396831
0.193554
0.985044
1
0.999878
0.999737
0.999605
0.999475
0.999345
0.999207
0.999065
0.998942
0.998871
0.998874
0.998953
0.999088
0.999256
0.999428
0.999584
0.999733
0.999403
1
0.923761
0.581523
0.0150198
0.000289754
0.000272315
0.00224005
0.00180632
0.000362612
7.30375e-06
0.000729953
0.146502
0.998271
0.999945
0.999924
0.999812
0.999806
0.999857
0.999922
0.999976
0.958636
0.522968
0.0130525
0.00438341
0.00414019
0.194743
0.985885
1.00002
0.999882
0.999743
0.999617
0.999491
0.999361
0.999224
0.999085
0.998965
0.998903
0.998916
0.999008
0.999151
0.999317
0.999472
0.999607
0.999739
0.999792
1
0.941864
0.578341
0.0211018
0.000258855
0.000257217
0.00210713
0.00231264
0.00021662
1
1
0.999996
1
0.914975
1
1
0.999998
1
1
1
1
0.999996
0.99986
0.999943
1
1
0.999987
0.99999
0.999974
1
1
0.999985
0.99999
0.985429
0.000354816
0.0006868
0.118004
0.979139
0.999988
0.999934
0.99982
0.999847
0.999862
0.999973
1
0.968303
0.499484
0.0174975
0.00447479
0.00440655
0.210065
0.993216
0.999948
0.999885
0.999743
0.999619
0.999502
0.999383
0.999264
0.999155
0.999078
0.999052
0.999084
0.999168
0.999284
0.999409
0.999525
0.999634
0.999726
1.00002
1.00001
0.969747
0.523075
0.0235423
0.00023826
0.000243855
0.000951533
0.00231205
0.000208698
0.102048
0.00298145
0.0748715
0.885263
0.999988
0.999915
0.999864
0.999888
0.9999
0.999921
1
0.942281
0.547264
0.0608725
0.0051927
0.00553024
0.230864
0.99991
0.999921
0.99995
0.999711
0.999598
0.99949
0.999396
0.999321
0.999272
0.99926
0.999293
0.999366
0.999463
0.99956
0.999639
0.999695
0.999737
0.999799
1.00001
1.00003
0.999601
0.538367
0.0173772
0.000236229
0.000233644
0.000977469
0.00231185
4.63278e-06
0.421924
0.0360372
0.151862
0.833332
0.999987
0.999907
0.999895
0.999902
0.999909
0.999936
1
0.945733
0.482007
0.0567414
0.024726
0.0067603
0.394271
0.947884
0.999946
0.999951
0.999701
0.999589
0.999514
0.999481
0.999482
0.999508
0.999556
0.999623
0.999695
0.999758
0.9998
0.999824
0.999831
0.999831
0.999863
1.00002
0.99944
0.999998
0.55038
0.0133291
0.000232286
0.000229973
0.000464157
0.00230482
7.76508e-05
0.736166
0.154453
0.183143
0.801346
0.999987
0.999923
0.999903
0.999905
0.999927
0.999955
1
0.965633
0.475869
0.0468707
0.0398487
0.0162065
0.458813
0.943794
0.99993
0.999939
0.999734
0.999698
0.999705
0.99973
0.999753
0.999773
0.999793
0.999816
0.999838
0.999859
0.99988
0.999897
0.999901
0.999895
0.999948
0.999979
0.999638
0.999999
0.564847
0.00677843
0.000229762
0.00022802
0.000308378
0.00113664
4.47611e-05
0.762483
0.241921
0.205907
0.830193
0.999987
0.999924
0.999937
0.999994
1.00001
1.00004
1.00002
0.974123
0.474565
0.0510537
0.0396507
0.154963
0.395448
0.916696
0.999826
0.999727
0.999878
0.99991
0.999922
0.99993
0.999941
0.999955
0.999968
0.999988
1.00001
1.00002
1.00002
1.00002
1.00001
1.00002
1.00002
1.00001
0.999961
0.999999
0.54519
0.00739187
0.000253703
0.000271137
0.000194476
9.93015e-05
9.50139e-05
)
;

boundaryField
{
    AirInlet
    {
        type            fixedValue;
        value           uniform 0;
    }
    WaterInlet
    {
        type            fixedValue;
        value           uniform 1;
    }
    ChannelWall
    {
        type            zeroGradient;
    }
    Outlet
    {
        type            inletOutlet;
        inletValue      uniform 0;
        value           nonuniform List<scalar> 
15
(
0
0.00265605
0.00546658
0.00548694
0
0.000560154
0.000548649
0.000471881
0.000362612
0.00021662
0.000208698
0
7.76508e-05
4.47611e-05
9.50139e-05
)
;
    }
    FrontAndBack
    {
        type            empty;
    }
}


// ************************************************************************* //
