/*--------------------------------*- C++ -*----------------------------------*\
| =========                 |                                                 |
| \\      /  F ield         | OpenFOAM: The Open Source CFD Toolbox           |
|  \\    /   O peration     | Version:  2.3.0                                 |
|   \\  /    A nd           | Web:      www.OpenFOAM.org                      |
|    \\/     M anipulation  |                                                 |
\*---------------------------------------------------------------------------*/
FoamFile
{
    version     2.0;
    format      ascii;
    class       volScalarField;
    location    "0.042";
    object      p;
}
// * * * * * * * * * * * * * * * * * * * * * * * * * * * * * * * * * * * * * //

dimensions      [1 -1 -2 0 0 0 0];

internalField   nonuniform List<scalar> 
725
(
408.648
367.029
349.879
369.567
372.17
402.678
367.293
350.806
364.318
375.651
400.006
366.993
351.47
346.85
388.102
400.347
365.626
349.87
310.353
382.961
403.777
364.358
357.303
301.754
693.184
502.758
512.646
321.531
9.83597
199.13
114.801
182.391
166.392
181.945
171.216
144.506
67.2145
78.2566
183.78
193.106
191.996
264.853
268.445
162.544
139.516
124.106
115.205
109.127
105.295
102.55
100.475
98.7305
97.1368
95.4913
93.6049
91.6883
89.5167
87.7297
85.8062
83.7053
90.9247
82.9253
79.0913
29.3547
-10.2471
-2.74848
-2.01184
-1.26832
2.68576
-11.1849
494.837
530.423
319.053
17.5508
205.94
111.807
182.142
166.38
181.843
173.743
150.96
98.6662
114.608
180.95
192.719
192.552
219.519
213.135
144.989
132.507
120.027
112.436
107.089
103.759
101.407
99.5941
98.0348
96.5669
95.0309
93.2235
91.3351
89.1802
87.3225
85.3241
83.4493
90.3307
83.2547
85.6551
-13.4581
-8.67102
-2.7534
-1.99595
-1.12274
2.1432
-9.96956
486.31
596.309
331.837
228.487
187.403
107.443
185.389
167.797
183.609
178.986
163.922
129.06
154.093
173.937
191.667
194.392
180.31
131.862
116.003
122.13
115.438
110.503
106.311
103.394
101.16
99.4206
97.9082
96.4731
94.9709
93.1742
91.3067
89.1632
87.2561
85.0672
82.7925
89.1901
79.1162
96.0401
-64.5299
-6.97578
-2.86395
-2.09209
-0.590472
6.69388
6.38089
698.541
1001.59
380.347
177.38
181.928
113.932
191.875
171.463
186.216
186.228
185.405
156.44
168.958
164.66
189.614
197.04
154.389
29.5222
80.0691
109.655
109.979
108.414
104.725
102.597
100.845
99.3021
97.8356
96.4377
94.9779
93.1762
91.3126
89.156
87.1845
84.7367
81.7063
86.3574
69.0646
106.432
-79.9512
-7.02107
-2.9642
-2.22597
-0.293375
12.178
5.26783
1370
1210.23
41.5398
234.055
189.673
111.926
196.451
177.473
189.534
193.61
212.23
131.606
-44.8389
161.018
186.833
199.493
155.708
-50.6706
46.6169
98.5297
104.869
104.348
103.209
101.774
100.376
99.1329
97.8925
96.5442
95.1256
93.3278
91.4736
89.2621
87.2161
84.4997
81.0425
81.4637
53.0318
66.1006
89.8032
-11.3923
-3.00351
-2.1819
-0.420304
15.7162
1.14429
1583.43
1320.81
-92.0472
249.425
176.734
121.484
202.77
181.72
192.309
197.006
208.626
179.134
271.8
151.264
188.502
200.234
163.886
-53.3449
29.8057
96.0276
101.6
105.495
102.41
101.154
100.006
98.9511
97.8246
96.5671
95.2464
93.4298
91.6543
89.3683
87.5532
84.3606
80.9423
79.8214
64.4505
56.2118
172.205
38.4798
-2.68208
-0.355201
-0.218716
19.4501
-0.576253
1575.23
1465.84
245.389
289.653
178.312
124.16
204.417
183.333
193.147
197.86
207.572
216.335
559.235
141.67
192.468
200.395
164.182
-53.8972
24.2276
95.2853
100.556
104.105
102.142
100.983
99.8837
98.8918
97.8412
96.6304
95.3857
93.7384
91.9877
89.6794
87.8325
84.424
80.8651
84.8766
64.0825
105.356
310.798
61.1785
-2.62177
-0.162456
-0.144054
24.3906
-0.787593
1576.19
1522.97
337.269
416.607
183.19
126.539
205.359
185.097
193.872
198.786
209.045
224.612
560.764
139.911
197.964
200.745
158.277
-62.8742
18.8823
94.8469
99.6431
103.39
101.992
101.049
99.9808
99.076
98.1163
96.908
95.5496
93.8444
92.1064
89.7942
87.7929
84.4496
81.1184
77.4488
59.4597
77.5872
290.132
19.9605
-2.30928
-0.148816
1.87184
27.3241
-1.03917
1576.65
1545.37
637.257
504.027
184.572
130.982
206.225
187.477
194.534
199.695
210.385
224.461
393.059
148.252
198.018
201.313
143.982
-80.8789
13.7758
94.5407
98.8508
102.786
101.483
100.994
100.141
99.2054
98.0433
96.4935
94.9324
93.3029
91.6004
89.3239
87.4974
84.4115
81.2572
78.7238
57.8794
198.352
485.371
44.6848
-1.90827
-0.292965
2.20623
-14.1652
-0.900331
1575.71
1542.78
805.03
481.32
186.151
140.908
207.168
189.514
195.204
200.547
210.987
238.527
278.806
149.156
198.934
201.612
130.085
-92.2426
8.71914
93.8658
98.1327
102.176
101.136
100.486
99.6321
98.7007
97.6513
96.3627
94.8434
93.1739
91.4415
89.1985
87.4167
84.4456
81.609
79.4891
62.5751
12.292
431.485
13.6928
-1.75083
-0.228175
-1.97703
-10.0603
0.129368
942.088
911.366
855.633
894.504
551.832
938.843
914.316
855.341
885.092
592.907
938.708
918.108
861.624
930.269
541.888
941.437
920.509
871.655
961.512
690.542
946.947
920.208
868.082
969.849
843.626
1553.43
1542.85
740.919
367.649
179.808
176.38
210.997
196.899
197.096
202.8
211.305
240.901
142.462
136.894
202.784
201.734
85.1153
-99.2871
-4.30805
91.5285
96.6234
100.298
100.382
99.8868
99.1099
98.1986
97.2287
96.0708
94.6242
92.9816
91.2661
89.1965
87.4076
84.8024
82.1425
80.3575
79.2055
-22.2929
-15.4567
11.2554
-1.22538
-0.540296
-4.51917
-3.87896
-0.465384
1269.24
1525.73
1045.31
430.004
171.768
214.913
212.72
200.576
198.859
201.452
202.051
239.821
225.303
105.166
205.249
187.373
33.6895
-96.9928
-7.8456
93.6487
95.6501
98.1393
99.2444
99.1938
98.5961
97.7862
96.887
95.7864
94.4138
92.8098
91.1366
89.1598
87.4869
85.2474
83.5198
83.2947
89.0942
36.8946
-104.06
4.37801
-1.09004
-0.857357
-4.10499
0.397817
0.247188
647.453
1401.48
1015.09
360.756
161.509
225.655
212.786
204.667
200.009
199.155
189.935
185.223
90.7298
102.034
64.0784
174.058
-41.6019
-61.6303
16.315
99.0873
95.2217
96.6656
98.1693
98.3937
98.0715
97.4468
96.6372
95.5835
94.2692
92.7089
91.09
89.195
87.6389
85.695
84.9537
86.1356
96.1697
84.8411
6.79082
-0.209188
-1.30105
-1.27211
-3.67735
1.37011
0.158721
1052.75
1131.3
966.918
311.459
156.906
230
214.158
207.376
200.48
197.5
182.468
145.617
-20.984
105.34
1.7251
144.777
184.031
57.0285
42.5412
98.2613
93.2536
95.0398
97.164
97.8367
97.7443
97.2357
96.4793
95.4577
94.177
92.6455
91.0642
89.2384
87.7657
86.0434
86.0986
88.6051
98.5017
110.106
32.4545
-2.41512
-1.28919
-1.45396
-3.7189
-1.72349
0.277598
1333.31
1031.17
885.294
416.61
187.246
240.311
216.798
209.169
200.941
198.244
189.35
197.303
50.4356
109.199
9.32223
272.561
299.457
38.1421
29.6328
80.5374
88.327
94.5311
97.3449
98.2372
98.2442
97.7955
97.0532
96.0559
94.7998
93.2285
91.5971
89.7201
88.2402
86.5559
86.7477
89.716
99.9202
114.263
-48.5227
3.62132
-0.998257
-1.5762
-3.1198
1.50785
0.303951
)
;

boundaryField
{
    AirInlet
    {
        type            calculated;
        value           nonuniform List<scalar> 5(1583.44 1583.73 1574.99 1576.7 1576.04);
    }
    WaterInlet
    {
        type            calculated;
        value           nonuniform List<scalar> 10(408.65 402.684 400.016 400.361 403.795 942.069 938.829 938.698 941.431 946.945);
    }
    ChannelWall
    {
        type            calculated;
        value           nonuniform List<scalar> 
110
(
403.751
364.328
357.269
301.716
693.146
942.114
911.396
855.667
894.542
551.87
946.921
920.177
868.048
969.811
843.584
1333.27
1031.16
885.285
416.573
187.201
240.266
216.754
209.124
200.897
198.2
189.305
197.26
50.4146
109.197
9.32044
272.554
299.439
38.1016
29.5887
80.4932
88.2829
94.4869
97.3008
98.193
98.2
97.7514
97.009
96.0117
94.7557
93.1843
91.5529
89.676
88.196
86.5117
86.7036
89.6718
99.8761
114.219
-48.5468
3.62095
-0.998312
-1.57625
-3.11986
1.50781
0.303902
408.675
367.059
349.913
369.606
372.213
502.802
512.69
321.575
9.87841
199.174
114.845
182.435
166.436
181.989
171.26
144.55
67.2587
78.273
183.78
193.107
191.997
264.864
268.49
162.588
139.56
124.15
115.249
109.171
105.339
102.595
100.519
98.7747
97.181
95.5354
93.649
91.7324
89.5608
87.7739
85.8504
83.7494
90.9688
82.9694
79.1355
29.381
-10.247
-2.74842
-2.01178
-1.26822
2.68602
-11.1848
)
;
    }
    Outlet
    {
        type            calculated;
        value           nonuniform List<scalar> 
15
(
-4.4145e-05
-0.00290365
-0.00142613
-0.00200287
-0.0132912
-0.000703782
-0.000728969
-0.000721726
-0.000694911
-0.000644378
-0.00107743
-0.00936049
-0.000819252
-0.00088651
-0.00102578
)
;
    }
    FrontAndBack
    {
        type            empty;
    }
}


// ************************************************************************* //
