/*--------------------------------*- C++ -*----------------------------------*\
| =========                 |                                                 |
| \\      /  F ield         | OpenFOAM: The Open Source CFD Toolbox           |
|  \\    /   O peration     | Version:  2.3.0                                 |
|   \\  /    A nd           | Web:      www.OpenFOAM.org                      |
|    \\/     M anipulation  |                                                 |
\*---------------------------------------------------------------------------*/
FoamFile
{
    version     2.0;
    format      ascii;
    class       volScalarField;
    location    "0.042";
    object      p_rgh;
}
// * * * * * * * * * * * * * * * * * * * * * * * * * * * * * * * * * * * * * //

dimensions      [1 -1 -2 0 0 0 0];

internalField   nonuniform List<scalar> 
725
(
408.675
367.059
349.913
369.606
372.213
402.758
367.384
350.909
364.433
375.778
400.139
367.146
351.642
347.041
388.313
400.532
365.839
350.11
310.621
383.256
404.016
364.632
357.612
302.098
693.528
502.802
512.69
321.575
9.87841
199.174
114.845
182.435
166.436
181.989
171.26
144.55
67.2587
78.273
183.78
193.107
191.997
264.864
268.49
162.588
139.56
124.15
115.249
109.171
105.339
102.595
100.519
98.7747
97.181
95.5354
93.649
91.7324
89.5608
87.7739
85.8504
83.7494
90.9688
82.9694
79.1355
29.381
-10.247
-2.74842
-2.01178
-1.26822
2.68602
-11.1848
494.97
530.556
319.186
17.68
206.071
111.939
182.275
166.512
181.976
173.876
151.093
98.7986
114.661
180.95
192.72
192.553
219.551
213.267
145.121
132.639
120.159
112.569
107.221
103.891
101.539
99.7265
98.1672
96.6993
95.1633
93.3559
91.4675
89.3126
87.4549
85.4565
83.5817
90.4631
83.3871
85.7875
-13.3802
-8.67085
-2.75324
-1.99579
-1.12258
2.14398
-9.96908
486.53
596.514
332.033
228.692
187.622
107.664
185.61
168.017
183.83
179.207
164.142
129.281
154.184
173.938
191.668
194.393
180.359
132.082
116.223
122.351
115.659
110.724
106.532
103.614
101.38
99.6412
98.1288
96.6938
95.1915
93.3949
91.5274
89.3839
87.4768
85.2879
83.0132
89.4108
79.3369
96.2605
-64.403
-6.97551
-2.86368
-2.09181
-0.59018
6.6953
6.38232
698.727
1001.78
380.588
177.671
182.234
114.241
192.184
171.772
186.525
186.537
185.714
156.749
169.101
164.661
189.616
197.042
154.446
29.8297
80.378
109.964
110.287
108.723
105.034
102.906
101.154
99.6109
98.1444
96.7465
95.2867
93.485
91.6214
89.4649
87.4934
85.0457
82.0152
86.6663
69.3736
106.732
-79.7747
-7.01983
-2.96382
-2.22558
-0.292983
12.18
5.26983
1370.06
1210.42
41.8529
234.44
190.067
112.323
196.848
177.87
189.931
194.007
212.628
132.003
-44.6454
161.02
186.835
199.495
155.78
-50.2789
47.0142
98.9269
105.266
104.745
103.606
102.171
100.773
99.5299
98.2895
96.9411
95.5225
93.7247
91.8705
89.6591
87.6132
84.8969
81.4396
81.8609
53.4291
66.4774
90.0269
-11.3884
-3.00301
-2.18128
-0.419491
15.7186
1.14536
1583.43
1320.85
-91.8056
249.868
177.183
121.935
203.221
182.171
192.76
197.457
209.077
179.575
272.027
151.267
188.504
200.236
163.97
-52.9015
30.257
96.4788
102.051
105.946
102.861
101.605
100.457
99.4019
98.2755
97.0179
95.6971
93.8806
92.1051
89.8193
88.0042
84.8117
81.3934
80.272
64.9018
56.636
172.453
38.4924
-2.68148
-0.354595
-0.217867
19.4516
-0.575549
1575.23
1465.85
245.53
290.115
178.782
124.63
204.888
183.804
193.618
198.331
208.043
216.791
559.482
141.673
192.47
200.397
164.272
-53.4339
24.6985
95.7561
101.027
104.576
102.613
101.454
100.354
99.3623
98.3116
97.1007
95.8561
94.2088
92.4582
90.1499
88.3031
84.8947
81.3358
85.3468
64.5534
105.801
311.052
61.1938
-2.62114
-0.161833
-0.142661
24.3913
-0.786864
1576.19
1522.97
337.397
417.097
183.68
127.03
205.849
185.588
194.362
199.276
209.535
225.086
561.021
139.917
197.966
200.748
158.371
-62.3919
19.3728
95.3373
100.133
103.881
102.482
101.539
100.471
99.5661
98.6063
97.3979
96.0395
94.3344
92.5965
90.2843
88.2831
84.9399
81.6087
77.9386
59.9502
78.0444
290.411
19.9732
-2.30863
-0.148181
1.87343
27.3248
-1.03845
1576.65
1545.37
637.362
504.537
185.082
131.492
206.735
187.987
195.044
200.205
210.895
224.953
393.322
148.259
198.02
201.315
144.081
-80.3764
14.2859
95.0508
99.3608
103.296
101.993
101.504
100.651
99.715
98.5529
97.0031
95.4419
93.8125
92.1101
89.8337
88.0073
84.9214
81.7672
79.2336
58.3895
198.823
485.668
44.6929
-1.90762
-0.292316
2.20788
-14.1638
-0.899636
1575.71
1542.78
805.108
481.849
186.681
141.438
207.697
190.044
195.733
201.077
211.517
239.035
279.083
149.164
198.937
201.615
130.189
-91.7203
9.24889
94.3954
98.6623
102.706
101.665
101.015
100.161
99.23
98.1805
96.8919
95.3726
93.7031
91.9708
89.7278
87.9462
84.9751
82.1386
80.0187
63.1049
12.791
431.792
13.7045
-1.75016
-0.227509
-1.97539
-10.0585
0.130012
942.83
912.073
856.305
895.14
552.382
939.638
915.084
856.082
885.805
593.593
939.557
918.937
862.433
931.058
542.657
942.338
921.399
872.533
962.378
691.396
947.902
921.158
869.029
970.792
844.551
1553.43
1542.85
740.989
368.22
180.392
176.964
211.58
197.483
197.679
203.384
211.889
241.467
142.754
136.905
202.787
201.737
85.2384
-98.7073
-3.72439
92.1121
97.207
100.882
100.965
100.47
99.6932
98.7818
97.8119
96.6539
95.2074
93.5648
91.8494
89.7799
87.9911
85.3858
82.7261
80.9412
79.7892
-21.7268
-15.1511
11.2697
-1.22465
-0.53957
-4.51803
-3.87702
-0.464678
1269.31
1525.73
1045.36
430.599
172.44
215.585
213.392
201.248
199.531
202.124
202.723
240.455
225.671
105.207
205.253
187.377
33.8451
-96.3208
-7.17367
94.3206
96.3219
98.811
99.9161
99.8653
99.2676
98.4577
97.5585
96.4579
95.0854
93.4814
91.8083
89.8315
88.1587
85.9192
84.1917
83.9667
89.7662
37.5663
-103.698
4.39035
-1.08921
-0.856528
-4.10366
0.400041
0.247863
647.775
1401.51
1015.2
361.39
162.269
226.415
213.546
205.427
200.769
199.915
190.696
185.942
91.0966
102.078
64.0979
174.064
-41.3017
-60.9096
17.0753
99.8475
95.9818
97.4255
98.9292
99.1536
98.8314
98.2067
97.3971
96.3435
95.0292
93.469
91.8501
89.9552
88.3991
86.4552
85.7139
86.8959
96.9296
85.6013
7.2096
-0.198304
-1.30011
-1.27117
-3.67624
1.37262
0.15954
1053.37
1131.44
967.074
312.14
157.755
230.848
215.007
208.225
201.328
198.349
183.317
146.437
-20.5797
105.381
1.75973
144.792
184.421
57.8294
43.3897
99.1098
94.102
95.8881
98.0123
98.685
98.5926
98.0841
97.3277
96.3061
95.0254
93.494
91.9127
90.0869
88.6142
86.8919
86.9471
89.4536
99.3499
110.954
32.9342
-2.40853
-1.28815
-1.45292
-3.71779
-1.72168
0.278484
1334.02
1031.4
885.488
417.388
188.182
241.247
217.735
210.105
201.878
199.181
190.286
198.216
50.8807
109.248
9.36028
272.707
299.828
39.001
30.5695
81.474
89.2638
95.4679
98.2817
99.174
99.181
98.7323
97.99
96.9927
95.7367
94.1654
92.5339
90.657
89.177
87.4927
87.6846
90.6528
100.857
115.2
-48.0115
3.62917
-0.997082
-1.575
-3.11868
1.50888
0.304977
)
;

boundaryField
{
    AirInlet
    {
        type            fixedFluxPressure;
        gradient        nonuniform List<scalar> 5(1212.66 850040 -120018 4484.28 33457.8);
        value           nonuniform List<scalar> 5(1583.44 1583.73 1574.99 1576.7 1576.04);
    }
    WaterInlet
    {
        type            fixedFluxPressure;
        gradient        nonuniform List<scalar> 10(0.000630554 -0.386544 -6.75194 -5.7755 0.265639 0.0387971 -1.59716 0.372169 -4.07244 -9.88711);
        value           nonuniform List<scalar> 10(408.675 402.758 400.139 400.532 404.016 942.83 939.638 939.557 942.338 947.901);
    }
    ChannelWall
    {
        type            fixedFluxPressure;
        gradient        uniform 0;
        value           nonuniform List<scalar> 
110
(
404.016
364.632
357.612
302.098
693.528
942.83
912.073
856.305
895.14
552.382
947.902
921.158
869.029
970.792
844.551
1334.02
1031.4
885.488
417.388
188.182
241.247
217.735
210.105
201.878
199.181
190.286
198.216
50.8807
109.248
9.36028
272.707
299.828
39.001
30.5695
81.474
89.2638
95.4679
98.2817
99.174
99.181
98.7323
97.99
96.9927
95.7367
94.1654
92.5339
90.657
89.177
87.4927
87.6846
90.6528
100.857
115.2
-48.0115
3.62917
-0.997082
-1.575
-3.11868
1.50888
0.304977
408.675
367.059
349.913
369.606
372.213
502.802
512.69
321.575
9.87841
199.174
114.845
182.435
166.436
181.989
171.26
144.55
67.2587
78.273
183.78
193.107
191.997
264.864
268.49
162.588
139.56
124.15
115.249
109.171
105.339
102.595
100.519
98.7747
97.181
95.5354
93.649
91.7324
89.5608
87.7739
85.8504
83.7494
90.9688
82.9694
79.1355
29.381
-10.247
-2.74842
-2.01178
-1.26822
2.68602
-11.1848
)
;
    }
    Outlet
    {
        type            totalPressure;
        rho             rho;
        psi             none;
        gamma           1;
        p0              uniform 0;
        value           nonuniform List<scalar> 
15
(
0
-0.00241981
0
0
-0.0128939
0
0
0
0
0
-0.000372045
-0.0086885
0
0
0
)
;
    }
    FrontAndBack
    {
        type            empty;
    }
}


// ************************************************************************* //
