/*--------------------------------*- C++ -*----------------------------------*\
| =========                 |                                                 |
| \\      /  F ield         | OpenFOAM: The Open Source CFD Toolbox           |
|  \\    /   O peration     | Version:  2.3.0                                 |
|   \\  /    A nd           | Web:      www.OpenFOAM.org                      |
|    \\/     M anipulation  |                                                 |
\*---------------------------------------------------------------------------*/
FoamFile
{
    version     2.0;
    format      ascii;
    class       surfaceScalarField;
    location    "0.042";
    object      phi;
}
// * * * * * * * * * * * * * * * * * * * * * * * * * * * * * * * * * * * * * //

dimensions      [0 3 -1 0 0 0 0];

internalField   nonuniform List<scalar> 
1380
(
3.11197e-13
1.88803e-13
2.70297e-13
4.09e-14
2.32387e-13
3.79098e-14
-1.96508e-13
4.28895e-13
7.92723e-13
-9.89231e-13
6.00281e-13
8.85222e-14
6.06502e-13
3.46789e-14
5.7823e-13
6.6182e-14
-5.59757e-14
1.0631e-12
1.25601e-12
-5.1926e-13
6.85201e-13
-9.66788e-14
7.26812e-13
-6.93211e-15
7.67562e-13
2.54318e-14
5.70794e-13
1.25987e-12
6.45419e-13
1.18138e-12
5.9968e-13
-1.96359e-13
6.28574e-13
-3.58266e-14
7.53125e-13
-9.91183e-14
1.55694e-12
4.56051e-13
-1.55003e-12
3.75239e-12
3.03641e-13
2.67815e-13
1.68696e-13
6.24747e-13
-9.25279e-13
-3.22901e-13
-6.66331e-13
4.62928e-13
-7.85829e-13
1.34879e-12
-8.85859e-13
3.23643e-13
1.02514e-12
-1.1043e-13
4.34073e-13
-3.36088e-13
2.25658e-13
-2.21099e-13
-1.1499e-13
-1.3837e-13
-8.27288e-14
2.08901e-15
-1.40459e-13
1.89676e-13
-1.87587e-13
3.99239e-13
-2.09562e-13
5.07352e-13
-1.08113e-13
-1.46981e-12
1.97717e-12
-5.81089e-12
4.34108e-12
-2.59017e-12
-3.22071e-12
-2.42268e-13
-2.34791e-12
-3.01094e-13
5.8826e-14
-4.98512e-13
1.97418e-13
-3.94334e-13
-1.04178e-13
-7.55083e-14
-3.18825e-13
7.57221e-14
-1.51231e-13
1.27923e-13
-5.2201e-14
1.39743e-13
-1.18195e-14
1.42453e-13
-2.71099e-15
1.42292e-13
1.61284e-16
1.41872e-13
4.20002e-16
1.42346e-13
-4.73753e-16
1.44608e-13
-2.26191e-15
1.47071e-13
-2.46276e-15
1.45133e-13
1.93793e-15
1.40861e-13
4.27205e-15
1.2732e-13
1.35412e-14
1.10585e-13
1.67347e-14
7.66117e-14
3.39735e-14
8.0392e-14
-3.78023e-15
3.54601e-14
4.49319e-14
-8.83917e-14
1.23852e-13
-3.64685e-15
-8.47448e-14
-4.10761e-12
4.10396e-12
-3.95716e-12
-1.50444e-13
-1.52182e-12
-2.43534e-12
2.31744e-12
-3.83926e-12
7.0006e-12
-4.68316e-12
5.11426e-12
1.88634e-12
4.43442e-12
6.51929e-13
-1.83752e-12
1.94713e-12
-2.08103e-12
3.42743e-12
-2.36615e-12
6.26349e-13
3.82623e-12
-4.54583e-13
1.515e-12
-4.93306e-13
2.64382e-13
-3.1606e-13
-2.92237e-13
-1.36052e-13
-2.62737e-13
1.28185e-13
-4.04696e-13
4.71095e-13
-5.30496e-13
9.20747e-13
-6.59215e-13
1.28667e-12
-4.74034e-13
-1.46328e-12
4.72712e-12
-8.78974e-12
1.16675e-11
-4.15782e-12
-7.85263e-12
4.40012e-13
-6.94574e-12
-4.13097e-13
9.11935e-13
-1.02236e-12
8.06676e-13
-7.6914e-13
-3.57393e-13
-1.43032e-13
-9.44934e-13
1.82116e-13
-4.76379e-13
3.06976e-13
-1.77061e-13
3.48406e-13
-5.32491e-14
3.64293e-13
-1.85981e-14
3.69298e-13
-4.84358e-15
3.71492e-13
-1.77421e-15
3.74272e-13
-3.25373e-15
3.80232e-13
-8.22234e-15
3.8662e-13
-8.85076e-15
3.87432e-13
1.12609e-15
3.84393e-13
7.31183e-15
3.73062e-13
2.4872e-14
3.64358e-13
2.54384e-14
3.48502e-13
4.98299e-14
3.94734e-13
-5.00122e-14
4.00839e-13
3.88274e-14
-9.49529e-14
6.19643e-13
-1.15382e-13
-6.43156e-14
-3.21577e-12
7.20434e-12
-4.90813e-12
1.54192e-12
-2.24111e-12
-5.10235e-12
2.25927e-12
-8.33965e-12
5.77305e-12
-8.19694e-12
5.91944e-12
1.73995e-12
1.06967e-11
1.39624e-12
-2.05237e-12
1.22907e-12
-1.91386e-12
1.9681e-12
-3.10519e-12
4.10448e-13
5.38387e-12
-3.58424e-13
2.28388e-12
-3.30203e-13
2.36161e-13
-1.86473e-13
-4.35967e-13
2.60592e-14
-4.75268e-13
2.80726e-13
-6.59363e-13
6.18109e-13
-8.67879e-13
1.09716e-12
-1.13827e-12
1.93705e-12
-1.31392e-12
2.79689e-13
6.38448e-12
-8.67373e-12
2.06209e-11
-4.03085e-12
-1.24955e-11
2.18772e-12
-1.31643e-11
7.91601e-14
3.0205e-12
-1.15252e-12
2.03835e-12
-8.12088e-13
-6.97822e-13
-7.53339e-14
-1.68169e-12
3.20461e-13
-8.72174e-13
4.67379e-13
-3.23979e-13
5.21868e-13
-1.07738e-13
5.44586e-13
-4.13159e-14
5.53147e-13
-1.34047e-14
5.56668e-13
-5.29532e-15
5.59061e-13
-5.64685e-15
5.64386e-13
-1.35472e-14
5.70864e-13
-1.53287e-14
5.73054e-13
-1.06345e-15
5.73226e-13
7.13924e-15
5.7033e-13
2.77689e-14
5.76276e-13
1.94926e-14
5.80282e-13
4.58239e-14
6.2449e-13
-9.4221e-14
5.77647e-13
8.5671e-14
-2.19548e-13
1.41684e-12
-4.66333e-13
1.8247e-13
-1.10832e-12
7.84633e-12
-3.77759e-12
4.21119e-12
-1.50147e-12
-7.37847e-12
1.61151e-12
-1.14526e-11
5.45405e-13
-7.13083e-12
1.08375e-12
1.2016e-12
9.16298e-12
-1.51171e-12
3.21172e-12
-2.83028e-12
-5.9529e-13
6.06141e-13
-6.54161e-12
8.0508e-13
5.18494e-12
-1.14448e-13
3.2034e-12
3.77963e-14
8.39167e-14
9.97195e-14
-4.9789e-13
2.41378e-13
-6.16926e-13
4.20963e-13
-8.38948e-13
6.35277e-13
-1.08219e-12
8.83523e-13
-1.38652e-12
1.15312e-12
-1.58352e-12
-1.08633e-12
8.62393e-12
-5.18494e-12
2.47196e-11
-1.85835e-12
-1.58221e-11
1.33747e-12
-1.63601e-11
1.48284e-13
4.20968e-12
-1.06827e-12
3.25491e-12
-6.17469e-13
-1.14862e-12
9.65228e-14
-2.39568e-12
4.80746e-13
-1.2564e-12
5.92561e-13
-4.35795e-13
6.49625e-13
-1.64802e-13
6.80096e-13
-7.17863e-14
6.93007e-13
-2.63159e-14
6.97121e-13
-9.40964e-15
6.96259e-13
-4.78422e-15
6.95958e-13
-1.32462e-14
6.97251e-13
-1.66214e-14
6.96394e-13
-2.07401e-16
6.96875e-13
6.65898e-15
6.9924e-13
2.54034e-14
7.13981e-13
4.7518e-15
7.32494e-13
2.73109e-14
7.60356e-13
-1.22083e-13
6.54273e-13
1.91755e-13
1.39395e-13
1.93171e-12
3.40275e-13
-1.84093e-14
1.71282e-12
6.47378e-12
-6.83472e-13
6.60749e-12
4.54901e-13
-8.51685e-12
2.14179e-12
-1.31395e-11
3.94627e-12
-8.9353e-12
1.14493e-12
4.00294e-12
8.09327e-12
-9.91061e-12
1.21971e-11
-2.24875e-12
-8.25715e-12
1.74028e-12
-1.05306e-11
1.29969e-12
5.62552e-12
-3.20989e-14
4.53519e-12
4.49464e-13
-3.97647e-13
5.19355e-13
-5.67781e-13
5.09768e-13
-6.0734e-13
5.48585e-13
-8.77765e-13
5.46731e-13
-1.08034e-12
3.62582e-13
-1.20237e-12
-1.62718e-13
-1.05822e-12
-2.73002e-12
1.11912e-11
-1.7631e-12
2.37526e-11
3.89552e-12
-2.14807e-11
6.91608e-13
-1.31562e-11
-7.78537e-13
5.67983e-12
-8.91546e-13
3.36792e-12
-2.56627e-13
-1.78354e-12
3.65738e-13
-3.01805e-12
6.59336e-13
-1.54999e-12
7.22608e-13
-4.99068e-13
7.52337e-13
-1.9453e-13
7.69584e-13
-8.90336e-14
7.83856e-13
-4.0588e-14
7.90777e-13
-1.63303e-14
7.86233e-13
-2.40502e-16
7.75225e-13
-2.23746e-15
7.6491e-13
-6.30666e-15
7.56551e-13
8.15144e-15
7.532e-13
1.00098e-14
7.58652e-13
1.99518e-14
7.77367e-13
-1.39637e-14
8.21375e-13
-1.66966e-14
8.52832e-13
-1.5354e-13
7.13105e-13
3.31482e-13
5.57198e-13
2.08762e-12
1.09311e-12
-5.54325e-13
6.1694e-12
1.3975e-12
3.10854e-12
9.66834e-12
3.0158e-12
-8.4241e-12
8.21687e-13
-1.09454e-11
-4.56723e-12
-3.54638e-12
-2.68056e-12
2.11626e-12
6.82991e-12
-8.70777e-13
1.32678e-11
-6.88233e-13
-8.4397e-12
-7.10585e-14
-1.11478e-11
5.2449e-13
5.02997e-12
2.10471e-13
4.84921e-12
2.46353e-13
-4.33528e-13
1.80616e-13
-5.02044e-13
1.5633e-13
-5.83054e-13
1.38528e-13
-8.59963e-13
1.01796e-13
-1.04361e-12
1.03946e-13
-1.20452e-12
-1.55842e-14
-9.38686e-13
1.25268e-12
9.92297e-12
7.32714e-13
2.42726e-11
1.7801e-12
-2.25281e-11
5.88515e-13
-1.19646e-11
-2.91684e-13
6.56003e-12
-1.91918e-13
3.26815e-12
8.63604e-15
-1.9841e-12
1.18364e-13
-3.12777e-12
1.66628e-13
-1.59826e-12
1.76368e-13
-5.08809e-13
1.78473e-13
-1.96634e-13
1.79838e-13
-9.0399e-14
1.81513e-13
-4.22625e-14
1.82181e-13
-1.69984e-14
1.80264e-13
1.67588e-15
1.76005e-13
2.02131e-15
1.7111e-13
-1.4117e-15
1.68178e-13
1.10838e-14
1.66123e-13
1.20646e-14
1.68361e-13
1.77147e-14
1.7206e-13
-1.76636e-14
1.89405e-13
-3.40406e-14
2.02779e-13
-1.66915e-13
1.2254e-13
4.11722e-13
-2.25912e-13
2.43607e-12
-4.55705e-13
-3.24531e-13
1.35249e-12
-4.10693e-13
1.20981e-12
9.81102e-12
8.14788e-13
-8.02908e-12
7.488e-14
-1.02055e-11
-6.69386e-13
-2.80212e-12
5.55013e-14
1.39138e-12
6.68932e-12
-4.55113e-12
1.8019e-11
-3.85169e-12
-9.13914e-12
-7.02528e-13
-1.4297e-11
6.01683e-13
3.72576e-12
3.27074e-13
5.12382e-12
3.0495e-13
-4.11404e-13
2.04417e-13
-4.01511e-13
1.70531e-13
-5.49168e-13
1.44658e-13
-8.3409e-13
9.34293e-14
-9.92378e-13
6.94735e-14
-1.18056e-12
-1.24509e-13
-7.44704e-13
-7.31998e-13
1.05305e-11
1.60377e-12
2.19368e-11
2.12292e-12
-2.30473e-11
9.52356e-13
-1.07941e-11
-2.29604e-13
7.74199e-12
-1.89128e-13
3.22767e-12
3.39542e-14
-2.20718e-12
1.32881e-13
-3.2267e-12
1.73474e-13
-1.63885e-12
1.80069e-13
-5.15404e-13
1.82024e-13
-1.98588e-13
1.82577e-13
-9.09528e-14
1.83846e-13
-4.35309e-14
1.84165e-13
-1.73173e-14
1.81802e-13
4.03848e-15
1.76832e-13
6.99155e-15
1.71026e-13
4.39369e-15
1.67534e-13
1.45764e-14
1.65233e-13
1.43652e-14
1.676e-13
1.53482e-14
1.71347e-13
-2.14107e-14
1.90007e-13
-5.27004e-14
2.10873e-13
-1.87781e-13
1.27986e-13
4.94608e-13
-1.98448e-13
2.76251e-12
-7.0548e-13
1.825e-13
5.53038e-13
-1.66921e-12
9.34319e-13
9.42974e-12
1.14922e-12
-8.24398e-12
1.11773e-13
-9.16805e-12
-4.46376e-13
-2.24397e-12
3.23757e-13
6.21245e-13
6.64632e-12
-5.17402e-12
2.3393e-11
-9.97245e-12
-4.34071e-12
-8.69166e-13
-2.34003e-11
6.24446e-13
2.23215e-12
4.46861e-13
5.30141e-12
3.62135e-13
-3.26678e-13
2.2902e-13
-2.68396e-13
1.83665e-13
-5.03813e-13
1.50928e-13
-8.01353e-13
8.58451e-14
-9.27295e-13
-4.09191e-14
-1.0538e-12
-3.87748e-13
-3.97876e-13
-1.06587e-12
1.12086e-11
1.81515e-12
1.90558e-11
2.22164e-12
-2.34538e-11
1.21136e-12
-9.7838e-12
-1.71672e-13
9.12502e-12
-1.79549e-13
3.23555e-12
6.06218e-14
-2.44735e-12
1.48293e-13
-3.31437e-12
1.79742e-13
-1.6703e-12
1.82955e-13
-5.18617e-13
1.84458e-13
-2.00091e-13
1.84712e-13
-9.12068e-14
1.85649e-13
-4.4468e-14
1.85675e-13
-1.73441e-14
1.83016e-13
6.69821e-15
1.77179e-13
1.28282e-14
1.70663e-13
1.09101e-14
1.67203e-13
1.80357e-14
1.64926e-13
1.66425e-14
1.67587e-13
1.26872e-14
1.71172e-13
-2.49963e-14
1.89968e-13
-7.14962e-14
2.04357e-13
-2.02169e-13
1.7503e-13
5.23934e-13
1.19632e-13
2.81791e-12
-2.22801e-13
5.24933e-13
-1.28221e-13
-1.76379e-12
1.60044e-12
7.70108e-12
1.45001e-12
-8.09355e-12
4.02041e-13
-8.12008e-12
1.03555e-13
-1.94549e-12
4.25613e-13
2.99186e-13
6.72516e-12
-3.71263e-12
2.73056e-11
-1.98432e-12
-6.06902e-12
-2.58249e-13
-2.51263e-11
6.06523e-13
1.36738e-12
5.46904e-13
5.36103e-12
4.14941e-13
-1.94715e-13
2.5168e-13
-1.05134e-13
1.96076e-13
-4.48208e-13
1.57169e-13
-7.62446e-13
7.90683e-14
-8.49195e-13
-1.25572e-13
-8.49156e-13
-5.96046e-13
7.25977e-14
-2.1677e-13
1.08293e-11
1.5829e-12
1.72561e-11
2.32573e-12
-2.41966e-11
1.02483e-12
-8.48289e-12
-2.23277e-13
1.03731e-11
-1.58831e-13
3.17111e-12
8.8909e-14
-2.69509e-12
1.63603e-13
-3.38907e-12
1.85467e-13
-1.69216e-12
1.84546e-13
-5.17695e-13
1.85176e-13
-2.00722e-13
1.8566e-13
-9.16908e-14
1.86263e-13
-4.50708e-14
1.85457e-13
-1.6538e-14
1.82099e-13
1.00566e-14
1.76901e-13
1.80255e-14
1.71341e-13
1.6471e-14
1.6839e-13
2.09858e-14
1.66343e-13
1.86894e-14
1.68691e-13
1.03396e-14
1.71355e-13
-2.76599e-14
1.87744e-13
-8.78858e-14
2.01613e-13
-2.16038e-13
2.22936e-13
5.02611e-13
4.51243e-13
2.5896e-12
3.39391e-13
6.36785e-13
-1.35579e-12
-6.86066e-14
2.15262e-12
4.19267e-12
1.51115e-12
-7.45209e-12
8.26939e-13
-7.43587e-12
9.09229e-15
-1.12764e-12
1.79339e-14
2.90344e-13
6.4787e-12
-2.79631e-12
3.03019e-11
-4.24594e-13
-8.44073e-12
-9.54487e-14
-2.54555e-11
5.59404e-13
7.12524e-13
6.24386e-13
5.29604e-12
4.55832e-13
-2.61617e-14
2.72816e-13
7.7882e-14
2.07902e-13
-3.83294e-13
1.636e-13
-7.18144e-13
7.46695e-14
-7.60265e-13
-1.46313e-13
-6.28173e-13
-6.28478e-13
5.54762e-13
3.30107e-13
9.87073e-12
1.68836e-12
1.58979e-11
2.36465e-12
-2.48729e-11
9.40386e-13
-7.05863e-12
-2.21675e-13
1.15352e-11
-1.30269e-13
3.0797e-12
1.18485e-13
-2.94384e-12
1.80162e-13
-3.45074e-12
1.90505e-13
-1.70251e-12
1.85472e-13
-5.12662e-13
1.8439e-13
-1.99639e-13
1.84137e-13
-9.14384e-14
1.84248e-13
-4.51811e-14
1.83238e-13
-1.55279e-14
1.80387e-13
1.29072e-14
1.76054e-13
2.2358e-14
1.71354e-13
2.11709e-14
1.69019e-13
2.33208e-14
1.67214e-13
2.04944e-14
1.69239e-13
8.31498e-15
1.70933e-13
-2.93542e-14
1.85497e-13
-1.0245e-13
1.95895e-13
-2.26436e-13
2.44822e-13
4.53684e-13
5.0912e-13
2.3253e-12
1.45896e-13
1.00001e-12
-8.03434e-13
8.80723e-13
1.56392e-12
1.82531e-12
1.32285e-12
-7.21101e-12
2.14181e-13
-6.3272e-12
-1.6612e-14
-8.96849e-13
-1.22271e-13
3.96003e-13
6.23965e-12
3.15597e-13
1.84403e-13
3.53033e-13
-3.74363e-14
5.68188e-13
-2.15155e-13
1.62087e-12
-1.05268e-12
1.26024e-12
3.60627e-13
6.09212e-13
7.51918e-14
6.96911e-13
-1.25135e-13
1.15787e-12
-6.76112e-13
3.18787e-12
-3.08268e-12
-1.41014e-12
5.85824e-12
6.81563e-13
-1.06371e-13
6.91622e-13
-1.35195e-13
7.29861e-13
-7.14351e-13
2.81003e-13
-2.63382e-12
-3.24401e-12
2.11488e-12
5.88151e-13
-1.94522e-13
5.04994e-13
-5.20384e-14
-4.0471e-14
-1.68886e-13
-1.87107e-12
-8.03227e-13
-2.17375e-12
-2.94132e-12
3.05478e-13
2.5344e-13
8.45536e-14
-7.18673e-13
-2.89243e-12
-9.98347e-13
3.16609e-11
-9.48609e-12
4.70099e-14
-6.41289e-13
-3.43003e-11
1.7984e-12
-1.72716e-12
3.34175e-12
3.75269e-12
2.37595e-12
9.39632e-13
1.46799e-12
9.85846e-13
1.05994e-12
2.47521e-14
8.07024e-13
-4.65226e-13
3.32182e-13
-2.85423e-13
-5.91044e-13
2.95053e-13
-1.78254e-12
1.74626e-12
4.85831e-12
3.22987e-12
9.40514e-12
1.13511e-11
1.21849e-11
-2.76526e-11
2.80076e-12
2.32548e-12
-5.33114e-13
1.48691e-11
-9.16228e-14
2.63821e-12
9.10727e-13
-3.94619e-12
1.05094e-12
-3.59096e-12
9.08893e-13
-1.56046e-12
8.42267e-13
-4.46036e-13
8.11557e-13
-1.68929e-13
8.02269e-13
-8.21499e-14
7.96188e-13
-3.91006e-14
7.89464e-13
-8.80394e-15
7.82686e-13
1.96854e-14
7.74084e-13
3.09598e-14
7.64244e-13
3.10111e-14
7.59276e-13
2.8289e-14
7.5617e-13
2.36005e-14
7.56813e-13
7.67147e-15
7.57797e-13
-3.03381e-14
7.79327e-13
-1.23979e-13
7.91616e-13
-2.38725e-13
9.01938e-13
3.43362e-13
1.39925e-12
1.82799e-12
-5.65527e-13
2.96479e-12
5.80635e-13
-2.6544e-13
2.214e-12
1.91951e-13
3.94058e-13
-5.39107e-12
-1.51193e-12
-4.42121e-12
-1.1536e-12
-1.25518e-12
-2.09804e-12
1.34045e-12
4.3864e-12
2.11247e-11
1.63944e-11
1.70057e-11
4.166e-12
1.14576e-12
-1.84403e-11
-1.20847e-13
-4.60558e-13
2.04006e-12
1.59179e-12
1.63699e-12
1.3427e-12
1.32109e-12
1.30175e-12
1.14415e-12
2.01691e-13
9.08505e-13
-2.29581e-13
5.37556e-13
8.55256e-14
6.85287e-14
7.6408e-13
-9.12216e-14
1.90601e-12
1.18569e-12
1.95296e-12
1.48063e-11
-2.26951e-12
1.11958e-11
-2.40421e-11
1.87101e-12
1.16502e-11
-7.09348e-13
1.74494e-11
1.20427e-12
7.24591e-13
1.79687e-12
-4.53879e-12
1.35147e-12
-3.14556e-12
9.39075e-13
-1.14806e-12
7.95895e-13
-3.02857e-13
7.39347e-13
-1.12381e-13
7.11154e-13
-5.39568e-14
6.95971e-13
-2.39178e-14
6.89293e-13
-2.12573e-15
6.90002e-13
1.89767e-14
6.9321e-13
2.77518e-14
6.95869e-13
2.83514e-14
6.98999e-13
2.51591e-14
6.99948e-13
2.26509e-14
6.96492e-13
1.11282e-14
6.82063e-13
-1.5909e-14
6.57371e-13
-9.92874e-14
6.05828e-13
-1.87183e-13
5.9919e-13
3.5e-13
6.32455e-13
1.79473e-12
1.02576e-13
3.49466e-12
6.67813e-13
-8.30677e-13
6.62984e-13
1.96782e-13
-1.11277e-12
-3.61532e-12
-2.52634e-12
-3.00764e-12
-1.12098e-12
-2.66055e-12
-3.51591e-12
3.73538e-12
2.05621e-12
1.13142e-11
7.19509e-12
1.18464e-11
3.63381e-12
7.66592e-13
-7.36048e-12
-8.38137e-13
1.14417e-12
3.38224e-13
4.15426e-13
6.77862e-13
1.00307e-12
1.05448e-12
9.25127e-13
1.09302e-12
1.63152e-13
9.37501e-13
-7.40624e-14
7.91576e-13
2.31451e-13
6.87038e-13
8.68619e-13
3.32166e-13
2.26088e-12
2.7609e-13
2.00904e-12
6.04818e-12
-8.0416e-12
-9.22034e-13
-1.70719e-11
-6.30438e-12
1.70326e-11
2.01271e-12
9.13234e-12
3.94852e-12
-1.21122e-12
2.83576e-12
-3.42604e-12
1.44615e-12
-1.75594e-12
8.27487e-13
-5.29403e-13
6.59382e-13
-1.34751e-13
5.95896e-13
-4.88947e-14
5.64994e-13
-2.30549e-14
5.50487e-13
-9.41031e-15
5.46795e-13
1.56667e-15
5.52563e-13
1.32085e-14
5.62352e-13
1.7962e-14
5.72043e-13
1.86607e-14
5.8058e-13
1.66221e-14
5.8553e-13
1.77007e-14
5.84146e-13
1.25117e-14
5.65756e-13
2.48072e-15
5.17736e-13
-5.12665e-14
4.29893e-13
-9.934e-14
5.151e-13
2.64793e-13
8.62584e-13
1.44724e-12
1.30725e-12
3.05e-12
1.17027e-13
3.59543e-13
6.81203e-13
-3.67394e-13
1.1229e-13
-3.04641e-12
-5.83555e-13
-2.31179e-12
-3.82703e-13
-2.8614e-12
2.69507e-13
3.08317e-12
1.80355e-12
2.30974e-12
1.94402e-12
3.63953e-12
2.30401e-12
-1.55341e-12
-2.16754e-12
-9.04204e-13
4.94966e-13
-4.5004e-13
-3.87378e-14
1.94326e-13
3.58699e-13
7.68286e-13
3.51167e-13
8.72334e-13
5.91044e-14
8.06577e-13
-8.30547e-15
8.91843e-13
1.46185e-13
1.37277e-12
3.87689e-13
2.68194e-12
9.51719e-13
4.6755e-12
1.54708e-14
4.03369e-13
-3.76947e-12
-1.06764e-11
-5.99209e-12
-4.16662e-12
1.05228e-11
5.02991e-12
-6.41837e-14
4.82793e-12
-1.00925e-12
2.49106e-12
-1.08916e-12
1.01699e-12
-2.81872e-13
5.49995e-13
-6.24115e-14
4.33562e-13
-1.83184e-14
3.90931e-13
-6.26374e-15
3.70668e-13
-2.79184e-15
3.61923e-13
-6.64578e-16
3.61644e-13
1.84516e-15
3.69364e-13
5.48846e-15
3.80649e-13
6.67712e-15
3.92305e-13
7.00423e-15
4.02683e-13
6.24429e-15
4.11992e-13
8.39091e-15
4.17172e-13
7.33171e-15
4.10742e-13
8.91142e-15
3.69029e-13
-9.55437e-15
2.91932e-13
-2.22426e-14
4.42294e-13
1.14431e-13
1.19557e-12
6.93966e-13
2.55419e-12
1.69138e-12
1.40544e-12
1.50829e-12
2.06141e-12
-1.02337e-12
1.08153e-12
-2.06654e-12
-1.88386e-15
-1.22836e-12
-7.53296e-13
-2.10999e-12
-2.05632e-13
2.53551e-12
6.6185e-13
-9.48403e-13
1.35561e-12
-8.11932e-13
-3.16965e-13
-3.55703e-13
2.99627e-15
3.54163e-13
4.13267e-13
4.04962e-13
5.51147e-13
9.38836e-13
1.89055e-12
1.90603e-12
-1.86344e-12
-7.85553e-12
2.66723e-12
2.60305e-12
1.5938e-12
5.04636e-13
2.22764e-13
1.60352e-13
1.42034e-13
1.3577e-13
1.32979e-13
1.32314e-13
1.34159e-13
1.39648e-13
1.46325e-13
1.53329e-13
1.59573e-13
1.67964e-13
1.75296e-13
1.84207e-13
1.74653e-13
1.5241e-13
2.66841e-13
9.60807e-13
2.65219e-12
4.16048e-12
3.13711e-12
1.07058e-12
-1.57786e-13
-2.26778e-12
2.67727e-13
)
;

boundaryField
{
    AirInlet
    {
        type            calculated;
        value           nonuniform List<scalar> 5(-2e-13 -2e-13 -2e-13 -2e-13 -2e-13);
    }
    WaterInlet
    {
        type            calculated;
        value           nonuniform List<scalar> 10(-5e-13 -5e-13 -5e-13 -5e-13 -5e-13 -5e-13 -5e-13 -5e-13 -5e-13 -5e-13);
    }
    ChannelWall
    {
        type            calculated;
        value           uniform 0;
    }
    Outlet
    {
        type            calculated;
        value           nonuniform List<scalar> 
15
(
6.7984e-13
-3.42879e-13
2.6175e-12
2.21464e-12
-1.4172e-12
1.96092e-13
3.66753e-13
3.46779e-13
2.64394e-13
1.16775e-13
-2.44794e-13
-1.18573e-12
5.22163e-13
9.36067e-13
9.29577e-13
)
;
    }
    FrontAndBack
    {
        type            empty;
        value           nonuniform 0();
    }
}


// ************************************************************************* //
