/*--------------------------------*- C++ -*----------------------------------*\
| =========                 |                                                 |
| \\      /  F ield         | OpenFOAM: The Open Source CFD Toolbox           |
|  \\    /   O peration     | Version:  2.3.0                                 |
|   \\  /    A nd           | Web:      www.OpenFOAM.org                      |
|    \\/     M anipulation  |                                                 |
\*---------------------------------------------------------------------------*/
FoamFile
{
    version     2.0;
    format      ascii;
    class       volVectorField;
    location    "0.042";
    object      U;
}
// * * * * * * * * * * * * * * * * * * * * * * * * * * * * * * * * * * * * * //

dimensions      [0 1 -1 0 0 0 0];

internalField   nonuniform List<vector> 
725
(
(0.0468329 0.00704599 -3.05493e-31)
(0.0519326 0.00197572 5.02056e-32)
(0.027142 0.00122925 4.23018e-32)
(0.046476 0.00803733 0)
(-0.109258 0.0160224 -3.0557e-32)
(0.0901622 0.0143533 -1.35083e-30)
(0.106982 0.00886623 1.69237e-31)
(0.0725384 0.00700237 2.48556e-31)
(0.100481 0.0444052 0)
(-0.122818 0.0477914 -1.06713e-30)
(0.102772 0.0100813 -2.88993e-31)
(0.123904 0.0133118 -3.69425e-32)
(0.0952852 0.013584 1.16618e-32)
(0.126311 0.0790837 0)
(-0.00339081 0.0753473 9.89922e-31)
(0.0910643 0.0034147 1.85037e-30)
(0.105979 0.0133573 -4.0534e-32)
(0.0901158 0.00983898 2.31985e-30)
(0.124363 0.0644279 0)
(0.31673 0.00651392 -8.43357e-30)
(0.0470251 0.0017596 1.94177e-30)
(0.0489561 0.00783753 -2.8981e-32)
(0.0380033 0.00355117 1.57126e-30)
(-0.0131128 0.00139847 -4.16923e-30)
(0.241603 -0.0317174 -1.11119e-29)
(-0.0746866 -0.00485926 0)
(-0.00466446 -0.00814553 0)
(0.119768 -0.0129129 0)
(0.122578 0.0137257 0)
(-0.0233863 0.00333051 0)
(-0.0143572 0.00679934 0)
(-0.0428918 -0.0025405 0)
(-0.0161895 -0.000628109 0)
(-0.00906926 -0.00189357 0)
(0.00931982 -0.00232981 0)
(0.0357949 -0.00233257 0)
(0.051961 0.00113222 0)
(0.032798 0.0492596 0)
(-0.422785 0.0866356 0)
(-0.648932 -0.0571017 0)
(-0.00133416 -0.0680592 0)
(-0.0526965 -0.0126184 0)
(-0.0539709 -0.00291439 0)
(-0.0594315 -0.000209053 0)
(-0.0220113 -0.00373595 0)
(0.00425599 -0.00147997 0)
(0.0128527 -0.000380917 0)
(0.0154232 6.02402e-05 0)
(0.0158673 6.99956e-05 0)
(0.0158894 5.76436e-05 0)
(0.0158018 3.6511e-05 0)
(0.0157702 1.55681e-05 0)
(0.0159182 -1.2539e-05 0)
(0.0162613 -2.39454e-05 0)
(0.0162309 6.59518e-05 0)
(0.0160996 7.76898e-05 0)
(0.0147397 0.000311317 0)
(0.0136887 0.000373163 0)
(0.0101667 0.000882691 0)
(0.00522464 0.000717136 0)
(0.0154261 0.00182194 0)
(-0.00943275 0.0013727 0)
(-0.0131973 -0.00104344 0)
(0.0116724 0.0925052 0)
(-0.579333 -0.0415725 0)
(-0.504175 -0.037939 0)
(0.0585608 -0.058814 0)
(0.571672 -0.0942473 0)
(0.762812 0.0395325 0)
(0.13763 0.0916354 0)
(0.0284794 -0.0642602 0)
(0.109947 -0.0770547 0)
(0.35991 -0.0883036 0)
(0.288376 0.104832 0)
(-0.101081 0.0457626 0)
(-0.0288883 0.0141318 0)
(-0.0605013 -0.0100128 0)
(-0.0217367 -0.00822092 0)
(-0.00306276 -0.0129254 0)
(0.0298646 -0.0172871 0)
(0.0778186 -0.0201808 0)
(0.131383 -0.00981972 0)
(0.119647 0.155619 0)
(-0.548503 0.388534 0)
(-1.11244 -0.243343 0)
(0.0904998 -0.190424 0)
(-0.0184434 0.0134383 0)
(-0.107197 0.0196133 0)
(-0.118617 -0.0104129 0)
(-0.0437449 -0.029407 0)
(0.00998389 -0.0143893 0)
(0.0302648 -0.00518173 0)
(0.0375968 -0.00134404 0)
(0.0400713 -0.000388657 0)
(0.0409387 -5.65168e-05 0)
(0.0412062 -5.3401e-06 0)
(0.0413943 -7.62913e-05 0)
(0.0418521 -0.000237121 0)
(0.0427087 -0.000244652 0)
(0.0429391 0.000121939 0)
(0.043252 0.000359771 0)
(0.0414921 0.00109272 0)
(0.0416275 0.00130727 0)
(0.0380515 0.00245735 0)
(0.0369552 -0.00107852 0)
(0.056209 0.00220741 0)
(0.0243741 0.0123575 0)
(-0.0494503 -0.00819411 0)
(0.0301339 0.294705 0)
(-0.510766 0.0540915 0)
(-0.707378 -0.200166 0)
(0.0799175 -0.320987 0)
(0.471762 -0.356582 0)
(0.799798 0.094304 0)
(0.118843 0.407283 0)
(0.2651 -0.134548 0)
(0.0672822 -0.134976 0)
(0.173256 -0.106648 0)
(0.219575 0.239327 0)
(-0.0968631 0.0933949 0)
(-0.00976573 0.00901557 0)
(-0.0458888 -0.0189697 0)
(-0.00532982 -0.0189773 0)
(0.0136064 -0.0273149 0)
(0.0465497 -0.0359654 0)
(0.0913904 -0.0463637 0)
(0.17156 -0.0423978 0)
(0.209091 0.275692 0)
(-0.271969 0.788321 0)
(-1.14481 -0.526034 0)
(0.257905 -0.49816 0)
(0.117991 0.0821737 0)
(-0.109247 0.0638394 0)
(-0.128848 -0.025138 0)
(-0.0420833 -0.0651493 0)
(0.0232791 -0.033209 0)
(0.0471984 -0.0125277 0)
(0.0561516 -0.00398759 0)
(0.0598471 -0.00141072 0)
(0.0612842 -0.000403505 0)
(0.0617757 -0.000165333 0)
(0.0619803 -0.000247448 0)
(0.0623322 -0.000586325 0)
(0.0631726 -0.000637536 0)
(0.0634036 -9.49562e-06 0)
(0.0640821 0.000381548 0)
(0.0626349 0.00138082 0)
(0.064431 0.00124116 0)
(0.0623622 0.00248302 0)
(0.0640834 -0.00411858 0)
(0.0815397 0.00182097 0)
(0.036209 0.0478711 0)
(-0.0858679 0.000179426 0)
(-0.00222505 0.396952 0)
(-0.233131 0.128365 0)
(-0.523822 -0.319939 0)
(0.0937309 -0.511717 0)
(0.175946 -0.395993 0)
(0.0268416 0.0680218 0)
(0.256616 0.538369 0)
(0.327389 -0.0736233 0)
(-0.53389 -0.0189744 0)
(-0.12964 -0.204681 0)
(0.268597 0.281025 0)
(-0.0631938 0.141442 0)
(0.0255335 0.0189304 0)
(-0.0104461 -0.0220131 0)
(0.0248771 -0.0284612 0)
(0.0353798 -0.0391526 0)
(0.056118 -0.0507442 0)
(0.0832983 -0.0665029 0)
(0.107554 -0.0729112 0)
(0.181187 0.376262 0)
(-0.386073 1.15681 0)
(-0.566351 -0.794957 0)
(0.0651234 -0.777247 0)
(0.151008 0.173475 0)
(-0.11774 0.129169 0)
(-0.105425 -0.0460415 0)
(-0.0241972 -0.104084 0)
(0.0424923 -0.0538838 0)
(0.0627221 -0.0194421 0)
(0.0698398 -0.00707393 0)
(0.0742661 -0.00287328 0)
(0.0765556 -0.000960631 0)
(0.0774392 -0.000333017 0)
(0.0775308 -0.000301062 0)
(0.0773078 -0.000771818 0)
(0.0774744 -0.000912618 0)
(0.077167 -0.000102372 0)
(0.0777822 0.000315844 0)
(0.0764581 0.00135419 0)
(0.0794077 0.000659112 0)
(0.0782069 0.00192924 0)
(0.0824022 -0.00581454 0)
(0.0954522 0.006312 0)
(0.0371526 0.0870139 0)
(0.00431016 0.0269507 0)
(0.0508627 0.346156 0)
(0.174736 0.276806 0)
(-0.159196 -0.404645 0)
(0.193108 -0.646868 0)
(0.518185 -0.451706 0)
(0.0530446 0.102238 0)
(0.235724 0.439659 0)
(-0.665347 0.386385 0)
(-0.685714 -0.0482275 0)
(-0.0189723 -0.48556 0)
(0.424314 0.280548 0)
(-0.09627 0.184898 0)
(0.08277 -0.0132493 0)
(0.0379643 -0.0313304 0)
(0.0613406 -0.0325191 0)
(0.059198 -0.0449706 0)
(0.0613683 -0.057081 0)
(0.0599803 -0.065145 0)
(-0.00507973 -0.0769181 0)
(-0.0100335 0.516628 0)
(-0.641274 1.30817 0)
(0.550501 -0.941826 0)
(0.118946 -0.779036 0)
(0.0113414 0.233139 0)
(-0.137141 0.171475 0)
(-0.0642633 -0.0705558 0)
(0.00841801 -0.138004 0)
(0.0657702 -0.0718034 0)
(0.0787453 -0.0239031 0)
(0.08245 -0.00938736 0)
(0.0846345 -0.0042628 0)
(0.0864595 -0.00178616 0)
(0.0877145 -0.000693594 0)
(0.0878934 -0.000203546 0)
(0.0868218 -0.000550581 0)
(0.085608 -0.000791729 0)
(0.0841136 9.12692e-05 0)
(0.0842383 0.000314878 0)
(0.082678 0.00119923 0)
(0.0864858 -0.00023937 0)
(0.0854378 0.000843928 0)
(0.0958552 -0.00622816 0)
(0.103231 0.0106089 0)
(0.0520805 0.0905469 0)
(0.096567 -0.0360694 0)
(0.0877617 0.243747 0)
(0.747 0.48715 0)
(0.287994 -0.471664 0)
(0.255497 -0.638762 0)
(-0.227329 -0.281371 0)
(-0.509974 0.221198 0)
(-0.115582 0.345345 0)
(-0.683603 0.560161 0)
(-0.433179 -0.498374 0)
(-0.465307 -0.525911 0)
(0.480809 0.269121 0)
(0.0296176 0.234206 0)
(0.171269 -0.0217097 0)
(0.0871491 -0.0271009 0)
(0.085326 -0.0298952 0)
(0.0733521 -0.0435334 0)
(0.0647441 -0.0532772 0)
(0.0380232 -0.0607467 0)
(0.070261 -0.0515858 0)
(-0.0796664 0.528581 0)
(0.50098 1.22249 0)
(1.08853 -1.11666 0)
(0.638678 -0.630304 0)
(-0.0751466 0.304711 0)
(-0.173808 0.166878 0)
(-0.0247121 -0.0938247 0)
(0.0349545 -0.153766 0)
(0.0801028 -0.0788114 0)
(0.0865355 -0.0252404 0)
(0.0892292 -0.00978534 0)
(0.0894651 -0.00449507 0)
(0.0903807 -0.0020761 0)
(0.0911615 -0.000836897 0)
(0.0910194 3.07759e-05 0)
(0.0892242 -1.48006e-05 0)
(0.0868067 -0.000203013 0)
(0.0842599 0.000475967 0)
(0.083963 0.000549506 0)
(0.0820845 0.000943678 0)
(0.0864481 -0.000789376 0)
(0.0855107 -0.00124431 0)
(0.103973 -0.0080008 0)
(0.0999343 0.0186734 0)
(0.0154626 0.112905 0)
(-0.219218 -0.0225208 0)
(-0.233525 0.0248514 0)
(1.14009 0.485204 0)
(0.503216 -0.407321 0)
(0.251683 -0.530218 0)
(-0.226075 -0.158967 0)
(-0.270345 0.0999658 0)
(0.163292 0.338993 0)
(-1.5396 0.82169 0)
(-3.09461 -0.417081 0)
(-0.987918 -0.614244 0)
(0.44333 0.224022 0)
(0.10737 0.250717 0)
(0.210536 -0.0219437 0)
(0.104863 -0.0230825 0)
(0.0935877 -0.0284404 0)
(0.078572 -0.0424566 0)
(0.0658819 -0.0510955 0)
(0.0297491 -0.0602813 0)
(0.0376504 -0.0443057 0)
(-0.147484 0.515938 0)
(-0.265785 1.11702 0)
(1.27352 -1.13838 0)
(0.920531 -0.56973 0)
(-0.0518005 0.354867 0)
(-0.178662 0.162642 0)
(-0.00906768 -0.10445 0)
(0.0450948 -0.158987 0)
(0.0850065 -0.0810307 0)
(0.088645 -0.025641 0)
(0.0910617 -0.00989184 0)
(0.0909767 -0.0045389 0)
(0.0916318 -0.00215056 0)
(0.092232 -0.000863869 0)
(0.091932 0.000137212 0)
(0.0898479 0.000219169 0)
(0.0869622 6.76656e-05 0)
(0.084021 0.000639848 0)
(0.0835776 0.000658875 0)
(0.081614 0.000829469 0)
(0.0861519 -0.000980914 0)
(0.0851984 -0.00215787 0)
(0.106632 -0.00886159 0)
(0.0991416 0.0229181 0)
(0.0196243 0.130434 0)
(-0.22901 -0.00527747 0)
(-0.395161 -0.0632007 0)
(0.731554 0.474319 0)
(0.611297 -0.407456 0)
(0.27657 -0.48477 0)
(-0.162837 -0.12611 0)
(-0.120201 0.0360842 0)
(0.2513 0.333339 0)
(-1.83153 1.05748 0)
(-5.85211 -0.37083 0)
(-1.19509 -0.94381 0)
(0.375344 0.15279 0)
(0.187604 0.262482 0)
(0.251459 -0.0191608 0)
(0.121828 -0.0172032 0)
(0.101366 -0.0264849 0)
(0.083848 -0.0409769 0)
(0.0668549 -0.0481724 0)
(0.0190845 -0.0567252 0)
(-0.0736752 -0.0291377 0)
(-0.300696 0.549078 0)
(-0.201661 1.05261 0)
(1.34181 -1.14351 0)
(1.08902 -0.513526 0)
(-0.0189291 0.420276 0)
(-0.178587 0.161372 0)
(0.00722379 -0.116166 0)
(0.05557 -0.16361 0)
(0.0897002 -0.0828417 0)
(0.0903361 -0.0258913 0)
(0.0922871 -0.00997866 0)
(0.0921114 -0.0045578 0)
(0.0926435 -0.00220504 0)
(0.0930655 -0.000872846 0)
(0.0925805 0.000264676 0)
(0.0902132 0.000494753 0)
(0.0869513 0.00038311 0)
(0.0838344 0.000817623 0)
(0.0834417 0.000776342 0)
(0.0815262 0.000700006 0)
(0.0861863 -0.00116692 0)
(0.0848911 -0.0031193 0)
(0.105287 -0.00974381 0)
(0.0996568 0.0259798 0)
(0.0808753 0.142122 0)
(0.0364997 0.0172862 0)
(-0.284788 -0.0969045 0)
(0.258038 0.423683 0)
(1.1381 -0.408493 0)
(0.381715 -0.435124 0)
(0.0409221 -0.103689 0)
(0.0547663 0.00753735 0)
(0.253402 0.33344 0)
(-1.90287 1.2844 0)
(-1.53463 -0.293366 0)
(-0.551907 -1.19998 0)
(0.316218 0.0927904 0)
(0.254838 0.268649 0)
(0.288663 -0.0137001 0)
(0.137308 -0.00975083 0)
(0.10856 -0.0240054 0)
(0.0890596 -0.0391762 0)
(0.067822 -0.0445481 0)
(0.0113192 -0.0480927 0)
(-0.140067 -0.00771372 0)
(-0.452676 0.555288 0)
(0.227665 0.912105 0)
(1.30153 -1.19034 0)
(1.006 -0.461669 0)
(-0.0322485 0.487042 0)
(-0.181737 0.159591 0)
(0.0249873 -0.128449 0)
(0.0662716 -0.167616 0)
(0.0941222 -0.0841897 0)
(0.0916097 -0.0259519 0)
(0.092711 -0.0100371 0)
(0.0925169 -0.00457678 0)
(0.0930332 -0.00224406 0)
(0.0931377 -0.000852717 0)
(0.0922653 0.000418531 0)
(0.0899071 0.000776982 0)
(0.0870392 0.000692252 0)
(0.084295 0.000981086 0)
(0.0841242 0.000886539 0)
(0.0821769 0.00057061 0)
(0.0866069 -0.00132415 0)
(0.0846186 -0.00401217 0)
(0.103443 -0.010485 0)
(0.0989911 0.0260252 0)
(0.146574 0.137492 0)
(0.322679 0.0308938 0)
(-0.104024 -0.0461707 0)
(-0.47116 0.303043 0)
(1.49102 -0.390046 0)
(0.45698 -0.387832 0)
(0.125223 -0.0761628 0)
(-0.0539714 0.0228822 0)
(0.114711 0.330402 0)
(-1.70231 1.50615 0)
(-0.602143 -0.270315 0)
(-0.264344 -1.32122 0)
(0.250025 0.0463068 0)
(0.304217 0.268674 0)
(0.318259 -0.00612827 0)
(0.150869 -0.000992699 0)
(0.115197 -0.0208586 0)
(0.0943023 -0.0370825 0)
(0.0690534 -0.0403433 0)
(0.00655479 -0.0370479 0)
(-0.143982 0.0154631 0)
(-0.510244 0.513004 0)
(0.610574 0.813923 0)
(1.33759 -1.2354 0)
(0.938854 -0.380755 0)
(-0.0291657 0.549071 0)
(-0.174007 0.156164 0)
(0.0450766 -0.141087 0)
(0.0773315 -0.171358 0)
(0.0982809 -0.0850993 0)
(0.0926053 -0.0258287 0)
(0.0925064 -0.0100291 0)
(0.0919233 -0.0045858 0)
(0.0921617 -0.0022623 0)
(0.0920525 -0.000805852 0)
(0.0911963 0.000575957 0)
(0.0892072 0.00101943 0)
(0.0868465 0.000952027 0)
(0.0845001 0.00111466 0)
(0.0845551 0.000982176 0)
(0.0825913 0.000462474 0)
(0.0867735 -0.00143783 0)
(0.0842073 -0.0047876 0)
(0.101156 -0.0111077 0)
(0.0961002 0.0241117 0)
(0.156481 0.12393 0)
(0.323423 0.0420479 0)
(-0.143616 0.0272346 0)
(-0.312529 0.135984 0)
(1.25184 -0.36583 0)
(0.256707 -0.342714 0)
(-0.00328171 -0.048942 0)
(-0.0925088 0.0241118 0)
(0.0375057 0.318453 0)
(0.043014 -0.00103927 0)
(0.0638691 -0.0125263 8.00397e-32)
(0.029201 -0.00711033 -1.50604e-31)
(0.157496 -0.0360755 -1.9276e-30)
(0.185423 0.0935262 0)
(0.0822659 -0.00312385 0)
(0.13018 -0.0225667 0)
(0.0613569 -0.0318742 0)
(0.304215 -0.159258 2.44298e-30)
(0.426011 -0.0651383 0)
(0.0917705 -0.0100231 0)
(0.147329 -0.0222157 0)
(0.0377387 -0.0456589 0)
(0.207383 -0.184578 5.08047e-30)
(-0.177913 -0.144578 0)
(0.0798074 -0.0141864 0)
(0.124224 -0.0121223 0)
(0.0058205 -0.021637 0)
(-0.00671715 -0.084043 -1.49782e-30)
(-0.560112 -0.0731277 0)
(0.0412555 -0.00729026 0)
(0.0632633 -0.00141783 0)
(-0.00297579 0.000997727 0)
(0.0401403 -0.00363326 -3.07244e-31)
(-0.278971 -0.0784884 0)
(-0.198471 1.6707 0)
(-0.896694 -0.593309 0)
(-0.0096733 -1.51023 0)
(-0.0529019 -0.0680142 0)
(0.389291 0.236679 0)
(0.370572 0.0255757 0)
(0.180106 0.0282184 0)
(0.13124 -0.00855931 0)
(0.107684 -0.0303051 0)
(0.0734073 -0.0271158 0)
(-0.00497664 -0.00713642 0)
(-0.109046 0.07615 0)
(-0.297641 0.348308 0)
(0.942897 0.726916 0)
(1.66436 -1.33255 0)
(0.785356 -0.087399 0)
(0.0186186 0.679384 0)
(-0.131212 0.164982 0)
(0.111122 -0.176047 0)
(0.109148 -0.179456 0)
(0.10825 -0.0848296 0)
(0.0947124 -0.0249678 0)
(0.0911072 -0.00970404 0)
(0.0893645 -0.00453254 0)
(0.0887309 -0.00224079 0)
(0.0881179 -0.000645931 0)
(0.0874601 0.000933173 0)
(0.0865172 0.00154068 0)
(0.0855036 0.00151997 0)
(0.0842069 0.00139867 0)
(0.084807 0.00118132 0)
(0.0828012 0.000261556 0)
(0.0862727 -0.00166417 0)
(0.0815379 -0.00646257 0)
(0.0932184 -0.012375 0)
(0.0830934 0.0184051 0)
(0.122116 0.0937209 0)
(0.140941 0.0911216 0)
(-0.218887 0.0239238 0)
(0.266682 0.0105336 0)
(0.283877 -0.311709 0)
(-0.142644 -0.227836 0)
(-0.221268 -0.0241233 0)
(-0.122291 0.0442133 0)
(-0.129574 0.272882 0)
(0.797494 0.859232 0)
(3.38741 0.455849 0)
(0.72936 -1.40646 0)
(-0.341611 -0.0941354 0)
(0.29004 0.128649 0)
(0.209048 0.0645869 0)
(0.148909 0.0669522 0)
(0.137153 0.00990484 0)
(0.11919 -0.0166465 0)
(0.0862468 -0.00287617 0)
(0.0269377 0.0337273 0)
(-0.0105437 0.0892689 0)
(-0.0198078 0.070251 0)
(0.487468 0.201144 0)
(1.95636 -1.36546 0)
(0.754593 0.154256 0)
(-0.135603 0.823363 0)
(0.00143561 0.0678452 0)
(0.254898 -0.226472 0)
(0.164108 -0.177107 0)
(0.116777 -0.0707592 0)
(0.0924403 -0.019308 0)
(0.0839627 -0.00728436 0)
(0.0800834 -0.00354535 0)
(0.0779497 -0.00164616 0)
(0.07678 -0.000262623 0)
(0.0765557 0.00104176 0)
(0.0768101 0.00157815 0)
(0.0772755 0.0015992 0)
(0.0772094 0.00140799 0)
(0.0785044 0.00119604 0)
(0.0765662 0.000456133 0)
(0.0792653 -0.00129405 0)
(0.0715447 -0.00608964 0)
(0.0759922 -0.0111572 0)
(0.0560028 0.0179254 0)
(0.0830233 0.0896666 0)
(0.0367137 0.175969 0)
(-0.00880569 -0.0443147 0)
(0.0669416 -0.000802744 0)
(0.113253 -0.228103 0)
(-0.260487 -0.18379 0)
(-0.229228 -0.0906979 0)
(-0.172382 0.0990196 0)
(-0.278844 0.152198 0)
(0.721784 0.562538 0)
(1.81715 0.270222 0)
(0.56488 -0.557497 0)
(-0.297041 0.0233782 0)
(0.0624434 0.0360603 0)
(0.0303073 0.0632989 0)
(0.108029 0.0616864 0)
(0.125845 0.0109021 0)
(0.117168 -0.00662347 0)
(0.0950062 0.0110012 0)
(0.0791368 0.046602 0)
(0.0944161 0.105534 0)
(-0.0574294 0.0810542 0)
(0.240122 -0.369211 0)
(0.596398 -1.0665 0)
(-0.860944 0.973537 0)
(-0.144276 0.793306 0)
(0.491384 0.000156268 0)
(0.453859 -0.211882 0)
(0.195994 -0.130123 0)
(0.106629 -0.042361 0)
(0.0788221 -0.0106274 0)
(0.0683986 -0.00396854 0)
(0.0639027 -0.0018996 0)
(0.0616466 -0.000802258 0)
(0.0606837 2.75714e-05 0)
(0.0609275 0.000848321 0)
(0.0618796 0.00119073 0)
(0.0631491 0.00122447 0)
(0.063827 0.00108682 0)
(0.0655863 0.00105354 0)
(0.0641098 0.00064774 0)
(0.0667314 -0.000301984 0)
(0.058158 -0.00389342 0)
(0.0580053 -0.00724698 0)
(0.036779 0.0166386 0)
(0.0804844 0.0856085 0)
(0.100184 0.175897 0)
(0.209901 0.0022123 0)
(-0.118434 0.0116709 0)
(0.147015 -0.172281 0)
(-0.075555 -0.137369 0)
(-0.0984835 -0.153905 0)
(0.0298519 0.180399 0)
(0.0463747 0.102188 0)
(0.0413112 0.281472 0)
(0.555868 0.130921 0)
(-0.00706545 -0.270094 0)
(-0.206141 0.058516 0)
(-0.0410568 -0.00124981 0)
(-0.041648 0.0338306 0)
(0.076272 0.0317705 0)
(0.0974216 0.00528232 0)
(0.0955089 -0.00104326 0)
(0.0885059 0.0116078 0)
(0.113303 0.034776 0)
(0.22705 0.0908543 0)
(0.28319 0.0674225 0)
(0.854278 -0.362881 0)
(-0.865083 -0.633189 0)
(-1.10593 0.753504 0)
(0.203536 0.192037 0)
(0.724597 -0.0880115 0)
(0.439265 -0.114405 0)
(0.140313 -0.0409713 0)
(0.0717401 -0.00970496 0)
(0.0524056 -0.00261372 0)
(0.0447592 -0.000965059 0)
(0.0418288 -0.00043801 0)
(0.0404308 -0.000147677 0)
(0.039964 0.000130811 0)
(0.0404789 0.000480129 0)
(0.0416145 0.000611111 0)
(0.0430446 0.000637907 0)
(0.0440029 0.00058341 0)
(0.0458684 0.000711372 0)
(0.0453353 0.000628 0)
(0.0482976 0.000564452 0)
(0.0420384 -0.00108966 0)
(0.0409878 -0.00250207 0)
(0.0226737 0.00996722 0)
(0.080054 0.0568401 0)
(0.198814 0.122562 0)
(0.329254 0.0396326 0)
(0.126295 -0.0924542 0)
(0.202251 -0.144195 0)
(0.045462 -0.0941251 0)
(-0.088105 -0.139171 0)
(-0.0626318 0.156555 0)
(0.0689183 0.0636894 0)
(-0.269771 -0.0339791 0)
(0.148939 0.0369081 0)
(-0.0169063 -0.00899843 0)
(-0.0853386 0.0219718 0)
(-0.0170966 0.000254752 0)
(-0.0382408 0.00483564 0)
(0.0370844 0.00448358 0)
(0.0448199 0.000508257 0)
(0.0454847 0.000134823 0)
(0.0482567 0.00322318 0)
(0.0743643 0.00767732 0)
(0.147067 0.0278137 0)
(0.238336 -0.042138 0)
(0.336885 -0.00933566 0)
(-1.0412 0.0762355 0)
(-0.114034 0.36945 0)
(0.467161 -0.172737 0)
(0.232416 -0.0406607 0)
(0.0976567 -0.00798229 0)
(0.0245153 0.00663599 0)
(0.0193713 0.00197857 0)
(0.0160568 0.000456455 0)
(0.0150447 0.000219364 0)
(0.0147705 0.000102649 0)
(0.0146384 5.8867e-05 0)
(0.0147098 5.28777e-05 0)
(0.0151551 9.51784e-05 0)
(0.0158624 9.59722e-05 0)
(0.0166853 0.000106876 0)
(0.0172985 8.12248e-05 0)
(0.0184141 0.00017508 0)
(0.0186947 0.000133021 0)
(0.0208623 0.000337923 0)
(0.0193795 6.10897e-05 0)
(0.019956 0.000113859 0)
(0.0127998 0.00166083 0)
(0.0509289 0.0120087 0)
(0.191927 0.0385382 0)
(0.313845 0.0666777 0)
(0.459498 0.0775777 0)
(0.273938 -0.0278977 0)
(0.055969 -0.0163745 0)
(-0.166447 -0.0500676 0)
(-0.123208 0.0554314 0)
(0.111161 0.00915136 0)
)
;

boundaryField
{
    AirInlet
    {
        type            fixedValue;
        value           uniform (0.1 0 0);
    }
    WaterInlet
    {
        type            fixedValue;
        value           uniform (0.1 0 0);
    }
    ChannelWall
    {
        type            fixedValue;
        value           uniform (0 0 0);
    }
    Outlet
    {
        type            pressureInletOutletVelocity;
        value           nonuniform List<vector> 
15
(
(0.13763 0.0916354 0)
(-0.0380977 0 0)
(0.256616 0.538369 0)
(0.235724 0.439659 0)
(-0.157467 0 0)
(0.163292 0.338993 0)
(0.2513 0.333339 0)
(0.253402 0.33344 0)
(0.114711 0.330402 0)
(0.0375057 0.318453 0)
(-0.0271993 0 0)
(-0.131747 0 0)
(0.0463747 0.102188 0)
(0.0689183 0.0636894 0)
(0.111161 0.00915136 0)
)
;
    }
    FrontAndBack
    {
        type            empty;
    }
}


// ************************************************************************* //
