/*--------------------------------*- C++ -*----------------------------------*\
| =========                 |                                                 |
| \\      /  F ield         | OpenFOAM: The Open Source CFD Toolbox           |
|  \\    /   O peration     | Version:  2.3.0                                 |
|   \\  /    A nd           | Web:      www.OpenFOAM.org                      |
|    \\/     M anipulation  |                                                 |
\*---------------------------------------------------------------------------*/
FoamFile
{
    version     2.0;
    format      ascii;
    class       volScalarField;
    location    "3.2e-05";
    object      alpha.fuel;
}
// * * * * * * * * * * * * * * * * * * * * * * * * * * * * * * * * * * * * * //

dimensions      [0 0 0 0 0 0 0];

internalField   nonuniform List<scalar> 
7500
(
1
1
1
1
1
1
1
1
1
1
1
1
1
1
1
1
1
1
1
1
1
1
1
1
1
1
1
1
1
1
1
1
1
1
1
1
1
1
1
1
1
1
1
1
1
1
1
1
1
1
1
1
1
1
1
1
1
1
1
1
1
1
1
1
1
1
1
1
1
1
1
1
1
1
1
1
1
1
1
1
1
1
1
1
1
1
1
1
1
1
1
1
1
1
1
1
1
1
1
1
1
1
1
1
1
1
1
1
1
1
1
1
1
1
1
1
1
1
1
1
1
1
1
1
1
1
1
1
1
1
1
1
1
1
1
1
1
1
1
1
1
1
1
1
1
1
1
1
1
1
1
1
1
1
1
1
1
1
1
1
1
1
1
1
1
1
1
1
1
1
1
1
1
1
1
1
1
1
1
1
1
1
1
1
1
1
1
1
1
1
1
1
1
1
1
1
1
1
1
1
1
1
1
1
1
1
1
1
1
1
1
1
1
1
1
1
1
1
1
1
1
1
1
1
1
1
1
1
1
1
1
1
1
1
1
1
1
1
1
1
1
1
1
1
1
1
1
1
1
1
1
1
1
1
1
1
1
1
1
1
1
1
1
1
1
1
1
1
1
1
1
1
1
1
1
1
1
1
1
1
1
1
1
1
1
1
1
1
1
1
1
1
1
1
1
1
1
1
1
1
1
1
1
1
1
1
1
1
1
1
1
1
1
1
1
1
1
1
1
1
1
1
1
1
1
1
1
1
1
1
1
1
1
1
1
1
1
1
1
1
1
1
1
1
1
1
1
1
1
1
1
1
1
1
1
1
1
1
1
1
1
1
1
1
1
1
1
1
1
1
1
1
1
1
1
1
1
1
1
1
1
1
1
1
1
1
1
1
1
1
1
1
1
1
1
1
1
1
1
1
1
1
1
1
1
1
1
1
1
1
1
1
1
1
1
1
1
1
1
1
1
1
1
1
1
1
1
1
1
1
1
1
1
1
1
1
1
1
1
1
1
1
1
1
1
1
1
1
1
1
1
1
1
1
1
1
1
1
1
1
1
1
1
1
1
1
1
1
1
1
1
1
1
1
1
1
1
1
1
1
1
1
1
1
1
1
1
1
1
1
1
1
1
1
1
1
1
1
1
1
1
1
1
1
1
1
1
1
1
1
1
1
1
1
1
1
1
1
1
1
1
1
1
1
1
1
1
1
1
1
1
1
1
1
1
1
1
1
1
1
1
1
1
1
1
1
1
1
1
1
1
1
1
1
1
1
1
1
1
1
1
1
1
1
1
1
1
1
1
1
1
1
1
1
1
1
1
1
1
1
1
1
1
1
1
1
1
1
1
1
1
1
1
1
1
1
1
1
1
1
1
1
1
1
1
1
1
1
1
1
1
1
1
1
1
1
1
1
1
1
1
1
1
1
1
1
1
1
1
1
1
1
1
1
1
1
1
1
1
1
1
1
1
1
1
1
1
1
1
1
1
1
1
1
1
1
1
1
1
1
1
1
1
1
1
1
1
1
1
1
1
1
1
1
1
1
1
1
1
1
1
1
1
1
1
1
1
1
1
1
1
1
1
1
1
1
1
1
1
1
1
1
1
1
1
1
1
1
1
1
1
1
1
1
1
1
1
1
1
1
1
1
1
1
1
1
1
1
1
1
1
1
1
1
1
1
1
1
1
1
1
1
1
0.9994585
0.99671682
0.99253242
0.98629687
0.97763827
0.96714232
0.94612394
1
1
1
1
1
1
1
1
1
1
1
1
1
1
1
1
1
1
1
1
1
1
1
1
1
1
1
1
1
1
1
1
1
1
1
1
1
1
1
1
1
1
1
1
1
1
1
1
1
1
1
1
0.99939786
0.99406883
0.98418889
0.96858045
0.94736552
0.921996
0.8877491
0.83293062
0.77225961
0.71144718
0.6507417
0.59115073
0.53494062
0.47747571
0.42400201
0.37544319
0.32544817
0.28211543
0.24085193
0.20226486
0.16529014
0.13426632
0.084489332
1
1
1
1
1
1
1
1
1
1
1
1
1
1
1
1
1
1
1
1
1
1
1
1
1
1
1
1
1
1
1
1
1
1
1
1
1
1
1
1
1
1
0.99231925
0.97486688
0.94758349
0.90982886
0.83687929
0.74882618
0.66278332
0.57367853
0.49054946
0.40911285
0.32808566
0.25660092
0.19234055
0.1356097
0.087512357
0.04241913
6.5813975e-10
3.640502e-10
3.6405017e-10
3.6405017e-10
3.6405032e-10
3.6405017e-10
3.6405017e-10
3.6405041e-10
3.640503e-10
3.6405032e-10
3.6405028e-10
3.6405028e-10
3.6405068e-10
3.6405041e-10
3.6405041e-10
3.6405041e-10
3.6405041e-10
1
1
1
1
1
1
1
1
1
1
1
1
1
1
1
1
1
1
1
1
1
1
1
1
1
1
1
1
1
1
1
1
1
1
0.9884203
0.96123794
0.913616
0.81326347
0.69732512
0.58187628
0.46549736
0.35345937
0.25008375
0.1579879
0.092063464
0.0025595164
7.2135555e-10
6.9839483e-10
6.9839483e-10
6.983948e-10
6.9839374e-10
6.9839374e-10
6.9839374e-10
6.9839374e-10
6.9839374e-10
6.9839374e-10
6.9841207e-10
6.9857363e-10
3.7092335e-08
3.3947093e-08
5.6882132e-10
5.4261848e-10
1.5663999e-07
5.6143308e-10
5.5269097e-10
2.0411893e-07
7.1771208e-10
4.2861949e-08
6.4766733e-10
5.2159949e-10
2.6522495e-07
6.2968728e-10
5.2419038e-10
5.6129093e-10
5.4799769e-10
1
1
1
1
1
1
1
1
1
1
1
1
1
1
1
1
1
1
1
1
1
1
1
1
1
1
1
1
0.98137189
0.92804703
0.81506182
0.67182196
0.52196827
0.37228604
0.23243041
0.12729837
0.0013721095
2.6532406e-09
2.6427189e-09
2.6427189e-09
2.6427189e-09
2.6427189e-09
2.6427189e-09
2.6427189e-09
2.6427196e-09
2.6427243e-09
2.8722095e-09
1.8780498e-09
2.6576286e-08
9.3721952e-07
1.0175472e-09
9.6800257e-10
9.393465e-10
9.332715e-10
8.9969157e-10
6.9839964e-10
5.5802941e-06
1.604459e-05
8.7906295e-06
3.4243908e-08
0.0064321533
0.0010174929
7.0819546e-06
0.00011045227
0.00014138649
5.180089e-05
6.1045668e-05
0.00023525863
0.00019742701
2.6898939e-06
4.3103122e-07
3.8431127e-05
0.00040648754
0.0014822018
0.0010125052
1
1
1
1
1
1
1
1
1
1
1
1
1
1
1
1
1
1
1
1
1
1
1
0.97696356
0.90071824
0.73868086
0.55432452
0.36109471
0.19979472
0.025383505
3.0670857e-09
2.9154726e-09
2.9154462e-09
2.9154681e-09
2.9154293e-09
2.9150396e-09
2.9148591e-09
2.9116447e-09
2.9164655e-09
2.9143752e-09
2.9136693e-09
2.9669184e-09
2.9258763e-09
2.8774077e-09
2.4028792e-07
4.0686889e-08
8.2125882e-09
1.8461674e-09
1.6240122e-09
6.6014056e-05
0.00018489342
0.0012234977
0.00090535466
0.00089492296
0.00032971623
0.00035797308
0.00011816546
2.285272e-09
1.9660879e-09
0.043408445
0.056570334
0.028183804
5.3638842e-08
0.00078966009
0.00061620947
1.1488629e-07
0.00035664176
0.00023548778
0.0008818949
0.00044598528
3.4934204e-08
8.357129e-05
0.0029144333
0.0029166999
0.0023787517
1
1
1
1
1
1
1
1
1
1
1
1
1
1
1
1
1
1
1
0.96486635
0.84762705
0.64257241
0.40928718
0.19570002
4.2611558e-09
3.6359867e-09
3.6359947e-09
3.6359929e-09
3.6353147e-09
3.6344985e-09
3.6290544e-09
4.0630801e-09
3.5726193e-06
4.0764498e-05
0.00017074185
6.1809481e-05
7.1600004e-06
5.7437517e-05
0.00077965805
0.00091986628
0.0017011506
0.0039076884
0.0027529261
0.00068310202
2.6393081e-05
1.7315073e-09
1.7314843e-09
1.1417052e-05
1.9622464e-06
2.3402058e-09
0.00090474836
0.0022594751
0.0022486934
0.0022739483
0.0020757143
4.3285357e-09
2.1477122e-09
1.9660152e-09
1.966014e-09
0.055399531
0.045549997
0.012419599
0.00084351685
1.4793099e-09
1.417513e-09
1.5861952e-09
1.7933182e-09
0.0032076662
0.0032325042
0.0029689507
1.4565106e-09
1.198719e-09
1.1917764e-09
1.1917698e-09
1.1946427e-09
1
1
1
1
1
1
1
1
1
1
1
1
1
1
1
1
0.92176106
0.7207334
0.4568415
0.16096188
5.1351013e-09
4.622042e-09
4.6230826e-09
4.6245958e-09
5.6652898e-08
4.2300189e-09
8.70262e-06
0.00034188498
0.00027943842
0.00018841332
8.9739421e-05
4.2634653e-09
0.00073594564
0.001455924
0.0014565921
0.00091972724
6.1057698e-06
0.0021905839
0.0042641236
0.004340922
0.0068674594
0.0068674595
0.0068674597
0.0061986617
1.8917095e-09
1.5273788e-09
7.7923884e-06
6.059352e-05
4.4622666e-06
2.5788693e-09
2.8565261e-09
3.0073692e-09
3.0185284e-09
0.00042313669
0.00034151708
0.00011169023
0.0016458695
0.00053576643
1.969721e-09
0.0051258905
3.9153755e-08
3.9089257e-08
3.7569385e-05
1.5809838e-09
1.417513e-09
0.0033314349
0.0062730811
0.00086774279
0.00099909738
1.6325733e-09
1.6160629e-09
4.2899116e-07
6.9877479e-08
1.0124309e-08
2.2803099e-05
1
1
1
1
1
1
1
1
1
1
1
1
1
0.93084143
0.71708307
0.40706557
0.048061185
5.2623556e-09
5.2623419e-09
5.2623419e-09
5.602766e-09
0.00021239888
0.00061967579
0.00047351002
0.00016528337
0.00029553997
0.0033418263
0.0041515113
0.0028564356
5.0298254e-06
0.00065872436
0.0002292519
3.9885318e-09
3.9372887e-09
0.00081742063
0.0011470819
4.976848e-05
2.8138665e-05
2.8060525e-05
0.0040384403
0.00020914359
0.00062763737
0.00686746
0.0013597779
1.5278596e-09
1.5273919e-09
1.9431802e-05
1.0950017e-09
1.2615557e-09
0.0060724427
0.0073087139
0.0012304576
6.3855386e-05
5.5495144e-08
5.5399576e-08
5.5488005e-08
0.011446876
0.00034646713
0.036702874
0.014622039
0.00086791488
3.8917745e-08
3.8748982e-08
0.0012106095
1.4329632e-09
0.0086050622
0.0086189347
2.9945655e-08
2.2724767e-09
2.283251e-07
4.0904211e-06
5.3607261e-06
5.0529033e-07
8.300102e-10
0.00056560569
1
1
1
1
1
1
1
1
1
1
1
0.86968037
0.54736412
0.10434217
4.9301741e-09
4.5650779e-09
4.5650821e-09
5.055154e-09
6.1403337e-09
6.0302222e-09
0.0011919235
0.0046173593
0.0046152227
0.0015071388
1.2799274e-05
0.0046988688
4.2718767e-09
4.2558385e-09
4.2517871e-09
4.2507776e-09
4.250209e-09
4.2502218e-09
4.2515333e-09
4.1857763e-09
3.9561865e-09
3.1609222e-05
2.4646183e-05
4.4444316e-05
2.7982649e-05
1.7531051e-07
1.7545574e-07
1.7572962e-07
0.0019261359
0.00073217555
1.9389265e-07
1.8239732e-09
3.9211092e-06
1.2805732e-09
0.0012790006
0.011534764
0.011534764
0.0062801237
0.0043632773
0.0015313365
0.011849301
0.0081390871
6.483988e-08
0.016295016
0.050312628
0.0087476346
1.2155535e-08
2.392076e-05
0.00013147567
0.0033417357
0.003346967
1.4801804e-07
0.0081947498
0.0081886061
2.1356508e-09
6.2381354e-07
7.1124362e-06
1.8949216e-06
1.0042183e-09
8.2974437e-10
0.00036913439
1
1
1
1
1
1
1
1
1
0.84766067
0.45654512
0.0050943027
4.854112e-09
4.8273099e-09
5.3201246e-09
5.305996e-09
3.50629e-07
0.00034256758
6.3523547e-09
0.0030857893
0.0040793721
0.00086909753
6.9337455e-09
6.9110547e-09
0.0043130528
4.7466133e-09
5.4128338e-09
5.4115684e-09
5.6514598e-09
5.3502564e-09
5.1436208e-09
5.8890845e-09
7.5094457e-05
1.5489734e-06
1.2818526e-06
5.4723766e-09
0.0031155435
0.00010675323
3.1653769e-09
6.0605216e-05
0.0004888485
0.0036990851
7.7030011e-05
2.0620534e-07
2.0000198e-07
0.0021942234
6.4796071e-08
0.00081087328
0.0054155155
0.0016290278
0.00057465544
0.010948637
0.00022594193
1.0502882e-07
0.0084768459
0.00047066268
6.4744387e-08
0.056484051
0.050385573
0.0054871715
1.199318e-08
1.1944824e-08
0.0010073368
1.2819107e-07
0.00089366167
1.4812654e-07
0.00093496722
0.00031611457
2.4218846e-07
5.4835736e-08
1.1975099e-05
2.7011863e-07
1.1073073e-08
1.6959619e-08
3.7992665e-10
1
1
1
1
1
1
1
0.89318744
0.51004442
0.0081479173
5.5409102e-09
5.4960562e-09
5.4840799e-09
7.8648975e-08
1.5790773e-06
0.00024150601
2.4471015e-05
0.0015360676
6.3813436e-09
6.4072533e-09
6.4183957e-09
6.4449364e-09
6.9213576e-09
6.9110547e-09
0.0049429936
4.587027e-09
5.3231457e-09
5.6066567e-09
5.5663076e-09
5.2216098e-09
4.939606e-09
1.9560183e-08
0.0011618003
0.00082290952
0.00014870738
5.4196863e-09
0.00068498629
3.4288555e-09
3.030695e-09
2.7897068e-09
0.0041387086
0.0041392149
0.00065997106
2.127587e-07
0.00097813368
0.0041955191
0.00099357988
0.0033706268
2.6298027e-09
2.5888444e-09
2.588853e-09
0.001930023
4.997873e-07
0.006332726
3.8485444e-06
6.4953334e-08
6.4740904e-08
0.022462945
0.013116004
0.017346176
0.018023756
0.017903021
0.00062616365
2.5238937e-06
1.3225144e-07
0.0068141593
3.3935826e-05
3.223813e-08
3.2293177e-08
0.0027188311
7.812481e-05
1.1629871e-08
1.1352653e-08
1.1623377e-08
1.8571974e-08
1
1
1
1
1
1
0.73679934
0.10623096
1.0050433e-08
9.6509699e-09
1.7745061e-07
8.9791874e-05
0.00053327576
3.9964339e-05
0.00029562246
0.00032561347
6.4151978e-05
1.6314189e-08
1.0063916e-05
3.7156517e-05
1.2695758e-05
1.7715645e-05
7.1123025e-09
0.0048760325
0.0049426905
4.5870267e-09
5.7098191e-09
2.2450213e-06
0.0014178569
0.00011695166
1.0868031e-05
0.00094804977
0.0011147063
0.00025760498
8.9869366e-05
0.0055053948
0.00054078367
0.011941964
0.0041258825
2.7925475e-09
2.4244144e-09
2.472509e-09
0.0021414376
2.1898133e-07
0.0030235246
0.00055250515
0.0041954842
1.0846759e-05
9.2160349e-07
2.7721267e-08
2.6643909e-08
1.8917408e-08
1.8911272e-08
0.0027620393
0.0061416114
0.0019608741
6.5098678e-08
6.5282374e-08
0.021123522
3.1305127e-08
0.0089301438
0.0024560134
0.00015590457
0.0027902005
0.005055547
0.012805581
0.012805581
8.4810851e-05
0.0038829467
0.0054851034
3.1387057e-05
0.00071340738
0.00088387342
8.9055013e-06
4.4924357e-07
1
1
1
1
0.96951129
0.47643019
1.1238763e-08
1.0099261e-08
1.2077108e-08
2.3167915e-07
1.7116892e-08
0.0016939656
0.0017827383
1.6105163e-05
1.8737869e-09
1.8726427e-09
0.00064773708
4.2435567e-06
3.975553e-05
0.00015445494
0.00015472898
0.00015491399
1.7067837e-05
0.0049773956
0.0047270785
0.0020645539
6.2190792e-09
0.002790363
0.0034343789
0.0010825735
3.0102837e-06
0.0013930223
3.4500477e-09
3.2086866e-09
3.0315447e-09
0.0078196688
0.00055403814
0.012844236
0.012844236
0.0011371452
2.5139931e-09
2.5827824e-09
1.6743188e-09
0.0012036481
1.8316573e-09
1.7600929e-09
0.004194792
0.00060223307
1.8234377e-08
1.807834e-08
1.8439141e-08
6.4213978e-08
0.0016851417
1.2490457e-07
0.0052435775
0.0032022115
6.5292749e-08
0.0067762625
0.018188735
0.0017245461
3.2067882e-09
3.0691483e-09
2.9635158e-09
0.0025664379
0.012805528
0.0059247244
0.0049848407
0.00045118632
0.0054851102
0.0038979321
0.0030356398
0.0047579904
0.0047579904
0.0010345324
1.2648954e-07
1
1
1
0.95642488
0.26657138
2.9596092e-08
2.8792752e-08
1.918698e-07
2.0361876e-08
3.2607934e-06
1.7775325e-08
1.7774442e-08
0.0017827149
1.2840004e-05
2.7219137e-07
1.8729399e-09
0.0008395348
4.623598e-09
4.6117845e-09
4.5569747e-09
4.557422e-09
4.6812194e-09
4.6812169e-09
0.0010277646
0.00052900886
0.00039190574
0.00063601403
0.0013675393
0.0017791457
0.0035567369
0.00017733726
0.00087826599
0.0016077741
9.2862732e-05
3.0403823e-09
0.0078195798
0.00032666658
0.0051198471
0.0047227892
0.0017424059
2.2971666e-09
2.0149748e-09
1.5984879e-09
1.5736941e-09
4.6856342e-09
1.7625565e-09
0.00045607494
3.9086626e-05
3.1904254e-07
1.826691e-08
1.7967849e-06
3.0255559e-09
0.0057412653
0.00026533924
1.5866357e-05
0.0051619118
0.0031964575
0.0039558272
0.0030516865
0.00028166231
3.0765729e-09
3.0446019e-09
6.0769496e-07
1.5118385e-09
0.0074707303
6.4206394e-10
7.5538818e-10
9.0699857e-05
0.0014152197
1.4810529e-10
0.0041965052
0.0037965872
0.0040007516
0.0025938634
1.2646134e-07
1
1
0.98719138
0.24940205
3.128297e-08
3.0287804e-08
2.9541932e-08
3.1552027e-06
2.074259e-06
5.3939699e-09
2.9322216e-05
2.0178843e-07
0.00042168222
0.00055244313
2.5340294e-09
1.8729605e-09
0.00083955848
0.00032739096
0.00077050315
4.5570217e-09
8.3814618e-08
3.5220406e-05
5.1555707e-09
5.5089386e-09
5.6001253e-09
5.9215649e-09
5.9396429e-09
6.034759e-09
6.2671498e-09
0.003025113
0.0011529741
0.0027001898
0.0027001897
0.00014060507
3.0812016e-09
0.0024093795
0.0043421471
4.4369995e-08
4.4218512e-08
8.0436812e-05
2.9908776e-07
2.0207565e-09
1.797661e-09
3.5870141e-09
1.7819294e-08
1.0740065e-07
2.1643055e-09
2.0108726e-09
0.00014099405
0.00055217149
3.202449e-09
3.0252248e-09
0.0032398876
0.0046998908
1.5354553e-05
0.0028003899
0.0054324988
0.00032657164
1.0056779e-07
0.0044315734
0.0032172511
0.00013164288
1.5364289e-09
1.4386015e-09
1.2985321e-09
2.9858784e-08
7.9664867e-10
2.2218314e-10
1.1888475e-10
3.7991235e-10
1.1888015e-10
1.1888014e-10
1.1888014e-10
3.007845e-05
9.1554017e-05
1
1
0.31592753
3.2815341e-08
3.1508437e-08
3.1471908e-08
2.7326974e-06
5.6719647e-09
5.2845775e-09
5.2814798e-09
0.00026364249
9.3410502e-06
0.00035122188
2.720979e-05
0.00076650274
2.3109645e-09
0.00034615405
0.0011081712
5.5679379e-05
4.9235666e-09
5.3070592e-09
0.00018562521
0.0019396578
5.5107319e-09
8.5580225e-05
1.5635516e-05
1.3148192e-05
0.00026745181
0.00067139815
3.3914484e-05
1.0792497e-05
0.00098016255
0.0014365688
3.106775e-09
3.3011328e-09
1.6547953e-07
0.0083141109
0.00079822395
4.4550271e-08
1.1499822e-05
5.528851e-07
1.4962441e-06
1.8517015e-05
3.7840149e-09
7.5330953e-08
6.0680777e-09
5.8915791e-09
2.0108863e-09
0.00010622048
0.0010054187
0.0079956411
0.00030244456
3.4616478e-09
0.0080020932
0.0030640878
0.00079150885
0.0016192585
0.00011133516
1.0045189e-07
0.019478282
0.0061888046
1.6655309e-09
1.534907e-09
0.00060096422
1.6474356e-05
5.9293648e-10
7.2743059e-10
4.1998508e-10
3.0606468e-10
1.3370431e-09
3.6297667e-10
1.5436725e-10
1.7054329e-10
1.18969e-10
1.1894786e-10
1
0.64584727
0.024696151
0.00028041803
3.2553381e-08
0.00015654433
2.1245441e-05
5.6744822e-09
9.1736796e-09
5.2814799e-09
0.00026381374
4.0698743e-06
0.00076869037
5.3350782e-07
0.0013011872
1.5161049e-06
8.2146104e-09
0.00048004093
3.4162098e-07
1.1027172e-05
5.690493e-09
2.6479693e-05
0.0031535015
0.0031513155
0.0030258594
0.0030245603
0.00037477248
0.0013658472
0.0013667507
0.00026080918
2.7203162e-09
2.7015967e-09
2.5036056e-09
2.7460002e-09
2.951777e-06
2.6086999e-09
0.0011668939
2.2612365e-05
0.0097883556
4.2582828e-09
4.2538392e-09
3.2957149e-06
5.0088061e-05
7.697206e-06
6.2386206e-07
0.00043696909
2.0849428e-09
2.0616798e-09
2.2669974e-09
2.271561e-09
0.015782248
0.0060848753
3.6575763e-09
0.0028275505
0.0055489474
0.00080112618
4.6120555e-07
4.6119828e-07
0.038990351
0.031078522
5.404389e-05
1.6694707e-09
0.0040429378
0.00094230621
6.1090669e-10
5.0474143e-10
4.2047145e-10
4.2024061e-10
4.405983e-10
2.8565786e-09
3.9948462e-10
1.4995877e-10
2.2351343e-10
4.1615257e-09
4.5120972e-10
0.96991443
0.080735314
5.6543754e-08
5.4910499e-08
6.658602e-05
0.0002431826
2.0636844e-08
2.0603376e-08
6.3299905e-09
5.2814576e-09
0.00010169098
2.2192429e-07
0.00065155633
0.0011255248
0.0013011878
7.2367436e-09
7.2425391e-09
7.5592632e-09
0.0014719005
0.0005360019
5.9189978e-09
6.5864396e-09
6.8191432e-09
0.002357657
4.6279018e-09
4.6240318e-09
4.6240211e-09
4.6240096e-09
4.6240096e-09
0.00012774226
0.00059048683
0.0016661988
2.4682166e-05
0.0010418411
2.2614789e-05
0.00021214422
3.6703195e-05
2.2531509e-05
0.010826041
0.00078530601
4.5571748e-09
2.683821e-07
2.2297458e-05
1.9233972e-05
6.5215937e-07
0.0020721327
0.00085332833
2.31781e-09
0.0029628479
6.516336e-05
0.0016872373
0.01249866
0.011834157
4.0820036e-05
8.2801275e-05
5.5815203e-07
0.038325371
0.033949738
0.070048325
0.013313142
1.772144e-09
1.6680929e-09
0.001296609
1.9464843e-06
7.2856985e-10
1.0365815e-05
0.00034871623
3.46148e-06
4.4106558e-10
2.9190993e-09
2.8978643e-10
1.4735017e-10
1.5702436e-07
2.149339e-08
5.219586e-10
0.32161112
5.9869377e-08
5.7807238e-08
5.4925287e-08
5.3298505e-08
5.3299087e-08
2.0826051e-07
8.1959661e-09
5.41798e-09
5.2814521e-09
0.00026803925
2.4937274e-06
0.00027276855
0.00016542259
0.0013011885
8.1584002e-09
7.5029911e-09
0.0010976171
0.0014450263
7.4613333e-08
3.5435327e-05
0.0028402591
6.8898221e-09
7.4526418e-09
8.7420509e-08
3.5256116e-08
1.3464367e-08
4.9003038e-09
4.6348713e-09
0.0012355133
0.0047336145
0.0047282607
0.0030973291
0.0031515606
2.2642424e-05
0.0002403949
5.2940896e-05
2.9497448e-09
0.0024541129
0.0038689431
0.00010424277
3.1062291e-05
3.0689185e-09
3.0689199e-09
0.0017433623
0.001604918
9.6892384e-05
0.0035405314
0.0044232559
0.0031672268
1.0617802e-09
0.007631589
0.01529452
0.009182971
0.0010038482
5.5823415e-07
0.0052096951
0.070048325
0.070048325
0.025665651
1.8188941e-09
1.6680928e-09
1.6963519e-09
0.0016079502
7.6740323e-10
0.0014159365
0.0017092921
1.6613189e-05
4.4292102e-10
2.5989033e-08
2.3073987e-10
1.4738434e-10
2.5657143e-06
1.1654496e-07
8.1399562e-06
0.10228506
6.4289458e-08
0.00024944235
0.00011311806
5.4650517e-08
5.4578722e-08
3.0075884e-07
7.2586255e-07
5.2973524e-09
5.2814502e-09
0.00027125806
8.8412462e-06
6.6576246e-06
5.4450797e-07
0.00020248124
8.4504986e-09
0.00024104865
0.0018219447
5.5855155e-05
0.00029970267
0.0026253659
0.0029269572
2.4484665e-05
8.0369584e-09
1.8299861e-06
2.5549065e-08
7.6203133e-08
0.00013883713
9.0217541e-07
3.303525e-05
0.0047336145
4.1644791e-06
0.0024795007
0.0025032964
0.0021689027
2.7036673e-05
3.1948611e-09
2.8664176e-09
2.6822517e-09
2.6816903e-09
2.683773e-09
2.8648678e-09
3.0691202e-09
3.2458802e-09
0.0021917707
8.1138414e-08
8.1078635e-08
0.0043383372
0.00012465821
0.003377862
1.0195422e-09
0.013470016
0.01529452
0.01529452
0.0016405739
5.5835345e-07
5.5844276e-07
0.016559046
0.029548809
0.030071954
0.015103419
0.010888888
0.010880885
0.010878408
0.0066365832
0.0043811933
2.2341016e-08
4.3341319e-06
1.7431808e-08
3.7169281e-06
2.7790235e-05
2.3683914e-10
2.3642471e-10
0.00012581493
0.00013413779
2.954917e-08
0.0002375344
0.00033711008
0.00033711064
1.4029531e-06
1.4201637e-06
5.8565622e-09
5.8440763e-09
5.8390244e-09
5.2817749e-09
0.00015351334
5.9948009e-09
0.00049755535
0.00036991463
1.2690794e-07
2.3476397e-05
0.00011450151
0.0018219448
5.715522e-05
0.0025911797
0.0026175778
0.0019955603
0.00039925354
3.068726e-07
2.2114552e-07
3.6603269e-05
9.1460943e-08
0.0022836812
0.0022344193
4.9399881e-06
0.00052954793
5.6048674e-05
1.8454286e-09
1.8646852e-09
0.0034521559
7.1891985e-05
3.3977849e-09
6.9024975e-06
2.4217334e-06
2.6826368e-09
0.01372886
0.0069060326
0.012024571
0.0084380277
0.00092612174
8.1272002e-08
0.001583255
0.0013730994
9.0822397e-05
9.4243326e-10
9.3872583e-10
0.0086713892
0.00034320395
0.0047921638
0.003316077
0.0011675108
5.5847933e-07
5.5854432e-07
0.0025858982
1.9885759e-08
0.00010195414
0.0032318603
0.0043831459
3.5211202e-08
0.0011067365
3.4561891e-05
0.0010552662
9.0210245e-10
1.154539e-07
9.3509001e-05
9.3509059e-05
2.069902e-05
2.6028495e-10
0.00011991132
0.00013413778
3.0843443e-05
0.00033680475
0.00020369737
0.00033711124
4.0761712e-06
1.0481124e-05
6.6759924e-09
9.9789658e-09
6.1615905e-09
5.626339e-09
6.1742004e-09
5.3935964e-09
0.0012584117
0.0012584625
5.1124884e-06
0.00078423976
5.5842432e-06
0.00025043658
2.8946571e-05
2.9915973e-09
2.9915433e-09
2.9915429e-09
2.9915434e-09
3.1094051e-09
0.00074901572
0.0002457394
0.0018909217
0.002283681
0.0022806858
0.00016113875
0.00064584008
0.000693627
6.4136696e-06
2.2107535e-05
0.0012936662
0.00043554476
3.6824891e-09
5.9797721e-05
1.5498877e-06
2.6826669e-09
0.021823982
0.021869712
0.021852937
0.021816566
0.0010560047
2.046715e-07
0.0027736152
0.00051855024
2.0394134e-08
2.0188618e-08
9.9807677e-10
0.00094132087
1.4549676e-09
0.0030104876
0.0059960506
0.0044615742
0.0030756777
0.019816362
0.002958583
1.9965909e-08
0.00045373813
2.190303e-08
2.2028119e-08
5.415584e-05
1.9288234e-07
0.00011444505
0.0026395462
0.0016785011
3.3309173e-09
9.156199e-05
9.350912e-05
8.3720792e-05
1.0216963e-08
6.0416081e-10
0.00012623096
5.75085e-05
8.982744e-06
5.0601785e-06
0.000337112
2.7641944e-06
2.7448398e-06
1.9904216e-06
7.80415e-09
6.988039e-09
5.9229264e-09
6.6030791e-09
5.4037844e-09
1.97409e-05
0.0012385469
1.029711e-05
0.00078335217
6.7816033e-05
4.1586118e-09
3.761146e-09
3.376584e-09
5.0639752e-09
3.125669e-09
3.3278751e-09
0.00077669859
0.0038934339
7.0137925e-06
0.0021237556
0.0013330666
1.9134064e-09
0.00076877758
0.00052676399
7.3551185e-09
1.1701399e-07
4.8225208e-05
1.5261659e-06
0.00052866348
3.4815451e-05
1.9490749e-09
1.7172144e-09
0.0086334552
0.0099030457
0.0042725856
6.4131665e-10
6.2501547e-10
6.2501553e-10
4.7852065e-05
0.00052348093
5.0957672e-07
5.9753743e-07
4.2389075e-09
1.1096715e-05
1.3911221e-09
1.3515487e-09
0.0001522944
1.4265022e-09
1.4554687e-09
0.001551103
0.043818736
0.0010619359
0.00055097582
0.0042247875
2.1813574e-08
5.2744806e-06
0.0001278473
2.101004e-05
0.00033961081
0.00040402774
0.0028178343
4.2189107e-06
1.9571208e-09
2.5992491e-05
3.4496389e-09
8.1824225e-08
4.7731333e-08
4.5607897e-06
9.6451926e-07
9.661025e-07
0.00027999506
0.00033711276
5.1982367e-05
1.2825255e-08
1.3132919e-08
5.4875646e-07
9.1599783e-09
6.4045312e-09
6.8546001e-09
5.8833648e-09
6.299573e-09
7.1135768e-09
7.3891502e-09
7.4831409e-09
1.014719e-05
4.2266459e-09
0.00088894507
0.001138047
4.0100869e-09
3.4286836e-09
3.6999158e-09
0.00027248505
0.0030452197
0.0037580792
0.0013829052
2.0072288e-09
1.8056049e-09
1.5754804e-09
1.892771e-09
7.2695098e-09
4.4956389e-10
0.0024931688
4.6524636e-05
0.00014502179
7.7069597e-07
0.0031314431
8.6388605e-05
8.5115111e-06
7.4058904e-10
5.6890632e-10
7.9203738e-10
7.0703593e-10
7.4452353e-10
1.7481268e-06
1.0398063e-09
1.3523726e-05
2.9163751e-07
0.0072483898
0.022301989
0.00021157796
1.5157308e-09
1.4828194e-09
1.3876947e-09
0.00090041601
0.00074246173
0.043818736
0.00093336252
0.0036737052
0.0043408176
0.0027546078
7.1485473e-09
2.2953433e-05
4.5027515e-06
5.0552354e-10
3.384979e-06
0.0008316969
8.9702485e-06
2.0246021e-09
1.980085e-05
2.9580118e-08
4.3063734e-09
1.7264136e-06
1.9905538e-05
3.6727778e-06
1.4891143e-05
0.00033709626
0.0001174345
0.00030894437
1.2399354e-08
1.4728831e-07
2.3448338e-08
3.0943918e-08
7.1122323e-09
8.0324495e-09
2.9128994e-07
5.1228208e-05
7.4036881e-09
9.3713413e-07
7.5277153e-05
2.3920383e-08
0.0005648252
0.0043259215
0.0044172354
0.0039362762
3.192579e-05
7.6551954e-06
1.9228365e-08
1.8903686e-08
0.0055310668
0.00070063727
2.3077618e-09
5.5787918e-05
2.1354135e-08
2.162569e-07
3.4360735e-08
6.1673626e-10
0.0024930434
3.279676e-05
1.5722555e-08
0.0025468685
0.0045952829
0.0029441417
0.00048101259
9.914566e-10
5.5705718e-08
9.5716724e-10
9.1122994e-10
0.00033963981
2.4132556e-05
9.1855133e-10
8.0618476e-10
0.0020736767
0.022361871
0.022361871
0.0094099839
0.012968966
0.0020993349
1.3216158e-07
0.00064379527
1.7629903e-08
0.010630021
0.00065747697
4.5942948e-08
0.0025680487
0.00033980952
4.8414523e-05
4.8766014e-10
3.7722007e-10
3.7522355e-10
3.7563322e-10
4.4755137e-10
2.9241313e-06
3.7952213e-08
6.393217e-05
5.2197851e-05
3.8942593e-06
2.6840114e-06
8.2340177e-05
0.00016360857
3.2376715e-05
0.0001793278
7.4790668e-07
0.00033400139
1.2413091e-08
1.8717947e-07
7.7368013e-08
6.5619899e-08
8.0224473e-09
9.1837966e-09
1.8032051e-05
0.00031092979
7.4917063e-09
1.6972673e-06
0.00031689306
2.3442169e-08
3.5695117e-05
4.3222463e-09
0.0032800345
0.0041826308
0.00066314704
0.00064939079
2.152924e-05
1.9281094e-08
0.0019155724
0.00056775693
0.0027544859
0.0002691453
1.3664316e-09
1.1614964e-09
2.4818132e-10
0.00013529272
1.6532351e-08
0.00042348594
1.5619273e-08
0.0048687563
1.8230834e-09
0.0034413112
0.0034445854
0.00020333054
5.6434185e-09
0.012241191
0.019848565
0.014970255
1.0852269e-09
9.1287923e-10
8.0618541e-10
0.0030108895
0.020269114
0.0014619817
0.015153157
0.015153157
0.015153157
0.00034456392
2.6726362e-05
0.013513478
1.554126e-08
1.5453977e-08
0.00054043144
7.8806083e-07
5.2340061e-10
5.9609242e-10
5.9529926e-05
0.00031334821
1.7448587e-10
4.7430898e-09
5.7001243e-10
2.0635102e-05
2.3394384e-08
4.9326754e-05
5.3433985e-05
3.0805229e-05
2.1159249e-08
5.2229553e-05
0.00016230459
1.2108006e-08
1.2113436e-08
5.5054889e-06
0.0001599594
2.613067e-06
2.5489839e-08
6.5091461e-07
6.500972e-07
8.5555484e-09
8.627342e-09
0.00011190809
5.5571052e-05
0.00088027277
4.744659e-06
0.00019699732
0.0050715182
4.5972059e-09
4.322193e-09
4.01879e-09
4.01879e-09
0.00011978751
0.00064827334
8.7768e-07
1.1988721e-05
2.7073079e-09
0.0022012452
0.0046232411
0.0025049943
0.00027912197
5.2497188e-10
2.4815283e-10
0.00016484834
1.5802688e-05
0.0038638124
0.001239225
0.0024633635
1.8217204e-09
1.8217135e-09
0.0002656061
9.8460122e-05
1.4125917e-06
0.023856346
0.023844285
2.2297658e-09
1.6653442e-06
9.4217719e-10
5.1017516e-09
1.041918e-09
0.00052741433
1.2422873e-09
0.0019173773
0.0012029278
0.0033000478
0.0018444008
7.2755572e-05
0.046525031
0.00029403889
1.5453977e-08
0.001575909
0.0015540407
4.495723e-10
5.1925123e-10
4.7964541e-05
0.0007976043
1.7489809e-10
6.2624989e-09
6.6317922e-10
1.5093773e-05
0.0011005978
1.4814012e-05
1.4398422e-09
1.3967923e-09
9.4422258e-07
9.0715518e-12
1.2098327e-08
1.2759991e-08
1.2248124e-08
1.3037306e-08
1.3804188e-08
1.3828017e-06
2.5207797e-08
1.3585861e-08
1.3754344e-08
2.9068162e-06
3.2776781e-05
0.00010948967
4.7939584e-05
0.00071165842
1.5058809e-05
0.00016116337
0.006432843
4.5970878e-09
8.2665031e-05
5.6674515e-09
6.7734233e-09
1.0215425e-05
5.1761628e-09
0.000580046
9.7108479e-05
1.2515138e-06
0.00030369252
7.6503035e-09
0.0049640513
0.0049693115
0.00010563178
4.3352063e-10
4.3316984e-10
4.2640855e-07
0.0038638123
0.0038638123
4.7033575e-08
1.9558012e-09
1.9759599e-09
2.0760489e-09
0.00042514507
0.0073680051
0.02197323
2.2167621e-09
2.1851128e-09
4.1734638e-06
2.0242102e-06
1.2705914e-06
1.1372478e-09
1.1372322e-09
1.2296861e-09
1.2095972e-09
1.133846e-09
1.1191762e-09
1.0836394e-09
4.4548231e-05
0.040251201
0.00086128235
1.5524539e-08
4.4340626e-05
0.00058370258
4.6186263e-10
5.5558456e-10
6.701613e-10
0.00037043086
1.335131e-07
9.6764934e-09
2.4384818e-08
9.4799961e-08
0.0014457035
0.00013635312
4.3293252e-07
1.3569907e-09
5.213278e-07
7.5541396e-06
3.879009e-08
1.3425306e-08
1.3043579e-08
8.01051e-05
1.3813732e-08
1.4526138e-08
1.5137796e-08
7.5001179e-08
1.9132254e-07
9.9333865e-06
0.00012695107
1.4584735e-06
5.7503731e-05
4.6731849e-09
6.3224935e-06
7.4938269e-05
0.0064328539
0.0037156195
0.00053908142
4.7609616e-09
6.0699367e-09
4.9699174e-09
5.1801969e-09
0.00049997276
7.9159175e-07
8.2298566e-09
8.0437183e-09
7.7920349e-09
0.0010560633
0.0014825273
0.00097418329
7.5810508e-05
5.2180028e-10
0.0031353259
0.0020777636
0.0013417225
2.4140768e-09
0.00074966773
0.0049557258
0.00060843386
0.01387383
0.020074792
1.1620299e-07
7.5473218e-09
5.2165592e-09
2.6260437e-10
2.62506e-10
0.049225024
0.0022967932
1.2635699e-09
0.00083196929
0.0045684412
0.00012768898
0.0013230099
1.1168311e-09
1.7200085e-05
4.0190795e-08
0.00024574723
1.9328114e-07
8.3276597e-10
8.1655698e-10
9.6140583e-06
0.00033552203
0.00032387268
1.1337609e-09
1.7233764e-09
1.8182192e-08
3.5194244e-10
0.00026875986
0.0014457035
0.0014457035
3.2143567e-06
1.2732201e-09
5.6287788e-09
1.7705467e-08
1.0601197e-06
6.3663856e-06
2.9933498e-05
0.00028696159
1.3822268e-08
1.3839425e-08
6.9314017e-07
2.9561846e-07
1.7047309e-06
9.1101444e-09
0.00012668673
3.5571161e-06
3.1717324e-05
4.1512533e-09
4.1359064e-09
4.5423657e-09
0.0020641848
0.0071462681
5.0154453e-09
4.9918481e-09
4.9634298e-09
4.7391152e-09
2.5109167e-05
3.5421719e-09
3.7277738e-09
6.4535276e-05
0.0033343858
0.00014453098
0.00015332145
8.1811336e-10
0.0012816493
0.00032947366
2.2190475e-07
0.0038630597
1.4130645e-06
1.400431e-06
0.0033762908
0.012311912
0.012351241
0.012358982
1.2599381e-09
1.2595552e-09
1.5559303e-09
1.7183587e-09
2.352712e-07
1.6342508e-09
2.6232491e-10
0.050992774
0.043451218
0.0017181171
0.0061497742
0.016839335
0.0053260511
0.011167861
1.0925725e-09
1.0974681e-09
1.9489705e-07
2.889503e-08
2.886338e-08
0.00013616542
7.3735668e-10
2.0206444e-08
0.00052104695
0.00052096761
1.0671893e-09
1.630508e-09
5.0104983e-08
3.518132e-10
0.0010095975
0.00033698414
0.0014457035
4.2603347e-06
1.1752732e-09
2.2194479e-09
4.299499e-09
1.0627313e-08
0.00017229881
0.00025849213
0.00028696951
2.7691403e-05
8.4787478e-05
9.661716e-06
7.9138334e-09
7.9169696e-09
9.0596589e-09
2.7816442e-06
1.424176e-05
4.0248263e-09
4.0296893e-09
4.3178149e-09
3.6859219e-05
5.463387e-09
0.0027564467
4.0764709e-05
9.3043561e-05
5.468831e-05
0.0021287184
0.0021291774
3.2062222e-09
1.8580824e-05
0.0043678805
0.0059632718