/*--------------------------------*- C++ -*----------------------------------*\
| =========                 |                                                 |
| \\      /  F ield         | OpenFOAM: The Open Source CFD Toolbox           |
|  \\    /   O peration     | Version:  2.3.0                                 |
|   \\  /    A nd           | Web:      www.OpenFOAM.org                      |
|    \\/     M anipulation  |                                                 |
\*---------------------------------------------------------------------------*/
FoamFile
{
    version     2.0;
    format      ascii;
    class       volScalarField;
    location    "3.2e-05";
    object      k;
}
// * * * * * * * * * * * * * * * * * * * * * * * * * * * * * * * * * * * * * //

dimensions      [0 2 -2 0 0 0 0];

internalField   nonuniform List<scalar> 
7500
(
9.9986849e-06
9.9973445e-06
9.9958088e-06
9.9932418e-06
9.9921824e-06
9.9902998e-06
9.9886682e-06
9.9864285e-06
9.9846848e-06
9.9835596e-06
9.9821792e-06
9.9808808e-06
9.9800153e-06
9.9791606e-06
9.9795978e-06
9.9804893e-06
9.9817833e-06
9.9832978e-06
9.9845944e-06
9.985518e-06
9.9863262e-06
9.9868058e-06
9.9867151e-06
9.9869432e-06
9.9878899e-06
9.9898847e-06
9.9934981e-06
9.9974658e-06
1.0000971e-05
1.0003161e-05
1.0005305e-05
1.0005652e-05
1.0006369e-05
1.0006779e-05
1.0007815e-05
1.0008927e-05
1.0011323e-05
1.0013122e-05
1.0016636e-05
1.0018686e-05
1.0022873e-05
1.0025764e-05
1.0031496e-05
1.0035753e-05
1.0044431e-05
1.0051072e-05
1.0064357e-05
1.0072402e-05
1.0087258e-05
1.0096247e-05
1.0112786e-05
1.0122759e-05
1.0140778e-05
1.0152891e-05
1.0174082e-05
1.0188678e-05
1.0215345e-05
1.0233786e-05
1.0269062e-05
1.0293197e-05
1.0339201e-05
1.0370507e-05
1.0430934e-05
1.0470503e-05
1.0546689e-05
1.059584e-05
1.0690856e-05
1.0749912e-05
1.0864358e-05
1.0935778e-05
1.1075501e-05
1.116194e-05
1.1333402e-05
1.1436292e-05
1.1707526e-05
9.9990854e-06
9.997425e-06
9.9955498e-06
9.9943432e-06
9.9923719e-06
9.9911364e-06
9.9894454e-06
9.9880167e-06
9.9866551e-06
9.9854758e-06
9.9847964e-06
9.985005e-06
9.9853568e-06
9.9860433e-06
9.9864792e-06
9.9872826e-06
9.9875332e-06
9.987765e-06
9.9876419e-06
9.9875756e-06
9.9877282e-06
9.9880987e-06
9.9888808e-06
9.9900407e-06
9.992099e-06
9.9933327e-06
9.9956957e-06
9.9970056e-06
9.9992142e-06
1.0000602e-05
1.000288e-05
1.0004843e-05
1.0008194e-05
1.0011612e-05
1.0017682e-05
1.0023263e-05
1.0033245e-05
1.0042384e-05
1.0058883e-05
1.0073444e-05
1.0099769e-05
1.0122028e-05
1.0162095e-05
1.019488e-05
1.0253766e-05
1.0300963e-05
1.0384959e-05
1.044996e-05
1.0561896e-05
1.0647398e-05
1.0789223e-05
1.0898716e-05
1.1078561e-05
1.1217561e-05
1.1448643e-05
1.1625673e-05
1.1922349e-05
1.2149998e-05
1.2537189e-05
1.2824637e-05
1.3308347e-05
1.3667622e-05
1.4283094e-05
1.4719998e-05
1.54643e-05
1.598192e-05
1.6871511e-05
1.747263e-05
1.8512374e-05
1.9211272e-05
2.0436699e-05
2.1265716e-05
2.2736776e-05
2.3684635e-05
2.5950861e-05
9.9997138e-06
9.998386e-06
9.9980592e-06
9.9972473e-06
9.9967657e-06
9.9964363e-06
9.9959433e-06
9.9958837e-06
9.9962564e-06
9.9969423e-06
9.998246e-06
1.0000341e-05
1.0002854e-05
1.0006658e-05
1.0009464e-05
1.0013669e-05
1.0016563e-05
1.0020357e-05
1.0023368e-05
1.0026908e-05
1.0030831e-05
1.0034077e-05
1.0038401e-05
1.0042236e-05
1.0047871e-05
1.0052779e-05
1.0060687e-05
1.0067954e-05
1.0080038e-05
1.0092501e-05
1.0113641e-05
1.0136319e-05
1.0174624e-05
1.02159e-05
1.0285496e-05
1.0358413e-05
1.0482636e-05
1.0606119e-05
1.0818255e-05
1.1017127e-05
1.135958e-05
1.1666026e-05
1.2193953e-05
1.2650074e-05
1.3434431e-05
1.4093296e-05
1.5220827e-05
1.6142996e-05
1.7690763e-05
1.8935147e-05
2.0972114e-05
2.2599282e-05
2.5246438e-05
2.7322418e-05
3.0733731e-05
3.3349149e-05
3.7647235e-05
4.0942632e-05
4.6407414e-05
5.0427471e-05
5.7009635e-05
6.1876056e-05
6.988954e-05
7.5625159e-05
8.5001961e-05
9.1562535e-05
0.00010229342
0.00010970465
0.00012183742
0.00013022082
0.00014411727
0.00015383752
0.00017002719
0.00018082214
0.00020508366
1.0000476e-05
1.0002008e-05
1.0004551e-05
1.0009518e-05
1.0013491e-05
1.0020901e-05
1.0029084e-05
1.0037838e-05
1.0051802e-05
1.006284e-05
1.0081274e-05
1.0097679e-05
1.0119376e-05
1.0140688e-05
1.0163075e-05
1.0185144e-05
1.0210786e-05
1.0232262e-05
1.0260548e-05
1.0282348e-05
1.0312557e-05
1.0333714e-05
1.0362995e-05
1.0388767e-05
1.0426072e-05
1.0469356e-05
1.0539337e-05
1.062666e-05
1.0775836e-05
1.0955713e-05
1.1267877e-05
1.1621114e-05
1.2226527e-05
1.2877341e-05
1.3985407e-05
1.5119581e-05
1.7057733e-05
1.8928184e-05
2.2131243e-05
2.5053284e-05
3.0060042e-05
3.4432011e-05
4.194234e-05
4.8266194e-05
5.9138747e-05
6.8039165e-05
8.3309238e-05
9.5438839e-05
0.00011595425
0.00013188542
0.00015830045
0.0001786325
0.0002120569
0.00023738807
0.00027923357
0.00031029523
0.00036141253
0.00039949892
0.00046244328
0.0005073492
0.00058099009
0.00063373217
0.0007197875
0.00078027597
0.00087827736
0.00094538959
0.0010533585
0.0011271867
0.0012455594
0.0013270247
0.0014595788
0.0015517071
0.0017013502
0.0018013156
0.002019132
1.0000894e-05
1.0009528e-05
1.0024599e-05
1.0056913e-05
1.0091703e-05
1.0137461e-05
1.0203386e-05
1.0257713e-05
1.0348862e-05
1.0412305e-05
1.0528219e-05
1.0605013e-05
1.0740598e-05
1.0834335e-05
1.0973762e-05
1.1074078e-05
1.1223801e-05
1.133417e-05
1.1492081e-05
1.1621721e-05
1.1805366e-05
1.1969283e-05
1.2232912e-05
1.2532032e-05
1.3043988e-05
1.3684461e-05
1.482985e-05
1.6193316e-05
1.8657846e-05
2.1432421e-05
2.6442036e-05
3.1680461e-05
4.0970725e-05
5.0182116e-05
6.6381099e-05
8.1683537e-05
0.00010853788
0.00013258598
0.00017450832
0.00021035352
0.00027257392
0.00032383039
0.00041294117
0.00048386952
0.00060753275
0.00070349477
0.00087056918
0.00099615357
0.0012122821
0.0013706747
0.0016391704
0.001833941
0.0021602011
0.0023953844
0.0027890763
0.0030680867
0.0035329207
0.0038646984
0.0044163338
0.0047947559
0.0054232861
0.0058535247
0.0065602488
0.0070406945
0.0078242255
0.0083417665
0.0091752304
0.009729231
0.010614335
0.011211663
0.012183829
0.012840212
0.013902026
0.014598706
0.016095763
1.0052588e-05
1.0260747e-05
1.0379783e-05
1.0587892e-05
1.0737859e-05
1.0898431e-05
1.1140438e-05
1.1316307e-05
1.1638471e-05
1.1857849e-05
1.2277474e-05
1.2549451e-05
1.3062799e-05
1.3383163e-05
1.396129e-05
1.4364173e-05
1.4984383e-05
1.5564496e-05
1.6283194e-05
1.7294327e-05
1.8513492e-05
2.0449601e-05
2.3481604e-05
2.7644028e-05
3.5005869e-05
4.4152755e-05
6.0818624e-05
7.9223904e-05
0.00011319512
0.0001485304
0.00021321358
0.00027542747
0.0003880346
0.0004908233
0.00067613416
0.00083710058
0.0011265194
0.001365531
0.0017895319
0.0021277357
0.0027226964
0.0031831375
0.0039928386
0.0045995195
0.0056723742
0.0064577923
0.0078449994
0.0088282735
0.010548491
0.011734524
0.013788839
0.015188457
0.017581219
0.019214185
0.021989769
0.023858249
0.027023254
0.029171498
0.032773934
0.035148208
0.039144216
0.041750609
0.046084726
0.048918327
0.05359311
0.056557153
0.061369125
0.064454387
0.069386541
0.072641149
0.077953018
0.081426229
0.087057363
0.090665121
0.098344358
1.0162324e-05
1.0863518e-05
1.1151838e-05
1.1909521e-05
1.2247284e-05
1.3072197e-05
1.35091e-05
1.4397197e-05
1.5115993e-05
1.6077023e-05
1.7088027e-05
1.8107306e-05
1.9454585e-05
2.0530169e-05
2.2320928e-05
2.3829437e-05
2.659098e-05
2.9822212e-05
3.5456189e-05
4.44778e-05
5.7872388e-05
8.2882147e-05
0.00011528165
0.00017175116
0.00025327403
0.00036739252
0.00054776754
0.00075150225
0.0011035208
0.0014674489
0.002087576
0.0026790586
0.0037005472
0.0046028552
0.0061984009
0.0075054198
0.0098683222
0.011673734
0.014912282
0.01733734
0.021635061
0.024770212
0.030322272
0.034248017
0.041261233
0.046107942
0.05475281
0.060545794
0.070798535
0.077484174
0.089255767
0.096819688
0.10996735
0.1184893
0.13314313
0.14255584
0.15873384
0.16918663
0.18681391
0.19807174
0.21711484
0.22908057
0.24913046
0.26183955
0.28293726
0.29589878
0.317025
0.33020553
0.35106913
0.36477938
0.38693827
0.40121128
0.42416145
0.43876624
0.46934495
1.0043391e-05
1.0511618e-05
1.1087706e-05
1.2567821e-05
1.3615072e-05
1.5761536e-05
1.7626097e-05
1.9891224e-05
2.2800446e-05
2.4978662e-05
2.8316218e-05
3.0733545e-05
3.4829957e-05
3.8728216e-05
4.5866425e-05
5.6152713e-05
7.5854873e-05
0.00010696235
0.00016886053
0.00025601223
0.00040885158
0.00066839747
0.00099979185
0.0016108154
0.0022796634
0.0035483629
0.0047553986
0.0069487681
0.009143362
0.012885083
0.016338805
0.022019998
0.027586516
0.035187571
0.044117295
0.0534345
0.067158957
0.077981412
0.096463821
0.11013292
0.13333796
0.14986661
0.17875905
0.1981965
0.23301606
0.25586937
0.29672038
0.32289035
0.36943588
0.39859849
0.45032083
0.48216216
0.53798186
0.57284697
0.63287926
0.67042612
0.73532322
0.77590589
0.84426185
0.88762223
0.96021967
1.0056318
1.0811901
1.1290691
1.2077792
1.2560713
1.333929
1.3821162
1.4570634
1.5076194
1.5866714
1.6393203
1.721413
1.7756102
1.8866165
1.1224328e-05
1.6259287e-05
1.8723208e-05
2.4134003e-05
2.6535151e-05
3.1831439e-05
3.4328499e-05
3.926485e-05
4.2786546e-05
4.5859464e-05
5.1373876e-05
5.9446899e-05
7.4650574e-05
0.00010256557
0.00015715203
0.0002544922
0.0004557937
0.00075499616
0.0013816168
0.0021609417
0.003775979
0.0055339485
0.008704923
0.012937714
0.018453693
0.026919518
0.035296666
0.050203835
0.062955809
0.086758856
0.10488945
0.13931457
0.16418516
0.21112937
0.24397444
0.30563957
0.34741542
0.42097334
0.47990708
0.56125313
0.638286
0.72471387
0.83007331
0.91175588
1.0471682
1.134798
1.2888016
1.3866235
1.5595421
1.6672189
1.856923
1.9725565
2.1743501
2.299335
2.5113482
2.646485
2.8785781
3.0253625
3.2708107
3.4316825
3.6934543
3.8644345
4.1409603
4.3241705
4.6141857
4.7998457
5.0889018
5.2715583
5.5490291
5.7481349
6.0438546
6.2641445
6.5944139
6.8384672
7.3328914
1.1765185e-05
2.1210456e-05
2.4894908e-05
3.5850215e-05
3.8729383e-05
4.8117216e-05
5.0856561e-05
5.9472279e-05
6.7194726e-05
8.3510318e-05
0.00011463091
0.00017898317
0.00030721245
0.0005568698
0.0010748545
0.0019267583
0.0037544261
0.0061290795
0.011211952
0.016779418
0.028497763
0.039775577
0.063093059
0.083245397
0.12412886
0.15659129
0.21790983
0.27333217
0.35207983
0.44943445
0.536169
0.68368642
0.78734926
0.97930599
1.1078275
1.3479859
1.5036136
1.7908196
1.974372
2.313056
2.5266259
2.9213995
3.174045
3.57597
3.9501227
4.3246254
4.8177833
5.1955151
5.8004372
6.1987896
6.8796307
7.3052444
8.0286985
8.4939183
9.2696861
9.8159805
10.754112
11.377926
12.398722
13.086336
14.160462
14.907258
16.044337
16.900997
18.089628
18.938227
20.194416
21.016783
22.306731
23.320565
24.871075
26.238568
28.340449
29.911638
32.941603
1.023873e-05
1.2034144e-05
1.3665034e-05
1.8316059e-05
2.1509799e-05
2.8765479e-05
3.8906109e-05
6.1389816e-05
0.00011236645
0.00022886021
0.00048261299
0.0010214819
0.0020958673
0.0041562677
0.0085208399
0.014660275
0.028120399
0.043245652
0.075969329
0.10750152
0.1739805
0.23109112
0.34902609
0.44130102
0.62760197
0.76353325
1.0347327
1.2234875
1.5940661
1.842986
2.299558
2.6867437
3.1462031
3.7555851
4.2243688
5.0217326
5.5547374
6.5278768
7.1621419
8.3279811
9.0827801
10.47825
11.351726
12.993707
14.079856
16.050334
17.358765
19.505364
21.449199
23.336259
25.999859
27.743428
30.674517
32.898019
36.903251
39.841016
45.263069
48.350914
53.151436
56.522787
62.086833
65.804504
71.71194
76.737724
83.089341
87.691086
95.920104
99.66385
110.52573
117.70751
134.13914
145.48206
165.15797
173.47225
191.66323
1.2700244e-05
1.6159478e-05
1.9680697e-05
2.2047749e-05
2.7909539e-05
4.6064836e-05
0.00010013406
0.00024909059
0.00062011602
0.001487528
0.0033557833
0.0073945894
0.014960333
0.029622475
0.057332292
0.093677462
0.17075222
0.24786505
0.41312075
0.55571098
0.85191303
1.0839271
1.5580469
1.9014325
2.5861223
3.0606686
4.005434
4.6409884
5.8880983
6.713951
8.3157131
9.3846926
11.310317
12.925537
14.927491
17.143494
19.566624
22.945507
25.497354
29.9953
33.005796
38.688097
42.217935
50.471774
55.519896
65.322761
71.013347
82.58354
89.287998
100.83532
112.62341
120.28705
140.3562
156.13624
190.65366
204.76119
245.68515
250.46718
262.55169
289.18612
327.12319
346.84627
386.62428
431.41633
453.89139
478.88502
542.90278
544.03538
598.72919
617.62398
661.34187
688.65498
725.12597
738.37015
774.60982
1.3005596e-05
1.9949174e-05
2.4926257e-05
3.8730852e-05
8.233046e-05
0.00023002097
0.0006567501
0.0017888297
0.0044581382
0.010554205
0.02295757
0.050849951
0.094742474
0.19070735
0.30817932
0.50624584
0.83774016
1.1695047
1.8331831
2.3628684
3.4207553
4.2167404
5.8068672
6.9256638
9.1201599
10.684402
13.78169
15.901439
20.074192
23.031504
28.792478
32.725154
39.705417
45.910956
52.385583
63.288136
75.972666
87.891002
102.56622
122.22449
135.58918
168.62267
181.38248
253.30671
266.5957
321.48777
340.67555
422.79365
439.75601
531.81087
555.27147
597.2152
692.42744
702.96005
768.4337
790.92347
958.61742
883.87381
900.96371
984.68207
955.02331
969.03458
1019.7442
1009.4217
893.18552
927.37255
826.62199
781.73464
787.40326
776.52458
724.71297
698.90032
583.33989
581.50838
511.48662
1.1341172e-05
1.7259752e-05
3.322425e-05
0.0001141334
0.0004286362
0.0014832209
0.0044211583
0.011826556
0.028355193
0.06589263
0.13564871
0.29048612
0.49932862
0.94148244
1.3921589
2.3744297
3.2482325
4.7618089
6.7080357
8.6036774
11.753708
14.472812
19.430281
23.102549
30.428556
36.105542
47.240454
54.894764
71.742305
84.37568
108.85601
124.88126
156.35708
178.46425
218.22642
298.91476
343.4107
399.86215
511.18847
557.62322
660.92009
782.65277
812.10904
1005.8928
973.5143
1091.8538
1050.3424
1200.4834
1099.7003
1244.1231
1001.307
993.17727
883.70989
767.83524
750.32219
728.68079
601.90721
505.15324
573.25873
490.85038
419.91346
357.48407
319.62107
268.66342
205.42895
197.91011
114.54275
140.99227
113.88983
125.07269
86.915501
67.584704
47.168859
51.396174
39.635892
1.0231703e-05
2.1759429e-05
0.00011775115
0.00065643614
0.0027732195
0.0093840361
0.026846139
0.068595037
0.15594384
0.36467331
0.67724216
1.342183
2.2137
3.7270543
5.3928137
8.7107783
11.413802
17.004219
21.449477
29.250247
37.251244
49.426322
63.524661
78.558671
109.1524
132.40166
179.54204
209.10142
310.46883
366.29266
478.24525
553.17874
705.94492
818.08761
946.81928
1113.543
1127.9005
1215.5952
1321.7266
1235.4437
1376.9382
1054.3693
1073.4111
835.82842
827.02072
651.70233
619.85641
514.55857
406.64329
274.21708
170.92987
183.96869
120.42293
83.093499
81.400659
89.817448
43.933629
45.340524
79.704849
41.179582
34.552059
37.997483
28.064422
14.973471
15.774735
13.304248
9.548115
19.249557
16.355582
11.98638
5.8440428
4.2826857
3.9329044
4.5085936
3.6716366
1.0141492e-05
7.8946346e-05
0.00075144487
0.00418961
0.01686622
0.053236377
0.14279214
0.34818928
0.73995302
1.6670119
2.8317304
5.2230947
8.4854924
12.449758
19.315146
28.013503
37.305032
55.311255
69.881269
97.259684
128.78178
179.35166
228.58904
315.70167
467.83809
574.16885
787.75625
902.55441
1172.2312
1232.1616
1335.9102
1421.8766
1443.9254
1350.8058
1175.7978
930.86218
874.24173
703.78283
474.07819
403.80825
302.7508
151.62183
190.4966
85.182834
151.2646
70.079102
84.074052
45.524187
31.926971
19.106996
11.161254
13.352098
8.224938
10.418096
11.080473
9.7098219
4.7554833
8.4339894
22.48232
9.7122845
6.1526012
10.156636
7.561098
5.6741444
5.7738717
4.198736
5.8133287
11.530934
10.220577
3.0461022
2.177082
1.825445
1.5703278
1.5472519
1.6231101
1.132891e-05
0.00051583866
0.0048001049
0.024540615
0.090644013
0.26417775
0.66071788
1.56051
3.0170378
6.3730229
10.186434
18.45839
26.713425
41.404952
64.386347
86.486918
128.69857
186.98896
246.39466
371.64788
533.85839
754.72931
971.1815
1238.7671
1385.0546
1543.5801
1576.4524
1497.1399
1259.7341
1051.9641
671.65358
639.24406
380.80604
323.4733
150.33122
114.04287
124.18637
70.717988
42.075759
39.636245
19.48161
10.898188
20.382763
11.16641
47.274901
7.6700266
21.053421
4.1724597
3.8885081
3.8070877
4.019597
4.2058577
3.5619872
3.8417191
6.793335
5.7361988
3.1088474
4.4178537
9.9413108
6.0482748
4.0286601
5.0292155
4.0386775
6.9314318
6.3152366
2.9162506
6.0964825
11.629167
3.5394564
2.1694243
2.0530381
1.8877446
1.5766482
1.5079564
1.6226764
1.6053e-05
0.0032546754
0.027473172
0.12724969
0.42600897
1.1409997
2.6639807
5.8609342
10.714744
21.313015
33.248881
58.412453
84.718322
143.18405
208.81675
302.97386
508.51622
720.21167
1001.4434
1402.5784
1533.7169
1744.444
1551.9065
1418.2173
1052.9424
755.62086
582.62812
418.80082
169.37804
124.89023
69.95129
77.039113
31.24599
24.642399
10.519634
19.186671
14.028501
9.0155698
8.875737
7.6005284
2.2324583
2.4246935
3.9403736
4.9325871
9.074042
6.9567734
7.8557982
2.7796678
3.1356672
3.879311
5.1584161
3.6062384
3.5310407
4.7184092
7.2573105
5.6435249
3.0866774
4.632706
6.6500811
5.3673098
3.3638756
4.0130251
3.8544351
7.1259583
4.7322802
2.4904549
4.8333891
9.4414025
2.1919903
1.7866144
2.0660419
1.9733166
2.1001207
1.8549551
1.9109017
9.9196967e-05
0.018253776
0.13828255
0.57745369
1.7492649
4.3144486
9.5087102
19.125345
35.004225
66.578136
105.80171
187.63926
285.60099
537.08236
784.85185
1262.8013
1505.5784
1740.0092
1818.2847
1671.3125
1142.5929
799.55506
354.75586
253.37726
130.14764
93.401987
71.930844
40.247369
13.763226
10.428491
14.602119
13.639032
3.4671641
1.757968
1.0818608
5.5619902
3.8181777
2.2470736
6.5245172
4.2191449
1.3596605
2.35266
2.1365799
3.7004244
4.717975
3.8365696
7.3072853
3.5524843
3.7654608
5.1925602
5.4363866
3.9512823
3.9226344
4.6234362
5.9316177
4.4364605
3.0143939
4.2693039
5.4066615
5.4253593
3.6246663
5.8455125
4.60326
3.4266701
4.0323979
2.7284441
3.6293048
5.6182968
2.2453136
1.9760374
1.9637518
2.0044985
2.3996115
2.2192862
2.2398969
0.00068731048
0.095767564
0.62284142
2.3042987
6.3064904
14.429521
30.484362
58.657125
113.38942
209.46159
356.05027
689.654
1109.1992
1645.1094
1929.9628
1918.7538
1494.9427
993.48807
664.28474
365.94027
145.51788
89.478831
30.196912
28.626945
16.034112
20.505121
11.515512
13.480532
5.530642
2.2894688
4.8273569
2.5234164
1.1832489
0.81962963
0.71064929
3.1998648
1.5501216
1.1441783
6.2569011
3.0136269
1.2145003
3.4001668
2.5090017
3.4254989
6.8631073
3.9805004
7.0598759
4.0937713
5.2871665
6.1180355
5.9763724
5.0447688
3.9453947
4.0122704
5.4933706
4.6850416
3.8941079
4.5208487
4.3851899
9.3104022
5.2428872
4.4484534
3.4982171
3.2678804
2.838504
2.4206976
3.1261209
3.8313113
2.1550797
2.4991687
2.269777
2.2997349
2.1678849
2.2420939
2.622116
0.0080810144
0.45415564
2.5009657
8.1209084
20.272682
44.119099
91.361427
186.49096
380.27448
745.34707
1387.5473
1807.5994
1954.9968
1759.8273
1146.3616
474.61716
250.12751
156.089
100.70443
42.157931
14.096233
8.036558
2.6290726
3.6321039
5.0356733
8.4126021
6.2643848
5.0599429
3.5728862
1.8867664
2.8888576
2.7029775
1.0011568
1.0201011
0.79962242
2.2098062
1.5291139
1.0112432
1.8704308
1.8544748
1.267254
4.0897754
4.3185327
3.0512841
7.5777014
4.8608305
6.2550423
2.8543743
2.7144123
8.0191036
5.4447461
5.8862502
3.7531874
4.165682
3.9472733
5.3472061
4.8125452
5.8667822
3.724904
13.191431
5.5404222
4.3247742
3.3232502
2.9757968
2.4467696
2.5250926
2.4289219
2.7796642
2.4537233
2.8686236
2.2831387
2.3504764
2.1827524
2.1852245
2.5701455
0.062445865
1.9255788
8.8965945
25.516423
59.760129
129.53381
284.88534
643.18193
1479.9481
1826.166
2039.6051
1533.5997
697.24973
374.61429
152.08788
45.894633
30.160884
28.221342
9.9114015
3.5623289
3.7017273
2.1629359
1.2719716
2.2279367
3.205863
5.6634586
10.366446
3.8799709
3.2720633
1.580202
2.0757501
1.2569213
0.95230335
1.5361075
1.0278123
1.7714938
1.2834671
0.93638502
2.1103611
1.4744896
1.165726
5.6446248
11.379536
6.4127411
5.8489714
4.532501
4.8900033
2.7048641
2.1730484
10.915959
4.7167904
5.7294769
2.9755894
4.9004082
3.539732
7.1078755
6.3632161
4.9275974
3.0654056
9.3939119
4.4611067
3.9585683
6.3400848
3.3236718
3.2432596
2.4969633
2.737066
2.1028096
2.5678477
3.0008695
2.2414938
2.2055497
2.5017514
2.4648428
2.4702154
0.38667958
7.307575
28.286595
73.265505
169.3103
390.07168
1008.9708
1793.53
2454.3558
1548.5262
653.17141
293.11942
108.8418
56.251898
12.719869
3.1268432
4.2616957
6.5831963
1.8122455
1.3480843
3.6296895
1.2301196
1.2393065
1.7335989
2.4501391
4.4829712
8.0128707
1.6849163
3.3219628
1.7452414
1.5920309
1.1642298
1.1023982
1.4767522
1.0364754
1.7751847
1.1543641
1.0665914
2.2054066
1.6246903
1.414408
7.5730606
14.10106
14.229291
7.0889388
5.4208349
4.2806205
2.6105344
2.4213877
4.1721007
2.8914613
3.5468493
2.6419732
3.5449781
4.2753936
11.222041
9.4139041
4.9485848
3.3861597
15.625039
5.2795948
4.7412015
5.1516401
3.5000635
4.3926375
2.5835451
2.4069881
1.8070106
2.5993313
2.6874619
2.3053163
2.0674451
2.8946477
2.9411929
2.5155406
2.0466657
24.901386
81.965759
199.36023
493.43953
1335.7698
1952.5961
1889.491
1049.6542
278.35568
115.14648
38.64239
14.048034
6.2762502
1.0428392
0.4049542
1.4394446
2.8747063
1.1408305
1.0588365
2.8245238
0.95816569
1.8596594
1.6282823
3.06807
3.4410843
3.7984025
1.4811384
2.2482285
1.560496
1.2119667
1.3062897
1.2325859
1.0682074
1.2118085
1.9539777
1.3593791
1.1985628
1.9873964
2.5457409
1.8329042
7.7311174
25.267457
11.606116
3.6659235
4.0152386
3.9550928
2.7529824
2.297654
2.1707715
2.0446091
4.0486505
2.4963621
4.6357976
20.806102
12.864126
10.631713
5.766445
3.5259901
6.7960646
5.3010633
6.0661695
5.5396052
3.121105
2.3321431
2.0858865
1.7824617
1.515098
2.9683948
2.6104229
2.3774009
2.1140364
3.0142948
2.997788
2.4863664
9.5241023
77.121656
221.83043
545.81629
1604.9041
2167.3127
1430.576
566.05603
194
28.56867
14.959726
3.5071764
2.3713467
1.4772936
0.44641418
0.29173741
0.94218953
1.8806419
1.0330463
0.96924766
0.92951838
0.74832907
1.9767468
1.5082635
4.1568043
5.960399
4.2544534
1.4434108
1.5335934
1.3799144
1.1117029
1.3282713
1.2758666
1.3711576
2.660074
2.3644808
1.4442902
1.247503
1.0405427
1.4840101
1.3889295
3.4704293
4.3371455
3.2275331
2.3053735
1.8462477
3.3557389
2.7122737
2.2415995
1.7967493
1.8235432
3.5030418
1.8409217
5.5668289
8.5421808
7.2180704
6.605814
5.2532817
3.5213904
2.6528817
2.6609867
4.4558167
5.2581373
2.9378155
2.0325483
1.6930469
2.2694627
1.6975163
2.7994657
2.8840977
2.4170951
2.462547
2.761869
2.7374867
2.3481833
39.852937
219.36672
586.15739
1624.3518
2189.5435
1214.3569
509.93456
159.71258
17.860037
2.2184684
2.5202736
0.66161447
0.7176661
0.83338459
0.38051903
0.29126026
0.75728669
1.540381
0.99646996
1.245317
0.7740663
0.64776075
1.1066169
1.2771548
1.9087049
14.010024
4.8172333
1.4096161
1.6123193
1.3997025
1.1286394
1.3401996
1.1051017
2.2368279
5.3461061
2.7820188
1.5830834
1.1924997
0.89260141
0.75133599
1.2488576
2.1990604
3.1404771
2.687777
1.8130041
1.5267609
2.772579
2.1590638
2.1536415
1.6989513
1.978116
2.1028959
1.5721968
2.768531
17.483713
6.4267414
7.7365877
5.5605514
3.274273
2.3837771
2.6020587
2.8435576
4.0783464
3.0320695
2.7634369
1.983767
2.5349943
1.8118633
2.5831012
2.8161403
2.6325894
2.8906135
3.0955841
2.7208198
2.3149376
153.47604
581.43998
1626.8186
2131.3761
1056.0596
411.28771
128.49659
23.706621
1.6190941
0.78393691
0.89192464
0.47598386
0.47885973
0.76765431
0.35861039
0.30172536
0.64344952
1.3742145
1.0331621
1.9116706
0.77018958
0.53957239
0.82956368
1.0991265
1.697681
10.123904
3.1348335
1.1832174
2.0838226
1.3859069
1.2037005
1.3988498
1.0432114
2.2987193
5.8325603
2.9036853
2.1387767
1.3132069
0.936436
0.71307335
0.8846477
1.6223904
1.3493649
2.1799071
1.6312955
1.5292605
2.5639515
2.0426866
1.5849329
1.6142738
2.1048726
1.9106455
1.5060898
2.0181594
8.2996339
5.1673837
6.2748575
4.9400567
3.3032481
2.6666063
4.0851169
2.9515798
3.7773823
3.0244693
1.9029098
1.1885893
1.4620387
1.6228096
2.9027502
3.3574531
2.7260391
3.4096316
4.0714016
3.1745356
2.500958
490.60857
1544.4643
2580.0975
1311.3314
386.39539
101.86324
18.796184
2.9003892
0.81446323
0.81963198
0.61265644
0.48886113
0.41684751
0.71526801
0.35428704
0.31577996
0.55408777
1.2351155
1.1163191
2.7052389
0.85638405
0.50940227
0.71674635
0.97749418
1.7231231
3.2109334
1.7001927
1.0953874
2.8525273
2.5216153
1.3528059
1.6334178
1.1056523
1.6062718
4.0548337
2.7970355
1.7124053
1.4172509
1.2270939
0.92770746
0.90496523
1.292529
1.0844758
1.3224623
1.3228682
1.5592439
2.4744156
1.9913393
1.5477351
1.6827094
2.4125755
2.0041499
1.5146041
1.9238712
2.3422659
5.2373762
6.8423418
6.1713865
3.7281298
3.0168267
2.8575004
2.8962568
3.7194419
3.4948161
2.0539638
0.95052568
1.0970972
1.7673353
2.4966122
3.4183542
2.8547856
3.6072009
4.1618457
3.9121797
2.8255846
1463.5191
3049.9277
2052.5169
537.03817
89.150939
16.169087
2.3130497
0.76075008
0.77951243
0.8144612
0.55817572
0.50991258
0.39880283
0.67420899
0.36757081
0.36250013
0.49593673
1.1518943
1.2023845
3.0848286
1.0325487
0.49371342
0.59072376
0.94978845
1.6305665
1.2522943
1.2626796
1.1011203
4.1062308
11.527994
1.9928006
1.9384961
1.207216
1.3299226
2.3181745
2.4623483
1.5530522
1.5128629
1.755574
1.003825
0.93271834
1.177011
1.1373346
1.4318011
1.3124495
2.468205
2.3540642
1.8229039
1.5776093
1.7619819
2.1475516
2.1429641
1.5853092
1.7367959
3.6042135
3.0768823
6.5497371
6.1641699
4.2095369
3.6080788
4.4916492
3.4621416
3.802776
3.4675345
2.2753354
0.72938291
1.2242697
2.4345813
1.8400914
2.293186
3.3825342
3.6147837
4.3689368
4.2018165
3.2360471
4181.957
3232.4254
753.66133
106.26855
11.869572
2.3787765
0.55875917
0.5549154
0.76197263
0.65244638
0.50974476
0.54152411
0.55367915
0.62131199
0.40715895
0.46380717
0.44195047
1.0567094
1.2215376
3.1066149
1.1597281
0.50128672
0.60746288
0.86776936
1.7310506
1.1312503
1.1213306
1.0440013
5.2665958
20.562284
1.8318099
2.3113964
1.2188352
1.2816722
2.09651
2.3122463
1.5646794
1.7381175
1.82
1.1105528
0.87387932
1.9393749
1.3529504
1.5861131
1.5418119
3.5182038
2.3225768
1.757091
1.6231665
1.8743416
1.5904385
2.0955558
1.5976441
1.6285959
3.3986013
2.6459085
5.343446
5.5405285
5.1552126
4.1823053
4.8293585
3.4765999
3.7905239
2.9869999
2.3278527
0.72245059
1.5145726
2.8334371
1.6789105
2.1293761
3.4533922
3.3328151
4.5659573
4.1980376
3.3475691
7827.7377
1570.9088
146.07318
12.565704
1.5051401
0.55657176
0.35953005
0.58482964
0.80643514
0.63441724
0.48133117
0.57547775
1.2603374
0.6351935
0.45396609
0.52894633
0.40395778
0.96986691
1.1917041
2.7020085
1.3810167
0.51084757
0.78107249
0.9000606
1.6700619
1.119371
0.92233638
0.87720315
5.0419819
8.4578743
2.2641535
2.7521991
1.2515958
1.4885886
2.4712319
2.0824708
2.0029391
1.5629453
1.5008619
2.0291325
1.184705
1.9309467
1.418783
1.5623311
1.5643063
3.920483
2.3969426
1.8896554
1.7526934
1.7996578
1.4957441
1.9308598
1.5213174
2.1545395
2.1259212
1.6525312
3.7826725
5.8792114
5.8918337
4.4878012
2.9992332
3.2618216
3.8027311
3.0945681
2.3872661
0.8321637
1.6399077
2.9667629
1.6651455
1.9357902
2.4797661
3.2826648
4.1692267
3.9924778
3.3100132
1512.1433
254.06728
14.966866
1.2379212
0.32507554
0.30864143
0.34783624
0.6103226
0.84796227
0.6813013
0.46201849
0.63816586
2.8115794
0.69261143
0.48316919
0.53702402
0.38170583
0.8947422
1.0355489
1.6671464
1.4717455
0.49408121
0.95661132
1.073887
1.4373206
1.3015291
0.87203993
0.75363943
5.0712955
6.0890902
4.2380173
3.2160124
1.1432521
1.4179034
2.7679174
1.8728915
2.1094627
1.6111275
1.2491484
2.2912982
1.5157682
1.7813702
1.4610145
1.6105757
1.5214766
2.3749176
2.662686
2.2221796
1.8030581
1.8304639
1.4944067
1.711839
1.4368246
2.1215085
1.5374776
1.5437941
4.3652296
6.2586209
4.935436
2.7932102
2.5356639
3.4000094
4.3718501
1.9573825
2.1026412
1.4602125
1.7794883
2.6405986
1.8754589
1.738333
2.2568235
3.1825277
4.0873858
3.7082263
3.2440738
103.52775
21.96369
1.1483915
0.23888273
0.19796331
0.27222886
0.36526019
0.63115673
0.88494319
0.82562382
0.45273097
0.71185423
4.2274662
0.79896422
0.49499388
0.4921272
0.36288276
0.79367504
0.89766835
1.4053269
1.4548426
0.48501118
1.0523484
2.865696
1.4599551
1.6960383
0.89190335
0.71159397
3.2407105
6.7121213
4.3451644
3.9434551
1.0881482
1.1366975
2.6420227
1.7196881
2.1197529
1.3130581
1.323587
1.9018275
1.6751871
2.2789272
1.4861847
1.5930192
1.5027378
1.5169957
2.4659068
2.0558261
1.9239667
2.1107159
1.5169375
1.5377362
1.4104611
1.3606917
1.3045603
1.7606111
4.7729212
5.8052197
2.751741
2.4968522
2.4710653
3.3577449
3.8786773
1.8303857
1.7746619
1.3059497
1.7950377
2.2831082
2.0256985
1.7174487
2.5998586
3.0732801
4.5063904
3.5301674
3.0261595
3.6338796
1.2972876
0.24161012
0.17303979
0.18683328
0.26930606
0.38199168
0.65351974
0.91853984
0.97017718
0.45892782
0.75295087
4.2526638
0.76734722
0.50184719
0.42548041
0.34963471
0.68967267
0.81477359
1.4152276
1.3362941
0.47581113
0.71182499
5.8110004
1.7677267
2.2648555
0.94822234
0.91225094
1.1197382
3.6482206
12.7367
4.3926866
0.80153378
0.94257694
2.3245204
1.6487553
2.1980072
1.2134909
1.2505222
1.5530791
1.596072
2.0670301
1.3905037
1.4778077
1.4434537
1.5382045
2.0637695
1.7388606
1.9967402
1.9050024
1.5798376
1.5833667
1.669139
1.4505432
1.3596014
1.8392622
4.3188195
4.7358644
2.3339404
3.2617066
2.4811221
3.3191289
4.315632
2.1497992
1.7288236
1.1100806
2.0040614
2.0997397
2.154638
1.7782656
2.3727219
3.281151
4.25106
3.4501049
2.7703624
0.64590815
0.32653943
0.2050642
0.17272917
0.1900608
0.2719234
0.40312935
0.68754816
0.9948629
1.0374363
0.46521068
0.71267461
2.1724205
0.70115755
0.51598657
0.4097681
0.34795153
0.58921966
0.77916673
1.5453317
1.209404
0.50205739
0.6678575
4.554884
1.8914575
2.4743568
1.0473399
0.9754538
1.1290881
4.4730001
10.323503
1.5820043
0.64832652
0.8520216
2.1944394
1.6692942
2.5501503
1.2051383
1.0996945
1.0902682
1.0939486
1.076391
1.133404
1.5131443
1.4164536
1.9448066
2.0290437
1.5938112
1.7668366
1.7422924
1.649462
2.1265479
2.070166
1.6149623
1.5460563
1.8304156
3.9529117
3.8000288
2.3452732
4.258363
2.773024
4.581454
13.863393
2.9658373
1.7667169
0.97451403
1.7936818
2.123699
2.28251
1.7113155
2.2868791
3.711227
3.8969435
3.437218
2.545789
0.58618653
0.29693572
0.21991564
0.18137146
0.19455803
0.27783402
0.43153436
0.74302647
1.0777835
1.0777939
0.47033446
0.64775688
1.0545643
0.64000331
0.54290881
0.40974888
0.35809239
0.53033041
0.76516595
1.5597111
1.1576417
0.5079134
0.60426287
2.3450585
1.7831261
2.1732519
1.070343
0.86557795
1.3176203
3.7487269
1.9462756
0.64067825
0.59993297
0.81381498
1.7076572
1.7720571
2.6735995
1.1099298
1.2093817
1.3424633
1.292114
1.0541241