/*--------------------------------*- C++ -*----------------------------------*\
| =========                 |                                                 |
| \\      /  F ield         | OpenFOAM: The Open Source CFD Toolbox           |
|  \\    /   O peration     | Version:  2.3.0                                 |
|   \\  /    A nd           | Web:      www.OpenFOAM.org                      |
|    \\/     M anipulation  |                                                 |
\*---------------------------------------------------------------------------*/
FoamFile
{
    version     2.0;
    format      ascii;
    class       volScalarField;
    location    "3.2e-05";
    object      nuSgs;
}
// * * * * * * * * * * * * * * * * * * * * * * * * * * * * * * * * * * * * * //

dimensions      [0 2 -1 0 0 0 0];

internalField   nonuniform List<scalar> 
7500
(
4.1404176e-10
4.1899938e-10
4.2390659e-10
4.2874533e-10
4.3356993e-10
4.3833039e-10
4.4304993e-10
4.477095e-10
4.523337e-10
4.5692567e-10
4.6146568e-10
4.6596143e-10
4.7042125e-10
4.748354e-10
4.7923465e-10
4.8359956e-10
4.8792915e-10
4.9221918e-10
4.9645889e-10
5.0064423e-10
5.0478148e-10
5.0886513e-10
5.1288877e-10
5.1687506e-10
5.2083461e-10
5.2477648e-10
5.2871637e-10
5.3262147e-10
5.3647006e-10
5.4023879e-10
5.4396149e-10
5.4759014e-10
5.5118348e-10
5.5472294e-10
5.5823435e-10
5.6170262e-10
5.6516188e-10
5.6855931e-10
5.7196063e-10
5.8107322e-10
5.8476754e-10
5.8838248e-10
5.9203941e-10
5.9561161e-10
5.9927431e-10
6.028358e-10
6.0655676e-10
6.1008019e-10
6.1377039e-10
6.1724267e-10
6.2090639e-10
6.2432933e-10
6.2796118e-10
6.3137121e-10
6.3502477e-10
6.3843399e-10
6.421833e-10
6.4563627e-10
6.4958313e-10
6.5314087e-10
6.5735622e-10
6.6106854e-10
6.6567363e-10
6.6957805e-10
6.7461812e-10
6.7875857e-10
6.8433244e-10
6.8871971e-10
6.9484436e-10
6.9955578e-10
7.0641209e-10
7.1152866e-10
7.1931042e-10
7.2487029e-10
7.3569838e-10
4.5545506e-10
4.6090117e-10
4.6629121e-10
4.7164585e-10
4.7693145e-10
4.8218362e-10
4.8737389e-10
4.9251961e-10
4.9761616e-10
5.0266647e-10
5.0767879e-10
5.1266346e-10
5.1760183e-10
5.2249903e-10
5.2733983e-10
5.3214052e-10
5.3687663e-10
5.4156222e-10
5.4618811e-10
5.5076539e-10
5.552986e-10
5.5978788e-10
5.6423882e-10
5.6865073e-10
5.7303877e-10
5.7735374e-10
5.8165195e-10
5.8587014e-10
5.9006522e-10
5.9418666e-10
5.9828512e-10
6.0232481e-10
6.0635711e-10
6.1034258e-10
6.1436042e-10
6.1831523e-10
6.2235835e-10
6.2632843e-10
6.3048211e-10
6.4092491e-10
6.457071e-10
6.5032048e-10
6.5546884e-10
6.6034657e-10
6.6603548e-10
6.7131206e-10
6.7775621e-10
6.8355017e-10
6.9084876e-10
6.9725297e-10
7.0546991e-10
7.1259804e-10
7.2199058e-10
7.3001504e-10
7.4099068e-10
7.5016849e-10
7.6314327e-10
7.7383888e-10
7.8951817e-10
8.0194938e-10
8.2037429e-10
8.3480621e-10
8.5684759e-10
8.7330108e-10
8.9858207e-10
9.169693e-10
9.4565031e-10
9.6585491e-10
9.9772128e-10
1.019925e-09
1.0555395e-09
1.080327e-09
1.1207102e-09
1.1474762e-09
1.2048578e-09
5.0101631e-10
5.0701566e-10
5.1298471e-10
5.1888581e-10
5.2473992e-10
5.3054264e-10
5.3628561e-10
5.419849e-10
5.4764084e-10
5.532505e-10
5.5882266e-10
5.6436271e-10
5.6986064e-10
5.7534187e-10
5.8074098e-10
5.8612733e-10
5.9142195e-10
5.9668964e-10
6.0188052e-10
6.070337e-10
6.1214508e-10
6.1718231e-10
6.2219929e-10
6.2714776e-10
6.3209936e-10
6.3697526e-10
6.4189379e-10
6.4673994e-10
6.516897e-10
6.5660158e-10
6.617472e-10
6.6689649e-10
6.725158e-10
6.78192e-10
6.8477029e-10
6.9142436e-10
6.9975778e-10
7.0803484e-10
7.1923227e-10
7.3730137e-10
7.5327518e-10
7.6797632e-10
7.8981502e-10
8.0913331e-10
8.3860604e-10
8.637429e-10
9.0257422e-10
9.3453989e-10
9.8350827e-10
1.0228116e-09
1.0819251e-09
1.1287479e-09
1.198899e-09
1.2532417e-09
1.3354759e-09
1.3976062e-09
1.49171e-09
1.5625827e-09
1.6708921e-09
1.7492452e-09
1.8677416e-09
1.9538589e-09
2.0849287e-09
2.1773886e-09
2.3173935e-09
2.4143037e-09
2.5613569e-09
2.6621833e-09
2.8155368e-09
2.9209431e-09
3.0833286e-09
3.1962377e-09
3.3711709e-09
3.4876175e-09
3.7257879e-09
5.5113895e-10
5.5781822e-10
5.6446634e-10
5.7112457e-10
5.7769656e-10
5.8431058e-10
5.9089128e-10
5.9743322e-10
6.0407628e-10
6.1057805e-10
6.1725197e-10
6.2381294e-10
6.3048715e-10
6.3710035e-10
6.4369822e-10
6.5023693e-10
6.5684111e-10
6.6326242e-10
6.6985595e-10
6.7618903e-10
6.8275011e-10
6.8896263e-10
6.953966e-10
7.0166423e-10
7.0827411e-10
7.1504301e-10
7.2268441e-10
7.3088686e-10
7.4118725e-10
7.5251562e-10
7.6833759e-10
7.854795e-10
8.1093781e-10
8.375681e-10
8.7833975e-10
9.1888386e-10
9.8189678e-10
1.0404556e-09
1.1315823e-09
1.2230265e-09
1.3479072e-09
1.4513102e-09
1.6112841e-09
1.7385523e-09
1.9354283e-09
2.0876149e-09
2.3227532e-09
2.4995454e-09
2.7697512e-09
2.9692885e-09
3.2697147e-09
3.4907808e-09
3.8220946e-09
4.0634733e-09
4.4279725e-09
4.6894583e-09
5.0840773e-09
5.369151e-09
5.8019856e-09
6.1032796e-09
6.5587295e-09
6.8782417e-09
7.3600362e-09
7.6934228e-09
8.1939599e-09
8.5335767e-09
9.0412202e-09
9.3867671e-09
9.9025211e-09
1.0256875e-08
1.0793648e-08
1.1166202e-08
1.1730354e-08
1.2108508e-08
1.2859606e-08
5.9740939e-10
6.0533526e-10
6.1340196e-10
6.2195046e-10
6.3053617e-10
6.3942897e-10
6.4893069e-10
6.5803834e-10
6.6830699e-10
6.7766254e-10
6.887107e-10
6.9846664e-10
7.1014756e-10
7.2043624e-10
7.3223427e-10
7.4271767e-10
7.5484775e-10
7.6564454e-10
7.7803641e-10
7.8946168e-10
8.0271144e-10
8.1528201e-10
8.3123629e-10
8.4837771e-10
8.7264416e-10
9.0102166e-10
9.4540167e-10
9.9559097e-10
1.0768335e-09
1.1627839e-09
1.3010631e-09
1.4344232e-09
1.6428319e-09
1.8308411e-09
2.1201392e-09
2.3676773e-09
2.7473056e-09
3.0561527e-09
3.5285316e-09
3.8982629e-09
4.4647798e-09
4.8958773e-09
5.5613802e-09
6.0551242e-09
6.8236786e-09
7.3840396e-09
8.259444e-09
8.88289e-09
9.851264e-09
1.0529649e-08
1.1573734e-08
1.2303473e-08
1.3418841e-08
1.4198689e-08
1.5393734e-08
1.6220402e-08
1.7485182e-08
1.8369541e-08
1.9722912e-08
2.0638861e-08
2.2042421e-08
2.2994606e-08
2.4441657e-08
2.5421193e-08
2.690242e-08
2.7883507e-08
2.9352164e-08
3.0335424e-08
3.1798207e-08
3.279467e-08
3.430355e-08
3.5332909e-08
3.6884679e-08
3.7918015e-08
3.9938685e-08
6.3304594e-10
6.4830219e-10
6.6077401e-10
6.7610989e-10
6.8962267e-10
7.0350086e-10
7.2004029e-10
7.3447531e-10
7.5368708e-10
7.6960207e-10
7.9203166e-10
8.0971527e-10
8.3517919e-10
8.5446541e-10
8.819535e-10
9.0387313e-10
9.3258696e-10
9.5997669e-10
9.9153633e-10
1.031717e-09
1.0775785e-09
1.1430648e-09
1.2360766e-09
1.3532132e-09
1.5362167e-09
1.7402491e-09
2.0598547e-09
2.3706581e-09
2.8570325e-09
3.2992013e-09
3.9842713e-09
4.5638054e-09
5.4586287e-09
6.1855695e-09
7.3138712e-09
8.1974633e-09
9.5778232e-09
1.0619475e-08
1.2241248e-08
1.3439042e-08
1.5304293e-08
1.6657012e-08
1.8776661e-08
2.028126e-08
2.2663985e-08
2.433132e-08
2.6980205e-08
2.879174e-08
3.1656522e-08
3.3581197e-08
3.66084e-08
3.863544e-08
4.1795059e-08
4.3928128e-08
4.7242594e-08
4.9464697e-08
5.2912596e-08
5.5251723e-08
5.8853119e-08
6.1243295e-08
6.4939062e-08
6.7380283e-08
7.111702e-08
7.3601949e-08
7.7380534e-08
7.9838143e-08
8.3521274e-08
8.5954841e-08
8.9551018e-08
9.1998399e-08
9.5681719e-08
9.8171667e-08
1.018982e-07
1.0437878e-07
1.0910987e-07
6.6159732e-10
6.9397993e-10
7.1313311e-10
7.4723228e-10
7.6810193e-10
8.0416822e-10
8.2822094e-10
8.6600923e-10
8.9855745e-10
9.3814683e-10
9.7893518e-10
1.0197113e-09
1.0693223e-09
1.1110891e-09
1.1715851e-09
1.2239176e-09
1.3069375e-09
1.3988362e-09
1.5412437e-09
1.7439994e-09
2.0094758e-09
2.4287051e-09
2.8923327e-09
3.5642666e-09
4.369159e-09
5.3110629e-09
6.5442715e-09
7.7340998e-09
9.4548001e-09
1.0997613e-08
1.3229141e-08
1.5112459e-08
1.7908192e-08
2.0134905e-08
2.3552469e-08
2.6120979e-08
3.0183855e-08
3.3079261e-08
3.7667656e-08
4.0914962e-08
4.6037746e-08
4.9612889e-08
5.5278555e-08
5.9155076e-08
6.5372795e-08
6.956959e-08
7.6312406e-08
8.0769946e-08
8.7900639e-08
9.2537003e-08
9.9934106e-08
1.0471825e-07
1.1227326e-07
1.1723235e-07
1.2499452e-07
1.300794e-07
1.3803734e-07
1.4330209e-07
1.5140642e-07
1.5674154e-07
1.6497353e-07
1.7034301e-07
1.7855366e-07
1.8397681e-07
1.9219677e-07
1.9751224e-07
2.054267e-07
2.1064772e-07
2.1821394e-07
2.2345518e-07
2.3118155e-07
2.3645269e-07
2.4418406e-07
2.4942006e-07
2.5905579e-07
6.7562027e-10
7.0186375e-10
7.3173962e-10
7.90588e-10
8.3480679e-10
9.1097515e-10
9.7677848e-10
1.0518233e-09
1.1412076e-09
1.2101769e-09
1.3051091e-09
1.3768836e-09
1.4839827e-09
1.583909e-09
1.744349e-09
1.9527594e-09
2.2958473e-09
2.757195e-09
3.5029343e-09
4.3604522e-09
5.5697634e-09
7.1969009e-09
8.893661e-09
1.1404378e-08
1.3703584e-08
1.7265998e-08
2.0182758e-08
2.4631022e-08
2.8520463e-08
3.4170982e-08
3.8830301e-08
4.5483508e-08
5.1359136e-08
5.8509778e-08
6.6076123e-08
7.3333142e-08
8.2896241e-08
9.0056929e-08
1.0096919e-07
1.087421e-07
1.20586e-07
1.2882576e-07
1.4176365e-07
1.5038716e-07
1.6426298e-07
1.7337759e-07
1.880392e-07
1.9753669e-07
2.1276038e-07
2.2250831e-07
2.3809681e-07
2.4800527e-07
2.6368069e-07
2.7384387e-07
2.8966301e-07
2.9999727e-07
3.161194e-07
3.2669934e-07
3.4282792e-07
3.5359674e-07
3.6991275e-07
3.8073002e-07
3.9700557e-07
4.0796096e-07
4.2425817e-07
4.3499822e-07
4.5066814e-07
4.6114729e-07
4.7593832e-07
4.8659649e-07
5.0170254e-07
5.1248698e-07
5.2772833e-07
5.3855227e-07
5.5776546e-07
7.2724924e-10
8.8965102e-10
9.7001085e-10
1.1186021e-09
1.1909902e-09
1.3241242e-09
1.3954116e-09
1.5140029e-09
1.6029043e-09
1.6826007e-09
1.8052499e-09
1.9679805e-09
2.2343775e-09
2.6529038e-09
3.3255338e-09
4.2847167e-09
5.8044105e-09
7.56038e-09
1.0348397e-08
1.3092482e-08
1.7504586e-08
2.1429346e-08
2.7173646e-08
3.3488071e-08
4.0422457e-08
4.9335563e-08
5.707766e-08
6.8765381e-08
7.77772e-08
9.2205494e-08
1.0236827e-07
1.1910578e-07
1.3051896e-07
1.4937967e-07
1.6204646e-07
1.830052e-07
1.9684152e-07
2.1857298e-07
2.3537991e-07
2.5670695e-07
2.760452e-07
2.9656373e-07
3.1996622e-07
3.3802301e-07
3.651129e-07
3.8303813e-07
4.1133176e-07
4.2988129e-07
4.5929561e-07
4.7837643e-07
5.085178e-07
5.2785724e-07
5.5810586e-07
5.779115e-07
6.0810841e-07
6.2847679e-07
6.5982816e-07
6.8089291e-07
7.1257021e-07
7.3455711e-07
7.668726e-07
7.893108e-07
8.220869e-07
8.4517218e-07
8.7827986e-07
9.0106503e-07
9.3320627e-07
9.5526692e-07
9.8564457e-07
1.0087867e-06
1.0401232e-06
1.0646796e-06
1.09826e-06
1.1243321e-06
1.1703631e-06
7.5299129e-10
1.0286364e-09
1.1333867e-09
1.3827715e-09
1.4606894e-09
1.6541602e-09
1.7272384e-09
1.8965053e-09
2.0462252e-09
2.3148364e-09
2.7513444e-09
3.4868024e-09
4.6318533e-09
6.3214526e-09
8.9004795e-09
1.2073904e-08
1.7072672e-08
2.2091537e-08
3.0253336e-08
3.7465699e-08
4.9416782e-08
5.9076448e-08
7.5274811e-08
8.7460039e-08
1.0800818e-07
1.2266395e-07
1.4628793e-07
1.6560688e-07
1.8995218e-07
2.1685886e-07
2.39302e-07
2.7296585e-07
2.9585733e-07
3.3320578e-07
3.5783389e-07
3.9849136e-07
4.2483013e-07
4.6793496e-07
4.9582581e-07
5.4151022e-07
5.7098943e-07
6.193602e-07
6.5116625e-07
6.9705677e-07
7.3877427e-07
7.7941069e-07
8.293784e-07
8.6822572e-07
9.246793e-07
9.63409e-07
1.0228011e-06
1.062021e-06
1.1217651e-06
1.1623965e-06
1.2232402e-06
1.2678965e-06
1.3366e-06
1.3845324e-06
1.4553863e-06
1.5054924e-06
1.5767037e-06
1.6286015e-06
1.7007667e-06
1.7570004e-06
1.8294763e-06
1.8838355e-06
1.9575635e-06
2.0094458e-06
2.0829109e-06
2.1426384e-06
2.2259778e-06
2.2998836e-06
2.404196e-06
2.4841982e-06
2.621848e-06
7.0657278e-10
7.8017026e-10
8.4637157e-10
9.9719122e-10
1.0993263e-09
1.2928125e-09
1.5284492e-09
1.9511429e-09
2.6817581e-09
3.8869875e-09
5.7309311e-09
8.4627983e-09
1.2300787e-08
1.7572698e-08
2.5518232e-08
3.3938582e-08
4.7647549e-08
5.9883249e-08
8.0418836e-08
9.6906647e-08
1.2485619e-07
1.4570469e-07
1.8127758e-07
2.0631434e-07
2.4898135e-07
2.7785584e-07
3.2720567e-07
3.5985708e-07
4.1536638e-07
4.5155781e-07
5.098903e-07
5.5705715e-07
6.0917718e-07
6.7248999e-07
7.2054222e-07
7.9354772e-07
8.4291439e-07
9.2274611e-07
9.7589414e-07
1.0623751e-06
1.1199206e-06
1.2140491e-06
1.2752117e-06
1.3766513e-06
1.4458067e-06
1.5572402e-06
1.6335228e-06
1.7464084e-06
1.846839e-06
1.942435e-06
2.0671755e-06
2.1527189e-06
2.2817437e-06
2.3817146e-06
2.5422658e-06
2.6619222e-06
2.8589209e-06
2.977088e-06
3.1446038e-06
3.2666299e-06
3.4484894e-06
3.5756901e-06
3.7591816e-06
3.915892e-06
4.1029043e-06
4.2437842e-06
4.4684014e-06
4.5851492e-06
4.8603736e-06
5.0484716e-06
5.4240354e-06
5.6846533e-06
6.0949701e-06
6.2853272e-06
6.647255e-06
7.8809997e-10
9.0638094e-10
1.0194113e-09
1.0991618e-09
1.2593072e-09
1.6468287e-09
2.4705966e-09
3.9635282e-09
6.3589145e-09
1.0011026e-08
1.5279318e-08
2.3040472e-08
3.3281523e-08
4.7546303e-08
6.7136499e-08
8.7078897e-08
1.1926197e-07
1.4572717e-07
1.9075658e-07
2.2426987e-07
2.8141668e-07
3.2163352e-07
3.9063098e-07
4.3705973e-07
5.1613122e-07
5.6845071e-07
6.5822541e-07
7.1703223e-07
8.1719387e-07
8.827819e-07
9.9372327e-07
1.0675879e-06
1.1850516e-06
1.2807387e-06
1.3912265e-06
1.5068004e-06
1.6266746e-06
1.7797737e-06
1.8952859e-06
2.0763685e-06
2.1997044e-06
2.4048689e-06
2.5364603e-06
2.7997889e-06
2.9640976e-06
3.2449987e-06
3.4143995e-06
3.7153715e-06
3.897744e-06
4.1786452e-06
4.4545921e-06
4.6432335e-06
5.0582267e-06
5.3797311e-06
5.9939508e-06
6.262573e-06
6.9153492e-06
7.0380742e-06
7.2627056e-06
7.6816045e-06
8.2328718e-06
8.5419625e-06
9.0863367e-06
9.6696331e-06
9.9912097e-06
1.0337171e-05
1.1085499e-05
1.1175853e-05
1.1806484e-05
1.2074567e-05
1.258036e-05
1.292464e-05
1.3351478e-05
1.3562279e-05
1.3982297e-05
7.9581378e-10
1.0060692e-09
1.1473752e-09
1.4585405e-09
2.1676708e-09
3.691797e-09
6.3536104e-09
1.0675882e-08
1.7152748e-08
2.6850505e-08
4.0275067e-08
6.0940856e-08
8.4544848e-08
1.218755e-07
1.5737054e-07
2.0481738e-07
2.6747596e-07
3.2074406e-07
4.0745102e-07
4.6924317e-07
5.7258395e-07
6.4456108e-07
7.667339e-07
8.4860585e-07
9.8669855e-07
1.0818707e-06
1.2444575e-06
1.3535979e-06
1.5397477e-06
1.6694346e-06
1.8890626e-06
2.0378356e-06
2.2709081e-06
2.4700516e-06
2.6684287e-06
2.9658087e-06
3.2853001e-06
3.5720433e-06
3.9001397e-06
4.3025649e-06
4.5789876e-06
5.1589735e-06
5.4049595e-06
6.4513406e-06
6.683881e-06
7.4114772e-06
7.7029933e-06
8.6629731e-06
8.9180655e-06
9.8981674e-06
1.0206826e-05
1.0681119e-05
1.1603905e-05
1.1795093e-05
1.2439776e-05
1.2729314e-05
1.4133342e-05
1.3685435e-05
1.3932081e-05
1.4684787e-05
1.4579516e-05
1.4804104e-05
1.5307178e-05
1.5349144e-05
1.4550537e-05
1.4940265e-05
1.4212515e-05
1.3925068e-05
1.4079297e-05
1.4084448e-05
1.3705369e-05
1.3555861e-05
1.2472654e-05
1.2540703e-05
1.1843353e-05
7.3931726e-10
9.3209465e-10
1.3209408e-09
2.4995272e-09
4.9429263e-09
9.3784802e-09
1.6508119e-08
2.7515462e-08
4.340179e-08
6.7373021e-08
9.8399036e-08
1.4652322e-07
1.9541095e-07
2.7285401e-07
3.3728655e-07
4.476426e-07
5.3191693e-07
6.5410959e-07
7.8829074e-07
9.0623096e-07
1.0749296e-06
1.2101968e-06
1.4223309e-06
1.5727891e-06
1.8300441e-06
2.0206546e-06
2.3423572e-06
2.5583614e-06
2.9627594e-06
3.2541986e-06
3.742873e-06
4.0587286e-06
4.5970986e-06
4.970586e-06
5.5618313e-06
6.5856276e-06
7.1403373e-06
7.7926659e-06
8.9099032e-06
9.4088932e-06
1.0355329e-05
1.139023e-05
1.1726064e-05
1.3187368e-05
1.3107869e-05
1.4023761e-05
1.3893544e-05
1.5001554e-05
1.4499476e-05
1.5572248e-05
1.4104458e-05
1.4180419e-05
1.3501566e-05
1.27019e-05
1.2671169e-05
1.2600077e-05
1.1554087e-05
1.0678352e-05
1.1474826e-05
1.0709781e-05
9.9903136e-06
9.2956442e-06
8.86299e-06
8.1929153e-06
7.2226671e-06
7.1465261e-06
5.4802622e-06
6.1282246e-06
5.5508897e-06
5.862039e-06
4.9241158e-06
4.3750341e-06
3.6823792e-06
3.8723657e-06
3.4255675e-06
6.9681285e-10
1.0398109e-09
2.4737213e-09
5.9698499e-09
1.2535193e-08
2.3544463e-08
4.0642745e-08
6.6273344e-08
1.0189147e-07
1.5881286e-07
2.2050165e-07
3.161441e-07
4.1334979e-07
5.4584116e-07
6.6798695e-07
8.6342149e-07
1.0048612e-06
1.2466172e-06
1.4226528e-06
1.687592e-06
1.9340411e-06
2.261786e-06
2.6026081e-06
2.9369168e-06
3.5120714e-06
3.923231e-06
4.6326784e-06
5.0685514e-06
6.2600505e-06
6.8905878e-06
7.9772509e-06
8.6908305e-06
9.9433285e-06
1.083886e-05
1.1805276e-05
1.2959216e-05
1.3199847e-05
1.3866404e-05
1.4628689e-05
1.43068e-05
1.5276277e-05
1.351825e-05
1.3791355e-05
1.230325e-05
1.2370746e-05
1.1098881e-05
1.0938524e-05
1.0070065e-05
9.04415e-06
7.5023936e-06
5.9827377e-06
6.2682922e-06
5.1211457e-06
4.2951802e-06
4.2918866e-06
4.5509613e-06
3.2126461e-06
3.2938449e-06
4.4070979e-06
3.1963734e-06
2.95404e-06
3.125195e-06
2.7092952e-06
1.9960763e-06
2.0663046e-06
1.9136672e-06
1.6347422e-06
2.3403561e-06
2.1749452e-06
1.8770091e-06
1.3211434e-06
1.1399527e-06
1.1009967e-06
1.1879993e-06
1.0803341e-06
6.8687602e-10
1.9636161e-09
6.2033354e-09
1.4989495e-08
3.0759776e-08
5.5861869e-08
9.3470471e-08
1.4904784e-07
2.2177377e-07
3.3960266e-07
4.5137061e-07
6.2488023e-07
8.1156665e-07
1.0012747e-06
1.2698421e-06
1.5565365e-06
1.8276245e-06
2.26358e-06
2.5871324e-06
3.1025734e-06
3.628048e-06
4.3497657e-06
4.9875757e-06
5.9516046e-06
7.354721e-06
8.2690093e-06
9.8274466e-06
1.0670668e-05
1.2333144e-05
1.2820894e-05
1.3533129e-05
1.4150641e-05
1.4449943e-05
1.4159707e-05
1.3381536e-05
1.2058248e-05
1.1832631e-05
1.0748135e-05
8.9292133e-06
8.3402354e-06
7.3074486e-06
5.2320035e-06
5.932369e-06
4.0122955e-06
5.4069749e-06
3.7212326e-06
4.120689e-06
3.0651173e-06
2.5943837e-06
2.0282637e-06
1.5663987e-06
1.7309485e-06
1.372418e-06
1.5601748e-06
1.6250495e-06
1.5362144e-06
1.0855598e-06
1.459606e-06
2.405779e-06
1.5961228e-06
1.2822143e-06
1.6626007e-06
1.4475853e-06
1.2653144e-06
1.2877659e-06
1.1078402e-06
1.3149368e-06
1.8679279e-06
1.7736281e-06
9.7646421e-07
8.3242219e-07
7.6855751e-07
7.1868253e-07
7.1917936e-07
7.4252466e-07
7.17434e-10
4.9671937e-09
1.5536e-08
3.5993705e-08
7.0835204e-08
1.2375519e-07
2.0017605e-07
3.1447875e-07
4.4676455e-07
6.6309859e-07
8.5571648e-07
1.1752616e-06
1.4418997e-06
1.8299982e-06
2.3254372e-06
2.745377e-06
3.410162e-06
4.184137e-06
4.887395e-06
6.1059185e-06
7.4419403e-06
8.9955171e-06
1.0370795e-05
1.190053e-05
1.2781944e-05
1.3702703e-05
1.4058864e-05
1.3906011e-05
1.2944019e-05
1.2000198e-05
9.7257224e-06
9.621652e-06
7.5291146e-06
7.0339321e-06
4.8596419e-06
4.2887491e-06
4.5338687e-06
3.465397e-06
2.7069669e-06
2.6602165e-06
1.888051e-06
1.4293471e-06
1.978253e-06
1.4815934e-06
3.0842063e-06
1.2566602e-06
2.1057613e-06
9.480053e-07
9.2536495e-07
9.2569127e-07
9.6150568e-07
9.9408315e-07
9.2453135e-07
9.7020771e-07
1.3035193e-06
1.2100708e-06
8.9985156e-07
1.0834283e-06
1.6413135e-06
1.2927468e-06
1.0652704e-06
1.2016174e-06
1.0869957e-06
1.4373692e-06
1.3847061e-06
9.495969e-07
1.3854458e-06
1.9306649e-06
1.0745931e-06
8.4869641e-07
8.3280792e-07
8.0546514e-07
7.423942e-07
7.3217935e-07
7.6587778e-07
8.4257573e-10
1.2327754e-08
3.6774247e-08
8.1200163e-08
1.5232634e-07
2.5542303e-07
3.9963561e-07
6.0660654e-07
8.3887278e-07
1.2094213e-06
1.5433805e-06
2.0890854e-06
2.5680899e-06
3.406394e-06
4.1953911e-06
5.151794e-06
6.8015138e-06
8.245527e-06
9.9010437e-06
1.1927819e-05
1.2692746e-05
1.3770771e-05
1.3209168e-05
1.2838017e-05
1.1243155e-05
9.6778041e-06
8.6326327e-06
7.4329551e-06
4.7994078e-06
4.1833029e-06
3.1772165e-06
3.3829804e-06
2.1854451e-06
1.9682942e-06
1.3039598e-06
1.7852179e-06
1.5471744e-06
1.2568675e-06
1.2634955e-06
1.1843866e-06
6.5011019e-07
6.8607728e-07
8.8550328e-07
1.0029173e-06
1.3767831e-06
1.2199426e-06
1.3117028e-06
7.893647e-07
8.4805659e-07
9.5401425e-07
1.1124846e-06
9.4050948e-07
9.408723e-07
1.0994234e-06
1.378125e-06
1.2281644e-06
9.1781564e-07
1.1360696e-06
1.3750833e-06
1.2478809e-06
9.9780653e-07
1.1006447e-06
1.0892577e-06
1.4954299e-06
1.2303533e-06
9.0103368e-07
1.2670459e-06
1.7873434e-06
8.6914384e-07
7.918272e-07
8.5918768e-07
8.4719204e-07
8.8172434e-07
8.3592543e-07
8.5580282e-07
2.0634551e-09
2.880619e-08
8.1522791e-08
1.7115341e-07
3.0581117e-07
4.9268925e-07
7.498252e-07
1.0894635e-06
1.5090786e-06
2.129656e-06
2.7456358e-06
3.7375233e-06
4.7109733e-06
6.5971021e-06
8.140125e-06
1.0534656e-05
1.1731116e-05
1.2856566e-05
1.3392928e-05
1.3080045e-05
1.1013076e-05
9.378255e-06
6.3570505e-06
5.4655132e-06
3.9837281e-06
3.4312061e-06
3.0605587e-06
2.3263103e-06
1.3819747e-06
1.2217457e-06
1.4679145e-06
1.4401355e-06
7.3691399e-07
5.324213e-07
4.2370267e-07
9.7437078e-07
8.1861852e-07
6.3667792e-07
1.0996607e-06
8.9616536e-07
5.1546943e-07
6.8691254e-07
6.6304061e-07
8.8367286e-07
1.0103158e-06
9.2234767e-07
1.2884777e-06
9.0923124e-07
9.472443e-07
1.1254474e-06
1.1649558e-06
1.0045763e-06
1.0122869e-06
1.1113234e-06
1.2727168e-06
1.1127453e-06
9.2716287e-07
1.1152201e-06
1.268298e-06
1.2837939e-06
1.0602058e-06
1.3601737e-06
1.2192577e-06
1.0625083e-06
1.1640349e-06
9.6690882e-07
1.1260038e-06
1.4144511e-06
9.0269218e-07
8.5481725e-07
8.6010846e-07
8.7701592e-07
9.6834688e-07
9.3969069e-07
9.5251685e-07
5.3442263e-09
6.5024714e-08
1.7076489e-07
3.3793042e-07
5.7468821e-07
8.9289401e-07
1.3320592e-06
1.8951799e-06
2.7008006e-06
3.7601165e-06
5.0186691e-06
7.1463851e-06
9.2678648e-06
1.1535964e-05
1.27644e-05
1.2995787e-05
1.1707893e-05
9.7372487e-06
8.1197619e-06
6.1434534e-06
3.9476981e-06
3.1533168e-06
1.8653481e-06
1.8488108e-06
1.4080379e-06
1.619853e-06
1.234551e-06
1.3580596e-06
8.8415875e-07
5.7805654e-07
8.5271774e-07
6.2615743e-07
4.3537144e-07
3.6784186e-07
3.4762517e-07
7.4848725e-07
5.2849781e-07
4.6053037e-07
1.0920794e-06
7.6841708e-07
4.9447654e-07
8.3851501e-07
7.298716e-07
8.6400585e-07
1.2387951e-06
9.5547589e-07
1.2885183e-06
9.9340448e-07
1.1428282e-06
1.2442713e-06
1.2445251e-06
1.1569613e-06
1.0351325e-06
1.055939e-06
1.249678e-06
1.1671147e-06
1.0759287e-06
1.1720818e-06
1.1669641e-06
1.7187432e-06
1.3035411e-06
1.2134083e-06
1.0872768e-06
1.0617358e-06
9.9965027e-07
9.3249785e-07
1.0703107e-06
1.1966474e-06
9.0628877e-07
9.8544624e-07
9.4816855e-07
9.6349844e-07
9.4429691e-07
9.6929633e-07
1.0579288e-06
1.8010079e-08
1.3940478e-07
3.3740662e-07
6.2645686e-07
1.0188909e-06
1.5459274e-06
2.2861521e-06
3.3540247e-06
4.914563e-06
7.0553351e-06
9.8646958e-06
1.153099e-05
1.2274173e-05
1.191293e-05
9.8306228e-06
6.4641541e-06
4.7932889e-06
3.8659335e-06
3.1689765e-06
2.0916072e-06
1.2332882e-06
9.4919301e-07
5.5318168e-07
6.6227664e-07
7.9402751e-07
1.044664e-06
9.1731553e-07
8.3866546e-07
7.1669594e-07
5.295064e-07
6.6595297e-07
6.5456921e-07
4.0469567e-07
4.14892e-07
3.7298222e-07
6.2944008e-07
5.3141204e-07
4.3850941e-07
6.0502014e-07
6.1103815e-07
5.1222648e-07
9.3297105e-07
9.7183622e-07
8.2792945e-07
1.3221187e-06
1.0728311e-06
1.2327992e-06
8.4345582e-07
8.3292303e-07
1.449513e-06
1.209133e-06
1.2725245e-06
1.0283607e-06
1.09629e-06
1.0797122e-06
1.2712802e-06
1.2199059e-06
1.3622098e-06
1.0976198e-06
2.088513e-06
1.3683814e-06
1.2221111e-06
1.0828134e-06
1.0355422e-06
9.4887436e-07
9.7397944e-07
9.6509656e-07
1.0429605e-06
9.8980108e-07
1.0809161e-06
9.7386518e-07
9.9780673e-07
9.7088009e-07
9.8076763e-07
1.0737726e-06
4.9155928e-08
2.8233532e-07
6.2695289e-07
1.0956916e-06
1.7285866e-06
2.6209955e-06
3.9995312e-06
6.1783876e-06
9.6277094e-06
1.0978399e-05
1.1901653e-05
1.0579586e-05
7.3082565e-06
5.4848085e-06
3.5762026e-06
2.0092276e-06
1.6650322e-06
1.6456262e-06
9.9598004e-07
6.0953512e-07
6.3401392e-07
4.9431896e-07
3.8649538e-07
5.2133307e-07
6.371462e-07
8.6250333e-07
1.1880763e-06
7.3980052e-07
6.9127173e-07
4.8865588e-07
5.6953317e-07
4.5055754e-07
3.9859581e-07
5.1439016e-07
4.2743206e-07
5.699062e-07
4.9254693e-07
4.2707644e-07
6.507053e-07
5.5190162e-07
4.9783326e-07
1.1111192e-06
1.5998451e-06
1.2176642e-06
1.1788408e-06
1.0517585e-06
1.1070247e-06
8.3417491e-07
7.5740593e-07
1.7193502e-06
1.1445312e-06
1.277221e-06
9.318246e-07
1.2104293e-06
1.0411711e-06
1.4930004e-06
1.4292965e-06
1.2724416e-06
1.0151824e-06
1.7974135e-06
1.2526127e-06
1.1931157e-06
1.5266077e-06
1.1173903e-06
1.1157147e-06
9.8943322e-07
1.0468725e-06
9.272043e-07
1.035235e-06
1.1306083e-06
9.8707015e-07
9.8897542e-07
1.0637878e-06
1.0663314e-06
1.0779268e-06
1.19993e-07
5.4054666e-07
1.1005774e-06
1.8307435e-06
2.8732362e-06
4.4977393e-06
7.4529188e-06
1.0228401e-05
1.2305961e-05
1.0044995e-05
6.699139e-06
4.6050369e-06
2.8775439e-06
2.1199702e-06
1.0324713e-06
5.2398278e-07
6.2581608e-07
7.9531852e-07
4.2646624e-07
3.7573722e-07
6.2952822e-07
3.7404397e-07
3.830263e-07
4.6199037e-07
5.5989871e-07
7.7178299e-07
1.0511222e-06
4.9085104e-07
7.0164809e-07
5.175785e-07
5.0294521e-07
4.3745688e-07
4.3284755e-07
5.0927492e-07
4.3360829e-07
5.7656729e-07
4.7228463e-07
4.6103407e-07
6.7310134e-07
5.8644481e-07
5.5531758e-07
1.3038008e-06
1.8048236e-06
1.8388581e-06
1.3161692e-06
1.1669113e-06
1.051146e-06
8.3196058e-07
8.1194016e-07
1.0798178e-06
9.1063066e-07
1.0215191e-06
8.9281957e-07
1.047165e-06
1.1642366e-06
1.9092887e-06
1.769873e-06
1.2985533e-06
1.0868684e-06
2.3620058e-06
1.3888725e-06
1.3312011e-06
1.4033195e-06
1.1696454e-06
1.3248313e-06
1.0271594e-06
1.00219e-06
8.7766562e-07
1.0638209e-06
1.0930804e-06
1.022927e-06
9.7870301e-07
1.1698853e-06
1.1911775e-06
1.1126494e-06
2.7059299e-07
9.7997845e-07
1.8432417e-06
2.9761246e-06
4.8413566e-06
8.2267591e-06
1.0261572e-05
1.0403745e-05
7.9844392e-06
4.2300578e-06
2.7966708e-06
1.664118e-06
1.029869e-06
7.0607405e-07
2.9502226e-07
1.8833459e-07
3.6354182e-07
5.2570825e-07
3.3870595e-07
3.335606e-07
5.5664055e-07
3.3110644e-07
4.708916e-07
4.4962036e-07
6.2953241e-07
6.7978569e-07
7.2795569e-07
4.6315867e-07
5.8120987e-07
4.9304169e-07
4.4228397e-07
4.6724863e-07
4.617244e-07
4.3714535e-07
4.7339208e-07
6.1102037e-07
5.179023e-07
4.9406363e-07
6.4619909e-07
7.4268162e-07
6.3979361e-07
1.3337408e-06
2.4469215e-06
1.6826081e-06
9.592799e-07
1.0182155e-06
1.0247346e-06
8.6677153e-07
8.0267192e-07
7.9071626e-07
7.7761319e-07
1.1086318e-06
8.8184126e-07
1.2171265e-06
2.611198e-06
2.0789367e-06
1.91336e-06
1.4263689e-06
1.1288631e-06
1.5859664e-06
1.4172752e-06
1.5338457e-06
1.4827262e-06
1.1256921e-06
9.8408976e-07
9.4111595e-07
8.7962719e-07
8.1988091e-07
1.1600728e-06
1.0995804e-06
1.0605325e-06
1.0106138e-06
1.2193657e-06
1.2286e-06
1.1303662e-06
5.7175653e-07
1.692723e-06
2.9818132e-06
4.8506956e-06
8.6141297e-06
1.035376e-05
8.6902192e-06
5.6411615e-06
3.4045729e-06
1.3456102e-06
1.001994e-06
4.9882939e-07
4.2140873e-07
3.414719e-07
1.9257816e-07
1.5961293e-07
2.9390552e-07
4.2521132e-07
3.2254045e-07
3.195843e-07
3.1998008e-07
2.9339888e-07
4.8708817e-07
4.3441127e-07
7.3602292e-07
8.9913441e-07
7.7467173e-07
4.5998094e-07
4.8316502e-07
4.6688973e-07
4.2676466e-07
4.7490472e-07
4.7369944e-07
4.9963621e-07
7.0785497e-07
6.7863143e-07
5.3919687e-07
5.0931229e-07
4.7263871e-07
5.7338974e-07
5.6338222e-07
9.0425032e-07
1.0262154e-06
8.9850309e-07
7.7057246e-07
6.9961628e-07
9.5674678e-07
8.7232025e-07
8.0410913e-07
7.2984252e-07
7.4527682e-07
1.0468467e-06
7.689667e-07
1.3547329e-06
1.6999109e-06
1.5826258e-06
1.5331768e-06
1.3843402e-06
1.1474176e-06
1.0080923e-06
1.0218357e-06
1.3380872e-06
1.4707601e-06
1.1122144e-06
9.3582273e-07
8.6387761e-07
1.0115157e-06
8.8462934e-07
1.1486459e-06
1.1786905e-06
1.0907893e-06
1.1128571e-06
1.1911232e-06
1.198381e-06
1.1215156e-06
1.1448826e-06
2.8005613e-06
4.7641364e-06
8.2394895e-06
9.9232157e-06
7.6551505e-06
5.1319472e-06
2.9677148e-06
1.0243379e-06
3.7224964e-07
4.0871795e-07
2.155304e-07
2.3084048e-07
2.5561066e-07
1.7734984e-07
1.5920944e-07
2.6324485e-07
3.8474816e-07
3.1693676e-07
3.6267423e-07
2.9253119e-07
2.7363895e-07
3.6555113e-07
4.0119084e-07
5.0082742e-07
1.3849865e-06
8.2862491e-07
4.5716759e-07
4.9848946e-07
4.7336886e-07
4.3307451e-07
4.8065162e-07
4.4439601e-07
6.4354127e-07
1.0123773e-06
7.4292331e-07
5.6995066e-07
5.0294553e-07
4.4229896e-07
4.1237467e-07
5.401507e-07
7.2804763e-07
8.8353544e-07
8.2987538e-07
6.9185288e-07
6.4433044e-07
8.8102274e-07
7.8870685e-07
7.9896059e-07
7.1962327e-07
7.8729803e-07
8.228966e-07
7.2117299e-07
9.6981459e-07
2.4693869e-06
1.5167291e-06
1.6856264e-06
1.4472876e-06
1.1246039e-06
9.7153754e-07
1.0275661e-06
1.0872965e-06
1.3178542e-06
1.1498658e-06
1.1107077e-06
9.5205965e-07
1.0886761e-06
9.3092134e-07
1.1241153e-06
1.1868833e-06
1.160286e-06
1.2291758e-06
1.285848e-06
1.218491e-06
1.1359308e-06
2.1980483e-06
4.4706839e-06
7.7981032e-06
9.2903584e-06
6.795051e-06
4.399439e-06
2.5476145e-06
1.1322022e-06
3.0577938e-07
2.1964245e-07
2.4160079e-07
1.8183378e-07
1.8773268e-07
2.4446326e-07
1.7171068e-07
1.6174363e-07
2.4238882e-07
3.6327213e-07
3.2282661e-07
4.4979719e-07
2.9227521e-07
2.5030572e-07
3.1739812e-07
3.7344614e-07
4.7419552e-07
1.1826007e-06
6.7177493e-07
4.2114018e-07
5.7007928e-07
4.7404741e-07
4.503079e-07
4.946331e-07
4.350993e-07
6.5767654e-07
1.0664334e-06
7.65748e-07
6.6861722e-07
5.328759e-07
4.5756013e-07
4.0589582e-07
4.5947654e-07
6.3224049e-07
5.857264e-07
7.5609553e-07
6.6413547e-07
6.5278727e-07
8.5790069e-07
7.7704706e-07
6.944354e-07
7.1090728e-07
8.2329496e-07
7.9537729e-07
7.1593501e-07
8.4007375e-07
1.7265891e-06
1.3805271e-06
1.5413225e-06
1.3853936e-06
1.1474367e-06
1.0440597e-06
1.3085015e-06
1.1260694e-06
1.2895567e-06
1.1679365e-06
9.3755611e-07
7.497953e-07
8.4137814e-07
8.9676381e-07
1.213194e-06
1.3196577e-06
1.2025526e-06
1.3599574e-06
1.5025534e-06
1.341338e-06
1.2035004e-06
3.8428281e-06
7.1416717e-06
9.6459208e-06
7.171211e-06
4.0518212e-06
2.1617532e-06
9.6344486e-07
3.9210632e-07
2.1499791e-07
2.2290185e-07
1.9894824e-07
1.8327686e-07
1.7437061e-07
2.3512713e-07
1.7020335e-07
1.6514507e-07
2.2466031e-07
3.4423402e-07
3.3563947e-07
5.3553982e-07
3.0865876e-07
2.4371842e-07
2.9581786e-07
3.5331627e-07
4.7953576e-07
6.6886071e-07
4.9709113e-07
4.0733872e-07
6.7080647e-07
6.4337639e-07
4.8053653e-07
5.3825266e-07
4.5126076e-07
5.5407173e-07
8.9648687e-07
7.5801019e-07
6.0362939e-07
5.5873822e-07
5.2883828e-07
4.6759895e-07
4.6952294e-07
5.7033013e-07
5.3085666e-07
5.9555137e-07
6.0499018e-07
6.6698288e-07
8.5304034e-07
7.7676942e-07
6.9497196e-07
7.3525621e-07
8.9311584e-07
8.2563086e-07
7.2785742e-07
8.3173539e-07
9.3034112e-07
1.4100559e-06
1.6333054e-06
1.5717154e-06
1.2375971e-06
1.1277049e-06
1.11157e-06
1.1332453e-06
1.3003069e-06
1.2760331e-06
9.9021961e-07
6.8178322e-07
7.4124424e-07
9.5196063e-07
1.1447307e-06
1.3550435e-06
1.2525588e-06
1.4240133e-06
1.5468252e-06