/*--------------------------------*- C++ -*----------------------------------*\
| =========                 |                                                 |
| \\      /  F ield         | OpenFOAM: The Open Source CFD Toolbox           |
|  \\    /   O peration     | Version:  2.3.0                                 |
|   \\  /    A nd           | Web:      www.OpenFOAM.org                      |
|    \\/     M anipulation  |                                                 |
\*---------------------------------------------------------------------------*/
FoamFile
{
    version     2.0;
    format      ascii;
    class       volScalarField;
    location    "3.2e-05";
    object      p;
}
// * * * * * * * * * * * * * * * * * * * * * * * * * * * * * * * * * * * * * //

dimensions      [1 -1 -2 0 0 0 0];

internalField   nonuniform List<scalar> 
7500
(
-16178.288
-8657.9003
-5880.5962
-2926.3711
152.61291
3207.7563
2151.5355
3412.1973
1679.3942
4299.437
54.332887
2733.0672
465.17239
2278.0878
1538.5753
207.15369
2531.4008
67.597316
4625.9082
-1737.443
4362.2307
-1939.2228
4461.1251
-1105.4054
3277.7257
1853.9344
1334.6824
3285.1021
-961.49807
2679.2712
-1819.6612
3855.6301
199.62871
4749.1891
2315.5058
2418.1595
2977.1218
1172.7462
3293.9135
1493.2451
3514.8718
1334.1022
3835.6302
2653.8298
3701.5522
2101.7391
832.66258
3030.4848
636.2375
4339.4966
2507.9241
2479.7565
1517.2317
-2363.4799
-1369.181
-5942.9073
-7438.0717
-3550.1582
2028.1839
6776.5233
5747.1417
5105.3658
7033.6702
8092.8411
6719.0835
4240.2325
4863.2874
5719.4436
5951.5357
3924.4008
4012.8457
8244.8761
9392.1859
6025.1748
119.92392
-16120.17
-8511.1833
-6020.9891
-2804.2292
197.67814
3041.5789
2097.7343
3270.6398
1583.4146
4512.3398
267.75322
2516.56
698.20487
1857.5209
1868.0567
33.68317
2689.6736
-4.3278566
4568.5921
-1630.1695
4157.2762
-1531.9788
3940.7477
-580.13751
2841.094
2169.5084
1136.5664
3263.6158
-832.10871
2491.9481
-1478.6297
3611.1741
436.40075
4290.2102
2662.6495
2250.021
3108.9932
1236.327
3067.0406
1641.2745
3399.1824
1572.2613
3528.7929
2961.7829
3350.6676
2305.6153
899.30795
2667.1888
1406.6841
3752.6326
2505.112
2486.1869
1697.1234
-2076.032
-2187.0953
-5644.0558
-7141.3141
-3288.7488
1894.8538
5802.1588
6217.6054
6150.1696
6600.6086
7104.2738
7253.7656
5166.2677
4458.3741
5155.8707
5680.006
4228.4811
4571.2193
8336.796
9009.1844
5730.1906
215.96692
-16410.984
-8374.6851
-5708.1444
-2732.6463
243.24583
2997.4819
1934.0084
2935.2354
1916.196
4079.007
965.73639
2089.4291
980.06821
1546.1724
1992.9122
77.333594
2522.6654
402.82303
3932.1349
-968.40367
3455.7852
-765.19332
3275.7325
-170.41258
2688.5001
2187.6002
1282.7691
2805.4739
-306.67726
1896.2283
-826.7257
3134.7515
923.78137
3850.8779
2718.4472
2404.5721
2888.3857
1623.4179
2479.2434
2113.0076
3081.1751
1886.8322
3488.8535
3013.001
3231.375
2046.6565
1331.9191
2094.5161
1961.5397
3505.3366
2685.1674
2589.0211
1261.0299
-1560.8857
-2802.8735
-5615.0076
-6695.0089
-3066.5487
1860.1713
4712.6996
6229.6045
7351.2273
6674.4399
6094.409
6971.1316
6093.0948
4706.8646
4870.442
5298.5776
4102.4842
5275.6324
8573.178
8495.6662
5297.4992
302.81987
-16963.861
-8204.3346
-5245.192
-2516.8252
322.38261
2756.7839
1953.8119
2424.8717
2458.38
3442.6866
1795.7639
1558.0307
1354.7222
1223.3641
1998.907
314.00318
2170.7304
926.29995
3203.312
-180.4202
2558.7131
290.47972
2343.3418
378.94972
2526.5854
2077.0134
1700.2897
2099.4879
389.58044
1116.0822
-24.463104
2524.3501
1558.5259
3422.1823
2681.946
2701.8586
2392.5834
2272.7393
1718.4325
2598.3715
2804.7821
2215.1115
3531.4349
2957.3697
3230.3772
1699.0986
1737.3179
1566.0789
2493.1285
3192.0302
2985.1435
2828.6864
608.5299
-1103.8548
-3285.5488
-5777.3169
-6149.4011
-2708.5657
1712.5529
3663.3728
6208.3251
8314.4688
7014.8557
5483.9667
6319.2441
6705.5659
5120.5782
4720.2295
4880.5812
3955.745
6146.7346
8829.9461
7851.9109
4740.1396
382.35169
-17621.193
-8029.7691
-4755.8925
-2125.1907
412.83479
2305.1815
2151.9452
1856.53
2985.9327
2920.9741
2445.5372
1147.0094
1723.3035
813.28369
2148.9629
438.21066
1902.1881
1418.5576
2426.3593
642.71346
1685.1922
1367.9233
1415.6811
906.02968
2328.3623
2005.2364
2066.7789
1529.6441
958.46626
398.00937
742.05281
1805.0066
2283.2542
3053.2417
2705.7685
2939.0531
1881.9848
2837.1823
1063.1708
2906.8994
2622.995
2728.8497
3419.7872
2968.0194
3110.4247
1560.434
1869.1964
1151.7426
3111.3897
2784.9353
3447.7895
2939.0115
41.837182
-788.59275
-3717.3875
-6069.9526
-5482.7833
-2175.0403
1189.5112
2803.0555
6400.5401
8897.1967
7504.7486
5359.5908
5601.4438
6930.9308
5510.4819
4673.9735
4375.09
3991.8558
7125.2118
8936.1878
7143.8887
4122.0795
447.98282
-18311.379
-7948.1429
-4148.4353
-1730.9504
502.91969
1825.4329
2276.2657
1468.4097
3341.7688
2602.6444
2893.2641
859.40768
1999.9138
493.77213
2267.6435
579.29057
1673.0621
1820.201
1772.8201
1182.8678
1228.4951
2062.4241
850.00766
1213.5696
2136.0948
1988.6546
2222.7392
1241.3272
1394.7868
-216.81238
1351.717
1178.0458
2815.1308
2938.9869
2832.7633
2949.2305
1639.4992
2979.6625
611.47127
3211.6722
2316.9578
3486.5607
3199.2606
3084.1038
2788.7975
1668.9993
1685.0862
911.78371
3617.2321
2483.9813
4134.2004
2740.109
-202.79458
-865.90449
-4068.1917
-6273.5856
-4738.5594
-1657.6501
189.68318
2188.9453
6760.0535
9012.1058
8147.6246
5749.0537
5052.1256
6804.1555
5705.3041
4634.8213
4003.1903
4438.948
8022.3836
8839.8464
6376.2326
3400.5115
489.29777
-19023.243
-7968.0616
-3418.4313
-1419.1095
607.4893
1389.2468
2237.4433
1327.4391
3527.4128
2436.3607
3202.8029
694.05809
2060.1044
458.99548
2164.6365
821.20639
1539.6811
1934.4577
1484.0126
1266.0857
1244.261
2363.5707
659.4598
1299.7197
2018.1982
1850.126
2320.6034
1144.9729
1753.338
-569.48874
1490.3043
947.64405
2943.7217
3060.3345
3134.0047
2807.9592
1533.21
2758.3239
346.19445
3490.145
2039.2295
4249.1547
3037.3793
3279.0773
2365.7094
1885.5633
1257.243
907.54742
3779.0207
2490.4453
4765.857
2413.6481
54.545247
-1570.3719
-4386.8205
-6128.4339
-3813.2803
-1598.3336
-1185.4002
2054.601
7079.1835
8518.8773
8640.6443
6550.8898
4929.0818
6619.4095
5626.8516
4178.0454
4042.7974
5643.7779
8625.4174
8455.1257
5674.1499
2606.9606
446.61694
-19690.007
-8031.7816
-2636.1817
-1140.9493
670.76028
1019.3665
2106.086
1297.4269
3672.5094
2394.1008
3305.9915
750.82733
1853.2825
618.0999
2016.8781
974.41883
1576.4873
1858.7977
1345.7334
1171.9347
1482.8679
2399.2008
797.90797
1165.814
2027.3376
1533.6396
2401.0457
1296.6071
1897.8926
-536.76038
1132.2078
941.74344
2912.3926
3255.1468
3552.4943
2767.9352
1442.6146
2182.8262
380.95143
3443.1263
2155.3745
4827.6916
2894.9125
3604.2727
1915.1722
2070.7241
742.0597
1080.7622
3452.9602
3123.2832
4860.1826
2269.9324
737.12975
-2759.526
-4822.9741
-5446.9262
-2338.6597
-2520.0009
-2656.1821
2688.5117
7199.379
7600.1764
8843.2264
7325.0285
5077.9198
6756.9084
5442.6508
3049.199
4775.7163
7718.1724
8870.4208
7702.774
5095.415
1954.9287
397.99698
-20247.673
-8060.226
-1871.762
-858.16933
632.1666
743.33504
1944.7301
1300.0511
3787.026
2508.7396
3190.0183
941.90466
1578.6419
753.48396
1948.51
1087.4886
1572.4396
1857.1367
1149.5971
1071.7908
1800.9119
2248.0157
1188.215
989.53777
2011.8182
1119.156
2388.5108
1644.91
2056.5416
-451.3695
702.66409
743.10531
2941.9048
3436.7142
4102.2017
2777.8413
1477.2605
1319.9117
674.18347
2919.7938
2783.5066
5154.8422
2629.3646
4367.4679
1244.6324
2355.5029
214.32272
1269.3349
2690.1
4503.6497
4063.304
2546.3085
1572.4617
-4246.021
-5307.2892
-4262.0033
-135.37537
-4837.5331
-3646.1199
3876.4183
6756.1215
6623.8135
9207.6557
7828.0953
4804.303
7462.8788
5009.8701
1346.6056
6574.9565
10077.064
8753.1079
6894.6346
4595.675
1468.5088
537.2582
-20728.016
-8019.9536
-1167.4665
-596.62114
510.03888
545.75393
1753.6011
1381.2183
3802.4855
2740.8292
3006.3265
1068.1645
1399.593
875.12518
1814.7407
1344.7302
1429.1893
1856.2202
1013.1718
963.46175
2082.7456
2033.4381
1699.9815
909.45672
1942.406
592.62605
2313.4475
2005.2033
2479.6361
-509.33038
362.75525
377.69492
2976.1611
3458.9099
4886.9221
2824.5419
1398.9913
525.24766
1100.8443
1955.3712
3801.6149
5094.2145
2070.4885
6025.0098
138.19152
3057.7105
-187.07532
1133.3684
1832.1549
6309.4248
2367.3705
3207.1931
2430.8539
-6199.4537
-5706.4804
-2326.1837
2345.9001
-8255.4965
-3393.7168
5095.2361
5354.2304
5489.6714
9981.3939
8228.8069
3685.2342
8856.2703
3363.8452
-743.95913
10040.586
11264.889
8597.3655
6375.698
4235.0222
1206.3883
746.71775
-21221.544
-7920.2177
-530.8464
-415.23626
370.95325
389.74145
1515.6618
1567.5008
3762.28
2975.2173
2848.6938
1139.066
1211.2118
1120.5027
1559.6332
1695.7701
1293.3772
1695.4732
967.16213
960.29813
2209.9662
1810.9997
2261.4007
949.68116
1882.4204
-25.0036
2093.2718
2481.6772
2980.9192
-520.90053
-53.809385
18.217975
3075.5422
3186.4311
5809.8228
3113.1051
1019.6185
50.85966
1612.6969
639.76937
5238.5101
4200.743
1359.8831
8377.3596
-1188.9045
4285.1394
-248.3199
485.66791
1019.1748
8092.5166
65.301246
3909.8876
3293.937
-8849.4833
-5891.1624
-425.70008
3822.328
-11209.046
-1561.0232
5558.1731
3422.9096
4207.7126
10373.903
8016.363
1492.462
10689.652
-383.76181
-1864.2692
12761.072
10056.231
8386.5436
5805.8506
3672.5441
1326.0518
1431.9805
-21798.487
-7758.8577
41.441795
-346.66486
259.11885
265.21122
1268.2488
1783.7131
3779.2862
3150.6131
2652.352
1278.9368
951.00541
1411.2311
1351.5655
2019.7388
1196.7522
1441.5778
888.4525
1113.2313
2279.9693
1477.0511
2832.9274
1137.5179
1807.1899
-560.4369
1541.2972
3184.8675
3453.3866
-459.52766
-500.85768
-388.46038
3238.0438
2629.503
6512.687
3564.5454
561.30172
67.214925
1892.2312
-897.95446
7122.4378
1806.7368
1137.9901
9781.0061
-2722.5484
6438.2578
-372.39954
-190.59681
8.5681774
9068.3844
-2692.957
4180.3276
2848.8583
-11882.912
-5634.3941
-49.043416
1916.2675
-8053.8744
827.04339
5684.8622
3093.0577
3685.3971
10219.201
7218.7711
1518.1337
10256.731
-2867.6382
-1225.6986
12678.128
8826.8515
8492.9195
5254.2558
3159.2908
904.75347
1398.3058
-22463.162
-7505.4248
542.10733
-369.64852
172.43113
172.60376
1066.2303
1976.1893
3856.3521
3307.67
2362.0532
1440.6897
772.58757
1581.9235
1250.0194
2395.6499
1040.8697
1171.1691
756.76774
1322.2656
2448.4304
1037.6612
3220.536
1539.5143
1663.3952
-883.3314
658.0118
3871.4796
3962.0403
-496.13507
-814.33309
-783.107
3240.0551
1756.2782
6614.8461
3552.2854
81.414467
685.72461
1494.5435
-2460.4517
8450.6831
-2664.9257
1684.6473
8192.66
-2801.8575
8781.6275
304.85958
-112.52832
-82.39882
8970.8775
-3449.2382
4256.8934
1208.0157
-12900.34
-5360.1849
-481.8028
-1510.359
-9086.6003
2663.8789
7069.6725
4318.0925
4098.0912
10756.844
7900.838
2599.9344
11422.79
-3039.4373
-379.27694
13220.185
8679.348
9022.5664
5332.0553
3547.1473
763.85578
1445.0307
-23147.073
-7135.9722
947.39481
-433.84719
102.17109
76.44646
905.55643
2221.8358
3888.0878
3493.5591
2049.1151
1467.2464
766.95501
1655.2115
1139.2173
2912.2429
846.61133
861.8012
561.53035
1535.8784
2664.8563
703.32607
3067.4767
2073.7497
1536.3275
-1106.0736
-431.28466
4205.1056
3994.883
-646.36346
-1073.4702
-1234.9502
2826.7885
512.1807
5700.4139
2195.0229
1789.5915
1557.3472
1192.8815
-2315.0484
8487.4841
-4008.8406
1983.1235
5635.135
-4989.2788
10172.06
1359.0606
697.185
866.4197
10122.651
-2447.4666
6112.7839
1618.831
-12946.866
-4570.5307
859.24524
-1966.1122
-11693.318
5568.3896
6476.9591
1978.4834
5431.2684
10341.472
4888.8712
2814.1013
11347.835
-4578.6135
949.82418
12824.784
8133.217
9257.7048
4997.8237
3574.0288
887.541
1662.6052
-23792.713
-6654.1434
1236.8949
-500.50167
73.686317
-60.607593
725.93362
2608.7737
3853.5895
3638.0523
1858.7099
1312.6881
824.61816
1734.1203
985.79362
3449.2393
730.06048
539.62002
81.917205
1800.6176
2744.9284
545.76181
2215.0239
2092.4025
1626.3676
-1501.9388
-1829.3217
3793.3592
2849.6788
-30.254356
-190.87661
-880.39417
2812.153
230.66718
4995.7816
-342.98832
2299.4995
3120.2048
1844.5928
-1412.9748
9684.8573
-2693.2801
3479.1908
5954.6599
-5664.8386
11039.761
221.86495
-965.06601
311.81846
8366.2924
-4564.3359
6166.9743
1344.4458
-14080.672
-5156.9765
-875.98004
-1503.1483
-9782.8857
2809.3067
7209.3639
3663.617
3680.807
10135.807
6245.0342
1841.9413
11737.448
-4261.3552
-741.23871
13440.145
8371.3361
9119.4337
4994.1586
3641.4138
829.05413
1578.7318
-24378.095
-6078.0136
1404.1838
-554.92313
120.97931
-221.11287
456.94491
3133.9127
3838.0581
3603.4135
1874.4577
1060.5895
811.93213
1786.9099
864.90395
3720.2488
689.04257
365.41183
-1103.7094
2015.0135
2670.1151
334.45469
367.66958
1326.9989
2548.6454
-1035.1048
-1738.0903
3684.504
1361.4245
-308.38993
798.07153
135.37134
3784.2149
1190.7826
5853.3928
-537.51169
2397.1178
2987.5338
253.95908
-2428.4589
8229.4871
-4966.1387
2465.5015
5629.7932
-5359.0564
11146.373
804.72708
673.17024
667.13844
9239.2969
-3707.255
5291.0533
421.95829
-13368.124
-4203.9605
1418.4286
-2128.6911
-10714.208
3753.8369
574.81812
1655.5386
4158.8819
9922.3213
4998.331
2797.4357
11747.755
-5359.5088
-971.99921
12745.446
8125.026
8790.5989
4712.1411
3710.6325
576.64439
1510.6382
-24866.532
-5457.7034
1473.813
-627.20094
272.2743
-390.40925
100.92864
3722.1415
3939.872
3326.6105
1997.6377
828.486
595.42855
1671.331
841.24094
3185.8086
665.11838
330.42895
-3113.8498
1653.6054
3628.6087
947.05027
-37.625871
196.91899
3260.81
-172.74727
-410.05493
4830.7857
1476.7454
-410.52421
811.9953
-1035.0475
2378.2923
-227.64223
5373.7895
-659.45531
2443.0358
3489.1524
1404.0358
-1758.9075
8798.4253
-4489.4142
2703.9842
5627.6063
-5282.3264
11511.548
-138.99442
-837.81884
551.194
8782.4775
-4462.4777
4368.9046
-1606.8816
-14391.84
-5107.8004
-958.51603
-2897.4484
-9142.4787
3867.0428
-315.90967
2831.1543
3303.4645
10080.458
3318.8236
1155.4252
11474.535
-5188.7166
-1095.6336
12540.81
7527.8119
8299.1171
4437.4177
3874.0406
595.41146
1496.1697
-25287.97
-4855.0628
1483.9447
-779.18146
574.27004
-645.62794
-220.72929
4184.237
4324.9252
2768.2732
2005.3002
733.18015
-231.30874
1408.2839
786.40773
1608.0182
1010.5293
1075.8235
-3264.434
1044.1304
4483.5723
2154.4374
1036.9336
310.96256
3161.7985
-1416.7578
-2623.2076
3891.1477
1468.0081
-388.3317
970.66309
-224.93193
3456.2565
188.12228
5281.4432
-404.09826
2173.8483
2672.6936
1003.8405
-2120.0233
8398.9434
-4804.6277
2102.0497
5653.5922
-4955.626
11723.936
-593.83258
-906.34515
608.68105
8163.2347
-4645.1663
3832.9278
-2342.5897
-13935.734
-4837.4623
1226.8334
-4339.0516
-8913.7443
4663.4111
-1356.6461
1059.0883
2967.9534
10023.968
4680.885
530.15342
10295.8
-3642.2822
-1508.983
11911.075
6474.2918
7798.005
4133.7386
3775.9116
286.72656
1567.4023
-25714.707
-4280.0065
1420.7703
-1004.9812
1007.7337
-1030.9971
-400.73428
4181.3765
5216.5388
1741.7593
1776.077
691.46974
-1869.185
1270.7713
1666.9397
1257.4524
1151.6259
1883.819
-2221.8633
1191.0939
3792.492
589.1981
26.875596
22.588596
3396.7433
-654.58369
-1506.5692
4414.073
1268.1268
-395.08365
988.32121
-760.09274
2949.2014
133.64336
5069.6788
-859.35722
2353.9193
2616.3521
1059.6508
-1642.8661
8386.5004
-4868.2582
2247.6396
5319.2929
-4766.2245
11949.457
-2278.2823
-2782.5123
-284.94448
7280.3389
-4765.951
3354.9233
-3614.0996
-15074.355
-5789.4456
-2699.8066
-6103.1935
-11635.63
7387.4112
904.46091
1164.8226
2880.7143
8633.0503
3720.9483
2820.6742
9524.9061
-734.64367
358.20079
11576.468
6175.7271
7456.9427
4378.399
3469.8485
504.42216
1844.2719
-26154.176
-3684.6344
1222.9208
-1195.5299
1374.9923
-1314.2489
-597.81416
3559.8058
6410.7611
240.19711
1219.2114
1453.3522
-1885.2377
1126.7471
2782.4726
1768.9911
1010.0808
1153.1097
-3805.7108
731.54314
4261.6126
1152.6858
581.42109
70.066688
3180.318
-1467.9959
-2406.8412
4265.5945
1059.1156
-420.57972
1018.4318
-341.99052
2977.1704
196.18212
5004.606
-1043.2673
2208.354
2213.7682
1160.0192
-1621.1305
7806.4919
-4907.6191
1868.7959
4608.2087
-4348.1255
11454.998
-5317.7937
-3175.7401
-622.80492
5931.0096
-5308.0867
2484.8983
-4039.2608
-14871.804
-6111.9188
-2155.1861
-6915.8704
-7657.3847
6098.8048
512.38603
1529.488
2296.8601
6538.2254
3383.3623
3280.1559
8836.428
701.14587
1433.1485
9880.8521
5845.2292
6976.4504
4339.0063
2873.802
360.51245
2087.7756
-26541.554
-3009.479
865.67362
-1235.8129
1383.791
-1088.3124
-1194.9119
2565.9779
6849.2825
937.55893
830.2547
2518.8847
-1140.5787
992.03669
1811.4861
1000.0842
865.17592
1725.8763
-2797.6227
916.92429
4101.2231
803.3478
362.71361
-43.06533
3272.2629
-1288.8255
-1901.8842
3920.4953
655.40365
-438.26799
635.75197
-560.03294
2748.8981
118.27298
4971.6645
-1595.864
2192.1136
2329.4226
1118.0905
-1688.3978
7580.8028
-4569.5727
2173.9639
4427.8033
-3746.2572
10254.909
-6532.886
-2533.0034
-875.57015
5106.1877
-6916.5552
2019.5537
-3847.6669
-14144.242
-6004.1236
-2498.3311
-7431.1133
-5412.1384
5312.9192
-360.79933
1261.2857
2301.5772
6787.0897
2324.8318
2894.7875
8293.054
1822.7852
2234.8199
8866.705
5708.5984
6621.7746
4221.704
2508.5199
159.64326
2159.5259
-26806.064
-2233.1382
449.91753
-1101.6657
916.28386
-326.31177
-2199.3035
2141.1761
6911.2593
2223.8354
861.57623
1842.9669
-1872.1308
894.63352
2261.3059
1258.203
897.84433
1396.1535
-3661.6067
684.72024
4131.4175
868.53111
498.1653
-97.987463
3235.6507
-1987.0103
-2365.7066
3379.3758
209.04717
-779.41499
571.73573
-395.18231
2704.5509
157.86506
5033.3568
-1915.6746
2007.2235
2194.7705
1124.4931
-1785.6374
7140.5739
-4201.5788
2420.5343
4866.0844
-2573.2023
8663.0603
-7872.4362
-1076.607
-1010.5303
4709.152
-6733.3189
1394.8361
-4157.6887
-11260.55
-6649.4309
-3148.0193
-6213.927
-3782.0849
3679.7393
-1840.2758
2039.343
370.64178
5834.443
1106.6688
2519.5064
7239.264
1851.1453
3299.1917
8075.5832
5515.7644
6307.3226
3971.9887
2148.1387
-119.7735
2250.6505
-27006.324
-1381.4242
242.28979
-860.27116
215.21621
229.44972
-1618.7994
2264.5148
7042.304
1655.8676
569.51323
1981.346
-1503.5503
872.0315
2015.6126
1119.0517
934.39195
1552.8179
-3456.3949
309.03552
4051.7283
632.14885
535.82453
-275.84416
3293.0757
-1876.0567
-2689.4457
3311.8702
-40.94835
-609.09706
385.34281
-476.90909
2589.3285
125.34954
5048.416
-2758.7861
1867.7759
1898.854
1236.9964
-1753.4471
6767.7006
-3606.5571
2605.8269
4610.7372
-1545.9522
6959.9239
-10246.026
-305.08257
-1525.1959
4625.0407
-5143.7176
270.41818
-3670.7422
-12128.954
-6754.0896
-2865.4368
-5623.9818
-2636.3932
1401.8593
-1463.7985
2859.1105
699.92031
5701.5134
2560.1199
2797.4517
6806.5052
2819.1637
3426.6693
6711.7713
5174.2801
5966.8979
3467.9995
1882.4419
-451.81016
2214.5284
-27532.407
-518.11793
579.50671
-643.01129
-104.80638
349.61727
-508.58805
2015.3091
6468.3415
1724.3852
669.28459
1923.8665
-1685.5932
843.45249
1928.1131
1099.0183
942.86401
1309.5258
-4023.8338
-149.0139
3937.5485
566.83728
669.26493
-516.37095
3213.2889
-1663.4168
-2951.7954
3567.1133
-178.71176
-848.42638
169.37734
-640.76146
2452.3223
204.21554
5043.5571
-3953.5464
1703.308
1739.6994
1332.4021
-1651.24
6337.2844
-3790.8379
2560.2528
3713.4758
-1239.7924
5387.0314
-11369.959
680.46637
-2054.6977
4744.8856
-4253.1324
-1150.9314
-3047.3118
-11205.692
-5803.3789
-1748.9292
-4602.7194
-1863.8368
799.54
-1641.4598
2371.38
1100.4872
5968.3358
3975.2134
3317.9312
6352.9531
2700.0874
3639.4652
5863.4643
4906.1684
5599.6962
2973.8883
1734.6138
-538.8838
2126.8756
-29086.586
284.7983
1458.5288
-547.94554
122.75444
348.56737
-863.55357
2110.7963
6628.5388
1639.6258
660.13795
1942.0351
-1628.0251
808.60691
1780.5843
1024.6031
910.8152
1217.8053
-4123.2034
-525.54612
3812.9902
501.74217
710.68179
-657.38785
3156.7439
-1497.2891
-3156.8824
3769.8981
-268.93567
-351.42639
-100.46213
-930.72444
2198.11
280.06903
4771.2458
-4940.7161
1695.5448
1669.3883
1559.4387
-1278.9182
5894.1223
-3397.123
2138.6225
3434.4554
-810.59518
4148.8272
-10404.724
2249.8146
-2434.0575
4714.0578
-4049.927
-1712.4573
-2827.6794
-8808.1522
-5348.3186
-5842.1117
-5520.6416
-1997.7476
1750.7495
-1591.3202
1428.1993
1294.1934
5842.9482
4909.5021
4116.288
6065.0262
3153.8638
3630.392
4867.2564
4580.6465
5180.5791
2746.4178
1804.8984
-424.64778
1950.7155
-31481.989
797.30827
1935.7382
-336.19923
189.24596
152.37345
-859.72925
2037.9195
6580.4338
1514.1593
675.21354
1935.5192
-1667.091
745.57213
1646.5325
958.88594
819.93676
1044.4863
-4440.4287
-876.22338
3690.015
488.53093
859.5949
-662.63998
3075.2889
-1417.2332
-3221.7152
3960.9827
-475.15192
-453.25487
-417.15355
-1184.342
1817.0003
394.47565
4349.9857
-5670.9847
1570.0514
1599.6844
1660.2286
-1255.0948
5441.2996
-3162.4988
2134.0348
2858.9808
-455.10928
3113.2826
-9391.0949
2086.4899
-2833.4299
4691.4504
-4052.9446
-1807.1573
-3025.5069
-9490.7408
-5218.4261
-8200.731
-8101.9881
-2280.8695
1795.9399
-2040.9938
458.22384
1233.8879
6012.6723
5264.5087
4067.2149
5828.3034
3373.3122
3105.0783
4401.6386
4246.4552
4830.618
2622.8488
2024.7
-349.00003
1741.2706
-31290.063
47.967685
1317.7167
3.9287975
161.46889
94.839092
-881.4271
1981.4024
6475.5021
1379.2079
624.80898
1908.9401
-1661.8369
641.01322
1503.3097
862.80923
683.47242
840.67287
-4630.5021
-1173.4787
3569.0304
440.74592
944.22065
-561.5752
3044.542
-1038.6552
-2972.1352
4107.976
-713.32709
-422.31291
-743.24237
-1387.9406
1689.8678
544.69234
3875.877
-5855.8021
1591.8993
1710.4409
1796.9724
-1144.8463
5004.1545
-3203.5723
1537.2038
2020.3181
-52.590449
2279.9747
-8628.303
2500.7864
-3096.386
4638.2649
-4384.6585
-3014.1618
-2826.5929
-8321.0773
-4989.8785
-6505.0184
-6665.4485
-1747.7983
1451.6249
-2028.4005
-587.03667
1046.2524
6431.4766
5311.1603
4275.0076
5968.7052
3086.6061
3259.3745
5240.218
4013.8866
4663.1543
2427.7827
2045.6088
-502.80754
1562.8084
-22076.185
-2436.7553
783.13462
156.35536
171.50361
77.238119
-871.84605
1932.4658
6307.9483
1232.7607
552.25706
1864.7473
-1691.7518
516.61149
1374.6777
752.87739
506.55166
647.41823
-4723.9268
-1394.7487
3465.1329
445.04725
1017.4777
-577.02396
2856.7828
-797.30849
-2765.0988
4199.0955
-954.42996
-377.68742
-1097.2365
-1539.6497
1679.0654
729.14471
3443.9003
-5461.8599
1611.6981
1560.566
2000.5396
-864.08032
4810.4213
-3012.6632
1610.5727
1893.4339
392.13282
1655.7224
-7397.3535
3180.752
-3258.6857
4585.5195
-4838.0813
-3871.0513
-2051.0656
-7988.6077
-3855.7114
-6242.8587
-8460.7699
-1231.6251
883.69272
-1744.2752
-1475.513
594.55867
7030.5136
5195.3718
4341.9256
5812.2353
2980.0561
3227.2242
5093.7997
3413.2402
4458.3556
2163.8468
1959.7868
-746.0489
1417.3111
-3659.1621
-3579.1236
716.17895
33.023316
176.4862
75.340758
-866.66746
1885.3921
6139.9516
1095.0804
448.56128
1805.2997
-1715.2476
343.86266
1259.3495
625.43144
304.14626
446.40335
-4751.6712
-1560.2619
3350.5289
462.01625
1123.534
-666.03854
2589.4582
-648.70926
-2575.785
4228.5504
-1101.9954
-524.00239
-1301.2235
-1462.7697
1635.9782
754.77353
3059.3667
-4769.8395
1652.4295
1534.8258
2043.069
-757.77273
4327.9554
-2926.3155
1550.7193
1390.102
725.12265
809.24495
-5917.1573
3841.0926
-3504.7092
4365.118
-4932.2465
-3226.2945
-1765.3185
-7991.2499
-3684.8188
-5535.6149
-7105.3994
-99.840246
1300.095
-1426.2374
-2814.7133
-405.4553
7697.4961
4850.3276
4340.5819
5960.9096
2794.0257
2612.6738
4810.757
2722.2655
4264.4317
1861.1352
1626.0453
-1095.4178
1292.2572
553.21488
-1832.571
646.63204
15.124316
198.46201
90.09504
-863.78052
1845.4851
5966.1302
966.55527
384.13558
1733.9724
-1751.2829
171.87928
1167.1217
491.4358
94.04995
272.0166
-4631.0845
-1660.0001
3190.8521
462.14452
1196.4693
-794.25662
2293.4512
-584.31527
-2561.4428
4208.5398
-1093.3993
-479.43719
-1133.523
-1358.9658
1527.811
646.45133
2741.3276
-3798.7872
1737.6785
1656.9828
2087.6911
-704.63169
4117.1777
-2906.9742
1009.6417
1171.8866
1135.5173
10.311513
-5007.9935
4336.2529
-3247.3051
4014.893
-4875.1113
-2117.5522
-1742.147
-7895.8339
-4428.5501
-5010.6004
-6789.3759
1487.6688
1897.9809
-1772.8804
-3125.7849
-794.15538
8803.2496
4164.8803
4073.112
5638.1252
2710.1045
1971.3048
3501.9495
2134.5097
4082.8301
1556.3463
891.04718
-1529.6284
1147.2929
-9507.7598
-823.50664
705.35867
18.039036
219.19584
101.56762
-863.93627
1804.9872
5795.5589
840.60483
304.05849
1655.293
-1799.7736
-1.901358
1093.9929
352.89786
-114.35717
102.67423
-4443.395
-1677.3505
2993.4558
458.81563
1247.114
-949.34396
1906.45
-568.79381
-2624.3243
4152.3758
-913.31982
-299.8874
-562.73445
-1168.0685
1395.6945
499.92099
2136.4408
-2939.7616
1747.8068
1750.6944
2157.139
-661.00149
3820.2701
-2700.5104
1295.4942
1119.4291
1398.5145
-765.78854
-4204.668
5145.2433
-2910.3989
3601.3697
-4710.4158
-973.93794
-1717.0191
-7866.1378
-3805.3594
-5894.8035
-7319.5746
1822.8978
2051.6692
-1868.2676
-3717.9232
-505.88971
10309.718
3398.1138
3530.5911
5658.4201
2673.9793
1451.9579
3819.3595
1545.9852
3855.265
1295.9374
71.473001
-1548.6138
1019.3285
-9057.0203
-1273.1407
714.52143
23.380789
240.13245
107.53093
-866.85497
1763.5104
5618.9881
711.05615
215.22642
1580.7772
-1842.1003
-154.9884
1037.6008
217.82978
-290.7936
-56.097503
-4139.7931
-1694.9626
2773.1696
450.74272
1328.5577
-1204.8973
1334.2856
-592.04243
-2760.0726
4024.2994
-841.61421
-143.32716
359.4402
-767.94629
1224.6708
324.62015
1386.9902
-2385.9486
1697.2126
1834.8671
2197.6228
-657.51656
3520.2991
-2436.584
1246.7251
850.80891
1644.2193
-1695.3939
-3642.6653
5705.6251
-2969.1303
3137.7089
-4279.0487
-687.38682
-1724.6016
-7622.1675
-4695.895
-6270.7212
-7482.9191
1942.8035
1919.9903
-2351.1963
-4443.4769
-803.13963
10912.664
2846.8084
3299.4608
5439.431
2828.6729
1037.2001
3015.9071
902.58289
3466.4844
903.35282
-510.7453
-1113.339
818.05681
-8780.6793
-1055.2322
728.25671
29.610513
258.74068
107.2752
-872.32815
1720.2462
5440.3651
577.7325
115.28715
1529.911
-1891.3749
-279.87489
992.78159
91.271134
-433.22966
-190.35095
-3757.2831
-1679.4914
2553.528
431.08495
1422.4173
-1563.1541
731.32237
-658.59394
-2987.3139
3830.1071
-976.63957
-414.89218
852.46765
-260.64089
1058.19
224.27036
595.48432
-2107.2852
1525.2152
1808.2639
2213.2524
-622.40928
3123.3432
-2131.2442
1279.9791
693.99583
2095.4059
-2509.2085
-4087.1571
5992.0411
-2852.5938
2669.295
-3994.663
-447.9385
-1655.0661
-7373.4762
-3840.4334
-6809.2486
-7732.4428
2183.2468
1549.0148
-2803.4136
-4143.9158
-1278.9623
11306.237
1861.2264
2805.8271
5119.2545
3538.1982
707.60661
2459.3443
960.85613
2998.2717
502.60353
-998.67086
-1092.3501
621.2673
-8305.191
-1008.0814
731.81889
36.666025
274.89041
100.20955
-880.22644
1677.1519
5259.1297
447.19634
18.491055
1503.7961
-1903.7417
-343.45597
956.40979
-20.574089
-537.14818
-309.73835
-3407.3941
-1669.9232
2312.4256
409.33735
1509.4722
-1842.6311
377.91136
-745.32606
-3142.4914
3634.9853
-999.78664
-589.69397
926.34908
51.859037
843.87402
294.91213
-236.93519
-2016.3894
1278.5649
1695.9718
2208.1308
-680.48492
2993.4119
-2016.0074
1453.5652
720.32002
2313.7009
-3039.5575
-4489.0409
6135.4542
-2725.2955
1888.236
-3762.6624
-255.6751
-1653.9539
-7146.5479
-4900.0542
-6399.5059
-7281.2255
2643.61
1111.7922
-3333.451
-4293.9846
-2136.992
11122.021
1157.3845
1707.2188
4696.0803
3451.2005
1184.1992
2754.4578
1431.7725
2699.1359
572.72355
-1241.9888
-1355.5678
562.83204
-7851.5752
-852.85568
741.23658
44.58369
288.06494
85.907399
-890.91277
1629.334
5075.9959
326.73646
-68.22022
1499.1357
-1881.8811
-347.05758
924.0178
-109.62953
-601.50662
-419.18936
-2967.775
-1621.0184
2026.1199
355.02011
1394.2206
-1909.5543
407.82863
-764.95423
-3273.2112
3541.3545
-1030.6789
-606.57028
950.5837
157.83416
698.16564
333.34923
-895.82611
-2055.8606
1013.7291
1469.6058
2172.5209
-657.05537
2983.7286
-1723.3366
1695.8897
737.17131
2506.82
-3419.855
-4534.7533
6236.6125
-2691.295
1468.368
-3328.7845
-198.40849
-1760.7444
-7037.0628
-4542.1911
-6650.0691
-6923.1689
3113.354
282.7448
-3620.2153
-4720.471
-2960.3011
12276.083
1083.0974
491.68747
4131.1444
3501.2061
1479.4136
2633.673
1752.156
2449.6431
656.81642
-1623.5307
-1743.1318
744.42021
-7325.2261
-820.69204
749.08346
53.447552
298.79741
63.703205
-904.921
1575.2813
4892.8235
216.15334
-138.27246
1492.2471
-1844.7155
-297.55949
895.12806
-179.73672
-643.6722
-520.43351
-2655.6222
-1585.8976
1679.4498
313.35953
1177.3238
-1816.2533
622.84395
-744.31125
-3226.2714
3339.3182
-1074.6671
-508.72809
1097.95
175.09392
501.26812
536.48106
-1241.0877
-2215.5568
745.39946
1005.583
2113.767
-703.68799
2944.2267
-1526.8338
1900.4829
736.50063
2816.5718
-3649.6379
-4516.0639
6066.5059
-2694.8235
1229.2656
-3100.369
-59.254787
-1680.1776
-6787.9187
-5187.1777
-7270.7623
-6585.7182
3674.4497
-954.65823
-3769.6616
-4168.9818
-4519.9972
11759.584
-1325.1007
-1076.5439
3856.2855
3511.5969
1434.0311
2340.3638
1873.9584
2225.1632
420.47314
-2250.5913
-2323.9694
851.40285
-6848.2135
-642.28114
759.011
63.269467
302.05579
32.988081
-923.0198
1512.8987
4705.72
115.91722
-192.44256
1470.1898
-1819.2338
-214.32961
865.63504
-218.59243
-672.00587
-588.18223
-2398.2759
-1525.0474
1409.1222
253.77788
944.58712
-1666.7218
852.56189
-603.96523
-2924.288
3118.9444
-850.52458
-384.11347
779.68996
225.69651
338.77276
981.97259
-1608.0278
-2404.4808
415.26706
356.94055
2083.1452
-740.28753
2892.5007
-1398.9424
2136.4841
555.91187
2895.2432
-3558.0196
-4214.3663
5775.1665
-2396.9948
1772.3907
-2982.559
-101.51712
-1719.4835
-6595.063
-5445.0704
-8061.4211
-6147.0587
4289.0286
-1781.1399
-4195.7823
-3242.1956
-8526.0512
8706.624
-3223.2875
-1335.8017
3935.027
3592.3866
1283.5471
1890.1174
1852.1352
1989.8548
116.77949
-2801.3404
-2777.7434
1048.4955
-6309.66
-666.52435
773.01896
73.962198
307.77287
-6.9263659
-946.13662
1442.176
4511.9554
26.603245
-223.99426
1434.3364
-1782.1762
-145.62637
809.98205
-208.2842
-646.36323
-625.22373
-2187.8165
-1478.314
1262.3892
217.38323
758.34025
-1481.6578
981.88668
-405.47504
-2383.6465
2857.1091
-854.69927
-232.27114
998.88027
284.45994
158.86594
1267.8506
-1910.4538
-2587.2064
358.03158
-526.32888
2044.6098
-737.01519
2800.8005
-1259.5075
2340.3418
540.90481
2770.2161
-3354.2643
-3246.0706
5733.5034
-2220.7429
1696.3173
-2481.4802
-167.66389
-1760.972
-6276.2074
-5534.1793
-8567.4157
-5708.9443
5128.7115
-2680.8336
-4860.2068
-2184.3732
-10623.088
5734.1965
-2732.7565
430.0831
4075.3811
3785.582
1009.8647
1346.2929
1941.9206
1769.5866
-73.328652
-3135.9766
-3759.8891
1163.2184
-5849.6606
-440.85078
783.42549
85.536964
311.96903
-56.876836