/*--------------------------------*- C++ -*----------------------------------*\
| =========                 |                                                 |
| \\      /  F ield         | OpenFOAM: The Open Source CFD Toolbox           |
|  \\    /   O peration     | Version:  2.3.0                                 |
|   \\  /    A nd           | Web:      www.OpenFOAM.org                      |
|    \\/     M anipulation  |                                                 |
\*---------------------------------------------------------------------------*/
FoamFile
{
    version     2.0;
    format      ascii;
    class       volVectorField;
    location    "3.2e-05";
    object      U;
}
// * * * * * * * * * * * * * * * * * * * * * * * * * * * * * * * * * * * * * //

dimensions      [0 1 -1 0 0 0 0];

internalField   nonuniform List<vector> 
7500
(
(459.99865 0.0055913984 -2.6168293e-16)
(459.98315 -0.0074333851 3.1598115e-15)
(459.9825 -0.0020904565 2.8408638e-15)
(459.97518 0.0022951627 -8.6679786e-17)
(459.97115 -0.0080185595 2.6764642e-15)
(459.96148 0.00014049447 5.8270153e-15)
(459.95639 0.00082987471 2.3159402e-15)
(459.97348 -0.0016408831 4.6206426e-15)
(459.94643 0.0044053367 4.7459699e-15)
(459.98074 0.0052455003 2.4086444e-15)
(459.9479 -0.0024566722 1.4838905e-15)
(459.98849 -0.0037121719 -1.3921296e-15)
(459.95497 0.0077223101 1.3461028e-15)
(459.9819 -0.014408913 1.2692585e-15)
(459.96158 0.021947275 1.1001245e-15)
(459.97535 -0.023133927 1.3661657e-15)
(459.96254 0.024141842 1.3220795e-15)
(459.97314 -0.024922374 -1.743078e-15)
(459.94888 0.023639149 1.3992422e-15)
(459.99439 -0.020794411 1.4149484e-15)
(459.9442 0.017202821 -1.0549212e-15)
(460.00222 -0.0096325116 9.6537312e-16)
(459.95239 -0.0013890074 9.367209e-16)
(460.00103 0.011975954 -1.5394516e-15)
(459.96128 -0.021756104 1.7708605e-15)
(459.97597 0.028811493 9.4328567e-16)
(459.97684 -0.032666291 8.7899844e-16)
(459.9666 0.03183418 -2.2868588e-15)
(459.98949 -0.027167472 -8.7396604e-16)
(459.96849 0.023555747 3.5058639e-15)
(459.98471 -0.015991221 -1.1426586e-15)
(459.96345 0.0088108257 1.2709316e-15)
(459.97774 -0.0050659239 9.3814482e-16)
(459.9513 -0.0013276114 -1.1420686e-15)
(459.96905 0.010360859 -9.2573281e-16)
(459.95201 -0.013914128 6.6683126e-16)
(459.96152 0.016622534 -7.8667077e-16)
(459.95907 -0.016703924 9.8661121e-16)
(459.95636 0.011902423 6.3746352e-16)
(459.96269 -0.0083525824 7.4309889e-16)
(459.95999 0.0065680763 7.5920214e-16)
(459.97052 -0.0039275797 1.3489655e-15)
(459.97192 -0.0027545923 2.5838815e-15)
(459.96918 0.0081289692 2.0698744e-15)
(459.97612 -0.013415218 1.0751195e-15)
(459.97187 0.017781939 -1.2072502e-15)
(459.9837 -0.017642766 -1.4523695e-15)
(459.97187 0.014542264 -1.3962818e-15)
(459.98132 -0.0054198599 9.5151751e-16)
(459.98199 -0.01067921 7.6358665e-16)
(459.97605 0.013420507 2.7916835e-17)
(459.98937 -0.0092453187 2.4579832e-15)
(459.978 0.01337946 4.7545889e-16)
(459.99899 -0.01402786 5.8306856e-16)
(459.98197 0.0017166685 5.5737815e-16)
(460.0047 0.010179594 -1.4615812e-15)
(460.0042 -0.0044441369 4.0893187e-16)
(459.99312 0.0029018695 5.3279574e-16)
(459.98161 -0.012622846 8.306865e-16)
(459.97692 0.0053783916 3.0601736e-16)
(459.97164 0.013315395 3.9572203e-16)
(459.98311 -0.0060364721 2.4752087e-15)
(459.97386 -0.011881229 4.8215137e-17)
(459.98624 0.0025009389 -1.464593e-15)
(459.99528 0.011830937 -1.2837668e-15)
(460.00711 -0.005856506 7.5972671e-16)
(460.00639 -0.011080348 4.3467988e-16)
(459.99503 0.001817728 3.9072419e-16)
(459.9845 0.0036695464 1.7002216e-16)
(459.98305 0.0098725687 -1.4881893e-15)
(459.97622 -0.0029121106 -1.1522531e-15)
(459.95621 -0.0051955479 1.147017e-15)
(459.95848 -0.0048789331 2.0293006e-15)
(459.96158 0.0032747166 1.1183592e-16)
(459.9866 0.0013265556 1.9149236e-15)
(459.99572 0.0045272656 -5.7569049e-17)
(459.98421 -0.00075218172 9.4777559e-17)
(459.98264 0.001987665 -2.0183908e-16)
(459.97494 -0.0065880157 2.3308172e-16)
(459.9717 1.3706611e-05 -1.6971722e-16)
(459.96163 -0.006729538 2.2550711e-16)
(459.95689 0.001007973 1.4608065e-16)
(459.97316 -0.0029359469 1.1510725e-16)
(459.94679 0.010666071 1.6917546e-16)
(459.97976 -0.011558791 3.9515903e-16)
(459.94652 0.021738998 1.5580186e-18)
(459.9888 -0.030975397 3.2892534e-16)
(459.95421 0.032920603 2.0849892e-16)
(459.9818 -0.037494596 -5.7399332e-16)
(459.96211 0.041167932 2.0856629e-17)
(459.97351 -0.040184248 -9.374827e-16)
(459.96379 0.038123075 3.1466735e-16)
(459.97105 -0.032539461 3.89222e-16)
(459.94952 0.020559003 1.5081045e-16)
(459.99241 -0.0078669146 3.8557089e-16)
(459.94392 -0.0048399562 1.5575294e-16)
(460.00001 0.016806077 1.1877178e-16)
(459.95217 -0.03023 2.00038e-16)
(459.99927 0.038756555 1.1273427e-15)
(459.96053 -0.042900617 2.2270492e-17)
(459.97479 0.043764614 4.0363992e-16)
(459.97503 -0.043962662 -8.4029445e-16)
(459.96574 0.038771755 -8.4967242e-16)
(459.98663 -0.029996775 1.5852599e-15)
(459.96687 0.022377237 3.8058347e-16)
(459.98113 -0.010280711 1.5115918e-16)
(459.96126 -0.00025527179 3.5683766e-16)
(459.97504 0.0085278949 6.606924e-17)
(459.9499 -0.017352637 2.0668054e-16)
(459.967 0.023834069 -5.0653211e-17)
(459.95028 -0.022006978 1.0711823e-16)
(459.96098 0.02030779 4.0920443e-17)
(459.95601 -0.016962445 -6.2039962e-16)
(459.95602 0.010187617 3.3367351e-19)
(459.95805 -0.0026540971 2.3575415e-16)
(459.95726 -0.0029893322 1.6108753e-16)
(459.96336 0.0069415322 -5.9911982e-16)
(459.9685 -0.013713802 -1.5479301e-17)
(459.96036 0.013399445 1.33466e-16)
(459.97206 -0.018376743 1.9133193e-16)
(459.96347 0.019211119 -4.6769804e-16)
(459.97858 -0.014147941 7.3515242e-17)
(459.96615 0.0076006668 -4.4600254e-16)
(459.9743 0.0021933471 2.2678623e-16)
(459.97837 -0.011183252 3.5772944e-16)
(459.97242 0.012935607 1.0214997e-16)
(459.98474 -0.015242111 -6.1988312e-16)
(459.97386 0.013117356 5.0147914e-17)
(459.9934 -0.0062283422 -4.1312069e-16)
(459.98066 -0.0032421746 3.0704544e-16)
(459.99915 0.012034603 2.6721799e-16)
(459.99831 -0.005644454 1.7400546e-16)
(459.98618 0.00069473062 2.1629661e-16)
(459.9755 -0.01122248 2.809045e-16)
(459.97257 0.001679748 -4.7779016e-16)
(459.96293 0.015104365 2.1582695e-16)
(459.97206 -0.0011983576 2.6285748e-16)
(459.96682 -0.013414018 3.3998229e-16)
(459.98024 -0.0018940382 1.559021e-16)
(459.98571 0.010201768 -4.4876334e-16)
(459.99542 0.0026624518 2.3056588e-16)
(459.998 -0.0093356445 -5.149984e-16)
(459.98726 0.0020742928 1.993305e-16)
(459.97582 -0.001780788 2.7729002e-16)
(459.97255 0.011199237 1.1864037e-16)
(459.9652 -0.00073438316 7.6846579e-16)
(459.94629 -0.0061259154 -3.3595974e-16)
(459.95094 -0.0049598342 2.0665302e-16)
(459.95312 0.0034442778 1.5274375e-16)
(459.97879 0.00164774 1.7765673e-16)
(459.98305 0.0048610409 9.8954633e-17)
(459.99089 0.0071183849 -8.4509266e-16)
(459.97293 0.0040708232 1.042507e-17)
(459.97894 -0.0093511374 2.0823259e-18)
(459.96655 0.0010780669 3.3289069e-19)
(459.96465 -0.01075943 7.4685925e-16)
(459.95327 0.0044531038 6.0197455e-17)
(459.97699 -0.0089601475 -1.1800583e-16)
(459.94076 0.020191865 1.0802682e-17)
(459.98274 -0.028868876 1.1870545e-16)
(459.94019 0.045205645 -3.2214133e-16)
(459.98907 -0.059359239 -5.680427e-16)
(459.95221 0.062942332 -2.8227109e-16)
(459.98024 -0.06762862 4.15379e-16)
(459.96359 0.066374941 6.2748724e-16)
(459.97074 -0.058328549 -6.1333742e-16)
(459.96691 0.048266933 6.1879006e-16)
(459.96618 -0.035513957 -1.0953337e-16)
(459.95166 0.017737676 9.8447784e-17)
(459.98628 -0.0011218884 -5.4964401e-17)
(459.94131 -0.016348213 -2.4713667e-18)
(459.99444 0.032336731 5.6410088e-16)
(459.94646 -0.051668648 7.5125298e-16)
(459.9965 0.062780084 -1.6253671e-16)
(459.95341 -0.066980565 1.3395211e-16)
(459.97385 0.066042231 -1.4879278e-17)
(459.96894 -0.062000261 -5.6151405e-16)
(459.96528 0.049507759 -1.7610946e-16)
(459.97967 -0.034650108 -2.7761402e-16)
(459.96461 0.021553651 4.7709293e-16)
(459.97243 -0.0032356285 -1.5277194e-17)
(459.95658 -0.010109582 -2.6502757e-17)
(459.96664 0.022109083 -4.5034632e-16)
(459.94361 -0.032157881 -1.0516813e-16)
(459.962 0.035795348 9.104039e-17)
(459.94195 -0.030618681 -5.1748206e-19)
(459.95793 0.024641044 -3.8485069e-16)
(459.94659 -0.01614124 -4.808161e-16)
(459.95186 0.0060166732 1.4955951e-16)
(459.94465 0.0054761654 8.2464147e-17)
(459.94811 -0.012169109 1.9486461e-16)
(459.94567 0.016867229 -1.3961761e-16)
(459.95505 -0.02280962 -4.8035682e-16)
(459.94063 0.018658841 2.5032643e-17)
(459.95857 -0.023002816 1.6264826e-17)
(459.94543 0.019491189 -1.9543035e-17)
(459.96524 -0.01238235 3.4539988e-16)
(459.95276 0.0048435142 4.6036993e-16)
(459.96387 0.0031948519 -3.1256186e-16)
(459.96796 -0.010623227 6.7431233e-17)
(459.96489 0.01402817 5.561132e-16)
(459.97647 -0.018814283 6.266501e-16)
(459.9692 0.0098122267 -2.6940925e-17)
(459.9833 -0.00037727859 1.3861444e-16)
(459.97386 -0.0054042508 -4.0471842e-17)
(459.98885 0.013309502 3.4369385e-16)
(459.98452 -0.0036651338 -7.6688879e-16)
(459.9717 -0.00016496108 5.1148745e-17)
(459.95949 -0.011499721 1.4099774e-18)
(459.9586 0.00097551513 -3.0895202e-16)
(459.94467 0.014366318 -3.340474e-16)
(459.95021 0.0017174303 -4.0319698e-16)
(459.94704 -0.010755187 1.196957e-17)
(459.96499 -0.0076541665 6.4742645e-18)
(459.96786 0.0045576216 -4.1498725e-16)
(459.97546 0.0094870992 -8.7297652e-16)
(459.97777 -0.0075327704 7.1495807e-17)
(459.96907 0.004082971 -2.5991293e-17)
(459.95686 -0.0031701555 -1.1807885e-17)
(459.95337 0.012544062 1.4590396e-17)
(459.94327 -0.00040756316 -3.7108363e-17)
(459.92542 -0.0085578634 3.9988607e-17)
(459.93369 -0.0062223001 7.4768665e-17)
(459.93457 0.0039106236 3.3645454e-16)
(459.96176 0.0022931331 2.9599595e-16)
(459.94522 0.0076380256 -1.4672539e-17)
(460.01862 0.010706345 9.4087145e-18)
(459.93744 0.0045482974 -6.6573932e-16)
(460.00612 -0.0052580802 -4.5482156e-16)
(459.93647 -0.0070729858 -2.3256394e-17)
(459.99478 -0.0078544762 -5.8306678e-16)
(459.92745 0.0075990034 2.2817169e-17)
(460.00525 -0.016025442 6.2755663e-17)
(459.91649 0.029549342 2.4509753e-17)
(460.00476 -0.039294572 -3.451946e-16)
(459.91855 0.054915249 -4.9356515e-16)
(460.00346 -0.06872697 5.0016652e-16)
(459.93835 0.072269221 4.4852785e-16)
(459.99 -0.07882195 4.4160354e-16)
(459.95755 0.078569435 4.9996109e-16)
(459.97805 -0.06978511 -5.3524201e-18)
(459.96312 0.05895258 1.9462316e-17)
(459.97067 -0.044880795 6.062963e-17)
(459.944 0.026940797 -4.8673512e-16)
(459.98467 -0.0072841509 8.3823393e-17)
(459.92828 -0.012762167 -4.4458139e-17)
(459.98606 0.033471938 5.5694913e-16)
(459.93195 -0.058892084 -1.0246786e-17)
(459.98786 0.072585541 2.2050376e-18)
(459.93902 -0.078471942 3.7927332e-16)
(459.96904 0.07774571 3.1333684e-18)
(459.95538 -0.071307193 -3.39575e-16)
(459.96423 0.056116677 1.0691057e-16)
(459.96463 -0.040431693 3.4483695e-16)
(459.96148 0.027984585 -3.4113853e-16)
(459.95332 -0.0067867047 4.0627065e-16)
(459.94754 -0.0070717123 8.5739877e-17)
(459.94583 0.024168812 -9.2370968e-17)
(459.9291 -0.034884376 3.2948267e-16)
(459.94423 0.039060701 -3.998641e-17)
(459.92368 -0.035065045 -7.6045117e-17)
(459.9435 0.026764096 6.5769691e-17)
(459.92685 -0.014629569 -3.1932969e-16)
(459.93745 0.0040573619 2.4074702e-16)
(459.92202 0.0074862695 1.8161221e-17)
(459.92868 -0.0092095867 3.4317439e-17)
(459.91846 0.014473217 6.9763396e-17)
(459.9318 -0.022729484 -2.1814908e-17)
(459.91142 0.019285702 -4.8991342e-18)
(459.93668 -0.024535043 -1.4623094e-17)
(459.92005 0.021105003 -1.5853808e-17)
(459.94741 -0.018030588 -3.8468184e-17)
(459.93473 0.011558812 4.2154606e-17)
(459.95232 -0.0051024613 -7.3823372e-17)
(459.95736 -0.0079717007 2.4046907e-16)
(459.95845 0.011526905 1.9611123e-17)
(459.96741 -0.017959348 8.5732476e-17)
(459.96615 0.0076858529 3.0816505e-16)
(459.97254 0.00089523216 -1.1140359e-17)
(459.96544 -0.0051011872 -1.3865069e-17)
(459.97469 0.013902974 5.1946615e-17)
(459.96564 0.0018001703 -3.0289546e-16)
(459.94916 -0.0025055822 -9.3419371e-18)
(459.9355 -0.01150806 2.658576e-16)
(459.93545 0.0054031737 -5.6816652e-17)
(459.91699 0.011155741 6.5012018e-17)
(459.92054 0.0015263639 -1.5744088e-17)
(459.91814 -0.0061629855 -3.1912509e-16)
(459.94148 -0.011941815 -2.9607673e-16)
(459.94493 -0.0019675869 1.5710736e-16)
(459.95218 0.0097960614 1.5809988e-17)
(459.95279 -0.0049558386 3.1439881e-16)
(459.94749 0.0044536265 2.6280436e-18)
(459.93357 -0.00080890443 -2.7757258e-16)
(459.9298 0.015545804 -2.5538781e-16)
(459.91618 -0.0024144052 2.2437616e-16)
(459.89982 -0.0097838484 -6.1010046e-17)
(459.91166 -0.0069391334 -2.2459124e-17)
(459.91117 0.0033714981 3.7250795e-17)
(459.93858 0.0020430687 -2.260865e-16)
(459.89356 0.01221129 2.2427582e-17)
(460.07624 0.0090349904 -2.0141262e-17)
(459.8702 0.010666692 2.4461305e-16)
(460.08136 -0.0093815452 -3.9619089e-17)
(459.86171 -0.0067335911 -1.2156279e-17)
(460.08739 -0.009705153 4.2649886e-18)
(459.85314 0.011435989 -6.1154783e-17)
(460.09596 -0.018485281 -4.9434062e-16)
(459.8491 0.032144103 -3.8267103e-17)
(460.08045 -0.039002309 6.0513032e-17)
(459.85944 0.051872999 -4.9384135e-16)
(460.06357 -0.061828532 -2.6172188e-17)
(459.88683 0.064222971 4.0863566e-17)
(460.04274 -0.07113227 -1.512544e-17)
(459.91021 0.073548085 1.9350452e-17)
(460.02588 -0.067226959 -1.7092553e-17)
(459.91722 0.059252734 3.7658226e-16)
(460.00886 -0.044827997 -2.9677398e-17)
(459.89892 0.027126785 1.620717e-17)
(460.00603 -0.0040435675 3.5023514e-16)
(459.88421 -0.011902728 4.4377131e-16)
(459.99016 0.029809631 6.296302e-19)
(459.8915 -0.052373492 -6.1763709e-17)
(459.98423 0.06210323 -7.7839084e-17)
(459.90193 -0.068353742 -2.1147997e-18)
(459.96533 0.069061031 3.4624393e-16)
(459.92156 -0.065994814 1.2025845e-17)
(459.96371 0.056691443 -7.1116711e-18)
(459.93157 -0.045288303 1.6112667e-17)
(459.96033 0.036730319 -3.124176e-16)
(459.91666 -0.01479388 3.1889111e-16)
(459.94136 0.0021400328 2.1293813e-16)
(459.90751 0.019677738 3.0416168e-16)
(459.9155 -0.028099186 -2.9619976e-16)
(459.90962 0.031804584 -2.6334624e-16)
(459.90586 -0.031444839 -2.3474891e-16)
(459.91563 0.023971288 -1.920947e-16)
(459.91087 -0.017100512 -5.8105945e-17)
(459.91546 0.01302554 -7.1462764e-17)
(459.91019 -0.0026857479 4.6879153e-19)
(459.91005 0.0045251753 1.7892596e-17)
(459.90555 0.0045720461 2.9575195e-16)
(459.91647 -0.017470137 2.1155925e-17)
(459.89872 0.015415476 2.119988e-16)
(459.92324 -0.024592742 -2.3126797e-16)
(459.90952 0.023643133 3.6577964e-17)
(459.93668 -0.027593441 2.4978901e-16)
(459.92939 0.022771828 2.0960468e-16)
(459.94487 -0.019246169 2.5185397e-16)
(459.9564 0.0036681351 -1.3692039e-16)
(459.95613 -0.0018578595 3.3523407e-16)
(459.96478 -0.011976474 2.4349178e-16)
(459.96718 0.0050318368 -4.6087327e-17)
(459.96541 0.0012020312 2.1123147e-16)
(459.96188 -0.0010974487 -2.2965735e-17)
(459.96423 0.012819645 -2.5097482e-16)
(459.95176 0.0071401192 -1.6213343e-16)
(459.92945 -0.0064810081 2.03516e-16)
(459.9186 -0.0099923022 3.7721562e-17)
(459.91534 0.013255461 2.5472244e-16)
(459.89372 0.0079456051 1.4936162e-17)
(459.89512 0.0036257372 -4.8309205e-17)
(459.89354 -0.0015681654 1.6445001e-16)
(459.91978 -0.01534716 1.3610357e-17)
(459.92726 -0.0074147085 2.1182958e-16)
(459.93408 0.0063836383 -2.0979663e-16)
(459.93478 0.00048418145 3.9755453e-17)
(459.93174 0.0040816096 1.2242527e-17)
(459.91896 0.0017238492 -1.6898557e-16)
(459.91322 0.015459611 1.3633291e-17)
(459.89587 -0.0060856867 3.3451643e-17)
(459.88237 -0.010410405 2.0429556e-16)
(459.89444 -0.0071888229 -2.4719397e-16)
(459.89352 0.0028030363 7.320191e-18)
(459.91717 0.001512143 3.3986424e-17)
(459.96973 0.014965996 4.4644922e-17)
(460.06978 0.0082363353 -2.9387717e-16)
(459.86446 0.015967691 7.8033668e-17)
(460.14596 -0.016448996 -6.9713897e-17)
(459.7927 -0.00031894748 -1.7833186e-16)
(460.2071 -0.016585169 4.9740714e-16)
(459.7483 0.01733353 -1.934396e-16)
(460.23361 -0.017776405 -2.5045174e-16)
(459.73428 0.028375807 -7.6431878e-17)
(460.20975 -0.029830521 4.1983049e-16)
(459.74192 0.041406314 -3.0388333e-16)
(460.1799 -0.048793118 3.7797499e-16)
(459.75849 0.050661329 -3.7768438e-18)
(460.15567 -0.05395164 -3.2227592e-16)
(459.76549 0.05285656 1.3945571e-17)
(460.13741 -0.043318331 9.6885452e-18)
(459.76556 0.03516651 4.12039e-17)
(460.1115 -0.022425084 2.2965083e-17)
(459.75678 0.01220831 -7.9568234e-18)
(460.09 0.0052391485 6.5930151e-17)
(459.75914 -0.007789881 2.3711314e-16)
(460.0517 0.017375994 3.1864951e-17)
(459.78499 -0.032893642 2.3952151e-17)
(460.02925 0.037354864 2.3058765e-17)
(459.80816 -0.045184553 1.1150692e-17)
(460.0018 0.047289496 6.7746141e-17)
(459.83704 -0.047891633 3.4848991e-16)
(459.99911 0.044327351 -2.359871e-17)
(459.85624 -0.036082878 -2.4857948e-16)
(459.99608 0.029232514 3.4768107e-17)
(459.8517 -0.010731306 -2.1757499e-17)
(459.97407 0.0044820501 -2.1068283e-16)
(459.85499 0.014188072 6.5333955e-17)
(459.94242 -0.014148993 5.7215094e-18)
(459.86869 0.016665258 2.9200482e-16)
(459.93299 -0.023136166 3.9907744e-17)
(459.88552 0.018270229 1.4854442e-17)
(459.94492 -0.020817122 1.0975672e-16)
(459.89953 0.023729906 2.7557938e-16)
(459.95045 -0.013678372 -1.8956009e-16)
(459.90914 0.015138937 -2.4322803e-16)
(459.94633 -0.0028248621 1.0005347e-17)
(459.92388 -0.010809427 1.0075446e-16)
(459.93806 0.0084733178 2.6850446e-16)
(459.92849 -0.02201989 -8.5612107e-18)
(459.94166 0.021851338 2.0244961e-16)
(459.9345 -0.032438799 -3.6513625e-17)
(459.95294 0.030657474 6.5460405e-17)
(459.93559 -0.033425421 1.3513278e-16)
(459.97118 0.020415136 5.0621051e-17)
(459.94524 -0.020532157 2.6360896e-16)
(459.97198 0.001240833 1.033598e-16)
(459.96112 -0.0038810677 -1.5870224e-16)
(459.96749 0.0019616142 5.8567212e-17)
(459.9589 0.0071169373 2.7676056e-16)
(459.96667 0.011162642 -1.8636336e-16)
(459.94717 0.0083952259 7.1692785e-18)
(459.92862 -0.009393024 1.8981973e-16)
(459.91794 -0.0067222471 3.4140395e-17)
(459.91516 0.018989422 -1.500017e-16)
(459.8852 0.0034131809 -1.303312e-16)
(459.88686 0.0081722795 4.0734014e-17)
(459.87955 0.0055900621 2.0391592e-16)
(459.90627 -0.014007269 4.6456021e-17)
(459.91638 -0.012887974 -3.3609794e-16)
(459.92225 0.0008438717 2.6671692e-16)
(459.92193 0.0045574218 -1.2807938e-16)
(459.91965 0.006289765 -8.2761375e-18)
(459.9076 0.010555589 1.9061954e-16)
(459.90066 0.010225955 6.8744937e-17)
(459.87802 -0.012065177 5.6542537e-17)
(459.86905 -0.01127643 5.0109275e-17)
(459.8762 -0.0094746372 2.2715891e-17)
(459.87589 0.0015645161 -1.5539044e-16)
(459.88966 0.0015529564 3.3801405e-17)
(460.38923 0.014366287 2.7154306e-17)
(459.76061 0.010912001 -2.5822565e-16)
(460.13468 0.016154855 1.7518665e-17)
(459.95164 -0.018082672 2.2157508e-16)
(459.92257 0.0011646681 -3.8643079e-17)
(460.11356 -0.019532944 -1.3515963e-17)
(459.77174 0.019878801 7.394044e-17)
(460.20742 -0.016345735 -7.8951916e-18)
(459.68967 0.025002496 -1.9919308e-16)
(460.2239 -0.0235248 2.2428233e-16)
(459.64492 0.032481051 8.830664e-17)
(460.22785 -0.035420853 -9.031295e-18)
(459.60055 0.03288299 3.3034118e-16)
(460.24906 -0.028936223 -3.1472405e-16)
(459.54507 0.02348535 7.3874799e-17)
(460.27798 -0.012596546 2.2419348e-17)
(459.51081 0.0076754874 2.7608776e-17)
(460.28445 -0.0020534733 2.7214143e-17)
(459.50844 0.000820164 -2.6486178e-16)
(460.27171 0.0095590732 1.4292025e-17)
(459.54061 -0.0029544361 7.8224867e-17)
(460.22621 0.0066094884 5.7934401e-17)
(459.59655 -0.016269163 3.215359e-17)
(460.1964 0.014185481 2.169294e-17)
(459.6356 -0.020762469 -1.8559093e-16)
(460.16497 0.019636517 2.6585153e-16)
(459.67396 -0.019814806 4.0059498e-17)
(460.15999 0.018851774 -1.9333936e-16)
(459.71107 -0.016422841 -1.487719e-16)
(460.1512 0.013863906 -1.4083748e-16)
(459.73695 -0.006716889 2.6995138e-16)
(460.11952 0.010104301 8.5065814e-18)
(459.77112 0.0030749033 6.0293744e-17)
(460.07985 0.0033010701 8.9198405e-17)
(459.80403 0.00089886503 1.1818422e-17)
(460.06784 -0.012307601 -1.6124322e-16)
(459.83355 0.0027738128 3.0844436e-16)
(460.07559 -0.012257682 2.5409435e-16)
(459.86073 0.019923199 3.9166272e-17)
(460.06948 -0.015581373 6.3264445e-17)
(459.88481 0.020801115 4.8653563e-18)
(460.05003 -0.013678751 -1.4336714e-16)
(459.90559 0.0019251459 2.4479545e-16)
(460.02746 -0.0037162689 2.2394825e-16)
(459.90378 -0.011815662 1.5951713e-17)
(460.01235 0.011800242 2.0279442e-16)
(459.8965 -0.024482493 4.9277585e-17)
(460.00152 0.026685703 2.1968988e-16)
(459.88561 -0.035942792 2.5181969e-16)
(459.99923 0.030377472 -9.9231599e-17)
(459.89049 -0.036979795 2.713317e-17)
(459.98572 0.020033965 3.1606851e-17)
(459.91037 -0.019451163 3.5905747e-17)
(459.97429 0.0056043305 1.1184058e-16)
(459.91559 0.0096204044 -1.8235447e-16)
(459.96874 0.015557081 -1.2470516e-16)
(459.90441 -0.00035491157 7.8857549e-17)
(459.92617 -0.012427024 -3.6412025e-18)
(459.8782 0.00034071605 -2.4492186e-17)
(459.90331 0.020133668 -1.4010531e-16)
(459.83235 -0.0048613863 1.0826576e-16)
(459.85706 0.010841089 3.4161065e-17)
(459.81124 0.009422173 -1.5080605e-16)
(459.85102 -0.004484596 5.087933e-17)
(459.83543 -0.015065629 2.7588156e-17)
(459.85401 -0.002139776 1.6604487e-16)
(459.82726 0.0018415179 -1.0221217e-16)
(459.836 0.010250274 1.5932545e-16)
(459.79809 0.02385651 -1.5559411e-16)
(459.79631 0.0044140404 -1.3749338e-16)
(459.74945 -0.019121908 1.156392e-17)
(459.74857 -0.010511168 8.8943909e-18)
(459.73008 -0.009350521 -1.1585683e-16)
(459.73284 -0.0013155207 1.8584972e-17)
(459.71697 -5.2236523e-05 1.6507058e-16)
(460.87315 0.013629231 -1.278168e-17)
(459.21223 0.016370115 -1.9953535e-16)
(460.60411 0.013170892 2.714584e-16)
(459.39709 -0.014455556 1.3078645e-17)
(460.33462 -0.0025920671 -1.5135074e-16)
(459.60025 -0.015015256 5.0509603e-17)
(460.11051 0.016351966 4.5671077e-17)
(459.76348 -0.01247228 8.050927e-17)
(459.95169 0.022538835 2.4283404e-16)
(459.86951 -0.019984759 2.0042218e-17)
(459.82869 0.023785177 2.2839583e-16)
(459.97797 -0.019074718 2.8768191e-17)
(459.69451 0.010979813 8.5615356e-17)
(460.12538 -0.0015292261 -1.2471766e-16)
(459.54161 -0.0030700752 1.0062134e-16)
(460.28425 0.010046538 7.0353476e-17)
(459.43179 -0.011045734 5.9081616e-17)
(460.39723 0.011171899 4.386877e-17)
(459.39101 -0.011888867 -2.1789712e-16)
(460.4535 0.01913552 -6.1952746e-18)
(459.40992 -0.010037237 1.0850672e-16)
(460.44843 0.0079406951 2.839309e-16)
(459.45405 -0.012039994 -2.3065989e-18)
(460.4517 0.0036233872 -1.6250981e-16)
(459.46688 -0.010339652 -1.6717292e-16)
(460.45085 0.006925022 1.9117875e-17)
(459.47512 -0.0064316299 4.1403225e-17)
(460.46477 0.0092058277 2.3822832e-16)
(459.5023 -0.0130318 3.1545672e-16)
(460.45301 0.012401383 -1.9986213e-16)
(459.54196 -0.014349511 6.2685093e-18)
(460.40619 0.020066182 4.411831e-17)
(459.58854 -0.0057400188 1.3294277e-17)
(460.35332 0.014760379 -2.2533385e-16)
(459.62303 -0.010367979 6.8099216e-17)
(460.32376 -0.00046327917 -1.6756196e-16)
(459.65275 -0.014619227 6.0618669e-18)
(460.30435 -0.0045484978 -1.177963e-16)
(459.68136 0.018588823 6.8969451e-17)
(460.25663 -0.021902205 4.0630167e-16)
(459.71279 0.036697686 -2.0967404e-17)
(460.19479 -0.036471242 1.0609443e-17)
(459.7371 0.02612907 4.970817e-17)
(460.14067 -0.022519673 2.027514e-16)
(459.72781 0.0070599687 -1.7783795e-16)
(460.09735 -0.0054979216 -8.3100876e-18)
(459.7089 -0.0048230657 -1.565025e-16)
(460.05052 0.0098207242 6.4264843e-17)
(459.68808 -0.024185123 1.1749488e-17)
(460.00734 0.030446112 3.5281863e-17)
(459.68227 -0.048995292 3.1889177e-17)
(459.95485 0.041890247 -7.5301818e-17)
(459.68626 -0.040135733 2.2529681e-17)
(459.90334 0.020101858 -8.5099172e-19)
(459.67322 -0.0023248291 3.6114679e-17)
(459.8495 0.033149882 1.1893685e-17)
(459.62578 -0.022030405 -1.3453176e-16)
(459.76213 -0.012338806 -6.3650327e-17)
(459.56592 0.0085611359 1.3920914e-16)
(459.67922 0.018285445 -2.9307458e-17)
(459.46925 -0.011609171 9.9092061e-17)
(459.57134 0.015824914 -9.1458893e-17)
(459.39312 0.0039644919 3.0936702e-17)
(459.48637 0.0040228665 -1.9777148e-17)
(459.35252 -0.013848561 -1.0908571e-16)
(459.41785 0.0063663673 -1.1168743e-16)
(459.27965 -0.0055055158 -1.574e-17)
(459.32712 0.02173735 -1.0404764e-16)
(459.17719 0.032199392 -1.1373969e-16)
(459.19515 -0.00064172067 -1.1394095e-16)
(459.0477 -0.020806592 3.3200988e-17)
(459.06273 -0.0068018604 1.6464144e-16)
(458.94217 -0.0041330664 2.6702404e-17)
(458.95101 0.001489476 2.3944428e-17)
(458.83388 3.5920781e-05 1.4001197e-16)
(460.41635 0.015099294 6.9173664e-19)
(459.33268 0.021514448 1.7074153e-16)
(460.47001 0.009491431 -5.2536599e-17)
(459.24277 -0.0086886016 1.3638444e-16)
(460.46662 -0.0074225225 9.9095037e-17)
(459.25988 -0.0066318059 -1.8043563e-16)
(460.43069 0.0095336828 1.1985604e-16)
(459.32327 -0.0054830094 4.4395738e-17)
(460.38444 0.015122159 6.1548086e-17)
(459.41061 -0.010060646 1.6062235e-16)
(460.32047 0.0081187344 -6.0351713e-17)
(459.5459 0.00056126777 1.2178186e-17)
(460.2092 -0.009670797 1.5439567e-16)
(459.74261 0.018334113 1.9540145e-16)
(460.04519 -0.022075653 3.6048777e-17)
(459.96465 0.026194887 1.3321606e-17)
(459.89253 -0.029858877 2.5000821e-17)
(460.15104 0.027965482 -1.331727e-16)
(459.77852 -0.02951442 2.9705719e-16)
(460.28475 0.032729961 -1.4238149e-17)
(459.70913 -0.022099457 1.8208059e-17)
(460.34928 0.017031428 -1.6014173e-17)
(459.66058 -0.017242117 3.8858324e-17)
(460.42321 0.0073096563 -2.8538708e-17)
(459.56882 -0.017846876 2.372823e-16)
(460.50338 0.014402259 -3.8496975e-17)
(459.46222 -0.012686186 -1.8654856e-16)
(460.59611 0.018132337 2.5683797e-16)
(459.38855 -0.019389839 1.0619718e-17)
(460.63907 0.012600238 -1.9738715e-16)
(459.35302 -0.015397197 2.747857e-17)
(460.62489 0.017081465 -5.5128962e-17)
(459.32499 1.8737178e-05 2.3616004e-16)
(460.59892 0.014216499 1.4821704e-18)
(459.28598 -0.0067863638 -1.9482264e-16)
(460.57555 -0.0038471897 -1.854337e-16)
(459.26323 -0.0098655364 5.7872798e-17)
(460.53424 -0.012667528 2.0190733e-16)
(459.25952 0.03024515 4.6929626e-17)
(460.43676 -0.037047311 -4.095523e-18)
(459.26359 0.063643547 -9.517161e-19)
(460.3179 -0.064717104 -3.4002813e-17)
(459.24994 0.061247663 2.4605701e-17)
(460.20917 -0.04344575 -4.8076108e-18)
(459.18893 0.025490509 2.5220745e-17)
(460.09513 -0.017115457 1.7367956e-17)
(459.11524 0.0086736401 7.5861202e-19)
(459.94348 -0.004108494 -3.5352372e-18)
(459.037 -0.0096380348 -7.7281142e-17)
(459.77164 0.025745146 -9.5655582e-18)
(458.95721 -0.053071772 1.3342587e-17)
(459.5854 0.064538065 1.6640084e-16)
(458.86052 -0.057997402 -8.2531729e-17)
(459.38707 0.046423661 -1.7319673e-17)
(458.73244 -0.013032124 -2.0094558e-17)
(459.16703 0.058908452 -2.5184363e-17)
(458.5365 -0.043607277 -1.3680469e-16)
(458.91391 0.0018658215 -1.3888691e-16)
(458.32843 0.013702374 -1.358799e-16)
(458.63262 0.012418622 -4.3957267e-18)
(458.0613 -0.011438381 -2.8667952e-17)
(458.32589 0.029567661 1.2549798e-17)
(457.8019 0.0019406046 -1.1003279e-16)
(458.01842 0.0051854336 -1.3443172e-16)
(457.56444 -0.013475994 4.4663665e-18)
(457.73185 0.023386712 2.4510395e-17)
(457.29424 -0.01314798 -2.2635534e-18)
(457.42789 0.055869054 -1.410828e-16)
(456.98406 0.034799233 -1.6425845e-16)
(457.04718 0.0056422124 3.5873138e-18)
(456.63216 -0.0073507125 -4.432457e-18)
(456.67151 0.002428669 -1.4239848e-16)
(456.28855 0.0052133946 -3.2942412e-18)
(456.30538 0.010619247 -1.5662379e-17)
(455.93283 0.00645671 -2.3418222e-17)
(458.86961 0.015218106 -6.2198368e-17)
(460.74269 0.022485214 -1.2230296e-16)
(459.21766 0.0055644089 -1.919197e-16)
(460.40431 -0.0063924355 -2.491334e-16)
(459.57915 -0.010350847 1.0094028e-16)
(460.1367 -0.0022774846 -9.4922859e-17)
(459.88731 0.0043750002 -6.1362705e-17)
(459.92788 0.0011282801 1.4594812e-16)
(460.13049 0.0041093175 1.0473203e-16)
(459.78485 0.0018549951 -2.1147638e-16)
(460.3036 -0.0064316258 -2.4461523e-17)
(459.70542 0.0127617 -3.8695578e-17)
(460.40126 -0.019770803 1.5044463e-16)
(459.66976 0.027203118 1.1327621e-16)
(460.43627 -0.033929043 8.7978692e-19)
(459.6606 0.039041861 -3.053846e-17)
(460.44326 -0.045466499 3.3344022e-17)
(459.66432 0.04031354 -3.3383855e-17)
(460.40908 -0.035939445 7.0393596e-17)
(459.68963 0.036538426 -1.82221e-17)
(460.35568 -0.025598872 4.9293989e-17)
(459.69445 0.023537097 3.0037672e-18)
(460.29726 -0.020845133 4.322269e-17)
(459.73907 0.013432812 5.7298194e-18)
(460.17342 -0.027288412 -1.4112097e-16)
(459.83042 0.023343449 1.0843492e-17)
(459.98637 -0.019914352 5.9470838e-17)
(459.98786 0.027582519 2.0889208e-16)
(459.7743 -0.022977718 4.3177141e-17)
(460.13442 0.012179859 5.0259643e-17)
(459.56566 -0.014420102 2.0453281e-18)
(460.22717 0.017046349 4.4788029e-18)
(459.33642 9.254715e-05 -1.3609017e-16)
(460.30315 0.017236392 2.1320657e-16)
(459.07648 0.0010843681 2.2693119e-17)
(460.34872 -0.0085517736 -6.2045926e-18)
(458.84566 -0.0039779321 3.9414944e-17)
(460.32192 -0.010080655 1.503131e-17)
(458.64095 0.031558067 1.9801861e-16)
(460.18976 -0.041274849 1.2255168e-17)
(458.42037 0.079765462 1.3887832e-17)
(459.99823 -0.078821957 1.4051141e-16)
(458.15105 0.092268612 6.5806428e-18)
(459.77721 -0.04569612 1.0814465e-17)
(457.82832 0.033744114 9.3906724e-18)
(459.47284 -0.010400567 1.0526561e-17)
(457.50938 0.012892616 1.4745917e-16)
(459.03146 -0.0094867915 1.3988878e-16)
(457.18685 0.010556218 2.8956518e-17)
(458.51515 0.01551685 -3.2376984e-16)
(456.83872 -0.037712976 -1.7428465e-16)
(457.98797 0.075858258 -2.100663e-17)
(456.42975 -0.05412968 1.5357967e-16)
(457.43409 0.065810285 -2.8452641e-17)
(455.9754 -0.0011723805 -3.0722598e-17)
(456.81982 0.079338808 6.0326243e-17)
(455.4179 -0.044541036 -1.1920326e-16)
(456.16387 0.038055344 -1.7308899e-16)
(454.8316 0.017638443 1.0233131e-16)
(455.41645 0.0061741255 7.9966696e-17)
(454.14552 -0.0033521033 -1.8027027e-16)
(454.69285 0.036562939 -2.3563211e-16)
(453.48045 0.010741123 -1.6334576e-16)
(453.96841 0.0042869057 7.2926184e-17)
(452.86602 -0.0112246 -1.6993775e-17)
(453.30305 0.028622249 -1.4219442e-17)
(452.23474 -0.02829298 -3.3847814e-17)
(452.61795 0.092505088 -3.469245e-17)
(451.54877 0.017264143 -4.3672405e-17)
(451.76942 0.030831724 5.6884304e-17)
(450.80313 0.013885193 -1.7922779e-16)
(450.93893 0.019885717 1.0569711e-16)
(450.03731 0.013918809 -3.0987444e-17)