/*--------------------------------*- C++ -*----------------------------------*\
| =========                 |                                                 |
| \\      /  F ield         | OpenFOAM: The Open Source CFD Toolbox           |
|  \\    /   O peration     | Version:  2.3.0                                 |
|   \\  /    A nd           | Web:      www.OpenFOAM.org                      |
|    \\/     M anipulation  |                                                 |
\*---------------------------------------------------------------------------*/
FoamFile
{
    version     2.0;
    format      ascii;
    class       volScalarField;
    location    "2.95";
    object      alpha.water;
}
// * * * * * * * * * * * * * * * * * * * * * * * * * * * * * * * * * * * * * //

dimensions      [0 0 0 0 0 0 0];

internalField   nonuniform List<scalar> 
2268
(
1
1
1
1
1
0.999999
0.999999
0.999999
1
1
0.999999
0.999998
0.999998
0.999998
1
1
0.998762
0.982842
0.980513
0.99535
0.997355
0.997313
0.995976
1
1
1
1
0.999999
0.999997
0.999998
0.999999
0.999999
0.999998
0.999997
0.999996
0.999997
0.999999
1
1
0.982886
0.980513
0.980513
0.981594
0.99346
0.997096
0.995976
1
1
1
1
0.999999
0.999997
0.999999
0.999998
0.999996
0.999996
0.999997
0.999999
0.999999
1
1
0.999575
0.991862
0.980517
0.980513
0.980517
0.98052
0.995013
0.998458
1
1
1
0.999999
0.999999
0.999999
0.999999
0.999997
0.999996
0.999998
1
1
1
1
0.999999
1
1
0.995945
0.989645
0.992182
0.997416
0.998562
0.999988
1
1
1
0.999999
0.999999
0.999999
1
0.999999
0.999999
1
1
1
1
1
0.999999
0.999999
1
1
0.999997
0.999998
0.999999
0.999998
0.999996
1
1
1
1
1
1
1
1
0.999998
0.999999
0.999999
1
1
1
0.999999
1
1
1
1
1
1
0.999999
0.999996
1
1
1
1
1
1
1
0.999998
0.999998
0.999998
0.999999
1
1
1
0.999999
1
1
1
1
1
1
0.999998
0.999997
0.999999
1
1
1
1
1
0.999999
0.999999
0.999999
0.999999
1
1
1
1
1
1
1
1
1
1
1
0.999999
1
0.950307
0.959047
0.978994
0.984929
0.984
0.983448
0.990755
0.984486
0.93999
0.93999
0.972072
0.994399
0.984723
0.974309
0.974309
0.98493
0.991766
0.982815
0.982622
0.958163
0.998252
0.998264
0.998279
0.998264
0.998227
0.998215
0.997866
0.950429
0.940078
0.988053
0.994419
0.994427
0.991393
0.99251
0.994561
0.994563
0.994561
0.991697
0.947213
0.990921
0.998279
0.998291
0.998273
0.998234
0.99823
0.998217
0.991933
0.974369
0.994419
0.994427
0.994456
0.994512
0.994539
0.994557
0.994562
0.994557
0.994554
0.947202
0.975358
0.998286
0.998324
0.996879
0.994762
0.997433
0.998202
0.998187
0.990307
0.994355
0.99442
0.982071
0.966549
0.987274
0.993677
0.994562
0.994557
0.994487
0.947202
0.983007
0.998273
0.998388
0.997503
0.993821
0.997538
0.998187
0.986579
0.918864
0.926246
0.904698
0.896802
0.896209
0.915111
0.97909
0.994559
0.994553
0.993803
0.947871
0.99524
0.998239
0.998423
0.998055
0.994054
0.997167
0.982924
0.911458
0.911458
0.911458
0.923486
0.895857
0.895987
0.896153
0.938712
0.994557
0.994544
0.993828
0.991955
0.997995
0.998329
0.998447
0.997809
0.993899
0.992268
0.9859
0.920381
0.911458
0.952733
0.968245
0.895727
0.895857
0.895987
0.924687
0.994545
0.994537
0.994488
0.99931
0.998589
0.99851
0.998599
0.995234
0.982179
0.980509
0.992601
0.985999
0.963204
0.993482
0.992301
0.92594
0.895987
0.896783
0.963538
0.99442
0.99453
0.994457
0.999992
0.999995
0.999997
0.999999
0.999999
0.999999
0.999999
0.999999
0.999999
1
1
1
1
1
1
1
1
1
1
1
1
1
1
0.999884
0.999919
0.999946
0.999964
0.999976
0.999983
0.999987
0.999989
0.999992
0.999996
0.997893
0.991438
0.979749
0.964403
0.94833
0.9338
0.922524
0.914835
0.909896
0.912266
0.925942
0.942708
0.949746
0.916039
0.925971
0.923452
0.914077
0.897245
0.867756
0.825374
0.771178
0.70317
0.623593
0.536153
0.451163
0.381739
0.326946
0.287343
0.26282
0.251026
0.250306
0.255896
0.255944
0.252389
0.249179
0.24936
0.201628
0.233006
0.241761
0.227421
0.197512
0.15697
0.114568
0.0733085
0.038673
0.0111853
0.0046968
0.0044616
0.00350612
0.00319474
0.00319661
0.00321767
0.003273
0.00322977
0.00343131
0.00688252
0.010692
0.0122385
0.0109456
0.00389521
0.00387312
0.00389521
0.00395877
0.00433305
0.00924426
0.0127894
0.0153641
0.017474
0.0187305
0.0187186
0.0138319
0.00319529
0.00319809
0.00319444
0.00319884
0.0031724
0.00311047
0.00322979
0.00753067
0.0120143
0.0124581
0.0120709
0.00873824
0.00383743
0.00694752
0.016776
0.0168798
0.0169545
0.0169165
0.0171398
0.0171714
0.0169153
0.0115378
0.00421099
0.00335942
0.00364443
0.00674257
0.00685201
0.00374158
0.00314772
0.0035007
0.0112789
0.0114211
0.00949161
0.0117096
0.00661219
0.00270386
0.00213426
0.00561875
0.0088741
0.00575436
0.00253503
0.00212019
0.00173997
0.00185376
0.0028106
0.0052136
0.00680522
0.0068547
0.00685622
0.00685551
0.00685794
0.00359658
0.00385832
0.00511479
0.00231732
0.00010164
0.000866311
0.000592251
0.000409245
0.000220805
0.000148465
7.91428e-05
6.09171e-05
5.96564e-05
5.79527e-05
6.24785e-05
5.25449e-05
0.000896958
0.0042247
0.00463736
0.00246419
0.00174937
0.00254739
0.00312088
0.00196768
0.000945199
2.34629e-05
5.91158e-07
4.32359e-07
1.16216e-06
0.000858452
0.000379029
0.00040737
0.00125229
0.00140786
0.000517151
5.79527e-05
5.7135e-05
5.44331e-05
4.73301e-05
3.97008e-05
1.74697e-05
4.52421e-06
4.52421e-06
2.82828e-06
9.33611e-07
5.80237e-06
4.51517e-05
2.20356e-06
5.92481e-07
2.74623e-07
2.5674e-07
4.96721e-07
0.000582369
0.00139354
0.00175403
0.00175543
0.00174096
0.00103349
5.78356e-05
5.67827e-05
5.47269e-05
5.25414e-05
7.33062e-05
0.000210332
0.000254347
0.000127566
1.31047e-05
6.16553e-07
1.27232e-06
3.4491e-06
2.83693e-05
2.04537e-05
2.5688e-07
2.39082e-07
2.54253e-07
0.000113631
0.00116806
0.00175543
0.00161287
0.000305149
8.01558e-06
6.0283e-05
6.4388e-05
6.39858e-05
0.000168728
0.000256373
0.000257129
0.000256204
0.000254347
0.000155887
3.03178e-07
1.96928e-06
3.88562e-05
5.12953e-05
4.99967e-05
6.36734e-06
2.39461e-07
1.91804e-07
3.971e-05
0.000478892
0.000562511
1.65157e-05
5.45542e-09
2.12502e-09
0.000144831
0.000340461
0.00034111
0.000339397
0.000145386
2.04202e-06
0.000109952
0.000164205
1.17843e-05
3.0447e-08
2.10714e-06
4.25402e-05
5.12561e-05
5.1297e-05
4.2668e-05
1.80633e-07
1.14782e-07
3.23696e-05
5.06799e-05
3.1441e-05
5.46938e-09
2.14045e-09
2.98133e-10
2.46241e-10
2.60057e-10
1.72285e-10
1.72285e-10
1.72285e-10
1.72696e-10
1.74319e-10
1.81286e-10
2.37289e-10
7.29115e-10
5.19491e-09
3.24917e-06
3.59599e-05
5.11001e-05
5.09456e-05
9.32198e-06
9.73364e-08
8.1668e-06
4.43529e-07
3.38172e-08
3.44917e-08
1.86137e-07
1.79933e-07
1.94774e-10
1.94629e-10
1.97553e-10
1.89152e-10
1.8034e-10
1.74207e-10
1.74935e-10
1.76531e-10
1.84013e-10
2.14737e-10
2.3924e-10
6.23853e-09
4.75406e-07
6.14697e-06
1.46352e-05
1.37979e-05
9.25958e-08
5.64182e-07
4.74204e-08
2.27922e-08
3.06685e-08
2.47776e-07
2.48825e-07
2.77657e-08
1.94745e-10
6.97523e-10
4.82616e-10
2.7745e-10
2.14214e-10
1.95002e-10
2.02492e-10
2.19505e-10
2.34091e-10
2.39373e-10
2.54423e-10
4.11783e-10
5.40144e-10
3.96716e-09
2.27546e-07
7.46569e-07
1.75858e-07
2.88453e-08
2.0596e-08
1.9606e-08
6.5455e-08
1.06519e-07
4.37727e-08
2.21363e-10
8.393e-10
8.16864e-10
4.77678e-10
3.18628e-10
2.5062e-10
2.18897e-10
2.22373e-10
2.55809e-10
2.87868e-10
2.80308e-10
2.74575e-10
2.96893e-10
1.71575e-09
8.10512e-08
2.77599e-07
5.02079e-08
3.46658e-08
2.35137e-08
1.10373e-08
3.2834e-09
2.4012e-09
8.64436e-09
6.98845e-09
2.48469e-09
9.75618e-10
5.99121e-10
3.94098e-10
2.87162e-10
2.25357e-10
1.80195e-10
1.52164e-10
1.38031e-10
1.2496e-10
1.15219e-10
3.11773e-09
6.53997e-08
9.0671e-08
6.35139e-08
1.27481e-08
2.14457e-08
2.81735e-08
1.01982e-08
1.60076e-09
1.57707e-09
1.57306e-09
1.78357e-09
1.79442e-09
1.36427e-09
8.26502e-10
4.92191e-10
3.26167e-10
2.53132e-10
2.00647e-10
1.6268e-10
1.35252e-10
1.17616e-10
1.11444e-10
9.09916e-11
1.22126e-09
3.53946e-08
5.84109e-08
5.49263e-09
6.77834e-09
1.9961e-08
1.05035e-08
2.4218e-09
1.57317e-09
1.57106e-09
1.58541e-09
1.59619e-09
1.4449e-09
1.04696e-09
6.34872e-10
3.59084e-10
2.7488e-10
2.17544e-10
1.74577e-10
1.41321e-10
1.16979e-10
1.00088e-10
8.80292e-11
8.83698e-11
8.5836e-11
8.06688e-11
4.52039e-09
4.39719e-09
9.02147e-09
8.00596e-09
3.18031e-09
1.56872e-09
1.5536e-09
1.59343e-09
1.59028e-09
1.4939e-09
1.17373e-09
7.62457e-10
4.01176e-10
2.98221e-10
2.31886e-10
1.82561e-10
1.44002e-10
1.14883e-10
9.38888e-11
8.07553e-11
1.2711e-10
1.1431e-10
7.89571e-11
4.32063e-09
4.20475e-09
3.84194e-09
4.1272e-09
2.69203e-09
1.59506e-09
1.53111e-09
1.5556e-09
1.55186e-09
1.46885e-09
1.20823e-09
8.20956e-10
4.36742e-10
3.18106e-10
2.42939e-10
1.87903e-10
1.44542e-10
1.10742e-10
8.53877e-11
6.60981e-11
7.66677e-11
1.33664e-10
1.05044e-10
1.19817e-08
3.45853e-09
1.77416e-09
1.9242e-09
1.83841e-09
1.54839e-09
1.50134e-09
1.50504e-09
1.48465e-09
1.39088e-09
1.14272e-09
8.19003e-10
4.42423e-10
3.25133e-10
2.46379e-10
1.88855e-10
1.43e-10
1.06348e-10
7.81628e-11
5.75358e-11
4.58217e-11
3.47395e-11
3.97261e-11
4.97131e-08
4.58798e-09
1.41662e-09
1.38332e-09
1.37836e-09
1.39731e-09
1.4337e-09
1.41976e-09
1.38289e-09
1.27777e-09
1.07106e-09
8.12629e-10
5.07261e-10
2.87938e-10
2.34441e-10
1.83437e-10
1.3803e-10
1.00361e-10
7.10703e-11
4.96008e-11
3.48377e-11
2.52071e-11
1.88494e-11
5.02685e-08
4.40624e-08
1.40042e-08
1.10785e-09
1.03355e-09
1.1526e-09
1.25898e-09
1.25172e-09
1.18467e-09
1.12535e-09
1.04413e-09
8.7294e-10
5.43094e-10
2.82178e-10
2.27311e-10
1.75689e-10
1.30015e-10
9.22301e-11
6.31783e-11
4.22096e-11
2.78382e-11
1.83572e-11
1.22087e-11
4.68366e-08
4.64715e-08
2.1924e-08
1.31798e-09
9.8016e-10
1.03154e-09
1.06409e-09
1.09307e-09
1.10637e-09
1.08588e-09
1.02723e-09
8.82298e-10
5.78894e-10
2.78869e-10
2.12606e-10
1.59636e-10
1.1574e-10
8.02481e-11
5.34381e-11
3.44752e-11
2.17569e-11
1.35526e-11
8.38972e-12
7.97708e-09
1.39138e-08
7.06361e-09
1.02355e-09
9.65282e-10
9.64175e-10
9.83442e-10
1.04079e-09
1.05211e-09
1.03725e-09
9.86091e-10
8.54296e-10
5.8068e-10
2.71418e-10
1.94918e-10
1.39394e-10
9.74035e-11
6.53267e-11
4.20424e-11
2.61401e-11
1.58346e-11
9.41756e-12
5.53199e-12
1.70134e-09
1.2058e-09
9.82908e-10
9.64329e-10
9.63096e-10
9.63145e-10
9.63413e-10
9.63418e-10
9.55663e-10
9.28716e-10
8.72261e-10
7.42189e-10
5.23897e-10
2.43515e-10
1.66362e-10
1.12995e-10
7.51481e-11
4.80848e-11
2.95708e-11
1.75743e-11
1.0166e-11
5.76175e-12
3.21662e-12
1.36239e-05
7.5571e-06
1.32033e-05
1.65374e-05
7.04442e-06
2.93335e-08
8.1578e-10
6.6451e-10
6.39333e-10
6.54569e-10
6.241e-10
5.40462e-10
3.47855e-10
1.70255e-10
1.20855e-10
7.96752e-11
5.02299e-11
3.03947e-11
1.77093e-11
9.98232e-12
5.47491e-12
2.93812e-12
1.55016e-12
2.32851e-05
2.36402e-05
2.36605e-05
2.34304e-05
2.11116e-05
1.17856e-06
1.38271e-09
3.35618e-10
2.91604e-10
3.25415e-10
2.86214e-10
2.21877e-10
1.58651e-10
1.10094e-10
7.27241e-11
4.58806e-11
2.758e-11
1.58269e-11
8.71184e-12
4.62757e-12
2.38658e-12
1.20165e-12
5.93466e-13
1.28558e-05
2.36572e-05
2.36402e-05
2.25745e-05
9.7446e-06
2.03493e-07
4.59409e-10
1.62344e-10
1.45068e-10
1.79646e-10
1.59056e-10
1.25603e-10
9.07112e-11
6.1042e-11
3.83391e-11
2.2717e-11
1.27465e-11
6.81216e-12
3.4891e-12
1.72296e-12
8.24851e-13
3.84733e-13
1.75591e-13
9.04701e-08
6.08587e-06
8.47655e-06
2.93868e-06
1.09939e-07
3.84027e-08
4.50466e-09
2.95149e-10
1.30036e-10
1.26643e-10
9.99742e-11
7.23573e-11
4.8508e-11
3.01849e-11
1.73856e-11
9.43601e-12
4.85207e-12
2.37894e-12
1.11848e-12
5.06802e-13
2.22312e-13
9.47923e-14
3.94398e-14
2.06723e-10
2.58566e-09
3.59607e-09
1.48932e-09
2.72979e-10
8.90887e-11
1.58502e-09
7.08622e-10
1.64459e-10
1.00948e-10
6.19051e-11
3.81432e-11
2.26323e-11
1.26181e-11
6.52042e-12
3.19525e-12
1.48829e-12
6.61962e-13
2.82424e-13
1.16036e-13
4.60694e-14
1.7733e-14
6.6455e-15
4.28629e-11
1.05287e-10
1.49523e-10
8.35473e-11
4.68523e-11
5.6155e-11
1.32776e-10
1.84869e-10
9.15402e-11
5.00258e-11
2.83553e-11
1.58838e-11
8.502e-12
4.24739e-12
1.96217e-12
8.62425e-13
3.61046e-13
1.44362e-13
5.53176e-14
2.03783e-14
7.2377e-15
2.48669e-15
8.37018e-16
3.6533e-11
4.33164e-11
7.06308e-11
4.68794e-11
3.77681e-11
5.44539e-11
5.15289e-11
5.12445e-11
3.18292e-11
1.82888e-11
1.00409e-11
5.22974e-12
2.54228e-12
1.13287e-12
4.67735e-13
1.83181e-13
6.83138e-14
2.43121e-14
8.27687e-15
2.70234e-15
8.48581e-16
2.58696e-16
8.44684e-17
3.28995e-11
7.65888e-11
6.69492e-11
4.68243e-11
3.05958e-11
2.42556e-11
1.97998e-11
1.54264e-11
9.793e-12
5.54843e-12
2.89016e-12
1.38695e-12
6.06673e-13
2.38294e-13
8.75602e-14
3.03217e-14
9.96457e-15
3.11797e-15
9.30919e-16
2.65795e-16
7.30227e-17
2.07116e-17
1.20888e-17
1.5545e-11
3.03958e-11
2.73035e-11
1.83555e-11
1.27508e-11
9.08373e-12
6.51142e-12
4.43737e-12
2.65882e-12
1.42164e-12
6.86398e-13
2.98499e-13
1.15529e-13
3.97604e-14
1.28151e-14
3.8791e-15
1.1089e-15
3.00559e-16
7.74326e-17
1.90322e-17
4.64239e-18
1.96373e-18
4.83369e-18
4.99596e-12
9.50486e-12
8.48345e-12
5.97776e-12
4.10545e-12
2.7583e-12
1.81128e-12
1.11906e-12
6.20778e-13
3.07066e-13
1.35095e-13
5.23406e-14
1.755e-14
5.27261e-15
1.4682e-15
3.82275e-16
9.34818e-17
2.15393e-17
4.69033e-18
9.81095e-19
2.73593e-19
4.90652e-19
2.3613e-18
1.12908e-12
2.33544e-12
2.13988e-12
1.5639e-12
1.05799e-12
6.82897e-13
4.2084e-13
2.40606e-13
1.23484e-13
5.60359e-14
2.22045e-14
7.55098e-15
2.17131e-15
5.61128e-16
1.32813e-16
2.91611e-17
5.96519e-18
1.13912e-18
2.04135e-19
3.82916e-20
3.17103e-20
1.58084e-19
8.96855e-19
1.72593e-13
4.3656e-13
4.28935e-13
3.27419e-13
2.21775e-13
1.39726e-13
8.21882e-14
4.41226e-14
2.10457e-14
8.74526e-15
3.10378e-15
9.17952e-16
2.25507e-16
4.91859e-17
9.69338e-18
1.75011e-18
2.90273e-19
4.4264e-20
6.30653e-21
1.50257e-21
5.21906e-21
3.5157e-20
2.27821e-19
1.70326e-14
5.75303e-14
6.66564e-14
5.52477e-14
3.83959e-14
2.401e-14
1.36858e-14
6.99029e-15
3.12411e-15
1.19453e-15
3.81061e-16
9.82742e-17
2.05648e-17
3.7164e-18
5.93806e-19
8.50133e-20
1.08818e-20
1.24592e-21
1.33228e-22
6.31754e-23
4.77816e-22
4.04181e-21
3.18874e-20
1.0737e-15
5.44572e-15
7.94876e-15
7.64212e-15
5.57959e-15
3.51966e-15
1.97518e-15
9.74115e-16
4.13277e-16
1.47383e-16
4.29759e-17
9.88371e-18
1.7702e-18
2.61224e-19
3.25679e-20
3.45612e-21
3.08407e-22
2.33245e-23
1.57441e-24
8.83695e-25
1.11789e-23
1.40339e-22
1.60772e-21
4.32786e-17
4.16915e-16
7.74767e-16
8.6888e-16
6.79395e-16
4.42354e-16
2.49945e-16
1.21388e-16
4.98529e-17
1.69744e-17
4.67274e-18
1.00503e-18
1.6149e-19
1.98217e-20
1.80431e-21
1.13943e-22
4.98776e-24
1.6163e-25
4.18021e-27
1.4153e-28
1.89633e-27
6.45668e-26
2.03626e-24
1
1
1
1
0.927307
0.915117
0.912871
0.915341
0.244822
0.244401
0.242484
0.238958
0.00638856
0.00310891
0.00289402
0.00323131
0.00669951
0.00272564
0.00266567
0.0028945
0.00957909
0.00269733
0.00267454
0.00431553
0.00349172
0.00236676
0.00300279
0.00525057
4.35542e-06
0.000387505
0.00105853
0.00137772
1.56042e-06
4.67584e-06
1.74672e-05
3.30112e-05
9.86981e-06
4.79558e-05
5.57132e-05
5.99249e-05
5.95524e-07
2.92903e-05
5.58888e-05
5.85915e-05
1.63169e-07
1.21828e-05
3.37511e-05
3.40372e-05
9.25982e-08
5.95501e-08
8.96854e-06
2.29804e-05
8.09969e-08
2.27451e-08
3.56059e-08
4.05156e-06
4.88265e-07
9.51694e-10
8.29942e-10
6.80723e-10
1.91233e-07
8.73635e-10
8.22661e-10
6.06863e-10
4.06706e-09
1.09362e-08
1.76055e-08
9.62318e-09
3.09569e-09
2.19756e-09
8.38689e-10
4.44441e-11
8.32816e-09
1.58527e-08
5.2171e-09
4.45831e-11
5.81278e-11
5.79405e-11
5.13904e-11
1.06159e-10
8.40485e-11
6.44721e-11
4.95869e-11
3.61101e-11
4.04262e-11
3.86923e-11
3.46039e-11
2.91181e-11
1.62992e-11
1.4138e-11
1.22372e-11
1.05125e-11
9.8581e-12
7.99425e-12
6.50822e-12
5.30908e-12
6.47065e-12
4.99397e-12
3.8623e-12
2.9948e-12
4.12721e-12
3.07476e-12
2.29127e-12
1.70984e-12
2.32463e-12
1.67579e-12
1.20709e-12
8.69949e-13
1.08091e-12
7.51157e-13
5.21138e-13
3.61482e-13
3.96434e-13
2.6364e-13
1.74866e-13
1.15867e-13
1.11271e-13
7.01028e-14
4.39964e-14
2.7563e-14
2.34491e-14
1.38403e-14
8.13318e-15
4.78077e-15
3.67219e-15
2.01896e-15
1.11754e-15
6.4069e-16
4.34069e-16
2.34154e-16
1.43126e-16
1.12737e-16
4.92212e-17
3.87704e-17
4.31306e-17
5.91567e-17
1.34181e-17
1.87701e-17
2.84409e-17
4.40286e-17
7.42743e-18
1.16701e-17
1.83957e-17
2.91226e-17
3.78789e-18
6.05707e-18
9.70938e-18
1.58737e-17
1.45801e-18
2.36814e-18
3.93549e-18
7.02544e-18
3.76225e-19
6.36241e-19
1.18765e-18
2.71349e-18
5.49321e-20
1.09508e-19
2.93296e-19
1.08548e-18
3.52431e-21
1.30411e-20
6.46597e-20
4.13525e-19
2.65672e-23
3.67431e-22
5.02833e-21
9.38681e-20
1
0.999988
0.999974
0.999953
0.984522
0.917456
0.916344
0.993138
0.993408
0.993481
0.993478
0.993481
0.993185
0.978453
0.978342
0.980209
0.984151
0.994301
0.994042
0.915611
0.880175
0.847881
0.82891
0.817192
0.741475
0.633269
0.635026
0.740686
0.771987
0.793891
0.835789
0.878502
0.898573
0.912395
0.897118
0.853865
0.811534
0.779199
0.229676
0.201306
0.183669
0.181367
0.244387
0.379913
0.471957
0.489496
0.473972
0.46026
0.447187
0.4251
0.403346
0.379282
0.333778
0.279375
0.247803
0.263553
0.304227
0.00350084
0.00405727
0.00455143
0.00439111
0.00300092
0.00163084
0.00097473
0.000115475
8.37516e-05
6.38366e-05
4.57627e-05
2.64388e-05
1.65703e-05
1.56416e-05
1.55527e-05
1.55502e-05
1.55503e-05
1.55503e-05
1.555e-05
0.00331125
0.00385277
0.0043221
0.00419797
0.00414869
0.00412015
0.00451664
0.00436773
0.00297553
0.001536
0.000985958
0.000952544
0.000498963
2.19441e-05
1.56415e-05
1.55538e-05
1.55503e-05
1.55737e-05
1.5612e-05
0.00594778
0.00594778
0.00585528
0.00523093
0.00649314
0.00660274
0.00658351
0.00503053
0.00311111
0.00167676
0.000584668
0.000618725
0.000659769
0.000224609
5.78945e-05
2.14605e-05
1.55411e-05
2.02575e-05
0.000103463
0.00509307
0.00400574
0.002908
0.00248144
0.0019773
0.00062676
1.48661e-05
1.28129e-05
1.2481e-05
1.24638e-05
1.24634e-05
1.24638e-05
7.29697e-05
0.000276477
0.000276477
8.62289e-05
1.55252e-05
1.99437e-05
0.000211553
0.000487914
0.000141406
2.73444e-05
2.38835e-05
2.12556e-05
2.13615e-05
2.24208e-05
5.62235e-05
2.66436e-05
1.24709e-05
1.24638e-05
1.24635e-05
8.62406e-05
0.000164626
7.41985e-05
1.8994e-05
1.55515e-05
1.55266e-05
0.000211368
4.20577e-05
3.72861e-05
2.61483e-05
2.67359e-05
4.04491e-05
6.46719e-05
9.27481e-05
9.27474e-05
4.91983e-05
1.26162e-05
1.24709e-05
1.28601e-05
1.62389e-05
1.57125e-05
1.56989e-05
1.57125e-05
2.42685e-05
0.000131724
0.000210155
5.56116e-05
4.45677e-05
2.57406e-05
3.34932e-05
6.58613e-05
8.37941e-05
9.27316e-05
7.63796e-05
1.78668e-05
1.92013e-05
6.83075e-05
0.00011284
0.00014577
0.00014273
0.000105867
0.000100936
0.000162104
0.000162103
8.31611e-05
4.14418e-05
1.23391e-06
1.13162e-06
8.8683e-07
5.35724e-07
5.35976e-07
6.07942e-06
5.15273e-06
2.44483e-05
0.000125124
0.000151715
0.000151715
0.000151715
0.000151421
0.000150566
0.000101965
3.30489e-05
2.9992e-05
2.8576e-05
6.9329e-06
3.78709e-06
5.03063e-06
6.68161e-07
5.35724e-07
5.35726e-07
1.35766e-06
4.6137e-06
3.28701e-05
8.40639e-05
0.000141489
0.000151715
0.000117093
2.28695e-05
1.71105e-05
2.01184e-05
2.22601e-05
3.35826e-05
5.72921e-05
2.3468e-05
2.26906e-05
2.22015e-05
9.56193e-06
5.35725e-07
1.45618e-06
2.13471e-05
2.2785e-05
1.71091e-05
1.39967e-07
1.37489e-07
3.3676e-06
2.08846e-06
2.36872e-06
3.10314e-05
5.80027e-05
5.80202e-05
5.80002e-05
5.767e-05
1.62874e-05
2.25652e-05
2.23609e-05
2.23352e-05
6.60698e-06
5.22209e-09
9.03522e-07
4.23605e-06
8.95607e-07
1.37491e-07
1.3421e-07
1.02744e-07
8.66206e-08
4.37463e-08
7.36926e-06
4.07336e-05
4.81819e-05
3.32251e-05
3.6609e-05
2.64027e-10
6.36084e-06
2.15365e-05
2.20174e-05
8.88301e-06
5.24019e-09
5.22206e-09
5.83293e-09
8.64791e-09
3.58465e-07
9.18965e-07
9.18935e-07
3.81366e-07
3.97644e-08
5.18699e-09
2.48265e-09
2.61776e-09
6.01652e-09
1.11841e-07
3.23082e-11
1.79268e-11
3.04136e-07
4.41905e-06
1.48999e-06
2.75063e-09
1.06002e-07
4.3165e-07
4.6976e-07
3.49436e-07
8.82306e-07
9.13219e-07
9.07469e-07
5.65645e-07
2.33505e-09
2.07939e-09
2.94251e-09
3.42633e-06
2.47842e-05
3.16591e-11
3.16576e-11
3.16577e-11
3.17164e-11
3.53284e-11
1.58815e-10
3.01149e-07
1.06204e-06
1.06204e-06
1.00884e-06
1.15645e-07
1.13276e-07
1.2395e-07
3.87148e-08
4.05207e-09
1.25287e-09
1.6089e-09
7.44075e-06
3.40005e-05
4.67328e-11
3.88874e-11
3.18878e-11
3.42696e-11
3.62604e-11
4.25484e-11
6.99994e-09
5.51226e-07
1.06204e-06
1.06195e-06
9.93455e-07
5.82909e-08
9.83646e-10
9.83648e-10
9.97093e-10
1.07867e-09
3.61881e-10
4.95052e-06
3.40005e-05
6.81989e-11
4.08366e-11
3.08321e-11
2.88465e-11
3.52736e-11
5.24722e-11
4.38881e-11
2.51386e-11
3.12177e-07
1.06186e-06
1.05748e-06
7.86201e-07
9.8374e-10
2.45924e-09
6.92153e-09
2.01164e-09
8.54158e-11
8.92956e-07
3.39995e-05
5.39684e-11
3.33098e-11
2.59177e-11
2.34624e-11
3.04185e-11
7.55198e-11
1.57071e-10
2.02804e-11
2.04666e-11
1.12896e-07
6.69528e-07
1.89165e-07
5.92319e-08
6.83943e-08
8.43707e-08
9.6658e-09
6.43037e-11
5.19803e-11
3.39266e-05
2.67072e-11
2.02478e-11
1.69822e-11
1.56317e-11
1.53241e-11
1.61572e-11
1.61212e-11
1.96707e-11
1.97177e-11
1.97454e-11
1.97942e-11
1.98479e-11
3.96782e-08
1.00664e-07
1.00664e-07
1.75216e-08
5.40893e-11
5.13551e-11
3.38373e-05
1.8562e-11
1.22484e-11
9.39965e-12
8.61121e-12
9.00192e-12
1.04536e-11
1.31746e-11
1.71667e-11
2.1595e-11
2.28795e-11
2.36914e-11
2.41164e-11
2.38183e-11
7.14514e-08
6.59466e-08
9.97866e-09
5.35094e-11
5.07164e-11
3.32859e-05
7.36991e-12
5.18574e-12
4.00239e-12
3.69818e-12
4.14537e-12
5.39718e-12
7.66807e-12
1.11116e-11
1.52404e-11
1.93414e-11
2.20014e-11
2.38555e-11
2.38182e-11
2.35723e-11
2.35726e-11
2.36379e-11
8.02031e-11
5.05731e-11
1.2103e-05
3.46495e-12
2.26656e-12
1.58239e-12
1.33969e-12
1.52488e-12
2.23275e-12
3.66731e-12
6.01565e-12
9.27584e-12
1.28885e-11
1.64732e-11
1.96851e-11
2.26988e-11
2.35892e-11
2.7647e-11
3.37759e-11
5.18392e-11
5.05731e-11
5.05731e-11
1.7962e-12
1.07782e-12
6.65885e-13
4.76292e-13
4.9153e-13
7.74413e-13
1.47706e-12
2.78836e-12
4.81532e-12
7.5158e-12
1.07743e-11
1.45423e-11
1.89267e-11
2.43118e-11
3.41794e-11
5.35844e-11
6.23547e-11
5.20162e-11
5.29224e-11
9.57181e-13
5.34812e-13
3.00747e-13
1.8389e-13
1.59622e-13
2.51117e-13
5.40167e-13
1.16034e-12
2.25779e-12
3.96419e-12
6.42558e-12
9.84642e-12
1.462e-11
2.15484e-11
3.43083e-11
5.76414e-11
6.89364e-11
5.30204e-11
5.49463e-11
4.57728e-13
2.40424e-13
1.26663e-13
7.1378e-14
5.69778e-14
9.07087e-14
2.12199e-13
5.0175e-13
1.08015e-12
2.11275e-12
3.83511e-12
6.60221e-12
1.10219e-11
1.81197e-11
3.19402e-11
5.67824e-11
7.20736e-11
5.3911e-11
4.64942e-11
1.78109e-13
8.79255e-14
4.43498e-14
2.59209e-14
2.53995e-14
4.78712e-14
1.15712e-13
2.7848e-13
6.25224e-13
1.30335e-12
2.55087e-12
4.75838e-12
8.59759e-12
1.52274e-11
2.91963e-11
5.81313e-11
6.39923e-11
5.52125e-11
1.98786e-06
5.29837e-14
2.46774e-14
1.29797e-14
1.10506e-14
1.87713e-14
4.27155e-14
1.00031e-13
2.26855e-13
4.92221e-13
1.02096e-12
2.03154e-12
3.9034e-12
7.30643e-12
1.34629e-11
2.7567e-11
5.95029e-11
5.96928e-11
5.85411e-11
1.37053e-05
1.16512e-14
5.57662e-15
4.78583e-15
9.24586e-15
2.27418e-14
5.40285e-14
1.20088e-13
2.52898e-13
5.12039e-13
1.00721e-12
1.93772e-12
3.66661e-12
6.8613e-12
1.27887e-11
2.75036e-11
6.25157e-11
6.00304e-11
8.67501e-08
1.41865e-05
2.02563e-15
1.78503e-15
4.38468e-15
1.29831e-14
3.45651e-14
8.14507e-14
1.7364e-13
3.43742e-13
6.47733e-13
1.18631e-12
2.14535e-12
3.87803e-12
7.05813e-12
1.30216e-11
2.91045e-11
6.71282e-11
6.05567e-11
5.94394e-07
1.41865e-05
5.21638e-16
1.67528e-15
6.48225e-15
2.11081e-14
5.7617e-14
1.35436e-13
2.81776e-13
5.33211e-13
9.43716e-13
1.60587e-12
2.69548e-12
4.56667e-12
7.91358e-12
1.418e-11
3.29392e-11
7.40955e-11
6.10557e-11
9.98944e-07
1.41821e-05
4.23135e-16
2.34322e-15
1.0241e-14
3.51716e-14
9.8993e-14
2.35967e-13
4.88821e-13
9.02118e-13
1.52434e-12
2.43185e-12
3.7874e-12
5.95765e-12
9.66817e-12
1.65122e-11
3.97475e-11
8.58653e-11
6.16747e-11
3.7868e-07
1.41715e-05
4.94723e-16
3.30647e-15
1.56766e-14
5.69648e-14
1.67927e-13
4.14116e-13
8.72229e-13
1.60218e-12
2.63336e-12
3.99874e-12
5.8324e-12
8.52541e-12
1.2835e-11
2.05665e-11
4.75704e-11
1.05435e-10
9.35223e-11
9.6614e-11
9.09775e-06
5.70974e-16
4.35203e-15
2.2254e-14
8.67966e-14
2.74196e-13
7.15564e-13
1.56327e-12
2.90962e-12
4.72991e-12
6.94321e-12
9.61372e-12
1.31802e-11
1.84727e-11
2.75682e-11
4.557e-11
1.50484e-10
1.22522e-10
6.90704e-10
1.37512e-08
6.07806e-16
5.12205e-15
2.84709e-14
1.22261e-13
4.26358e-13
1.20434e-12
2.77503e-12
5.30776e-12
8.65309e-12
1.24571e-11
1.66242e-11
2.1756e-11
2.88559e-11
4.05701e-11
8.21701e-11
9.97697e-11
3.42996e-10
1.28037e-07
3.29275e-08
5.67227e-16
5.2072e-15
3.2242e-14
1.57806e-13
6.27366e-13
1.95048e-12
4.79071e-12
9.50793e-12
1.57262e-11
2.25134e-11
2.94426e-11
3.76604e-11
4.88267e-11
6.72792e-11
1.19293e-10
2.93892e-10
2.94013e-10
5.27029e-08
1.32483e-08
4.38235e-16
4.44776e-15
3.19528e-14
1.84774e-13
8.61162e-13
2.96332e-12
7.79262e-12
1.61461e-11
2.73724e-11
3.94949e-11
5.145e-11
6.57437e-11
8.6814e-11
1.24822e-10
2.32509e-10
5.80869e-10
8.2417e-10
5.76597e-10
1.33177e-09
2.64051e-16
3.1294e-15
2.74411e-14
1.92246e-13
1.07039e-12
4.05227e-12
1.1441e-11
2.48918e-11
4.37773e-11
6.46671e-11
8.52856e-11
1.10132e-10
1.50809e-10
2.37713e-10
4.82028e-10
8.14524e-10
7.94342e-10
5.55121e-10
1.16286e-09
1.16799e-16
1.7811e-15
1.99276e-14
1.69561e-13
1.13963e-12
4.6862e-12
1.43205e-11
3.29806e-11
6.1287e-11
9.49766e-11
1.29443e-10
1.70713e-10
2.31183e-10
3.72666e-10
6.04278e-10
6.5321e-10
5.5319e-10
5.5313e-10
6.86493e-10
3.4682e-17
7.64493e-16
1.1029e-14
1.1208e-13
9.24971e-13
4.08616e-12
1.37546e-11
3.37985e-11
6.7968e-11
1.14659e-10
1.65751e-10
2.31093e-10
2.93923e-10
3.58498e-10
1.12416e-09
6.56426e-10
3.80019e-08
4.78245e-09
6.97275e-10
5.46574e-18
1.895e-16
3.45449e-15
4.04916e-14
4.28022e-13
2.02016e-12
7.65571e-12
2.00738e-11
4.45161e-11
8.54133e-11
1.34402e-10
2.04599e-10
2.83715e-10
3.26016e-10
3.2615e-10
4.73198e-08
1.77041e-07
1.77042e-07
4.4312e-08
)
;

boundaryField
{
    leftWall
    {
        type            zeroGradient;
    }
    rightWall
    {
        type            zeroGradient;
    }
    lowerWall
    {
        type            zeroGradient;
    }
    atmosphere
    {
        type            inletOutlet;
        inletValue      uniform 0;
        value           nonuniform List<scalar> 
46
(
0
0
0
0
6.79395e-16
4.42354e-16
2.49945e-16
1.21388e-16
4.98529e-17
1.69744e-17
4.67274e-18
1.00503e-18
1.6149e-19
1.98217e-20
0
0
0
0
0
0
0
0
0
0
0
0
0
0
0
0
0
0
0
0
0
0
0
0
2.04599e-10
2.83715e-10
3.26016e-10
3.2615e-10
4.73198e-08
1.77041e-07
1.77042e-07
4.4312e-08
)
;
    }
    defaultFaces
    {
        type            empty;
    }
}


// ************************************************************************* //
