/*--------------------------------*- C++ -*----------------------------------*\
| =========                 |                                                 |
| \\      /  F ield         | OpenFOAM: The Open Source CFD Toolbox           |
|  \\    /   O peration     | Version:  2.3.0                                 |
|   \\  /    A nd           | Web:      www.OpenFOAM.org                      |
|    \\/     M anipulation  |                                                 |
\*---------------------------------------------------------------------------*/
FoamFile
{
    version     2.0;
    format      ascii;
    class       volScalarField;
    location    "2.95";
    object      epsilon;
}
// * * * * * * * * * * * * * * * * * * * * * * * * * * * * * * * * * * * * * //

dimensions      [0 2 -3 0 0 0 0];

internalField   nonuniform List<scalar> 
2268
(
0.00371257
0.0230061
0.0434055
0.0627974
0.0805554
0.096391
0.110252
0.122288
0.132744
0.141847
0.149662
0.156136
0.161111
0.164344
0.165466
0.163384
0.154893
0.142768
0.126824
0.106159
0.0789428
0.046253
0.0138238
0.00844696
0.0140539
0.0218119
0.0299111
0.0377147
0.0448923
0.0512916
0.0568919
0.0617568
0.0659806
0.0696071
0.0726243
0.0749758
0.0765596
0.077205
0.0765553
0.0740193
0.0700221
0.0641207
0.0559549
0.0451653
0.0318389
0.0204289
0.0156305
0.0156967
0.0206001
0.0263071
0.0320146
0.0373667
0.0421939
0.0464461
0.050148
0.0533549
0.0560986
0.0583731
0.0601424
0.0613406
0.061858
0.0615005
0.0600307
0.0574975
0.0536746
0.0482818
0.0410042
0.0320744
0.030882
0.0235229
0.0188736
0.0222383
0.0268323
0.0315894
0.0361119
0.0402218
0.0438611
0.0470396
0.0497932
0.0521436
0.0540849
0.0555888
0.0566078
0.0570664
0.0568436
0.0558078
0.0539261
0.0510649
0.0470102
0.0415099
0.0349371
0.0399319
0.0319525
0.0227866
0.0250035
0.0288713
0.033024
0.037014
0.0406586
0.0438995
0.0467407
0.0492068
0.0513117
0.0530471
0.0543887
0.0553009
0.0557324
0.0556027
0.0548218
0.0533492
0.0511104
0.047978
0.0438284
0.0392164
0.0484382
0.0409886
0.0273372
0.0285558
0.0318455
0.0355204
0.0390806
0.0423429
0.0452544
0.0478188
0.0500539
0.0519672
0.0535475
0.0547721
0.055612
0.0560311
0.0559747
0.0553779
0.0542099
0.0524472
0.0500744
0.0472083
0.0449212
0.0584908
0.0508709
0.0326095
0.0328543
0.0356048
0.0388279
0.0419714
0.0448569
0.0474427
0.0497358
0.0517505
0.0534888
0.0549353
0.0560663
0.0568524
0.0572667
0.0572729
0.0568243
0.0559027
0.0545312
0.052826
0.0512724
0.0523013
0.0774204
0.0622422
0.0387716
0.0379614
0.0401374
0.0428672
0.0455471
0.0480107
0.0502334
0.0522293
0.0540099
0.0555716
0.0568934
0.0579455
0.0586892
0.059103
0.0591655
0.0588443
0.0581296
0.0570812
0.0559445
0.0556062
0.060887
0.138767
0.0168066
0.0642464
0.100093
0.118126
0.124077
0.120324
0.112336
0.101673
0.0821848
0.0658373
0.0671745
0.0608438
0.0512881
0.0488841
0.0515473
0.053571
0.0476896
0.0321615
0.00950844
0.0186262
0.0354809
0.0483736
0.0556297
0.0586054
0.0582066
0.0556925
0.0513069
0.0453194
0.0387503
0.0353963
0.0323927
0.0297875
0.0284463
0.0270425
0.0252361
0.0225911
0.0185517
0.0138865
0.0264301
0.0341532
0.0413928
0.0455402
0.047281
0.0470646
0.0454508
0.0422917
0.0381369
0.0337704
0.0306769
0.0282871
0.0265079
0.0252227
0.0236535
0.0221853
0.0209848
0.0199442
0.021211
0.0366375
0.0373154
0.0409119
0.0430625
0.0438566
0.0434529
0.0420666
0.0394207
0.0360324
0.0326446
0.029883
0.0277051
0.0260911
0.0247436
0.0233487
0.0223324
0.0219547
0.0225178
0.0284357
0.0504287
0.0425359
0.042626
0.043076
0.0430375
0.0423548
0.0410149
0.0386767
0.0357699
0.0329432
0.0304408
0.0283936
0.0268335
0.0254333
0.0241367
0.0233976
0.0234787
0.0250616
0.0356761
0.0689724
0.0489869
0.0452914
0.0442006
0.0434284
0.0424561
0.0411109
0.0390064
0.0364719
0.0340206
0.0317146
0.0297739
0.0282628
0.0268464
0.0255429
0.0248762
0.0251717
0.0274873
0.0431647
0.0997781
0.0560486
0.0482733
0.0458628
0.0444852
0.0432567
0.0419061
0.0400172
0.0378166
0.0356428
0.0334672
0.0316026
0.0301572
0.0287515
0.0273845
0.0266284
0.0269853
0.0299752
0.0514091
0.172019
0.0626182
0.0510774
0.0477607
0.0459458
0.0445328
0.0432153
0.0415593
0.0396665
0.0376918
0.0355833
0.0337518
0.0323523
0.0309528
0.0294961
0.0285773
0.0289208
0.032553
0.0599132
0.0786174
0.0488882
0.0468391
0.0481969
0.0501212
0.0519956
0.0537082
0.0552836
0.0567576
0.0581409
0.0594198
0.0605627
0.0615078
0.0621953
0.0626082
0.0627513
0.0626114
0.0621754
0.0615299
0.0610681
0.0619039
0.0676634
0.0948281
0.10685
0.067334
0.0633013
0.0630139
0.0631933
0.0633248
0.0634601
0.0637416
0.0642375
0.0649323
0.0657691
0.06667
0.0674819
0.0680644
0.0684184
0.0686292
0.068708
0.0685456
0.0681045
0.0678274
0.0686872
0.0724193
0.0827554
0.142578
0.0929453
0.0859663
0.0827481
0.0798958
0.077136
0.0748145
0.0732511
0.0724886
0.0723832
0.072761
0.0734547
0.0742027
0.0746076
0.0747531
0.0749958
0.0754259
0.0756505
0.0751382
0.0744292
0.0745916
0.0761717
0.0797219
0.193815
0.13148
0.117193
0.108182
0.100127
0.0927417
0.0868335
0.0829393
0.0808331
0.0799915
0.0799765
0.0805766
0.0815744
0.0816331
0.0811408
0.0813011
0.0824646
0.083645
0.082678
0.0807282
0.0801215
0.0800856
0.080773
0.286884
0.195847
0.158785
0.137868
0.121731
0.107753
0.097444
0.0913561
0.088433
0.087409
0.0871757
0.087408
0.0880215
0.0877631
0.0867726
0.0865051
0.0878027
0.0900447
0.0882308
0.0857269
0.0843285
0.0828016
0.081759
0.408802
0.265414
0.202676
0.163011
0.137425
0.117766
0.104228
0.096959
0.0940368
0.0934648
0.0935637
0.0934802
0.0936593
0.0928744
0.0911904
0.0901569
0.0904333
0.0909857
0.0901562
0.0883726
0.0862424
0.0841616
0.0815395
0.525385
0.269373
0.221194
0.177627
0.144196
0.121605
0.107118
0.0999337
0.0976454
0.0971932
0.0959344
0.0952988
0.0952388
0.093784
0.0919116
0.0909785
0.0917208
0.0928249
0.0931923
0.0915869
0.088804
0.0866653
0.0823232
0.666487
0.287637
0.243944
0.191632
0.146641
0.120978
0.106802
0.100176
0.0973223
0.0958142
0.0946349
0.0940237
0.0930949
0.0916546
0.0902287
0.0896603
0.0909547
0.0939079
0.0960683
0.0940966
0.0889678
0.0837873
0.0792645
0.761441
0.294224
0.23786
0.182995
0.140656
0.116526
0.103713
0.0973131
0.0939663
0.0927017
0.0924575
0.0912273
0.0892288
0.0878087
0.0868455
0.0865567
0.0876374
0.0905184
0.0922736
0.0895455
0.0838391
0.078912
0.0749254
0.774417
0.283938
0.208845
0.1623
0.130169
0.110442
0.0988834
0.0929404
0.0900866
0.0889733
0.0881262
0.0863147
0.0840617
0.0825523
0.0817574
0.0816448
0.0822787
0.0836456
0.0838839
0.0813156
0.0772789
0.0735946
0.0703169
0.716806
0.275524
0.192165
0.150222
0.123691
0.105779
0.09442
0.088641
0.0856102
0.0836885
0.0818778
0.0799582
0.078099
0.0767977
0.076147
0.0760019
0.0761786
0.0763974
0.0757842
0.0737497
0.0709583
0.0681505
0.0653838
0.649887
0.280017
0.191792
0.147818
0.120065
0.101786
0.0907726
0.0845869
0.0808519
0.0781868
0.0760023
0.0741597
0.0726712
0.0716908
0.0712004
0.0709563
0.0707171
0.0702371
0.0691922
0.0674563
0.0653154
0.0630156
0.0605857
0.58599
0.281302
0.193753
0.145009
0.115576
0.0979971
0.0874486
0.0808921
0.0765612
0.0734496
0.0711206
0.06939
0.0681977
0.0675125
0.0671329
0.0667567
0.0661902
0.0653006
0.0640172
0.0623713
0.0604959
0.0584648
0.0562721
0.517985
0.26439
0.184749
0.137652
0.110342
0.0942211
0.0842137
0.0776045
0.0730078
0.0696866
0.0672921
0.0656313
0.0645966
0.0640417
0.0636629
0.0631571
0.0623733
0.0612769
0.0598795
0.0582529
0.056478
0.0545879
0.0525833
0.438873
0.237998
0.170655
0.129126
0.104862
0.0902353
0.080847
0.074406
0.0697918
0.0664359
0.0640418
0.0624226
0.0614325
0.0608664
0.060418
0.0598186
0.0589411
0.0577718
0.0563604
0.0547778
0.053082
0.0513047
0.0494717
0.362633
0.211675
0.156724
0.121068
0.0993596
0.0859422
0.0771139
0.0709411
0.0664632
0.0631933
0.0608612
0.0592816
0.0582867
0.0576616
0.0571391
0.0564953
0.055617
0.0544879
0.0531494
0.0516628
0.050082
0.0484478
0.046804
0.2905
0.182794
0.143384
0.113486
0.0939432
0.081341
0.0729593
0.0670629
0.062789
0.0596766
0.0574561
0.0559358
0.0549412
0.0542725
0.0537104
0.0530733
0.0522594
0.051243
0.0500482
0.0487211
0.04731
0.0458606
0.044424
0.225126
0.153804
0.128099
0.105674
0.0885098
0.0765392
0.0684583
0.0628261
0.0587781
0.0558572
0.0537799
0.052345
0.0513792
0.0507059
0.0501482
0.0495601
0.0488514
0.0479883
0.0469784
0.0458528
0.0446514
0.0434187
0.0422048
0.169463
0.127266
0.111826
0.0961806
0.0821717
0.0714408
0.0637763
0.0583909
0.0545782
0.0518656
0.0499492
0.0486204
0.0477124
0.0470711
0.0465535
0.0460418
0.0454574
0.0447625
0.0439526
0.0430453
0.0420709
0.0410676
0.0400799
0.126149
0.104406
0.0961431
0.0857347
0.0748469
0.0657052
0.0588181
0.0538612
0.0503613
0.0478847
0.0461391
0.044928
0.0440978
0.0435131
0.0430566
0.0426332
0.0421752
0.0416444
0.0410284
0.0403342
0.0395823
0.0388025
0.0380305
0.0957748
0.0854653
0.0818486
0.0751166
0.0669533
0.0595442
0.0536855
0.049344
0.0462256
0.0440295
0.0424881
0.0414154
0.0406771
0.0401618
0.039775
0.0394396
0.0390987
0.0387157
0.0382739
0.0377726
0.0372233
0.036647
0.0360699
0.0760689
0.0699892
0.0690279
0.0648259
0.0589424
0.0532459
0.0485438
0.0449496
0.0423089
0.0404165
0.0390914
0.0381718
0.0375383
0.0371018
0.0367881
0.0365358
0.0362977
0.0360412
0.0357478
0.0354115
0.0350368
0.0346366
0.0342287
0.0634618
0.0574183
0.0576798
0.0552357
0.0512317
0.0471139
0.0435729
0.040776
0.0386646
0.0371172
0.036013
0.0352492
0.0347286
0.0343768
0.0341369
0.0339617
0.0338129
0.0336623
0.0334916
0.0332917
0.0330619
0.0328084
0.0325416
0.0549972
0.0474026
0.0479677
0.0467082
0.0441884
0.0414225
0.0389412
0.0369101
0.0353285
0.0341385
0.0332717
0.0326639
0.0322586
0.0319957
0.0318311
0.0317291
0.0316596
0.0315987
0.0315292
0.0314408
0.0313291
0.0311951
0.0310439
0.0488837
0.0396491
0.0400322
0.0395007
0.0380678
0.0363713
0.0347781
0.0334209
0.0323259
0.0314783
0.0308493
0.0304061
0.0301159
0.0299466
0.0298605
0.0298313
0.0298357
0.0298541
0.0298709
0.0298752
0.0298604
0.0298242
0.0297673
0.044197
0.0337749
0.0338046
0.0336661
0.0329674
0.0320571
0.0311567
0.0303506
0.0296723
0.0291325
0.0287287
0.0284508
0.0282836
0.0282099
0.0282071
0.0282538
0.0283318
0.0284249
0.0285194
0.0286043
0.0286719
0.0287176
0.0287392
0.0405206
0.0293492
0.0290188
0.0290655
0.0288416
0.028482
0.0280923
0.0277115
0.0273713
0.0270955
0.026897
0.0267794
0.0267392
0.0267682
0.026855
0.0269831
0.0271382
0.0273066
0.0274759
0.0276355
0.0277771
0.0278946
0.027984
0.0376813
0.0259834
0.0253433
0.0254681
0.0255592
0.0255816
0.0255545
0.0254889
0.0254145
0.0253602
0.0253458
0.0253815
0.0254703
0.0256098
0.0257939
0.0260113
0.0262501
0.0264984
0.0267444
0.0269779
0.0271901
0.0273743
0.0275251
0.0355326
0.0233824
0.0225086
0.0226705
0.0229728
0.0232592
0.0234851
0.023651
0.0237859
0.0239187
0.0240703
0.0242531
0.0244729
0.02473
0.0250209
0.0253379
0.0256701
0.0260062
0.0263348
0.0266454
0.0269292
0.0271786
0.027388
0.0337802
0.0213954
0.0203415
0.0205293
0.0209658
0.0214235
0.0218239
0.0221641
0.0224693
0.0227647
0.0230693
0.0233953
0.0237492
0.0241324
0.024542
0.0249713
0.0254095
0.0258448
0.0262652
0.0266599
0.0270192
0.0273356
0.0276032
0.0323552
0.0199599
0.0187568
0.0189469
0.0194521
0.0200085
0.0205293
0.0210055
0.0214542
0.0218951
0.0223443
0.0228128
0.0233068
0.0238272
0.0243707
0.0249292
0.0254901
0.0260398
0.026565
0.0270535
0.0274953
0.0278825
0.0282095
0.0314175
0.0189833
0.0176825
0.0178452
0.0183678
0.0189753
0.0195797
0.0201635
0.020735
0.0213087
0.0218978
0.0225121
0.0231567
0.0238311
0.0245296
0.02524
0.0259462
0.0266308
0.0272776
0.0278728
0.0284056
0.0288686
0.0292571
0.0309572
0.0184265
0.017043
0.0171575
0.0176674
0.0182975
0.0189584
0.0196267
0.0203042
0.0210016
0.0217305
0.0224998
0.0233132
0.0241675
0.025052
0.025947
0.0268295
0.0276759
0.0284657
0.0291827
0.0298163
0.0303601
0.0308115
0.0309244
0.0182501
0.0167763
0.0168309
0.0173117
0.0179451
0.0186419
0.0193759
0.0201467
0.0209638
0.0218391
0.0227821
0.0237949
0.0248701
0.0259868
0.0271136
0.0282154
0.0292587
0.0302171
0.0310727
0.0318159
0.0324437
0.0329571
0.0312827
0.0184072
0.0168339
0.0168208
0.0172601
0.0178809
0.0185963
0.0193815
0.0202376
0.0211769
0.0222151
0.0233642
0.024626
0.0259859
0.027406
0.028834
0.0302142
0.0314986
0.0326542
0.0336634
0.0345214
0.0352316
0.0358017
0.0319749
0.0188529
0.0171833
0.0170959
0.0174774
0.0180655
0.018781
0.0196045
0.0205423
0.0216141
0.0228439
0.0242515
0.0258408
0.0275855
0.0294193
0.0312503
0.032988
0.034565
0.0359445
0.0371154
0.0380842
0.0388664
0.0394805
0.0329165
0.0195958
0.0178747
0.0176889
0.0179632
0.0184736
0.0191572
0.0200011
0.0210184
0.0222394
0.0237041
0.0254492
0.027488
0.0297777
0.0321999
0.0345821
0.0367768
0.0386971
0.0403137
0.0416366
0.0426954
0.0435255
0.0441607
0.0341887
0.0210819
0.0193917
0.0188989
0.0188435
0.0191292
0.0197003
0.0205271
0.0216156
0.0230058
0.0247625
0.0269577
0.0296337
0.0327325
0.0360317
0.0391776
0.0419373
0.0442263
0.0460573
0.0474886
0.0485899
0.049425
0.0500458
0.0378989
0.0265329
0.0241345
0.0219636
0.0205978
0.0201688
0.0204154
0.0211406
0.0222756
0.0238502
0.0259644
0.0287597
0.0323573
0.0367133
0.0414028
0.0455996
0.0489922
0.0515962
0.0535447
0.054986
0.0560464
0.0568221
0.0573814
0.0659488
0.0511314
0.0401067
0.0306239
0.0244525
0.0218944
0.0213304
0.0217941
0.0229258
0.0246841
0.0272108
0.0307752
0.035695
0.0420791
0.0491904
0.0547523
0.0586676
0.0613549
0.0632022
0.0644847
0.0653847
0.0660197
0.0664643
0.27955
0.122528
0.0750604
0.0508096
0.0322299
0.0245916
0.0224096
0.0224054
0.0234708
0.025384
0.0283238
0.032761
0.0394303
0.0490753
0.0610857
0.0680074
0.0718401
0.0740767
0.0754613
0.0763601
0.0769634
0.0773759
0.0776573
1.5764
0.203646
0.105838
0.0812158
0.043037
0.0275905
0.023326
0.0228151
0.023794
0.0257974
0.0290243
0.0341581
0.0425456
0.0566334
0.0808587
0.0870999
0.0892281
0.0901727
0.0906827
0.0909924
0.091193
0.0913271
0.0914164
0.22874
0.181013
0.184498
0.241638
0.0988149
0.100105
0.100357
0.0989564
0.0829829
0.0836883
0.0829379
0.0805603
0.0814875
0.0816363
0.0806803
0.0782999
0.0817358
0.0810718
0.0793194
0.0768221
0.0799527
0.0787774
0.0774157
0.0757558
0.0793102
0.0779366
0.0767111
0.074917
0.0762841
0.0749948
0.0737374
0.072048
0.0723656
0.0709277
0.0694713
0.0678965
0.0679688
0.0664714
0.0649675
0.0634932
0.063232
0.0618282
0.0604282
0.0590856
0.0586282
0.0573586
0.0561045
0.0549052
0.0545054
0.0533725
0.0522624
0.0511985
0.0510039
0.0500018
0.0490246
0.048084
0.048075
0.0472004
0.0463512
0.0455291
0.0455899
0.0448349
0.0441031
0.0433915
0.0433871
0.0427456
0.0421246
0.0415184
0.0413423
0.0408099
0.040294
0.0397882
0.0393842
0.0389543
0.0385365
0.0381242
0.0374879
0.0371513
0.0368221
0.0364944
0.0356622
0.0354074
0.0351557
0.0349022
0.0339359
0.0337501
0.0335638
0.0333731
0.0323442
0.0322159
0.0320846
0.0319467
0.0309245
0.030844
0.0307583
0.0306648
0.0297119
0.029671
0.0296233
0.0295668
0.0287371
0.0287293
0.0287135
0.0286882
0.0280274
0.0280481
0.0280597
0.0280609
0.027609
0.027655
0.0276906
0.0277151
0.0275095
0.0275787
0.0276363
0.0276815
0.027761
0.0278523
0.0279302
0.0279945
0.0284031
0.0285158
0.0286131
0.028695
0.0294864
0.0296197
0.0297353
0.0298336
0.0310756
0.0312286
0.0313611
0.0314739
0.0332536
0.0334242
0.0335714
0.0336963
0.0361255
0.03631
0.0364681
0.0366014
0.0398223
0.0400148
0.0401781
0.0403146
0.0445059
0.0446976
0.0448584
0.0449912
0.0503744
0.0505539
0.0507024
0.0508233
0.0576691
0.0578235
0.057949
0.0580493
0.0666861
0.0668025
0.0668953
0.0669677
0.0777932
0.0778627
0.0779165
0.077957
0.0914577
0.0914779
0.0914928
0.0915034
0.0974358
0.0640902
0.0545727
0.0508339
0.0486434
0.047108
0.0459706
0.0447257
0.0432428
0.041453
0.0393584
0.0374888
0.0360325
0.0345591
0.0329428
0.0316553
0.0318208
0.035922
0.0683111
0.0791502
0.0646048
0.0582071
0.0550471
0.0529659
0.0518129
0.0514382
0.0509051
0.049764
0.0479136
0.0455263
0.0431745
0.0411666
0.0392083
0.0372103
0.0356879
0.0358586
0.0402834
0.0752481
0.0737124
0.0658903
0.0616876
0.0593119
0.0576086
0.0574406
0.0584872
0.0589574
0.058061
0.0557662
0.0525252
0.0492258
0.0463629
0.0437022
0.0412348
0.0395698
0.039958
0.0441507
0.0743602
0.0731497
0.0677171
0.064864
0.0632598
0.0623259
0.0636029
0.066947
0.0689949
0.0683976
0.0654807
0.060612
0.0557561
0.0518758
0.0483022
0.0451751
0.0434818
0.0445952
0.0490043
0.076567
0.072188
0.0679455
0.0656858
0.0641204
0.0633471
0.0645465
0.067681
0.0699373
0.0692835
0.0661704
0.0615808
0.0565038
0.0523417
0.0490788
0.0472173
0.047084
0.047958
0.0522419
0.0808193
0.0718747
0.06769
0.0653137
0.0640006
0.0631077
0.0625959
0.0627005
0.0624769
0.0613385
0.0595589
0.0575966
0.0548322
0.0512854
0.0482847
0.0466784
0.0463998
0.0466069
0.0513153
0.0791417
0.0711233
0.0670293
0.064776
0.0637815
0.0629231
0.0617809
0.0604583
0.0586149
0.0566346
0.0549554
0.0537325
0.051987
0.0489105
0.0457979
0.0440111
0.0435502
0.0440144
0.0489365
0.0779652
0.0688911
0.0655338
0.063812
0.0631032
0.0620961
0.0605151
0.0583463
0.0555215
0.0528811
0.0509444
0.0497429
0.0482239
0.0456261
0.0429112
0.0412117
0.0405853
0.0412125
0.0464924
0.0815876
0.065359
0.0627036
0.0611626
0.060138
0.0587449
0.0567794
0.0543156
0.051484
0.0488858
0.0469612
0.0456703
0.044173
0.0419772
0.0397227
0.0382197
0.0377361
0.0386138
0.0432855
0.077597
0.0612631
0.0588956
0.0572304
0.0557911
0.054095
0.0520475
0.0496852
0.0471698
0.0448828
0.043097
0.0417152
0.0402064
0.0383277
0.0364813
0.0351714
0.0348087
0.0354587
0.03781
0.0588506
0.057089
0.0548727
0.0530767
0.0513691
0.049522
0.0475258
0.0453819
0.0432108
0.0412388
0.0395914
0.0381523
0.0366508
0.0349933
0.0334055
0.0321622
0.0316534
0.03168
0.0317023
0.0391674
0.0531176
0.051021
0.0491769
0.0473867
0.045561
0.0437009
0.0418023
0.0399381
0.038221
0.0366798
0.0352241
0.0337344
0.0321796
0.0306575
0.0293049
0.0283869
0.0276888
0.0264189
0.0291073
0.0495951
0.047622
0.0458234
0.0440953
0.0423905
0.0407054
0.0390352
0.0374088
0.0358669
0.0344083
0.0329817
0.0315281
0.0300274
0.0285093
0.0270728
0.0258941
0.0249887
0.0242677
0.0279902
0.0466485
0.0448233
0.043135
0.0415295
0.0399747
0.0384584
0.0369711
0.0355153
0.034097
0.0327113
0.0313406
0.0299625
0.0285664
0.0271633
0.0258239
0.0247177
0.0241095
0.0246122
0.0318737
0.0442543
0.042591
0.0410382
0.0395718
0.0381645
0.0367947
0.0354494
0.0341211
0.0328034
0.031494
0.0301951
0.0289079
0.0276348
0.0263916
0.0252453
0.0243868
0.0242638
0.0260471
0.0372445
0.0422724
0.0407832
0.0393802
0.0380548
0.0367824
0.0355379
0.0343069
0.0330801
0.0318497
0.030616
0.0293897
0.0281834
0.0270112
0.0259028
0.0249429
0.0243576
0.024711
0.0276123
0.0425037
0.0405515
0.0392422
0.0379945
0.0368063
0.0356572
0.0345229
0.0333894
0.0322483
0.0310937
0.0299285
0.0287656
0.0276234
0.0265264
0.0255211
0.0247145
0.0243614
0.025097
0.0289009
0.0474967
0.0389689
0.0378388
0.0367443
0.0356873
0.034652
0.0336183
0.032573
0.0315087
0.0304222
0.0293183
0.0282113
0.0271236
0.0260893
0.0251706
0.0244933
0.0243327
0.0253708
0.0299055
0.0522943
0.0374449
0.0364874
0.0355405
0.0346084
0.0336805
0.0327411
0.0317788
0.0307876
0.0297664
0.0287217
0.0276698
0.0266373
0.0256669
0.0248331
0.0242761
0.0242872
0.0255886
0.0307175
0.0569017
0.0359441
0.0351483
0.0343413
0.0335283
0.0327029
0.031854
0.0309725
0.0300539
0.0290992
0.0281168
0.0271254
0.0261558
0.025258
0.0245157
0.0240801
0.024261
0.0258302
0.0315706
0.061706
0.0344674
0.0338194
0.0331427
0.0324424
0.0317154
0.0309544
0.0301531
0.0293086
0.0284239
0.0275096
0.0265864
0.0256898
0.0248749
0.0242325
0.0239216
0.0242612
0.0260567
0.0322956
0.065882
0.0330393
0.0325239
0.0319664
0.0313715
0.0307384
0.0300628
0.029341
0.0285723
0.0277615
0.0269213
0.0260749
0.0252601
0.0245357
0.0239962
0.0238041
0.0242838
0.0262588
0.0328449
0.0692414
0.0316993
0.0312997
0.0308488
0.0303507
0.0298059
0.0292124
0.0285687
0.0278762
0.0271416
0.0263791
0.0256136
0.0248846
0.0242527
0.0238137
0.0237315
0.024332
0.026446
0.0332568
0.0717076
0.0304904
0.0301898
0.0298325
0.0294216
0.0289581
0.0284418
0.027873
0.0272548
0.0265954
0.0259104
0.0252258
0.0245816
0.0240391
0.0236941
0.0237099
0.0244119
0.0266278
0.0335511
0.0729538
0.0294538
0.0292371
0.0289606
0.0286264
0.0282361
0.0277903
0.0272909
0.0267424
0.0261541
0.0255425
0.024934
0.0243689
0.0239082
0.0236467
0.0237463
0.0245288
0.0268108
0.0337459
0.0731136
0.0286269
0.0284808
0.0282731
0.0280053
0.0276789
0.0272956
0.0268581
0.0263719
0.0258473
0.0253013
0.0247603
0.0242643
0.0238734
0.0236812
0.0238475
0.0246887
0.0270063
0.033895
0.0727879
0.0280437
0.027957
0.0278072
0.0275956
0.0273237
0.0269936
0.0266087
0.0261755
0.0257045
0.0252129
0.024727
0.0242861
0.0239492
0.0238086
0.0240213
0.024899
0.0272306
0.0340602
0.0724004
0.027736
0.0276994
0.0275981
0.027433
0.0272059
0.0269191
0.0265767
0.0261853
0.0257556
0.0253048
0.0248585
0.0244553
0.0241531
0.0240426
0.0242788
0.0251703
0.0275012
0.0342967
0.0723266
0.027736
0.0277421
0.0276808
0.0275533
0.0273616
0.0271082
0.0267972
0.0264355
0.0260334
0.0256077
0.0251832
0.0247977
0.0245077
0.0244028
0.0246372
0.0255192
0.027839
0.0346609
0.0730786
0.0280791
0.0281217
0.0280931
0.027995
0.0278297
0.0275997
0.0273093
0.0269645
0.0265755
0.0261579
0.0257357
0.0253455
0.025043
0.0249173
0.0251231
0.0259729
0.0282749
0.0351926
0.0747305
0.0288068
0.0288803
0.0288779
0.0288019
0.0286546
0.0284388
0.0281581
0.0278178
0.0274269
0.0269998
0.026559
0.02614
0.0257985
0.0256239
0.0257738
0.026569
0.0288452
0.0358911
0.0767967
0.0299697
0.0300692
0.0300869
0.0300261
0.0298894
0.0296792
0.0293982
0.0290505
0.028643
0.028188
0.0277065
0.0272332
0.0268238
0.0265706
0.0266363
0.0273533
0.0295892
0.036761
0.0790763
0.0316312
0.0317513
0.0317833
0.0317316
0.0315989
0.031387
0.031097
0.0307308
0.0302924
0.029791
0.0292452
0.0286887
0.0281797
0.027815
0.0277665
0.0283808
0.0305597
0.0378488
0.0816833
0.0338703
0.0340052
0.0340458
0.0339977
0.0338636
0.0336442
0.0333383
0.0329442
0.0324615
0.0318943
0.0312575
0.0305842
0.0299374
0.0294226
0.0292215
0.029702
0.0318052
0.0392122
0.0846274
0.0367862
0.0369287
0.0369722
0.036923
0.0367837
0.0365533
0.0362272
0.0357984
0.0352592
0.0346056
0.0338455
0.0330118
0.0321746
0.0314503
0.0310449
0.0313525
0.033355
0.0408568
0.087719
0.0405022
0.0406441
0.0406846
0.0406308
0.0404848
0.0402428
0.039896
0.0394294
0.0388238
0.0380607
0.0371352
0.0360783
0.034968
0.0339527
0.0332727
0.0333567
0.035231
0.0428194
0.0910198
0.0451715
0.0453036
0.0453357
0.0452756
0.0451239
0.0448742
0.0445114
0.0440098
0.043332
0.0424336
0.0412824
0.0399001
0.0383925
0.0369646
0.0359117
0.035707
0.0374265
0.0451357
0.0950259
0.0509849
0.0510977
0.0511173
0.0510512
0.0508987
0.0506502
0.0502837
0.0497592
0.0490119
0.0479504
0.0464836
0.0446028
0.0424961
0.040474
0.0389149
0.0383436
0.039885
0.0477636
0.0996745
0.0581808
0.0582661
0.0582713
0.0582027
0.0580583
0.0578259
0.0574774
0.0569569
0.0561604
0.0549136
0.0529897
0.0502872
0.0472487
0.0443746
0.0421456
0.0411266
0.0424765
0.0505843
0.104793
0.06706
0.0671134
0.0671056
0.0670414
0.0669181
0.0667228
0.066425
0.0659565
0.0651683
0.0637518
0.0611667
0.0569416
0.052432
0.0483869
0.0453303
0.0438083
0.0449756
0.0533792
0.110093
0.0780065
0.0780295
0.0780151
0.0779661
0.0778801
0.0777472
0.0775419
0.0771998
0.0765496
0.0751269
0.0717387
0.0641988
0.0574303
0.0519566
0.048024
0.0460237
0.0470526
0.0558025
0.115099
0.0915156
0.0915187
0.0915104
0.0914914
0.0914608
0.0914152
0.0913449
0.0912203
0.0909392
0.0900909
0.0867752
0.0705933
0.0609387
0.0542098
0.0496391
0.0473297
0.0482973
0.0573521
0.118668
)
;

boundaryField
{
    leftWall
    {
        type            epsilonWallFunction;
        value           nonuniform List<scalar> 
50
(
0.00371257
0.00844696
0.0156305
0.0235229
0.0319525
0.0409886
0.0508709
0.0622422
0.0786174
0.10685
0.142578
0.193815
0.286884
0.408802
0.525385
0.666487
0.761441
0.774417
0.716806
0.649887
0.58599
0.517985
0.438873
0.362633
0.2905
0.225126
0.169463
0.126149
0.0957748
0.0760689
0.0634618
0.0549972
0.0488837
0.044197
0.0405206
0.0376813
0.0355326
0.0337802
0.0323552
0.0314175
0.0309572
0.0309244
0.0312827
0.0319749
0.0329165
0.0341887
0.0378989
0.0659488
0.27955
1.5764
)
;
        Cmu             0.09;
        kappa           0.41;
        E               9.8;
        value           nonuniform List<scalar> 
50
(
0.00371257
0.00844696
0.0156305
0.0235229
0.0319525
0.0409886
0.0508709
0.0622422
0.0786174
0.10685
0.142578
0.193815
0.286884
0.408802
0.525385
0.666487
0.761441
0.774417
0.716806
0.649887
0.58599
0.517985
0.438873
0.362633
0.2905
0.225126
0.169463
0.126149
0.0957748
0.0760689
0.0634618
0.0549972
0.0488837
0.044197
0.0405206
0.0376813
0.0355326
0.0337802
0.0323552
0.0314175
0.0309572
0.0309244
0.0312827
0.0319749
0.0329165
0.0341887
0.0378989
0.0659488
0.27955
1.5764
)
;
    }
    rightWall
    {
        type            epsilonWallFunction;
        value           nonuniform List<scalar> 
50
(
0.00950844
0.0138865
0.021211
0.0284357
0.0356761
0.0431647
0.0514091
0.0599132
0.0683111
0.0752481
0.0743602
0.076567
0.0808193
0.0791417
0.0779652
0.0815876
0.077597
0.0588506
0.0391674
0.0291073
0.0279902
0.0318737
0.0372445
0.0425037
0.0474967
0.0522943
0.0569017
0.061706
0.065882
0.0692414
0.0717076
0.0729538
0.0731136
0.0727879
0.0724004
0.0723266
0.0730786
0.0747305
0.0767967
0.0790763
0.0816833
0.0846274
0.087719
0.0910198
0.0950259
0.0996745
0.104793
0.110093
0.115099
0.118668
)
;
        Cmu             0.09;
        kappa           0.41;
        E               9.8;
        value           nonuniform List<scalar> 
50
(
0.00950844
0.0138865
0.021211
0.0284357
0.0356761
0.0431647
0.0514091
0.0599132
0.0683111
0.0752481
0.0743602
0.076567
0.0808193
0.0791417
0.0779652
0.0815876
0.077597
0.0588506
0.0391674
0.0291073
0.0279902
0.0318737
0.0372445
0.0425037
0.0474967
0.0522943
0.0569017
0.061706
0.065882
0.0692414
0.0717076
0.0729538
0.0731136
0.0727879
0.0724004
0.0723266
0.0730786
0.0747305
0.0767967
0.0790763
0.0816833
0.0846274
0.087719
0.0910198
0.0950259
0.0996745
0.104793
0.110093
0.115099
0.118668
)
;
    }
    lowerWall
    {
        type            epsilonWallFunction;
        value           nonuniform List<scalar> 
62
(
0.00371257
0.0230061
0.0434055
0.0627974
0.0805554
0.096391
0.110252
0.122288
0.132744
0.141847
0.149662
0.156136
0.161111
0.164344
0.165466
0.163384
0.154893
0.142768
0.126824
0.106159
0.0789428
0.046253
0.0138238
0.0138238
0.0204289
0.030882
0.0399319
0.0484382
0.0584908
0.0774204
0.138767
0.22874
0.181013
0.184498
0.241638
0.0168066
0.0186262
0.0264301
0.0366375
0.0504287
0.0689724
0.0997781
0.172019
0.0168066
0.0642464
0.100093
0.118126
0.124077
0.120324
0.112336
0.101673
0.0821848
0.0658373
0.0671745
0.0608438
0.0512881
0.0488841
0.0515473
0.053571
0.0476896
0.0321615
0.00950844
)
;
        Cmu             0.09;
        kappa           0.41;
        E               9.8;
        value           nonuniform List<scalar> 
62
(
0.00371257
0.0230061
0.0434055
0.0627974
0.0805554
0.096391
0.110252
0.122288
0.132744
0.141847
0.149662
0.156136
0.161111
0.164344
0.165466
0.163384
0.154893
0.142768
0.126824
0.106159
0.0789428
0.046253
0.0138238
0.0138238
0.0204289
0.030882
0.0399319
0.0484382
0.0584908
0.0774204
0.138767
0.22874
0.181013
0.184498
0.241638
0.0168066
0.0186262
0.0264301
0.0366375
0.0504287
0.0689724
0.0997781
0.172019
0.0168066
0.0642464
0.100093
0.118126
0.124077
0.120324
0.112336
0.101673
0.0821848
0.0658373
0.0671745
0.0608438
0.0512881
0.0488841
0.0515473
0.053571
0.0476896
0.0321615
0.00950844
)
;
    }
    atmosphere
    {
        type            inletOutlet;
        inletValue      uniform 0.1;
        value           nonuniform List<scalar> 
46
(
0.1
0.1
0.1
0.1
0.043037
0.0275905
0.023326
0.0228151
0.023794
0.0257974
0.0290243
0.0341581
0.0425456
0.0566334
0.1
0.1
0.1
0.1
0.1
0.1
0.1
0.1
0.1
0.1
0.1
0.1
0.1
0.1
0.1
0.1
0.1
0.1
0.1
0.1
0.1
0.1
0.1
0.1
0.0705933
0.0609387
0.0542098
0.0496391
0.0473297
0.0482973
0.0573521
0.118668
)
;
    }
    defaultFaces
    {
        type            empty;
    }
}


// ************************************************************************* //
