/*--------------------------------*- C++ -*----------------------------------*\
| =========                 |                                                 |
| \\      /  F ield         | OpenFOAM: The Open Source CFD Toolbox           |
|  \\    /   O peration     | Version:  2.3.0                                 |
|   \\  /    A nd           | Web:      www.OpenFOAM.org                      |
|    \\/     M anipulation  |                                                 |
\*---------------------------------------------------------------------------*/
FoamFile
{
    version     2.0;
    format      ascii;
    class       volScalarField;
    location    "2.95";
    object      k;
}
// * * * * * * * * * * * * * * * * * * * * * * * * * * * * * * * * * * * * * //

dimensions      [0 2 -2 0 0 0 0];

internalField   nonuniform List<scalar> 
2268
(
0.00113507
0.00312332
0.00475905
0.0060722
0.00715308
0.00804818
0.00879052
0.00940897
0.00992848
0.0103673
0.0107341
0.0110302
0.0112517
0.0113905
0.0114327
0.0113324
0.0109403
0.0103633
0.00957477
0.00850355
0.00698044
0.00488493
0.00217434
0.00263668
0.00734929
0.0107442
0.0134875
0.0157618
0.0176557
0.0192317
0.0205444
0.0216416
0.022558
0.0233116
0.0239044
0.0243262
0.0245565
0.0245609
0.0242698
0.0235578
0.0223926
0.0207755
0.0185499
0.0153568
0.0108918
0.00467386
0.00396845
0.0101244
0.0143301
0.0177051
0.0205051
0.0228385
0.0247803
0.0263959
0.0277415
0.0288589
0.0297696
0.0304761
0.030966
0.0312155
0.0311851
0.030804
0.0299676
0.0286118
0.0266775
0.0239609
0.0200807
0.0145821
0.00617498
0.00520411
0.0125814
0.0173505
0.0211264
0.0242476
0.0268434
0.0289997
0.03079
0.0322768
0.0335052
0.0344991
0.0352613
0.0357792
0.0360288
0.0359712
0.0355388
0.0346334
0.0331805
0.0310815
0.0281073
0.0238377
0.0176229
0.00735086
0.00637513
0.0149422
0.0202049
0.0242943
0.0276453
0.0304158
0.0327072
0.0346031
0.0361719
0.0374626
0.0385005
0.039289
0.0398161
0.0400598
0.0399801
0.0395147
0.0385729
0.0370705
0.0348884
0.0317852
0.0273017
0.0205485
0.0083849
0.0075193
0.0172847
0.0230286
0.0273947
0.030924
0.0338126
0.0361838
0.038135
0.039743
0.0410606
0.0421152
0.0429111
0.0434378
0.043672
0.0435766
0.0430932
0.0421376
0.0406201
0.038414
0.0352803
0.0307437
0.023687
0.00952711
0.00867878
0.0196614
0.0258948
0.0305205
0.034192
0.0371535
0.0395575
0.0415208
0.0431309
0.0444458
0.0454955
0.0462856
0.0468064
0.0470316
0.0469263
0.0464376
0.0454867
0.0439824
0.0417998
0.0387213
0.0343029
0.0273248
0.0114698
0.00992375
0.0221238
0.0288576
0.0337308
0.0375121
0.0405029
0.0428939
0.0448271
0.0464041
0.0476895
0.0487164
0.0494915
0.0500044
0.0502227
0.0501137
0.0496308
0.0487013
0.0472347
0.0451146
0.0421631
0.0380284
0.0316847
0.0168254
0.00249964
0.00609381
0.00817726
0.00912111
0.00941342
0.00921754
0.00882082
0.00825836
0.00716211
0.00620662
0.00629287
0.00587988
0.00525942
0.00510664
0.00528991
0.00542213
0.0050109
0.00385082
0.00214195
0.00473847
0.0129643
0.0172508
0.0193658
0.0201443
0.0200042
0.0193675
0.0182183
0.0160665
0.0142941
0.0141022
0.013211
0.0118949
0.0112089
0.011228
0.0110621
0.0100015
0.00773173
0.00388705
0.00598145
0.0167662
0.0219673
0.0245104
0.0254764
0.0253907
0.0246538
0.0232953
0.0212052
0.0194004
0.018689
0.0175808
0.0161816
0.0152546
0.0148751
0.0143412
0.0129737
0.0101482
0.00515132
0.00741422
0.0199834
0.0256672
0.0283501
0.0293555
0.0292809
0.0285103
0.0271055
0.0251485
0.0234108
0.0223545
0.0210909
0.0196437
0.0185021
0.0177986
0.017013
0.0154548
0.0122965
0.00625893
0.0091575
0.023218
0.0290591
0.031702
0.0326556
0.0325552
0.0317792
0.0304025
0.0285837
0.0269184
0.0256526
0.024278
0.0227917
0.0214762
0.0204767
0.0194536
0.0177169
0.0143249
0.00727707
0.0112661
0.0266769
0.0323476
0.0348227
0.0356683
0.0355178
0.0347515
0.0334427
0.0317642
0.0301693
0.0287729
0.0273197
0.0258034
0.0243531
0.0230678
0.0217678
0.0198152
0.0162316
0.00826014
0.0143828
0.0303834
0.0355881
0.0378104
0.0385166
0.0383073
0.0375633
0.0363491
0.03482
0.0332895
0.0317987
0.0302779
0.0287404
0.0271793
0.0256217
0.0239938
0.0217703
0.0179814
0.00928144
0.0206583
0.0342835
0.0387571
0.0406976
0.041258
0.041002
0.040301
0.0392063
0.0378272
0.0363444
0.0347699
0.0331757
0.0316039
0.0299333
0.0281137
0.0261389
0.0236124
0.0195822
0.0102739
0.0115706
0.025845
0.0334938
0.0388015
0.0427453
0.0457402
0.0480562
0.0498889
0.0513704
0.0525794
0.0535544
0.0543058
0.0548067
0.0550178
0.0549103
0.0544518
0.0535811
0.0522085
0.0502336
0.0475616
0.0440405
0.0392746
0.0318837
0.0141768
0.0315295
0.0405769
0.046445
0.0504425
0.0532099
0.0551881
0.0566885
0.0578989
0.058913
0.0597684
0.0604656
0.0609405
0.0611236
0.0610029
0.0605945
0.0598613
0.0586882
0.0569586
0.0546998
0.0520008
0.0488686
0.0453427
0.0171598
0.0380237
0.0488335
0.0551964
0.0589632
0.0611467
0.0624712
0.0634247
0.0642461
0.0650091
0.0657243
0.0663665
0.0668403
0.0669618
0.0667701
0.0664233
0.0659363
0.0650872
0.0635844
0.0616005
0.0594904
0.0572959
0.0551671
0.0210504
0.0452826
0.0586493
0.0652953
0.068332
0.069385
0.069654
0.0698817
0.0702833
0.0708141
0.0713973
0.072015
0.0726229
0.0726005
0.0721417
0.071816
0.07177
0.071524
0.0700935
0.0680162
0.0663002
0.0645373
0.0629038
0.0272528
0.0540971
0.0706138
0.0764145
0.0779187
0.0771512
0.0760407
0.0755873
0.0757757
0.0762927
0.0767812
0.0772085
0.077623
0.0774748
0.0768272
0.0763635
0.076472
0.0768615
0.0753117
0.0734116
0.0718941
0.0701345
0.0684908
0.0343383
0.0687494
0.0838041
0.0858649
0.0850929
0.0828039
0.080708
0.0799077
0.0801666
0.080907
0.0815385
0.0817985
0.0819962
0.0816198
0.0806973
0.0799221
0.0796095
0.0793437
0.078484
0.0772532
0.0757458
0.0741094
0.0721107
0.0406848
0.0755268
0.0906205
0.0916645
0.0888592
0.0858324
0.083537
0.0828509
0.0834014
0.084178
0.0841639
0.084168
0.0842764
0.0835958
0.0826017
0.0819041
0.0818714
0.081974
0.0818314
0.0808527
0.0792304
0.077784
0.0752
0.0476007
0.0812679
0.0975581
0.0967855
0.0908575
0.0869345
0.0847952
0.0843086
0.0845403
0.0847712
0.0847789
0.0848318
0.0845573
0.0838827
0.0830958
0.0825925
0.0828862
0.0839585
0.0847495
0.0836709
0.0810242
0.0782142
0.0756813
0.0516361
0.0840685
0.0979747
0.0959581
0.0902414
0.0864615
0.0846079
0.0840284
0.0838984
0.0841925
0.0846584
0.084435
0.0836527
0.0830068
0.0824531
0.0821171
0.0823745
0.0835209
0.0841993
0.0827803
0.079848
0.077206
0.0750086
0.0520696
0.0821457
0.091776
0.0910247
0.0877254
0.0849893
0.0832455
0.0826279
0.0826233
0.0829701
0.0831513
0.0826445
0.0817367
0.0810643
0.0806305
0.080443
0.0805763
0.0810918
0.0811012
0.0797473
0.077622
0.0756276
0.0738128
0.0495411
0.0798243
0.0872617
0.0875384
0.0857639
0.0833808
0.0814583
0.0807753
0.080642
0.0805934
0.0803075
0.0797544
0.0790659
0.0785357
0.0782367
0.0781206
0.0781315
0.0781676
0.0778019
0.0767127
0.0752054
0.0736529
0.0720842
0.0465214
0.0793843
0.0860185
0.0860646
0.0838476
0.0812142
0.0794039
0.0785353
0.0780969
0.0777245
0.0772895
0.0768173
0.0763723
0.0760761
0.0759466
0.0758774
0.0757671
0.0755142
0.0749584
0.0740229
0.072841
0.0715321
0.0701045
0.0436106
0.0784388
0.0847202
0.0834677
0.0807129
0.0784302
0.0769299
0.0760036
0.0753888
0.0748952
0.0744769
0.0741463
0.0739429
0.0738959
0.0739221
0.0738749
0.0736674
0.0732474
0.0725861
0.0716969
0.070643
0.0694542
0.068118
0.0403762
0.0737945
0.0798893
0.0786481
0.076622
0.0750743
0.0740197
0.0732764
0.0727196
0.0722824
0.071969
0.0717965
0.071788
0.0719146
0.0720349
0.0719979
0.0717367
0.0712452
0.0705398
0.0696621
0.0686528
0.0675229
0.0662653
0.0362935
0.0662909
0.0729772
0.0727625
0.0718426
0.0711399
0.0706512
0.0702675
0.0699481
0.0697011
0.0695615
0.0695572
0.0696968
0.0699221
0.0700922
0.0700759
0.0698184
0.0693256
0.0686345
0.0677893
0.0668224
0.0657479
0.0645767
0.0319736
0.0566843
0.0652546
0.0664607
0.0665664
0.0666875
0.0668039
0.0668729
0.0668995
0.066928
0.0670114
0.0671848
0.0674494
0.0677457
0.0679591
0.0679865
0.0677824
0.0673522
0.0667297
0.0659563
0.0650647
0.0640778
0.0630207
0.0276117
0.047218
0.0570654
0.0599539
0.0610558
0.0618609
0.0625672
0.063106
0.0635166
0.0638579
0.0641891
0.0645481
0.0649371
0.0653096
0.0655831
0.0656823
0.0655704
0.0652488
0.0647433
0.0640886
0.0633167
0.0624569
0.0615415
0.02332
0.0392287
0.0492358
0.0534894
0.0555373
0.0569551
0.0581324
0.0591045
0.0598831
0.0605319
0.0611098
0.0616549
0.0621744
0.0626389
0.0629945
0.0631899
0.0631967
0.0630133
0.0626574
0.0621566
0.0615406
0.0608403
0.0600897
0.0192975
0.0330901
0.0425786
0.0476194
0.0503657
0.0522439
0.0537691
0.0550771
0.0561719
0.0570911
0.0578917
0.0586111
0.0592616
0.0598292
0.0602826
0.0605888
0.0607278
0.0606966
0.0605067
0.0601791
0.0597396
0.059217
0.0586433
0.0158217
0.0286608
0.0374198
0.0426983
0.0458411
0.0480181
0.0497679
0.0512691
0.0525799
0.0537101
0.054694
0.0555646
0.0563363
0.0570076
0.057563
0.0579835
0.058256
0.0583773
0.0583548
0.0582039
0.0579453
0.0576038
0.0572066
0.0131253
0.0255424
0.0335923
0.0387622
0.0420506
0.0443865
0.0462643
0.0478784
0.0492988
0.0505605
0.051674
0.052659
0.0535319
0.0542971
0.0549491
0.055478
0.0558754
0.0561392
0.0562739
0.0562903
0.056204
0.0560346
0.0558037
0.0112252
0.0232557
0.0306766
0.035602
0.0389
0.0413134
0.0432661
0.044946
0.0464295
0.0477537
0.0489441
0.0500093
0.0509591
0.0518011
0.0525357
0.0531589
0.0536663
0.0540561
0.0543307
0.0544968
0.0545656
0.0545512
0.0544697
0.00993469
0.0214161
0.0282956
0.0329678
0.036233
0.038695
0.040707
0.0424381
0.0439658
0.0453308
0.0465606
0.0476755
0.0486817
0.0495843
0.0503872
0.0510899
0.0516903
0.052187
0.0525807
0.0528752
0.0530775
0.0531968
0.0532442
0.00902876
0.0198306
0.0262469
0.0306991
0.0339287
0.0364352
0.0385087
0.0402941
0.0418654
0.0432669
0.0445296
0.0456767
0.0467246
0.0476764
0.0485363
0.0493059
0.0499844
0.0505705
0.0510638
0.0514657
0.0517796
0.0520111
0.0521665
0.00834915
0.0184514
0.0244691
0.0287321
0.0319273
0.0344762
0.0366145
0.0384602
0.0400809
0.0415228
0.0428211
0.0440021
0.0450848
0.0460809
0.0469917
0.0478202
0.0485661
0.0492282
0.0498051
0.0502963
0.0507028
0.0510268
0.0512716
0.00780999
0.0172811
0.0229572
0.0270526
0.0302103
0.0327945
0.0349945
0.0369012
0.0385748
0.0400625
0.0414025
0.0426238
0.0437473
0.0447868
0.0457479
0.0466322
0.0474398
0.0481692
0.0488184
0.0493854
0.0498694
0.0502704
0.0505889
0.00737413
0.0163251
0.021707
0.025653
0.0287731
0.0313834
0.033635
0.035596
0.037321
0.038858
0.0402464
0.0415161
0.0426887
0.0437784
0.0447933
0.0457349
0.0466032
0.0473963
0.0481112
0.0487454
0.0492963
0.0497625
0.0501428
0.00702948
0.0155812
0.0206964
0.0245124
0.0276048
0.0302348
0.0325238
0.0345279
0.0363004
0.0378889
0.0393321
0.0406591
0.0418907
0.0430404
0.0441163
0.0451207
0.0460527
0.0469099
0.0476887
0.0483855
0.0489971
0.0495208
0.0499544
0.00676452
0.0150098
0.0198968
0.0236067
0.0266789
0.0293248
0.0316386
0.0336772
0.0354954
0.0371393
0.038645
0.0400391
0.0413405
0.0425614
0.0437088
0.0447845
0.0457869
0.0467125
0.0475569
0.0483158
0.0489853
0.049562
0.0500432
0.00654505
0.0145217
0.019269
0.0229101
0.0259657
0.028619
0.030951
0.0330235
0.0348914
0.0365978
0.0381754
0.0396478
0.0410314
0.0423365
0.043568
0.0447267
0.0458093
0.0468108
0.0477259
0.0485494
0.0492768
0.0499046
0.0504302
0.00636306
0.0141298
0.0188033
0.0224015
0.0254386
0.0280909
0.0304416
0.0325539
0.0344795
0.0362578
0.0379182
0.0394816
0.0409617
0.0423662
0.0436979
0.0449545
0.0461305
0.0472188
0.0482125
0.0491055
0.0498931
0.0505718
0.0511396
0.00624216
0.0139068
0.0185106
0.022067
0.0250818
0.0277324
0.0301062
0.0322651
0.0342565
0.0361165
0.0378718
0.0395407
0.0411344
0.0426578
0.0441097
0.0454837
0.0467704
0.0479598
0.0490427
0.050012
0.0508631
0.0515932
0.0522015
0.00618283
0.013824
0.018376
0.0218955
0.0248915
0.0275449
0.0299465
0.0321568
0.0342205
0.0361717
0.0380352
0.0398276
0.0415572
0.0432248
0.0448239
0.0463411
0.0477613
0.0490698
0.0502548
0.0513082
0.052226
0.0530073
0.0536538
0.00617857
0.0138511
0.0183806
0.0218779
0.0248638
0.0275256
0.0299584
0.0322233
0.0343652
0.0364179
0.0384062
0.0403456
0.0422417
0.0440894
0.0458726
0.0475683
0.0491518
0.0506017
0.0519029
0.0530475
0.0540335
0.0548637
0.0555435
0.0062244
0.0139772
0.0185124
0.0220037
0.024988
0.0276623
0.030128
0.0324501
0.0346764
0.0368437
0.038979
0.0410984
0.0432045
0.0452839
0.047305
0.0492279
0.0510132
0.0526303
0.0540613
0.0553008
0.056352
0.057224
0.0579282
0.00631282
0.0141949
0.0187662
0.0222665
0.0252527
0.0279376
0.0304338
0.0328137
0.0351315
0.0374301
0.0397425
0.0420888
0.0444693
0.0468573
0.0491959
0.0514142
0.0534493
0.0552599
0.0568289
0.0581587
0.0592634
0.0601623
0.0608759
0.00643425
0.0145252
0.019191
0.0227053
0.0256713
0.028343
0.0308535
0.0332852
0.0356996
0.0381493
0.0406787
0.043318
0.046069
0.0488842
0.0516619
0.0542706
0.0566105
0.0586331
0.0603335
0.0617329
0.0628649
0.0637646
0.0644644
0.00661024
0.0152197
0.0201261
0.0235636
0.0263613
0.0289118
0.0313768
0.0338339
0.0363424
0.0389628
0.0417582
0.0447809
0.0480449
0.0514781
0.0548903
0.0580185
0.0607126
0.0629392
0.0647325
0.0661534
0.0672657
0.068126
0.0687797
0.00717741
0.0177758
0.0231396
0.0258216
0.0277477
0.0297815
0.0320213
0.0344315
0.0370127
0.0398165
0.0429302
0.046452
0.0504389
0.0548045
0.0591909
0.0630026
0.0660573
0.0684148
0.070206
0.0715596
0.07258
0.0733457
0.0739135
0.0107675
0.0279386
0.0332557
0.0325444
0.0309595
0.0312629
0.0328344
0.0350462
0.0376507
0.0406326
0.0441041
0.048248
0.0532413
0.0590649
0.0650998
0.0697514
0.073035
0.0753221
0.0769321
0.078083
0.0789161
0.0795226
0.0799616
0.0277868
0.0535864
0.0565248
0.0496168
0.0379292
0.0337193
0.0338191
0.0356169
0.0381755
0.0413018
0.0451213
0.0499504
0.0562335
0.0643338
0.073639
0.0790322
0.082066
0.0838802
0.0850403
0.0858215
0.0863658
0.0867518
0.0870254
0.0854705
0.09063
0.0874575
0.0797261
0.0485155
0.0366508
0.0346973
0.0360046
0.0384844
0.0416909
0.0457456
0.0511059
0.0586188
0.0697532
0.0871827
0.0917703
0.093385
0.0941311
0.0945525
0.0948205
0.095002
0.0951285
0.0952169
0.0234607
0.0200039
0.0201848
0.0241769
0.0430712
0.0420634
0.041914
0.0426653
0.0539539
0.0533236
0.0528944
0.0526915
0.0620028
0.0615305
0.0609602
0.0602202
0.0676715
0.0669572
0.0659749
0.0649144
0.0707583
0.0698776
0.0690622
0.0682814
0.0733345
0.0724491
0.0717301
0.0708301
0.0739622
0.0731935
0.0724853
0.0716012
0.0735691
0.0727574
0.0719456
0.0710817
0.0724892
0.071636
0.0707719
0.0699192
0.0708363
0.0700078
0.0691669
0.0683458
0.068922
0.0681382
0.0673464
0.0665705
0.0670049
0.0662734
0.0655378
0.0648125
0.065234
0.0645618
0.0638869
0.0632164
0.0636409
0.0630365
0.0624306
0.0618236
0.0621954
0.061665
0.0611327
0.0605958
0.0608373
0.0603856
0.0599312
0.0594695
0.0595146
0.0591448
0.0587707
0.0583868
0.0581992
0.0579113
0.0576167
0.0573098
0.0568888
0.056679
0.0564598
0.0562259
0.055602
0.0554636
0.0553131
0.0551458
0.0543707
0.0542952
0.0542052
0.0540965
0.0532333
0.0532121
0.0531741
0.0531163
0.0522294
0.052254
0.0522603
0.0522456
0.0513954
0.0514583
0.0515016
0.0515231
0.0507631
0.0508576
0.0509316
0.0509833
0.0503588
0.0504798
0.0505793
0.050656
0.0502059
0.0503491
0.05047
0.0505676
0.0503257
0.050488
0.0506271
0.0507424
0.0507403
0.0509196
0.0510744
0.0512046
0.051475
0.0516692
0.0518378
0.0519806
0.05256
0.0527674
0.0529476
0.0531009
0.0540324
0.0542508
0.0544404
0.0546019
0.055938
0.0561645
0.0563605
0.0565271
0.0583319
0.0585621
0.0587603
0.0589281
0.0612787
0.0615064
0.0617012
0.0618651
0.0648524
0.0650694
0.0652536
0.0654074
0.0691348
0.0693312
0.0694962
0.0696328
0.0742152
0.0743799
0.0745169
0.074629
0.0801899
0.0803128
0.0804137
0.0804953
0.0871647
0.0872385
0.0872983
0.0873459
0.0952609
0.0952838
0.095302
0.0953162
0.0342467
0.0403865
0.0435497
0.0450625
0.04543
0.0451482
0.0445742
0.043699
0.0425249
0.041071
0.039362
0.0376242
0.0359228
0.0340377
0.0318322
0.0292548
0.0261705
0.0216088
0.0112051
0.0447426
0.0474783
0.0494936
0.0505918
0.050815
0.0506939
0.0505282
0.0500308
0.0490238
0.0474735
0.0454836
0.04334
0.041186
0.0388034
0.0360478
0.0328976
0.0292345
0.0238988
0.0119208
0.0527088
0.0536972
0.0549416
0.0557469
0.055921
0.0562542
0.0568199
0.0568128
0.0558762
0.0540089
0.0514606
0.0486833
0.0459112
0.0429447
0.0396591
0.0360528
0.0319599
0.0257273
0.0118019
0.0591084
0.0590115
0.0597149
0.0603384
0.0606861
0.0617037
0.0634123
0.0641292
0.0632393
0.0609601
0.0574842
0.0537833
0.05033
0.0467043
0.0428281
0.0388594
0.0345609
0.0274587
0.0120935
0.0632941
0.0626063
0.0627953
0.0629817
0.0632124
0.0641348
0.0657268
0.0664666
0.0653979
0.0628446
0.0593487
0.0553902
0.0516485
0.0480438
0.0446582
0.0412067
0.0363369
0.028082
0.0124858
0.066673
0.0653429
0.064917
0.064869
0.0648076
0.0646643
0.0645248
0.0638528
0.06239
0.0603716
0.0580964
0.0551981
0.0516042
0.0479673
0.0445849
0.0409754
0.0357476
0.0276199
0.0123288
0.0690526
0.067353
0.0666213
0.0664615
0.0661833
0.0654814
0.0643666
0.0626297
0.0605302
0.0583936
0.0563577
0.0538513
0.0503447
0.0464903
0.0429166
0.0392209
0.0343043
0.0271233
0.0122366
0.0700068
0.0684261
0.0677247
0.0674935
0.0669034
0.0657259
0.0639202
0.0614263
0.0587632
0.0563056
0.0541206
0.0515816
0.0481914
0.0444298
0.0408226
0.0370709
0.0324766
0.0261165
0.0126275
0.069701
0.0682937
0.0674803
0.0668552
0.065827
0.0642125
0.0620281
0.0593406
0.0565325
0.0539309
0.0515536
0.0488767
0.0455672
0.0419301
0.0383549
0.0347478
0.0305732
0.0245979
0.0122256
0.0686116
0.0671908
0.0661159
0.0650531
0.0636516
0.0617985
0.0594957
0.0568384
0.0540859
0.0514534
0.0489011
0.0460799
0.0428007
0.039257
0.0356929
0.0321765
0.0281827
0.0221244
0.0101744
0.06709
0.0656141
0.0643023
0.0629099
0.0612495
0.0592737
0.0569701
0.0544141
0.0517683
0.0491376
0.0464491
0.0435061
0.0402086
0.0366528
0.0329681
0.0292697
0.0250154
0.0186975
0.00773532
0.0653703
0.0638535
0.0623862
0.0608103
0.0590345
0.0570355
0.0548
0.0523744
0.0498412
0.0472231
0.0444495
0.0414134
0.0380541
0.0343948
0.0304897
0.0264268
0.0218201
0.015527
0.00636044
0.0636728
0.0621491
0.0606188
0.0589896
0.0572084
0.0552583
0.0531269
0.0508292
0.0483916
0.0458054
0.0430167
0.039955
0.0365719
0.0328597
0.0288523
0.0245971
0.0199028
0.0141302
0.00619941
0.0621461
0.0606609
0.0591447
0.0575436
0.0558204
0.0539558
0.0519351
0.0497535
0.047408
0.0448827
0.0421443
0.0391493
0.0358626
0.0322694
0.0283833
0.0242241
0.0196933
0.0143083
0.00675234
0.0608385
0.0594319
0.0579799
0.0564531
0.0548205
0.053058
0.0511489
0.0490802
0.0468381
0.0444072
0.0417699
0.0389034
0.0357858
0.0324037
0.0287541
0.0248262
0.020517
0.015307
0.00748663
0.0597108
0.0584169
0.0570656
0.0556407
0.0541154
0.0524633
0.0506672
0.0487127
0.0465842
0.0442691
0.041758
0.0390398
0.0361013
0.0329303
0.0295136
0.025817
0.0216956
0.0165261
0.00818093
0.0586962
0.0575387
0.0563112
0.0550043
0.053595
0.0520581
0.0503767
0.0485369
0.0465251
0.0443312
0.0419495
0.0393738
0.0365958
0.0336049
0.0303822
0.0268759
0.0229085
0.0177964
0.00882056
0.0577317
0.0567233
0.0556312
0.0544497
0.05316
0.0517402
0.0501738
0.0484478
0.0465509
0.0444747
0.0422152
0.0397683
0.0371285
0.0342865
0.0312199
0.0278659
0.0240307
0.0190136
0.0094145
0.0567736
0.0559181
0.0549648
0.0539106
0.0527409
0.0514372
0.0499842
0.0483698
0.046584
0.04462
0.0424742
0.0401441
0.0376257
0.0349098
0.0319701
0.0287354
0.0250036
0.0200787
0.00996677
0.0558044
0.0550983
0.0542817
0.053353
0.0523009
0.0511106
0.0497682
0.0482623
0.046584
0.0447273
0.0426891
0.0404677
0.0380598
0.0354548
0.03262
0.0294751
0.0258103
0.0209077
0.0105275
0.0548308
0.0542653
0.0535791
0.052771
0.0518325
0.0507515
0.0495157
0.0481149
0.0465408
0.0447878
0.0428527
0.0407348
0.03843
0.0359263
0.0331881
0.0301248
0.0265013
0.021558
0.0109974
0.0538771
0.0534402
0.0528749
0.0521801
0.051349
0.0503719
0.0492383
0.0479385
0.0464652
0.0448135
0.0429804
0.040964
0.0387594
0.0363515
0.0336995
0.0307013
0.0270986
0.0220805
0.0113658
0.0529804
0.0526576
0.0522015
0.0516105
0.0508794
0.0499998
0.0489626
0.0477593
0.0463832
0.0448293
0.0430946
0.0411758
0.0390661
0.0367464
0.0341694
0.0312221
0.0276237
0.0225092
0.0116254
0.0521814
0.0519574
0.0515975
0.0510998
0.0504595
0.0496695
0.048722
0.0476091
0.0463245
0.0448631
0.0432211
0.0413936
0.0393708
0.0371293
0.034615
0.0317037
0.0280924
0.0228623
0.0117462
0.0515194
0.0513792
0.0511024
0.0506866
0.0501271
0.0494179
0.0485517
0.0475213
0.0463205
0.0449439
0.0433862
0.0416408
0.0396944
0.0375189
0.035053
0.0321614
0.0285197
0.0231594
0.0117557
0.05103
0.05096
0.0507537
0.0504081
0.049919
0.0492804
0.0484859
0.0475286
0.0464019
0.0450998
0.0436156
0.0419401
0.0400567
0.0379325
0.0354991
0.0326103
0.0289227
0.0234272
0.0117205
0.0507446
0.0507328
0.0505853
0.0502988
0.0498691
0.0492907
0.0485574
0.0476622
0.0465981
0.0453581
0.0439339
0.0423136
0.0404772
0.038387
0.0359682
0.0330651
0.0293194
0.0236911
0.0116822
0.0506909
0.050727
0.0506277
0.0503897
0.050009
0.0494802
0.0487969
0.047952
0.0469378
0.0457459
0.0443659
0.0427837
0.0409757
0.0388998
0.0364759
0.0335409
0.0297263
0.0239718
0.0116797
0.0508946
0.0509698
0.0509093
0.0507103
0.0503687
0.0498791
0.0492348
0.048428
0.04745
0.0462909
0.0449381
0.0433749
0.0415744
0.0394911
0.0370405
0.0340548
0.0301605
0.0242888
0.0117678
0.051381
0.0514877
0.051458
0.0512894
0.0509779
0.0505177
0.0499017
0.0491211
0.0481657
0.0470235
0.0456799
0.0441151
0.0422998
0.0401855
0.0376852
0.034629
0.0306427
0.0246575
0.0119498
0.0521771
0.0523088
0.0523029
0.0521572
0.0518677
0.0514283
0.0508309
0.0500653
0.0491192
0.0479783
0.0466251
0.0450375
0.0431837
0.0410134
0.0384388
0.0352905
0.0311963
0.0250872
0.012171
0.0533135
0.0534645
0.0534761
0.0533468
0.0530726
0.0526468
0.0520598
0.0512993
0.0503504
0.0491954
0.047814
0.0461812
0.0442637
0.0420106
0.0393349
0.0360694
0.0318446
0.0255858
0.0124121
0.0548265
0.0549909
0.0550144
0.0548961
0.054632
0.0542142
0.0536313
0.0528681
0.0519057
0.0507223
0.0492936
0.0475919
0.045583
0.0432175
0.0404111
0.0369993
0.0326138
0.0261678
0.0126848
0.0567587
0.0569306
0.0569608
0.0568493
0.0565917
0.0561787
0.0555963
0.0548249
0.0538405
0.0526153
0.0511192
0.0493218
0.04719
0.0446774
0.0417026
0.0381072
0.0335236
0.0268471
0.0129895
0.0591606
0.0593334
0.0593655
0.0592577
0.0590051
0.0585966
0.0580143
0.0572331
0.0562211
0.0549412
0.0533553
0.0514295
0.0491328
0.046424
0.0432338
0.0394105
0.0345843
0.0276206
0.0133048
0.0620911
0.0622574
0.0622871
0.0621815
0.061935
0.0615339
0.0609558
0.0601679
0.0591265
0.0577801
0.0560768
0.0539775
0.0514549
0.0484868
0.0450219
0.0409185
0.0358023
0.0284985
0.0136345
0.0656177
0.0657698
0.0657934
0.0656903
0.0654537
0.0650674
0.0645034
0.0637185
0.0626521
0.0612285
0.0593704
0.0570275
0.0541918
0.0508769
0.0470616
0.042619
0.0371671
0.0294832
0.0140268
0.0698178
0.069948
0.069963
0.0698645
0.069645
0.0692857
0.0687527
0.0679904
0.0669136
0.0654058
0.0633388
0.0606364
0.0573521
0.0535679
0.0493094
0.0444659
0.0386412
0.0305551
0.0144735
0.0747792
0.074881
0.0748866
0.0747973
0.0746051
0.0742899
0.0738135
0.0731071
0.0720533
0.0704664
0.0681087
0.0648312
0.0608815
0.0564646
0.0516598
0.0463624
0.0401478
0.031664
0.0149564
0.0806031
0.0806726
0.0806702
0.0805966
0.0804443
0.0801946
0.0798091
0.079211
0.0782486
0.0766312
0.0738782
0.0695573
0.0645948
0.0593544
0.0539185
0.0481467
0.04156
0.0327223
0.0154475
0.0874078
0.0874451
0.0874386
0.0873886
0.0872897
0.0871281
0.0868736
0.0864579
0.085719
0.0842551
0.0811012
0.0745427
0.0680583
0.061853
0.0557857
0.0495897
0.042702
0.0336017
0.0159049
0.0953345
0.0953446
0.0953407
0.0953228
0.0952891
0.0952345
0.0951474
0.0949977
0.0946939
0.0939037
0.0911798
0.0788433
0.0704285
0.0633935
0.0568842
0.0504247
0.0433681
0.0341352
0.0162282
)
;

boundaryField
{
    leftWall
    {
        type            kqRWallFunction;
        value           nonuniform List<scalar> 
50
(
0.00113507
0.00263668
0.00396845
0.00520411
0.00637513
0.0075193
0.00867878
0.00992375
0.0115706
0.0141768
0.0171598
0.0210504
0.0272528
0.0343383
0.0406848
0.0476007
0.0516361
0.0520696
0.0495411
0.0465214
0.0436106
0.0403762
0.0362935
0.0319736
0.0276117
0.02332
0.0192975
0.0158217
0.0131253
0.0112252
0.00993469
0.00902876
0.00834915
0.00780999
0.00737413
0.00702948
0.00676452
0.00654505
0.00636306
0.00624216
0.00618283
0.00617857
0.0062244
0.00631282
0.00643425
0.00661024
0.00717741
0.0107675
0.0277868
0.0854705
)
;
    }
    rightWall
    {
        type            kqRWallFunction;
        value           nonuniform List<scalar> 
50
(
0.00214195
0.00388705
0.00515132
0.00625893
0.00727707
0.00826014
0.00928144
0.0102739
0.0112051
0.0119208
0.0118019
0.0120935
0.0124858
0.0123288
0.0122366
0.0126275
0.0122256
0.0101744
0.00773532
0.00636044
0.00619941
0.00675234
0.00748663
0.00818093
0.00882056
0.0094145
0.00996677
0.0105275
0.0109974
0.0113658
0.0116254
0.0117462
0.0117557
0.0117205
0.0116822
0.0116797
0.0117678
0.0119498
0.012171
0.0124121
0.0126848
0.0129895
0.0133048
0.0136345
0.0140268
0.0144735
0.0149564
0.0154475
0.0159049
0.0162282
)
;
    }
    lowerWall
    {
        type            kqRWallFunction;
        value           nonuniform List<scalar> 
62
(
0.00113507
0.00312332
0.00475905
0.0060722
0.00715308
0.00804818
0.00879052
0.00940897
0.00992848
0.0103673
0.0107341
0.0110302
0.0112517
0.0113905
0.0114327
0.0113324
0.0109403
0.0103633
0.00957477
0.00850355
0.00698044
0.00488493
0.00217434
0.00217434
0.00467386
0.00617498
0.00735086
0.0083849
0.00952711
0.0114698
0.0168254
0.0234607
0.0200039
0.0201848
0.0241769
0.00249964
0.00473847
0.00598145
0.00741422
0.0091575
0.0112661
0.0143828
0.0206583
0.00249964
0.00609381
0.00817726
0.00912111
0.00941342
0.00921754
0.00882082
0.00825836
0.00716211
0.00620662
0.00629287
0.00587988
0.00525942
0.00510664
0.00528991
0.00542213
0.0050109
0.00385082
0.00214195
)
;
    }
    atmosphere
    {
        type            inletOutlet;
        inletValue      uniform 0.1;
        value           nonuniform List<scalar> 
46
(
0.1
0.1
0.1
0.1
0.0485155
0.0366508
0.0346973
0.0360046
0.0384844
0.0416909
0.0457456
0.0511059
0.0586188
0.0697532
0.1
0.1
0.1
0.1
0.1
0.1
0.1
0.1
0.1
0.1
0.1
0.1
0.1
0.1
0.1
0.1
0.1
0.1
0.1
0.1
0.1
0.1
0.1
0.1
0.0788433
0.0704285
0.0633935
0.0568842
0.0504247
0.0433681
0.0341352
0.0162282
)
;
    }
    defaultFaces
    {
        type            empty;
    }
}


// ************************************************************************* //
