/*--------------------------------*- C++ -*----------------------------------*\
| =========                 |                                                 |
| \\      /  F ield         | OpenFOAM: The Open Source CFD Toolbox           |
|  \\    /   O peration     | Version:  2.3.0                                 |
|   \\  /    A nd           | Web:      www.OpenFOAM.org                      |
|    \\/     M anipulation  |                                                 |
\*---------------------------------------------------------------------------*/
FoamFile
{
    version     2.0;
    format      ascii;
    class       volScalarField;
    location    "2.95";
    object      nut;
}
// * * * * * * * * * * * * * * * * * * * * * * * * * * * * * * * * * * * * * //

dimensions      [0 2 -1 0 0 0 0];

internalField   nonuniform List<scalar> 
2268
(
3.12327e-05
3.81621e-05
4.69611e-05
5.28437e-05
5.71654e-05
6.04786e-05
6.30789e-05
6.51545e-05
6.68332e-05
6.81948e-05
6.92881e-05
7.01307e-05
7.0722e-05
7.10513e-05
7.10935e-05
7.07422e-05
6.95461e-05
6.77026e-05
6.50577e-05
6.13037e-05
5.55515e-05
4.64321e-05
3.07801e-05
7.40727e-05
0.000345889
0.000476319
0.00054736
0.00059285
0.000624944
0.000648978
0.000667698
0.000682551
0.000694111
0.000702642
0.000708137
0.000710345
0.000708886
0.000703213
0.000692465
0.000674788
0.000644487
0.000605824
0.000553463
0.000469933
0.000335337
9.62386e-05
9.06799e-05
0.00058772
0.000897168
0.00107243
0.001182
0.0012563
0.00130981
0.0013501
0.00138118
0.00140485
0.0014218
0.00143201
0.00143493
0.00142966
0.00141495
0.0013886
0.0013464
0.0012814
0.00119334
0.00107021
0.000885057
0.00059666
0.000111124
0.00010362
0.000754827
0.00121833
0.00149705
0.00167509
0.00179584
0.00188178
0.00194529
0.00199324
0.00202907
0.00205427
0.00206902
0.00207261
0.00206379
0.00204067
0.0019997
0.00193436
0.00183742
0.00170264
0.00151248
0.00123203
0.000800036
0.000121786
0.000114476
0.000881843
0.00146945
0.00183986
0.00208283
0.00224945
0.00236798
0.00245478
0.00251936
0.00256692
0.00259991
0.00261892
0.00262333
0.00261172
0.00258121
0.00252734
0.0024426
0.00231831
0.00214336
0.00189518
0.00153062
0.00096902
0.000130632
0.000124147
0.000983585
0.00167141
0.00212094
0.00242301
0.00263293
0.00278285
0.00289221
0.0029728
0.00303148
0.00307178
0.00309487
0.0031004
0.0030866
0.00305014
0.00298585
0.00288566
0.00273934
0.0025322
0.00223713
0.00180193
0.00112412
0.000139662
0.000133257
0.00106691
0.00183686
0.0023546
0.00270986
0.00295997
0.00313958
0.00327044
0.00336628
0.00343549
0.00348271
0.0035098
0.00351683
0.00350165
0.00346078
0.0033887
0.003277
0.00311435
0.00288368
0.00255443
0.00206548
0.00128482
0.000152932
0.0001424
0.00113618
0.00197433
0.00255122
0.00295434
0.00324156
0.00344903
0.00360024
0.00371057
0.00378979
0.00384362
0.00387473
0.00388364
0.00386797
0.00382424
0.00374693
0.0036276
0.00345436
0.0032091
0.0028599
0.00234064
0.00148394
0.000183607
3.34593e-05
5.20201e-05
6.01251e-05
6.33858e-05
6.42757e-05
6.35505e-05
6.23365e-05
6.03705e-05
5.61737e-05
5.266e-05
5.3056e-05
5.11404e-05
4.85402e-05
4.80114e-05
4.88578e-05
4.93915e-05
4.73859e-05
4.14967e-05
4.34262e-05
0.000108491
0.00042633
0.000553674
0.000606745
0.000623174
0.000618744
0.000606169
0.000582217
0.000512629
0.000474546
0.000505661
0.000484915
0.000427491
0.000397505
0.000419563
0.000436411
0.000398511
0.000290009
9.79242e-05
0.000121831
0.000740768
0.00104923
0.00118727
0.00123547
0.00123281
0.00120356
0.00115484
0.00106116
0.00100307
0.00102472
0.000983401
0.000889011
0.000830329
0.000841915
0.000834346
0.000721882
0.000464734
0.000112595
0.000135035
0.000963144
0.00144927
0.00167978
0.00176843
0.00177579
0.00173903
0.00167738
0.0015797
0.00151099
0.00150504
0.00144501
0.00133105
0.00124515
0.0012211
0.00116646
0.000979132
0.00060434
0.000123988
0.000149665
0.00114061
0.00178293
0.00209981
0.00223003
0.00225207
0.00221609
0.00215086
0.00205571
0.0019796
0.00194559
0.0018683
0.00174229
0.00163213
0.00156346
0.00145569
0.00120322
0.000736918
0.000133591
0.000165619
0.00130748
0.00207927
0.0024691
0.00263654
0.0026742
0.00264382
0.00258053
0.00248978
0.00240786
0.00234936
0.0022561
0.00212022
0.00198821
0.00187494
0.0017143
0.00140388
0.000862648
0.000142262
0.000186591
0.00148235
0.00236126
0.00280546
0.0030014
0.00305318
0.00303036
0.00297156
0.00288547
0.00279825
0.00271921
0.00261078
0.00246512
0.00231237
0.00215751
0.00194578
0.00158068
0.000970793
0.000150811
0.000223282
0.00168932
0.00264677
0.00312111
0.00333437
0.00339761
0.0033825
0.00332878
0.00324659
0.00315406
0.00305775
0.00293484
0.00277855
0.00260526
0.00241165
0.00215177
0.00173505
0.00106016
0.000158558
0.000153262
0.00122968
0.00215558
0.00281138
0.00328094
0.00362137
0.00386991
0.00405185
0.00418451
0.00427949
0.00434412
0.00438258
0.00439521
0.00438017
0.0043343
0.00425249
0.0041268
0.00394554
0.003691
0.00333381
0.00281987
0.00205169
0.000964812
0.000169286
0.00132875
0.00234093
0.00308095
0.00362381
0.00402395
0.00431949
0.00453743
0.00469673
0.00481066
0.00488836
0.00493547
0.00495299
0.00494015
0.0048952
0.00481504
0.00469383
0.00452236
0.00428732
0.00397016
0.00354313
0.00296789
0.00223595
0.000185873
0.00139999
0.0024966
0.00331365
0.00391634
0.00436245
0.0046948
0.00494249
0.00512467
0.00525477
0.00534313
0.00539661
0.00541876
0.00540896
0.00536757
0.00529476
0.00518766
0.0050399
0.00484265
0.00458847
0.00427019
0.00387879
0.00343578
0.000205768
0.00140361
0.0026416
0.00354691
0.00419702
0.00467195
0.0050286
0.00529919
0.00549994
0.00564206
0.00573645
0.00579268
0.00581883
0.00581106
0.00577266
0.00570937
0.00562162
0.00550434
0.00534821
0.00515753
0.00493768
0.0046807
0.0044089
0.000233002
0.00134485
0.00282627
0.00381181
0.00448873
0.00497161
0.00534047
0.00562863
0.0058437
0.0059931
0.00608635
0.00613793
0.00616076
0.00615533
0.00612195
0.00606698
0.00599432
0.00590475
0.00578558
0.0056579
0.00551638
0.00534647
0.00516382
0.000259589
0.00160271
0.00311868
0.00407057
0.00474204
0.00523992
0.0056246
0.00592695
0.00615079
0.00630329
0.0063953
0.0064419
0.00646069
0.00645562
0.00642704
0.00637642
0.0063073
0.00622722
0.00614906
0.00607795
0.00598741
0.0058732
0.0057395
0.00028355
0.00190586
0.00334136
0.00425731
0.00492827
0.00545248
0.00586324
0.00618195
0.00641117
0.00656151
0.00664538
0.00669035
0.00671182
0.0067063
0.00668113
0.00663613
0.00657717
0.00651523
0.00646699
0.00642389
0.006362
0.00628316
0.00618238
0.000305969
0.0020665
0.00351139
0.00439942
0.00506651
0.0056224
0.00605909
0.00638589
0.00660933
0.00675008
0.00683544
0.00688846
0.00691224
0.00690929
0.00688741
0.00684736
0.006798
0.0067557
0.00672878
0.00669602
0.00664108
0.00657106
0.0065034
0.000315147
0.00216187
0.00363203
0.00452862
0.00521069
0.00577383
0.00621197
0.00653015
0.00674183
0.00688179
0.00697654
0.00703336
0.00705826
0.00706208
0.00704545
0.00701148
0.00696848
0.00693579
0.00691484
0.00688736
0.00684422
0.00679832
0.00675827
0.000315091
0.00213888
0.00362975
0.00459455
0.00532092
0.00588625
0.00630726
0.00661137
0.00682004
0.00696348
0.00706115
0.00712173
0.00715284
0.00716428
0.00715673
0.0071333
0.00710181
0.00707544
0.00705697
0.00703882
0.007017
0.00699451
0.00697342
0.000308157
0.00208139
0.00356628
0.00459098
0.00535196
0.00591526
0.00632483
0.00662468
0.00683659
0.00698515
0.00708905
0.0071596
0.00720404
0.00722818
0.00723454
0.00722685
0.00721209
0.00719809
0.00718859
0.00718154
0.0071736
0.00716396
0.00715241
0.000299716
0.00202547
0.00347212
0.00450987
0.00526997
0.00583204
0.00625131
0.0065625
0.00678921
0.00695384
0.00707386
0.00716132
0.00722358
0.00726567
0.00729082
0.00730259
0.007306
0.0073069
0.00730845
0.00731058
0.00731103
0.00730798
0.0073007
0.000292104
0.00196849
0.00333402
0.004324
0.00507296
0.00564932
0.00609088
0.00642694
0.0066811
0.00687323
0.00701924
0.00713058
0.00721549
0.00727947
0.0073258
0.0073577
0.00737903
0.00739452
0.00740718
0.00741752
0.00742429
0.00742582
0.0074212
0.000283254
0.00185372
0.00310913
0.00404424
0.00478863
0.00538365
0.00585537
0.00622707
0.00651893
0.00674774
0.00692739
0.00706868
0.0071802
0.00726798
0.00733571
0.00738688
0.00742552
0.00745515
0.00747882
0.00749754
0.00751069
0.00751706
0.00751565
0.000270123
0.00166179
0.00280865
0.00369015
0.00442985
0.00504769
0.00555671
0.00597233
0.00630943
0.00658141
0.00680012
0.00697566
0.00711655
0.00722925
0.00731839
0.00738827
0.00744328
0.00748711
0.00752236
0.00755023
0.00757074
0.00758313
0.00758643
0.000253722
0.00136615
0.00244528
0.00328355
0.00401368
0.0046572
0.0052085
0.00567341
0.00606048
0.00637952
0.00664048
0.00685274
0.00702472
0.00716339
0.00727451
0.00736335
0.00743479
0.00749282
0.00754021
0.0075784
0.00760767
0.00762753
0.00763705
0.000236202
0.00109773
0.00204404
0.0028506
0.00357134
0.00423414
0.00482899
0.00534443
0.00578273
0.00614989
0.006454
0.00670378
0.00690766
0.00707321
0.00720722
0.00731583
0.00740446
0.00747744
0.0075378
0.00758729
0.00762652
0.00765533
0.00767294
0.000217406
0.0009005
0.00170317
0.00243675
0.00313632
0.00381438
0.00444276
0.0050043
0.0054908
0.00590381
0.00624948
0.00653586
0.00677139
0.00696421
0.00712185
0.00725112
0.0073579
0.00744683
0.00752124
0.00758318
0.00763363
0.0076727
0.00769982
0.000197775
0.000774329
0.0014591
0.00212189
0.00277837
0.00343849
0.00407989
0.00467562
0.00520309
0.00565587
0.00603874
0.00635893
0.00662457
0.00684408
0.00702545
0.00717588
0.00730151
0.00740723
0.00749661
0.00757197
0.00763459
0.00768487
0.00772241
0.000178594
0.000708094
0.00131077
0.00191385
0.00252684
0.00315829
0.00378992
0.00439215
0.00494067
0.00542197
0.00583516
0.00618475
0.00647742
0.00672184
0.00692611
0.00709748
0.00724213
0.00736501
0.00746984
0.00755915
0.00763445
0.00769636
0.00774469
0.000161887
0.000687029
0.00124082
0.00180021
0.00237692
0.00297786
0.00358821
0.00418107
0.00473187
0.00522542
0.00565612
0.00602595
0.00634042
0.00660667
0.00683207
0.00702345
0.00718656
0.00732634
0.00744653
0.00754976
0.00763769
0.00771112
0.00777005
0.000149083
0.000695459
0.00122697
0.00175972
0.00231054
0.00288494
0.00347059
0.00404482
0.00458563
0.00507806
0.0055152
0.00589659
0.00622603
0.00650916
0.00675219
0.00696108
0.00714113
0.00729681
0.00743162
0.00754816
0.00764812
0.00773242
0.00780121
0.000139971
0.000718904
0.00124927
0.00177094
0.00230628
0.00286025
0.00342265
0.00397512
0.00449944
0.00498259
0.00541778
0.00580342
0.00614166
0.00643674
0.00669358
0.00691709
0.00711178
0.00728153
0.0074295
0.00755808
0.00766893
0.007763
0.00784058
0.000133401
0.000746642
0.00129256
0.00181594
0.0023446
0.00288436
0.00342728
0.00395894
0.00446507
0.00493525
0.00536371
0.00574864
0.00609098
0.00639378
0.00666076
0.00689576
0.00710242
0.00728398
0.00744313
0.00758201
0.00770216
0.00780454
0.00788951
0.00012834
0.000772801
0.00134608
0.00188093
0.00240996
0.00294119
0.0034693
0.00398335
0.00447267
0.00492952
0.00534949
0.00573098
0.00607445
0.00638169
0.00665562
0.00689911
0.00711496
0.00730577
0.00747379
0.00762085
0.00774836
0.00785726
0.00794798
0.000124208
0.000795773
0.00140315
0.00195645
0.00249154
0.00301939
0.00353745
0.00403791
0.00451333
0.0049584
0.00537006
0.00574716
0.0060899
0.00639943
0.00667768
0.00692688
0.00714915
0.00734653
0.00752088
0.00767376
0.00780646
0.00791988
0.00801451
0.000120778
0.000817255
0.00146137
0.0020377
0.00258343
0.00311223
0.00362441
0.00411515
0.00457989
0.00501542
0.00541991
0.00579262
0.00613367
0.00644381
0.00672422
0.00697664
0.00720267
0.00740394
0.00758199
0.00773822
0.00787381
0.00798964
0.0080863
0.000118022
0.000840912
0.00152114
0.00212333
0.00268326
0.00321611
0.00372544
0.00420952
0.00466641
0.00509464
0.00549328
0.00586194
0.00620072
0.0065101
0.00679085
0.00704421
0.00727147
0.00747399
0.00765315
0.00781025
0.00794643
0.00806261
0.00815945
0.000115902
0.000867173
0.00158293
0.00221234
0.00278846
0.00332749
0.00383606
0.00431586
0.00476724
0.00519005
0.00558402
0.00594901
0.00628507
0.00659251
0.00687188
0.00712406
0.00735017
0.00755147
0.0077293
0.00788493
0.00801955
0.00813416
0.0082295
0.000114132
0.000887068
0.00164278
0.00230104
0.00289421
0.00344082
0.00395057
0.00442833
0.0048763
0.00529531
0.00568559
0.00604716
0.00638008
0.00668454
0.00696095
0.00721001
0.00743281
0.00763066
0.00780495
0.00795705
0.00808825
0.00819965
0.0082921
0.000112624
0.000900238
0.00169649
0.00238373
0.00299409
0.00354945
0.00406258
0.0045406
0.00498713
0.0054038
0.00579126
0.00614968
0.00647911
0.00677967
0.00705172
0.00729596
0.00751359
0.00770609
0.00787503
0.00802194
0.00814827
0.00825522
0.00834377
0.00011162
0.000916911
0.00174397
0.00245587
0.00308251
0.00364776
0.00416629
0.00464667
0.00509358
0.00550932
0.00589487
0.0062505
0.00657624
0.00687218
0.00713872
0.00737674
0.00758772
0.00777342
0.00793569
0.00807628
0.00819678
0.00829853
0.00838258
0.000111136
0.000933398
0.00178319
0.00251476
0.00315626
0.00373192
0.00425729
0.00474178
0.00519075
0.00560698
0.00599163
0.00634498
0.00666703
0.00695786
0.00721803
0.00744882
0.00765214
0.00783015
0.00798503
0.00811876
0.00823306
0.00832935
0.00840874
0.000111101
0.000946112
0.00181246
0.00255945
0.00321395
0.00379989
0.004333
0.00482304
0.00527567
0.00569383
0.0060787
0.00643047
0.00674902
0.00703451
0.00728783
0.00751086
0.00770611
0.00787622
0.00802369
0.00815066
0.00825893
0.00834993
0.00842482
0.000111464
0.000955206
0.00183224
0.00259052
0.00325584
0.00385151
0.00439295
0.00488975
0.00534753
0.00576908
0.00615539
0.00650641
0.00682192
0.0071022
0.00734873
0.00756416
0.00775169
0.00791448
0.00805522
0.0081761
0.00827888
0.00836501
0.00843566
0.000112171
0.000961899
0.00184454
0.00261008
0.00328383
0.0038884
0.00443847
0.00494309
0.00540737
0.00583372
0.00622274
0.0065741
0.00688745
0.00716334
0.00740401
0.00761298
0.00779419
0.00795106
0.00808629
0.00820198
0.00829986
0.00838141
0.00844793
0.000113194
0.000969006
0.00185439
0.00262299
0.00330182
0.00391365
0.00447218
0.0049853
0.00545722
0.00588969
0.00628282
0.00663601
0.00694891
0.00722253
0.00745983
0.00766515
0.00784264
0.00799559
0.00812656
0.00823762
0.00833063
0.00840733
0.00846928
0.000115025
0.000988881
0.00187996
0.00264417
0.00331905
0.00393274
0.00449765
0.00501904
0.00549923
0.0059389
0.00633769
0.00669491
0.00701055
0.00728632
0.00752573
0.00773282
0.00791043
0.0080613
0.00818822
0.00829387
0.00838078
0.00845126
0.00850737
0.000122335
0.0010718
0.00199671
0.00273216
0.00336416
0.00395783
0.00452027
0.00504703
0.00553496
0.00598243
0.00638839
0.00675254
0.00707622
0.00736293
0.00761593
0.00783426
0.00801599
0.00816441
0.00828466
0.00838159
0.00845919
0.0085207
0.00856876
0.000158221
0.00137393
0.00248175
0.00311269
0.00352783
0.00401762
0.00454886
0.00507206
0.00556499
0.00601969
0.00643367
0.0068077
0.00714714
0.00746166
0.00775391
0.00799736
0.00818289
0.0083222
0.00842803
0.0085094
0.0085723
0.00862086
0.008658
0.000248576
0.00210919
0.00383098
0.00436067
0.00401726
0.00416114
0.0045934
0.00509567
0.00558835
0.00604814
0.00646927
0.00685431
0.00721777
0.00759028
0.00798949
0.00826599
0.00843727
0.0085483
0.00862518
0.00868098
0.00872251
0.00875373
0.00877713
0.00041707
0.00363004
0.00650421
0.00704373
0.00492223
0.00438178
0.00464508
0.00511373
0.00560203
0.00606387
0.00648904
0.00688161
0.00726877
0.00773212
0.00846011
0.00870219
0.0087962
0.00884369
0.00887287
0.00889287
0.00890731
0.00891794
0.00892579
0.000216563
0.000198959
0.000198746
0.00021771
0.00168964
0.00159072
0.00157548
0.00165557
0.00315718
0.00305786
0.00303604
0.00310172
0.00424594
0.00417389
0.00414541
0.00416836
0.00504245
0.004977
0.00493879
0.00493671
0.00563591
0.00557849
0.00554491
0.005539
0.00610281
0.00606132
0.00603653
0.00602695
0.00645399
0.00642919
0.0064129
0.00640414
0.00673134
0.00671709
0.00670573
0.00669747
0.00695793
0.00694818
0.00693855
0.0069296
0.00714197
0.00713427
0.00712524
0.00711517
0.00729207
0.00728493
0.00727569
0.00726428
0.00741338
0.00740633
0.00739668
0.00738419
0.0075091
0.00750253
0.00749294
0.00748
0.0075822
0.00757672
0.00756792
0.00755549
0.00763644
0.00763314
0.00762641
0.00761592
0.00767754
0.00767746
0.00767385
0.00766639
0.00771071
0.00771455
0.0077148
0.00771114
0.00774025
0.00774842
0.00775295
0.00775353
0.00776972
0.00778239
0.00779134
0.00779631
0.00780215
0.00781924
0.00783254
0.0078418
0.00783993
0.00786124
0.00787866
0.00789196
0.0078852
0.00791028
0.00793136
0.00794825
0.00793905
0.00796729
0.00799142
0.00801129
0.00800131
0.00803197
0.00805843
0.0080806
0.00807041
0.0081027
0.00813074
0.00815447
0.00814352
0.00817663
0.0082055
0.00823006
0.00821678
0.00824998
0.00827896
0.0083037
0.00828589
0.00831851
0.00834699
0.00837133
0.00834668
0.0083782
0.00840571
0.00842922
0.00839594
0.008426
0.00845221
0.0084746
0.00843201
0.00846043
0.00848519
0.00850633
0.00845536
0.0084821
0.0085054
0.00852527
0.00846872
0.00849386
0.00851575
0.00853442
0.00847698
0.00850059
0.00852113
0.00853866
0.00848664
0.0085087
0.00852788
0.00854422
0.00850504
0.00852534
0.00854294
0.00855792
0.00853938
0.00855746
0.00857307
0.00858631
0.00859578
0.00861093
0.00862396
0.00863497
0.00867855
0.00868998
0.00869976
0.00870799
0.00878986
0.0087969
0.00880289
0.00880791
0.00893001
0.00893232
0.00893428
0.00893591
0.00108333
0.00229046
0.00312778
0.00359518
0.00381861
0.00389429
0.00388981
0.00384262
0.00376371
0.00366233
0.00354291
0.00339841
0.00322321
0.00301717
0.00276832
0.00243327
0.00193711
0.00116989
0.000165417
0.00227632
0.00314028
0.00378761
0.00418473
0.00438762
0.00446391
0.0044671
0.00442543
0.00434652
0.00423337
0.00408969
0.00391556
0.00370848
0.00345625
0.00314295
0.00272929
0.00214507
0.00127605
0.000169963
0.0033921
0.00393844
0.004404
0.00471566
0.00488545
0.00495831
0.00496802
0.00492716
0.00483962
0.00470763
0.00453757
0.0043332
0.00409175
0.00379803
0.00343292
0.00295635
0.00230065
0.00134925
0.000168581
0.00429861
0.00462825
0.00494771
0.00517967
0.00531806
0.00538751
0.00540578
0.0053646
0.00526231
0.00510764
0.0049066
0.00466923
0.00439472
0.00406434
0.00365428
0.00312556
0.0024106
0.00138474
0.000171913
0.00499463
0.00519179
0.00540287
0.0055677
0.00567702
0.00573531
0.0057446
0.00568513
0.00555572
0.00537173
0.00514777
0.00488687
0.0045868
0.00423275
0.0038014
0.00324567
0.00247786
0.00135856
0.000173603
0.0055663
0.00567695
0.00580705
0.00591742
0.00598979
0.0060121
0.0059762
0.00587331
0.00571136
0.00550759
0.00527406
0.00500098
0.00467324
0.00428868
0.00383268
0.00325666
0.00246766
0.00133795
0.000172854
0.0060338
0.00609104
0.00616672
0.00623288
0.00626512
0.00624633
0.00616747
0.00602275
0.00582243
0.00558422
0.00532001
0.00502043
0.00466389
0.00424739
0.00376644
0.00317898
0.00240628
0.00135299
0.000172847
0.00640265
0.00643014
0.00646897
0.00649702
0.00648746
0.00642468
0.00630239
0.00611631
0.00587697
0.00560079
0.00529952
0.00496558
0.0045811
0.00414019
0.00363935
0.00304747
0.00230332
0.00132035
0.000175894
0.00668983
0.0066944
0.00670055
0.00668904
0.00663866
0.00653568
0.00637522
0.00615566
0.00588376
0.00557416
0.00523754
0.00486732
0.00445177
0.00398341
0.00346415
0.00287965
0.00217862
0.00125805
0.000173355
0.00691573
0.0068989
0.00687429
0.00682674
0.00674069
0.00660388
0.00641189
0.00616401
0.00586584
0.00552871
0.00515924
0.00475303
0.00430163
0.00380195
0.00325999
0.00267691
0.00201597
0.00116514
0.000158311
0.00709586
0.00706123
0.0070112
0.00693391
0.00681789
0.0066533
0.00643656
0.00616698
0.00584878
0.00548869
0.00508953
0.00464792
0.00415811
0.00361942
0.00304148
0.0024359
0.00177775
0.000992477
0.000137491
0.00724045
0.00719221
0.00712291
0.00702328
0.00688432
0.00669949
0.00646552
0.00618151
0.00584948
0.00547172
0.00504821
0.00457564
0.00405008
0.00347289
0.00285502
0.00221418
0.00154757
0.000821299
0.000125088
0.00735718
0.00729968
0.00721721
0.00710234
0.00694855
0.00675128
0.0065075
0.00621579
0.00587609
0.00548799
0.00504945
0.00455708
0.00400884
0.00340865
0.00276738
0.00210286
0.00142669
0.000740475
0.000123577
0.00745132
0.00738851
0.00729867
0.00717596
0.00701525
0.00681283
0.00656602
0.00627299
0.00593238
0.00554247
0.00510051
0.00460376
0.00405202
0.00345019
0.00280766
0.00213663
0.00144775
0.000748636
0.000128741
0.00752739
0.00746388
0.00737241
0.00724823
0.00708711
0.00688587
0.00664211
0.00635379
0.00601897
0.00563537
0.00520035
0.00471194
0.00417069
0.00358068
0.00294755
0.00227462
0.00156139
0.00080959
0.000135442
0.00759088
0.00753077
0.0074424
0.00732182
0.00716544
0.00697047
0.00673466
0.00645596
0.00613219
0.00576096
0.00533983
0.00486705
0.00434255
0.00376779
0.00314298
0.00246276
0.00171433
0.000890186
0.000141717
0.00764638
0.00759291
0.00751123
0.00739799
0.0072501
0.007065
0.00684058
0.00657477
0.00626534
0.00590986
0.00550582
0.00505103
0.00454388
0.00398242
0.00336147
0.0026685
0.00188197
0.000986268
0.000147425
0.00769755
0.00765294
0.00758035
0.00747688
0.0073398
0.00716676
0.00695566
0.00670442
0.00641072
0.00607198
0.00568534
0.0052477
0.00475548
0.00420334
0.00358145
0.00287209
0.00204853
0.00108798
0.00015254
0.00774717
0.00771267
0.00765048
0.00755804
0.0074329
0.00727283
0.00707571
0.00683937
0.00656131
0.00623866
0.00586796
0.00544498
0.00496407
0.00441677
0.00378925
0.00305984
0.00219888
0.00118121
0.000157118
0.00779744
0.00777346
0.00772205
0.00764097
0.00752793
0.00738077
0.00719731
0.00697522
0.00671175
0.00640356
0.00604645
0.00563497
0.0051615
0.00461475
0.00397696
0.00322287
0.00232113
0.00124615
0.000161647
0.00785024
0.00783647
0.00779553
0.00772537
0.00762388
0.00748887
0.00731809
0.00710897
0.00685845
0.00656263
0.00621641
0.00581317
0.00534346
0.00479369
0.00414399
0.00336651
0.00242581
0.00129513
0.000165217
0.00790714
0.00790271
0.00787134
0.00781117
0.00772015
0.00759609
0.00743657
0.0072388
0.00699932
0.00671373
0.00637617
0.00597877
0.00551059
0.00495617
0.00429375
0.00349334
0.00251688
0.00133596
0.00016791
0.00796936
0.00797306
0.00795006
0.00789861
0.00781671
0.00770213
0.00755231
0.00736419
0.00713392
0.00685657
0.00652554
0.00613192
0.00566346
0.00510323
0.00442784
0.0036057
0.00259684
0.00137114
0.000169626
0.00803731
0.00804777
0.00803173
0.00798755
0.00791329
0.00780666
0.00766494
0.00748479
0.00726201
0.00699112
0.00666483
0.00627333
0.00580327
0.00523646
0.00454821
0.00370562
0.00266738
0.00140209
0.00017021
0.0081104
0.00812612
0.00811557
0.0080772
0.0080091
0.00790892
0.00777378
0.0076001
0.0073833
0.00711739
0.00679446
0.00640388
0.00593136
0.00535762
0.00465689
0.00379521
0.00273038
0.00143046
0.000170113
0.00818687
0.00820635
0.00819984
0.00816589
0.00810259
0.00800753
0.00787769
0.00770922
0.0074972
0.00723518
0.00691466
0.0065243
0.00604895
0.0054684
0.00475591
0.00387663
0.00278776
0.0014573
0.000169854
0.00826392
0.00828573
0.00828196
0.0082512
0.00819155
0.00810053
0.00797496
0.00781079
0.00760275
0.00734396
0.00702539
0.00663506
0.00615704
0.00557028
0.0048471
0.00395185
0.00284114
0.00148309
0.000169649
0.00833795
0.00836084
0.00835871
0.00833015
0.00827326
0.0081855
0.00806355
0.00790313
0.00769868
0.00744293
0.00712635
0.00673637
0.00625636
0.00566444
0.00493205
0.00402256
0.00289184
0.00150797
0.000169751
0.0084051
0.00842806
0.00842671
0.00839965
0.00834495
0.00826
0.00814135
0.00798452
0.00778366
0.00753118
0.00721707
0.00682823
0.00634736
0.00575177
0.00501194
0.00409008
0.0029408
0.00153184
0.000170547
0.00846183
0.00848415
0.00848301
0.00845703
0.00840424
0.00832195
0.0082066
0.00805352
0.00785663
0.00760798
0.00729718
0.00691061
0.00643033
0.00583286
0.00508758
0.00415529
0.00298879
0.00155485
0.000171976
0.00850564
0.00852689
0.00852568
0.00850062
0.00844971
0.0083702
0.0082584
0.00810949
0.00791714
0.00767312
0.00736668
0.00698369
0.00650561
0.00590812
0.00515944
0.00421873
0.00303652
0.00157819
0.000173602
0.00853561
0.00855563
0.0085543
0.00853023
0.00848137
0.00840492
0.00829709
0.0081529
0.0079658
0.0077273
0.00742627
0.00704815
0.0065738
0.00597803
0.00522787
0.00428067
0.00308446
0.00160271
0.000175342
0.00855279
0.00857163
0.00857029
0.00854739
0.00850088
0.0084279
0.00832455
0.0081857
0.00800458
0.00777241
0.00747773
0.00710554
0.00663611
0.00604342
0.00529326
0.00434116
0.00313254
0.00162826
0.000177286
0.00856028
0.00857806
0.00857691
0.00855546
0.00851166
0.00844261
0.00834431
0.00821144
0.00803698
0.00781182
0.00752414
0.00715852
0.00669465
0.00610571
0.00535633
0.00440019
0.00318013
0.00165431
0.00017944
0.00856295
0.00857978
0.00857898
0.00855925
0.00851857
0.00845399
0.00836139
0.00823519
0.00806804
0.0078504
0.00757002
0.00721103
0.00675262
0.00616741
0.00541875
0.00445856
0.00322731
0.00168053
0.00018162
0.00856688
0.00858275
0.0085824
0.00856465
0.00852752
0.00846804
0.00838193
0.00826326
0.00810416
0.00789444
0.0076212
0.00726812
0.00681436
0.00623183
0.00548279
0.00451752
0.00327446
0.00170704
0.000183816
0.00857868
0.00859336
0.00859344
0.00857789
0.00854484
0.00849127
0.00841271
0.00830278
0.00815275
0.00795132
0.00768453
0.00733564
0.00688437
0.00630228
0.00555061
0.00457823
0.00332185
0.00173329
0.000186344
0.00860464
0.0086177
0.0086181
0.00860498
0.0085766
0.00852998
0.00846048
0.0083611
0.00822186
0.00802939
0.00776752
0.00741904
0.00696615
0.00638081
0.00562322
0.00464092
0.00336927
0.0017592
0.00018915
0.00865016
0.00866103
0.00866157
0.00865111
0.0086281
0.00858974
0.00853133
0.00844531
0.00831993
0.00813817
0.00787874
0.00752236
0.0070603
0.00646637
0.00569897
0.00470384
0.00341521
0.00178386
0.000192115
0.00871932
0.00872742
0.00872791
0.00872032
0.00870342
0.00867478
0.00863008
0.00856162
0.00845589
0.00829013
0.00803081
0.00764714
0.00716212
0.0065527
0.00577205
0.00476232
0.00345634
0.00180534
0.000195075
0.00881479
0.00881971
0.00882003
0.00881547
0.00880525
0.00878769
0.00875955
0.00871437
0.0086388
0.00850433
0.00825171
0.00778978
0.00725878
0.00662709
0.00583218
0.00480888
0.00348783
0.001821
0.000197803
0.00893815
0.00893973
0.00893982
0.00893833
0.00893498
0.0089292
0.00891974
0.00890384
0.00887433
0.00880902
0.00862271
0.00792516
0.00732564
0.00667197
0.0058668
0.00483499
0.00350478
0.00182852
0.000199733
)
;

boundaryField
{
    leftWall
    {
        type            nutkWallFunction;
        Cmu             0.09;
        kappa           0.41;
        E               9.8;
        value           nonuniform List<scalar> 
50
(
5.81638e-06
8.80266e-06
1.07056e-05
1.2172e-05
1.33918e-05
1.44686e-05
1.54707e-05
1.64673e-05
1.76846e-05
1.94292e-05
2.12227e-05
2.34135e-05
2.84387e-05
3.11479e-05
3.40378e-05
3.71367e-05
3.9049e-05
3.89425e-05
3.66602e-05
3.49689e-05
3.36081e-05
3.19292e-05
2.9844e-05
2.75415e-05
2.50319e-05
2.23328e-05
1.95332e-05
1.68324e-05
1.4494e-05
1.26762e-05
1.13392e-05
1.03401e-05
9.55225e-06
8.90038e-06
8.35456e-06
8.04098e-06
7.78225e-06
7.38799e-06
7.01381e-06
6.84452e-06
6.7612e-06
6.75519e-06
6.81963e-06
6.94316e-06
7.11122e-06
7.35157e-06
8.10218e-06
1.22123e-05
2.51364e-05
4.91991e-05
)
;
    }
    rightWall
    {
        type            nutkWallFunction;
        Cmu             0.09;
        kappa           0.41;
        E               9.8;
        value           nonuniform List<scalar> 
50
(
8.81452e-06
1.1714e-05
1.33757e-05
1.46533e-05
1.57211e-05
1.66761e-05
1.76039e-05
1.84528e-05
1.9209e-05
1.97726e-05
1.97213e-05
1.62173e-05
1.66253e-05
1.71282e-05
1.76971e-05
1.80906e-05
1.76782e-05
1.46488e-05
1.11788e-05
9.4696e-06
9.22873e-06
9.87104e-06
1.05802e-05
1.17378e-05
1.2636e-05
1.33659e-05
1.40213e-05
1.46653e-05
1.51898e-05
1.55883e-05
1.56918e-05
1.57166e-05
1.57268e-05
1.56892e-05
1.56482e-05
1.56629e-05
1.58576e-05
1.60547e-05
1.6287e-05
1.65374e-05
1.68173e-05
1.70838e-05
1.73226e-05
1.76485e-05
1.80301e-05
1.84574e-05
1.89111e-05
1.93641e-05
1.97786e-05
2.00679e-05
)
;
    }
    lowerWall
    {
        type            nutkWallFunction;
        Cmu             0.09;
        kappa           0.41;
        E               9.8;
        value           nonuniform List<scalar> 
62
(
2.60485e-06
4.53487e-06
5.62704e-06
6.35787e-06
6.89529e-06
7.30686e-06
7.62919e-06
7.88632e-06
8.09511e-06
8.26677e-06
8.40718e-06
8.51862e-06
8.60086e-06
8.65194e-06
8.6674e-06
8.63061e-06
8.48497e-06
8.26528e-06
7.95369e-06
7.50647e-06
6.81266e-06
5.70164e-06
3.74439e-06
3.74439e-06
1.15695e-05
1.31927e-05
1.4316e-05
1.52241e-05
1.61577e-05
1.76129e-05
2.10289e-05
2.46248e-05
2.28841e-05
2.29791e-05
2.49674e-05
4.03376e-06
1.28612e-05
1.43464e-05
1.58591e-05
1.74953e-05
1.92583e-05
2.15566e-05
2.54641e-05
4.03376e-06
6.36914e-06
7.36411e-06
7.76789e-06
7.88818e-06
7.80781e-06
7.64205e-06
7.39979e-06
6.89966e-06
6.4275e-06
6.4717e-06
6.25678e-06
5.91741e-06
5.83044e-06
5.93459e-06
6.00848e-06
5.77521e-06
5.05259e-06
3.71421e-06
)
;
    }
    atmosphere
    {
        type            calculated;
        value           nonuniform List<scalar> 
46
(
0.009
0.009
0.009
0.009
0.00492223
0.00438178
0.00464508
0.00511373
0.00560203
0.00606387
0.00648904
0.00688161
0.00726877
0.00773212
0.009
0.009
0.009
0.009
0.009
0.009
0.009
0.009
0.009
0.009
0.009
0.009
0.009
0.009
0.009
0.009
0.009
0.009
0.009
0.009
0.009
0.009
0.009
0.009
0.00792516
0.00732564
0.00667197
0.0058668
0.00483499
0.00350478
0.00182852
0.000199733
)
;
    }
    defaultFaces
    {
        type            empty;
    }
}


// ************************************************************************* //
