/*--------------------------------*- C++ -*----------------------------------*\
| =========                 |                                                 |
| \\      /  F ield         | OpenFOAM: The Open Source CFD Toolbox           |
|  \\    /   O peration     | Version:  2.3.0                                 |
|   \\  /    A nd           | Web:      www.OpenFOAM.org                      |
|    \\/     M anipulation  |                                                 |
\*---------------------------------------------------------------------------*/
FoamFile
{
    version     2.0;
    format      ascii;
    class       surfaceScalarField;
    location    "2.95";
    object      phi;
}
// * * * * * * * * * * * * * * * * * * * * * * * * * * * * * * * * * * * * * //

dimensions      [0 3 -1 0 0 0 0];

internalField   nonuniform List<scalar> 
4432
(
1.43155e-06
-1.43155e-06
2.68507e-06
-1.25353e-06
3.59457e-06
-9.09506e-07
4.22802e-06
-6.33457e-07
4.67169e-06
-4.43677e-07
4.98121e-06
-3.095e-07
5.19448e-06
-2.13279e-07
5.3388e-06
-1.44322e-07
5.43428e-06
-9.54698e-08
5.49646e-06
-6.21662e-08
5.53956e-06
-4.31101e-08
5.57576e-06
-3.61779e-08
5.61921e-06
-4.34449e-08
5.69139e-06
-7.21898e-08
5.8247e-06
-1.33303e-07
6.02311e-06
-1.98413e-07
5.96004e-06
6.3056e-08
5.57478e-06
3.85268e-07
5.02416e-06
5.50609e-07
4.43623e-06
5.87921e-07
3.56082e-06
8.75419e-07
2.05848e-06
1.50234e-06
2.05848e-06
1.35397e-06
-2.78552e-06
2.3712e-06
-2.27078e-06
3.14495e-06
-1.68326e-06
3.72788e-06
-1.21638e-06
4.15284e-06
-8.68645e-07
4.45595e-06
-6.12597e-07
4.6707e-06
-4.28019e-07
4.82386e-06
-2.97474e-07
4.93523e-06
-2.06839e-07
5.01923e-06
-1.46152e-07
5.08454e-06
-1.08416e-07
5.13505e-06
-8.66855e-08
5.17192e-06
-8.03176e-08
5.19545e-06
-9.57361e-08
5.20087e-06
-1.38729e-07
5.1612e-06
-1.58725e-07
5.02707e-06
1.97174e-07
4.77318e-06
6.39146e-07
4.40041e-06
9.23383e-07
3.86166e-06
1.12667e-06
3.14256e-06
1.59453e-06
2.1292e-06
2.51569e-06
4.1877e-06
1.25443e-06
-4.03996e-06
2.14497e-06
-3.16132e-06
2.83961e-06
-2.3779e-06
3.38459e-06
-1.76135e-06
3.79389e-06
-1.27794e-06
4.09302e-06
-9.11727e-07
4.31086e-06
-6.45854e-07
4.47235e-06
-4.58969e-07
4.59553e-06
-3.30025e-07
4.69162e-06
-2.42257e-07
4.76521e-06
-1.82021e-07
4.8142e-06
-1.35688e-07
4.83147e-06
-9.7578e-08
4.80629e-06
-7.05505e-08
4.72115e-06
-5.35912e-08
4.54579e-06
1.66431e-08
4.36012e-06
3.82827e-07
4.12057e-06
8.78689e-07
3.77033e-06
1.27361e-06
3.2941e-06
1.60291e-06
2.68127e-06
2.20736e-06
1.8356e-06
3.36136e-06
6.0233e-06
1.12311e-06
-5.16307e-06
1.95083e-06
-3.98904e-06
2.61216e-06
-3.03923e-06
3.14147e-06
-2.29065e-06
3.54732e-06
-1.68379e-06
3.85052e-06
-1.21493e-06
4.07702e-06
-8.72365e-07
4.2497e-06
-6.31659e-07
4.38411e-06
-4.64439e-07
4.48823e-06
-3.46379e-07
4.56285e-06
-2.56643e-07
4.60095e-06
-1.73796e-07
4.58996e-06
-8.65834e-08
4.51416e-06
5.24115e-09
4.35543e-06
1.05141e-07
4.10602e-06
2.66067e-07
3.84237e-06
6.4649e-07
3.5719e-06
1.14915e-06
3.22761e-06
1.6179e-06
2.76877e-06
2.06175e-06
2.21651e-06
2.75961e-06
1.47137e-06
4.10651e-06
7.49466e-06
9.97038e-07
-6.1601e-06
1.79818e-06
-4.79017e-06
2.459e-06
-3.70005e-06
2.99494e-06
-2.82658e-06
3.41206e-06
-2.10091e-06
3.72966e-06
-1.53253e-06
3.97204e-06
-1.11475e-06
4.15995e-06
-8.19557e-07
4.30599e-06
-6.10475e-07
4.41473e-06
-4.55123e-07
4.48349e-06
-3.25389e-07
4.50127e-06
-1.91575e-07
4.4523e-06
-3.76138e-08
4.32023e-06
1.37323e-07
4.09294e-06
3.32428e-07
3.77912e-06
5.79899e-07
3.44363e-06
9.81989e-07
3.10897e-06
1.48383e-06
2.73398e-06
1.99289e-06
2.26664e-06
2.52909e-06
1.71368e-06
3.31258e-06
1.06148e-06
4.75871e-06
8.55615e-06
9.02139e-07
-7.06224e-06
1.70768e-06
-5.5957e-06
2.39308e-06
-4.38544e-06
2.95548e-06
-3.38898e-06
3.39877e-06
-2.5442e-06
3.74192e-06
-1.87567e-06
4.00808e-06
-1.38092e-06
4.21559e-06
-1.02705e-06
4.37356e-06
-7.68432e-07
4.48293e-06
-5.64487e-07
4.53796e-06
-3.80418e-07
4.52469e-06
-1.78315e-07
4.42615e-06
6.0923e-08
4.22813e-06
3.35355e-07
3.9264e-06
6.34157e-07
3.54063e-06
9.65668e-07
3.13091e-06
1.39171e-06
2.7252e-06
1.88953e-06
2.29552e-06
2.42256e-06
1.79974e-06
3.02486e-06
1.23933e-06
3.873e-06
6.40732e-07
5.35729e-06
9.19688e-06
8.57238e-07
-7.91948e-06
1.69544e-06
-6.43389e-06
2.42474e-06
-5.11474e-06
3.0305e-06
-3.99473e-06
3.51399e-06
-3.02771e-06
3.89387e-06
-2.25555e-06
4.19195e-06
-1.679e-06
4.42344e-06
-1.25855e-06
4.59324e-06
-9.3823e-07
4.69837e-06
-6.6962e-07
4.73066e-06
-4.12705e-07
4.67435e-06
-1.22013e-07
4.51312e-06
2.22154e-07
4.23699e-06
6.11482e-07
3.8501e-06
1.02105e-06
3.38179e-06
1.43398e-06
2.89077e-06
1.88273e-06
2.4103e-06
2.36999e-06
1.92557e-06
2.90728e-06
1.40698e-06
3.54347e-06
8.51418e-07
4.42856e-06
2.60904e-07
5.94781e-06
9.45779e-06
8.70536e-07
-8.79002e-06
1.76241e-06
-7.32576e-06
2.54903e-06
-5.90136e-06
3.20989e-06
-4.65559e-06
3.74491e-06
-3.56273e-06
4.17159e-06
-2.68223e-06
4.50939e-06
-2.01679e-06
4.76924e-06
-1.51839e-06
4.95082e-06
-1.1198e-06
5.0469e-06
-7.65699e-07
5.04769e-06
-4.1349e-07
4.93691e-06
-1.1231e-08
4.70067e-06
4.58395e-07
4.33517e-06
9.76981e-07
3.85285e-06
1.50337e-06
3.29233e-06
1.9945e-06
2.71517e-06
2.45988e-06
2.16214e-06
2.92301e-06
1.63256e-06
3.43686e-06
1.11486e-06
4.06117e-06
6.20909e-07
4.9225e-06
1.81631e-07
6.3871e-06
9.63941e-06
-3.19965e-06
3.19965e-06
-1.77587e-06
-1.42379e-06
9.3342e-10
-1.7768e-06
1.28288e-06
-1.28194e-06
2.04837e-06
-7.65498e-07
2.2175e-06
-1.6912e-07
2.0868e-06
1.30693e-07
1.92305e-06
1.63743e-07
-2.41224e-07
2.16429e-06
-3.51607e-06
3.27483e-06
-4.49621e-06
9.80141e-07
-5.55192e-06
1.05572e-06
-8.01594e-06
2.46402e-06
-1.08935e-05
2.87752e-06
-1.19897e-05
1.09622e-06
-1.04405e-05
-1.54922e-06
-7.02551e-06
-3.41496e-06
-2.92463e-06
-4.10088e-06
-2.92462e-06
-1.69466e-06
4.89431e-06
-8.66449e-07
-2.252e-06
-1.22119e-07
-2.52114e-06
4.14091e-07
-1.81814e-06
6.84013e-07
-1.03543e-06
5.53781e-07
-3.88804e-08
1.06749e-07
5.77735e-07
-6.02912e-07
8.73383e-07
-1.64971e-06
3.2111e-06
-3.1382e-06
4.76332e-06
-4.22713e-06
2.06906e-06
-5.38816e-06
2.21676e-06
-7.186e-06
4.26186e-06
-8.87772e-06
4.56922e-06
-9.45282e-06
1.67133e-06
-8.65629e-06
-2.34575e-06
-6.69877e-06
-5.37247e-06
-3.76416e-06
-7.03554e-06
-6.68876e-06
-4.13613e-07
5.30792e-06
-4.53616e-07
-2.212e-06
-3.74531e-07
-2.60023e-06
-2.92531e-07
-1.90013e-06
-3.37825e-07
-9.90142e-07
-6.87615e-07
3.10909e-07
-1.27983e-06
1.16996e-06
-2.03409e-06
1.62763e-06
-2.65268e-06
3.82969e-06
-3.16602e-06
5.27666e-06
-3.97751e-06
2.88055e-06
-4.70565e-06
2.94489e-06
-5.64377e-06
5.2e-06
-6.63747e-06
5.5629e-06
-7.17656e-06
2.21042e-06
-6.84234e-06
-2.67997e-06
-5.6003e-06
-6.6145e-06
-3.5451e-06
-9.09075e-06
-1.02339e-05
2.99294e-07
5.00863e-06
-3.06275e-07
-1.60642e-06
-7.37952e-07
-2.16856e-06
-9.95946e-07
-1.64213e-06
-1.26404e-06
-7.22051e-07
-1.76499e-06
8.11854e-07
-2.42458e-06
1.82955e-06
-3.05548e-06
2.25852e-06
-3.39699e-06
4.1712e-06
-3.53181e-06
5.41148e-06
-3.89531e-06
3.24405e-06
-4.1915e-06
3.24108e-06
-4.47787e-06
5.48638e-06
-4.81065e-06
5.89568e-06
-5.17701e-06
2.57677e-06
-4.97966e-06
-2.87733e-06
-4.12074e-06
-7.4734e-06
-2.72608e-06
-1.04854e-05
-1.29599e-05
5.096e-07
4.49903e-06
-4.32226e-07
-6.64591e-07
-1.23292e-06
-1.36787e-06
-1.73964e-06
-1.13541e-06
-2.16736e-06
-2.94321e-07
-2.76339e-06
1.40787e-06
-3.45692e-06
2.52309e-06
-3.95419e-06
2.75578e-06
-4.14093e-06
4.35795e-06
-3.94194e-06
5.21248e-06
-3.9524e-06
3.2545e-06
-3.77342e-06
3.06208e-06
-3.54654e-06
5.2595e-06
-3.26875e-06
5.61789e-06
-3.26054e-06
2.56855e-06
-3.10184e-06
-3.03604e-06
-2.49307e-06
-8.08215e-06
-1.65832e-06
-1.13202e-05
-1.46182e-05
3.84426e-07
4.1146e-06
-8.42903e-07
5.62742e-07
-1.85156e-06
-3.59212e-07
-2.52591e-06
-4.61069e-07
-3.05894e-06
2.3871e-07
-3.71012e-06
2.05905e-06
-4.4307e-06
3.24367e-06
-4.83405e-06
3.15913e-06
-4.7825e-06
4.30639e-06
-4.32294e-06
4.75292e-06
-4.00493e-06
2.9365e-06
-3.4833e-06
2.54044e-06
-2.80655e-06
4.58275e-06
-2.03314e-06
4.84447e-06
-1.5436e-06
2.07901e-06
-1.27731e-06
-3.30233e-06
-9.02269e-07
-8.45719e-06
-5.20785e-07
-1.17017e-05
-1.5139e-05
-1.71992e-07
4.2866e-06
-1.46641e-06
1.85716e-06
-2.55573e-06
7.30108e-07
-3.33853e-06
3.21733e-07
-3.92719e-06
8.27359e-07
-4.59221e-06
2.72408e-06
-5.30114e-06
3.9526e-06
-5.6175e-06
3.47549e-06
-5.25734e-06
3.94623e-06
-4.55918e-06
4.05477e-06
-4.01205e-06
2.38938e-06
-3.34271e-06
1.87109e-06
-2.25862e-06
3.49866e-06
-1.08505e-06
3.67091e-06
-1.72621e-07
1.16658e-06
3.52824e-07
-3.82778e-06
5.0978e-07
-8.61414e-06
5.25334e-07
-1.17172e-05
-1.46137e-05
-1.02106e-06
5.30766e-06
-2.1581e-06
2.99419e-06
-3.27929e-06
1.85131e-06
-4.15664e-06
1.19908e-06
-4.76222e-06
1.43294e-06
-5.37616e-06
3.33801e-06
-5.98915e-06
4.5656e-06
-6.14482e-06
3.63116e-06
-5.57933e-06
3.38073e-06
-4.66795e-06
3.1434e-06
-3.97323e-06
1.69466e-06
-3.21055e-06
1.10841e-06
-1.84538e-06
2.13348e-06
-3.69172e-07
2.1947e-06
9.18703e-07
-1.21283e-07
1.60616e-06
-4.51523e-06
1.6296e-06
-8.63758e-06
1.34951e-06
-1.14372e-05
-1.32642e-05
1.98948e-06
-1.07795e-05
4.11179e-06
-9.44807e-06
6.01521e-06
-7.80479e-06
7.62015e-06
-6.26054e-06
8.94153e-06
-4.88411e-06
1.00191e-05
-3.75979e-06
1.08822e-05
-2.8799e-06
1.15359e-05
-2.17206e-06
1.19584e-05
-1.54228e-06
1.21182e-05
-9.25497e-07
1.19953e-05
-2.9058e-07
1.15537e-05
4.30352e-07
1.07807e-05
1.23134e-06
9.68985e-06
2.06788e-06
8.33551e-06
2.85771e-06
6.82901e-06
3.501e-06
5.32125e-06
3.96765e-06
3.93596e-06
4.30831e-06
2.71744e-06
4.65539e-06
1.71708e-06
5.06155e-06
1.14653e-06
5.49305e-06
1.54978e-06
5.98385e-06
6.34735e-06
4.84184e-06
2.05958e-06
-1.28391e-05
4.44342e-06
-1.18319e-05
6.55701e-06
-9.91838e-06
8.34578e-06
-8.04932e-06
9.84821e-06
-6.38655e-06
1.11069e-05
-5.0185e-06
1.21294e-05
-3.90241e-06
1.28987e-05
-2.94134e-06
1.33614e-05
-2.00496e-06
1.3453e-05
-1.01704e-06
1.31713e-05
-8.90354e-09
1.2464e-05
1.13763e-06
1.13517e-05
2.34368e-06
9.90531e-06
3.51421e-06
8.21058e-06
4.55243e-06
6.39665e-06
5.31492e-06
4.61392e-06
5.75037e-06
3.04834e-06
5.87388e-06
1.84833e-06
5.85539e-06
1.08347e-06
5.8264e-06
8.54074e-07
5.72244e-06
1.17059e-06
5.66733e-06
5.83306e-06
1.68488e-06
1.96402e-06
-1.48031e-05
4.23471e-06
-1.41026e-05
6.27167e-06
-1.19553e-05
8.12601e-06
-9.90366e-06
9.79254e-06
-8.05305e-06
1.12568e-05
-6.48275e-06
1.24675e-05
-5.11317e-06
1.33796e-05
-3.85344e-06
1.39591e-05
-2.5844e-06
1.40876e-05
-1.14553e-06
1.38391e-05
2.39558e-07
1.30328e-05
1.94394e-06
1.16318e-05
3.74467e-06
9.92545e-06
5.22059e-06
8.082e-06
6.39588e-06
6.14322e-06
7.2537e-06
4.11442e-06
7.77918e-06
2.20539e-06
7.78292e-06
8.49041e-07
7.21176e-06
4.23044e-07
6.2524e-06
7.58884e-07
5.38659e-06
1.38594e-06
5.04028e-06
5.46137e-06
1.75764e-06
3.60624e-06
-1.84093e-05
3.74719e-06
-1.42436e-05
4.77933e-06
-1.29875e-05
6.71349e-06
-1.18378e-05
8.87256e-06
-1.02121e-05
1.08431e-05
-8.45326e-06
1.23707e-05
-6.64075e-06
1.34414e-05
-4.92418e-06
1.41444e-05
-3.28736e-06
1.42201e-05
-1.22128e-06
1.41212e-05
3.38445e-07
1.33463e-05
2.7188e-06
1.05978e-05
6.49309e-06
8.60869e-06
7.20965e-06
7.46756e-06
7.53699e-06
6.40888e-06
8.31234e-06
4.45622e-06
9.73181e-06
1.37114e-06
1.0868e-05
-1.84824e-06
1.04311e-05
-1.51925e-06
5.92338e-06
7.39052e-07
3.12828e-06
3.10285e-06
2.67648e-06
3.34279e-06
5.22142e-06
1.46466e-05
-3.3056e-05
2.32361e-06
-1.92028e-06
-1.67795e-06
-8.986e-06
1.07812e-06
-1.45938e-05
4.6802e-06
-1.38142e-05
7.24565e-06
-1.10187e-05
8.07868e-06
-7.47384e-06
8.46506e-06
-5.31058e-06
9.26165e-06
-4.08395e-06
1.11829e-05
-3.14252e-06
1.21351e-05
-6.13823e-07
1.16461e-05
3.20781e-06
8.47123e-06
9.66778e-06
6.54696e-06
9.13387e-06
8.2851e-06
5.79874e-06
1.01984e-05
6.39892e-06
7.62513e-06
1.2305e-05
6.75225e-07
1.78178e-05
-4.87488e-06
1.59811e-05
-1.72199e-06
2.7705e-06
2.42565e-06
-1.01929e-06
5.34931e-06
-2.47153e-07
-5.70714e-08
8.74921e-06
9.39788e-06
-4.24542e-05
-6.03322e-06
1.35109e-05
-1.28814e-05
-2.1378e-06
-8.33501e-06
-1.91403e-05
-1.8141e-06
-2.0335e-05
1.96424e-06
-1.4797e-05
2.83558e-06
-8.34516e-06
2.83911e-06
-5.31414e-06
2.31517e-06
-3.56e-06
1.47825e-06
-2.30562e-06
-5.28863e-07
1.39319e-06
-2.64901e-06
5.3279e-06
3.44319e-07
6.67441e-06
2.56065e-06
6.91745e-06
4.28741e-06
4.07185e-06
6.26991e-06
4.41632e-06
8.12872e-06
1.04461e-05
5.9494e-06
1.99972e-05
4.4152e-06
1.75152e-05
4.57196e-06
2.61365e-06
4.24204e-06
-6.89375e-07
1.57195e-06
2.42301e-06
1.43115e-06
8.37205e-08
-4.80412e-06
-3.76501e-05
-4.62368e-06
1.33303e-05
-7.80782e-06
1.04667e-06
-7.13326e-06
-1.98153e-05
-3.513e-06
-2.39553e-05
-1.06725e-06
-1.72431e-05
-1.0921e-06
-8.32041e-06
-2.18769e-06
-4.21874e-06
-5.29672e-06
-4.51143e-07
-1.06997e-05
3.09727e-06
-1.39875e-05
4.68094e-06
-1.0451e-05
1.79151e-06
-5.50506e-06
1.72839e-06
-2.00281e-06
3.41518e-06
-7.64635e-07
2.83366e-06
1.05546e-06
2.59622e-06
4.60972e-06
6.89188e-06
8.09425e-06
1.65126e-05
1.01401e-05
1.54694e-05
8.88684e-06
3.86692e-06
5.40601e-06
2.7915e-06
-9.48321e-07
8.77734e-06
7.16359e-06
-6.68077e-06
-1.76481e-05
-2.00022e-05
-1.21922e-05
7.87409e-06
-5.66125e-06
-5.48453e-06
-4.34349e-06
-2.11326e-05
-4.9294e-06
-2.33693e-05
-6.05651e-06
-1.61158e-05
-8.02178e-06
-6.35509e-06
-1.14695e-05
-7.70864e-07
-1.50659e-05
3.14533e-06
-1.76304e-05
5.66166e-06
-1.70314e-05
4.08194e-06
-1.35503e-05
-1.68962e-06
-9.45175e-06
-2.37013e-06
-6.63426e-06
5.97626e-07
-5.44555e-06
1.64492e-06
-4.23011e-06
1.38079e-06
-1.71888e-06
4.38064e-06
3.92227e-06
1.08714e-05
7.99868e-06
1.1393e-05
4.29695e-06
7.56872e-06
-7.53705e-07
7.84218e-06
-3.16851e-06
1.11921e-05
9.90553e-06
-5.91025e-06
-2.50971e-05
5.0953e-06
-2.37231e-05
6.50059e-06
-1.80087e-05
-1.11992e-05
-1.58221e-05
-2.33196e-05
-1.45886e-05
-2.46031e-05
-1.49696e-05
-1.57351e-05
-1.82626e-05
-3.06226e-06
-2.08561e-05
1.82261e-06
-2.19753e-05
4.26466e-06
-2.06438e-05
4.33014e-06
-1.78227e-05
1.2607e-06
-1.67383e-05
-2.77414e-06
-1.53773e-05
-3.73136e-06
-1.27283e-05
-2.05138e-06
-1.09746e-05
-1.08933e-07
-1.09228e-05
1.32905e-06
-1.05677e-05
4.02549e-06
-7.52627e-06
7.82984e-06
-5.29994e-06
9.16661e-06
-6.1636e-06
8.43231e-06
-7.72291e-06
9.40156e-06
-7.45311e-06
1.09223e-05
9.64025e-06
-7.18796e-06
-2.74093e-05
3.25042e-05
-2.6579e-05
5.67039e-06
-2.33849e-05
-1.43929e-05
-2.29372e-05
-2.37673e-05
-2.52787e-05
-2.22617e-05
-2.77583e-05
-1.32555e-05
-2.90409e-05
-1.77993e-06
-2.9322e-05
2.10358e-06
-2.83822e-05
3.32482e-06
-2.63616e-05
2.30941e-06
-2.4675e-05
-4.26088e-07
-2.38697e-05
-3.57957e-06
-2.26158e-05
-4.98531e-06
-2.07753e-05
-3.89174e-06
-1.95503e-05
-1.33395e-06
-1.95206e-05
1.29931e-06
-1.90395e-05
3.54436e-06
-1.70745e-05
5.8648e-06
-1.49502e-05
7.0424e-06
-1.40474e-05
7.52969e-06
-1.33112e-05
8.66548e-06
-1.18184e-05
9.4297e-06
8.29641e-06
-1.04747e-05
-1.93303e-05
5.18344e-05
-2.294e-05
9.27967e-06
-2.40955e-05
-1.32376e-05
-2.7384e-05
-2.04788e-05
-3.31568e-05
-1.64886e-05
-3.76499e-05
-8.76235e-06
-3.70821e-05
-2.34765e-06
-3.50294e-05
5.09178e-08
-3.24742e-05
7.69579e-07
-2.98339e-05
-3.30921e-07
-2.83068e-05
-1.95335e-06
-2.80604e-05
-3.82613e-06
-2.76558e-05
-5.38989e-06
-2.66422e-05
-4.90524e-06
-2.58246e-05
-2.15149e-06
-2.52301e-05
7.04816e-07
-2.438e-05
2.69418e-06
-2.26698e-05
4.15441e-06
-2.07765e-05
5.14897e-06
-1.91191e-05
5.87233e-06
-1.72955e-05
6.842e-06
-1.52915e-05
7.42584e-06
6.495e-06
-1.34899e-05
-9.80958e-06
6.16452e-05
-1.6671e-05
1.61408e-05
-2.34907e-05
-6.4177e-06
-3.19937e-05
-1.19758e-05
-3.77286e-05
-1.07537e-05
-3.98573e-05
-6.63358e-06
-3.89285e-05
-3.27619e-06
-3.67563e-05
-2.12105e-06
-3.42164e-05
-1.77034e-06
-3.21006e-05
-2.44676e-06
-3.08198e-05
-3.23411e-06
-3.03919e-05
-4.25387e-06
-3.02594e-05
-5.52227e-06
-2.99911e-05
-5.1735e-06
-2.93617e-05
-2.78091e-06
-2.82214e-05
-4.35459e-07
-2.69156e-05
1.38844e-06
-2.53704e-05
2.60953e-06
-2.36286e-05
3.40737e-06
-2.1818e-05
4.06189e-06
-1.97218e-05
4.74577e-06
-1.75563e-05
5.26013e-06
4.55653e-06
-1.5618e-05
-5.32922e-06
6.69745e-05
-1.43721e-05
2.5184e-05
-2.44656e-05
3.6762e-06
-3.20341e-05
-4.40769e-06
-3.65218e-05
-6.26594e-06
-3.78604e-05
-5.29484e-06
-3.71322e-05
-4.00425e-06
-3.5758e-05
-3.49521e-06
-3.4047e-05
-3.48138e-06
-3.26228e-05
-3.87099e-06
-3.14609e-05
-4.39602e-06
-3.06582e-05
-5.05636e-06
-3.05624e-05
-5.61791e-06
-3.05711e-05
-5.16473e-06
-2.98281e-05
-3.52402e-06
-2.86435e-05
-1.62027e-06
-2.72209e-05
-3.43497e-08
-2.57309e-05
1.11961e-06
-2.41655e-05
1.84203e-06
-2.24968e-05
2.39329e-06
-2.0618e-05
2.867e-06
-1.852e-05
3.16223e-06
2.65973e-06
-1.66232e-05
-3.60296e-06
7.0577e-05
-1.24924e-05
3.40738e-05
-2.14319e-05
1.26157e-05
-2.79173e-05
2.07778e-06
-3.17e-05
-2.48323e-06
-3.31223e-05
-3.87259e-06
-3.30042e-05
-4.12237e-06
-3.22169e-05
-4.2826e-06
-3.11944e-05
-4.50391e-06
-3.02232e-05
-4.84215e-06
-2.9409e-05
-5.2102e-06
-2.88898e-05
-5.57564e-06
-2.87467e-05
-5.76103e-06
-2.86183e-05
-5.29333e-06
-2.80533e-05
-4.089e-06
-2.705e-05
-2.62351e-06
-2.57915e-05
-1.29276e-06
-2.44104e-05
-2.61468e-07
-2.30222e-05
4.53783e-07
-2.15732e-05
9.44308e-07
-1.998e-05
1.27375e-06
-1.81785e-05
1.36068e-06
9.3053e-07
-1.64493e-05
-9.11173e-07
7.14882e-05
-8.47691e-06
4.16396e-05
-1.57936e-05
1.99323e-05
-2.13209e-05
7.60537e-06
-2.48091e-05
1.00489e-06
-2.65203e-05
-2.16148e-06
-2.70199e-05
-3.62281e-06
-2.68925e-05
-4.41002e-06
-2.64876e-05
-4.90886e-06
-2.60312e-05
-5.29853e-06
-2.56363e-05
-5.60513e-06
-2.53981e-05
-5.81387e-06
-2.53393e-05
-5.8198e-06
-2.52428e-05
-5.39e-06
-2.48426e-05
-4.4892e-06
-2.40945e-05
-3.37161e-06
-2.30947e-05
-2.29255e-06
-2.19556e-05
-1.40057e-06
-2.07547e-05
-7.47118e-07
-1.95006e-05
-3.0981e-07
-1.81542e-05
-7.27866e-08
-1.67004e-05
-9.31373e-08
-5.20014e-07
-1.52499e-05
3.78883e-06
6.77001e-05
-2.43117e-06
4.78593e-05
-8.66177e-06
2.61631e-05
-1.35028e-05
1.24463e-05
-1.68621e-05
4.36421e-06
-1.89038e-05
-1.19713e-07
-1.9984e-05
-2.54264e-06
-2.04891e-05
-3.90508e-06
-2.06815e-05
-4.71645e-06
-2.07426e-05
-5.23752e-06
-2.07762e-05
-5.57159e-06
-2.08471e-05
-5.74306e-06
-2.09611e-05
-5.70592e-06
-2.09934e-05
-5.35782e-06
-2.07886e-05
-4.69405e-06
-2.0304e-05
-3.85611e-06
-1.95868e-05
-3.00965e-06
-1.87131e-05
-2.27426e-06
-1.77471e-05
-1.71319e-06
-1.67138e-05
-1.34313e-06
-1.56099e-05
-1.17665e-06
-1.4446e-05
-1.25705e-06
-1.65945e-06
-1.33064e-05
7.66109e-06
6.0039e-05
4.06613e-06
5.14539e-05
-9.52804e-07
3.11822e-05
-5.30763e-06
1.68007e-05
-8.64889e-06
7.70557e-06
-1.10177e-05
2.24917e-06
-1.26168e-05
-9.43837e-07
-1.36899e-05
-2.83226e-06
-1.4429e-05
-3.97745e-06
-1.49734e-05
-4.69326e-06
-1.54112e-05
-5.13384e-06
-1.57928e-05
-5.36149e-06
-1.61217e-05
-5.37709e-06
-1.63303e-05
-5.14922e-06
-1.63326e-05
-4.69163e-06
-1.60975e-05
-4.09115e-06
-1.5649e-05
-3.45815e-06
-1.50376e-05
-2.8857e-06
-1.43146e-05
-2.43633e-06
-1.35131e-05
-2.14468e-06
-1.26525e-05
-2.03719e-06
-1.17606e-05
-2.14885e-06
-2.51796e-06
-1.0902e-05
1.00231e-05
5.00155e-05
9.93179e-06
5.15455e-05
6.28165e-06
3.4832e-05
2.41079e-06
2.06713e-05
-9.02655e-07
1.10191e-05
-3.52991e-06
4.87619e-06
-5.54252e-06
1.06836e-06
-7.08143e-06
-1.29366e-06
-8.27645e-06
-2.78257e-06
-9.2318e-06
-3.73798e-06
-1.00193e-05
-4.34642e-06
-1.06807e-05
-4.69993e-06
-1.1224e-05
-4.83366e-06
-1.16169e-05
-4.75613e-06
-1.18157e-05
-4.49281e-06
-1.18023e-05
-4.10456e-06
-1.15918e-05
-3.66881e-06
-1.12197e-05
-3.25788e-06
-1.07275e-05
-2.92854e-06
-1.01511e-05
-2.7211e-06
-9.52114e-06
-2.66699e-06
-8.87387e-06
-2.79596e-06
-3.12892e-06
-8.2628e-06
1.02148e-05
3.98006e-05
1.32819e-05
4.84787e-05
1.16342e-05
3.64793e-05
8.65912e-06
2.36466e-05
5.63295e-06
1.40452e-05
2.95628e-06
7.55255e-06
7.11781e-07
3.31264e-06
-1.13517e-06
5.53281e-07
-2.65355e-06
-1.26411e-06
-3.91214e-06
-2.47932e-06
-4.96544e-06
-3.29306e-06
-5.84817e-06
-3.81707e-06
-6.57232e-06
-4.10939e-06
-7.12674e-06
-4.20164e-06
-7.49252e-06
-4.12703e-06
-7.66314e-06
-3.93409e-06
-7.65108e-06
-3.68102e-06
-7.48383e-06
-3.42519e-06
-7.196e-06
-3.2163e-06
-6.82275e-06
-3.09418e-06
-6.39877e-06
-3.09077e-06
-5.96262e-06
-3.23195e-06
-3.53059e-06
-5.56088e-06
8.58086e-06
3.12201e-05
1.36771e-05
4.33823e-05
1.42646e-05
3.58917e-05
1.26732e-05
2.52383e-05
1.03506e-05
1.63677e-05
7.95479e-06
9.94831e-06
5.74709e-06
5.52046e-06
3.80692e-06
2.49369e-06
2.1366e-06
4.06395e-07
7.09938e-07
-1.0526e-06
-5.03931e-07
-2.07919e-06
-1.52917e-06
-2.79179e-06
-2.37805e-06
-3.26046e-06
-3.05035e-06
-3.52935e-06
-3.54103e-06
-3.6364e-06
-3.85121e-06
-3.624e-06
-3.99327e-06
-3.53899e-06
-3.99008e-06
-3.42832e-06
-3.87127e-06
-3.33495e-06
-3.66952e-06
-3.29574e-06
-3.41913e-06
-3.34101e-06
-3.15721e-06
-3.49379e-06
-3.76328e-06
-2.9245e-06
6.19297e-06
2.50271e-05
1.20243e-05
3.75506e-05
1.4445e-05
3.34712e-05
1.43875e-05
2.52958e-05
1.30705e-05
1.76845e-05
1.12613e-05
1.17575e-05
9.3608e-06
7.42113e-06
7.55507e-06
4.29959e-06
5.91876e-06
2.04282e-06
4.47281e-06
3.93394e-07
3.21514e-06
-8.21502e-07
2.13698e-06
-1.71358e-06
1.23126e-06
-2.35469e-06
4.95522e-07
-2.79361e-06
-7.11393e-08
-3.06975e-06
-4.73576e-07
-3.22156e-06
-7.23927e-07
-3.28857e-06
-8.41855e-07
-3.31024e-06
-8.52876e-07
-3.32374e-06
-7.86184e-07
-3.36227e-06
-6.73358e-07
-3.45373e-06
-5.48125e-07
-3.61898e-06
-3.86599e-06
-4.45391e-07
4.12204e-06
2.09046e-05
9.71631e-06
3.19564e-05
1.31822e-05
3.00053e-05
1.4382e-05
2.40958e-05
1.40951e-05
1.79713e-05
1.30187e-05
1.28339e-05
1.16042e-05
8.83564e-06
1.01071e-05
5.79676e-06
8.66005e-06
3.48991e-06
7.32645e-06
1.72704e-06
6.13316e-06
3.71863e-07
5.08926e-06
-6.69596e-07
4.19664e-06
-1.46203e-06
3.45525e-06
-2.05221e-06
2.86342e-06
-2.47792e-06
2.41582e-06
-2.77388e-06
2.10165e-06
-2.97428e-06
1.90441e-06
-3.11282e-06
1.80263e-06
-3.22177e-06
1.77117e-06
-3.33066e-06
1.78242e-06
-3.46489e-06
1.80712e-06
-3.64364e-06
-3.87438e-06
1.81555e-06
2.8089e-06
1.80956e-05
7.7021e-06
2.70638e-05
1.14686e-05
2.62387e-05
1.3441e-05
2.21236e-05
1.39765e-05
1.7436e-05
1.35965e-05
1.32139e-05
1.27177e-05
9.71451e-06
1.16149e-05
6.89956e-06
1.04529e-05
4.65204e-06
9.32405e-06
2.85601e-06
8.27766e-06
1.41835e-06
7.33869e-06
2.69462e-07
6.51889e-06
-6.42187e-07
5.82313e-06
-1.35643e-06
5.25197e-06
-1.9067e-06
4.80172e-06
-2.32351e-06
4.46399e-06
-2.63639e-06
4.22564e-06
-2.87431e-06
4.06929e-06
-3.06529e-06
3.97415e-06
-3.23546e-06
3.91706e-06
-3.40779e-06
3.87349e-06
-3.60006e-06
-3.81969e-06
3.81883e-06
2.14938e-06
1.59467e-05
6.27082e-06
2.29427e-05
9.87628e-06
2.26331e-05
1.21795e-05
1.98208e-05
1.3247e-05
1.63687e-05
1.34116e-05
1.30495e-05
1.30126e-05
1.01136e-05
1.23064e-05
7.60584e-06
1.14625e-05
5.49615e-06
1.0585e-05
3.73359e-06
9.7356e-06
2.26787e-06
8.9494e-06
1.05575e-06
8.24592e-06
6.13629e-08
7.63518e-06
-7.45615e-07
7.12105e-06
-1.39246e-06
6.7026e-06
-1.90493e-06
6.37443e-06
-2.30811e-06
6.12696e-06
-2.62678e-06
5.94687e-06
-2.8852e-06
5.81774e-06
-3.10638e-06
5.7209e-06
-3.31102e-06
5.63642e-06
-3.51561e-06
-3.7276e-06
5.54435e-06
1.85873e-06
1.40884e-05
5.32356e-06
1.94776e-05
8.58336e-06
1.93734e-05
1.09316e-05
1.74727e-05
1.22745e-05
1.50259e-05
1.27993e-05
1.25246e-05
1.27711e-05
1.01418e-05
1.24105e-05
7.9664e-06
1.18718e-05
6.03495e-06
1.12549e-05
4.3505e-06
1.06228e-05
2.89999e-06
1.00143e-05
1.66427e-06
9.45306e-06
6.227e-07
8.95285e-06
-2.45306e-07
8.52077e-06
-9.60278e-07
8.15887e-06
-1.54293e-06
7.86489e-06
-2.01409e-06
7.63279e-06
-2.39471e-06
7.45313e-06
-2.70562e-06
7.31363e-06
-2.96698e-06
7.19989e-06
-3.19735e-06
7.09623e-06
-3.41196e-06
-3.6182e-06
6.98687e-06
1.70777e-06
1.23806e-05
4.65505e-06
1.65299e-05
7.54942e-06
1.64792e-05
9.80494e-06
1.5217e-05
1.12437e-05
1.35868e-05
1.19664e-05
1.18016e-05
1.21947e-05
9.91326e-06
1.21122e-05
8.04874e-06
1.18442e-05
6.30283e-06
1.14746e-05
4.72003e-06
1.10591e-05
3.31541e-06
1.06348e-05
2.08863e-06
1.0226e-05
1.03154e-06
9.84867e-06
1.32086e-07
9.51248e-06
-6.24003e-07
9.22215e-06
-1.25255e-06
8.97839e-06
-1.77035e-06
8.77844e-06
-2.19482e-06
8.6164e-06
-2.54367e-06
8.48378e-06
-2.83442e-06
8.37e-06
-3.08359e-06
8.2632e-06
-3.30513e-06
-3.50625e-06
8.15128e-06
1.56684e-06
1.08134e-05
4.07541e-06
1.40212e-05
6.64113e-06
1.39136e-05
8.76121e-06
1.30966e-05
1.01874e-05
1.21603e-05
1.09931e-05
1.09957e-05
1.13986e-05
9.50757e-06
1.1541e-05
7.90614e-06
1.15092e-05
6.33454e-06
1.13651e-05
4.86403e-06
1.11534e-05
3.52704e-06
1.09067e-05
2.33539e-06
1.06485e-05
1.28986e-06
1.03955e-05
3.85125e-07
1.01593e-05
-3.87739e-07
9.94691e-06
-1.04012e-06
9.76158e-06
-1.58507e-06
9.60342e-06
-2.03674e-06
9.46967e-06
-2.40999e-06
9.35512e-06
-2.7199e-06
9.25256e-06
-2.98102e-06
9.15344e-06
-3.20599e-06
-3.40163e-06
9.04883e-06
1.29776e-06
9.51548e-06
3.53236e-06
1.17869e-05
5.75332e-06
1.16927e-05
7.61691e-06
1.12329e-05
9.00505e-06
1.07721e-05
9.87336e-06
1.01273e-05
1.04406e-05
8.94027e-06
1.07868e-05
7.55992e-06
1.09671e-05
6.15421e-06
1.10257e-05
4.80541e-06
1.09985e-05
3.55429e-06
1.09143e-05
2.41972e-06
1.07957e-05
1.40859e-06
1.066e-05
5.20857e-07
1.05201e-05
-2.4783e-07
1.03848e-05
-9.04878e-07
1.02596e-05
-1.4599e-06
1.01468e-05
-1.92406e-06
1.00464e-05
-2.30962e-06
9.95583e-06
-2.62939e-06
9.87085e-06
-2.89604e-06
9.78571e-06
-3.12084e-06
-3.31008e-06
9.69416e-06
9.28523e-07
8.58712e-06
2.9507e-06
9.76489e-06
4.82907e-06
9.81425e-06
6.39813e-06
9.66384e-06
7.66042e-06
9.5098e-06
8.6485e-06
9.1393e-06
9.39636e-06
8.19246e-06
9.93642e-06
7.01987e-06
1.03056e-05
5.78503e-06
1.05399e-05
4.5712e-06
1.06714e-05
3.42286e-06
1.07276e-05
2.36365e-06
1.07308e-05
1.40538e-06
1.0699e-05
5.52639e-07
1.06459e-05
-1.94775e-07
1.05816e-05
-8.40628e-07
1.0513e-05
-1.39139e-06
1.04444e-05
-1.85555e-06
1.03778e-05
-2.24301e-06
1.03129e-05
-2.56453e-06
1.02479e-05
-2.83099e-06
1.01793e-05
-3.05226e-06
-3.23397e-06
1.01032e-05
8.79131e-07
7.70811e-06
2.43422e-06
8.20961e-06
3.94659e-06
8.3017e-06
5.24519e-06
8.36518e-06
6.39978e-06
8.35515e-06
7.50169e-06
8.03736e-06
8.39839e-06
7.29574e-06
9.0911e-06
6.32714e-06
9.60692e-06
5.26922e-06
9.97775e-06
4.20041e-06
1.0234e-05
3.16664e-06
1.04023e-05
2.1954e-06
1.05047e-05
1.30297e-06
1.0559e-05
4.98276e-07
1.05792e-05
-2.15012e-07
1.05758e-05
-8.3734e-07
1.05568e-05
-1.37241e-06
1.05276e-05
-1.82638e-06
1.04918e-05
-2.20714e-06
1.04509e-05
-2.52362e-06
1.0405e-05
-2.78507e-06
1.03527e-05
-2.99995e-06
-3.17308e-06
1.02918e-05
1.08672e-06
6.62125e-06
2.15438e-06
7.1416e-06
3.28189e-06
7.17404e-06
4.38303e-06
7.2639e-06
5.51326e-06
7.2248e-06
6.61562e-06
6.93492e-06
7.5641e-06
6.34722e-06
8.33203e-06
5.55919e-06
8.93246e-06
4.66878e-06
9.39012e-06
3.74277e-06
9.73116e-06
2.82562e-06
9.97948e-06
1.94706e-06
1.01555e-05
1.12694e-06
1.02757e-05
3.77975e-07
1.03534e-05
-2.92701e-07
1.03988e-05
-8.82677e-07
1.04198e-05
-1.39341e-06
1.04227e-05
-1.82924e-06
1.04121e-05
-2.19648e-06
1.03911e-05
-2.50255e-06
1.03613e-05
-2.75519e-06
1.03228e-05
-2.9615e-06
-3.12537e-06
1.02751e-05
1.04516e-06
5.57583e-06
1.98548e-06
6.20111e-06
2.92373e-06
6.23573e-06
3.93417e-06
6.25335e-06
4.98239e-06
6.17651e-06
6.0036e-06
5.9137e-06
6.91573e-06
5.4351e-06
7.68355e-06
4.79139e-06
8.30762e-06
4.04474e-06
8.80303e-06
3.2474e-06
9.18933e-06
2.43934e-06
9.48595e-06
1.65045e-06
9.71008e-06
9.02813e-07
9.87591e-06
2.12171e-07
9.99467e-06
-4.11407e-07
1.00754e-05
-9.63304e-07
1.01256e-05
-1.4435e-06
1.01517e-05
-1.85524e-06
1.01591e-05
-2.2038e-06
1.0152e-05
-2.49545e-06
1.01334e-05
-2.73661e-06
1.01049e-05
-2.93302e-06
-3.08746e-06
1.00669e-05
9.57366e-07
4.61832e-06
1.8842e-06
5.27435e-06
2.78821e-06
5.33176e-06
3.71626e-06
5.3253e-06
4.66002e-06
5.23282e-06
5.57457e-06
4.99924e-06
6.40575e-06
4.604e-06
7.12546e-06
4.07174e-06
7.7284e-06
3.44184e-06
8.22225e-06
2.75358e-06
8.62035e-06
2.04126e-06
8.93732e-06
1.3335e-06
9.18655e-06
6.53619e-07
9.37896e-06
1.98241e-08
9.52295e-06
-5.55311e-07
9.62551e-06
-1.06575e-06
9.69319e-06
-1.51107e-06
9.73241e-06
-1.8944e-06
9.74927e-06
-2.22065e-06
9.74905e-06
-2.49527e-06
9.73588e-06
-2.72352e-06
9.71246e-06
-2.90969e-06
-3.05531e-06
9.68022e-06
9.32969e-07
3.68542e-06
1.85587e-06
4.35162e-06
2.73338e-06
4.4543e-06
3.59338e-06
4.4654e-06
4.437e-06
4.38934e-06
5.24168e-06
4.19468e-06
5.9772e-06
3.86855e-06
6.62479e-06
3.42419e-06
7.17892e-06
2.88771e-06
7.64356e-06
2.28893e-06
8.02781e-06
1.65698e-06
8.34243e-06
1.01887e-06
8.59722e-06
3.98847e-07
8.79951e-06
-1.82409e-07
8.95403e-06
-7.09763e-07
9.06506e-06
-1.17671e-06
9.13805e-06
-1.58403e-06
9.17958e-06
-1.93594e-06
9.19659e-06
-2.2377e-06
9.19548e-06
-2.49424e-06
9.18144e-06
-2.70957e-06
9.15804e-06
-2.88638e-06
-3.02472e-06
9.12738e-06
9.3456e-07
2.75102e-06
1.85348e-06
3.43276e-06
2.70241e-06
3.6054e-06
3.4986e-06
3.66933e-06
4.24995e-06
3.6381e-06
4.95103e-06
3.49365e-06
5.58917e-06
3.23041e-06
6.15466e-06
2.85865e-06
6.64444e-06
2.39785e-06
7.06159e-06
1.87169e-06
7.41316e-06
1.30534e-06
7.70752e-06
7.24453e-07
7.95174e-06
1.5461e-07
8.14953e-06
-3.80185e-07
8.301e-06
-8.61212e-07
8.40715e-06
-1.28285e-06
8.47269e-06
-1.64958e-06
8.50501e-06
-1.96828e-06
8.51239e-06
-2.24513e-06
8.5025e-06
-2.48442e-06
8.48145e-06
-2.68858e-06
8.4534e-06
-2.85839e-06
-2.99203e-06
8.42067e-06
9.38916e-07
1.81217e-06
1.854e-06
2.51758e-06
2.67469e-06
2.78472e-06
3.40971e-06
2.93435e-06
4.0744e-06
2.9734e-06
4.67807e-06
2.88991e-06
5.22105e-06
2.68734e-06
5.70101e-06
2.37857e-06
6.11785e-06
1.98088e-06
6.47521e-06
1.51421e-06
6.77976e-06
1.00069e-06
7.03916e-06
4.6498e-07
7.25903e-06
-6.52936e-08
7.43972e-06
-5.60892e-07
7.57511e-06
-9.96607e-07
7.66234e-06
-1.37008e-06
7.70663e-06
-1.69388e-06
7.71759e-06
-1.97925e-06
7.70562e-06
-2.23316e-06
7.67973e-06
-2.45853e-06
7.64659e-06
-2.65544e-06
7.61038e-06
-2.82217e-06
-2.95477e-06
7.57312e-06
9.45651e-07
8.66452e-07
1.86363e-06
1.59949e-06
2.66011e-06
1.98822e-06
3.33345e-06
2.26096e-06
3.91093e-06
2.39582e-06
4.41929e-06
2.38144e-06
4.8691e-06
2.23742e-06
5.26258e-06
1.98498e-06
5.60134e-06
1.642e-06
5.88968e-06
1.22575e-06
6.13491e-06
7.55374e-07
6.34567e-06
2.54157e-07
6.52799e-06
-2.47656e-07
6.67968e-06
-7.12591e-07
6.78532e-06
-1.10227e-06
6.83767e-06
-1.42243e-06
6.84546e-06
-1.70165e-06
6.82281e-06
-1.95657e-06
6.78294e-06
-2.19324e-06
6.73578e-06
-2.41131e-06
6.68768e-06
-2.60728e-06
6.64191e-06
-2.77636e-06
-2.91233e-06
6.59949e-06
9.65861e-07
-9.95347e-08
1.90392e-06
6.61384e-07
2.68415e-06
1.20797e-06
3.28926e-06
1.65577e-06
3.77014e-06