/*--------------------------------*- C++ -*----------------------------------*\
| =========                 |                                                 |
| \\      /  F ield         | OpenFOAM: The Open Source CFD Toolbox           |
|  \\    /   O peration     | Version:  2.3.0                                 |
|   \\  /    A nd           | Web:      www.OpenFOAM.org                      |
|    \\/     M anipulation  |                                                 |
\*---------------------------------------------------------------------------*/
FoamFile
{
    version     2.0;
    format      ascii;
    class       volScalarField;
    location    "0.072";
    object      p;
}
// * * * * * * * * * * * * * * * * * * * * * * * * * * * * * * * * * * * * * //

dimensions      [1 -1 -2 0 0 0 0];

internalField   nonuniform List<scalar> 
725
(
310.303
279.201
237.087
320.95
103.417
304.57
279.937
241.715
334.958
1.45638
301.734
277.986
233.701
302.018
-139.394
301.803
274.558
227.452
250.756
-108.749
305.063
271.744
228.502
259.165
6.73771
593.108
383.419
305.569
-610.396
-817.165
-743.69
-763
-765.951
-771.352
-769.647
-760.152
-740.538
-702.211
-723.435
-765.957
-757.475
-752.956
-753.039
-755.319
-691.78
-681.585
-697.561
-704.599
-709.282
-712.553
-715.059
-717.172
-719.068
-720.909
-722.79
-724.427
-725.898
-727.495
-729.238
-731.029
-733.35
-735.369
-741.039
-734.621
-760.459
-718.982
-784.753
-514.345
-315.667
179.035
761.406
510.9
387.955
-631.4
-825.113
-747.078
-765.671
-768.367
-773.242
-771.399
-762.455
-741.844
-704.673
-737.44
-766.511
-758.009
-751.429
-753.305
-846.027
-739.591
-686.595
-699.395
-705.443
-710.171
-713.494
-715.985
-718.048
-719.955
-721.759
-723.571
-725.156
-726.586
-728.162
-729.846
-731.62
-733.883
-735.226
-741.377
-735.318
-762.304
-724.462
-810.211
-659.053
-989.176
60.8824
-34.0911
678.862
392.77
-659.01
-839.852
-749.088
-769.009
-771.956
-775.847
-773.992
-766.644
-748.244
-712.931
-741.726
-768.722
-759.097
-748.033
-753.332
-858.556
-738.475
-689.171
-699.58
-706.416
-710.69
-713.853
-716.258
-718.245
-720.105
-721.838
-723.644
-725.261
-726.645
-728.217
-729.88
-731.599
-733.848
-735.366
-740.588
-734.908
-763.562
-731.372
-834.197
-786.096
-1423.42
47.7025
688.36
659.421
568.957
-597.735
-839.691
-747.915
-772.339
-777.323
-780.084
-778.704
-773.397
-759.153
-729.507
-754.673
-772.413
-760.937
-741.033
-753.441
-840.373
-814.718
-696.478
-700.732
-707.945
-711.594
-714.295
-716.527
-718.402
-720.188
-721.968
-723.769
-725.357
-726.668
-728.179
-729.866
-731.531
-733.741
-735.203
-741.221
-734.797
-763.277
-730.473
-827.072
-776.472
-1187.47
70.8296
985.421
910.533
-291.593
-359.178
-817.378
-748.929
-777.629
-783.42
-784.89
-783.951
-781.692
-774.198
-758.328
-782.292
-778.085
-764.451
-726.655
-762.056
-891.707
-866.212
-696.656
-700.877
-708.996
-712.671
-714.983
-716.939
-718.646
-720.331
-721.579
-722.716
-724.147
-726.66
-728.243
-729.882
-731.456
-733.631
-734.886
-740.44
-734.644
-760.489
-726.077
-803.396
-737.562
-668.461
-70.2012
1008.42
867.549
-713.135
-291.47
-814.188
-754.429
-785.051
-787.565
-788.276
-787.465
-786.011
-784.952
-778.242
-799.768
-785.183
-771.047
-707.576
-742.681
-503.054
-724.241
-703.474
-709.189
-711.593
-713.58
-715.435
-717.195
-718.765
-719.947
-721.615
-722.901
-724.462
-726.061
-727.451
-729.371
-731.113
-733.657
-734.355
-740.207
-732.306
-759.59
-721.89
-796.432
-745.652
-680.38
-159.331
1011.78
827.564
-871.7
-259.6
-811.349
-757.164
-787.515
-789.077
-789.401
-788.748
-788.708
-788.231
-781.042
-797.996
-789.082
-784.933
-698.42
-759.826
-431.692
-652.582
-704.28
-710.313
-712.402
-713.926
-715.603
-717.249
-718.692
-720.063
-721.727
-722.996
-724.518
-726.786
-728.117
-729.785
-731.106
-733.313
-732.411
-740.23
-731.802
-759.124
-720.597
-794.228
-748.451
-669.993
-183.27
1015.26
791.875
-961.343
-194.73
-812.702
-762.172
-789.189
-790.503
-790.469
-789.994
-790.919
-790.946
-776.788
-797.072
-793.576
-743.178
-683.93
-733.733
-380.518
-641.676
-699.319
-710.517
-713.045
-714.245
-715.742
-717.285
-718.813
-720.121
-721.758
-723.038
-724.558
-726.661
-727.944
-729.591
-731.008
-733.297
-732.433
-740.016
-731.417
-758.337
-719.591
-792.23
-751.831
-644.557
-204.996
1018.78
564.492
-421.016
-134.005
-826.242
-768.037
-791.995
-791.896
-791.414
-791.237
-792.842
-793.987
-775.432
-810.188
-798.741
-818.397
-658.559
-792.054
-334.035
-601.714
-693.375
-707.602
-713.557
-714.564
-715.835
-717.426
-718.888
-720.176
-721.791
-723.086
-724.601
-726.669
-727.981
-729.641
-730.844
-732.108
-732.669
-739.611
-731.044
-757.217
-718.269
-790.439
-756.532
-611.611
-168.373
1017.66
322.375
-329.972
-151.041
-837.815
-773.373
-793.973
-793.261
-792.535
-792.484
-794.9
-797.765
-789.889
-820.143
-802.29
-812.082
-630.099
-820.524
-314.833
-603.169
-695.236
-710.183
-714.253
-714.902
-715.919
-717.552
-718.947
-720.233
-721.823
-723.141
-724.643
-726.675
-728.013
-729.654
-731.027
-733.202
-732.656
-738.831
-730.581
-755.67
-717.847
-788.563
-762.197
-667.359
-166.651
-665.212
-704.601
-720.075
-723.255
-613.766
-668.745
-703.046
-721.833
-736.014
-745.284
-669.2
-701.773
-719.115
-712.982
-700.271
-666.644
-701.471
-718.558
-701.882
-702.299
-660.756
-701.903
-719.475
-703.304
-704.194
516.836
-305.35
-332.513
-926.697
-843.967
-790.851
-798.592
-796.923
-795.446
-796.148
-801.323
-809.346
-832.206
-817.494
-809.559
-822.885
-872.199
-841.532
-399.758
-680.47
-715.049
-722.082
-716.597
-715.746
-716.628
-717.816
-719.103
-720.397
-721.895
-723.273
-724.767
-726.628
-728.084
-729.668
-731.127
-732.69
-733.029
-737.572
-731.935
-754.334
-717.352
-781.361
-783.844
-867.759
-219.393
-422.14
-588.135
-507.229
-894.429
-862.726
-807.484
-805.327
-801.212
-799.202
-800.868
-809.267
-823.805
-858.471
-827.961
-816.343
-829.646
-855.479
-845.953
-794.554
-666.596
-701.42
-723.014
-718.82
-716.993
-717.298
-718.139
-719.296
-720.591
-722.046
-723.471
-724.99
-726.655
-728.153
-729.675
-731.078
-732.505
-732.673
-737.117
-729.835
-751.388
-708.928
-787.812
-789.031
-1259.09
145.697
-643.832
-656.789
-711.408
-895.446
-874.85
-819.133
-810.892
-804.244
-801.82
-804.355
-815.678
-835.699
-879.01
-839.519
-821.187
-832.843
-847.367
-846.3
-966.208
-775.82
-718.998
-728.131
-720.585
-717.924
-717.811
-718.503
-719.541
-720.781
-722.165
-723.59
-725.091
-726.707
-728.214
-729.699
-731.049
-732.359
-732.475
-735.847
-727.97
-744.711
-697.877
-765.043
-711.713
-1041.63
79.4693
-552.08
-786.512
-902.718
-874.897
-877.059
-823.755
-814.699
-806.081
-803.29
-806.419
-819.766
-845.425
-900.805
-841.123
-824.162
-834.446
-842.523
-847.145
-963.795
-806.175
-727.942
-732.177
-721.534
-718.498
-718.205
-718.766
-719.737
-720.937
-722.311
-723.714
-725.196
-726.782
-728.291
-729.742
-731.048
-732.231
-732.198
-734.945
-725.802
-737.787
-687.628
-723.503
-574.977
-364.703
-39.6046
-595.15
-644.319
-910.689
-853.695
-869.288
-824.541
-816.285
-806.554
-803.46
-806.858
-821.356
-851.294
-918.106
-840.273
-825.064
-835.093
-840.444
-850.073
-871.184
-820.053
-725.708
-732.89
-720.575
-717.859
-717.609
-718.139
-719.079
-720.275
-721.663
-723.1
-724.63
-726.269
-727.845
-729.355
-730.855
-731.365
-730.581
-731.015
-720.439
-715.644
-654.058
-696.607
-501.96
-125.261
-8.20237
)
;

boundaryField
{
    AirInlet
    {
        type            calculated;
        value           nonuniform List<scalar> 5(1008.47 1011.87 1014.91 1017.41 1017.68);
    }
    WaterInlet
    {
        type            calculated;
        value           nonuniform List<scalar> 10(310.305 304.576 301.744 301.817 305.081 -665.23 -668.759 -669.21 -666.65 -660.758);
    }
    ChannelWall
    {
        type            calculated;
        value           nonuniform List<scalar> 
110
(
305.037
271.713
228.468
259.127
6.69793
-665.186
-704.571
-720.041
-723.217
-613.725
-660.782
-701.933
-719.509
-703.342
-704.236
-595.193
-644.361
-910.73
-853.737
-869.332
-824.585
-816.329
-806.598
-803.504
-806.902
-821.4
-851.338
-918.147
-840.281
-825.064
-835.093
-840.444
-850.073
-871.201
-820.097
-725.752
-732.934
-720.619
-717.903
-717.653
-718.183
-719.123
-720.319
-721.707
-723.144
-724.674
-726.313
-727.889
-729.399
-730.899
-731.409
-730.625
-731.059
-720.483
-715.688
-654.102
-696.651
-502.004
-125.304
-8.21236
310.33
279.232
237.121
320.989
103.46
593.137
383.428
305.576
-610.366
-817.121
-743.645
-762.956
-765.907
-771.308
-769.603
-760.108
-740.494
-702.169
-723.42
-765.957
-757.475
-752.956
-753.039
-755.306
-691.736
-681.541
-697.517
-704.555
-709.237
-712.508
-715.014
-717.128
-719.023
-720.865
-722.746
-724.383
-725.854
-727.451
-729.194
-730.985
-733.306
-735.325
-740.995
-734.577
-760.415
-718.937
-784.709
-514.301
-315.624
179.048
)
;
    }
    Outlet
    {
        type            calculated;
        value           nonuniform List<scalar> 
15
(
-0.2729
-0.018679
-0.0244514
-0.034911
-0.00126558
-0.0971419
-0.105595
-0.116614
-0.126706
-0.130812
-0.124923
-0.089816
-0.110495
-0.263578
-0.634872
)
;
    }
    FrontAndBack
    {
        type            empty;
    }
}


// ************************************************************************* //
