/*--------------------------------*- C++ -*----------------------------------*\
| =========                 |                                                 |
| \\      /  F ield         | OpenFOAM: The Open Source CFD Toolbox           |
|  \\    /   O peration     | Version:  2.3.0                                 |
|   \\  /    A nd           | Web:      www.OpenFOAM.org                      |
|    \\/     M anipulation  |                                                 |
\*---------------------------------------------------------------------------*/
FoamFile
{
    version     2.0;
    format      ascii;
    class       volScalarField;
    location    "0.072";
    object      p_rgh;
}
// * * * * * * * * * * * * * * * * * * * * * * * * * * * * * * * * * * * * * //

dimensions      [1 -1 -2 0 0 0 0];

internalField   nonuniform List<scalar> 
725
(
310.33
279.232
237.121
320.989
103.46
304.65
280.028
241.818
335.073
1.58301
301.866
278.138
233.873
302.209
-139.183
301.989
274.771
227.692
251.024
-108.454
305.301
272.018
228.812
259.509
7.09834
593.137
383.428
305.576
-610.366
-817.121
-743.645
-762.956
-765.907
-771.308
-769.603
-760.108
-740.494
-702.169
-723.42
-765.957
-757.475
-752.956
-753.039
-755.306
-691.736
-681.541
-697.517
-704.555
-709.237
-712.508
-715.014
-717.128
-719.023
-720.865
-722.746
-724.383
-725.854
-727.451
-729.194
-730.985
-733.306
-735.325
-740.995
-734.577
-760.415
-718.937
-784.709
-514.301
-315.624
179.048
761.507
510.913
387.971
-631.306
-824.98
-746.946
-765.539
-768.235
-773.109
-771.267
-762.323
-741.711
-704.544
-737.396
-766.511
-758.008
-751.429
-753.305
-845.989
-739.459
-686.463
-699.262
-705.311
-710.038
-713.361
-715.852
-717.915
-719.822
-721.627
-723.439
-725.023
-726.454
-728.03
-729.714
-731.487
-733.751
-735.094
-741.245
-735.186
-762.172
-724.33
-810.079
-658.921
-989.057
60.8944
-33.9781
678.872
392.795
-658.84
-839.631
-748.867
-768.788
-771.736
-775.626
-773.771
-766.423
-748.023
-712.719
-741.656
-768.722
-759.097
-748.033
-753.332
-858.494
-738.255
-688.95
-699.359
-706.195
-710.469
-713.632
-716.037
-718.024
-719.884
-721.617
-723.424
-725.04
-726.424
-727.997
-729.66
-731.378
-733.627
-735.145
-740.367
-734.687
-763.341
-731.151
-833.977
-785.876
-1423.22
47.7269
688.387
659.431
568.967
-597.476
-839.382
-747.606
-772.03
-777.014
-779.775
-778.395
-773.088
-758.844
-729.21
-754.581
-772.413
-760.937
-741.033
-753.441
-840.259
-814.42
-696.169
-700.423
-707.636
-711.285
-713.986
-716.218
-718.093
-719.879
-721.659
-723.46
-725.048
-726.359
-727.87
-729.557
-731.222
-733.432
-734.894
-740.912
-734.488
-762.968
-730.164
-826.763
-776.163
-1187.2
70.8646
985.422
910.535
-291.464
-358.808
-816.981
-748.531
-777.232
-783.022
-784.493
-783.554
-781.295
-773.801
-757.949
-782.182
-778.085
-764.45
-726.654
-762.052
-891.575
-865.848
-696.259
-700.479
-708.599
-712.274
-714.586
-716.542
-718.249
-719.934
-721.181
-722.319
-723.75
-726.262
-727.845
-729.485
-731.059
-733.234
-734.489
-740.042
-734.246
-760.091
-725.68
-802.999
-737.164
-668.104
-70.1306
1008.42
867.553
-712.941
-291.058
-813.736
-753.978
-784.6
-787.114
-787.825
-787.014
-785.56
-784.501
-777.814
-799.65
-785.183
-771.047
-707.575
-742.68
-502.856
-723.841
-703.023
-708.738
-711.142
-713.129
-714.984
-716.744
-718.314
-719.496
-721.164
-722.45
-724.011
-725.61
-726.999
-728.92
-730.662
-733.206
-733.904
-739.756
-731.855
-759.139
-721.439
-795.981
-745.201
-679.965
-159.234
1011.78
827.575
-871.477
-259.171
-810.878
-756.693
-787.044
-788.607
-788.93
-788.277
-788.237
-787.761
-780.596
-797.875
-789.081
-784.931
-698.419
-759.824
-431.489
-652.168
-703.809
-709.843
-711.931
-713.455
-715.132
-716.778
-718.221
-719.592
-721.257
-722.525
-724.047
-726.315
-727.647
-729.314
-730.635
-732.842
-731.94
-739.76
-731.331
-758.653
-720.127
-793.757
-747.98
-669.561
-183.164
1015.26
791.89
-961.023
-194.282
-812.211
-761.681
-788.698
-790.013
-789.979
-789.504
-790.428
-790.455
-776.321
-796.949
-793.575
-743.175
-683.929
-733.725
-380.303
-641.245
-698.829
-710.027
-712.555
-713.754
-715.252
-716.795
-718.323
-719.631
-721.268
-722.547
-724.068
-726.17
-727.454
-729.1
-730.518
-732.806
-731.942
-739.526
-730.927
-757.847
-719.1
-791.74
-751.34
-644.106
-204.879
1018.78
564.526
-420.643
-133.555
-825.732
-767.527
-791.485
-791.386
-790.904
-790.727
-792.331
-793.477
-774.948
-810.062
-798.739
-818.395
-658.555
-792.048
-333.813
-601.255
-692.865
-707.092
-713.047
-714.054
-715.325
-716.917
-718.378
-719.666
-721.282
-722.576
-724.091
-726.159
-727.471
-729.131
-730.334
-731.598
-732.16
-739.101
-730.534
-756.707
-717.759
-789.929
-756.022
-611.149
-168.247
1017.66
322.444
-329.58
-150.573
-837.286
-772.843
-793.443
-792.731
-792.006
-791.954
-794.37
-797.235
-789.387
-820.014
-802.289
-812.081
-630.095
-820.521
-314.581
-602.7
-694.706
-709.653
-713.724
-714.373
-715.39
-717.022
-718.418
-719.703
-721.293
-722.612
-724.113
-726.146
-727.483
-729.125
-730.497
-732.672
-732.126
-738.301
-730.051
-755.141
-717.317
-788.034
-761.668
-666.873
-166.52
-664.47
-703.894
-719.403
-722.619
-613.185
-667.949
-702.278
-721.093
-735.301
-744.599
-668.352
-700.944
-718.306
-712.192
-699.501
-665.742
-700.582
-717.68
-701.016
-701.445
-659.801
-700.952
-718.528
-702.361
-703.258
516.883
-305.047
-332.066
-926.16
-843.383
-790.267
-798.009
-796.339
-794.862
-795.564
-800.74
-808.763
-831.66
-817.358
-809.558
-822.884
-872.198
-841.531
-399.495
-679.92
-714.465
-721.499
-716.014
-715.163
-716.045
-717.233
-718.519
-719.814
-721.311
-722.689
-724.184
-726.045
-727.501
-729.084
-730.544
-732.106
-732.446
-736.989
-731.351
-753.75
-716.769
-780.778
-783.26
-867.222
-219.268
-421.732
-587.669
-506.693
-893.816
-862.054
-806.813
-804.656
-800.541
-798.53
-800.196
-808.595
-823.133
-857.845
-827.816
-816.342
-829.645
-855.478
-845.952
-794.249
-665.948
-700.748
-722.342
-718.148
-716.321
-716.626
-717.468
-718.624
-719.919
-721.374
-722.799
-724.318
-725.983
-727.481
-729.003
-730.406
-731.833
-732.001
-736.445
-729.163
-750.716
-708.256
-787.141
-788.359
-1258.47
145.787
-643.095
-656.205
-710.759
-894.725
-874.09
-818.373
-810.131
-803.484
-801.06
-803.595
-814.918
-834.939
-878.307
-839.367
-821.185
-832.842
-847.366
-846.299
-965.92
-775.06
-718.238
-727.371
-719.825
-717.164
-717.051
-717.743
-718.781
-720.021
-721.405
-722.83
-724.331
-725.947
-727.454
-728.939
-730.289
-731.599
-731.714
-735.087
-727.209
-743.95
-697.117
-764.286
-710.953
-1040.92
79.5798
-551.233
-785.739
-901.932
-874.089
-876.21
-822.906
-813.85
-805.232
-802.442
-805.57
-818.917
-844.577
-900.028
-840.959
-824.16
-834.445
-842.522
-847.144
-963.465
-805.326
-727.093
-731.329
-720.686
-717.65
-717.357
-717.918
-718.889
-720.089
-721.463
-722.865
-724.347
-725.934
-727.442
-728.894
-730.2
-731.383
-731.349
-734.097
-724.953
-736.938
-686.782
-722.66
-574.128
-363.886
-39.4211
-594.234
-643.418
-909.819
-852.79
-868.351
-823.604
-815.348
-805.617
-802.523
-805.921
-820.419
-850.357
-917.255
-840.096
-825.062
-835.091
-840.443
-850.071
-870.82
-819.117
-724.771
-731.953
-719.638
-716.922
-716.672
-717.202
-718.142
-719.338
-720.726
-722.163
-723.693
-725.332
-726.908
-728.418
-729.918
-730.428
-729.644
-730.078
-719.501
-714.711
-653.128
-695.676
-501.023
-124.347
-7.99053
)
;

boundaryField
{
    AirInlet
    {
        type            fixedFluxPressure;
        gradient        nonuniform List<scalar> 5(5395.9 8555.51 -34616.3 -137091 1895.18);
        value           nonuniform List<scalar> 5(1008.47 1011.87 1014.91 1017.41 1017.68);
    }
    WaterInlet
    {
        type            fixedFluxPressure;
        gradient        nonuniform List<scalar> 10(0.023644 -0.800968 -0.552159 -3.01105 -7.67753 -0.0354868 2.00064 -0.0999799 -6.69993 2.45367);
        value           nonuniform List<scalar> 10(310.33 304.65 301.866 301.989 305.301 -664.47 -667.949 -668.352 -665.742 -659.801);
    }
    ChannelWall
    {
        type            fixedFluxPressure;
        gradient        uniform 0;
        value           nonuniform List<scalar> 
110
(
305.301
272.018
228.812
259.509
7.09834
-664.47
-703.894
-719.403
-722.619
-613.185
-659.801
-700.952
-718.528
-702.361
-703.258
-594.234
-643.418
-909.819
-852.79
-868.351
-823.604
-815.348
-805.617
-802.523
-805.921
-820.419
-850.357
-917.255
-840.096
-825.062
-835.091
-840.443
-850.071
-870.82
-819.117
-724.771
-731.953
-719.638
-716.922
-716.672
-717.202
-718.142
-719.338
-720.726
-722.163
-723.693
-725.332
-726.908
-728.418
-729.918
-730.428
-729.644
-730.078
-719.501
-714.711
-653.128
-695.676
-501.023
-124.347
-7.99053
310.33
279.232
237.121
320.989
103.46
593.137
383.428
305.576
-610.366
-817.121
-743.645
-762.956
-765.907
-771.308
-769.603
-760.108
-740.494
-702.169
-723.42
-765.957
-757.475
-752.956
-753.039
-755.306
-691.736
-681.541
-697.517
-704.555
-709.237
-712.508
-715.014
-717.128
-719.023
-720.865
-722.746
-724.383
-725.854
-727.451
-729.194
-730.985
-733.306
-735.325
-740.995
-734.577
-760.415
-718.937
-784.709
-514.301
-315.624
179.048
)
;
    }
    Outlet
    {
        type            totalPressure;
        rho             rho;
        psi             none;
        gamma           1;
        p0              uniform 0;
        value           nonuniform List<scalar> 
15
(
-0.272856
-0.0185465
0
0
-0.00086828
0
0
0
0
0
0
0
0
-0.262729
-0.633935
)
;
    }
    FrontAndBack
    {
        type            empty;
    }
}


// ************************************************************************* //
