/*--------------------------------*- C++ -*----------------------------------*\
| =========                 |                                                 |
| \\      /  F ield         | OpenFOAM: The Open Source CFD Toolbox           |
|  \\    /   O peration     | Version:  2.3.0                                 |
|   \\  /    A nd           | Web:      www.OpenFOAM.org                      |
|    \\/     M anipulation  |                                                 |
\*---------------------------------------------------------------------------*/
FoamFile
{
    version     2.0;
    format      ascii;
    class       surfaceScalarField;
    location    "0.072";
    object      phi;
}
// * * * * * * * * * * * * * * * * * * * * * * * * * * * * * * * * * * * * * //

dimensions      [0 3 -1 0 0 0 0];

internalField   nonuniform List<scalar> 
1380
(
3.04324e-13
1.95676e-13
2.39118e-13
6.52051e-14
-1.01959e-14
2.49315e-13
-1.12514e-12
1.11494e-12
2.25016e-12
-3.37529e-12
5.88004e-13
1.07672e-13
5.06883e-13
1.46326e-13
-1.08248e-14
7.67023e-13
-2.00391e-12
3.10802e-12
3.89512e-12
-3.64888e-12
6.82698e-13
-7.50252e-14
7.02206e-13
1.26818e-13
7.76752e-13
6.92477e-13
6.50731e-13
3.23405e-12
2.06697e-12
2.47889e-12
6.10071e-13
-1.85096e-13
6.99637e-13
3.72523e-14
1.17785e-12
2.14264e-13
3.32006e-12
1.09183e-12
-1.24156e-12
6.6286e-12
3.14904e-13
3.52156e-13
5.6642e-13
1.65825e-12
4.16685e-13
8.93221e-13
-4.26852e-12
4.52607e-12
-3.63285e-12
2.06091e-12
2.46516e-12
-3.46888e-14
2.0956e-12
-6.31823e-13
5.97134e-13
-1.89549e-13
-4.42274e-13
1.56388e-13
-3.45937e-13
2.63854e-13
-1.07466e-13
2.19511e-13
4.43436e-14
1.21353e-13
9.81577e-14
-1.80823e-14
1.39435e-13
-2.40679e-13
2.22597e-13
-6.42336e-13
4.01657e-13
-1.40176e-12
7.59428e-13
-1.29473e-12
-1.07036e-13
1.35712e-12
-2.65185e-12
6.63019e-13
6.94102e-13
-4.64985e-13
1.128e-12
-2.13232e-12
1.66733e-12
-7.95748e-13
-1.33657e-12
-1.83871e-13
-6.11876e-13
7.79696e-14
-2.61841e-13
1.29628e-13
-5.16582e-14
1.35452e-13
-5.8241e-15
1.3955e-13
-4.09829e-15
1.44117e-13
-4.56665e-15
1.48411e-13
-4.29385e-15
1.50697e-13
-2.28618e-15
1.51344e-13
-6.47438e-16
1.47145e-13
4.19926e-15
1.43448e-13
3.697e-15
1.44211e-13
-7.62929e-16
1.44705e-13
-4.93992e-16
1.44364e-13
3.40561e-16
1.44857e-13
-4.935e-16
1.41137e-13
3.72019e-15
1.40085e-13
1.05264e-15
1.43673e-13
-3.58803e-15
1.49809e-13
-6.1366e-15
1.45004e-13
4.8053e-15
1.58009e-13
-1.30053e-14
-2.55457e-14
1.83555e-13
-3.81306e-13
3.5576e-13
-5.45987e-12
5.07856e-12
1.18545e-12
1.33688e-12
-9.25427e-12
5.30941e-12
-7.60538e-12
1.08998e-12
6.68459e-12
-4.91701e-13
3.67729e-12
-9.87973e-13
1.09341e-12
-1.90411e-13
-1.23984e-12
4.5332e-13
-9.89668e-13
6.63437e-13
-3.17583e-13
6.24557e-13
8.3224e-14
5.04615e-13
2.181e-13
3.39583e-13
3.04466e-13
-2.73121e-14
5.89492e-13
-6.43208e-13
1.01755e-12
-1.10243e-12
1.21865e-12
-8.66213e-13
-3.43251e-13
2.87516e-12
-6.39322e-12
2.1587e-12
1.41056e-12
-9.14186e-13
4.2009e-12
-1.97597e-12
2.72912e-12
-7.00659e-13
-2.61188e-12
7.67315e-14
-1.38927e-12
3.79306e-13
-5.64416e-13
4.07137e-13
-7.94895e-14
3.85677e-13
1.56367e-14
3.77891e-13
3.68687e-15
3.80564e-13
-7.23903e-15
3.86139e-13
-9.86884e-15
3.90222e-13
-6.36999e-15
3.91271e-13
-1.69671e-15
3.83489e-13
1.19818e-14
3.75883e-13
1.1302e-14
3.75771e-13
-6.50869e-16
3.76296e-13
-1.01921e-15
3.7563e-13
1.00724e-15
3.7459e-13
5.45783e-16
3.65586e-13
1.27244e-14
3.50248e-13
1.63906e-14
3.46959e-13
-2.98751e-16
3.35951e-13
4.8709e-15
3.53353e-13
-1.25963e-14
3.49722e-13
-9.37387e-15
3.31762e-13
2.01515e-13
1.81613e-13
5.05909e-13
-2.77404e-12
8.03421e-12
1.33838e-13
1.29637e-11
-1.97391e-11
1.06642e-11
-5.30589e-12
-8.3529e-13
1.81841e-11
-1.4107e-12
4.2527e-12
-6.58907e-13
3.41613e-13
2.60699e-13
-2.15944e-12
8.16712e-13
-1.54568e-12
9.60674e-13
-4.61545e-13
8.85138e-13
1.58759e-13
7.45548e-13
3.5769e-13
5.68429e-13
4.81585e-13
2.513e-13
9.06621e-13
-2.27727e-13
1.49658e-12
-7.17312e-13
1.70824e-12
-5.63947e-13
-4.96616e-13
2.45685e-12
-9.41402e-12
3.3101e-12
5.5731e-13
1.45244e-12
6.05855e-12
-3.15525e-13
4.49708e-12
1.19162e-14
-2.93932e-12
5.22679e-13
-1.90003e-12
6.68675e-13
-7.10411e-13
6.39324e-13
-5.01393e-14
5.91707e-13
6.32543e-14
5.70185e-13
2.5209e-14
5.6693e-13
-3.98491e-15
5.7009e-13
-1.30288e-14
5.72644e-13
-8.92399e-15
5.7434e-13
-3.39279e-15
5.65696e-13
2.06255e-14
5.56363e-13
2.06348e-14
5.56499e-13
-7.86209e-16
5.57244e-13
-1.76494e-15
5.56802e-13
1.44956e-15
5.55692e-13
1.65569e-15
5.45989e-13
2.24275e-14
5.23353e-13
3.90262e-14
5.05215e-13
1.78398e-14
4.96373e-13
1.37131e-14
5.14501e-13
-3.07243e-14
5.38836e-13
-3.3709e-14
8.06413e-13
-6.60625e-14
1.2644e-12
4.79242e-14
7.40373e-12
1.89488e-12
-6.10837e-13
1.50895e-11
-2.82e-11
1.17572e-11
-1.97364e-12
-8.09773e-13
3.07511e-11
-8.00869e-13
4.24379e-12
5.71976e-13
-1.03123e-12
1.00627e-12
-2.59373e-12
1.15536e-12
-1.69477e-12
1.1255e-12
-4.3169e-13
9.90428e-13
2.93832e-13
8.34647e-13
5.13471e-13
6.40815e-13
6.75418e-13
4.09913e-13
1.13752e-12
1.11664e-13
1.79483e-12
-1.6926e-13
1.98916e-12
-7.20534e-13
5.46557e-14
-1.7484e-12
-8.38615e-12
1.38105e-13
-1.3292e-12
-1.80652e-12
8.00316e-12
1.65127e-13
2.52544e-12
8.26767e-13
-3.60096e-12
9.92404e-13
-2.06567e-12
8.88101e-13
-6.06108e-13
7.9041e-13
4.7551e-14
7.33575e-13
1.2009e-13
7.0781e-13
5.09734e-14
6.99604e-13
4.2214e-15
6.98912e-13
-1.23371e-14
6.98605e-13
-8.61657e-15
7.00556e-13
-5.34448e-15
6.91422e-13
2.97601e-14
6.84158e-13
2.78987e-14
6.85824e-13
-2.45249e-15
6.88309e-13
-4.25004e-15
6.88087e-13
1.67148e-15
6.8819e-13
1.55296e-15
6.79779e-13
3.08385e-14
6.61128e-13
5.76768e-14
6.36216e-13
4.27522e-14
6.38737e-13
1.11917e-14
6.43873e-13
-3.58602e-14
7.0599e-13
-9.58256e-14
1.16723e-12
-5.27303e-13
1.84463e-12
-6.29477e-13
4.72417e-12
-9.84667e-13
-2.14074e-12
-3.9896e-12
-2.37937e-11
-2.82894e-11
2.23262e-11
-2.53201e-13
2.71489e-12
1.70349e-12
2.2871e-12
1.82147e-12
-1.14921e-12
1.56207e-12
-2.33433e-12
1.28618e-12
-1.41889e-12
1.1095e-12
-2.55005e-13
9.5205e-13
4.51281e-13
8.02035e-13
6.63485e-13
6.22533e-13
8.5492e-13
5.55132e-13
1.20492e-12
7.00116e-13
1.64984e-12
9.85143e-13
1.70413e-12
-1.0573e-12
2.09709e-12
-8.9413e-12
-5.02157e-13
-4.65367e-12
-5.61682e-12
1.66294e-12
1.68656e-12
3.80703e-12
3.81355e-13
2.73945e-12
-2.53339e-12
1.51911e-12
-8.4532e-13
1.01296e-12
-9.99596e-14
8.51589e-13
2.0892e-13
8.0076e-13
1.70919e-13
7.82626e-13
6.91078e-14
7.75214e-13
1.16334e-14
7.71577e-13
-8.70022e-15
7.64349e-13
-1.38873e-15
7.60711e-13
-1.70608e-15
7.63044e-13
2.74266e-14
7.5878e-13
3.21626e-14
7.64347e-13
-8.01876e-15
7.66078e-13
-5.98188e-15
7.67835e-13
-8.51889e-17
7.69845e-13
-4.56755e-16
7.64945e-13
3.57381e-14
7.52703e-13
6.99194e-14
7.35923e-13
5.95319e-14
7.43851e-13
3.26352e-15
7.33077e-13
-2.50867e-14
7.74816e-13
-1.37564e-13
1.14728e-12
-8.99763e-13
9.67644e-13
-4.49844e-13
-1.37462e-12
1.3576e-12
-3.15382e-12
-4.15979e-12
-1.94339e-11
-3.20147e-12
2.13679e-11
-5.18369e-14
-4.34742e-13
6.87733e-13
1.54753e-12
4.93843e-13
-9.5532e-13
3.2251e-13
-2.163e-12
2.63041e-13
-1.35942e-12
2.20769e-13
-2.12733e-13
1.92143e-13
4.79907e-13
1.63167e-13
6.92461e-13
1.364e-13
8.81687e-13
1.5076e-13
1.19056e-12
2.66722e-13
1.53388e-12
1.86952e-13
1.7839e-12
-3.5623e-13
2.64027e-12
-2.27999e-12
1.42161e-12
-1.72133e-12
-6.17548e-12
-1.21305e-12
1.17828e-12
1.48919e-12
-2.32088e-12
6.08883e-13
-1.65309e-12
3.23963e-13
-5.604e-13
2.16013e-13
7.98942e-15
1.87653e-13
2.37281e-13
1.78208e-13
1.80364e-13
1.75783e-13
7.15329e-14
1.74624e-13
1.27922e-14
1.73406e-13
-7.48223e-15
1.72422e-13
-4.04767e-16
1.71869e-13
-1.15299e-15
1.72517e-13
2.67784e-14
1.72934e-13
3.17455e-14
1.7274e-13
-7.82456e-15
1.73246e-13
-6.48817e-15
1.74546e-13
-1.38532e-15
1.74524e-13
-4.3406e-16
1.76803e-13
3.34589e-14
1.71351e-13
7.53707e-14
1.79963e-13
5.09202e-14
1.66323e-13
1.69041e-14
1.79341e-13
-3.81051e-14
1.54326e-13
-1.12549e-13
2.40825e-13
-9.86262e-13
1.39801e-13
-3.4882e-13
5.97638e-13
8.9976e-13
-3.4201e-12
-4.40456e-12
-1.48293e-11
-1.0749e-12
1.80382e-11
4.98888e-13
-2.00853e-12
7.73652e-13
1.27277e-12
4.85303e-13
-6.6697e-13
3.10196e-13
-1.98789e-12
2.52047e-13
-1.30127e-12
2.09742e-13
-1.70428e-13
1.83796e-13
5.05853e-13
1.57469e-13
7.18788e-13
1.34539e-13
9.04617e-13
1.60469e-13
1.16463e-12
3.43113e-13
1.35124e-12
8.11284e-14
2.04589e-12
-2.26146e-13
2.94755e-12
-2.36327e-12
3.55873e-12
-2.24611e-12
-6.29264e-12
3.83839e-13
-1.45167e-12
1.02919e-12
-2.96623e-12
5.49373e-13
-1.17327e-12
3.12074e-13
-3.23101e-13
2.11506e-13
1.08558e-13
1.85713e-13
2.63074e-13
1.77842e-13
1.88235e-13
1.76127e-13
7.3248e-14
1.75148e-13
1.37711e-14
1.73812e-13
-6.14631e-15
1.72948e-13
4.59301e-16
1.72507e-13
-7.12717e-16
1.73354e-13
2.59321e-14
1.73948e-13
3.11509e-14
1.73431e-13
-7.30762e-15
1.73825e-13
-6.88132e-15
1.75318e-13
-2.87877e-15
1.75331e-13
-4.46782e-16
1.77952e-13
3.08377e-14
1.73432e-13
7.98911e-14
1.83727e-13
4.06244e-14
1.6798e-13
3.26518e-14
1.83277e-13
-5.34023e-14
1.49712e-13
-7.89843e-14
2.38317e-13
-1.07487e-12
1.24225e-13
-2.34728e-13
4.84306e-13
5.39679e-13
-3.93677e-12
-4.71612e-12
-9.91323e-12
-8.63679e-13
1.41858e-11
5.22958e-13
-3.39517e-12
6.85876e-13
1.10985e-12
4.15682e-13
-3.96776e-13
2.93575e-13
-1.86578e-12
2.38396e-13
-1.24609e-12
1.97581e-13
-1.29613e-13
1.74841e-13
5.28592e-13
1.52065e-13
7.41563e-13
1.33364e-13
9.23319e-13
1.60946e-13
1.13705e-12
3.29424e-13
1.18276e-12
1.09717e-13
2.2656e-12
1.89712e-13
2.86756e-12
-2.97384e-12
6.72228e-12
-2.30408e-12
-6.96241e-12
-2.18912e-13
-3.53683e-12
1.10806e-12
-4.2932e-12
6.72623e-13
-7.37829e-13
3.00243e-13
4.92791e-14
2.05716e-13
2.03085e-13
1.8323e-13
2.8556e-13
1.77094e-13
1.94371e-13
1.76188e-13
7.41544e-14
1.75167e-13
1.47916e-14
1.73859e-13
-4.83822e-15
1.73125e-13
1.19402e-15
1.7277e-13
-3.58333e-16
1.73782e-13
2.49203e-14
1.74719e-13
3.02142e-14
1.74311e-13
-6.89981e-15
1.74508e-13
-7.07845e-15
1.75767e-13
-4.1382e-15
1.7576e-13
-4.39571e-16
1.78645e-13
2.79527e-14
1.75039e-13
8.3497e-14
1.86039e-13
2.96247e-14
1.70651e-13
4.80402e-14
1.83957e-13
-6.67089e-14
1.48465e-13
-4.34925e-14
2.37651e-13
-1.16405e-12
1.32739e-13
-1.29816e-13
4.89738e-13
1.82681e-13
-4.50912e-12
-7.84382e-12
-1.86941e-12
7.28989e-13
5.61295e-12
1.15937e-13
-2.78212e-12
2.48166e-13
9.7762e-13
3.32737e-13
-4.81347e-13
2.74003e-13
-1.80705e-12
2.23456e-13
-1.19554e-12
1.84656e-13
-9.08128e-14
1.65334e-13
5.47914e-13
1.46773e-13
7.60125e-13
1.3323e-13
9.36862e-13
1.6467e-13
1.10561e-12
2.2527e-13
1.12216e-12
5.19578e-13
1.97129e-12
-1.40006e-13
3.52714e-12
-2.613e-12
9.19528e-12
-1.71031e-12
-7.8651e-12
-1.17087e-12
-4.07627e-12
1.41503e-12
-6.87911e-12
7.52586e-13
-7.53819e-14
2.86454e-13
5.15411e-13
1.98729e-13
2.9081e-13
1.8052e-13
3.03769e-13
1.76017e-13
1.98874e-13
1.75646e-13
7.4526e-14
1.74745e-13
1.56925e-14
1.73586e-13
-3.67948e-15
1.72969e-13
1.81131e-15
1.72704e-13
-9.35951e-17
1.73866e-13
2.37584e-14
1.75025e-13
2.90547e-14
1.74684e-13
-6.55804e-15
1.74766e-13
-7.16107e-15
1.75887e-13
-5.25863e-15
1.75749e-13
-3.0196e-16
1.79002e-13
2.46994e-14
1.75938e-13
8.65614e-14
1.87705e-13
1.7858e-14
1.72425e-13
6.33199e-14
1.84677e-13
-7.89607e-14
1.46621e-13
-5.43657e-15
2.35934e-13
-1.25337e-12
1.64283e-13
-5.81649e-14
4.14381e-13
-6.74174e-14
-5.17788e-12
-1.6666e-12
-2.81393e-15
1.32572e-12
2.62062e-12
-1.08629e-13
-1.34776e-12
-1.56052e-14
8.84596e-13
2.82003e-13
-7.78955e-13
2.56038e-13
-1.78108e-12
2.06457e-13
-1.14596e-12
1.70438e-13
-5.47938e-14
1.561e-13
5.62252e-13
1.42071e-13
7.74154e-13
1.34334e-13
9.44599e-13
1.7286e-13
1.06709e-12
2.16017e-13
1.079e-12
5.30064e-13
1.65724e-12
-1.63985e-13
4.22119e-12
-1.65513e-12
1.06864e-11
-8.6638e-13
-8.65385e-12
-1.01259e-12
-3.93006e-12
8.48934e-13
-8.74063e-12
5.73541e-13
2.00011e-13
2.71524e-13
8.17428e-13
1.92408e-13
3.69927e-13
1.77412e-13
3.18765e-13
1.74584e-13
2.01702e-13
1.74792e-13
7.4318e-14
1.73995e-13
1.64902e-14
1.72979e-13
-2.6638e-15
1.72485e-13
2.30493e-15
1.72276e-13
1.15571e-16
1.73537e-13
2.24972e-14
1.74919e-13
2.76729e-14
1.74616e-13
-6.2544e-15
1.74607e-13
-7.15224e-15
1.75509e-13
-6.16036e-15
1.75264e-13
-5.76264e-17
1.78525e-13
2.14383e-14
1.76546e-13
8.85406e-14
1.8749e-13
6.91414e-15
1.75e-13
7.58096e-14
1.80487e-13
-8.44472e-14
1.49299e-13
2.57508e-14
2.3036e-13
-1.33443e-12
1.74747e-13
-2.55232e-15
2.85601e-13
-1.78271e-13
-5.93412e-12
3.04687e-13
1.95313e-13
2.72746e-13
3.1941e-14
2.61267e-13
1.14788e-14
4.69598e-13
-2.08331e-13
1.41442e-12
-9.44825e-13
5.99057e-13
9.62557e-14
6.2116e-13
9.83787e-15
7.13545e-13
-8.0906e-14
1.41923e-12
-9.14019e-13
-3.83548e-13
3.21721e-12
6.84648e-13
-8.83924e-14
7.2505e-13
-3.0564e-14
7.28695e-13
-8.4551e-14
6.05748e-13
-7.91072e-13
-7.97573e-13
1.01977e-12
5.99913e-13
-1.88305e-13
6.06339e-13
-3.69906e-14
5.59133e-13
-3.73449e-14
3.11592e-14
-2.63098e-13
-4.89351e-13
-2.77063e-13
3.11695e-13
2.74705e-13
2.3736e-13
-2.57384e-14
-5.1509e-13
-3.23275e-12
2.28511e-12
-1.79588e-13
-4.32535e-13
1.09759e-12
-2.62494e-12
9.87745e-13
9.9444e-13
1.15546e-12
-9.46672e-13
9.79037e-13
-1.60466e-12
7.00632e-13
-8.67559e-13
5.85148e-13
6.069e-14
5.8081e-13
5.6659e-13
5.93626e-13
7.61337e-13
6.16153e-13
9.22072e-13
8.11545e-13
8.71693e-13
1.17301e-12
7.17538e-13
1.85156e-12
9.7869e-13
9.24372e-13
5.14838e-12
2.47411e-12
9.13668e-12
-6.83131e-12
6.51574e-13
2.68229e-12
-1.34437e-11
5.97714e-13
-6.65605e-12
7.79424e-13
1.83013e-14
9.19893e-13
6.76958e-13
7.86633e-13
5.03187e-13
7.53048e-13
3.5235e-13
7.64351e-13
1.90399e-13
7.6942e-13
6.92485e-14
7.69155e-13
1.67553e-14
7.65949e-13
5.42621e-16
7.65847e-13
2.40647e-15
7.6433e-13
1.63273e-15
7.71105e-13
1.57223e-14
7.80264e-13
1.85136e-14
7.7804e-13
-4.03054e-15
7.77626e-13
-6.73819e-15
7.77868e-13
-6.40182e-15
7.76832e-13
9.78056e-16
7.81273e-13
1.69978e-14
8.06375e-13
6.34382e-14
8.11531e-13
1.75864e-15
8.17967e-13
6.93738e-14
7.25651e-13
7.86878e-15
7.10068e-13
4.13334e-14
8.89229e-13
-1.51359e-12
1.09322e-12
-2.06547e-13
4.12825e-12
-3.2133e-12
-6.55581e-12
1.52743e-12
3.97489e-12
1.67275e-13
9.27616e-13
4.31559e-13
-2.88922e-12
1.15073e-12
2.7527e-13
1.17262e-12
-9.68565e-13
7.00689e-13
-1.13272e-12
3.49233e-13
-5.16103e-13
2.9748e-13
1.12443e-13
4.00685e-13
4.63385e-13
5.39044e-13
6.22978e-13
6.93428e-13
7.67689e-13
9.12072e-13
6.53049e-13
1.21532e-12
4.14292e-13
2.17246e-12
2.15445e-14
2.60574e-12
4.7151e-12
4.81885e-12
6.92356e-12
-5.23256e-13
5.99368e-12
-2.47297e-12
-1.14939e-11
7.37852e-13
-9.86687e-12
7.16854e-13
3.92992e-14
6.06842e-13
7.8697e-13
5.79714e-13
5.30315e-13
6.26105e-13
3.05958e-13
6.69494e-13
1.4701e-13
6.87489e-13
5.12539e-14
6.92625e-13
1.16196e-14
6.92719e-13
4.48999e-16
6.93554e-13
1.57098e-15
6.93817e-13
1.36999e-15
7.00043e-13
9.49634e-15
7.07372e-13
1.11845e-14
7.06462e-13
-3.12014e-15
7.05102e-13
-5.37836e-15
7.03881e-13
-5.18072e-15
7.02536e-13
2.32307e-15
7.07568e-13
1.19653e-14
7.3365e-13
3.73569e-14
7.4204e-13
-6.63178e-15
7.52104e-13
5.93098e-14
6.58533e-13
1.0144e-13
6.53871e-13
4.5995e-14
6.52238e-13
-1.51196e-12
1.12554e-12
-6.79849e-13
3.91356e-12
-6.00132e-12
-6.99259e-12
2.23167e-12
2.76299e-12
1.22111e-12
1.93818e-12
3.93278e-13
-2.06139e-12
1.02737e-12
-3.58823e-13
8.92446e-13
-8.33641e-13
3.66331e-13
-6.0661e-13
6.71562e-14
-2.16928e-13
8.09465e-14
9.8653e-14
2.54264e-13
2.90067e-13
4.83606e-13
3.93636e-13
7.506e-13
5.00695e-13
9.82884e-13
4.20765e-13
1.10221e-12
2.94965e-13
1.5415e-12
-4.17748e-13
3.02395e-12
3.23266e-12
5.85332e-12
4.0942e-12
5.95317e-12
5.89383e-12
-8.39292e-14
-5.45685e-12
-4.98254e-13
-9.45255e-12
-1.09856e-13
-3.49099e-13
1.44454e-13
5.3266e-13
3.48084e-13
3.26686e-13
4.68902e-13
1.8514e-13
5.32719e-13
8.31921e-14
5.5726e-13
2.67136e-14
5.64405e-13
4.47472e-15
5.655e-13
-6.4598e-16
5.66514e-13
5.57093e-16
5.67635e-13
2.48666e-16
5.72411e-13
4.72132e-15
5.78057e-13
5.53832e-15
5.77312e-13
-2.37497e-15
5.75332e-13
-3.39822e-15
5.73805e-13
-3.65386e-15
5.73449e-13
2.67889e-15
5.80173e-13
5.24123e-15
5.99655e-13
1.78754e-14
6.11886e-13
-1.88635e-14
6.31673e-13
3.95228e-14
5.94103e-13
1.3901e-13
6.17243e-13
2.28551e-14
3.75959e-13
-1.27067e-12
8.05146e-13
-1.10904e-12
3.28674e-12
-8.48292e-12
-6.5279e-12
1.49927e-12
9.86658e-13
2.27261e-12
1.16484e-12
7.53494e-13
-5.42278e-13
6.57368e-13
-2.62697e-13
4.33961e-13
-6.10234e-13
7.32907e-14
-2.45939e-13
-8.8064e-14
-5.55728e-14
-3.39579e-14
4.45469e-14
1.48437e-13
1.07673e-13
3.91341e-13
1.50732e-13
6.93589e-13
1.98446e-13
9.11797e-13
2.02557e-13
9.56023e-13
2.50738e-13
8.14518e-13
-2.76244e-13
2.68282e-12
1.36436e-12
5.42876e-12
1.34825e-12
8.27405e-12
3.04854e-12
2.15041e-12
6.66785e-13
-5.15811e-13
-6.78633e-12
-4.15397e-13
-4.49513e-13
-5.07641e-14
1.68027e-13
1.71734e-13
1.04187e-13
3.00794e-13
5.60803e-14
3.59372e-13
2.46148e-14
3.79844e-13
6.24129e-15
3.84373e-13
-5.38624e-17
3.84599e-13
-8.71616e-16
3.85176e-13
-1.98802e-17
3.85573e-13
-1.48297e-16
3.88916e-13
1.37846e-15
3.92783e-13
1.6713e-15
3.91792e-13
-1.38452e-15
3.89579e-13
-1.18459e-15
3.88296e-13
-2.37073e-15
3.88569e-13
2.40517e-15
3.93377e-13
4.33306e-16
4.06294e-13
4.95835e-15
4.06014e-13
-1.85827e-14
4.33976e-13
1.15606e-14
4.8068e-13
9.23064e-14
5.08935e-13
-5.40042e-15
-2.33226e-14
-7.38413e-13
-2.16278e-13
-9.1608e-13
-3.91785e-12
-4.78135e-12
-3.927e-12
4.71569e-13
1.63641e-12
1.09413e-12
8.31434e-13
2.21199e-13
-2.47393e-14
-8.0312e-14
-3.57651e-14
7.19073e-14
2.22639e-13
4.21085e-13
6.23642e-13
8.74381e-13
5.98137e-13
1.9625e-12
3.31075e-12
6.35929e-12
7.02608e-12
2.39752e-13
-2.09761e-13
-4.17345e-14
6.2453e-14
1.18533e-13
1.43148e-13
1.4939e-13
1.49336e-13
1.48464e-13
1.48444e-13
1.48296e-13
1.49675e-13
1.51346e-13
1.49962e-13
1.48777e-13
1.46406e-13
1.48811e-13
1.49245e-13
1.54203e-13
1.3562e-13
1.47181e-13
2.39487e-13
2.34087e-13
-5.04326e-13
-1.42041e-12
-6.20175e-12
)
;

boundaryField
{
    AirInlet
    {
        type            calculated;
        value           nonuniform List<scalar> 5(-2e-13 -2e-13 -2e-13 -2e-13 -2e-13);
    }
    WaterInlet
    {
        type            calculated;
        value           nonuniform List<scalar> 10(-5e-13 -5e-13 -5e-13 -5e-13 -5e-13 -5e-13 -5e-13 -5e-13 -5e-13 -5e-13);
    }
    ChannelWall
    {
        type            calculated;
        value           uniform 0;
    }
    Outlet
    {
        type            calculated;
        value           nonuniform List<scalar> 
15
(
-6.64532e-12
-1.72242e-12
8.14841e-12
6.25408e-12
-3.61537e-13
8.6391e-13
1.00098e-12
1.06209e-12
1.08314e-12
1.04184e-12
4.74994e-12
4.35034e-12
2.82206e-12
-6.51875e-12
-1.01287e-11
)
;
    }
    FrontAndBack
    {
        type            empty;
        value           nonuniform 0();
    }
}


// ************************************************************************* //
