/*--------------------------------*- C++ -*----------------------------------*\
| =========                 |                                                 |
| \\      /  F ield         | OpenFOAM: The Open Source CFD Toolbox           |
|  \\    /   O peration     | Version:  2.3.0                                 |
|   \\  /    A nd           | Web:      www.OpenFOAM.org                      |
|    \\/     M anipulation  |                                                 |
\*---------------------------------------------------------------------------*/
FoamFile
{
    version     2.0;
    format      ascii;
    class       volScalarField;
    location    "11";
    object      p;
}
// * * * * * * * * * * * * * * * * * * * * * * * * * * * * * * * * * * * * * //

dimensions      [0 2 -2 0 0 0 0];

internalField   nonuniform List<scalar> 
1720
(
0.000687931
0.000685228
0.000410687
0.000238765
0.000231914
0.000299562
0.000352116
0.000360956
0.000338476
0.000304394
0.000268403
0.000229838
0.00018398
0.000128631
6.33675e-05
-7.2489e-06
-7.97507e-05
-0.000154467
-0.000224817
-0.000283987
-0.000332976
-0.000367207
-0.000388328
-0.000411065
-0.000419881
-0.000494368
-0.000793572
-0.00234699
-0.00151706
-0.00267042
-0.0040604
-0.00530454
-0.00651694
-0.00776841
-0.00904296
-0.0103106
-0.0115451
-0.0127197
-0.0137991
-0.0147407
-0.0155015
-0.0160425
-0.016323
-0.0163185
-0.0160341
-0.0154667
-0.0146283
-0.0135471
-0.0122575
-0.0108023
-0.00923711
-0.00762616
-0.00603322
-0.00449775
-0.00308157
-0.00180045
-0.000692847
-3.46644e-05
0.000117162
-6.42324e-05
0.00215593
0.00189755
0.00109414
0.000711118
0.000749211
0.000928373
0.00104855
0.00106117
0.00100075
0.000910466
0.000810926
0.000698409
0.000562549
0.000396209
0.000200203
-1.7138e-05
-0.000245481
-0.00047366
-0.000685667
-0.000868957
-0.00101341
-0.00111929
-0.00118574
-0.00123671
-0.00129411
-0.00140913
-0.00168915
-0.00216437
-0.00195671
-0.00171459
-0.00161902
-0.00163829
-0.00161669
-0.00157131
-0.00153874
-0.00151493
-0.00148219
-0.00142945
-0.00134798
-0.00123094
-0.00107402
-0.000876227
-0.00064085
-0.000363203
-8.98613e-05
0.000200155
0.00047723
0.000725755
0.00091999
0.00104839
0.00110918
0.00110521
0.00104272
0.000947634
0.000833711
0.000685714
0.000548804
0.000357846
0.000188175
4.33381e-05
0.00376527
0.00296881
0.00167675
0.00120335
0.00132545
0.00159209
0.00175012
0.00175591
0.00166403
0.00152893
0.00137482
0.00119209
0.000966611
0.00068607
0.000352174
-2.51241e-05
-0.000427037
-0.000828127
-0.00119971
-0.00151744
-0.00176184
-0.00193109
-0.00203292
-0.00210157
-0.00217321
-0.00227177
-0.00245168
-0.00263653
-0.00268995
-0.0029546
-0.00334835
-0.00363839
-0.003932
-0.00426352
-0.00460014
-0.00491036
-0.00517764
-0.00538723
-0.00552607
-0.00558477
-0.00555645
-0.00543738
-0.00523072
-0.00497048
-0.00463165
-0.00431556
-0.00398329
-0.00364125
-0.00324127
-0.00284025
-0.0024493
-0.00205836
-0.00166557
-0.00128997
-0.000931681
-0.000584125
-0.000231416
-7.56787e-05
5.20574e-05
8.90894e-05
0.0050949
0.00399779
0.00227971
0.00172422
0.00193773
0.00227819
0.00245895
0.00245459
0.00233954
0.00217198
0.00197428
0.00172691
0.00141291
0.00101293
0.000531152
-2.38823e-05
-0.000627066
-0.00123861
-0.0018066
-0.00228122
-0.00262596
-0.00283935
-0.00295021
-0.00300846
-0.00305905
-0.00312547
-0.00322166
-0.00331499
-0.00338088
-0.00345242
-0.00352004
-0.00370908
-0.00397508
-0.00424232
-0.00452402
-0.004826
-0.00512222
-0.00538325
-0.00558243
-0.00570108
-0.00572679
-0.00564632
-0.0054625
-0.00518368
-0.00481045
-0.00432278
-0.00377738
-0.00317996
-0.00260474
-0.00204881
-0.0015093
-0.00100551
-0.000556799
-0.000171966
0.000132232
0.000327889
0.000416078
0.000447
0.000286579
0.000127774
0.00644425
0.00497322
0.00286277
0.00224309
0.00255914
0.00297292
0.00317574
0.00316706
0.00304117
0.00285628
0.00262844
0.00232439
0.0019238
0.00139594
0.000751741
-6.8986e-06
-0.000847708
-0.00172293
-0.00254879
-0.00322494
-0.00367353
-0.00390047
-0.0039761
-0.00398645
-0.0039926
-0.004009
-0.00403302
-0.00405084
-0.00404411
-0.00405514
-0.00414584
-0.00431916
-0.00452117
-0.00477233
-0.00506361
-0.00537635
-0.00568994
-0.00597143
-0.00618561
-0.00629689
-0.00626926
-0.00610171
-0.00580613
-0.00538279
-0.00484028
-0.00421094
-0.00353933
-0.00286721
-0.0022512
-0.0016778
-0.00115601
-0.000702465
-0.000317807
-9.50832e-06
0.000222347
0.000369733
0.000450474
0.000419395
0.00034758
0.000143989
0.00776617
0.00586758
0.00341011
0.00275419
0.00318294
0.00367321
0.00390418
0.00390416
0.0037844
0.00360178
0.00335975
0.00301142
0.00252713
0.00186079
0.00102862
2.00484e-05
-0.00110355
-0.00230461
-0.00346511
-0.00440065
-0.00495988
-0.0051603
-0.005145
-0.00507155
-0.00500857
-0.00495459
-0.00489297
-0.00481187
-0.00472007
-0.00466917
-0.00469086
-0.00477914
-0.00495526
-0.00523733
-0.00559767
-0.00599644
-0.0064003
-0.00676005
-0.00702499
-0.00715713
-0.00712733
-0.00690578
-0.00648602
-0.00590638
-0.00521501
-0.00446814
-0.00371576
-0.00299989
-0.00232841
-0.00170778
-0.00115124
-0.000666543
-0.000248809
0.000101248
0.000382084
0.000582803
0.000697251
0.000673427
0.00054863
0.000206251
0.00903208
0.00668445
0.00392641
0.0032709
0.00381329
0.00437564
0.00464053
0.00466784
0.00457869
0.00442593
0.0041919
0.0038205
0.00325829
0.00244972
0.00138591
3.6975e-05
-0.00146599
-0.00306958
-0.00462158
-0.00580773
-0.006427
-0.00659274
-0.00646686
-0.00627343
-0.00610816
-0.00594944
-0.00576778
-0.00555835
-0.00535018
-0.00519308
-0.00512174
-0.00514647
-0.00531566
-0.00564621
-0.00609414
-0.00663309
-0.00718301
-0.00766939
-0.00802704
-0.00820515
-0.0081873
-0.00794951
-0.00746503
-0.0067514
-0.00591012
-0.00502014
-0.00413419
-0.00328622
-0.0024927
-0.00176907
-0.00112259
-0.000553872
-6.39832e-05
0.00033943
0.0006446
0.000849255
0.000940565
0.000884092
0.000706321
0.000234526
0.010213
0.00740781
0.00439453
0.00380906
0.00446437
0.00507683
0.00537664
0.00545381
0.00542893
0.00534299
0.00515374
0.00479236
0.00416795
0.00322533
0.00187633
4.97376e-05
-0.00212309
-0.0043645
-0.0062776
-0.00750568
-0.00799199
-0.00795371
-0.00768383
-0.00742163
-0.00719131
-0.00691822
-0.00658433
-0.00621248
-0.00585426
-0.00556847
-0.00539106
-0.00532891
-0.00548879
-0.00587011
-0.00643672
-0.00714216
-0.00790712
-0.00860926
-0.00915568
-0.00947532
-0.00949181
-0.00919849
-0.00865271
-0.00785023
-0.0068376
-0.00574254
-0.00464997
-0.00360785
-0.00264949
-0.00179512
-0.00104981
-0.000413128
0.000113809
0.00052932
0.000834578
0.00103962
0.00112089
0.00105787
0.000834826
0.000269839
0.0113041
0.00809472
0.00467328
0.0043649
0.00515252
0.00577591
0.00610927
0.0062585
0.00633491
0.0063595
0.00627401
0.00597559
0.00533796
0.00427314
0.00258792
0.000119444
-0.0032113
-0.00714748
-0.00949012
-0.0101797
-0.00982015
-0.00906637
-0.00846708
-0.00828425
-0.00803439
-0.00764478
-0.00715839
-0.006628
-0.00612478
-0.00571402
-0.00539583
-0.00525951
-0.00540967
-0.00582698
-0.00648342
-0.00735513
-0.00834204
-0.00930533
-0.010142
-0.0107332
-0.0109141
-0.0106641
-0.0100424
-0.0091047
-0.00790815
-0.00657116
-0.005231
-0.0039728
-0.00284555
-0.00186927
-0.0010436
-0.000360311
0.000190989
0.000623016
0.000946074
0.00116393
0.00123957
0.00116332
0.00089338
0.000325001
0.0122857
0.00869447
0.0049806
0.00484861
0.00576333
0.00644125
0.00682939
0.0070704
0.00727915
0.00746235
0.00755617
0.00741177
0.00688362
0.00572201
0.00371667
0.000100697
-0.00433801
-0.0126515
-0.0161042
-0.0159107
-0.0134042
-0.0106801
-0.00887276
-0.00886545
-0.00855034
-0.00807746
-0.00751728
-0.00692716
-0.00636624
-0.00589752
-0.00552448
-0.00532843
-0.0054015
-0.00578568
-0.00647977
-0.00744594
-0.00858334
-0.00974662
-0.0107944
-0.0115971
-0.0120508
-0.0120433
-0.0114862
-0.0104394
-0.00905261
-0.00748319
-0.00589742
-0.00442589
-0.00313506
-0.00204415
-0.00114054
-0.000404378
0.000183376
0.000642046
0.000982788
0.00120135
0.0012605
0.00116527
0.000870922
0.000365853
0.0131443
0.0092048
0.00529331
0.00525348
0.00628457
0.00704546
0.00750864
0.007859
0.00822139
0.00861196
0.00895547
0.00910257
0.00887687
0.00786931
0.0058383
-0.000708577
-0.00573264
-0.0121974
-0.00930253
-0.00888474
-0.00850423
-0.00816936
-0.00771911
-0.00724745
-0.00675062
-0.00628645
-0.00590046
-0.00566258
-0.00566731
-0.00598947
-0.00666369
-0.00765407
-0.0088606
-0.0101296
-0.0113071
-0.0122712
-0.0128996
-0.0130464
-0.0126148
-0.0116159
-0.0101544
-0.00841685
-0.00661862
-0.00494648
-0.00350531
-0.00229712
-0.00130597
-0.000512317
0.000106416
0.000577783
0.000917813
0.00112055
0.00115667
0.0010438
0.000756368
0.00035304
0.0138586
0.00962024
0.00556185
0.00558639
0.00671943
0.007566
0.00811161
0.00857831
0.00910463
0.00973308
0.010377
0.0109591
0.0112181
0.0108893
0.00908583
0.00387986
-0.00847919
-0.0083583
-0.00807903
-0.00774526
-0.0073598
-0.00692367
-0.00654592
-0.00627805
-0.0062136
-0.00644454
-0.00705028
-0.00798548
-0.0091773
-0.0104799
-0.0117152
-0.0127432
-0.0134415
-0.013693
-0.0133747
-0.0124529
-0.0109942
-0.00917669
-0.00724779
-0.00544801
-0.00386163
-0.00255831
-0.00150318
-0.00067503
-4.85755e-05
0.000415042
0.000736132
0.000907696
0.000915235
0.000775177
0.000529368
0.000265763
0.0144081
0.00993365
0.00577035
0.00584496
0.00706081
0.00797837
0.00860101
0.00917284
0.0098597
0.0107149
0.0116851
0.0127235
0.0136175
0.014251
0.0130087
0.00987769
-0.00855227
-0.0087194
-0.0085553
-0.0083677
-0.00810569
-0.00778717
-0.00747227
-0.00722354
-0.00711297
-0.00721554
-0.00771832
-0.0084425
-0.00946732
-0.0106747
-0.0118689
-0.0128921
-0.0136152
-0.0138894
-0.0136359
-0.0127877
-0.0113814
-0.00957981
-0.00761807
-0.00573212
-0.00412467
-0.00278851
-0.00170044
-0.00087018
-0.000264138
0.000166713
0.000442727
0.000559158
0.000510669
0.000361013
0.000186988
0.000102958
0.014777
0.0101412
0.00591076
0.00602078
0.00729323
0.00826077
0.00894131
0.00959317
0.0104074
0.0114442
0.0126963
0.0141204
0.0156335
0.0170129
0.0174235
-0.00914292
-0.00917393
-0.00914302
-0.00905527
-0.00892481
-0.00876224
-0.00859235
-0.00846697
-0.00844248
-0.00861814
-0.00904561
-0.00976805
-0.0106993
-0.011652
-0.0125375
-0.0131898
-0.0134634
-0.0132443
-0.0124724
-0.0111669
-0.00946109
-0.00757492
-0.00575484
-0.00419238
-0.00287621
-0.00183291
-0.00105777
-0.000504652
-0.000137739
6.01027e-05
8.88572e-05
-4.12765e-05
-0.0001656
-0.00025442
-0.000115507
0.0149549
0.01024
0.0059776
0.00610536
0.00740435
0.00839703
0.00910635
0.0098011
0.010681
0.0118193
0.0132241
0.0148889
0.0167806
0.018758
0.0202518
-0.00989875
-0.00998964
-0.0100965
-0.0102092
-0.0102993
-0.0103399
-0.0102941
-0.010166
-0.0100132
-0.00990486
-0.00990594
-0.0100849
-0.0104442
-0.0110226
-0.0116489
-0.012102
-0.0122997
-0.0121037
-0.0114169
-0.010262
-0.00874105
-0.00704518
-0.00539968
-0.00397696
-0.00279178
-0.00183684
-0.00116779
-0.000720903
-0.000457273
-0.000363136
-0.000446293
-0.00067139
-0.000772818
-0.000779779
-0.000390176
0.0149367
0.0102284
0.00596817
0.0060934
0.00738898
0.00837827
0.00908378
0.00977363
0.0106472
0.0117774
0.013172
0.0148231
0.0166966
0.0186437
0.0200956
-0.0108548
-0.0109555
-0.0111899
-0.0115084
-0.0118159
-0.012076
-0.0121814
-0.0120764
-0.0117648
-0.0113014
-0.0107822
-0.010343
-0.0101135
-0.0100694
-0.010195
-0.0103777
-0.0104242
-0.0101904
-0.00963055
-0.008669
-0.00740497
-0.00599358
-0.00462175
-0.00342723
-0.00245811
-0.00168632
-0.00116759
-0.000884627
-0.000728725
-0.000739133
-0.000993157
-0.00129024
-0.00141898
-0.001353
-0.000671099
0.0147234
0.0101069
0.00588284
0.00598545
0.00724782
0.0082053
0.00887462
0.00951201
0.0103078
0.0113207
0.0125432
0.013927
0.0153864
0.0166814
0.0169308
-0.0117809
-0.0119073
-0.0122895
-0.012836
-0.0134297
-0.0138861
-0.0141444
-0.0140586
-0.013552
-0.0126667
-0.0115504
-0.0103942
-0.009465
-0.00876816
-0.00834296
-0.00814853
-0.00798962
-0.00772814
-0.00727754
-0.00652183
-0.00555842
-0.00449284
-0.00346292
-0.00257322
-0.00186472
-0.001337
-0.0010344
-0.000882972
-0.000858692
-0.00106634
-0.0014543
-0.00185156
-0.00202958
-0.00184862
-0.000910665
0.0143214
0.00987766
0.00572503
0.00578782
0.00698735
0.00788863
0.00849307
0.00904167
0.0096985
0.0105155
0.0114364
0.0124105
0.0132122
0.0137199
0.0122192
0.00877976
-0.0124715
-0.0122542
-0.0126219
-0.0131959
-0.0139629
-0.0147884
-0.0154842
-0.0158457
-0.0157062
-0.0149678
-0.0136626
-0.0119775
-0.0101716
-0.00846928
-0.00709983
-0.00615966
-0.005602
-0.00523107
-0.0049261
-0.00453265
-0.00406575
-0.00342857
-0.00272841
-0.00206147
-0.001499
-0.00107303
-0.000794606
-0.000673452
-0.000724089
-0.000912324
-0.00127189
-0.00180818
-0.00229068
-0.00248953
-0.00221855
-0.00108849
0.0137427
0.00954431
0.0055009
0.00550998
0.00662106
0.00744587
0.0079671
0.00840305
0.00888917
0.00946708
0.0100448
0.0105418
0.0106805
0.0101853
0.00812808
0.00246479
-0.012699
-0.0126421
-0.0130619
-0.0137845
-0.0146948
-0.0156455
-0.0164106
-0.0167403
-0.0164457
-0.0154368
-0.0137762
-0.0116722
-0.0094023
-0.00721721
-0.00536295
-0.0039542
-0.00297503
-0.00241519
-0.00209241
-0.00181719
-0.00156769
-0.00121977
-0.000858672
-0.000528487
-0.000270392
-0.000109889
-6.4711e-05
-0.000155051
-0.000410392
-0.000806568
-0.00132794
-0.00196406
-0.00257256
-0.00276354
-0.00241995
-0.00118383
0.0130041
0.00911144
0.00521913
0.0051612
0.00616558
0.00690003
0.00733394
0.00764747
0.00796207
0.00829198
0.0085578
0.00860281
0.00824006
0.00703874
0.0047453
-0.00240224
-0.00797806
-0.0151036
-0.0136166
-0.0131789
-0.0126922
-0.0127691
-0.0132504
-0.0140409
-0.0149599
-0.0159116
-0.016589
-0.0167565
-0.0162302
-0.0149472
-0.0130179
-0.0106756
-0.00818769
-0.00578988
-0.00367164
-0.00196404
-0.000721577
6.54279e-05
0.000512369
0.000736695
0.000891787
0.000948871
0.00102312
0.00106988
0.00106596
0.000989866
0.000816581
0.000522767
7.8759e-05
-0.000472748
-0.00118934
-0.00195248
-0.00263661
-0.00283474
-0.00245252
-0.00118239
0.0121275
0.00858699
0.00489606
0.0047445
0.00562885
0.00627679
0.00663221
0.00683228
0.00698818
0.00710447
0.00711335
0.00685995
0.00618701
0.00483469
0.00256385
-0.0014465
-0.0064153
-0.0157255
-0.0200369
-0.0204514
-0.0181972
-0.0152675
-0.0129878
-0.0129921
-0.0128551
-0.0128107
-0.0133108
-0.0141081
-0.0149647
-0.0156458
-0.0160508
-0.0159477
-0.0151648
-0.0136821
-0.0116532
-0.00929834
-0.0068433
-0.0044872
-0.00236612
-0.000563004
0.000861603
0.00186686
0.00247845
0.00278001
0.00288321
0.00284831
0.00275246
0.0026039
0.00239787
0.00212611
0.00176213
0.00128786
0.000697393
-5.5813e-05
-0.000922629
-0.00181255
-0.00251174
-0.00271553
-0.00235051
-0.00108973
0.0111344
0.00797746
0.00458135
0.00425327
0.00500839
0.0055997
0.00589833
0.00600472
0.0060258
0.00598129
0.00580842
0.00540174
0.00462336
0.00338289
0.00146565
-0.00131376
-0.00505969
-0.00954118
-0.012446
-0.0135704
-0.0134959
-0.0128857
-0.0123476
-0.0123098
-0.0123628
-0.0125124
-0.0128997
-0.0134894
-0.0141134
-0.014555
-0.0146507
-0.01425
-0.0132922
-0.0118264
-0.00995092
-0.00781713
-0.005611
-0.00348271
-0.00153276
0.00017636
0.00161002
0.00274177
0.0035483
0.00403112
0.00424604
0.0042466
0.00408642
0.00383918
0.00351667
0.00311386
0.00262098
0.00199813
0.00123337
0.000321702
-0.000647973
-0.00157574
-0.00223156
-0.0024034
-0.00195819
-0.000900354
0.0100386
0.0072867
0.00429807
0.00369418
0.00431688
0.0048966
0.00516127
0.00519564
0.00511584
0.00496182
0.00468809
0.00422391
0.00347137
0.00237059
0.000827309
-0.00125534
-0.00372924
-0.00632889
-0.00864208
-0.0102697
-0.0110937
-0.0112943
-0.0112155
-0.0111579
-0.0112401
-0.0114409
-0.011751
-0.0121391
-0.0125074
-0.012703
-0.0125915
-0.0120985
-0.0112038
-0.00992454
-0.00831818
-0.00650939
-0.00463849
-0.00281173
-0.00110296
0.000433584
0.00176151
0.00285966
0.00372314
0.00435235
0.00474045
0.00487697
0.0047991
0.00455226
0.00418328
0.00370134
0.00311459
0.00239677
0.0015457
0.000563083
-0.000414694
-0.00128604
-0.00184537
-0.00198922
-0.00159922
-0.000683305
0.008861
0.00656304
0.00383012
0.00315811
0.00366882
0.00419898
0.00442988
0.00441627
0.00427529
0.00405833
0.00374668
0.00328158
0.00260717
0.00166148
0.000433853
-0.00111661
-0.00285059
-0.0047195
-0.00656902
-0.00808313
-0.00899131
-0.00938489
-0.00947163
-0.00950043
-0.0096146
-0.00982323
-0.0100979
-0.0104018
-0.0106456
-0.0107247
-0.0105626
-0.0101098
-0.00934325
-0.00827004
-0.00694585
-0.0054673
-0.00392957
-0.00240768
-0.00095544
0.000383732
0.00157487
0.00258586
0.00340008
0.00402883
0.00445483
0.00467865
0.00470119
0.00453985
0.00421775
0.00374551
0.0031385
0.00240169
0.00156075
0.000653729
-0.000208426
-0.00093725
-0.00136784
-0.00147618
-0.00114234
-0.000454371
0.00760563
0.00575067
0.00331862
0.00264872
0.00304757
0.0035075
0.00370708
0.00366975
0.00350326
0.0032629
0.00295229
0.00252219
0.00194208
0.00116102
0.000194684
-0.000970932
-0.00227509
-0.00367851
-0.00506526
-0.00623852
-0.00703877
-0.00746079
-0.00765043
-0.00778416
-0.00796518
-0.00820777
-0.00848203
-0.00874078
-0.00892189
-0.00896068
-0.00880525
-0.00841612
-0.00777528
-0.00689775
-0.00583291
-0.00464321
-0.00339256
-0.00214105
-0.000936999
0.000180491
0.00118953
0.00208306
0.00284981
0.00346406
0.00387023
0.00408966
0.00413685
0.00401951
0.00375085
0.00333773
0.00279814
0.00215229
0.00143811
0.000704435
3.70697e-05
-0.000492031
-0.00077674
-0.000840498
-0.000606106
-0.000271373
0.0063019
0.00486585
0.00278011
0.00214946
0.0024386
0.00282515
0.00300046
0.00295954
0.00279353
0.00255931
0.00227337
0.00190126
0.00142192
0.000802098
5.18504e-05
-0.000827815
-0.00180644
-0.00283481
-0.00382911
-0.00468611
-0.0053246
-0.00573699
-0.00599745
-0.00620313
-0.00642375
-0.00667834
-0.0069503
-0.00720555
-0.00738278
-0.007437
-0.00732746
-0.00702514
-0.00651927
-0.00582143
-0.00496529
-0.00399884
-0.00296971
-0.00192745
-0.000915203
2.59195e-05
0.000852223
0.00154762
0.0021252
0.00269456
0.00309677
0.00330805
0.00336672
0.00328573
0.003079
0.00275706
0.00234031
0.00185387
0.00133071
0.000808202
0.000342742
-2.65049e-05
-0.000264929
-0.000278071
-0.000184645
-0.000142585
0.00497673
0.00390538
0.00220989
0.00164642
0.00183731
0.00215472
0.00231284
0.00228242
0.00213504
0.00192788
0.00168381
0.00138304
0.00100802
0.000538193
-2.33374e-05
-0.000668252
-0.00137236
-0.00209532
-0.00278565
-0.00339367
-0.00388317
-0.00424906
-0.00452172
-0.00474963
-0.00497828
-0.00524024
-0.00553805
-0.00582104
-0.00604547
-0.00615805
-0.00612775
-0.00594016
-0.005592
-0.00508002
-0.00441791
-0.00365048
-0.00281348
-0.00193966
-0.00106232
-0.000215429
0.000580214
0.00129019
0.00182622
0.00214648
0.00238187
0.00254915
0.00259804
0.00253941
0.00239089
0.00216202
0.00186989
0.00153742
0.00119133
0.000863647
0.000591306
0.000403267
0.00042879
0.000341331
0.000253869
7.93337e-05
0.00367572
0.0028968
0.0016236
0.00114517
0.00124995
0.00149847
0.00163939
0.0016261
0.00151059
0.00134653
0.00115864
0.000937629
0.000669052
0.000339965
-4.87647e-05
-0.000488003
-0.0009589
-0.00143503
-0.00188872
-0.00229705
-0.00264456
-0.00292846
-0.00316642
-0.00338387
-0.0036014
-0.00385154
-0.00418142
-0.00452113
-0.00483374
-0.00505675
-0.00513251
-0.00506728
-0.00486807
-0.0045461
-0.00411601
-0.00360119
-0.00302917
-0.00242624
-0.00180892
-0.00119442
-0.000596592
-1.99731e-05
0.000584856
0.00117805
0.00157861
0.00173715
0.00178055
0.00176205
0.00168517
0.00155206
0.00138239
0.00120048
0.00100706
0.000809414
0.000647972
0.000568819
0.000575884
0.000647276
0.000310097
-0.000104752
0.00209933
0.00185055
0.00106105
0.000675725
0.000702169
0.000869122
0.000978452
0.00097952
0.00090475
0.000796677
0.000676612
0.000540903
0.000379787
0.000184907
-4.15261e-05
-0.000294633
-0.000564956
-0.00083552
-0.00109273
-0.00132708
-0.00153205
-0.0017082
-0.00187493
-0.00206636
-0.00230329
-0.00251774
-0.00273826
-0.00292712
-0.00300529
-0.0029463
-0.0027952
-0.00251955
-0.00214859
-0.00171523
-0.00124427
-0.000762393
-0.000298914
0.000123758
0.000482271
0.000769318
0.000986633
0.00112579
0.00120254
0.00113093
0.00112636
0.0010689
0.00101567
0.000995164
0.000961558
0.000893553
0.000806884
0.000722743
0.00065166
0.000625887
0.000665738
0.000657645
0.00131308
0.0020239
0.00118871
0.000423995
0.000668393
0.00066773
0.000399021
0.00022691
0.000215625
0.000278454
0.000327168
0.000332057
0.000304819
0.00026445
0.000221617
0.000174882
0.00012108
5.56889e-05
-1.79222e-05
-9.78425e-05
-0.000187434
-0.000275416
-0.000358279
-0.000433361
-0.00050062
-0.000556459
-0.000614217
-0.000720695
-0.000996307
-0.00183681
-0.00321865
-0.00466924
-0.00601172
-0.00719065
-0.00814957
-0.00885565
-0.00928754
-0.00942545
-0.00925231
-0.00876715
-0.00799793
-0.00697595
-0.00578136
-0.00446269
-0.00314396
-0.00191161
-0.000808743
5.67262e-06
0.000489533
0.000372945
0.000274094
0.000249283
0.000247565
0.00023633
0.000218894
0.000213763
0.00021733
0.000272007
0.000475995
0.000850573
0.00107295
0.00370733
0.00044432
-0.000386209
)
;

boundaryField
{
    upstream
    {
        type            fixedValue;
        value           uniform 0;
    }
    downstream
    {
        type            fixedValue;
        value           uniform 0;
    }
    upANDdown
    {
        type            fixedValue;
        value           uniform 0;
    }
    frontAndBack
    {
        type            empty;
    }
    cylinder
    {
        type            zeroGradient;
    }
}


// ************************************************************************* //
