/*--------------------------------*- C++ -*----------------------------------*\
| =========                 |                                                 |
| \\      /  F ield         | OpenFOAM: The Open Source CFD Toolbox           |
|  \\    /   O peration     | Version:  2.3.0                                 |
|   \\  /    A nd           | Web:      www.OpenFOAM.org                      |
|    \\/     M anipulation  |                                                 |
\*---------------------------------------------------------------------------*/
FoamFile
{
    version     2.0;
    format      ascii;
    class       volVectorField;
    location    "11";
    object      U;
}
// * * * * * * * * * * * * * * * * * * * * * * * * * * * * * * * * * * * * * //

dimensions      [0 1 -1 0 0 0 0];

internalField   nonuniform List<vector> 
1720
(
(0.196728 -0.00328522 0)
(0.196557 -0.0111763 0)
(0.197731 -0.0158395 0)
(0.198442 -0.0182265 0)
(0.198321 -0.0203237 0)
(0.19779 -0.0230783 0)
(0.197282 -0.0264905 0)
(0.196959 -0.0300785 0)
(0.196765 -0.0335379 0)
(0.19664 -0.0366691 0)
(0.196521 -0.039503 0)
(0.196469 -0.0419654 0)
(0.196467 -0.0440778 6.00087e-26)
(0.196638 -0.0456406 -2.31357e-26)
(0.196887 -0.0466957 -1.5292e-26)
(0.197407 -0.0469565 -3.76333e-26)
(0.198017 -0.0465743 1.63405e-26)
(0.19872 -0.045401 0)
(0.199672 -0.0435754 4.88427e-26)
(0.200581 -0.0409425 -4.89041e-26)
(0.201597 -0.0377882 0)
(0.202598 -0.0343507 0)
(0.203305 -0.0302389 0)
(0.204442 -0.0264723 -2.39078e-24)
(0.204814 -0.0221512 1.93505e-25)
(0.205657 -0.0177159 -1.05072e-25)
(0.207359 -0.0134155 3.60791e-25)
(0.206698 -0.00681489 -6.04e-25)
(0.211184 -0.000963268 0)
(0.218874 0.0082641 0)
(0.223554 0.019299 0)
(0.226048 0.0308243 0)
(0.227738 0.042073 0)
(0.229034 0.0528473 0)
(0.22988 0.0631235 0)
(0.230192 0.0728602 0)
(0.229939 0.0819328 0)
(0.229105 0.090247 0)
(0.227629 0.0976642 0)
(0.22547 0.104042 0)
(0.22264 0.109238 0)
(0.219121 0.113154 0)
(0.214914 0.115605 0)
(0.210208 0.116546 0)
(0.205092 0.115944 0)
(0.199639 0.113766 0)
(0.193939 0.110037 0)
(0.18817 0.104813 0)
(0.182289 0.0981865 0)
(0.176533 0.09019 0)
(0.171015 0.0809504 0)
(0.166066 0.070605 0)
(0.161637 0.0596541 0)
(0.15788 0.0472874 0)
(0.156163 0.0350545 0)
(0.155723 0.0219028 0)
(0.157017 0.0134644 0)
(0.155775 0.002709 0)
(0.160533 -0.00311492 0)
(0.163092 -0.0153316 0)
(0.190309 -0.00423229 0)
(0.192044 -0.0113213 0)
(0.195868 -0.0150086 0)
(0.197475 -0.0172537 0)
(0.196978 -0.0197215 0)
(0.195795 -0.0227657 0)
(0.194887 -0.0262796 0)
(0.194477 -0.0298301 0)
(0.194395 -0.0332903 0)
(0.194446 -0.0364802 0)
(0.194555 -0.0394471 0)
(0.194764 -0.0420954 2.44853e-25)
(0.195166 -0.0443993 -2.44851e-25)
(0.195817 -0.0462186 0)
(0.196769 -0.0474805 0)
(0.197995 -0.0480249 -2.03954e-25)
(0.199476 -0.0478422 2.03956e-25)
(0.201154 -0.0467853 -9.00447e-25)
(0.20294 -0.0449772 9.005e-25)
(0.204671 -0.0424284 0)
(0.206322 -0.0391702 -8.28278e-25)
(0.207753 -0.0356718 2.61869e-24)
(0.208909 -0.0315184 -1.79029e-24)
(0.20997 -0.02751 4.52479e-24)
(0.210786 -0.0233244 -1.96546e-24)
(0.21171 -0.0183464 0)
(0.212821 -0.0145901 0)
(0.213663 -0.00929058 8.00226e-25)
(0.214191 -0.00388372 -8.00233e-25)
(0.215225 -0.00234152 0)
(0.216868 -0.00260786 0)
(0.219108 -0.00378552 0)
(0.22097 -0.00509428 0)
(0.222705 -0.00621953 0)
(0.224418 -0.00697788 0)
(0.225952 -0.00722891 0)
(0.227109 -0.00701658 0)
(0.227756 -0.00627919 0)
(0.227775 -0.0051725 0)
(0.227067 -0.00385001 0)
(0.22556 -0.00247844 0)
(0.22325 -0.0010868 0)
(0.220129 -0.000211943 0)
(0.216299 0.00016435 0)
(0.211801 0.000187036 0)
(0.206888 -0.000173101 0)
(0.2017 -0.00102118 0)
(0.196533 -0.0020229 0)
(0.191369 -0.00329321 0)
(0.186548 -0.00486361 0)
(0.18197 -0.00650756 0)
(0.177932 -0.00781082 0)
(0.174238 -0.00859665 0)
(0.171136 -0.0101117 0)
(0.168905 -0.0113244 0)
(0.166879 -0.0112099 0)
(0.165357 -0.00877195 0)
(0.163872 -0.00754388 0)
(0.163603 -0.00837347 0)
(0.162602 -0.0158315 0)
(0.185007 -0.00679334 0)
(0.187558 -0.0103911 0)
(0.193843 -0.0138363 0)
(0.195798 -0.0162239 0)
(0.194839 -0.0190789 0)
(0.193192 -0.0223785 0)
(0.1921 -0.0260566 0)
(0.191732 -0.0296295 0)
(0.191816 -0.0332102 0)
(0.192086 -0.0365169 5.63852e-25)
(0.192449 -0.0397436 4.33037e-25)
(0.192986 -0.04264 -9.96825e-25)
(0.193802 -0.0452722 -2.56704e-24)
(0.194989 -0.0474042 -7.18647e-26)
(0.196594 -0.0489834 0)
(0.198569 -0.0498164 -1.40462e-24)
(0.200892 -0.049824 1.40466e-24)
(0.203393 -0.0488756 -3.20959e-24)
(0.205973 -0.0470012 4.21958e-24)
(0.208408 -0.0442389 -4.85619e-24)
(0.210573 -0.0407575 6.36573e-25)
(0.212398 -0.0368578 0)
(0.213732 -0.0326264 -2.05811e-23)
(0.214979 -0.028383 3.40603e-23)
(0.215952 -0.0239948 -1.32792e-23)
(0.216867 -0.019524 0)
(0.218147 -0.0151819 -1.67152e-23)
(0.219034 -0.0106483 7.90331e-24)
(0.220573 -0.00610317 -7.2381e-24)
(0.223713 -0.000887485 -9.68086e-25)
(0.226556 0.00419637 -1.22166e-24)
(0.228504 0.00894135 0)
(0.23031 0.0137056 0)
(0.232055 0.0184064 0)
(0.23353 0.0229041 0)
(0.234639 0.0271702 0)
(0.235295 0.0311949 0)
(0.235398 0.0349538 0)
(0.234921 0.0384064 0)
(0.233772 0.0415608 0)
(0.231802 0.0443118 0)
(0.229158 0.0466337 0)
(0.225759 0.0485386 0)
(0.221261 0.0498835 0)
(0.216339 0.0503853 0)
(0.211138 0.0501634 0)
(0.205762 0.0493061 0)
(0.200475 0.0477902 0)
(0.194628 0.0457003 0)
(0.189033 0.0430209 0)
(0.183231 0.0397579 0)
(0.177702 0.0358675 0)
(0.172279 0.031669 0)
(0.167299 0.0263308 0)
(0.162189 0.0215359 0)
(0.156595 0.0154904 0)
(0.152838 0.0111056 0)
(0.150125 0.00216354 0)
(0.151707 -0.00337096 0)
(0.151745 -0.0155324 0)
(0.179649 -0.00638122 0)
(0.183201 -0.00990795 0)
(0.191782 -0.0131874 0)
(0.193919 -0.0158721 0)
(0.192549 -0.0187775 0)
(0.190496 -0.0221667 0)
(0.189303 -0.0259821 0)
(0.188966 -0.0295534 0)
(0.189171 -0.033324 0)
(0.189564 -0.0367494 8.05112e-25)
(0.190105 -0.0403468 6.34442e-24)
(0.190899 -0.0435308 -4.87684e-24)
(0.192074 -0.0466383 7.70503e-24)
(0.193778 -0.0491648 2.72417e-23)
(0.196023 -0.051197 -5.60617e-24)
(0.198802 -0.0524015 0)
(0.202062 -0.0527091 0)
(0.205575 -0.0518647 -1.57014e-23)
(0.209151 -0.0498665 3.16047e-23)
(0.212444 -0.0467409 -1.65027e-23)
(0.215222 -0.04276 3.80938e-24)
(0.217352 -0.0383996 3.59541e-23)
(0.218909 -0.0338974 -2.82151e-23)
(0.220179 -0.029417 -7.93164e-24)
(0.221209 -0.0250726 0)
(0.222285 -0.0206006 3.92971e-23)
(0.223414 -0.016303 -2.82587e-23)
(0.224548 -0.0121166 3.26274e-23)
(0.225964 -0.00771643 1.97574e-23)
(0.227375 -0.00408483 1.35089e-24)
(0.229008 -0.00139409 -1.35239e-24)
(0.231298 0.00126459 0)
(0.233666 0.00409523 0)
(0.235794 0.00721094 0)
(0.237753 0.010669 0)
(0.239432 0.0145872 0)
(0.240607 0.0190128 0)
(0.241109 0.0238417 0)
(0.240728 0.0289106 0)
(0.239443 0.0340764 0)
(0.237255 0.0388515 0)
(0.234084 0.043032 0)
(0.22993 0.0464937 0)
(0.225666 0.0492223 0)
(0.220551 0.0508015 0)
(0.214759 0.050685 0)
(0.208477 0.0493802 0)
(0.201883 0.0471744 0)
(0.19522 0.0441178 0)
(0.188854 0.0403069 0)
(0.182235 0.0358422 0)
(0.176124 0.0307547 0)
(0.170093 0.0255589 0)
(0.164809 0.0192138 0)
(0.159754 0.0140379 0)
(0.155483 0.00755342 0)
(0.152883 0.00330195 0)
(0.151111 -0.0033376 0)
(0.15116 -0.0075166 0)
(0.147561 -0.0157972 0)
(0.174254 -0.00641602 0)
(0.17905 -0.00984217 0)
(0.189855 -0.0126462 0)
(0.191925 -0.0156027 0)
(0.190181 -0.0183911 0)
(0.187686 -0.021786 0)
(0.186419 -0.025755 0)
(0.18603 -0.0293283 -1.37309e-24)
(0.186317 -0.0334131 -1.32537e-24)
(0.186686 -0.0369713 0)
(0.187353 -0.0411473 -7.14874e-24)
(0.188292 -0.0446385 0)
(0.189802 -0.048499 -1.03588e-23)
(0.192014 -0.051489 -4.78935e-23)
(0.194913 -0.0542073 1.45024e-23)
(0.198618 -0.0558983 -3.98439e-23)
(0.202956 -0.056587 2.1206e-23)
(0.207735 -0.0558853 5.29994e-23)
(0.212638 -0.0537488 -1.05998e-22)
(0.217013 -0.0500208 4.26484e-23)
(0.220506 -0.0453867 5.35095e-24)
(0.222921 -0.0404051 9.74157e-23)
(0.224643 -0.0355723 -9.66695e-23)
(0.225866 -0.0309196 0)
(0.226792 -0.0263558 8.57255e-23)
(0.227444 -0.021814 -1.95894e-22)
(0.228063 -0.0174754 -1.31625e-22)
(0.228705 -0.0133059 -2.26177e-23)
(0.229437 -0.00941559 5.42408e-23)
(0.230561 -0.00599663 0)
(0.232316 -0.00253046 0)
(0.234371 0.000726296 -1.7667e-24)
(0.236586 0.003663 -1.83786e-24)
(0.238984 0.00678495 0)
(0.241431 0.0103601 0)
(0.243742 0.0144719 0)
(0.245653 0.0190406 0)
(0.246959 0.0240713 0)
(0.247345 0.0294052 0)
(0.246553 0.0348316 0)
(0.244353 0.0401056 0)
(0.240908 0.0449926 0)
(0.236228 0.0487941 0)
(0.230579 0.0514215 0)
(0.224114 0.0529928 0)
(0.217362 0.0535096 0)
(0.209935 0.0525393 0)
(0.202667 0.0504789 0)
(0.195523 0.0476201 0)
(0.188831 0.0440631 0)
(0.182087 0.0399392 0)
(0.175924 0.035331 0)
(0.169831 0.0307606 0)
(0.164561 0.0253975 0)
(0.159427 0.0209102 0)
(0.154968 0.0151777 0)
(0.150864 0.0105109 0)
(0.147569 0.00196268 0)
(0.144627 -0.00236876 0)
(0.138207 -0.011929 0)
(0.169019 -0.00627005 0)
(0.175076 -0.00951817 0)
(0.188072 -0.0119004 0)
(0.189884 -0.0150723 0)
(0.187739 -0.0178153 0)
(0.184737 -0.0212307 0)
(0.183409 -0.025344 0)
(0.182836 -0.0289478 -1.95593e-24)
(0.183184 -0.0334258 -5.16999e-24)
(0.183314 -0.0371528 0)
(0.184112 -0.0421278 0)
(0.184966 -0.0459105 0)
(0.186878 -0.0509557 0)
(0.189461 -0.0543513 -6.64455e-23)
(0.193149 -0.0582842 5.19182e-23)
(0.197936 -0.0604977 -1.05415e-22)
(0.203504 -0.0616629 2.38436e-22)
(0.210008 -0.0611411 -1.85554e-22)
(0.216607 -0.058643 -3.13838e-22)
(0.222535 -0.0541974 3.42182e-22)
(0.22706 -0.0490379 1.37886e-22)
(0.229291 -0.0432299 0)
(0.229838 -0.0375482 0)
(0.22963 -0.0321551 -4.91844e-22)
(0.22942 -0.0270775 1.15707e-22)
(0.229202 -0.022301 4.88246e-22)
(0.229057 -0.0178444 -1.52298e-22)
(0.228979 -0.013832 1.17493e-22)
(0.229096 -0.0103268 -1.72747e-22)
(0.229741 -0.00712625 0)
(0.230987 -0.0042638 0)
(0.232687 -0.00174537 1.76659e-24)
(0.235074 0.000927108 -2.14603e-24)
(0.238084 0.0039474 0)
(0.241318 0.00752937 0)
(0.244512 0.0119277 0)
(0.247456 0.0171371 0)
(0.249796 0.0230397 0)
(0.251095 0.029504 0)
(0.251417 0.0362136 0)
(0.250187 0.0426396 0)
(0.247043 0.0487862 0)
(0.242076 0.0539579 0)
(0.235636 0.0575902 0)
(0.22794 0.0595447 0)
(0.219946 0.0603859 0)
(0.211652 0.0598159 0)
(0.203643 0.0582232 0)
(0.195747 0.0556574 0)
(0.188415 0.0523537 0)
(0.181275 0.0485335 0)
(0.174663 0.0440588 0)
(0.168181 0.0391547 0)
(0.162214 0.0331507 0)
(0.155838 0.0276454 0)
(0.150372 0.0202394 0)
(0.145575 0.0133085 0)
(0.14169 0.00476564 0)
(0.135925 0.00171106 0)
(0.129048 -0.00862709 0)
(0.164008 -0.00598516 0)
(0.171366 -0.00903527 0)
(0.186355 -0.0109735 0)
(0.187793 -0.0143174 0)
(0.185193 -0.0171314 0)
(0.181668 -0.0206139 0)
(0.180287 -0.0247408 -1.94513e-24)
(0.179374 -0.0284294 1.76918e-23)
(0.179725 -0.0332113 -7.86698e-24)
(0.179347 -0.0372508 -5.35288e-23)
(0.180263 -0.04307 -6.2523e-23)
(0.180689 -0.0472939 0)
(0.183123 -0.0539333 0)
(0.185696 -0.0576516 1.06417e-22)
(0.19066 -0.0639054 0)
(0.196458 -0.0663781 1.4114e-22)
(0.203971 -0.0686477 -6.05668e-22)
(0.212767 -0.067864 4.65471e-22)
(0.221623 -0.0644005 9.93884e-23)
(0.228843 -0.0583608 -7.57933e-22)
(0.231677 -0.0512566 -5.20807e-22)
(0.232 -0.0442888 -3.15883e-22)
(0.230758 -0.0380774 -1.2386e-21)
(0.228888 -0.0323807 1.25892e-21)
(0.226967 -0.0269312 1.18904e-21)
(0.225038 -0.0218944 -1.18888e-21)
(0.223198 -0.0173957 2.63232e-22)
(0.221514 -0.0135916 0)
(0.220237 -0.0104912 0)
(0.21968 -0.00794381 -1.97642e-22)
(0.220099 -0.00579549 6.40726e-23)
(0.221411 -0.00402751 3.25209e-23)
(0.223778 -0.00209147 -1.22628e-23)
(0.22742 0.000402499 -2.23412e-24)
(0.232076 0.00371199 0)
(0.237258 0.00818109 0)
(0.242278 0.0139395 0)
(0.246516 0.0209284 0)
(0.249504 0.0285217 0)
(0.25082 0.0365686 0)
(0.250335 0.0449941 0)
(0.24881 0.0528139 0)
(0.244939 0.0595856 0)
(0.238824 0.06493 0)
(0.23101 0.068254 0)
(0.222371 0.0697592 0)
(0.213252 0.069503 0)
(0.204182 0.0678061 0)
(0.195292 0.064832 0)
(0.186991 0.0609499 0)
(0.179014 0.0564687 0)
(0.171627 0.0512046 0)
(0.164528 0.0454673 0)
(0.157733 0.0390097 0)
(0.150863 0.0329921 0)
(0.145496 0.0248181 0)
(0.139952 0.0181087 0)
(0.134049 0.0114345 0)
(0.125579 0.00833832 0)
(0.119814 -0.00455528 0)
(0.159348 -0.00561086 0)
(0.168154 -0.00864017 0)
(0.184727 -0.0097361 0)
(0.185607 -0.0131839 0)
(0.182447 -0.0162306 0)
(0.178521 -0.0198231 -2.10739e-24)
(0.177084 -0.0237773 1.94511e-24)
(0.175676 -0.0276507 1.8192e-23)
(0.175901 -0.0324954 3.08066e-24)
(0.174703 -0.03715 3.34407e-23)
(0.175642 -0.0435185 1.15902e-22)
(0.175237 -0.0488443 4.43511e-22)
(0.178126 -0.056871 2.874e-22)
(0.180458 -0.0618596 -7.22458e-22)
(0.187008 -0.0713994 -3.74747e-22)
(0.193691 -0.0737421 3.77439e-22)
(0.205355 -0.0796876 0)
(0.216902 -0.077195 4.8318e-22)
(0.227021 -0.0694578 -1.04661e-21)
(0.231377 -0.0590793 -1.0649e-21)
(0.231364 -0.0497687 -1.05336e-21)
(0.227291 -0.0415918 -1.6861e-21)
(0.221548 -0.0358392 7.98538e-22)
(0.215125 -0.0299064 -2.88442e-21)
(0.20939 -0.0240962 3.61125e-21)
(0.204053 -0.0188862 -2.64393e-21)
(0.199219 -0.0144799 2.65277e-21)
(0.19488 -0.011162 5.9528e-22)
(0.19141 -0.00877377 -5.97396e-22)
(0.18901 -0.00718509 1.33492e-22)
(0.1885 -0.00609482 -3.10021e-23)
(0.189188 -0.00576842 4.5348e-23)
(0.191382 -0.00532298 1.64728e-23)
(0.195995 -0.00413027 2.23512e-24)
(0.202338 -0.00208911 -2.50815e-24)
(0.210474 0.00155378 0)
(0.21962 0.0072125 0)
(0.228746 0.0148092 0)
(0.236807 0.0241781 0)
(0.242635 0.0347641 0)
(0.245435 0.0450656 0)
(0.245313 0.055091 0)
(0.243179 0.0642855 0)
(0.238587 0.0716682 0)
(0.231411 0.0767045 0)
(0.222824 0.0792195 0)
(0.213365 0.0793372 0)
(0.203634 0.0774756 0)
(0.194034 0.0739743 0)
(0.18482 0.069435 0)
(0.176016 0.064206 0)
(0.167951 0.0582508 0)
(0.16026 0.0522502 0)
(0.152858 0.0458171 0)
(0.145917 0.0392321 0)
(0.140167 0.0307 0)
(0.132682 0.0251922 0)
(0.124618 0.0196219 0)
(0.115123 0.0149834 0)
(0.111419 -0.00188479 0)
(0.154961 -0.00512426 0)
(0.1656 -0.00717732 0)
(0.183509 -0.0101352 0)
(0.182946 -0.0120331 0)
(0.179448 -0.014779 0)
(0.175446 -0.0184253 -2.64943e-25)
(0.173817 -0.0221552 0)
(0.171871 -0.0262865 1.36853e-24)
(0.171683 -0.0310313 -1.80055e-22)
(0.169379 -0.0364733 1.96184e-22)
(0.170162 -0.0431003 1.46992e-22)
(0.168145 -0.0501795 -3.02399e-22)
(0.171764 -0.0592657 -2.39991e-21)
(0.172656 -0.0671495 0)
(0.181611 -0.0804493 0)
(0.189898 -0.0848283 0)
(0.207827 -0.0978889 2.01605e-21)
(0.219405 -0.0897732 -3.13773e-21)
(0.225976 -0.0748031 1.65889e-21)
(0.222161 -0.0557428 -8.6002e-21)
(0.210612 -0.040441 -7.46992e-21)
(0.194126 -0.0300225 1.69384e-21)
(0.178307 -0.0255915 2.52363e-21)
(0.164651 -0.0195273 -3.32031e-21)
(0.154166 -0.0139816 -6.82323e-21)
(0.14539 -0.00933503 -1.57818e-23)
(0.138186 -0.00600087 0)
(0.132323 -0.00388604 -2.66311e-21)
(0.127681 -0.00282911 1.52614e-21)
(0.125742 -0.00357952 -1.46795e-22)
(0.125983 -0.00441228 -1.57363e-22)
(0.127876 -0.00586417 -4.73812e-23)
(0.132804 -0.00781769 -3.32282e-23)
(0.140605 -0.00942768 0)
(0.150575 -0.00968504 -8.35842e-27)
(0.162629 -0.00772141 0)
(0.175998 -0.00303497 0)
(0.189642 0.00430346 0)
(0.203313 0.0142775 0)
(0.216919 0.0269042 0)
(0.227662 0.0408685 0)
(0.233438 0.0543491 0)
(0.23487 0.0665647 0)
(0.23289 0.0768224 0)
(0.227471 0.0840071 0)
(0.219609 0.0878941 0)
(0.210345 0.0886803 0)
(0.200531 0.0868656 0)
(0.190699 0.0831431 0)
(0.181095 0.0782777 0)
(0.172075 0.0725383 0)
(0.163714 0.0662505 0)
(0.155525 0.0601461 0)
(0.147783 0.0532918 0)
(0.140681 0.0459432 0)
(0.133691 0.0379711 0)
(0.123982 0.0342365 0)
(0.114749 0.0285081 0)
(0.105558 0.0215714 0)
(0.103871 -0.000834668 0)
(0.150986 -0.00456994 0)
(0.163377 -0.00612756 0)
(0.181933 -0.00925481 0)
(0.18079 -0.0108898 0)
(0.176532 -0.0131605 0)
(0.172522 -0.0166286 -2.86536e-24)
(0.170246 -0.020061 0)
(0.168141 -0.0243197 0)
(0.166777 -0.0288275 8.45438e-23)
(0.163803 -0.034896 -3.98791e-22)
(0.163274 -0.041549 0)
(0.15962 -0.050569 0)
(0.163234 -0.0603799 2.39197e-21)
(0.160968 -0.0734063 0)
(0.175956 -0.0917704 0)
(0.178529 -0.102208 0)
(0.203371 -0.119027 7.08642e-22)
(0.195573 -0.106994 -6.1437e-22)
(0.195084 -0.0951707 -2.10916e-20)
(0.172341 -0.0700031 -1.43376e-20)
(0.136679 -0.0425675 8.87991e-21)
(0.0807494 -0.0207278 0)
(0.0586239 -0.0100329 7.35674e-22)
(0.0546408 -0.00500255 -9.01241e-22)
(0.0498187 -0.00251646 0)
(0.0473247 -0.000842722 1.19967e-20)
(0.0466556 -0.000262818 -1.35043e-22)
(0.0473845 -0.000384704 2.5616e-21)
(0.0496493 -0.0018785 -1.215e-21)
(0.054055 -0.00508506 0)
(0.0598897 -0.0087883 -2.83489e-22)
(0.0678756 -0.0132361 6.57567e-23)
(0.077977 -0.0179668 0)
(0.089958 -0.0218106 0)
(0.103631 -0.0237284 -2.58721e-24)
(0.11864 -0.0227864 0)
(0.134443 -0.0183123 0)
(0.150276 -0.0105356 0)
(0.165376 -0.000170052 0)
(0.179891 0.0128281 0)
(0.194283 0.0289682 0)
(0.207219 0.0468685 0)
(0.215827 0.0637891 0)
(0.219123 0.0781992 0)
(0.217614 0.0889551 0)
(0.212175 0.0953129 0)
(0.20418 0.0974542 0)
(0.19511 0.0962648 0)
(0.185607 0.0927138 0)
(0.176147 0.0875578 0)
(0.167229 0.081318 0)
(0.158601 0.0747972 0)
(0.150096 0.0683304 0)
(0.142317 0.0608039 0)
(0.134735 0.0533795 0)
(0.12604 0.0470218 0)
(0.114679 0.0446179 0)
(0.10537 0.0371511 0)
(0.0971393 0.027404 0)
(0.0971517 -0.00138321 0)
(0.147495 -0.00392385 0)
(0.16133 -0.00510278 0)
(0.180522 -0.00803819 0)
(0.178983 -0.00942599 0)
(0.173956 -0.0112578 0)
(0.169959 -0.0143342 -4.36809e-25)
(0.166624 -0.0174304 -1.21307e-23)
(0.164768 -0.0214638 -5.10598e-23)
(0.161318 -0.0257253 0)
(0.15863 -0.031795 6.16567e-22)
(0.154492 -0.038607 -2.1736e-22)
(0.151055 -0.0484178 0)
(0.150099 -0.0600503 8.20827e-22)
(0.145598 -0.0765888 6.33831e-21)
(0.163746 -0.105648 -1.09037e-20)
(0.13921 -0.126835 0)
(0.178839 -0.14842 -6.59219e-20)
(0.118574 -0.0948056 0)
(0.015843 -0.000205244 -1.33209e-19)
(0.00381806 -0.000654917 1.62469e-19)
(0.00122177 -0.00344354 0)
(0.00416063 -0.00318867 -1.25916e-20)
(0.00553862 -0.00392209 -5.17949e-21)
(0.00961167 -0.00549949 -7.32614e-22)
(0.014304 -0.0087643 0)
(0.020007 -0.0134045 1.50825e-22)
(0.0270846 -0.0188938 1.32267e-22)
(0.0357672 -0.0250937 0)
(0.0461636 -0.031398 -3.69071e-23)
(0.0582958 -0.0367526 -9.65638e-24)
(0.0721023 -0.0398759 -2.21563e-25)
(0.0872628 -0.0395951 0)
(0.103244 -0.0351303 0)
(0.119284 -0.0266687 0)
(0.134554 -0.0151879 0)
(0.148937 -0.00116592 0)
(0.162727 0.0154518 0)
(0.175868 0.0347012 0)
(0.187238 0.0550507 0)
(0.195249 0.0740856 0)
(0.198758 0.0894179 0)
(0.197693 0.0997218 0)
(0.19299 0.104555 0)
(0.18592 0.104634 0)
(0.177826 0.101633 0)
(0.169435 0.096539 0)
(0.160988 0.0901075 0)
(0.152354 0.0834299 0)
(0.144029 0.0763933 0)
(0.136388 0.068513 0)
(0.127989 0.062021 0)
(0.117698 0.057616 0)
(0.105658 0.0554073 0)
(0.0971123 0.0449951 0)
(0.0901329 0.0322125 0)
(0.0913589 -0.00294207 0)
(0.14458 -0.00316762 0)
(0.159624 -0.00405928 0)
(0.179339 -0.00648299 0)
(0.177488 -0.0075998 0)
(0.171865 -0.00909195 0)
(0.167605 -0.0116189 2.39907e-23)
(0.163474 -0.0142618 -1.22199e-23)
(0.161498 -0.0177473 7.87388e-23)
(0.156214 -0.0215365 2.74461e-23)
(0.153496 -0.0270997 0)
(0.145058 -0.0335543 0)
(0.142622 -0.0432735 0)
(0.131536 -0.0560094 1.09095e-21)
(0.131004 -0.0729193 -8.46646e-21)
(0.125149 -0.113154 1.31525e-20)
(0.0905378 -0.114268 1.1338e-21)
(-0.00179779 -0.00160314 5.09461e-20)
(-0.00438542 -0.00258507 1.43018e-20)
(-0.0054523 -0.00603105 7.84146e-22)
(-0.00380147 -0.00927255 -7.81053e-22)
(-0.00149297 -0.0131079 0)
(0.00145844 -0.0184974 0)
(0.00537609 -0.0253155 0)
(0.0107518 -0.0331722 -1.93902e-23)
(0.0180471 -0.0414033 9.77101e-23)
(0.0276507 -0.0488486 3.06171e-23)
(0.0396972 -0.0538911 -1.56369e-23)
(0.0540679 -0.0550655 0)
(0.0702175 -0.0512596 0)
(0.0870951 -0.0426289 0)
(0.103446 -0.0302208 0)
(0.118557 -0.0150164 0)
(0.132572 0.00258637 0)
(0.145627 0.0226925 0)
(0.15752 0.0447435 0)
(0.167576 0.0667646 0)
(0.174365 0.0860523 0)
(0.177142 0.100198 0)
(0.176281 0.108218 0)
(0.172753 0.110922 0)
(0.167143 0.109223 0)
(0.159952 0.104263 0)
(0.152478 0.0981483 0)
(0.144687 0.0915031 0)
(0.13728 0.0840551 0)
(0.129848 0.0765977 0)
(0.120559 0.071812 0)
(0.109299 0.0689551 0)
(0.0975754 0.0655485 0)
(0.0904194 0.051608 0)
(0.0848262 0.035816 0)
(0.0867771 -0.00503581 0)
(0.142332 -0.00231189 0)
(0.158327 -0.00293543 0)
(0.178412 -0.00472128 0)
(0.17632 -0.00553119 0)
(0.170375 -0.00666451 0)
(0.165457 -0.00853562 -2.69795e-25)
(0.161235 -0.010542 -1.36249e-23)
(0.158221 -0.0132417 -2.55779e-23)
(0.152566 -0.016175 -1.55384e-22)
(0.147751 -0.0208279 -2.74885e-22)
(0.138006 -0.0258542 0)
(0.131941 -0.0351754 0)
(0.115665 -0.0446052 0)
(0.111907 -0.0656189 3.05859e-21)
(0.0748362 -0.102042 -8.62002e-22)
(0.0597199 -0.0883572 9.69609e-20)
(-0.000189729 0.000124476 1.23986e-19)
(-0.00255138 0.00145056 -7.05654e-22)
(-0.00849503 -0.00455361 1.75837e-21)
(-0.0111437 -0.00856864 0)
(-0.0137162 -0.0129053 0)
(-0.0156476 -0.0190549 0)
(-0.0167207 -0.0272686 -2.00794e-22)
(-0.0160783 -0.0373131 -7.5555e-23)
(-0.0129742 -0.0482768 -6.32523e-23)
(-0.00683519 -0.0586519 -1.20852e-23)
(0.00264701 -0.0665364 0)
(0.0154033 -0.0700406 0)
(0.0311818 -0.0677488 0)
(0.0489858 -0.0595837 0)
(0.0670991 -0.0465878 0)
(0.0842126 -0.0300257 0)
(0.0997173 -0.0108172 0)
(0.113762 0.0105319 0)
(0.126599 0.0338041 0)
(0.137948 0.057722 0)
(0.146982 0.0798036 0)
(0.152978 0.0973358 0)
(0.155475 0.108656 0)
(0.154664 0.113594 0)
(0.152886 0.113895 0)
(0.149445 0.111093 0)
(0.142832 0.105102 0)
(0.136416 0.0984618 0)
(0.130236 0.0910758 0)
(0.122903 0.0849476 0)
(0.112954 0.0822088 0)
(0.101688 0.0801455 0)
(0.0913135 0.0744677 0)
(0.0860005 0.0569225 0)
(0.0818344 0.0383349 0)
(0.0840904 -0.00706994 0)
(0.140818 -0.00138258 0)
(0.157467 -0.00174545 0)
(0.177779 -0.00281909 0)
(0.175522 -0.00330215 0)
(0.169377 -0.00400506 0)
(0.163928 -0.00511896 6.30609e-24)
(0.159718 -0.00638005 6.61659e-24)
(0.155771 -0.00800513 0)
(0.150049 -0.00994233 1.25854e-22)
(0.143096 -0.0128105 2.74932e-22)
(0.133113 -0.0163432 0)
(0.12198 -0.0224424 0)
(0.105184 -0.029303 1.62861e-21)
(0.0893893 -0.0464536 -6.30305e-21)
(0.0402212 -0.0555952 0)
(-0.00208382 0.00653591 0)
(-0.0100698 0.00108677 5.8398e-23)
(-0.0171326 -0.00323959 -1.81465e-21)
(-0.0237139 -0.0081251 0)
(-0.0294487 -0.0152678 0)
(-0.0337323 -0.0251383 1.99717e-22)
(-0.0362206 -0.0374468 9.6492e-23)
(-0.0365471 -0.0512224 0)
(-0.0345463 -0.0648572 4.87523e-24)
(-0.0297957 -0.0765608 0)
(-0.021392 -0.0839646 0)
(-0.00837272 -0.0848314 0)
(0.00897727 -0.0778385 0)
(0.0280707 -0.0644445 0)
(0.0469357 -0.0467538 0)
(0.0642638 -0.0260591 0)
(0.0799397 -0.00297289 0)
(0.09419 0.0217877 0)
(0.10706 0.0471856 0)
(0.118197 0.0712092 0)
(0.126918 0.0913718 0)
(0.132723 0.105652 0)
(0.135744 0.113144 0)
(0.136482 0.115029 0)
(0.135869 0.114372 0)
(0.132838 0.110773 0)
(0.12803 0.103962 0)
(0.123037 0.0974433 0)
(0.115738 0.0935794 0)
(0.105795 0.092713 0)
(0.0957229 0.0902086 0)
(0.0876125 0.0817008 0)
(0.084333 0.0604678 0)
(0.0815819 0.0397724 0)
(0.0839287 -0.00879378 0)
(0.140087 -0.000409127 0)
(0.157056 -0.00051377 -4.47605e-28)
(0.177471 -0.000830985 1.04643e-27)
(0.175133 -0.000973944 0)
(0.16886 -0.00118161 0)
(0.163232 -0.00150859 0)
(0.15889 -0.00189146 7.00909e-24)
(0.154656 -0.00236845 -3.79971e-24)
(0.14858 -0.00299262 8.27786e-24)
(0.140942 -0.00383044 1.73682e-22)
(0.130052 -0.00509781 5.99375e-23)
(0.117077 -0.00683805 -9.59257e-22)
(0.0979513 -0.009937 2.39629e-21)
(0.0754696 -0.0146202 7.77826e-21)
(0.0279729 -0.0228153 -7.47161e-21)
(-0.00204642 0.0133852 3.80239e-20)
(-0.0110347 0.00946395 -9.95373e-21)
(-0.0200258 0.00477088 2.49917e-21)
(-0.0281131 -0.00107965 -7.57551e-22)
(-0.0347185 -0.00974496 2.88347e-22)
(-0.0397277 -0.0211857 0)
(-0.0432622 -0.0349284 1.72296e-23)
(-0.0452335 -0.0504107 -2.07323e-24)
(-0.0454234 -0.066221 6.82349e-24)
(-0.0437356 -0.0805459 0)
(-0.0399879 -0.091435 0)
(-0.0338011 -0.0970331 0)
(-0.0238295 -0.095118 -1.88902e-27)
(-0.00818041 -0.0838989 4.91079e-28)
(0.011199 -0.0650077 6.44229e-29)
(0.0297884 -0.0425697 0)
(0.0467291 -0.0178991 1.05203e-30)
(0.0621559 0.00837946 0)
(0.0764039 0.0351297 7.61268e-33)
(0.0893363 0.0606799 0)
(0.100459 0.0827991 9.12479e-35)
(0.109357 0.0993774 0)
(0.115776 0.109452 0)
(0.119861 0.113813 0)
(0.121461 0.114509 5.60754e-35)
(0.121412 0.113191 0)
(0.119643 0.108251 0)
(0.115294 0.103342 0)
(0.108286 0.101891 -1.67564e-36)
(0.0996378 0.101986 0)
(0.0920897 0.0981108 0)
(0.0866859 0.0866065 0)
(0.0852888 0.0621572 0)
(0.0841081 0.0401436 0)
(0.0870819 -0.0102112 0)
(0.14016 0.000576611 0)
(0.157098 0.000729265 4.47598e-28)
(0.177508 0.00118212 -1.04641e-27)
(0.175178 0.00138741 0)
(0.16892 0.0016903 0)
(0.163308 0.00215719 0)
(0.15898 0.00270488 0)
(0.154766 0.00337497 -2.6149e-23)
(0.148717 0.00423667 -8.27781e-24)
(0.141108 0.00536435 3.45728e-22)
(0.130266 0.00699608 5.19402e-22)
(0.117327 0.00917445 7.8124e-22)
(0.0982923 0.0128563 -4.29193e-21)
(0.075835 0.0182127 3.5229e-21)
(0.0281995 0.0271034 0)
(-0.00310568 0.0203615 4.17752e-21)
(-0.0111234 0.0182907 -4.35286e-21)
(-0.0192206 0.013134 1.12682e-21)
(-0.0267108 0.00626579 -1.26973e-21)
(-0.0333162 -0.0036493 3.62644e-23)
(-0.0389142 -0.0165894 3.96313e-22)
(-0.043328 -0.032174 -9.91894e-23)
(-0.0463373 -0.0492074 -3.75125e-23)
(-0.0475796 -0.0664815 0)
(-0.0470879 -0.0822142 -2.2388e-24)
(-0.0448631 -0.0946053 0)
(-0.0415929 -0.102148 0)
(-0.0363596 -0.104235 1.80986e-27)
(-0.0286619 -0.0982588 -4.68927e-28)
(-0.0167352 -0.083597 -6.27344e-29)
(0.00035321 -0.0605031 0)
(0.0179089 -0.033981 -1.05203e-30)
(0.0339055 -0.00640211 0)
(0.0488364 0.0216168 -7.61268e-33)
(0.06287 0.0483848 0)
(0.0757271 0.0719535 -9.12479e-35)
(0.0869714 0.0903981 0)
(0.0962507 0.102787 0)
(0.103224 0.109754 0)
(0.107736 0.112773 -5.93386e-35)
(0.110322 0.112295 0)
(0.110548 0.110184 0)
(0.108212 0.108905 0)
(0.101912 0.109418 1.65836e-36)
(0.0957302 0.108855 0)
(0.0913926 0.103208 0)
(0.0885435 0.089132 0)
(0.0894994 0.0621163 0)
(0.0906426 0.0392529 0)
(0.0942718 -0.0115751 0)
(0.141034 0.00154203 0)
(0.157593 0.00195161 0)
(0.177888 0.0031556 0)
(0.175656 0.00369845 0)
(0.169554 0.00449213 0)
(0.164152 0.00573754 6.2497e-24)
(0.159984 0.00715873 1.349e-23)
(0.156094 0.008964 2.99484e-23)
(0.150454 0.0111333 0)
(0.143582 0.0142705 -6.3151e-22)
(0.133746 0.0181584 -2.35403e-22)
(0.122713 0.0246824 -3.27641e-22)
(0.106164 0.0320617 -2.83249e-21)
(0.0905566 0.0501045 2.99592e-21)
(0.040693 0.0595324 0)
(-0.00440423 0.0223829 0)
(-0.00915125 0.024203 2.43565e-21)
(-0.0139189 0.0196405 2.52416e-21)
(-0.019055 0.0126073 0)
(-0.0241673 0.00233261 -8.46287e-23)
(-0.0289689 -0.0114775 -6.01818e-22)
(-0.0331919 -0.0283704 2.67979e-22)
(-0.0364911 -0.0473013 4.05856e-23)
(-0.0387866 -0.0665799 2.21524e-23)
(-0.0402044 -0.0841002 2.32687e-24)
(-0.0406283 -0.0978459 0)
(-0.0399579 -0.105558 0)
(-0.0373575 -0.10837 0)
(-0.0328997 -0.104366 0)
(-0.0263399 -0.0939054 0)
(-0.0170567 -0.0761434 0)
(-0.00331232 -0.0506163 0)
(0.012429 -0.0218196 0)
(0.0274491 0.00695031 0)
(0.0419578 0.034441 0)
(0.0558776 0.058929 0)
(0.0687622 0.0787577 0)
(0.0801553 0.093149 0)
(0.0894487 0.102496 0)
(0.0964465 0.107684 0)
(0.100873 0.110028 0)
(0.101978 0.11119 0)
(0.100416 0.112515 0)
(0.0969696 0.1139 0)
(0.0951482 0.112439 0)
(0.0933214 0.105616 0)
(0.0934539 0.0890293 0)
(0.0978434 0.0595282 0)
(0.100863 0.0366861 0)
(0.105563 -0.0130895 0)
(0.142681 0.00245575 0)
(0.158533 0.00312331 0)
(0.178588 0.00502907 0)
(0.176537 0.00589358 0)
(0.170663 0.00710956 0)
(0.165817 0.00909621 -2.94906e-25)
(0.161665 0.011252 -1.34893e-23)
(0.158745 0.0141113 2.91033e-23)
(0.15321 0.0172566 -2.90892e-23)
(0.14856 0.0221573 -2.24888e-22)
(0.138986 0.027489 -9.90446e-22)
(0.13323 0.0372412 2.19678e-21)
(0.117124 0.047081 4.15891e-21)
(0.114115 0.0689267 -8.96247e-21)
(0.0769053 0.106631 -7.91296e-22)
(0.0620138 0.0926991 0)
(-0.0030938 0.0111331 1.74766e-19)
(-0.00334567 0.0259296 -1.29259e-19)
(-0.00179573 0.0265082 2.04154e-21)
(-0.00213518 0.0228924 -7.85517e-21)
(-0.00278139 0.0163161 2.92411e-21)
(-0.00372114 0.00625244 -1.59697e-21)
(-0.00458861 -0.00780465 3.6437e-22)
(-0.00497609 -0.0251767 -1.3724e-22)
(-0.00520831 -0.0444874 -4.90014e-23)
(-0.0059396 -0.0638913 -2.21511e-23)
(-0.00790484 -0.0815186 0)
(-0.011591 -0.0958761 0)
(-0.0164492 -0.105789 0)
(-0.021206 -0.110314 0)
(-0.0246586 -0.108496 0)
(-0.024171 -0.0990338 0)
(-0.019606 -0.0833126 0)
(-0.0118032 -0.0626134 0)
(-0.000449676 -0.0366704 0)
(0.0133158 -0.00791287 0)
(0.0275174 0.019848 0)
(0.0417902 0.0448264 0)
(0.0555111 0.0657107 0)
(0.0679725 0.0818829 0)
(0.0785182 0.0935525 0)
(0.0866611 0.101443 0)
(0.091978 0.106853 0)
(0.0943625 0.110868 0)
(0.0950417 0.113612 0)
(0.0954961 0.114252 0)
(0.0959201 0.112559 0)
(0.0970907 0.10475 0)
(0.10243 0.0854826 0)
(0.109464 0.0545135 0)
(0.114591 0.0324034 0)
(0.120652 -0.015121 0)
(0.145046 0.00328926 0)
(0.159902 0.0042207 0)
(0.179574 0.00674912 0)
(0.177779 0.00791261 0)
(0.172255 0.00947432 0)
(0.168082 0.0120989 -3.83916e-25)
(0.164048 0.0148706 1.1883e-23)
(0.162203 0.0184916 4.98595e-23)
(0.157061 0.0224609 0)
(0.154599 0.0282314 9.36228e-22)
(0.146335 0.0349522 1.85751e-21)
(0.144381 0.0450007 -4.03212e-21)
(0.1335 0.0581693 0)
(0.133784 0.0755604 4.69208e-21)
(0.12851 0.116973 1.00896e-21)
(0.0932769 0.118545 2.90458e-20)
(-0.00182961 0.00876361 -7.70772e-20)
(0.0031336 0.0229407 -2.04213e-20)
(0.010522 0.0238426 -5.09713e-21)
(0.0162907 0.0209071 -1.66695e-22)
(0.0215154 0.0145525 -5.94998e-21)
(0.0262562 0.00459151 3.25826e-21)
(0.0308148 -0.0091655 8.18713e-22)
(0.0354139 -0.0258785 0)
(0.0394286 -0.0440196 1.01508e-22)
(0.0419819 -0.0615513 2.35967e-23)
(0.0421159 -0.0765379 1.04053e-23)
(0.0388899 -0.087943 0)
(0.0317673 -0.0957695 0)
(0.0211441 -0.100427 0)
(0.008724 -0.101705 0)
(-0.00207264 -0.0979263 0)
(-0.00796525 -0.0870721 0)
(-0.007886 -0.0691766 0)
(-0.00237093 -0.0462921 0)
(0.00720096 -0.0207146 0)
(0.0192753 0.00604255 0)
(0.0324331 0.0310202 0)
(0.0458014 0.0527021 0)
(0.0583117 0.070461 0)
(0.0692228 0.0843167 0)
(0.0780437 0.0947668 0)
(0.0845964 0.102661 0)
(0.0892551 0.1084 0)
(0.0929661 0.111801 0)
(0.095975 0.112899 0)
(0.098882 0.110272 0)
(0.104865 0.0993985 0)
(0.115241 0.0778996 0)
(0.124452 0.0472123 0)