/*--------------------------------*- C++ -*----------------------------------*\
| =========                 |                                                 |
| \\      /  F ield         | OpenFOAM: The Open Source CFD Toolbox           |
|  \\    /   O peration     | Version:  2.3.0                                 |
|   \\  /    A nd           | Web:      www.OpenFOAM.org                      |
|    \\/     M anipulation  |                                                 |
\*---------------------------------------------------------------------------*/
FoamFile
{
    version     2.0;
    format      ascii;
    class       volScalarField;
    location    "1.9e-05";
    object      alpha.fuel;
}
// * * * * * * * * * * * * * * * * * * * * * * * * * * * * * * * * * * * * * //

dimensions      [0 0 0 0 0 0 0];

internalField   nonuniform List<scalar> 
7500
(
1
1
1
1
1
1
1
1
1
1
1
1
1
1
1
1
1
1
1
1
1
1
1
1
1
1
1
1
1
1
1
1
1
1
1
1
1
1
1
1
1
1
1
1
1
1
1
1
1
1
1
1
1
1
1
1
1
1
1
1
1
1
1
1
1
1
1
1
1
1
1
1
1
1
1
1
1
1
1
1
1
1
1
1
1
1
1
1
1
1
1
1
1
1
1
1
1
1
1
1
1
1
1
1
1
1
1
1
1
1
1
1
1
1
1
1
1
1
1
1
1
1
1
1
1
1
1
1
1
1
1
1
1
1
1
1
1
1
1
1
1
1
1
1
1
1
1
1
1
1
1
1
1
1
1
1
1
1
1
1
1
1
1
1
1
1
1
1
1
1
1
1
1
1
1
1
1
1
1
1
1
1
1
1
1
1
1
1
1
1
1
1
1
1
1
1
1
1
1
1
1
1
1
1
1
1
1
1
1
1
1
1
1
1
1
1
1
1
1
1
1
1
1
1
1
1
1
1
1
1
1
1
1
1
1
1
1
1
1
1
1
1
1
1
1
1
1
1
1
1
1
1
1
1
1
1
1
1
1
1
1
1
1
1
1
1
1
1
1
1
1
1
1
1
1
1
1
1
1
1
1
1
1
1
1
1
1
1
1
1
1
1
1
1
1
1
1
1
1
1
1
1
1
1
1
1
1
1
1
1
1
1
1
1
1
1
1
1
1
1
1
1
1
1
1
1
1
1
1
1
1
1
1
1
1
1
1
1
1
1
1
1
1
1
1
1
1
1
1
1
1
1
1
1
1
1
1
1
1
1
1
1
1
1
1
1
1
1
1
1
1
1
1
1
1
1
1
1
1
1
1
1
1
1
1
1
1
1
1
1
1
1
1
1
1
1
1
1
1
1
1
1
1
1
1
1
1
1
1
1
1
1
1
1
1
1
1
1
1
1
1
1
1
1
1
1
1
1
1
1
1
1
1
1
1
1
1
1
1
1
1
1
1
1
1
1
1
1
1
1
1
1
1
1
1
1
1
1
1
1
1
1
1
1
1
1
1
1
1
1
1
1
1
1
1
1
1
1
1
1
1
1
1
1
1
1
1
1
1
1
1
1
1
1
1
1
1
1
1
1
1
1
1
1
1
1
1
1
1
1
1
1
1
1
1
1
1
1
1
1
1
1
1
1
1
1
1
1
1
1
1
1
1
1
1
1
1
1
1
1
1
1
1
1
1
1
1
1
1
1
1
1
1
1
1
1
1
1
1
1
1
1
1
1
1
1
1
1
1
1
1
1
1
1
1
1
1
1
1
1
1
1
1
1
1
1
1
1
1
1
1
1
1
1
1
1
1
1
1
1
1
1
1
1
1
1
1
1
1
1
1
1
1
1
1
1
1
1
1
1
1
1
1
1
1
1
1
1
1
1
1
1
1
1
1
1
1
1
1
1
1
1
1
1
1
1
1
1
1
1
1
1
1
1
1
1
1
1
1
1
1
1
1
1
1
1
1
1
1
1
1
1
1
1
1
1
1
1
1
1
1
1
1
1
1
1
1
1
1
1
1
1
1
1
1
1
1
1
1
1
1
1
1
1
1
1
1
1
1
1
1
1
1
1
1
1
1
1
1
1
1
1
1
1
1
1
1
1
1
1
1
1
1
1
1
1
1
1
1
1
1
1
1
0.99888821
0.99643759
0.99297075
0.98824328
0.98136198
0.97211373
0.95058355
1
1
1
1
1
1
1
1
1
1
1
1
1
1
1
1
1
1
1
1
1
1
1
1
1
1
1
1
1
1
1
1
1
1
1
1
1
1
1
1
1
1
1
1
1
1
1
1
1
1
1
1
1
0.99474443
0.98457305
0.96590269
0.94277381
0.91586491
0.88106389
0.82737606
0.77350573
0.71922682
0.66269737
0.60386564
0.53936634
0.47304574
0.41007122
0.3555621
0.30754725
0.27093838
0.24137048
0.21249158
0.18162055
0.15109191
0.094038133
1
1
1
1
1
1
1
1
1
1
1
1
1
1
1
1
1
1
1
1
1
1
1
1
1
1
1
1
1
1
1
1
1
1
1
1
1
1
1
1
1
1
0.9927953
0.97634772
0.94762127
0.91068741
0.8317195
0.74652622
0.6591744
0.57913641
0.49830687
0.42553426
0.34309406
0.2655542
0.19720471
0.12818114
0.078401656
0.032139681
8.1296902e-10
3.64046e-10
3.6404599e-10
3.6404599e-10
3.6404598e-10
3.6404598e-10
3.6404597e-10
3.6404596e-10
3.6404595e-10
3.6404595e-10
3.6404607e-10
3.6404617e-10
3.6404623e-10
3.6404626e-10
3.6404635e-10
3.6404745e-10
3.6404745e-10
1
1
1
1
1
1
1
1
1
1
1
1
1
1
1
1
1
1
1
1
1
1
1
1
1
1
1
1
1
1
1
1
1
1
0.98824175
0.96057568
0.91055186
0.81381692
0.69445071
0.5822614
0.46948742
0.35941591
0.25680861
0.16524097
0.092860911
0.0024354097
7.9281452e-10
7.5544878e-10
7.5544878e-10
7.5544879e-10
7.5544879e-10
7.554488e-10
7.5544881e-10
7.5544882e-10
7.5544883e-10
7.5544885e-10
7.5544888e-10
7.55449e-10
1.2111132e-09
2.0991107e-09
2.3224919e-09
2.5457719e-09
2.6679395e-09
2.8652546e-09
8.1352539e-09
2.685121e-09
7.6593559e-10
3.6652945e-10
4.2666289e-08
3.0524339e-08
1.8811084e-08
9.7871918e-09
2.1898916e-08
3.1352905e-07
7.0363683e-10
1
1
1
1
1
1
1
1
1
1
1
1
1
1
1
1
1
1
1
1
1
1
1
1
1
1
1
1
0.98198648
0.92685928
0.8182435
0.67167439
0.52125229
0.37137718
0.23100852
0.12463536
4.0981594e-09
3.1257053e-09
3.1257053e-09
3.1257053e-09
3.1257053e-09
3.1257053e-09
3.1257053e-09
3.1257052e-09
3.1257052e-09
3.1257052e-09
5.4564544e-09
6.1294458e-09
7.5857346e-09
8.5593083e-09
8.8155641e-09
8.8617895e-09
8.9838361e-09
8.7227e-09
8.4925872e-09
7.9289226e-09
7.781504e-09
8.2881243e-09
1.0446536e-08
9.7611219e-09
1.1013121e-08
9.4997867e-09
3.0296071e-09
7.2570901e-09
3.9064942e-08
1.9416771e-07
1.188461e-06
8.7368979e-07
1.4344236e-09
1.1302342e-09
7.0760324e-10
3.688277e-10
3.6881388e-10
1.3072595e-05
0.00040384366
1
1
1
1
1
1
1
1
1
1
1
1
1
1
1
1
1
1
1
1
1
1
1
0.97745316
0.90029616
0.738663
0.55324634
0.35847742
0.20152918
0.024433037
3.8945844e-09
3.6297978e-09
3.6297978e-09
3.6297978e-09
3.6297987e-09
3.6297976e-09
3.685669e-09
4.0333436e-09
4.9576049e-09
5.0839902e-09
5.3442041e-09
5.6215225e-09
3.5627659e-09
1.0921431e-08
3.5510847e-09
3.1258746e-09
1.9665161e-08
6.5175667e-09
1.6719782e-08
1.8158346e-08
1.4551843e-08
7.9399189e-09
7.4836784e-09
7.5779565e-09
7.0555827e-09
7.0701589e-09
7.3996925e-09
7.4004321e-09
1.0630195e-08
6.2157311e-09
5.8106948e-09
5.5026221e-09
1.1066249e-06
3.2172668e-08
8.4009455e-09
5.9370212e-06
2.9562782e-06
6.1841224e-09
0.00058640049
0.0025483618
0.0014900173
9.1474735e-05
7.5246603e-10
6.3445959e-10
0.0028946961
1
1
1
1
1
1
1
1
1
1
1
1
1
1
1
1
1
1
1
0.96514821
0.84935556
0.64640132
0.41189875
0.198126
4.9171909e-09
3.7402548e-09
3.7402548e-09
3.7405976e-09
3.7415399e-09
3.743758e-09
4.3140249e-09
4.4384466e-09
4.4768986e-09
9.2556038e-09
2.4916031e-07
3.882617e-09
4.2061685e-09
1.0467848e-08
1.0587336e-08
5.5314651e-09
5.8562782e-09
6.1265471e-09
5.979348e-07
7.1122412e-07
0.0002991202
7.8990953e-05
2.0186366e-08
0.00027627231
2.645336e-07
7.9110364e-09
7.4693633e-09
0.016962346
0.024353176
0.025793447
0.0021053115
7.33269e-09
1.59752e-05
9.1904035e-06
3.473969e-09
0.0085903631
0.0015325125
5.9841751e-09
4.0093897e-06
4.4723087e-06
6.9698137e-07
5.5062694e-07
1.2075723e-07
6.2681308e-09
0.003032817
0.0036100066
0.0036100066
0.0010955009
9.8154758e-10
6.3407576e-10
6.5120636e-10
1
1
1
1
1
1
1
1
1
1
1
1
1
1
1
1
0.92218799
0.71950937
0.45834031
0.16282304
4.7602613e-09
3.7865642e-09
3.7865641e-09
3.7865641e-09
4.4344673e-09
6.5818061e-09
4.6544516e-09
8.8245838e-05
0.00019571899
6.0543071e-05
3.6085374e-05
5.0890253e-09
4.4790424e-09
2.7356312e-06
8.5659273e-06
4.3876111e-06
1.417678e-06
9.4394174e-08
1.0673883e-08
4.5420798e-06
0.00011198413
9.4611689e-05
4.2438081e-05
1.12516e-08
0.0035537383
0.00041933409
0.015637769
0.069932421
0.066732563
0.0091594624
7.6495948e-09
0.036844882
0.036851098
0.036851098
0.00031142617
0.00029360314
0.0001975979
1.8675156e-06
3.4617554e-09
0.015990651
0.013989247
0.00084331091
1.7220569e-09
5.272258e-06
2.9270585e-06
1.6088455e-07
2.7534393e-08
0.0019289609
1.7962774e-09
5.8568816e-05
0.0020441135
0.0016795536
1.4998446e-05
5.2543537e-05
0.00011297775
1
1
1
1
1
1
1
1
1
1
1
1
1
0.92988938
0.71708227
0.40448526
0.047335726
4.2086832e-09
3.8295221e-09
3.8304029e-09
4.5734676e-09
1.1206759e-08
4.51181e-09
4.5528967e-09
4.4343863e-07
7.2861916e-09
0.0021413179
0.0025337466
0.0025368062
0.0009188109
0.00064859615
0.0007204785
4.4967679e-09
1.9541764e-06
1.2387689e-08
7.6933913e-06
6.2176413e-06
8.2953485e-08
1.0992782e-08
8.5630432e-05
0.00031544937
0.00025672383
2.5776843e-08
0.0033535885
6.153479e-06
0.042023474
0.070462636
0.070498328
0.070498328
0.026971147
8.2498824e-09
0.013776914
0.036851098
0.023130912
0.028774123
0.0033836495
0.00036084945
3.4647258e-09
0.003008107
0.010791096
0.015366978
0.0014114456
1.4486347e-09
1.1981932e-09
0.00013202943
2.3487861e-08
0.0016401849
0.00034342756
1.556406e-09
1.1039646e-09
1.1039596e-09
1.1039596e-09
1.1077768e-09
1.1602471e-09
4.887341e-05
1
1
1
1
1
1
1
1
1
1
1
0.86912812
0.54778107
0.10315669
4.8087342e-09
4.1263756e-09
4.127337e-09
5.2083823e-09
4.8468113e-09
0.00011404568
3.314984e-05
7.8896525e-06
2.1198974e-05
0.00063292022
1.4805491e-05
0.00022333711
0.0032546217
7.5191856e-09
6.471012e-07
0.0019953273
0.0022065242
0.0021191251
0.0011240976
1.3963822e-08
1.3271206e-08
1.2588113e-08
1.2807255e-08
1.3314836e-08
4.4907342e-05
4.7497146e-09
4.6245546e-09
4.5939147e-09
0.0056265555
0.0084678017
0.00010965704
2.6569382e-07
2.6580666e-07
0.032949745
0.070498328
0.045191145
8.6723887e-09
8.7701299e-09
0.035598607
8.2747696e-06
0.013306781
0.012410351
0.0023279654
3.2291413e-09
0.0095281995
3.1983333e-09
0.0093635898
0.00074101505
1.7128936e-09
6.1824796e-07
8.9951111e-10
0.0016506303
1.3877025e-09
1.1751185e-09
8.9572235e-06
1.427113e-09
1.1039597e-09
0.0016691723
0.0021646555
0.00085842723
3.4986293e-08
1
1
1
1
1
1
1
1
1
0.84797418
0.4583428
0.0053668136
4.3905313e-09
4.3376372e-09
1.8749963e-07
4.7098256e-05
5.0804145e-05
0.0044716016
0.0041368613
0.0041284393
0.0015587392
6.8625051e-09
0.0018695337
0.002124046
3.4207869e-09
4.0856088e-09
0.0022600522
7.5384482e-09
7.8647953e-09
0.00037058848
3.8742765e-09
3.8752682e-09
2.484568e-05
1.4476176e-08
0.007817986
0.0004651847
3.6349795e-06
3.0964445e-05
4.7016894e-09
4.5036202e-09
1.0950094e-05
4.7923758e-09
0.002183301
0.0050951856
0.0039535077
0.0047101406
0.02596047
0.0084463647
0.020233192
0.067896643
0.066418878
0.0066396278
0.00059466325
0.00010164257
1.093306e-06
0.015042792
0.00056868368
3.0719389e-09
0.00034823295
3.0956781e-09
0.0063873683
0.0032823643
0.00086951995
9.4088097e-06
1.1178629e-09
8.2036862e-08
1.1709778e-09
1.0330929e-06
0.00014219722
8.2108086e-05
1.2624182e-09
0.00070207079
0.0016856091
0.00066369887
3.4547321e-05
1
1
1
1
1
1
1
0.89379907
0.51214075
0.0090000208
5.5535399e-09
5.4608521e-09
5.7418063e-09
5.6809435e-09
6.1019908e-09
0.00063811925
0.0086083477
0.0088582388
0.0088582301
0.00025359224
4.738761e-09
5.6269201e-09
6.0120026e-09
0.0016309902
4.3998784e-09
0.0025774876
0.00019194637
2.2437761e-06
5.547164e-07
4.4534434e-09
3.901619e-09
6.4282693e-07
4.2861465e-09
0.0009730321
0.0080127034
0.0010142863
6.63946e-05
5.2590413e-09
4.8492405e-09
4.4312681e-09
0.00011465743
6.9129105e-05
3.273489e-07
3.276431e-07
0.0043987982
0.06645954
0.068544517
0.017744432
5.5976483e-09
0.046781634
0.037817396
0.0093161336
3.3904781e-09
3.1637021e-09
3.1586075e-09
0.0033558749
3.1076457e-09
2.7978944e-09
2.889586e-09
3.0510134e-09
0.007038761
0.013153939
0.0068170135
1.8370552e-09
1.5207937e-09
1.3100074e-09
1.120894e-09
0.00010447918
0.00012641292
0.00013320203
9.9126476e-05
6.4091516e-08
1.5934557e-09
1.7911373e-09
0.0026321289
1
1
1
1
1
1
0.7372727
0.10695264
1.0880323e-08
1.0137545e-08
5.4092379e-07
1.8912297e-06
7.0766596e-09
0.0027299704
0.00028927587
5.9008616e-09
0.0089057854
5.9867326e-09
5.9905798e-09
6.3245904e-09
5.5797686e-09
5.5396457e-09
6.6565037e-09
0.00089331568
0.0038337047
0.0072551273
0.00074319698
4.7982689e-09
3.8024847e-05
4.4682958e-09
0.00043805282
4.2082573e-09
4.2127989e-09
0.0031738899
0.0078693123
0.0022461562
4.8830768e-05
5.3227633e-09
2.8057151e-05
4.4305424e-09
4.4274786e-09
4.4140876e-09
0.0084592571
1.0705301e-05
5.5582341e-09
5.3914734e-09
5.3502624e-09
5.3499967e-09
5.349997e-09
5.7754769e-09
6.152172e-09
0.0021651919
0.0029152471
5.7714255e-07
3.1517567e-09
3.1514886e-09
0.003774431
2.8444024e-09
0.0010406095
0.0017183216
0.00010115154
0.004749078
2.1722501e-09
1.9972895e-09
1.7492407e-09
1.5165614e-09
2.1386502e-05
9.9604711e-10
9.274165e-10
9.2741367e-10
9.3448791e-10
2.0076322e-07
1.3065518e-09
0.0001675525
0.012878933
1
1
1
1
0.96919336
0.47963183
1.2026942e-08
9.879807e-09
1.8155109e-06
3.2098714e-05
0.00025923724
0.00071227544
0.00077485993
0.0046032379
0.0017734196
6.6021194e-09
0.0089112664
6.3476117e-09
6.6492308e-05
0.0014431759
0.0011398459
0.00010377654
7.5572673e-09
0.0024935943
0.0048638253
0.0042501772
0.00053304837
4.5502762e-09
4.5502759e-09
0.004946748
0.0053331676
4.2295252e-09
0.00018523161
0.00030005991
0.0003653112
0.0033431617
4.9993181e-05
0.00021010033
0.00021099975
5.0066369e-09
9.9859082e-07
4.7145193e-09
0.0067782885
0.0016590081
0.0011137102
0.0032394081
4.8387423e-05
5.7664537e-09
5.349979e-09
5.8269516e-09
6.1631087e-09
6.4440344e-09
0.00016703138
0.0047474442
0.00033851937
3.163849e-09
0.0174094
0.017674212
0.017700699
0.017700699
0.00050316861
2.6117549e-09
2.3698644e-09
0.0051430613
0.004576951
0.00019888937
2.0291599e-09
1.7434494e-09
1.7961427e-09
9.2814281e-10
6.4814322e-07
1.3396551e-09
1.3060014e-09
0.00065897674
0.0038190599
1
1
1
0.95689211
0.26606728
1.5078461e-08
1.3560074e-08
1.1712113e-08
3.296233e-05
0.00040242108
7.3781256e-09
7.3754844e-09
0.0013592139
0.0046032018
7.5888581e-09
7.5036735e-09
0.00063755588
4.5282271e-05
1.4036342e-07
0.0055070912
0.003000849
0.0011687563
0.002999798
4.2030628e-05
4.6188027e-09
4.6814611e-09
5.2939619e-09
4.5503434e-09
4.5505946e-09
0.00010430122
0.0030595684
4.1408861e-09
4.1406903e-09
4.1811635e-09
4.1773385e-09
0.011224945
0.0094965953
0.002011646
1.0401159e-05
0.00032129351
8.6651425e-05
0.00087723833
1.17008e-07
1.1702276e-07
0.013960072
0.014327893
0.008267206
0.0091631572
0.0059860931
0.013473332
0.0033856076
6.9166216e-09
6.9434495e-09
0.0070451961
0.0019070242
3.5109622e-09
3.5512582e-09
0.0099446144
0.012204915
0.0030660471
0.00014827644
2.6742956e-09
0.00059836775
0.013117123
0.013243653
0.0037139752
1.8474499e-09
1.5540677e-09
1.3015855e-09
1.1027794e-09
9.8202227e-10
0.00012806656
3.3106797e-05
2.5017091e-05
3.8039865e-08
1
1
0.98643954
0.2499357
1.7010702e-08
1.5117025e-08
4.7869324e-06
3.1790631e-05
8.612095e-09
7.0540397e-09
6.96045e-09
7.6887788e-07
2.5212064e-08
0.0016143685
5.65539e-05
4.6288682e-05
7.030387e-08
0.00012336776
0.00011634624
0.0027297859
0.0084115444
0.0036146485
0.0060267835
2.7089153e-08
1.3193113e-06
0.0001990694
4.5406828e-05
4.5503979e-09
4.7919417e-09
4.2923555e-09
4.4352872e-09
4.650101e-09
4.1406905e-09
0.0043294925
0.0032325084
0.025631654
0.025502974
0.004928545
1.0400891e-05
0.00042119551
0.00011378324
0.0024722744
1.1664891e-07
0.0079360379
3.8895145e-07
0.00041160948
0.015535903
0.015535903
0.015535902
0.015535902
0.0077405925
6.1750922e-05
0.00075270377
2.499592e-09
2.6553537e-09
0.010128429
0.0013761098
2.5331901e-09
2.2875959e-09
2.0000775e-09
0.0019827711
2.7402267e-09
0.0043827906
3.2449361e-10
0.008869846
0.0085112605
0.010547345
0.0088051779
0.0044855538
0.00028064788
1.2148753e-09
9.9813511e-10
0.00035647968
0.0002135518
3.8087652e-08
1
1
0.31465512
1.9812976e-08
1.7427394e-08
1.6972815e-08
1.7040869e-05
3.2798327e-08
2.7566801e-05
1.9902561e-05
6.9604515e-09
0.00017695297
0.00020104922
6.2824783e-09
0.00013687316
0.00016293178
4.7885039e-06
8.8992241e-08
0.0010537609
0.0084115426
0.0084115432
0.0037183606
0.0001651481
0.0015367192
3.2477739e-08
0.0010540715
0.0054755324
4.5821474e-09
8.0458961e-05
3.8056571e-09
3.7984283e-09
2.3399169e-05
4.2191777e-09
0.0020777031
0.0027083607
0.016509223
9.9831484e-09
0.0029713461
0.00059276353
3.1943505e-08
0.00029024802
4.4304007e-08
0.0049363552
0.0062941366
0.00026551708
0.021228712
0.011599995
0.0038038291
0.012387933
0.013203417
0.011544817
5.4484511e-08
3.8706266e-06
2.4692507e-09
0.012213751
0.014850076
0.010146006
2.2614908e-09
1.9850042e-09
2.0272924e-09
0.0033418954
0.0010658017
3.6304165e-10
2.9533457e-10
2.4063935e-10
0.01329911
0.013439017
0.013337611
0.013182806
0.0027483618
1.1835024e-09
9.9813642e-10
0.00016156976
0.00011953239
0.00011606288
1
0.64556534
0.024782145
0.0002693709
1.9196646e-08
1.3189658e-05
3.2371629e-08
3.2423588e-08
0.00010492247
0.00010490231
6.9652969e-09
6.9557552e-09
0.00014453226
5.1128755e-09
5.1127241e-09
2.3986149e-06
6.3507438e-06
0.00026297837
0.0001622719
0.0084115414
0.0070369326
0.0024126988
6.0972159e-08
0.003989389
2.3075377e-07
0.00055067938
0.0054875067
0.0022390838
0.0017963328
0.0017963495
0.00072297485
8.6825708e-05
4.6753889e-09
4.8378751e-09
5.0885572e-09
4.4764364e-09
0.010493503
0.00089055473
0.00018372525
4.6661731e-06
2.871651e-08
0.00034986515
0.0026951682
0.00076590447
1.6396661e-09
0.0071993637
0.0037498784
1.0524072e-09
1.0928964e-09
6.8684692e-10
0.0081664151
0.0015826908
2.5216866e-09
2.4689592e-09
0.0024912128
2.0218407e-09
1.937491e-09
1.9374911e-09
1.9377935e-09
7.7660657e-05
4.888692e-10
0.0039159963
0.00031227344
4.416571e-10
2.4063937e-10
0.0086202055
0.0055244872
2.2382625e-10
1.8767496e-10
0.0020561443
0.00050584018
1.1852762e-09
1.3771441e-09
1.4064835e-09
2.5408081e-06
0.97019371
0.080986977
1.603438e-08
1.2966685e-08
2.1690953e-05
3.1930982e-05
3.2238293e-08
8.560362e-08
8.001099e-09
8.001241e-09
2.1802134e-08
9.9191205e-09
1.1511789e-08
1.3381766e-05
5.6483187e-09
5.0830944e-09
5.2831181e-09
0.0036763529
3.1877493e-05
0.0084115403
1.2864943e-08
4.5019646e-09
4.7424227e-09
4.4644228e-09
0.00068243559
0.00088418127
0.00068171378
2.5851339e-07
2.575807e-07
0.00021836509
8.4040599e-05
4.9377644e-09
4.8550722e-09
4.3167218e-09
4.4106024e-09
3.9653893e-09
0.021463216
0.0017696186
6.4550444e-05
7.8577798e-05
2.9043268e-08
0.00083272182
0.00020781509
1.674579e-09
1.3420082e-09
9.3097492e-10
6.8755778e-10
6.8755742e-10
1.2632153e-08
6.8684801e-10
0.0071414454
0.010082793
0.0074941782
2.8143196e-09
3.0508791e-09
0.0017964507
2.1883826e-09
0.0043228559
0.0056498573
0.0015794966
4.8371716e-10
2.8317348e-10
5.9208223e-05
1.3422971e-05
2.4976497e-10
0.0037118401
3.5682105e-10
2.6322783e-10
1.8768512e-10
9.5364554e-05
0.00062622911
4.0178753e-05
1.2107085e-09
1.208835e-09
1.2089524e-09
0.32200612
2.1451943e-08
1.757287e-08
1.2966571e-08
8.8959519e-09
8.8966865e-09
4.8945788e-08
9.7872918e-08
1.0757821e-07
9.236197e-08
2.2988708e-08
1.256527e-08
3.0539359e-07
2.5624701e-05
1.2604417e-08
5.0830625e-09
0.0018573066
0.0032845135
3.4983978e-05
0.0035204505
5.5611888e-06
4.5023168e-09
5.0673958e-09
4.4522001e-09
0.00090305414
0.00078561363
2.6236119e-07
6.4675915e-05
6.0261005e-05
5.0924794e-09
5.1541639e-09
4.9531772e-09
0.0015106276
0.00030974786
4.3806095e-09
3.9653892e-09
0.01773717
0.00060699103
0.0023164472
7.8941471e-05
0.00010792373
6.2740586e-09
3.9533562e-05
1.9123789e-09
0.022308562
0.0028605251
1.102311e-09
6.8760596e-10
3.7993932e-05
7.03811e-10
0.0063062473
0.0049953126
0.0016079034
0.00098969834
3.1061561e-09
0.014220985
2.4674925e-09
0.00044612323
0.0023884345
1.0169007e-09
6.9637312e-10
5.2387834e-10
4.2649954e-05
7.6695022e-06
4.0209338e-10
1.8884253e-10
4.1172359e-10
4.6367979e-10
4.3727833e-10
5.4975229e-10
0.00014137019
1.9269159e-09
0.0045050405
0.0027606111
0.0053418375
0.10242808
2.759269e-08
8.1646649e-06
5.4478206e-06
9.2255562e-09
1.0791874e-08
4.3487956e-08
9.9667031e-08
1.0220248e-07
1.8799992e-07
2.2201222e-08
1.3722797e-08
5.5611658e-07
2.5624855e-05
2.649129e-08
6.3301829e-09
5.2277088e-05
7.9745117e-07
0.0012229145
5.5408597e-08
1.3948162e-06
5.1839261e-09
5.4401147e-09
4.6482871e-09
4.4461325e-09
4.6203257e-09
0.00078687072
0.0032801301
0.00050316801
4.5342032e-09
0.0001755125
7.2019932e-08
0.0029765923
4.4864397e-09
4.3808585e-09
0.00055507242
4.566181e-09
0.015090651
0.00052048818
3.7436069e-08
0.0033470445
8.742914e-09
9.1948296e-09
0.0023470201
0.032958052
0.013910401
1.5039803e-09
7.1609834e-09
1.1471281e-09
9.0653469e-10
0.00064825914
1.3862765e-08
1.3699957e-08
0.0071014871
0.010786944
0.017163072
0.0019467556
0.00082940639
0.0038026223
0.002696327
0.0042467941
0.0038058572
0.00014098887
5.4179551e-10
3.9351777e-10
3.5252153e-08
4.6917918e-10
0.0039397788
0.0058856884
0.00037033454
0.00020243378
1.9328544e-09
0.0031018485
0.010285209
0.0069677722
6.0820981e-09
2.0208928e-06
8.7929529e-06
1.9652594e-08
2.2445745e-07
5.6752662e-06
4.6256845e-08
8.7483752e-08
1.8106669e-06
2.3512113e-07
1.9875787e-08
1.3839667e-08
1.4014625e-07
1.0098237e-05
3.715852e-08
7.2339275e-06
4.9279797e-07
0.00019358752
0.003474062
0.0034726451
1.8379877e-08
2.2570516e-05
1.3042144e-06
5.3751016e-09
5.4693703e-09
5.2092335e-09
6.2587478e-05
0.0013273572
3.7323398e-09
3.7350501e-09
6.4324685e-05
6.2259967e-06
1.7970368e-09
0.01380503
0.022581646
0.015347159
4.6394247e-09
0.0029717441
0.0003514917
3.7657978e-08
0.00090878518
0.014244212
0.018224551
0.018172639
0.001938087
0.012315496
1.8173843e-09
1.8234178e-09
0.0012196014
0.00019815115
5.7656079e-05
0.0056770048
0.00015333554
0.00015594281
0.017139784
0.014442322
0.0099764
0.0098943212
0.0098917018
0.0097984862
0.0098258498
0.0060316462
9.4868837e-10
6.8507048e-10
7.3760007e-10
2.6345862e-10
0.00013391098
0.006420709
0.0065474709
0.0045125103
0.00037608929
5.4079893e-05
1.4283631e-08
0.0051141951
0.00081129554
1.563633e-06
4.5791148e-06
2.5771876e-08
5.447155e-08
5.4758058e-08
3.6239014e-05
0.0016971343
4.0851181e-08
3.866501e-08
2.2063689e-05
1.4527608e-08
1.3345349e-08
1.2332334e-08
1.2937763e-08
1.2946161e-08
1.1549118e-05
2.1837195e-06
0.0015931751
0.00045903923
0.0023076527
6.5832048e-05
0.0001480748
3.1415896e-06
5.9349662e-09
0.0074015091
0.0013198443
3.7979249e-09
3.8392407e-09
3.4953632e-09
1.4640435e-08
2.264372e-09
1.7969684e-09
1.796877e-09
0.00048013257
0.016815963
0.0010712534
4.1414926e-09
4.247247e-09
9.5955002e-05
1.0981126e-05
2.2337268e-09
0.029238432
0.029454183
2.3344807e-05
1.0803373e-09
0.0051155871
0.014382637
0.016366989
0.01646735
0.0024066487
5.7655961e-05
0.0078159128
0.0061104875
0.0016112199
0.01715648
5.8132829e-07
3.523206e-10
3.7145606e-10
0.00261913
5.442983e-09
0.00035393261
1.4215146e-08
0.0045213099
0.00010118129
4.7889026e-10
2.6345703e-10
0.002712122
4.9290065e-10
0.00085165024
0.0044537102
0.00088235445
6.8964725e-09
1.6719267e-06
1.5800937e-09
1.4343129e-09
3.4859989e-06
2.8894944e-08
2.8320848e-08
5.2854679e-08
5.2976234e-08
5.828851e-08
0.0019077348
8.6873333e-06
3.9995908e-08
2.2048309e-05
6.1611124e-06
1.1902482e-05
0.0004013776
1.9891048e-05
1.4022066e-08
1.4546574e-08
4.5880636e-06
0.0015931751
1.6878785e-08
5.0895466e-09
6.5814128e-05
3.3316735e-06
3.2359367e-06
0.00098301429
0.0076280108
0.004249877
3.3050099e-09
3.29385e-09
3.5189771e-09
2.7865192e-09
2.2914949e-09
2.2514428e-09
2.2385945e-09
2.6420562e-09
3.1457428e-09
3.4183739e-09
3.5372508e-09
0.010044802
0.0023181943
2.7864032e-09
2.4923849e-09
2.5040898e-09
2.5022394e-09
0.00057880859
1.0782847e-09
0.031971633
0.031979804
0.031976587
0.015539448
0.00060777817
0.0026087929
0.0023688784
0.0014294597
0.0013416243
0.017156366
4.9668096e-10
1.1371666e-09
5.5794753e-07
6.2923081e-10
8.1364467e-05
0.00015285581
1.4025153e-08
0.0051701679
0.0047246639
2.0230384e-06
4.3266535e-10
4.5295929e-10
4.6927876e-10
4.2931998e-10
0.0015426118
0.0011986227
6.9259079e-09
2.9179286e-07
4.2940697e-08
1.3199584e-09
1.623697e-07
8.3634521e-07
5.537182e-06
5.4313425e-08
5.5543815e-08
0.00099408906
0.0019077361
1.9610468e-05
4.8127766e-06
3.672552e-08
8.6001808e-05
0.00038832725
0.00051864535
1.5574512e-05
1.4883094e-08
1.4652499e-05
2.1596527e-08
0.0014898586
2.6931546e-09
2.6277931e-09
3.8106254e-06
6.0093204e-05
0.0052855967
0.0045315159
0.0011044409
0.0076470735
0.0076260782
0.0059212494
0.0041485386
0.0020364548
2.4523978e-09
0.0019932884
0.0020663212
0.00012250574
3.6352338e-09
0.00081351115
4.5366233e-05
0.0045292799
0.0029890922
0.0030684725
0.00053808065
0.0006221276
5.7931693e-06
1.0392874e-09
1.0359213e-09
0.01541838
0.0026869844
1.9627769e-09
2.088401e-09
0.00068418782
0.004715577
0.00083999848
4.4910542e-10
2.0935343e-10
0.0016209129
6.7310103e-06
1.0541667e-09
1.9026876e-05
4.5381339e-10
0.0010709457
0.0010754106
0.00041568549
0.00061081388
0.0018351041
0.00061494662
0.0011133772
0.00016336777
6.5006135e-10
4.8452678e-10
4.297749e-10
0.00085786696
9.2022409e-05
1.6055541e-09
1.5571541e-09
1.1912259e-09
1.6281771e-07
3.9453079e-06
1.3359854e-05
2.1635225e-06
0.00015726021
0.0015649214
0.00046744821
8.4182427e-06
9.8715122e-06
3.1493283e-07
2.9455439e-08
2.9454498e-08
0.00046302037
0.00014562412
6.9160861e-05
0.00015457394
9.5717675e-05
1.7325604e-07
5.619594e-07
1.4976635e-09
2.0473836e-09
2.0361365e-09
0.0061144065
1.8780313e-09
1.5081053e-09
0.0017728851
0.0011129603
0.00034680887
0.0046777638
0.0046912998
0.004700861
0.0046726482
0.0046674617
9.0592475e-05
3.8926193e-09
0.0022898223
0.00047178153
5.80058e-08
5.7815758e-08
0.043971597
0.044253962
0.015017207
2.1962948e-09
3.6732418e-06
1.2801047e-09
1.5513255e-09
1.8419576e-09
1.8430584e-09
0.0094552953
0.01674984
0.0021474162
4.7797678e-10
2.6585045e-10
2.0935324e-10
3.7723871e-10
6.7546152e-08
9.2456327e-10
4.4595278e-10
4.459486e-10
4.5671798e-10
0.00011729072
0.00018378717
6.5927682e-10
5.6436812e-10
0.0011918551
0.0022992216
0.00062232549
6.9262886e-10
5.5706827e-10
4.2977524e-10
0.00035307344
0.00011795702
1.6768578e-09
3.9010279e-08
4.2265106e-07
1.6452132e-07
1.6647682e-07
1.6957703e-07
9.3171504e-05
0.0010471063
0.00097560503
8.2202916e-09
8.2118853e-09
8.1226085e-09
8.099909e-09
6.9429661e-08
2.9702379e-08
3.102837e-08
5.3904152e-06
0.00026924927
2.3219653e-05
0.0014991369
1.004629e-06
1.182857e-07
1.161572e-05
1.7160035e-09
2.1804337e-09
0.00034741248
0.00021415079
2.1009608e-09
1.929701e-09
2.3694938e-09
2.5997458e-09
2.6229209e-09
2.6661424e-09
0.0023019468
4.1112198e-08
4.1081463e-08
0.00020090323
0.00065277992
1.4487733e-08
1.4346756e-08
0.00011959358
0.0079182557
1.1888642e-08
0.0096713157
1.9702879e-09
1.9532215e-09
0.00023067463
0.00023984097
1.5625219e-09
0.0048853737
0.016708647
0.016715004
0.01674984
9.1279994e-05
5.1066405e-10
2.6842025e-10
0.0055219962
4.175851e-10
5.6654432e-10
7.2875334e-10
6.8066406e-10
0.00044214677
7.2954291e-10
0.00042350364
0.0019306528
0.00022652116
7.144138e-10
7.8930538e-10
0.00047837481
8.7148433e-10
7.6410788e-10
6.233549e-10
4.2977664e-10
0.00024673324
9.7578088e-05
1.818689e-09
1.624507e-07
5.1762868e-08
8.4679878e-06
8.2203361e-05
1.6817203e-05
0.00038527526
0.0010471054
2.1090883e-08
1.2892493e-07
2.5259597e-07
1.1275143e-07
9.3348199e-09
7.8172126e-07
2.9791528e-08
3.0246332e-08
3.0323258e-08
0.00026924369
1.9028249e-05
0.0012424316
3.3702858e-05
0.00028006668
2.9408844e-05
0.00043146628
2.2407759e-05
2.8013044e-09
2.7962865e-09
2.1759816e-09
1.4775272e-09
0.00036200013
0.00035740419
9.5933977e-05
0.00021358385
2.9884996e-07
5.1759746e-06
4.5455799e-05
0.0037511668
0.0015637429
1.483998e-08
1.4932417e-08
0.00016347694
0.0082635949
0.00088312382
4.896903e-10
3.840718e-08
6.4067272e-06
9.1777533e-08
0.005934083
0.0064942839
0.002578775
0.0016693082
3.5871317e-08
0.0057251164
0.010984115
6.2166011e-10
0.0037097139
0.014439415
0.01122086
8.1796556e-10
1.6062409e-05
3.4214455e-05
0.00082544568
0.00011066272
0.001905914
0.0018722591
0.00028097857
8.7567507e-10
0.0007152007
2.6685688e-09
0.00042033031
7.9594712e-10
6.5830222e-10
5.3418264e-10
5.5749524e-10
3.7561368e-06
4.033914e-07
1.1265562e-09
1.0357584e-09
0.00011602063
0.00025515271
0.00030777349
0.0005014873
0.00016270514
8.3551423e-08
3.5449778e-08
2.5135535e-07
1.1611898e-07
4.7278101e-08
2.8917294e-08
3.1182314e-08
4.303747e-08
3.0243858e-08
0.00012839288
3.8016887e-05
2.4870472e-07
8.0840306e-06
3.8817095e-06
3.7376575e-06
0.0040526266
0.00013724053
3.2499748e-09
0.0028257527
0.004365286
0.00026525892
6.8608505e-05
0.0006330132
2.6667784e-05
0.00070033602
0.00032109318
0.00056478939
0.00070659013
0.0032132618
0.00068947033
4.1846359e-05
1.5239653e-08
1.5260557e-08
0.0055508315
0.0041798859
5.118983e-10
6.1365277e-10
8.9155132e-05
0.00027551516
1.7255523e-08
0.019141259
0.0060135976
3.6323145e-08
3.6167711e-08
3.6354276e-08
0.0039586907
0.012221608
0.013189072
0.010528943
0.0019124687
2.9333824e-05
8.3558019e-05
0.00015821938
0.00011338727
0.00032612346
7.869654e-10
8.4616449e-10
7.8435436e-10
0.0013140581
0.0031437768
0.0021224439
0.0028567203
0.0003323185
0.00076172851
1.0012106e-05
0.0004052462
9.4768623e-05
1.0959011e-09
9.8888438e-10
0.0012222579
6.9104909e-08
7.0215344e-08
0.00021545376
0.00050147877
1.4751798e-08
1.6469114e-05
0.00022823191
2.5267835e-07
6.9492417e-06
3.0651248e-08
2.9824267e-08
3.0839448e-08
1.3806434e-07
3.6702918e-05
9.058733e-07
0.00011443819
2.4879033e-07
0.00054822553
2.8206519e-05
0.00093772149
0.0024514311
0.0032934479
0.00031451518
0.005226894
0.0052435348
7.3725502e-07
1.5466231e-07
7.0513574e-05
1.2555767e-08
1.6850827e-05
5.7733016e-09
5.7637643e-09
5.7314986e-09
5.8311821e-09
7.0708205e-05
2.7762537e-06
0.012491131
0.0070896341
0.0055703839
7.4387884e-09
2.3184192e-05
3.089912e-06
3.1081353e-06
0.0005272178
1.7458781e-08
0.0051372329
0.0028210173
0.0020912038
0.0011685741
0.011805285
5.3544747e-08
0.01744615
0.0092827632
8.1399811e-05
1.949518e-09
3.9183108e-08
2.0400949e-05
0.00073671646
0.00010051345
0.00020381539
9.5621981e-10
0.00032948862
8.9043273e-10
0.0026359262
0.0023005865
0.0028037485
0.0023707568
0.0026231205
0.0026231204
0.0021267488
0.0003339418
5.2580318e-06
1.0741468e-09
0.0059098678
0.0068803446
7.3342935e-08
3.7782844e-07
0.00020929699
0.0002371544
4.4530343e-07
1.6300374e-05
0.0007461828
0.00068316424
2.9144661e-08
3.0066334e-05
7.596236e-05
3.1476965e-08
3.1506907e-08
0.0002212411
9.0651258e-07
0.00011677307
4.1906862e-07
4.2116327e-07
5.8288169e-05
6.8013358e-05
2.5595368e-07
0.0035192042
0.0035145765
5.9966469e-06
5.9966238e-06
0.0026918166
0.00096604605
4.0683117e-05
1.534268e-05
0.0003258734
1.7652481e-07
3.7011504e-05
5.7571995e-09
5.3815728e-09
0.0001553708
1.7570915e-06
0.029745787
0.029944994
0.016147659
7.6940438e-09
3.9602528e-05
8.3919907e-10
1.5894945e-05
0.00040890825
0.00093287826
4.9898915e-05
0.0079017307
0.019147198
0.014786264
0.015511665
0.00051550314
0.0015498805
2.01737e-09
1.9351685e-09
1.7944298e-09
1.941167e-09
3.5432435e-05
0.00060061171
4.4667254e-05
2.7776798e-05
0.00059637359
0.001400206
0.00045465812
2.5297958e-10
2.435021e-10
2.435021e-10
2.435021e-10
0.00074395787
0.0011412995
0.0022099702
0.00045642371
2.4748329e-05
0.00012989072
0.0009506683
0.0053606108
7.4691601e-08
7.4917948e-05
0.00010236715
2.5996313e-09
4.2122068e-07
2.2665794e-09
3.2140429e-05
0.0010553079
1.2577178e-06
0.0001572003
0.00017401462
3.9256752e-06
2.4965707e-06
1.7324864e-05
0.00018545318
2.2211048e-05
1.3925299e-08
0.0048982192
0.0049110984
2.4976741e-09
2.442026e-09
2.4428004e-09
2.4449434e-09
1.9307863e-05
0.00013216057
0.002791995
0.0027882709
0.0027876958
0.00018912417
0.00034897217
6.5871571e-05
0.00098424563
0.0028241602
5.3877012e-09