/*--------------------------------*- C++ -*----------------------------------*\
| =========                 |                                                 |
| \\      /  F ield         | OpenFOAM: The Open Source CFD Toolbox           |
|  \\    /   O peration     | Version:  2.3.0                                 |
|   \\  /    A nd           | Web:      www.OpenFOAM.org                      |
|    \\/     M anipulation  |                                                 |
\*---------------------------------------------------------------------------*/
FoamFile
{
    version     2.0;
    format      ascii;
    class       surfaceScalarField;
    location    "1.9e-05";
    object      phi;
}
// * * * * * * * * * * * * * * * * * * * * * * * * * * * * * * * * * * * * * //

dimensions      [0 3 -1 0 0 0 0];

internalField   nonuniform List<scalar> 
14825
(
1.0342982e-09
-2.0536841e-11
1.0551939e-09
-2.0895666e-11
1.0750582e-09
-1.9864371e-11
1.0956515e-09
-2.0593245e-11
1.1153264e-09
-1.9674956e-11
1.136339e-09
-2.1012588e-11
1.1558431e-09
-1.950406e-11
1.1766672e-09
-2.0824143e-11
1.1956644e-09
-1.8997167e-11
1.2164769e-09
-2.0812483e-11
1.2351756e-09
-1.8698754e-11
1.2556491e-09
-2.0473442e-11
1.2744857e-09
-1.8836565e-11
1.2939884e-09
-1.9502765e-11
1.3132275e-09
-1.9239056e-11
1.3315367e-09
-1.8309218e-11
1.3513222e-09
-1.9785473e-11
1.3684365e-09
-1.7114329e-11
1.3887851e-09
-2.034861e-11
1.4049976e-09
-1.6212496e-11
1.4255837e-09
-2.0586067e-11
1.4412769e-09
-1.5693279e-11
1.4611325e-09
-1.9855565e-11
1.4769417e-09
-1.5809159e-11
1.4953707e-09
-1.8429e-11
1.5121685e-09
-1.6797811e-11
1.5285645e-09
-1.6396023e-11
1.5463376e-09
-1.7773133e-11
1.5615306e-09
-1.5192986e-11
1.5788738e-09
-1.7343125e-11
1.5945829e-09
-1.5709137e-11
1.610061e-09
-1.547811e-11
1.6261532e-09
-1.6092227e-11
1.640659e-09
-1.4505777e-11
1.6563718e-09
-1.5712806e-11
1.6704207e-09
-1.4048858e-11
1.685551e-09
-1.5130345e-11
1.6997527e-09
-1.4201657e-11
1.7135196e-09
-1.376695e-11
1.7287269e-09
-1.5207231e-11
1.7401151e-09
-1.1388217e-11
1.7547455e-09
-1.4630417e-11
1.7668092e-09
-1.2063724e-11
1.7798555e-09
-1.3046245e-11
1.7909096e-09
-1.1054164e-11
1.8032219e-09
-1.2312324e-11
1.8145315e-09
-1.1309567e-11
1.8249046e-09
-1.0373138e-11
1.836888e-09
-1.1983339e-11
1.8457774e-09
-8.8893972e-12
1.8574455e-09
-1.1668074e-11
1.8666118e-09
-9.1663311e-12
1.8770688e-09
-1.0456961e-11
1.8869656e-09
-9.8968913e-12
1.8956191e-09
-8.6534514e-12
1.9056312e-09
-1.0012067e-11
1.9133756e-09
-7.7444282e-12
1.9218448e-09
-8.4692573e-12
1.9305408e-09
-8.6959821e-12
1.9378738e-09
-7.3329942e-12
1.9444942e-09
-6.6203978e-12
1.95149e-09
-6.9957789e-12
1.9585192e-09
-7.0292061e-12
1.964491e-09
-5.9718017e-12
1.9695956e-09
-5.1046249e-12
1.976228e-09
-6.6323959e-12
1.9812057e-09
-4.9776975e-12
1.9850695e-09
-3.8637764e-12
1.9890437e-09
-3.9741792e-12
1.9944665e-09
-5.4227882e-12
1.998177e-09
-3.7105592e-12
1.9997282e-09
-1.5511439e-12
2.0030192e-09
-3.2910393e-12
2.0063272e-09
-3.3079857e-12
-1.9213732e-12
2.86226e-09
-8.083087e-11
2.9234342e-09
-8.206992e-11
2.9819757e-09
-7.8405878e-11
3.0429567e-09
-8.1574252e-11
3.101099e-09
-7.7817192e-11
3.1632056e-09
-8.3119243e-11
3.2210481e-09
-7.7346591e-11
3.282777e-09
-8.2553021e-11
3.3396525e-09
-7.5872647e-11
3.401359e-09
-8.2518982e-11
3.4576803e-09
-7.5020055e-11
3.5185516e-09
-8.1344736e-11
3.5754578e-09
-7.5742782e-11
3.6340008e-09
-7.804577e-11
3.6919335e-09
-7.7171731e-11
3.7476258e-09
-7.4001469e-11
3.8069926e-09
-7.9152336e-11
3.8596297e-09
-6.9751427e-11
3.9207511e-09
-8.1469964e-11
3.9710119e-09
-6.6473336e-11
4.0329308e-09
-8.2504963e-11
4.082007e-09
-6.4769505e-11
4.1420467e-09
-7.989523e-11
4.1916118e-09
-6.5374303e-11
4.2480424e-09
-7.4859555e-11
4.3001743e-09
-6.8929744e-11
4.3515157e-09
-6.7737376e-11
4.4060899e-09
-7.2347316e-11
4.4544429e-09
-6.3546042e-11
4.5082765e-09
-7.1176716e-11
4.5575273e-09
-6.4959959e-11
4.607089e-09
-6.5039782e-11
4.6575372e-09
-6.6540421e-11
4.7038983e-09
-6.0866915e-11
4.7543238e-09
-6.6138246e-11
4.7991742e-09
-5.8899326e-11
4.8479475e-09
-6.3903592e-11
4.8934944e-09
-5.9748595e-11
4.9387402e-09
-5.9012739e-11
4.9865242e-09
-6.2991225e-11
5.0258651e-09
-5.0729095e-11
5.0726962e-09
-6.1461497e-11
5.1128507e-09
-5.2218213e-11
5.156117e-09
-5.63126e-11
5.1930635e-09
-4.8000641e-11
5.2343931e-09
-5.3641967e-11
5.27237e-09
-4.9286437e-11
5.3085435e-09
-4.6546628e-11
5.3481489e-09
-5.1588778e-11
5.3814159e-09
-4.2156349e-11
5.4199678e-09
-5.0219958e-11
5.4539299e-09
-4.3128416e-11
5.4899256e-09
-4.6452679e-11
5.5246112e-09
-4.4582465e-11
5.5572684e-09
-4.1310674e-11
5.5917133e-09
-4.4457017e-11
5.6213289e-09
-3.7359998e-11
5.6531159e-09
-4.0256229e-11
5.6837809e-09
-3.9361023e-11
5.7121203e-09
-3.5672422e-11
5.7383066e-09
-3.280667e-11
5.7643088e-09
-3.2997998e-11
5.7914064e-09
-3.4126811e-11
5.8159409e-09
-3.0506294e-11
5.8382272e-09
-2.7390892e-11
5.8644008e-09
-3.2805953e-11
5.886629e-09
-2.7205916e-11
5.9049459e-09
-2.2180672e-11
5.9238054e-09
-2.2833718e-11
5.9460902e-09
-2.7707588e-11
5.9647599e-09
-2.23803e-11
5.9769017e-09
-1.3692863e-11
5.9944148e-09
-2.0804139e-11
6.0113933e-09
-2.0286535e-11
-1.5207819e-11
4.3661864e-09
-1.7890774e-10
4.4653405e-09
-1.8122404e-10
4.5610225e-09
-1.7408791e-10
4.6608739e-09
-1.8142565e-10
4.7563202e-09
-1.7326349e-10
4.857768e-09
-1.8456702e-10
4.9530753e-09
-1.7265392e-10
5.0542127e-09
-1.836904e-10
5.1488062e-09
-1.7046615e-10
5.2500207e-09
-1.8373351e-10
5.3441721e-09
-1.6917138e-10
5.4445403e-09
-1.8171298e-10
5.5396009e-09
-1.7080336e-10
5.6374637e-09
-1.7590863e-10
5.7338082e-09
-1.7351617e-10
5.8281028e-09
-1.6829604e-10
5.9264269e-09
-1.7747651e-10
6.0165985e-09
-1.5992302e-10
6.1176435e-09
-1.825149e-10
6.2048227e-09
-1.5365261e-10
6.3071954e-09
-1.848776e-10
6.3930389e-09
-1.5061307e-10
6.4931922e-09
-1.8004847e-10
6.5794321e-09
-1.5161422e-10
6.6754795e-09
-1.7090697e-10
6.7645171e-09
-1.5796729e-10
6.8541892e-09
-1.5740957e-10
6.9465808e-09
-1.6473884e-10
7.0320435e-09
-1.4900873e-10
7.1244996e-09
-1.6363282e-10
7.2102977e-09
-1.507581e-10
7.2979682e-09
-1.5271026e-10
7.3858216e-09
-1.5439385e-10
7.4681253e-09
-1.4317062e-10
7.5575193e-09
-1.5553226e-10
7.6368794e-09
-1.3825939e-10
7.7238632e-09
-1.5088742e-10
7.8039465e-09
-1.3983183e-10
7.8864247e-09
-1.4149096e-10
7.9685375e-09
-1.4510407e-10
8.0425818e-09
-1.2477334e-10
8.1248487e-09
-1.4372838e-10
8.1976706e-09
-1.2504016e-10
8.2770529e-09
-1.3569489e-10
8.3458909e-09
-1.1683866e-10
8.4231967e-09
-1.3094777e-10
8.4925184e-09
-1.1860815e-10
8.562483e-09
-1.1651121e-10
8.6332112e-09
-1.2231692e-10
8.7003133e-09
-1.0925851e-10
8.7702708e-09
-1.2017739e-10
8.8372069e-09
-1.100646e-10
8.9057573e-09
-1.1500301e-10
8.9709688e-09
-1.0979403e-10
9.0375586e-09
-1.0790045e-10
9.1014293e-09
-1.0832772e-10
9.1617417e-09
-9.7672361e-11
9.2254701e-09
-1.0398469e-10
9.2844999e-09
-9.8390809e-11
9.3421428e-09
-9.3315335e-11
9.3977849e-09
-8.8448739e-11
9.4511662e-09
-8.6379268e-11
9.5069999e-09
-8.9960568e-11
9.5599542e-09
-8.3460504e-11
9.6093838e-09
-7.6820557e-11
9.6630732e-09
-8.6495313e-11
9.7110934e-09
-7.5226174e-11
9.7541527e-09
-6.5239954e-11
9.7983402e-09
-6.7021181e-11
9.846118e-09
-7.5485434e-11
9.8897604e-09
-6.6022678e-11
9.9242144e-09
-4.8146866e-11
9.9658576e-09
-6.2447351e-11
1.0005316e-08
-5.9744545e-11
-5.0498034e-11
5.59019e-09
-3.1262697e-10
5.72532e-09
-3.1635408e-10
5.8566931e-09
-3.0546102e-10
5.9936234e-09
-3.183559e-10
6.1252259e-09
-3.0486599e-10
6.2637569e-09
-3.2309809e-10
6.3958984e-09
-3.0479542e-10
6.5344011e-09
-3.2219302e-10
6.6667118e-09
-3.0277687e-10
6.805825e-09
-3.2284668e-10
6.9378444e-09
-3.0119086e-10
7.076687e-09
-3.2055554e-10
7.2097284e-09
-3.0384478e-10
7.3467159e-09
-3.1289615e-10
7.4810126e-09
-3.0781281e-10
7.6147538e-09
-3.0203732e-10
7.7512969e-09
-3.140196e-10
7.8809554e-09
-2.8958153e-10
8.0203722e-09
-3.2193162e-10
8.1472666e-09
-2.8054705e-10
8.2879671e-09
-3.2557812e-10
8.4141796e-09
-2.7682558e-10
8.5536096e-09
-3.1947849e-10
8.6791307e-09
-2.7713528e-10
8.816305e-09
-3.0808123e-10
8.9432282e-09
-2.848905e-10
9.0745456e-09
-2.8872697e-10
9.2050009e-09
-2.9519412e-10
9.3309621e-09
-2.7496993e-10
9.4634574e-09
-2.9612813e-10
9.5886799e-09
-2.7598062e-10
9.7173791e-09
-2.8140946e-10
9.8455268e-09
-2.8254161e-10
9.9674014e-09
-2.6504522e-10
1.0098889e-08
-2.8701968e-10
1.0216044e-08
-2.5541479e-10
1.0344575e-08
-2.7941776e-10
1.0461429e-08
-2.5668639e-10
1.0585801e-08
-2.6586252e-10
1.070247e-08
-2.6177354e-10
1.0818332e-08
-2.4063472e-10
1.0938656e-08
-2.6405316e-10
1.105048e-08
-2.3686424e-10
1.1169575e-08
-2.5478971e-10
1.1275864e-08
-2.2312709e-10
1.1393438e-08
-2.4852183e-10
1.1499563e-08
-2.247333e-10
1.1612067e-08
-2.2901548e-10
1.1717876e-08
-2.281254e-10
1.182646e-08
-2.1784325e-10
1.1930486e-08
-2.2420283e-10
1.2038177e-08
-2.1775588e-10
1.2144965e-08
-2.2179128e-10
1.2245444e-08
-2.1027276e-10
1.2354224e-08
-2.1668019e-10
1.2450913e-08
-2.0501681e-10
1.2550647e-08
-1.9740678e-10
1.2652521e-08
-2.0585865e-10
1.2745969e-08
-1.9183801e-10
1.2840335e-08
-1.8768186e-10
1.2933566e-08
-1.816802e-10
1.3021915e-08
-1.747276e-10
1.3113441e-08
-1.8148686e-10
1.3203018e-08
-1.7303696e-10
1.3288932e-08
-1.6273497e-10
1.3378743e-08
-1.763062e-10
1.3460561e-08
-1.5704469e-10
1.3538636e-08
-1.4331419e-10
1.3617782e-08
-1.4616747e-10
1.3697974e-08
-1.5567781e-10
1.3773537e-08
-1.4158583e-10
1.3840726e-08
-1.1533561e-10
1.3915017e-08
-1.3673781e-10
1.3987699e-08
-1.3242644e-10
-1.1769521e-10
6.5726331e-09
-4.7948872e-10
6.7426272e-09
-4.8634827e-10
6.9079099e-09
-4.7074371e-10
7.0802439e-09
-4.9068988e-10
7.2466518e-09
-4.7127383e-10
7.4197786e-09
-4.9622495e-10
7.5879854e-09
-4.730022e-10
7.7619172e-09
-4.9612488e-10
7.9314712e-09
-4.7233087e-10
8.1072473e-09
-4.9862276e-10
8.2768319e-09
-4.7077547e-10
8.4530151e-09
-4.9673865e-10
8.6236164e-09
-4.7444609e-10
8.799257e-09
-4.8853681e-10
8.9709752e-09
-4.7953099e-10
9.1445712e-09
-4.7563328e-10
9.3183824e-09
-4.8783084e-10
9.4886393e-09
-4.5983847e-10
9.6649927e-09
-4.9828499e-10
9.8339364e-09
-4.4949071e-10
1.0011323e-08
-5.0296477e-10
1.0180091e-08
-4.4559356e-10
1.0357567e-08
-4.9695405e-10
1.052507e-08
-4.4463847e-10
1.0703839e-08
-4.868503e-10
1.0870392e-08
-4.5144412e-10
1.104518e-08
-4.6351469e-10
1.1214567e-08
-4.6458108e-10
1.1384012e-08
-4.4441499e-10
1.1556926e-08
-4.6904209e-10
1.17246e-08
-4.4365426e-10
1.1895232e-08
-4.5204202e-10
1.2066499e-08
-4.5380776e-10
1.2230108e-08
-4.2865511e-10
1.240557e-08
-4.6248079e-10
1.2562977e-08
-4.1282248e-10
1.273469e-08
-4.5113016e-10
1.2891006e-08
-4.1300287e-10
1.3060219e-08
-4.3507586e-10
1.3212433e-08
-4.1398753e-10
1.3376804e-08
-4.0500575e-10
1.353604e-08
-4.2328842e-10
1.3693966e-08
-3.9479035e-10
1.3855808e-08
-4.1663199e-10
1.4010459e-08
-3.7777812e-10
1.417281e-08
-4.1087224e-10
1.4322522e-08
-3.7444584e-10
1.4478801e-08
-3.8529451e-10
1.4623088e-08
-3.7241203e-10
1.4779793e-08
-3.7454876e-10
1.4923177e-08
-3.6758678e-10
1.5077584e-08
-3.7216243e-10
1.5222799e-08
-3.6700623e-10
1.5366082e-08
-3.5355646e-10
1.5521722e-08
-3.7231962e-10
1.5655147e-08
-3.3844233e-10
1.5802686e-08
-3.4494595e-10
1.5945779e-08
-3.4895151e-10
1.6080267e-08
-3.2632524e-10
1.6218236e-08
-3.2565138e-10
1.6355169e-08
-3.1861341e-10
1.64852e-08
-3.04758e-10
1.6619945e-08
-3.1623249e-10
1.6752731e-08
-3.058227e-10
1.688399e-08
-2.9399359e-10
1.7016213e-08
-3.0852958e-10
1.7137801e-08
-2.7863265e-10
1.7257731e-08
-2.6324457e-10
1.7382702e-08
-2.711378e-10
1.7504261e-08
-2.7723696e-10
1.7620956e-08
-2.5828049e-10
1.7731247e-08
-2.2562738e-10
1.7846406e-08
-2.5189671e-10
1.7958883e-08
-2.4490308e-10
-2.2588634e-10
7.3475587e-09
-6.7720089e-10
7.5512306e-09
-6.9002015e-10
7.7486844e-09
-6.6819751e-10
7.9547218e-09
-6.9672726e-10
8.1547199e-09
-6.7127193e-10
8.3602291e-09
-7.0173415e-10
8.5635905e-09
-6.7636355e-10
8.7709769e-09
-7.0351131e-10
8.9769385e-09
-6.7829252e-10
9.1880194e-09
-7.0970362e-10
9.394447e-09
-6.7720305e-10
9.6072136e-09
-7.095053e-10
9.8142654e-09
-6.8149789e-10
1.0028351e-08
-7.0262279e-10
1.0236159e-08
-6.8733893e-10
1.0449833e-08
-6.8930705e-10
1.065994e-08
-6.9793729e-10
1.0871566e-08
-6.7146493e-10
1.1083985e-08
-7.1070402e-10
1.1295551e-08
-6.6105661e-10
1.1508727e-08
-7.1614055e-10
1.1721691e-08
-6.5855752e-10
1.193645e-08
-7.1171337e-10
1.2147809e-08
-6.5599737e-10
1.2367145e-08
-7.0618636e-10
1.2576501e-08
-6.6080008e-10
1.2794704e-08
-6.817175e-10
1.3005069e-08
-6.7494675e-10
1.3219756e-08
-6.591014e-10
1.3432728e-08
-6.8201456e-10
1.3645306e-08
-6.5623215e-10
1.3856852e-08
-6.6358825e-10
1.4072134e-08
-6.6908891e-10
1.4279056e-08
-6.355771e-10
1.4498317e-08
-6.8174231e-10
1.4700183e-08
-6.1468862e-10
1.4916653e-08
-6.6759996e-10
1.5118808e-08
-6.1515806e-10
1.5334692e-08
-6.5095939e-10
1.5526668e-08
-6.0596384e-10
1.574347e-08
-6.2180733e-10
1.5942295e-08
-6.2211416e-10
1.6152537e-08
-6.0503163e-10
1.6356588e-08
-6.2068345e-10
1.6566786e-08
-5.8797591e-10
1.6773923e-08
-6.1800976e-10
1.6975734e-08
-5.7625594e-10
1.7182829e-08
-5.9239026e-10
1.7373883e-08
-5.634657e-10
1.7579201e-08
-5.798666e-10
1.7760429e-08
-5.4881496e-10
1.7967043e-08
-5.7877646e-10
1.8153344e-08
-5.5330702e-10
1.8349919e-08
-5.5013139e-10
1.855034e-08
-5.7274049e-10
1.8729867e-08
-5.1796954e-10
1.8931248e-08
-5.4632743e-10
1.9118685e-08
-5.3638869e-10
1.9301006e-08
-5.0864598e-10
1.9489486e-08
-5.1413107e-10
1.9673501e-08
-5.0262874e-10
1.9851896e-08
-4.8315252e-10
2.0034668e-08
-4.9900483e-10
2.0215243e-08
-4.8639803e-10
2.0399295e-08
-4.7804492e-10
2.0582955e-08
-4.9218933e-10
2.0753612e-08
-4.4928987e-10
2.0925244e-08
-4.3487705e-10
2.1101318e-08
-4.4721168e-10
2.1266633e-08
-4.4255202e-10
2.1427937e-08
-4.1958407e-10
2.1591817e-08
-3.8950804e-10
2.1761549e-08
-4.2162809e-10
2.1922288e-08
-4.0564253e-10
-3.8342395e-10
7.9458763e-09
-9.0484065e-10
8.1795418e-09
-9.2368561e-10
8.4088604e-09
-8.9751613e-10
8.6456326e-09
-9.3349948e-10
8.8788959e-09
-9.0453519e-10
9.1148311e-09
-9.3766937e-10
9.3529535e-09
-9.1448593e-10
9.5911849e-09
-9.4174271e-10
9.8329018e-09
-9.2000947e-10
1.0077052e-08
-9.5385348e-10
1.0318885e-08
-9.190364e-10
1.056788e-08
-9.5850043e-10
1.0809319e-08
-9.2293676e-10
1.1062127e-08
-9.5543107e-10
1.1304513e-08
-9.2972441e-10
1.1558251e-08
-9.4304553e-10
1.1803661e-08
-9.4334733e-10
1.2057012e-08
-9.248153e-10
1.2305037e-08
-9.5872975e-10
1.2559534e-08
-9.1555299e-10
1.2809038e-08
-9.6564489e-10
1.3065765e-08
-9.1528413e-10
1.3317804e-08
-9.6375241e-10
1.3574594e-08
-9.1278766e-10
1.3832422e-08
-9.6401409e-10
1.408714e-08
-9.155184e-10
1.4347254e-08
-9.4183115e-10
1.4601141e-08
-9.2883368e-10
1.4861092e-08
-9.1905256e-10
1.5114333e-08
-9.3525541e-10
1.5373828e-08
-9.157278e-10
1.5625661e-08
-9.1542089e-10
1.5886157e-08
-9.2958515e-10
1.6138705e-08
-8.8812518e-10
1.6401493e-08
-9.4452972e-10
1.6652005e-08
-8.6520088e-10
1.6914483e-08
-9.3007807e-10
1.7168465e-08
-8.6913989e-10
1.7431613e-08
-9.1410756e-10
1.7671714e-08
-8.4606425e-10
1.7944793e-08
-8.948871e-10
1.8185256e-08
-8.6257719e-10
1.8451941e-08
-8.717159e-10
1.8695323e-08
-8.6406617e-10
1.8963982e-08
-8.56635e-10
1.9209719e-08
-8.6374658e-10
1.94676e-08
-8.3413646e-10
1.9722438e-08
-8.4722873e-10
1.9968647e-08
-8.0967446e-10
2.0227528e-08
-8.3874726e-10
2.0461208e-08
-7.8249565e-10
2.0722227e-08
-8.3979468e-10
2.0947939e-08
-7.790195e-10
2.120607e-08
-8.0826211e-10
2.1447403e-08
-8.1407368e-10
2.1686455e-08
-7.5702176e-10
2.1946779e-08
-8.0665109e-10
2.2182838e-08
-7.7244823e-10
2.2420178e-08
-7.4598574e-10
2.2664656e-08
-7.5860939e-10
2.2900021e-08
-7.3799346e-10
2.3132699e-08
-7.1583026e-10
2.3369843e-08
-7.3614935e-10
2.3599892e-08
-7.1644645e-10
2.3835624e-08
-7.1377675e-10
2.4074561e-08
-7.311265e-10
2.4300257e-08
-6.7498605e-10
2.4532616e-08
-6.6723641e-10
2.4771261e-08
-6.8585588e-10
2.4996688e-08
-6.6797944e-10
2.5215371e-08
-6.3826724e-10
2.5434239e-08
-6.0837548e-10
2.5656141e-08
-6.4353069e-10
2.5875852e-08
-6.2535342e-10
-5.9750166e-10
8.3939726e-09
-1.1621063e-09
8.651563e-09
-1.1812761e-09
8.9144843e-09
-1.1604374e-09
9.1763676e-09
-1.1953829e-09
9.4443516e-09
-1.1725192e-09
9.7076169e-09
-1.2009347e-09
9.9806992e-09
-1.1875682e-09
1.0247315e-08
-1.2083582e-09
1.0524079e-08
-1.1967739e-09
1.0798814e-08
-1.2285884e-09
1.1074715e-08
-1.1949376e-09
1.1358661e-08
-1.2424458e-09
1.1633089e-08
-1.1973649e-09
1.1924174e-08
-1.2465161e-09
1.2200259e-08
-1.2058095e-09
1.2494217e-08
-1.2370034e-09
1.2774407e-08
-1.2235376e-09
1.3070116e-08
-1.2205245e-09
1.335362e-08
-1.2422339e-09
1.3651087e-08
-1.21302e-09
1.3937803e-08
-1.2523606e-09
1.4237214e-08
-1.2146947e-09
1.452748e-08
-1.2540191e-09
1.4829197e-08
-1.2145041e-09
1.5124885e-08
-1.2597021e-09
1.5426247e-08
-1.2168808e-09
1.5724966e-08
-1.24055e-09
1.60251e-08
-1.2289679e-09
1.6328312e-08
-1.2222642e-09
1.6625128e-08
-1.2320712e-09
1.6931978e-08
-1.2225777e-09
1.7227116e-08
-1.2105594e-09
1.7534938e-08
-1.2374075e-09
1.7836148e-08
-1.1893347e-09
1.8143635e-08
-1.2520167e-09
1.8445647e-08
-1.167213e-09
1.8755222e-08
-1.2396534e-09
1.9063026e-08
-1.1769442e-09
1.937144e-08
-1.2225215e-09
1.9665046e-08
-1.1396695e-09
1.9990807e-08
-1.2206488e-09
2.0275948e-08
-1.1477175e-09
2.0600817e-08
-1.1965858e-09
2.0885805e-08
-1.149054e-09
2.1216626e-08
-1.1874553e-09
2.1503378e-08
-1.1504985e-09
2.1821769e-08
-1.1525275e-09
2.2119443e-08
-1.1449033e-09
2.242551e-08
-1.1157418e-09
2.2731678e-08
-1.1449149e-09
2.3025453e-08
-1.0762701e-09
2.334266e-08
-1.1570023e-09
2.3624432e-08
-1.0607909e-09
2.3949127e-08
-1.1329578e-09
2.4227786e-08
-1.0927328e-09
2.4536461e-08
-1.0656967e-09
2.4846318e-08
-1.1165075e-09
2.5133216e-08
-1.0593466e-09
2.5435078e-08
-1.0478474e-09
2.5739116e-08
-1.0626478e-09
2.6030049e-08
-1.0289263e-09
2.6319925e-08
-1.0057064e-09
2.6615565e-08
-1.0317892e-09
2.6904321e-08
-1.0052026e-09
2.7202081e-08
-1.0115367e-09
2.7495715e-08
-1.0247601e-09
2.7778464e-08
-9.5773561e-10
2.8067215e-08
-9.5598685e-10
2.836443e-08
-9.8307156e-10
2.8647974e-08
-9.5152312e-10
2.8931897e-08
-9.2218963e-10
2.9221903e-08
-8.9838235e-10
2.9507121e-08
-9.2874868e-10
2.977806e-08
-8.9629218e-10
-8.7212258e-10
8.7116071e-09
-1.4460054e-09
8.9903802e-09
-1.4600492e-09
9.2866573e-09
-1.4567144e-09
9.5689348e-09
-1.4776604e-09
9.8727232e-09
-1.4763076e-09
1.0159621e-08
-1.4878324e-09
1.0467662e-08
-1.4956095e-09
1.0761464e-08
-1.5021599e-09
1.1071972e-08
-1.5072816e-09
1.137632e-08
-1.5329365e-09
1.1686166e-08
-1.5047841e-09
1.2002268e-08
-1.5585479e-09
1.2311176e-08
-1.5062726e-09
1.263756e-08
-1.5728996e-09
1.2948542e-08
-1.5167915e-09
1.3281353e-08
-1.5698146e-09
1.3596545e-08
-1.5387302e-09
1.3934199e-08
-1.5581783e-09
1.4253048e-08
-1.5610823e-09
1.4593595e-08
-1.5535677e-09
1.491731e-08
-1.5760757e-09
1.5258429e-08
-1.5558137e-09
1.5587562e-08
-1.5831515e-09
1.5931955e-08
-1.5588975e-09
1.6266438e-08
-1.5941851e-09
1.6613026e-08
-1.5634681e-09
1.6951038e-08
-1.5785619e-09
1.7299099e-08
-1.5770295e-09
1.7642476e-08
-1.5656413e-09
1.798931e-08
-1.5789053e-09
1.83388e-08
-1.5720671e-09
1.8683694e-08
-1.5554537e-09
1.9037573e-08
-1.591287e-09
1.9388862e-08
-1.5406237e-09
1.9742273e-08
-1.6054271e-09
2.0095032e-08
-1.5199723e-09
2.0453959e-08
-1.5985798e-09
2.0811331e-08
-1.5343161e-09
2.1165233e-08
-1.5764235e-09
2.1516512e-08
-1.4909487e-09
2.1888388e-08
-1.5925251e-09
2.2224953e-08
-1.4842822e-09
2.260225e-08
-1.5738832e-09
2.2937837e-08
-1.4846405e-09
2.3326215e-08
-1.5758337e-09
2.3658277e-08
-1.4825601e-09
2.4038478e-08
-1.5327289e-09
2.438331e-08
-1.4897349e-09
2.4754317e-08
-1.4867487e-09
2.5103342e-08
-1.4939398e-09
2.5460802e-08
-1.4337306e-09
2.581769e-08
-1.5138904e-09
2.6165577e-08
-1.4086781e-09
2.6546513e-08
-1.5138932e-09
2.687042e-08
-1.4166404e-09
2.7260368e-08
-1.4556442e-09
2.7606027e-08
-1.4621665e-09
2.7947656e-08
-1.4009759e-09
2.8303586e-08
-1.4037774e-09
2.8671139e-08
-1.4302003e-09
2.9016443e-08
-1.3742306e-09
2.9363676e-08
-1.3529395e-09
2.9713558e-08
-1.3816713e-09
3.0059058e-08
-1.3507026e-09
3.0416957e-08
-1.3694355e-09
3.07673e-08
-1.3751031e-09
3.1110187e-08
-1.3006233e-09
3.1454249e-08
-1.3000489e-09
3.1810656e-08
-1.3394786e-09
3.2146736e-08
-1.2876026e-09
3.2482391e-08
-1.2578442e-09
3.2833211e-08
-1.2492026e-09
3.3175365e-08
-1.270903e-09
3.351002e-08
-1.2309468e-09
-1.2060419e-09
8.9153202e-09
-1.7505455e-09
9.2196157e-09
-1.7643447e-09
9.542361e-09
-1.7794597e-09
9.8482104e-09
-1.7835097e-09
1.0183136e-08
-1.811233e-09
1.0494216e-08
-1.7989126e-09
1.0835229e-08
-1.836622e-09
1.1155942e-08
-1.8228739e-09
1.149905e-08
-1.8503886e-09
1.1832559e-08
-1.8664463e-09
1.2176597e-08
-1.8488221e-09
1.2522121e-08
-1.9040712e-09
1.2868099e-08
-1.8522506e-09
1.3224818e-08
-1.9296192e-09
1.3573296e-08
-1.8652696e-09
1.394064e-08
-1.9371583e-09
1.4291636e-08
-1.8897257e-09
1.4668191e-08
-1.9347339e-09
1.5021991e-08
-1.9148821e-09
1.5403903e-08
-1.9354803e-09
1.576359e-08
-1.9357618e-09
1.6145471e-08
-1.9376956e-09
1.65138e-08
-1.9514798e-09
1.6898888e-08
-1.9439858e-09
1.7275512e-08
-1.9708091e-09
1.7662813e-08
-1.9507692e-09
1.8044847e-08
-1.9605956e-09
1.8438568e-08
-1.9707503e-09
1.882231e-08
-1.949384e-09
1.9222166e-08
-1.9787608e-09
1.9607581e-08
-1.9574823e-09
2.0008668e-08
-1.9565406e-09
2.0402332e-08
-1.9849505e-09
2.0803773e-08
-1.9420646e-09
2.1200646e-08
-2.0023007e-09
2.160325e-08
-1.9225767e-09
2.2013716e-08
-2.0090449e-09
2.2411715e-08
-1.9323159e-09
2.2817495e-08
-1.9822027e-09
2.322414e-08
-1.8975941e-09
2.3635299e-08
-2.003684e-09
2.4030548e-08
-1.8795316e-09
2.4448303e-08
-1.9916377e-09
2.4840878e-08
-1.8772161e-09
2.527539e-08
-2.0103454e-09
2.5652601e-08
-1.8597713e-09
2.6087619e-08
-1.9677468e-09
2.6474743e-08
-1.8768588e-09
2.6904557e-08
-1.9165623e-09
2.7296592e-08
-1.885975e-09
2.7721761e-08
-1.8589e-09
2.8099378e-08
-1.8915074e-09
2.8524707e-08
-1.8340063e-09
2.8923909e-08
-1.9130954e-09
2.9296499e-08
-1.7892306e-09
2.9761169e-08
-1.9203147e-09
3.0132275e-08
-1.8332716e-09
3.0532524e-08
-1.8012253e-09
3.0930252e-08
-1.801505e-09
3.1348614e-08
-1.848563e-09
3.1735035e-08
-1.7606514e-09
3.2136213e-08
-1.7541176e-09
3.2529212e-08
-1.7746697e-09
3.2923322e-08
-1.7448128e-09
3.333889e-08
-1.7850038e-09
3.3732503e-08
-1.7687164e-09
3.4144125e-08
-1.7122448e-09
3.4541293e-08
-1.6972174e-09
3.4945993e-08
-1.7441781e-09
3.532253e-08
-1.6641397e-09
3.5705757e-08
-1.6410715e-09
3.6115187e-08
-1.6586321e-09
3.6500164e-08
-1.6558802e-09
3.6891886e-08
-1.6226689e-09
-1.5909555e-09
9.0250539e-09
-2.0726911e-09
9.3594008e-09
-2.0986916e-09
9.6999896e-09
-2.1200485e-09
1.0037455e-08
-2.1209753e-09
1.0392986e-08
-2.1667636e-09
1.073488e-08
-2.1408071e-09
1.1101874e-08
-2.2036157e-09
1.145093e-08
-2.1719299e-09
1.1824666e-08
-2.224125e-09
1.2185098e-08
-2.2268779e-09
1.2563216e-08
-2.2269398e-09
1.2935081e-08
-2.275937e-09
1.3318479e-08
-2.2356477e-09
1.370122e-08
-2.3123609e-09
1.4088678e-08
-2.252727e-09
1.44852e-08
-2.3336802e-09
1.4874014e-08
-2.27854e-09
1.5284142e-08
-2.3448618e-09
1.567485e-08
-2.3055906e-09
1.6094194e-08
-2.3548242e-09
1.6491472e-08
-2.3330397e-09
1.6911896e-08
-2.358119e-09
1.7319895e-08
-2.3594787e-09
1.7746089e-08
-2.3701801e-09
1.8164297e-08
-2.3890173e-09
1.8591372e-08
-2.3778442e-09
1.901855e-08
-2.3877737e-09
1.9452699e-08
-2.4048993e-09
1.987938e-08
-2.3760654e-09
2.0326908e-08
-2.4262883e-09
2.0746015e-08
-2.3765894e-09
2.1200724e-08
-2.41125e-09
2.1629757e-08
-2.4139835e-09
2.2078819e-08
-2.3911263e-09
2.2508803e-08
-2.4322843e-09
2.2965667e-08
-2.379441e-09
2.3416052e-08
-2.4594293e-09
2.3845252e-08
-2.3615161e-09
2.4304054e-08
-2.4410046e-09
2.4753487e-08
-2.3470277e-09
2.5192321e-08
-2.4425181e-09
2.564619e-08
-2.3334e-09
2.6083016e-08
-2.4284638e-09
2.6531551e-08
-2.3257513e-09
2.6994477e-08
-2.4732712e-09
2.7407242e-08
-2.2725366e-09
2.7882071e-08
-2.4425754e-09
2.8307136e-08
-2.3019238e-09
2.8779092e-08
-2.3885181e-09
2.9200065e-08
-2.3069489e-09
2.9682632e-08
-2.3414663e-09
3.005703e-08
-2.2659059e-09
3.0572574e-08
-2.3495506e-09
3.0953271e-08
-2.2937922e-09
3.1380572e-08
-2.2165315e-09
3.1898235e-08
-2.4379778e-09
3.2256964e-08
-2.1920003e-09
3.2711468e-08
-2.2557293e-09
3.3127238e-08
-2.2172754e-09
3.3614691e-08
-2.3360158e-09
3.4024132e-08
-2.1700926e-09
3.4469381e-08
-2.199366e-09
3.4906372e-08
-2.2116608e-09
3.5338989e-08
-2.17743e-09
3.5812264e-08
-2.2582789e-09
3.621108e-08
-2.1675325e-09
3.6676539e-08
-2.1777031e-09
3.7074259e-08
-2.0949378e-09
3.753752e-08
-2.2074391e-09
3.7901717e-08
-2.0283364e-09
3.8269396e-08
-2.0087503e-09
3.8730471e-08
-2.1197077e-09
3.9085363e-08
-2.0107716e-09
3.9360138e-08
-1.8974442e-09
-1.8661165e-09
9.0627846e-09
-2.4166377e-09
9.4220397e-09
-2.4579467e-09
9.7800773e-09
-2.478086e-09
1.0148567e-08
-2.4894646e-09
1.0518192e-08
-2.5363886e-09
1.0895331e-08
-2.5179462e-09
1.1277989e-08
-2.5862736e-09
1.1661012e-08
-2.5549531e-09
1.205679e-08
-2.6199034e-09
1.2446493e-08
-2.6165802e-09
1.2854079e-08
-2.6345258e-09
1.3252113e-08
-2.6739718e-09
1.3670529e-08
-2.6540634e-09
1.4078235e-08
-2.7200672e-09
1.4504817e-08
-2.6793087e-09
1.4926968e-08
-2.7558314e-09
1.5357903e-08
-2.7094748e-09
1.5794725e-08
-2.7816844e-09
1.6228821e-08
-2.7396866e-09
1.6678515e-08
-2.8045177e-09
1.7119532e-08
-2.7740565e-09
1.7571227e-08
-2.8098146e-09
1.8022847e-08
-2.8110985e-09
1.8485168e-08
-2.8325011e-09
1.8941712e-08
-2.845561e-09
1.9407567e-08
-2.8436991e-09
1.9871745e-08
-2.8519522e-09
2.034266e-08
-2.8758142e-09
2.0805369e-08
-2.8387747e-09
2.1291446e-08
-2.9123645e-09
2.1739934e-08
-2.8250776e-09
2.2230839e-08
-2.9021554e-09
2.2694992e-08
-2.8781367e-09
2.3170865e-08
-2.8669989e-09
2.3624829e-08
-2.8862484e-09
2.4125584e-08
-2.8801956e-09
2.4597627e-08
-2.931473e-09
2.5040011e-08
-2.8038995e-09
2.554428e-08
-2.9452735e-09
2.6013122e-08
-2.8158702e-09
2.646797e-08
-2.8973665e-09
2.6975134e-08
-2.8405639e-09
2.7396322e-08
-2.8496517e-09
2.7903454e-08
-2.8328829e-09
2.8358007e-08
-2.9278248e-09
2.8773386e-08
-2.6879153e-09
2.9298005e-08
-2.9671941e-09
2.9760452e-08
-2.764371e-09
3.0267635e-08
-2.8957013e-09
3.0713278e-08
-2.7525912e-09
3.123747e-08
-2.8656585e-09
3.1517874e-08
-2.5463099e-09
3.2138493e-08
-2.9701701e-09
3.2344959e-08
-2.5002575e-09
3.2552674e-08
-2.4242471e-09
3.3140449e-08
-3.0257524e-09
3.3039433e-08
-2.0909843e-09
3.2713085e-08
-1.9293816e-09
3.2716919e-08
-2.2211096e-09
3.3629385e-08
-3.2484816e-09
3.3452781e-08
-1.9934887e-09
3.3667269e-08
-2.4138536e-09
3.4086228e-08
-2.6306197e-09
3.4129562e-08
-2.2207642e-09
3.4455141e-08
-2.583858e-09
3.4577734e-08
-2.2901249e-09
3.4768176e-08
-2.3681456e-09
3.4358659e-08
-1.6854209e-09
3.477294e-08
-2.6217198e-09
3.520092e-08
-2.4563167e-09
3.5351897e-08
-2.1597273e-09
3.5565576e-08
-2.3333865e-09
3.5788336e-08
-2.2335322e-09
3.5476324e-08
-1.5854324e-09
-1.4604124e-09
9.0417358e-09
-2.7870232e-09
9.414281e-09
-2.8304919e-09
9.7968216e-09
-2.8606266e-09
1.0183795e-08
-2.8764376e-09
1.0573742e-08
-2.9263364e-09
1.0978003e-08
-2.9222068e-09
1.1376551e-08
-2.9848218e-09
1.1794156e-08
-2.972558e-09
1.2204409e-08
-3.0301562e-09
1.2631067e-08
-3.0432379e-09
1.305733e-08
-3.0607891e-09
1.3491357e-08
-3.1079991e-09
1.3934853e-08
-3.0975592e-09
1.4376869e-08
-3.1620829e-09
1.4834399e-08
-3.1368386e-09
1.5288132e-08
-3.2095645e-09
1.5757526e-08
-3.1788695e-09
1.6219939e-08
-3.2440968e-09
1.6697885e-08
-3.2176323e-09
1.7171678e-08
-3.2783115e-09
1.7657998e-08
-3.2603762e-09
1.812884e-08
-3.2806567e-09
1.8626192e-08
-3.3084508e-09
1.9106123e-08
-3.3124312e-09
1.9601325e-08
-3.3407631e-09
2.0085131e-08
-3.3275053e-09
2.0581442e-08
-3.3482634e-09
2.1068515e-08
-3.3628876e-09
2.1555575e-08
-3.3258338e-09
2.2064929e-08
-3.4217186e-09
2.2519851e-08
-3.2800001e-09
2.3033663e-08
-3.4159674e-09
2.3521327e-08
-3.3658007e-09
2.3996363e-08
-3.3420346e-09
2.4466127e-08
-3.3560124e-09
2.4983964e-08
-3.3980328e-09
2.5435409e-08
-3.3829176e-09
2.586942e-08
-3.2379105e-09
2.6470982e-08
-3.546836e-09
2.6898114e-08
-3.243002e-09
2.7384471e-08
-3.3837231e-09
2.7851538e-08
-3.3076311e-09
2.814937e-08
-3.1474835e-09
2.8482562e-08
-3.1660747e-09
2.8719586e-08
-3.1648497e-09
2.7694472e-08
-1.6628005e-09
2.8396549e-08
-3.6692713e-09
2.8673947e-08
-3.0417695e-09
2.8952001e-08
-3.1737549e-09
2.9152896e-08
-2.9534868e-09
2.9086345e-08
-2.799107e-09
2.8880353e-08
-2.3403178e-09
2.8856917e-08
-2.9467345e-09
2.8380534e-08
-2.0238739e-09
2.7509189e-08
-1.5529028e-09
2.6965858e-08
-2.4824209e-09
2.6292522e-08
-1.4176489e-09
2.5810079e-08
-1.4469379e-09
2.4695792e-08
-1.1068224e-09
2.4239865e-08
-2.7925546e-09
2.3144885e-08
-8.9850895e-10
2.1298151e-08
-5.671195e-10
2.0530379e-08
-1.8628484e-09
1.9240826e-08
-9.3121123e-10
1.7854926e-08
-1.1979574e-09
1.8640785e-08
-3.0759846e-09
1.8075906e-08
-1.8032663e-09
1.4258993e-08
2.1314926e-09
1.5030098e-08
-3.3928248e-09
1.921705e-08
-6.6432688e-09
1.986662e-08
-2.8092969e-09
1.835165e-08
-8.1841692e-10
1.822145e-08
-2.1033321e-09
1.7003626e-08
-3.6760841e-10
-1.8531433e-10
8.9628151e-09
-3.1783328e-09
9.34658e-09
-3.2142568e-09
9.7546231e-09
-3.2686698e-09
1.015283e-08
-3.2746441e-09
1.0571329e-08
-3.3448353e-09
1.099046e-08
-3.3413379e-09
1.1417723e-08
-3.4120846e-09
1.1856292e-08
-3.411127e-09
1.229226e-08
-3.4661249e-09
1.2747623e-08
-3.4986003e-09
1.3196707e-08
-3.5098732e-09
1.3667001e-08
-3.5782938e-09
1.4131108e-08
-3.5616663e-09
1.4614689e-08
-3.645664e-09
1.509018e-08
-3.6123295e-09
1.5586398e-08
-3.7057819e-09
1.6075424e-08
-3.6678953e-09
1.6572844e-08
-3.7415172e-09
1.7072244e-08
-3.7170322e-09
1.7575165e-08
-3.7812323e-09
1.8081178e-08
-3.7663898e-09
1.8570123e-08
-3.7696011e-09
1.9085002e-08
-3.8233302e-09
1.9574135e-08
-3.8015639e-09
2.0082329e-08
-3.8489569e-09
2.0563934e-08
-3.8091103e-09
2.1080512e-08
-3.8648416e-09
2.1555511e-08
-3.8378866e-09
2.2055066e-08
-3.8253893e-09
2.2558082e-08
-3.9247343e-09
2.2997353e-08
-3.7192712e-09
2.3553729e-08
-3.9723438e-09
2.4033354e-08
-3.8454254e-09
2.4403619e-08
-3.7122998e-09
2.480384e-08
-3.7562333e-09
2.4534443e-08
-3.1286357e-09
2.5278274e-08
-4.1267482e-09
2.4916613e-08
-2.8762498e-09
2.5479242e-08
-4.1094647e-09
2.5016994e-08
-2.7807541e-09
2.5311529e-08
-3.6782586e-09
2.4728113e-08
-2.7242152e-09
2.4433486e-08
-2.8528565e-09
2.3539526e-08