/*--------------------------------*- C++ -*----------------------------------*\
| =========                 |                                                 |
| \\      /  F ield         | OpenFOAM: The Open Source CFD Toolbox           |
|  \\    /   O peration     | Version:  2.3.0                                 |
|   \\  /    A nd           | Web:      www.OpenFOAM.org                      |
|    \\/     M anipulation  |                                                 |
\*---------------------------------------------------------------------------*/
FoamFile
{
    version     2.0;
    format      ascii;
    class       volScalarField;
    location    "0.098";
    object      alpha.water;
}
// * * * * * * * * * * * * * * * * * * * * * * * * * * * * * * * * * * * * * //

dimensions      [0 0 0 0 0 0 0];

internalField   nonuniform List<scalar> 
725
(
1
1
1
1.00001
0.999847
1
1
1
1.00001
0.999889
1
1
1
1.00001
0.999974
1
1
1
1.00001
1.00004
1
1
1
1.00003
1.00005
0.999535
0.999931
0.781443
0.342353
0.255174
0.544107
0.952124
0.990317
0.989677
0.995117
0.999898
0.999904
0.999934
0.999958
0.999975
1
1.00002
1.00003
1.00003
1.00003
1.00002
1.00002
1.00002
1.00002
1.00002
1.00001
1
0.576602
0.00675333
0.000316259
0.000343665
0.000314692
0.156406
0.85855
0.999956
0.999954
0.999815
0.999659
0.999549
0.999566
0.999673
1.00016
1
0.805639
0.0152877
0.999941
0.999973
0.880472
0.181114
0.253291
0.553199
0.950286
0.999935
0.996166
0.990752
0.993891
0.999382
0.999825
0.999868
0.999868
0.999864
0.999866
0.999874
0.999885
0.999897
0.999909
0.99992
0.999934
0.99996
0.999989
1.00001
1
0.617193
0.00130179
0.00031618
0.00031745
0.000314672
0.155697
0.858475
0.999842
0.999716
0.999608
0.99943
0.999214
0.999004
0.998779
0.998887
0.999999
0.897658
0.0856377
0.999976
0.999975
0.882311
0.17913
0.126878
0.62315
0.912074
0.999934
0.999935
0.991024
0.990345
0.995355
0.999827
0.999788
0.999817
0.999829
0.999829
0.999826
0.999825
0.999827
0.999832
0.999844
0.999867
0.999892
1.00001
1.00001
1
0.534015
0.00196487
0.000315783
0.000321512
0.000314655
0.15172
0.864489
0.99991
0.999909
0.999815
0.999872
1.00002
1.00036
1.00016
0.998681
0.999997
0.9753
0.258068
1
0.999986
0.611264
0.0481367
0.103601
0.674059
0.926963
0.999935
0.999935
0.993264
0.990345
0.996109
0.999824
0.999775
0.999768
0.999771
0.999773
0.999774
0.999776
0.99978
0.999787
0.9998
0.999819
0.99985
0.999962
1.00002
1
0.574693
0.00031591
0.000315416
0.000314725
0.000314635
0.150013
0.867021
0.99977
0.999716
0.999764
0.999779
0.999801
1.00023
0.999459
0.998678
0.999992
0.999889
0.296525
0.926898
0.908998
0.236539
0.0215187
0.0331615
0.52211
0.951284
0.999935
0.999935
0.998422
0.995089
0.995817
0.998528
0.999741
0.999679
0.999698
0.999716
0.999727
0.999734
0.999741
0.999751
0.999765
0.999785
0.999818
0.999932
1.00001
0.991292
0.536873
0.0095125
0.00031656
0.000314996
0.000314619
0.146352
0.868003
0.999796
0.999795
0.999747
0.999738
0.999736
0.999936
0.999745
0.999216
0.999996
0.998704
0.295552
0.284932
0.531362
0.0350651
0.0203763
0.055587
0.236706
0.917742
0.999919
0.999909
0.99991
0.999688
0.994586
0.998326
0.99938
0.999518
0.999623
0.999689
0.999714
0.999725
0.999733
0.999742
0.999757
0.999777
0.999794
0.999958
1.00041
0.998052
0.542042
0.0248449
0.000330537
0.000320672
0.000314439
0.143351
0.867306
0.99975
0.999675
0.9997
0.999677
0.999606
0.999441
0.999186
0.999128
0.999998
0.969004
0.197443
0.194113
0.368641
0.0269748
0.0173697
0.0114929
0.172169
0.881016
0.999893
0.999889
0.999852
0.999855
0.987094
0.997636
0.999006
0.999235
0.999494
0.999635
0.999692
0.999714
0.999724
0.999733
0.999748
0.999769
0.999779
0.999982
1.00016
0.989853
0.550222
0.0172233
0.000431107
0.000490671
0.000314114
0.141837
0.866817
0.99972
0.99965
0.999645
0.999621
0.99958
0.999487
0.999648
0.999285
0.999999
0.957312
0.159006
0.136405
0.197074
0.0196748
0.0124432
0.00546931
0.169937
0.787972
0.993612
0.999931
0.999853
0.999725
0.987073
0.996772
0.998514
0.999164
0.999471
0.99961
0.999674
0.999702
0.999714
0.999724
0.999739
0.99976
0.999771
0.999963
1.00028
0.994017
0.555692
0.0188806
0.00033272
0.000318473
0.000313928
0.140501
0.866205
0.999693
0.999603
0.999603
0.999606
0.999595
0.999523
0.99929
0.999259
0.999999
0.944722
0.142943
0.134614
0.214448
0.00844624
0.00895273
0.00290513
0.166684
0.65542
0.990425
0.999939
0.999907
0.989374
0.98707
0.994062
0.99846
0.999206
0.999486
0.999604
0.999664
0.999694
0.999709
0.99972
0.999735
0.999755
0.999763
0.999965
1.00018
0.990462
0.546277
0.0189956
0.00033398
0.000319715
0.000313793
0.138794
0.865305
0.999714
0.999569
0.999592
0.999632
0.999639
0.999588
0.999425
0.999311
1
0.919972
0.124852
0.140511
0.184355
0.00332393
0.00346279
0.00169113
0.0943162
0.605254
0.999099
0.999928
0.999987
0.987081
0.98707
0.995139
0.998648
0.999253
0.999529
0.999601
0.999657
0.999691
0.999711
0.999725
0.999738
0.999754
0.999761
0.999955
1.00025
0.99185
0.558123
0.0185836
0.000329156
0.000319468
0.000313698
0.137171
0.864304
0.999753
0.999573
0.999604
0.999674
0.999688
0.999682
0.999528
0.999441
1
0.911124
0.112965
1
1
1
1.00001
0.999799
1
1
1
1.00002
1
1
1
1
1.00001
1
1
1
1
1
1
1
1
1
0.999995
1.00001
0.796634
0.253084
0.00147208
0.00329561
0.00144908
0.0608928
0.667175
0.999922
0.999922
0.999986
0.988703
0.989674
0.994628
0.999438
1
0.999832
0.999755
0.999732
0.999734
0.999742
0.999752
0.999762
0.999775
0.999778
0.99993
1
0.979286
0.527323
0.0203649
0.000314735
0.000315006
0.000313678
0.132052
0.860617
0.999829
0.999682
0.999709
0.999746
0.99976
0.99981
0.999807
0.999701
1
0.877375
0.0641075
0.747623
0.060505
0.00145305
0.00144974
0.00144863
0.00144819
0.540565
0.999145
0.999736
0.999082
0.999048
0.998802
0.998441
0.99911
0.999522
0.999689
0.999739
0.999755
0.999767
0.999779
0.999789
0.999798
0.999806
0.999809
0.999882
1.00004
0.99942
0.63182
0.012662
0.000313763
0.000313719
0.000313677
0.121085
0.851649
1
1.00005
0.999892
0.999812
0.99984
0.999865
0.999803
0.9997
1
0.814558
0.0228202
0.853206
0.0600655
0.00146127
0.00144974
0.00144944
0.0129965
0.514701
0.997148
1
0.999416
0.999715
0.999413
0.999365
0.999578
0.999713
0.999764
0.999784
0.999799
0.999813
0.999826
0.999838
0.999846
0.999854
0.999857
0.999904
0.999988
1
0.559983
0.0045879
0.000313843
0.000317575
0.000313678
0.111199
0.842289
0.999883
0.999703
0.999747
0.999705
0.999632
0.999538
0.999453
0.999409
0.999997
0.869946
0.0590003
0.818496
0.037252
0.00146298
0.00145264
0.00144964
0.037133
0.504342
0.995783
1
0.999806
0.999713
0.999636
0.999712
0.999776
0.999814
0.99983
0.999845
0.999862
0.999878
0.999895
0.999909
0.999919
0.999927
0.999932
0.999963
1.00001
1
0.670779
0.0285474
0.000313851
0.000318336
0.000313679
0.105486
0.831743
0.999724
0.999649
0.999575
0.999439
0.999312
0.999217
0.999181
0.999226
0.999995
0.975484
0.241525
0.779512
0.0574533
0.00147662
0.00146257
0.00145299
0.038222
0.59584
0.999979
0.999983
0.999906
0.999807
0.999802
0.999866
0.999918
0.999974
1.00001
1.00001
1
1.00001
1.00001
1.00002
1.00003
1.00003
1.00002
1.00003
1.00005
1.00001
0.636044
0.0219785
0.000314955
0.000326792
0.00031368
0.100362
0.831923
0.999754
0.999752
0.999779
0.999779
0.99972
0.999492
0.999267
0.999244
0.999993
0.987038
0.307066
)
;

boundaryField
{
    AirInlet
    {
        type            fixedValue;
        value           uniform 0;
    }
    WaterInlet
    {
        type            fixedValue;
        value           uniform 1;
    }
    ChannelWall
    {
        type            zeroGradient;
    }
    Outlet
    {
        type            inletOutlet;
        inletValue      uniform 0;
        value           nonuniform List<scalar> 
15
(
0.0152877
0.0856377
0
0.296525
0.295552
0
0
0
0
0
0.0641075
0.0228202
0.0590003
0
0.307066
)
;
    }
    FrontAndBack
    {
        type            empty;
    }
}


// ************************************************************************* //
