/*--------------------------------*- C++ -*----------------------------------*\
| =========                 |                                                 |
| \\      /  F ield         | OpenFOAM: The Open Source CFD Toolbox           |
|  \\    /   O peration     | Version:  2.3.0                                 |
|   \\  /    A nd           | Web:      www.OpenFOAM.org                      |
|    \\/     M anipulation  |                                                 |
\*---------------------------------------------------------------------------*/
FoamFile
{
    version     2.0;
    format      ascii;
    class       surfaceScalarField;
    location    "0.098";
    object      phi;
}
// * * * * * * * * * * * * * * * * * * * * * * * * * * * * * * * * * * * * * //

dimensions      [0 3 -1 0 0 0 0];

internalField   nonuniform List<scalar> 
1380
(
3.14163e-13
1.85837e-13
2.99024e-13
1.51381e-14
3.02626e-13
-3.60153e-15
3.51387e-13
-4.87605e-14
2.64396e-13
8.69911e-14
6.0288e-13
8.29571e-14
6.18073e-13
-5.45206e-17
5.94049e-13
2.04227e-14
3.59389e-13
1.85899e-13
1.02887e-12
-4.05083e-13
6.86196e-13
-1.03239e-13
7.18139e-13
-3.19982e-14
7.05057e-13
3.35054e-14
4.85315e-13
4.05641e-13
1.33817e-12
1.76012e-13
5.95878e-13
-1.99117e-13
5.98474e-13
-3.45942e-14
6.18023e-13
1.39559e-14
7.14132e-13
3.09532e-13
8.55104e-13
1.1972e-12
3.00883e-13
2.66289e-13
2.80245e-13
5.89777e-13
1.44488e-12
6.2909e-13
-5.42099e-13
8.77987e-13
-2.48897e-13
2.9352e-12
-2.05722e-12
7.08921e-12
-4.15401e-12
4.4217e-12
2.66751e-12
2.45332e-12
1.96838e-12
5.44868e-13
1.90845e-12
2.71112e-13
2.73756e-13
2.47044e-13
2.40682e-14
3.72115e-13
-1.25071e-13
2.58387e-13
1.13728e-13
1.88089e-13
7.02977e-14
1.80164e-13
7.92551e-15
1.71178e-13
8.98553e-15
1.73986e-13
-2.80819e-15
1.7421e-13
-2.23787e-16
1.6906e-13
5.14994e-15
1.6173e-13
7.33054e-15
1.54815e-13
6.91496e-15
1.51607e-13
3.2078e-15
1.52495e-13
-8.8787e-16
1.56044e-13
-3.54895e-15
1.63803e-13
-7.75877e-15
1.7208e-13
-8.27708e-15
2.55167e-13
-8.30872e-14
3.87813e-13
-1.32646e-13
1.10377e-12
-7.15959e-13
6.50745e-13
4.53027e-13
-1.15181e-12
1.80255e-12
-1.42444e-12
2.72631e-13
-5.36349e-13
-8.88092e-13
3.02511e-13
-8.38859e-13
8.15318e-13
-5.12807e-13
5.46245e-13
2.69073e-13
2.89814e-13
2.56431e-13
1.87409e-13
1.02405e-13
1.55432e-13
3.19772e-14
1.4649e-13
8.94182e-15
1.36948e-13
9.54222e-15
1.44391e-13
-7.4437e-15
1.8139e-13
-3.69984e-14
1.42195e-13
3.91946e-14
-1.1135e-13
2.53546e-13
3.98751e-13
-5.10101e-13
-2.10783e-12
-5.33714e-13
-4.13468e-13
-1.09923e-12
3.16622e-13
6.85147e-13
-3.8416e-12
2.70344e-12
-6.1723e-12
8.15938e-13
4.55501e-12
1.45909e-12
1.32523e-12
1.39726e-12
1.97028e-12
1.19439e-12
4.76624e-13
8.48011e-13
3.70447e-13
5.48937e-13
1.74003e-13
2.35057e-13
4.27607e-13
3.3134e-13
-2.59852e-14
4.34241e-13
-9.4975e-14
4.31469e-13
1.17575e-14
4.38381e-13
-9.72036e-15
4.43669e-13
-5.51121e-15
4.35286e-13
1.35328e-14
4.18833e-13
2.37834e-14
4.01607e-13
2.41404e-14
3.9092e-13
1.3895e-14
3.87278e-13
2.75452e-15
3.86369e-13
-2.64005e-15
3.8841e-13
-9.79982e-15
3.91513e-13
-1.13804e-14
5.09195e-13
-2.00768e-13
6.52093e-13
-2.75545e-13
1.16692e-12
-1.23079e-12
-2.31351e-12
3.93346e-12
-4.59072e-12
4.07977e-12
-3.25077e-12
-1.06732e-12
-1.12748e-12
-3.01138e-12
2.42654e-13
-2.20899e-12
6.64067e-13
-9.3422e-13
7.13938e-13
2.19202e-13
5.5703e-13
4.13339e-13
4.44072e-13
2.15363e-13
4.0111e-13
7.49389e-14
3.8472e-13
2.53323e-14
3.76173e-13
1.80889e-14
4.2461e-13
-5.58805e-14
4.85562e-13
-9.795e-14
5.39587e-13
-1.48306e-14
6.50794e-13
1.42338e-13
7.60851e-13
-6.20158e-13
-1.71618e-12
1.52273e-12
-1.76019e-12
3.23564e-12
-1.39629e-12
2.19233e-12
-2.79828e-12
-2.46746e-12
-1.51251e-12
-7.11573e-12
9.20328e-12
-2.70879e-12
-3.08171e-12
-3.20742e-13
-4.17761e-13
1.44688e-12
-1.291e-12
1.45244e-12
3.64882e-13
8.27419e-13
7.9903e-13
2.63459e-13
9.91567e-13
5.22644e-13
-2.8517e-13
6.7061e-13
-2.42941e-13
6.40851e-13
4.15162e-14
6.3593e-13
-4.79899e-15
6.41012e-13
-1.05933e-14
6.3275e-13
2.1795e-14
6.1331e-13
4.32236e-14
5.90602e-13
4.68482e-14
5.74386e-13
3.01105e-14
5.65969e-13
1.11725e-14
5.58918e-13
4.41075e-15
5.5355e-13
-4.43245e-15
5.41524e-13
6.46094e-16
6.25927e-13
-2.85171e-13
6.60781e-13
-3.10399e-13
1.55919e-12
-2.12919e-12
1.30672e-12
4.18593e-12
-3.17364e-12
8.56012e-12
-2.92619e-12
-1.31477e-12
-1.02564e-12
-4.91193e-12
8.9131e-14
-3.32376e-12
4.354e-13
-1.28049e-12
6.12422e-13
4.21797e-14
6.57184e-13
3.68577e-13
6.32881e-13
2.39666e-13
5.78704e-13
1.29116e-13
5.51993e-13
5.20438e-14
5.70567e-13
-4.84778e-16
6.14763e-13
-1.00077e-13
6.4971e-13
-1.32897e-13
6.8324e-13
-4.83608e-14
1.06451e-12
-2.38935e-13
3.69058e-13
7.52968e-14
-4.63917e-13
3.3085e-12
-3.87149e-12
6.24811e-12
-4.3359e-12
6.00851e-12
-2.55868e-12
-6.14549e-12
1.06415e-11
-6.85596e-12
9.91374e-12
-2.79811e-12
-7.13957e-12
-5.74006e-13
-2.64186e-12
1.88767e-12
-3.75268e-12
1.75248e-12
5.00077e-13
1.0995e-12
1.45201e-12
5.93464e-13
1.4976e-12
8.32116e-13
-5.23822e-13
8.65688e-13
-2.76512e-13
7.76557e-13
1.30647e-13
7.59743e-13
1.20143e-14
7.6432e-13
-1.51696e-14
7.59455e-13
2.66598e-14
7.43887e-13
5.87917e-14
7.21612e-13
6.91225e-14
7.03665e-13
4.80575e-14
6.92934e-13
2.19038e-14
6.82411e-13
1.49338e-14
6.75487e-13
2.49134e-15
6.55144e-13
2.09897e-14
6.85916e-13
-3.15944e-13
5.5412e-13
-1.78602e-13
4.61598e-13
-2.03667e-12
-2.39782e-12
7.04535e-12
-2.52664e-12
8.68894e-12
-1.25009e-12
-2.59132e-12
-2.19719e-13
-5.94231e-12
1.54197e-13
-3.69768e-12
2.26196e-13
-1.35249e-12
4.14851e-13
-1.46476e-13
6.44815e-13
1.38614e-13
7.21566e-13
1.62914e-13
7.09854e-13
1.40828e-13
6.95508e-13
6.63899e-14
7.2624e-13
-3.1217e-14
6.88777e-13
-6.26142e-14
6.45939e-13
-9.00588e-14
5.5065e-13
4.69286e-14
5.13028e-13
-2.01314e-13
1.59134e-13
4.29191e-13
-2.86438e-13
2.50601e-12
-4.93262e-12
4.12296e-12
-5.95285e-12
-9.12656e-12
1.06908e-11
-8.00423e-12
9.51917e-12
1.03052e-11
-8.39569e-12
3.6682e-12
-5.02553e-13
2.79167e-12
-1.76534e-12
2.88507e-12
-3.84607e-12
2.05678e-12
1.32836e-12
1.21413e-12
2.29467e-12
7.73224e-13
1.9385e-12
9.15301e-13
-6.65899e-13
8.26449e-13
-1.87661e-13
7.64725e-13
1.92372e-13
7.89093e-13
-1.23535e-14
8.0953e-13
-3.5607e-14
8.13569e-13
2.26206e-14
8.08669e-13
6.36917e-14
7.9345e-13
8.43415e-14
7.78457e-13
6.30505e-14
7.68829e-13
3.15327e-14
7.58854e-13
2.49082e-14
7.52473e-13
8.87212e-15
7.33241e-13
4.02226e-14
6.60768e-13
-2.43471e-13
9.90454e-13
-5.08289e-13
1.05487e-12
-2.10109e-12
1.53385e-12
6.56636e-12
2.24285e-12
7.97995e-12
3.57685e-12
-3.92532e-12
1.48588e-12
-3.85134e-12
4.5704e-13
-2.66884e-12
1.29514e-14
-9.084e-13
2.24287e-13
-3.57812e-13
5.57154e-13
-1.94254e-13
7.30402e-13
-1.03339e-14
7.66036e-13
1.05194e-13
7.6285e-13
6.95755e-14
7.95314e-13
-6.36813e-14
7.86818e-13
-5.4118e-14
7.55292e-13
-5.85322e-14
6.9978e-13
1.0244e-13
8.15937e-13
-3.17471e-13
7.15773e-13
5.29355e-13
-9.65481e-16
-1.71542e-13
-4.56108e-12
-2.1164e-13
-5.91276e-12
-3.2331e-12
1.37123e-11
-1.82937e-12
8.11543e-12
4.1218e-12
-1.43469e-11
3.74745e-12
-1.282e-13
1.46466e-12
5.17452e-13
6.59661e-13
-3.04108e-12
3.9991e-13
1.58811e-12
2.08663e-13
2.48591e-12
1.76491e-13
1.97067e-12
1.43548e-13
-6.32957e-13
1.17428e-13
-1.61541e-13
1.41906e-13
1.67894e-13
1.63985e-13
-3.44324e-14
1.75378e-13
-4.69998e-14
1.78583e-13
1.94157e-14
1.7906e-13
6.32147e-14
1.77507e-13
8.58939e-14
1.75193e-13
6.53645e-14
1.73322e-13
3.34041e-14
1.72509e-13
2.57212e-14
1.68833e-13
1.25482e-14
1.758e-13
3.32556e-14
1.40071e-13
-2.07742e-13
2.72676e-13
-6.40894e-13
1.9323e-13
-2.02164e-12
7.19869e-13
6.03972e-12
1.8585e-12
6.84132e-12
1.63888e-12
-3.7057e-12
5.34869e-13
-2.74732e-12
1.37425e-13
-2.27139e-12
4.85074e-15
-7.75826e-13
4.03007e-14
-3.93262e-13
1.13911e-13
-2.67864e-13
1.57907e-13
-5.43303e-14
1.66383e-13
9.6719e-14
1.75306e-13
6.06517e-14
1.67613e-13
-5.59881e-14
1.77059e-13
-6.35637e-14
1.55259e-13
-3.67319e-14
1.50952e-13
1.06747e-13
9.89621e-14
-2.65481e-13
-3.76629e-13
1.00495e-12
1.16628e-13
-7.2716e-13
-3.63392e-12
-1.52598e-12
-5.11393e-12
-4.83105e-12
1.70174e-11
-3.67496e-12
6.95935e-12
-2.76612e-13
-1.77452e-11
2.86189e-12
-3.2667e-12
1.3944e-12
1.98494e-12
5.48849e-13
-2.19552e-12
3.63251e-13
1.77371e-12
2.03117e-13
2.64605e-12
1.41969e-13
2.03182e-12
1.20529e-13
-6.11517e-13
8.49834e-14
-1.25995e-13
1.29352e-13
1.23526e-13
1.59247e-13
-6.43275e-14
1.72896e-13
-6.06489e-14
1.76993e-13
1.5318e-14
1.78194e-13
6.20141e-14
1.77324e-13
8.67635e-14
1.75471e-13
6.72184e-14
1.73803e-13
3.50715e-14
1.73381e-13
2.61432e-14
1.69343e-13
1.6586e-14
1.78949e-13
2.36504e-14
1.35648e-13
-1.64442e-13
2.08212e-13
-7.13458e-13
-1.54953e-13
-1.65848e-12
3.28566e-13
5.55621e-12
2.49945e-12
4.67043e-12
1.90637e-12
-3.11261e-12
5.99341e-13
-1.4403e-12
1.45308e-13
-1.81736e-12
7.20667e-15
-6.37725e-13
3.83263e-14
-4.24381e-13
1.11702e-13
-3.41239e-13
1.56541e-13
-9.91696e-14
1.65233e-13
8.80272e-14
1.76086e-13
4.97984e-14
1.65997e-13
-4.58989e-14
1.75167e-13
-7.27341e-14
1.51436e-13
-1.30004e-14
1.53838e-13
1.04346e-13
7.57876e-14
-1.87431e-13
-4.37368e-13
1.5181e-12
-3.11216e-14
-1.44992e-12
-1.98399e-12
-5.80044e-12
-7.63419e-13
-6.49136e-12
1.77083e-11
-4.96147e-12
5.42946e-12
-3.58281e-12
-1.91239e-11
2.70825e-12
-9.55776e-12
9.16478e-13
3.7767e-12
3.56705e-13
-1.63575e-12
3.22636e-13
1.80778e-12
2.05443e-13
2.76324e-12
2.13765e-13
2.0235e-12
7.02305e-14
-4.67983e-13
4.86575e-14
-1.04422e-13
1.1538e-13
5.68031e-14
1.54006e-13
-1.02954e-13
1.70067e-13
-7.67103e-14
1.74853e-13
1.05327e-14
1.76699e-13
6.01679e-14
1.76576e-13
8.68866e-14
1.75275e-13
6.85194e-14
1.73914e-13
3.64325e-14
1.73746e-13
2.63113e-14
1.69948e-13
2.03837e-14
1.79323e-13
1.42756e-14
1.31411e-13
-1.16531e-13
1.02143e-13
-6.84189e-13
-5.60938e-13
-9.95398e-13
7.79515e-13
4.21575e-12
2.9897e-12
2.46025e-12
2.14441e-12
-2.26732e-12
6.58079e-13
4.60296e-14
1.61479e-13
-1.32076e-12
1.22201e-14
-4.88466e-13
3.83227e-14
-4.50484e-13
1.10753e-13
-4.13669e-13
1.55093e-13
-1.43509e-13
1.64032e-13
7.9088e-14
1.75593e-13
3.82374e-14
1.63868e-13
-3.41746e-14
1.74208e-13
-8.30738e-14
1.519e-13
9.3082e-15
1.59547e-13
9.66982e-14
9.79627e-14
-1.25847e-13
-4.81506e-13
2.09757e-12
-1.50074e-13
-2.73429e-12
9.50292e-13
-2.89816e-12
-5.99548e-13
-7.01657e-12
2.18267e-11
-5.21259e-12
3.62548e-12
-1.9253e-12
-2.24112e-11
6.30951e-13
-1.2114e-11
3.11748e-13
4.09591e-12
1.1654e-13
-1.44054e-12
2.8746e-13
1.63686e-12
2.21338e-13
2.82936e-12
2.08769e-13
2.03607e-12
4.25377e-14
-3.01751e-13
1.52546e-14
-7.71394e-14
1.11007e-13
-3.89493e-14
1.54001e-13
-1.45948e-13
1.67789e-13
-9.04981e-14
1.72145e-13
6.17614e-15
1.74644e-13
5.7669e-14
1.75279e-13
8.62521e-14
1.74653e-13
6.91449e-14
1.73656e-13
3.74296e-14
1.7371e-13
2.62578e-14
1.70196e-13
2.3898e-14
1.79151e-13
5.32065e-15
1.28146e-13
-6.55264e-14
5.44307e-14
-6.10473e-13
-7.34082e-13
-2.06884e-13
9.13399e-13
2.56827e-12
3.03527e-12
3.38375e-13
2.19027e-12
-1.42232e-12
6.85257e-13
1.55104e-12
1.73044e-13
-8.08547e-13
1.73565e-14
-3.32778e-13
4.23895e-14
-4.75517e-13
1.11635e-13
-4.82915e-13
1.53652e-13
-1.85526e-13
1.62747e-13
6.99929e-14
1.74467e-13
2.65176e-14
1.62378e-13
-2.20855e-14
1.72801e-13
-9.3497e-14
1.50536e-13
3.1573e-14
1.66832e-13
8.04028e-14
1.40344e-13
-9.93592e-14
-1.99037e-13
2.43695e-12
3.14923e-14
-8.62041e-13
2.01233e-12
9.69569e-13
-2.43116e-12
-5.74957e-12
2.85458e-11
-4.72603e-12
2.60193e-12
-2.44507e-12
-2.46921e-11
-3.003e-12
-1.15561e-11
-4.05533e-13
1.49844e-12
-6.56419e-14
-1.78043e-12
2.48213e-13
1.32301e-12
2.48725e-13
2.82885e-12
2.15323e-13
2.06947e-12
3.99056e-14
-1.26334e-13
2.26148e-14
-5.98487e-14
1.17012e-13
-1.33347e-13
1.5555e-13
-1.84486e-13
1.66763e-13
-1.01711e-13
1.69923e-13
3.01594e-15
1.72419e-13
5.51728e-14
1.73773e-13
8.48986e-14
1.73862e-13
6.90551e-14
1.73404e-13
3.78884e-14
1.73495e-13
2.61661e-14
1.70701e-13
2.66925e-14
1.77267e-13
-1.24523e-15
1.29486e-13
-1.77458e-14
7.50674e-14
-5.56055e-13
-6.25503e-13
4.93686e-13
8.33125e-13
1.10964e-12
2.71642e-12
-1.54492e-12
1.99209e-12
-6.97984e-13
6.72511e-13
2.87062e-12
1.89006e-13
-3.25042e-13
2.53068e-14
-1.69078e-13
4.93614e-14
-4.99571e-13
1.13258e-13
-5.46812e-13
1.52497e-13
-2.24764e-13
1.61782e-13
6.07069e-14
1.72369e-13
1.59313e-14
1.62599e-13
-1.23154e-14
1.68321e-13
-9.92197e-14
1.51322e-13
4.85722e-14
1.6555e-13
6.61753e-14
1.48894e-13
-8.27033e-14
-2.41356e-13
2.8272e-12
2.3538e-15
2.9454e-13
2.0546e-13
2.22954e-13
7.1586e-14
1.35408e-13
8.75459e-14
-9.64403e-14
2.31849e-13
5.30284e-14
-1.49469e-13
5.90776e-13
1.14683e-13
5.6146e-13
1.00902e-13
4.02071e-13
2.46935e-13
-6.61097e-13
1.29502e-12
2.98116e-12
-3.58922e-12
6.87093e-13
-7.24097e-14
7.31836e-13
5.61596e-14
7.57645e-13
2.21127e-13
8.76159e-13
1.1765e-12
2.53351e-12
1.3238e-12
6.0759e-13
-1.79999e-13
6.56463e-13
7.28623e-15
7.51523e-13
1.26066e-13
1.27274e-12
6.55283e-13
1.539e-12
2.26725e-12
3.20001e-13
3.27287e-13
4.53353e-13
1.10864e-12
2.64764e-12
2.85837e-12
-9.9551e-13
-3.30415e-12
3.73137e-12
-9.24876e-12
3.44905e-11
-8.64886e-12
2.00203e-12
-2.96351e-12
-3.03775e-11
-6.77395e-12
-7.74565e-12
-1.60848e-12
-3.66702e-12
-6.67622e-13
-2.72129e-12
5.22701e-13
1.32685e-13
8.79919e-13
2.47163e-12
9.96463e-13
1.95293e-12
4.77706e-13
3.92423e-13
4.80549e-13
-6.26918e-14
6.36423e-13
-2.89221e-13
7.19914e-13
-2.67976e-13
7.31829e-13
-1.13626e-13
7.37071e-13
-2.22581e-15
7.43383e-13
4.88603e-14
7.56383e-13
7.18988e-14
7.67284e-13
5.81547e-14
7.72465e-13
3.27068e-14
7.74907e-13
2.37243e-14
7.75127e-13
2.64719e-14
7.62837e-13
1.10456e-14
6.37554e-13
1.07537e-13
7.03628e-13
-6.22129e-13
1.98191e-13
9.99123e-13
2.5499e-12
-1.24207e-12
5.5904e-12
-4.58542e-12
4.74815e-12
1.44273e-13
2.47288e-12
5.14588e-12
1.05096e-12
1.09688e-12
1.90492e-13
6.91395e-13
3.2637e-13
-6.35449e-13
5.5706e-13
-7.77503e-13
6.6191e-13
-3.29615e-13
7.21581e-13
1.03639e-15
7.38128e-13
-6.15981e-16
7.42023e-13
-1.62103e-14
6.99264e-13
-5.64601e-14
6.89765e-13
5.80705e-14
6.54907e-13
1.01034e-13
3.90824e-13
1.8138e-13
1.05779e-12
2.16024e-12
-3.86063e-13
-1.03635e-11
5.77874e-12
-1.12684e-11
4.63634e-12
3.28681e-12
1.99352e-11
8.94566e-12
-3.65682e-12
4.97872e-12
-2.64105e-11
4.91315e-12
-7.68008e-12
9.72855e-13
2.73277e-13
-5.41398e-13
-1.20704e-12
-2.53788e-13
-1.54926e-13
3.98511e-13
1.81933e-12
8.01895e-13
1.54955e-12
7.20614e-13
4.73704e-13
6.86161e-13
-2.82383e-14
6.93771e-13
-2.96831e-13
6.59409e-13
-2.33614e-13
6.37495e-13
-9.17116e-14
6.35618e-13
-3.48554e-16
6.47728e-13
3.67499e-14
6.68936e-13
5.06909e-14
6.87428e-13
3.96624e-14
6.98542e-13
2.15925e-14
7.06379e-13
1.58874e-14
7.13703e-13
1.91482e-14
7.09382e-13
1.5367e-14
6.71011e-13
1.45907e-13
2.68339e-13
-2.19457e-13
-2.74615e-13
1.54208e-12
-2.57004e-12
1.05335e-12
-2.70745e-12
-4.44801e-12
-3.55311e-13
-2.20787e-12
1.17475e-12
3.61582e-12
8.72855e-13
1.39877e-12
5.18743e-13
1.04551e-12
5.80191e-13
-6.96897e-13
6.13066e-13
-8.10377e-13
6.31297e-13
-3.47846e-13
6.6468e-13
-3.23466e-14
6.76241e-13
-1.21769e-14
6.7622e-13
-1.6189e-14
6.26861e-13
-7.10071e-15
6.09098e-13
7.5833e-14
4.89078e-13
2.21054e-13
3.42882e-14
6.3617e-13
3.7673e-12
-1.57278e-12
-1.81349e-12
3.3123e-12
3.79024e-12
5.01965e-12
2.92899e-12
1.35549e-11
1.13999e-11
1.55882e-11
-5.69008e-12
6.14621e-12
-1.69686e-11
-3.1215e-13
-1.22172e-12
-5.29199e-13
4.90326e-13
-9.47837e-13
-7.88403e-13
-8.33289e-13
-2.69473e-13
-2.66927e-14
1.01274e-12
5.8296e-13
9.39893e-13
7.29234e-13
3.27429e-13
7.17307e-13
-1.63113e-14
6.1256e-13
-1.92084e-13
5.31707e-13
-1.52761e-13
4.96757e-13
-5.6761e-14
4.96564e-13
-1.5565e-16
5.13104e-13
2.02095e-14
5.36817e-13
2.69779e-14
5.5621e-13
2.02698e-14
5.68087e-13
9.71533e-15
5.77503e-13
6.47078e-15
5.87405e-13
9.24632e-15
5.86017e-13
1.67551e-14
6.07309e-13
1.24615e-13
3.78917e-13
8.93559e-15
8.6247e-13
1.05852e-12
2.30264e-12
-3.86817e-13
1.89344e-13
-2.33471e-12
-1.16832e-12
-8.50204e-13
5.13469e-13
1.93402e-12
7.59229e-13
1.15301e-12
7.6829e-13
1.03645e-12
7.87251e-13
-7.15858e-13
6.61268e-13
-6.84394e-13
5.76685e-13
-2.63263e-13
5.79507e-13
-3.5168e-14
5.82949e-13
-1.5619e-14
5.75012e-13
-8.25214e-15
5.53522e-13
1.43895e-14
5.51379e-13
7.79755e-14
5.99016e-13
1.73416e-13
5.70202e-13
6.64984e-13
8.00889e-13
-1.80346e-12
-1.74523e-12
2.61442e-12
3.44308e-12
5.1252e-12
4.18199e-13
1.40018e-11
2.52331e-12
1.1892e-11
-3.5802e-12
2.67587e-12
-7.75247e-12
-8.27971e-13
2.28212e-12
-6.8506e-13
3.47415e-13
-8.80399e-13
-5.93063e-13
-9.19127e-13
-2.30746e-13
-2.31959e-13
3.25567e-13
3.70908e-13
3.37026e-13
5.8222e-13
1.16117e-13
5.77569e-13
-1.16606e-14
4.59557e-13
-7.40722e-14
3.62525e-13
-5.5729e-14
3.2561e-13
-1.98463e-14
3.25809e-13
-3.54064e-16
3.40242e-13
5.77649e-15
3.59329e-13
7.89e-15
3.73955e-13
5.64441e-15
3.8207e-13
1.59999e-15
3.88625e-13
-8.36747e-17
3.97617e-13
2.53665e-16
4.10949e-13
3.4237e-15
4.88423e-13
4.7141e-14
4.35153e-13
6.22056e-14
8.86078e-13
6.07598e-13
5.27012e-13
-2.77509e-14
-9.92556e-13
-8.15141e-13
-1.26291e-12
-5.79847e-13
7.52817e-14
5.95831e-13
6.27002e-13
6.01292e-13
1.0109e-12
6.52545e-13
9.06206e-13
-6.11162e-13
5.90792e-13
-3.68979e-13
4.48795e-13
-1.21267e-13
4.34417e-13
-2.07901e-14
4.31048e-13
-1.22494e-14
4.23399e-13
-6.03453e-16
4.2759e-13
1.01981e-14
4.62002e-13
4.35644e-14
6.21869e-13
1.35491e-14
1.03357e-12
2.53285e-13
-1.00654e-12
2.36643e-13
-4.20206e-13
6.09072e-12
6.50892e-12
9.03222e-12
5.45203e-12
-2.30045e-12
-1.83321e-14
3.29083e-13
-2.63981e-13
-4.94726e-13
-1.69159e-13
1.67867e-13
2.83984e-13
2.72324e-13
1.98251e-13
1.42522e-13
1.22676e-13
1.22322e-13
1.28098e-13
1.35988e-13
1.41633e-13
1.43233e-13
1.43149e-13
1.43403e-13
1.46826e-13
1.93967e-13
2.56173e-13
8.63771e-13
8.3602e-13
2.08788e-14
-5.58969e-13
3.68621e-14
6.38154e-13
1.2907e-12
6.79538e-13
3.10558e-13
1.89292e-13
1.68502e-13
1.56252e-13
1.55649e-13
1.65847e-13
2.09411e-13
2.2296e-13
4.76245e-13
7.12888e-13
)
;

boundaryField
{
    AirInlet
    {
        type            calculated;
        value           nonuniform List<scalar> 5(-2e-13 -2e-13 -2e-13 -2e-13 -2e-13);
    }
    WaterInlet
    {
        type            calculated;
        value           nonuniform List<scalar> 10(-5e-13 -5e-13 -5e-13 -5e-13 -5e-13 -5e-13 -5e-13 -5e-13 -5e-13 -5e-13);
    }
    ChannelWall
    {
        type            calculated;
        value           uniform 0;
    }
    Outlet
    {
        type            calculated;
        value           nonuniform List<scalar> 
15
(
2.50658e-12
3.69207e-13
-8.83206e-13
-1.83452e-14
4.30301e-13
-4.94223e-13
-2.89619e-13
-3.62553e-13
-3.80604e-13
-2.12217e-13
1.4462e-12
5.19473e-12
7.32627e-13
-2.33156e-12
2.92682e-13
)
;
    }
    FrontAndBack
    {
        type            empty;
        value           nonuniform 0();
    }
}


// ************************************************************************* //
