/*--------------------------------*- C++ -*----------------------------------*\
| =========                 |                                                 |
| \\      /  F ield         | OpenFOAM: The Open Source CFD Toolbox           |
|  \\    /   O peration     | Version:  2.3.0                                 |
|   \\  /    A nd           | Web:      www.OpenFOAM.org                      |
|    \\/     M anipulation  |                                                 |
\*---------------------------------------------------------------------------*/
FoamFile
{
    version     2.0;
    format      ascii;
    class       volVectorField;
    location    "0.098";
    object      U;
}
// * * * * * * * * * * * * * * * * * * * * * * * * * * * * * * * * * * * * * //

dimensions      [0 1 -1 0 0 0 0];

internalField   nonuniform List<vector> 
725
(
(0.0499787 0.00720452 -1.86083e-31)
(0.0547194 0.00109155 3.29663e-32)
(0.0241608 -8.15016e-05 2.90934e-32)
(0.0756862 -0.00402528 0)
(-0.0108074 -0.00121533 -1.63909e-31)
(0.0992882 0.0149187 -7.78635e-31)
(0.104766 0.00696179 1.27314e-31)
(0.0657372 0.00351729 9.38194e-32)
(0.120074 0.00787739 0)
(-0.0557796 0.0277803 -7.26164e-31)
(0.114093 0.0108733 -1.40341e-31)
(0.118871 0.0109754 1.68496e-32)
(0.0808632 0.00990157 3.21677e-32)
(0.137226 0.0308375 0)
(-0.0462362 0.0611228 -6.0877e-31)
(0.0997394 0.00417753 1.09038e-30)
(0.101277 0.0120714 5.34219e-32)
(0.0638622 0.0110829 6.8623e-32)
(0.128838 0.0422985 0)
(0.0142988 0.0710731 -2.46455e-30)
(0.0498892 0.00210846 1.17126e-30)
(0.0496244 0.00850491 -1.68002e-32)
(0.0204128 0.00374152 4.5384e-32)
(0.0719198 0.0216224 8.56829e-32)
(0.0489038 0.0328729 -1.54073e-30)
(0.0396301 -0.0302859 0)
(0.108842 -0.0226556 0)
(0.0525118 -0.0505992 0)
(0.638388 -0.109643 0)
(0.751172 0.0756883 0)
(0.407341 0.0691911 0)
(0.10923 0.0518066 0)
(0.0206346 -0.00237458 0)
(0.0300994 -0.00539364 0)
(0.032353 -0.00579656 0)
(0.0412117 0.0015906 0)
(0.0204567 0.00226788 0)
(0.0212112 0.00104488 0)
(0.0194429 0.000290564 0)
(0.0189638 1.55179e-05 0)
(0.0195761 6.20778e-05 0)
(0.019226 7.83908e-05 0)
(0.0184113 7.05095e-05 0)
(0.0175331 5.97757e-05 0)
(0.0169532 6.04209e-06 0)
(0.0168334 -5.38773e-05 0)
(0.017144 -0.000104574 0)
(0.017905 -0.000240643 0)
(0.0168675 -0.000111943 0)
(0.0259187 -0.00156476 0)
(0.0215455 -0.00117201 0)
(0.07883 -0.0150936 0)
(0.141793 -0.00482623 0)
(0.0114722 -0.0147934 0)
(-0.229972 0.0185836 0)
(-0.123143 -0.00968925 0)
(-0.0101513 0.0128555 0)
(0.0921153 -0.00596652 0)
(0.0756733 0.00969899 0)
(0.0442374 0.00588101 0)
(0.0224533 0.00173019 0)
(0.0203444 0.000478915 0)
(0.0115842 0.000339793 0)
(0.0256682 -8.85761e-05 0)
(-0.00172007 0.000512267 0)
(0.043704 -0.000763237 0)
(-0.0162488 0.00241588 0)
(0.0685065 0.00874407 0)
(-0.143705 0.0154479 0)
(0.29721 -0.0440733 0)
(-0.0118619 -0.0154323 0)
(-0.127088 0.00201669 0)
(-0.104885 -0.184055 0)
(0.274757 -0.331003 0)
(0.162536 0.151773 0)
(0.126894 0.124784 0)
(0.147861 0.122139 0)
(0.136038 0.0352738 0)
(0.122342 0.00910119 0)
(0.0784641 -0.00536325 0)
(0.0346905 0.0102739 0)
(0.0223241 0.00418176 0)
(0.047455 -0.000478633 0)
(0.0484792 0.000548178 0)
(0.0476941 -0.000338634 0)
(0.0494887 -9.65849e-05 0)
(0.0492681 0.000462835 0)
(0.0475711 0.000701555 0)
(0.0454656 0.000669873 0)
(0.0438691 0.000335655 0)
(0.0431099 -2.85984e-05 0)
(0.0430627 -0.000251443 0)
(0.0432948 -0.000569075 0)
(0.0409754 -0.000742421 0)
(0.0525149 -0.00729082 0)
(0.0477573 -0.0121438 0)
(0.103918 -0.0502594 0)
(0.164232 0.0798329 0)
(-0.545019 0.137051 0)
(-0.567289 -0.015026 0)
(-0.255773 -0.0930894 0)
(-0.00740189 -0.0897542 0)
(0.0602537 -0.0461021 0)
(0.0828265 0.0153905 0)
(0.0731517 0.0197993 0)
(0.0517489 0.00864623 0)
(0.0495078 0.00258396 0)
(0.0354393 0.000660744 0)
(0.0573228 0.00105151 0)
(0.0154836 -0.00112032 0)
(0.0953481 -0.00246696 0)
(-0.00929087 0.00343085 0)
(0.160066 0.0226476 0)
(-0.0502536 -0.0165473 0)
(0.0961595 -0.147838 0)
(0.099697 -0.0286468 0)
(0.204498 0.0278041 0)
(0.467745 -0.151614 0)
(0.136107 -0.301614 0)
(-0.881775 0.353227 0)
(-0.399149 -0.0377951 0)
(-0.194485 0.0605903 0)
(0.111355 0.00660312 0)
(0.192746 0.0241177 0)
(0.139807 0.0228008 0)
(0.0338301 0.03382 0)
(0.0316314 -0.00717353 0)
(0.0765583 -0.00885289 0)
(0.073703 0.000701724 0)
(0.0696196 -0.000577161 0)
(0.0713427 -0.00043432 0)
(0.071334 0.000899802 0)
(0.0694317 0.00167105 0)
(0.0667745 0.00173539 0)
(0.0645282 0.00105123 0)
(0.0632145 0.000302939 0)
(0.0626213 -1.61256e-05 0)
(0.0622116 -0.00042612 0)
(0.058298 -0.000324231 0)
(0.0701882 -0.0126524 0)
(0.0562903 -0.01582 0)
(0.110618 -0.0862332 0)
(0.190938 0.212262 0)
(0.0174619 0.342043 0)
(-0.541561 -0.0537324 0)
(-0.223135 -0.206159 0)
(-0.0124886 -0.143221 0)
(0.0378727 -0.057038 0)
(0.0549196 0.007708 0)
(0.077072 0.0218945 0)
(0.0703734 0.0126119 0)
(0.0710472 0.00525347 0)
(0.0530804 0.00193895 0)
(0.0781277 0.000580274 0)
(0.0354837 -0.00453429 0)
(0.119593 -0.00643972 0)
(-0.0005892 -0.00249716 0)
(0.166466 -0.00453986 0)
(0.0854729 -0.0278423 0)
(-0.0823045 -0.00348016 0)
(0.286219 -0.157223 0)
(0.438971 -0.172982 0)
(0.863707 -0.14758 0)
(0.167532 0.108162 0)
(-1.15921 0.434446 0)
(-0.391315 -0.249484 0)
(-0.269988 -0.0912259 0)
(0.163881 -0.13511 0)
(0.237632 0.0177387 0)
(0.168255 0.0552308 0)
(0.0663823 0.0629698 0)
(0.0731361 -0.0206278 0)
(0.103037 -0.014408 0)
(0.0912637 0.00345384 0)
(0.0833467 1.56825e-05 0)
(0.0849384 -0.000654168 0)
(0.0852201 0.00126377 0)
(0.0837802 0.00262383 0)
(0.0813743 0.00295002 0)
(0.0790084 0.0019679 0)
(0.0774617 0.000825985 0)
(0.0765024 0.000465195 0)
(0.0760511 -6.44085e-05 0)
(0.0703962 0.000310756 0)
(0.0855211 -0.016205 0)
(0.0534439 -0.0138955 0)
(0.0776034 -0.112592 0)
(0.0167502 0.264908 0)
(-0.366192 0.470401 0)
(-0.295104 -0.0916722 0)
(-0.0680822 -0.297379 0)
(0.015342 -0.187362 0)
(0.0222246 -0.0686073 0)
(0.0221794 -0.00237067 0)
(0.0664018 0.0144629 0)
(0.0765753 0.0114982 0)
(0.0846279 0.0073744 0)
(0.0682866 0.00307073 0)
(0.0957586 -0.000537361 0)
(0.0501741 -0.00453258 0)
(0.121765 -0.00556507 0)
(-0.0030146 -0.0015711 0)
(0.126137 -0.0144428 0)
(0.00790463 0.0250178 0)
(-0.000926247 -0.0241206 0)
(0.30616 -0.22129 0)
(0.244656 -0.25471 0)
(0.534744 -0.0582414 0)
(-2.21691 0.809049 0)
(1.11214 0.543493 0)
(0.434786 -0.26428 0)
(0.323523 -0.166848 0)
(0.351358 -0.228813 0)
(0.302498 0.036136 0)
(0.177153 0.0930191 0)
(0.0851766 0.0896548 0)
(0.0940522 -0.0337393 0)
(0.0994791 -0.0129514 0)
(0.0877413 0.0103705 0)
(0.0849204 0.00130468 0)
(0.0894985 -0.000746971 0)
(0.0907233 0.00142996 0)
(0.0904018 0.00321649 0)
(0.0890839 0.00399949 0)
(0.0872276 0.00287359 0)
(0.0858609 0.00138356 0)
(0.084847 0.00110047 0)
(0.0848239 0.000260287 0)
(0.0779543 0.00202519 0)
(0.0971458 -0.0151585 0)
(0.036083 -0.00741936 0)
(0.201664 -0.106935 0)
(0.00937541 0.382035 0)
(0.249004 0.452346 0)
(0.423044 -0.214593 0)
(0.233604 -0.296229 0)
(0.0848169 -0.174513 0)
(0.00353273 -0.0593255 0)
(-0.00283273 -0.0124546 0)
(0.0499728 -0.000986876 0)
(0.0730562 0.00449351 0)
(0.0895977 0.0064119 0)
(0.0761635 0.0039827 0)
(0.102176 -0.00309403 0)
(0.0601281 -0.00208312 0)
(0.133972 -0.00462915 0)
(0.00813777 0.00426041 0)
(0.157778 -0.0136421 0)
(0.0376972 0.00358375 0)
(0.0583417 -0.0202013 0)
(-0.110957 -0.243 0)
(-0.123262 -0.319029 0)
(-0.148221 0.586001 0)
(-3.02454 0.479369 0)
(1.45056 -0.563348 0)
(2.37656 -0.0119529 0)
(1.13993 -0.0349224 0)
(0.401468 -0.174684 0)
(0.280165 0.0725893 0)
(0.131821 0.11974 0)
(0.0819591 0.0979939 0)
(0.0896564 -0.0329291 0)
(0.0524174 -0.0087416 0)
(0.0654654 0.00924595 0)
(0.0772735 -0.00106957 0)
(0.0864223 -0.00203782 0)
(0.0889824 0.0010611 0)
(0.0896666 0.00318238 0)
(0.0893535 0.00426482 0)
(0.0881412 0.00321646 0)
(0.0870884 0.00162673 0)
(0.0861626 0.00126947 0)
(0.0868512 0.00053447 0)
(0.0799108 0.00186941 0)
(0.10203 -0.0113331 0)
(0.0321127 -0.0290868 0)
(0.259529 -0.108085 0)
(-0.094737 0.322939 0)
(0.767397 0.356312 0)
(1.17439 -0.191419 0)
(0.409942 -0.167492 0)
(0.126295 -0.124131 0)
(0.00709872 -0.0422176 0)
(-0.00530119 -0.018813 0)
(0.0446333 -0.0115587 0)
(0.0699172 -0.00160809 0)
(0.0887356 0.00505496 0)
(0.0761134 0.00327196 0)
(0.103068 -0.00302574 0)
(0.0570476 -0.00294595 0)
(0.131914 -0.00241637 0)
(0.0063657 0.00519721 0)
(0.154657 -0.0150236 0)
(-0.0652643 0.0337179 0)
(-0.26233 0.00542121 0)
(-0.371898 -0.220197 0)
(-0.454245 -0.28822 0)
(-1.3299 0.81124 0)
(-3.1867 0.350916 0)
(-1.28759 -0.858145 0)
(1.81578 -0.0483821 0)
(1.09427 0.0668357 0)
(0.283586 -0.13104 0)
(0.258958 0.0849544 0)
(0.115195 0.128713 0)
(0.0805203 0.100218 0)
(0.0785341 -0.0317804 0)
(0.0298221 -0.00720666 0)
(0.0560255 0.0076015 0)
(0.0741432 -0.00237479 0)
(0.0848966 -0.00266967 0)
(0.0879912 0.000876637 0)
(0.0890467 0.00313884 0)
(0.0891163 0.00432544 0)
(0.0881973 0.00332079 0)
(0.0873018 0.00171428 0)
(0.0864402 0.00130096 0)
(0.087343 0.000722773 0)
(0.0804362 0.00145846 0)
(0.102905 -0.0093875 0)
(0.0295397 -0.0346311 0)
(0.169833 -0.095008 0)
(-0.310233 0.293715 0)
(0.792582 0.308692 0)
(1.50398 -0.172594 0)
(0.457725 -0.106749 0)
(0.136088 -0.102786 0)
(0.00894269 -0.03549 0)
(-0.00517885 -0.0204958 0)
(0.0432257 -0.0152523 0)
(0.0689577 -0.00384015 0)
(0.0881873 0.00461674 0)
(0.0758978 0.00278743 0)
(0.103462 -0.00259602 0)
(0.0554782 -0.0033943 0)
(0.130731 -0.00128554 0)
(0.00614731 0.00529514 0)
(0.156815 -0.0116459 0)
(-0.0901006 0.0616012 0)
(-0.203766 0.00298173 0)
(-0.743358 -0.147916 0)
(-0.98459 -0.14218 0)
(-3.81817 0.91692 0)
(-3.52134 0.310473 0)
(-3.08748 -0.936263 0)
(1.19883 -0.314642 0)
(1.0324 0.144978 0)
(0.0626175 -0.0925692 0)
(0.230456 0.0910903 0)
(0.104612 0.135838 0)
(0.109895 0.101431 0)
(0.0831972 -0.0274604 0)
(-0.000760972 -0.0057166 0)
(0.04535 0.00477223 0)
(0.0709325 -0.00411241 0)
(0.0830589 -0.00343118 0)
(0.086672 0.000646583 0)
(0.0880976 0.00305967 0)
(0.0885635 0.00435025 0)
(0.0879993 0.00340084 0)
(0.0873053 0.00179136 0)
(0.0865441 0.00131407 0)
(0.0876084 0.000926016 0)
(0.080703 0.000949808 0)
(0.102963 -0.00706932 0)
(0.0244612 -0.035499 0)
(0.061429 -0.066368 0)
(-0.564184 0.248448 0)
(1.19254 0.195589 0)
(1.74492 -0.139001 0)
(0.506306 -0.0357126 0)
(0.151851 -0.078741 0)
(0.0111095 -0.0282966 0)
(-0.00390844 -0.0218878 0)
(0.0427049 -0.0188979 0)
(0.0682623 -0.00608292 0)
(0.0874399 0.00418304 0)
(0.0754844 0.00220601 0)
(0.103144 -0.00201087 0)
(0.0543471 -0.00391032 0)
(0.13073 -9.19927e-05 0)
(0.00626661 0.0050766 0)
(0.166474 -0.0078823 0)
(-0.0871787 0.0908306 0)
(-0.245261 -0.0059975 0)
(-1.21349 -0.0171934 0)
(-1.06175 -0.00815697 0)
(-2.69016 0.983077 0)
(-3.6594 0.216623 0)
(-1.5071 -1.09368 0)
(-0.320368 -0.574017 0)
(0.633825 0.205418 0)
(-0.147555 -0.0729032 0)
(0.201995 0.0877231 0)
(0.0997914 0.140419 0)
(0.124664 0.101552 0)
(0.0717462 -0.019639 0)
(-0.0217174 -0.00437446 0)
(0.0376254 0.000531923 0)
(0.0707528 -0.00620704 0)
(0.0824627 -0.00420095 0)
(0.0853569 0.000409965 0)
(0.0868492 0.00294625 0)
(0.0877015 0.00433639 0)
(0.0875554 0.00345022 0)
(0.0871121 0.00185153 0)
(0.086488 0.00131555 0)
(0.0876604 0.00111509 0)
(0.0808348 0.000452273 0)
(0.102641 -0.00452108 0)
(0.0207035 -0.0322992 0)
(0.0245323 -0.0285225 0)
(-0.706043 0.168708 0)
(1.38336 0.0732282 0)
(1.73947 -0.0919991 0)
(0.520188 0.0412473 0)
(0.164088 -0.0531846 0)
(0.0123946 -0.0206868 0)
(-0.000969225 -0.023126 0)
(0.0437596 -0.0224388 0)
(0.0678966 -0.0082593 0)
(0.0865847 0.0037433 0)
(0.0749526 0.0016019 0)
(0.102654 -0.00138032 0)
(0.0534082 -0.00445338 0)
(0.13016 0.0010591 0)
(0.00577946 0.00443506 0)
(0.179942 -0.00561956 0)
(-0.0549 0.116989 0)
(-0.179196 -0.00566649 0)
(-0.695914 0.109936 0)
(-0.242895 -0.0952569 0)
(-0.216214 1.15291 0)
(-3.33708 0.132326 0)
(-1.10183 -1.15345 0)
(-2.0826 -0.584183 0)
(-0.0892404 0.162098 0)
(-0.28261 -0.0798626 0)
(0.169629 0.0757615 0)
(0.0991241 0.142238 0)
(0.137868 0.102455 0)
(0.0685069 -0.0107709 0)
(-0.020255 -0.00331554 0)
(0.0412179 -0.00433681 0)
(0.0727723 -0.0083194 0)
(0.0823738 -0.00484063 0)
(0.0843938 0.000218276 0)
(0.0856693 0.00282377 0)
(0.0867162 0.00428723 0)
(0.087007 0.00346391 0)
(0.0868696 0.0018894 0)
(0.0864411 0.00131323 0)
(0.0875928 0.00126955 0)
(0.0809325 1.71793e-05 0)
(0.10224 -0.00199879 0)
(0.0208091 -0.0291498 0)
(0.0543528 0.00979891 0)
(-0.655673 0.0811199 0)
(1.25324 -0.051706 0)
(1.56877 -0.049159 0)
(0.499802 0.112508 0)
(0.173746 -0.0281822 0)
(0.0138293 -0.0125627 0)
(0.00356444 -0.0243551 0)
(0.0459648 -0.0258097 0)
(0.0676796 -0.0103032 0)
(0.0857179 0.00326837 0)
(0.0744205 0.00104554 0)
(0.102113 -0.00082469 0)
(0.0524569 -0.00484976 0)
(0.129165 0.00203375 0)
(0.00504048 0.0035783 0)
(0.183114 -0.00475486 0)
(-0.0612929 0.137088 0)
(-0.132096 0.0049654 0)
(0.049126 -0.0017955 0)
(0.043751 -0.00623886 -1.92283e-33)
(0.0287372 -0.00432876 3.57636e-31)
(0.00604889 -0.00740274 3.14007e-30)
(-0.0221353 -0.0354568 0)
(0.0955248 -0.00306852 0)
(0.0968307 -0.00856424 0)
(0.0781827 -0.00217549 0)
(0.0194158 0.0353035 -8.40588e-31)
(-0.204259 0.0891761 0)
(0.108654 -0.0097373 0)
(0.117012 -0.00748595 0)
(0.114931 0.0011645 0)
(0.0831759 0.0636956 -3.56008e-30)
(0.159335 0.155878 0)
(0.0959952 -0.0143556 0)
(0.102446 -0.00465665 0)
(0.108157 0.00272985 0)
(0.0853028 0.0424831 9.99282e-31)
(0.257639 0.0888287 0)
(0.0505647 -0.00709101 0)
(0.0507536 -0.000913706 0)
(0.0577861 0.0025233 0)
(0.0575272 0.0138234 4.27052e-31)
(0.253668 0.0341533 0)
(-0.0169085 -0.102677 0)
(0.575933 0.0672706 0)
(-0.938307 1.96917 0)
(-1.65703 0.197949 0)
(0.126288 -1.29275 0)
(-1.04655 -0.505001 0)
(-0.108876 -0.131333 0)
(-0.250417 -0.12019 0)
(0.0720989 0.0333383 0)
(0.063025 0.138773 0)
(0.126947 0.105782 0)
(0.0818402 0.0127389 0)
(0.0328847 -0.00269353 0)
(0.0672416 -0.014772 0)
(0.0783976 -0.0131438 0)
(0.0812847 -0.00611176 0)
(0.0814439 -0.000157415 0)
(0.0821528 0.00257518 0)
(0.0833834 0.00408808 0)
(0.0847865 0.00339159 0)
(0.0855863 0.00192214 0)
(0.0858974 0.00133736 0)
(0.0868384 0.00149564 0)
(0.0809605 -0.000146867 0)
(0.100764 0.00348217 0)
(0.0286474 -0.0339695 0)
(0.145362 0.0577169 0)
(-0.114407 -0.0772515 0)
(0.527584 -0.245667 0)
(0.808745 0.046544 0)
(0.376552 0.272052 0)
(0.187261 0.0358952 0)
(0.0129465 0.0134408 0)
(0.0187602 -0.0283909 0)
(0.0542889 -0.0345698 0)
(0.0673567 -0.0153832 0)
(0.0827535 0.00153499 0)
(0.072687 4.76907e-05 0)
(0.100445 -0.000162023 0)
(0.0498962 -0.00494213 0)
(0.126225 0.00328477 0)
(0.00263423 0.000829171 0)
(0.175643 -0.00564618 0)
(-0.11327 0.109254 0)
(0.221865 -0.00780798 0)
(-0.593124 0.0772138 0)
(-1.28435 0.295335 0)
(-0.825456 1.71893 0)
(1.08088 -0.020271 0)
(0.898536 -1.42531 0)
(0.541719 -0.458131 0)
(0.294275 -0.139396 0)
(-0.088156 -0.108956 0)
(-0.0467967 -0.0139979 0)
(0.00142167 0.111498 0)
(0.083452 0.0918927 0)
(0.0889368 0.0256251 0)
(0.0734707 -0.00275538 0)
(0.0783017 -0.0157097 0)
(0.0759044 -0.0133834 0)
(0.0714835 -0.00542643 0)
(0.0701366 -6.37863e-05 0)
(0.07105 0.0022114 0)
(0.0731518 0.00315143 0)
(0.0755556 0.00250676 0)
(0.0770524 0.00140337 0)
(0.0780267 0.00104733 0)
(0.0792452 0.00124069 0)
(0.0754208 0.000942969 0)
(0.0930046 0.00749362 0)
(0.0410486 -0.0197214 0)
(0.0244724 0.0661227 0)
(-0.0799124 -0.00679389 0)
(-0.455609 -0.24221 0)
(-0.17639 -0.0557287 0)
(0.114774 0.248317 0)
(0.132198 0.0747915 0)
(0.04894 0.0479551 0)
(0.0586707 -0.0342391 0)
(0.0703302 -0.0418922 0)
(0.0652883 -0.0182165 0)
(0.076672 -0.00136188 0)
(0.0658041 -0.000227072 0)
(0.0938371 -0.00118286 0)
(0.0419368 -0.00123802 0)
(0.117751 0.00294474 0)
(-0.00536749 0.00831779 0)
(0.156775 0.0213614 0)
(-0.179712 0.00606158 0)
(0.761729 -0.0292388 0)
(0.102731 0.320722 0)
(0.424184 0.137586 0)
(0.774277 0.684029 0)
(2.25707 -0.263705 0)
(1.18312 -1.14255 0)
(-0.0625839 -0.24352 0)
(0.0578722 0.109076 0)
(-0.13666 -0.0393004 0)
(-0.113433 -0.00819958 0)
(-0.0522673 0.0707657 0)
(0.04399 0.0633925 0)
(0.0807915 0.0218431 0)
(0.0824777 -0.000474961 0)
(0.0748738 -0.0128945 0)
(0.0630633 -0.0100607 0)
(0.0558003 -0.00376015 0)
(0.0544497 1.67223e-05 0)
(0.0558334 0.00144067 0)
(0.0583652 0.00192517 0)
(0.0609485 0.00147163 0)
(0.0625004 0.000764445 0)
(0.0636043 0.00055467 0)
(0.0647957 0.000737223 0)
(0.0627432 0.000928976 0)
(0.0760066 0.0073136 0)
(0.0452383 -0.00487354 0)
(0.0561763 0.0680175 0)
(0.100213 0.053303 0)
(0.271622 -0.149957 0)
(-0.198682 -0.0981393 0)
(0.0146759 0.134914 0)
(0.0867181 0.0670269 0)
(0.0804403 0.0547679 0)
(0.0955905 -0.0379311 0)
(0.0820789 -0.03979 0)
(0.062575 -0.0161897 0)
(0.0679538 -0.00199511 0)
(0.0557479 -0.00082697 0)
(0.0824911 -0.00054608 0)
(0.0318453 0.000592161 0)
(0.110063 0.00452977 0)
(-0.00978125 0.0139685 0)
(0.179136 0.0460672 0)
(-0.0891272 -0.0960302 0)
(0.160367 -0.140877 0)
(0.192517 0.168233 0)
(0.325807 0.0461839 0)
(0.980433 0.252796 0)
(1.98952 -0.302293 0)
(0.704472 -0.649218 0)
(-0.183362 0.159484 0)
(-0.015333 0.00369646 0)
(-0.108354 -0.0340632 0)
(-0.114086 -0.0139949 0)
(-0.0709705 0.030404 0)
(0.0166353 0.030408 0)
(0.062049 0.0107445 0)
(0.0685239 -0.000921819 0)
(0.0583581 -0.00663446 0)
(0.0446848 -0.0050636 0)
(0.0368491 -0.00182994 0)
(0.0355807 -2.2415e-05 0)
(0.0368153 0.000571862 0)
(0.0389163 0.000762677 0)
(0.0409227 0.000553333 0)
(0.0420235 0.000206526 0)
(0.0427615 8.29463e-05 0)
(0.0435974 0.000155183 0)
(0.0424749 0.000581575 0)
(0.0557961 0.00465609 0)
(0.0394502 0.00681573 0)
(0.0652209 0.0473824 0)
(0.132688 -0.048102 0)
(0.0453156 -0.0957348 0)
(-0.280277 -0.033966 0)
(-0.0422675 0.055089 0)
(0.0430928 0.0655665 0)
(0.113369 0.05898 0)
(0.123739 -0.036569 0)
(0.0809829 -0.0291964 0)
(0.0501479 -0.0103081 0)
(0.0517962 -0.00174645 0)
(0.0399258 -0.000836778 0)
(0.0635254 -0.00030391 0)
(0.0186499 0.00114624 0)
(0.0924235 0.00360784 0)
(-0.0110904 0.00624188 0)
(0.162962 0.0289319 0)
(0.0434097 -0.0319495 0)
(-0.265493 -0.0172219 0)
(0.267309 0.120272 0)
(0.805221 0.0330506 0)
(0.888993 0.0619934 0)
(1.16606 -0.0827697 0)
(-0.0703177 -0.100229 0)
(-0.151159 0.108164 0)
(0.0433542 0.0513469 0)
(0.00766892 -0.0125079 0)
(-0.0495567 -0.0050375 0)
(-0.0441684 0.00365379 0)
(0.00437249 0.0044205 0)
(0.0308374 0.00114146 0)
(0.0329759 -0.000324672 0)
(0.0264033 -0.00115682 0)
(0.018323 -0.000764055 0)
(0.0140232 -0.0002287 0)
(0.0133579 -8.06978e-06 0)
(0.0138362 3.88363e-05 0)
(0.0146938 6.84692e-05 0)
(0.0155009 4.32867e-05 0)
(0.0158363 -2.71491e-05 0)
(0.015885 -7.24097e-05 0)
(0.0159369 -8.84893e-05 0)
(0.0140645 -0.000206976 0)
(0.0231097 0.000724768 0)
(0.0113639 0.000106386 0)
(0.0555475 0.0138585 0)
(0.126352 0.0240215 0)
(0.0961453 0.0213493 0)
(-0.106175 -0.0025178 0)
(-0.0217342 0.00582754 0)
(0.0120355 -0.0232003 0)
(0.166481 -0.00115621 0)
(0.105832 -0.0196251 0)
(0.049608 -0.00754327 0)
(0.0216602 -0.00183208 0)
(0.0213326 -0.000208739 0)
(0.0128254 -0.000465848 0)
(0.0268164 0.000314221 0)
(0.000213684 -0.000146378 0)
(0.0464026 0.0016663 0)
(-0.0142567 -0.00319169 0)
(0.065388 0.00210819 0)
(0.064098 0.0223952 0)
(0.0368769 -0.0153815 0)
)
;

boundaryField
{
    AirInlet
    {
        type            fixedValue;
        value           uniform (0.1 0 0);
    }
    WaterInlet
    {
        type            fixedValue;
        value           uniform (0.1 0 0);
    }
    ChannelWall
    {
        type            fixedValue;
        value           uniform (0 0 0);
    }
    Outlet
    {
        type            pressureInletOutletVelocity;
        value           nonuniform List<vector> 
15
(
(0.29721 -0.0440733 0)
(0.0961595 -0.147838 0)
(-0.098134 -0 0)
(-0.00203836 -0 0)
(0.0583417 -0.0202013 0)
(-0.247111 0 0)
(-0.144809 0 0)
(-0.181276 -0 0)
(-0.190302 -0 0)
(-0.106109 0 0)
(0.221865 -0.00780798 0)
(0.761729 -0.0292388 0)
(0.160367 -0.140877 0)
(-0.259063 -0 0)
(0.0368769 -0.0153815 0)
)
;
    }
    FrontAndBack
    {
        type            empty;
    }
}


// ************************************************************************* //
