/*--------------------------------*- C++ -*----------------------------------*\
| =========                 |                                                 |
| \\      /  F ield         | OpenFOAM: The Open Source CFD Toolbox           |
|  \\    /   O peration     | Version:  2.3.0                                 |
|   \\  /    A nd           | Web:      www.OpenFOAM.org                      |
|    \\/     M anipulation  |                                                 |
\*---------------------------------------------------------------------------*/
FoamFile
{
    version     2.0;
    format      ascii;
    class       volScalarField;
    location    "2.7";
    object      alpha.water;
}
// * * * * * * * * * * * * * * * * * * * * * * * * * * * * * * * * * * * * * //

dimensions      [0 0 0 0 0 0 0];

internalField   nonuniform List<scalar> 
2268
(
1
0.999999
1
1
1
0.999999
0.999999
0.999999
1
1
0.999999
0.999998
0.999998
0.999998
0.999998
0.999971
0.994217
0.981581
0.986775
0.998465
0.998465
0.996067
0.995289
1
1
1
1
0.999999
0.999997
0.999998
0.999999
0.999999
0.999999
0.999997
0.999996
0.999996
0.999997
0.999995
0.99838
0.982867
0.98044
0.98044
0.989272
0.996615
0.999354
0.997958
1
1
1
1
0.999999
0.999998
0.999999
0.999999
0.999997
0.999997
0.999997
0.999999
0.999999
0.999999
0.999997
0.998652
0.985587
0.98044
0.980484
0.98056
0.983044
0.999588
0.999989
1
1
1
1
0.999999
0.999999
1
0.999999
0.999997
0.999998
1
1
0.999999
1
0.999999
0.999997
0.998067
0.987453
0.983116
0.989817
0.998565
0.999402
0.999993
1
1
1
1
1
1
1
1
0.999999
1
1
1
1
1
0.999999
0.999986
0.999979
1
1
1
0.999999
0.999999
0.999993
1
1
1
0.999999
1
1
1
1
0.999999
0.999999
1
1
1
1
0.999998
0.999999
1
1
1
0.999999
0.999999
0.999998
0.999992
1
1
0.999999
0.999999
1
1
1
0.999999
0.999999
0.999999
1
1
1
1
1
1
1
1
0.999999
0.999999
0.999999
0.999998
0.999992
1
0.999999
0.999999
0.999999
1
1
0.999999
0.999999
0.999999
1
1
1
1
1
1
0.999999
0.999998
0.999997
0.999995
0.999995
0.999994
0.999996
0.999993
0.94664
0.947805
0.966842
0.980274
0.978966
0.980953
0.984006
0.957857
0.930349
0.930349
0.973861
0.993787
0.993788
0.992652
0.969333
0.969333
0.97896
0.979557
0.974662
0.94664
0.99327
0.99797
0.997961
0.997719
0.997698
0.997669
0.99764
0.950328
0.956184
0.992903
0.993788
0.993787
0.993788
0.986906
0.994152
0.99416
0.994155
0.989542
0.947921
0.995476
0.998019
0.997974
0.997794
0.997744
0.99768
0.997601
0.995745
0.940764
0.990529
0.993787
0.97996
0.915294
0.949825
0.98806
0.99415
0.994127
0.994114
0.948004
0.988666
0.998115
0.997329
0.99691
0.996856
0.997601
0.997532
0.996631
0.930183
0.948907
0.959016
0.901836
0.899689
0.899385
0.965254
0.994126
0.994111
0.994042
0.948147
0.987813
0.998218
0.998218
0.998216
0.991824
0.996798
0.997512
0.953019
0.927898
0.92381
0.921189
0.899882
0.899868
0.899645
0.951397
0.994084
0.994077
0.993575
0.961886
0.9945
0.998219
0.998219
0.998219
0.992022
0.989932
0.997494
0.953643
0.929059
0.929677
0.978669
0.899749
0.899815
0.899866
0.939698
0.99406
0.994075
0.993623
0.997826
0.997786
0.998209
0.998218
0.998219
0.998209
0.964522
0.994705
0.993019
0.930297
0.971756
0.994665
0.939528
0.899868
0.899891
0.949057
0.994087
0.994127
0.994074
0.997872
0.998054
0.9982
0.998209
0.998212
0.998147
0.907669
0.994639
0.994643
0.992435
0.994665
0.994665
0.994665
0.935598
0.913997
0.979077
0.993867
0.994102
0.994051
1
1
1
1
1
1
1
1
1
1
1
1
1
0.999999
0.999996
0.999988
0.999973
0.999949
0.999923
0.99992
0.999943
0.999949
0.999396
1
1
1
1
1
1
1
1
1
1
1
0.999996
0.999979
0.999948
0.99988
0.998844
0.989965
0.967253
0.924595
0.86768
0.819033
0.791106
0.778484
0.72784
0.688344
0.665032
0.657161
0.657454
0.662084
0.671444
0.691015
0.711284
0.723572
0.728923
0.723628
0.704161
0.673271
0.627486
0.550582
0.443799
0.341544
0.255434
0.194986
0.15716
0.124708
0.091132
0.0775885
0.0584766
0.0474635
0.0427993
0.0446918
0.0498788
0.0529709
0.0524355
0.0486108
0.0518591
0.0534926
0.0538229
0.0521076
0.0433763
0.0206478
0.00305524
0.00302979
0.00296368
0.00298979
0.00302097
0.00316478
0.0039528
0.00354712
0.0087204
0.00730096
0.00405918
0.0033918
0.00415194
0.00822394
0.014957
0.0164809
0.0156531
0.0158432
0.0163354
0.0162524
0.0129946
0.00557755
0.00309129
0.00304448
0.00296368
0.00291204
0.00287193
0.00302805
0.0074624
0.0127988
0.0107585
0.0086993
0.00826337
0.00339279
0.00248325
0.00297031
0.0164294
0.0208464
0.0208443
0.0208649
0.0208406
0.0207732
0.0207408
0.01166
0.00316978
0.00310188
0.00375339
0.00392872
0.0027932
0.00267429
0.00768526
0.0133382
0.0133753
0.0132403
0.0058119
0.00512555
0.00406598
0.00205933
0.00169705
0.00536677
0.0159265
0.0208605
0.0188815
0.0154119
0.0163886
0.0125883
0.00510827
0.00323783
0.00546218
0.00798135
0.00798135
0.003997
0.00229253
0.00585785
0.0131861
0.00887127
0.00151606
0.000821286
0.000727148
0.002171
0.00149197
0.000457022
0.00176874
0.00277646
0.000762192
8.03479e-05
7.58074e-05
7.42337e-05
7.72511e-05
0.00492708
0.00749009
0.00778902
0.00798135
0.00787069
0.00719832
0.001627
0.00115303
5.24712e-07
5.16467e-07
5.11757e-07
0.000142905
6.93763e-05
0.000107412
0.00022374
0.000315456
0.00063899
0.00226006
8.17041e-05
7.58266e-05
7.42581e-05
7.42389e-05
7.42342e-05
7.49166e-05
0.000205131
0.00233002
0.00394961
0.00196834
2.51199e-05
0.000134602
1.37477e-06
6.855e-07
5.11759e-07
5.11741e-07
6.54145e-05
2.58646e-05
2.1766e-05
5.01481e-05
0.000447239
0.00189219
0.00216362
0.00122066
0.000239773
0.000135603
7.39649e-05
7.45261e-05
7.50145e-05
7.27171e-05
3.37952e-05
9.57198e-06
3.30121e-06
2.87136e-06
2.24931e-06
1.81295e-05
3.13194e-05
7.07376e-06
5.11266e-07
2.72012e-05
1.07792e-05
6.80486e-06
1.84912e-05
0.000465963
0.00200045
0.00208281
0.00187064
0.00171485
0.00113649
0.000198838
9.6267e-05
7.64546e-05
0.000352044
0.000481091
0.000424963
0.000122059
8.89538e-06
1.16526e-06
1.63162e-05
6.24509e-05
5.74021e-05
5.42138e-07
1.00641e-05
4.42715e-06
2.35393e-06
1.49766e-05
0.000323712
0.000894606
0.000532256
8.41913e-05
6.00605e-05
0.000441188
0.000739131
0.000739131
0.000161206
0.000158008
0.00048846
0.000481091
0.000459698
4.82654e-05
1.39827e-07
1.95531e-05
6.24509e-05
6.21507e-05
4.28031e-05
3.62163e-06
1.76503e-06
7.96843e-07
4.70652e-06
7.32506e-05
4.59259e-06
4.78722e-09
2.51444e-09
2.09351e-10
1.88773e-10
1.27278e-05
1.84533e-05
5.06584e-05
2.29899e-05
9.75739e-05
0.00019705
1.64359e-05
4.356e-10
3.26022e-09
4.2883e-07
3.53628e-05
6.16068e-05
6.10095e-05
1.1852e-06
6.53072e-07
2.19e-07
3.94721e-07
9.92834e-07
2.70938e-07
6.75168e-08
3.25312e-10
1.90616e-10
1.73266e-10
1.65511e-10
1.61572e-10
1.61387e-10
1.61446e-10
1.61446e-10
1.61446e-10
1.63263e-10
1.8815e-10
2.49748e-10
-9.09157e-10
2.96336e-09
1.6009e-05
5.66893e-05
3.41606e-07
2.13519e-07
6.7559e-08
5.02864e-08
1.48257e-07
1.35276e-07
8.79235e-08
1.43937e-08
2.37625e-09
1.5111e-09
5.1887e-10
3.79826e-10
1.67779e-10
1.62084e-10
1.61615e-10
1.63122e-10
3.09133e-10
5.94994e-10
2.78065e-10
1.28318e-10
2.88176e-10
3.211e-09
3.62054e-07
9.48179e-08
6.52448e-08
2.43792e-08
1.30999e-08
2.54128e-08
2.67827e-08
3.38115e-08
1.34297e-08
2.65089e-09
1.18641e-09
6.58021e-10
4.49011e-10
2.96146e-10
2.07311e-10
1.71881e-10
1.92281e-10
3.96822e-10
7.24048e-10
4.14792e-10
1.12609e-10
1.96691e-10
1.00816e-08
2.11006e-08
3.08547e-08
2.00425e-08
8.71674e-09
4.32255e-09
5.29294e-09
4.74568e-09
3.67709e-09
3.87841e-09
2.10181e-09
1.06235e-09
6.54519e-10
4.53128e-10
3.01973e-10
2.40564e-10
1.88654e-10
1.58416e-10
1.43532e-10
1.4094e-10
1.19924e-10
9.79191e-11
1.09927e-10
7.72353e-08
2.43713e-07
1.36291e-08
8.2764e-09
3.87394e-09
2.17372e-09
2.16995e-09
2.06566e-09
1.74801e-09
1.751e-09
1.48565e-09
1.0154e-09
6.57596e-10
4.66576e-10
3.07916e-10
2.50831e-10
2.02091e-10
1.67151e-10
1.41332e-10
1.2315e-10
1.11338e-10
9.56863e-11
9.39035e-11
2.29805e-08
1.49847e-07
9.05833e-09
5.68249e-09
2.35989e-09
1.60692e-09
1.58374e-09
1.62216e-09
1.65401e-09
1.6397e-09
1.45007e-09
1.07461e-09
7.04583e-10
4.80301e-10
2.93873e-10
2.45056e-10
2.03517e-10
1.70267e-10
1.42469e-10
1.21665e-10
1.08081e-10
9.28953e-11
9.23664e-11
7.36002e-10
6.0533e-11
3.82097e-08
8.92619e-09
1.57008e-09
1.46933e-09
1.46664e-09
1.53334e-09
1.58688e-09
1.56911e-09
1.41516e-09
1.08013e-09
7.26873e-10
4.83249e-10
2.88522e-10
2.43241e-10
2.00583e-10
1.64612e-10
1.35405e-10
1.13769e-10
9.83338e-11
8.242e-11
1.47671e-10
6.22023e-11
6.053e-11
5.28048e-08
1.2289e-08
1.46897e-09
1.42564e-09
1.43039e-09
1.47811e-09
1.48797e-09
1.45227e-09
1.30295e-09
1.01918e-09
7.11337e-10
4.74585e-10
2.82432e-10
2.38181e-10
1.93795e-10
1.55163e-10
1.23482e-10
9.92635e-11
8.12955e-11
6.52146e-11
1.55177e-10
2.2437e-10
1.39145e-10
5.29521e-08
3.49748e-08
4.55177e-09
1.24259e-09
1.28248e-09
1.34028e-09
1.34284e-09
1.3014e-09
1.16268e-09
9.28454e-10
6.73176e-10
4.53456e-10
2.71888e-10
2.28908e-10
1.8418e-10
1.44301e-10
1.11097e-10
8.51076e-11
6.54746e-11
5.13917e-11
5.04061e-11
5.26757e-11
6.4967e-11
5.2952e-08
4.40675e-08
6.33667e-09
1.11455e-09
1.0948e-09
1.15866e-09
1.18637e-09
1.175e-09
1.10385e-09
9.20673e-10
6.63053e-10
4.3171e-10
2.57361e-10
2.16758e-10
1.7221e-10
1.31882e-10
9.81832e-11
7.18281e-11
5.20995e-11
3.81329e-11
2.93659e-11
2.39927e-11
1.98516e-11
2.92459e-08
1.43298e-08
2.54748e-09
1.08282e-09
1.07537e-09
1.07997e-09
1.11364e-09
1.11112e-09
1.08277e-09
9.49295e-10
6.80619e-10
4.22108e-10
2.45032e-10
2.05241e-10
1.59762e-10
1.18667e-10
8.4934e-11
5.92936e-11
4.0767e-11
2.79271e-11
1.93725e-11
1.37532e-11
9.92063e-12
2.17243e-09
1.22698e-09
1.08719e-09
1.07415e-09
1.07273e-09
1.07392e-09
1.08774e-09
1.08919e-09
1.06867e-09
9.39872e-10
6.91755e-10
4.40465e-10
2.32776e-10
1.85809e-10
1.39855e-10
1.01011e-10
6.99845e-11
4.69898e-11
3.08972e-11
2.00853e-11
1.30195e-11
8.4641e-12
5.52097e-12
2.04481e-06
1.94009e-06
6.78038e-06
6.54027e-07
1.01248e-09
1.01774e-09
9.77973e-10
9.60734e-10
9.58867e-10
8.64799e-10
6.72343e-10
4.42397e-10
2.20193e-10
1.58322e-10
1.16437e-10
8.09919e-11
5.40384e-11
3.48557e-11
2.19498e-11
1.36124e-11
8.36625e-12
5.11527e-12
3.11603e-12
2.35197e-05
2.51547e-05
2.57126e-05
2.33862e-05
3.90014e-06
2.75596e-09
9.12668e-10
7.23593e-10
7.24153e-10
6.91545e-10
5.78355e-10
3.92397e-10
1.79555e-10
1.28726e-10
8.84916e-11
5.87212e-11
3.73973e-11
2.30171e-11
1.38168e-11
8.15153e-12
4.75161e-12
2.74555e-12
1.57542e-12
2.56834e-05
2.57127e-05
2.57124e-05
2.57127e-05
4.05001e-06
4.71656e-09
5.73181e-10
3.46457e-10
4.5253e-10
4.35877e-10
3.61813e-10
2.2429e-10
1.21023e-10
8.80218e-11
5.82694e-11
3.65929e-11
2.2038e-11
1.28355e-11
7.28795e-12
4.05991e-12
2.22909e-12
1.21008e-12
6.5095e-13
7.68576e-06
2.36389e-05
2.11584e-05
7.55125e-06
1.08889e-06
1.6493e-09
2.82976e-10
2.02405e-10
1.91768e-10
1.70294e-10
1.37668e-10
1.03499e-10
7.63457e-11
5.12455e-11
3.21076e-11
1.89363e-11
1.06947e-11
5.83525e-12
3.09888e-12
1.6109e-12
8.23218e-13
4.14964e-13
2.06912e-13
1.80806e-08
2.2307e-06
1.24781e-06
1.92484e-08
6.30029e-09
9.17126e-09
2.13692e-09
2.13679e-10
1.19431e-10
1.09341e-10
8.35708e-11
6.01659e-11
4.0522e-11
2.53421e-11
1.47647e-11
8.05195e-12
4.20187e-12
2.11626e-12
1.03552e-12
4.94715e-13
2.31693e-13
1.06754e-13
4.85666e-14
1.12418e-09
6.89623e-09
4.46623e-09
1.20427e-09
2.49468e-10
2.026e-09
1.17481e-09
3.16959e-10
8.35227e-11
6.45965e-11
4.45045e-11
2.93467e-11
1.81427e-11
1.04315e-11
5.5722e-12
2.76719e-12
1.31474e-12
6.01921e-13
2.67096e-13
1.15362e-13
4.8676e-14
2.01391e-14
8.21882e-15
1.28063e-10
4.18928e-10
2.76457e-10
1.29387e-10
5.63877e-11
5.80978e-11
1.77034e-10
1.0772e-10
5.20929e-11
3.14153e-11
1.96566e-11
1.18562e-11
6.70311e-12
3.51353e-12
1.69982e-12
7.57153e-13
3.22925e-13
1.32409e-13
5.24557e-14
2.01523e-14
7.5324e-15
2.75361e-15
1.00962e-15
4.88454e-11
5.90064e-11
5.03346e-11
4.08639e-11
3.50922e-11
4.05001e-11
3.47179e-11
3.37675e-11
2.00798e-11
1.20396e-11
7.06467e-12
3.92228e-12
2.02143e-12
9.57303e-13
4.13805e-13
1.62847e-13
6.14442e-14
2.22399e-14
7.74962e-15
2.60821e-15
8.51456e-16
2.76039e-16
1.1107e-16
4.11881e-11
2.87725e-11
2.66627e-11
3.14982e-11
2.67876e-11
2.03464e-11
1.54223e-11
1.07628e-11
6.56065e-12
3.80481e-12
2.08514e-12
1.06104e-12
4.94567e-13
2.09085e-13
7.94291e-14
2.72228e-14
8.94559e-15
2.81631e-15
8.50864e-16
2.47523e-16
7.06335e-17
2.46833e-17
2.9309e-17
1.82944e-11
2.60906e-11
2.1504e-11
1.53178e-11
1.01259e-11
7.04565e-12
4.85204e-12
3.11513e-12
1.83044e-12
1.00196e-12
5.0723e-13
2.34406e-13
9.77012e-14
3.63135e-14
1.18788e-14
3.49809e-15
9.8474e-16
2.65329e-16
6.84828e-17
1.71169e-17
4.93233e-18
5.08277e-18
1.84334e-17
5.57041e-12
8.95343e-12
7.18323e-12
4.84372e-12
3.09882e-12
2.02576e-12
1.29823e-12
7.80299e-13
4.32369e-13
2.20066e-13
1.01815e-13
4.22685e-14
1.55381e-14
4.98393e-15
1.3688e-15
3.41807e-16
8.10816e-17
1.83655e-17
3.99193e-18
9.17705e-19
6.53372e-19
2.43885e-18
1.13386e-17
1.37458e-12
2.43142e-12
1.90563e-12
1.25032e-12
7.81606e-13
4.87812e-13
2.94777e-13
1.66465e-13
8.61648e-14
4.03927e-14
1.6919e-14
6.23831e-15
1.99151e-15
5.39447e-16
1.20639e-16
2.51691e-17
4.94904e-18
9.24742e-19
1.70141e-19
6.36991e-20
2.0757e-19
1.0886e-18
5.5724e-18
2.7356e-13
5.28571e-13
4.11662e-13
2.67672e-13
1.6453e-13
9.90087e-14
5.6849e-14
3.02011e-14
1.45359e-14
6.23682e-15
2.34659e-15
7.60197e-16
2.07464e-16
4.63655e-17
8.29986e-18
1.40256e-18
2.23456e-19
3.37862e-20
6.13408e-21
9.97973e-21
5.95322e-20
3.54967e-19
2.01534e-18
4.36773e-14
9.31767e-14
7.35079e-14
4.79977e-14
2.92258e-14
1.70859e-14
9.37316e-15
4.6914e-15
2.09584e-15
8.20178e-16
2.75742e-16
7.78536e-17
1.79333e-17
3.24116e-18
4.58275e-19
6.06781e-20
7.57276e-21
9.06168e-22
2.71251e-22
1.43912e-21
1.06626e-20
7.35457e-20
4.77683e-19
5.54266e-15
1.33884e-14
1.0953e-14
7.28476e-15
4.43392e-15
2.53624e-15
1.3361e-15
6.31662e-16
2.62135e-16
9.356e-17
2.80866e-17
6.89919e-18
1.33662e-18
1.94124e-19
2.13316e-20
2.13981e-21
2.00137e-22
1.80064e-23
1.02146e-23
9.4396e-23
8.92979e-22
7.67523e-21
6.11797e-20
5.40788e-16
1.56341e-15
1.37359e-15
9.47708e-16
5.82576e-16
3.28363e-16
1.66989e-16
7.4873e-17
2.89736e-17
9.47505e-18
2.55604e-18
5.51402e-19
9.11694e-20
1.08956e-20
9.21783e-22
6.75724e-23
4.42801e-24
2.56707e-25
8.95636e-26
1.27386e-24
1.83497e-23
2.36041e-22
2.76047e-21
3.62919e-17
1.48039e-16
1.47025e-16
1.07316e-16
6.72572e-17
3.75943e-17
1.85596e-17
7.93836e-18
2.88549e-18
8.73578e-19
2.15091e-19
4.17627e-20
6.13638e-21
6.46255e-22
4.58464e-23
2.48541e-24
9.35973e-26
2.29739e-27
4.2366e-29
6.94529e-29
2.68217e-27
9.43142e-26
3.05365e-24
0.993034
0.990024
0.992364
0.995352
0.790812
0.788451
0.786703
0.791253
0.068949
0.0632964
0.0639176
0.0671388
0.00350454
0.00348011
0.00346061
0.00345385
0.00604044
0.004113
0.00354285
0.00346061
0.0127128
0.0101174
0.00489594
0.00431317
6.13022e-07
2.12854e-06
0.000428239
0.00194805
5.16479e-07
1.07803e-06
8.54919e-07
1.35104e-06
5.1175e-07
5.18899e-07
5.41567e-07
2.28896e-06
5.18982e-07
5.5869e-07
7.80691e-07
1.43686e-05
5.61154e-07
4.51526e-07
9.64743e-07
1.73032e-05
4.30609e-07
2.06143e-07
3.18984e-06
1.61917e-05
1.73714e-06
1.54592e-07
1.05476e-07
2.06362e-06
7.38236e-06
1.05449e-07
6.13554e-08
3.88947e-08
1.94869e-05
1.57796e-06
4.05236e-08
2.97812e-08
1.29644e-07
4.80161e-07
8.62428e-07
8.74141e-08
4.0489e-08
3.6689e-08
6.03653e-08
1.10684e-07
1.14798e-07
3.51122e-08
1.00443e-09
9.97725e-10
2.11209e-08
5.31796e-08
2.39915e-08
7.47944e-11
4.81196e-11
4.81007e-11
4.43621e-11
2.05692e-10
9.39543e-11
6.434e-11
4.79782e-11
3.93389e-11
6.3923e-11
5.70131e-11
4.68223e-11
3.6327e-11
1.78839e-11
1.58856e-11
1.38325e-11
1.1783e-11
8.36698e-12
7.04433e-12
5.89134e-12
4.87548e-12
4.39467e-12
3.50066e-12
2.78501e-12
2.20804e-12
2.37975e-12
1.81785e-12
1.38796e-12
1.05805e-12
1.15996e-12
8.53688e-13
6.2783e-13
4.61074e-13
4.60429e-13
3.25376e-13
2.29725e-13
1.61986e-13
1.39448e-13
9.38707e-14
6.31412e-14
4.24513e-14
3.08216e-14
1.95418e-14
1.24018e-14
7.9046e-15
4.85427e-15
2.88188e-15
1.74297e-15
1.1053e-15
5.68934e-16
3.46779e-16
2.50525e-16
2.32728e-16
8.31003e-17
8.53346e-17
1.10146e-16
1.57584e-16
3.9923e-17
5.92715e-17
9.0001e-17
1.3718e-16
2.86276e-17
4.44693e-17
6.88381e-17
1.06453e-16
1.79239e-17
2.81543e-17
4.41122e-17
6.95641e-17
8.90392e-18
1.41498e-17
2.26232e-17
3.72328e-17
3.2592e-18
5.28401e-18
8.8719e-18
1.62987e-17
7.87119e-19
1.34809e-18
2.61772e-18
6.29343e-18
1.06601e-19
2.24077e-19
6.40804e-19
2.41522e-18
6.48277e-21
2.60721e-20
1.31022e-19
8.12329e-19
4.34498e-23
6.04979e-22
8.308e-21
1.5569e-19
0.997809
0.997874
0.998055
0.998085
0.998042
0.996371
0.834226
0.819401
0.920251
0.949778
0.964557
0.97758
0.994108
0.993553
0.992088
0.977612
0.968901
0.987674
0.993897
0.796104
0.79717
0.789722
0.784505
0.803346
0.842615
0.77652
0.595186
0.64095
0.673103
0.717602
0.766503
0.812843
0.861174
0.902254
0.920943
0.936129
0.918971
0.897486
0.0735309
0.0795924
0.0855859
0.0945141
0.116764
0.214415
0.418729
0.576621
0.587497
0.590675
0.592125
0.580984
0.567533
0.563727
0.562662
0.552166
0.54056
0.557265
0.603647
0.00343578
0.00339835
0.00337956
0.00337598
0.00337938
0.00337598
0.0033672
0.00355543
0.0208244
0.0205355
0.00653687
0.00304104
0.0126079
0.0236047
0.0270143
0.0249301
0.0235202
0.0359724
0.056523
0.00395394
0.00550829
0.00524044
0.00489816
0.00482644
0.00449258
0.00332625
0.0018056
0.00145231
0.00143418
0.00143846
0.00145713
0.000873976
4.92507e-05
3.66032e-05
2.73853e-05
4.25701e-05
6.71009e-05
0.000130153
0.00787251
0.00788645
0.00783346
0.00773689
0.00765242
0.00757043
0.0074754
0.00716056
0.00455701
0.00260206
0.00155905
0.00122943
0.000199268
3.93056e-05
3.40059e-05
2.09558e-05
2.06661e-05
2.54809e-05
0.000104743
0.00307256
0.00326414
0.00290793
0.00292572
0.00276745
0.00233128
0.000959722
1.31432e-05
1.24314e-05
1.2402e-05
1.24018e-05
1.24019e-05
0.000364837
0.000397919
0.00010318
1.94106e-05
1.94102e-05
2.06664e-05
0.000190135
1.56958e-06
1.56958e-06
2.45649e-06
3.93399e-06
4.95072e-06
6.52585e-06
9.4483e-06
2.90461e-05
1.24059e-05
1.24015e-05
1.24019e-05
4.95104e-05
0.000256352
0.000170849
2.67019e-05
1.94102e-05
1.94106e-05
6.39732e-05
0.00022178
2.37457e-05
4.50796e-05
3.46625e-05
1.92286e-05
3.72949e-05
6.58669e-05
9.26222e-05
0.000110137
5.83689e-05
1.24054e-05
1.24015e-05
1.24308e-05
1.30228e-05
1.34818e-05
1.4882e-05
2.84821e-05
0.000121481
0.00022178
0.00022178
6.0171e-05
6.62483e-05
6.62621e-05
6.24892e-05
8.29177e-05
0.000106809
0.000109266
0.00011024
7.25213e-05
1.24121e-05
1.27284e-05
2.94959e-05
7.62394e-05
0.000128249
0.000135087
0.000152844
0.000152844
0.000138507
3.78005e-05
4.26739e-05
3.95782e-05
2.07516e-06
8.38282e-07
7.15435e-07
6.25919e-07
4.31385e-05
7.9114e-05
1.49679e-05
1.2561e-05
8.32529e-05
0.00015329
0.00015329
0.00015329
0.000153162
0.000128303
4.45625e-05
2.07592e-05
2.12201e-05
2.02529e-05
3.25033e-06
2.78228e-06
7.78487e-07
6.26129e-07
6.25927e-07
5.031e-07
9.26993e-07
2.89641e-05
3.55834e-05
7.03554e-05
0.000153287
0.00015329
0.000152653
5.32452e-05
1.16825e-05
1.31802e-05
1.57666e-05
4.57547e-05
1.22251e-05
2.34086e-05
2.34164e-05
1.48582e-05
2.68956e-06
5.03105e-07
4.13729e-07
2.78163e-05
4.17495e-05
4.17495e-05
1.82461e-05
1.31518e-05
4.39457e-05
3.73571e-05
6.43178e-06
1.04308e-05
5.83174e-05
5.9907e-05
5.9907e-05
3.34251e-06
2.34194e-05
2.34164e-05
2.34164e-05
2.17864e-05
2.81514e-07
8.21178e-08
3.85187e-06
1.66416e-05
1.00996e-05
1.47486e-07
1.44761e-07
1.50174e-07
1.41499e-07
8.51911e-08
9.76506e-06
5.32425e-05
5.97602e-05
5.9907e-05
3.43061e-09
8.0911e-07
2.10735e-05
2.34164e-05
2.32524e-05
1.12896e-05
7.93042e-08
8.21152e-08
8.49032e-08
8.78032e-08
2.87963e-07
1.17192e-06
1.16992e-06
2.08812e-07
8.5191e-08
1.2881e-07
2.72468e-09
2.11618e-05
5.94512e-05
1.78601e-09
6.66876e-11
1.04799e-09
1.4533e-05
2.25874e-05
8.5526e-06
7.14086e-08
8.07488e-08
1.82851e-07
2.29723e-07
2.46882e-07
9.68887e-07
1.18859e-06
1.18859e-06
4.96614e-07
7.32826e-10
7.87092e-10
2.72391e-09
8.73416e-06
5.8593e-09
3.39608e-11
3.00162e-11
-2.85666e-11
9.33798e-07
1.15463e-07
6.42756e-08
2.43127e-07
1.08238e-06
1.09519e-06
3.30167e-07
1.96073e-07
1.96212e-07
3.18084e-07
6.17194e-08
6.6536e-10
1.46231e-09
1.1195e-07
1.43664e-07
3.69004e-11
3.66452e-11
3.01122e-11
2.97432e-11
2.99202e-11
3.5909e-11
2.2543e-10
2.97396e-07
1.09519e-06
1.09519e-06
1.09519e-06
3.32962e-07
5.82428e-10
5.8324e-10
5.81959e-10
5.89876e-10
6.90585e-10
1.05632e-06
2.21175e-05
7.27979e-11
5.43858e-11
3.47472e-11
2.97425e-11
3.24153e-11
3.43435e-11
5.10879e-11
2.76103e-08
2.94142e-07
1.09519e-06
1.09503e-06
1.09486e-06
4.11859e-08
5.83248e-10
5.89616e-10
1.09269e-09
7.16916e-10
1.96902e-06
3.40159e-05
8.89354e-11
4.56398e-11
3.35114e-11
2.78867e-11
2.68776e-11
7.3501e-11
4.06821e-10
2.06081e-11
2.28932e-11
3.14244e-07
1.0901e-06
7.64908e-07
1.11502e-07
1.40783e-08
2.086e-08
4.06481e-09
8.05852e-11
1.36846e-06
3.40159e-05
3.09504e-11
2.57449e-11
2.2486e-11
2.06651e-11
1.96176e-11
1.97048e-11
1.88281e-11
2.03376e-11
2.04823e-11
2.19835e-11
2.67161e-08
2.50087e-11
7.87388e-08
1.1027e-07
1.10442e-07
7.1782e-09
7.56723e-11
6.28355e-07
3.40122e-05
2.18622e-11
1.50061e-11
1.2505e-11
1.19728e-11
1.24391e-11
1.39989e-11
1.69171e-11
2.10672e-11
2.51979e-11
2.40982e-11
2.41931e-11
2.44091e-11
4.88714e-09
1.10446e-07
1.0797e-07
9.69958e-09
6.29347e-11
2.88752e-07
3.39754e-05
8.18236e-12
6.01603e-12
5.17865e-12
5.31814e-12
6.24055e-12
8.07787e-12
1.1094e-11
1.53771e-11
2.00123e-11
2.39706e-11
2.5305e-11
2.58126e-11
2.55738e-11
4.396e-08
1.90863e-08
1.98081e-09
5.28816e-11
4.99148e-11
3.2008e-05
3.22682e-12
2.21553e-12
1.78076e-12
1.85361e-12
2.45631e-12
3.76602e-12
6.04678e-12
9.414e-12
1.36921e-11
1.76509e-11
2.11713e-11
2.39059e-11
2.55724e-11
2.55729e-11
2.56578e-11
2.63064e-11
4.98817e-11
4.98817e-11
3.15167e-05
1.36102e-12
8.47925e-13
5.90732e-13
5.58314e-13
7.9239e-13
1.44559e-12
2.76091e-12
4.9321e-12
7.92456e-12
1.14904e-11
1.53774e-11
1.94995e-11
2.37923e-11
2.81071e-11
3.71296e-11
5.54041e-11
5.42632e-11
4.99148e-11
3.1101e-05
6.08287e-13
3.47064e-13
2.0918e-13
1.66419e-13
2.34204e-13
4.94303e-13
1.10323e-12
2.24483e-12
4.0467e-12
6.58664e-12
9.98734e-12
1.44166e-11
2.02387e-11
2.82558e-11
4.35247e-11
6.94559e-11
6.41124e-11
4.99981e-11
1.98601e-05
2.48274e-13
1.32204e-13
7.29893e-14
5.25583e-14
7.46522e-14
1.76236e-13
4.41839e-13
1.00225e-12
2.01408e-12
3.67381e-12
6.26895e-12
1.02216e-11
1.62898e-11
2.5603e-11
4.39416e-11
7.40958e-11
7.57733e-11
5.03411e-11
5.24658e-11
8.15845e-14
4.11998e-14
2.29083e-14
1.96669e-14
3.45651e-14
8.66091e-14
2.22228e-13
5.272e-13
1.13551e-12
2.25313e-12
4.19829e-12
7.48325e-12
1.29833e-11
2.20625e-11
4.13375e-11
7.585e-11
7.9272e-11
5.18455e-11
6.64133e-11
2.00255e-14
1.02647e-14
7.89525e-15
1.24974e-14
2.88477e-14
7.06831e-14
1.68984e-13
3.84803e-13
8.26638e-13
1.67977e-12
3.25174e-12
6.05299e-12
1.09502e-11
1.94456e-11
3.9293e-11
7.90114e-11
7.91561e-11
6.23263e-11
6.53715e-07
3.75147e-15
2.98734e-15
5.57022e-15
1.41672e-14
3.53484e-14
8.25887e-14
1.82455e-13
3.85664e-13
7.85036e-13
1.54561e-12
2.95392e-12
5.50837e-12
1.00827e-11
1.82497e-11
3.93583e-11
8.48808e-11
7.93688e-11
7.56227e-11
1.36167e-05
9.41908e-16
2.31682e-15
7.26739e-15
2.06831e-14
5.1853e-14
1.16847e-13
2.431e-13
4.7853e-13
9.08181e-13
1.68339e-12
3.0735e-12
5.5716e-12
1.00743e-11
1.82764e-11
4.17473e-11
9.22274e-11
7.94875e-11
3.96511e-07
1.68884e-05
7.47337e-16
3.13321e-15
1.12722e-14
3.35343e-14
8.45617e-14
1.86642e-13
3.71957e-13
6.89098e-13
1.21831e-12
2.10084e-12
3.5961e-12
6.20987e-12
1.08792e-11
1.94984e-11
4.77705e-11
1.01057e-10
7.97164e-11
1.71491e-06
1.68884e-05
9.00255e-16
4.61024e-15
1.81581e-14
5.64701e-14
1.45143e-13
3.19989e-13
6.23949e-13
1.10759e-12
1.84278e-12
2.95713e-12
4.70667e-12
7.63476e-12
1.2723e-11
2.21447e-11
5.95159e-11
1.15447e-10
8.00673e-11
1.77871e-06
1.68849e-05
1.09952e-15
6.63801e-15
2.83662e-14
9.2993e-14
2.48326e-13
5.60107e-13
1.09556e-12
1.90675e-12
3.04048e-12
4.59193e-12
6.81787e-12
1.03276e-11
1.61168e-11
2.66898e-11
7.08855e-11
1.44194e-10
9.3042e-11
9.30421e-11
1.47405e-05
1.27554e-15
8.81965e-15
4.07689e-14
1.43295e-13
4.08004e-13
9.67203e-13
1.94565e-12
3.39548e-12
5.29191e-12
7.64271e-12
1.07081e-11
1.52184e-11
2.21271e-11
3.43998e-11
7.62971e-11
2.05731e-10
9.36074e-11
1.05838e-09
1.19275e-07
1.34583e-15
1.032e-14
5.20697e-14
2.01827e-13
6.33367e-13
1.62247e-12
3.43254e-12
6.12396e-12
9.49632e-12
1.33324e-11
1.79029e-11
2.42513e-11
3.33164e-11
4.90592e-11
1.15219e-10
1.39778e-10
4.85296e-10
2.11134e-07
6.97012e-09
1.22553e-15
1.02494e-14
5.79372e-14
2.57304e-13
9.23029e-13
2.61421e-12
5.91205e-12
1.09431e-11
1.71517e-11
2.37956e-11
3.11623e-11
4.12355e-11
5.55745e-11
8.06596e-11
1.56396e-10
5.4874e-10
7.8008e-10
9.72482e-09
9.66625e-10
9.06901e-16
8.40167e-15
5.55084e-14
2.94057e-13
1.24611e-12
3.94602e-12
9.61829e-12
1.86488e-11
2.99345e-11
4.16732e-11
5.4112e-11
7.15825e-11
9.93179e-11
1.51849e-10
3.13414e-10
8.43748e-10
1.05715e-09
5.45504e-10
9.31709e-10
5.13069e-16
5.58224e-15
4.54369e-14
2.95973e-13
1.51749e-12
5.3591e-12
1.41402e-11
2.894e-11
4.82177e-11
6.8439e-11
8.94237e-11
1.191e-10
1.72716e-10
2.93522e-10
6.53595e-10
9.94552e-10
8.94101e-10
5.25129e-10
1.43596e-09
2.09818e-16
2.97994e-15
3.14738e-14
2.53877e-13
1.59455e-12
6.2021e-12
1.78747e-11
3.90011e-11
6.88039e-11
1.01915e-10
1.36243e-10
1.82649e-10
2.57165e-10
4.43929e-10
7.37185e-10
7.30223e-10
5.22482e-10
5.24007e-10
7.74234e-10
5.7251e-17
1.20825e-15
1.68479e-14
1.66118e-13
1.30451e-12
5.52722e-12
1.77778e-11
4.17787e-11
8.02568e-11
1.28896e-10
1.79402e-10
2.47775e-10
3.12279e-10
3.90971e-10
1.55059e-09
7.32695e-10
7.70412e-08
4.00233e-08
7.84846e-10
8.36368e-18
2.8867e-16
5.22103e-15
6.04971e-14
6.30386e-13
2.89897e-12
1.06932e-11
2.70263e-11
5.76278e-11
1.05719e-10
1.57541e-10
2.26485e-10
2.98854e-10
3.24682e-10
1.23023e-10
8.31428e-08
3.12072e-07
3.12072e-07
9.43988e-08
)
;

boundaryField
{
    leftWall
    {
        type            zeroGradient;
    }
    rightWall
    {
        type            zeroGradient;
    }
    lowerWall
    {
        type            zeroGradient;
    }
    atmosphere
    {
        type            inletOutlet;
        inletValue      uniform 0;
        value           nonuniform List<scalar> 
46
(
3.62919e-17
1.48039e-16
1.47025e-16
1.07316e-16
6.72572e-17
3.75943e-17
1.85596e-17
7.93836e-18
2.88549e-18
8.73578e-19
2.15091e-19
4.17627e-20
6.13638e-21
6.46255e-22
4.58464e-23
2.48541e-24
0
0
0
0
0
0
0
0
0
0
0
0
0
0
0
0
0
0
0
0
0
0
0
0
0
1.23023e-10
8.31428e-08
3.12072e-07
3.12072e-07
9.43988e-08
)
;
    }
    defaultFaces
    {
        type            empty;
    }
}


// ************************************************************************* //
