/*--------------------------------*- C++ -*----------------------------------*\
| =========                 |                                                 |
| \\      /  F ield         | OpenFOAM: The Open Source CFD Toolbox           |
|  \\    /   O peration     | Version:  2.3.0                                 |
|   \\  /    A nd           | Web:      www.OpenFOAM.org                      |
|    \\/     M anipulation  |                                                 |
\*---------------------------------------------------------------------------*/
FoamFile
{
    version     2.0;
    format      ascii;
    class       volScalarField;
    location    "2.7";
    object      epsilon;
}
// * * * * * * * * * * * * * * * * * * * * * * * * * * * * * * * * * * * * * //

dimensions      [0 2 -3 0 0 0 0];

internalField   nonuniform List<scalar> 
2268
(
0.00364701
0.0203846
0.0383528
0.0568582
0.0756313
0.094373
0.11273
0.130291
0.14659
0.161153
0.173599
0.183816
0.192438
0.199435
0.204281
0.205649
0.200964
0.191917
0.180101
0.161357
0.12685
0.0733832
0.0179454
0.0076709
0.0137168
0.0217373
0.0300539
0.0384652
0.046883
0.0551942
0.0632357
0.0707931
0.0776246
0.0835057
0.0883267
0.0921686
0.0950331
0.0968559
0.0974137
0.0963445
0.0937625
0.0897539
0.0829352
0.0701004
0.0493574
0.0277485
0.013373
0.0142725
0.0200013
0.0263445
0.0328904
0.0395154
0.0461119
0.052541
0.0586257
0.0641687
0.068986
0.0729666
0.0761146
0.0784528
0.0800085
0.0807683
0.0806999
0.0798131
0.0779748
0.0743298
0.0667833
0.0528797
0.0421996
0.0193642
0.0160492
0.020683
0.0263073
0.0322534
0.038325
0.0443876
0.0502967
0.0558855
0.0609788
0.0654218
0.0691219
0.07208
0.0743333
0.0759453
0.076979
0.0775094
0.0775725
0.0770625
0.075451
0.0712317
0.0615128
0.0541966
0.0256632
0.0184267
0.0223826
0.0277244
0.0334996
0.0394246
0.0453274
0.0510506
0.0564319
0.0613146
0.065572
0.0691386
0.0720304
0.0742996
0.0760286
0.0773146
0.0782752
0.0790001
0.0795202
0.0796938
0.0786136
0.073446
0.0672457
0.032486
0.0213103
0.0247994
0.0300873
0.0359079
0.0418786
0.0477845
0.0534554
0.0587353
0.063488
0.0676174
0.0710906
0.0739443
0.0762434
0.0780805
0.079566
0.0808355
0.0820379
0.0833942
0.0852622
0.0877623
0.0893786
0.0885153
0.0401333
0.0247461
0.0278869
0.0332708
0.039273
0.0453954
0.0513787
0.0570448
0.0622511
0.0668879
0.0708936
0.0742717
0.0770793
0.0793884
0.0812948
0.0829087
0.0843748
0.0859015
0.0879055
0.0913034
0.0978668
0.111046
0.137972
0.0489867
0.0288512
0.0316962
0.0372886
0.0435699
0.049903
0.0559847
0.0616408
0.0667549
0.0712523
0.0751095
0.0783707
0.0811053
0.0833848
0.0853021
0.0869606
0.088513
0.0902204
0.092645
0.0971289
0.107141
0.135939
0.269103
0.016403
0.080589
0.131558
0.159168
0.173215
0.173624
0.160276
0.139078
0.11112
0.0860651
0.0792392
0.0759479
0.0596837
0.0517051
0.055736
0.0589995
0.0547737
0.0362104
0.00997662
0.0206527
0.0449458
0.0615267
0.0714097
0.076763
0.0774818
0.0742045
0.0684507
0.0612123
0.0522926
0.0450301
0.0404917
0.0359257
0.0340978
0.0332449
0.0300377
0.0263106
0.020525
0.0148499
0.0336469
0.044691
0.053295
0.0586742
0.0614974
0.0614943
0.059327
0.0558676
0.0512776
0.0454882
0.0398891
0.0357978
0.0326926
0.0312436
0.029895
0.0271355
0.0246842
0.0221909
0.0233742
0.0500064
0.0507238
0.0539557
0.0563845
0.0575481
0.0568214
0.054741
0.0519435
0.048145
0.0436004
0.0391678
0.0355936
0.0329048
0.0311119
0.0295592
0.0276332
0.0261666
0.0255819
0.0325159
0.0727179
0.0600227
0.0575809
0.0573452
0.0571313
0.0557643
0.0535582
0.0510019
0.0476113
0.0437996
0.0401303
0.0369887
0.0344819
0.0323588
0.0305496
0.029148
0.0284345
0.02927
0.0424492
0.106091
0.0713887
0.0623264
0.0595988
0.0582332
0.0563666
0.0540298
0.0515994
0.0485503
0.04529
0.0421148
0.0392833
0.036852
0.0344902
0.032426
0.0312246
0.0310421
0.0331036
0.0534995
0.165817
0.0834944
0.0671091
0.0622847
0.0600558
0.0578865
0.0555172
0.0532247
0.0505444
0.0477259
0.0448574
0.0421967
0.0397752
0.0372354
0.0349467
0.0337319
0.0339245
0.0373123
0.0665096
0.302139
0.0937484
0.0711444
0.0649544
0.0622089
0.0599691
0.0577403
0.0556695
0.0533846
0.0508976
0.0481839
0.0455683
0.0430905
0.0403998
0.0379185
0.0365837
0.0370263
0.0417424
0.0798387
0.066309
0.036589
0.0389467
0.0450162
0.0518544
0.0585548
0.064754
0.0703181
0.0752012
0.0793991
0.0829508
0.0859531
0.0884578
0.0905487
0.0923172
0.0938589
0.0953495
0.0971084
0.0997514
0.104677
0.115085
0.138614
0.197089
0.0934734
0.050255
0.0525845
0.0599884
0.0679904
0.0751791
0.0812197
0.0862237
0.0903786
0.0938326
0.0967019
0.0990597
0.100915
0.102395
0.103616
0.104673
0.105799
0.107282
0.109295
0.112235
0.117182
0.125246
0.137256
0.132794
0.0707527
0.0733034
0.0828791
0.0922792
0.0992459
0.103924
0.107152
0.109594
0.111606
0.113302
0.114526
0.115247
0.115717
0.116122
0.116489
0.117207
0.118618
0.120076
0.120826
0.121815
0.12284
0.122414
0.196659
0.102872
0.105345
0.118573
0.1293
0.133795
0.134362
0.133492
0.132573
0.132169
0.13207
0.131589
0.130569
0.129782
0.1294
0.128968
0.129405
0.131808
0.133774
0.132167
0.131723
0.13055
0.123491
0.311583
0.14933
0.147463
0.163654
0.16939
0.165362
0.160743
0.1564
0.153233
0.151253
0.149693
0.14729
0.144529
0.143572
0.143209
0.141798
0.141332
0.145564
0.146955
0.140962
0.140535
0.135647
0.12527
0.470783
0.193044
0.166078
0.170762
0.170552
0.163325
0.157305
0.154289
0.15304
0.152793
0.152788
0.15197
0.151717
0.154179
0.155314
0.152566
0.150146
0.150977
0.148509
0.142758
0.138017
0.130445
0.1208
0.601278
0.226643
0.168756
0.158296
0.157384
0.152594
0.145402
0.142686
0.142489
0.143329
0.144691
0.146353
0.148849
0.153743
0.156236
0.154172
0.153487
0.15465
0.15068
0.146513
0.138208
0.127694
0.118191
0.683048
0.254534
0.173975
0.152947
0.150785
0.146619
0.136941
0.133603
0.133799
0.134924
0.136756
0.138601
0.140522
0.144191
0.147025
0.147642
0.14977
0.15371
0.155577
0.153164
0.141746
0.127219
0.114279
0.695165
0.268208
0.181038
0.150821
0.145251
0.139583
0.12914
0.125906
0.126529
0.128204
0.130172
0.131203
0.1317
0.133414
0.135493
0.137544
0.141604
0.147095
0.150815
0.147269
0.134716
0.119467
0.107066
0.657686
0.261367
0.180218
0.146909
0.136157
0.128089
0.120708
0.118884
0.119561
0.12101
0.122384
0.122869
0.123044
0.123766
0.125222
0.127798
0.131871
0.135072
0.134631
0.129027
0.119014
0.107861
0.0986492
0.591621
0.245186
0.17164
0.140992
0.128312
0.119593
0.114789
0.113748
0.113741
0.114272
0.114884
0.114938
0.114804
0.115177
0.116223
0.118455
0.121429
0.122045
0.119004
0.113226
0.10563
0.0976937
0.0907493
0.516176
0.228886
0.162066
0.135168
0.123099
0.115373
0.111909
0.110762
0.109604
0.108786
0.108327
0.107724
0.107063
0.107045
0.107913
0.109644
0.111318
0.110727
0.107149
0.10177
0.0956547
0.0895878
0.0840522
0.444398
0.214255
0.155095
0.130699
0.119064
0.11244
0.108706
0.106329
0.104501
0.103263
0.102239
0.10109
0.099899
0.0994856
0.10036
0.101908
0.10285
0.101615
0.0981046
0.0933194
0.0881754
0.0831928
0.0785682
0.375876
0.197704
0.148322
0.125754
0.113551
0.106378
0.101713
0.0987468
0.0970565
0.096091
0.0951876
0.0940385
0.0928178
0.0923546
0.0931823
0.0945389
0.0950374
0.0936687
0.0905664
0.0864749
0.082128
0.0779224
0.0739964
0.312108
0.178395
0.139279
0.11881
0.106324
0.0982849
0.0930903
0.0899704
0.0883814
0.0876159
0.0870085
0.0862439
0.0854634
0.0852493
0.0859466
0.0869714
0.0872226
0.0860563
0.0835601
0.0802636
0.0767123
0.0732287
0.0699476
0.255045
0.157081
0.127454
0.109844
0.0980391
0.0900036
0.0847267
0.0815401
0.0798568
0.0791334
0.0787539
0.0783954
0.0780943
0.0781504
0.0787205
0.0794201
0.0795491
0.0786688
0.0768115
0.0743127
0.0715464
0.0687673
0.0661066
0.206344
0.1353
0.113721
0.0994947
0.0892402
0.0819694
0.0770585
0.073994
0.0722835
0.0714728
0.0711891
0.0710818
0.0710922
0.0713145
0.0717756
0.0722418
0.0723086
0.0716943
0.0703937
0.0685963
0.0665404
0.064411
0.062321
0.166887
0.114629
0.099392
0.0885886
0.0803526
0.0743104
0.0701036
0.0673753
0.0657652
0.0649366
0.0646131
0.0646035
0.0647393
0.0650073
0.0653702
0.0656806
0.0657168
0.0653129
0.0644443
0.0632047
0.0617356
0.0601619
0.058569
0.136544
0.0962907
0.0856924
0.0779331
0.0717689
0.067111
0.0637736
0.0615296
0.0601387
0.0593717
0.0590352
0.0589948
0.0591408
0.0593764
0.0596453
0.0598511
0.0598711
0.059611
0.0590462
0.0582187
0.0572037
0.0560762
0.0548947
0.114207
0.0809574
0.0734856
0.0681517
0.0638141
0.0604582
0.0579949
0.0562882
0.0551875
0.0545458
0.0542353
0.0541589
0.054255
0.0544279
0.0546141
0.0547476
0.0547584
0.0545927
0.0542307
0.053688
0.0530011
0.0522111
0.0513536
0.0981358
0.0687254
0.0631805
0.0595928
0.0566895
0.0544182
0.0527267
0.0515313
0.0507385
0.0502573
0.0500076
0.049925
0.0499621
0.0500821
0.0502065
0.0502935
0.0503017
0.0501993
0.0499715
0.0496216
0.0491648
0.048621
0.048009
0.0864489
0.0592424
0.054784
0.0523391
0.0504599
0.0490142
0.0479455
0.0471895
0.0466832
0.0463705
0.0462035
0.0461438
0.0461616
0.046237
0.0463264
0.0463912
0.0464063
0.0463522
0.0462179
0.0460011
0.0457063
0.045341
0.0449129
0.0775342
0.0519206
0.0480418
0.0462838
0.0450835
0.0442281
0.0436317
0.0432275
0.0429655
0.0428098
0.0427342
0.0427185
0.0427471
0.0428078
0.0428893
0.0429548
0.0429893
0.04298
0.0429183
0.0427999
0.0426239
0.042391
0.0421025
0.070254
0.046137
0.0425908
0.0412283
0.0404614
0.0400155
0.0397643
0.0396279
0.0395615
0.0395419
0.039557
0.0395992
0.0396626
0.0397426
0.0398364
0.0399237
0.0399915
0.0400304
0.0400332
0.0399949
0.0399123
0.0397827
0.0396038
0.0639367
0.0413591
0.0380651
0.0369579
0.0364815
0.0363236
0.0363199
0.0363798
0.0364636
0.0365578
0.0366594
0.0367683
0.0368845
0.037007
0.0371347
0.037264
0.0373786
0.037472
0.0375381
0.0375718
0.0375685
0.0375245
0.0374355
0.0582948
0.037212
0.0341637
0.0332834
0.0330402
0.0330972
0.0332702
0.0334711
0.0336699
0.0338608
0.0340461
0.0342292
0.0344123
0.0345958
0.0347798
0.0349638
0.0351365
0.0352916
0.035423
0.0355256
0.0355945
0.0356254
0.0356137
0.0533193
0.0335024
0.0307138
0.0300653
0.0300457
0.0302771
0.0305803
0.0308875
0.0311812
0.0314615
0.0317323
0.0319976
0.0322594
0.032518
0.0327733
0.0330247
0.0332653
0.0334885
0.0336884
0.0338596
0.0339972
0.0340968
0.0341537
0.0489998
0.0301863
0.0276686
0.0272459
0.0274318
0.0278083
0.0282186
0.0286199
0.0290053
0.0293774
0.0297401
0.0300961
0.0304464
0.0307907
0.0311279
0.031457
0.0317735
0.0320707
0.0323425
0.0325832
0.032788
0.0329524
0.0330722
0.0452112
0.0273493
0.0250613
0.0248357
0.025178
0.0256708
0.0261812
0.0266796
0.027163
0.0276341
0.0280958
0.0285497
0.0289959
0.0294333
0.0298603
0.0302751
0.0306743
0.0310509
0.0313983
0.0317106
0.0319827
0.0322101
0.0323889
0.042008
0.0250673
0.022956
0.0228667
0.0233099
0.0238947
0.0245016
0.0251005
0.0256865
0.026261
0.0268256
0.0273812
0.0279275
0.0284632
0.0289862
0.0294939
0.0299827
0.030445
0.0308732
0.0312607
0.0316018
0.0318921
0.0321279
0.0395843
0.0233703
0.0213951
0.0213784
0.0218816
0.0225381
0.0232309
0.0239242
0.0246087
0.0252833
0.0259489
0.0266061
0.0272546
0.0278929
0.0285185
0.0291277
0.0297155
0.0302724
0.0307894
0.0312584
0.0316727
0.0320276
0.0323198
0.0381024
0.0223092
0.0204001
0.0204098
0.0209437
0.0216492
0.0224082
0.023179
0.0239482
0.0247126
0.0254726
0.0262288
0.0269814
0.0277287
0.0284671
0.0291911
0.0298922
0.0305581
0.0311767
0.0317373
0.0322319
0.0326555
0.0330052
0.0376556
0.0219045
0.0199817
0.0199794
0.0205161
0.0212437
0.0220425
0.022867
0.0237013
0.0245411
0.025387
0.0262406
0.0271025
0.0279707
0.0288397
0.0297007
0.0305389
0.0313366
0.0320764
0.0327441
0.0333297
0.0338281
0.0342377
0.0382494
0.0221502
0.0201302
0.0200746
0.0205818
0.0213007
0.0221095
0.0229612
0.0238392
0.0247398
0.0256653
0.026619
0.0276028
0.0286143
0.0296448
0.0306793
0.0316929
0.0326578
0.0335484
0.0343449
0.0350356
0.0356164
0.0360885
0.0397978
0.0230011
0.0208027
0.0206482
0.0210897
0.0217667
0.0225553
0.0234083
0.0243102
0.0252601
0.0262637
0.0273282
0.0284581
0.0296512
0.0308943
0.0321614
0.0334104
0.0345962
0.0356793
0.0366331
0.0374454
0.0381157
0.0386513
0.0421289
0.0243655
0.0219187
0.0216204
0.0219592
0.0225619
0.0233018
0.024133
0.025043
0.0260357
0.027123
0.0283192
0.029635
0.0310705
0.0326068
0.0341996
0.0357779
0.0372639
0.038596
0.0397404
0.0406893
0.0414524
0.0420478
0.0449944
0.0261077
0.0233627
0.0228823
0.0230856
0.0235853
0.0242529
0.0250442
0.0259513
0.0269857
0.0281693
0.0295291
0.0310885
0.0328558
0.0348086
0.0368741
0.0389288
0.0408304
0.0424827
0.0438503
0.0449424
0.0457907
0.0464329
0.0480798
0.0280568
0.0249906
0.0243024
0.0243461
0.0247223
0.0253008
0.0260399
0.0269383
0.0280175
0.0293148
0.0308779
0.0327549
0.034977
0.0375284
0.0403015
0.0430722
0.0455557
0.047607
0.0492143
0.0504336
0.0513396
0.0520008
0.0510199
0.0300202
0.0266396
0.0257344
0.0256079
0.0258512
0.0263329
0.0270147
0.0279024
0.0290305
0.0304574
0.0322622
0.0345374
0.0373673
0.0407781
0.0446408
0.0485479
0.0518445
0.0543527
0.0561673
0.057453
0.0583574
0.05899
0.053427
0.0318004
0.0281381
0.0270258
0.0267354
0.0268506
0.0272391
0.0278655
0.0287429
0.0299202
0.0314813
0.033548
0.0362824
0.0398747
0.0444852
0.050069
0.0559553
0.0603435
0.0632564
0.0651337
0.0663509
0.0671535
0.0676897
0.0549697
0.0332033
0.0293097
0.0280231
0.0275965
0.0276063
0.0279184
0.028499
0.0293677
0.0305863
0.0322635
0.0345681
0.0377521
0.0421768
0.0483153
0.056605
0.0665274
0.0720949
0.075014
0.0766027
0.0775232
0.0780885
0.0784496
0.0554298
0.0339757
0.0299643
0.0285759
0.0280694
0.0280178
0.0282854
0.0288394
0.0297027
0.0309449
0.0326908
0.0351433
0.0386288
0.0436884
0.0512727
0.0632048
0.0834083
0.0886455
0.0903466
0.0910401
0.0913843
0.09158
0.0917002
0.378319
0.365667
0.391375
0.470238
0.149854
0.150453
0.148025
0.140843
0.120376
0.117676
0.113628
0.108251
0.116515
0.112488
0.10861
0.103975
0.116751
0.111655
0.10738
0.103457
0.113507
0.109006
0.10483
0.101225
0.112035
0.107631
0.103523
0.100186
0.107379
0.103936
0.101088
0.0979281
0.101119
0.0980243
0.0952157
0.0923022
0.0934407
0.0905004
0.0877721
0.0851115
0.0862551
0.0835939
0.0810901
0.0786979
0.0801845
0.0778373
0.0756127
0.073503
0.0752656
0.0732401
0.0713108
0.0694788
0.0712091
0.0694956
0.0678555
0.0662869
0.0676326
0.0662094
0.0648397
0.0635166
0.0642288
0.0630695
0.0619459
0.0608486
0.0608346
0.0599096
0.0590047
0.0581101
0.057418
0.0566932
0.0559755
0.055257
0.054019
0.0534584
0.0528955
0.0523253
0.0506982
0.0502691
0.0498323
0.0493839
0.0475246
0.0471998
0.0468639
0.0465142
0.0445603
0.0443181
0.0440633
0.0437939
0.0418528
0.0416766
0.0414874
0.0412839
0.0394362
0.0393138
0.0391786
0.0390298
0.0373358
0.0372583
0.0371684
0.0370655
0.0355716
0.0355324
0.0354813
0.0354176
0.0341619
0.0341562
0.0341385
0.0341085
0.0331253
0.0331492
0.0331608
0.03316
0.0324829
0.0325332
0.0325707
0.0325953
0.0322597
0.0323341
0.0323948
0.0324416
0.0324877
0.0325844
0.032666
0.0327325
0.033208
0.0333258
0.0334265
0.0335107
0.034475
0.0346127
0.0347312
0.034831
0.0363596
0.0365162
0.0366508
0.0367643
0.0389543
0.0391278
0.0392761
0.0394009
0.0423777
0.0425644
0.0427227
0.0428551
0.0467798
0.0469731
0.0471355
0.04727
0.0523473
0.0525373
0.0526948
0.0528239
0.0593107
0.0594832
0.0596244
0.0597387
0.0679524
0.0680909
0.0682027
0.068292
0.078621
0.0787095
0.0787798
0.0788353
0.0917553
0.091783
0.0918045
0.0918212
0.149781
0.092567
0.0751373
0.0686183
0.0656495
0.0636731
0.0621222
0.0606146
0.0589184
0.0567476
0.0540752
0.0513684
0.0486898
0.0457583
0.0430048
0.0414157
0.0420151
0.0480648
0.0951891
0.110267
0.0885033
0.0778361
0.0728358
0.070616
0.06965
0.0696235
0.0694385
0.0682254
0.0659346
0.0629401
0.059771
0.0565183
0.0531332
0.0500597
0.0482527
0.0491459
0.0567682
0.115116
0.0980262
0.0869859
0.0803389
0.0770248
0.0758264
0.0760146
0.0775988
0.0787045
0.0776737
0.075106
0.0716836
0.0679994
0.0641749
0.0603856
0.0570344
0.0550413
0.0561889
0.0646291
0.126094
0.0956481
0.0874693
0.0830955
0.0812566
0.0810564
0.0823755
0.0854318
0.0877046
0.0860517
0.0831299
0.0795177
0.0755927
0.0712182
0.0670024
0.0633816
0.0612849
0.0630199
0.0718452
0.12809
0.0959899
0.0882413
0.085075
0.0843151
0.0843307
0.0846751
0.0861564
0.0879757
0.0878994
0.0861919
0.0833084
0.0793706
0.075262
0.0712621
0.0679566
0.0661743
0.0676686
0.0764497
0.143516
0.0951972
0.0880535
0.084683
0.0839002
0.0839397
0.0835445
0.0830203
0.0829069
0.0825512
0.0815419
0.0796596
0.0770426
0.0741571
0.0713623
0.069558
0.0682834
0.0676619
0.0733127
0.120449
0.0941274
0.0867951
0.0828493
0.0815121
0.0812728
0.0808342
0.0799716
0.0790394
0.0782313
0.0774139
0.0760899
0.0741995
0.0719072
0.0693759
0.0675305
0.0655542
0.063618
0.0669764
0.105218
0.0919461
0.0846071
0.0801769
0.0781974
0.0774027
0.0766106
0.0755552
0.0744728
0.0734351
0.0724308
0.0711881
0.0695483
0.0673484
0.064908
0.0628699
0.0606989
0.058823
0.0614896
0.101172
0.0873277
0.0808644
0.0764218
0.0738372
0.0722768
0.0709548
0.0696098
0.0683271
0.0671481
0.0660365
0.0648077
0.063271
0.0612398
0.059212
0.0576885
0.0561016
0.0547307
0.0566173
0.0931926
0.0809534
0.0756719
0.0716613
0.0688928
0.0669206
0.0652881
0.0637422
0.0622324
0.0607994
0.0594421
0.0580385
0.0564475
0.0546972
0.0533013
0.0524238
0.0514664
0.0503653
0.0507512
0.0736506
0.0751066
0.0707086
0.0671923
0.0645079
0.0624137
0.0606356
0.0589532
0.0572627
0.0555715
0.0538855
0.0521717
0.0504224
0.0487824
0.0475595
0.0467318
0.0459412
0.0450481
0.044559
0.0552089
0.0703794
0.0666192
0.0635286
0.061035
0.0589858
0.0571954
0.0554793
0.0537107
0.0518582
0.0499231
0.0479148
0.0459339
0.0441283
0.0426371
0.0414569
0.0404459
0.039621
0.0384699
0.0394861
0.0667535
0.0634647
0.0607174
0.0584339
0.0564958
0.054757
0.0530584
0.0512825
0.0493761
0.047324
0.0451598
0.0430371
0.0411059
0.0394323
0.0379851
0.0367192
0.035872
0.0351767
0.0364964
0.0639145
0.0610062
0.0585425
0.0564528
0.0546343
0.0529581
0.0512884
0.0495342
0.047645
0.0455972
0.0434324
0.0413144
0.0394194
0.0378102
0.0364224
0.0351614
0.034372
0.035118
0.0427561
0.0614707
0.0589052
0.0566948
0.0547833
0.0530777
0.0514591
0.0498166
0.0480906
0.0462486
0.0442683
0.0421876
0.0401516
0.038336
0.0368294
0.0356071
0.0346254
0.0342948
0.0364251
0.0510205
0.0591095
0.0568699
0.0549009
0.0531626
0.0515697
0.0500126
0.0484032
0.0467073
0.0449108
0.0430023
0.0410163
0.0390681
0.0373076
0.0358411
0.0347209
0.0340563
0.0343743
0.0377186
0.0583682
0.0566563
0.0547285
0.0529917
0.051424
0.0499488
0.0484672
0.0469094
0.0452558
0.0435045
0.0416586
0.0397535
0.0378804
0.0361633
0.0347198
0.0336717
0.0332558
0.0341513
0.0386744
0.063461
0.054061
0.052428
0.0509138
0.0495101
0.0481549
0.046765
0.0452832
0.0436946
0.0420043
0.0402273
0.0384029
0.0366093
0.0349549
0.0335662
0.0326109
0.0324043
0.0337362
0.0392451
0.0668312
0.0513552
0.0499935
0.0486909
0.0474462
0.0462135
0.0449281
0.0435433
0.0420452
0.0404418
0.0387554
0.0370298
0.0353381
0.0337823
0.0324952
0.0316693
0.0316586
0.0333112
0.0395165
0.0698114
0.0486092
0.0474925
0.0463867
0.0452968
0.0441907
0.0430197
0.0417476
0.0403618
0.0388711
0.0373015
0.0356998
0.0341378
0.0327149
0.0315672
0.0308985
0.0310798
0.0329918
0.0397162
0.0730448
0.045902
0.0449991
0.0440768
0.0431384
0.0421618
0.0411115
0.0399624
0.0387044
0.037346
0.0359149
0.0344588
0.0330485
0.0317821
0.0307965
0.0302996
0.0306737
0.0328382
0.0400632
0.076697
0.0433161
0.042595
0.0418351
0.0410387
0.0401905
0.0392664
0.038247
0.037125
0.0359102
0.0346301
0.0333322
0.0320859
0.0309875
0.0301731
0.0298528
0.0304181
0.0328275
0.0405942
0.080624
0.0409174
0.0403496
0.0397318
0.0390651
0.0383391
0.0375372
0.0366457
0.0356605
0.0345921
0.0334673
0.032332
0.0312529
0.0303231
0.0296757
0.02952
0.0302532
0.0328672
0.0410715
0.0840131
0.0387563
0.0383175
0.0378226
0.037272
0.0366583
0.0359706
0.0352
0.0343452
0.0334172
0.0324421
0.031463
0.0305432
0.0297717
0.0292774
0.029267
0.0301402
0.0329099
0.0414281
0.0868955
0.0368704
0.0365403
0.0361509
0.0357019
0.0351885
0.0346037
0.0339426
0.0332063
0.0324064
0.0315677
0.0307306
0.0299545
0.0293239
0.0289631
0.0290755
0.0300603
0.03294
0.0416626
0.0892983
0.0352891
0.0350505
0.0347506
0.0343889
0.0339623
0.0334671
0.0329011
0.0322678
0.0315791
0.0308586
0.0301439
0.0294909
0.0289794
0.0287297
0.0289414
0.0300118
0.0329644
0.0417948
0.0909956
0.034037
0.0338754
0.0336506
0.0333621
0.0330084
0.032588
0.0321012
0.0315531
0.030956
0.0303322
0.0297172
0.0291631
0.0287464
0.0285833
0.0288705
0.0300022
0.0329949
0.0418265
0.0914265
0.0331372
0.0330402
0.0328775
0.0326489
0.0323542
0.0319936
0.0315695
0.0310878
0.0305612
0.0300111
0.0294707
0.0289895
0.0286405
0.0285371
0.0288732
0.030039
0.0330367
0.0417623
0.0905474
0.0326145
0.0325711
0.0324588
0.0322779
0.0320289
0.0317136
0.0313355
0.0309015
0.0304242
0.029924
0.0294322
0.0289957
0.0286849
0.0286105
0.028964
0.0301308
0.0330975
0.0416717
0.0893739
0.0324968
0.0324978
0.0324258
0.0322814
0.032066
0.0317824
0.0314348
0.0310305
0.0305819
0.030108
0.0296384
0.0292174
0.0289128
0.028833
0.0291672
0.0302973
0.033202
0.0416607
0.0889963
0.0328189
0.0328564
0.0328157
0.0326981
0.0325055
0.0322414
0.0319104
0.0315197
0.0310807
0.030611
0.0301377
0.0297027
0.0293711
0.029249
0.0295242
0.0305787
0.0333982
0.0418224
0.0898602
0.0336241
0.0336914
0.0336746
0.0335755
0.0333968
0.0331421
0.032816
0.032425
0.0319791
0.0314937
0.030993
0.0305155
0.0301236
0.0299216
0.0300977
0.031039
0.0337535
0.0422022
0.0915509
0.0349678
0.0350593
0.03506
0.0349728
0.034801
0.0345481
0.0342182
0.0338165
0.0333507
0.0328332
0.0322841
0.0317379
0.0312537
0.0309346
0.0309716
0.0317627
0.0343484
0.0428319
0.0936774
0.0369209
0.0370311
0.0370442
0.0369641
0.0367944
0.0365386
0.0361997
0.035781
0.0352871
0.0347258
0.0341118
0.0334739
0.0328667
0.0323929
0.0322499
0.0328527
0.0352812
0.0437897
0.0963138
0.0395728
0.0396965
0.0397176
0.0396413
0.0394716
0.0392116
0.0388628
0.0384261
0.0379016
0.0372911
0.0366015
0.0358526
0.0350923
0.034423
0.0340535
0.034426
0.0366669
0.0451614
0.0990149
0.0430365
0.0431678
0.043193
0.0431188
0.0429497
0.0426878
0.0423332
0.0418834
0.0413334
0.0406766
0.0399083
0.0390343
0.0380895
0.037174
0.0365166
0.036608
0.0386389
0.0471322
0.102244
0.0474529
0.0475847
0.0476107
0.0475386
0.0473731
0.0471156
0.0467645
0.0463137
0.0457522
0.0450627
0.0442239
0.0432183
0.042055
0.0408216
0.0397796
0.0394959
0.0412768
0.0498943
0.107537
0.0529979
0.0531219
0.0531455
0.053077
0.0529209
0.0526779
0.0523448
0.0519125
0.0513637
0.0506693
0.0497855
0.0486571
0.0472406
0.0455783
0.0439604
0.0431345
0.0446059
0.053491
0.114713
0.0598912
0.0599984
0.0600171
0.0599551
0.0598163
0.059601
0.059305
0.0589175
0.0584168
0.0577625
0.0568856
0.0556759
0.0539888
0.0517316
0.0491542
0.0474814
0.0485241
0.0578058
0.123466
0.06841
0.0684918
0.068504
0.0684527
0.0683408
0.0681684
0.0679315
0.0676199
0.0672115
0.0666614
0.0658805
0.0646966
0.0627975
0.0597323
0.0553772
0.0523065
0.0527145
0.0624774
0.133181
0.078908
0.0789579
0.0789634
0.078928
0.0788535
0.0787399
0.0785847
0.078381
0.0781124
0.0777423
0.0771867
0.0762446
0.0744188
0.0705084
0.0623758
0.0570302
0.0565506
0.0667907
0.142594
0.0918432
0.0918582
0.0918585
0.0918451
0.0918186
0.0917791
0.0917263
0.0916581
0.0915695
0.0914473
0.0912553
0.0908799
0.0898938
0.0863464
0.0688373
0.0604352
0.0590478
0.0696304
0.149174
)
;

boundaryField
{
    leftWall
    {
        type            epsilonWallFunction;
        value           nonuniform List<scalar> 
50
(
0.00364701
0.0076709
0.013373
0.0193642
0.0256632
0.032486
0.0401333
0.0489867
0.066309
0.0934734
0.132794
0.196659
0.311583
0.470783
0.601278
0.683048
0.695165
0.657686
0.591621
0.516176
0.444398
0.375876
0.312108
0.255045
0.206344
0.166887
0.136544
0.114207
0.0981358
0.0864489
0.0775342
0.070254
0.0639367
0.0582948
0.0533193
0.0489998
0.0452112
0.042008
0.0395843
0.0381024
0.0376556
0.0382494
0.0397978
0.0421289
0.0449944
0.0480798
0.0510199
0.053427
0.0549697
0.0554298
)
;
        Cmu             0.09;
        kappa           0.41;
        E               9.8;
        value           nonuniform List<scalar> 
50
(
0.00364701
0.0076709
0.013373
0.0193642
0.0256632
0.032486
0.0401333
0.0489867
0.066309
0.0934734
0.132794
0.196659
0.311583
0.470783
0.601278
0.683048
0.695165
0.657686
0.591621
0.516176
0.444398
0.375876
0.312108
0.255045
0.206344
0.166887
0.136544
0.114207
0.0981358
0.0864489
0.0775342
0.070254
0.0639367
0.0582948
0.0533193
0.0489998
0.0452112
0.042008
0.0395843
0.0381024
0.0376556
0.0382494
0.0397978
0.0421289
0.0449944
0.0480798
0.0510199
0.053427
0.0549697
0.0554298
)
;
    }
    rightWall
    {
        type            epsilonWallFunction;
        value           nonuniform List<scalar> 
50
(
0.00997662
0.0148499
0.0233742
0.0325159
0.0424492
0.0534995
0.0665096
0.0798387
0.0951891
0.115116
0.126094
0.12809
0.143516
0.120449
0.105218
0.101172
0.0931926
0.0736506
0.0552089
0.0394861
0.0364964
0.0427561
0.0510205
0.0583682
0.063461
0.0668312
0.0698114
0.0730448
0.076697
0.080624
0.0840131
0.0868955
0.0892983
0.0909956
0.0914265
0.0905474
0.0893739
0.0889963
0.0898602
0.0915509
0.0936774
0.0963138
0.0990149
0.102244
0.107537
0.114713
0.123466
0.133181
0.142594
0.149174
)
;
        Cmu             0.09;
        kappa           0.41;
        E               9.8;
        value           nonuniform List<scalar> 
50
(
0.00997662
0.0148499
0.0233742
0.0325159
0.0424492
0.0534995
0.0665096
0.0798387
0.0951891
0.115116
0.126094
0.12809
0.143516
0.120449
0.105218
0.101172
0.0931926
0.0736506
0.0552089
0.0394861
0.0364964
0.0427561
0.0510205
0.0583682
0.063461
0.0668312
0.0698114
0.0730448
0.076697
0.080624
0.0840131
0.0868955
0.0892983
0.0909956
0.0914265
0.0905474
0.0893739
0.0889963
0.0898602
0.0915509
0.0936774
0.0963138
0.0990149
0.102244
0.107537
0.114713
0.123466
0.133181
0.142594
0.149174
)
;
    }
    lowerWall
    {
        type            epsilonWallFunction;
        value           nonuniform List<scalar> 
62
(
0.00364701
0.0203846
0.0383528
0.0568582
0.0756313
0.094373
0.11273
0.130291
0.14659
0.161153
0.173599
0.183816
0.192438
0.199435
0.204281
0.205649
0.200964
0.191917
0.180101
0.161357
0.12685
0.0733832
0.0179454
0.0179454
0.0277485
0.0421996
0.0541966
0.0672457
0.0885153
0.137972
0.269103
0.378319
0.365667
0.391375
0.470238
0.016403
0.0206527
0.0336469
0.0500064
0.0727179
0.106091
0.165817
0.302139
0.016403
0.080589
0.131558
0.159168
0.173215
0.173624
0.160276
0.139078
0.11112
0.0860651
0.0792392
0.0759479
0.0596837
0.0517051
0.055736
0.0589995
0.0547737
0.0362104
0.00997662
)
;
        Cmu             0.09;
        kappa           0.41;
        E               9.8;
        value           nonuniform List<scalar> 
62
(
0.00364701
0.0203846
0.0383528
0.0568582
0.0756313
0.094373
0.11273
0.130291
0.14659
0.161153
0.173599
0.183816
0.192438
0.199435
0.204281
0.205649
0.200964
0.191917
0.180101
0.161357
0.12685
0.0733832
0.0179454
0.0179454
0.0277485
0.0421996
0.0541966
0.0672457
0.0885153
0.137972
0.269103
0.378319
0.365667
0.391375
0.470238
0.016403
0.0206527
0.0336469
0.0500064
0.0727179
0.106091
0.165817
0.302139
0.016403
0.080589
0.131558
0.159168
0.173215
0.173624
0.160276
0.139078
0.11112
0.0860651
0.0792392
0.0759479
0.0596837
0.0517051
0.055736
0.0589995
0.0547737
0.0362104
0.00997662
)
;
    }
    atmosphere
    {
        type            inletOutlet;
        inletValue      uniform 0.1;
        value           nonuniform List<scalar> 
46
(
0.0554298
0.0339757
0.0299643
0.0285759
0.0280694
0.0280178
0.0282854
0.0288394
0.0297027
0.0309449
0.0326908
0.0351433
0.0386288
0.0436884
0.0512727
0.0632048
0.1
0.1
0.1
0.1
0.1
0.1
0.1
0.1
0.1
0.1
0.1
0.1
0.1
0.1
0.1
0.1
0.1
0.1
0.1
0.1
0.1
0.1
0.1
0.1
0.1
0.0688373
0.0604352
0.0590478
0.0696304
0.149174
)
;
    }
    defaultFaces
    {
        type            empty;
    }
}


// ************************************************************************* //
