/*--------------------------------*- C++ -*----------------------------------*\
| =========                 |                                                 |
| \\      /  F ield         | OpenFOAM: The Open Source CFD Toolbox           |
|  \\    /   O peration     | Version:  2.3.0                                 |
|   \\  /    A nd           | Web:      www.OpenFOAM.org                      |
|    \\/     M anipulation  |                                                 |
\*---------------------------------------------------------------------------*/
FoamFile
{
    version     2.0;
    format      ascii;
    class       volScalarField;
    location    "2.7";
    object      k;
}
// * * * * * * * * * * * * * * * * * * * * * * * * * * * * * * * * * * * * * //

dimensions      [0 2 -2 0 0 0 0];

internalField   nonuniform List<scalar> 
2268
(
0.00110554
0.0028542
0.00435824
0.00567378
0.0068664
0.00795732
0.00895151
0.0098462
0.0106346
0.011309
0.0118661
0.0123182
0.0126968
0.0129966
0.0131992
0.0132478
0.013028
0.0126205
0.0120766
0.0111987
0.00951916
0.00660409
0.00262674
0.0024526
0.00675185
0.00994212
0.0127508
0.0152908
0.0176059
0.0197092
0.0215987
0.023264
0.0246927
0.025878
0.0268252
0.0275543
0.0280779
0.028383
0.0284092
0.0280498
0.0272928
0.0260581
0.0239992
0.0204159
0.0146552
0.00573254
0.00356517
0.00927677
0.0133604
0.0169409
0.0201707
0.0230994
0.0257427
0.0281004
0.0301633
0.0319207
0.0333679
0.0345119
0.0353746
0.0359684
0.0362798
0.0362538
0.0358026
0.0348485
0.0332286
0.0305579
0.0261198
0.0190582
0.00754944
0.0045755
0.0114526
0.0162234
0.0203738
0.0241049
0.0274701
0.0304866
0.0331566
0.0354749
0.0374354
0.0390389
0.0402978
0.0412359
0.0418661
0.0421743
0.0421096
0.04159
0.040498
0.0386144
0.0355243
0.0305167
0.0225357
0.00888547
0.00553322
0.013538
0.0189419
0.0235931
0.0277516
0.0314768
0.034788
0.0376924
0.0401916
0.0422878
0.0439904
0.0453197
0.046304
0.0469558
0.0472613
0.0471706
0.0465983
0.0454019
0.0433303
0.0399436
0.0344673
0.0256872
0.0102036
0.00648828
0.0156448
0.0216804
0.0268111
0.031363
0.035404
0.0389583
0.0420415
0.0446668
0.0468484
0.0486073
0.0499751
0.0509845
0.0516483
0.0519523
0.0518457
0.0512374
0.049972
0.047788
0.044236
0.0384599
0.0289389
0.0121982
0.00748394
0.0178458
0.024535
0.0301467
0.0350763
0.0394014
0.0431551
0.0463678
0.04907
0.0512926
0.0530712
0.0544509
0.0554685
0.0561358
0.0564376
0.0563213
0.0556938
0.0543999
0.0521901
0.0486383
0.0428736
0.0331447
0.0162577
0.00856095
0.0201994
0.0275768
0.0336852
0.0389863
0.0435676
0.0474773
0.0507694
0.0534996
0.0557203
0.0574842
0.0588524
0.0598627
0.0605231
0.0608175
0.0606923
0.0600588
0.0587767
0.0566267
0.0532465
0.0479084
0.0391677
0.0254485
0.00247068
0.00711117
0.00985692
0.0111842
0.0118228
0.0118331
0.0112134
0.0102122
0.00880685
0.00742843
0.007033
0.00684155
0.0058302
0.00530965
0.00557141
0.00578279
0.00549697
0.00417428
0.00221934
0.00505383
0.0152616
0.0204201
0.0231348
0.0243715
0.024332
0.0232527
0.0215976
0.0189267
0.0165943
0.0161607
0.0155924
0.0137521
0.0123811
0.0123
0.0123922
0.0111853
0.00844735
0.00408542
0.00698674
0.0197137
0.0260176
0.0292989
0.0307316
0.0306385
0.0293997
0.0275688
0.0249403
0.0225542
0.0216858
0.0207557
0.0188559
0.017215
0.016713
0.0163093
0.0146795
0.0112572
0.00552975
0.00911365
0.0237289
0.0306076
0.0340322
0.0354482
0.0352589
0.0339253
0.0320501
0.0295525
0.0272776
0.0261406
0.0249609
0.0230618
0.0212066
0.020242
0.0195105
0.0176665
0.0138793
0.00688729
0.0117107
0.0280816
0.0350168
0.0382711
0.0395314
0.039222
0.0378227
0.0359607
0.0336159
0.0314915
0.0301782
0.0288245
0.0269182
0.024895
0.0234897
0.0224379
0.0204505
0.016452
0.00821796
0.0150696
0.0329878
0.0394263
0.0422676
0.0432903
0.0428661
0.0414347
0.0396227
0.037458
0.0354906
0.0340488
0.0325559
0.0306135
0.0284491
0.0266618
0.0252533
0.0231035
0.0189522
0.00957498
0.0202431
0.0384493
0.0437935
0.0460688
0.0468308
0.0463295
0.0449172
0.0431947
0.0412381
0.0394113
0.0378605
0.0362291
0.0342241
0.0319263
0.0298129
0.0280194
0.0256366
0.0213146
0.0110504
0.0301166
0.044187
0.047989
0.0496561
0.050185
0.0496703
0.0483517
0.0467716
0.0450333
0.0433104
0.0416458
0.0398634
0.0377632
0.0353299
0.0329351
0.0307599
0.0280952
0.0235578
0.0124694
0.010495
0.0241993
0.0327213
0.0396501
0.0455334
0.0504709
0.0545482
0.0578773
0.060569
0.0627173
0.0644027
0.0657034
0.0666398
0.0672275
0.0674542
0.0672723
0.0666155
0.0653841
0.0634116
0.0604511
0.0561207
0.049837
0.0411948
0.0131919
0.0302656
0.0407785
0.0491208
0.055894
0.0612051
0.0652693
0.0683747
0.0707723
0.0726372
0.0740821
0.0751615
0.0758786
0.0762711
0.0763453
0.0760714
0.0754415
0.0744226
0.072868
0.0706388
0.0678256
0.0646356
0.06149
0.0166135
0.0378813
0.0510897
0.0613149
0.0690445
0.0743755
0.0778785
0.0802249
0.081903
0.083186
0.0841823
0.0848438
0.0851657
0.085239
0.085099
0.0847027
0.0841381
0.0834597
0.0823695
0.0806026
0.0786237
0.0764686
0.0739032
0.0212709
0.0478122
0.0647927
0.0776938
0.0863665
0.0908627
0.0927742
0.0935003
0.0938504
0.0941947
0.0945119
0.0945496
0.0942614
0.093946
0.0936259
0.0930762
0.0926111
0.0926056
0.092206
0.0904267
0.0892197
0.0877406
0.0840854
0.0284807
0.0605701
0.0810566
0.0964174
0.103794
0.105363
0.105393
0.104831
0.104333
0.104091
0.103878
0.103227
0.102348
0.102072
0.101891
0.101124
0.100481
0.101367
0.101108
0.0982437
0.0977166
0.0954119
0.0908823
0.0379663
0.0719437
0.0886981
0.101115
0.106653
0.107092
0.10657
0.106453
0.106622
0.106997
0.107367
0.107331
0.107446
0.108558
0.109071
0.107927
0.106676
0.10645
0.10494
0.102478
0.100542
0.0973632
0.0931673
0.0449616
0.0792834
0.0898262
0.0976238
0.10312
0.104576
0.103585
0.103577
0.104187
0.105022
0.105967
0.106938
0.108183
0.110368
0.111516
0.110718
0.110229
0.110268
0.108323
0.106591
0.103296
0.0989827
0.0948704
0.0490572
0.0841199
0.0909297
0.0959105
0.101255
0.103042
0.101084
0.100883
0.101732
0.102761
0.103969
0.105095
0.106219
0.108044
0.109445
0.109769
0.110478
0.111737
0.112149
0.111089
0.106597
0.100666
0.0950956
0.0498977
0.0853529
0.091975
0.0946713
0.0990784
0.100411
0.0982169
0.0981639
0.0992997
0.100651
0.101996
0.102863
0.103483
0.104607
0.1058
0.106799
0.108411
0.11042
0.111652
0.110098
0.105036
0.0986605
0.0932498
0.048333
0.0821201
0.0900044
0.0920102
0.0947428
0.095326
0.0945529
0.0952708
0.0965793
0.0979418
0.0991082
0.0998078
0.100357
0.101143
0.102164
0.103505
0.105291
0.106522
0.106148
0.103671
0.0993943
0.0945308
0.0903911
0.0452216
0.0764868
0.0850942
0.0879814
0.090257
0.090895
0.0915104
0.0928205
0.094013
0.0950986
0.0960169
0.0965882
0.0970537
0.097753
0.0986886
0.100015
0.101496
0.101753
0.100313
0.0976782
0.0942553
0.0906293
0.0873759
0.0413487
0.0696148
0.0792556
0.0834395
0.0862941
0.0877769
0.0893993
0.0909834
0.0918794
0.0925043
0.0930424
0.0933877
0.0936649
0.0942416
0.0951857
0.0964128
0.0974514
0.0972764
0.0956211
0.0930984
0.0902162
0.0873177
0.0846072
0.0374896
0.0624969
0.0734168
0.0787695
0.0822502
0.0846943
0.086719
0.0881208
0.0889683
0.0895814
0.0899881
0.0901697
0.090262
0.0907077
0.091735
0.0929843
0.0937905
0.0933926
0.091788
0.0895012
0.0869973
0.0845286
0.0821787
0.0335806
0.055911
0.0677717
0.0738177
0.0774672
0.0800808
0.0820058
0.083473
0.0846601
0.0855985
0.0862077
0.0864938
0.0866447
0.0871242
0.0881956
0.0894331
0.0901032
0.0896989
0.0883137
0.0863487
0.0841948
0.0820615
0.0800172
0.0296894
0.0499749
0.0621731
0.0685292
0.0721755
0.0746103
0.076475
0.0780622
0.0795023
0.080729
0.0816365
0.0822219
0.0826661
0.0833255
0.0843843
0.0855126
0.0861155
0.0858583
0.0848021
0.083242
0.0814811
0.0797004
0.077975
0.0259434
0.0446661
0.0566885
0.063169
0.0668652
0.0692693
0.0711252
0.072761
0.0742799
0.0756729
0.0768224
0.0777148
0.078476
0.0793253
0.0803615
0.081364
0.0819465
0.0818747
0.0811774
0.08005
0.0787093
0.0773054
0.0759161
0.0224906
0.039965
0.0515046
0.058015
0.0618428
0.064357
0.0662794
0.0679528
0.0694987
0.0709297
0.0722244
0.0733309
0.0743175
0.0752959
0.0763045
0.0772144
0.0777991
0.0779027
0.0775326
0.0768068
0.0758703
0.0748372
0.0737774
0.0194654
0.0358705
0.0467794
0.0532487
0.0572401
0.0599401
0.061994
0.0637338
0.0653036
0.0667477
0.0680735
0.0692895
0.0703908
0.0714271
0.0724063
0.0732542
0.0738474
0.0740956
0.0739931
0.0736043
0.0730201
0.0723212
0.0715628
0.0169556
0.0323808
0.0426041
0.0489646
0.0530963
0.0559928
0.0582071
0.060043
0.0616546
0.0631109
0.064442
0.065671
0.0668075
0.0678491
0.068794
0.069601
0.0702061
0.0705605
0.0706574
0.0705301
0.0702315
0.0698129
0.0693139
0.014977
0.0294713
0.0390029
0.0451885
0.049401
0.0524593
0.054827
0.0567709
0.0584417
0.0599206
0.0612528
0.0624678
0.0635908
0.0646111
0.0655217
0.0663012
0.0669183
0.0673486
0.0675874
0.0676514
0.0675694
0.0673719
0.067084
0.0134706
0.02708
0.0359406
0.041894
0.0461156
0.0492801
0.0517717
0.0538178
0.0555553
0.057068
0.0584086
0.0596126
0.0607056
0.061703
0.0625871
0.0633508
0.063981
0.0644668
0.0648061
0.0650069
0.0650843
0.0650544
0.0649314
0.0123287
0.0251127
0.0333425
0.0390229
0.0431892
0.0464039
0.048983
0.0511143
0.0529166
0.0544697
0.055829
0.0570341
0.0581142
0.0590905
0.0599616
0.0607225
0.0613699
0.0619005
0.0623141
0.0626145
0.0628088
0.0629047
0.0629085
0.011433
0.0234649
0.0311186
0.0365076
0.0405733
0.0437944
0.0464275
0.0486233
0.0504821
0.052077
0.0534633
0.054683
0.0557675
0.0567397
0.0576145
0.0583866
0.0590586
0.0596311
0.0601048
0.0604817
0.0607646
0.0609563
0.0610583
0.010687
0.0220456
0.0291881
0.0342902
0.0382331
0.0414325
0.044093
0.0463328
0.0482364
0.0498707
0.0512897
0.0525359
0.053642
0.0546323
0.0555248
0.0563224
0.0570283
0.0576446
0.0581726
0.0586133
0.0589674
0.0592351
0.059415
0.0100279
0.0207876
0.0274889
0.0323322
0.0361516
0.0393149
0.041982
0.0442465
0.0461821
0.0478517
0.0493073
0.0505904
0.0517329
0.0527585
0.0536845
0.0545219
0.0552714
0.055936
0.0565173
0.0570157
0.057431
0.0577619
0.0580062
0.0094267
0.0196519
0.0259793
0.0306123
0.0343242
0.0374447
0.0401009
0.0423729
0.0443301
0.0460325
0.047529
0.0488583
0.0500498
0.0511255
0.0521013
0.0529887
0.0537901
0.0545082
0.055144
0.0556977
0.0561685
0.056555
0.0568542
0.00888299
0.0186425
0.0246465
0.0291095
0.03274
0.035816
0.0384486
0.0407181
0.0426933
0.0444304
0.0459743
0.0473592
0.0486108
0.0497483
0.0507855
0.0517325
0.0525932
0.0533693
0.0540616
0.0546699
0.0551934
0.0556303
0.0559783
0.00840032
0.0177554
0.023483
0.0278056
0.0313734
0.0344068
0.0370158
0.0392863
0.0412856
0.0430658
0.0446661
0.0461159
0.047437
0.0486453
0.0497524
0.0507666
0.0516923
0.0525305
0.0532813
0.0539444
0.0545188
0.0550031
0.0553953
0.00796692
0.0169481
0.022478
0.0266958
0.0302052
0.0332031
0.0358023
0.0380889
0.0401264
0.0419613
0.0436277
0.0451507
0.0465484
0.0478341
0.0490172
0.0501044
0.0510998
0.0520034
0.052815
0.0535336
0.0541583
0.054688
0.0551211
0.00759048
0.0162671
0.0216545
0.0257894
0.0292458
0.0322223
0.0348307
0.0371508
0.0392401
0.0411398
0.0428797
0.0444815
0.0459607
0.0473284
0.0485923
0.0497575
0.050827
0.0517999
0.052675
0.0534508
0.0541262
0.0547002
0.055172
0.0072979
0.0157842
0.0210544
0.0251192
0.0285365
0.0315069
0.0341381
0.0365023
0.0386504
0.0406193
0.0424358
0.044119
0.0456827
0.0471364
0.048486
0.049735
0.0508844
0.051932
0.0528751
0.0537113
0.054439
0.0550575
0.0555665
0.00711369
0.0155178
0.0207129
0.0247285
0.0281221
0.0310961
0.0337546
0.0361637
0.0383698
0.0404066
0.0422988
0.0440641
0.0457151
0.0472597
0.0487023
0.050044
0.0512828
0.0524139
0.0534325
0.0543345
0.0551178
0.0557818
0.0563273
0.00705356
0.0154852
0.0206513
0.0246414
0.0280238
0.0310048
0.0336875
0.0361357
0.0383935
0.040493
0.0424582
0.0443065
0.0460498
0.0476946
0.0492428
0.0506921
0.0520357
0.0532646
0.0543703
0.0553466
0.0561904
0.0569018
0.0574834
0.00712018
0.0156892
0.020868
0.024853
0.0282316
0.0312178
0.0339177
0.0363958
0.0386966
0.0408528
0.0428895
0.0448248
0.0466706
0.048432
0.0501074
0.0516892
0.0531626
0.0545115
0.0557218
0.056784
0.0576947
0.0584556
0.059072
0.00730176
0.0161088
0.021335
0.025329
0.0287068
0.0316938
0.0344024
0.0369007
0.0392363
0.0414452
0.0435551
0.0455868
0.0475534
0.049459
0.0512971
0.0530511
0.0546936
0.0561962
0.0575355
0.0586984
0.0596823
0.060493
0.061141
0.00757391
0.0167005
0.0219999
0.0260121
0.029389
0.0323712
0.0350801
0.0375903
0.039955
0.0422154
0.044405
0.0465497
0.0486662
0.0507587
0.0528151
0.0548038
0.0566762
0.0583813
0.0598818
0.0611612
0.0622219
0.0630782
0.0637501
0.00790312
0.0174021
0.0227921
0.0268277
0.0302023
0.0331747
0.0358774
0.0383934
0.0407837
0.0430978
0.0453779
0.0476593
0.0499667
0.0523085
0.0546668
0.0569875
0.0591841
0.061162
0.0628621
0.0642699
0.0654023
0.0662911
0.0669715
0.0082503
0.0181393
0.0236292
0.0276913
0.0310627
0.0340221
0.0367142
0.0392323
0.041647
0.0440186
0.0464022
0.0488483
0.0513981
0.0540729
0.056855
0.0596615
0.0623343
0.0646833
0.0666209
0.0681536
0.0693343
0.0702269
0.0708892
0.0085739
0.0188314
0.0244244
0.0285159
0.0318851
0.0348305
0.0375102
0.0400283
0.0424665
0.0448983
0.0473958
0.0500322
0.0528784
0.0559883
0.0593663
0.0629057
0.0663185
0.0691704
0.0713609
0.0729765
0.0741486
0.0749932
0.075597
0.00883297
0.0193986
0.0250951
0.0292198
0.0325895
0.0355226
0.0381902
0.0407072
0.0431667
0.045656
0.0482675
0.051105
0.0542856
0.0579306
0.0621249
0.0668017
0.0714819
0.0749819
0.0773551
0.0789306
0.0799855
0.0807028
0.0811948
0.00899505
0.0197769
0.0255737
0.0297336
0.0331071
0.0360311
0.0386886
0.0412039
0.0436793
0.0462151
0.0489228
0.0519392
0.0554413
0.0596605
0.0648776
0.0713174
0.0785563
0.0826924
0.0849348
0.0862062
0.0869741
0.0874634
0.0877855
0.00904132
0.019957
0.0258218
0.0300058
0.0333828
0.0363019
0.0389534
0.0414672
0.0439511
0.0465129
0.0492766
0.0524025
0.0561172
0.0607683
0.0669402
0.0757286
0.0894737
0.0931328
0.0943779
0.0949168
0.0952002
0.0953692
0.0954767
0.0324961
0.031754
0.033276
0.0377114
0.0597562
0.059191
0.059161
0.0595446
0.0720681
0.0710368
0.0701493
0.0693719
0.0810147
0.0794298
0.0781612
0.0768221
0.0872459
0.0851347
0.0834759
0.082067
0.0899712
0.0880162
0.0862436
0.0847875
0.0921485
0.090208
0.0884067
0.0869823
0.0920659
0.0905487
0.0893006
0.0878967
0.0906295
0.0892517
0.087978
0.0866184
0.0880134
0.0866428
0.0853371
0.0840248
0.0852231
0.0839168
0.0826531
0.0814088
0.082665
0.0814573
0.0802816
0.0791342
0.0804576
0.0793773
0.0783221
0.0772922
0.0785293
0.0775945
0.0766779
0.0757776
0.076726
0.0759421
0.0751696
0.074403
0.0749067
0.0742705
0.0736386
0.0730035
0.0729951
0.0724971
0.0719962
0.0714846
0.070984
0.070609
0.0702244
0.0698236
0.0689087
0.0686382
0.068353
0.0680479
0.0668215
0.0666372
0.0664348
0.0662101
0.0647825
0.0646681
0.0645331
0.0643746
0.0628489
0.0627905
0.0627104
0.0626063
0.0610692
0.061056
0.0610206
0.0609613
0.0594827
0.0595064
0.0595079
0.0594858
0.0581208
0.0581753
0.0582075
0.0582166
0.0570087
0.0570893
0.0571478
0.0571832
0.0561673
0.0562706
0.0563515
0.0564095
0.0556148
0.0557378
0.0558381
0.0559154
0.055368
0.0555083
0.0556255
0.0557192
0.0554438
0.0555995
0.0557313
0.0558391
0.0558612
0.0560307
0.0561753
0.056295
0.0566432
0.0568251
0.0569807
0.0571105
0.0578188
0.0580115
0.0581766
0.0583146
0.0594248
0.0596265
0.059799
0.0599432
0.0615075
0.0617156
0.0618928
0.0620405
0.0641239
0.0643342
0.0645122
0.0646598
0.0673422
0.0675484
0.0677214
0.067864
0.0712411
0.0714341
0.0715946
0.0717257
0.0759088
0.0760772
0.0762156
0.0763276
0.0814412
0.0815722
0.0816786
0.0817638
0.0879423
0.0880243
0.0880901
0.0881423
0.0955276
0.0955538
0.0955745
0.0955907
0.0486698
0.0523435
0.0539339
0.0547681
0.0550269
0.0546243
0.0537132
0.0524609
0.0510333
0.0493847
0.0475146
0.0454722
0.0431644
0.0405019
0.0377136
0.0349713
0.0317743
0.0266648
0.0139972
0.060329
0.0606543
0.0607882
0.0609628
0.061098
0.0610328
0.0608752
0.0602802
0.0590588
0.0572397
0.0550092
0.0525344
0.0497891
0.0467322
0.0434965
0.0401759
0.0363906
0.0304829
0.0158482
0.0682682
0.0672408
0.066705
0.0666075
0.0667666
0.0670761
0.067659
0.0676895
0.0664774
0.0643829
0.0617617
0.0588542
0.0556728
0.0522449
0.0486145
0.0447987
0.0404834
0.0337306
0.0168263
0.0745192
0.072595
0.0718255
0.0717298
0.0720031
0.0726677
0.073859
0.0743786
0.0727687
0.0703519
0.0674626
0.0642646
0.0606617
0.0568536
0.0528531
0.0486284
0.0439802
0.0363877
0.016943
0.0793805
0.0767013
0.0758237
0.0758079
0.0759154
0.0759402
0.0762653
0.0764617
0.0754571
0.073463
0.0707536
0.0674026
0.0637651
0.0598674
0.055769
0.0513618
0.0461531
0.0378134
0.0184032
0.082383
0.0794477
0.0780663
0.0777446
0.0776341
0.0771029
0.0762824
0.075425
0.0742037
0.0724498
0.0700786
0.0671717
0.0639135
0.0603973
0.0568103
0.0524337
0.0461791
0.0365669
0.0163928
0.0843554
0.0809899
0.0790522
0.07824
0.077803
0.0770632
0.0758851
0.074451
0.0728652
0.0710622
0.0687927
0.0660379
0.0628528
0.0592702
0.055519
0.0507773
0.0441004
0.0343497
0.0149989
0.0851379
0.0815253
0.0791424
0.0778307
0.0769482
0.0758559
0.0743998
0.0727072
0.0708281
0.0687501
0.0663294
0.0634929
0.0601456
0.0564075
0.0524466
0.0476432
0.0412825
0.0322516
0.0146311
0.0841959
0.0808182
0.0782591
0.076481
0.0750515
0.0735335
0.0717733
0.0698165
0.0676872
0.0653639
0.0627532
0.0597583
0.0562688
0.0525315
0.0487143
0.0442336
0.0384415
0.0300143
0.0138937
0.0818799
0.0789453
0.076477
0.0744809
0.0727157
0.0709161
0.0689271
0.0667121
0.0642908
0.0616655
0.0587755
0.0555441
0.0519762
0.0483488
0.0446982
0.0404715
0.0349625
0.0269345
0.0118538
0.0794543
0.0768695
0.0745745
0.0725442
0.0706358
0.0686785
0.0665289
0.0641145
0.0614347
0.0584957
0.0552804
0.0517814
0.0480655
0.0443
0.0404326
0.0360571
0.0305364
0.0225729
0.00977341
0.077358
0.0750462
0.0729331
0.0709674
0.069047
0.067045
0.0648336
0.0623229
0.0594886
0.0563291
0.0528462
0.049088
0.0451197
0.0409947
0.0366596
0.031863
0.0262444
0.0187926
0.00778957
0.0756929
0.0736058
0.0716654
0.0698092
0.067948
0.0659731
0.0637687
0.0612486
0.0583722
0.0551251
0.0515205
0.0476341
0.0435234
0.0391798
0.0345236
0.0293942
0.0236455
0.0167174
0.00737053
0.0743585
0.0724767
0.0707017
0.0689705
0.0671986
0.0652846
0.0631251
0.0606498
0.0578182
0.0546093
0.0510419
0.0472
0.0431551
0.0388923
0.034303
0.0292182
0.0235355
0.0169743
0.00818789
0.0731691
0.0714927
0.0698832
0.068284
0.0666139
0.064776
0.0626819
0.0602817
0.057546
0.0544547
0.0510257
0.0473364
0.0434669
0.0394235
0.0351163
0.0303921
0.0250828
0.0187127
0.00921527
0.071956
0.0704883
0.0690475
0.0675863
0.0660272
0.0642781
0.0622655
0.0599563
0.0573335
0.0543843
0.051125
0.0476184
0.0439352
0.0400963
0.03605
0.031676
0.0267559
0.0205897
0.0100802
0.0706177
0.0693573
0.0680841
0.0667628
0.0653212
0.0636737
0.0617589
0.0595535
0.0570487
0.0542406
0.0511461
0.0478131
0.0442963
0.0406193
0.0367527
0.0325975
0.0279048
0.0218159
0.0106584
0.0691245
0.0680638
0.0669534
0.0657675
0.0644438
0.0629075
0.0611054
0.0590167
0.0566369
0.0539692
0.0510314
0.0478607
0.0444983
0.0409649
0.0372386
0.0332231
0.02864
0.0225422
0.0110413
0.0674986
0.0666238
0.0656684
0.0646124
0.0634052
0.0619847
0.0603044
0.0583439
0.0560993
0.0535772
0.050796
0.0477864
0.0445802
0.0411933
0.0376032
0.0337089
0.0292143
0.0231589
0.0113815
0.0657913
0.065085
0.0642737
0.0633423
0.0622504
0.0609473
0.0593936
0.0575689
0.0554688
0.0531003
0.0504814
0.0476379
0.044595
0.0413634
0.0379161
0.0341461
0.0297526
0.0237987
0.0117431
0.0640655
0.0635063
0.0628278
0.0620158
0.0610375
0.0598511
0.0584252
0.0567403
0.0547904
0.0525817
0.0501301
0.0474573
0.0445829
0.0415113
0.0382095
0.0345622
0.0302668
0.0244101
0.0121436
0.0623885
0.0619547
0.0613933
0.060691
0.0598211
0.058751
0.0574523
0.055907
0.0541083
0.0520608
0.0497774
0.0472754
0.0445687
0.041655
0.0384945
0.0349665
0.0307616
0.0249439
0.0125585
0.0608194
0.0604915
0.0600322
0.059429
0.0586599
0.0576984
0.0565204
0.0551094
0.0534581
0.0515687
0.0494508
0.0471165
0.0445735
0.0418124
0.0387854
0.0353637
0.0312268
0.0254125
0.0129097
0.0594073
0.0591686
0.0587974
0.058282
0.0576041
0.056742
0.0556755
0.0543895
0.0528762
0.0511358
0.0491735
0.0469965
0.0446058
0.0419845
0.0390768
0.0357449
0.0316552
0.0258162
0.0132045
0.0581914
0.0580278
0.0577318
0.0572928
0.0566955
0.0559221
0.0549553
0.0537818
0.0523933
0.0507875
0.0489659
0.0469301
0.0446746
0.0421754
0.0393687
0.0361078
0.0320454
0.0261586
0.0134467
0.057203
0.0571023
0.0568698
0.056496
0.0559681
0.0552714
0.0543913
0.0533154
0.0520355
0.0505468
0.048847
0.0469325
0.0447918
0.0423938
0.0396676
0.036458
0.0324033
0.0264463
0.0136114
0.0564673
0.0564191
0.0562395
0.0559201
0.0554503
0.0548179
0.0540103
0.0530163
0.051827
0.0504357
0.0488366
0.0470212
0.0449723
0.0426528
0.0399851
0.0368058
0.0327381
0.0266843
0.013644
0.0560054
0.0560007
0.0558643
0.0555893
0.0551667
0.0545862
0.0538371
0.0529087
0.0517917
0.0504773
0.0489565
0.0472165
0.0452349
0.0429692
0.0403359
0.0371636
0.0330605
0.0268852
0.0135517
0.0558364
0.0558672
0.0557657
0.0555258
0.0551403
0.0546002
0.0538961
0.0530177
0.0519549
0.050697
0.0492319
0.0475426
0.0456023
0.0433636
0.0407378
0.0375461
0.0333842
0.0270765
0.0134405
0.055979
0.0560387
0.0559646
0.0557518
0.0553943
0.0548844
0.0542132
0.0533706
0.0523452
0.0511245
0.0496929
0.0480297
0.0461038
0.0438633
0.041215
0.0379749
0.0337312
0.0272926
0.0134148
0.0564539
0.0565365
0.0564836
0.0562912
0.0559542
0.0554659
0.0548176
0.0539986
0.0529963
0.0517954
0.0503769
0.0487162
0.0467776
0.0445054
0.0418027
0.0384835
0.0341348
0.0275666
0.0135133
0.0572849
0.0573856
0.0573486
0.0571712
0.0568492
0.0563762
0.0557433
0.0549389
0.0539483
0.0527531
0.0513302
0.0496502
0.0476731
0.0453391
0.0425496
0.039119
0.0346386
0.0279271
0.01369
0.0585013
0.0586156
0.0585905
0.0584243
0.0581135
0.0576521
0.0570305
0.0562354
0.0552495
0.0540502
0.0526094
0.0508919
0.0488524
0.0464273
0.0435171
0.0399393
0.0352921
0.0283989
0.0139082
0.0601387
0.0602626
0.060246
0.0600887
0.0597879
0.0593374
0.0587266
0.0579403
0.0569572
0.0557497
0.054283
0.0525143
0.0503909
0.0478452
0.0447778
0.0410113
0.0361503
0.0290128
0.0141744
0.0622406
0.0623698
0.0623592
0.0622101
0.0619203
0.0614833
0.0608873
0.0601144
0.0591389
0.0579264
0.0564329
0.0546047
0.0523788
0.049681
0.0464134
0.0424077
0.0372743
0.0298088
0.0144434
0.0648591
0.0649888
0.0649821
0.0648419
0.0645665
0.0641491
0.0635766
0.062828
0.0618725
0.0606672
0.0591555
0.0572675
0.0549228
0.0520357
0.0485118
0.0442025
0.0387276
0.0308457
0.0147639
0.0680554
0.0681799
0.0681756
0.0680463
0.0677909
0.0674025
0.0668668
0.0661601
0.065246
0.0640716
0.0625638
0.0606277
0.0581524
0.0550276
0.0511644
0.0464496
0.0405349
0.0321475
0.0152709
0.0719004
0.0720135
0.0720099
0.0718947
0.071667
0.0713199
0.0708388
0.070198
0.0693565
0.0682513
0.0667886
0.0648373
0.0622314
0.0588022
0.0544517
0.0491748
0.0426998
0.0337179
0.015937
0.0764758
0.0765706
0.076567
0.0764698
0.0762786
0.075987
0.0755811
0.0750355
0.0743074
0.0733265
0.0719784
0.0700837
0.0673817
0.0635632
0.0584468
0.0523545
0.0451605
0.0355016
0.0167252
0.0818756
0.0819463
0.0819423
0.0818676
0.081722
0.0815004
0.0811911
0.0807723
0.0802049
0.0794197
0.0782917
0.0765939
0.0739227
0.0696428
0.0631759
0.0558471
0.0477399
0.0373524
0.0175744
0.0882103
0.0882528
0.0882489
0.0882012
0.0881096
0.0879707
0.0877771
0.087514
0.0871538
0.0866434
0.0858754
0.0846165
0.082327
0.0777426
0.0684722
0.0592677
0.0500832
0.0390022
0.0183758
0.095612
0.095625
0.0956227
0.095606
0.0955748
0.095528
0.0954634
0.095376
0.0952564
0.0950851
0.094817
0.0943293
0.0932022
0.0896315
0.0733667
0.0617512
0.0516092
0.0400529
0.0189252
)
;

boundaryField
{
    leftWall
    {
        type            kqRWallFunction;
        value           nonuniform List<scalar> 
50
(
0.00110554
0.0024526
0.00356517
0.0045755
0.00553322
0.00648828
0.00748394
0.00856095
0.010495
0.0131919
0.0166135
0.0212709
0.0284807
0.0379663
0.0449616
0.0490572
0.0498977
0.048333
0.0452216
0.0413487
0.0374896
0.0335806
0.0296894
0.0259434
0.0224906
0.0194654
0.0169556
0.014977
0.0134706
0.0123287
0.011433
0.010687
0.0100279
0.0094267
0.00888299
0.00840032
0.00796692
0.00759048
0.0072979
0.00711369
0.00705356
0.00712018
0.00730176
0.00757391
0.00790312
0.0082503
0.0085739
0.00883297
0.00899505
0.00904132
)
;
    }
    rightWall
    {
        type            kqRWallFunction;
        value           nonuniform List<scalar> 
50
(
0.00221934
0.00408542
0.00552975
0.00688729
0.00821796
0.00957498
0.0110504
0.0124694
0.0139972
0.0158482
0.0168263
0.016943
0.0184032
0.0163928
0.0149989
0.0146311
0.0138937
0.0118538
0.00977341
0.00778957
0.00737053
0.00818789
0.00921527
0.0100802
0.0106584
0.0110413
0.0113815
0.0117431
0.0121436
0.0125585
0.0129097
0.0132045
0.0134467
0.0136114
0.013644
0.0135517
0.0134405
0.0134148
0.0135133
0.01369
0.0139082
0.0141744
0.0144434
0.0147639
0.0152709
0.015937
0.0167252
0.0175744
0.0183758
0.0189252
)
;
    }
    lowerWall
    {
        type            kqRWallFunction;
        value           nonuniform List<scalar> 
62
(
0.00110554
0.0028542
0.00435824
0.00567378
0.0068664
0.00795732
0.00895151
0.0098462
0.0106346
0.011309
0.0118661
0.0123182
0.0126968
0.0129966
0.0131992
0.0132478
0.013028
0.0126205
0.0120766
0.0111987
0.00951916
0.00660409
0.00262674
0.00262674
0.00573254
0.00754944
0.00888547
0.0102036
0.0121982
0.0162577
0.0254485
0.0324961
0.031754
0.033276
0.0377114
0.00247068
0.00505383
0.00698674
0.00911365
0.0117107
0.0150696
0.0202431
0.0301166
0.00247068
0.00711117
0.00985692
0.0111842
0.0118228
0.0118331
0.0112134
0.0102122
0.00880685
0.00742843
0.007033
0.00684155
0.0058302
0.00530965
0.00557141
0.00578279
0.00549697
0.00417428
0.00221934
)
;
    }
    atmosphere
    {
        type            inletOutlet;
        inletValue      uniform 0.1;
        value           nonuniform List<scalar> 
46
(
0.00904132
0.019957
0.0258218
0.0300058
0.0333828
0.0363019
0.0389534
0.0414672
0.0439511
0.0465129
0.0492766
0.0524025
0.0561172
0.0607683
0.0669402
0.0757286
0.1
0.1
0.1
0.1
0.1
0.1
0.1
0.1
0.1
0.1
0.1
0.1
0.1
0.1
0.1
0.1
0.1
0.1
0.1
0.1
0.1
0.1
0.1
0.1
0.1
0.0733667
0.0617512
0.0516092
0.0400529
0.0189252
)
;
    }
    defaultFaces
    {
        type            empty;
    }
}


// ************************************************************************* //
