/*--------------------------------*- C++ -*----------------------------------*\
| =========                 |                                                 |
| \\      /  F ield         | OpenFOAM: The Open Source CFD Toolbox           |
|  \\    /   O peration     | Version:  2.3.0                                 |
|   \\  /    A nd           | Web:      www.OpenFOAM.org                      |
|    \\/     M anipulation  |                                                 |
\*---------------------------------------------------------------------------*/
FoamFile
{
    version     2.0;
    format      ascii;
    class       volScalarField;
    location    "2.7";
    object      nut;
}
// * * * * * * * * * * * * * * * * * * * * * * * * * * * * * * * * * * * * * //

dimensions      [0 2 -1 0 0 0 0];

internalField   nonuniform List<scalar> 
2268
(
3.01619e-05
3.59676e-05
4.45725e-05
5.09559e-05
5.61046e-05
6.03848e-05
6.39726e-05
6.69676e-05
6.94347e-05
7.14256e-05
7.29975e-05
7.42939e-05
7.5394e-05
7.62254e-05
7.67551e-05
7.68072e-05
7.60116e-05
7.46928e-05
7.28812e-05
6.99507e-05
6.42908e-05
5.34898e-05
3.46036e-05
7.05748e-05
0.000299114
0.000409256
0.000486872
0.000547063
0.000595039
0.000633414
0.00066395
0.000688052
0.000706935
0.000721754
0.000733222
0.000741375
0.000746614
0.000748571
0.000745657
0.000734979
0.000715006
0.000680887
0.000625024
0.000535128
0.000391629
0.000106585
8.55408e-05
0.00054267
0.000803196
0.000980445
0.0011133
0.00121528
0.00129341
0.0013526
0.00139673
0.00142911
0.00145258
0.00146912
0.00147964
0.00148414
0.00148059
0.00146456
0.00142955
0.00136942
0.00127442
0.00113065
0.000919418
0.000618183
0.000121552
9.73017e-05
0.000735526
0.00114528
0.00142007
0.00162135
0.00177207
0.00188452
0.00196718
0.00202669
0.00206838
0.0020966
0.00211441
0.00212314
0.00212219
0.00210784
0.00207316
0.00200848
0.00190283
0.00174139
0.00150532
0.00117664
0.000743052
0.000131109
0.000107371
0.000895169
0.00144271
0.00180696
0.00206908
0.00226181
0.00240293
0.00250467
0.00257625
0.00262488
0.00265607
0.0026736
0.00267894
0.00267075
0.00264409
0.00259014
0.00249665
0.00234835
0.00212495
0.00180182
0.00136007
0.000808551
0.000139342
0.000116629
0.00103369
0.00170583
0.00215024
0.0024654
0.00269374
0.00285861
0.00297583
0.00305712
0.00311129
0.00314476
0.00316182
0.00316383
0.00314885
0.00311106
0.00304047
0.00292291
0.00273957
0.00246459
0.00206556
0.00151688
0.000843284
0.000151292
0.000125603
0.00115826
0.00194273
0.00245844
0.00281952
0.00307789
0.00326229
0.00339203
0.00348119
0.00354
0.00357564
0.00359276
0.00359251
0.00357244
0.00352628
0.00344341
0.00330859
0.00310054
0.0027887
0.00233191
0.00169039
0.00089036
0.000172414
0.00013465
0.00127278
0.00215935
0.0027387
0.00313965
0.00342329
0.00362364
0.00376339
0.00385887
0.00392166
0.00395953
0.00397756
0.00397655
0.00395365
0.00390247
0.0038123
0.00366765
0.00344625
0.00311503
0.0026271
0.00192802
0.00101568
0.000216595
3.34929e-05
5.64741e-05
6.64671e-05
7.07287e-05
7.26267e-05
7.25821e-05
7.06074e-05
6.74868e-05
6.28191e-05
5.77044e-05
5.61803e-05
5.54671e-05
5.12571e-05
4.90729e-05
5.0123e-05
5.10116e-05
4.96499e-05
4.33084e-05
4.44333e-05
0.000111303
0.000466393
0.000609954
0.000674554
0.000696393
0.000687697
0.000655784
0.000613303
0.000526689
0.000473934
0.000521987
0.000540383
0.000473778
0.000404608
0.000409572
0.000460126
0.000427963
0.000312897
0.000101156
0.000130571
0.000782638
0.00114312
0.00131673
0.00138215
0.00137386
0.00131122
0.00122438
0.00109174
0.00100646
0.00106106
0.00108308
0.000978784
0.000853682
0.000840917
0.000882214
0.000785683
0.000513957
0.000117738
0.000149487
0.000999042
0.00156266
0.00184868
0.00196517
0.0019691
0.00189224
0.0017798
0.0016326
0.0015359
0.00157016
0.0015754
0.00145469
0.00130094
0.00124755
0.00123979
0.00107349
0.000677712
0.000131294
0.000169733
0.00118242
0.00191654
0.00229873
0.0024618
0.00248282
0.00240393
0.00228198
0.0021361
0.0020378
0.00204247
0.0020216
0.00189122
0.00172374
0.00162551
0.00155453
0.00132374
0.000832255
0.000143186
0.000192649
0.00137189
0.00224461
0.00269786
0.00289636
0.00293392
0.00285982
0.00273833
0.002601
0.00250303
0.00247748
0.00242825
0.0022888
0.00211196
0.001973
0.00183816
0.00154756
0.000976537
0.00015423
0.000222417
0.00159354
0.00257206
0.00306672
0.00328663
0.00333718
0.0032707
0.00315493
0.00302807
0.00292907
0.00287595
0.00279949
0.0026503
0.00246367
0.00228899
0.00209469
0.00174361
0.00109583
0.00016524
0.000270177
0.00187443
0.00291329
0.00341648
0.00364367
0.00370262
0.00364407
0.00353663
0.00341897
0.00331688
0.00323953
0.00313855
0.00297852
0.00278066
0.00257459
0.00232769
0.00191866
0.00119656
0.000175275
0.000149498
0.00144045
0.00247419
0.00314313
0.00359847
0.00391527
0.00413558
0.00428738
0.00439054
0.00445863
0.00450018
0.0045202
0.00451829
0.00449215
0.00443586
0.0043395
0.00418865
0.00396214
0.00362795
0.00314195
0.00246304
0.00161264
0.000774936
0.000167559
0.00164044
0.00284607
0.00361999
0.00413547
0.00448457
0.00472062
0.00487985
0.00498773
0.00506065
0.00510779
0.00513259
0.0051348
0.00511309
0.00506269
0.00497563
0.00484153
0.00464651
0.00437236
0.00400131
0.00353321
0.00300208
0.00247925
0.000187062
0.00182536
0.00320468
0.00408253
0.0046494
0.00501636
0.00525248
0.00540581
0.00550875
0.00558027
0.00562921
0.00565692
0.00566425
0.00565094
0.00561278
0.0055431
0.00543594
0.00528499
0.00508533
0.00483927
0.00456719
0.00428421
0.00401549
0.000207062
0.00199997
0.0035866
0.00458173
0.00519202
0.0055536
0.00576526
0.00589402
0.00597944
0.00604181
0.00608711
0.00611422
0.00612452
0.00612046
0.00609678
0.00604557
0.00596509
0.00585566
0.00571992
0.00556818
0.00543878
0.00530724
0.00515286
0.000234298
0.00221112
0.00400994
0.00511244
0.00572395
0.006042
0.00621918
0.00632386
0.00639341
0.00644709
0.00648763
0.00651112
0.00652298
0.00653112
0.00652439
0.00649056
0.00642936
0.00635303
0.00626079
0.00616242
0.00611497
0.00604
0.00593408
0.000275561
0.00241308
0.00426342
0.00538865
0.00600246
0.00631985
0.00649787
0.0066103
0.00668541
0.00674351
0.0067904
0.00682241
0.0068484
0.00687929
0.00689372
0.00687146
0.00682129
0.00675502
0.0066738
0.00662066
0.00659177
0.00654041
0.00646698
0.000302588
0.00249612
0.00430316
0.00541856
0.00608093
0.00645008
0.00664147
0.0067669
0.00685621
0.00692582
0.00698459
0.00703241
0.00707644
0.00713069
0.00716371
0.00715612
0.00712469
0.00707607
0.00700852
0.00697924
0.00694827
0.00690544
0.00685361
0.0003171
0.00250204
0.00427727
0.00541295
0.00611953
0.0065175
0.00671542
0.00685593
0.00696157
0.00704379
0.00711385
0.00717203
0.0072261
0.00728626
0.0073323
0.007345
0.00733448
0.00731021
0.00727591
0.00725148
0.00721471
0.00716896
0.00712194
0.000322342
0.0024446
0.00420545
0.00534832
0.00608248
0.00650088
0.00672288
0.00688812
0.00701373
0.00711171
0.00719272
0.00725805
0.00731801
0.00738177
0.0074353
0.00746339
0.00746993
0.00745999
0.00743926
0.00740784
0.00737052
0.00733301
0.00730946
0.000319677
0.00232215
0.00404549
0.0051864
0.00593327
0.00638489
0.00666587
0.00687131
0.00702135
0.00713438
0.00722333
0.00729672
0.00736682
0.00743899
0.0075017
0.00754465
0.00756617
0.00756064
0.00753219
0.00749681
0.00747078
0.00745631
0.00745419
0.000311093
0.00214743
0.00379686
0.00494116
0.00571393
0.00621749
0.00656573
0.00681688
0.00699361
0.00712278
0.00722237
0.00730511
0.00738432
0.00746682
0.00754195
0.00760015
0.00763519
0.00763511
0.0076102
0.0075839
0.00756946
0.00756682
0.00757152
0.000298105
0.00190557
0.00348827
0.00463567
0.00544441
0.00601031
0.00642753
0.00672627
0.00693188
0.00707932
0.0071923
0.00728631
0.00737491
0.00746727
0.00755632
0.00763006
0.00767806
0.00769136
0.00768004
0.00766487
0.00765783
0.00765946
0.00766493
0.000284637
0.00164069
0.00312778
0.00427254
0.00511371
0.00574158
0.00622614
0.00657276
0.00681697
0.00699411
0.00712845
0.00723865
0.00733993
0.00744338
0.00754658
0.00763579
0.00769757
0.00772521
0.00772903
0.00772554
0.00772516
0.00772973
0.00773597
0.000270007
0.00142306
0.00278698
0.00389978
0.00475647
0.00542558
0.0059505
0.00635055
0.00664622
0.00686265
0.00702675
0.0071599
0.00727939
0.0073971
0.00751282
0.00761427
0.00768827
0.00773076
0.00775053
0.00776004
0.00776821
0.00777785
0.00778751
0.00025418
0.00125998
0.00249782
0.00355747
0.00440952
0.00509745
0.00565428
0.00609571
0.00643637
0.00669451
0.00689366
0.00705487
0.00719642
0.00733006
0.00745653
0.00756705
0.00765202
0.00770946
0.00774563
0.00776979
0.00778916
0.00780696
0.00782312
0.000237507
0.00114308
0.00226923
0.00326943
0.00410434
0.00479805
0.00537364
0.00584344
0.00621832
0.00651273
0.00674444
0.0069336
0.00709736
0.0072466
0.00738331
0.00750198
0.00759744
0.00766902
0.00772124
0.00776072
0.00779305
0.00782134
0.00784632
0.000220624
0.00106245
0.0020994
0.00304455
0.00385709
0.0045476
0.00513074
0.00561644
0.00601391
0.00633518
0.00659472
0.0068086
0.00699202
0.00715495
0.00730074
0.00742764
0.00753358
0.00761838
0.0076856
0.00773999
0.00778575
0.0078256
0.00786058
0.000204337
0.00101024
0.00198153
0.0028806
0.00366981
0.00435138
0.00493402
0.00542603
0.00583607
0.00617484
0.00645472
0.00668839
0.00688821
0.00706328
0.00721799
0.00735311
0.00746856
0.00756533
0.00764612
0.00771435
0.00777306
0.00782441
0.00786953
0.000189496
0.000980019
0.00190636
0.00276876
0.00353537
0.00420449
0.00478138
0.00527332
0.00568879
0.0060377
0.00633095
0.00657925
0.00679212
0.00697778
0.00714114
0.00728454
0.00740928
0.00751691
0.00760967
0.00769005
0.00776036
0.00782231
0.00787686
0.000176766
0.000965572
0.00186309
0.00269663
0.0034419
0.00409668
0.00466489
0.0051532
0.0055699
0.00592426
0.00622604
0.00648462
0.00670798
0.00690296
0.0070747
0.00722637
0.00736007
0.00747765
0.00758104
0.00767219
0.00775279
0.00782415
0.00788695
0.000166414
0.000960336
0.00184006
0.00265064
0.00337625
0.00401644
0.00457507
0.00505851
0.00547464
0.00583214
0.00613988
0.00640621
0.00663833
0.00684184
0.00702186
0.00718183
0.00732423
0.00745104
0.00756399
0.00766463
0.00775426
0.00783379
0.00790368
0.00015824
0.00095807
0.00182635
0.00261851
0.00332695
0.00395394
0.00450388
0.00498289
0.00539841
0.00575853
0.00607138
0.00634453
0.00658454
0.00679655
0.00698491
0.0071533
0.00730427
0.00743979
0.00756145
0.00767051
0.00776796
0.00785448
0.00793032
0.000151728
0.00095442
0.00181411
0.00259168
0.0032863
0.00390285
0.00444622
0.00492233
0.00533823
0.00570153
0.00601976
0.00629986
0.00654784
0.00676853
0.00696557
0.0071426
0.0073021
0.00744596
0.0075756
0.00769213
0.00779634
0.0078887
0.00796937
0.000146313
0.000948066
0.00180027
0.00256677
0.00325147
0.00386096
0.00440036
0.00487549
0.00529321
0.00566077
0.00598521
0.00627291
0.00652937
0.00675904
0.00696524
0.00715111
0.00731905
0.00747084
0.0076078
0.0077309
0.00784081
0.00793791
0.00802229
0.000141551
0.000940328
0.00178662
0.0025457
0.00322421
0.00382972
0.00436743
0.00484328
0.00526418
0.00563713
0.00596871
0.00626478
0.00653029
0.00676929
0.00698491
0.00717952
0.00735563
0.00751482
0.00765831
0.00778701
0.00790153
0.00800224
0.00808922
0.000137193
0.000934044
0.00177801
0.002534
0.00320924
0.00381271
0.00435007
0.00482779
0.0052529
0.00563215
0.00597162
0.00627656
0.00655141
0.00679977
0.00702445
0.00722753
0.0074112
0.00757696
0.00772598
0.00785915
0.00797711
0.00808023
0.00816867
0.000133191
0.000933634
0.00178
0.00253656
0.00321083
0.00381313
0.00435072
0.00483099
0.005261
0.00564709
0.00599474
0.0063086
0.00659254
0.00684976
0.00708275
0.0072934
0.00748358
0.00765473
0.00780801
0.00794434
0.00806442
0.0081687
0.00825743
0.00012961
0.000939925
0.00179375
0.00255391
0.00322932
0.0038314
0.00437
0.0048535
0.00528887
0.00568191
0.00603748
0.00635965
0.00665183
0.0069168
0.00715682
0.00737363
0.00756882
0.00774383
0.00789986
0.00803788
0.00815868
0.00826285
0.00835074
0.00012635
0.000945236
0.0018145
0.00258257
0.00326124
0.0038651
0.00440631
0.00489395
0.00533489
0.00573449
0.00609713
0.00642642
0.00672536
0.00699647
0.00724178
0.00746293
0.00766135
0.00783848
0.00799558
0.00813374
0.00825387
0.00835669
0.0084427
0.000123438
0.000950072
0.0018384
0.00261771
0.0033024
0.0039107
0.00445629
0.00494878
0.00539507
0.00580037
0.00616874
0.00650352
0.00680743
0.00708276
0.00733139
0.0075549
0.00775461
0.00793203
0.00808852
0.0082253
0.00834343
0.00844378
0.00852703
0.000121092
0.00095945
0.00186473
0.00265631
0.00334938
0.00396403
0.00451498
0.00501239
0.00546338
0.00587319
0.0062458
0.00658435
0.00689139
0.00716903
0.00741904
0.00764293
0.00784205
0.00801799
0.00817228
0.00830629
0.00842127
0.00851825
0.00859805
0.000119531
0.000971439
0.00189276
0.00269648
0.00339847
0.00401988
0.00457617
0.00507801
0.00553286
0.00594606
0.00632157
0.00666243
0.00697102
0.0072493
0.00749893
0.00772142
0.00791823
0.00809113
0.00824182
0.00837191
0.00848281
0.00857574
0.00865164
0.000118913
0.000985249
0.00192089
0.00273521
0.00344511
0.00407257
0.00463362
0.00513933
0.00559739
0.00601323
0.00639077
0.00673291
0.00704187
0.00731943
0.00756722
0.00778677
0.0079798
0.00814831
0.0082943
0.00841958
0.00852579
0.00861425
0.00868605
0.000119289
0.00100015
0.00194695
0.00276919
0.00348522
0.00411769
0.00468293
0.00519219
0.00565322
0.00607142
0.00645059
0.00679341
0.00710192
0.00737775
0.0076225
0.00783783
0.00802588
0.00818902
0.00832955
0.00844954
0.00855076
0.00863464
0.00870235
0.00012057
0.00101537
0.00196928
0.00279638
0.00351675
0.00415335
0.00472249
0.00523531
0.00569942
0.00612006
0.00650078
0.00684402
0.00715155
0.00742489
0.00766567
0.00787585
0.00805813
0.00821537
0.00835022
0.0084649
0.00856123
0.00864069
0.00870449
0.000122547
0.00103021
0.00198733
0.00281663
0.00353992
0.00418009
0.00475308
0.00526967
0.00573717
0.00616049
0.00654288
0.00688645
0.0071927
0.00746305
0.0076993
0.00790392
0.00808032
0.00823193
0.00836161
0.00847154
0.00856343
0.00863877
0.00869884
0.000124934
0.00104394
0.0020012
0.0028308
0.00355616
0.00419967
0.00477661
0.00529724
0.00576842
0.0061947
0.00657894
0.00692288
0.00722778
0.00749505
0.00772686
0.00792647
0.00809807
0.00824558
0.00837158
0.00847783
0.00856587
0.00863726
0.00869354
0.000127415
0.00105546
0.00201078
0.00283976
0.00356691
0.0042138
0.00479487
0.00531972
0.0057948
0.00622422
0.00661047
0.00695493
0.00725872
0.00752348
0.00775211
0.00794896
0.00811894
0.00826578
0.0083906
0.00849434
0.00857865
0.00864564
0.00869748
0.000129676
0.00106314
0.0020154
0.00284383
0.00357309
0.00422358
0.00480886
0.00533798
0.00581695
0.00624954
0.00663787
0.00698309
0.00728633
0.00754998
0.00777849
0.00797794
0.00815347
0.00830578
0.00843222
0.00853346
0.00861263
0.00867342
0.00871914
0.00013143
0.00106501
0.0020143
0.00284327
0.0035753
0.00422958
0.00481895
0.00535204
0.00583458
0.00627008
0.0066604
0.00700653
0.00730998
0.00757463
0.00780833
0.00802137
0.00821853
0.00838542
0.00851366
0.0086085
0.00867797
0.00872872
0.00876549
0.000132472
0.00106018
0.00200826
0.00283936
0.00357463
0.00423243
0.00482524
0.00536153
0.00584688
0.00628467
0.00667657
0.00702355
0.0073277
0.00759527
0.00784057
0.00808683
0.00834842
0.00853629
0.00865509
0.00873123
0.00878194
0.00881674
0.00884092
0.000132728
0.00105503
0.00200267
0.00283565
0.00357318
0.00423319
0.00482804
0.00536617
0.00585311
0.00629217
0.00668495
0.0070324
0.00733707
0.0076073
0.00786557
0.00816605
0.00863821
0.00880625
0.00887301
0.00890627
0.0089258
0.00893836
0.00894678
0.000251216
0.000248173
0.000254632
0.000272188
0.00214457
0.00209582
0.00212804
0.00226565
0.0038832
0.00385942
0.00389767
0.0040011
0.00506978
0.00504783
0.00506236
0.00510839
0.00586775
0.00584222
0.00584038
0.00585894
0.0064184
0.00639616
0.00638573
0.00639175
0.00682125
0.00680449
0.00679479
0.00679669
0.00710429
0.00709972
0.00709989
0.00710036
0.00731053
0.00731378
0.00731614
0.00731562
0.00746112
0.00746547
0.00746728
0.00746567
0.00757831
0.00758168
0.00758216
0.00757918
0.00767
0.0076721
0.0076715
0.00766771
0.00774069
0.00774259
0.00774205
0.00773858
0.00779417
0.00779734
0.00779827
0.00779643
0.00783377
0.00783949
0.00784306
0.00784396
0.00786237
0.00787148
0.00787845
0.00788278
0.00788277
0.00789564
0.00790634
0.00791436
0.00789797
0.00791464
0.00792905
0.00794071
0.00791123
0.00793155
0.00794947
0.00796453
0.00792652
0.00795015
0.00797117
0.00798924
0.00794767
0.0079741
0.00799776
0.00801836
0.00797792
0.00800662
0.00803239
0.00805498
0.00801979
0.00805021
0.00807754
0.00810159
0.00807475
0.00810635
0.00813471
0.00815967
0.00814292
0.00817517
0.00820403
0.00822936
0.00822283
0.00825519
0.00828403
0.00830924
0.00831128
0.00834326
0.0083716
0.00839622
0.00840356
0.0084347
0.00846211
0.00848575
0.00849386
0.00852378
0.00854993
0.00857229
0.00857605
0.00860446
0.00862912
0.00865
0.00864458
0.00867133
0.00869436
0.0087137
0.00869551
0.00872053
0.00874193
0.00875975
0.00872723
0.00875056
0.0087704
0.00878681
0.00874095
0.00876267
0.00878108
0.00879622
0.00874063
0.00876087
0.00877797
0.00879198
0.00873263
0.00875146
0.00876733
0.00878029
0.00872488
0.00874224
0.00875682
0.00876871
0.00872588
0.00874151
0.00875457
0.00876518
0.00874366
0.00875702
0.00876811
0.00877708
0.00878468
0.00879503
0.00880354
0.00881039
0.00885319
0.00885973
0.00886506
0.00886932
0.00895095
0.00895315
0.00895493
0.00895635
0.00142332
0.00266386
0.00348426
0.00393422
0.00415108
0.00421753
0.00417983
0.00408636
0.00397832
0.00386795
0.0037575
0.00362275
0.00344394
0.00322644
0.00297661
0.00265767
0.00216266
0.00133135
0.000185242
0.00297063
0.00374116
0.00427268
0.00459226
0.00475766
0.00481336
0.00479035
0.00470968
0.00460114
0.00447222
0.00432698
0.00415565
0.0039475
0.00369921
0.00340143
0.00301059
0.00242512
0.00147316
0.000196365
0.00427895
0.004678
0.00498464
0.00518391
0.00529103
0.00532698
0.00530932
0.00523945
0.00512056
0.00496718
0.00478918
0.00458451
0.00434673
0.00406815
0.00372939
0.00328159
0.00262511
0.00158439
0.000202082
0.00522519
0.00542252
0.00558755
0.00569879
0.0057565
0.00576935
0.00574685
0.00567696
0.00553824
0.00535841
0.00515116
0.00491707
0.0046503
0.00434178
0.00396662
0.00347272
0.00276236
0.00165865
0.000201703
0.00590805
0.00600035
0.00608206
0.00613432
0.00615059
0.00612958
0.00607588
0.00598091
0.00582984
0.00563525
0.00540817
0.00515153
0.0048622
0.00452652
0.00411904
0.00358785
0.00283306
0.00168328
0.000212388
0.00641642
0.00645147
0.006477
0.00648366
0.0064622
0.00640422
0.00630823
0.00617565
0.00600303
0.00579343
0.0055485
0.00527089
0.00495765
0.00460053
0.00417589
0.00362367
0.00283655
0.0016415
0.000200791
0.00680381
0.00680157
0.00678862
0.00675894
0.00670332
0.00661213
0.00648068
0.00631161
0.00610804
0.00587085
0.00559758
0.00528966
0.00494447
0.00455729
0.00410796
0.00353982
0.00275136
0.0015855
0.000192428
0.00709504
0.00707001
0.0070309
0.00697192
0.00688468
0.00675977
0.00659359
0.00638852
0.00614823
0.00587308
0.0055622
0.00521683
0.00483418
0.00441183
0.00393762
0.00336561
0.00260752
0.00152245
0.000190428
0.00730588
0.00726949
0.00721265
0.00712975
0.00701394
0.00685853
0.00666036
0.00642045
0.00614076
0.00582283
0.00546875
0.00507965
0.00465311
0.00419443
0.00370225
0.00313885
0.00243003
0.00143202
0.000186422
0.00745353
0.00741244
0.00734546
0.007247
0.00711114
0.00693264
0.00670803
0.00643628
0.00611844
0.00575749
0.00535697
0.00491895
0.00444514
0.00394709
0.00342999
0.00286429
0.00218431
0.00128651
0.000171704
0.00756482
0.00752105
0.00744909
0.00734234
0.00719469
0.00700093
0.00675704
0.00646075
0.0061125
0.00571502
0.0052717
0.00478594
0.00426233
0.00371376
0.00314842
0.00254695
0.00186295
0.00102915
0.000155713
0.00765257
0.00760853
0.00753568
0.00742646
0.00727418
0.00707317
0.00681886
0.00650845
0.00614176
0.00572015
0.00524567
0.00472129
0.00415199
0.00354741
0.00291756
0.00225914
0.00156456
0.000826221
0.000138301
0.00772465
0.00768306
0.00761286
0.00750591
0.00735495
0.0071538
0.00689769
0.00658363
0.00621066
0.0057791
0.00528995
0.00474498
0.00414748
0.0035036
0.00282399
0.00211774
0.00140276
0.000715027
0.000133965
0.00778581
0.00774935
0.00768477
0.00758374
0.00743871
0.00724322
0.00699242
0.00668338
0.00631472
0.00588624
0.00539861
0.00485316
0.00425204
0.00360049
0.00290762
0.00218516
0.00145039
0.000738409
0.00014112
0.00783844
0.0078093
0.00775256
0.00766005
0.0075242
0.00733851
0.00709826
0.00680068
0.00644428
0.00602866
0.00555437
0.00502263
0.00443561
0.00379802
0.00311689
0.00240087
0.00165108
0.000865197
0.000149801
0.0078835
0.0078631
0.00781554
0.00773309
0.0076084
0.00743513
0.00720879
0.00692671
0.00658733
0.00619009
0.00573525
0.00522361
0.00465662
0.00403711
0.00336869
0.00265159
0.00187433
0.00101154
0.000156677
0.00792177
0.00791067
0.00787275
0.00780092
0.00768821
0.00752861
0.00731783
0.00705316
0.00673287
0.00635605
0.00592233
0.00543152
0.00488325
0.00427692
0.00361041
0.0028757
0.00205207
0.00110755
0.000161108
0.00795466
0.00795266
0.00792415
0.00786268
0.00776183
0.007616
0.00742103
0.00717405
0.00687303
0.00651648
0.00610313
0.00563129
0.00509824
0.0044995
0.00382707
0.00306563
0.00218822
0.00116534
0.000164173
0.00798448
0.00799076
0.00797091
0.00791905
0.00782931
0.0076965
0.00751657
0.00728646
0.00700369
0.00666607
0.0062712
0.00581577
0.00529464
0.00469977
0.00401841
0.00323027
0.00230592
0.00122152
0.000167
0.00801423
0.00802749
0.00801522
0.00797191
0.00789215
0.00777112
0.00760485
0.00739007
0.00712383
0.00680316
0.0064245
0.0059829
0.00547104
0.00487796
0.00418748
0.00337635
0.00241483
0.00128346
0.000169911
0.00804747
0.00806624
0.00806002
0.00802386
0.00795273
0.00784194
0.00768761
0.00748627
0.00723447
0.00692846
0.00656358
0.00613335
0.00562855
0.00503588
0.0043366
0.00350493
0.0025107
0.00133855
0.000173046
0.00808729
0.0081102
0.00810855
0.00807789
0.00801362
0.00791136
0.00776713
0.00757718
0.00733758
0.00704386
0.00669028
0.00626903
0.00576919
0.00517555
0.00446738
0.00361756
0.00259431
0.00137945
0.000176056
0.00813616
0.00816192
0.00816344
0.00813674
0.00807761
0.00798193
0.00784568
0.00766489
0.0074352
0.00715145
0.006807
0.00639291
0.00589687
0.00530215
0.00458631
0.00372037
0.00267014
0.00141513
0.000178537
0.00819559
0.00822297
0.00822635
0.00820217
0.0081466
0.00805572
0.00792554
0.00775187
0.00752997
0.00725409
0.0069168
0.00650817
0.0060148
0.00541862
0.00469572
0.00381525
0.00274035
0.00144787
0.000180589
0.00826575
0.0082936
0.00829762
0.00827468
0.00822127
0.00813366
0.00800788
0.00783957
0.00762364
0.00735381
0.00702196
0.00661733
0.00612551
0.00552733
0.00479752
0.00390348
0.00280576
0.00147817
0.000182233
0.00834527
0.00837252
0.00837614
0.00835334
0.00830093
0.00821535
0.00809264
0.00792829
0.00771688
0.00745167
0.00712391
0.00672207
0.00623087
0.00563009
0.00489321
0.00398598
0.00286665
0.00150609
0.000183244
0.00843114
0.00845689
0.00845926
0.00843579
0.00838353
0.00829908
0.0081785
0.00801713
0.00780926
0.00754771
0.00722314
0.00682332
0.00633212
0.00572828
0.00498407
0.0040637
0.0029235
0.00153216
0.000183254
0.00851895
0.00854253
0.00854306
0.00851838
0.00846576
0.00838195
0.00826301
0.00810414
0.00789937
0.00764106
0.00731936
0.00692133
0.00642997
0.00582301
0.00507144
0.00413803
0.00297758
0.0015577
0.000182539
0.00860333
0.00862431
0.00862271
0.00859662
0.00854353
0.00846029
0.00834296
0.00818661
0.00798502
0.00773016
0.00741161
0.00701576
0.00652475
0.0059152
0.00515678
0.00421077
0.0030306
0.00158338
0.000181913
0.00867864
0.00869688
0.00869316
0.0086658
0.00861246
0.0085301
0.00841477
0.00826146
0.00806366
0.007813
0.00749854
0.00710595
0.00661647
0.0060056
0.00524153
0.00428382
0.00308419
0.00160918
0.000181987
0.00873989
0.00875549
0.00874993
0.0087217
0.00866863
0.00858778
0.00847521
0.00832581
0.00813286
0.00788764
0.00757871
0.00719106
0.00670499
0.00609475
0.00532689
0.00435886
0.00313988
0.00163531
0.000182894
0.0087836
0.00879689
0.00878994
0.00876144
0.00870936
0.00863086
0.00852202
0.00837766
0.00819091
0.0079527
0.00765113
0.00727051
0.00679019
0.00618306
0.00541379
0.00443721
0.00319923
0.00166325
0.000184241
0.00880855
0.00881997
0.00881221
0.00878413
0.00873385
0.00865862
0.0085546
0.00841655
0.00823746
0.00800799
0.0077158
0.0073445
0.00687246
0.0062711
0.00550299
0.00451987
0.00326355
0.00169464
0.000185845
0.00881614
0.00882616
0.00881818
0.00879121
0.00874355
0.00867256
0.00857447
0.00844404
0.00827414
0.00805519
0.00777439
0.00741466
0.00695331
0.00636019
0.00559551
0.00460764
0.00333366
0.00173001
0.000187744
0.00881035
0.00881939
0.00881172
0.00878652
0.00874226
0.00867645
0.00858542
0.00846395
0.00830483
0.00809822
0.00783084
0.00748483
0.00703625
0.00645319
0.00569334
0.0047016
0.00341026
0.00177077
0.000189619
0.00879726
0.00880561
0.00879867
0.00877582
0.0087357
0.00867601
0.00859321
0.00848216
0.00833559
0.00814339
0.00789168
0.00756159
0.00712758
0.0065555
0.00580025
0.00480353
0.00349348
0.00181683
0.000191871
0.00878424
0.00879201
0.00878609
0.00876607
0.0087308
0.00867821
0.00860494
0.008506
0.00837412
0.00819893
0.00796583
0.00765449
0.00723702
0.00667596
0.00592267
0.00491648
0.00358257
0.00186417
0.00019517
0.00877903
0.0087861
0.00878134
0.00876455
0.00873482
0.00869032
0.00862802
0.00854318
0.0084287
0.00827408
0.0080639
0.00777582
0.00737814
0.00682766
0.0060702
0.00504549
0.00367877
0.00191285
0.00019927
0.00878875
0.00879483
0.00879125
0.00877801
0.00875444
0.00871903
0.00866917
0.00860065
0.00850686
0.00837757
0.0081968
0.0079398
0.00756872
0.00702907
0.00625465
0.00519549
0.00378271
0.00196231
0.000203909
0.00881926
0.00882395
0.00882151
0.00881203
0.00879509
0.00876958
0.00873349
0.00868345
0.00861392
0.00851579
0.0083737
0.00816112
0.00783169
0.00730779
0.00648657
0.00536646
0.00389112
0.00200982
0.000208718
0.00887483
0.00887776
0.00887636
0.00887075
0.00886069
0.00884553
0.00882403
0.00879401
0.00875175
0.00869073
0.0085988
0.00845169
0.00819681
0.00771471
0.0067648
0.00554338
0.003992
0.00204977
0.000213125
0.00895818
0.00895916
0.00895871
0.00895688
0.00895362
0.00894871
0.00894175
0.00893202
0.00891826
0.00889808
0.0088666
0.00881185
0.00869691
0.00837375
0.00703746
0.00567862
0.00405969
0.00207353
0.000216087
)
;

boundaryField
{
    leftWall
    {
        type            nutkWallFunction;
        Cmu             0.09;
        kappa           0.41;
        E               9.8;
        value           nonuniform List<scalar> 
50
(
5.73976e-06
8.50031e-06
1.0173e-05
1.14536e-05
1.2529e-05
1.35028e-05
1.44367e-05
1.53724e-05
1.69014e-05
1.87926e-05
2.09145e-05
2.37044e-05
2.85213e-05
3.26571e-05
3.58289e-05
3.79933e-05
3.694e-05
3.59051e-05
3.43131e-05
3.24084e-05
3.04739e-05
2.84237e-05
2.62551e-05
2.40135e-05
2.17797e-05
1.96565e-05
1.77477e-05
1.61264e-05
1.48083e-05
1.37518e-05
1.28834e-05
1.21298e-05
1.14386e-05
1.08044e-05
1.03906e-05
9.85063e-06
9.16579e-06
8.62786e-06
8.25723e-06
8.01959e-06
7.94126e-06
8.02802e-06
8.26216e-06
8.60693e-06
9.01464e-06
9.4342e-06
9.81627e-06
1.01162e-05
1.03014e-05
1.03539e-05
)
;
    }
    rightWall
    {
        type            nutkWallFunction;
        Cmu             0.09;
        kappa           0.41;
        E               9.8;
        value           nonuniform List<scalar> 
50
(
8.96662e-06
1.19928e-05
1.38279e-05
1.53227e-05
1.66365e-05
1.786e-05
1.90859e-05
2.01822e-05
2.12881e-05
2.25448e-05
2.31888e-05
2.36161e-05
2.28211e-05
2.09711e-05
2.02341e-05
2.00653e-05
1.93776e-05
1.61471e-05
1.36859e-05
1.13999e-05
1.09474e-05
1.20438e-05
1.33329e-05
1.39372e-05
1.45238e-05
1.51411e-05
1.56112e-05
1.59993e-05
1.64212e-05
1.68496e-05
1.71907e-05
1.74821e-05
1.77186e-05
1.77904e-05
1.76575e-05
1.75669e-05
1.74627e-05
1.75458e-05
1.76698e-05
1.78431e-05
1.80552e-05
1.82942e-05
1.84299e-05
1.87314e-05
1.92021e-05
1.98074e-05
2.05054e-05
2.12368e-05
2.19088e-05
2.23606e-05
)
;
    }
    lowerWall
    {
        type            nutkWallFunction;
        Cmu             0.09;
        kappa           0.41;
        E               9.8;
        value           nonuniform List<scalar> 
62
(
2.56513e-06
4.32633e-06
5.38187e-06
6.14638e-06
6.75744e-06
7.26629e-06
7.69707e-06
8.06245e-06
8.36936e-06
8.622e-06
8.8244e-06
8.98483e-06
9.11665e-06
9.2195e-06
9.28826e-06
9.30467e-06
9.23024e-06
9.09035e-06
8.89958e-06
8.58128e-06
7.93113e-06
6.62847e-06
4.14126e-06
4.14126e-06
1.27395e-05
1.44957e-05
1.56414e-05
1.66816e-05
1.81231e-05
2.06984e-05
2.54403e-05
2.85956e-05
2.82946e-05
2.89081e-05
3.06126e-05
4.00886e-06
1.32568e-05
1.54262e-05
1.74563e-05
1.96061e-05
2.20259e-05
2.52279e-05
3.02681e-05
4.00886e-06
6.8754e-06
8.06682e-06
8.57596e-06
8.80896e-06
8.81266e-06
8.58678e-06
8.2067e-06
7.63629e-06
7.02492e-06
6.83797e-06
6.74535e-06
6.23037e-06
5.94569e-06
6.0907e-06
6.20505e-06
6.04986e-06
5.26508e-06
3.78575e-06
)
;
    }
    atmosphere
    {
        type            calculated;
        value           nonuniform List<scalar> 
46
(
0.000132728
0.00105503
0.00200267
0.00283565
0.00357318
0.00423319
0.00482804
0.00536617
0.00585311
0.00629217
0.00668495
0.0070324
0.00733707
0.0076073
0.00786557
0.00816605
0.009
0.009
0.009
0.009
0.009
0.009
0.009
0.009
0.009
0.009
0.009
0.009
0.009
0.009
0.009
0.009
0.009
0.009
0.009
0.009
0.009
0.009
0.009
0.009
0.009
0.00703746
0.00567862
0.00405969
0.00207353
0.000216087
)
;
    }
    defaultFaces
    {
        type            empty;
    }
}


// ************************************************************************* //
