/*--------------------------------*- C++ -*----------------------------------*\
| =========                 |                                                 |
| \\      /  F ield         | OpenFOAM: The Open Source CFD Toolbox           |
|  \\    /   O peration     | Version:  2.3.0                                 |
|   \\  /    A nd           | Web:      www.OpenFOAM.org                      |
|    \\/     M anipulation  |                                                 |
\*---------------------------------------------------------------------------*/
FoamFile
{
    version     2.0;
    format      ascii;
    class       volScalarField;
    location    "2.7";
    object      p;
}
// * * * * * * * * * * * * * * * * * * * * * * * * * * * * * * * * * * * * * //

dimensions      [1 -1 -2 0 0 0 0];

internalField   nonuniform List<scalar> 
2268
(
795.102
793.681
792.051
790.32
788.6
786.892
785.136
783.243
781.106
778.614
775.655
772.135
767.959
763.047
757.324
750.632
742.87
734.831
727.034
719.645
712.624
707.614
705.53
736.562
735.246
733.699
732.034
730.336
728.618
726.829
724.884
722.68
720.106
717.047
713.395
709.041
703.901
697.911
691.06
683.654
675.807
667.609
659.517
652.411
647.795
646.354
678.118
676.869
675.407
673.847
672.205
670.501
668.694
666.708
664.44
661.78
658.606
654.8
650.247
644.853
638.588
631.614
624.495
616.58
608.206
600.005
592.858
587.922
586.431
619.754
618.453
616.989
615.522
613.956
612.3
610.517
608.535
606.253
603.552
600.306
596.393
591.683
586.098
579.633
572.498
565.258
557.418
548.999
540.611
533.233
527.746
525.987
561.425
559.988
558.432
557.026
555.545
553.968
552.252
550.327
548.086
545.403
542.138
538.165
533.354
527.631
521.005
513.66
506.048
498.052
489.559
481.065
473.539
467.505
465.358
503.081
501.46
499.765
498.399
497.016
495.546
493.935
492.115
489.967
487.352
484.117
480.13
475.254
469.417
462.628
455.038
447.008
438.568
429.836
421.395
414.083
407.652
404.593
444.672
442.845
440.998
439.677
438.409
437.07
435.595
433.917
431.905
429.403
426.239
422.275
417.354
411.41
404.441
396.569
388.101
379.212
370.192
361.777
354.897
348.424
343.419
386.154
384.137
382.181
380.923
379.792
378.587
377.246
375.714
373.849
371.471
368.389
364.46
359.496
353.447
346.297
338.151
329.291
319.995
310.668
302.178
295.64
289.284
280.471
684.663
688.814
692.441
693.855
693.665
692.668
691.811
692.508
694.489
698.146
703.979
708.775
713.369
716.482
718.547
724.431
732.684
738.604
739.919
628.473
630.488
632.762
633.705
633.582
632.934
632.746
634.795
639.34
643.588
647.705
651.325
656.477
659.54
661.223
665.785
673.275
679.301
681.568
571.949
572.014
572.813
573.233
573.097
572.916
573.547
576.756
583.091
588.021
590.699
594.168
599.496
603.927
604.38
607.506
614.153
619.797
622.873
515.165
514.282
513.676
513.441
513.245
513.41
514.549
518.711
525.182
532.213
534.215
537.944
544.166
549.821
549.618
550.553
555.882
560.623
564.233
458.153
456.613
454.715
453.995
453.837
454.465
455.494
460.549
467.959
476.175
479.37
484.14
490.484
495.543
495.639
494.799
498.277
501.919
505.951
400.499
397.942
395.308
394.488
394.617
395.794
396.242
402.116
411.524
419.867
424.33
428.928
436.488
441.006
441.415
439.837
441.188
443.883
448.206
341.41
337.65
335.187
334.807
335.546
337.292
337.203
343.045
353.771
363.09
367.825
372.201
381.326
386.307
387.101
384.951
384.468
386.622
391.097
280.646
275.851
274.409
274.986
276.792
279.482
279.678
283.061
294.473
305.024
309.712
314.478
323.875
330.421
332.246
329.218
327.858
330.018
334.636
294.451
292.137
290.101
288.98
288.101
287.101
285.943
284.629
283.003
280.824
277.854
273.965
268.98
262.827
255.49
247.055
237.756
227.914
217.946
208.781
201.66
195.716
189.292
168.749
165.331
163.077
162.343
162.052
161.624
161.042
160.483
159.682
158.21
155.708
152.328
147.663
141.761
134.524
125.82
115.928
105.629
95.5496
86.6181
79.6989
73.5696
67.3789
58.5959
55.2181
53.3618
53.0205
53.6607
54.669
55.3563
55.5955
55.4341
54.9911
53.8451
51.8383
48.7928
44.988
40.2888
34.8333
29.0914
23.54
18.8461
15.598
13.5061
11.5435
9.16913
7.07758
5.77612
4.84683
4.66699
5.59875
7.36719
8.82864
9.22443
8.98081
8.72838
8.19242
7.11632
5.5351
4.01993
2.76839
1.91857
1.73287
1.59858
1.69439
2.21952
2.86225
3.06271
2.74749
1.4714
1.14549
0.830918
0.883989
1.51831
2.74753
3.86254
4.49558
4.63326
4.45631
4.0643
3.25206
2.15525
1.51357
1.45326
1.42226
1.28965
1.1438
1.13275
1.41414
1.77657
1.88927
1.63314
0.393374
0.13692
-0.00696666
-0.0190201
0.149905
0.684403
1.5656
2.10489
2.16443
2.00831
1.80476
1.32978
0.88414
0.833571
0.878708
0.830658
0.708654
0.551464
0.415241
0.466355
0.572606
0.443575
0.133505
-0.571803
-0.720148
-0.704141
-0.710931
-0.744328
-0.656062
-0.240931
-0.0757496
-0.214363
-0.342589
-0.319147
-0.357555
-0.176785
0.0683392
0.095054
0.046089
-0.0752877
-0.23039
-0.459652
-0.648875
-0.590506
-0.732636
-0.980185
-1.19668
-1.27906
-1.27173
-1.23443
-1.21978
-1.20246
-1.16769
-1.27116
-1.34668
-1.36048
-1.34492
-1.26637
-1.07226
-0.899826
-0.820331
-0.812278
-0.917978
-1.05741
-1.19814
-1.32196
-1.35749
-1.31482
-1.2798
-1.4695
-1.52978
-1.55999
-1.53726
-1.48954
-1.46049
-1.41946
-1.41975
-1.44603
-1.46275
-1.4686
-1.46518
-1.49679
-1.50546
-1.44491
-1.38693
-1.45052
-1.52143
-1.49274
-1.48095
-1.46685
-1.45514
-1.43601
-1.66549
-1.70717
-1.73025
-1.73085
-1.71096
-1.68786
-1.65684
-1.61258
-1.59908
-1.60327
-1.61538
-1.62274
-1.63506
-1.64155
-1.65363
-1.6562
-1.64781
-1.63087
-1.61742
-1.60669
-1.59874
-1.5895
-1.5772
-1.8374
-1.86846
-1.88969
-1.90636
-1.91894
-1.91343
-1.88662
-1.85543
-1.82474
-1.80158
-1.78241
-1.77601
-1.78719
-1.79247
-1.78782
-1.78057
-1.76929
-1.76323
-1.75373
-1.74567
-1.73662
-1.72633
-1.7164
-1.99282
-2.01891
-2.0361
-2.0597
-2.08864
-2.10248
-2.08809
-2.06991
-2.04934
-2.01859
-1.97747
-1.95727
-1.95407
-1.95601
-1.95035
-1.93743
-1.92177
-1.90757
-1.89444
-1.88523
-1.87618
-1.86582
-1.85611
-2.13239
-2.15178
-2.16543
-2.18648
-2.21217
-2.22377
-2.21067
-2.19011
-2.17114
-2.15692
-2.14334
-2.12767
-2.10864
-2.10079
-2.09781
-2.08694
-2.07166
-2.0496
-2.03287
-2.02221
-2.01396
-2.0049
-1.99585
-2.25913
-2.27048
-2.27994
-2.29432
-2.31004
-2.31632
-2.31076
-2.29857
-2.28502
-2.27235
-2.26001
-2.24773
-2.23624
-2.22766
-2.22164
-2.21255
-2.19631
-2.17914
-2.16519
-2.15499
-2.14749
-2.14067
-2.13347
-2.37858
-2.38277
-2.38878
-2.39835
-2.40851
-2.41389
-2.41193
-2.40505
-2.39615
-2.38661
-2.37662
-2.3666
-2.35701
-2.34877
-2.34099
-2.33127
-2.31872
-2.30563
-2.29436
-2.2853
-2.27802
-2.27205
-2.26687
-2.49534
-2.49446
-2.49783
-2.50451
-2.51181
-2.51634
-2.51641
-2.5129
-2.50727
-2.50042
-2.49273
-2.48462
-2.47647
-2.46869
-2.46083
-2.45185
-2.44159
-2.43123
-2.42193
-2.41401
-2.40733
-2.40166
-2.3967
-2.61174
-2.60782
-2.60906
-2.61367
-2.61911
-2.62303
-2.6242
-2.62274
-2.61931
-2.61449
-2.60868
-2.60221
-2.59539
-2.58843
-2.5812
-2.57331
-2.56481
-2.55635
-2.54854
-2.54164
-2.53562
-2.53044
-2.52592
-2.72867
-2.72331
-2.7229
-2.72586
-2.7299
-2.73323
-2.73484
-2.73455
-2.73258
-2.72927
-2.72494
-2.71986
-2.71426
-2.70831
-2.70199
-2.69525
-2.68818
-2.68117
-2.67456
-2.66856
-2.6632
-2.65852
-2.65441
-2.84641
-2.84074
-2.83921
-2.84081
-2.84367
-2.84633
-2.84796
-2.84824
-2.8472
-2.84499
-2.84183
-2.83791
-2.83342
-2.82849
-2.82318
-2.81753
-2.81166
-2.80582
-2.80022
-2.79501
-2.79026
-2.78604
-2.7823
-2.96498
-2.95966
-2.95747
-2.958
-2.95983
-2.96179
-2.96319
-2.96369
-2.9632
-2.96177
-2.95952
-2.95656
-2.95305
-2.94907
-2.94472
-2.94007
-2.93522
-2.93035
-2.92561
-2.92111
-2.91692
-2.91313
-2.90971
-3.08427
-3.07956
-3.07708
-3.07682
-3.07781
-3.07914
-3.08021
-3.08073
-3.08055
-3.07965
-3.07808
-3.0759
-3.0732
-3.07007
-3.06658
-3.06279
-3.05882
-3.05477
-3.05076
-3.04688
-3.04319
-3.0398
-3.03668
-3.20411
-3.20006
-3.19752
-3.19676
-3.19714
-3.19795
-3.19872
-3.19916
-3.19914
-3.19859
-3.19751
-3.19593
-3.1939
-3.19147
-3.1887
-3.18565
-3.18241
-3.17905
-3.17566
-3.17232
-3.16908
-3.16606
-3.16323
-3.32443
-3.32096
-3.3185
-3.31747
-3.31747
-3.31793
-3.31844
-3.31879
-3.31884
-3.31851
-3.31778
-3.31664
-3.31512
-3.31325
-3.31106
-3.30862
-3.30597
-3.30318
-3.30031
-3.29744
-3.29461
-3.29191
-3.28935
-3.44517
-3.44216
-3.43984
-3.43874
-3.43858
-3.43884
-3.43918
-3.43945
-3.43951
-3.43931
-3.43881
-3.43798
-3.43683
-3.43538
-3.43365
-3.43167
-3.42949
-3.42717
-3.42474
-3.42226
-3.41978
-3.41739
-3.41509
-3.56634
-3.56365
-3.56146
-3.56048
-3.56036
-3.56055
-3.56078
-3.56096
-3.56101
-3.56087
-3.5605
-3.55987
-3.55898
-3.55783
-3.55644
-3.55482
-3.55302
-3.55106
-3.54898
-3.54684
-3.54467
-3.54255
-3.54049
-3.68805
-3.68561
-3.68365
-3.68275
-3.68285
-3.68303
-3.68314
-3.68321
-3.68321
-3.68307
-3.68276
-3.68225
-3.68153
-3.68059
-3.67944
-3.67809
-3.67656
-3.67489
-3.6731
-3.67124
-3.66933
-3.66745
-3.6656
-3.81164
-3.80942
-3.80765
-3.80656
-3.80644
-3.80632
-3.80618
-3.80608
-3.80597
-3.80579
-3.80549
-3.80503
-3.80441
-3.80361
-3.80262
-3.80147
-3.80015
-3.79871
-3.79715
-3.79552
-3.79384
-3.79217
-3.79052
-3.93699
-3.9349
-3.9332
-3.932
-3.93096
-3.93021
-3.92973
-3.92942
-3.92918
-3.92891
-3.92858
-3.92815
-3.92758
-3.92686
-3.92599
-3.92497
-3.92382
-3.92255
-3.92118
-3.91974
-3.91825
-3.91677
-3.91531
-4.06181
-4.06023
-4.0586
-4.05707
-4.05541
-4.05426
-4.05354
-4.05305
-4.05268
-4.05233
-4.05196
-4.05151
-4.05097
-4.0503
-4.04951
-4.0486
-4.04757
-4.04645
-4.04524
-4.04396
-4.04265
-4.04134
-4.04004
-4.1853
-4.18422
-4.18267
-4.18093
-4.17937
-4.17821
-4.1774
-4.17682
-4.17637
-4.17596
-4.17554
-4.17508
-4.17454
-4.17391
-4.17318
-4.17235
-4.17143
-4.17043
-4.16935
-4.16822
-4.16706
-4.16591
-4.16476
-4.30838
-4.30721
-4.30578
-4.30435
-4.30308
-4.30205
-4.30128
-4.30067
-4.30018
-4.29973
-4.29929
-4.29881
-4.29827
-4.29767
-4.29698
-4.29623
-4.2954
-4.2945
-4.29355
-4.29256
-4.29154
-4.29053
-4.28953
-4.43158
-4.43039
-4.42905
-4.42783
-4.42677
-4.42589
-4.42518
-4.42459
-4.42409
-4.42362
-4.42315
-4.42266
-4.42213
-4.42155
-4.42091
-4.42022
-4.41947
-4.41868
-4.41784
-4.41697
-4.41609
-4.41522
-4.41436
-4.55494
-4.55376
-4.55252
-4.55144
-4.55055
-4.54979
-4.54914
-4.54858
-4.54808
-4.5476
-4.54712
-4.54663
-4.54611
-4.54555
-4.54495
-4.54432
-4.54366
-4.54296
-4.54224
-4.54149
-4.54073
-4.53999
-4.53926
-4.67846
-4.67731
-4.67615
-4.6752
-4.67442
-4.67376
-4.67317
-4.67264
-4.67215
-4.67167
-4.67119
-4.6707
-4.67019
-4.66965
-4.6691
-4.66852
-4.66794
-4.66734
-4.66673
-4.6661
-4.66546
-4.66485
-4.66424
-4.80209
-4.80101
-4.79994
-4.79908
-4.7984
-4.79781
-4.79728
-4.79678
-4.7963
-4.79583
-4.79535
-4.79486
-4.79436
-4.79384
-4.79333
-4.79281
-4.79231
-4.79181
-4.79131
-4.7908
-4.79028
-4.78978
-4.78929
-4.92581
-4.92481
-4.92384
-4.92308
-4.92247
-4.92194
-4.92146
-4.92099
-4.92053
-4.92007
-4.9196
-4.91911
-4.91861
-4.91811
-4.91762
-4.91716
-4.91674
-4.91636
-4.91597
-4.91559
-4.91519
-4.9148
-4.91441
-5.04958
-5.04869
-5.04781
-5.04714
-5.04661
-5.04614
-5.0457
-5.04527
-5.04484
-5.04439
-5.04392
-5.04344
-5.04294
-5.04244
-5.04197
-5.04155
-5.04123
-5.04097
-5.04072
-5.04045
-5.04017
-5.03989
-5.0396
-5.17338
-5.17258
-5.17181
-5.17123
-5.17078
-5.17038
-5.17
-5.16961
-5.16921
-5.16878
-5.16832
-5.16783
-5.16732
-5.16682
-5.16634
-5.16595
-5.16574
-5.16564
-5.16554
-5.16541
-5.16524
-5.16505
-5.16485
-5.29715
-5.29646
-5.2958
-5.29533
-5.29498
-5.29466
-5.29434
-5.294
-5.29363
-5.29323
-5.29277
-5.29228
-5.29175
-5.2912
-5.29068
-5.29027
-5.29023
-5.29038
-5.29046
-5.29045
-5.29039
-5.29028
-5.29015
-5.42085
-5.42027
-5.41975
-5.41943
-5.4192
-5.41898
-5.41874
-5.41845
-5.41812
-5.41773
-5.41727
-5.41675
-5.41615
-5.4155
-5.41481
-5.41417
-5.41449
-5.41516
-5.4155
-5.41561
-5.41563
-5.41559
-5.41551
-5.54443
-5.54403
-5.54371
-5.5436
-5.54352
-5.5434
-5.54323
-5.543
-5.54268
-5.54229
-5.5418
-5.54121
-5.54049
-5.53962
-5.53854
-5.53707
-5.53803
-5.53993
-5.5407
-5.54091
-5.54096
-5.54095
-5.54091
-5.66806
-5.66778
-5.66766
-5.66768
-5.66769
-5.66765
-5.66755
-5.66739
-5.66716
-5.66687
-5.66648
-5.666
-5.66539
-5.66455
-5.66319
-5.66129
-5.66163
-5.66484
-5.66595
-5.66627
-5.66637
-5.6664
-5.66641
185.337
182.799
181.113
180.456
63.7904
61.9348
60.5738
60.0549
7.48514
6.78488
6.38806
6.19234
2.36089
2.11474
1.89274
1.71577
1.3403
1.18171
1.05391
0.980072
-0.0234037
-0.129814
-0.167344
-0.122252
-1.04038
-1.05806
-1.04391
-1.01428
-1.26982
-1.26891
-1.27455
-1.28347
-1.42365
-1.4182
-1.41653
-1.41724
-1.57
-1.56704
-1.56569
-1.56527
-1.71213
-1.7103
-1.70924
-1.70883
-1.85255
-1.85083
-1.84954
-1.84864
-1.99147
-1.98915
-1.98726
-1.98577
-2.12822
-2.12523
-2.12274
-2.12073
-2.26185
-2.25885
-2.25603
-2.25372
-2.39297
-2.39015
-2.38734
-2.38495
-2.52245
-2.51988
-2.51722
-2.51486
-2.65119
-2.64874
-2.64616
-2.64386
-2.7793
-2.77694
-2.77443
-2.77217
-2.90689
-2.90463
-2.90218
-2.89998
-3.03404
-3.03188
-3.02951
-3.02737
-3.16077
-3.15872
-3.15645
-3.15439
-3.28708
-3.28516
-3.28301
-3.28106
-3.413
-3.41122
-3.40922
-3.40739
-3.53858
-3.53694
-3.53509
-3.53341
-3.66387
-3.66237
-3.66069
-3.65915
-3.78894
-3.78758
-3.78605
-3.78468
-3.91388
-3.91264
-3.91127
-3.91005
-4.03875
-4.03763
-4.0364
-4.03532
-4.16361
-4.16261
-4.16151
-4.16055
-4.28851
-4.28761
-4.28663
-4.28579
-4.41346
-4.41266
-4.41179
-4.41106
-4.53848
-4.53778
-4.53701
-4.53637
-4.66357
-4.66296
-4.66229
-4.66173
-4.78873
-4.7882
-4.78763
-4.78715
-4.91395
-4.91351
-4.91302
-4.91262
-5.03923
-5.03887
-5.03847
-5.03813
-5.16457
-5.16428
-5.16396
-5.16369
-5.28995
-5.28974
-5.28949
-5.28928
-5.41538
-5.41523
-5.41505
-5.4149
-5.54083
-5.54073
-5.54062
-5.54053
-5.66639
-5.66636
-5.66633
-5.66629
180
178.455
179.012
181.225
185.269
191.037
196.204
198.511
205.653
213.377
218.974
224.521
231.96
238.619
241.834
241.08
240.827
242.83
247.076
60.4761
61.4034
63.0993
65.6961
70.727
80.8015
94.4858
103.007
106.984
110.789
113.835
116.331
118.912
121.918
124.312
125.578
126.917
129.153
133.851
6.22123
6.65621
7.38616
8.37999
10.1887
15.1529
23.8803
31.1448
33.5328
34.5419
34.5285
34.3872
34.7006
35.4162
36.1063
36.5155
37.2678
40.084
43.9193
1.52941
1.53283
1.61239
1.68841
1.70855
1.39447
0.662078
0.215986
0.622631
0.52076
-0.120089
-0.31911
0.0121396
0.436723
0.654777
0.715581
0.876895
1.68918
2.7268
0.909631
0.850679
0.832174
0.799007
0.718525
0.549419
0.313882
0.110925
-0.212854
-0.510315
-0.629713
-0.689159
-0.804494
-0.930897
-0.98334
-0.969747
-0.934841
-0.930185
-0.936596
-0.101381
-0.131905
-0.172261
-0.210827
-0.277741
-0.387366
-0.514836
-0.611831
-0.740724
-0.869781
-0.949528
-0.987784
-1.01608
-1.04755
-1.07807
-1.0897
-1.08842
-1.0827
-1.07166
-0.98392
-0.976271
-0.999251
-1.02422
-1.0535
-1.09835
-1.15926
-1.1926
-1.18689
-1.18795
-1.19147
-1.19252
-1.1846
-1.1948
-1.21013
-1.21341
-1.21017
-1.20543
-1.20196
-1.29087
-1.29155
-1.29821
-1.30991
-1.31743
-1.32053
-1.31724
-1.31681
-1.32133
-1.32536
-1.32756
-1.33065
-1.33747
-1.34384
-1.34331
-1.34065
-1.33666
-1.33533
-1.33917
-1.4207
-1.42462
-1.42949
-1.4349
-1.43956
-1.44366
-1.44749
-1.45133
-1.45469
-1.4576
-1.45912
-1.46261
-1.4688
-1.47024
-1.46907
-1.46875
-1.47001
-1.47397
-1.4808
-1.56532
-1.56796
-1.57172
-1.57565
-1.58017
-1.58454
-1.58736
-1.58905
-1.58993
-1.58923
-1.58833
-1.58937
-1.59349
-1.59702
-1.59926
-1.60194
-1.60708
-1.61225
-1.61482
-1.7087
-1.70973
-1.7114
-1.71416
-1.71799
-1.72176
-1.72418
-1.72482
-1.72315
-1.72139
-1.72125
-1.7223
-1.72668
-1.73126
-1.73537
-1.7376
-1.73785
-1.73807
-1.73832
-1.84747
-1.84603
-1.84539
-1.8467
-1.84917
-1.85194
-1.8546
-1.85538
-1.85397
-1.85427
-1.85784
-1.86161
-1.86441
-1.86667
-1.86797
-1.86606
-1.86179
-1.86083
-1.86326
-1.98358
-1.98077
-1.97933
-1.97914
-1.98003
-1.9819
-1.98362
-1.98475
-1.98538
-1.987
-1.9907
-1.99502
-1.9972
-1.99751
-1.9951
-1.99237
-1.99001
-1.99004
-1.99267
-2.11813
-2.11562
-2.11341
-2.11196
-2.11141
-2.11203
-2.11322
-2.11481
-2.11612
-2.11743
-2.11909
-2.12136
-2.12331
-2.12344
-2.12214
-2.12203
-2.12335
-2.12443
-2.12522
-2.25078
-2.24847
-2.24643
-2.24451
-2.24313
-2.24253
-2.24281
-2.2436
-2.24461
-2.24542
-2.24644
-2.24793
-2.2492
-2.24977
-2.25011
-2.25182
-2.25515
-2.25781
-2.25814
-2.38186
-2.37925
-2.3775
-2.37586
-2.37432
-2.37301
-2.37223
-2.37222
-2.3726
-2.37315
-2.37398
-2.37514
-2.37625
-2.37715
-2.37822
-2.38026
-2.38335
-2.38652
-2.38763
-2.5118
-2.50905
-2.50697
-2.50545
-2.50403
-2.50239
-2.50121
-2.50077
-2.50079
-2.50111
-2.50174
-2.50268
-2.50373
-2.5048
-2.5061
-2.508
-2.51039
-2.51247
-2.51282
-2.64087
-2.63809
-2.63584
-2.63399
-2.63237
-2.63086
-2.62974
-2.62916
-2.62902
-2.62918
-2.62963
-2.63038
-2.63134
-2.63243
-2.63373
-2.63535
-2.63707
-2.6384
-2.63807
-2.76928
-2.76654
-2.76422
-2.76225
-2.76055
-2.7591
-2.75802
-2.75738
-2.75714
-2.75721
-2.75755
-2.75816
-2.759
-2.76002
-2.76122
-2.76258
-2.76392
-2.76502
-2.76454
-2.89718
-2.89451
-2.89221
-2.89022
-2.88853
-2.88713
-2.88607
-2.8854
-2.88509
-2.8851
-2.88538
-2.88589
-2.8866
-2.8875
-2.88856
-2.88972
-2.89082
-2.89182
-2.89134
-3.02467
-3.0221
-3.01986
-3.01792
-3.01627
-3.01492
-3.01389
-3.0132
-3.01284
-3.01279
-3.01301
-3.01343
-3.01404
-3.01482
-3.01573
-3.0167
-3.01759
-3.01829
-3.01775
-3.1518
-3.14935
-3.14722
-3.14535
-3.14376
-3.14247
-3.14147
-3.14078
-3.14039
-3.14028
-3.14042
-3.14077
-3.14129
-3.14195
-3.14271
-3.14349
-3.14414
-3.14445
-3.14381
-3.27861
-3.27631
-3.27429
-3.27251
-3.27101
-3.26977
-3.26881
-3.26814
-3.26773
-3.26758
-3.26765
-3.26791
-3.26834
-3.26888
-3.26949
-3.27008
-3.2705
-3.27044
-3.26958
-3.40511
-3.40297
-3.40109
-3.39943
-3.39801
-3.39685
-3.39593
-3.39527
-3.39486
-3.39467
-3.39468
-3.39487
-3.39519
-3.39561
-3.39607
-3.3965
-3.39672
-3.39636
-3.39522
-3.53132
-3.52937
-3.52764
-3.5261
-3.52479
-3.5237
-3.52284
-3.5222
-3.52178
-3.52157
-3.52153
-3.52165
-3.52187
-3.52217
-3.52248
-3.52274
-3.52281
-3.52223
-3.52103
-3.65727
-3.65552
-3.65396
-3.65255
-3.65135
-3.65034
-3.64954
-3.64894
-3.64853
-3.6483
-3.64822
-3.64826
-3.64839
-3.64856
-3.64871
-3.64879
-3.64864
-3.64784
-3.64675
-3.78301
-3.78147
-3.78007
-3.77881
-3.77772
-3.77681
-3.77607
-3.77552
-3.77512
-3.77488
-3.77476
-3.77474
-3.77478
-3.77481
-3.77478
-3.77462
-3.77411
-3.77287
-3.77141
-3.90859
-3.90724
-3.90602
-3.9049
-3.90393
-3.90312
-3.90246
-3.90195
-3.90158
-3.90134
-3.9012
-3.90112
-3.90107
-3.90097
-3.90076
-3.9003
-3.89935
-3.89757
-3.89547
-4.03405
-4.0329
-4.03184
-4.03086
-4.03001
-4.0293
-4.02872
-4.02827
-4.02793
-4.0277
-4.02754
-4.02743
-4.02731
-4.02711
-4.02673
-4.02601
-4.02467
-4.02246
-4.01993
-4.15946
-4.15849
-4.15758
-4.15674
-4.15601
-4.15539
-4.15489
-4.15449
-4.1542
-4.15399
-4.15383
-4.1537
-4.15353
-4.15326
-4.15278
-4.15191
-4.15035
-4.14796
-4.14523
-4.28485
-4.28404
-4.28327
-4.28255
-4.28193
-4.28141
-4.28098
-4.28065
-4.2804
-4.28022
-4.28008
-4.27994
-4.27976
-4.27946
-4.27895
-4.27804
-4.27646
-4.27409
-4.27155
-4.41026
-4.40958
-4.40894
-4.40834
-4.40781
-4.40738
-4.40703
-4.40676
-4.40655
-4.40641
-4.40629
-4.40617
-4.406
-4.40572
-4.40522
-4.40437
-4.4029
-4.40062
-4.39816
-4.53569
-4.53513
-4.5346
-4.5341
-4.53367
-4.53332
-4.53303
-4.53282
-4.53266
-4.53256
-4.53247
-4.53238
-4.53224
-4.53199
-4.53155
-4.53081
-4.52951
-4.52739
-4.52497
-4.66116
-4.66071
-4.66027
-4.65986
-4.65952
-4.65923
-4.65901
-4.65885
-4.65874
-4.65867
-4.65862
-4.65857
-4.65847
-4.65827
-4.65789
-4.65725
-4.65611
-4.65415
-4.65199
-4.78667
-4.78631
-4.78596
-4.78563
-4.78535
-4.78512
-4.78495
-4.78484
-4.78477
-4.78474
-4.78473
-4.78471
-4.78466
-4.78451
-4.78419
-4.78361
-4.78253
-4.78059
-4.7785
-4.91222
-4.91194
-4.91166
-4.91139
-4.91117
-4.911
-4.91087
-4.9108
-4.91076
-4.91076
-4.91079
-4.91081
-4.9108
-4.9107
-4.91044
-4.90988
-4.90878
-4.90676
-4.90454
-5.03781
-5.03759
-5.03737
-5.03716
-5.03699
-5.03686
-5.03677
-5.03672
-5.03671
-5.03674
-5.03679
-5.03686
-5.0369
-5.03686
-5.03664
-5.03611
-5.03503
-5.03308
-5.0309
-5.16344
-5.16327
-5.1631
-5.16294
-5.1628
-5.1627
-5.16264
-5.16261
-5.16262
-5.16266
-5.16274
-5.16285
-5.16295
-5.16299
-5.16283
-5.16234
-5.16133
-5.15952
-5.15751
-5.28909
-5.28896
-5.28883
-5.2887
-5.2886
-5.28853
-5.28848
-5.28846
-5.28848
-5.28853
-5.28863
-5.28877
-5.28894
-5.2891
-5.28904
-5.28857
-5.28768
-5.28608
-5.28429
-5.41475
-5.41465
-5.41456
-5.41446
-5.41439
-5.41433
-5.41429
-5.41428
-5.41429
-5.41434
-5.41443
-5.41458
-5.41486
-5.41528
-5.41544
-5.41488
-5.41407
-5.41273
-5.41121
-5.54043
-5.54036
-5.54029
-5.54022
-5.54016
-5.54011
-5.54008
-5.54006
-5.54006
-5.54008
-5.54014
-5.5403
-5.54074
-5.5418
-5.54229
-5.54134
-5.54053
-5.53946
-5.53828
-5.66627
-5.66624
-5.6662
-5.66617
-5.66614
-5.66611
-5.66609
-5.66606
-5.66604
-5.66603
-5.66606
-5.66618
-5.66672
-5.66848
-5.66841
-5.6674
-5.66714
-5.6665
-5.6655
)
;

boundaryField
{
    leftWall
    {
        type            calculated;
        value           nonuniform List<scalar> 
50
(
795.102
736.562
678.118
619.754
561.425
503.081
444.672
386.154
294.451
168.749
58.5959
7.07758
1.4714
0.393374
-0.571803
-1.19668
-1.4695
-1.66549
-1.8374
-1.99282
-2.13239
-2.25913
-2.37858
-2.49534
-2.61174
-2.72867
-2.84641
-2.96498
-3.08427
-3.20411
-3.32443
-3.44517
-3.56634
-3.68805
-3.81164
-3.93699
-4.06181
-4.1853
-4.30838
-4.43158
-4.55494
-4.67846
-4.80209
-4.92581
-5.04958
-5.17338
-5.29715
-5.42085
-5.54443
-5.66806
)
;
    }
    rightWall
    {
        type            calculated;
        value           nonuniform List<scalar> 
50
(
739.919
681.568
622.873
564.233
505.951
448.206
391.097
334.636
247.076
133.851
43.9193
2.7268
-0.936596
-1.07166
-1.20196
-1.33917
-1.4808
-1.61482
-1.73832
-1.86326
-1.99267
-2.12522
-2.25814
-2.38763
-2.51282
-2.63807
-2.76454
-2.89134
-3.01775
-3.14381
-3.26958
-3.39522
-3.52103
-3.64675
-3.77141
-3.89547
-4.01993
-4.14523
-4.27155
-4.39816
-4.52497
-4.65199
-4.7785
-4.90454
-5.0309
-5.15751
-5.28429
-5.41121
-5.53828
-5.6655
)
;
    }
    lowerWall
    {
        type            calculated;
        value           nonuniform List<scalar> 
62
(
824.532
823.11
821.481
819.749
818.029
816.321
814.566
812.672
810.535
808.043
805.085
801.564
797.388
792.476
786.754
780.06
772.129
763.719
756.074
749.03
742.008
736.928
734.821
705.53
646.354
586.431
525.987
465.358
404.593
343.419
280.471
247.498
244.773
243.233
242.763
684.663
628.473
571.949
515.165
458.153
400.499
341.41
280.646
712.523
716.709
720.895
722.704
722.476
721.537
720.77
720.698
721.87
725.528
732.64
738.022
742.616
745.695
747.075
752.958
761.494
767.433
768.603
)
;
    }
    atmosphere
    {
        type            calculated;
        value           nonuniform List<scalar> 
46
(
-5.72904
-5.72904
-5.72904
-5.72904
-5.72904
-5.72904
-5.72904
-5.72904
-5.72904
-5.72904
-5.72904
-5.72904
-5.72904
-5.72904
-5.72904
-5.72904
-5.72904
-5.72905
-5.72908
-5.72912
-5.72915
-5.72919
-5.72923
-5.72925
-5.72926
-5.72927
-5.72928
-5.72929
-5.72929
-5.7293
-5.72929
-5.72928
-5.72926
-5.72924
-5.72921
-5.72918
-5.72914
-5.72911
-5.72908
-5.72905
-5.72904
-5.72904
-5.72952
-5.73083
-5.73083
-5.72958
)
;
    }
    defaultFaces
    {
        type            empty;
    }
}


// ************************************************************************* //
