/*--------------------------------*- C++ -*----------------------------------*\
| =========                 |                                                 |
| \\      /  F ield         | OpenFOAM: The Open Source CFD Toolbox           |
|  \\    /   O peration     | Version:  2.3.0                                 |
|   \\  /    A nd           | Web:      www.OpenFOAM.org                      |
|    \\/     M anipulation  |                                                 |
\*---------------------------------------------------------------------------*/
FoamFile
{
    version     2.0;
    format      ascii;
    class       volScalarField;
    location    "2.7";
    object      p_rgh;
}
// * * * * * * * * * * * * * * * * * * * * * * * * * * * * * * * * * * * * * //

dimensions      [1 -1 -2 0 0 0 0];

internalField   nonuniform List<scalar> 
2268
(
824.532
823.11
821.481
819.749
818.029
816.321
814.566
812.672
810.535
808.043
805.085
801.564
797.388
792.476
786.754
780.06
772.129
763.719
756.074
749.03
742.008
736.928
734.821
824.85
823.535
821.988
820.322
818.624
816.906
815.117
813.172
810.968
808.394
805.335
801.683
797.329
792.189
786.198
779.206
770.431
762.37
754.172
746.859
740.401
736.026
734.462
825.265
824.016
822.554
820.994
819.352
817.647
815.841
813.854
811.587
808.926
805.752
801.946
797.394
792
785.734
778.563
769.523
760.852
752.484
744.295
737.512
735.008
733.577
825.76
824.459
822.994
821.528
819.961
818.305
816.522
814.54
812.258
809.558
806.312
802.399
797.688
792.104
785.638
778.503
770.866
760.841
751.53
744.52
738.943
733.629
731.991
826.29
824.852
823.297
821.89
820.41
818.833
817.116
815.191
812.95
810.267
807.002
803.029
798.218
792.495
785.869
778.52
770.907
762.916
754.424
745.929
738.404
732.369
730.221
826.804
825.183
823.488
822.122
820.739
819.269
817.658
815.837
813.689
811.074
807.84
803.853
798.977
793.14
786.351
778.761
770.73
762.29
753.559
745.118
737.806
731.374
728.314
827.254
825.426
823.58
822.259
820.991
819.651
818.177
816.498
814.486
811.984
808.821
804.856
799.936
793.992
787.023
779.15
770.683
761.793
752.773
744.358
737.478
731.005
725.997
827.595
825.577
823.621
822.363
821.232
820.027
818.686
817.154
815.289
812.912
809.83
805.901
800.936
794.887
787.737
779.591
770.731
761.434
752.106
743.616
737.078
730.722
721.908
712.523
716.709
720.895
722.704
722.476
721.537
720.77
720.698
721.87
725.528
732.64
738.022
742.616
745.695
747.075
752.958
761.494
767.433
768.603
712.055
718.182
720.871
721.813
721.669
721.019
720.829
722.875
723.247
728.012
735.367
739.066
744.217
747.28
748.356
753.558
761.048
767.074
768.934
711.44
718.496
719.669
720.082
719.919
719.732
720.353
723.55
729.612
726.461
736.453
740.402
743.697
738.622
744.151
752.898
760.439
766.081
769.154
710.47
717.955
719.294
718.897
718.614
718.769
720.06
724.208
730.494
723.851
729.706
735.515
729.97
735.183
734.917
749.408
760.679
765.416
769.012
709.297
718.253
719.108
718.387
718.229
717.166
719.511
724.756
720.392
721.961
724.074
728.151
728.857
733.912
733.949
746.803
761.576
765.216
769.115
711.896
719.887
718.455
717.635
717.764
716.937
716.708
725.029
720.255
720.648
725.311
745.753
727.79
732.329
732.754
744.059
762.99
765.689
769.867
723.16
719.385
717.084
716.708
717.447
719.189
706.226
723.603
733.684
719.031
739.612
752.744
740.796
730.619
731.421
748.062
764.79
766.959
771.414
721.148
716.433
715.055
715.637
717.444
720.105
680.401
722.137
733.551
743.128
748.799
753.566
762.963
743.46
735.759
761.431
766.594
768.857
773.453
827.918
825.604
823.568
822.447
821.569
820.568
819.41
818.096
816.47
814.291
811.321
807.432
802.447
796.293
788.955
780.516
771.209
761.354
751.372
742.205
735.096
729.156
722.437
827.411
823.993
821.739
821.005
820.714
820.286
819.704
819.145
818.344
816.872
814.37
810.987
806.31
800.388
793.107
783.721
767.987
742.743
704.594
658.213
619.284
594.778
580.282
629.331
595.025
574.914
568.409
569.279
573.912
581.929
597.494
613.205
622.384
625.429
619.275
600.985
572.991
532.44
466.763
377.402
291.777
219.654
169.07
137.358
109.983
81.3159
78.448
59.7902
48.8595
44.4439
47.0943
53.5732
57.8428
57.7524
54.0354
56.7328
57.6803
56.9042
53.7652
44.3208
22.4286
5.60221
5.39339
5.19908
5.31859
5.87203
6.64537
7.56147
6.87784
11.5156
9.72317
6.05915
5.42268
6.84238
12.2788
20.3505
22.5581
21.8404
21.8599
21.9764
21.0785
16.6157
8.3106
5.68147
5.60209
5.38601
5.18679
5.1343
5.577
10.5211
16.1473
13.7832
11.629
10.8677
5.08228
4.01672
4.74979
20.8737
26.871
27.4079
27.4912
27.307
27.0253
26.5129
15.5491
5.6645
5.63099
6.33758
6.41866
4.94622
4.67226
10.5275
17.1814
17.0954
16.6289
8.17152
7.14236
5.79857
3.21654
2.71822
7.51601
21.483
27.9802
25.3018
20.7209
21.9978
17.0823
7.66355
5.50824
8.38958
11.5736
11.4522
6.1838
3.7671
8.15343
17.6165
11.9369
2.25009
1.36987
1.1549
3.19578
2.27673
0.833725
2.69849
4.15255
1.21216
0.176313
0.156122
0.169462
0.252265
7.27696
11.0592
11.5597
11.8386
11.5771
10.4907
2.50318
1.71181
0.0530823
0.0957367
0.130748
0.284672
0.111628
0.139746
0.340868
0.52923
1.05442
3.58133
0.240561
0.205277
0.186149
0.180266
0.183679
0.153114
0.344125
3.66317
6.20478
3.10293
0.0521174
0.248698
0.0561813
0.0692285
0.0806649
0.0997945
0.103225
-0.00405915
-0.0339295
0.012537
0.691028
3.11066
3.59186
2.07217
0.458819
0.28185
0.167509
0.161088
0.149572
0.139273
0.0626367
0.0198959
0.0178846
0.0341139
0.0465269
0.0835942
0.113423
0.0824482
0.08387
-0.00346631
-0.0638167
-0.092142
-0.0879695
0.69758
3.44004
3.61374
3.2665
3.01932
2.01091
0.357656
0.181102
0.134593
0.620856
0.85568
0.76282
0.233832
0.0380487
0.0337562
0.0688423
0.160186
0.161464
0.0699809
-0.0630014
-0.0998526
-0.121005
-0.12051
0.439833
1.51566
0.838431
0.00139267
-0.0240925
0.734112
1.34392
1.36411
0.264233
0.256188
0.892577
0.891436
0.866259
0.0951635
0.0164293
0.0626933
0.153626
0.163418
0.13619
-0.0892213
-0.112386
-0.12801
-0.141103
-0.0273923
-0.178625
-0.174855
-0.154306
-0.135339
-0.121123
-0.0816563
-0.0543377
0.0301845
-0.0182354
0.136433
0.349617
-0.00243277
-0.013793
0.00293774
0.0144613
0.0937563
0.156193
0.164026
-0.0955781
-0.108074
-0.118468
-0.132475
-0.146896
-0.154741
-0.149614
-0.137574
-0.124024
-0.111353
-0.0990098
-0.0867337
-0.075248
-0.0666681
-0.0606466
-0.0515502
-0.0353174
-0.0181393
-0.00419264
0.00599908
0.0135092
0.0548857
0.149905
-0.091613
-0.0960946
-0.102438
-0.112045
-0.121982
-0.127392
-0.125534
-0.118829
-0.109956
-0.100419
-0.0904234
-0.0804053
-0.07082
-0.062581
-0.0548014
-0.0450836
-0.0325282
-0.0194431
-0.00816548
0.000887377
0.00816691
0.0141437
0.0201438
-0.0837279
-0.0829182
-0.0863883
-0.0930974
-0.100363
-0.104887
-0.104944
-0.101485
-0.0958827
-0.0890325
-0.0813414
-0.0732346
-0.0650835
-0.0573069
-0.0494437
-0.0404619
-0.0302035
-0.0198419
-0.0105403
-0.00262004
0.00405697
0.00975216
0.0147309
-0.0750865
-0.071185
-0.0724536
-0.0770806
-0.0825191
-0.0864399
-0.0876114
-0.0861499
-0.0827269
-0.0779123
-0.0720959
-0.0656311
-0.0588084
-0.0518542
-0.0446154
-0.0367265
-0.0282282
-0.0197687
-0.011963
-0.00505679
0.000955072
0.00633418
0.0112772
-0.0668554
-0.0615121
-0.0611175
-0.0640799
-0.0681204
-0.0714514
-0.0730662
-0.0727683
-0.0708006
-0.0674982
-0.0631657
-0.0580849
-0.0524862
-0.0465313
-0.0402195
-0.0334755
-0.0264084
-0.0193926
-0.012789
-0.00678348
-0.00142657
0.00331798
0.00776238
-0.0594121
-0.0537601
-0.0522377
-0.0538418
-0.0566933
-0.0593573
-0.060984
-0.061264
-0.0602225
-0.0580214
-0.05486
-0.0509436
-0.0464524
-0.0415211
-0.0362114
-0.030562
-0.0246957
-0.0188476
-0.0132482
-0.00803959
-0.00329278
0.000925988
0.0046684
-0.0527094
-0.0474723
-0.0453068
-0.0458368
-0.0476606
-0.0496264
-0.051024
-0.0515207
-0.0510329
-0.0496077
-0.0473526
-0.0444003
-0.0408822
-0.0369086
-0.0325578
-0.0279037
-0.0230602
-0.0181884
-0.0134455
-0.0089418
-0.00475208
-0.000964594
0.00245343
-0.0467508
-0.0421648
-0.0397157
-0.0394601
-0.0404497
-0.0417748
-0.0428513
-0.0433659
-0.0431867
-0.0422906
-0.040717
-0.0385392
-0.0358432
-0.0327114
-0.0292169
-0.0254345
-0.0214604
-0.0174117
-0.0134016
-0.00951748
-0.00583161
-0.00243905
0.000675427
-0.041393
-0.0374
-0.0349575
-0.0342043
-0.034585
-0.0353956
-0.0361599
-0.0366038
-0.0365824
-0.0360352
-0.0349571
-0.0333778
-0.0313458
-0.0289163
-0.026147
-0.0231009
-0.0198544
-0.0164952
-0.0131083
-0.0097645
-0.00653121
-0.00350295
-0.000673818
-0.0365052
-0.0330654
-0.0307299
-0.0297187
-0.0297225
-0.0301765
-0.0306923
-0.0310423
-0.0310909
-0.0307636
-0.0300309
-0.0288935
-0.0273724
-0.0254998
-0.0233161
-0.0208697
-0.0182184
-0.0154285
-0.0125661
-0.00968898
-0.00685837
-0.00416417
-0.00160594
-0.0321321
-0.0291652
-0.0268855
-0.0257942
-0.0256372
-0.0258928
-0.0262386
-0.0265014
-0.0265691
-0.0263696
-0.0258634
-0.0250351
-0.0238874
-0.0224355
-0.0207049
-0.0187299
-0.0165533
-0.0142254
-0.0117981
-0.00931916
-0.00684282
-0.00445211
-0.00214918
-0.0281968
-0.0255106
-0.0233183
-0.022343
-0.0222218
-0.0224084
-0.0226417
-0.022822
-0.022873
-0.0227331
-0.0223614
-0.021735
-0.0208459
-0.0196974
-0.0183036
-0.0166875
-0.0148803
-0.0129204
-0.0108485
-0.00870443
-0.00653537
-0.00441649
-0.00235082
-0.017241
-0.0151821
0.00449087
-0.0170224
-0.0195177
-0.0196964
-0.0198058
-0.0198774
-0.0198717
-0.0197349
-0.0194262
-0.0189187
-0.0181975
-0.0172577
-0.0161053
-0.0147551
-0.0132295
-0.0115579
-0.00977278
-0.00790689
-0.00600111
-0.00412268
-0.00227449
0.0659021
0.0743059
0.078192
0.07048
-0.00315812
-0.0177839
-0.0176542
-0.0175549
-0.0174435
-0.0172602
-0.0169592
-0.0165083
-0.0158866
-0.0150834
-0.014099
-0.012942
-0.0116288
-0.0101818
-0.00862721
-0.00699188
-0.00531096
-0.00364438
-0.0019944
0.0771497
0.0793492
0.0810507
0.0822543
-0.00141045
-0.0164676
-0.0160119
-0.0157028
-0.015454
-0.0151923
-0.0148625
-0.0144256
-0.0138555
-0.0131377
-0.0122683
-0.0112519
-0.0101
-0.00883011
-0.00746312
-0.00602108
-0.00453413
-0.00305565
-0.00158707
0.00811525
0.0740645
0.0656894
0.0123164
-0.0121042
-0.0153372
-0.0146206
-0.0141354
-0.0137624
-0.013419
-0.0130455
-0.0125991
-0.0120515
-0.0113863
-0.010597
-0.00968556
-0.00866013
-0.00753404
-0.00632407
-0.0050481
-0.00373195
-0.0024232
-0.0011223
-0.0211152
-0.0108334
-0.0133706
-0.0167446
-0.0152306
-0.0140594
-0.0132835
-0.0127124
-0.0122573
-0.0118503
-0.0114353
-0.0109719
-0.0104328
-0.00980174
-0.00907181
-0.00824339
-0.007322
-0.00631787
-0.00524423
-0.00411538
-0.00295336
-0.00180051
-0.000656097
-0.0190768
-0.0178783
-0.0164555
-0.0150443
-0.0137715
-0.0127427
-0.0119683
-0.0113702
-0.0108759
-0.0104284
-0.00998219
-0.00950321
-0.00896818
-0.00836308
-0.00768173
-0.00692387
-0.0060933
-0.00519766
-0.00424707
-0.00325264
-0.00223291
-0.00122535
-0.000227867
-0.0170836
-0.0158875
-0.0145557
-0.0133352
-0.012276
-0.0113972
-0.0106832
-0.0100959
-0.00958889
-0.00911973
-0.00865368
-0.00816459
-0.00763461
-0.00705313
-0.00641568
-0.00572221
-0.00497547
-0.00418087
-0.0033455
-0.00247733
-0.0015915
-0.000720721
0.000138571
-0.0152526
-0.0140701
-0.0128233
-0.0117503
-0.0108537
-0.0100946
-0.00944875
-0.00888909
-0.0083851
-0.00790725
-0.00743091
-0.00693767
-0.00641543
-0.0058576
-0.00526222
-0.00463031
-0.00396441
-0.00326767
-0.00254364
-0.00179684
-0.00103886
-0.000297669
0.00043174
-0.0135712
-0.0124259
-0.0112652
-0.0103107
-0.00953467
-0.00886953
-0.0082836
-0.00775505
-0.00726198
-0.00678394
-0.00630435
-0.00581159
-0.00529906
-0.00476456
-0.00420957
-0.00363744
-0.00305177
-0.00245291
-0.00183938
-0.00121148
-0.000576912
4.10664e-05
0.000648669
-0.0120095
-0.0109281
-0.00985823
-0.00900327
-0.00831972
-0.00772872
-0.00719463
-0.00669735
-0.00621973
-0.00574723
-0.00526915
-0.00477938
-0.00427633
-0.00376254
-0.00324425
-0.00272935
-0.00222521
-0.00172767
-0.00122688
-0.000717484
-0.000203046
0.000297623
0.000791372
-0.0105346
-0.00953812
-0.00856494
-0.00780006
-0.00719413
-0.00666653
-0.0061801
-0.00571512
-0.00525683
-0.00479422
-0.00432058
-0.00383391
-0.00333702
-0.00283761
-0.00234859
-0.00188609
-0.0014675
-0.00108025
-0.000698655
-0.000309685
8.69824e-05
0.000476108
0.00086405
-0.00911312
-0.00821508
-0.00734318
-0.00666717
-0.00613541
-0.00566932
-0.00523156
-0.00480232
-0.00436788
-0.00391911
-0.00345163
-0.00296607
-0.00246879
-0.0019729
-0.00150057
-0.00108166
-0.000757435
-0.000498525
-0.000248314
1.58145e-05
0.000296619
0.000580411
0.000871187
-0.00771162
-0.00691701
-0.00614981
-0.00556878
-0.00511736
-0.00471862
-0.00433549
-0.00394816
-0.00354345
-0.00311301
-0.00265327
-0.00216589
-0.00165927
-0.00115115
-0.000675496
-0.000284574
-7.38009e-05
2.35865e-05
0.000124352
0.000258425
0.000426586
0.000613048
0.000816793
-0.0062907
-0.00559829
-0.00494218
-0.00447261
-0.00411768
-0.00379885
-0.00348011
-0.00314271
-0.00277413
-0.00236614
-0.00191456
-0.00141997
-0.000890092
-0.00034314
0.000178787
0.000588772
0.000627607
0.000481636
0.000403803
0.000407505
0.000473143
0.000575287
0.000705081
-0.00480051
-0.00421958
-0.00370035
-0.00337949
-0.00314952
-0.00292772
-0.00268268
-0.00239915
-0.00206596
-0.00167446
-0.00121804
-0.00069292
-0.000100815
0.000551849
0.00124539
0.00188686
0.00156485
0.000894534
0.000556456
0.000439675
0.000428606
0.000468582
0.000541744
-0.00318625
-0.00278328
-0.00246626
-0.00234938
-0.00227187
-0.00215647
-0.0019845
-0.00174744
-0.00143643
-0.00104192
-0.00055303
4.21639e-05
0.000757179
0.001624
0.00270561
0.00417573
0.00322182
0.00132057
0.000551032
0.00033587
0.000289694
0.000297189
0.000335177
-0.00161603
-0.00133341
-0.00121899
-0.00123741
-0.00124754
-0.00120568
-0.00110626
-0.000946378
-0.000720977
-0.000422843
-4.12531e-05
0.000439516
0.00104852
0.00189196
0.00325766
0.00515103
0.00481043
0.00160623
0.000492773
0.000177017
7.72118e-05
3.91067e-05
2.87898e-05
715.091
710.95
710.511
711.446
584.806
581.396
578.885
581.36
62.2611
57.1344
57.224
59.5507
6.45256
6.18423
5.94452
5.76141
8.6156
6.46555
5.74867
5.58986
15.8611
12.7484
6.66296
6.03304
0.245044
0.229309
0.790307
2.77038
0.140732
0.142436
0.136483
0.128264
0.112163
0.11762
0.119321
0.121295
0.0910777
0.0941078
0.0958251
0.118774
0.0742796
0.0759191
0.0778905
0.107443
0.0588788
0.0601654
0.0671551
0.0928721
0.04786
0.0469625
0.048758
0.0542244
0.0487099
0.0359956
0.0383921
0.0403539
0.0688444
0.0309444
0.0302493
0.0325394
0.0187307
0.0223936
0.0261199
0.0266434
0.0142313
0.0167891
0.0195097
0.0219953
0.0108853
0.0131264
0.0156182
0.0179205
0.00773222
0.010176
0.0126097
0.0147963
0.00527112
0.00753333
0.0099841
0.0121862
0.00331311
0.00547628
0.00784744
0.00998843
0.00178287
0.00383302
0.0061023
0.00816339
0.000666246
0.00258872
0.00473288
0.00669055
-6.15266e-05
0.00172269
0.00372245
0.0055538
-0.000442558
0.00119894
0.00304175
0.00472878
-0.000536437
0.000963758
0.00264476
0.00417706
-0.00041592
0.000948561
0.00247001
0.00384557
-0.000158332
0.00107809
0.00244764
0.00367182
0.000164826
0.00128125
0.00250956
0.00359287
0.000496031
0.00149993
0.00259849
0.0035539
0.000795047
0.001693
0.00267244
0.00351306
0.00103779
0.00183543
0.00270479
0.00344236
0.00121282
0.00191496
0.00268152
0.00332571
0.00131727
0.00192811
0.00259758
0.00315604
0.00135326
0.00187661
0.00245358
0.00293234
0.00132514
0.00176473
0.00225321
0.00265727
0.00123787
0.00159774
0.00200171
0.00233554
0.00109645
0.00138123
0.0017049
0.00197275
0.000906635
0.00112168
0.00136959
0.00157581
0.000674182
0.000824557
0.00100154
0.00115146
0.00041925
0.000514894
0.000627036
0.000721886
5.08309e-05
8.09683e-05
0.000117577
0.000148613
712.299
710.789
711.443
713.671
717.692
722.57
641.325
635.73
696.619
720.079
733.552
746.04
762.287
768.65
771.084
762.616
757.72
769.729
777.291
584.974
586.602
583.397
582.561
599.99
635.903
606.097
495.299
529.39
554.351
586.678
621.351
654.424
689.231
718.656
732.22
743.551
734.497
725.058
64.5851
69.7667
75.1899
83.1752
102.407
183.839
352.56
483.464
494.369
497.867
498.989
490.124
479.904
477.639
477.495
469.685
461.349
477.247
517.403
5.55863
5.52807
5.59056
5.66334
5.68656
5.3694
4.62902
4.35387
20.4432
20.079
6.72536
3.35164
12.3709
22.7822
26.0966
24.2647
23.1456
35.2663
54.9668
6.02914
7.57615
7.2809
6.89408
6.73951
6.22544
4.78484
3.01073
2.32193
2.00574
1.89076
1.85061
1.13275
0.154234
0.0887235
0.0927934
0.143388
0.173389
0.232124
10.1766
10.1622
10.0605
9.9101
9.74535
9.54076
9.30321
8.84155
5.69701
3.30357
2.01573
1.59568
0.374168
0.157418
0.12076
0.0940167
0.0949542
0.106251
0.209103
4.24389
4.4974
4.01727
4.01514
3.78274
3.17813
1.35703
0.108903
0.113701
0.112597
0.109076
0.108031
0.568249
0.600506
0.206922
0.0961331
0.0993773
0.105729
0.326684
0.121174
0.120485
0.115082
0.10546
0.0993686
0.0984897
0.105897
0.133931
0.105972
0.101935
0.0997359
0.148909
0.433409
0.306613
0.10413
0.0965214
0.10051
0.164596
0.383013
0.150732
0.179533
0.158685
0.129611
0.152655
0.192373
0.22957
0.252587
0.169841
0.0964504
0.0949213
0.0914771
0.0861903
0.0854615
0.0887709
0.109951
0.2513
0.401148
0.394318
0.194691
0.202136
0.198401
0.188207
0.217567
0.252832
0.25408
0.254005
0.190566
0.0915707
0.0929948
0.119765
0.193178
0.275903
0.285012
0.311781
0.306642
0.277687
0.108094
0.152829
0.146279
0.0777141
0.0727482
0.0686972
0.0647686
0.138175
0.201702
0.0889584
0.0864246
0.212657
0.336524
0.332146
0.327565
0.323231
0.276659
0.127049
0.0843716
0.0849427
0.101793
0.0707771
0.0705293
0.0653901
0.062628
0.0598621
0.0569632
0.0569985
0.111918
0.124256
0.187055
0.341571
0.338785
0.335307
0.144263
0.0668434
0.0739746
0.0798736
0.134682
0.0770871
0.102643
0.104094
0.0868786
0.061237
0.0549276
0.0530255
0.107619
0.135327
0.133712
0.0822126
0.0675281
0.127977
0.114263
0.0537865
0.0646442
0.164396
0.1676
0.164971
0.050086
0.0959393
0.0981393
0.0995837
0.096621
0.0495774
0.0479485
0.0545045
0.0808054
0.0653717
0.0422282
0.0399446
0.0380077
0.0378663
0.0390398
0.0600479
0.152592
0.165581
0.165109
0.0354174
0.0395681
0.0878928
0.0951651
0.0961659
0.0694423
0.043562
0.042782
0.0417735
0.0409677
0.040408
0.0409351
0.0396576
0.0368979
0.0362708
0.0346694
0.0310465
0.0767104
0.163833
0.0295342
0.0321374
0.0338845
0.0705357
0.0914753
0.0589796
0.0393235
0.0393553
0.0392252
0.0387919
0.0379982
0.0385823
0.0379992
0.0371019
0.0343566
0.0311248
0.028037
0.0248762
0.044792
0.0247946
0.0275268
0.0296061
0.0311255
0.0349172
0.0344856
0.0355374
0.0364267
0.0385289
0.0382404
0.0356774
0.034399
0.0333483
0.0325846
0.0306328
0.0285839
0.0261928
0.0243947
0.0241209
0.0208997
0.0236801
0.0259324
0.0277865
0.0294036
0.0309178
0.0320344
0.033401
0.0356644
0.0355064
0.0350561
0.0322788
0.0304332
0.0293414
0.0280414
0.0264278
0.0247028
0.0261796
0.0825149
0.017684
0.0204322
0.022747
0.0247202
0.0264141
0.0278675
0.0289509
0.0296641
0.0306429
0.0328087
0.0324696
0.0318579
0.0280825
0.0269516
0.0257521
0.0243907
0.0230554
0.0274267
0.117138
0.0149815
0.0176551
0.0199526
0.0219387
0.0236286
0.0250336
0.0260935
0.0267662
0.0270738
0.0279758
0.0299592
0.0284988
0.0258904
0.0247052
0.023663
0.0224538
0.021339
0.0243237
0.119785
0.0126879
0.0152609
0.0174928
0.0194373
0.0210848
0.0224375
0.0234678
0.0241567
0.024514
0.0245645
0.0244289
0.0239243
0.0235573
0.0228725
0.0219615
0.0206795
0.0197715
0.0209776
0.122807
0.0107498
0.0131983
0.0153335
0.0172044
0.0187889
0.0200854
0.0210825
0.0217716
0.02216
0.0222687
0.0221304
0.0217857
0.0212805
0.02095
0.0201841
0.019097
0.0184129
0.0190193
0.126085
0.00913891
0.0114399
0.013456
0.0152317
0.0167388
0.0179734
0.0189319
0.0196112
0.0200184
0.0201714
0.0200981
0.0198329
0.0194097
0.0190109
0.0183236
0.0176752
0.0172467
0.017304
0.123298
0.00783608
0.00996831
0.0118473
0.0135118
0.0149294
0.0160949
0.0170081
0.0176693
0.0180857
0.0182735
0.0182579
0.0180705
0.0177469
0.0173286
0.0168709
0.0164455
0.016219
0.0165808
0.125176
0.00682015
0.00876589
0.0104933
0.0120333
0.0133506
0.0144387
0.0152991
0.0159341
0.0163512
0.0165658
0.0166014
0.0164887
0.0162641
0.0159707
0.0156584
0.0153913
0.0153264
0.0159017
0.127037
0.00606093
0.00780807
0.0093727
0.0107777
0.0119851
0.0129875
0.0137873
0.014388
0.0147973
0.0150305
0.0151104
0.0150679
0.0149408
0.0147748
0.0146198
0.0145393
0.0146862
0.0154877
0.0892568
0.00551617
0.00705961
0.00845533
0.00971842
0.0108086
0.0117184
0.0124503
0.0130086
0.0134016
0.0136444
0.0137603
0.0137813
0.0137492
0.0137155
0.0137406
0.0139099
0.0144122
0.0156515
0.0171159
0.00513412
0.00647644
0.00770291
0.00882171
0.00979111
0.0106036
0.0112621
0.0117709
0.0121387
0.0123812
0.0125227
0.0125973
0.0126518
0.0127467
0.0129614
0.0134202
0.0143732
0.0161541
0.018248
0.00486036
0.00601128
0.00707391
0.00805089
0.00889991
0.00961371
0.010195
0.0106484
0.010983
0.0112149
0.0113693
0.0114827
0.0116061
0.0118086
0.012187
0.0129013
0.0142471
0.0164492
0.0216263
0.00464514
0.00561978
0.00652864
0.00737034
0.00810292
0.00871936
0.00922226
0.00961634
0.00991079
0.010122
0.0102757
0.0104092
0.0105756
0.0108482
0.0113323
0.0122021
0.0137605
0.016151
0.075518
0.00444831
0.0052648
0.00603291
0.00674876
0.00737153
0.00789451
0.00832014
0.00865308
0.00890246
0.00908445
0.00922424
0.00935853
0.00953925
0.00983836
0.010358
0.0112645
0.0128436
0.0169162
0.0901227
0.00424098
0.00491817
0.00555994
0.00616106
0.00668259
0.00711811
0.00746987
0.00774231
0.00794417
0.00809077
0.00820589
0.00832397
0.00849358
0.00878132
0.00927857
0.0101307
0.0116024
0.0214411
0.090813
0.00400475
0.00456072
0.00509081
0.00558918
0.00601934
0.00637514
0.00665853
0.00687352
0.00702798
0.00713588
0.00721887
0.00730831
0.00744841
0.00769888
0.00813824
0.00888704
0.0101863
0.0203647
0.0912988
0.0037298
0.00418118
0.00461386
0.00502175
0.00537122
0.00565636
0.00587862
0.00604126
0.00615092
0.00621968
0.00626665
0.00632004
0.00642018
0.00662126
0.00699214
0.00763645
0.00878134
0.0107343
0.0815891
0.00341271
0.00377457
0.00412339
0.00445296
0.00473277
0.00495705
0.00512658
0.0052436
0.00531312
0.00534487
0.00535511
0.0053692
0.00542508
0.0055755
0.00588914
0.00646988
0.00755347
0.00949235
0.012148
0.00305435
0.00334039
0.00361801
0.00388095
0.00410195
0.00427534
0.00440115
0.00448035
0.004516
0.00451496
0.00449012
0.00446375
0.00447253
0.00457179
0.00484092
0.0053961
0.00649643
0.00955023
0.0107718
0.00265814
0.00288074
0.0030988
0.00330596
0.00347838
0.00361057
0.00370174
0.00375159
0.00376093
0.00373319
0.00367679
0.00360956
0.00356617
0.00360583
0.00382769
0.00436113
0.00544129
0.00743999
0.00957007
0.00222886
0.0023993
0.00256821
0.00272931
0.00286242
0.00296235
0.00302773
0.00305706
0.00304888
0.00300261
0.00292076
0.00281401
0.00271188
0.00267433
0.00283448
0.00333353
0.00434215
0.00614752
0.0081595
0.00177313
0.00190222
0.00203137
0.00215496
0.00225678
0.00233239
0.00238016
0.00239788
0.00238217
0.00232848
0.00223228
0.00209246
0.00192216
0.0017643
0.00182383
0.00229332
0.00318874
0.00478551
0.00657945
0.00130052
0.00139916
0.00149734
0.00159094
0.00166825
0.00172615
0.00176342
0.00177793
0.00176555
0.00171923
0.00162814
0.00146999
0.00119931
0.000773523
0.000621589
0.00117435
0.00198269
0.0033309
0.00485146
0.000815181
0.000888839
0.000962795
0.00103187
0.0010894
0.00113429
0.00116648
0.00118489
0.00118628
0.00116408
0.00110461
0.000952703
0.000512874
-0.000549902
-0.00103004
-8.37131e-05
0.0011445
0.00200673
0.00297689
0.000176596
0.000206079
0.000238788
0.000271137
0.000301617
0.000330452
0.000357732
0.000382545
0.000401984
0.000409082
0.000386773
0.000261227
-0.000270864
-0.00203341
-0.00196837
-0.000490702
0.00107316
0.00170528
0.00147538
)
;

boundaryField
{
    leftWall
    {
        type            fixedFluxPressure;
        gradient        uniform 0;
        value           nonuniform List<scalar> 
50
(
824.532
824.85
825.265
825.76
826.29
826.804
827.254
827.595
827.918
827.411
629.331
78.448
11.5156
11.629
8.17152
1.36987
0.284672
0.103225
-0.00346631
-0.0630014
-0.0892213
-0.0955781
-0.091613
-0.0837279
-0.0750865
-0.0668554
-0.0594121
-0.0527094
-0.0467508
-0.041393
-0.0365052
-0.0321321
-0.0281968
-0.017241
0.0659021
0.0771497
0.00811525
-0.0211152
-0.0190768
-0.0170836
-0.0152526
-0.0135712
-0.0120095
-0.0105346
-0.00911312
-0.00771162
-0.0062907
-0.00480051
-0.00318625
-0.00161603
)
;
    }
    rightWall
    {
        type            fixedFluxPressure;
        gradient        uniform 0;
        value           nonuniform List<scalar> 
50
(
768.603
768.934
769.154
769.012
769.115
769.867
771.414
773.453
777.291
725.058
517.403
54.9668
0.232124
0.209103
0.326684
0.383013
0.394318
0.108094
0.0849427
0.134682
0.164971
0.165109
0.163833
0.044792
0.0241209
0.0825149
0.117138
0.119785
0.122807
0.126085
0.123298
0.125176
0.127037
0.0892568
0.0171159
0.018248
0.0216263
0.075518
0.0901227
0.090813
0.0912988
0.0815891
0.012148
0.0107718
0.00957007
0.0081595
0.00657945
0.00485146
0.00297689
0.00147538
)
;
    }
    lowerWall
    {
        type            fixedFluxPressure;
        gradient        uniform 0;
        value           nonuniform List<scalar> 
62
(
824.532
823.11
821.481
819.749
818.029
816.321
814.566
812.672
810.535
808.043
805.085
801.564
797.388
792.476
786.754
780.06
772.129
763.719
756.074
749.03
742.008
736.928
734.821
734.821
734.462
733.577
731.991
730.221
728.314
725.997
721.908
715.091
710.95
710.511
711.446
712.523
712.055
711.44
710.47
709.297
711.896
723.16
721.148
712.523
716.709
720.895
722.704
722.476
721.537
720.77
720.698
721.87
725.528
732.64
738.022
742.616
745.695
747.075
752.958
761.494
767.433
768.603
)
;
    }
    atmosphere
    {
        type            totalPressure;
        rho             rho;
        psi             none;
        gamma           1;
        p0              uniform 0;
        value           nonuniform List<scalar> 
46
(
0
0
0
0
0
0
0
0
0
0
0
0
0
0
0
0
-2.39923e-06
-1.46706e-05
-4.10579e-05
-7.58296e-05
-0.000113931
-0.000151963
-0.000187491
-0.000209891
-0.000222138
-0.000231531
-0.000238048
-0.000245507
-0.000252793
-0.000255412
-0.00025177
-0.000241085
-0.000223341
-0.000199194
-0.000169831
-0.000136826
-0.000102066
-6.7766e-05
-3.66906e-05
-1.22208e-05
-3.22623e-08
0
0
0
0
0
)
;
    }
    defaultFaces
    {
        type            empty;
    }
}


// ************************************************************************* //
