/*--------------------------------*- C++ -*----------------------------------*\
| =========                 |                                                 |
| \\      /  F ield         | OpenFOAM: The Open Source CFD Toolbox           |
|  \\    /   O peration     | Version:  2.3.0                                 |
|   \\  /    A nd           | Web:      www.OpenFOAM.org                      |
|    \\/     M anipulation  |                                                 |
\*---------------------------------------------------------------------------*/
FoamFile
{
    version     2.0;
    format      ascii;
    class       surfaceScalarField;
    location    "2.7";
    object      phi;
}
// * * * * * * * * * * * * * * * * * * * * * * * * * * * * * * * * * * * * * //

dimensions      [0 3 -1 0 0 0 0];

internalField   nonuniform List<scalar> 
4432
(
-4.15644e-07
4.15643e-07
-1.2294e-06
8.13758e-07
-2.17539e-06
9.46001e-07
-3.07371e-06
8.98325e-07
-3.87958e-06
8.05866e-07
-4.57431e-06
6.94725e-07
-5.15033e-06
5.76027e-07
-5.60466e-06
4.54306e-07
-5.93571e-06
3.31056e-07
-6.14271e-06
2.07016e-07
-6.22102e-06
7.82813e-08
-6.153e-06
-6.80122e-08
-5.89585e-06
-2.57147e-07
-5.39552e-06
-5.00352e-07
-4.59682e-06
-7.98697e-07
-3.52031e-06
-1.07652e-06
-2.45436e-06
-1.06596e-06
-1.37603e-06
-1.07831e-06
-5.43813e-08
-1.32167e-06
1.59212e-06
-1.64649e-06
2.96473e-06
-1.37262e-06
2.87705e-06
8.76639e-08
2.87706e-06
-6.64198e-07
1.07985e-06
-1.50796e-06
1.65753e-06
-2.42518e-06
1.86322e-06
-3.30127e-06
1.77443e-06
-4.08686e-06
1.59144e-06
-4.76517e-06
1.37302e-06
-5.33125e-06
1.14213e-06
-5.78326e-06
9.0631e-07
-6.11966e-06
6.67434e-07
-6.3373e-06
4.24685e-07
-6.42857e-06
1.69537e-07
-6.37769e-06
-1.18909e-07
-6.16174e-06
-4.7308e-07
-5.74659e-06
-9.15507e-07
-5.10889e-06
-1.43641e-06
-4.26116e-06
-1.92423e-06
-3.25989e-06
-2.06725e-06
-2.09434e-06
-2.24385e-06
-7.83705e-07
-2.63233e-06
5.67064e-07
-2.99725e-06
1.75666e-06
-2.56223e-06
2.00372e-06
-1.5938e-07
4.88077e-06
-8.19304e-07
1.89916e-06
-1.67883e-06
2.51706e-06
-2.56423e-06
2.74861e-06
-3.41104e-06
2.62125e-06
-4.17509e-06
2.3555e-06
-4.84109e-06
2.03901e-06
-5.40414e-06
1.70519e-06
-5.86143e-06
1.36361e-06
-6.20987e-06
1.01587e-06
-6.44454e-06
6.59374e-07
-6.5563e-06
2.81314e-07
-6.52997e-06
-1.45232e-07
-6.34699e-06
-6.56041e-07
-5.98989e-06
-1.27261e-06
-5.45336e-06
-1.97294e-06
-4.74529e-06
-2.63227e-06
-3.80514e-06
-3.00741e-06
-2.71367e-06
-3.33529e-06
-1.53782e-06
-3.80817e-06
-3.3803e-07
-4.19704e-06
7.79807e-07
-3.68007e-06
1.25939e-06
-6.38947e-07
6.14016e-06
-9.25062e-07
2.82423e-06
-1.83075e-06
3.42275e-06
-2.71899e-06
3.63686e-06
-3.55673e-06
3.45899e-06
-4.31201e-06
3.11078e-06
-4.97333e-06
2.70034e-06
-5.53651e-06
2.26838e-06
-5.99779e-06
1.8249e-06
-6.35269e-06
1.37075e-06
-6.59502e-06
9.01706e-07
-6.71546e-06
4.01767e-07
-6.69976e-06
-1.60949e-07
-6.53388e-06
-8.21919e-07
-6.20807e-06
-1.59843e-06
-5.72538e-06
-2.45563e-06
-5.09105e-06
-3.26659e-06
-4.25195e-06
-3.84652e-06
-3.27395e-06
-4.31328e-06
-2.26479e-06
-4.81734e-06
-1.26698e-06
-5.19485e-06
-2.39871e-07
-4.70716e-06
5.30282e-07
-1.40909e-06
6.67044e-06
-1.00968e-06
3.83391e-06
-1.9813e-06
4.39437e-06
-2.89823e-06
4.5538e-06
-3.7456e-06
4.30638e-06
-4.50435e-06
3.86954e-06
-5.16826e-06
3.36423e-06
-5.73435e-06
2.83447e-06
-6.19794e-06
2.28851e-06
-6.5531e-06
1.7259e-06
-6.79277e-06
1.14137e-06
-6.90788e-06
5.16867e-07
-6.88592e-06
-1.82926e-07
-6.71583e-06
-9.92011e-07
-6.39272e-06
-1.92155e-06
-5.92419e-06
-2.92416e-06
-5.32019e-06
-3.87059e-06
-4.56917e-06
-4.59755e-06
-3.73338e-06
-5.14906e-06
-2.93705e-06
-5.61368e-06
-2.22421e-06
-5.9077e-06
-1.42208e-06
-5.50928e-06
-3.89085e-07
-2.4421e-06
6.28136e-06
-1.0981e-06
4.93202e-06
-2.14866e-06
5.44493e-06
-3.11124e-06
5.51638e-06
-3.98288e-06
5.178e-06
-4.75526e-06
4.64192e-06
-5.42739e-06
4.03635e-06
-5.99751e-06
3.4046e-06
-6.45971e-06
2.75072e-06
-6.8065e-06
2.07269e-06
-7.03018e-06
1.36506e-06
-7.12255e-06
6.09241e-07
-7.07303e-06
-2.3245e-07
-6.87381e-06
-1.19122e-06
-6.52393e-06
-2.27141e-06
-6.03641e-06
-3.41168e-06
-5.43425e-06
-4.47274e-06
-4.7406e-06
-5.29119e-06
-4.0458e-06
-5.84384e-06
-3.4962e-06
-6.16329e-06
-3.15734e-06
-6.24654e-06
-2.77761e-06
-5.88902e-06
-1.69824e-06
-3.52147e-06
4.58312e-06
-1.20838e-06
6.14041e-06
-2.34549e-06
6.58204e-06
-3.36282e-06
6.5337e-06
-4.26843e-06
6.08361e-06
-5.06124e-06
5.43474e-06
-5.74438e-06
4.7195e-06
-6.31671e-06
3.97693e-06
-6.77054e-06
3.20456e-06
-7.09675e-06
2.3989e-06
-7.28739e-06
1.55569e-06
-7.33589e-06
6.57751e-07
-7.23418e-06
-3.34145e-07
-6.97901e-06
-1.44637e-06
-6.57413e-06
-2.67628e-06
-6.04033e-06
-3.94548e-06
-5.41746e-06
-5.09559e-06
-4.76212e-06
-5.94651e-06
-4.1923e-06
-6.41367e-06
-3.88081e-06
-6.47478e-06
-3.94382e-06
-6.18352e-06
-4.19008e-06
-5.64276e-06
-3.50011e-06
-4.21143e-06
1.08302e-06
-1.34689e-06
7.4873e-06
-2.57299e-06
7.80813e-06
-3.64805e-06
7.60876e-06
-4.59127e-06
7.02684e-06
-5.40703e-06
6.25051e-06
-6.10024e-06
5.41273e-06
-6.66923e-06
4.54592e-06
-7.10411e-06
3.63943e-06
-7.39429e-06
2.68907e-06
-7.53223e-06
1.69364e-06
-7.51449e-06
6.4002e-07
-7.33607e-06
-5.12554e-07
-7.00098e-06
-1.78146e-06
-6.51904e-06
-3.15821e-06
-5.92145e-06
-4.54308e-06
-5.26637e-06
-5.75067e-06
-4.63793e-06
-6.57496e-06
-4.1743e-06
-6.87731e-06
-4.06436e-06
-6.58472e-06
-4.46504e-06
-5.78285e-06
-5.33524e-06
-4.77257e-06
-5.47311e-06
-4.07357e-06
-4.39009e-06
-2.46471e-06
2.46471e-06
-5.61481e-08
-2.40856e-06
2.83666e-06
-2.8928e-06
5.38919e-06
-2.55253e-06
7.55836e-06
-2.16916e-06
9.25738e-06
-1.69902e-06
1.00775e-05
-8.20119e-07
9.82969e-06
2.47843e-07
7.19303e-06
2.63667e-06
2.98468e-06
4.20834e-06
1.13557e-06
1.84912e-06
8.38259e-08
1.05175e-06
-2.93414e-06
3.01796e-06
-7.56347e-06
4.62934e-06
-1.10151e-05
3.45161e-06
-1.06638e-05
-3.51285e-07
-7.51368e-06
-3.15012e-06
-3.24789e-06
-4.26577e-06
-3.24791e-06
-5.98264e-07
3.06299e-06
1.23706e-06
-4.24389e-06
3.07879e-06
-4.73452e-06
4.76743e-06
-4.24118e-06
6.31899e-06
-3.7207e-06
7.43588e-06
-2.8159e-06
7.64541e-06
-1.02964e-06
7.13081e-06
7.62451e-07
5.85467e-06
3.91282e-06
3.45781e-06
6.60519e-06
1.4986e-06
3.80832e-06
1.28765e-07
2.4216e-06
-2.28696e-06
5.43367e-06
-5.7186e-06
8.06096e-06
-7.92504e-06
5.65806e-06
-8.06176e-06
-2.14555e-07
-6.69642e-06
-4.51548e-06
-4.09337e-06
-6.8688e-06
-7.3413e-06
8.84121e-07
2.17887e-06
1.87641e-06
-5.23618e-06
2.95436e-06
-5.81246e-06
4.096e-06
-5.38283e-06
5.21872e-06
-4.84341e-06
5.97146e-06
-3.56864e-06
5.87094e-06
-9.29123e-07
5.08015e-06
1.55323e-06
4.11545e-06
4.87752e-06
2.80915e-06
7.91147e-06
1.40373e-06
5.21372e-06
2.3138e-07
3.59396e-06
-1.36859e-06
7.03364e-06
-3.24843e-06
9.9408e-06
-4.97236e-06
7.38198e-06
-5.65285e-06
4.65955e-07
-5.23508e-06
-4.93327e-06
-3.75113e-06
-8.35274e-06
-1.10924e-05
1.62771e-06
5.51156e-07
2.05897e-06
-5.66744e-06
2.57364e-06
-6.32714e-06
3.31025e-06
-6.11945e-06
4.13418e-06
-5.66734e-06
4.6653e-06
-4.09977e-06
4.38166e-06
-6.45502e-07
3.57634e-06
2.35854e-06
2.72829e-06
5.72559e-06
2.15736e-06
8.48242e-06
1.2368e-06
6.13428e-06
3.54529e-07
4.47624e-06
-5.18661e-07
7.90683e-06
-1.32077e-06
1.07429e-05
-2.43831e-06
8.49951e-06
-3.32721e-06
1.35488e-06
-3.44827e-06
-4.81224e-06
-2.74577e-06
-9.05523e-06
-1.38382e-05
1.76601e-06
-1.21486e-06
1.79575e-06
-5.69719e-06
1.93017e-06
-6.46156e-06
2.38085e-06
-6.57014e-06
2.99409e-06
-6.28059e-06
3.42302e-06
-4.5287e-06
3.05088e-06
-2.73359e-07
2.27624e-06
3.13319e-06
1.68432e-06
6.31752e-06
1.54817e-06
8.61858e-06
1.08315e-06
6.5993e-06
5.98292e-07
4.9611e-06
2.87955e-07
8.21717e-06
1.67652e-07
1.08632e-05
-3.48168e-07
9.01532e-06
-1.14736e-06
2.15408e-06
-1.61572e-06
-4.34389e-06
-1.51783e-06
-9.15312e-06
-1.5356e-05
1.38655e-06
-2.60141e-06
1.10455e-06
-5.41519e-06
1.05043e-06
-6.40744e-06
1.31399e-06
-6.8337e-06
1.77822e-06
-6.74482e-06
2.19556e-06
-4.94604e-06
1.83077e-06
9.14452e-08
1.12928e-06
3.83467e-06
8.92544e-07
6.55424e-06
1.08138e-06
8.42974e-06
1.05623e-06
6.62443e-06
8.09382e-07
5.20795e-06
9.93062e-07
8.03349e-06
1.34156e-06
1.05147e-05
1.33759e-06
9.01928e-06
7.43485e-07
2.74818e-06
5.88986e-08
-3.65932e-06
-2.42161e-07
-8.85205e-06
-1.55982e-05
3.61932e-07
-2.96334e-06
7.6111e-08
-5.12937e-06
-5.36851e-09
-6.32596e-06
1.39312e-07
-6.97838e-06
4.90281e-07
-7.09578e-06
9.32003e-07
-5.38777e-06
7.08321e-07
3.1513e-07
2.10323e-07
4.33267e-06
2.51087e-07
6.51348e-06
8.00502e-07
7.88032e-06
1.09248e-06
6.33245e-06
1.0441e-06
5.25632e-06
1.54045e-06
7.53714e-06
2.23302e-06
9.82213e-06
2.61597e-06
8.63634e-06
2.27528e-06
3.08887e-06
1.46045e-06
-2.84449e-06
7.65775e-07
-8.15737e-06
-1.48324e-05
-1.10399e-06
-1.85934e-06
-1.12424e-06
-5.10911e-06
-1.14568e-06
-6.30451e-06
-1.09069e-06
-7.03336e-06
-8.67221e-07
-7.31924e-06
-4.10191e-07
-5.84479e-06
-3.19007e-07
2.23946e-07
-5.3425e-07
4.54792e-06
-1.8242e-07
6.16164e-06
6.56661e-07
7.04124e-06
1.15911e-06
5.83e-06
1.32949e-06
5.08594e-06
1.95009e-06
6.91654e-06
2.86645e-06
8.90577e-06
3.55813e-06
7.94464e-06
3.37399e-06
3.27302e-06
2.54709e-06
-2.01757e-06
1.603e-06
-7.21328e-06
-1.32294e-05
-3.30273e-06
1.079e-05
-6.23245e-06
1.07379e-05
-8.7514e-06
1.01277e-05
-1.0892e-05
9.16745e-06
-1.27035e-05
8.06202e-06
-1.42033e-05
6.91245e-06
-1.53822e-05
5.72483e-06
-1.62101e-05
4.46737e-06
-1.66619e-05
3.14078e-06
-1.6726e-05
1.75774e-06
-1.64143e-05
3.28414e-07
-1.57283e-05
-1.19864e-06
-1.47069e-05
-2.80283e-06
-1.33989e-05
-4.46617e-06
-1.191e-05
-6.03206e-06
-1.04229e-05
-7.23776e-06
-9.18087e-06
-7.81696e-06
-8.49769e-06
-7.56048e-06
-8.76936e-06
-6.31304e-06
-1.03298e-05
-4.22246e-06
-1.30134e-05
-2.08888e-06
-1.5909e-05
-1.178e-06
-2.16096e-06
-1.81381e-05
-3.63959e-06
1.44296e-05
-7.00759e-06
1.41058e-05
-9.82033e-06
1.29405e-05
-1.21934e-05
1.15405e-05
-1.41519e-05
1.00205e-05
-1.5675e-05
8.43554e-06
-1.67647e-05
6.81449e-06
-1.7397e-05
5.0997e-06
-1.75669e-05
3.31069e-06
-1.72791e-05
1.46991e-06
-1.65892e-05
-3.61438e-07
-1.55181e-05
-2.26975e-06
-1.41504e-05
-4.1706e-06
-1.25858e-05
-6.03076e-06
-1.09654e-05
-7.65248e-06
-9.52606e-06
-8.67707e-06
-8.55821e-06
-8.78482e-06
-8.29338e-06
-7.82532e-06
-8.92401e-06
-5.68241e-06
-1.04238e-05
-2.72264e-06
-1.22344e-05
-2.78352e-07
-1.38413e-05
4.2894e-07
-9.5721e-07
-1.5045e-05
-3.71665e-06
1.81462e-05
-7.11354e-06
1.75027e-05
-1.02866e-05
1.61135e-05
-1.31683e-05
1.44222e-05
-1.5472e-05
1.23242e-05
-1.69558e-05
9.91928e-06
-1.77027e-05
7.56139e-06
-1.79142e-05
5.31121e-06
-1.77229e-05
3.11938e-06
-1.70492e-05
7.96262e-07
-1.59701e-05
-1.44059e-06
-1.45396e-05
-3.70023e-06
-1.2976e-05
-5.73414e-06
-1.13799e-05
-7.62694e-06
-9.90533e-06
-9.12702e-06
-8.80356e-06
-9.77884e-06
-8.24614e-06
-9.34225e-06
-8.55763e-06
-7.51381e-06
-9.77389e-06
-4.46619e-06
-1.10714e-05
-1.42504e-06
-1.12657e-05
-8.4094e-08
-1.04093e-05
-4.27504e-07
-1.16325e-06
-1.02033e-05
-2.54557e-06
2.06918e-05
-5.32368e-06
2.02808e-05
-9.88946e-06
2.06793e-05
-1.46099e-05
1.91428e-05
-1.82313e-05
1.59456e-05
-1.95499e-05
1.12378e-05
-1.89726e-05
6.9841e-06
-1.79503e-05
4.28891e-06
-1.70843e-05
2.25329e-06
-1.57569e-05
-5.31151e-07
-1.39021e-05
-3.29536e-06
-1.18352e-05
-5.76711e-06
-1.02037e-05
-7.36563e-06
-8.97039e-06
-8.86024e-06
-8.08652e-06
-1.00109e-05
-8.41654e-06
-9.44883e-06
-8.98454e-06
-8.77425e-06
-1.12864e-05
-5.21182e-06
-1.52596e-05
-4.92983e-07
-1.74077e-05
7.23177e-07
-1.38879e-05
-3.60396e-06
-6.91633e-06
-7.39915e-06
-6.05474e-06
-2.02476e-06
-3.38199e-06
2.40737e-05
-6.91432e-06
2.38132e-05
-1.81495e-05
3.19146e-05
-3.1905e-05
3.28985e-05
-4.22037e-05
2.62447e-05
-4.18666e-05
1.09007e-05
-3.66619e-05
1.77941e-06
-3.06981e-05
-1.67487e-06
-2.52225e-05
-3.22245e-06
-2.05083e-05
-5.2453e-06
-1.54862e-05
-8.31738e-06
-1.08023e-05
-1.0451e-05
-8.66353e-06
-9.50447e-06
-1.05644e-05
-6.9593e-06
-1.08345e-05
-9.74087e-06
-8.10441e-06
-1.21789e-05
-8.11443e-06
-8.7642e-06
-1.46341e-05
1.30771e-06
-2.48507e-05
9.72354e-06
-2.53767e-05
1.24908e-06
-1.66764e-05
-1.23042e-05
-8.03476e-06
-1.60408e-05
-1.21032e-05
-1.98628e-06
-1.54758e-05
3.95498e-05
-2.48939e-05
3.32311e-05
-3.56687e-05
4.26891e-05
-4.83307e-05
4.55602e-05
-5.64559e-05
3.43698e-05
-5.43723e-05
8.81708e-06
-4.88811e-05
-3.71179e-06
-4.21761e-05
-8.37998e-06
-3.62782e-05
-9.12048e-06
-3.16653e-05
-9.85814e-06
-2.72218e-05
-1.27609e-05
-2.40218e-05
-1.3651e-05
-2.31638e-05
-1.03624e-05
-2.31558e-05
-6.96732e-06
-1.93265e-05
-1.35703e-05
-1.38125e-05
-1.76929e-05
-9.85777e-06
-1.27189e-05
-1.1015e-05
2.46511e-06
-1.66322e-05
1.53407e-05
-1.64688e-05
1.08548e-06
-1.24376e-05
-1.63353e-05
-8.60155e-06
-1.9877e-05
-1.28398e-05
-7.86503e-06
-2.40102e-05
6.35602e-05
-3.79449e-05
4.71664e-05
-4.29342e-05
4.76786e-05
-4.68168e-05
4.94429e-05
-4.99293e-05
3.74824e-05
-5.03341e-05
9.22195e-06
-4.69062e-05
-7.1397e-06
-4.3272e-05
-1.20141e-05
-4.01409e-05
-1.22515e-05
-3.80743e-05
-1.19247e-05
-3.65723e-05
-1.42628e-05
-3.7604e-05
-1.26193e-05
-3.792e-05
-1.00465e-05
-3.24701e-05
-1.24171e-05
-2.65185e-05
-1.95221e-05
-2.09575e-05
-2.32539e-05
-1.57802e-05
-1.78961e-05
-9.76143e-06
-3.55374e-06
-7.84388e-06
1.34231e-05
-8.84769e-06
2.0892e-06
-8.27542e-06
-1.69076e-05
-7.8388e-06
-2.03136e-05
-9.02714e-06
-1.16513e-05
-2.45108e-05
8.80707e-05
-4.07632e-05
6.34193e-05
-4.57632e-05
5.26785e-05
-4.60125e-05
4.96923e-05
-4.40101e-05
3.548e-05
-4.20827e-05
7.29466e-06
-3.96799e-05
-9.54264e-06
-3.95534e-05
-1.21408e-05
-3.90933e-05
-1.27115e-05
-3.81894e-05
-1.28285e-05
-4.04792e-05
-1.19731e-05
-4.3919e-05
-9.17962e-06
-4.11533e-05
-1.28123e-05
-3.67628e-05
-1.68077e-05
-3.19524e-05
-2.43324e-05
-2.72226e-05
-2.79836e-05
-2.29188e-05
-2.21998e-05
-1.71058e-05
-9.36685e-06
-8.17212e-06
4.48962e-06
-3.43597e-06
-2.64697e-06
-7.95656e-06
-1.2387e-05
-1.49294e-05
-1.33408e-05
-7.00964e-06
-1.69468e-05
-1.79965e-05
0.000106067
-3.29875e-05
7.84105e-05
-4.32584e-05
6.29495e-05
-4.58331e-05
5.22667e-05
-4.19962e-05
3.1643e-05
-3.87809e-05
4.0792e-06
-3.64095e-05
-1.19139e-05
-3.40969e-05
-1.4453e-05
-3.35291e-05
-1.32791e-05
-3.42792e-05
-1.20784e-05
-3.63884e-05
-9.86413e-06
-3.65342e-05
-9.03397e-06
-3.705e-05
-1.22966e-05
-3.60185e-05
-1.78393e-05
-3.40429e-05
-2.6308e-05
-3.21457e-05
-2.98808e-05
-3.04344e-05
-2.39112e-05
-2.78856e-05
-1.19157e-05
-1.88733e-05
-4.52296e-06
-1.59217e-05
-5.5986e-06
-1.8399e-05
-9.90974e-06
-2.16749e-05
-1.00649e-05
-6.90189e-06
-2.17829e-05
-1.13473e-05
0.000117414
-2.34847e-05
9.05481e-05
-3.27755e-05
7.22407e-05
-3.6166e-05
5.5657e-05
-3.43087e-05
2.97857e-05
-3.24003e-05
2.17072e-06
-3.21886e-05
-1.21255e-05
-3.09308e-05
-1.57107e-05
-2.98338e-05
-1.43761e-05
-2.94965e-05
-1.2416e-05
-3.03254e-05
-9.03516e-06
-3.06956e-05
-8.66369e-06
-3.16305e-05
-1.13617e-05
-3.12492e-05
-1.82206e-05
-3.21662e-05
-2.53909e-05
-3.40708e-05
-2.79761e-05
-3.43257e-05
-2.36562e-05
-3.09268e-05
-1.53146e-05
-2.66209e-05
-8.82902e-06
-2.41628e-05
-8.05698e-06
-2.44566e-05
-9.61616e-06
-2.50219e-05
-9.49969e-06
-8.00168e-06
-2.3922e-05
-4.82099e-06
0.000122235
-1.23917e-05
9.81191e-05
-1.82386e-05
7.80875e-05
-2.05481e-05
5.79668e-05
-2.09246e-05
3.01625e-05
-2.22241e-05
3.47029e-06
-2.44948e-05
-9.85469e-06
-2.65629e-05
-1.36427e-05
-2.75353e-05
-1.34038e-05
-2.7812e-05
-1.21393e-05
-2.70094e-05
-9.83773e-06
-2.60496e-05
-9.62356e-06
-2.69741e-05
-1.04371e-05
-2.83578e-05
-1.68369e-05
-2.95992e-05
-2.41496e-05
-3.09769e-05
-2.65984e-05
-3.13927e-05
-2.32405e-05
-3.06708e-05
-1.60367e-05
-2.86124e-05
-1.08875e-05
-2.71472e-05
-9.52225e-06
-2.66371e-05
-1.01262e-05
-2.59854e-05
-1.01515e-05
-9.59657e-06
-2.43905e-05
1.87231e-06
0.000120363
-1.3943e-06
0.000101385
-3.3389e-06
8.00315e-05
-3.81981e-06
5.84481e-05
-5.58401e-06
3.19267e-05
-1.00816e-05
7.96794e-06
-1.55193e-05
-4.41711e-06
-2.06725e-05
-8.48944e-06
-2.39856e-05
-1.00904e-05
-2.50132e-05
-1.11116e-05
-2.3983e-05
-1.08679e-05
-2.30898e-05
-1.05167e-05
-2.27468e-05
-1.07803e-05
-2.40409e-05
-1.55429e-05
-2.60854e-05
-2.21052e-05
-2.80621e-05
-2.46219e-05
-2.9285e-05
-2.20179e-05
-2.91267e-05
-1.61952e-05
-2.78857e-05
-1.21286e-05
-2.67389e-05
-1.0669e-05
-2.60152e-05
-1.08498e-05
-2.50764e-05
-1.10903e-05
-1.1191e-05
-2.3482e-05
7.47535e-06
0.000112887
7.78284e-06
0.000101078
8.83507e-06
7.89791e-05
9.71103e-06
5.75722e-05
7.20829e-06
3.44292e-05
6.08812e-07
1.45674e-05
-6.31562e-06
2.50762e-06
-1.14771e-05
-3.32748e-06
-1.50185e-05
-6.54889e-06
-1.7429e-05
-8.70123e-06
-1.85356e-05
-9.76138e-06
-1.87363e-05
-1.03161e-05
-1.80239e-05
-1.14927e-05
-1.87128e-05
-1.4854e-05
-2.13202e-05
-1.94979e-05
-2.41008e-05
-2.18412e-05
-2.61989e-05
-1.99198e-05
-2.61682e-05
-1.6226e-05
-2.51169e-05
-1.318e-05
-2.40641e-05
-1.17217e-05
-2.33534e-05
-1.15606e-05
-2.25683e-05
-1.18757e-05
-1.23659e-05
-2.13936e-05
1.07682e-05
0.000102119
1.42859e-05
9.75603e-05
1.68799e-05
7.63856e-05
1.80117e-05
5.64402e-05
1.5527e-05
3.69138e-05
9.92766e-06
2.01668e-05
3.7422e-06
8.69306e-06
-1.2867e-06
1.70148e-06
-5.09477e-06
-2.74081e-06
-7.99662e-06
-5.7995e-06
-9.96213e-06
-7.79594e-06
-1.10197e-05
-9.25854e-06
-1.1586e-05
-1.09264e-05
-1.2751e-05
-1.3689e-05
-1.53121e-05
-1.69368e-05
-1.84538e-05
-1.86996e-05
-2.04534e-05
-1.79204e-05
-2.09734e-05
-1.57062e-05
-2.05305e-05
-1.36231e-05
-1.98373e-05
-1.24149e-05
-1.93072e-05
-1.20908e-05
-1.88516e-05
-1.23314e-05
-1.29234e-05
-1.82941e-05
1.20094e-05
9.011e-05
1.79347e-05
9.16349e-05
2.15038e-05
7.28168e-05
2.2975e-05
5.49686e-05
2.14235e-05
3.84654e-05
1.72839e-05
2.43067e-05
1.23096e-05
1.36676e-05
7.74346e-06
6.2676e-06
3.90987e-06
1.09269e-06
7.59689e-07
-2.64939e-06
-1.66779e-06
-5.36846e-06
-3.42814e-06
-7.49824e-06
-4.80961e-06
-9.54497e-06
-6.52876e-06
-1.197e-05
-9.02791e-06
-1.44379e-05
-1.18068e-05
-1.5921e-05
-1.3886e-05
-1.58416e-05
-1.48691e-05
-1.47232e-05
-1.50369e-05
-1.34553e-05
-1.48525e-05
-1.25993e-05
-1.4639e-05
-1.23043e-05
-1.44949e-05
-1.24754e-05
-1.29774e-05
-1.44409e-05
1.17837e-05
7.83262e-05
1.92633e-05
8.41553e-05
2.36175e-05
6.84625e-05
2.55977e-05
5.2988e-05
2.50152e-05
3.90482e-05
2.23072e-05
2.70148e-05
1.85777e-05
1.73971e-05
1.47382e-05
1.01071e-05
1.12009e-05
4.62977e-06
8.08985e-06
4.61605e-07
5.47202e-06
-2.75074e-06
3.31698e-06
-5.34331e-06
1.43026e-06
-7.65829e-06
-5.96035e-07
-9.94382e-06
-2.99708e-06
-1.2037e-05
-5.48958e-06
-1.34286e-05
-7.51871e-06
-1.38126e-05
-8.8005e-06
-1.34414e-05
-9.44071e-06
-1.2815e-05
-9.71482e-06
-1.23251e-05
-9.87216e-06
-1.21469e-05
-1.00515e-05
-1.22961e-05
-1.27364e-05
-1.02926e-05
1.06967e-05
6.76294e-05
1.89029e-05
7.59492e-05
2.3851e-05
6.35139e-05
2.63526e-05
5.04865e-05
2.66364e-05
3.87647e-05
2.51226e-05
2.85286e-05
2.25337e-05
1.99858e-05
1.95304e-05
1.31101e-05
1.6512e-05
7.64791e-06
1.36746e-05
3.29889e-06
1.11179e-05
-1.9417e-07
8.84833e-06
-3.07388e-06
6.75674e-06
-5.56684e-06
4.63288e-06
-7.82014e-06
2.36215e-06
-9.76643e-06
9.99145e-08
-1.11665e-05
-1.84074e-06
-1.1872e-05
-3.2727e-06
-1.20095e-05
-4.22292e-06
-1.18649e-05
-4.84759e-06
-1.17005e-05
-5.32063e-06
-1.1674e-05
-5.76864e-06
-1.18483e-05
-1.2241e-05
-6.26416e-06
9.21129e-06
5.84182e-05
1.74647e-05
6.7696e-05
2.27578e-05
5.82204e-05
2.57001e-05
4.75447e-05
2.66913e-05
3.77734e-05
2.61289e-05
2.90909e-05
2.45202e-05
2.15944e-05
2.23448e-05
1.52853e-05
1.99454e-05
1.00472e-05
1.75309e-05
5.71339e-06
1.522e-05
2.11671e-06
1.30519e-05
-9.05776e-07
1.09854e-05
-3.50039e-06
8.92543e-06
-5.76027e-06
6.82653e-06
-7.66763e-06
4.77889e-06
-9.11896e-06
2.95825e-06
-1.00515e-05
1.48609e-06
-1.05375e-05
3.65735e-07
-1.07447e-05
-4.87695e-07
-1.08472e-05
-1.18938e-06
-1.09724e-05
-1.84185e-06
-1.11958e-05
-1.15618e-05
-2.521e-06
7.66904e-06
5.07494e-05
1.54821e-05
5.98828e-05
2.08506e-05
5.28522e-05
2.40955e-05
4.43001e-05
2.56268e-05
3.62418e-05
2.58032e-05
2.89143e-05
2.50018e-05
2.23957e-05
2.35766e-05
1.67106e-05
2.18055e-05
1.18184e-05
1.98813e-05
7.6377e-06
1.79265e-05
4.07159e-06
1.60013e-05
1.01942e-06
1.41106e-05
-1.60973e-06
1.22256e-05
-3.87536e-06
1.03394e-05
-5.78149e-06
8.51055e-06
-7.29025e-06
6.84156e-06
-8.38258e-06
5.41047e-06
-9.10637e-06
4.23071e-06
-9.56484e-06
3.25779e-06
-9.87422e-06
2.41801e-06
-1.01325e-05
1.63455e-06
-1.04121e-05
-1.07674e-05
8.40361e-07
6.28133e-06
4.44683e-05
1.33653e-05
5.27987e-05
1.85711e-05
4.76469e-05
2.19634e-05
4.09076e-05
2.38752e-05
3.43296e-05
2.4607e-05
2.81824e-05
2.44465e-05
2.25562e-05
2.366e-05
1.7497e-05
2.24684e-05
1.301e-05
2.1038e-05
9.06807e-06
1.94843e-05
5.62513e-06
1.78771e-05
2.62646e-06
1.62475e-05
1.97461e-08
1.46034e-05
-2.23142e-06
1.29591e-05
-4.1373e-06
1.13584e-05
-5.68959e-06
9.86558e-06
-6.88968e-06
8.53224e-06
-7.77292e-06
7.37382e-06
-8.40628e-06
6.36856e-06
-8.86882e-06
5.4708e-06
-9.23463e-06
4.62595e-06
-9.56722e-06
-9.92169e-06
3.78025e-06
5.14554e-06
3.93226e-05
1.13871e-05
4.65573e-05
1.62636e-05
4.27704e-05
1.9663e-05
3.75081e-05
2.18094e-05
3.21831e-05
2.29352e-05
2.70567e-05
2.32612e-05
2.22302e-05
2.2991e-05
1.77673e-05
2.22989e-05
1.3702e-05
2.13237e-05
1.00432e-05
2.01682e-05
6.78041e-06
1.89026e-05
3.89183e-06
1.757e-05
1.35223e-06
1.61967e-05
-8.58242e-07
1.48082e-05
-2.74872e-06
1.34407e-05
-4.3221e-06
1.21389e-05
-5.58772e-06
1.0939e-05
-6.57298e-06
9.85625e-06
-7.32348e-06
8.88176e-06
-7.89432e-06
7.98847e-06
-8.34137e-06
7.13931e-06
-8.71809e-06
-9.07607e-06
6.29365e-06
4.27766e-06
3.50447e-05
9.69626e-06
4.1139e-05
1.41616e-05
3.83049e-05
1.74598e-05
3.42099e-05
1.97128e-05
2.99302e-05
2.10904e-05
2.56794e-05
2.1763e-05
2.15579e-05
2.18887e-05
1.76418e-05
2.16048e-05
1.3986e-05
2.10238e-05
1.06241e-05
2.02336e-05
7.57063e-06
1.92987e-05
4.82672e-06
1.82649e-05
2.38601e-06
1.71658e-05
2.40818e-07
1.60314e-05
-1.61434e-06
1.48941e-05
-3.18478e-06
1.37878e-05
-4.48139e-06
1.27404e-05
-5.52552e-06
1.17662e-05
-6.34939e-06
1.08641e-05
-6.99229e-06
1.00193e-05
-7.49662e-06
9.20779e-06
-7.9066e-06
-8.26875e-06
8.40052e-06
3.64268e-06
3.14021e-05
8.34204e-06
3.64398e-05
1.23872e-05
3.42598e-05
1.55133e-05
3.1084e-05
1.77658e-05
2.7678e-05
1.92724e-05
2.41731e-05
2.01702e-05
2.06604e-05
2.05835e-05
1.72287e-05
2.06187e-05
1.39509e-05
2.03644e-05
1.08785e-05
1.98918e-05
8.04326e-06
1.92567e-05
5.46185e-06
1.85022e-05
3.14053e-06
1.76628e-05
1.0802e-06
1.67691e-05
-7.20648e-07
1.58505e-05
-2.26622e-06
1.4935e-05
-3.56599e-06
1.40457e-05
-4.63629e-06
1.31966e-05
-5.50034e-06
1.23911e-05
-6.18675e-06
1.16224e-05
-6.72799e-06
1.08763e-05
-7.16041e-06
-7.52533e-06
1.0133e-05
3.17571e-06
2.82267e-05
7.29621e-06
3.23194e-05
1.09621e-05
3.05944e-05
1.3877e-05
2.81692e-05
1.60446e-05
2.55105e-05
1.75817e-05
2.26361e-05
1.8608e-05
1.96341e-05
1.92208e-05
1.6616e-05
1.94988e-05
1.3673e-05
1.95075e-05
1.08698e-05
1.93017e-05
8.24903e-06
1.89269e-05
5.83663e-06
1.8421e-05
3.64651e-06
1.78161e-05
1.6851e-06
1.71413e-05
-4.58127e-08
1.64235e-05
-1.54834e-06
1.56869e-05
-2.82947e-06
1.49519e-05
-3.90127e-06
1.42322e-05
-4.78058e-06
1.3534e-05
-5.48849e-06
1.28561e-05
-6.05008e-06
1.21911e-05
-6.49528e-06
-6.86057e-06
1.15266e-05
2.81177e-06
2.54152e-05
6.46427e-06
2.86672e-05
9.81727e-06
2.72419e-05
1.24999e-05
2.54867e-05
1.45272e-05
2.34833e-05
1.60309e-05
2.11324e-05
1.71239e-05
1.85411e-05
1.78764e-05
1.58635e-05
1.834e-05
1.32093e-05
1.8559e-05
1.06508e-05
1.8573e-05
8.23505e-06
1.84178e-05
5.99194e-06
1.81254e-05
3.93906e-06
1.77247e-05
2.08591e-06
1.72425e-05
4.36611e-07
1.67031e-05
-1.00888e-06
1.61287e-05
-2.2549e-06
1.55374e-05
-3.30994e-06
1.4943e-05
-4.18606e-06
1.43535e-05
-4.89887e-06
1.37714e-05
-5.46787e-06
1.3194e-05
-5.91776e-06
-6.28074e-06
1.26143e-05
2.51125e-06
2.29041e-05
5.75859e-06
2.54204e-05
8.73804e-06
2.42628e-05
1.12317e-05
2.29932e-05
1.31057e-05
2.16094e-05
1.45689e-05
1.96692e-05
1.57146e-05
1.73954e-05
1.658e-05
1.49981e-05
1.71933e-05
1.2596e-05
1.75823e-05
1.02618e-05
1.77755e-05
8.04202e-06
1.78012e-05
5.96638e-06
1.76869e-05
4.0535e-06
1.74587e-05
2.31434e-06
1.71408e-05
7.54645e-07
1.67558e-05
-6.23787e-07
1.63239e-05
-1.82284e-06
1.5862e-05
-2.84796e-06
1.53836e-05
-3.70752e-06
1.48978e-05
-4.41301e-06
1.44096e-05
-4.9796e-06
1.39196e-05
-5.42773e-06
-5.78581e-06
1.34247e-05
2.16824e-06
2.07361e-05
5.01307e-06
2.25758e-05
7.5873e-06
2.16887e-05
9.84737e-06
2.07333e-05
1.16477e-05
1.98092e-05
1.31416e-05
1.81753e-05
1.43692e-05
1.61678e-05
1.53452e-05
1.40221e-05
1.60864e-05
1.18548e-05
1.66135e-05
9.73478e-06
1.695e-05
7.70562e-06
1.71207e-05
5.79571e-06
1.71506e-05
4.02367e-06
1.70636e-05
2.40141e-06
1.68822e-05
9.36071e-07
1.66272e-05
-3.68829e-07
1.63174e-05
-1.51293e-06
1.59686e-05
-2.49911e-06
1.55939e-05
-3.33276e-06
1.52031e-05
-4.02217e-06
1.48026e-05
-4.57914e-06
1.43955e-05
-5.02058e-06
-5.37151e-06
1.39812e-05
1.72639e-06
1.90098e-05
4.20921e-06
2.00929e-05
6.45536e-06
1.94425e-05
8.39923e-06
1.87894e-05
1.02147e-05
1.79937e-05
1.1796e-05
1.65939e-05
1.31208e-05
1.4843e-05
1.41968e-05
1.2946e-05
1.50405e-05
1.1011e-05
1.56732e-05
9.10214e-06
1.61182e-05
7.26056e-06
1.63998e-05
5.51408e-06
1.65417e-05
3.88175e-06
1.65664e-05
2.37662e-06
1.6495e-05
1.00737e-06
1.63468e-05
-2.20709e-07
1.6139e-05
-1.30519e-06
1.58866e-05
-2.2467e-06
1.56021e-05
-3.04825e-06
1.52955e-05
-3.71559e-06
1.49742e-05
-4.25783e-06
1.46427e-05
-4.689e-06
-5.03101e-06
1.43022e-05
1.58127e-06
1.74284e-05
3.55768e-06
1.81161e-05
5.44739e-06
1.75526e-05
7.23399e-06
1.70027e-05
9.03569e-06
1.61918e-05
1.06559e-05
1.49736e-05
1.20328e-05
1.34661e-05
1.31657e-05
1.18131e-05
1.4071e-05
1.01058e-05
1.47706e-05
8.40252e-06
1.52883e-05
6.74286e-06
1.56476e-05
5.15466e-06
1.58714e-05
3.65793e-06
1.59807e-05
2.26719e-06
1.59951e-05
9.92852e-07
1.59323e-05
-1.5795e-07
1.58079e-05
-1.18089e-06
1.56358e-05
-2.07464e-06
1.54279e-05
-2.84032e-06
1.5194e-05
-3.4817e-06
1.4942e-05
-4.0058e-06
1.46773e-05
-4.42423e-06
-4.75607e-06
1.44025e-05
1.63109e-06
1.5797e-05
3.19277e-06
1.65542e-05
4.81828e-06
1.59269e-05
6.5251e-06
1.52957e-05
8.2234e-06
1.44934e-05
9.78192e-06
1.3415e-05
1.1131e-05
1.2117e-05
1.22588e-05
1.06852e-05
1.3176e-05
9.18849e-06
1.39015e-05
7.67701e-06
1.44567e-05
6.18772e-06
1.48631e-05
4.7482e-06
1.51416e-05
3.37938e-06
1.53115e-05
2.09723e-06
1.53903e-05
9.1394e-07
1.53939e-05
-1.61555e-07
1.53362e-05
-1.12321e-06
1.52296e-05
-1.9681e-06
1.50852e-05
-2.69589e-06
1.49125e-05
-3.30897e-06
1.47195e-05
-3.81275e-06
1.45122e-05
-4.21686e-06
-4.53777e-06
1.4294e-05
1.54823e-06
1.42485e-05
3.05998e-06
1.50426e-05
4.58279e-06
1.44041e-05
6.14662e-06
1.37318e-05
7.69029e-06
1.29498e-05
9.11898e-06
1.19864e-05
1.03771e-05
1.08589e-05
1.14476e-05
9.61476e-06
1.23341e-05
8.302e-06
1.30498e-05
6.96127e-06
1.3612e-05
5.62548e-06
1.40391e-05
4.32102e-06
1.43492e-05
3.06919e-06
1.45592e-05
1.88719e-06
1.46842e-05
7.88824e-07
1.47379e-05
-2.15231e-07
1.47321e-05
-1.11743e-06
1.46776e-05
-1.91367e-06
1.45845e-05
-2.60275e-06
1.44617e-05
-3.18619e-06
1.43174e-05
-3.66834e-06
1.41579e-05
-4.05726e-06
-4.36695e-06
1.39872e-05
1.51092e-06
1.27377e-05
3.01761e-06
1.35363e-05
4.47115e-06
1.29506e-05
5.9025e-06
1.23006e-05
7.2845e-06
1.15681e-05
8.56362e-06
1.07075e-05
9.70264e-06
9.71999e-06
1.0686e-05
8.63141e-06
1.15135e-05
7.47447e-06
1.21938e-05
6.28097e-06
1.27399e-05
5.07924e-06
1.31669e-05
3.89386e-06
1.34899e-05
2.74599e-06
1.37232e-05
1.65379e-06
1.38793e-05
6.32613e-07
1.39692e-05
-3.05195e-07
1.40024e-05
-1.15077e-06
1.3988e-05
-1.8993e-06
1.39347e-05
-2.54944e-06
1.3851e-05
-3.10253e-06
1.37451e-05
-3.56236e-06
1.36236e-05
-3.93575e-06
-4.23442e-06
1.34912e-05
1.48413e-06
1.12539e-05
2.96967e-06
1.20511e-05
4.35162e-06
1.15689e-05
5.66134e-06
1.09912e-05
6.89572e-06
1.0334e-05
8.03111e-06
9.57229e-06
9.0466e-06
8.7046e-06
9.93171e-06
7.74633e-06
1.06857e-05
6.72048e-06
1.13146e-05
5.65197e-06
1.18287e-05
4.56502e-06
1.22401e-05
3.48223e-06
1.25615e-05
2.42442e-06
1.28045e-05
1.41062e-06
1.29792e-05
4.57841e-07
1.30936e-05
-4.19718e-07
1.31546e-05
-1.21188e-06
1.3169e-05
-1.91379e-06
1.31445e-05
-2.52492e-06
1.30892e-05
-3.04728e-06
1.30115e-05
-3.4846e-06
1.29185e-05
-3.8427e-06
-4.13112e-06
1.28153e-05
1.43551e-06
9.81876e-06
2.8676e-06
1.06191e-05
4.167e-06
1.02697e-05
5.36376e-06
9.79462e-06
6.46807e-06
9.22977e-06
7.47387e-06
8.56655e-06
8.37236e-06
7.80614e-06
9.1587e-06
6.95998e-06
9.83357e-06
6.04558e-06
1.04024e-05
5.08311e-06
1.08738e-05
4.09353e-06
1.12582e-05
3.09771e-06
1.15663e-05
2.11618e-06
1.18078e-05
1.169e-06
1.19904e-05
2.75219e-07
1.21191e-05
-5.48512e-07
1.21975e-05
-1.29035e-06
1.22299e-05
-1.94629e-06
1.22231e-05
-2.51814e-06
1.21854e-05
-3.0096e-06
1.21257e-05
-3.42477e-06
1.20516e-05
-3.76857e-06
-4.04825e-06
1.19688e-05
1.35596e-06
8.46293e-06
2.70357e-06
9.2715e-06
3.90985e-06
9.06346e-06
4.99991e-06
8.70458e-06
5.98846e-06
8.24118e-06
6.87856e-06
7.67638e-06
7.6693e-06
7.01535e-06
8.36063e-06
6.26861e-06
8.9553e-06
5.45087e-06
9.45909e-06
4.57929e-06
9.8802e-06
3.67241e-06
1.02282e-05
2.74969e-06
1.05129e-05
1.83151e-06
1.07427e-05
9.39205e-07
1.09233e-05
9.46103e-08
1.10567e-05
-6.81997e-07
1.11423e-05
-1.37594e-06
1.11815e-05
-1.9855e-06
1.11807e-05
-2.51734e-06
1.11493e-05
-2.97811e-06
1.1097e-05
-3.37247e-06
1.10326e-05
-3.70406e-06
-3.97753e-06
1.09619e-05
1.25318e-06
7.20968e-06
2.49631e-06
8.0283e-06
3.6027e-06
7.95702e-06
4.59001e-06
7.71714e-06
5.47251e-06
7.35851e-06
6.25738e-06
6.89137e-06
6.94842e-06
6.32421e-06
7.549e-06
5.66796e-06
8.06375e-06
4.93609e-06
8.49913e-06
4.14391e-06
8.86339e-06
3.30818e-06
9.16603e-06
2.4471e-06
9.41679e-06
1.58081e-06
9.62398e-06
7.32064e-07
9.79229e-06
-7.3654e-08
9.92071e-06
-8.10382e-07
1.00025e-05
-1.45766e-06
1.00357e-05
-2.01867e-06
1.00279e-05
-2.50942e-06
9.99061e-06
-2.94077e-06
9.93558e-06
-3.31735e-06
9.87214e-06
-3.64055e-06
-3.91173e-06
9.80638e-06
1.14539e-06
6.06419e-06
2.27829e-06
6.89537e-06
3.28314e-06
6.95209e-06
4.1704e-06
6.82973e-06
4.95266e-06
6.5761e-06
5.63905e-06
6.20486e-06
6.23609e-06
5.72707e-06
6.74929e-06
5.15469e-06
7.18437e-06
4.50096e-06
7.54814e-06
3.78012e-06
7.84886e-06
3.00748e-06
8.09623e-06
2.19977e-06
8.30073e-06
1.37635e-06
8.472e-06
5.60842e-07
8.6154e-06
-2.16994e-07
8.72754e-06
-9.22456e-07
8.79246e-06
-1.52248e-06
8.80422e-06
-2.03031e-06
8.77429e-06
-2.47935e-06
8.71877e-06
-2.88512e-06
8.6515e-06
-3.24997e-06
8.58208e-06
-3.57105e-06