/*--------------------------------*- C++ -*----------------------------------*\
| =========                 |                                                 |
| \\      /  F ield         | OpenFOAM: The Open Source CFD Toolbox           |
|  \\    /   O peration     | Version:  2.3.0                                 |
|   \\  /    A nd           | Web:      www.OpenFOAM.org                      |
|    \\/     M anipulation  |                                                 |
\*---------------------------------------------------------------------------*/
FoamFile
{
    version     2.0;
    format      ascii;
    class       volVectorField;
    location    "2.7";
    object      U;
}
// * * * * * * * * * * * * * * * * * * * * * * * * * * * * * * * * * * * * * //

dimensions      [0 1 -1 0 0 0 0];

internalField   nonuniform List<vector> 
2268
(
(-0.00293835 0.00156595 0)
(-0.00869307 0.0030239 0)
(-0.0195355 0.00347814 0)
(-0.0300838 0.00331 0)
(-0.0398315 0.00301196 0)
(-0.0484082 0.00264203 0)
(-0.05567 0.00223378 0)
(-0.0615625 0.00180346 0)
(-0.0660577 0.0013574 0)
(-0.0691477 0.000902603 0)
(-0.070817 0.000422 0)
(-0.0709741 -0.000147576 0)
(-0.0692713 -0.000867916 0)
(-0.0651348 -0.00189435 0)
(-0.0577281 -0.00324503 0)
(-0.0468552 -0.00451401 0)
(-0.0345771 -0.00431634 0)
(-0.0225458 -0.00424608 0)
(-0.00903708 -0.005634 0)
(0.00824907 -0.00775154 0)
(0.0260213 -0.00704406 0)
(0.039244 -0.000498066 0)
(0.024777 0.00898922 0)
(-0.00486021 0.00386269 0)
(-0.0120914 0.00690995 0)
(-0.0224819 0.00794978 0)
(-0.0328966 0.00757901 0)
(-0.0424253 0.00680474 0)
(-0.0507938 0.00587303 0)
(-0.0578999 0.00488134 0)
(-0.0637164 0.00386551 0)
(-0.0682228 0.00283634 0)
(-0.0714019 0.00179405 0)
(-0.0732004 0.000702145 0)
(-0.0734845 -0.000540405 0)
(-0.0720619 -0.00207048 0)
(-0.0685685 -0.00404592 0)
(-0.0626152 -0.00642419 0)
(-0.0541156 -0.00860552 0)
(-0.0433919 -0.00897378 0)
(-0.0310558 -0.0095455 0)
(-0.0170305 -0.0114114 0)
(-0.00152744 -0.0133409 0)
(0.0135939 -0.0111467 0)
(0.0255578 0.000591773 0)
(0.0207177 0.0217605 0)
(-0.00592243 0.00794487 0)
(-0.0142179 0.0112258 0)
(-0.0242116 0.012471 0)
(-0.0343128 0.0119135 0)
(-0.0435561 0.0107034 0)
(-0.051733 0.00925252 0)
(-0.0587525 0.00771887 0)
(-0.0645837 0.00615124 0)
(-0.0691917 0.00455992 0)
(-0.0725386 0.00293578 0)
(-0.0745518 0.00121959 0)
(-0.0750907 -0.000724349 0)
(-0.073961 -0.00306821 0)
(-0.0709358 -0.00594669 0)
(-0.0658732 -0.00926813 0)
(-0.0588104 -0.012377 0)
(-0.0493435 -0.0138448 0)
(-0.0376242 -0.0152415 0)
(-0.0245891 -0.0175942 0)
(-0.0109713 -0.0196121 0)
(0.00253151 -0.0168941 0)
(0.014407 -0.00189089 0)
(0.0150285 0.0298521 0)
(-0.00655522 0.0127325 0)
(-0.015909 0.0159378 0)
(-0.0259865 0.0171736 0)
(-0.0360332 0.0163737 0)
(-0.0451661 0.0147262 0)
(-0.0532639 0.012768 0)
(-0.0602585 0.0107031 0)
(-0.0661163 0.00858743 0)
(-0.0707879 0.0064281 0)
(-0.0742173 0.00420613 0)
(-0.0763226 0.00184262 0)
(-0.0769662 -0.000825137 0)
(-0.0759768 -0.00398311 0)
(-0.0731977 -0.00774305 0)
(-0.0685926 -0.0119484 0)
(-0.0622719 -0.0159289 0)
(-0.0538341 -0.0185535 0)
(-0.043236 -0.0207633 0)
(-0.0316997 -0.0234647 0)
(-0.0203505 -0.0255797 0)
(-0.00902952 -0.0227859 0)
(0.00229435 -0.00543224 0)
(0.0105522 0.0351372 0)
(-0.00700077 0.0179624 0)
(-0.0174298 0.0210003 0)
(-0.0279246 0.0220307 0)
(-0.0381562 0.0209048 0)
(-0.0473492 0.0187991 0)
(-0.0554764 0.0163359 0)
(-0.0625035 0.0137471 0)
(-0.0683949 0.0110849 0)
(-0.0730851 0.00835066 0)
(-0.0765018 0.00551798 0)
(-0.0785591 0.00249359 0)
(-0.0791303 -0.000905414 0)
(-0.078069 -0.00486707 0)
(-0.0752635 -0.00946915 0)
(-0.0707274 -0.014491 0)
(-0.0646247 -0.0192539 0)
(-0.0568178 -0.0228371 0)
(-0.0474691 -0.0256794 0)
(-0.0378884 -0.0284126 0)
(-0.0294544 -0.0303501 0)
(-0.0215862 -0.0279811 0)
(-0.0124183 -0.0104458 0)
(0.00367368 0.036602 0)
(-0.00749229 0.0236171 0)
(-0.0190427 0.0264378 0)
(-0.0301597 0.0270876 0)
(-0.0407595 0.0255325 0)
(-0.0501543 0.0229251 0)
(-0.0584005 0.0199417 0)
(-0.0654992 0.0168212 0)
(-0.0714103 0.0135993 0)
(-0.0760486 0.0102692 0)
(-0.079326 0.00680045 0)
(-0.0811586 0.00309177 0)
(-0.0814351 -0.00105463 0)
(-0.0800391 -0.0058159 0)
(-0.0769004 -0.0112361 0)
(-0.0720752 -0.017026 0)
(-0.0658078 -0.0224742 0)
(-0.0582683 -0.0267231 0)
(-0.0499847 -0.0298172 0)
(-0.0425128 -0.0320892 0)
(-0.0375375 -0.0333145 0)
(-0.0345293 -0.0314447 0)
(-0.0302978 -0.0161701 0)
(-0.0100718 0.032909 0)
(-0.00822505 0.0297986 0)
(-0.0209378 0.0323103 0)
(-0.0327784 0.0323976 0)
(-0.0438636 0.0303005 0)
(-0.0535599 0.0271272 0)
(-0.0619811 0.023588 0)
(-0.0691583 0.0199065 0)
(-0.0750398 0.0160875 0)
(-0.0795164 0.0121144 0)
(-0.082486 0.00795977 0)
(-0.0838731 0.0035247 0)
(-0.0835912 -0.00140216 0)
(-0.0815647 -0.00697739 0)
(-0.0777752 -0.0132098 0)
(-0.0723387 -0.0197282 0)
(-0.0656174 -0.025744 0)
(-0.0580968 -0.030347 0)
(-0.0506773 -0.0332341 0)
(-0.0451843 -0.0344254 0)
(-0.0436546 -0.0340671 0)
(-0.0461232 -0.0318479 0)
(-0.0500694 -0.0211217 0)
(-0.0350159 0.0195746 0)
(-0.00934661 0.0365953 0)
(-0.0231859 0.0387672 0)
(-0.0357549 0.038122 0)
(-0.0473623 0.0353531 0)
(-0.0574119 0.0315214 0)
(-0.066023 0.0273446 0)
(-0.0732426 0.0230185 0)
(-0.079001 0.0185068 0)
(-0.0831656 0.0137884 0)
(-0.0856244 0.00884816 0)
(-0.0863229 0.00360095 0)
(-0.0852112 -0.00216826 0)
(-0.0822732 -0.00860109 0)
(-0.0775657 -0.0156508 0)
(-0.0712883 -0.0228484 0)
(-0.0639518 -0.0292719 0)
(-0.0563313 -0.0338787 0)
(-0.0496326 -0.0360455 0)
(-0.0458571 -0.0354853 0)
(-0.0472359 -0.0325702 0)
(-0.054239 -0.0284752 0)
(-0.0662589 -0.0234151 0)
(-0.0692899 -0.0122956 0)
(-0.0307252 0.00758247 0)
(-0.0175541 -0.0107562 0)
(0.0169055 -0.0124279 0)
(0.047129 -0.0107983 0)
(0.0739006 -0.00910441 0)
(0.0968941 -0.0074485 0)
(0.112124 -0.00454258 0)
(0.117234 -0.000893541 0)
(0.105108 0.00851154 0)
(0.0598419 0.0161437 0)
(0.0151438 0.00646058 0)
(0.00818876 0.00300498 0)
(-0.00489925 0.0116817 0)
(-0.0633617 0.0171567 0)
(-0.117869 0.0108927 0)
(-0.13075 -0.00357428 0)
(-0.103752 -0.014403 0)
(-0.0626765 -0.0164114 0)
(-0.0179617 -0.00878692 0)
(-0.0155147 0.0153226 0)
(0.00391848 -0.0172311 0)
(0.0252473 -0.0202155 0)
(0.0448995 -0.0179648 0)
(0.0635555 -0.015546 0)
(0.0800347 -0.0119389 0)
(0.0884587 -0.00502907 0)
(0.0858412 0.00257732 0)
(0.0789944 0.01708 0)
(0.0551067 0.0287139 0)
(0.0232677 0.0150915 0)
(0.00974308 0.0090221 0)
(-0.00466151 0.0224594 0)
(-0.0477583 0.0337155 0)
(-0.0868772 0.0236144 0)
(-0.0941796 -0.00178157 0)
(-0.0856387 -0.0204251 0)
(-0.0647091 -0.0289387 0)
(-0.0304245 -0.0254869 0)
(0.00372752 0.0137989 0)
(0.015843 -0.0230914 0)
(0.0275222 -0.0260766 0)
(0.0400163 -0.0237962 0)
(0.0533012 -0.0211545 0)
(0.0655226 -0.0157617 0)
(0.0701015 -0.00490974 0)
(0.0636381 0.00564692 0)
(0.0542457 0.0217057 0)
(0.0404484 0.0359405 0)
(0.022013 0.0225181 0)
(0.00951108 0.0150692 0)
(-0.00297285 0.0309791 0)
(-0.0266469 0.0447718 0)
(-0.0510826 0.0323086 0)
(-0.0630195 0.000379264 0)
(-0.0634336 -0.0235161 0)
(-0.0547797 -0.0380425 0)
(-0.0295478 -0.0459393 0)
(0.0152363 0.00716123 0)
(0.0210706 -0.0266286 0)
(0.0257899 -0.0297538 0)
(0.0330747 -0.0281688 0)
(0.0424102 -0.0257049 0)
(0.0518131 -0.0187137 0)
(0.0541212 -0.00388691 0)
(0.0460748 0.00952537 0)
(0.0361012 0.0260116 0)
(0.0281111 0.0401937 0)
(0.0188623 0.0280064 0)
(0.00911273 0.0199319 0)
(-2.95313e-05 0.0368036 0)
(-0.0102027 0.050929 0)
(-0.0226236 0.0391405 0)
(-0.0343159 0.00448447 0)
(-0.0395355 -0.0240359 0)
(-0.0387731 -0.0432376 0)
(-0.0211366 -0.062374 0)
(0.0192552 -0.00206007 0)
(0.0201137 -0.027802 0)
(0.0202822 -0.0312673 0)
(0.023951 -0.0310223 0)
(0.0303718 -0.0291692 0)
(0.0380349 -0.0210026 0)
(0.0393422 -0.00221315 0)
(0.0306904 0.0134625 0)
(0.0216196 0.0295303 0)
(0.0182969 0.0419429 0)
(0.0153497 0.03137 0)
(0.00947591 0.0232791 0)
(0.00476512 0.0396899 0)
(0.00303113 0.0530398 0)
(-0.000452778 0.0431136 0)
(-0.00870128 0.0086938 0)
(-0.016119 -0.0224898 0)
(-0.0208726 -0.0449279 0)
(-0.0102845 -0.0726817 0)
(0.016241 -0.0103002 0)
(0.013334 -0.0270475 0)
(0.0113512 -0.0313506 0)
(0.0128429 -0.0327182 0)
(0.0171462 -0.0317849 0)
(0.023771 -0.0230498 0)
(0.025215 -0.000295114 0)
(0.0168946 0.0171544 0)
(0.00990245 0.0316165 0)
(0.0109446 0.0418061 0)
(0.0129462 0.0324959 0)
(0.0104988 0.0250512 0)
(0.00940502 0.0398357 0)
(0.0135474 0.0523809 0)
(0.0164897 0.0442941 0)
(0.0127062 0.0121606 0)
(0.00479325 -0.0195504 0)
(-0.00372417 -0.0441024 0)
(0.000483601 -0.0767528 0)
(0.00386557 -0.0125409 0)
(0.00182105 -0.0255343 0)
(-0.000173767 -0.0309274 0)
(0.000257596 -0.0336673 0)
(0.00294632 -0.033777 0)
(0.00870073 -0.0251606 0)
(0.0112986 0.0012731 0)
(0.00503703 0.0201896 0)
(0.000782977 0.0321043 0)
(0.00562545 0.0398762 0)
(0.0118543 0.03176 0)
(0.0120274 0.0256962 0)
(0.0136501 0.03802 0)
(0.0215277 0.0496727 0)
(0.0291597 0.043254 0)
(0.0295361 0.0144439 0)
(0.022027 -0.0157916 0)
(0.0112843 -0.0416584 0)
(0.01005 -0.0747953 0)
(-0.0171419 -0.0103469 0)
(-0.0121839 -0.0249907 0)
(-0.0129709 -0.0307092 0)
(-0.0130004 -0.034101 0)
(-0.0118391 -0.0351011 0)
(-0.00738272 -0.0272994 0)
(-0.00289402 0.00159439 0)
(-0.00503339 0.0219578 0)
(-0.00578495 0.0310588 0)
(0.00239459 0.036357 0)
(0.011455 0.0297214 0)
(0.0141244 0.025319 0)
(0.0176968 0.0351933 0)
(0.0273711 0.0454807 0)
(0.0380979 0.0403654 0)
(0.041517 0.0156655 0)
(0.034903 -0.011779 0)
(0.0234499 -0.0375188 0)
(0.0179371 -0.0684616 0)
(-0.0116082 0.049944 0)
(-0.0266967 0.0502068 0)
(-0.04053 0.0480283 0)
(-0.0530359 0.0439134 0)
(-0.063707 0.0388403 0)
(-0.0726214 0.0334581 0)
(-0.0798271 0.0279063 0)
(-0.085234 0.0220704 0)
(-0.0886884 0.0159413 0)
(-0.0900814 0.00954176 0)
(-0.0894102 0.00283835 0)
(-0.0867139 -0.00439436 0)
(-0.0820929 -0.0122405 0)
(-0.0757587 -0.0205554 0)
(-0.0680816 -0.0286667 0)
(-0.0598246 -0.0353464 0)
(-0.0521423 -0.0392462 0)
(-0.0465392 -0.039377 0)
(-0.0450371 -0.0351012 0)
(-0.0496808 -0.0271728 0)
(-0.0608749 -0.0187219 0)
(-0.0780449 -0.0154253 0)
(-0.0964907 -0.0216141 0)
(-0.0138457 0.0634236 0)
(-0.0298376 0.0656711 0)
(-0.0454245 0.061905 0)
(-0.0594003 0.055946 0)
(-0.0712176 0.0490324 0)
(-0.08065 0.0417075 0)
(-0.087646 0.0341267 0)
(-0.0922294 0.0261368 0)
(-0.0943806 0.0177751 0)
(-0.0940668 0.00906102 0)
(-0.0914086 9.36798e-05 0)
(-0.0866007 -0.00916016 0)
(-0.0799419 -0.0186503 0)
(-0.071918 -0.0281809 0)
(-0.0631267 -0.0367773 0)
(-0.0546273 -0.042731 0)
(-0.0478392 -0.0445705 0)
(-0.0442405 -0.0414806 0)
(-0.0451926 -0.032872 0)
(-0.0511594 -0.0200336 0)
(-0.0604091 -0.00790214 0)
(-0.0704399 -0.00384047 0)
(-0.0791415 -0.0123265 0)
(-0.0169019 0.0802027 0)
(-0.0295952 0.0799834 0)
(-0.0466604 0.0735629 0)
(-0.0632946 0.0655119 0)
(-0.0776664 0.0569311 0)
(-0.0880131 0.0480248 0)
(-0.0938515 0.0388339 0)
(-0.0962087 0.0290815 0)
(-0.0961635 0.0188953 0)
(-0.0938779 0.00828645 0)
(-0.0891096 -0.0023967 0)
(-0.0822004 -0.0131272 0)
(-0.0739597 -0.0238222 0)
(-0.0652775 -0.0341272 0)
(-0.05684 -0.0427272 0)
(-0.0497201 -0.0479009 0)
(-0.0449752 -0.0483887 0)
(-0.0440509 -0.0428132 0)
(-0.048638 -0.0305927 0)
(-0.0565603 -0.0138602 0)
(-0.0611138 0.000399777 0)
(-0.0586523 0.00438847 0)
(-0.0539618 -0.00362377 0)
(-0.020747 0.101046 0)
(-0.0186089 0.0930516 0)
(-0.0406707 0.0857118 0)
(-0.066339 0.0763194 0)
(-0.0894535 0.0658509 0)
(-0.103142 0.0536801 0)
(-0.104794 0.0410263 0)
(-0.0998552 0.0289935 0)
(-0.0942476 0.0173751 0)
(-0.0885904 0.00440218 0)
(-0.0800418 -0.00845672 0)
(-0.0692155 -0.020765 0)
(-0.0589022 -0.0317015 0)
(-0.0511269 -0.0412034 0)
(-0.0455914 -0.0481937 0)
(-0.0429418 -0.0506168 0)
(-0.045121 -0.0493235 0)
(-0.0525041 -0.0406224 0)
(-0.0708177 -0.024233 0)
(-0.090599 -0.00554836 0)
(-0.0888624 0.000720854 0)
(-0.0581803 -0.00775649 0)
(-0.0201484 -0.00824809 0)
(-0.0303631 0.128205 0)
(-0.0262789 0.122271 0)
(-0.0627449 0.136623 0)
(-0.137319 0.131813 0)
(-0.204008 0.112044 0)
(-0.232262 0.0645174 0)
(-0.212259 0.0285176 0)
(-0.181275 0.0125994 0)
(-0.149871 0.00226613 0)
(-0.122089 -0.0129562 0)
(-0.0961047 -0.0315898 0)
(-0.0710848 -0.0471125 0)
(-0.0527792 -0.0506065 0)
(-0.0473055 -0.0493736 0)
(-0.0563731 -0.0561395 0)
(-0.0526457 -0.0574153 0)
(-0.0391104 -0.0457837 0)
(-0.0563585 -0.00639856 0)
(-0.110286 0.0321221 0)
(-0.146251 0.0147693 0)
(-0.113051 -0.0473197 0)
(-0.0646866 -0.070626 0)
(-0.0258405 -0.0539869 0)
(-0.0840621 0.157465 0)
(-0.11207 0.158411 0)
(-0.157053 0.216578 0)
(-0.229057 0.228395 0)
(-0.29705 0.162692 0)
(-0.297226 0.054851 0)
(-0.277492 -0.00656666 0)
(-0.244797 -0.0310252 0)
(-0.210271 -0.0375814 0)
(-0.181095 -0.0452803 0)
(-0.156672 -0.0613433 0)
(-0.137688 -0.0676162 0)
(-0.126102 -0.0528656 0)
(-0.123082 -0.0306521 0)
(-0.11649 -0.0598357 0)
(-0.0905933 -0.080799 0)
(-0.0597513 -0.056615 0)
(-0.04909 0.0186804 0)
(-0.0770721 0.0731008 0)
(-0.0931782 0.00523588 0)
(-0.0788116 -0.0774134 0)
(-0.0549433 -0.097641 0)
(-0.041737 -0.0694896 0)
(-0.120168 0.260698 0)
(-0.17438 0.210907 0)
(-0.217276 0.246868 0)
(-0.242794 0.263073 0)
(-0.269265 0.203625 0)
(-0.268787 0.0498128 0)
(-0.259389 -0.025985 0)
(-0.242877 -0.0520393 0)
(-0.224757 -0.0569855 0)
(-0.208245 -0.0604869 0)
(-0.198023 -0.0725351 0)
(-0.197962 -0.0721025 0)
(-0.204181 -0.0553092 0)
(-0.194229 -0.0548854 0)
(-0.158951 -0.0934107 0)
(-0.127492 -0.111413 0)
(-0.0987405 -0.0825248 0)
(-0.0668327 -0.00332704 0)
(-0.044178 0.0792888 0)
(-0.0438026 0.00448641 0)
(-0.0425427 -0.0851261 0)
(-0.0451039 -0.109051 0)
(-0.0491516 -0.0689093 0)
(-0.118773 0.402748 0)
(-0.187801 0.284468 0)
(-0.23696 0.268113 0)
(-0.249519 0.268382 0)
(-0.245811 0.204361 0)
(-0.227439 0.0466759 0)
(-0.21756 -0.0463978 0)
(-0.214763 -0.0650379 0)
(-0.212743 -0.0650569 0)
(-0.205054 -0.0645035 0)
(-0.206981 -0.074538 0)
(-0.231206 -0.0644709 0)
(-0.229924 -0.0649556 0)
(-0.210882 -0.0819083 0)
(-0.184141 -0.116947 0)
(-0.158244 -0.135905 0)
(-0.135378 -0.104474 0)
(-0.111922 -0.0310017 0)
(-0.0720474 0.0504463 0)
(-0.0223706 0.00784085 0)
(-0.014156 -0.0862262 0)
(-0.0647028 -0.101121 0)
(-0.0931925 -0.0377118 0)
(-0.0839968 0.538425 0)
(-0.142629 0.389109 0)
(-0.214698 0.306909 0)
(-0.244691 0.274861 0)
(-0.239173 0.184593 0)
(-0.214702 0.0272248 0)
(-0.198998 -0.0629594 0)
(-0.190718 -0.0787547 0)
(-0.180014 -0.0763174 0)
(-0.180319 -0.0716969 0)
(-0.187469 -0.059526 0)
(-0.195361 -0.0460222 0)
(-0.205193 -0.0670342 0)
(-0.19604 -0.0924639 0)
(-0.184282 -0.137598 0)
(-0.176529 -0.156594 0)
(-0.171894 -0.12673 0)
(-0.164975 -0.0548773 0)
(-0.122792 0.00622304 0)
(-0.0822309 -0.0228768 0)
(-0.0883401 -0.0596616 0)
(-0.109965 -0.0576503 0)
(-0.121528 -0.0332391 0)
(-0.0503581 0.613958 0)
(-0.0940655 0.464623 0)
(-0.158577 0.367733 0)
(-0.192705 0.290037 0)
(-0.190698 0.161343 0)
(-0.178185 0.0156833 0)
(-0.170799 -0.0667174 0)
(-0.169944 -0.083136 0)
(-0.162759 -0.0767439 0)
(-0.158312 -0.0658464 0)
(-0.160564 -0.0492396 0)
(-0.163383 -0.0459377 0)
(-0.168009 -0.0649997 0)
(-0.169514 -0.101373 0)
(-0.168002 -0.145008 0)
(-0.177389 -0.162807 0)
(-0.188472 -0.133097 0)
(-0.17783 -0.0811058 0)
(-0.154046 -0.0421378 0)
(-0.131843 -0.0406929 0)
(-0.128457 -0.051653 0)
(-0.134104 -0.0502351 0)
(-0.133645 -0.0390055 0)
(-0.0219263 0.654379 0)
(-0.0440229 0.513074 0)
(-0.0871097 0.409799 0)
(-0.108595 0.307148 0)
(-0.112502 0.158616 0)
(-0.112977 0.0163638 0)
(-0.12391 -0.0592736 0)
(-0.138428 -0.0788724 0)
(-0.146216 -0.0757506 0)
(-0.149122 -0.0676036 0)
(-0.147647 -0.0518782 0)
(-0.141619 -0.0485661 0)
(-0.141905 -0.0582741 0)
(-0.14819 -0.0949965 0)
(-0.155014 -0.134637 0)
(-0.162635 -0.148789 0)
(-0.169081 -0.128384 0)
(-0.169003 -0.086515 0)
(-0.159372 -0.0558029 0)
(-0.148098 -0.0484586 0)
(-0.143532 -0.0527564 0)
(-0.141948 -0.0521742 0)
(-0.136312 -0.0473374 0)
(0.00389741 0.663428 0)
(0.00431481 0.542635 0)
(-0.0159636 0.43099 0)
(-0.0200388 0.316468 0)
(-0.0247019 0.16715 0)
(-0.0375 0.0277068 0)
(-0.0669517 -0.0445289 0)
(-0.0994778 -0.0659723 0)
(-0.123684 -0.0662907 0)
(-0.133325 -0.0629559 0)
(-0.131671 -0.0559575 0)
(-0.126104 -0.0548418 0)
(-0.122188 -0.0576711 0)
(-0.124391 -0.0875739 0)
(-0.133692 -0.124954 0)
(-0.145593 -0.138387 0)
(-0.155232 -0.122803 0)
(-0.158634 -0.0885431 0)
(-0.153802 -0.0630445 0)
(-0.146114 -0.0547511 0)
(-0.141288 -0.0564774 0)
(-0.137573 -0.0573052 0)
(-0.130828 -0.0564644 0)
(0.0245928 0.636587 0)
(0.0446744 0.552485 0)
(0.0433132 0.433094 0)
(0.0507281 0.315877 0)
(0.0488072 0.180471 0)
(0.0259266 0.0565218 0)
(-0.015952 -0.00762317 0)
(-0.0496157 -0.0317215 0)
(-0.0728395 -0.0455644 0)
(-0.0892561 -0.0556239 0)
(-0.0983909 -0.0573981 0)
(-0.100767 -0.0570791 0)
(-0.097594 -0.0601018 0)
(-0.0969431 -0.0820488 0)
(-0.106281 -0.113046 0)
(-0.122016 -0.126429 0)
(-0.137006 -0.114061 0)
(-0.142216 -0.0875449 0)
(-0.138394 -0.0686384 0)
(-0.131869 -0.0606645 0)
(-0.127096 -0.060623 0)
(-0.123462 -0.0623364 0)
(-0.118258 -0.0641646 0)
(0.0373493 0.58462 0)
(0.0718067 0.541317 0)
(0.0840076 0.421994 0)
(0.0959973 0.309263 0)
(0.0944383 0.193798 0)
(0.0713889 0.0955505 0)
(0.0363906 0.0322457 0)
(0.00513882 -0.0033123 0)
(-0.0184188 -0.0248367 0)
(-0.0363883 -0.0395642 0)
(-0.0494901 -0.04844 0)
(-0.057292 -0.054182 0)
(-0.060529 -0.0614041 0)
(-0.0638729 -0.0774368 0)
(-0.0741232 -0.098499 0)
(-0.0910582 -0.109471 0)
(-0.105886 -0.102041 0)
(-0.112804 -0.0865068 0)
(-0.112193 -0.0729693 0)
(-0.108378 -0.0656935 0)
(-0.10494 -0.0642247 0)
(-0.102481 -0.0657516 0)
(-0.0999214 -0.0688664 0)
(0.0421671 0.520123 0)
(0.0855846 0.513882 0)
(0.107553 0.404214 0)
(0.122196 0.301432 0)
(0.122854 0.204561 0)
(0.106327 0.122003 0)
(0.0797773 0.0620911 0)
(0.0530945 0.0224961 0)
(0.0303839 -0.00408048 0)
(0.0116321 -0.0228244 0)
(-0.00336897 -0.0359456 0)
(-0.014423 -0.0459162 0)
(-0.0221669 -0.0560216 0)
(-0.0296339 -0.0696087 0)
(-0.0409489 -0.0844815 0)
(-0.0561559 -0.093072 0)
(-0.070127 -0.0910312 0)
(-0.0784504 -0.0825321 0)
(-0.0810491 -0.0737113 0)
(-0.0804407 -0.0680912 0)
(-0.0790795 -0.0663137 0)
(-0.0781499 -0.0673997 0)
(-0.0778426 -0.0703973 0)
(0.0410409 0.453826 0)
(0.0886557 0.475968 0)
(0.117604 0.382234 0)
(0.13485 0.29199 0)
(0.138857 0.21029 0)
(0.129145 0.140113 0)
(0.110506 0.0853705 0)
(0.0892847 0.0452754 0)
(0.0691461 0.0160836 0)
(0.0511822 -0.00559786 0)
(0.035758 -0.0219065 0)
(0.0230705 -0.0349067 0)
(0.0126345 -0.0468052 0)
(0.00262463 -0.0593276 0)
(-0.00924227 -0.0712784 0)
(-0.0229697 -0.0789022 0)
(-0.0357172 -0.0799282 0)
(-0.0447474 -0.0762455 0)
(-0.0496415 -0.0713446 0)
(-0.0517189 -0.0677475 0)
(-0.052606 -0.0664029 0)
(-0.0534166 -0.0672128 0)
(-0.0546446 -0.0697895 0)
(0.0363918 0.392118 0)
(0.0843095 0.432389 0)
(0.117606 0.356695 0)
(0.137348 0.279798 0)
(0.144734 0.210913 0)
(0.140804 0.151179 0)
(0.128885 0.10222 0)
(0.113166 0.0637661 0)
(0.0966219 0.0339375 0)
(0.0807155 0.0106733 0)
(0.0661545 -0.00766999 0)
(0.053257 -0.0226419 0)
(0.0417763 -0.0357217 0)
(0.0307205 -0.0478985 0)
(0.0189287 -0.0586199 0)
(0.00643117 -0.0660764 0)
(-0.00522559 -0.0691538 0)
(-0.0144057 -0.0687555 0)
(-0.0206692 -0.0668584 0)
(-0.024658 -0.0651667 0)
(-0.0273879 -0.0646026 0)
(-0.0297562 -0.0654353 0)
(-0.0323328 -0.0676585 0)
(0.0302638 0.33801 0)
(0.0756669 0.387075 0)
(0.110806 0.328595 0)
(0.132468 0.26489 0)
(0.142759 0.207225 0)
(0.14343 0.156483 0)
(0.136979 0.11332 0)
(0.126285 0.0776618 0)
(0.113651 0.0486049 0)
(0.100519 0.0249686 0)
(0.0877269 0.00563978 0)
(0.0757013 -0.0104512 0)
(0.0644374 -0.0242729 0)
(0.0534817 -0.0364419 0)
(0.0423071 -0.0467696 0)
(0.0309905 -0.0544419 0)
(0.0203843 -0.0589568 0)
(0.0114475 -0.060802 0)
(0.00454549 -0.0611172 0)
(-0.000607069 -0.061033 0)
(-0.00462168 -0.061318 0)
(-0.00816401 -0.0623737 0)
(-0.0117692 -0.0643946 0)
(0.024139 0.29247 0)
(0.0653075 0.343154 0)
(0.100127 0.299414 0)
(0.1228 0.247951 0)
(0.135301 0.200183 0)
(0.139502 0.157262 0)
(0.137379 0.119591 0)
(0.130998 0.0872318 0)
(0.122116 0.0598091 0)
(0.111995 0.0367035 0)
(0.101462 0.0172352 0)
(0.0910042 0.000718607 0)
(0.0807862 -0.0134589 0)
(0.0706922 -0.0256936 0)
(0.0605462 -0.0359719 0)
(0.0504625 -0.0439702 0)
(0.0409395 -0.0495065 0)
(0.0325473 -0.0528868 0)
(0.0255598 -0.0547963 0)
(0.0198685 -0.0559848 0)
(0.0151152 -0.0570518 0)
(0.0108286 -0.0584082 0)
(0.00656109 -0.0603361 0)
(0.0189065 0.255109 0)
(0.055067 0.302716 0)
(0.0879555 0.270611 0)
(0.110675 0.22984 0)
(0.124623 0.190692 0)
(0.131414 0.154587 0)
(0.132617 0.121969 0)
(0.129769 0.09303 0)
(0.124212 0.0676986 0)
(0.116992 0.0457128 0)
(0.108862 0.026712 0)
(0.100313 0.0102982 0)
(0.0916054 -0.00389603 0)
(0.0828137 -0.0161184 0)
(0.0739557 -0.0264203 0)
(0.0651722 -0.0347069 0)
(0.0567839 -0.0409517 0)
(0.049147 -0.0453727 0)
(0.042462 -0.0484046 0)
(0.0367048 -0.0505527 0)
(0.0316735 -0.0522723 0)
(0.0270439 -0.0539332 0)
(0.0224637 -0.0558384 0)
(0.0149186 0.224684 0)
(0.0460288 0.266773 0)
(0.0760358 0.243285 0)
(0.0980074 0.211372 0)
(0.112675 0.179576 0)
(0.121222 0.149385 0)
(0.124868 0.121329 0)
(0.124781 0.0957122 0)
(0.121999 0.0726538 0)
(0.117369 0.052122 0)
(0.111538 0.0339824 0)
(0.104968 0.0180436 0)
(0.0979525 0.00411001 0)
(0.0906611 -0.00796261 0)
(0.0832117 -0.0182314 0)
(0.0757603 -0.0266966 0)
(0.0685379 -0.0333982 0)
(0.0617849 -0.038503 0)
(0.055653 -0.0423019 0)
(0.0501592 -0.0451432 0)
(0.0451969 -0.0473701 0)
(0.0405484 -0.0492975 0)
(0.0359458 -0.051216 0)
(0.0121416 0.199652 0)
(0.0386603 0.235474 0)
(0.0654642 0.218072 0)
(0.0861696 0.193213 0)
(0.100929 0.16757 0)
(0.110494 0.142467 0)
(0.115802 0.118466 0)
(0.11776 0.0959471 0)
(0.117177 0.0751589 0)
(0.114728 0.0562244 0)
(0.11095 0.0391674 0)
(0.106249 0.0239428 0)
(0.100916 0.0104751 0)
(0.0951526 -0.00130425 0)
(0.0891195 -0.0114354 0)
(0.0829788 -0.0199473 0)
(0.0769139 -0.0268997 0)
(0.0711027 -0.0324229 0)
(0.0656672 -0.0367197 0)
(0.0606453 -0.0400365 0)
(0.0559892 -0.0426328 0)
(0.0515569 -0.04477 0)
(0.0471494 -0.0467135 0)
(0.0103202 0.178581 0)
(0.0329843 0.208396 0)
(0.0567471 0.195173 0)
(0.0759474 0.175838 0)
(0.0903011 0.155307 0)
(0.100249 0.13455 0)
(0.106546 0.114088 0)
(0.109921 0.0943613 0)
(0.111002 0.0757152 0)
(0.110312 0.0583839 0)
(0.10828 0.0425018 0)
(0.105244 0.0281252 0)
(0.101465 0.0152611 0)
(0.0971465 0.00389588 0)
(0.0924568 -0.00598851 0)
(0.0875553 -0.01442 0)
(0.0825983 -0.0214556 0)
(0.0777285 -0.027196 0)
(0.0730507 -0.0317867 0)
(0.0686145 -0.0354057 0)
(0.0644091 -0.0382509 0)
(0.0603459 -0.0405374 0)
(0.0562797 -0.0425019 0)
(0.00908136 0.160385 0)
(0.0287239 0.184822 0)
(0.0498884 0.174462 0)
(0.0675569 0.159536 0)
(0.0811414 0.143311 0)
(0.090956 0.126241 0)
(0.0977068 0.108795 0)
(0.101998 0.0914955 0)
(0.104298 0.0747796 0)
(0.104991 0.0589657 0)
(0.104398 0.0442627 0)
(0.102787 0.030792 0)
(0.100379 0.0186142 0)
(0.0973583 0.00775272 0)
(0.0938879 -0.00179043 0)
(0.0901167 -0.0100324 0)
(0.0861837 -0.0170182 0)
(0.0822109 -0.0228235 0)
(0.0782929 -0.027554 0)
(0.0744861 -0.0313402 0)
(0.0708037 -0.0343346 0)
(0.0671944 -0.0367141 0)
(0.0635539 -0.0386881 0)
(0.00814769 0.144307 0)
(0.0254166 0.163968 0)
(0.0444388 0.155573 0)
(0.0606492 0.144424 0)
(0.0732476 0.131979 0)
(0.0825896 0.118 0)
(0.0894529 0.103031 0)
(0.0943316 0.0877574 0)
(0.0975359 0.0727182 0)
(0.0993148 0.0582892 0)
(0.0998918 0.0447202 0)
(0.0994691 0.0321671 0)
(0.0982286 0.0207193 0)
(0.0963327 0.0104225 0)
(0.0939299 0.00129375 0)
(0.0911578 -0.00667232 0)
(0.088142 -0.0135063 0)
(0.0849919 -0.0192626 0)
(0.0817952 -0.0240178 0)
(0.0786127 -0.0278685 0)
(0.0754727 -0.030933 0)
(0.0723503 -0.0333572 0)
(0.0691715 -0.035326 0)
(0.00748723 0.12987 0)
(0.0226298 0.14533 0)
(0.0395116 0.138446 0)
(0.0542115 0.130414 0)
(0.0658911 0.121467 0)
(0.0747362 0.110029 0)
(0.0816569 0.0970037 0)
(0.0870097 0.083378 0)
(0.0909439 0.069778 0)
(0.0935983 0.0566031 0)
(0.0951237 0.0441115 0)
(0.0956746 0.0324671 0)
(0.0954023 0.02177 0)
(0.0944504 0.0120767 0)
(0.0929543 0.00341446 0)
(0.0910401 -0.0042118 0)
(0.0888233 -0.0108186 0)
(0.0864041 -0.0164428 0)
(0.0838654 -0.0211385 0)
(0.0812702 -0.0249773 0)
(0.0786563 -0.0280513 0)
(0.0760174 -0.030481 0)
(0.0733012 -0.0324299 0)
(0.00650427 0.117197 0)
(0.0196255 0.12885 0)
(0.0342897 0.123417 0)
(0.0472238 0.117627 0)
(0.0580973 0.111602 0)
(0.0669054 0.102122 0)
(0.0741656 0.0906355 0)
(0.0800552 0.078407 0)
(0.0846414 0.0660964 0)
(0.0880174 0.0540918 0)
(0.0903035 0.0426377 0)
(0.0916323 0.0318915 0)
(0.0921391 0.0219539 0)
(0.0919556 0.0128867 0)
(0.0912069 0.00472456 0)
(0.0900101 -0.00251815 0)
(0.0884716 -0.00884532 0)
(0.0866844 -0.0142789 0)
(0.0847274 -0.0188554 0)
(0.0826638 -0.0226268 0)
(0.0805374 -0.0256651 0)
(0.0783546 -0.0280699 0)
(0.0760785 -0.0299856 0)
(0.00487561 0.10681 0)
(0.0162678 0.114496 0)
(0.0289386 0.110456 0)
(0.0400864 0.106356 0)
(0.0502241 0.101897 0)
(0.0593791 0.0938373 0)
(0.0671855 0.0837339 0)
(0.0736177 0.0728382 0)
(0.0787476 0.0617787 0)
(0.0826819 0.0509178 0)
(0.0855438 0.0404837 0)
(0.0874631 0.0306272 0)
(0.0885695 0.0214493 0)
(0.0889882 0.0130167 0)
(0.0888366 0.00537188 0)
(0.0882233 -0.00146155 0)
(0.0872468 -0.00747593 0)
(0.0859934 -0.0126803 0)
(0.0845373 -0.0170966 0)
(0.082941 -0.0207621 0)
(0.0812509 -0.0237321 0)
(0.0794824 -0.0260896 0)
(0.0776096 -0.0279611 0)
(0.0047163 0.09806 0)
(0.0140407 0.102619 0)
(0.0243049 0.0994259 0)
(0.0341022 0.0963171 0)
(0.0438231 0.0921297 0)
(0.0531116 0.0851224 0)
(0.0611941 0.0763648 0)
(0.0679241 0.0668096 0)
(0.0733712 0.0570008 0)
(0.0776496 0.0472715 0)
(0.0808866 0.0378399 0)
(0.0832107 0.0288561 0)
(0.0847472 0.0204249 0)
(0.0856146 0.0126205 0)
(0.0859225 0.00549432 0)
(0.0857706 -0.000920279 0)
(0.0852489 -0.00660486 0)
(0.0844364 -0.0115571 0)
(0.0834019 -0.0157875 0)
(0.0822058 -0.0193211 0)
(0.0808955 -0.0222008 0)
(0.079492 -0.0244949 0)
(0.0779774 -0.0263141 0)
(0.00545839 0.0896066 0)
(0.0131094 0.0932407 0)
(0.0214975 0.0900673 0)
(0.0304373 0.0869327 0)
(0.0396846 0.082622 0)
(0.048551 0.0764479 0)
(0.0563987 0.0689193 0)
(0.0630463 0.0606358 0)
(0.0685162 0.0520235 0)
(0.0728996 0.0433768 0)
(0.0763091 0.0349031 0)
(0.0788623 0.0267528 0)
(0.0806744 0.0190368 0)
(0.0818537 0.0118374 0)
(0.0824995 0.00521578 0)
(0.0827011 -0.000784703 0)
(0.0825386 -0.00613575 0)
(0.0820823 -0.0108254 0)
(0.081395 -0.0148552 0)
(0.0805335 -0.0182409 0)
(0.0795448 -0.0210155 0)
(0.0784537 -0.0232357 0)
(0.0772485 -0.0249973 0)
(0.00542254 0.0810599 0)
(0.0126301 0.0851247 0)
(0.0204803 0.0816874 0)
(0.0287812 0.0781392 0)
(0.0372315 0.073828 0)
(0.0453014 0.068333 0)
(0.052554 0.0618297 0)
(0.0588101 0.0546539 0)
(0.0640507 0.0471125 0)
(0.0683308 0.0394497 0)
(0.0717373 0.0318546 0)
(0.0743686 0.0244737 0)
(0.0763242 0.0174215 0)
(0.0776989 0.0107879 0)
(0.0785792 0.00464315 0)
(0.079042 -0.000959646 0)
(0.0791556 -0.00598356 0)
(0.0789802 -0.0104091 0)
(0.0785714 -0.0142312 0)
(0.0779817 -0.0174597 0)
(0.0772571 -0.0201203 0)
(0.0764249 -0.0222601 0)
(0.0754787 -0.0239613 0)
(0.00530687 0.0727446 0)
(0.012484 0.0770703 0)
(0.0201415 0.0736983 0)
(0.0278657 0.07006 0)
(0.0354874 0.0659347 0)
(0.0426912 0.0610207 0)
(0.0492135 0.0553455 0)
(0.0549184 0.0490898 0)
(0.0597723 0.0424631 0)
(0.0638043 0.0356582 0)
(0.067077 0.0288399 0)
(0.0696688 0.022146 0)
(0.0716623 0.0156914 0)
(0.0731376 0.00957179 0)
(0.074167 0.00386583 0)
(0.0748137 -0.00136441 0)
(0.0751322 -0.00607446 0)
(0.075171 -0.0102396 0)
(0.0749775 -0.0138519 0)
(0.0745997 -0.0169181 0)
(0.0740826 -0.0194595 0)
(0.0734559 -0.0215158 0)
(0.0727183 -0.0231563 0)
(0.00523478 0.0646356 0)
(0.0123315 0.068961 0)
(0.0197568 0.0660326 0)
(0.0269363 0.0626709 0)
(0.0338038 0.0588963 0)
(0.0402002 0.0545223 0)
(0.0459937 0.049538 0)
(0.0511014 0.0440445 0)
(0.0554964 0.0381858 0)
(0.0591967 0.0321116 0)
(0.0622492 0.0259628 0)
(0.0647166 0.0198662 0)
(0.0666672 0.0139352 0)
(0.0681675 0.00826995 0)
(0.0692763 0.00295749 0)
(0.0700423 -0.00193095 0)
(0.0705044 -0.00634409 0)
(0.0706973 -0.010255 0)
(0.0706594 -0.0136571 0)
(0.070435 -0.0165583 0)
(0.0700693 -0.0189782 0)
(0.0695948 -0.0209506 0)
(0.0690157 -0.0225328 0)
(0.00509844 0.0567144 0)
(0.0119468 0.0610359 0)
(0.0190242 0.0587785 0)
(0.0256691 0.055917 0)
(0.0318651 0.0526075 0)
(0.0375468 0.0487652 0)
(0.0426682 0.0443867 0)
(0.0471928 0.0395393 0)
(0.0511103 0.0343282 0)
(0.0544386 0.0288723 0)
(0.0572173 0.0232924 0)
(0.0594998 0.0177052 0)
(0.0613447 0.012222 0)
(0.0628081 0.00694798 0)
(0.0639376 0.00197959 0)
(0.0647674 -0.00260089 0)
(0.0653184 -0.00673473 0)
(0.0656086 -0.0103967 0)
(0.0656671 -0.0135881 0)
(0.0655369 -0.0163228 0)
(0.0652655 -0.0186213 0)
(0.0648899 -0.0205127 0)
(0.0644205 -0.0220425 0)
(0.00484844 0.0491423 0)
(0.0112841 0.0534998 0)
(0.0179073 0.0520055 0)
(0.0240177 0.0497532 0)
(0.0296069 0.0469761 0)
(0.0346561 0.043666 0)
(0.0391699 0.0398411 0)
(0.0431462 0.0355587 0)
(0.0465922 0.0309032 0)
(0.049531 0.0259736 0)
(0.0520012 0.0208755 0)
(0.0540522 0.0157172 0)
(0.0557377 0.0106091 0)
(0.0571086 0.00566232 0)
(0.0582046 0.000986149 0)
(0.0590469 -0.00332178 0)
(0.0596348 -0.00719177 0)
(0.0599644 -0.0106062 0)
(0.0600566 -0.0135843 0)
(0.0599577 -0.0161519 0)
(0.0597219 -0.018333 0)
(0.0593923 -0.0201511 0)
(0.0589858 -0.0216389 0)
(0.0045014 0.0420822 0)
(0.0104247 0.0464924 0)
(0.0165256 0.0457604 0)
(0.0221001 0.0441522 0)
(0.0271247 0.041937 0)
(0.0316003 0.0391573 0)
(0.0355587 0.0358518 0)
(0.0390206 0.0320779 0)
(0.042007 0.0279103 0)
(0.0445474 0.0234354 0)
(0.0466816 0.0187481 0)
(0.0484585 0.0139498 0)
(0.0499312 0.00915007 0)
(0.051151 0.00446801 0)
(0.0521558 3.00514e-05 0)
(0.0529577 -0.00404231 0)
(0.0535283 -0.00765898 0)
(0.0538329 -0.0108199 0)
(0.0538875 -0.0135793 0)
(0.0537512 -0.0159828 0)
(0.0534906 -0.0180568 0)
(0.0531566 -0.0198166 0)
(0.0527713 -0.0212795 0)
(0.00411968 0.0356137 0)
(0.00952061 0.0400837 0)
(0.0150765 0.0400658 0)
(0.020119 0.0390973 0)
(0.0246036 0.0374503 0)
(0.0285418 0.0351938 0)
(0.0319803 0.032382 0)
(0.0349535 0.0290762 0)
(0.0374907 0.0253475 0)
(0.0396251 0.0212751 0)
(0.0413967 0.016945 0)
(0.0428543 0.0124522 0)
(0.0440533 0.00790418 0)
(0.0450511 0.00342731 0)
(0.0458931 -0.000829805 0)
(0.0465923 -0.00470805 0)
(0.0470829 -0.00807342 0)