/*--------------------------------*- C++ -*----------------------------------*\
| =========                 |                                                 |
| \\      /  F ield         | OpenFOAM: The Open Source CFD Toolbox           |
|  \\    /   O peration     | Version:  2.3.0                                 |
|   \\  /    A nd           | Web:      www.OpenFOAM.org                      |
|    \\/     M anipulation  |                                                 |
\*---------------------------------------------------------------------------*/
FoamFile
{
    version     2.0;
    format      ascii;
    class       volScalarField;
    location    "14";
    object      p;
}
// * * * * * * * * * * * * * * * * * * * * * * * * * * * * * * * * * * * * * //

dimensions      [0 2 -2 0 0 0 0];

internalField   nonuniform List<scalar> 
1720
(
0.000685198
0.000682861
0.000409633
0.000238302
0.000231212
0.000298378
0.000350665
0.000359489
0.00033704
0.000302984
0.000266915
0.000228394
0.000182609
0.000127508
6.26081e-05
-7.47841e-06
-7.96941e-05
-0.000153852
-0.000223
-0.000281968
-0.000330844
-0.000363778
-0.000393559
-0.000413467
-0.000485846
-0.000635052
-0.000786745
-0.00125007
-0.00267563
-0.00425278
-0.00561158
-0.00692455
-0.00827439
-0.00964576
-0.0110034
-0.012314
-0.0135437
-0.0146533
-0.0155955
-0.0163287
-0.0168096
-0.0170033
-0.0168969
-0.0164905
-0.0157836
-0.0147962
-0.0135631
-0.0121221
-0.0105205
-0.0088202
-0.00709263
-0.0053896
-0.00377311
-0.00233156
-0.00109515
-8.95268e-05
0.000382544
9.90926e-05
3.65149e-05
3.5498e-05
0.00214768
0.00189152
0.00109155
0.00070968
0.000747064
0.000925194
0.00104486
0.00105747
0.000997162
0.000906892
0.000807304
0.000694885
0.000559299
0.00039366
0.000198476
-1.7629e-05
-0.000244758
-0.000470777
-0.000681144
-0.000861752
-0.00100695
-0.00111096
-0.00118188
-0.00124503
-0.00132652
-0.00146379
-0.00155466
-0.00159799
-0.00166592
-0.00171514
-0.001855
-0.00191475
-0.00190545
-0.00188255
-0.00185845
-0.00181854
-0.00175018
-0.00164546
-0.00149889
-0.0013086
-0.00107282
-0.000785871
-0.00049189
-0.000168717
0.000153197
0.000453475
0.000714774
0.000914429
0.00104344
0.00110234
0.00109194
0.00102803
0.000935868
0.000798872
0.000664085
0.000596942
0.000540515
0.000388957
0.000297002
0.000154124
0.00375176
0.00296008
0.00167299
0.00120082
0.0013218
0.00158716
0.00174463
0.00175041
0.00165865
0.00152352
0.00136933
0.00118666
0.000961585
0.000681866
0.000349113
-2.63996e-05
-0.000426316
-0.000824813
-0.00119405
-0.00150884
-0.00175261
-0.00192096
-0.00202597
-0.00210502
-0.00217633
-0.00227103
-0.00236887
-0.00249072
-0.00284723
-0.00340361
-0.00382418
-0.00420816
-0.00459743
-0.00496861
-0.00529597
-0.00556443
-0.00576121
-0.00587344
-0.00589476
-0.00582247
-0.00564743
-0.00539262
-0.00505741
-0.00473613
-0.00437073
-0.00399292
-0.00360708
-0.00317502
-0.00274302
-0.00231418
-0.00188304
-0.00145211
-0.00103364
-0.000618793
-0.0002102
5.1328e-06
0.000402773
0.00053798
0.000440081
0.000177812
0.00507743
0.00398695
0.00227495
0.00172064
0.00193269
0.0022718
0.00245204
0.00244767
0.00233268
0.00216496
0.00196706
0.00171966
0.00140597
0.00100681
0.000526246
-2.68726e-05
-0.000627987
-0.00123691
-0.00180203
-0.00227367
-0.0026165
-0.00282919
-0.00294178
-0.00300473
-0.00305726
-0.00312649
-0.00321893
-0.00335468
-0.0035464
-0.00374536
-0.0040456
-0.00440134
-0.00474153
-0.00507006
-0.00539173
-0.00568912
-0.00593585
-0.00610731
-0.0061885
-0.00616182
-0.00602423
-0.0057863
-0.00544613
-0.00497262
-0.00442436
-0.00381897
-0.00317156
-0.00254809
-0.00194362
-0.00135805
-0.000811626
-0.000316128
0.000114425
0.000458747
0.000711655
0.000910988
0.000822698
0.000761832
0.000589309
0.000229242
0.00642332
0.0049609
0.00285724
0.00223864
0.00255302
0.00296543
0.00316776
0.00315904
0.00303309
0.00284783
0.0026196
0.00231524
0.00191473
0.00138737
0.000744005
-1.30515e-05
-0.000852184
-0.00172508
-0.00254825
-0.0032218
-0.00366762
-0.00389172
-0.00396459
-0.00397808
-0.00399083
-0.0040253
-0.00408872
-0.00416943
-0.00428111
-0.00446923
-0.00474061
-0.00503581
-0.00535905
-0.00569773
-0.00603639
-0.00635281
-0.00661677
-0.00679564
-0.00684827
-0.00674998
-0.00650927
-0.0061334
-0.00562196
-0.00498343
-0.0042881
-0.00356246
-0.00284797
-0.00218734
-0.00157344
-0.00101506
-0.000523522
-9.80765e-05
0.000258523
0.000544217
0.000775608
0.000943668
0.000992787
0.000940647
0.000737709
0.000279607
0.00774254
0.00585442
0.00340413
0.00274909
0.00317603
0.00366496
0.00389547
0.00389534
0.00377536
0.00359209
0.00334937
0.00300029
0.00251562
0.00184905
0.00101688
8.80649e-06
-0.00111418
-0.0023139
-0.00347261
-0.00440593
-0.00496225
-0.00515508
-0.00512956
-0.00505173
-0.0049966
-0.00497296
-0.0049694
-0.00497829
-0.00503265
-0.00516127
-0.00535936
-0.00562308
-0.00598177
-0.00639431
-0.00681464
-0.00720814
-0.00753219
-0.00774292
-0.00780492
-0.00768362
-0.00734654
-0.00681764
-0.00613586
-0.00535456
-0.00454064
-0.00373745
-0.00297699
-0.00226442
-0.00160814
-0.00101753
-0.000493376
-2.8694e-05
0.000378222
0.000724684
0.00100322
0.00119433
0.00125496
0.00114872
0.00088595
0.000322879
0.00900671
0.00667099
0.00392023
0.00326538
0.00380588
0.00436698
0.00463144
0.0046586
0.004569
0.00441531
0.00418012
0.00380737
0.00324393
0.00243396
0.00136868
1.77248e-05
-0.0014866
-0.00309117
-0.00464297
-0.00582892
-0.00644121
-0.00659035
-0.00644207
-0.00623314
-0.00606953
-0.00594297
-0.00583112
-0.00573696
-0.00570147
-0.00575433
-0.00590402
-0.00618023
-0.00657302
-0.00708984
-0.00763998
-0.00816417
-0.00859848
-0.0088833
-0.00897659
-0.00885354
-0.00848167
-0.00783817
-0.00699525
-0.00605845
-0.0050942
-0.00415104
-0.00325764
-0.00242787
-0.00167275
-0.000993894
-0.000388014
0.000141771
0.000587318
0.000942983
0.00120738
0.00136563
0.00137994
0.00124747
0.00093126
0.000384849
0.0101869
0.0073944
0.00438844
0.00380337
0.00445677
0.00506813
0.00536755
0.00544454
0.00541898
0.00533187
0.00514086
0.00477739
0.0041504
0.00320456
0.00185185
1.82927e-05
-0.00216091
-0.00440938
-0.0063275
-0.00755498
-0.0080251
-0.00795399
-0.00764335
-0.00734685
-0.00710188
-0.00685187
-0.00658895
-0.00635265
-0.00620474
-0.00616571
-0.00626455
-0.00655146
-0.007037
-0.00765585
-0.00838206
-0.00911584
-0.00975868
-0.0102189
-0.0104075
-0.0102613
-0.00983154
-0.00912051
-0.0081309
-0.00698412
-0.00579889
-0.00464329
-0.00355918
-0.00257512
-0.00170326
-0.000941931
-0.000288247
0.000256994
0.000699195
0.00104787
0.00130259
0.00143849
0.0014178
0.00125628
0.000899404
0.000442501
0.0112783
0.00808156
0.00466762
0.0043593
0.00514507
0.00576752
0.00610056
0.00624958
0.00632517
0.00634838
0.00626065
0.00595938
0.00531752
0.00424734
0.00255386
7.24363e-05
-0.00328167
-0.00724377
-0.0096043
-0.010287
-0.00988329
-0.00906386
-0.00839945
-0.00816299
-0.00787701
-0.0074839
-0.00705036
-0.00666713
-0.00641247
-0.0062647
-0.00628502
-0.00658029
-0.00712116
-0.00786881
-0.00879555
-0.00978363
-0.0107204
-0.0114849
-0.0119097
-0.0118805
-0.011419
-0.0105947
-0.0094412
-0.00805598
-0.0066008
-0.00519383
-0.00390554
-0.00277241
-0.00180157
-0.000983203
-0.000304944
0.000248033
0.000695881
0.00104657
0.00128705
0.00138747
0.00132806
0.00114442
0.000793014
0.000443279
0.0122611
0.00868217
0.0049754
0.0048433
0.00575635
0.0064335
0.00682146
0.00706224
0.00727016
0.00745186
0.00754327
0.00739534
0.0068615
0.00569158
0.0036725
3.07636e-05
-0.00444722
-0.0128425
-0.0163481
-0.0161608
-0.0135828
-0.0107142
-0.0087694
-0.00870508
-0.00834233
-0.00783418
-0.00730558
-0.00686036
-0.00653656
-0.00634
-0.00631959
-0.00656445
-0.0070979
-0.00791101
-0.0089654
-0.0101509
-0.0113126
-0.0123197
-0.0130287
-0.0133114
-0.0130227
-0.0121542
-0.010836
-0.0092252
-0.00750105
-0.00584089
-0.00435048
-0.00307564
-0.00201322
-0.00113849
-0.000429201
0.000138502
0.000587272
0.000919895
0.00111968
0.00116818
0.00107594
0.000894321
0.000600837
0.000366464
0.0131216
0.00919375
0.00528863
0.00524865
0.00627836
0.00703871
0.00750183
0.00785203
0.00821366
0.00860283
0.00894401
0.00908739
0.00885541
0.00783708
0.00578897
-0.000814821
-0.0058807
-0.012399
-0.00921753
-0.00874117
-0.00832241
-0.00795162
-0.00751427
-0.00712361
-0.00680599
-0.00660252
-0.00656094
-0.00675934
-0.00725791
-0.0080793
-0.00919156
-0.0104854
-0.0117948
-0.0129711
-0.013876
-0.014345
-0.0142248
-0.013468
-0.0121344
-0.0103853
-0.00845076
-0.00655785
-0.00487552
-0.00346434
-0.00230866
-0.00137369
-0.000638295
-7.28365e-05
0.000350475
0.000635876
0.000770043
0.000757371
0.000640707
0.000488917
0.000305249
0.000199644
0.0138386
0.00961071
0.00555781
0.00558221
0.00671424
0.00756052
0.00810621
0.0085729
0.00909864
0.00972604
0.010368
0.010947
0.0111999
0.0108611
0.00903679
0.00378435
-0.00832319
-0.00815768
-0.00786572
-0.0075792
-0.00730894
-0.00710157
-0.007027
-0.00716844
-0.00760393
-0.00838375
-0.00949553
-0.0108404
-0.0122284
-0.0134892
-0.0144803
-0.0150368
-0.01504
-0.0143895
-0.0130999
-0.011306
-0.0092497
-0.00721005
-0.00537727
-0.00385362
-0.00264065
-0.00166303
-0.000926701
-0.000391654
-2.03827e-05
0.000190286
0.000234002
0.000148236
9.67825e-06
-8.94101e-05
-0.000114928
-2.16186e-05
0.0143914
0.00992582
0.00576703
0.00584158
0.00705687
0.00797434
0.00859727
0.00916922
0.00985589
0.0107105
0.0116794
0.0127156
0.013605
0.0142308
0.0129638
0.00980207
-0.00839242
-0.00851078
-0.00833329
-0.00815376
-0.0079491
-0.0077687
-0.00768228
-0.00776852
-0.00811287
-0.00878164
-0.00979403
-0.0111066
-0.012468
-0.0137287
-0.0147243
-0.0153053
-0.0153528
-0.0147646
-0.013534
-0.0117725
-0.00970661
-0.00760338
-0.00573371
-0.00420243
-0.00293577
-0.00196026
-0.00126186
-0.0007893
-0.000502052
-0.000400651
-0.000475734
-0.00064613
-0.00079993
-0.000821708
-0.000666204
-0.000274068
0.0147641
0.0101352
0.00590825
0.00601837
0.00729065
0.00825836
0.00893936
0.00959156
0.010406
0.0114426
0.0126945
0.0141175
0.0156286
0.0170025
0.0173985
-0.00895255
-0.00892707
-0.00885342
-0.00874553
-0.00863617
-0.00857695
-0.00862896
-0.00886002
-0.00932988
-0.0100573
-0.0112663
-0.0123869
-0.0135023
-0.0144167
-0.0149594
-0.0149845
-0.0144318
-0.0132827
-0.0116235
-0.00965241
-0.00763607
-0.00583056
-0.00434098
-0.00311826
-0.00222178
-0.0015966
-0.00122593
-0.00105915
-0.00109526
-0.00131891
-0.00155273
-0.0017197
-0.0016621
-0.00130432
-0.000552525
0.0149462
0.0102358
0.00597594
0.006104
0.0074032
0.00839633
0.00910627
0.00980161
0.010682
0.0118208
0.0132261
0.0148912
0.016783
0.018759
0.0202502
-0.00963181
-0.00967887
-0.00971918
-0.00975278
-0.00977698
-0.009779
-0.00979146
-0.00986999
-0.0100729
-0.0104397
-0.0111086
-0.0119085
-0.0127541
-0.0134362
-0.0138282
-0.0138088
-0.0132875
-0.0122462
-0.0107563
-0.00898705
-0.00717428
-0.00554433
-0.00421101
-0.00313505
-0.00234797
-0.00188833
-0.00164951
-0.00162149
-0.00184041
-0.00217773
-0.0024995
-0.00269487
-0.00254014
-0.00194807
-0.000824591
0.0149323
0.0102262
0.00596737
0.00609313
0.00738928
0.00837929
0.0090856
0.00977628
0.0106507
0.0117821
0.0131781
0.0148309
0.0167068
0.0186579
0.0201146
-0.0105449
-0.010608
-0.0107494
-0.0109224
-0.0111044
-0.0112079
-0.0112028
-0.0111046
-0.0109624
-0.0108656
-0.0109559
-0.0111584
-0.0114588
-0.0117868
-0.011963
-0.0118308
-0.0113419
-0.0104337
-0.00916965
-0.00768818
-0.0061829
-0.0048374
-0.00374502
-0.00290779
-0.00233579
-0.00207412
-0.00196663
-0.00210911
-0.00250976
-0.00297814
-0.00342751
-0.00361822
-0.00333098
-0.00251429
-0.00105274
0.0147233
0.0101066
0.00588289
0.00598624
0.00724955
0.00820801
0.00887826
0.00951673
0.0103137
0.0113283
0.0125529
0.0139398
0.0154033
0.0167061
0.016972
-0.0115247
-0.0116136
-0.0118724
-0.0121689
-0.0125403
-0.0127481
-0.0127251
-0.0124401
-0.0119311
-0.0113008
-0.0106713
-0.0101795
-0.00982027
-0.00963177
-0.00948099
-0.00922918
-0.00874402
-0.00801118
-0.00702172
-0.0058893
-0.00476055
-0.00377016
-0.00298907
-0.00243017
-0.00211086
-0.00201208
-0.00211809
-0.00248038
-0.00304905
-0.00366541
-0.00420842
-0.00435269
-0.00395556
-0.00293926
-0.00120943
0.0143253
0.00987921
0.00572589
0.00578959
0.00699043
0.00789291
0.00849842
0.00904826
0.00970667
0.0105258
0.0114496
0.0124277
0.0132359
0.0137533
0.0122786
0.00887015
-0.0123934
-0.0121595
-0.0124814
-0.0129486
-0.0135456
-0.013973
-0.0142422
-0.0141696
-0.0136649
-0.0127407
-0.0115203
-0.010169
-0.00892139
-0.00790034
-0.00718814
-0.0066656
-0.00623225
-0.00577465
-0.00523118
-0.00453842
-0.00378032
-0.00304806
-0.00242818
-0.00196949
-0.00169264
-0.00161286
-0.00174713
-0.00212377
-0.00264546
-0.00340016
-0.00415391
-0.00473238
-0.00483224
-0.00433771
-0.00317328
-0.00127717
0.0137503
0.00954762
0.00550252
0.00551258
0.00662539
0.00745156
0.00797399
0.00841127
0.00889929
0.00947963
0.010061
0.0105625
0.010709
0.0102251
0.00818986
0.0025719
-0.0127623
-0.0127031
-0.0131065
-0.0137275
-0.0144293
-0.0150116
-0.0152933
-0.0151044
-0.0143446
-0.0130294
-0.0113041
-0.00937989
-0.007515
-0.00590977
-0.00463551
-0.00374279
-0.00316545
-0.00270566
-0.00226958
-0.00188574
-0.00148163
-0.00111737
-0.000842516
-0.000691627
-0.00069263
-0.00087402
-0.00126567
-0.00187404
-0.0026043
-0.00348683
-0.00439872
-0.00497883
-0.00502588
-0.00445587
-0.00319779
-0.00125188
0.0130149
0.00911637
0.00522141
0.00516449
0.00617092
0.00690691
0.00734211
0.00765705
0.00797366
0.00830625
0.00857586
0.00862606
0.00827103
0.00708166
0.00480598
-0.00228694
-0.00781931
-0.0148922
-0.0136242
-0.0132445
-0.0127959
-0.0129487
-0.0134305
-0.0141247
-0.0148427
-0.0154029
-0.0155767
-0.0151911
-0.0141624
-0.012536
-0.0104772
-0.00821827
-0.00599731
-0.00400888
-0.00237165
-0.0011361
-0.000397537
0.000139394
0.000473499
0.000679644
0.000828918
0.000898921
0.000878711
0.000748218
0.000479702
3.78157e-05
-0.000590234
-0.0013778
-0.00237614
-0.00342884
-0.00436674
-0.004935
-0.00492933
-0.00431177
-0.00302038
-0.001142
0.0121408
0.00859333
0.0048989
0.00474832
0.00563495
0.00628458
0.00664134
0.00684283
0.00700076
0.00711976
0.00713242
0.00688399
0.00621817
0.00487575
0.0026194
-0.00136437
-0.00629658
-0.015519
-0.0197761
-0.0201847
-0.0179761
-0.0151593
-0.0130135
-0.0130873
-0.013006
-0.0130338
-0.0135264
-0.0141787
-0.0147655
-0.0151152
-0.015053
-0.0144245
-0.0131725
-0.0113721
-0.00920019
-0.00686771
-0.00457337
-0.00247386
-0.000680498
0.000729985
0.00171441
0.00235618
0.00271524
0.00286876
0.00285396
0.00272374
0.00248141
0.00211934
0.00162643
0.000984682
0.000139797
-0.000908052
-0.00206313
-0.00321278
-0.00413033
-0.00464165
-0.00456781
-0.00392835
-0.00266607
-0.000969361
0.0111496
0.00798489
0.00458468
0.00425745
0.00501498
0.00560806
0.00590807
0.00601581
0.00603882
0.00599685
0.00582752
0.00542517
0.00465261
0.00341947
0.00151229
-0.00125151
-0.00497556
-0.0094276
-0.0123161
-0.0134451
-0.0133984
-0.0128382
-0.0123607
-0.0123748
-0.0124648
-0.0126278
-0.0129728
-0.013442
-0.0138332
-0.0139491
-0.0136406
-0.0128208
-0.0114941
-0.00975541
-0.00774023
-0.00560025
-0.00348104
-0.00150377
0.000244475
0.00170201
0.00282602
0.00361218
0.00409093
0.0043084
0.00426476
0.00404403
0.00367604
0.0031628
0.00249663
0.00164668
0.000637703
-0.000541422
-0.00177324
-0.0028952
-0.00373151
-0.00413956
-0.00399489
-0.00336044
-0.00219231
-0.0007782
0.0100549
0.00729473
0.00430189
0.00369852
0.00432362
0.00490518
0.00517122
0.00520682
0.00512876
0.004977
0.0047063
0.00424564
0.00349742
0.00240188
0.00086451
-0.00120851
-0.00367231
-0.00626225
-0.00856728
-0.0101911
-0.0110206
-0.0112423
-0.0111956
-0.0111625
-0.011251
-0.0114343
-0.0116927
-0.0119589
-0.0121309
-0.0120605
-0.0116417
-0.0108351
-0.00965561
-0.00815428
-0.00642304
-0.00458654
-0.00275809
-0.00102671
0.000538913
0.00188775
0.00299125
0.00384056
0.00444103
0.00473102
0.0047693
0.00457527
0.00418462
0.00360816
0.00285473
0.00191781
0.000827847
-0.000355678
-0.00151223
-0.00249978
-0.00318706
-0.00345725
-0.00327206
-0.00267658
-0.00168797
-0.000631463
0.00887756
0.00657151
0.00383418
0.00316239
0.00367539
0.00420744
0.00443964
0.00442716
0.0042876
0.00407255
0.00376331
0.00330092
0.00262945
0.00168718
0.000463286
-0.00108197
-0.0028109
-0.0046746
-0.00651859
-0.00802731
-0.00893388
-0.00933284
-0.0094279
-0.00945866
-0.00955933
-0.00972999
-0.00993336
-0.0101333
-0.0102171
-0.0100917
-0.00969773
-0.00900802
-0.00802111
-0.00677515
-0.00535247
-0.00384701
-0.0023363
-0.000879988
0.000471295
0.00166763
0.0026705
0.00346572
0.0040073
0.00434208
0.00443771
0.00430459
0.0039616
0.00341699
0.00269082
0.00180414
0.000804471
-0.000237469
-0.00122017
-0.00202141
-0.00253192
-0.00266531
-0.00244572
-0.00196818
-0.00129092
-0.000568997
0.00762152
0.00575933
0.00332268
0.0026527
0.00305368
0.00351549
0.0037163
0.00367994
0.00351455
0.00327571
0.00296691
0.00253883
0.00196067
0.00118188
0.000217706
-0.000945251
-0.00224625
-0.00364639
-0.0050288
-0.00619746
-0.00699259
-0.00740934
-0.00759178
-0.00771119
-0.007864
-0.00805803
-0.0082576
-0.00841573
-0.00846751
-0.00835192
-0.00802461
-0.0074599
-0.00665716
-0.00565419
-0.00451178
-0.00329438
-0.00206328
-0.000871148
0.000240975
0.00124562
0.00213094
0.00289387
0.00337839
0.00367607
0.00377209
0.00367108
0.00338517
0.00292288
0.00230636
0.00156529
0.000746758
-8.29928e-05
-0.0008333
-0.00141442
-0.00174426
-0.00182348
-0.00168647
-0.00136806
-0.00093072
-0.000474325
0.00631632
0.00487422
0.00278395
0.00215293
0.002444
0.00283236
0.00300879
0.00296866
0.00280344
0.00257035
0.00228575
0.0019151
0.00143704
0.000818616
6.95468e-05
-0.000808733
-0.00178546
-0.00281164
-0.00380254
-0.00465456
-0.00528547
-0.00568728
-0.00593199
-0.00611367
-0.00629519
-0.00649282
-0.00668747
-0.00684348
-0.00691593
-0.00685682
-0.00662393
-0.00619373
-0.00556848
-0.00477351
-0.00385687
-0.00286652
-0.00185331
-0.000864053
5.69323e-05
0.00085832
0.00152687
0.00201587
0.00256747
0.00287476
0.00298189
0.00292401
0.0027178
0.00237551
0.00191926
0.00137118
0.000755989
0.000105965
-0.000510553
-0.00105381
-0.00118999
-0.00122363
-0.00110098
-0.000851419
-0.000557706
-0.000314063
0.00498901
0.00391293
0.00221324
0.00164921
0.00184173
0.00216081
0.00231995
0.00229014
0.0021433
0.00193691
0.00169379
0.00139402
0.00101982
0.000550762
-1.02166e-05
-0.000654453
-0.00135751
-0.00207902
-0.00276664
-0.00336968
-0.00385045
-0.00420275
-0.00445524
-0.00465456
-0.00484057
-0.00503532
-0.00524162
-0.0054275
-0.0055613
-0.00558901
-0.0054729
-0.00519463
-0.00475161
-0.00415639
-0.00344929
-0.00266097
-0.00182624
-0.000979955
-0.0001598
0.000602742
0.00127252
0.00181732
0.00202797
0.00218738
0.00226252
0.00222181
0.00207655
0.00183587
0.00151676
0.00113796
0.000724674
0.000304623
-5.91051e-05
-0.000216254
-0.00056668
-0.000688383
-0.00064493
-0.000496127
-0.000278954
-0.000137976
0.0036854
0.00290302
0.0016263
0.00114714
0.00125311
0.0015031
0.00164495
0.0016321
0.00151694
0.00135333
0.0011661
0.000945719
0.000677605
0.000348907
-3.96478e-05
-0.000478689
-0.000949153
-0.00142432
-0.00187602
-0.00228051
-0.00261977
-0.00288982
-0.00310381
-0.00328952
-0.00347183
-0.00365699
-0.00389198
-0.00411237
-0.00430934
-0.00442478
-0.00442842
-0.00430955
-0.00407139
-0.00372898
-0.00327766
-0.00276139
-0.00220139
-0.00162363
-0.00104174
-0.000484475
3.65657e-05
0.000531719
0.00109789
0.00142789
0.00151769
0.00151052
0.00144004
0.00130694
0.00112366
0.000890437
0.000583058
0.000149251
-0.000286973
-0.000681788
-0.00088559
-0.00103815
-0.00104007
-0.000949464
-0.000795214
-0.000568352
0.0021052
0.00185494
0.00106299
0.00067685
0.000704002
0.000872057
0.000982116
0.000983501
0.000908873
0.000801075
0.000681334
0.000546033
0.000385095
0.000190327
-3.6008e-05
-0.000289074
-0.000559568
-0.000829633
-0.00108573
-0.00131794
-0.00151787
-0.00168401
-0.00182693
-0.00197582
-0.00216502
-0.00236051
-0.00251413
-0.00274633
-0.00285556
-0.00280647
-0.00261759
-0.00231429
-0.00192719
-0.0014827
-0.00101509
-0.000544242
-9.60396e-05
0.000305646
0.000646263
0.000928028
0.0011362
0.00125031
0.00115476
0.00101493
0.000940917
0.000884109
0.000820797
0.000744351
0.000681484
0.000640095
0.000645824
0.000444013
0.000504629
0.000472434
0.000433489
0.000525681
0.000654559
0.000755185
0.000744946
0.000419373
0.000670322
0.000669487
0.000399842
0.000227286
0.000216207
0.000279524
0.000328563
0.000333595
0.000306382
0.000266106
0.000223401
0.00017681
0.000123062
5.76295e-05
-1.59651e-05
-9.55613e-05
-0.000185552
-0.000273544
-0.000355852
-0.00043086
-0.00049616
-0.000550725
-0.000600229
-0.000661364
-0.000827174
-0.00126881
-0.00226063
-0.00349439
-0.00470841
-0.0057336
-0.00652566
-0.00706547
-0.00733496
-0.00732811
-0.00704954
-0.00651191
-0.00574643
-0.0048028
-0.00375216
-0.0026589
-0.00160672
-0.000594675
0.000121118
0.000424575
0.000385264
0.000302507
0.000248674
0.000234718
0.000255208
0.000360363
0.000784882
-5.06988e-05
-0.000870444
-0.00157245
-0.00221269
-0.00270338
-0.00295486
-0.00290154
-0.00246474
-0.00160166
)
;

boundaryField
{
    upstream
    {
        type            fixedValue;
        value           uniform 0;
    }
    downstream
    {
        type            fixedValue;
        value           uniform 0;
    }
    upANDdown
    {
        type            fixedValue;
        value           uniform 0;
    }
    frontAndBack
    {
        type            empty;
    }
    cylinder
    {
        type            zeroGradient;
    }
}


// ************************************************************************* //
