/*--------------------------------*- C++ -*----------------------------------*\
| =========                 |                                                 |
| \\      /  F ield         | OpenFOAM: The Open Source CFD Toolbox           |
|  \\    /   O peration     | Version:  2.3.0                                 |
|   \\  /    A nd           | Web:      www.OpenFOAM.org                      |
|    \\/     M anipulation  |                                                 |
\*---------------------------------------------------------------------------*/
FoamFile
{
    version     2.0;
    format      ascii;
    class       volVectorField;
    location    "14";
    object      U;
}
// * * * * * * * * * * * * * * * * * * * * * * * * * * * * * * * * * * * * * //

dimensions      [0 1 -1 0 0 0 0];

internalField   nonuniform List<vector> 
1720
(
(0.196742 -0.00327137 0)
(0.196571 -0.0111312 0)
(0.197742 -0.0157758 0)
(0.198451 -0.0181525 0)
(0.198336 -0.0202349 0)
(0.19781 -0.0229688 0)
(0.197311 -0.0263519 0)
(0.196992 -0.0299093 0)
(0.196811 -0.0333328 0)
(0.196693 -0.0364256 0)
(0.196593 -0.0392142 0)
(0.196554 -0.0416256 0)
(0.196574 -0.0436783 5.95418e-26)
(0.196765 -0.0451743 -2.30237e-26)
(0.197042 -0.0461585 -1.53144e-26)
(0.197579 -0.0463238 -3.74049e-26)
(0.198216 -0.0458672 1.64551e-26)
(0.198951 -0.0445736 0)
(0.199938 -0.0426503 4.84966e-26)
(0.200838 -0.0397689 -4.85631e-26)
(0.20198 -0.0366956 0)
(0.202776 -0.0326643 0)
(0.20389 -0.028793 0)
(0.204613 -0.0244356 -2.39664e-24)
(0.205306 -0.0195123 2.60763e-25)
(0.207389 -0.0152113 -1.5963e-25)
(0.206762 -0.00806392 1.20182e-25)
(0.209966 -0.00166353 -3.91223e-25)
(0.217944 0.0076066 0)
(0.223542 0.0190145 0)
(0.226609 0.0311918 0)
(0.228573 0.0432405 0)
(0.229974 0.0548026 0)
(0.230827 0.0657783 0)
(0.231071 0.0761061 0)
(0.230666 0.0856504 0)
(0.229608 0.0942866 0)
(0.227839 0.101877 0)
(0.225355 0.108253 0)
(0.222173 0.113327 0)
(0.218277 0.116942 0)
(0.213754 0.119005 0)
(0.208757 0.119444 0)
(0.203363 0.11827 0)
(0.197598 0.115415 0)
(0.191693 0.110991 0)
(0.185628 0.105005 0)
(0.179577 0.0975719 0)
(0.173557 0.0886577 0)
(0.168071 0.0784806 0)
(0.1629 0.0672465 0)
(0.158661 0.0549478 0)
(0.1553 0.0415561 0)
(0.154806 0.0277556 0)
(0.155326 0.0165083 0)
(0.155267 0.0053865 0)
(0.159568 -0.00330832 0)
(0.163026 -0.0140007 0)
(0.16463 -0.019831 0)
(0.165363 -0.032796 0)
(0.190348 -0.00421486 0)
(0.192076 -0.0112794 0)
(0.195886 -0.0149536 0)
(0.197492 -0.0171882 0)
(0.197005 -0.0196408 0)
(0.195837 -0.0226643 0)
(0.19494 -0.0261535 0)
(0.194546 -0.0296756 0)
(0.194475 -0.0331052 0)
(0.194549 -0.0362592 0)
(0.194678 -0.0391847 0)
(0.194917 -0.041788 2.43538e-25)
(0.195347 -0.044032 -2.43536e-25)
(0.196035 -0.0457967 0)
(0.19702 -0.0469777 0)
(0.198292 -0.0474461 -2.03773e-25)
(0.199808 -0.0471684 2.03775e-25)
(0.201536 -0.0459918 -8.94695e-25)
(0.203337 -0.0441091 8.94747e-25)
(0.205131 -0.0413116 0)
(0.206824 -0.038057 -8.22533e-25)
(0.208267 -0.0341451 2.60347e-24)
(0.209569 -0.0299004 -1.78082e-24)
(0.210615 -0.0257529 4.57306e-24)
(0.211691 -0.0205215 -1.99709e-24)
(0.212953 -0.0164192 0)
(0.213919 -0.0113615 0)
(0.214678 -0.0050665 6.33782e-25)
(0.21566 -0.00255746 -6.33556e-25)
(0.217387 -0.00234257 0)
(0.21973 -0.00326059 0)
(0.221704 -0.00441344 0)
(0.223408 -0.00539871 0)
(0.225005 -0.00599945 0)
(0.22641 -0.00607381 0)
(0.227397 -0.00567073 0)
(0.227841 -0.00476524 0)
(0.227612 -0.00351023 0)
(0.226611 -0.00215748 0)
(0.224803 -0.000687951 0)
(0.222181 0.000506323 0)
(0.218743 0.00118455 0)
(0.214578 0.00138578 0)
(0.209853 0.00138534 0)
(0.20473 0.000693008 0)
(0.199517 -0.000313159 0)
(0.194198 -0.00155422 0)
(0.189113 -0.00299984 0)
(0.18422 -0.00483932 0)
(0.179895 -0.0064827 0)
(0.175819 -0.00774007 0)
(0.172593 -0.00909169 0)
(0.16985 -0.0109762 0)
(0.16803 -0.0118303 0)
(0.166549 -0.010553 0)
(0.164872 -0.00922635 0)
(0.164269 -0.00994227 0)
(0.162861 -0.0154377 0)
(0.163038 -0.0212692 0)
(0.160536 -0.0331928 0)
(0.185063 -0.00676954 0)
(0.187604 -0.0103561 0)
(0.193869 -0.0137911 0)
(0.195825 -0.0161674 0)
(0.194882 -0.0190073 0)
(0.193252 -0.0222876 0)
(0.192177 -0.025944 0)
(0.191824 -0.0294921 0)
(0.191928 -0.0330454 0)
(0.192221 -0.0363199 5.61735e-25)
(0.192613 -0.0395091 4.30912e-25)
(0.193184 -0.0423624 -9.92584e-25)
(0.194037 -0.0449422 -2.5527e-24)
(0.195267 -0.0470176 -7.0176e-26)
(0.196917 -0.0485235 0)
(0.198942 -0.0492819 -1.40635e-24)
(0.201315 -0.0491955 1.40639e-24)
(0.203877 -0.0481406 -3.20181e-24)
(0.206512 -0.046147 4.19745e-24)
(0.209007 -0.0432215 -4.8306e-24)
(0.211274 -0.039615 6.33113e-25)
(0.213107 -0.0354697 0)
(0.214656 -0.0310839 -2.05463e-23)
(0.21597 -0.0265605 3.40694e-23)
(0.217073 -0.0218331 -1.32996e-23)
(0.21851 -0.0172735 0)
(0.219591 -0.0124768 -1.62272e-23)
(0.220985 -0.00759615 7.5482e-24)
(0.224089 -0.0021189 -7.50405e-24)
(0.227206 0.00351364 -1.02245e-24)
(0.229337 0.00877138 -1.3966e-24)
(0.231178 0.0139273 0)
(0.23284 0.0189857 0)
(0.234126 0.0238165 0)
(0.235002 0.0283573 0)
(0.23536 0.0325892 0)
(0.23515 0.0364789 0)
(0.234362 0.040038 0)
(0.232807 0.0432245 0)
(0.230518 0.0459462 0)
(0.227604 0.0482449 0)
(0.22348 0.0500657 0)
(0.218866 0.0510261 0)
(0.213936 0.051254 0)
(0.208557 0.0507641 0)
(0.203262 0.0496597 0)
(0.197717 0.0479166 0)
(0.192034 0.0455586 0)
(0.186193 0.0424861 0)
(0.180593 0.0388464 0)
(0.174861 0.034541 0)
(0.169949 0.029564 0)
(0.164489 0.0240042 0)
(0.159361 0.0182202 0)
(0.153936 0.0127048 0)
(0.150914 0.00389374 0)
(0.150448 -0.00328178 0)
(0.150723 -0.0143086 0)
(0.152329 -0.020431 0)
(0.149335 -0.0313275 0)
(0.179723 -0.00636118 0)
(0.183262 -0.00987764 0)
(0.191814 -0.0131524 0)
(0.193958 -0.0158219 0)
(0.192604 -0.0187171 0)
(0.190573 -0.0220891 0)
(0.189398 -0.0258872 0)
(0.18908 -0.029437 0)
(0.189308 -0.033185 0)
(0.189729 -0.0365823 8.02348e-25)
(0.190305 -0.0401465 6.32225e-24)
(0.191139 -0.0432937 -4.85479e-24)
(0.192361 -0.0463515 7.67378e-24)
(0.194115 -0.0488299 2.70711e-23)
(0.19642 -0.0507904 -5.57698e-24)
(0.199258 -0.051927 0)
(0.202592 -0.052142 0)
(0.20617 -0.0511863 -1.56702e-23)
(0.209827 -0.0490866 3.15281e-23)
(0.213202 -0.0457986 -1.64518e-23)
(0.216073 -0.0416778 3.79617e-24)
(0.218297 -0.037141 3.58386e-23)
(0.220008 -0.0324138 -2.81235e-23)
(0.221386 -0.027817 -7.93119e-24)
(0.222644 -0.0231457 0)
(0.223961 -0.018541 3.93425e-23)
(0.225286 -0.014078 -2.838e-23)
(0.22692 -0.00925596 3.29944e-23)
(0.228656 -0.00488905 2.06189e-23)
(0.230484 -0.00154999 1.5114e-24)
(0.232802 0.00165922 -1.50992e-24)
(0.235125 0.00503902 0)
(0.237128 0.00869003 0)
(0.238809 0.0126715 0)
(0.240105 0.0170688 0)
(0.240837 0.0218869 0)
(0.240871 0.026972 0)
(0.239995 0.0322355 0)
(0.238267 0.0373991 0)
(0.23563 0.0420592 0)
(0.23186 0.046044 0)
(0.227855 0.0493639 0)
(0.223147 0.0517008 0)
(0.217616 0.0526867 0)
(0.211484 0.0519345 0)
(0.205095 0.0502808 0)
(0.198257 0.0475947 0)
(0.191789 0.0441393 0)
(0.185122 0.0397685 0)
(0.178808 0.0348705 0)
(0.172412 0.0292328 0)
(0.16693 0.0231431 0)
(0.161242 0.0167176 0)
(0.156816 0.0102711 0)
(0.152807 0.00444273 0)
(0.151264 -0.00231192 0)
(0.149595 -0.00715621 0)
(0.148001 -0.0154867 0)
(0.145276 -0.0195 0)
(0.139637 -0.0291928 0)
(0.174341 -0.00639907 0)
(0.17912 -0.00981753 0)
(0.189891 -0.0126195 0)
(0.191972 -0.0155626 0)
(0.190247 -0.0183439 0)
(0.187775 -0.0217243 0)
(0.186529 -0.0256811 0)
(0.186162 -0.029236 -1.36982e-24)
(0.186475 -0.0333046 -1.32205e-24)
(0.186876 -0.0368383 0)
(0.187586 -0.0409886 -7.12381e-24)
(0.18857 -0.0444475 0)
(0.190137 -0.0482653 -1.03091e-23)
(0.192406 -0.0512151 -4.75959e-23)
(0.195378 -0.0538622 1.4197e-23)
(0.199154 -0.0555008 -3.95474e-23)
(0.203584 -0.0560873 2.14697e-23)
(0.208436 -0.0552946 5.30194e-23)
(0.213455 -0.0530474 -1.05951e-22)
(0.217907 -0.0491747 4.26032e-23)
(0.221522 -0.0443919 5.34393e-24)
(0.224028 -0.0392302 9.72631e-23)
(0.225845 -0.0342272 -9.65399e-23)
(0.22728 -0.0294625 0)
(0.228408 -0.0247382 8.63578e-23)
(0.229429 -0.0201281 -1.9667e-22)
(0.230486 -0.0155917 -1.33742e-22)
(0.231553 -0.011177 -2.31808e-23)
(0.232898 -0.00718788 5.75637e-23)
(0.2347 -0.00318462 0)
(0.236802 0.000668113 0)
(0.238987 0.00427177 -2.06869e-24)
(0.241223 0.00804119 -2.20216e-24)
(0.24337 0.0122115 0)
(0.245235 0.0168123 0)
(0.246609 0.0218227 0)
(0.2473 0.0271861 0)
(0.246994 0.0327332 0)
(0.245448 0.0382183 0)
(0.242568 0.0435324 0)
(0.238439 0.0480962 0)
(0.233264 0.0514618 0)
(0.227047 0.0537164 0)
(0.220408 0.0549908 0)
(0.21322 0.0548823 0)
(0.205804 0.0534563 0)
(0.198364 0.0508715 0)
(0.191486 0.0476264 0)
(0.18457 0.043558 0)
(0.178199 0.0390509 0)
(0.171798 0.0340117 0)
(0.166215 0.0288034 0)
(0.160635 0.0234315 0)
(0.155955 0.0179297 0)
(0.150991 0.0125327 0)
(0.147137 0.00499684 0)
(0.142916 -0.00201498 0)
(0.13886 -0.0100907 0)
(0.132197 -0.0136676 0)
(0.127083 -0.0256415 0)
(0.169117 -0.00625753 0)
(0.175154 -0.00950081 0)
(0.188111 -0.0118828 0)
(0.189938 -0.0150442 0)
(0.187812 -0.0177829 0)
(0.184836 -0.0211865 0)
(0.18353 -0.0252935 0)
(0.182981 -0.0288821 -1.95219e-24)
(0.183359 -0.0333519 -5.15877e-24)
(0.183525 -0.0370577 0)
(0.184371 -0.0420175 0)
(0.185274 -0.0457718 0)
(0.187256 -0.0507857 0)
(0.189903 -0.0541471 -6.60158e-23)
(0.193673 -0.0580154 5.07803e-23)
(0.198556 -0.0601933 -1.05575e-22)
(0.204212 -0.0612461 2.40699e-22)
(0.21083 -0.0606506 -1.86636e-22)
(0.217541 -0.0580424 -3.14534e-22)
(0.223553 -0.0534343 3.4323e-22)
(0.228214 -0.0481304 1.38142e-22)
(0.230616 -0.0421963 0)
(0.231349 -0.0364321 0)
(0.231331 -0.0309389 -4.90611e-22)
(0.231384 -0.025821 1.13752e-22)
(0.231586 -0.0209904 4.88916e-22)
(0.231944 -0.0164744 -1.54233e-22)
(0.232428 -0.0123706 1.23509e-22)
(0.233353 -0.00850717 -1.81467e-22)
(0.234766 -0.00494553 0)
(0.236606 -0.00158984 0)
(0.238925 0.00182483 2.06786e-24)
(0.241711 0.00551222 -2.66822e-24)
(0.24459 0.0098145 0)
(0.247294 0.0148784 0)
(0.249619 0.0205825 0)
(0.251176 0.0268624 0)
(0.25177 0.0336197 0)
(0.251218 0.0402808 0)
(0.248883 0.046739 0)
(0.244607 0.0525966 0)
(0.238795 0.0572758 0)
(0.231412 0.0601579 0)
(0.223349 0.0616176 0)
(0.214919 0.0617751 0)
(0.206644 0.0607248 0)
(0.198431 0.0585651 0)
(0.19077 0.0556491 0)
(0.183338 0.0519067 0)
(0.176457 0.0477209 0)
(0.16968 0.0427466 0)
(0.163399 0.0371097 0)
(0.156857 0.0309389 0)
(0.150672 0.0241099 0)
(0.144959 0.0166465 0)
(0.140652 0.00777959 0)
(0.134561 0.00203811 0)
(0.127742 -0.00403112 0)
(0.119552 -0.00869174 0)
(0.117333 -0.0235627 0)
(0.164114 -0.00597778 0)
(0.171445 -0.00902506 0)
(0.186395 -0.0109649 0)
(0.187851 -0.0143019 0)
(0.185273 -0.0171143 0)
(0.181772 -0.0205889 0)
(0.180415 -0.024715 -1.9416e-24)
(0.179527 -0.0283931 1.76554e-23)
(0.179911 -0.0331751 -7.85213e-24)
(0.179572 -0.0371976 -5.33897e-23)
(0.180541 -0.0430148 -6.23559e-23)
(0.181021 -0.0472119 0)
(0.183535 -0.0538413 0)
(0.186174 -0.0575191 1.05738e-22)
(0.191248 -0.0637413 0)
(0.197152 -0.066176 1.45072e-22)
(0.204752 -0.0683283 -6.1397e-22)
(0.213737 -0.0675053 4.69742e-22)
(0.222601 -0.0638561 9.98875e-23)
(0.230107 -0.0577417 -7.62675e-22)
(0.233069 -0.0504947 -5.23224e-22)
(0.233565 -0.0433975 -3.16318e-22)
(0.232438 -0.0371202 -1.2329e-21)
(0.230843 -0.031416 1.25248e-21)
(0.229268 -0.0260684 1.18459e-21)
(0.227876 -0.0211164 -1.18443e-21)
(0.226738 -0.0166984 2.66684e-22)
(0.225882 -0.0129594 0)
(0.225682 -0.00964777 0)
(0.226322 -0.00667584 -2.20367e-22)
(0.22774 -0.00398292 7.24187e-23)
(0.230125 -0.00109296 3.95705e-23)
(0.233675 0.00236036 -1.49025e-23)
(0.237912 0.00657354 -2.84788e-24)
(0.242318 0.0118274 0)
(0.246323 0.0182647 0)
(0.249417 0.0255977 0)
(0.251237 0.0334338 0)
(0.25133 0.0418519 0)
(0.25016 0.0502537 0)
(0.247381 0.0576119 0)
(0.242073 0.0639865 0)
(0.234699 0.0684748 0)
(0.226153 0.0710158 0)
(0.21685 0.0716416 0)
(0.207496 0.0707043 0)
(0.198162 0.0682807 0)
(0.189415 0.0647906 0)
(0.181024 0.0604351 0)
(0.173161 0.0555021 0)
(0.165701 0.0496824 0)
(0.158546 0.0433889 0)
(0.151323 0.0368334 0)
(0.144935 0.029443 0)
(0.139217 0.0216664 0)
(0.132952 0.0141951 0)
(0.123858 0.0105958 0)
(0.115591 0.00397915 0)
(0.108326 -0.00323909 0)
(0.109283 -0.0236187 0)
(0.159457 -0.00560908 0)
(0.168232 -0.00863666 0)
(0.184768 -0.00973683 0)
(0.185668 -0.013182 0)
(0.18253 -0.016229 0)
(0.178629 -0.0198195 -2.10407e-24)
(0.177216 -0.023776 1.94158e-24)
(0.175833 -0.0276473 1.81638e-23)
(0.176091 -0.0324962 3.08496e-24)
(0.174937 -0.0371445 3.33753e-23)
(0.175926 -0.0435186 1.15596e-22)
(0.175589 -0.0488304 4.41902e-22)
(0.17855 -0.0568591 2.85223e-22)
(0.180975 -0.0618232 -7.18505e-22)
(0.187666 -0.0713742 -3.63742e-22)
(0.194396 -0.0736225 3.66461e-22)
(0.206287 -0.0795373 0)
(0.217887 -0.0769075 4.85572e-22)
(0.228311 -0.0691674 -1.05745e-21)
(0.232851 -0.0585889 -1.07689e-21)
(0.233021 -0.0491164 -1.06057e-21)
(0.229195 -0.040867 -1.68588e-21)
(0.223671 -0.0351287 7.93193e-22)
(0.21769 -0.0293008 -2.852e-21)
(0.212337 -0.0237708 3.56695e-21)
(0.207688 -0.0187861 -2.63184e-21)
(0.203702 -0.0147514 2.64065e-21)
(0.200397 -0.011738 6.19502e-22)
(0.198408 -0.00925624 -6.21704e-22)
(0.197783 -0.00737817 1.47864e-22)
(0.198626 -0.00599503 -3.96815e-23)
(0.201185 -0.00439051 6.06559e-23)
(0.205582 -0.00213271 2.19883e-23)
(0.211734 0.00102506 2.8602e-24)
(0.219403 0.005843 -3.32666e-24)
(0.227572 0.0124905 0)
(0.235382 0.0208008 0)
(0.241765 0.0308144 0)
(0.245523 0.0412933 0)
(0.246408 0.0515007 0)
(0.244821 0.0614821 0)
(0.241378 0.07001 0)
(0.234917 0.0764691 0)
(0.226566 0.0804235 0)
(0.217059 0.0817429 0)
(0.207093 0.0808523 0)
(0.19701 0.0780108 0)
(0.187323 0.0738686 0)
(0.177965 0.0688458 0)
(0.169304 0.0630979 0)
(0.161256 0.0568009 0)
(0.153365 0.0505358 0)
(0.145897 0.0437289 0)
(0.139303 0.0357935 0)
(0.132228 0.0286361 0)
(0.12304 0.0232225 0)
(0.112121 0.0202353 0)
(0.104632 0.0105838 0)
(0.0993165 0.000294931 0)
(0.102988 -0.0263023 0)
(0.155069 -0.00512765 0)
(0.165669 -0.00718057 0)
(0.183558 -0.0101456 0)
(0.183007 -0.012045 0)
(0.17953 -0.0147921 0)
(0.175551 -0.0184431 -2.65129e-25)
(0.173946 -0.0221775 0)
(0.172023 -0.0263165 1.3678e-24)
(0.17187 -0.0310679 -1.79784e-22)
(0.169609 -0.0365178 1.95816e-22)
(0.170446 -0.0431561 1.46563e-22)
(0.168498 -0.0502384 -3.01669e-22)
(0.17219 -0.0593439 -2.39155e-21)
(0.173197 -0.0672124 0)
(0.182263 -0.080551 0)
(0.190713 -0.0848477 0)
(0.208778 -0.097946 2.05201e-21)
(0.220613 -0.0898623 -3.18972e-21)
(0.227479 -0.0747819 1.67987e-21)
(0.223899 -0.0554038 -8.72593e-21)
(0.212636 -0.0398765 -7.55582e-21)
(0.196406 -0.0293318 1.69359e-21)
(0.181126 -0.0250975 2.4922e-21)
(0.168019 -0.0192784 -3.28326e-21)
(0.157914 -0.0140632 -6.68799e-21)
(0.149717 -0.00982508 1.74286e-23)
(0.143412 -0.00722514 0)
(0.138203 -0.0056219 -2.6572e-21)
(0.136021 -0.00508063 1.49403e-21)
(0.136327 -0.0053235 -1.4312e-22)
(0.13814 -0.00593139 -1.85539e-22)
(0.142671 -0.00674992 -6.04651e-23)
(0.150295 -0.00707137 -4.32734e-23)
(0.160001 -0.00604524 0)
(0.171844 -0.00281106 -1.1327e-25)
(0.184847 0.00301773 0)
(0.198091 0.0113889 0)
(0.211694 0.0224279 0)
(0.224082 0.0357326 0)
(0.23192 0.0495535 0)
(0.235025 0.0625166 0)
(0.234248 0.0741427 0)
(0.230165 0.0831366 0)
(0.222898 0.0888582 0)
(0.213715 0.091192 0)
(0.203646 0.0906201 0)
(0.19335 0.0876566 0)
(0.183278 0.0832112 0)
(0.173669 0.0776941 0)
(0.164831 0.0714223 0)
(0.156292 0.065063 0)
(0.147892 0.0585706 0)
(0.140324 0.0510002 0)
(0.132857 0.0432316 0)
(0.123486 0.0378791 0)
(0.112093 0.0340913 0)
(0.10127 0.0294783 0)
(0.0957001 0.0154955 0)
(0.0922203 0.00195006 0)
(0.0976112 -0.0302858 0)
(0.15109 -0.00457791 0)
(0.16344 -0.00613764 0)
(0.18198 -0.00927519 0)
(0.180848 -0.0109143 0)
(0.176609 -0.0131876 0)
(0.172624 -0.0166665 -2.86287e-24)
(0.170366 -0.0201057 0)
(0.168287 -0.0243821 0)
(0.166953 -0.0288979 8.44274e-23)
(0.164021 -0.0349918 -3.98304e-22)
(0.163547 -0.0416551 0)
(0.159953 -0.0507097 0)
(0.163657 -0.0605379 2.38363e-21)
(0.161492 -0.0735954 0)
(0.176645 -0.0920277 0)
(0.179369 -0.102439 0)
(0.204509 -0.119494 7.20275e-22)
(0.196698 -0.107886 -6.27516e-22)
(0.196673 -0.09561 -2.15138e-20)
(0.174173 -0.070326 -1.45909e-20)
(0.139108 -0.0428795 8.97135e-21)
(0.0830429 -0.0210352 0)
(0.0607199 -0.0105814 7.24848e-22)
(0.056668 -0.00539835 -8.87796e-22)
(0.0519684 -0.00287971 0)
(0.0499568 -0.0021926 1.1393e-20)
(0.0503422 -0.00252274 -1.18267e-22)
(0.0526059 -0.00367885 2.59093e-21)
(0.0577106 -0.00638969 -1.27071e-21)
(0.0645547 -0.00952204 0)
(0.0730669 -0.0129419 -3.1961e-22)
(0.0835835 -0.0164003 8.16362e-23)
(0.0958264 -0.018962 0)
(0.109545 -0.0196415 0)
(0.124558 -0.0174711 -3.60263e-24)
(0.140406 -0.0118538 0)
(0.156073 -0.0031375 0)
(0.171021 0.0081271 0)
(0.185891 0.0225789 0)
(0.200433 0.0400207 0)
(0.211627 0.057842 0)
(0.217547 0.0738605 0)
(0.218053 0.0867753 0)
(0.214108 0.0956023 0)
(0.206638 0.0998973 0)
(0.197495 0.100225 0)
(0.187752 0.097562 0)
(0.177855 0.0929211 0)
(0.168365 0.0869004 0)
(0.159309 0.0803296 0)
(0.150297 0.073816 0)
(0.141852 0.0666191 0)
(0.134094 0.0587131 0)
(0.125098 0.0524169 0)
(0.113616 0.0490925 0)
(0.101578 0.0452557 0)
(0.0922655 0.0370539 0)
(0.0887002 0.0186012 0)
(0.0867721 0.00174903 0)
(0.0930413 -0.0348658 0)
(0.147591 -0.00393642 0)
(0.161388 -0.00511873 0)
(0.180564 -0.00806766 0)
(0.179035 -0.00946171 0)
(0.174024 -0.0112986 0)
(0.170055 -0.0143897 -4.37685e-25)
(0.166727 -0.0174976 -1.21213e-23)
(0.164906 -0.0215536 -5.10214e-23)
(0.161467 -0.0258301 0)
(0.158838 -0.0319336 6.15825e-22)
(0.154726 -0.0387664 -2.17105e-22)
(0.15137 -0.048628 0)
(0.150479 -0.0602918 8.18197e-22)
(0.146071 -0.0769046 6.31715e-21)
(0.164452 -0.10606 -1.08286e-20)
(0.139841 -0.127463 0)
(0.179895 -0.149069 -6.75472e-20)
(0.119459 -0.095351 0)
(0.016541 -0.000233455 -1.31651e-19)
(0.00394427 -0.000571675 1.60072e-19)
(0.00141959 -0.0038737 0)
(0.0056187 -0.00564958 -1.22584e-20)
(0.00916485 -0.00830937 -5.03354e-21)
(0.0156506 -0.0116196 -7.17102e-22)
(0.0227228 -0.0160044 0)
(0.0310129 -0.0208575 1.62918e-22)
(0.0406923 -0.0259461 1.5626e-22)
(0.0518218 -0.0308171 0)
(0.0643934 -0.0345878 -4.61671e-23)
(0.0782778 -0.0361765 -1.27854e-23)
(0.093244 -0.0344375 -2.05882e-25)
(0.10883 -0.0286786 0)
(0.124338 -0.0192247 0)
(0.139089 -0.00675143 0)
(0.153182 0.00838088 0)
(0.166844 0.0265454 0)
(0.179439 0.0469239 0)
(0.189488 0.0673637 0)
(0.195346 0.0851963 0)
(0.196345 0.0984494 0)
(0.193067 0.106153 0)
(0.186702 0.108395 0)
(0.178488 0.106577 0)
(0.16981 0.102275 0)
(0.161066 0.0961527 0)
(0.152119 0.0894473 0)
(0.143304 0.0824414 0)
(0.135306 0.0745852 0)
(0.127017 0.0674353 0)
(0.116369 0.0633765 0)
(0.103804 0.0611495 0)
(0.0925966 0.0554057 0)
(0.08543 0.0427027 0)
(0.0836956 0.0202959 0)
(0.0831551 -6.17813e-05 0)
(0.0896557 -0.0391393 0)
(0.144664 -0.00318434 0)
(0.159673 -0.0040801 0)
(0.179375 -0.00652038 0)
(0.177534 -0.00764454 0)
(0.171925 -0.0091454 0)
(0.167686 -0.011689 2.39728e-23)
(0.16356 -0.0143494 -1.22125e-23)
(0.161617 -0.01786 7.869e-23)
(0.156337 -0.021672 2.74284e-23)
(0.153679 -0.0272743 0)
(0.14524 -0.0337609 0)
(0.142911 -0.0435414 0)
(0.131819 -0.0563317 1.08867e-21)
(0.13145 -0.0733238 -8.43983e-21)
(0.125655 -0.113753 1.30666e-20)
(0.0909468 -0.114898 4.98229e-22)
(-0.00221845 -0.00278067 4.99574e-20)
(-0.00327083 -0.00705967 1.39197e-20)
(-0.0020674 -0.0129889 7.64834e-22)
(0.00208111 -0.0179043 -7.6233e-22)
(0.00685257 -0.0228512 0)
(0.0123416 -0.0287064 0)
(0.0190184 -0.0352091 0)
(0.0273118 -0.0416727 -2.29309e-23)
(0.0374628 -0.0471362 1.17939e-22)
(0.0495657 -0.0502797 4.05563e-23)
(0.0634876 -0.0496194 -2.05164e-23)
(0.0787025 -0.0442332 0)
(0.0942911 -0.0343395 0)
(0.109175 -0.0208923 0)
(0.122994 -0.00472004 0)
(0.135956 0.0141351 0)
(0.148088 0.0356755 0)
(0.159012 0.0584204 0)
(0.167526 0.079823 0)
(0.172283 0.0972065 0)
(0.172948 0.108505 0)
(0.170336 0.113805 0)
(0.165626 0.114213 0)
(0.158705 0.110221 0)
(0.151243 0.104373 0)
(0.143275 0.0978174 0)
(0.135636 0.0903638 0)
(0.128249 0.0826344 0)
(0.119116 0.0773189 0)
(0.10728 0.0752827 0)
(0.0949996 0.0726069 0)
(0.0857863 0.0635095 0)
(0.0810586 0.0462089 0)
(0.0810071 0.0205173 0)
(0.081668 -0.0029086 0)
(0.0881405 -0.0430609 0)
(0.142402 -0.00233202 0)
(0.158367 -0.00296012 0)
(0.178442 -0.00476502 0)
(0.176357 -0.00558311 0)
(0.170425 -0.0067279 0)
(0.165518 -0.00861775 -2.70989e-25)
(0.161308 -0.0106453 -1.36205e-23)
(0.158306 -0.013373 -2.55615e-23)
(0.152669 -0.016334 -1.5534e-22)
(0.14788 -0.0210323 -2.7481e-22)
(0.138159 -0.0260939 0)
(0.132147 -0.0354978 0)
(0.115884 -0.0449655 0)
(0.112262 -0.0661374 3.05536e-21)
(0.0751233 -0.102722 -8.58046e-22)
(0.0600342 -0.0890036 9.58244e-20)
(-0.000602925 -0.00188893 1.21549e-19)
(-0.00258319 -0.00470766 -6.88996e-22)
(-0.00582607 -0.0137046 1.71198e-21)
(-0.00642206 -0.0194013 0)
(-0.00674337 -0.0250695 0)
(-0.00609278 -0.0321318 0)
(-0.00400732 -0.0403708 -2.01718e-22)
(0.000140805 -0.0490045 -7.71661e-23)
(0.00674056 -0.0568677 -7.34831e-23)
(0.0160605 -0.0623901 -1.40671e-23)
(0.0281654 -0.0637171 0)
(0.0427639 -0.0594495 0)
(0.0587428 -0.0497287 0)
(0.0747789 -0.0354364 0)
(0.0896345 -0.0178471 0)
(0.103242 0.00231828 0)
(0.115746 0.0247409 0)
(0.127229 0.0486973 0)
(0.137197 0.0722523 0)
(0.144701 0.092631 0)
(0.149014 0.107431 0)
(0.149638 0.11557 0)
(0.14812 0.117647 0)
(0.146039 0.116356 0)
(0.140417 0.111378 0)
(0.133696 0.104755 0)
(0.127635 0.0972985 0)
(0.120584 0.0908699 0)
(0.110655 0.087977 0)
(0.0987191 0.0870599 0)
(0.0883031 0.0823829 0)
(0.0820448 0.0692468 0)
(0.0798576 0.0478213 0)
(0.0811085 0.0195137 0)
(0.0829031 -0.00632809 0)
(0.0892427 -0.0467153 0)
(0.140871 -0.0014052 0)
(0.157497 -0.00177291 0)
(0.177801 -0.00286736 0)
(0.175548 -0.00335946 0)
(0.169414 -0.00407537 0)
(0.16397 -0.0052094 6.30359e-24)
(0.159771 -0.00649498 6.61296e-24)
(0.155826 -0.00814832 0)
(0.150124 -0.0101203 1.25821e-22)
(0.143175 -0.0130304 2.74858e-22)
(0.133224 -0.0166146 0)
(0.122095 -0.0227828 0)
(0.105348 -0.0297117 1.62722e-21)
(0.0895698 -0.0470179 -6.29808e-21)
(0.0402797 -0.056152 0)
(-0.00268486 -0.000176842 0)
(-0.00882373 -0.00996909 5.16829e-23)
(-0.0142117 -0.0159428 -1.7615e-21)
(-0.019044 -0.0223345 0)
(-0.0229047 -0.0306854 0)
(-0.0253702 -0.0409306 2.00416e-22)
(-0.0256036 -0.0522817 1.00832e-22)
(-0.0230885 -0.0632271 0)
(-0.0175094 -0.0719079 6.46641e-24)
(-0.00856829 -0.0762904 0)
(0.0043061 -0.0743167 0)
(0.0197479 -0.065452 0)
(0.0365618 -0.0508083 0)
(0.052802 -0.0322141 0)
(0.0677665 -0.0105881 0)
(0.081379 0.0131188 0)
(0.0939832 0.0381734 0)
(0.105457 0.0630436 0)
(0.115313 0.0853665 0)
(0.122707 0.102799 0)
(0.127221 0.113674 0)
(0.129273 0.117978 0)
(0.129265 0.118246 0)
(0.127606 0.116436 0)
(0.12352 0.110288 0)
(0.118927 0.103317 0)
(0.111981 0.0993031 0)
(0.102026 0.098752 0)
(0.0917501 0.0973856 0)
(0.0846877 0.0893359 0)
(0.0815526 0.0722122 0)
(0.0813773 0.0475822 0)
(0.0844354 0.017132 0)
(0.0875145 -0.0103611 0)
(0.0936056 -0.0501238 0)
(0.140121 -0.000433166 0)
(0.157075 -0.000542819 -4.47463e-28)
(0.177485 -0.000881766 1.04621e-27)
(0.175149 -0.00103436 0)
(0.168881 -0.00125545 0)
(0.163256 -0.00160397 0)
(0.158917 -0.00201197 7.00831e-24)
(0.154685 -0.00251906 -3.80032e-24)
(0.148615 -0.00317904 8.27964e-24)
(0.140979 -0.0040606 1.73709e-22)
(0.1301 -0.00538299 5.99552e-23)
(0.117126 -0.00718868 -9.59404e-22)
(0.0980197 -0.0103767 2.39629e-21)
(0.0755394 -0.0151652 7.77815e-21)
(0.0280187 -0.0234481 -7.47144e-21)
(-0.00234925 0.00489435 3.70079e-20)
(-0.0107263 -0.00279475 -9.65379e-21)
(-0.0192136 -0.0089793 2.41013e-21)
(-0.0267183 -0.016406 -7.2475e-22)
(-0.0326892 -0.0263022 2.73848e-22)
(-0.0369749 -0.0381733 0)
(-0.0396583 -0.0514875 1.5753e-23)
(-0.0404399 -0.0649554 -1.95287e-24)
(-0.0391492 -0.0766482 7.23533e-24)
(-0.0354338 -0.0845463 0)
(-0.028924 -0.0871313 0)
(-0.0171891 -0.0814072 0)
(-0.000997765 -0.0672977 -2.27953e-27)
(0.0160993 -0.047646 5.9788e-28)
(0.0323585 -0.0248071 7.64185e-29)
(0.0471804 0.000167922 0)
(0.0609815 0.0263555 1.14025e-30)
(0.0738858 0.0522902 0)
(0.0855785 0.0760659 7.20701e-33)
(0.0955234 0.0954314 0)
(0.103362 0.108633 7.5487e-35)
(0.10877 0.115646 0)
(0.112093 0.117905 0)
(0.113336 0.117136 0)
(0.113098 0.113426 5.13723e-35)
(0.109591 0.108853 0)
(0.102783 0.107694 0)
(0.0943878 0.108024 0)
(0.0876995 0.104441 -6.11301e-36)
(0.0844725 0.0930305 0)
(0.0835717 0.0726497 0)
(0.086754 0.045195 0)
(0.0915883 0.0133655 0)
(0.095984 -0.0149095 0)
(0.101716 -0.0531955 0)
(0.140175 0.000552262 0)
(0.157107 0.000699861 4.47458e-28)
(0.177513 0.00113088 -1.04619e-27)
(0.175184 0.0013265 0)
(0.168925 0.00161586 0)
(0.163313 0.0020611 0)
(0.158981 0.00258369 0)
(0.154767 0.00322365 -2.61598e-23)
(0.148712 0.00404972 -8.2796e-24)
(0.141102 0.00513375 3.45909e-22)
(0.13025 0.00671092 5.19746e-22)
(0.117308 0.00882451 7.81688e-22)
(0.0982529 0.0124181 -4.29481e-21)
(0.0757893 0.0176729 3.52534e-21)
(0.0281653 0.0264764 0)
(-0.00311077 0.0121179 4.05184e-21)
(-0.0120183 0.00617881 -4.2215e-21)
(-0.0206714 -0.000604441 1.07588e-21)
(-0.0284421 -0.00937144 -1.21082e-21)
(-0.035056 -0.020807 3.50295e-23)
(-0.0401075 -0.0346475 3.63001e-22)
(-0.0437369 -0.0494625 -8.84148e-23)
(-0.0460245 -0.0642125 -3.34768e-23)
(-0.0468299 -0.0775868 0)
(-0.0458399 -0.0876182 -1.99469e-24)
(-0.0435404 -0.0927301 0)
(-0.0385102 -0.0920202 0)
(-0.0298805 -0.0826716 2.21255e-27)
(-0.0159431 -0.0645033 -5.88419e-28)
(0.000940893 -0.0403252 -7.61817e-29)
(0.0166931 -0.0142035 0)
(0.0315431 0.0129879 -1.14025e-30)
(0.045596 0.0397841 0)
(0.0588238 0.0645272 -7.20701e-33)
(0.0709181 0.0852222 0)
(0.0814817 0.100284 -7.5487e-35)
(0.0901 0.10948 0)
(0.0965583 0.114014 0)
(0.100568 0.115098 0)
(0.101643 0.114212 -5.05143e-35)
(0.0999799 0.113828 0)
(0.0943673 0.114829 0)
(0.0896215 0.113881 0)
(0.0872368 0.107977 5.75777e-36)
(0.0864138 0.0933593 0)
(0.0898138 0.0700708 0)
(0.0962472 0.0403058 0)
(0.102509 0.00817882 0)
(0.10826 -0.019993 0)
(0.113542 -0.0559566 0)
(0.141031 0.00151849 0)
(0.157591 0.00192308 0)
(0.177884 0.00310596 0)
(0.17565 0.00363965 0)
(0.169544 0.00441998 0)
(0.164138 0.00564497 6.25242e-24)
(0.15996 0.00704171 1.3497e-23)
(0.156068 0.00881868 2.99598e-23)
(0.15041 0.0109537 0)
(0.143536 0.0140494 -6.31939e-22)
(0.133667 0.0178868 -2.3546e-22)
(0.122633 0.0243439 -3.2792e-22)
(0.106031 0.0316574 -2.83653e-21)
(0.0904069 0.0495521 3.00184e-21)
(0.0406527 0.0589938 0)
(-0.00434979 0.0162559 0)
(-0.011272 0.0135262 2.39359e-21)
(-0.0178326 0.00693823 2.45837e-21)
(-0.024262 -0.00238116 0)
(-0.0304967 -0.0147614 -7.83526e-23)
(-0.0363626 -0.0297449 -5.53686e-22)
(-0.0412912 -0.0463211 2.41312e-22)
(-0.0449848 -0.0629139 3.6563e-23)
(-0.0471404 -0.0777562 1.84733e-23)
(-0.0476098 -0.0890703 2.03748e-24)
(-0.0468441 -0.0949619 0)
(-0.0441714 -0.0962359 0)
(-0.0399638 -0.0903653 0)
(-0.0330839 -0.077132 0)
(-0.0220172 -0.0562801 0)
(-0.00703979 -0.0297243 0)
(0.0081219 -0.00178906 0)
(0.0229637 0.0255841 0)
(0.0375465 0.050874 0)
(0.0513913 0.0724564 0)
(0.0640134 0.0890079 0)
(0.0748479 0.100368 0)
(0.0832082 0.107571 0)
(0.0886399 0.111798 0)
(0.0907864 0.114471 0)
(0.0899723 0.116699 0)
(0.0883568 0.117439 0)
(0.0882571 0.115381 0)
(0.0885283 0.107771 0)
(0.0925616 0.0902159 0)
(0.100418 0.063863 0)
(0.109361 0.0331679 0)
(0.116886 0.00170058 0)
(0.123967 -0.0256399 0)
(0.128597 -0.0584278 0)
(0.14266 0.00243407 0)
(0.158521 0.00309682 0)
(0.178577 0.00498301 0)
(0.176521 0.00583911 0)
(0.170639 0.00704304 0)
(0.165783 0.00901048 -2.93751e-25)
(0.161621 0.011145 -1.34962e-23)
(0.158689 0.0139763 2.91262e-23)
(0.153137 0.0170943 -2.91121e-23)
(0.148464 0.0219505 -2.25233e-22)
(0.138867 0.0272482 -9.91805e-22)
(0.133061 0.0369209 2.20045e-21)
(0.116942 0.0467264 4.16576e-21)
(0.1138 0.0684227 -8.98587e-21)
(0.0766521 0.105988 -7.96272e-22)
(0.0617312 0.0920894 0)
(-0.00354533 0.00962905 1.72832e-19)
(-0.00451115 0.020903 -1.28477e-19)
(-0.00543534 0.0179503 2.0734e-21)
(-0.00829645 0.0121374 -7.72932e-21)
(-0.0113488 0.00329606 2.85271e-21)
(-0.0147226 -0.00907431 -1.52143e-21)
(-0.0182082 -0.0243821 3.34842e-22)
(-0.0217543 -0.0416361 -1.2379e-22)
(-0.0254518 -0.0592887 -4.32279e-23)
(-0.0294573 -0.0755127 -1.91624e-23)
(-0.0336871 -0.0885724 0)
(-0.0368978 -0.0962113 0)
(-0.0391686 -0.098706 0)
(-0.0390812 -0.0938503 0)
(-0.0356258 -0.082518 0)
(-0.0294662 -0.0655784 0)
(-0.0200323 -0.0435447 0)
(-0.00739441 -0.0166679 0)
(0.00681374 0.0108393 0)
(0.0215084 0.0363999 0)
(0.0360024 0.0587831 0)
(0.0494984 0.0768785 0)
(0.0612215 0.0906137 0)
(0.0704604 0.100717 0)
(0.0770331 0.107999 0)
(0.0810904 0.113137 0)
(0.0836807 0.11612 0)
(0.0864793 0.116477 0)
(0.0890116 0.113651 0)
(0.0935205 0.103883 0)
(0.104013 0.0819166 0)
(0.114786 0.0546734 0)
(0.125925 0.0242255 0)
(0.134198 -0.00570852 0)
(0.142392 -0.0317086 0)
(0.146042 -0.0605392 0)
(0.145009 0.00327038 0)
(0.159881 0.00419734 0)
(0.179555 0.00670842 0)
(0.177754 0.00786422 0)
(0.172221 0.00941636 0)
(0.168028 0.0120237 -3.82908e-25)
(0.16399 0.0147776 1.18947e-23)
(0.162115 0.0183736 4.99148e-23)
(0.156971 0.0223201 0)
(0.15445 0.0280525 9.3746e-22)
(0.14619 0.0347425 1.86043e-21)
(0.144131 0.0447323 -4.04e-21)
(0.133263 0.0578517 0)
(0.133384 0.0751672 4.70677e-21)
(0.128065 0.116403 1.01522e-21)
(0.0929116 0.117966 3.03146e-20)
(-0.00212708 0.0087487 -7.79889e-20)
(0.00189197 0.0191399 -2.0567e-20)
(0.00657786 0.0176768 -5.06334e-21)
(0.00971977 0.0125417 -2.31972e-22)
(0.0121362 0.00414413 -5.83904e-21)
(0.0140278 -0.00769808 3.12427e-21)
(0.0156972 -0.0223981 7.65868e-22)
(0.0166875 -0.038668 0)
(0.0162948 -0.0548767 8.8557e-23)
(0.0138243 -0.0694947 1.98545e-23)
(0.00855386 -0.081379 8.45863e-24)
(0.000953993 -0.0897255 0)
(-0.00797544 -0.0938859 0)
(-0.0167244 -0.0929849 0)
(-0.0223945 -0.0856459 0)
(-0.0235223 -0.0714674 0)
(-0.0198377 -0.0513163 0)
(-0.0120495 -0.0282601 0)
(-0.00122438 -0.00279423 0)
(0.0114321 0.0223766 0)
(0.0249276 0.0451907 0)
(0.0380704 0.0646006 0)
(0.0499671 0.0803402 0)
(0.06011 0.0927004 0)
(0.0684649 0.101972 0)
(0.0753941 0.108447 0)
(0.0815157 0.11207 0)
(0.0872012 0.112778 0)
(0.0936427 0.10807 0)
(0.105534 0.0931425 0)
(0.11984 0.069889 0)
(0.132673 0.0431825 0)
(0.145359 0.0139042 0)
(0.153736 -0.0136979 0)