/*--------------------------------*- C++ -*----------------------------------*\
| =========                 |                                                 |
| \\      /  F ield         | OpenFOAM: The Open Source CFD Toolbox           |
|  \\    /   O peration     | Version:  2.3.0                                 |
|   \\  /    A nd           | Web:      www.OpenFOAM.org                      |
|    \\/     M anipulation  |                                                 |
\*---------------------------------------------------------------------------*/
FoamFile
{
    version     2.0;
    format      ascii;
    class       volScalarField;
    location    "0.08";
    object      T;
}
// * * * * * * * * * * * * * * * * * * * * * * * * * * * * * * * * * * * * * //

dimensions      [0 0 0 1 0 0 0];

internalField   nonuniform List<scalar> 
12225
(
3.12804e-10
3.10927e-10
3.104e-10
3.10233e-10
3.10159e-10
3.10256e-10
3.10648e-10
3.11581e-10
3.13569e-10
3.1767e-10
3.26134e-10
3.43963e-10
3.82633e-10
4.69027e-10
6.66951e-10
1.13056e-09
2.24858e-09
5.11899e-09
3.08391e-10
3.08927e-10
3.0937e-10
3.09662e-10
3.09843e-10
3.10086e-10
3.10568e-10
3.11565e-10
3.13605e-10
3.17748e-10
3.26224e-10
3.43937e-10
3.82058e-10
4.66533e-10
6.58262e-10
1.10139e-09
2.14173e-09
4.61053e-09
3.10542e-10
3.10502e-10
3.10369e-10
3.10312e-10
3.10302e-10
3.10434e-10
3.10857e-10
3.11841e-10
3.13913e-10
3.1813e-10
3.26688e-10
3.44345e-10
3.81765e-10
4.63289e-10
6.44717e-10
1.05297e-09
1.9686e-09
3.94731e-09
3.10647e-10
3.10448e-10
3.10275e-10
3.10259e-10
3.10318e-10
3.10516e-10
3.11012e-10
3.12096e-10
3.1432e-10
3.18762e-10
3.27603e-10
3.45435e-10
3.82275e-10
4.60331e-10
6.28687e-10
9.92913e-10
1.76448e-09
3.28975e-09
3.10819e-10
3.10702e-10
3.10573e-10
3.10564e-10
3.10638e-10
3.10866e-10
3.11424e-10
3.12633e-10
3.15087e-10
3.19914e-10
3.29304e-10
3.47689e-10
3.8435e-10
4.59015e-10
6.13169e-10
9.30174e-10
1.56056e-09
2.71276e-09
3.11099e-10
3.11048e-10
3.10957e-10
3.10952e-10
3.11046e-10
3.11326e-10
3.11991e-10
3.13408e-10
3.16246e-10
3.21721e-10
3.32088e-10
3.51667e-10
3.89002e-10
4.61236e-10
6.02218e-10
8.74933e-10
1.38217e-09
2.24827e-09
3.11574e-10
3.11559e-10
3.115e-10
3.11509e-10
3.11636e-10
3.11994e-10
3.12822e-10
3.14563e-10
3.18005e-10
3.24521e-10
3.36527e-10
3.58342e-10
3.97902e-10
4.69974e-10
6.01535e-10
8.38732e-10
1.25006e-09
1.91072e-09
3.12152e-10
3.12149e-10
3.12118e-10
3.1215e-10
3.12321e-10
3.12778e-10
3.13819e-10
3.15985e-10
3.20226e-10
3.28146e-10
3.42429e-10
3.67583e-10
4.1129e-10
4.86768e-10
6.16382e-10
8.35627e-10
1.19356e-09
1.74142e-09
3.12797e-10
3.12802e-10
3.12793e-10
3.12852e-10
3.13077e-10
3.13655e-10
3.14952e-10
3.17636e-10
3.22858e-10
3.32519e-10
3.49679e-10
3.79201e-10
4.28821e-10
5.10857e-10
6.44575e-10
8.58381e-10
1.18915e-09
1.67424e-09
3.13679e-10
3.13691e-10
3.13706e-10
3.13803e-10
3.14108e-10
3.14867e-10
3.16556e-10
3.20038e-10
3.26783e-10
3.39174e-10
3.60914e-10
3.97589e-10
4.57472e-10
5.52652e-10
7.00406e-10
9.24123e-10
1.25221e-09
1.71289e-09
3.14886e-10
3.14903e-10
3.14943e-10
3.15094e-10
3.15523e-10
3.16567e-10
3.18877e-10
3.23632e-10
3.32829e-10
3.49657e-10
3.78938e-10
4.27634e-10
5.05427e-10
6.25346e-10
8.04342e-10
1.06335e-09
1.42602e-09
1.91534e-09
3.16534e-10
3.16557e-10
3.16629e-10
3.16859e-10
3.17486e-10
3.18994e-10
3.2233e-10
3.29209e-10
3.42532e-10
3.66892e-10
4.09111e-10
4.78739e-10
5.88438e-10
7.54171e-10
9.95086e-10
1.33286e-09
1.7902e-09
2.38831e-09
3.1878e-10
3.18813e-10
3.1893e-10
3.19289e-10
3.20247e-10
3.22552e-10
3.27671e-10
3.38282e-10
3.58926e-10
3.96769e-10
4.62354e-10
5.70162e-10
7.38821e-10
9.9079e-10
1.35147e-09
1.84769e-09
2.50555e-09
3.34783e-09
3.21839e-10
3.21888e-10
3.22079e-10
3.2266e-10
3.24211e-10
3.27965e-10
3.36376e-10
3.53964e-10
3.88441e-10
4.52003e-10
5.62522e-10
7.44289e-10
1.02794e-09
1.44936e-09
2.04746e-09
2.86117e-09
3.92575e-09
5.26907e-09
3.25997e-10
3.26077e-10
3.26401e-10
3.27397e-10
3.30078e-10
3.36651e-10
3.51573e-10
3.83173e-10
4.45801e-10
5.62277e-10
7.66043e-10
1.10224e-09
1.62695e-09
2.40422e-09
3.50104e-09
4.98089e-09
6.8968e-09
9.28477e-09
3.31636e-10
3.31776e-10
3.32361e-10
3.34188e-10
3.39186e-10
3.51664e-10
3.80515e-10
4.42662e-10
5.67703e-10
8.03138e-10
1.21876e-09
1.90822e-09
2.98598e-09
4.57906e-09
6.81432e-09
9.80391e-09
1.36309e-08
1.83369e-08
3.39248e-10
3.39514e-10
3.40648e-10
3.44262e-10
3.54376e-10
3.80255e-10
4.41583e-10
5.76768e-10
8.54408e-10
1.38619e-09
2.33712e-09
3.92726e-09
6.41991e-09
1.00952e-08
1.52142e-08
2.19817e-08
3.05167e-08
4.08329e-08
3.487e-10
3.49222e-10
3.51494e-10
3.58919e-10
3.80328e-10
4.36892e-10
5.75292e-10
8.89816e-10
1.5539e-09
2.85618e-09
5.22761e-09
9.23953e-09
1.55554e-08
2.48368e-08
3.76276e-08
5.42556e-08
7.47786e-08
9.8978e-08
3.58658e-10
3.59616e-10
3.63874e-10
3.78197e-10
4.20919e-10
5.37979e-10
8.35229e-10
1.53566e-09
3.06539e-09
6.15563e-09
1.19179e-08
2.18218e-08
3.75113e-08
6.04695e-08
9.16526e-08
1.31256e-07
1.78695e-07
2.32751e-07
3.68041e-10
3.69616e-10
3.76753e-10
4.0145e-10
4.77661e-10
6.94394e-10
1.26655e-09
2.66849e-09
5.84823e-09
1.24977e-08
2.52608e-08
4.7649e-08
8.34318e-08
1.3554e-07
2.04993e-07
2.90535e-07
3.89074e-07
4.96526e-07
3.7652e-10
3.7887e-10
3.8972e-10
4.28301e-10
5.51345e-10
9.14413e-10
1.91158e-09
4.45775e-09
1.04775e-08
2.35773e-08
4.96218e-08
9.6538e-08
1.72507e-07
2.82565e-07
4.25625e-07
5.94671e-07
7.79526e-07
9.69904e-07
3.83883e-10
3.8711e-10
4.0226e-10
4.57501e-10
6.39183e-10
1.19446e-09
2.78e-09
7.00245e-09
1.74373e-08
4.11841e-08
9.04319e-08
1.82272e-07
3.33919e-07
5.52586e-07
8.27173e-07
1.13347e-06
1.44556e-06
1.74365e-06
3.90034e-10
3.94163e-10
4.1383e-10
4.87148e-10
7.35021e-10
1.51733e-09
3.83455e-09
1.02651e-08
2.68965e-08
6.66355e-08
1.53223e-07
3.22063e-07
6.09229e-07
1.02244e-06
1.51598e-06
2.02266e-06
2.49052e-06
2.89406e-06
3.9498e-10
3.99965e-10
4.23973e-10
5.15195e-10
8.30948e-10
1.85583e-09
4.99323e-09
1.40418e-08
3.85129e-08
1.00036e-07
2.41783e-07
5.34144e-07
1.05403e-06
1.80632e-06
2.63748e-06
3.3907e-06
3.99349e-06
4.44253e-06
3.98806e-10
4.04523e-10
4.32372e-10
5.39895e-10
9.19324e-10
2.17991e-09
6.14891e-09
1.79925e-08
5.13775e-08
1.39642e-07
3.55576e-07
8.32221e-07
1.73686e-06
3.07842e-06
4.37754e-06
5.34258e-06
5.95707e-06
6.31195e-06
4.01705e-10
4.07984e-10
4.38982e-10
5.60264e-10
9.94736e-10
2.46499e-09
7.20006e-09
2.17342e-08
6.41997e-08
1.81793e-07
4.87346e-07
1.21595e-06
2.73001e-06
5.12556e-06
6.94423e-06
7.88788e-06
8.24807e-06
8.30813e-06
4.03758e-10
4.1037e-10
4.43701e-10
5.75655e-10
1.0538e-09
2.6944e-09
8.06956e-09
2.49318e-08
7.5627e-08
2.21572e-07
6.22211e-07
1.65741e-06
4.07523e-06
8.46911e-06
1.04808e-05
1.08272e-05
1.05672e-05
1.01553e-05
4.05243e-10
4.12447e-10
4.47619e-10
5.87402e-10
1.09795e-09
2.86682e-09
8.73172e-09
2.74126e-08
8.47277e-08
2.5451e-07
7.41099e-07
2.09166e-06
5.69445e-06
1.41433e-05
1.48064e-05
1.36537e-05
1.25167e-05
1.15979e-05
4.02778e-10
4.10835e-10
4.47753e-10
5.92724e-10
1.12382e-09
2.97565e-09
9.16455e-09
2.90722e-08
9.09372e-08
2.77463e-07
8.26297e-07
2.42063e-06
7.17562e-06
2.42268e-05
1.87598e-05
1.56252e-05
1.37829e-05
1.25037e-05
4.09313e-10
4.14496e-10
4.50679e-10
5.97819e-10
1.1403e-09
3.03891e-09
9.40873e-09
2.99936e-08
9.43422e-08
2.89865e-07
8.7065e-07
2.5653e-06
7.37429e-06
1.92084e-05
1.8948e-05
1.63968e-05
1.4349e-05
1.2899e-05
1.33555e-07
1.33719e-07
1.34044e-07
1.34538e-07
1.35209e-07
1.36059e-07
1.37092e-07
1.38311e-07
1.3972e-07
1.41322e-07
1.43122e-07
1.45121e-07
1.47323e-07
1.4973e-07
1.52344e-07
1.55167e-07
1.582e-07
1.61445e-07
1.64902e-07
1.68572e-07
1.72455e-07
1.76552e-07
1.80861e-07
1.85382e-07
1.90114e-07
1.95055e-07
2.00203e-07
2.05557e-07
2.11113e-07
2.16869e-07
2.22822e-07
2.28969e-07
2.35304e-07
2.41826e-07
2.48528e-07
2.55407e-07
2.62457e-07
2.69673e-07
2.77051e-07
2.84583e-07
2.92265e-07
3.0009e-07
3.08051e-07
3.16143e-07
3.24359e-07
3.32691e-07
3.41133e-07
3.49678e-07
3.5832e-07
3.67051e-07
3.75864e-07
3.84752e-07
3.93708e-07
4.02725e-07
4.11797e-07
4.20916e-07
4.30077e-07
4.39272e-07
4.48495e-07
4.57741e-07
4.67004e-07
4.76278e-07
4.85558e-07
4.94839e-07
5.04116e-07
5.13385e-07
5.22641e-07
5.31882e-07
5.41103e-07
5.50301e-07
5.59473e-07
5.68617e-07
5.77731e-07
5.86811e-07
5.95856e-07
6.04866e-07
6.13838e-07
6.22771e-07
6.31665e-07
6.40518e-07
6.49331e-07
6.58103e-07
6.66835e-07
6.75525e-07
6.84176e-07
6.92787e-07
7.01358e-07
7.09891e-07
7.18387e-07
7.26846e-07
7.35269e-07
7.43659e-07
7.52016e-07
7.60341e-07
7.68637e-07
7.76903e-07
7.85143e-07
7.93357e-07
8.01546e-07
8.09712e-07
8.17856e-07
8.25979e-07
8.34083e-07
8.42168e-07
8.50235e-07
8.58284e-07
8.66317e-07
8.74334e-07
8.82335e-07
8.90321e-07
8.98291e-07
9.06246e-07
9.14186e-07
9.2211e-07
9.30019e-07
9.37911e-07
9.45787e-07
9.53647e-07
9.61488e-07
9.69312e-07
9.77116e-07
9.84901e-07
9.92665e-07
1.00041e-06
1.00813e-06
1.01583e-06
1.0235e-06
1.03114e-06
1.03876e-06
1.04635e-06
1.05392e-06
1.06145e-06
1.06894e-06
1.07641e-06
1.08384e-06
1.09123e-06
1.09858e-06
1.10589e-06
1.11316e-06
1.12039e-06
1.12757e-06
1.13471e-06
1.1418e-06
1.14883e-06
1.15582e-06
1.16275e-06
1.16962e-06
1.17644e-06
1.1832e-06
1.1899e-06
1.19654e-06
1.20312e-06
1.20963e-06
1.21607e-06
1.22245e-06
1.22876e-06
1.23499e-06
1.24116e-06
1.24725e-06
1.25327e-06
1.25921e-06
1.26507e-06
1.27087e-06
1.27654e-06
1.28212e-06
1.28763e-06
1.29301e-06
1.29831e-06
1.30354e-06
1.30868e-06
1.31374e-06
1.31871e-06
1.32359e-06
1.32839e-06
1.3331e-06
1.33771e-06
1.34226e-06
1.34657e-06
1.35129e-06
1.35326e-06
1.33193e-07
1.33355e-07
1.33687e-07
1.34189e-07
1.34867e-07
1.35724e-07
1.36762e-07
1.37986e-07
1.39399e-07
1.41003e-07
1.42803e-07
1.44801e-07
1.47e-07
1.49402e-07
1.5201e-07
1.54826e-07
1.5785e-07
1.61085e-07
1.64531e-07
1.68188e-07
1.72058e-07
1.7614e-07
1.80433e-07
1.84936e-07
1.8965e-07
1.94571e-07
1.99699e-07
2.05031e-07
2.10565e-07
2.16298e-07
2.22227e-07
2.28349e-07
2.3466e-07
2.41155e-07
2.47831e-07
2.54684e-07
2.61707e-07
2.68896e-07
2.76246e-07
2.83751e-07
2.91406e-07
2.99203e-07
3.07137e-07
3.15202e-07
3.23391e-07
3.31696e-07
3.40113e-07
3.48633e-07
3.57249e-07
3.65955e-07
3.74744e-07
3.83608e-07
3.92541e-07
4.01536e-07
4.10585e-07
4.19683e-07
4.28823e-07
4.37998e-07
4.47202e-07
4.5643e-07
4.65675e-07
4.74931e-07
4.84195e-07
4.93461e-07
5.02723e-07
5.11978e-07
5.21222e-07
5.30451e-07
5.3966e-07
5.48848e-07
5.58011e-07
5.67147e-07
5.76252e-07
5.85325e-07
5.94364e-07
6.03368e-07
6.12336e-07
6.21265e-07
6.30155e-07
6.39006e-07
6.47817e-07
6.56588e-07
6.65319e-07
6.7401e-07
6.82661e-07
6.91273e-07
6.99846e-07
7.08382e-07
7.1688e-07
7.25342e-07
7.3377e-07
7.42164e-07
7.50525e-07
7.58856e-07
7.67157e-07
7.7543e-07
7.83676e-07
7.91897e-07
8.00094e-07
8.08268e-07
8.16421e-07
8.24555e-07
8.32669e-07
8.40765e-07
8.48844e-07
8.56907e-07
8.64953e-07
8.72984e-07
8.81e-07
8.89001e-07
8.96987e-07
9.04959e-07
9.12916e-07
9.20857e-07
9.28784e-07
9.36695e-07
9.4459e-07
9.52468e-07
9.6033e-07
9.68173e-07
9.75998e-07
9.83803e-07
9.91588e-07
9.99351e-07
1.00709e-06
1.01481e-06
1.0225e-06
1.03017e-06
1.03781e-06
1.04542e-06
1.05301e-06
1.06056e-06
1.06808e-06
1.07556e-06
1.08301e-06
1.09042e-06
1.09779e-06
1.10512e-06
1.11241e-06
1.11966e-06
1.12686e-06
1.13401e-06
1.14111e-06
1.14816e-06
1.15516e-06
1.16211e-06
1.169e-06
1.17583e-06
1.1826e-06
1.18931e-06
1.19596e-06
1.20254e-06
1.20906e-06
1.21551e-06
1.22189e-06
1.2282e-06
1.23444e-06
1.2406e-06
1.24669e-06
1.25271e-06
1.25864e-06
1.26449e-06
1.27028e-06
1.27596e-06
1.28157e-06
1.28712e-06
1.29256e-06
1.29792e-06
1.3032e-06
1.30839e-06
1.3135e-06
1.31851e-06
1.32344e-06
1.32828e-06
1.33303e-06
1.33769e-06
1.34228e-06
1.34668e-06
1.35132e-06
1.35421e-06
1.3247e-07
1.32625e-07
1.32955e-07
1.33459e-07
1.34138e-07
1.34995e-07
1.36032e-07
1.37254e-07
1.38663e-07
1.40262e-07
1.42055e-07
1.44044e-07
1.46231e-07
1.48621e-07
1.51213e-07
1.54011e-07
1.57016e-07
1.60228e-07
1.63649e-07
1.6728e-07
1.7112e-07
1.7517e-07
1.79429e-07
1.83896e-07
1.88571e-07
1.93452e-07
1.98538e-07
2.03827e-07
2.09315e-07
2.15001e-07
2.20882e-07
2.26954e-07
2.33213e-07
2.39657e-07
2.4628e-07
2.53079e-07
2.60048e-07
2.67182e-07
2.74477e-07
2.81927e-07
2.89526e-07
2.97268e-07
3.05148e-07
3.13158e-07
3.21292e-07
3.29544e-07
3.37907e-07
3.46375e-07
3.5494e-07
3.63595e-07
3.72335e-07
3.8115e-07
3.90036e-07
3.98985e-07
4.0799e-07
4.17044e-07
4.26142e-07
4.35277e-07
4.44442e-07
4.53633e-07
4.62842e-07
4.72066e-07
4.81297e-07
4.90533e-07
4.99767e-07
5.08996e-07
5.18216e-07
5.27422e-07
5.36611e-07
5.4578e-07
5.54926e-07
5.64047e-07
5.73139e-07
5.82201e-07
5.91232e-07
6.00228e-07
6.0919e-07
6.18116e-07
6.27005e-07
6.35856e-07
6.4467e-07
6.53445e-07
6.62181e-07
6.70879e-07
6.79539e-07
6.88162e-07
6.96748e-07
7.05297e-07
7.13811e-07
7.22291e-07
7.30738e-07
7.39152e-07
7.47536e-07
7.55891e-07
7.64218e-07
7.72518e-07
7.80794e-07
7.89046e-07
7.97276e-07
8.05485e-07
8.13675e-07
8.21846e-07
8.30001e-07
8.3814e-07
8.46263e-07
8.54371e-07
8.62466e-07
8.70546e-07
8.78614e-07
8.86668e-07
8.94709e-07
9.02736e-07
9.10751e-07
9.18752e-07
9.26739e-07
9.34712e-07
9.42671e-07
9.50614e-07
9.58541e-07
9.66451e-07
9.74343e-07
9.82217e-07
9.90072e-07
9.97906e-07
1.00572e-06
1.01351e-06
1.02127e-06
1.02901e-06
1.03673e-06
1.04441e-06
1.05207e-06
1.05969e-06
1.06728e-06
1.07484e-06
1.08236e-06
1.08984e-06
1.09728e-06
1.10468e-06
1.11204e-06
1.11935e-06
1.12662e-06
1.13384e-06
1.14101e-06
1.14812e-06
1.15518e-06
1.16219e-06
1.16914e-06
1.17603e-06
1.18286e-06
1.18962e-06
1.19632e-06
1.20296e-06
1.20953e-06
1.21602e-06
1.22245e-06
1.2288e-06
1.23508e-06
1.24129e-06
1.24741e-06
1.25346e-06
1.25943e-06
1.26532e-06
1.27114e-06
1.27686e-06
1.2825e-06
1.28809e-06
1.29357e-06
1.29897e-06
1.30429e-06
1.30951e-06
1.31465e-06
1.3197e-06
1.32466e-06
1.32953e-06
1.3343e-06
1.33898e-06
1.34359e-06
1.34801e-06
1.35258e-06
1.356e-06
1.31371e-07
1.31521e-07
1.3185e-07
1.32354e-07
1.33031e-07
1.33885e-07
1.34918e-07
1.36133e-07
1.37533e-07
1.39122e-07
1.40902e-07
1.42876e-07
1.45045e-07
1.47413e-07
1.49981e-07
1.52751e-07
1.55724e-07
1.58902e-07
1.62286e-07
1.65875e-07
1.69671e-07
1.73673e-07
1.77882e-07
1.82296e-07
1.86914e-07
1.91736e-07
1.9676e-07
2.01984e-07
2.07406e-07
2.13023e-07
2.18833e-07
2.24833e-07
2.31018e-07
2.37386e-07
2.43933e-07
2.50654e-07
2.57544e-07
2.646e-07
2.71815e-07
2.79185e-07
2.86704e-07
2.94366e-07
3.02165e-07
3.10096e-07
3.18152e-07
3.26326e-07
3.34612e-07
3.43004e-07
3.51494e-07
3.60076e-07
3.68743e-07
3.77489e-07
3.86306e-07
3.95188e-07
4.04128e-07
4.1312e-07
4.22157e-07
4.31233e-07
4.40343e-07
4.4948e-07
4.58638e-07
4.67813e-07
4.76999e-07
4.86191e-07
4.95385e-07
5.04576e-07
5.1376e-07
5.22934e-07
5.32094e-07
5.41236e-07
5.50359e-07
5.59459e-07
5.68533e-07
5.7758e-07
5.86598e-07
5.95586e-07
6.04541e-07
6.13463e-07
6.22351e-07
6.31204e-07
6.40022e-07
6.48805e-07
6.57551e-07
6.66262e-07
6.74937e-07
6.83578e-07
6.92184e-07
7.00756e-07
7.09296e-07
7.17804e-07
7.26281e-07
7.34729e-07
7.43149e-07
7.51542e-07
7.5991e-07
7.68254e-07
7.76577e-07
7.84878e-07
7.9316e-07
8.01425e-07
8.09673e-07
8.17906e-07
8.26124e-07
8.3433e-07
8.42523e-07
8.50704e-07
8.58874e-07
8.67032e-07
8.7518e-07
8.83318e-07
8.91445e-07
8.99561e-07
9.07666e-07
9.1576e-07
9.23843e-07
9.31913e-07
9.39971e-07
9.48015e-07
9.56045e-07
9.6406e-07
9.72059e-07
9.8004e-07
9.88004e-07
9.95948e-07
1.00387e-06
1.01177e-06
1.01965e-06
1.0275e-06
1.03533e-06
1.04313e-06
1.0509e-06
1.05864e-06
1.06634e-06
1.07401e-06
1.08164e-06
1.08924e-06
1.09679e-06
1.1043e-06
1.11177e-06
1.11919e-06
1.12657e-06
1.13389e-06
1.14116e-06
1.14838e-06
1.15554e-06
1.16265e-06
1.16969e-06
1.17667e-06
1.18359e-06
1.19045e-06
1.19724e-06
1.20395e-06
1.2106e-06
1.21718e-06
1.22368e-06
1.23011e-06
1.23646e-06
1.24273e-06
1.24893e-06
1.25504e-06
1.26107e-06
1.26702e-06
1.27289e-06
1.27866e-06
1.28436e-06
1.28998e-06
1.29551e-06
1.30096e-06
1.30631e-06
1.31157e-06
1.31675e-06
1.32183e-06
1.32682e-06
1.33171e-06
1.33651e-06
1.34121e-06
1.34583e-06
1.35027e-06
1.3548e-06
1.35851e-06
1.29885e-07
1.30034e-07
1.30361e-07
1.30862e-07
1.31537e-07
1.32385e-07
1.3341e-07
1.34615e-07
1.36002e-07
1.37575e-07
1.39336e-07
1.41287e-07
1.4343e-07
1.45768e-07
1.48302e-07
1.51034e-07
1.53965e-07
1.57097e-07
1.6043e-07
1.63965e-07
1.67703e-07
1.71644e-07
1.75786e-07
1.80131e-07
1.84677e-07
1.89422e-07
1.94367e-07
1.99508e-07
2.04845e-07
2.10374e-07
2.16094e-07
2.22001e-07
2.28092e-07
2.34363e-07
2.40812e-07
2.47434e-07
2.54224e-07
2.61179e-07
2.68292e-07
2.7556e-07
2.82977e-07
2.90538e-07
2.98235e-07
3.06065e-07
3.14021e-07
3.22096e-07
3.30284e-07
3.38579e-07
3.46974e-07
3.55462e-07
3.64038e-07
3.72694e-07
3.81424e-07
3.90221e-07
3.99078e-07
4.07991e-07
4.16951e-07
4.25953e-07
4.34992e-07
4.44061e-07
4.53155e-07
4.62268e-07
4.71396e-07
4.80534e-07
4.89677e-07
4.98821e-07
5.07961e-07
5.17095e-07
5.26219e-07
5.35329e-07
5.44422e-07
5.53497e-07
5.6255e-07
5.71579e-07
5.80584e-07
5.89561e-07
5.9851e-07
6.07429e-07
6.16318e-07
6.25175e-07
6.34001e-07
6.42795e-07
6.51556e-07
6.60286e-07
6.68983e-07
6.77649e-07
6.86284e-07
6.94888e-07
7.03464e-07
7.1201e-07
7.2053e-07
7.29024e-07
7.37493e-07
7.45938e-07
7.54362e-07
7.62766e-07
7.71152e-07
7.7952e-07
7.87872e-07
7.96211e-07
8.04538e-07
8.12852e-07
8.21157e-07
8.29452e-07
8.37738e-07
8.46016e-07
8.54286e-07
8.62548e-07
8.70804e-07
8.79052e-07
8.87293e-07
8.95526e-07
9.03751e-07
9.11968e-07
9.20176e-07
9.28375e-07
9.36564e-07
9.44742e-07
9.52908e-07
9.6106e-07
9.69199e-07
9.77322e-07
9.85429e-07
9.93518e-07
1.00159e-06
1.00964e-06
1.01766e-06
1.02566e-06
1.03364e-06
1.04159e-06
1.04951e-06
1.05739e-06
1.06525e-06
1.07306e-06
1.08085e-06
1.08859e-06
1.09629e-06
1.10394e-06
1.11155e-06
1.11912e-06
1.12663e-06
1.13409e-06
1.1415e-06
1.14885e-06
1.15614e-06
1.16338e-06
1.17055e-06
1.17765e-06
1.18469e-06
1.19166e-06
1.19856e-06
1.20539e-06
1.21215e-06
1.21882e-06
1.22543e-06
1.23195e-06
1.23839e-06
1.24476e-06
1.25104e-06
1.25723e-06
1.26334e-06
1.26936e-06
1.2753e-06
1.28115e-06
1.28691e-06
1.29259e-06
1.29818e-06
1.30367e-06
1.30908e-06
1.31439e-06
1.31961e-06
1.32473e-06
1.32976e-06
1.33469e-06
1.33952e-06
1.34424e-06
1.34888e-06
1.35334e-06
1.35788e-06
1.36174e-06
1.28008e-07
1.28156e-07
1.28481e-07
1.28979e-07
1.29647e-07
1.30487e-07
1.315e-07
1.32691e-07
1.3406e-07
1.35611e-07
1.37346e-07
1.39267e-07
1.41377e-07
1.43676e-07
1.46167e-07
1.48852e-07
1.51731e-07
1.54806e-07
1.58078e-07
1.61547e-07
1.65214e-07
1.6908e-07
1.73143e-07
1.77404e-07
1.81862e-07
1.86516e-07
1.91365e-07
1.96408e-07
2.01643e-07
2.07067e-07
2.12678e-07
2.18475e-07
2.24453e-07
2.3061e-07
2.36942e-07
2.43446e-07
2.50117e-07
2.56952e-07
2.63944e-07
2.71091e-07
2.78386e-07
2.85825e-07
2.93402e-07
3.01112e-07
3.08948e-07
3.16904e-07
3.24976e-07
3.33155e-07
3.41437e-07
3.49814e-07
3.58281e-07
3.6683e-07
3.75456e-07
3.84152e-07
3.92911e-07
4.01729e-07
4.10598e-07
4.19512e-07
4.28466e-07
4.37455e-07
4.46472e-07
4.55513e-07
4.64573e-07
4.73646e-07
4.82729e-07
4.91818e-07
5.00907e-07
5.09994e-07
5.19076e-07
5.28148e-07
5.37209e-07
5.46255e-07
5.55284e-07
5.64294e-07
5.73284e-07
5.82251e-07
5.91194e-07
6.00112e-07
6.09004e-07
6.1787e-07
6.26708e-07
6.35518e-07
6.44301e-07
6.53055e-07
6.61782e-07
6.70482e-07
6.79155e-07
6.87801e-07
6.96423e-07
7.0502e-07
7.13594e-07
7.22146e-07
7.30677e-07
7.3919e-07
7.47686e-07
7.56165e-07
7.6463e-07
7.73083e-07
7.81524e-07
7.89957e-07
7.98381e-07
8.06798e-07
8.1521e-07
8.23616e-07
8.32019e-07
8.40417e-07
8.48812e-07
8.57204e-07
8.65592e-07
8.73977e-07
8.82359e-07
8.90737e-07
8.99111e-07
9.0748e-07
9.15843e-07
9.24201e-07
9.32551e-07
9.40893e-07
9.49225e-07
9.57547e-07
9.65858e-07
9.74155e-07
9.82437e-07
9.90703e-07
9.98951e-07
1.00718e-06
1.01539e-06
1.02357e-06
1.03173e-06
1.03986e-06
1.04796e-06
1.05603e-06
1.06406e-06
1.07206e-06
1.08002e-06
1.08795e-06
1.09582e-06
1.10366e-06
1.11144e-06
1.11918e-06
1.12686e-06
1.13449e-06
1.14206e-06
1.14957e-06
1.15702e-06
1.16441e-06
1.17173e-06
1.17899e-06
1.18617e-06
1.19328e-06
1.20032e-06
1.20728e-06
1.21416e-06
1.22097e-06
1.22769e-06
1.23433e-06
1.24088e-06
1.24735e-06
1.25373e-06
1.26003e-06
1.26623e-06
1.27235e-06
1.27837e-06
1.2843e-06
1.29014e-06
1.29589e-06
1.30154e-06
1.3071e-06
1.31257e-06
1.31794e-06
1.32321e-06
1.32838e-06
1.33346e-06
1.33843e-06
1.3433e-06
1.34806e-06
1.35272e-06
1.35721e-06
1.36178e-06
1.3657e-06
1.25729e-07
1.25879e-07
1.26203e-07
1.26695e-07
1.27355e-07
1.28183e-07
1.29181e-07
1.30352e-07
1.31699e-07
1.33223e-07
1.34926e-07
1.3681e-07
1.38879e-07
1.41132e-07
1.43572e-07
1.462e-07
1.49018e-07
1.52026e-07
1.55227e-07
1.58619e-07
1.62204e-07
1.65983e-07
1.69955e-07
1.7412e-07
1.78477e-07
1.83026e-07
1.87766e-07
1.92696e-07
1.97814e-07
2.03118e-07
2.08606e-07
2.14277e-07
2.20126e-07
2.26153e-07
2.32352e-07
2.38721e-07
2.45256e-07
2.51953e-07
2.58808e-07
2.65816e-07
2.72973e-07
2.80273e-07
2.87712e-07
2.95285e-07
3.02984e-07
3.10806e-07
3.18744e-07
3.26791e-07
3.34943e-07
3.43193e-07
3.51535e-07
3.59963e-07
3.6847e-07
3.77051e-07
3.85698e-07
3.94408e-07
4.03172e-07
4.11987e-07
4.20845e-07
4.29742e-07
4.38673e-07
4.47631e-07
4.56613e-07
4.65614e-07
4.7463e-07
4.83656e-07
4.92688e-07
5.01723e-07
5.10758e-07
5.19789e-07
5.28814e-07
5.37829e-07
5.46833e-07
5.55824e-07
5.64799e-07
5.73757e-07
5.82697e-07
5.91617e-07
6.00516e-07
6.09394e-07
6.1825e-07
6.27083e-07
6.35894e-07
6.44681e-07
6.53446e-07
6.62189e-07
6.7091e-07
6.79609e-07
6.88288e-07
6.96948e-07
7.05589e-07
7.14214e-07
7.22823e-07
7.31418e-07
7.40001e-07
7.48572e-07
7.57135e-07
7.6569e-07
7.7424e-07
7.82785e-07
7.91328e-07
7.99869e-07
8.0841e-07
8.16951e-07
8.25492e-07
8.34035e-07
8.42579e-07
8.51125e-07
8.59672e-07
8.68221e-07
8.7677e-07
8.8532e-07
8.9387e-07
9.02419e-07
9.10966e-07
9.1951e-07
9.28051e-07
9.36587e-07
9.45116e-07
9.53638e-07
9.6215e-07
9.70651e-07
9.7914e-07
9.87614e-07
9.96072e-07
1.00451e-06
1.01293e-06
1.02133e-06
1.0297e-06
1.03804e-06
1.04636e-06
1.05464e-06
1.06289e-06
1.0711e-06
1.07927e-06
1.0874e-06
1.09548e-06
1.10352e-06
1.11151e-06
1.11944e-06
1.12732e-06
1.13515e-06
1.14291e-06
1.15061e-06
1.15825e-06
1.16581e-06
1.17331e-06
1.18073e-06
1.18809e-06
1.19536e-06
1.20256e-06
1.20967e-06
1.2167e-06
1.22365e-06
1.23051e-06
1.23728e-06
1.24397e-06
1.25056e-06
1.25706e-06
1.26347e-06
1.26978e-06
1.276e-06
1.28212e-06
1.28814e-06
1.29407e-06
1.2999e-06
1.30563e-06
1.31127e-06
1.3168e-06
1.32223e-06
1.32757e-06
1.3328e-06
1.33792e-06
1.34295e-06
1.34786e-06
1.35266e-06
1.35736e-06
1.36188e-06
1.36648e-06
1.37044e-06
1.23044e-07
1.23195e-07
1.23516e-07
1.24002e-07
1.24651e-07
1.25464e-07
1.26444e-07
1.27592e-07
1.2891e-07
1.30402e-07
1.32067e-07
1.3391e-07
1.3593e-07
1.3813e-07
1.40512e-07
1.43076e-07
1.45824e-07
1.48757e-07
1.51877e-07
1.55183e-07
1.58677e-07
1.62359e-07
1.66228e-07
1.70286e-07
1.74531e-07
1.78964e-07
1.83583e-07
1.88387e-07
1.93375e-07
1.98547e-07
2.03899e-07
2.09429e-07
2.15137e-07
2.21018e-07
2.2707e-07
2.3329e-07
2.39675e-07
2.4622e-07
2.52922e-07
2.59777e-07
2.66781e-07
2.73928e-07
2.81214e-07
2.88634e-07
2.96183e-07
3.03855e-07
3.11645e-07
3.19547e-07
3.27556e-07
3.35665e-07
3.43869e-07
3.52161e-07
3.60537e-07
3.6899e-07
3.77514e-07
3.86104e-07
3.94753e-07
4.03457e-07
4.1221e-07
4.21006e-07
4.29841e-07
4.3871e-07
4.47607e-07
4.56529e-07
4.65471e-07
4.74429e-07
4.834e-07
4.92379e-07
5.01364e-07
5.10352e-07
5.19339e-07
5.28324e-07
5.37303e-07
5.46275e-07
5.55237e-07
5.64189e-07
5.73129e-07
5.82055e-07
5.90967e-07
5.99863e-07
6.08743e-07
6.17607e-07
6.26453e-07
6.35283e-07
6.44096e-07
6.52892e-07
6.61672e-07
6.70437e-07
6.79187e-07
6.87923e-07
6.96646e-07
7.05358e-07
7.1406e-07
7.22754e-07
7.3144e-07
7.40122e-07
7.48801e-07
7.57478e-07
7.66155e-07
7.74835e-07
7.83517e-07
7.92204e-07
8.00896e-07
8.09594e-07
8.18298e-07
8.27009e-07
8.35727e-07
8.44452e-07
8.53183e-07
8.61921e-07
8.70664e-07
8.79412e-07
8.88165e-07
8.9692e-07
9.05679e-07
9.14438e-07
9.23198e-07
9.31956e-07
9.4071e-07
9.4946e-07
9.58203e-07
9.66938e-07
9.75662e-07
9.84373e-07
9.9307e-07
1.00175e-06
1.01041e-06
1.01905e-06
1.02766e-06
1.03625e-06
1.0448e-06
1.05333e-06
1.06181e-06
1.07026e-06
1.07867e-06
1.08704e-06
1.09536e-06
1.10363e-06
1.11184e-06
1.12e-06
1.12811e-06
1.13615e-06
1.14413e-06
1.15204e-06
1.15988e-06
1.16765e-06
1.17534e-06
1.18296e-06
1.1905e-06
1.19796e-06
1.20533e-06
1.21261e-06
1.21981e-06
1.22692e-06
1.23393e-06
1.24086e-06
1.24768e-06
1.25441e-06
1.26104e-06
1.26758e-06
1.27401e-06
1.28034e-06
1.28657e-06
1.2927e-06
1.29872e-06
1.30464e-06
1.31046e-06
1.31618e-06
1.32179e-06
1.32729e-06
1.33269e-06
1.33799e-06
1.34317e-06
1.34825e-06
1.35321e-06
1.35805e-06
1.36279e-06
1.36735e-06
1.37198e-06
1.37597e-06
1.19939e-07
1.20092e-07
1.20409e-07
1.20887e-07
1.21524e-07
1.2232e-07
1.23278e-07
1.24399e-07
1.25686e-07
1.27141e-07
1.28764e-07
1.30559e-07
1.32525e-07
1.34666e-07
1.36983e-07
1.39476e-07
1.42148e-07
1.44998e-07
1.48029e-07
1.51241e-07
1.54635e-07
1.58211e-07
1.6197e-07
1.65911e-07
1.70034e-07
1.7434e-07
1.78828e-07
1.83496e-07
1.88345e-07
1.93372e-07
1.98576e-07
2.03956e-07
2.0951e-07
2.15234e-07
2.21127e-07
2.27186e-07
2.33408e-07
2.3979e-07
2.46327e-07
2.53017e-07
2.59854e-07
2.66836e-07
2.73957e-07
2.81212e-07
2.88598e-07
2.96108e-07
3.03738e-07
3.11483e-07
3.19336e-07
3.27293e-07
3.35348e-07
3.43495e-07
3.51729e-07
3.60044e-07
3.68435e-07
3.76896e-07
3.85421e-07
3.94006e-07
4.02645e-07
4.11334e-07
4.20066e-07
4.28839e-07
4.37646e-07
4.46484e-07
4.55348e-07
4.64236e-07
4.73142e-07
4.82064e-07
4.90998e-07
4.99942e-07
5.08892e-07
5.17847e-07
5.26803e-07
5.35759e-07
5.44713e-07
5.53664e-07
5.62608e-07
5.71547e-07
5.80478e-07
5.894e-07
5.98313e-07
6.07216e-07
6.16109e-07
6.24992e-07
6.33864e-07
6.42727e-07
6.51579e-07
6.60422e-07
6.69257e-07
6.78085e-07
6.86905e-07
6.95721e-07
7.04534e-07
7.13343e-07
7.22153e-07
7.30964e-07
7.39778e-07
7.48597e-07
7.57423e-07
7.66258e-07
7.75102e-07
7.83957e-07
7.92823e-07
8.01701e-07
8.10592e-07
8.19495e-07
8.28411e-07
8.37339e-07
8.4628e-07
8.55232e-07
8.64194e-07
8.73166e-07
8.82148e-07
8.91137e-07
9.00133e-07
9.09134e-07
9.18138e-07
9.27145e-07
9.36152e-07
9.45156e-07
9.54157e-07
9.63152e-07
9.72138e-07
9.81113e-07
9.90075e-07
9.99021e-07
1.00795e-06
1.01685e-06
1.02574e-06
1.03459e-06
1.04341e-06
1.0522e-06
1.06096e-06
1.06967e-06
1.07834e-06
1.08697e-06
1.09554e-06
1.10407e-06
1.11253e-06
1.12094e-06
1.12929e-06
1.13757e-06
1.14578e-06
1.15393e-06
1.16199e-06
1.16998e-06
1.1779e-06
1.18572e-06
1.19347e-06
1.20112e-06
1.20869e-06
1.21616e-06
1.22354e-06
1.23082e-06
1.238e-06
1.24509e-06
1.25207e-06
1.25895e-06
1.26572e-06
1.27239e-06
1.27895e-06
1.2854e-06
1.29175e-06
1.29799e-06
1.30411e-06
1.31014e-06
1.31605e-06
1.32185e-06
1.32754e-06
1.33312e-06
1.3386e-06
1.34396e-06
1.3492e-06
1.35434e-06
1.35935e-06
1.36424e-06
1.36902e-06
1.37362e-06
1.37829e-06
1.38231e-06
1.16401e-07
1.16556e-07
1.1687e-07
1.17339e-07
1.17961e-07
1.18739e-07
1.19672e-07
1.20764e-07
1.22016e-07
1.2343e-07
1.25008e-07
1.2675e-07
1.28659e-07
1.30735e-07
1.32982e-07
1.35399e-07
1.37987e-07
1.40749e-07
1.43685e-07
1.46796e-07
1.50083e-07
1.53546e-07
1.57186e-07
1.61003e-07
1.64997e-07
1.69168e-07
1.73516e-07
1.7804e-07
1.82739e-07
1.87614e-07
1.92661e-07
1.97881e-07
2.03271e-07
2.08829e-07
2.14554e-07
2.20442e-07
2.26492e-07
2.32699e-07
2.39062e-07
2.45575e-07
2.52237e-07
2.59043e-07
2.65989e-07
2.7307e-07
2.80282e-07
2.87621e-07
2.95082e-07
3.02659e-07
3.10348e-07
3.18144e-07
3.26041e-07
3.34034e-07
3.42118e-07
3.50288e-07
3.58538e-07
3.66863e-07
3.75258e-07
3.83719e-07
3.92239e-07
4.00814e-07
4.09441e-07
4.18113e-07
4.26827e-07
4.35579e-07
4.44364e-07
4.5318e-07
4.62021e-07
4.70886e-07
4.79771e-07
4.88673e-07
4.97589e-07
5.06518e-07
5.15456e-07
5.24401e-07
5.33352e-07
5.42307e-07
5.51265e-07
5.60224e-07
5.69183e-07
5.78141e-07
5.87098e-07
5.96052e-07
6.05004e-07
6.13952e-07
6.22898e-07
6.3184e-07
6.4078e-07
6.49718e-07
6.58655e-07
6.6759e-07
6.76526e-07
6.85464e-07
6.94406e-07
7.03351e-07
7.12304e-07
7.21264e-07
7.30235e-07
7.39218e-07
7.48215e-07
7.57227e-07
7.66256e-07
7.75301e-07
7.84365e-07
7.93447e-07
8.02548e-07
8.11668e-07
8.20806e-07
8.29962e-07
8.39136e-07
8.48327e-07
8.57534e-07
8.66755e-07
8.7599e-07
8.85238e-07
8.94496e-07
9.03764e-07
9.13038e-07
9.22319e-07
9.31602e-07
9.40886e-07
9.50169e-07
9.59449e-07
9.68721e-07
9.77985e-07
9.87236e-07
9.96472e-07
1.00569e-06
1.01489e-06
1.02406e-06
1.0332e-06
1.04232e-06
1.0514e-06
1.06044e-06
1.06944e-06
1.07839e-06
1.08729e-06
1.09615e-06
1.10494e-06
1.11368e-06
1.12236e-06
1.13097e-06
1.13951e-06
1.14797e-06
1.15636e-06
1.16467e-06
1.1729e-06
1.18104e-06
1.18909e-06
1.19705e-06
1.20492e-06
1.21269e-06
1.22036e-06
1.22793e-06
1.2354e-06
1.24276e-06
1.25001e-06
1.25716e-06
1.26419e-06
1.27112e-06
1.27793e-06
1.28462e-06
1.29121e-06
1.29768e-06
1.30403e-06
1.31027e-06
1.31639e-06
1.3224e-06
1.32829e-06
1.33407e-06
1.33973e-06
1.34528e-06
1.35071e-06
1.35602e-06
1.36121e-06
1.36628e-06
1.37122e-06
1.37605e-06
1.38068e-06
1.38539e-06
1.38943e-06
1.12415e-07
1.12573e-07
1.12883e-07
1.13342e-07
1.1395e-07
1.14707e-07
1.15615e-07
1.16675e-07
1.1789e-07
1.19261e-07
1.20789e-07
1.22475e-07
1.24323e-07
1.26331e-07
1.28503e-07
1.30839e-07
1.3334e-07
1.36009e-07
1.38844e-07
1.41849e-07
1.45023e-07
1.48367e-07
1.51883e-07
1.55569e-07
1.59427e-07
1.63457e-07
1.67659e-07
1.72032e-07
1.76576e-07
1.8129e-07
1.86174e-07
1.91227e-07
1.96446e-07
2.01831e-07
2.07379e-07
2.13089e-07
2.18958e-07
2.24984e-07
2.31164e-07
2.37494e-07
2.43973e-07
2.50595e-07
2.57358e-07
2.64258e-07
2.7129e-07
2.7845e-07
2.85734e-07
2.93138e-07
3.00656e-07
3.08284e-07
3.16017e-07
3.23851e-07
3.3178e-07
3.39799e-07
3.47904e-07
3.56089e-07
3.6435e-07
3.72683e-07
3.81082e-07
3.89542e-07
3.98061e-07
4.06632e-07
4.15253e-07
4.23919e-07
4.32627e-07
4.41372e-07
4.50152e-07
4.58963e-07
4.67803e-07
4.76668e-07
4.85556e-07
4.94465e-07
5.03391e-07
5.12334e-07
5.21291e-07
5.30261e-07
5.39242e-07
5.48233e-07
5.57232e-07
5.66239e-07
5.75252e-07
5.84272e-07
5.93296e-07
6.02326e-07
6.11361e-07
6.20401e-07
6.29446e-07
6.38496e-07
6.47553e-07
6.56616e-07
6.65687e-07
6.74768e-07
6.83858e-07
6.92961e-07
7.02078e-07
7.1121e-07
7.2036e-07
7.29531e-07
7.38722e-07
7.47935e-07
7.57172e-07
7.66432e-07
7.75718e-07
7.85028e-07
7.94364e-07
8.03724e-07
8.13108e-07
8.22517e-07
8.31948e-07