/*--------------------------------*- C++ -*----------------------------------*\
| =========                 |                                                 |
| \\      /  F ield         | OpenFOAM: The Open Source CFD Toolbox           |
|  \\    /   O peration     | Version:  2.3.0                                 |
|   \\  /    A nd           | Web:      www.OpenFOAM.org                      |
|    \\/     M anipulation  |                                                 |
\*---------------------------------------------------------------------------*/
FoamFile
{
    version     2.0;
    format      ascii;
    class       volScalarField;
    location    "0.035";
    object      T;
}
// * * * * * * * * * * * * * * * * * * * * * * * * * * * * * * * * * * * * * //

dimensions      [0 0 0 1 0 0 0];

internalField   nonuniform List<scalar> 
12225
(
1.00702
1.00235
1.00097
1.00057
1.00029
1.0001
1.00001
0.999957
0.999925
0.9999
0.999871
0.999816
0.999681
0.999344
0.998503
0.996424
0.991223
0.977852
0.99388
0.995662
0.997505
0.998595
0.999122
0.9994
0.999575
0.999688
0.999761
0.999804
0.99982
0.999795
0.999684
0.999371
0.99857
0.996595
0.991781
0.980101
1.00047
1.00054
1.00043
1.00038
1.00027
1.00015
1.00007
1.00002
0.999983
0.999955
0.999922
0.999866
0.999738
0.999427
0.998671
0.996866
0.992673
0.983399
1.00033
0.999923
0.999616
0.999668
0.999738
0.999771
0.999797
0.999821
0.999839
0.999849
0.999846
0.999812
0.999706
0.999431
0.99876
0.997192
0.99372
0.986647
1.00018
1
0.999776
0.999808
0.999867
0.999886
0.999893
0.999898
0.9999
0.999898
0.999885
0.999847
0.999746
0.999498
0.998913
0.9976
0.994844
0.989624
1.00003
0.999994
0.999833
0.999822
0.999855
0.999871
0.999877
0.999883
0.999888
0.999888
0.999878
0.999846
0.999759
0.999548
0.99906
0.998008
0.995907
0.992156
1.00001
1.00003
0.999913
0.999874
0.999883
0.999891
0.999895
0.999898
0.9999
0.999899
0.99989
0.999862
0.999788
0.999612
0.999221
0.998411
0.996866
0.994236
1
1.00003
0.999948
0.999903
0.9999
0.999903
0.999904
0.999906
0.999907
0.999906
0.999897
0.999873
0.999811
0.999665
0.999351
0.99872
0.997555
0.995632
1
1.00003
0.99997
0.999929
0.999919
0.999917
0.999916
0.999915
0.999916
0.999914
0.999906
0.999885
0.999832
0.999712
0.99946
0.998967
0.998083
0.996657
0.999998
1.00002
0.999986
0.999952
0.999938
0.999932
0.999929
0.999927
0.999926
0.999923
0.999915
0.999898
0.999855
0.99976
0.999567
0.9992
0.998558
0.997544
0.999998
1.00002
0.999996
0.99997
0.999956
0.999948
0.999943
0.99994
0.999938
0.999934
0.999927
0.999912
0.999879
0.999809
0.999668
0.999407
0.998964
0.998278
0.999998
1.00001
1
0.999983
0.999972
0.999964
0.999958
0.999954
0.99995
0.999946
0.99994
0.999928
0.999904
0.999854
0.999757
0.999583
0.999293
0.998854
0.999998
1.00001
1.00001
0.999993
0.999984
0.999977
0.999972
0.999967
0.999962
0.999958
0.999954
0.999943
0.999927
0.999893
0.999831
0.999722
0.999545
0.999281
0.999998
1.00001
1.00001
1
0.999993
0.999986
0.999982
0.999979
0.999975
0.999971
0.999966
0.99996
0.999948
0.999927
0.999889
0.999826
0.999726
0.999578
0.999998
1.00001
1.00001
1
0.999998
0.999995
0.999991
0.999988
0.999985
0.999982
0.999979
0.999973
0.999966
0.999953
0.999931
0.999898
0.999845
0.99977
0.999999
1.00001
1.00001
1
1
1
0.999997
0.999994
0.999992
0.999989
0.999988
0.999986
0.99998
0.999973
0.999961
0.999943
0.999918
0.999884
0.999998
1.00001
1.00001
1
1
1
1
0.999999
0.999997
0.999996
0.999994
0.999991
0.999989
0.999986
0.99998
0.999971
0.999958
0.999943
0.999999
1
1.00001
1.00001
1.00001
1.00001
1
0.999999
0.999998
0.999998
0.999997
0.999996
0.999993
0.999989
0.999985
0.99998
0.999975
0.99997
0.999999
1.00001
1.00001
1.00001
1.00001
1.00001
1
0.999999
0.999996
0.999995
0.999993
0.999991
0.999989
0.999987
0.999986
0.999981
0.999977
0.999976
0.999998
1.00001
1.00001
1.00001
1
1
1
0.999996
0.999992
0.999989
0.999988
0.999986
0.999984
0.999983
0.999981
0.999978
0.999975
0.999976
0.999997
1.00001
1.00001
1.00001
1
0.999995
0.999992
0.999987
0.999983
0.99998
0.999977
0.999975
0.999973
0.999972
0.999971
0.999969
0.999966
0.999967
0.999997
1.00001
1.00002
1.00001
0.999995
0.999987
0.999982
0.999976
0.999973
0.99997
0.999967
0.999966
0.999966
0.999964
0.999963
0.999962
0.99996
0.999961
0.999996
1.00003
1.00002
0.999994
0.999975
0.999966
0.999959
0.999954
0.999952
0.99995
0.999949
0.999948
0.999948
0.999949
0.999948
0.999948
0.999948
0.999949
0.999994
1.00005
1.00003
0.999984
0.999963
0.999957
0.999953
0.99995
0.999949
0.999948
0.999947
0.999947
0.999948
0.999948
0.999948
0.999947
0.999947
0.999949
0.999986
1.00005
0.999974
0.999913
0.9999
0.9999
0.9999
0.999902
0.999905
0.999908
0.999911
0.999914
0.999918
0.999921
0.999925
0.999927
0.999928
0.999931
1.00011
1.00014
0.999977
0.99993
0.999954
0.99997
0.999971
0.999969
0.999965
0.999962
0.999959
0.999954
0.999952
0.99995
0.999949
0.999948
0.999947
0.999947
1.00029
1.00004
0.999634
0.999556
0.999609
0.999662
0.999706
0.999746
0.999781
0.999809
0.999832
0.99985
0.999865
0.999878
0.999888
0.999897
0.999905
0.999908
1.00089
1.00118
1.00097
1.00079
1.00062
1.00045
1.00031
1.00022
1.00015
1.0001
1.00006
1.00003
1.00001
0.999992
0.999981
0.999974
0.99997
0.999957
0.993498
0.994872
0.996789
0.998012
0.998681
0.999064
0.999313
0.999485
0.999605
0.99969
0.99975
0.999794
0.999827
0.999852
0.999872
0.999888
0.999905
0.999901
1.00657
1.00291
1.00132
1.00082
1.00049
1.00027
1.00014
1.00007
1.00002
0.99999
0.999968
0.999954
0.999944
0.999937
0.999933
0.999931
0.999938
0.999912
0.359509
0.359447
0.359305
0.359099
0.358834
0.358505
0.358114
0.35766
0.357144
0.356567
0.355933
0.355242
0.354495
0.353694
0.352842
0.351939
0.350989
0.349994
0.348957
0.347879
0.346765
0.345616
0.344436
0.343228
0.341995
0.340739
0.339465
0.338176
0.336874
0.335563
0.334246
0.332926
0.331607
0.330291
0.328982
0.327683
0.326397
0.325127
0.323876
0.322646
0.321441
0.320262
0.319113
0.317995
0.316912
0.315865
0.314855
0.313886
0.312958
0.312073
0.311233
0.310439
0.309691
0.308991
0.30834
0.307737
0.307184
0.306681
0.306227
0.305823
0.305468
0.305162
0.304905
0.304696
0.304534
0.304419
0.304349
0.304324
0.304342
0.304402
0.304504
0.304644
0.304823
0.305039
0.305289
0.305573
0.305888
0.306233
0.306607
0.307006
0.30743
0.307876
0.308342
0.308827
0.309327
0.309841
0.310366
0.310901
0.311442
0.311987
0.312534
0.313081
0.313624
0.314162
0.314693
0.315212
0.31572
0.316212
0.316688
0.317144
0.31758
0.317992
0.31838
0.318741
0.319074
0.319378
0.31965
0.319889
0.320094
0.320263
0.320395
0.320489
0.320542
0.320555
0.320524
0.320449
0.320328
0.320159
0.319942
0.319675
0.319355
0.318982
0.318554
0.31807
0.317527
0.316924
0.31626
0.315532
0.31474
0.313881
0.312954
0.311957
0.310888
0.309746
0.308528
0.307234
0.305861
0.304407
0.302871
0.301252
0.299546
0.297754
0.295872
0.2939
0.291835
0.289677
0.287423
0.285073
0.282625
0.280077
0.277428
0.274677
0.271824
0.268866
0.265803
0.262635
0.259361
0.25598
0.252491
0.248897
0.245193
0.241383
0.237469
0.23344
0.229306
0.225067
0.220719
0.216272
0.211726
0.207084
0.202347
0.197518
0.1926
0.187595
0.182513
0.177361
0.172168
0.166954
0.161883
0.156768
0.361266
0.361196
0.361064
0.360866
0.360604
0.360278
0.359889
0.359435
0.358918
0.358338
0.357698
0.357
0.356246
0.355438
0.354578
0.353668
0.352711
0.351709
0.350666
0.349583
0.348463
0.34731
0.346126
0.344914
0.343677
0.342419
0.341142
0.33985
0.338546
0.337233
0.335914
0.334593
0.333272
0.331955
0.330645
0.329345
0.328058
0.326786
0.325534
0.324303
0.323096
0.321915
0.320765
0.319645
0.31856
0.317511
0.3165
0.315528
0.314598
0.313712
0.312869
0.312072
0.311322
0.31062
0.309966
0.30936
0.308804
0.308298
0.307841
0.307434
0.307076
0.306768
0.306508
0.306296
0.306132
0.306014
0.305942
0.305914
0.30593
0.305988
0.306088
0.306226
0.306404
0.306617
0.306866
0.307149
0.307464
0.307809
0.308182
0.308582
0.309006
0.309453
0.309921
0.310407
0.31091
0.311427
0.311955
0.312493
0.313038
0.313588
0.31414
0.314692
0.315242
0.315786
0.316323
0.31685
0.317365
0.317865
0.318349
0.318813
0.319257
0.319679
0.320075
0.320446
0.320788
0.321101
0.321383
0.321632
0.321846
0.322026
0.322168
0.322271
0.322335
0.322357
0.322336
0.322271
0.32216
0.322001
0.321794
0.321536
0.321226
0.320862
0.320443
0.319968
0.319434
0.318839
0.318184
0.317464
0.31668
0.315829
0.314909
0.313919
0.312857
0.311721
0.31051
0.309221
0.307853
0.306405
0.304874
0.303259
0.301557
0.299768
0.29789
0.29592
0.293858
0.291702
0.289449
0.2871
0.284652
0.282103
0.279454
0.276702
0.273847
0.270886
0.267821
0.264649
0.26137
0.257985
0.25449
0.250889
0.247178
0.24336
0.239438
0.235403
0.231265
0.227025
0.222678
0.21823
0.213681
0.209035
0.204293
0.199456
0.194528
0.189513
0.184417
0.17925
0.174037
0.168802
0.163677
0.158581
0.364767
0.364666
0.364515
0.364304
0.364028
0.363685
0.363277
0.362804
0.362269
0.361672
0.361016
0.360303
0.359535
0.358713
0.357841
0.35692
0.355953
0.354943
0.353891
0.352801
0.351676
0.350517
0.349328
0.348113
0.346873
0.345612
0.344333
0.343039
0.341734
0.340419
0.3391
0.337777
0.336456
0.335138
0.333827
0.332525
0.331237
0.329965
0.32871
0.327478
0.326269
0.325087
0.323934
0.322813
0.321725
0.320673
0.319658
0.318684
0.31775
0.31686
0.316013
0.315213
0.314458
0.313752
0.313093
0.312483
0.311923
0.311412
0.310951
0.310539
0.310177
0.309864
0.3096
0.309384
0.309216
0.309094
0.309018
0.308987
0.309
0.309056
0.309153
0.30929
0.309465
0.309678
0.309927
0.31021
0.310526
0.310872
0.311248
0.311651
0.312079
0.312531
0.313004
0.313497
0.314008
0.314533
0.315072
0.315621
0.316178
0.316741
0.317308
0.317875
0.318441
0.319003
0.319559
0.320105
0.32064
0.321162
0.321667
0.322154
0.322621
0.323066
0.323487
0.323882
0.324249
0.324587
0.324894
0.325169
0.32541
0.325615
0.325783
0.325913
0.326003
0.326052
0.326058
0.326019
0.325934
0.325802
0.32562
0.325388
0.325104
0.324765
0.324372
0.323921
0.323411
0.322841
0.322208
0.321512
0.320749
0.31992
0.319021
0.318051
0.317009
0.315892
0.314698
0.313427
0.312075
0.310642
0.309126
0.307524
0.305835
0.304058
0.30219
0.300229
0.298176
0.296026
0.29378
0.291435
0.288991
0.286445
0.283797
0.281045
0.278188
0.275225
0.272156
0.268979
0.265693
0.262299
0.258795
0.255182
0.251459
0.247628
0.243688
0.239638
0.235482
0.231222
0.226856
0.222386
0.217815
0.213143
0.208372
0.203506
0.198545
0.193493
0.188357
0.183145
0.177879
0.172582
0.167362
0.162186
0.370027
0.369896
0.369723
0.369492
0.369194
0.368828
0.368395
0.367899
0.36734
0.366722
0.366045
0.365312
0.364525
0.363686
0.362797
0.361861
0.36088
0.359857
0.358793
0.357693
0.356557
0.35539
0.354194
0.352972
0.351726
0.350459
0.349176
0.347878
0.346568
0.34525
0.343927
0.342601
0.341277
0.339956
0.338642
0.337337
0.336046
0.33477
0.333512
0.332276
0.331063
0.329877
0.32872
0.327593
0.3265
0.325443
0.324423
0.323442
0.322503
0.321606
0.320753
0.319945
0.319184
0.31847
0.317804
0.317187
0.316619
0.316101
0.315632
0.315213
0.314844
0.314523
0.314252
0.31403
0.313855
0.313727
0.313645
0.313608
0.313616
0.313667
0.31376
0.313894
0.314067
0.314278
0.314525
0.314808
0.315124
0.315472
0.315851
0.316257
0.316691
0.317149
0.317631
0.318133
0.318654
0.319192
0.319744
0.320309
0.320884
0.321466
0.322053
0.322643
0.323232
0.323819
0.324402
0.324976
0.325541
0.326093
0.32663
0.32715
0.327651
0.32813
0.328586
0.329017
0.32942
0.329795
0.33014
0.330452
0.330731
0.330975
0.331182
0.331351
0.33148
0.331568
0.331613
0.331613
0.331567
0.331474
0.331331
0.331138
0.330891
0.330591
0.330234
0.32982
0.329346
0.328811
0.328214
0.327551
0.326823
0.326025
0.325158
0.324219
0.323206
0.322117
0.320951
0.319705
0.318379
0.316969
0.315474
0.313893
0.312224
0.310464
0.308612
0.306667
0.304626
0.302488
0.300251
0.297914
0.295476
0.292935
0.290289
0.287538
0.28468
0.281713
0.278638
0.275454
0.272159
0.268753
0.265236
0.261607
0.257867
0.254015
0.250052
0.245977
0.241794
0.237503
0.233104
0.228599
0.223989
0.219276
0.214461
0.209547
0.204535
0.199428
0.19423
0.18895
0.183606
0.178216
0.172874
0.167561
0.377029
0.376876
0.376682
0.376431
0.376111
0.37572
0.375262
0.37474
0.374155
0.373511
0.372809
0.372052
0.371241
0.37038
0.369471
0.368516
0.367517
0.366477
0.365398
0.364283
0.363135
0.361956
0.360749
0.359517
0.358262
0.356987
0.355696
0.354391
0.353075
0.351751
0.350422
0.349091
0.347762
0.346436
0.345116
0.343807
0.34251
0.341229
0.339966
0.338723
0.337504
0.336312
0.335147
0.334014
0.332914
0.331849
0.33082
0.329831
0.328883
0.327977
0.327115
0.326298
0.325527
0.324803
0.324127
0.3235
0.322922
0.322393
0.321914
0.321485
0.321105
0.320775
0.320495
0.320262
0.320078
0.319941
0.319851
0.319807
0.319807
0.319852
0.319939
0.320067
0.320235
0.320443
0.320688
0.320969
0.321285
0.321634
0.322014
0.322425
0.322864
0.323329
0.323819
0.324332
0.324865
0.325417
0.325986
0.326569
0.327164
0.327769
0.328381
0.328997
0.329616
0.330234
0.330849
0.331458
0.332058
0.332648
0.333224
0.333784
0.334327
0.334848
0.335348
0.335823
0.336272
0.336692
0.337083
0.337443
0.337769
0.338061
0.338317
0.338534
0.338712
0.338848
0.338942
0.338991
0.338995
0.33895
0.338856
0.33871
0.338512
0.338259
0.337949
0.337581
0.337153
0.336663
0.336109
0.33549
0.334803
0.334047
0.333219
0.332319
0.331343
0.33029
0.329158
0.327946
0.326651
0.325271
0.323805
0.32225
0.320605
0.318868
0.317037
0.31511
0.313086
0.310963
0.308739
0.306412
0.303982
0.301446
0.298804
0.296053
0.293194
0.290224
0.287142
0.283949
0.280643
0.277223
0.273688
0.270039
0.266276
0.262398
0.258406
0.2543
0.250081
0.245751
0.24131
0.23676
0.232101
0.227336
0.222465
0.21749
0.212412
0.207234
0.201958
0.196592
0.19115
0.185646
0.180164
0.174677
0.385826
0.385655
0.385441
0.385168
0.384823
0.384406
0.383921
0.383371
0.382758
0.382085
0.381355
0.38057
0.379734
0.378847
0.377913
0.376935
0.375914
0.374854
0.373756
0.372623
0.371458
0.370264
0.369042
0.367797
0.366529
0.365243
0.363942
0.362626
0.361301
0.359968
0.358631
0.357292
0.355954
0.35462
0.353293
0.351975
0.35067
0.349381
0.348109
0.346859
0.345631
0.344429
0.343255
0.342112
0.341002
0.339926
0.338887
0.337887
0.336927
0.336009
0.335135
0.334306
0.333522
0.332785
0.332096
0.331456
0.330865
0.330323
0.329831
0.329388
0.328996
0.328653
0.328359
0.328114
0.327918
0.32777
0.327668
0.327613
0.327603
0.327638
0.327716
0.327836
0.327998
0.328199
0.328439
0.328716
0.32903
0.329378
0.329759
0.330171
0.330614
0.331085
0.331583
0.332105
0.332651
0.333218
0.333803
0.334405
0.335022
0.335651
0.33629
0.336935
0.337585
0.338237
0.338888
0.339535
0.340176
0.340807
0.341427
0.342033
0.342621
0.343191
0.34374
0.344265
0.344764
0.345237
0.345681
0.346094
0.346474
0.346821
0.347131
0.347404
0.347638
0.34783
0.34798
0.348086
0.348145
0.348157
0.348119
0.348029
0.347886
0.347687
0.347432
0.347118
0.346742
0.346305
0.345802
0.345233
0.344595
0.343887
0.343106
0.34225
0.341318
0.340308
0.339217
0.338044
0.336786
0.335441
0.334008
0.332485
0.330869
0.329159
0.327353
0.325449
0.323445
0.32134
0.319131
0.316817
0.314397
0.311869
0.309231
0.306483
0.303622
0.300648
0.29756
0.294357
0.291037
0.287601
0.284047
0.280375
0.276585
0.272677
0.268652
0.264509
0.26025
0.255875
0.251385
0.246782
0.242067
0.23724
0.232303
0.227257
0.222102
0.21684
0.211474
0.206006
0.200451
0.194818
0.189181
0.1835
0.396467
0.396281
0.396048
0.395752
0.395382
0.394938
0.394425
0.393844
0.393201
0.392497
0.391737
0.390922
0.390055
0.38914
0.388178
0.387173
0.386127
0.385042
0.38392
0.382766
0.38158
0.380366
0.379126
0.377863
0.37658
0.375279
0.373962
0.372633
0.371295
0.369949
0.3686
0.367249
0.365899
0.364554
0.363216
0.361887
0.360571
0.359271
0.357988
0.356725
0.355486
0.354272
0.353086
0.35193
0.350806
0.349717
0.348664
0.34765
0.346676
0.345743
0.344854
0.344009
0.343209
0.342457
0.341752
0.341095
0.340487
0.339929
0.33942
0.338961
0.338551
0.338192
0.337882
0.337621
0.337409
0.337245
0.337129
0.337059
0.337036
0.337057
0.337122
0.337231
0.337382
0.337573
0.337805
0.338075
0.338383
0.338726
0.339104
0.339516
0.33996
0.340434
0.340936
0.341466
0.342022
0.342601
0.343201
0.343821
0.344458
0.34511
0.345774
0.346449
0.34713
0.347816
0.348504
0.34919
0.349872
0.350547
0.351212
0.351864
0.352502
0.353121
0.353721
0.354299
0.354853
0.35538
0.35588
0.35635
0.356788
0.357193
0.357563
0.357895
0.358189
0.358442
0.358653
0.358819
0.35894
0.359012
0.359035
0.359006
0.358923
0.358785
0.358589
0.358334
0.358017
0.357636
0.35719
0.356676
0.356093
0.355438
0.354709
0.353904
0.353021
0.352058
0.351012
0.349883
0.348667
0.347362
0.345967
0.344479
0.342897
0.341218
0.339441
0.337563
0.335583
0.333498
0.331308
0.329009
0.326602
0.324084
0.321452
0.318707
0.315847
0.31287
0.309775
0.306562
0.303229
0.299776
0.296201
0.292505
0.288687
0.284748
0.280686
0.276504
0.2722
0.267776
0.263234
0.258573
0.253794
0.2489
0.24389
0.238764
0.233524
0.228169
0.222702
0.217123
0.211444
0.20567
0.199869
0.193983
0.409029
0.408827
0.408572
0.408251
0.407854
0.407381
0.406837
0.406225
0.405549
0.404812
0.404018
0.403169
0.40227
0.401322
0.400329
0.399292
0.398216
0.397102
0.395953
0.394772
0.393561
0.392323
0.391061
0.389776
0.388471
0.38715
0.385815
0.384468
0.383112
0.38175
0.380384
0.379017
0.377652
0.376292
0.374938
0.373595
0.372264
0.370949
0.369651
0.368373
0.367119
0.365889
0.364687
0.363515
0.362375
0.361269
0.3602
0.359168
0.358176
0.357225
0.356317
0.355453
0.354634
0.353862
0.353137
0.35246
0.351832
0.351253
0.350724
0.350244
0.349815
0.349435
0.349104
0.348823
0.348591
0.348407
0.348271
0.348182
0.34814
0.348144
0.348192
0.348284
0.348419
0.348596
0.348814
0.349072
0.349368
0.349702
0.350073
0.350478
0.350918
0.35139
0.351893
0.352425
0.352986
0.353573
0.354184
0.354817
0.35547
0.356142
0.356829
0.357528
0.358238
0.358955
0.359677
0.360399
0.36112
0.361836
0.362545
0.363243
0.363927
0.364596
0.365246
0.365876
0.366483
0.367066
0.367621
0.368148
0.368645
0.369109
0.369538
0.369931
0.370286
0.370601
0.370874
0.371104
0.371287
0.371423
0.371509
0.371543
0.371523
0.371447
0.371313
0.37112
0.370864
0.370544
0.370158
0.369703
0.369177
0.368578
0.367905
0.367154
0.366323
0.365411
0.364415
0.363333
0.362162
0.360901
0.359548
0.358099
0.356554
0.35491
0.353165
0.351316
0.349363
0.347303
0.345133
0.342853
0.340461
0.337955
0.335332
0.332593
0.329735
0.326757
0.323657
0.320436
0.31709
0.313621
0.310026
0.306307
0.302461
0.298489
0.294391
0.290167
0.285818
0.281344
0.276746
0.272024
0.26718
0.262214
0.257127
0.251917
0.246586
0.241133
0.235558
0.229862
0.224052
0.21813
0.21216
0.206068
0.42359
0.42337
0.423091
0.422742
0.422315
0.421811
0.421233
0.420586
0.419874
0.419101
0.41827
0.417385
0.416448
0.415464
0.414434
0.413362
0.412251
0.411104
0.409922
0.408709
0.407468
0.4062
0.404909
0.403597
0.402267
0.400921
0.399561
0.398191
0.396812
0.395428
0.394041
0.392654
0.391269
0.389889
0.388517
0.387154
0.385804
0.38447
0.383153
0.381857
0.380583
0.379334
0.378113
0.376921
0.375761
0.374635
0.373544
0.372491
0.371477
0.370505
0.369574
0.368688
0.367846
0.36705
0.366302
0.365601
0.364948
0.364344
0.36379
0.363285
0.36283
0.362425
0.362069
0.361762
0.361505
0.361296
0.361135
0.361021
0.360955
0.360934
0.360959
0.361028
0.361142
0.361297
0.361495
0.361734
0.362013
0.36233
0.362686
0.363079
0.363507
0.36397
0.364466
0.364994
0.365552
0.366139
0.366754
0.367393
0.368056
0.36874
0.369443
0.370161
0.370893
0.371635
0.372384
0.373138
0.373892
0.374643
0.37539
0.376128
0.376855
0.377567
0.378264
0.378941
0.379598
0.380231
0.380839
0.38142
0.381971
0.382491
0.382978
0.383429
0.383843
0.384218
0.384552
0.384842
0.385087
0.385285
0.385433
0.38553
0.385573
0.385559
0.385488
0.385356
0.385162
0.384903
0.384578
0.384182
0.383716
0.383175
0.382558
0.381863
0.381087
0.380228
0.379283
0.378251
0.377128
0.375914
0.374604
0.373198
0.371692
0.370086
0.368376
0.36656
0.364636
0.362603
0.360458
0.3582
0.355826
0.353334
0.350724
0.347993
0.34514
0.342164
0.339062
0.335834
0.332479
0.328996
0.325384
0.321642
0.31777
0.313768
0.309635
0.305371
0.300977
0.296454
0.2918
0.287018
0.282108
0.27707
0.271904
0.26661
0.261186
0.255632
0.249947
0.244131
0.238189
0.232118
0.225978
0.219682
0.440239
0.439999
0.439693
0.439313
0.438853
0.438313
0.437698
0.437013
0.436261
0.435448
0.434575
0.433648
0.432669
0.431643
0.430571
0.429458
0.428306
0.427119
0.425898
0.424648
0.423369
0.422066
0.420741
0.419395
0.418032
0.416655
0.415265
0.413866
0.412459
0.411048
0.409635
0.408222
0.406812
0.405407
0.40401
0.402624
0.40125
0.399892
0.398552
0.397233
0.395935
0.394663
0.393418
0.392203
0.391018
0.389868
0.388752
0.387674
0.386635
0.385636
0.384679
0.383766
0.382896
0.382073
0.381296
0.380566
0.379884
0.379251
0.378666
0.378131
0.377645
0.377208
0.376821
0.376483
0.376193
0.375953
0.37576
0.375615
0.375517
0.375465
0.375459
0.375498
0.375581
0.375707
0.375877
0.376088
0.37634
0.376632
0.376964
0.377334
0.377742
0.378186
0.378665
0.379179
0.379725
0.380303
0.380911
0.381547
0.382209
0.382896
0.383604
0.384331
0.385075
0.385832
0.3866
0.387374
0.388152
0.38893
0.389705
0.390474
0.391234
0.391982
0.392716
0.393433
0.394131
0.394807
0.39546
0.396088
0.396687
0.397257
0.397795
0.398299
0.398766
0.399196
0.399585
0.399932
0.400234
0.40049
0.400697
0.400852
0.400954
0.401
0.400989
0.400917
0.400782
0.400582
0.400316
0.399979
0.39957
0.399087
0.398527
0.397887
0.397165
0.396359
0.395467
0.394485
0.393412
0.392245
0.390981
0.389618
0.388155
0.386588
0.384915
0.383135
0.381244
0.379241
0.377123
0.374889
0.372537
0.370064
0.367469
0.36475
0.361906
0.358935
0.355835
0.352605
0.349245
0.345752
0.342126
0.338366
0.334471
0.330442
0.326277
0.321977
0.317542
0.312971
0.308266
0.303426
0.298452
0.293344
0.288102
0.282724
0.27721
0.271557
0.265764
0.259828
0.253755
0.247538
0.241234
0.23474
0.459079
0.458815
0.458478
0.458063
0.457564
0.456984
0.456327
0.455598
0.454801
0.45394
0.45302
0.452044
0.451017
0.449941
0.448821
0.447659
0.446459
0.445224
0.443957
0.442661
0.441338
0.439992
0.438624
0.437238
0.435836
0.434421
0.432994
0.431559
0.430118
0.428673
0.427227
0.425782
0.424341
0.422906
0.421479
0.420064
0.418662
0.417275
0.415907
0.414559
0.413234
0.411934
0.410661
0.409417
0.408204
0.407025
0.40588
0.404772
0.403703
0.402673
0.401685
0.400739
0.399838
0.398981
0.39817
0.397406
0.396689
0.39602
0.395399
0.394827
0.394304
0.393829
0.393403
0.393026
0.392698
0.392417
0.392185
0.392
0.391861
0.391769
0.391723
0.391722
0.391765
0.391852
0.391983
0.392156
0.392371
0.392627
0.392923
0.393259
0.393634
0.394047
0.394498
0.394984
0.395506
0.396062
0.39665
0.39727
0.397918
0.398594
0.399295
0.400018
0.40076
0.401519
0.402291
0.403073
0.403861
0.404653
0.405443
0.40623
0.407011
0.407782
0.408541
0.409286
0.410013
0.410722
0.411409
0.412072
0.41271
0.413319
0.413898
0.414445
0.414957
0.415433
0.415869
0.416264
0.416616
0.416922
0.417181
0.417388
0.417543
0.417643
0.417686
0.417668
0.417588
0.417444
0.417232
0.41695
0.416596
0.416167
0.415661
0.415075
0.414406
0.413652
0.41281
0.411879
0.410854
0.409735
0.408517
0.407199
0.405779
0.404253
0.402619
0.400876
0.39902
0.39705
0.394962
0.392756
0.390429
0.387978
0.385403
0.3827
0.379869
0.376908
0.373814
0.370587
0.367226
0.363728
0.360093
0.35632
0.352409
0.348358
0.344167
0.339836
0.335365
0.330753
0.326001
0.321109
0.316077
0.310905
0.305591
0.300134
0.294534
0.288787
0.282891
0.276842
0.270645
0.264288
0.257829
0.251147
0.48022
0.479928
0.479555
0.479098
0.478555
0.477928
0.477221
0.47644
0.47559
0.474674
0.473698
0.472665
0.471579
0.470445
0.469266
0.468047
0.466789
0.465498
0.464175
0.462824
0.461448
0.460049
0.458631
0.457195
0.455746
0.454284
0.452812
0.451334
0.449851
0.448365
0.446879
0.445396
0.443917
0.442446
0.440984
0.439533
0.438097
0.436677
0.435275
0.433894
0.432536
0.431202
0.429896
0.428619
0.427372
0.426159
0.42498
0.423837
0.422733
0.421667
0.420642
0.419659
0.418719
0.417823
0.416973
0.416168
0.415409
0.414697
0.414033
0.413417
0.412848
0.412327
0.411855
0.41143
0.411053
0.410724
0.410442
0.410206
0.410017
0.409874
0.409777
0.409724
0.409716
0.409752
0.409831
0.409954
0.410118
0.410324
0.410572
0.41086
0.411188
0.411556
0.411962
0.412407
0.412889
0.413407
0.41396
0.414547
0.415166
0.415814
0.416491
0.417193
0.417917
0.418661
0.419421
0.420193
0.420975
0.421762
0.422552
0.42334
0.424125
0.424903
0.425671
0.426428
0.427171
0.427896
0.428603
0.429288
0.42995
0.430585
0.431192
0.431769
0.432314
0.432823
0.433295
0.433728
0.434118
0.434465
0.434765
0.435015
0.435214
0.435359
0.435447
0.435477
0.435444
0.435348
0.435184
0.434952
0.434647
0.434267
0.433811
0.433274
0.432654
0.431949
0.431156
0.430272
0.429295
0.428221
0.427049
0.425775
0.424398
0.422914
0.42132
0.419615
0.417796
0.415861
0.413807
0.411631
0.409332
0.406908
0.404356
0.401674
0.398861
0.395914
0.392833
0.389614
0.386258
0.382762
0.379125
0.375346
0.371424
0.367359
0.363149
0.358794
0.354295
0.349649
0.344859
0.339922
0.33484
0.32961
0.324233
0.318707
0.313028
0.307196
0.301205
0.295053
0.288741
0.282255
0.275652
0.268798
0.503782
0.503459
0.503043
0.502537
0.501941
0.501257
0.500491
0.499648
0.498733
0.497751
0.496706
0.495603
0.494447
0.493242
0.491993
0.490703
0.489376
0.488015
0.486625
0.485208
0.483767
0.482306
0.480826
0.479332
0.477825
0.476307
0.474782
0.473251
0.471718
0.470183
0.468651
0.467122
0.465599
0.464084
0.462579
0.461088
0.459611
0.45815
0.456709
0.455289
0.453892
0.45252
0.451175
0.449859
0.448574
0.447321
0.446102
0.444918
0.443772
0.442664
0.441596
0.44057
0.439585
0.438643
0.437745
0.436891
0.436083
0.43532
0.434604
0.433934
0.433311
0.432735
0.432205
0.431723
0.431287
0.430897
0.430554
0.430256
0.430005
0.429798
0.429636
0.429519
0.429446
0.429416
0.429429
0.429486
0.429585
0.429726
0.429908
0.430132
0.430397
0.430703
0.431048
0.431433
0.431857
0.432319
0.432819
0.433354
0.433924
0.434526
0.435159
0.43582
0.436506
0.437214
0.437942
0.438685
0.439439
0.440202
0.44097
0.44174
0.442509
0.443275
0.444034
0.444784
0.445522
0.446247
0.446955
0.447645
0.448314
0.448959
0.449578
0.45017
0.450731
0.451259
0.451752
0.452208
0.452624
0.452997
0.453326
0.453607
0.453838
0.454017
0.45414
0.454206
0.454212
0.454154
0.45403
0.453839
0.453575
0.453238
0.452824
0.452331
0.451755
0.451094
0.450345
0.449505
0.448571
0.447542
0.446413
0.445182
0.443846
0.442403
0.44085
0.439185
0.437404
0.435505
0.433486
0.431344
0.429077
0.426682
0.424158
0.421502
0.418711
0.415785
0.412722
0.409518
0.406173
0.402686
0.399054
0.395277
0.391353
0.387282
0.383062
0.378693
0.374174
0.369505
0.364685
0.359714
0.354591
0.349315
0.343886
0.3383
0.332555
0.326648
0.320575
0.314332
0.307918
0.301318
0.294587
0.287578
0.5299
0.529538
0.529071
0.528507
0.527847
0.527094
0.526254
0.525333
0.524338
0.523272
0.522142
0.520953
0.51971
0.518418
0.517082
0.515705
0.514293
0.512849
0.511377
0.50988
0.508362
0.506825
0.505272
0.503707
0.502131
0.500547
0.498958
0.497366
0.495773
0.494181
0.492593
0.49101
0.489434
0.487869
0.486315
0.484775
0.48325
0.481744
0.480257
0.478791
0.477349
0.475932
0.474542
0.473181
0.47185
0.470551
0.469285
0.468054
0.466859
0.465702
0.464584
0.463505
0.462467
0.46147
0.460516
0.459605
0.458738
0.457915
0.457136
0.456402
0.455713
0.45507
0.454472
0.453918
0.45341
0.452948
0.45253
0.452156
0.451827
0.451542
0.451301
0.451103
0.450949
0.450837
0.450768
0.450742
0.450758
0.450816
0.450915
0.451057
0.451239
0.451463
0.451728
0.452034
0.45238
0.452766
0.45319
0.453652
0.454151
0.454685
0.455252
0.45585
0.456475
0.457125
0.457797
0.458487
0.459191
0.459906
0.46063
0.461358
0.462089
0.46282
0.463548
0.464269
0.464983
0.465686
0.466375
0.467049
0.467705
0.46834
0.468953
0.46954
0.4701
0.47063
0.471127
0.471589
0.472014
0.472399
0.472741
0.473039
0.473288
0.473487
0.473632
0.473722
0.473754
0.473723
0.473629
0.473468
0.473237
0.472933
0.472553
0.472096
0.471556
0.470933
0.470222
0.469421
0.468527
0.467536
0.466447
0.465256
0.463961
0.462558
0.461044
0.459417
0.457675
0.455814
0.453832
0.451726
0.449493
0.447132
0.444639
0.442013
0.439251
0.436351
0.433312
0.43013
0.426804
0.423333
0.419715
0.415948
0.412031
0.407964
0.403744
0.39937
0.394843
0.390161
0.385324
0.38033
0.375179
0.36987
0.3644
0.358768
0.35297
0.347003
0.340863
0.334543
0.328044
0.321347
0.314506
0.307363
0.558719
0.55831
0.557783
0.557146
0.556405
0.555565
0.554631
0.553612
0.552514
0.551342
0.550105
0.548807
0.547454
0.546053
0.544609
0.543126
0.54161
0.540063
0.538492
0.536898
0.535286
0.533659
0.532019
0.530369
0.528713
0.527051
0.525387
0.523722
0.522059
0.5204
0.518747
0.517101
0.515465
0.51384
0.512229
0.510633
0.509053
0.507493
0.505952
0.504434
0.50294
0.50147
0.500028
0.498614
0.49723
0.495877
0.494556
0.49327
0.492018
0.490803
0.489624
0.488484
0.487383
0.486322
0.485301
0.484321
0.483383
0.482487
0.481634
0.480823
0.480055
0.479331
0.478649
0.478011
0.477416
0.476865
0.476356
0.47589
0.475467
0.475087
0.474749
0.474453
0.4742
0.473988
0.473818
0.47369
0.473603
0.473558
0.473555
0.473593
0.473673
0.473794
0.473957
0.474161
0.474407
0.474693
0.47502
0.475387
0.475791
0.476233
0.476709
0.477218
0.477757
0.478324
0.478914
0.479525
0.480153
0.480796
0.48145
0.482112
0.482781
0.483452
0.484124
0.484794
0.485459
0.486117
0.486765
0.4874
0.488022
0.488626
0.48921
0.489773
0.490312
0.490823
0.491305
0.491755
0.492171
0.49255
0.492889
0.493185
0.493437
0.49364
0.493793
0.493893
0.493936
0.49392
0.493843
0.4937
0.49349
0.493209
0.492854
0.492422
0.491911
0.491316
0.490636
0.489867
0.489007
0.488051
0.486997
0.485842
0.484583
0.483217
0.481742
0.480153
0.478449
0.476626
0.474681
0.472612
0.470417
0.468092
0.465635
0.463043
0.460314
0.457446
0.454437
0.451284
0.447985
0.444538
0.440942
0.437195
0.433295
0.429241
0.425032
0.420666
0.416142
0.41146
0.406617
0.401614
0.396449
0.39112
0.385625
0.379962
0.374127
0.368117
0.361926
0.355547
0.348981
0.342207
0.335277
0.328023
0.590406
0.589939
0.589336
0.588608
0.587763
0.586809
0.585753
0.584604
0.583371
0.582063
0.580685
0.579248
0.577756
0.576218
0.574638
0.573024
0.571379
0.569708
0.568016
0.566306
0.564582
0.562847
0.561104
0.559355
0.557603
0.55585
0.554098
0.552349
0.550605
0.548868
0.54714
0.545422
0.543715
0.542022
0.540345
0.538684
0.537041
0.535418
0.533815
0.532236
0.53068
0.52915
0.527646
0.52617
0.524724
0.523307
0.521922
0.520569
0.51925
0.517965
0.516716
0.515502
0.514326
0.513187
0.512086
0.511024
0.510001
0.509018
0.508075
0.507172
0.506309
0.505487
0.504706