/*--------------------------------*- C++ -*----------------------------------*\
| =========                 |                                                 |
| \\      /  F ield         | OpenFOAM: The Open Source CFD Toolbox           |
|  \\    /   O peration     | Version:  2.3.0                                 |
|   \\  /    A nd           | Web:      www.OpenFOAM.org                      |
|    \\/     M anipulation  |                                                 |
\*---------------------------------------------------------------------------*/
FoamFile
{
    version     2.0;
    format      ascii;
    class       volScalarField;
    location    "0.044";
    object      p;
}
// * * * * * * * * * * * * * * * * * * * * * * * * * * * * * * * * * * * * * //

dimensions      [1 -1 -2 0 0 0 0];

internalField   nonuniform List<scalar> 
725
(
856.024
820.11
797.585
809.941
767.307
850.552
820.461
797.591
808.07
764.613
847.946
820.455
797.595
823.285
754.293
848.304
819.08
795.321
808.639
697.909
851.297
816.884
793.734
800.017
699.361
781.142
633.852
8.68742
46.6682
-721.431
-905.748
-890.786
-934.295
-945.711
-961.045
-968.66
-975.603
-980.913
-985.799
-991.831
-1001.77
-1052.13
-1137.67
-1255.99
-1160.57
-1204.61
-1101.98
-1100.02
-1243.94
-1207.59
-1151.26
-1123.05
-1108.48
-1100.68
-1097.48
-1096.79
-1097.54
-1099.22
-1101.53
-1104.06
-1105.94
-1105.7
-1101.89
-1088.15
-1068.64
-1010.21
-941.369
-813.428
-845.697
-207.554
768.336
608.484
49.1093
64.6175
-806.417
-922.626
-896.862
-937.574
-948.325
-963.01
-970.065
-976.666
-981.699
-986.268
-991.033
-997.547
-1035.23
-1099.89
-1205.04
-1169.62
-1190.88
-1117.36
-1114.18
-1192.19
-1211.74
-1143.21
-1118.36
-1107.09
-1100.77
-1097.97
-1097.35
-1098.08
-1099.76
-1102.14
-1104.78
-1106.89
-1107.08
-1104.06
-1091.79
-1075.01
-1019.43
-951.77
-788.726
-746.65
-266.382
861.558
71.9725
159.958
213.376
-837.501
-956.289
-913.899
-944.415
-952.092
-965.193
-971.553
-977.609
-982.249
-986.192
-989.127
-989.044
-1002.57
-1060.36
-1173.94
-1160.74
-1112.3
-1111.49
-1166.53
-1232.93
-1207.98
-1132.79
-1111.83
-1103.84
-1098.97
-1097.06
-1096.92
-1097.86
-1099.7
-1102.28
-1105.24
-1107.84
-1108.8
-1107.2
-1097.46
-1085.78
-1036.04
-974.79
-753.879
-630.107
-340.087
516.012
251.964
261.535
186.302
-880.384
-1010.41
-940.297
-952.979
-956.797
-967.879
-973.467
-978.785
-982.986
-986.3
-987.342
-981.233
-963.4
-1023.45
-1038
-1163.18
-1106.89
-1110.3
-1171
-1205.37
-1184.6
-1120.12
-1104.1
-1099.86
-1097.05
-1096.05
-1096.25
-1097.42
-1099.48
-1102.37
-1105.78
-1109.07
-1111.06
-1111.34
-1105.12
-1100.75
-1061.41
-1022.51
-724.369
-253.983
-335.203
356.326
286.195
267.355
180.885
-1142.79
-1154.89
-959.87
-960.583
-961.324
-970.74
-975.571
-980.171
-983.932
-986.785
-986.647
-977.124
-946.044
-907.143
-729.218
-1179.31
-1106.22
-1107.59
-1135.73
-997.803
-1151.14
-1105.86
-1096.24
-1095.15
-1094.59
-1094.84
-1095.64
-1096.98
-1099.16
-1102.34
-1106.32
-1110.48
-1113.65
-1116.17
-1113.93
-1119
-1096.26
-1111.99
-783.701
-30.6467
-292.725
264.668
295.512
322.813
-74.7088
-1354.02
-1135.03
-954.112
-965.703
-964.472
-970.542
-976.035
-980.741
-984.334
-987.182
-987.205
-980.737
-949.423
-841.382
-262.561
-1199.56
-1105.8
-1096.4
-1181.62
-1173.88
-1141.56
-1096.95
-1091.43
-1092.17
-1093.03
-1094.01
-1095.16
-1096.68
-1098.98
-1102.32
-1106.64
-1111.44
-1115.37
-1119.89
-1119.59
-1132.25
-1120.28
-1183.69
-984.375
-1533.99
-571.427
265.313
293.644
319.917
-160.585
-1093.78
-1110.83
-954.128
-967.435
-965.576
-971.147
-976.579
-980.976
-984.417
-987.26
-987.287
-981.374
-947.597
-810.249
-429.398
-1191.03
-1105.81
-1092.04
-1134.36
-1254.98
-1135.02
-1094
-1089.66
-1091.11
-1092.5
-1093.73
-1095
-1096.6
-1098.93
-1102.3
-1106.71
-1111.75
-1116.02
-1121.17
-1121.65
-1137.11
-1129.47
-1209.31
-1058.2
-2062.49
-402.058
265.801
292.289
308.367
-176.487
-828.408
-1078.48
-956.237
-968.437
-966.261
-970.33
-976.729
-981.162
-984.459
-987.304
-987.605
-983.515
-945.991
-823.533
-515.538
-1175.14
-1105.9
-1092.73
-1179.84
-1224.18
-1127.2
-1091.54
-1088.05
-1090.13
-1092.02
-1093.5
-1094.89
-1096.56
-1098.91
-1102.29
-1106.71
-1111.82
-1116.35
-1122.34
-1124.27
-1142.18
-1139.26
-1236.2
-1146.94
-2390.26
-368.419
265.436
292.904
299.626
-139.966
-787.419
-1056.59
-959.322
-969.777
-967.174
-969.933
-976.889
-981.216
-984.451
-987.338
-987.803
-984.999
-945.158
-846.306
-680.109
-1145.41
-1105.38
-1098.68
-1132.78
-1105.81
-1122.31
-1089.06
-1086.5
-1089.17
-1091.53
-1093.25
-1094.82
-1096.63
-1099.06
-1102.48
-1106.94
-1112.19
-1117.19
-1124.02
-1127.07
-1147.02
-1149.24
-1266.32
-1251.19
-2800.14
-339.154
265.321
292.258
131.205
-128.227
-833.856
-1042.7
-963.731
-971.835
-970.346
-974.364
-978.135
-981.505
-984.553
-987.43
-988.069
-986.213
-954.112
-987.994
-1153.12
-1121.03
-1099.22
-1100.78
-946.37
-1008.96
-1114.93
-1086.61
-1084.97
-1088.2
-1091.01
-1093.02
-1094.81
-1096.78
-1099.33
-1102.82
-1107.3
-1112.6
-1117.89
-1125.28
-1129.6
-1151.22
-1158.94
-1291.73
-1339.72
-3074.78
-98.9545
-245.976
-283.024
-299.39
-305.022
-360.473
-249.107
-281.367
-298.704
-305.011
-374.058
-249.516
-280.121
-296.41
-291.614
-346.729
-246.932
-279.853
-295.559
-285.762
-332.241
-241.479
-280.259
-296.261
-289.819
-330.934
294.598
276.272
-104.096
-556.036
-860.238
-1017.07
-974.321
-976.081
-974.809
-976.998
-979.365
-982.075
-985.005
-987.966
-989.431
-988.503
-971.043
-1161.01
-1817.48
-1115.5
-1095.61
-1098.61
-1038.73
-989.264
-1090.8
-1080.38
-1080.96
-1085.59
-1089.6
-1092.39
-1094.69
-1097.03
-1099.85
-1103.5
-1108.08
-1113.56
-1119.77
-1128.17
-1136.12
-1161.11
-1183.92
-1341.77
-1472.2
-3343.8
28.9169
-326.617
-65.062
-340.702
-758.641
-912.582
-1036.3
-988.845
-982.941
-979.527
-979.42
-980.896
-983.314
-986.304
-989.807
-993.118
-997.8
-994.957
-1139.84
-1139.73
-1122.03
-1101.71
-1099.03
-1106
-1062.16
-1076.55
-1070.37
-1075.33
-1081.96
-1087.51
-1091.32
-1094.22
-1097.02
-1100.24
-1104.2
-1109.08
-1115.06
-1122.28
-1132.28
-1143.59
-1173.58
-1201.87
-1349.89
-1488.87
-2442.08
19.2792
-212.901
-272.478
-387.489
-758.262
-1017.63
-1048.11
-998.431
-987.807
-982.988
-981.199
-982.122
-984.387
-987.461
-991.601
-997.112
-1007.48
-1024.64
-1124.24
-1183.56
-1118.45
-1101.94
-1102.08
-1065.85
-1037.91
-1061.67
-1061.91
-1070.9
-1079.05
-1085.75
-1090.5
-1094.1
-1097.27
-1100.65
-1104.77
-1109.9
-1116.3
-1124.31
-1135.55
-1148.91
-1181.01
-1204.83
-1328.41
-1376.65
-1715.6
-258.926
-262.523
-401.822
-722.721
-827.835
-1032.71
-1046.07
-1007.06
-993.075
-985.506
-982.584
-983.204
-985.277
-988.358
-992.971
-1000.13
-1014.9
-1042.28
-1118.41
-1112.93
-1113.74
-1101.02
-1103.28
-1047.08
-1015.19
-1050.22
-1055.83
-1067.67
-1077.26
-1084.91
-1090.15
-1094.01
-1097.37
-1100.92
-1105.19
-1110.51
-1117.21
-1125.76
-1137.81
-1152.16
-1184.38
-1200.7
-1299.17
-1239
-1010.66
-416.82
-256.458
-369.804
-691.484
-976.689
-978.426
-1031.31
-1008.96
-996.166
-986.667
-983.343
-983.638
-985.359
-988.451
-993.291
-1001.35
-1018.92
-1052.04
-1155.96
-1237.27
-1105.78
-1100.35
-1102.83
-1046.83
-1006.01
-1044.24
-1052.02
-1065.11
-1075.32
-1083.46
-1089.06
-1093.09
-1096.64
-1100.36
-1104.77
-1110.23
-1117.07
-1126.07
-1138.76
-1153.29
-1185.24
-1194.79
-1280.67
-1172.42
-858.277
-374.968
)
;

boundaryField
{
    AirInlet
    {
        type            calculated;
        value           nonuniform List<scalar> 5(264.668 267.551 265.278 267.11 265.293);
    }
    WaterInlet
    {
        type            calculated;
        value           nonuniform List<scalar> 10(856.026 850.558 847.956 848.318 851.315 -245.994 -249.121 -249.526 -246.938 -241.481);
    }
    ChannelWall
    {
        type            calculated;
        value           nonuniform List<scalar> 
110
(
851.27
816.854
793.7
799.979
699.32
-245.95
-282.994
-299.356
-304.984
-360.432
-241.506
-280.29
-296.295
-289.857
-330.976
-256.501
-369.844
-691.517
-976.718
-978.463
-1031.36
-1009.01
-996.21
-986.711
-983.387
-983.682
-985.403
-988.495
-993.335
-1001.39
-1018.96
-1052.09
-1156.01
-1237.29
-1105.78
-1100.35
-1102.84
-1046.84
-1006.06
-1044.29
-1052.06
-1065.16
-1075.37
-1083.5
-1089.11
-1093.14
-1096.68
-1100.4
-1104.82
-1110.27
-1117.11
-1126.12
-1138.8
-1153.34
-1185.28
-1194.83
-1280.71
-1172.47
-858.317
-374.976
856.05
820.14
797.62
809.98
767.349
781.182
633.882
8.69471
46.6727
-721.398
-905.705
-890.742
-934.251
-945.667
-961.001
-968.616
-975.558
-980.869
-985.755
-991.787
-1001.73
-1052.08
-1137.62
-1255.97
-1160.56
-1204.61
-1101.97
-1100.01
-1243.9
-1207.54
-1151.22
-1123
-1108.43
-1100.64
-1097.44
-1096.75
-1097.49
-1099.18
-1101.49
-1104.01
-1105.89
-1105.66
-1101.84
-1088.11
-1068.59
-1010.17
-941.325
-813.384
-845.659
-207.544
)
;
    }
    Outlet
    {
        type            calculated;
        value           nonuniform List<scalar> 
15
(
-0.0106441
-0.0312518
-0.0496089
-0.107556
-0.89652
-0.0954162
-0.0613776
-1.72782
-0.799357
-0.117681
-0.000583695
-0.00349766
-0.748547
-3.30437
-0.307883
)
;
    }
    FrontAndBack
    {
        type            empty;
    }
}


// ************************************************************************* //
