/*--------------------------------*- C++ -*----------------------------------*\
| =========                 |                                                 |
| \\      /  F ield         | OpenFOAM: The Open Source CFD Toolbox           |
|  \\    /   O peration     | Version:  2.3.0                                 |
|   \\  /    A nd           | Web:      www.OpenFOAM.org                      |
|    \\/     M anipulation  |                                                 |
\*---------------------------------------------------------------------------*/
FoamFile
{
    version     2.0;
    format      ascii;
    class       volScalarField;
    location    "0.044";
    object      p_rgh;
}
// * * * * * * * * * * * * * * * * * * * * * * * * * * * * * * * * * * * * * //

dimensions      [1 -1 -2 0 0 0 0];

internalField   nonuniform List<scalar> 
725
(
856.05
820.14
797.62
809.98
767.349
850.631
820.552
797.694
808.185
764.739
848.079
820.607
797.767
823.476
754.504
848.49
819.294
795.562
808.907
698.205
851.535
817.158
794.043
800.362
699.741
781.182
633.882
8.69471
46.6727
-721.398
-905.705
-890.742
-934.251
-945.667
-961.001
-968.616
-975.558
-980.869
-985.755
-991.787
-1001.73
-1052.08
-1137.62
-1255.97
-1160.56
-1204.61
-1101.97
-1100.01
-1243.9
-1207.54
-1151.22
-1123
-1108.43
-1100.64
-1097.44
-1096.75
-1097.49
-1099.18
-1101.49
-1104.01
-1105.89
-1105.66
-1101.84
-1088.11
-1068.59
-1010.17
-941.325
-813.384
-845.659
-207.544
768.451
608.576
49.1291
64.6301
-806.32
-922.495
-896.729
-937.441
-948.193
-962.878
-969.932
-976.533
-981.567
-986.136
-990.901
-997.414
-1035.09
-1099.76
-1204.97
-1169.62
-1190.88
-1117.36
-1114.14
-1192.08
-1211.61
-1143.08
-1118.23
-1106.96
-1100.63
-1097.84
-1097.22
-1097.94
-1099.63
-1102.01
-1104.65
-1106.75
-1106.95
-1103.92
-1091.66
-1074.87
-1019.29
-951.637
-788.593
-746.53
-266.35
861.765
72.0613
159.969
213.385
-837.364
-956.068
-913.678
-944.194
-951.871
-964.972
-971.333
-977.389
-982.029
-985.971
-988.906
-988.823
-1002.34
-1060.15
-1173.82
-1160.74
-1112.3
-1111.49
-1166.48
-1232.74
-1207.76
-1132.57
-1111.61
-1103.61
-1098.75
-1096.84
-1096.7
-1097.64
-1099.48
-1102.06
-1105.02
-1107.62
-1108.58
-1106.98
-1097.24
-1085.56
-1035.82
-974.569
-753.658
-629.907
-340.037
516.262
251.973
261.537
186.314
-880.182
-1010.1
-939.988
-952.67
-956.488
-967.57
-973.159
-978.476
-982.677
-985.991
-987.033
-980.924
-963.091
-1023.15
-1037.81
-1163.17
-1106.88
-1110.3
-1170.94
-1205.09
-1184.29
-1119.81
-1103.79
-1099.55
-1096.74
-1095.74
-1095.94
-1097.11
-1099.18
-1102.06
-1105.48
-1108.77
-1110.75
-1111.03
-1104.81
-1100.44
-1061.1
-1022.2
-724.06
-253.702
-335.144
356.37
286.196
267.358
180.896
-1142.53
-1154.5
-959.472
-960.186
-960.927
-970.343
-975.174
-979.774
-983.535
-986.388
-986.25
-976.726
-945.646
-906.759
-729.004
-1179.29
-1106.22
-1107.59
-1135.65
-997.409
-1150.74
-1105.46
-1095.84
-1094.75
-1094.2
-1094.44
-1095.24
-1096.58
-1098.76
-1101.94
-1105.92
-1110.08
-1113.25
-1115.78
-1113.53
-1118.6
-1095.86
-1111.59
-783.304
-30.292
-292.64
264.668
295.512
322.814
-74.6851
-1353.68
-1134.58
-953.661
-965.252
-964.021
-970.091
-975.584
-980.29
-983.883
-986.73
-986.754
-980.286
-948.972
-840.95
-262.284
-1199.54
-1105.8
-1096.4
-1181.53
-1173.43
-1141.11
-1096.5
-1090.98
-1091.72
-1092.58
-1093.56
-1094.7
-1096.23
-1098.52
-1101.87
-1106.18
-1110.98
-1114.92
-1119.43
-1119.13
-1131.79
-1119.83
-1183.24
-983.924
-1533.6
-571.332
265.313
293.644
319.918
-160.556
-1093.41
-1110.36
-953.657
-966.965
-965.105
-970.676
-976.109
-980.505
-983.946
-986.79
-986.816
-980.903
-947.126
-809.794
-429.123
-1191.02
-1105.81
-1092.04
-1134.27
-1254.51
-1134.55
-1093.53
-1089.19
-1090.64
-1092.03
-1093.26
-1094.53
-1096.13
-1098.46
-1101.83
-1106.24
-1111.28
-1115.55
-1120.7
-1121.18
-1136.64
-1129
-1208.84
-1057.73
-2062.12
-401.996
265.802
292.29
308.368
-176.411
-828.016
-1077.99
-955.746
-967.947
-965.771
-969.84
-976.238
-980.672
-983.969
-986.814
-987.114
-983.025
-945.5
-823.061
-515.256
-1175.12
-1105.89
-1092.73
-1179.74
-1223.69
-1126.71
-1091.05
-1087.56
-1089.64
-1091.53
-1093.01
-1094.4
-1096.07
-1098.42
-1101.8
-1106.22
-1111.33
-1115.86
-1121.85
-1123.78
-1141.69
-1138.77
-1235.71
-1146.45
-2389.86
-368.353
265.437
292.904
299.628
-139.885
-787.008
-1056.08
-958.812
-969.267
-966.664
-969.423
-976.379
-980.706
-983.941
-986.828
-987.293
-984.489
-944.648
-845.817
-679.813
-1145.4
-1105.38
-1098.68
-1132.65
-1105.3
-1121.8
-1088.55
-1085.99
-1088.66
-1091.02
-1092.74
-1094.31
-1096.12
-1098.55
-1101.97
-1106.43
-1111.68
-1116.68
-1123.51
-1126.56
-1146.51
-1148.73
-1265.81
-1250.68
-2799.8
-339.13
265.321
292.259
131.221
-128.131
-833.422
-1042.17
-963.201
-971.305
-969.817
-973.835
-977.605
-980.975
-984.024
-986.9
-987.539
-985.683
-953.582
-987.478
-1152.85
-1121.03
-1099.22
-1100.78
-946.224
-1008.43
-1114.4
-1086.08
-1084.44
-1087.67
-1090.48
-1092.49
-1094.29
-1096.25
-1098.8
-1102.29
-1106.77
-1112.07
-1117.36
-1124.75
-1129.07
-1150.69
-1158.41
-1291.2
-1339.19
-3074.43
-98.9456
-245.234
-282.317
-298.719
-304.385
-359.883
-248.311
-280.599
-297.964
-304.298
-373.372
-248.667
-279.293
-295.6
-290.825
-345.959
-246.03
-278.963
-294.682
-284.896
-331.387
-240.525
-279.309
-295.314
-288.876
-329.995
294.61
276.278
-103.981
-555.88
-859.75
-1016.49
-973.738
-975.498
-974.226
-976.415
-978.782
-981.491
-984.422
-987.382
-988.847
-987.919
-970.459
-1160.42
-1817.17
-1115.5
-1095.61
-1098.61
-1038.58
-988.68
-1090.22
-1079.79
-1080.37
-1085.01
-1089.02
-1091.81
-1094.11
-1096.44
-1099.27
-1102.92
-1107.49
-1112.97
-1119.18
-1127.58
-1135.53
-1160.52
-1183.34
-1341.19
-1471.62
-3343.41
28.9182
-326.105
-64.9143
-340.468
-758.339
-912.062
-1035.63
-988.173
-982.27
-978.855
-978.748
-980.224
-982.642
-985.632
-989.136
-992.446
-997.128
-994.285
-1139.17
-1139.4
-1122.02
-1101.7
-1099.03
-1105.79
-1061.49
-1075.87
-1069.7
-1074.66
-1081.29
-1086.84
-1090.64
-1093.55
-1096.35
-1099.57
-1103.53
-1108.41
-1114.39
-1121.6
-1131.6
-1142.92
-1172.91
-1201.2
-1349.22
-1488.2
-2441.62
19.2827
-212.14
-272.092
-387.211
-757.858
-1017.01
-1047.35
-997.67
-987.047
-982.228
-980.439
-981.362
-983.627
-986.701
-990.841
-996.352
-1006.72
-1023.88
-1123.48
-1183.2
-1118.45
-1101.94
-1102.08
-1065.59
-1037.15
-1060.91
-1061.15
-1070.14
-1078.29
-1084.99
-1089.74
-1093.34
-1096.51
-1099.89
-1104.01
-1109.14
-1115.54
-1123.55
-1134.79
-1148.15
-1180.25
-1204.07
-1327.65
-1375.89
-1714.95
-258.866
-261.688
-401.036
-722.11
-827.344
-1032.02
-1045.22
-1006.21
-992.227
-984.658
-981.736
-982.356
-984.429
-987.51
-992.122
-999.282
-1014.06
-1041.44
-1117.56
-1112.53
-1113.74
-1101.02
-1103.28
-1046.78
-1014.34
-1049.37
-1054.98
-1066.83
-1076.41
-1084.06
-1089.3
-1093.16
-1096.53
-1100.08
-1104.34
-1109.66
-1116.36
-1124.91
-1136.96
-1151.31
-1183.53
-1199.85
-1298.32
-1238.15
-1009.88
-416.674
-255.544
-368.947
-690.784
-976.054
-977.639
-1030.38
-1008.03
-995.229
-985.73
-982.406
-982.701
-984.422
-987.514
-992.354
-1000.41
-1017.98
-1051.11
-1155.02
-1236.88
-1105.77
-1100.35
-1102.83
-1046.49
-1005.08
-1043.31
-1051.08
-1064.18
-1074.39
-1082.52
-1088.13
-1092.16
-1095.7
-1099.42
-1103.83
-1109.29
-1116.13
-1125.13
-1137.82
-1152.36
-1184.3
-1193.85
-1279.73
-1171.48
-857.414
-374.788
)
;

boundaryField
{
    AirInlet
    {
        type            fixedFluxPressure;
        gradient        nonuniform List<scalar> 5(-27.9082 223841 -52293.6 167393 -2827.41);
        value           nonuniform List<scalar> 5(264.668 267.552 265.279 267.111 265.293);
    }
    WaterInlet
    {
        type            fixedFluxPressure;
        gradient        nonuniform List<scalar> 10(0.00059658 -3.3568 -5.71341 2.34093 2.70271 -0.0106219 -0.11779 -2.43732 0.0041248 -12.0408);
        value           nonuniform List<scalar> 10(856.05 850.631 848.079 848.49 851.535 -245.234 -248.311 -248.667 -246.03 -240.525);
    }
    ChannelWall
    {
        type            fixedFluxPressure;
        gradient        uniform 0;
        value           nonuniform List<scalar> 
110
(
851.535
817.158
794.043
800.362
699.741
-245.234
-282.317
-298.719
-304.385
-359.883
-240.525
-279.309
-295.314
-288.876
-329.995
-255.544
-368.947
-690.784
-976.054
-977.639
-1030.38
-1008.03
-995.229
-985.73
-982.406
-982.701
-984.422
-987.514
-992.354
-1000.41
-1017.98
-1051.11
-1155.02
-1236.88
-1105.77
-1100.35
-1102.83
-1046.49
-1005.08
-1043.31
-1051.08
-1064.18
-1074.39
-1082.52
-1088.13
-1092.16
-1095.7
-1099.42
-1103.83
-1109.29
-1116.13
-1125.13
-1137.82
-1152.36
-1184.3
-1193.85
-1279.73
-1171.48
-857.414
-374.788
856.05
820.14
797.62
809.98
767.349
781.182
633.882
8.69471
46.6727
-721.398
-905.705
-890.742
-934.251
-945.667
-961.001
-968.616
-975.558
-980.869
-985.755
-991.787
-1001.73
-1052.08
-1137.62
-1255.97
-1160.56
-1204.61
-1101.97
-1100.01
-1243.9
-1207.54
-1151.22
-1123
-1108.43
-1100.64
-1097.44
-1096.75
-1097.49
-1099.18
-1101.49
-1104.01
-1105.89
-1105.66
-1101.84
-1088.11
-1068.59
-1010.17
-941.325
-813.384
-845.659
-207.544
)
;
    }
    Outlet
    {
        type            totalPressure;
        rho             rho;
        psi             none;
        gamma           1;
        p0              uniform 0;
        value           nonuniform List<scalar> 
15
(
0
0
0
-0.107247
-0.896123
0
0
-1.72733
-0.798847
-0.117151
0
0
-0.688325
-3.15845
-0.127999
)
;
    }
    FrontAndBack
    {
        type            empty;
    }
}


// ************************************************************************* //
