/*--------------------------------*- C++ -*----------------------------------*\
| =========                 |                                                 |
| \\      /  F ield         | OpenFOAM: The Open Source CFD Toolbox           |
|  \\    /   O peration     | Version:  2.3.0                                 |
|   \\  /    A nd           | Web:      www.OpenFOAM.org                      |
|    \\/     M anipulation  |                                                 |
\*---------------------------------------------------------------------------*/
FoamFile
{
    version     2.0;
    format      ascii;
    class       surfaceScalarField;
    location    "0.044";
    object      phi;
}
// * * * * * * * * * * * * * * * * * * * * * * * * * * * * * * * * * * * * * //

dimensions      [0 3 -1 0 0 0 0];

internalField   nonuniform List<scalar> 
1380
(
3.12243e-13
1.87757e-13
2.90891e-13
2.13517e-14
2.40298e-13
5.05933e-14
3.38558e-13
-9.82594e-14
6.84774e-13
-3.46217e-13
6.01515e-13
8.62421e-14
6.16579e-13
6.28736e-15
5.65931e-13
1.01241e-13
5.4989e-13
-8.22178e-14
1.79437e-12
-5.59702e-13
6.83393e-13
-9.71506e-14
7.02002e-13
-1.23222e-14
6.06656e-13
1.96588e-13
-1.48418e-13
6.72856e-13
3.52997e-12
-1.88403e-12
5.97301e-13
-1.94451e-13
6.0055e-13
-1.55718e-14
6.73485e-13
1.23653e-13
7.64078e-13
5.82263e-13
2.07229e-12
2.22176e-12
3.05549e-13
2.89977e-13
4.1363e-13
9.95893e-13
3.06819e-12
-7.24591e-13
3.78374e-13
1.47944e-12
-2.20403e-12
2.43923e-12
-9.59791e-13
-5.90435e-13
3.02966e-12
-2.96328e-13
-2.94108e-13
-6.93983e-13
3.97655e-13
-2.8263e-13
-4.11353e-13
-1.29581e-14
-2.69672e-13
3.75866e-14
-5.05449e-14
5.56038e-14
-1.80173e-14
8.52166e-14
-2.96127e-14
1.17836e-13
-3.26192e-14
1.43702e-13
-2.58662e-14
1.70816e-13
-2.71145e-14
2.36608e-13
-6.5791e-14
4.04966e-13
-1.68358e-13
7.02397e-13
-2.97432e-13
1.66493e-12
-9.62532e-13
1.37667e-12
2.88257e-13
-1.27478e-12
2.65145e-12
-6.8098e-12
5.53502e-12
7.26089e-13
-7.53589e-12
1.9822e-12
-1.25612e-12
1.60996e-12
3.72241e-13
4.85604e-13
1.12436e-12
1.51965e-13
3.3364e-13
1.12237e-13
3.97272e-14
1.09442e-13
2.79549e-15
1.17144e-13
-7.70289e-15
1.26554e-13
-9.40959e-15
1.32308e-13
-5.75424e-15
1.35269e-13
-2.96115e-15
1.37609e-13
-2.33976e-15
1.40446e-13
-2.83668e-15
1.44979e-13
-4.53258e-15
1.51337e-13
-6.35794e-15
1.64045e-13
-1.27087e-14
1.83521e-13
-1.94753e-14
2.35371e-13
-5.18504e-14
3.21355e-13
-8.5984e-14
6.00775e-13
-2.79419e-13
1.13819e-12
-5.37413e-13
2.47447e-12
-1.33628e-12
4.82737e-12
-2.3529e-12
2.68489e-12
-2.95776e-13
1.14448e-13
1.26389e-12
-3.7637e-12
2.1393e-12
-1.83519e-12
9.89773e-13
4.17919e-12
-3.6729e-13
1.06295e-12
-1.0647e-12
1.09507e-12
-4.70573e-13
-1.00548e-12
-3.54268e-14
-7.04819e-13
4.51123e-14
-1.31084e-13
1.17819e-13
-9.07236e-14
2.01773e-13
-1.13567e-13
2.89058e-13
-1.19904e-13
3.51091e-13
-8.7899e-14
4.052e-13
-8.1223e-14
4.92399e-13
-1.52989e-13
6.55903e-13
-3.31862e-13
9.59491e-13
-6.01019e-13
1.92822e-12
-1.93126e-12
2.33364e-12
-1.17171e-13
1.18615e-12
3.79895e-12
-8.94815e-12
1.56693e-11
-2.81331e-12
-1.36707e-11
2.28614e-12
-6.35557e-12
3.2426e-12
-5.84217e-13
2.15237e-12
2.21458e-12
9.88947e-13
1.49706e-12
5.24797e-13
5.03877e-13
3.97242e-13
1.3035e-13
3.66075e-13
2.34643e-14
3.63259e-13
-6.59357e-15
3.65353e-13
-7.84781e-15
3.67085e-13
-4.69303e-15
3.69404e-13
-4.65932e-15
3.73539e-13
-6.97183e-15
3.8008e-13
-1.10728e-14
3.89702e-13
-1.59801e-14
4.07133e-13
-3.01393e-14
4.39049e-13
-5.13913e-14
5.03659e-13
-1.16461e-13
6.39363e-13
-2.21688e-13
9.37902e-13
-5.77959e-13
1.56694e-12
-1.16645e-12
2.80726e-12
-2.57661e-12
5.3015e-12
-4.84714e-12
4.76703e-12
7.92359e-13
-2.56194e-12
1.11927e-11
-1.41641e-11
9.23223e-12
1.25301e-13
4.00112e-12
9.4103e-12
-1.07122e-12
6.1353e-12
-1.33655e-12
1.36039e-12
-3.02346e-13
-2.03969e-12
1.23161e-13
-1.13033e-12
1.77207e-13
-1.8513e-13
2.31048e-13
-1.44565e-13
3.31618e-13
-2.14137e-13
4.37476e-13
-2.25763e-13
5.10117e-13
-1.6054e-13
5.56264e-13
-1.27369e-13
5.9663e-13
-1.93355e-13
6.21347e-13
-3.56578e-13
6.05366e-13
-5.85039e-13
3.61079e-13
-1.68697e-12
-4.57064e-13
7.00973e-13
-4.32008e-12
7.66197e-12
-2.27328e-12
1.36225e-11
-1.24297e-12
-1.4701e-11
1.42894e-12
-9.02748e-12
3.10875e-12
-2.26403e-12
2.73578e-12
2.58756e-12
1.54944e-12
2.68341e-12
8.54125e-13
1.19919e-12
6.32025e-13
3.52451e-13
5.714e-13
8.40886e-14
5.56941e-13
7.86528e-15
5.54553e-13
-5.45893e-15
5.54325e-13
-4.46561e-15
5.5554e-13
-5.87379e-15
5.58772e-13
-1.02048e-14
5.64105e-13
-1.64053e-14
5.71519e-13
-2.33943e-14
5.85418e-13
-4.40383e-14
6.10419e-13
-7.63914e-14
6.62634e-13
-1.68676e-13
7.6006e-13
-3.19114e-13
9.51497e-13
-7.69396e-13
1.21373e-12
-1.42868e-12
1.80982e-12
-3.17269e-12
4.65841e-12
-7.69573e-12
8.22776e-12
5.65371e-12
-5.99389e-12
9.86448e-12
-1.83748e-11
7.3028e-12
2.68699e-12
2.56673e-12
1.41464e-11
-3.14181e-12
1.18438e-11
-1.22088e-12
-5.60542e-13
7.21406e-14
-3.33271e-12
4.14521e-13
-1.47271e-12
4.03234e-13
-1.73843e-13
3.95464e-13
-1.36795e-13
4.80876e-13
-2.99549e-13
5.75033e-13
-3.1992e-13
6.34384e-13
-2.19891e-13
6.49365e-13
-1.4235e-13
6.03445e-13
-1.47435e-13
3.94436e-13
-1.47569e-13
4.1939e-14
-2.32541e-13
-3.81244e-13
-1.26379e-12
-1.98027e-13
5.17756e-13
5.20216e-12
2.26178e-12
2.36642e-12
1.64583e-11
-1.22824e-12
-1.11064e-11
9.53841e-13
-1.12096e-11
1.9373e-12
-3.24749e-12
2.09022e-12
2.43464e-12
1.50653e-12
3.2671e-12
9.91467e-13
1.71425e-12
7.77236e-13
5.66682e-13
7.13077e-13
1.48247e-13
6.9816e-13
2.27822e-14
6.95958e-13
-3.25679e-15
6.95507e-13
-4.01449e-15
6.95856e-13
-6.22272e-15
6.97271e-13
-1.162e-14
6.99356e-13
-1.84897e-14
7.01186e-13
-2.52248e-14
7.06715e-13
-4.95676e-14
7.15706e-13
-8.53821e-14
7.41999e-13
-1.94969e-13
7.67259e-13
-3.44374e-13
7.96954e-13
-7.99091e-13
5.75953e-13
-1.20768e-12
3.40184e-13
-2.93692e-12
-1.51544e-12
-5.8401e-12
1.10424e-11
7.92214e-12
-1.08478e-11
-6.30092e-12
-4.15179e-12
-5.93981e-12
2.32588e-12
-4.54044e-12
1.2747e-11
-2.56561e-12
9.86902e-12
3.70634e-13
-3.49679e-12
8.02535e-13
-3.76461e-12
7.3419e-13
-1.40436e-12
6.37591e-13
-7.72435e-14
5.82833e-13
-8.20372e-14
6.38833e-13
-3.55548e-13
6.97287e-13
-3.78373e-13
7.23764e-13
-2.46368e-13
6.99589e-13
-1.18175e-13
5.73252e-13
-2.10977e-14
1.74151e-13
2.51532e-13
-5.31396e-13
4.73006e-13
-1.63658e-12
-1.58606e-13
6.21082e-13
-1.7399e-12
7.92624e-12
-5.04338e-12
7.4326e-12
1.69519e-11
2.85393e-12
-6.52771e-12
1.69803e-12
-1.00537e-11
7.24953e-13
-2.27441e-12
1.15541e-12
2.00418e-12
1.13993e-12
3.28258e-12
9.57806e-13
1.89637e-12
8.3277e-13
6.91719e-13
7.83372e-13
1.97645e-13
7.74803e-13
3.13508e-14
7.79387e-13
-7.84136e-15
7.84751e-13
-9.37831e-15
7.8753e-13
-9.00219e-15
7.8783e-13
-1.19195e-14
7.85426e-13
-1.60857e-14
7.79316e-13
-1.91145e-14
7.7228e-13
-4.25315e-14
7.62256e-13
-7.5358e-14
7.53073e-13
-1.85786e-13
7.10264e-13
-3.01564e-13
5.73903e-13
-6.6273e-13
3.36642e-13
-9.7042e-13
-7.17786e-13
-1.88249e-12
-8.23991e-12
1.68203e-12
1.50093e-11
-2.22416e-12
-8.42367e-12
-4.45827e-12
-1.91769e-12
-4.39675e-12
2.26436e-12
-2.89322e-12
1.12435e-11
1.78721e-13
6.79707e-12
4.26799e-13
-3.74486e-12
2.52671e-13
-3.59048e-12
1.91473e-13
-1.34316e-12
1.58816e-13
-4.45859e-14
1.5473e-13
-7.7951e-14
1.61227e-13
-3.62046e-13
1.67055e-13
-3.84201e-13
1.66669e-13
-2.45982e-13
1.58959e-13
-1.10465e-13
1.32895e-13
4.96598e-15
8.29875e-14
3.0144e-13
1.09018e-13
4.46975e-13
-4.18434e-14
-7.74416e-15
5.59008e-13
-2.34076e-12
2.161e-12
-6.64537e-12
2.06452e-12
1.70484e-11
5.98287e-13
-5.06147e-12
5.8799e-14
-9.51417e-12
-1.3579e-14
-2.20203e-12
1.53003e-13
1.8376e-12
1.88129e-13
3.24745e-12
1.95137e-13
1.88936e-12
1.83316e-13
7.0354e-13
1.7688e-13
2.04081e-13
1.76162e-13
3.20685e-14
1.77588e-13
-9.26693e-15
1.79317e-13
-1.11077e-14
1.80453e-13
-1.01379e-14
1.8064e-13
-1.21071e-14
1.79433e-13
-1.48786e-14
1.77436e-13
-1.71171e-14
1.72452e-13
-3.75471e-14
1.72955e-13
-7.58612e-14
1.56938e-13
-1.69769e-13
1.60783e-13
-3.05409e-13
9.15395e-14
-5.93486e-13
7.43291e-14
-9.5321e-13
-1.48702e-13
-1.65946e-12
1.35702e-12
1.76299e-13
1.44921e-11
-2.72434e-12
-5.49934e-12
-5.59534e-12
9.53316e-13
-2.60605e-12
-7.24927e-13
1.74577e-13
8.46284e-12
5.36089e-13
6.43556e-12
4.67696e-13
-3.67647e-12
2.66031e-13
-3.38881e-12
1.99796e-13
-1.27693e-12
1.66182e-13
-1.09718e-14
1.64551e-13
-7.632e-14
1.68286e-13
-3.65781e-13
1.71158e-13
-3.87074e-13
1.68776e-13
-2.436e-13
1.60264e-13
-1.01953e-13
1.34235e-13
3.0995e-14
1.00807e-13
3.34867e-13
1.5726e-13
3.90523e-13
9.00845e-14
5.94307e-14
1.53672e-12
-3.78739e-12
1.18081e-12
-6.28946e-12
2.45854e-12
1.57706e-11
-6.67884e-13
-1.93505e-12
-6.44079e-13
-9.53798e-12
-3.57877e-14
-2.81032e-12
1.13103e-13
1.68871e-12
1.6717e-13
3.19339e-12
1.88298e-13
1.86823e-12
1.81951e-13
7.09886e-13
1.77453e-13
2.08579e-13
1.77235e-13
3.22865e-14
1.78816e-13
-1.08478e-14
1.80658e-13
-1.295e-14
1.81871e-13
-1.13507e-14
1.8204e-13
-1.22768e-14
1.80624e-13
-1.3462e-14
1.78301e-13
-1.47941e-14
1.72586e-13
-3.18324e-14
1.72661e-13
-7.5936e-14
1.54838e-13
-1.51946e-13
1.59669e-13
-3.10239e-13
8.32352e-14
-5.17052e-13
3.93549e-14
-9.0933e-13
-6.13548e-13
-1.00656e-12
-6.66237e-13
2.28989e-13
1.34707e-11
-2.69713e-12
-2.6022e-12
-4.32178e-12
2.57797e-12
-4.28072e-12
-7.65988e-13
1.35513e-12
2.82699e-12
6.1227e-13
7.17842e-12
4.33561e-13
-3.49776e-12
2.67139e-13
-3.22239e-12
2.0604e-13
-1.21583e-12
1.72338e-13
2.27302e-14
1.71499e-13
-7.54806e-14
1.74723e-13
-3.69004e-13
1.74985e-13
-3.87336e-13
1.70777e-13
-2.39392e-13
1.61633e-13
-9.28093e-14
1.34923e-13
5.77054e-14
1.10423e-13
3.59366e-13
1.34655e-13
3.66291e-13
-3.46267e-13
5.40352e-13
-3.22402e-12
-9.09635e-13
-2.60206e-13
-9.25328e-12
2.46438e-12
1.30461e-11
7.66434e-13
-2.371e-13
-5.38212e-13
-8.23333e-12
-5.54293e-14
-3.29311e-12
7.57139e-14
1.55757e-12
1.47513e-13
3.12159e-12
1.81097e-13
1.83465e-12
1.80151e-13
7.10833e-13
1.7769e-13
2.11039e-13
1.7798e-13
3.19973e-14
1.79632e-13
-1.25001e-14
1.81485e-13
-1.48029e-14
1.82718e-13
-1.25843e-14
1.82892e-13
-1.24505e-14
1.81406e-13
-1.19753e-14
1.78761e-13
-1.21494e-14
1.72398e-13
-2.54691e-14
1.72086e-13
-7.56248e-14
1.54261e-13
-1.34121e-13
1.57463e-13
-3.13442e-13
8.04912e-14
-4.4008e-13
2.35252e-14
-8.52364e-13
-8.14708e-13
-1.68327e-13
-4.2392e-12
3.65348e-12
1.35024e-11
-2.09204e-12
-3.10168e-13
-2.90785e-12
3.39378e-12
-1.56618e-12
-2.10766e-12
4.89143e-13
7.7167e-13
4.74243e-13
7.19332e-12
3.79672e-13
-3.40319e-12
2.63044e-13
-3.10576e-12
2.1022e-13
-1.16301e-12
1.74484e-13
5.84662e-14
1.76663e-13
-7.76595e-14
1.79773e-13
-3.72114e-13
1.7804e-13
-3.85603e-13
1.72202e-13
-2.33554e-13
1.62537e-13
-8.31443e-14
1.35295e-13
8.49475e-14
1.12118e-13
3.82544e-13
-4.72892e-14
5.25698e-13
-9.99101e-13
1.49216e-12
-5.52163e-12
3.6129e-12
-1.71016e-12
-1.30648e-11
1.70712e-12
9.62878e-12
2.39566e-12
-9.25647e-13
2.60461e-13
-6.09813e-12
-1.00664e-13
-2.93198e-12
4.21974e-14
1.41471e-12
1.28715e-13
3.03507e-12
1.73487e-13
1.78988e-12
1.77863e-13
7.06457e-13
1.77435e-13
2.11466e-13
1.78102e-13
3.13307e-14
1.79605e-13
-1.40034e-14
1.8123e-13
-1.64278e-14
1.82222e-13
-1.35765e-14
1.82137e-13
-1.2365e-14
1.80449e-13
-1.02878e-14
1.77967e-13
-9.66678e-15
1.72206e-13
-1.97079e-14
1.72009e-13
-7.54285e-14
1.53708e-13
-1.1582e-13
1.55145e-13
-3.14879e-13
7.9662e-14
-3.64597e-13
6.2188e-14
-8.3489e-13
-2.48172e-13
1.42034e-13
-1.67966e-12
5.08497e-12
1.40205e-11
-1.5818e-12
1.47163e-12
6.62297e-14
1.74575e-12
-3.57011e-13
-1.68441e-12
-7.73525e-14
4.92011e-13
4.3751e-13
6.67846e-12
3.29687e-13
-3.29537e-12
2.54932e-13
-3.03101e-12
2.12903e-13
-1.12098e-12
1.82579e-13
8.879e-14
1.83053e-13
-7.8134e-14
1.85244e-13
-3.74306e-13
1.80946e-13
-3.81305e-13
1.73553e-13
-2.26161e-13
1.63419e-13
-7.30106e-14
1.3622e-13
1.12147e-13
1.08597e-13
4.10167e-13
-1.25112e-13
7.59407e-13
-6.10925e-13
1.97798e-12
8.21634e-13
2.18034e-12
1.06041e-12
-1.33035e-11
1.35426e-12
9.33493e-12
2.46098e-12
-2.03237e-12
4.27072e-13
-4.06422e-12
-1.26934e-13
-2.37798e-12
1.19859e-14
1.27579e-12
1.11094e-13
2.93596e-12
1.65435e-13
1.73554e-12
1.74905e-13
6.96988e-13
1.7637e-13
2.10001e-13
1.77239e-13
3.04615e-14
1.78508e-13
-1.52721e-14
1.79902e-13
-1.78218e-14
1.80688e-13
-1.43627e-14
1.80464e-13
-1.21414e-14
1.78891e-13
-8.71397e-15
1.76733e-13
-7.50953e-15
1.71591e-13
-1.45654e-14
1.71019e-13
-7.48571e-14
1.53415e-13
-9.82162e-14
1.50831e-13
-3.12295e-13
8.05058e-14
-2.94271e-13
5.45523e-14
-8.08936e-13
1.4395e-13
5.26355e-14
7.7324e-12
-2.50348e-12
2.16895e-11
3.06067e-13
1.93933e-13
2.78608e-13
2.74589e-14
3.08686e-13
-3.00784e-14
5.08626e-13
-1.9994e-13
-3.77079e-13
8.85705e-13
5.99305e-13
9.46283e-14
6.20821e-13
5.94232e-15
7.27663e-13
-1.3692e-13
1.3205e-12
-7.92776e-13
-2.34605e-12
3.28947e-12
6.83961e-13
-8.9333e-14
7.2171e-13
-3.18062e-14
7.15515e-13
-1.30726e-13
5.70691e-13
-6.47952e-13
-2.03456e-12
2.59204e-13
5.99295e-13
-1.88628e-13
6.04699e-13
-3.72104e-14
5.23941e-13
-4.99673e-14
1.47019e-14
-1.38712e-13
-7.71043e-13
-1.24882e-12
3.11372e-13
2.74161e-13
2.24194e-13
8.54816e-14
-6.85561e-13
2.79738e-12
-4.40044e-13
2.72858e-12
1.81455e-12
4.21941e-13
6.22222e-13
-9.49639e-13
1.86359e-12
1.7538e-12
3.97502e-12
1.22954e-12
-2.77111e-12
1.11201e-12
-2.91348e-12
9.76086e-13
-9.85049e-13
9.44882e-13
1.19994e-13
9.3268e-13
-6.59325e-14
9.00221e-13
-3.41846e-13
8.46071e-13
-3.27154e-13
7.95882e-13
-1.75973e-13
7.44629e-13
-2.17579e-14
6.51173e-13
2.05602e-13
4.41058e-13
6.20282e-13
-7.38911e-13
1.93938e-12
-6.82496e-13
1.92156e-12
1.50917e-11
-1.35938e-11
9.14599e-12
-7.35783e-12
6.52554e-12
1.19554e-11
1.30062e-12
3.19255e-12
-8.02271e-14
-2.68337e-12
-7.21544e-13
-1.73666e-12
-3.20185e-13
8.74428e-13
3.03901e-13
2.31187e-12
6.43776e-13
1.39566e-12
7.45198e-13
5.95566e-13
7.70698e-13
1.84501e-13
7.77491e-13
2.36691e-14
7.81717e-13
-1.94988e-14
7.8544e-13
-2.15448e-14
7.86257e-13
-1.51795e-14
7.83867e-13
-9.75201e-15
7.78928e-13
-3.77411e-15
7.71866e-13
-4.47293e-16
7.61872e-13
-4.57198e-15
7.36992e-13
-4.9977e-14
7.01339e-13
-6.25639e-14
5.90448e-13
-2.01404e-13
3.71386e-13
-7.52091e-14
-2.44059e-13
-1.93492e-13
-5.9088e-13
3.99457e-13
3.50107e-12
-6.59543e-12
3.35948e-12
1.84145e-12
1.00797e-12
1.50757e-12
2.14844e-12
3.59679e-13
1.77011e-12
1.10509e-13
2.11276e-12
1.58605e-12
2.49948e-12
1.44029e-12
-2.62535e-12
1.1118e-12
-2.58499e-12
9.71211e-13
-8.44461e-13
1.00918e-12
8.20299e-14
1.00137e-12
-5.81232e-14
9.15311e-13
-2.55791e-13
8.17605e-13
-2.29449e-13
7.51875e-13
-1.10243e-13
7.14634e-13
1.54829e-14
6.99946e-13
2.20291e-13
7.15959e-13
6.04269e-13
8.36671e-13
1.81866e-12
1.72989e-13
2.58524e-12
-1.0471e-11
-2.94987e-12
-5.58634e-12
-1.22425e-11
1.26401e-12
5.10504e-12
5.90788e-13
3.86577e-12
-4.69925e-13
-1.62266e-12
-1.0179e-12
-1.18869e-12
-6.81167e-13
5.37698e-13
2.87777e-14
1.60193e-12
4.65774e-13
9.58665e-13
6.36187e-13
4.25153e-13
6.92839e-13
1.27848e-13
7.04846e-13
1.16628e-14
7.03067e-13
-1.772e-14
6.98866e-13
-1.73439e-14
6.95061e-13
-1.13746e-14
6.91931e-13
-6.62126e-15
6.89709e-13
-1.55298e-15
6.88143e-13
1.11886e-15
6.84847e-13
-1.27635e-15
6.65521e-13
-3.06511e-14
6.38955e-13
-3.59982e-14
5.40168e-13
-1.02616e-13
4.12738e-13
5.22208e-14
-9.08037e-14
3.1005e-13
-4.50284e-13
7.58937e-13
-7.10033e-12
5.46153e-14
-5.47597e-12
1.33126e-12
-6.40861e-14
2.84128e-12
6.38417e-13
6.16602e-13
3.99479e-12
1.09452e-12
1.63484e-12
2.27457e-12
1.31943e-12
1.90061e-12
-2.25139e-12
1.19679e-12
-1.88118e-12
9.09264e-13
-5.56934e-13
9.44828e-13
4.64658e-14
9.22577e-13
-3.5872e-14
8.07994e-13
-1.41208e-13
6.96553e-13
-1.18008e-13
6.34659e-13
-4.83491e-14
6.2194e-13
2.82021e-14
6.75366e-13
1.66864e-13
8.40748e-13
4.38888e-13
1.47415e-12
1.18526e-12
1.61819e-12
2.44121e-12
-3.21386e-12
1.88218e-12
-6.00384e-12
-9.45251e-12
-1.69709e-12
7.98287e-13
8.56379e-13
1.3123e-12
-4.28322e-13
-3.37955e-13
-1.11218e-12
-5.04831e-13
-8.40018e-13
2.65538e-13
-1.30648e-13
8.92559e-13
3.03972e-13
5.24045e-13
4.9613e-13
2.32996e-13
5.59599e-13
6.4379e-14
5.69647e-13
1.6152e-15
5.64949e-13
-1.30222e-14
5.59153e-13
-1.15474e-14
5.55139e-13
-7.36095e-15
5.52797e-13
-4.27979e-15
5.52567e-13
-1.32258e-15
5.5414e-13
-4.55056e-16
5.54252e-13
-1.3879e-15
5.41879e-13
-1.82784e-14
5.26179e-13
-2.02982e-14
4.66157e-13
-4.25941e-14
4.47433e-13
7.09443e-14
4.42096e-13
3.15387e-13
4.40627e-13
7.60407e-13
-5.14918e-14
5.46734e-13
-4.22157e-12
-4.96761e-13
-8.16141e-13
1.77701e-12
-1.63535e-12
2.63562e-12
3.13617e-12
9.4757e-13
3.3229e-12
2.71924e-12
-4.52233e-13
2.034e-12
-1.56615e-12
1.03483e-12
-8.82012e-13
6.74601e-13
-1.96701e-13
6.95887e-13
2.51799e-14
6.66012e-13
-5.99613e-15
5.63748e-13
-3.8945e-14
4.76621e-13
-3.0881e-14
4.36491e-13
-8.21946e-15
4.4653e-13
1.8163e-14
5.37733e-13
7.56607e-14
7.76061e-13
2.0056e-13
1.44704e-12
5.14284e-13
2.41078e-12
1.47746e-12
6.29097e-13
3.66387e-12
-2.71642e-12
-6.10699e-12
-1.43812e-12
-4.80015e-13
7.76346e-14
-2.03456e-13
-5.57851e-13
2.97531e-13
-9.92232e-13
-7.04505e-14
-7.88854e-13
6.21606e-14
-1.91813e-13
2.95519e-13
1.67066e-13
1.65166e-13
3.30022e-13
7.00398e-14
3.80354e-13
1.40468e-14
3.86037e-13
-4.06813e-15
3.80158e-13
-7.14272e-15
3.73964e-13
-5.35388e-15
3.69874e-13
-3.27046e-15
3.67685e-13
-2.09179e-15
3.67397e-13
-1.03469e-15
3.68609e-13
-1.66675e-15
3.68367e-13
-1.14505e-15
3.58139e-13
-8.05127e-15
3.46541e-13
-8.70039e-15
3.16759e-13
-1.28121e-14
3.57245e-13
3.04583e-14
5.45453e-13
1.27179e-13
9.2957e-13
3.7629e-13
1.96385e-13
1.27992e-12
-2.27358e-12
-1.5017e-12
-3.13705e-12
-8.79893e-16
3.32202e-12
2.86979e-12
1.30363e-12
4.21619e-13
2.24918e-13
2.50098e-13
2.44102e-13
2.05157e-13
1.74276e-13
1.66056e-13
1.84219e-13
2.5988e-13
4.60439e-13
9.74723e-13
2.45218e-12
6.11605e-12
9.06165e-15
-4.70949e-13
-6.74401e-13
-3.7687e-13
-4.47321e-13
-3.8516e-13
-8.96407e-14
7.55256e-14
1.45566e-13
1.59612e-13
1.55544e-13
1.48402e-13
1.43047e-13
1.39777e-13
1.37685e-13
1.3665e-13
1.34984e-13
1.33839e-13
1.25788e-13
1.17087e-13
1.04275e-13
1.34733e-13
2.61912e-13
6.38203e-13
1.91812e-12
)
;

boundaryField
{
    AirInlet
    {
        type            calculated;
        value           nonuniform List<scalar> 5(-2e-13 -2e-13 -2e-13 -2e-13 -2e-13);
    }
    WaterInlet
    {
        type            calculated;
        value           nonuniform List<scalar> 10(-5e-13 -5e-13 -5e-13 -5e-13 -5e-13 -5e-13 -5e-13 -5e-13 -5e-13 -5e-13);
    }
    ChannelWall
    {
        type            calculated;
        value           uniform 0;
    }
    Outlet
    {
        type            calculated;
        value           nonuniform List<scalar> 
15
(
2.14247e-12
3.21936e-12
1.19768e-12
-4.33011e-12
-1.22067e-11
1.8742e-12
3.5513e-13
-4.27088e-12
-2.19778e-12
6.34567e-14
2.1831e-11
1.73512e-12
-1.30589e-12
-1.7516e-12
-3.55463e-13
)
;
    }
    FrontAndBack
    {
        type            empty;
        value           nonuniform 0();
    }
}


// ************************************************************************* //
