/*--------------------------------*- C++ -*----------------------------------*\
| =========                 |                                                 |
| \\      /  F ield         | OpenFOAM: The Open Source CFD Toolbox           |
|  \\    /   O peration     | Version:  2.3.0                                 |
|   \\  /    A nd           | Web:      www.OpenFOAM.org                      |
|    \\/     M anipulation  |                                                 |
\*---------------------------------------------------------------------------*/
FoamFile
{
    version     2.0;
    format      ascii;
    class       volVectorField;
    location    "0.044";
    object      U;
}
// * * * * * * * * * * * * * * * * * * * * * * * * * * * * * * * * * * * * * //

dimensions      [0 1 -1 0 0 0 0];

internalField   nonuniform List<vector> 
725
(
(0.0439897 0.00684565 -4.84888e-31)
(0.0559195 0.00154452 9.6565e-32)
(0.0263147 0.00158107 1.52537e-32)
(0.0512789 0.000541349 0)
(0.0157334 0.012147 1.35453e-31)
(0.084574 0.0136136 -2.23218e-30)
(0.1153 0.00778412 4.15204e-31)
(0.0620926 0.00701559 6.33092e-32)
(0.109651 -0.00775716 0)
(0.00466386 0.0596618 2.4968e-30)
(0.0962544 0.00934936 -5.36499e-31)
(0.132781 0.0129465 -1.58032e-33)
(0.0661593 0.0145829 -6.79085e-31)
(0.122491 0.0240057 0)
(-0.186673 0.120672 7.76427e-30)
(0.0853507 0.00294714 2.85256e-30)
(0.113179 0.0150761 -3.21142e-31)
(0.0577547 0.0180559 -1.64928e-30)
(0.153224 0.0638244 0)
(0.0245323 0.168512 5.82263e-30)
(0.0442769 0.00141135 2.90805e-30)
(0.0537704 0.00965751 -5.75915e-31)
(0.0287035 0.0077997 -4.14167e-31)
(0.104077 0.0348576 -1.38436e-30)
(0.129453 0.0972718 -5.97234e-30)
(-0.105551 -0.0149055 0)
(-0.0178773 -0.0898098 0)
(0.352802 -0.0596876 0)
(0.02056 0.0624973 0)
(-0.0635025 0.00753949 0)
(-0.0411716 0.00388337 0)
(-0.0765772 -0.00707199 0)
(0.000187447 -0.00315632 0)
(-0.000503757 -0.000554607 0)
(0.00746344 0.000358551 0)
(0.00634174 -0.000133708 0)
(0.0119669 -0.000156197 0)
(0.0147826 -0.000237362 0)
(0.0169756 -0.000260058 0)
(0.0217029 -0.00103396 0)
(0.0365404 -0.00357061 0)
(0.0469572 -0.00702619 0)
(0.140855 -0.029243 0)
(0.144061 0.0212731 0)
(0.149224 0.0441039 0)
(-0.60337 0.123131 0)
(-0.292691 -0.180274 0)
(0.285675 0.0393124 0)
(0.247925 0.0295279 0)
(0.104059 0.0190054 0)
(0.0186182 -0.00253332 0)
(0.0113331 -0.0026968 0)
(0.011607 -0.000979992 0)
(0.0120745 -0.000560873 0)
(0.0133876 -0.000322746 0)
(0.0143594 -0.000160874 0)
(0.0148543 -7.7582e-05 0)
(0.0151407 -5.19122e-05 0)
(0.0154222 -4.92078e-05 0)
(0.0158369 -7.71826e-05 0)
(0.0163865 -9.58505e-05 0)
(0.0175682 -0.000251463 0)
(0.0177986 -0.000189717 0)
(0.0259032 -0.00120795 0)
(0.0203872 -0.000896153 0)
(0.060151 -0.00611503 0)
(0.0609258 -0.00882773 0)
(0.229864 -0.0338429 0)
(0.310255 -0.0567558 0)
(0.39428 0.0616329 0)
(-0.145032 0.0648177 0)
(0.0992492 -0.0664229 0)
(0.248022 0.00386492 0)
(0.223281 0.195819 0)
(-0.0524453 -0.0574897 0)
(-0.0646515 0.0404422 0)
(-0.121633 -0.0304792 0)
(0.000423359 -0.0242116 0)
(-0.00459158 -0.00480273 0)
(0.0130951 -0.00250736 0)
(0.015204 -0.00310074 0)
(0.0285636 -0.00337077 0)
(0.0363734 -0.00253828 0)
(0.0412922 -0.00260143 0)
(0.0497 -0.00569396 0)
(0.0656703 -0.0132015 0)
(0.0702101 -0.0229309 0)
(0.171792 -0.0720189 0)
(0.183957 -0.000468839 0)
(0.501833 0.130484 0)
(-0.545913 0.495346 0)
(-0.831407 -0.613848 0)
(0.0382564 -0.196516 0)
(0.428033 0.0210452 0)
(0.343052 0.0925205 0)
(0.142281 0.0395645 0)
(0.0658549 0.00775255 0)
(0.047779 0.00152997 0)
(0.0409308 -0.00013313 0)
(0.0400186 -0.000587458 0)
(0.0403752 -0.000407595 0)
(0.0406473 -0.000219213 0)
(0.0408672 -0.000189626 0)
(0.0412209 -0.00025393 0)
(0.0418393 -0.000402245 0)
(0.0426381 -0.000581801 0)
(0.0444033 -0.00110093 0)
(0.0447465 -0.00185764 0)
(0.0572848 -0.00426703 0)
(0.0462848 -0.00811939 0)
(0.108597 -0.0223931 0)
(0.0823452 -0.0455669 0)
(0.306909 -0.104551 0)
(0.30995 -0.176973 0)
(0.486791 0.182095 0)
(-0.191906 -0.0664674 0)
(0.46484 -0.451124 0)
(1.38593 -0.192442 0)
(1.00804 0.268264 0)
(-0.120917 0.151238 0)
(-0.156218 0.0825471 0)
(-0.1007 -0.0723572 0)
(0.0204268 -0.046238 0)
(0.0107664 -0.00852722 0)
(0.025494 -0.00657646 0)
(0.0285748 -0.00828024 0)
(0.0439385 -0.00860029 0)
(0.0538267 -0.00621686 0)
(0.0589668 -0.00543761 0)
(0.065244 -0.00940508 0)
(0.0725187 -0.0190869 0)
(0.0528284 -0.0307761 0)
(0.069361 -0.0941436 0)
(0.0292505 -0.03009 0)
(-0.145087 0.362117 0)
(-0.554566 0.800926 0)
(-0.175316 -0.78694 0)
(-0.00781071 -0.429981 0)
(0.328181 -0.0942637 0)
(0.400635 0.120303 0)
(0.218685 0.109481 0)
(0.109805 0.043037 0)
(0.0765775 0.0115237 0)
(0.064685 0.00249923 0)
(0.061974 -2.2751e-05 0)
(0.0616051 -0.000348541 0)
(0.0615521 -0.000240415 0)
(0.0616063 -0.000274209 0)
(0.0618543 -0.000443903 0)
(0.0623749 -0.000711399 0)
(0.062966 -0.00102567 0)
(0.06449 -0.00191198 0)
(0.0641432 -0.00331008 0)
(0.0765124 -0.00727396 0)
(0.061237 -0.0140649 0)
(0.121626 -0.0347341 0)
(0.0665673 -0.0692353 0)
(0.241338 -0.14736 0)
(0.208844 -0.314229 0)
(0.347406 0.276002 0)
(0.443651 -0.19088 0)
(0.712989 -0.743144 0)
(1.2236 0.0481011 0)
(0.817295 0.611705 0)
(-0.384752 0.437825 0)
(-0.226793 0.0409531 0)
(-0.0438034 -0.14359 0)
(0.0526443 -0.0673821 0)
(0.0403491 -0.010142 0)
(0.0447301 -0.00782468 0)
(0.0463118 -0.0133763 0)
(0.0595301 -0.0139836 0)
(0.0685107 -0.00982955 0)
(0.0717355 -0.00715538 0)
(0.0725227 -0.00950005 0)
(0.0651868 -0.0157555 0)
(0.0151899 -0.0287303 0)
(-0.0123834 -0.0883375 0)
(-0.0366977 0.0855593 0)
(0.0526214 0.305656 0)
(0.703968 0.78308 0)
(-0.128211 -0.701314 0)
(0.0479454 -0.548771 0)
(0.147555 -0.140832 0)
(0.29428 0.13366 0)
(0.195942 0.156735 0)
(0.123532 0.0766572 0)
(0.0929117 0.0238146 0)
(0.0804663 0.00596886 0)
(0.0776291 0.000833456 0)
(0.0772969 -0.000148005 0)
(0.077284 -0.000162812 0)
(0.0772923 -0.000286355 0)
(0.0773877 -0.000558548 0)
(0.0776375 -0.000915396 0)
(0.0777215 -0.00128731 0)
(0.0785486 -0.00246336 0)
(0.0769006 -0.00420788 0)
(0.0873536 -0.00949953 0)
(0.0673064 -0.017268 0)
(0.118357 -0.0411766 0)
(0.0281001 -0.0702731 0)
(0.121601 -0.158174 0)
(-0.0495412 -0.324519 0)
(-0.398388 0.617623 0)
(0.496713 -0.292278 0)
(0.287006 -0.708068 0)
(-0.886831 0.277076 0)
(-0.400193 0.74391 0)
(-0.451697 0.563797 0)
(0.00539524 -0.132579 0)
(0.0549865 -0.194006 0)
(0.0927605 -0.0770839 0)
(0.0704686 -0.00753263 0)
(0.0663145 -0.00509145 0)
(0.0664495 -0.0169635 0)
(0.0748023 -0.0181155 0)
(0.0801326 -0.0122433 0)
(0.0798231 -0.00683394 0)
(0.0749391 -0.00446072 0)
(0.0538614 0.00358745 0)
(-0.0154135 0.00994724 0)
(-0.105834 -0.0317469 0)
(-0.240435 0.000538676 0)
(0.378645 -0.154414 0)
(1.09963 0.830258 0)
(0.509159 -0.41516 0)
(0.20357 -0.600774 0)
(0.0173559 -0.138988 0)
(0.157868 0.116976 0)
(0.128776 0.167818 0)
(0.113048 0.09409 0)
(0.0969458 0.0329123 0)
(0.0880526 0.00908431 0)
(0.0859618 0.00146979 0)
(0.0862053 -0.00022963 0)
(0.0868992 -0.000295723 0)
(0.0874006 -0.000359922 0)
(0.0875862 -0.000599936 0)
(0.087544 -0.00092637 0)
(0.0868987 -0.00117393 0)
(0.0867239 -0.00252605 0)
(0.0832209 -0.00392267 0)
(0.0910774 -0.0103822 0)
(0.0662749 -0.0155449 0)
(0.108062 -0.0392025 0)
(-0.0149045 -0.0511197 0)
(0.101088 -0.130916 0)
(-0.318087 -0.0580519 0)
(-1.39414 0.506271 0)
(-0.0330393 -0.506035 0)
(-2.10904 -0.168325 0)
(-3.01882 0.14027 0)
(-1.60861 0.647778 0)
(-0.248228 0.423432 0)
(0.318771 -0.182017 0)
(0.13121 -0.184455 0)
(0.111169 -0.0688122 0)
(0.0811865 -0.0030589 0)
(0.0769017 -0.003982 0)
(0.0784497 -0.0179604 0)
(0.0825411 -0.0191018 0)
(0.0844714 -0.0123349 0)
(0.082066 -0.00573124 0)
(0.0769442 -0.000417886 0)
(0.0560057 0.013938 0)
(0.025655 0.0236382 0)
(0.0574312 -0.00298539 0)
(0.00538419 -0.0900136 0)
(0.295266 -0.28171 0)
(1.38591 0.846659 0)
(0.661918 -0.279101 0)
(0.0960811 -0.495956 0)
(-0.0804452 -0.111661 0)
(0.07344 0.0962319 0)
(0.0856885 0.163701 0)
(0.100521 0.0949387 0)
(0.0942458 0.0349701 0)
(0.0890401 0.0100681 0)
(0.0878412 0.00159135 0)
(0.0883305 -0.000425713 0)
(0.0892704 -0.000509627 0)
(0.0900556 -0.000475121 0)
(0.0903923 -0.000597764 0)
(0.090242 -0.000774126 0)
(0.0891403 -0.000910057 0)
(0.08841 -0.00201018 0)
(0.0836341 -0.00379037 0)
(0.0904638 -0.00890294 0)
(0.0639488 -0.0151892 0)
(0.103285 -0.031466 0)
(-0.0273673 -0.0482889 0)
(0.134891 -0.0907214 0)
(-0.345303 0.0384976 0)
(0.945382 0.735245 0)
(-0.298901 -0.379901 0)
(-2.32732 -0.0251854 0)
(-2.70299 0.0289532 0)
(-0.201556 0.495751 0)
(0.124807 0.333837 0)
(0.378677 -0.185256 0)
(0.143136 -0.174652 0)
(0.116044 -0.0654902 0)
(0.0847441 -0.00140524 0)
(0.0810933 -0.00382629 0)
(0.0831447 -0.0182159 0)
(0.0852993 -0.0193152 0)
(0.0859051 -0.0122569 0)
(0.0827769 -0.00531261 0)
(0.0776114 0.000906977 0)
(0.0565 0.0161277 0)
(0.0403314 0.0214491 0)
(0.122027 0.000385871 0)
(0.0906061 -0.158235 0)
(0.479244 -0.352486 0)
(1.19573 0.851474 0)
(0.111083 -0.159617 0)
(-0.150575 -0.471077 0)
(-0.166599 -0.12539 0)
(0.0446641 0.0879912 0)
(0.0706295 0.161111 0)
(0.0952581 0.0940874 0)
(0.0927981 0.0353991 0)
(0.0891329 0.0103389 0)
(0.0883323 0.00161537 0)
(0.088915 -0.000499044 0)
(0.0899114 -0.000594407 0)
(0.0907535 -0.000527228 0)
(0.091113 -0.000600902 0)
(0.0909169 -0.000707424 0)
(0.0896653 -0.000804193 0)
(0.0887219 -0.00174973 0)
(0.0835186 -0.00379956 0)
(0.0900124 -0.00810199 0)
(0.0631467 -0.0153855 0)
(0.101655 -0.027844 0)
(-0.0306127 -0.0468708 0)
(0.0912221 -0.0687068 0)
(-0.788737 0.0114087 0)
(0.256411 0.792482 0)
(-0.39683 -0.20413 0)
(-2.31635 0.101595 0)
(-2.71488 -0.0774682 0)
(0.31012 0.243933 0)
(0.316859 0.331223 0)
(0.327501 -0.178929 0)
(0.142298 -0.164713 0)
(0.119333 -0.0622307 0)
(0.087664 0.00030615 0)
(0.0842885 -0.00377722 0)
(0.0870042 -0.0183804 0)
(0.0878136 -0.0193892 0)
(0.0872211 -0.0120987 0)
(0.0834724 -0.00487894 0)
(0.0782479 0.00221674 0)
(0.0565065 0.0174156 0)
(0.05821 0.0176974 0)
(0.0764249 0.0108868 0)
(-0.474436 -0.109303 0)
(-1.84586 -0.333985 0)
(0.997074 0.734124 0)
(0.697108 -0.0584939 0)
(-0.0580201 -0.431255 0)
(-0.161629 -0.153057 0)
(0.0202093 0.081098 0)
(0.0565531 0.158021 0)
(0.0897852 0.0927103 0)
(0.091092 0.0355849 0)
(0.0890437 0.0105158 0)
(0.0886712 0.0016128 0)
(0.0893186 -0.000584336 0)
(0.0903197 -0.000696603 0)
(0.0911752 -0.000602674 0)
(0.0915467 -0.000622664 0)
(0.0913294 -0.000638151 0)
(0.0899661 -0.000673156 0)
(0.0888154 -0.00143421 0)
(0.0833696 -0.00379699 0)
(0.0897451 -0.00716383 0)
(0.0627066 -0.0156473 0)
(0.100248 -0.0240232 0)
(-0.0313105 -0.04433 0)
(0.0785294 -0.0285488 0)
(-1.11636 0.111479 0)
(-2.43879 0.585095 0)
(-0.384438 -0.0540874 0)
(-1.58753 0.16518 0)
(-1.34698 -0.085176 0)
(0.0402694 0.06821 0)
(0.239168 0.358951 0)
(0.250023 -0.172571 0)
(0.136349 -0.157652 0)
(0.121037 -0.0593803 0)
(0.0896398 0.00205719 0)
(0.0862445 -0.00384216 0)
(0.0898535 -0.0185487 0)
(0.0898124 -0.0193481 0)
(0.0881893 -0.0118369 0)
(0.0839284 -0.00439555 0)
(0.0787311 0.00358016 0)
(0.0561647 0.0184101 0)
(0.0635163 0.0202651 0)
(-0.108507 0.0478876 0)
(-1.04745 0.0628391 0)
(-3.23711 -0.43475 0)
(0.916217 0.539527 0)
(1.50572 -0.0435682 0)
(0.242814 -0.35145 0)
(-0.080078 -0.155605 0)
(0.00224411 0.074268 0)
(0.0434994 0.15412 0)
(0.0841417 0.0907517 0)
(0.0891327 0.0354991 0)
(0.0887173 0.0105871 0)
(0.0887389 0.00159048 0)
(0.0893589 -0.000660773 0)
(0.0902505 -0.000782142 0)
(0.0909885 -0.000658625 0)
(0.09123 -0.000625763 0)
(0.09089 -0.000557438 0)
(0.0895239 -0.00054221 0)
(0.0885664 -0.00112396 0)
(0.0833458 -0.00379745 0)
(0.0896082 -0.00623322 0)
(0.062342 -0.0157913 0)
(0.0986824 -0.0201105 0)
(-0.0294564 -0.0426531 0)
(0.152267 0.000389781 0)
(-0.574565 0.215038 0)
(-0.953957 0.628907 0)
(-0.264459 0.0465929 0)
(-0.713665 0.142686 0)
(0.0140426 -0.0793137 0)
(-0.178843 0.00461903 0)
(0.173126 0.350111 0)
(0.226385 -0.167137 0)
(0.129539 -0.15299 0)
(0.120242 -0.0569358 0)
(0.0929918 0.00371897 0)
(0.0902251 -0.00389483 0)
(0.0930644 -0.0186879 0)
(0.091808 -0.0192095 0)
(0.0890772 -0.0115123 0)
(0.0843641 -0.00390534 0)
(0.0792293 0.00493744 0)
(0.0563402 0.0197903 0)
(0.0571377 0.0309056 0)
(-0.173055 0.0850058 0)
(-0.458007 0.197525 0)
(0.708294 -0.772833 0)
(1.15561 0.481036 0)
(1.50392 -0.0627591 0)
(0.280836 -0.245509 0)
(-0.058417 -0.132597 0)
(-0.0144086 0.0670887 0)
(0.0314336 0.149452 0)
(0.0782922 0.088269 0)
(0.086839 0.0351571 0)
(0.08802 0.0105648 0)
(0.0883628 0.00155085 0)
(0.0888881 -0.000732588 0)
(0.0896464 -0.000857531 0)
(0.0902699 -0.000699723 0)
(0.0904184 -0.000614244 0)
(0.0900501 -0.000476044 0)
(0.0888073 -0.000428166 0)
(0.0880687 -0.000852747 0)
(0.0831171 -0.00375755 0)
(0.0891911 -0.00535388 0)
(0.0618097 -0.0157145 0)
(0.0965552 -0.0164915 0)
(-0.0264524 -0.0415205 0)
(0.1983 0.00450414 0)
(-0.121331 0.0741381 0)
(3.8993 0.818116 0)
(0.0459648 -0.00180891 0)
(0.0506373 -0.00843872 5.42933e-32)
(0.0362114 -0.00677015 -3.34797e-32)
(0.0546885 -0.00965599 -3.29134e-31)
(0.0523844 0.00669258 0)
(0.08903 -0.00352145 0)
(0.107503 -0.0138211 0)
(0.081954 -0.0157703 0)
(0.134046 -0.0446733 1.71236e-30)
(0.223364 -0.0980247 0)
(0.100504 -0.00992777 0)
(0.125587 -0.0133406 0)
(0.0895053 -0.0168005 0)
(0.121164 -0.0553429 2.43142e-30)
(-0.0156671 -0.131914 0)
(0.088126 -0.0139349 0)
(0.108024 -0.00868772 0)
(0.0710439 -0.0086622 0)
(0.0862209 -0.0226692 -8.30581e-32)
(-0.0934879 -0.0656509 0)
(0.0457134 -0.00679101 0)
(0.0521242 -0.00193903 0)
(0.0305006 -0.00123451 0)
(0.0400921 -4.99905e-05 3.33756e-31)
(-0.0298857 -0.0133106 0)
(0.262093 -0.0272144 0)
(0.323335 0.0207812 0)
(0.243508 -0.00691098 0)
(-0.240954 0.0722828 0)
(0.122476 0.260788 0)
(0.200513 -0.156994 0)
(0.119177 -0.146198 0)
(0.115446 -0.0513812 0)
(0.103301 0.00708776 0)
(0.104631 -0.00373577 0)
(0.103121 -0.0186366 0)
(0.09684 -0.0184152 0)
(0.0910058 -0.0104278 0)
(0.0852716 -0.00245637 0)
(0.0803695 0.00871218 0)
(0.0582263 0.0269874 0)
(0.0605855 0.0789528 0)
(-0.203937 0.110655 0)
(0.00716909 -0.249755 0)
(1.78244 -0.583806 0)
(1.21215 0.43907 0)
(0.284974 0.0704672 0)
(0.0668655 -0.154428 0)
(-0.102581 -0.104149 0)
(-0.060436 0.0515307 0)
(0.00143314 0.134135 0)
(0.0618102 0.0799941 0)
(0.0796043 0.0335328 0)
(0.0850854 0.0103155 0)
(0.0863312 0.00143345 0)
(0.0866674 -0.000923084 0)
(0.0870944 -0.0010705 0)
(0.0873908 -0.000821994 0)
(0.0873066 -0.000598049 0)
(0.0869295 -0.000291947 0)
(0.0860931 -0.000136169 0)
(0.0858459 -0.000265332 0)
(0.0816337 -0.00330848 0)
(0.0869367 -0.00340599 0)
(0.0593168 -0.0139934 0)
(0.0900909 -0.00804632 0)
(-0.019995 -0.0269211 0)
(0.0736729 0.00872849 0)
(-0.445795 -0.261078 0)
(1.8849 1.21661 0)
(0.382776 0.0421887 0)
(0.158737 0.0927336 0)
(0.129516 0.0513092 0)
(-0.0995639 0.123711 0)
(0.162677 0.147402 0)
(0.199356 -0.140291 0)
(0.127499 -0.140066 0)
(0.107601 -0.0466537 0)
(0.108528 0.00544292 0)
(0.114544 -0.00313669 0)
(0.107898 -0.0153865 0)
(0.0953709 -0.0143261 0)
(0.0862024 -0.00729454 0)
(0.0804602 4.89373e-05 0)
(0.0789701 0.0113548 0)
(0.0728795 0.0320143 0)
(0.0995229 0.101129 0)
(0.025006 0.128726 0)
(0.0411951 -0.467999 0)
(-1.48172 -0.401161 0)
(-0.0237747 0.462535 0)
(0.0898443 0.197186 0)
(0.0265673 -0.103043 0)
(-0.116652 -0.0718134 0)
(-0.106783 0.0347344 0)
(-0.0322906 0.0994467 0)
(0.0376865 0.0593584 0)
(0.0647016 0.0261297 0)
(0.0755936 0.00808824 0)
(0.07832 0.000944203 0)
(0.0783625 -0.000977238 0)
(0.0779242 -0.00102767 0)
(0.0774742 -0.00069037 0)
(0.0770584 -0.000404231 0)
(0.0767539 -9.60271e-05 0)
(0.0764384 7.60412e-05 0)
(0.0768043 -7.8825e-05 0)
(0.0736434 -0.00195349 0)
(0.0790561 -0.00232314 0)
(0.0531108 -0.0073979 0)
(0.0848603 0.00100269 0)
(-0.00990106 0.00802112 0)
(0.0450644 0.0398054 0)
(-0.3086 -0.165393 0)
(-0.291313 -0.134735 0)
(0.0941761 0.0357413 0)
(0.285703 0.0977269 0)
(0.177724 0.160954 0)
(0.000338136 0.0762793 0)
(0.236788 0.107646 0)
(0.2825 -0.120924 0)
(0.154359 -0.116448 0)
(0.100211 -0.0367885 0)
(0.102162 0.00285253 0)
(0.107506 -0.00253504 0)
(0.0971611 -0.010046 0)
(0.0822284 -0.00864697 0)
(0.0725871 -0.00382329 0)
(0.0683486 0.00137619 0)
(0.0709455 0.0101259 0)
(0.0786562 0.0267111 0)
(0.116695 0.0748431 0)
(0.197262 0.12594 0)
(0.1801 0.0147252 0)
(-0.687677 -0.560904 0)
(-0.629222 0.157748 0)
(0.134239 0.128192 0)
(-0.00576403 -0.043842 0)
(-0.116854 -0.0397588 0)
(-0.124799 0.0193081 0)
(-0.0501341 0.0615543 0)
(0.0184752 0.0365484 0)
(0.0483576 0.0163255 0)
(0.0608303 0.00476821 0)
(0.0635563 0.000305216 0)
(0.0632291 -0.000785406 0)
(0.0624741 -0.000726218 0)
(0.0618917 -0.000463679 0)
(0.0615074 -0.000261437 0)
(0.0613548 -5.58252e-05 0)
(0.0613601 3.40893e-05 0)
(0.0620233 -4.82488e-05 0)
(0.059587 -0.00116781 0)
(0.0653885 -0.00133709 0)
(0.0421117 -0.00325692 0)
(0.0780528 0.0044978 0)
(-0.00163849 0.0207006 0)
(0.129744 0.0468506 0)
(-0.0871411 0.0698506 0)
(-0.0843576 -0.212253 0)
(-0.145167 -0.0384841 0)
(0.0603806 -0.0544238 0)
(0.30878 0.188433 0)
(0.116732 0.143246 0)
(0.218811 0.00276742 0)
(0.311963 -0.106662 0)
(0.146677 -0.0741152 0)
(0.0749524 -0.018903 0)
(0.0757017 0.00166654 0)
(0.0786533 -0.0010186 0)
(0.0686624 -0.0040649 0)
(0.0565243 -0.00319941 0)
(0.0495299 -0.00104503 0)
(0.0476552 0.00136502 0)
(0.0531201 0.00615979 0)
(0.067847 0.0159189 0)
(0.115911 0.0401754 0)
(0.214347 0.0967314 0)
(0.258925 0.16739 0)
(-0.0333456 -0.348334 0)
(-0.535188 -0.028433 0)
(0.0683808 0.00122854 0)
(-0.0497618 0.00366147 0)
(-0.10541 -0.0103056 0)
(-0.113732 0.0070999 0)
(-0.0512721 0.0274907 0)
(0.00574884 0.0158262 0)
(0.0311151 0.0068721 0)
(0.041379 0.00165071 0)
(0.0432406 -0.000171591 0)
(0.0427169 -0.000531174 0)
(0.0419038 -0.000428422 0)
(0.0413032 -0.000268837 0)
(0.0409307 -0.000167514 0)
(0.0407883 -7.96947e-05 0)
(0.0407911 -9.76786e-05 0)
(0.0413087 -0.000126827 0)
(0.0391441 -0.000688695 0)
(0.0446049 -0.000849164 0)
(0.023982 -0.000918629 0)
(0.0597376 0.00299893 0)
(-0.00487384 0.0142857 0)
(0.143424 0.0344173 0)
(0.0332822 0.067177 0)
(-0.141773 -0.112972 0)
(-0.103901 -0.0332544 0)
(-0.310138 -0.0629328 0)
(-0.21707 0.101792 0)
(0.200059 0.111607 0)
(0.421532 -0.0246002 0)
(0.253033 -0.0383624 0)
(0.0639748 -0.0134637 0)
(0.025576 -0.00207849 0)
(0.0262704 0.000814325 0)
(0.0284653 0.000221987 0)
(0.0249403 -0.000222339 0)
(0.020548 -0.000149681 0)
(0.0184152 0.000110194 0)
(0.018766 0.000424084 0)
(0.0237582 0.00144319 0)
(0.0358587 0.00363262 0)
(0.0785249 0.0100759 0)
(0.161487 0.0383887 0)
(0.266546 0.100322 0)
(0.579876 -0.0573618 0)
(-0.183887 -0.00923656 0)
(-0.0209078 0.0175946 0)
(-0.0502732 0.019293 0)
(-0.0514819 0.0025977 0)
(-0.0533935 -0.000804862 0)
(-0.0248825 0.00343584 0)
(0.00283915 0.00158101 0)
(0.0140201 0.000578196 0)
(0.0178505 -9.479e-05 0)
(0.017789 -0.000206408 0)
(0.016949 -0.000174882 0)
(0.0161948 -0.000111076 0)
(0.0157026 -6.33371e-05 0)
(0.0153968 -4.34322e-05 0)
(0.0152236 -2.72119e-05 0)
(0.0150589 -5.99878e-05 0)
(0.0151707 -5.6905e-06 0)
(0.0135395 -0.000245702 0)
(0.0172574 5.78806e-05 0)
(0.00348852 -0.00031078 0)
(0.0272677 0.00105248 0)
(-0.013362 0.00128401 0)
(0.0827414 0.00882325 0)
(0.0774486 0.0447925 0)
(0.0825069 -0.0616175 0)
)
;

boundaryField
{
    AirInlet
    {
        type            fixedValue;
        value           uniform (0.1 0 0);
    }
    WaterInlet
    {
        type            fixedValue;
        value           uniform (0.1 0 0);
    }
    ChannelWall
    {
        type            fixedValue;
        value           uniform (0 0 0);
    }
    Outlet
    {
        type            pressureInletOutletVelocity;
        value           nonuniform List<vector> 
15
(
(0.39428 0.0616329 0)
(0.486791 0.182095 0)
(0.347406 0.276002 0)
(-0.481123 0 0)
(-1.35631 0 0)
(0.945382 0.735245 0)
(0.256411 0.792482 0)
(-2.13544 0 0)
(-1.09889 0 0)
(3.8993 0.818116 0)
(1.8849 1.21661 0)
(-0.291313 -0.134735 0)
(-0.145099 -0 0)
(-0.194622 -0 0)
(-0.0394958 -0 0)
)
;
    }
    FrontAndBack
    {
        type            empty;
    }
}


// ************************************************************************* //
