/*--------------------------------*- C++ -*----------------------------------*\
| =========                 |                                                 |
| \\      /  F ield         | OpenFOAM: The Open Source CFD Toolbox           |
|  \\    /   O peration     | Version:  2.3.0                                 |
|   \\  /    A nd           | Web:      www.OpenFOAM.org                      |
|    \\/     M anipulation  |                                                 |
\*---------------------------------------------------------------------------*/
FoamFile
{
    version     2.0;
    format      ascii;
    class       volScalarField;
    location    "3.9e-05";
    object      alpha.fuel;
}
// * * * * * * * * * * * * * * * * * * * * * * * * * * * * * * * * * * * * * //

dimensions      [0 0 0 0 0 0 0];

internalField   nonuniform List<scalar> 
7500
(
1
1
1
1
1
1
1
1
1
1
1
1
1
1
1
1
1
1
1
1
1
1
1
1
1
1
1
1
1
1
1
1
1
1
1
1
1
1
1
1
1
1
1
1
1
1
1
1
1
1
1
1
1
1
1
1
1
1
1
1
1
1
1
1
1
1
1
1
1
1
1
1
1
1
1
1
1
1
1
1
1
1
1
1
1
1
1
1
1
1
1
1
1
1
1
1
1
1
1
1
1
1
1
1
1
1
1
1
1
1
1
1
1
1
1
1
1
1
1
1
1
1
1
1
1
1
1
1
1
1
1
1
1
1
1
1
1
1
1
1
1
1
1
1
1
1
1
1
1
1
1
1
1
1
1
1
1
1
1
1
1
1
1
1
1
1
1
1
1
1
1
1
1
1
1
1
1
1
1
1
1
1
1
1
1
1
1
1
1
1
1
1
1
1
1
1
1
1
1
1
1
1
1
1
1
1
1
1
1
1
1
1
1
1
1
1
1
1
1
1
1
1
1
1
1
1
1
1
1
1
1
1
1
1
1
1
1
1
1
1
1
1
1
1
1
1
1
1
1
1
1
1
1
1
1
1
1
1
1
1
1
1
1
1
1
1
1
1
1
1
1
1
1
1
1
1
1
1
1
1
1
1
1
1
1
1
1
1
1
1
1
1
1
1
1
1
1
1
1
1
1
1
1
1
1
1
1
1
1
1
1
1
1
1
1
1
1
1
1
1
1
1
1
1
1
1
1
1
1
1
1
1
1
1
1
1
1
1
1
1
1
1
1
1
1
1
1
1
1
1
1
1
1
1
1
1
1
1
1
1
1
1
1
1
1
1
1
1
1
1
1
1
1
1
1
1
1
1
1
1
1
1
1
1
1
1
1
1
1
1
1
1
1
1
1
1
1
1
1
1
1
1
1
1
1
1
1
1
1
1
1
1
1
1
1
1
1
1
1
1
1
1
1
1
1
1
1
1
1
1
1
1
1
1
1
1
1
1
1
1
1
1
1
1
1
1
1
1
1
1
1
1
1
1
1
1
1
1
1
1
1
1
1
1
1
1
1
1
1
1
1
1
1
1
1
1
1
1
1
1
1
1
1
1
1
1
1
1
1
1
1
1
1
1
1
1
1
1
1
1
1
1
1
1
1
1
1
1
1
1
1
1
1
1
1
1
1
1
1
1
1
1
1
1
1
1
1
1
1
1
1
1
1
1
1
1
1
1
1
1
1
1
1
1
1
1
1
1
1
1
1
1
1
1
1
1
1
1
1
1
1
1
1
1
1
1
1
1
1
1
1
1
1
1
1
1
1
1
1
1
1
1
1
1
1
1
1
1
1
1
1
1
1
1
1
1
1
1
1
1
1
1
1
1
1
1
1
1
1
1
1
1
1
1
1
1
1
1
1
1
1
1
1
1
1
1
1
1
1
1
1
1
1
1
1
1
1
1
1
1
1
1
1
1
1
1
1
1
1
1
1
1
1
1
1
1
1
1
1
1
1
1
1
1
1
1
1
1
1
1
1
1
1
1
1
1
1
1
1
1
1
1
1
1
1
1
1
1
1
1
1
1
1
1
1
1
1
1
1
1
1
1
1
1
1
1
1
1
1
1
1
1
1
1
1
1
1
1
1
1
1
1
1
1
1
1
1
1
1
1
1
1
1
1
1
1
1
1
1
1
1
1
1
0.99952168
0.99658874
0.99201524
0.98529558
0.97601107
0.96528539
0.94524171
1
1
1
1
1
1
1
1
1
1
1
1
1
1
1
1
1
1
1
1
1
1
1
1
1
1
1
1
1
1
1
1
1
1
1
1
1
1
1
1
1
1
1
1
1
1
1
1
1
1
1
1
0.99949
0.99405425
0.98390429
0.96813447
0.94671519
0.92049018
0.88613797
0.83131495
0.77040587
0.70945527
0.64992016
0.59260308
0.53512384
0.48150111
0.42991692
0.37851319
0.32909619
0.28317327
0.23743017
0.19715169
0.15864278
0.12859205
0.082804856
1
1
1
1
1
1
1
1
1
1
1
1
1
1
1
1
1
1
1
1
1
1
1
1
1
1
1
1
1
1
1
1
1
1
1
1
1
1
1
1
1
1
0.99241581
0.97495939
0.94725285
0.90933572
0.83455695
0.74910413
0.66046519
0.5756772
0.49191089
0.41051539
0.33014261
0.25672624
0.19110642
0.13441646
0.086564289
0.039439714
9.2068869e-10
3.6405206e-10
3.6405205e-10
3.640521e-10
3.6408657e-10
3.6405201e-10
3.6405201e-10
3.6405201e-10
3.6416959e-10
3.6452424e-10
3.6422803e-10
3.640525e-10
3.640525e-10
3.640525e-10
3.6405453e-10
3.6408264e-10
3.6411267e-10
1
1
1
1
1
1
1
1
1
1
1
1
1
1
1
1
1
1
1
1
1
1
1
1
1
1
1
1
1
1
1
1
1
1
0.9883708
0.96106288
0.91355055
0.81394082
0.6984216
0.58129096
0.46812484
0.35327486
0.25069948
0.15831152
0.091255727
0.0013878619
7.2327828e-10
6.9840896e-10
6.9841944e-10
6.9843061e-10
6.9841029e-10
6.9839821e-10
6.9839821e-10
6.9839821e-10
6.9842284e-10
6.9851491e-10
6.9843989e-10
6.9840056e-10
7.1881183e-10
7.4984647e-10
4.5178778e-10
3.0692691e-08
1.7218505e-05
7.4949769e-10
8.0683732e-10
8.6884493e-10
6.1608297e-05
7.5003509e-05
4.1897713e-05
8.3621271e-10
6.8255932e-10
6.7608904e-10
4.9853497e-07
7.1615156e-06
5.0109138e-06
1
1
1
1
1
1
1
1
1
1
1
1
1
1
1
1
1
1
1
1
1
1
1
1
1
1
1
1
0.98158394
0.92792673
0.81540664
0.67132235
0.52091912
0.37190521
0.23192992
0.1268616
0.0014156087
1.073498e-09
1.0518213e-09
1.0518213e-09
1.0518157e-09
1.0518157e-09
1.0518157e-09
1.0518157e-09
1.0518499e-09
1.1820233e-09
1.2126704e-09
1.2121069e-09
4.852642e-06
4.8859443e-06
5.5259624e-06
1.243937e-09
1.1404119e-09
1.2673554e-09
6.6569192e-06
1.0097047e-05
2.8212282e-06
1.1056221e-09
1.0884152e-09
1.2009998e-09
7.9569247e-10
3.6490957e-10
0.00033010857
0.0035863991
0.027392595
0.034435255
0.017112912
7.1493332e-08
7.1705957e-08
0.00098359828
0.0008409034
8.6698185e-05
6.2960949e-05
0.00010511829
5.2086305e-05
1
1
1
1
1
1
1
1
1
1
1
1
1
1
1
1
1
1
1
1
1
1
1
0.97689274
0.90121007
0.7387797
0.55495258
0.36102707
0.20068651
0.025252639
1.6914879e-09
1.4130592e-09
1.4127973e-09
1.4125943e-09
1.4123573e-09
1.4119379e-09
1.4131947e-09
1.6033048e-09
1.5080738e-09
2.3040606e-06
1.5660036e-09
1.5834729e-09
1.6161022e-09
1.6101722e-09
4.9127068e-06
0.00044678568
0.0016025572
0.002215395
0.0010280552
2.5434748e-09
0.00016694683
0.00024644923
0.0015060942
0.0037665586
0.0028107287
4.7540048e-06
1.7618319e-09
1.4486176e-09
1.6288896e-05
0.0005662122
0.00070550379
0.00012493039
4.0348827e-09
0.047024429
0.056570825
0.05079111
0.0059715506
7.1391078e-08
0.00644716
0.0086173333
0.0086173333
0.0010966705
1.4143361e-09
1.1434516e-09
2.0548457e-05
1
1
1
1
1
1
1
1
1
1
1
1
1
1
1
1
1
1
1
0.96440206
0.84715307
0.64212201
0.40894587
0.19536943
3.4984917e-09
2.2583781e-09
2.2588014e-09
2.2608437e-09
2.263558e-09
2.2732823e-09
2.3433101e-09
9.4728534e-05
7.205803e-05
5.6482366e-05
4.8923657e-05
2.7122898e-09
1.4560349e-06
9.9846184e-05
1.9561545e-09
0.00080295773
0.001024905
0.0020420316
0.0029891639
0.0031001989
0.0060250098
0.0063835064
0.0063743224
0.0060340117
0.00033776505
1.9386007e-09
1.5077769e-09
0.0010571402
0.0055651704
0.0055713822
0.0015971984
2.72312e-09
2.2044878e-09
0.00086034231
0.00024752472
0.0011149951
0.0015149353
0.00045190743
8.4084536e-06
0.005729831
0.0065295423
3.6779333e-08
0.00018634612
0.0075220248
0.0086123814
0.0086173197
0.0027407897
3.1666788e-05
1.7307722e-09
2.5705976e-08
7.0927112e-09
1
1
1
1
1
1
1
1
1
1
1
1
1
1
1
1
0.92151115
0.72101172
0.45693773
0.15959398
4.5318823e-09
3.5190222e-09
3.5189736e-09
3.5188867e-09
3.6917269e-09
1.010485e-05
0.0001410654
0.00049026191
0.00041795449
0.00016318177
0.00032189567
0.0015436071
0.0015436066
0.00018060233
2.4423378e-09
2.8857035e-07
4.4234794e-09
0.00082732237
0.00033110284
2.4581929e-09
0.0061806033
0.0069923501
0.006997526
0.0069961225
1.9999919e-08
1.999992e-08
1.999992e-08
5.174923e-05
2.1433508e-09
1.8362346e-09
1.6187179e-09
1.506959e-09
1.5069586e-09
0.00052163366
0.00046832023
0.00066733818
0.0050396578
0.0090664032
0.0058267943
0.0020380362
0.00040048752
6.4543999e-08
1.2505188e-05
1.5677149e-09
1.1971971e-09
8.9340716e-06
6.0732957e-05
8.923062e-07
8.92289e-07
0.00033691673
1.2340674e-08
7.2275131e-07
3.7381597e-08
7.6067097e-09
7.3354393e-09
1
1
1
1
1
1
1
1
1
1
1
1
1
0.93061983
0.71741913
0.40706795
0.047783659
5.1916952e-09
4.7838658e-09
4.783863e-09
3.5929987e-08
1.340136e-05
2.0813862e-05
4.5500355e-09
4.8303796e-09
0.00073089555
0.0034161756
0.0034180515
0.0016178577
6.3209799e-09
0.0019551576
0.0015299396
0.0015436062
2.5311699e-05
1.9430075e-09
4.1873349e-06
3.8192113e-07
1.9676105e-09
1.9587651e-09
2.3621859e-09
1.946102e-09
2.0104445e-09
5.0139187e-05
0.0066692033
2.0005551e-08
2.049977e-08
2.0416165e-08
2.0745092e-08
0.0001619882
1.6543932e-09
1.6092357e-09
1.895401e-09
1.9919267e-09
2.3251857e-09
2.4119677e-09
0.00059412171
0.008997429
0.009066403
0.0090664027
0.0090664025
0.0013804214
0.0012026561
0.0020819463
0.000287159
1.2596126e-09
0.003378968
6.1227771e-05
0.00060763047
1.3285682e-05
2.4793579e-07
1.494537e-05
1.8256732e-05
3.344832e-08
0.001114988
0.00091037723
1
1
1
1
1
1
1
1
1
1
1
0.8695971
0.54740785
0.10413426
5.7874828e-09
5.0647736e-09
5.0691626e-09
6.4185175e-09
6.902029e-07
9.3835514e-09
9.7038765e-09
0.00078564296
0.00051746676
0.00070162883
0.0042957973
0.00017506783
4.2560306e-09
4.2751191e-09
4.7026439e-09
5.6594211e-09
5.7818602e-09
6.3057739e-09
0.0014712475
0.00011239642
1.8328313e-09
1.8336596e-09
1.8334678e-09
4.9467587e-06
2.4676216e-09
4.3397108e-09
1.9465323e-09
0.00045666312
5.1738539e-05
0.00016880451
5.5968692e-05
0.00018387862
2.3648875e-06
2.0752323e-08
0.00030609368
0.0020765744
0.0010717343
0.0011278845
0.0022035045
0.0014934188
0.0013110781
4.1611169e-09
3.6010101e-09
0.003592861
0.0072063658
0.0056351951
0.00070642314
0.0040455304
0.0015545983
7.7539085e-06
1.4526708e-09
0.0007916438
0.0044575804
0.0054714264
0.00020442323
0.0043579475
8.0605983e-08
8.0604179e-08
0.0004147099
0.0041787953
0.0041787952
1
1
1
1
1
1
1
1
1
0.84756321
0.45643879
0.0049926807
6.1358275e-09
6.0839453e-09
7.0099735e-09
3.2214247e-07
0.00015439218
0.00077113424
0.00048549545
6.3004793e-09
0.00047416453
1.8391905e-05
0.0001298529
0.001517447
0.0048012959
4.2592535e-09
4.2505768e-09
4.6514334e-05
0.0011281535
0.0022964308
0.00019214238
7.7185732e-05
0.00032846587
1.8923109e-06
1.8329174e-09
4.9353132e-09
1.8334842e-09
1.8337223e-09
0.0042457545
2.539237e-09
1.9462664e-09
0.0019913342
2.0462277e-09
2.040956e-09
1.7305583e-09
0.00067178984
0.00064176136
4.2645524e-05
8.2701674e-08
0.0021195304
0.0028253476
0.0031563121
0.0031660716
0.003167675
0.0011428173
4.2147293e-09
3.7293272e-09
3.6005261e-09
3.6005261e-09
3.6005261e-09
0.0018438925
0.0066199009
3.6017682e-09
3.5477553e-09
0.0034772094
0.00013607055
8.7162376e-05
0.00059514002
0.00011234372
0.0046134214
5.850489e-07
8.0791958e-08
0.0019902556
0.0019138472
0.0024743263
1
1
1
1
1
1
1
0.89291897
0.50998767
0.0081428049
6.0933507e-09
6.0037925e-09
6.0983054e-09
4.2410888e-06
0.00035147445
0.0010545698
0.0010635583
0.0010634476
5.5198994e-09
5.1253891e-09
4.341767e-09
4.3266378e-09
4.3248834e-09
4.3232579e-09
0.00010597952
1.2613381e-06
4.2520919e-09
0.0006726485
0.0026974028
0.0026932158
0.0011245919
0.0018105982
0.00030610009
0.00043059864
1.8329376e-09
1.8329628e-09
0.00032103282
0.0023692411
0.012362809
0.0050800963
0.00068636318
0.00011500681
0.000135755
1.6757691e-09
1.7478192e-09
0.00046787676
0.00062076375
4.2442966e-05
0.0010194276
2.227577e-05
6.0695647e-09
4.1070201e-09
4.1091415e-09
4.226225e-09
4.3942998e-09
4.0424553e-09
3.7511309e-09
3.6273992e-09
3.852079e-09
3.7173368e-09
0.020112447
0.044263065
0.035205526
9.2592405e-06
0.010754473
1.1365808e-06
1.7648084e-07
1.7660795e-07
0.0022635102
5.0095631e-09
0.00073745168
0.00086854946
2.4261407e-10
1.2696376e-10
1.2696441e-10
1
1
1
1
1
1
0.73668444
0.10596869
7.2306718e-09
6.44199e-09
7.9581006e-09
7.3534199e-09
6.358359e-09
0.00088197918
0.00088464408
1.8706681e-07
0.00019435979
5.1279003e-08
7.4200686e-05
1.3924182e-06
5.1691535e-06
5.1079627e-09
5.0675283e-09
4.2506997e-09
4.2507116e-09
4.2856453e-09
4.8331688e-09
4.7437215e-09
4.7437205e-09
4.7437203e-09
5.6526486e-05
0.002547178
9.4248475e-06
2.7065807e-05
2.316126e-09
2.477481e-09
0.00010753253
0.012695774
0.0094740914
0.010889147
0.0049067135
0.00038122205
0.00034413126
1.6757693e-09
1.4875982e-05
2.1375734e-09
1.6861225e-09
1.7153417e-09
0.0018761196
0.00017108114
4.4067746e-09
4.1072087e-09
1.7349588e-05
0.00027020904
0.0049991308
0.0034739623
4.0811039e-09
3.6032969e-09
0.0001774266
0.0062174895
0.029502466
0.024878055
0.008374764
0.0091562002
0.0063956227
0.0092871133
1.7632545e-07
0.0012755412
0.0024665879
8.0800012e-06
0.00086415343
0.00087328311
0.00011192767
3.0880507e-10
4.7813764e-09
1
1
1
1
0.96927286
0.47717258
9.5632159e-09
7.3040726e-09
7.4129136e-09
6.5269437e-08
4.851164e-05
2.2185443e-05
9.4750713e-05
7.0791863e-09
6.7458114e-09
1.2744596e-06
7.5160407e-07
4.2205231e-05
0.00021327237
6.6614079e-05
6.6396488e-05
1.7322251e-05
0.0018551525
4.2507004e-09
4.9624699e-09
5.3800609e-09
3.4524384e-06
5.3676188e-09
5.4175443e-09
4.8202744e-09
4.5648829e-05
0.00092136598
0.00060085873
1.5036358e-08
0.0013421422
0.0049816692
0.00014676789
0.0054627281
5.0301184e-09
4.7454534e-09
0.00012584104
0.00015248246
3.8739537e-07
1.6921911e-09
2.9470326e-06
0.0012522399
1.1836811e-07
0.0016221413
0.001876049
4.2712782e-05
4.2654055e-05
4.2885051e-09
0.00023613565
6.5620133e-05
0.015334103
0.015334103
0.003870914
3.7393429e-09
0.0100409
0.044094539
0.012213908
4.5477822e-09
4.776487e-09
0.0069468581
1.1724473e-08
0.0024282043
0.0044240626
0.0083401739
4.6783855e-10
3.1376454e-09
1.193886e-10
1.1938842e-10
1.1939001e-10
5.4103929e-09
9.2437109e-09
1
1
1
0.95626235
0.26617299
2.7506897e-08
2.5933314e-08
6.8052954e-07
7.7354878e-09
4.4609297e-05
6.676934e-05
6.6854781e-05
2.5820936e-07
0.00028927852
6.8310485e-09
2.4762306e-06
6.1271443e-05
0.0001434689
4.9421849e-05
4.5888565e-09
5.2962333e-09
0.00029407305
0.0049207299
0.0010275585
0.00015795813
0.0030292947
0.00013577542
6.6288681e-05
0.00033290223
6.3192868e-08
0.0013359046
1.4015389e-08
0.00076449137
0.0034853266
0.0073524121
0.007352412
0.00018278645
8.8455906e-09
0.0069482738
4.7452718e-09
5.3334449e-05
4.0062474e-09
4.1201897e-09
8.9380024e-09
1.5760877e-09
0.0062850898
0.006106758
0.0018548765
2.6255773e-05
0.0018074337
0.0005769992
4.7011702e-09
5.1356984e-09
4.8375471e-09
0.0033794492
0.015334103
0.015334102
0.00063505221
0.0078462471
0.049458447
0.022258732
4.1679953e-09
9.4187512e-07
5.4994646e-09
1.1411959e-08
5.8549202e-07
0.012805861
0.004557023
4.6785451e-10
4.7862611e-10
2.8603247e-10
3.2814731e-10
3.2918612e-10
4.8821046e-10
9.8454689e-09
1
1
0.98695686
0.24910986
2.8044698e-08
2.6079101e-08
2.6389487e-08
3.9902241e-06
2.8182515e-06
7.5885155e-09
7.5746507e-09
3.1575372e-05
2.8343415e-05
0.00097340827
6.7362176e-09
8.4953467e-09
0.00014432758
0.00014432149
5.3658255e-09
5.6009709e-09
5.9557266e-05
0.0040358183
0.0049207303
0.0049207302
0.00063106104
0.0032850876
0.00013482046
0.00078413206
0.00078422494
7.0831448e-05
0.00048685005
1.236875e-08
1.2232518e-08
0.0005537269
0.0020250262
0.0030397256
0.0017565809
8.3742266e-09
0.010743534
4.7122842e-09
3.4144526e-06
3.5656837e-09
1.3690931e-05
4.095524e-06
1.5764493e-09
0.0062853016
0.0062852716
0.00064912249
1.1869786e-07
0.00047131885
0.00051954409
0.0019622552
0.00050134916
5.3254056e-09
5.3262313e-09
0.011485815
0.0065667455
0.00018448936
3.6891723e-09
0.039126449
0.01200584
3.9054265e-09
3.5429513e-09
5.1654424e-09
5.1904564e-09
5.2673646e-09
0.0085455387
1.7154249e-09
2.6611576e-08
1.7421407e-06
4.6145916e-07
2.7244766e-05
2.9651477e-05
1.9876436e-07
1.0111978e-08
1
1
0.31552888
4.3681804e-08
4.1175226e-08
2.6348415e-08
5.7571037e-07
1.0327434e-08
1.017466e-08
1.0089902e-08
2.0213555e-08
6.1465889e-09
0.00060662503
0.00082418081
7.9920233e-09
0.00028526982
9.5032608e-05
9.0029234e-05
6.2607361e-09
6.3953212e-09
0.00054794183
0.0040335974
0.001545628
0.0040727315
0.00074983979
2.0976785e-08
0.0021371191
0.00033405565
0.00078422524
0.00033137173
2.2990869e-07
0.0017278808
9.931456e-08
1.1420474e-08
1.0905685e-08
1.0905685e-08
0.00021353119
0.0049449363
0.0048463315
4.7120871e-09
4.9142365e-09
9.0832225e-06
2.9579115e-05
3.6676257e-06
1.5768687e-09
0.0062856476
0.0014344248
0.00012508737
0.0013958464
3.0586925e-05
0.0022958543
0.0027579546
0.0012042748
5.6299345e-09
5.3274762e-09
2.4829e-05
4.1214614e-09
3.8694716e-09
3.6738771e-09
2.7838493e-09
3.0526679e-09
9.3477891e-07
3.1631886e-09
3.1635881e-09
0.00011566474
4.1831119e-05
1.5136735e-09
1.3944608e-09
1.568215e-09
8.3076813e-06
5.8768056e-05
6.1684094e-05
6.1684052e-05
2.270168e-05
1.0354351e-08
1
0.6455319
0.024729263
0.00026818247
4.3396766e-08
4.1962423e-08
4.1150128e-08
9.7698493e-08
9.2873999e-08
1.3171239e-06
9.0431065e-09
7.4076627e-09
6.7120088e-09
8.4501617e-09
0.00020904888
0.0010096804
3.0830227e-07
3.0867685e-07
0.00010727815
0.00013831127
0.0030525188
0.0021200431
2.8480551e-08
4.2584312e-06
2.0976785e-08
2.0976785e-08
0.0046007209
0.00052804572
2.7381192e-05
8.2266704e-08
0.0036248393
0.0036310482
0.0025318072
3.0697945e-05
1.1448094e-08
1.1218716e-08
1.1652921e-08
0.00089669699
5.249437e-09
5.123331e-09
5.2564807e-09
4.8516219e-07
3.3218857e-09
3.7450815e-09
9.548104e-08
0.0062860142
0.00014815348
0.0025685104
0.002572735
0.0021305512
0.00304446
0.00023203393
4.7785459e-08
0.0089686233
5.7008415e-09
5.7131882e-09
0.00082064257
0.00032272491
2.5035838e-09
2.4544891e-09
2.8588836e-09
5.1541137e-09
3.1625389e-09
0.0007441424
0.00076579239
2.2641703e-05
1.263646e-09
1.7237869e-09
1.7993883e-09
1.842606e-09
8.0829674e-06
1.4024931e-06
9.9400812e-06
4.382125e-05
5.1542144e-05
0.96979242
0.080570434
5.093861e-08
4.7885646e-08
1.0436529e-07
4.1856085e-08
4.1126369e-08
7.311784e-08
7.1725476e-07
7.9188867e-09
0.00012488761
5.0566466e-05
1.7242429e-06
1.3094769e-05
0.00074220439
0.0006589516
2.2912973e-07
0.00011832509
0.00033554499
0.0030436751
0.003052517
3.1644072e-07
0.00089661005
0.0010304748
2.0983139e-08
2.0976819e-08
0.0045131985
0.00068615557
8.1735504e-08
8.2164319e-08
0.0010868484
0.00055658397
0.0031501483
6.5505605e-05
1.1889182e-08
1.1603412e-08
1.1597744e-08
0.00070473797
0.00013590026
0.00058245988
0.00013656389
3.4763466e-09
3.3130426e-09
0.012624043
0.0109019
0.0044135255
0.00013907351
0.0014275648
1.7935337e-09
0.00090139474
1.763737e-09
7.5119751e-05
0.0096452906
0.019616007
0.0067857013
0.0038409138
0.01499372
0.01499372
0.0031866126
2.2680413e-09
2.3243958e-09
9.1590126e-08
3.3648132e-09
0.00011848913
0.00031355794
5.8182558e-06
1.0941363e-09
1.0926981e-09
3.2645548e-07
2.0187182e-09
3.6641109e-07
8.2526323e-10
5.7778467e-10
5.7777834e-10
7.6867162e-05
0.32138812
2.0387594e-07
4.2609917e-05
2.7662046e-06
2.6853025e-06
3.4976047e-08
3.745916e-08
4.7164213e-08
7.7294117e-09
7.6259614e-09
0.00022905201
0.00022846941
1.4494115e-05
4.018239e-05
5.1925336e-09
5.4254943e-09
0.00030600689
0.00054992563
3.2923464e-09
3.2978035e-09
0.00028003401
2.3275462e-06
0.0011031363
0.0025752336
4.1906068e-08
2.1550045e-08
2.1550124e-08
0.00043685396
8.1012949e-08
3.9749257e-05
4.7291236e-09
5.167631e-09
3.4105409e-05
0.004228691
0.00047316224
9.1297416e-05
0.00094190061
0.0010219535
9.3165122e-08
0.0016374805
0.0016521034
0.00011722826
3.3155136e-09
0.021664069
0.021668226
0.00010932979
2.0857562e-09
2.0147518e-09
1.6652466e-09
1.5958237e-09
1.5958235e-09
0.017857396
0.019616011
0.014102756
0.018745115
0.0021815335
5.2498165e-05
0.014338695
2.1694774e-09
2.0533697e-09
2.0533697e-09
2.0538584e-09
0.017608129
7.2519791e-08
7.2647466e-08
9.6031097e-05
0.00017512555
1.2904572e-06
4.8946716e-07
0.00054768357
0.001461164
0.0012550082
7.7963945e-10
7.4246951e-10
6.0284637e-10
0.10217832
2.0471535e-07
0.00023938834
0.00022503401
3.6119949e-08
4.0149183e-08
4.4932782e-08
5.6072833e-08
3.1678136e-08
7.8957071e-09
2.235031e-05
9.0046312e-09
1.0809092e-08
2.3353829e-05
3.2402124e-08
5.638093e-07
5.7657611e-06
3.6519026e-09
2.5327046e-08
4.0679926e-09
3.0902219e-09
2.9552398e-07
3.1288888e-05
0.0016748678
2.9739773e-05
3.1848853e-05
2.2232912e-07
0.00069406559
0.0019522491
0.0012634408
4.1910007e-09
0.00015069806
2.0126574e-07
0.0041687562
0.0025356146
0.0038021633
0.007007249
0.00076980047
2.7959788e-09
2.6620344e-09
0.00038761654
6.4885576e-05
3.6766086e-09
0.0041047228
0.018101618
0.0011588253
2.3392301e-09
2.0547268e-09
2.0380679e-09
1.686725e-09
1.8647275e-09
0.0059888687
0.0094892429
6.3420144e-10
0.0071222151
0.0049369253
6.5411773e-07
1.7052327e-09
0.053025817
0.053018094
0.0440402
0.028317895
0.061619493
0.046184967
5.9990706e-06
0.0031775513
0.00017462724
7.9731734e-10
6.7609748e-10
0.0014530566
0.0014649322
0.0014649409
0.00043629144
8.9654071e-10
6.4855475e-10
2.5865079e-08
3.0117684e-05
0.00011274217
2.9989569e-08
3.6009602e-08
3.5312265e-08
5.5598033e-08
6.0167485e-08
3.6854836e-08
3.4268662e-08
8.9925263e-09
8.9780982e-09
0.0005281888
3.1002681e-07
7.3817839e-09
6.3745496e-09
5.3351244e-09
4.4877099e-09
5.4626915e-09
4.9736316e-09
4.1107135e-09
8.619616e-06
4.0141428e-05
7.0274884e-08
0.0017923699
0.00075142309
4.4578491e-06
0.00015097404
0.0022844995
3.5020304e-09
3.4817622e-09
0.00045413962
0.00018770493
1.4706841e-09
7.4472691e-10
7.4518872e-10
0.0067234167
0.00039529445
2.3440036e-09
1.7283403e-07
3.6292395e-09
3.6442788e-09
0.0066393405
2.8399607e-09
2.5554663e-09
2.6661893e-09
2.3058082e-09
2.0515166e-09
5.3589126e-05
1.7335226e-09
0.0040176617
7.5218536e-10
5.7336871e-10
5.7278353e-10
4.7450564e-10
0.0046083258
0.00053966836
1.8878981e-09
0.0039484834
0.031821258
0.066285073
0.066285038
1.1388835e-09
0.0037008596
0.0081125179
0.0010852667
7.7752886e-10
7.0218861e-10
8.1997487e-10
6.7874497e-10
0.00085108039
0.001464949
0.0014649564
0.00010042552
7.7537379e-10
1.0943228e-06
4.802873e-05
3.2499712e-08
4.8063172e-07
9.4425452e-07
3.3438982e-08
6.8141583e-08
5.3902452e-08
4.0751292e-08
3.4549236e-08
2.536273e-08
8.988186e-09
0.00072428666
4.7620441e-08
1.3779257e-06
0.00038373338
5.3452281e-09
4.574885e-05
0.0020719617
0.0019743924
0.002946754
2.2146866e-06
9.1801813e-06
6.9484522e-08
0.0017872125
2.3527425e-08
0.00028398252
0.0014234661
0.00080132233
7.9647903e-06
3.48443e-09
0.00018622766
1.0018549e-09
1.2033128e-09
1.2876479e-09
2.4290371e-06
2.4938065e-09
1.8812159e-09
1.9763203e-09
3.2979577e-09
3.2987846e-09
0.012338834
0.013999133
0.00083515877
2.9101807e-09
0.010749878
0.00094756383
2.481622e-09
7.5940622e-05
0.00031409666
1.0724472e-09
1.0049114e-09
9.0766225e-10
7.5112434e-10
4.7450566e-10
0.0032805164
0.0019655225
3.0561527e-06
1.174716e-09
1.0071574e-09
0.00055996806
0.058115618
1.1387352e-09
1.2531788e-09
0.0043970596
0.00041239549
0.0014569275
7.357343e-10
1.8612568e-05
6.3210352e-07
4.8644122e-10
5.2060132e-05
0.00037289604
0.0001683605
9.4043217e-10
3.2142822e-08
3.2110597e-08
4.0836334e-08
1.2400098e-07
2.5341286e-08
4.3740089e-08
8.216528e-08
4.1702678e-08
3.6372318e-07
3.4743036e-08
6.066079e-08
2.8252472e-08
2.8332298e-08
7.0077224e-05
7.1944145e-05
0.0011693498
0.0011661412
0.00052251342
0.0042537861
0.0042720134
0.0042669952
5.8958556e-05
0.00043185573
0.0012599769
2.2974117e-08
2.3428923e-08
6.4558039e-05
0.0045899631
0.00089128323
0.0042493634
0.00039830416
7.1855369e-10
5.0445849e-10
5.0150688e-10
0.00022041373
1.9054385e-05
1.9722509e-09
0.00056837425
2.4150678e-09
2.8957557e-09
0.00045512414
0.0017077316
6.0311165e-10
0.0033211694
0.012218919
0.023143006
0.010038784
2.2066749e-09
1.9238925e-09
1.5403102e-09
1.2849213e-09
0.00065089038
0.00018357192
7.5852821e-10
4.7450568e-10
0.003616814
0.0029595321
0.00089198121
1.0013255e-09
7.7277714e-10
9.8163573e-10
1.2454392e-09
1.3003427e-09
0.00010933722
3.6278513e-08
0.0003445041
0.0015568866
0.0015545366
0.0001411096
7.4856154e-10
6.1857639e-10
4.8427926e-10
4.842528e-10
4.8425545e-10
5.3379747e-06
3.4726527e-08
3.5063945e-08
3.6848543e-08
3.4811293e-08
3.2542591e-08
5.0220134e-08
9.640466e-08
3.164204e-08
2.9975687e-08
3.2966978e-08
1.0506611e-07
2.9253506e-08
2.802553e-05
0.00087102129
0.00027426237
2.7164678e-07
0.00045579948
0.0018217926
3.2826338e-09
0.00027769111
1.0049367e-08
1.2218795e-05
0.00012232543
0.00066597073
5.1093976e-05
2.4367156e-08
5.2724879e-06
0.0037607069
0.00045403583
0.0042421173
0.00084913452
1.0881104e-09
5.6499119e-10
0.00011597225
0.00031758067
1.8436221e-09
0.0021131796
0.0033296724
0.0015597739
0.0029146593
0.00084835599
8.8524974e-10
5.703789e-10
0.022616694
0.02370134
0.014731944
7.9738893e-10
5.3094564e-05
0.041542015
0.0013284079
0.0010001819
0.0016207977
0.00023544829
6.8170611e-10
4.7450568e-10
0.003444888
0.0036152361
0.00072856842
1.2187865e-09
0.00057931702
0.00021212523
1.3572674e-09
2.5287723e-05
0.00064705288
9.1844733e-06
3.8428526e-05
7.1096333e-05
0.00043980269
5.1660691e-05
8.8353666e-10
9.92921e-08
6.5660477e-09
7.6633036e-10
3.5308631e-09
5.9804835e-05
0.00019990477
3.7352714e-08
2.0366905e-05
0.00010275498
3.4212277e-08
5.4689361e-08
1.0635465e-07
6.6713395e-07
3.2051155e-08
3.3814121e-08
1.1374478e-07
0.00010879713
0.00074279735
0.00034514213
2.5475231e-08
2.5145833e-05
1.6082078e-05
0.0026084261
3.2775802e-09
3.2721543e-09
5.6344058e-07
7.719597e-09
4.4924757e-05
8.941351e-09
0.00010970879
2.484639e-08
2.5467568e-08
2.6103201e-08
2.6142535e-08
2.575458e-08
0.0017955334
0.00036835406
2.9296324e-08
0.00080348702
1.8039309e-09
1.6861638e-09
2.8345031e-05
0.0027071465
0.0026825768
0.0035699331
0.0026148077
1.3094778e-09
8.8781413e-10
8.9419793e-10
0.0095481882
7.7505633e-10
7.1927441e-10
6.4592286e-10
0.048274064
0.037400814
0.013015785
6.3151238e-08
7.4501868e-10
7.4501488e-10
4.7450661e-10
0.0015083368
0.00088245753
7.9512228e-06
5.2824362e-10
0.00018140256
6.2544995e-05
1.5357754e-09
0.00038190463
0.0005427932
1.21084e-05
5.7272751e-10
8.515661e-06
5.8216496e-10
7.5894436e-10
8.0727905e-06
5.4659004e-07
1.8606114e-08
8.9015535e-10
1.0041397e-09
5.6321964e-05
0.0006521247
0.00023747131
9.4845956e-05
0.00020301887
2.843054e-05
5.4708926e-08
7.4654801e-08
1.0966703e-06
1.0976047e-06
2.5191585e-07
4.8371465e-08
0.00099788579
0.0010363369
0.0010363369
1.0061391e-06
0.00038249765
0.00057077298
0.001289075
2.887716e-07
3.8188248e-09
9.5855426e-06
0.00034132983
0.00054458161
8.941364e-09
8.9413604e-09
0.0017338049
0.0041621616
1.0733922e-05
0.00070801312
4.2823036e-05
0.0026372244
0.00078854941
3.0040885e-08
0.00038869407
2.2142675e-09
2.1782292e-09
2.3187541e-09
2.7655996e-09
0.0047839229
5.1417222e-05
0.00035991455
0.000242954
0.0043619782
0.00031606642
9.6594628e-10
1.129889e-09
8.6654672e-10
6.4391155e-10
0.016575862
0.039254122
0.0043039856
1.2504229e-09
1.0481612e-09
7.6202358e-10
5.6929063e-10
4.4456536e-10
4.6571224e-10
4.5656309e-10
4.5650547e-10
5.1746974e-10
5.2292556e-10
9.7421182e-06
1.2959909e-09
1.2963611e-09
2.8057228e-05
4.3943233e-10
4.3942161e-10
4.4000822e-10
0.00047409966
0.00021126763
3.3085341e-08
2.5641205e-07
4.1324368e-05
2.0732007e-06
3.656234e-319
0.00065214226
0.00065215549
1.3893648e-08
1.4201703e-08
7.6874505e-06
4.0075438e-07
2.1246314e-08
2.1393317e-08
1.095631e-06
1.307828e-08
5.0634965e-06
1.6378507e-07
7.2130309e-05
0.00088580639
7.582313e-09
0.00010692923
0.0028257383
6.2553708e-09
3.123676e-07
4.6145638e-09
6.6862516e-06
0.00065556268
9.2938728e-09
9.9333506e-09
8.9413616e-09
0.0058653031
0.0058653715
0.0016899593
0.0017774105
0.00010832056
0.0010874122
3.8189356e-07
1.8036699e-05
1.4692784e-08
0.00011473843
0.003121673
0.00014956333
7.7512273e-06
0.0089139216
0.00067169274
1.8368273e-07
1.8360337e-07
0.0088873087
0.0016171313
1.2385516e-09
0.0011697755
0.00016551493
9.0228635e-10
5.6642698e-10
0.031693885
0.01354583
1.300084e-09
1.0070807e-09
7.6526457e-10
6.064481e-10
4.4456534e-10
0.013609344
0.037724041
0.037662499
0.0019240756
0.0033066305
1.4432232e-09
1.4310075e-09
2.9467678e-07
4.0655955e-05
8.4088748e-09
4.3942161e-10
0.0010771933
0.0014007939
9.2504682e-05
6.8649189e-07
3.5569109e-07
0.00021492603
1.1733162e-05
-2.0298193e-319
0.00065212539
0.0006521423
1.2012301e-07
1.5240013e-08
3.5086443e-08
2.3901422e-08
2.2729773e-08
6.5603848e-08
1.3654298e-08
1.3483314e-08
3.7316734e-07
1.5913135e-05
5.0390459e-05
6.8739252e-09
6.4820019e-09
2.1812732e-05
0.0027765692
1.4391259e-06
4.7159603e-09
2.2510731e-08
3.8079331e-06
0.00033783548
9.0537344e-07
3.3211348e-08
8.9413914e-09
0.0058652035
0.0038702985
1.4236091e-09
1.4236091e-09
1.4236133e-09
1.625413e-09
0.0010153133
0.00018748256
1.4301737e-08
0.0036404839
0.003859915
1.0037263e-05
4.22501e-07
0.006350937
0.00068753513
0.00091853993
0.0017911344
1.3497722e-09
1.2916724e-09
0.00062291828
0.0014424905
0.001066559
8.0988216e-10
5.6642401e-10
3.8079228e-10
0.021449897
0.0074776232
1.0553231e-09
7.9069184e-10
6.2662912e-10
4.4456551e-10
0.0042630796
0.031524716
0.010032061
0.0031260859
0.0017462552
0.00026997725
1.5414392e-09
2.9309475e-09
4.0655967e-05
6.1196249e-07
4.3957313e-10
0.0019273167
2.3857529e-05
4.7260644e-10
1.2106434e-05
2.7262868e-06
0.00021492599
6.5291144e-06
1.2286662e-06
0.00035539514
0.00065214084
1.1724856e-05
1.3579007e-08
3.6846984e-08
6.1348967e-08
1.3342819e-07
5.4149312e-08
1.5291954e-07
1.9575286e-08
1.9382445e-08
0.0001449099
0.00024235738
5.7320958e-09
5.8185113e-09
6.8206776e-09
7.0241425e-09
5.9874665e-09
5.3378707e-09
5.2945645e-09
5.7920617e-09
5.5234678e-09
5.9430592e-09
2.4616671e-05
9.3771847e-09
0.0022330705
1.8039728e-09
1.8034879e-09
1.8056098e-09
2.0372562e-09
0.0017649336
0.0017778292
0.00028976824
1.427902e-08
1.4251477e-08
8.6167116e-05
0.001676114
0.00010095434
1.5777e-09
1.8675772e-09
0.0047069216
0.0047023057
0.0004449586
1.4746342e-09
0.0012914355
5.1711232e-10
4.9559091e-10
4.9647023e-10
0.00046234929
3.9453257e-10
0.0096074446
0.021247243
0.013929067
0.0016979375
0.00044851851
7.1039874e-10
8.8221471e-10
1.1183343e-09
1.2730925e-09
1.3020932e-05
1.405566e-08
0.00010380837
2.3142346e-05
6.9173883e-05
1.4798334e-05
1.3317595e-08
4.4048872e-10
0.00063053688
9.012707e-06
4.5328631e-10
3.4664677e-10
3.4694689e-10
0.00010080468
1.8234624e-09
1.259405e-07
1.8002399e-09
0.00051032467
0.00020427227
8.0048846e-05
1.5363276e-08
3.5490095e-08
6.1332434e-09
3.2937055e-08
5.331713e-07
2.2171855e-08
1.9173643e-08
1.9340085e-05
8.0855266e-05
5.7320371e-09
6.7829787e-09
0.0035212751
6.0565999e-06
3.8445186e-05
0.0018539425
5.7454553e-09
4.8842359e-05
4.9338133e-09
2.7083529e-05
1.0282508e-08
9.7519278e-09
9.6817809e-09
1.9450468e-07
0.00070041238
4.3951083e-05
0.00017054897
0.0018089149
2.5599685e-08
2.5686833e-08
0.0014681557
3.6841067e-05
3.0074868e-08
0.00055521361
1.8876016e-09
1.853714e-09
0.0025454041
1.1534885e-09
1.0684601e-09
1.0684604e-09
9.4900912e-08
1.9711435e-10
4.9442588e-10
4.9497754e-10
0.019190817
0.0084781007
3.6151905e-10
1.4948984e-10
0.021245534
0.021243699
0.020743139
0.0014636471
4.444503e-10
7.8608211e-10
1.3833166e-09
2.7808147e-09
2.9172319e-09
6.192151e-08
9.672305e-10
5.5056722e-06
8.6361702e-05
1.7059322e-08
5.3495862e-08
4.5070858e-09
2.6816839e-09
2.6814407e-09
3.6373494e-09
1.4248846e-09
2.9413432e-09
4.6341287e-10
5.0797491e-08
2.2728145e-08
1.6411974e-09
1.6439989e-09
8.6873286e-06
1.2471344e-05
1.1690267e-06
6.1283717e-09
6.1055501e-09
9.1893707e-09
9.247661e-09
1.4140225e-06
4.5321008e-09
4.4214726e-09
5.0383114e-09
0.00057488098
0.0020483279
0.0042788584
6.0798641e-06
0.00020545255
0.0046438763
0.00015063477
0.00069859814
0.0018014432
0.0018028841
0.00091120993