/*--------------------------------*- C++ -*----------------------------------*\
| =========                 |                                                 |
| \\      /  F ield         | OpenFOAM: The Open Source CFD Toolbox           |
|  \\    /   O peration     | Version:  2.3.0                                 |
|   \\  /    A nd           | Web:      www.OpenFOAM.org                      |
|    \\/     M anipulation  |                                                 |
\*---------------------------------------------------------------------------*/
FoamFile
{
    version     2.0;
    format      ascii;
    class       volScalarField;
    location    "3.9e-05";
    object      k;
}
// * * * * * * * * * * * * * * * * * * * * * * * * * * * * * * * * * * * * * //

dimensions      [0 2 -2 0 0 0 0];

internalField   nonuniform List<scalar> 
7500
(
9.9993183e-06
9.9964602e-06
9.996005e-06
9.995093e-06
9.9932294e-06
9.991325e-06
9.9897545e-06
9.9881885e-06
9.9865373e-06
9.9849559e-06
9.9837307e-06
9.9822476e-06
9.9812376e-06
9.9801848e-06
9.9793675e-06
9.9787288e-06
9.9784985e-06
9.977957e-06
9.977899e-06
9.9775754e-06
9.9771006e-06
9.9764593e-06
9.9757879e-06
9.9750607e-06
9.9741099e-06
9.9731755e-06
9.9724464e-06
9.9714597e-06
9.9711632e-06
9.9707287e-06
9.9704115e-06
9.9704056e-06
9.9701503e-06
9.9696199e-06
9.9693821e-06
9.9687578e-06
9.9686177e-06
9.9683401e-06
9.9683668e-06
9.9686724e-06
9.9689924e-06
9.9693957e-06
9.9700894e-06
9.9710209e-06
9.9724641e-06
9.9741765e-06
9.9770627e-06
9.9798369e-06
9.9846561e-06
9.9889137e-06
9.9964831e-06
1.0002767e-05
1.0014173e-05
1.002316e-05
1.0039624e-05
1.0052145e-05
1.0075386e-05
1.0092559e-05
1.012467e-05
1.0147556e-05
1.0190616e-05
1.02203e-05
1.0276668e-05
1.031454e-05
1.0386887e-05
1.0434152e-05
1.0525129e-05
1.0583698e-05
1.0697672e-05
1.076928e-05
1.0909625e-05
1.0995401e-05
1.1163916e-05
1.1264995e-05
1.1531538e-05
9.9994166e-06
9.9973698e-06
9.9966169e-06
9.9949791e-06
9.9941405e-06
9.9928972e-06
9.9922387e-06
9.9914028e-06
9.9910137e-06
9.9905693e-06
9.9906537e-06
9.9908591e-06
9.9913134e-06
9.9918666e-06
9.9926443e-06
9.9935322e-06
9.9947539e-06
9.9958025e-06
9.9972351e-06
9.9983519e-06
9.9997132e-06
1.0000848e-05
1.0002096e-05
1.0003288e-05
1.000455e-05
1.0005807e-05
1.0007132e-05
1.0008567e-05
1.0010194e-05
1.0011982e-05
1.0014355e-05
1.0016792e-05
1.0020168e-05
1.0023337e-05
1.0027847e-05
1.0032258e-05
1.0038827e-05
1.0045338e-05
1.0055349e-05
1.0065261e-05
1.0080789e-05
1.0096011e-05
1.0120343e-05
1.0143618e-05
1.0181273e-05
1.0215956e-05
1.0272716e-05
1.0323085e-05
1.0406147e-05
1.0477352e-05
1.0595396e-05
1.0693551e-05
1.0856594e-05
1.0988634e-05
1.1209089e-05
1.1383586e-05
1.1676237e-05
1.1901796e-05
1.2282551e-05
1.2569621e-05
1.3054938e-05
1.3411977e-05
1.4020939e-05
1.4457315e-05
1.5204812e-05
1.5726355e-05
1.6623409e-05
1.7244116e-05
1.8322561e-05
1.9050053e-05
2.032493e-05
2.1157282e-05
2.2613752e-05
2.3551721e-05
2.5785739e-05
1.0001668e-05
1.0003276e-05
1.0007005e-05
1.0009522e-05
1.0014427e-05
1.0018388e-05
1.0025267e-05
1.0030173e-05
1.003831e-05
1.0043819e-05
1.0052804e-05
1.0058488e-05
1.0067537e-05
1.007354e-05
1.0083592e-05
1.009037e-05
1.0101885e-05
1.0109209e-05
1.0121434e-05
1.0129044e-05
1.0141329e-05
1.0149202e-05
1.0161185e-05
1.0169293e-05
1.0181626e-05
1.0190893e-05
1.020527e-05
1.0217311e-05
1.0236535e-05
1.0253833e-05
1.028201e-05
1.0308596e-05
1.0352343e-05
1.0394772e-05
1.0465198e-05
1.053439e-05
1.0650131e-05
1.0762969e-05
1.0951696e-05
1.1131213e-05
1.1429661e-05
1.1709212e-05
1.2173502e-05
1.2595939e-05
1.3295457e-05
1.3909957e-05
1.4927398e-05
1.5792158e-05
1.7222994e-05
1.8405406e-05
2.0360591e-05
2.193567e-05
2.4528116e-05
2.657689e-05
2.9943923e-05
3.2557511e-05
3.6844532e-05
4.0110623e-05
4.547589e-05
4.9494701e-05
5.6068471e-05
6.0912642e-05
6.887385e-05
7.4611743e-05
8.4035799e-05
9.067509e-05
0.00010158527
0.00010926427
0.00012191739
0.0001306897
0.00014519716
0.00015491803
0.00017087678
0.00018151685
0.00020529563
1.0023005e-05
1.004466e-05
1.0089454e-05
1.0114013e-05
1.0158081e-05
1.0186823e-05
1.0231453e-05
1.0257322e-05
1.0297201e-05
1.0320566e-05
1.0356631e-05
1.0373041e-05
1.0401848e-05
1.0420387e-05
1.045504e-05
1.0475712e-05
1.0513117e-05
1.0534591e-05
1.0572756e-05
1.0596504e-05
1.0638513e-05
1.0667386e-05
1.0717672e-05
1.0756692e-05
1.0824515e-05
1.0885828e-05
1.0992929e-05
1.1101033e-05
1.1290437e-05
1.1489444e-05
1.183747e-05
1.220069e-05
1.283364e-05
1.3476093e-05
1.4595269e-05
1.5691781e-05
1.7601085e-05
1.9401799e-05
2.2511516e-05
2.5329096e-05
3.0149466e-05
3.4418563e-05
4.1682192e-05
4.7915312e-05
5.8441715e-05
6.7182229e-05
8.1887065e-05
9.3735793e-05
0.00011360287
0.00012922186
0.00015535702
0.00017541971
0.00020875976
0.00023398082
0.00027567919
0.00030675404
0.00035783182
0.00039544307
0.00045719638
0.00050199517
0.00057498972
0.00062743546
0.00071300613
0.0007733462
0.00087130436
0.00093910664
0.0010491806
0.0011254552
0.0012490258
0.0013342924
0.0014721688
0.001564138
0.0017114454
0.0018095545
0.0020219279
1.0057136e-05
1.0193652e-05
1.0283128e-05
1.0412381e-05
1.0478376e-05
1.0607414e-05
1.0662383e-05
1.0774962e-05
1.0829218e-05
1.0914015e-05
1.0982808e-05
1.1045238e-05
1.1117937e-05
1.1200398e-05
1.1278057e-05
1.1329724e-05
1.141073e-05
1.1466085e-05
1.1569765e-05
1.16542e-05
1.1811472e-05
1.1965185e-05
1.2247758e-05
1.2561841e-05
1.3135961e-05
1.3804649e-05
1.5023921e-05
1.6423042e-05
1.8970835e-05
2.1740672e-05
2.675123e-05
3.1882739e-05
4.1095257e-05
5.0041634e-05
6.6056297e-05
8.084311e-05
0.00010724793
0.00013056577
0.00017173668
0.0002066507
0.00026776669
0.00031836324
0.00040634616
0.00047700203
0.00059871309
0.00069367712
0.0008562981
0.00097987104
0.00119044
0.0013471369
0.0016136161
0.0018072329
0.0021342762
0.0023690738
0.0027629265
0.0030420419
0.0035064084
0.003833313
0.0043759623
0.0047525686
0.005372143
0.0058001651
0.0065034083
0.0069817832
0.0077603462
0.0082826214
0.0091332728
0.0097035957
0.010629783
0.011253928
0.01225952
0.012916101
0.013963139
0.014644917
0.016099318
1.0043757e-05
1.022399e-05
1.030357e-05
1.0473401e-05
1.0547476e-05
1.071942e-05
1.0788187e-05
1.0955195e-05
1.1021516e-05
1.1176114e-05
1.1254532e-05
1.1402643e-05
1.1539999e-05
1.1664668e-05
1.1879077e-05
1.2061074e-05
1.2385031e-05
1.2693121e-05
1.3233244e-05
1.389181e-05
1.506272e-05
1.6670497e-05
1.9618863e-05
2.3467427e-05
3.0638845e-05
3.9249795e-05
5.5403725e-05
7.330141e-05
0.00010677326
0.00014088174
0.00020411351
0.00026430547
0.00037480971
0.00047450859
0.00065660206
0.00081256617
0.0010965539
0.0013293049
0.001747665
0.0020783073
0.0026684597
0.0031236996
0.0039310542
0.0045363435
0.005598978
0.0063761324
0.0077302111
0.0086987454
0.010374957
0.011554206
0.013590602
0.014989474
0.017392913
0.019025657
0.021808713
0.023679049
0.026836787
0.028953533
0.032516321
0.034872545
0.038803112
0.041401386
0.045719525
0.048539611
0.053158825
0.056153742
0.061060235
0.064230548
0.069411372
0.072820965
0.078303378
0.081789651
0.087345481
0.090866805
0.098304445
1.0000898e-05
1.0013639e-05
1.0031286e-05
1.0075513e-05
1.0114636e-05
1.0190133e-05
1.0279031e-05
1.0372008e-05
1.0523198e-05
1.0637337e-05
1.0856808e-05
1.1026099e-05
1.1357145e-05
1.1682669e-05
1.2307565e-05
1.31525e-05
1.4711602e-05
1.7229247e-05
2.1560147e-05
2.9463195e-05
4.1565947e-05
6.2549909e-05
9.7347434e-05
0.0001446352
0.0002298691
0.00032768264
0.00051188672
0.00070061087
0.001057293
0.0013921442
0.0020214636
0.0025740076
0.0036033624
0.0044619376
0.0060508337
0.0073113296
0.0096374581
0.011406517
0.014628714
0.017004981
0.02130941
0.024406698
0.02998694
0.033897848
0.040876579
0.045662044
0.05412469
0.059830108
0.069827336
0.076497356
0.088141561
0.095740788
0.10896642
0.11750253
0.1322293
0.14166355
0.1577743
0.16810578
0.18566556
0.19680741
0.21558166
0.22754656
0.24758246
0.26023894
0.28100838
0.2941592
0.31562702
0.32919102
0.35127765
0.36590001
0.38844947
0.4031344
0.42553717
0.43973353
0.46925619
1.0011236e-05
1.0071153e-05
1.0117029e-05
1.0227156e-05
1.0293659e-05
1.0444091e-05
1.0518203e-05
1.0686407e-05
1.0799717e-05
1.1030134e-05
1.134584e-05
1.1945841e-05
1.3096979e-05
1.5336098e-05
1.9680126e-05
2.7846934e-05
4.3577398e-05
7.1387528e-05
0.00012082016
0.00021367257
0.00034346843
0.00060117953
0.00090296587
0.001448818
0.0021786655
0.0031508746
0.0047260675
0.0063503616
0.0092377321
0.011851213
0.016623009
0.020582114
0.027890789
0.033567831
0.044098023
0.051881721
0.066321618
0.07656773
0.095370663
0.1083785
0.13213458
0.14818203
0.17737218
0.1966405
0.23141489
0.25391355
0.29410378
0.31987129
0.36534748
0.39447352
0.44549511
0.47764816
0.53384816
0.56886282
0.62941343
0.66708496
0.73157271
0.77199451
0.84064168
0.88355222
0.95581224
1.0014363
1.0774983
1.1251765
1.2026979
1.2518284
1.3301085
1.3802736
1.4608446
1.513606
1.594491
1.6485627
1.7280569
1.7810082
1.8891119
1.0025872e-05
1.0138836e-05
1.0217282e-05
1.0381008e-05
1.0521559e-05
1.066887e-05
1.0838928e-05
1.1155131e-05
1.1765293e-05
1.3037907e-05
1.5758172e-05
2.1521128e-05
3.3492913e-05
5.7641274e-05
0.00010516599
0.00019323748
0.00037234123
0.0006539107
0.0011798481
0.0020407889
0.0032264024
0.0055078577
0.0079170343
0.012723829
0.017262744
0.026249158
0.033983241
0.048060851
0.062419523
0.081804383
0.10602112
0.131101
0.16794928
0.19852902
0.25078858
0.28864892
0.3568262
0.403222
0.48748755
0.54311066
0.64440725
0.70990347
0.8291151
0.90475584
1.041633
1.1269871
1.2799587
1.3758096
1.5450873
1.6522997
1.838736
1.9560089
2.1589986
2.2848838
2.4997929
2.6353521
2.8656683
3.0142832
3.2633376
3.4240335
3.6906704
3.8634022
4.1446341
4.3247452
4.6111143
4.796919
5.0780815
5.2701213
5.5652668
5.7673375
6.0796462
6.3044779
6.6389965
6.886315
7.3844746
1.011466e-05
1.0609458e-05
1.0810611e-05
1.1277429e-05
1.1504124e-05
1.2045719e-05
1.2817953e-05
1.4718469e-05
1.9317471e-05
3.0497232e-05
5.6087655e-05
0.00011213541
0.00022792382
0.00046294284
0.00091751176
0.0017238261
0.0034222985
0.0057018974
0.010534056
0.015941762
0.025900731
0.040064378
0.056211798
0.085628397
0.11206362
0.16247512
0.20262377
0.28084229
0.33848397
0.45031366
0.52834351
0.6782594
0.77936993
0.96166657
1.111905
1.3080122
1.5240321
1.7273605
2.0114007
2.2243407
2.5771362
2.8123212
3.2278744
3.4913173
3.9628094
4.2637536
4.8000347
5.1463046
5.7494074
6.1453748
6.8074514
7.2448891
7.9669644
8.434823
9.2241751
9.7759701
10.709571
11.359475
12.417473
13.116551
14.23731
14.981366
16.136854
16.91148
18.099988
18.899263
20.039123
20.921818
22.258819
23.350646
25.254157
26.699301
28.932034
30.53849
33.591443
1.0042052e-05
1.0249502e-05
1.0441665e-05
1.0868022e-05
1.1617744e-05
1.3783671e-05
1.9792755e-05
3.6847205e-05
8.0544474e-05
0.00018547444
0.00041942789
0.00092017429
0.0019107987
0.0039481032
0.0076761044
0.013768221
0.026365428
0.041164582
0.072607922
0.10361601
0.16880342
0.22528878
0.33687896
0.44139159
0.59222022
0.78695885
0.96939452
1.2740391
1.5004303
1.9179703
2.199895
2.7349028
3.0876499
3.7579495
4.1871822
4.9993311
5.5172974
6.4729698
7.1260947
8.1856774
9.1300795
10.173422
11.46793
12.45833
14.207811
15.442158
17.595057
19.035583
21.420868
23.198108
25.568927
27.66164
30.227943
32.507518
36.715368
39.806139
45.046155
48.535334
53.867254
57.0204
62.655288
66.093667
72.213345
76.012929
82.51228
86.662541
93.411633
98.634504
111.41628
119.98988
142.78729
151.83412
170.21221
178.56285
196.82691
1.0790316e-05
1.1171855e-05
1.1791022e-05
1.3160351e-05
1.7870875e-05
3.4345895e-05
8.5961034e-05
0.0002304192
0.00059360412
0.0014309275
0.0032471316
0.0070637284
0.014167873
0.030092231
0.051950601
0.092833844
0.16177432
0.24191636
0.40117222
0.54493859
0.83876583
1.0714618
1.544956
1.8912214
2.5807057
3.0571098
3.9633132
4.6825429
5.7161951
6.8426318
7.9161319
9.6289936
10.865923
13.110967
14.587324
17.368187
19.301661
22.869018
25.323534
29.79181
32.735521
37.728612
41.640959
47.209328
56.266292
62.290947
73.067767
79.468114
91.16725
98.607
110.52811
120.73871
133.83369
153.97478
192.39917
208.25363
240.56644
258.20589
269.61414
288.73354
328.28584
344.0936
393.5456
407.40421
446.23415
473.73556
516.95605
547.88154
622.54677
630.49479
686.61464
694.00547
736.084
759.09358
803.44827
1.1588855e-05
1.2701568e-05
1.5230955e-05
2.4867533e-05
6.3953211e-05
0.00020250602
0.00061831712
0.0017264517
0.0043659006
0.01017254
0.022415357
0.047969741
0.089786838
0.18456267
0.29385481
0.53713186
0.76823582
1.200755
1.7584635
2.3655742
3.3901456
4.2283384
5.8223093
6.9662785
9.1729902
10.725999
13.746507
15.837306
19.701159
22.63252
27.967589
32.823854
38.582658
46.260158
51.955618
64.311957
73.145113
89.471822
100.33983
121.5106
134.46083
157.96929
180.89553
232.31746
278.69251
301.73197
363.39958
386.98078
461.6469
492.08052
562.33335
613.94637
698.44032
725.15613
790.5763
818.92409
921.47898
947.02343
892.80108
951.42955
908.02365
967.99936
991.30722
906.65388
882.6164
844.28517
782.71711
844.61978
789.09262
761.27788
691.58857
665.31247
611.4911
609.48552
538.55504
1.166045e-05
1.532538e-05
2.9058757e-05
0.00010272545
0.00040585234
0.0014295269
0.0043231204
0.011613101
0.027986551
0.062455261
0.13472152
0.26980913
0.47924164
0.9181548
1.3672767
2.3405486
3.1790023
4.9605
6.3433141
9.074199
11.452713
15.042884
19.292739
23.456058
30.450644
36.040088
46.506186
54.24443
68.053669
82.385041
106.90886
123.97703
154.43924
181.78548
209.69686
299.82344
333.69574
415.92113
467.57494
591.16575
633.26043
785.56845
815.31072
952.54456
990.38602
1081.1115
1101.1602
1074.9267
1192.4754
1069.368
1178.6015
1042.7295
965.69885
803.18916
763.31119
740.07713
647.30033
521.23724
460.10275
445.67577
327.76312
364.0427
229.69396
256.31287
225.04885
203.50643
179.17398
179.00122
105.46316
111.93744
76.734981
79.698118
67.776057
59.451413
39.358099
1.0511842e-05
2.2363595e-05
0.00011763773
0.00064888589
0.0027400273
0.0092902381
0.026607139
0.067826862
0.15443257
0.33188802
0.71741889
1.2246921
2.2148677
3.6745477
5.3588946
8.5745346
11.319863
17.004299
21.366734
30.34169
37.439081
51.429629
62.065688
82.719226
105.17752
131.38306
173.2901
207.63575
280.14456
375.67854
469.10842
549.75348
719.03364
795.93665
949.615
1145.44
1142.8834
1187.2457
1274.5775
1307.5619
1222.6781
1198.4515
1023.2294
960.22094
789.01574
785.44301
515.8389
471.28746
349.67283
282.9903
350.5417
160.72064
153.86348
104.35844
104.47572
94.268242
49.670142
32.640226
37.205132
30.781458
26.713153
35.236365
19.562456
24.299355
22.207919
22.815421
31.192661
15.249521
9.5421771
13.509809
9.1279783
10.191802
7.5493843
4.9771126
2.9816421
9.5636131e-06
7.6471698e-05
0.00074407941
0.0041711536
0.016765548
0.053019227
0.14201306
0.34406941
0.73337809
1.5545955
2.9620013
4.8720874
8.6863972
12.274977
19.432305
27.354144
37.519427
55.508896
69.941562
102.52131
129.6904
182.49668
225.93706
337.55917
427.79297
578.88185
750.98029
918.09941
1095.0569
1277.9253
1299.3218
1406.138
1431.836
1275.4021
1297.9795
967.00458
851.6438
608.69059
544.20548
341.93069
346.16405
210.09841
196.50269
120.55979
138.65487
87.708358
36.403644
57.260347
29.30259
29.964095
27.283196
9.9630077
10.084166
10.02703
10.734755
7.7921402
3.8910521
3.8593574
5.2557677
4.1931935
4.9970806
6.3808151
5.0027789
6.7608584
4.9612446
4.9335986
8.9293679
3.3165767
6.9123569
5.5039882
3.2191209
3.0846734
1.7618597
1.2219812
1.0998857
9.4152751e-06
0.0004914942
0.0047376695
0.024367605
0.090073982
0.26334552
0.65659516
1.5319
2.999134
6.3743032
10.177377
17.672326
27.542621
39.973971
64.316776
85.994359
132.98231
185.05042
245.37885
401.72766
521.34915
758.04489
940.30193
1263.1637
1332.6
1535.9663
1577.7654
1447.8524
1238.6783
1039.0203
691.59105
639.58417
346.83123
366.14955
240.02064
92.541183
89.960042
65.611083
51.051233
25.721676
30.897252
15.419955
19.961098
22.756189
36.517668
9.9077585
4.6988046
21.372814
4.1456592
10.988699
5.8130235
3.0379139
2.4883038
2.4927855
3.6254043
2.7852082
2.0403294
2.9319336
2.9186511
2.8276299
2.9982403
2.6498373
3.9902713
5.0615301
2.0408689
2.0335578
3.1415997
2.6987595
7.3622795
1.9895508
1.9495403
1.8165704
1.2930403
1.058475
1.0308448
2.2813167e-05
0.0031743744
0.027255344
0.12642523
0.4233664
1.1388236
2.6385433
5.7768351
10.757964
21.270706
33.215949
57.63972
84.367551
136.82925
213.31418
299.22497
526.31954
703.51553
1012.1264
1406.4786
1500.9555
1718.6087
1639.3514
1432.5445
1149.2283
787.95333
564.88953
310.3624
212.1905
109.87053
79.442075
76.231501
29.040616
45.728088
14.598903
5.9628398
8.3913433
11.291534
6.1641198
2.5919984
3.2997027
2.0580987
4.0105886
8.2945668
9.7616123
2.9464773
2.3640176
7.2751401
3.4746086
5.3665157
4.3832525
1.8129499
1.9564581
1.8442981
1.8003538
1.8533038
1.897458
3.8266408
5.4588753
5.245515
3.9191734
2.8189101
3.7968676
3.1282597
1.5455404
1.3968601
1.5496349
2.4185729
1.8591308
1.3205722
1.4186644
1.3147107
1.170601
1.1370801
1.1768844
2.9536438e-06
0.018064159
0.13795395
0.57469139
1.7396268
4.3185864
9.3447561
19.122081
35.652369
65.872312
105.824
184.03173
287.43197
519.15952
801.00721
1217.0919
1562.2079
1697.0101
1852.9096
1580.376
1122.9614
711.48675
412.80393
239.94328
186.33268
84.482413
52.092745
25.15558
21.83739
7.7747814
13.012208
8.0568599
6.1317042
8.6602979
2.2738286
1.2157185
2.3303388
2.1606288
1.8134886
1.1728949
1.0406108
1.6611681
4.1759252
5.0029648
17.163432
1.9410107
1.7994611
4.8174591
2.9842326
3.2746891
2.3213683
1.9286796
1.835056
1.8334326
1.9125859
1.6824913
1.937022
4.077696
5.0703068
4.4978685
2.2697741
1.9549834
2.2321942
2.0162425
2.3888994
1.4021222
1.4719118
1.4372716
1.3389721
1.3279975
1.249204
1.2913697
1.1103706
1.1652302
1.2254823
0.00072784541
0.095989628
0.62221103
2.2939994
6.2734288
14.521082
29.939614
59.909812
114.96733
205.73881
359.24149
676.20293
1133.2805
1611.8819
1921.9889
1909.9326
1515.3036
1029.9781
611.08335
249.2727
155.86921
75.363481
36.085246
26.73807
32.904478
8.5495415
10.099199
4.1389169
2.0916348
1.0559526
4.0634405
2.7410394
3.0916072
4.5480901
1.2622198
0.88838667
2.0708667
1.3771593
1.0362291
1.072699
0.79063368
2.5078167
2.8811417
3.2529151
3.8259586
1.3724331
1.6031812
4.8256402
3.0931253
3.6544132
2.4278712
1.7978755
1.9427172
2.6934759
2.5126787
1.9756688
2.2826409
2.7442871
3.2183999
2.5355051
1.8156437
2.4439518
2.15064
2.1540194
2.8100809
1.2335614
1.7525316
1.0588223
1.1115237
1.1431348
1.2806443
1.2544673
1.1962916
1.1962831
1.186442
0.0082999369
0.45509209
2.4944027
8.0780012
20.157849
44.189147
91.454031
192.18603
376.05284
739.66427
1413.4948
1801.7224
1974.5017
1739.1484
1141.6812
519.42951
260.16573
170.07171
58.802867
21.756104
18.792903
6.4229528
3.0156531
4.1722342
4.5771565
2.529153
3.0605762
2.6921846
1.1846858
0.84350037
2.2749762
1.0446413
3.3563135
1.7640624
1.0897706
0.7926454
2.1123651
1.0014052
0.49535181
0.80075721
0.96273614
2.1433251
3.8152398
6.8724089
3.7066847
1.2412238
1.2765361
4.3762626
2.9082693
3.4391712
2.6569778
1.5423069
2.5560182
3.0537219
2.9625329
2.3700784
2.3222875
3.6782737
4.7844513
3.2191222
2.3122252
2.9097471
2.1839046
2.1609027
1.8007429
1.0231811
1.5459836
1.0429714
1.534131
1.5907456
1.2080963
1.3895279
1.585815
1.4552516
1.2693016
0.063676137
1.9288285
8.8568773
25.355704
59.391126
130.59804
284.84247
669.83937
1426.0508
1869.4626
2036.619
1593.267
680.93852
364.8378
159.66799
56.843943
34.129195
31.40429
6.2785443
1.6837562
1.9551295
0.66442141
0.83655847
1.9140758
1.571714
1.7453152
1.854553
2.039947
1.2599707
1.4324792
1.727851
0.54980388
1.5279074
4.0203434
0.82870234
0.73926027
1.5566718
0.7705511
0.45716183
0.85258461
0.84124553
2.4125269
4.4921107
7.7271287
5.4860813
1.1946272
1.2076812
2.8072113
2.4367806
3.4002688
2.7843888
1.5685828
2.6547345
3.5172143
3.0335518
2.6441135
2.6440713
2.8773236
2.9117459
3.129085
3.1233873
2.1833433
2.0363553
2.0253716
1.3738445
1.0926861
1.2414047
1.1793086
1.7012836
1.7109523
1.3268878
1.466521
1.6918093
1.6641637
1.4742449
0.39291887
7.3125689
28.093272
72.741835
168.22862
397.49608
1004.0584
1842.1627
2311.6447
1686.0575
624.68545
315.78296
91.416555
59.258625
14.545254
4.5639038
5.1045218
5.1811854
0.73957997
0.42038302
0.47632855
0.30683332
0.55248632
1.3384023
1.4317743
0.9347436
1.5815376
1.691439
1.2490153
3.2876402
1.6175039
0.5394749
0.55568811
5.4663103
0.72957983
0.77678914
1.169969
0.66857061
0.48872935
0.66742782
0.86143757
2.267642
4.3073084
8.4448007
3.7002278
1.1043242
1.1055119
1.9126201
2.3596558
4.2040681
2.083125
1.3696474
2.0460202
2.6193447
2.9115629
2.9959599
2.4141313
2.2109066
2.3084804
2.8288655
2.3405133
1.6571785
2.1366573
1.9795415
1.6795489
1.5836221
1.1176682
1.2604811
1.5513609
1.5685013
1.4009252
1.9327988
1.7812318
1.8083943
1.5357187
2.0754282
24.884644
81.129937
197.9268
490.38631
1379.0912
1988.6395
1883.685
956.949
347.29835
96.875889
41.752559
9.5328054
7.3842001
1.0559005
0.75859125
1.7494889
0.98920948
0.47462431
0.36552248
0.3478955
0.27262165
0.49893926
1.2700001
1.7863925
0.6481063
1.0224051
1.7125267
1.4014164
5.5554617
1.7239734
1.0010908
0.69827717
3.970144
0.7270884
0.98122145
0.98118343
0.65102113
0.55168668
0.49793908
0.70048803
1.463234
2.4329721
1.7265615
1.5025613
0.98457322
0.91355261
1.993781
1.6160584
3.3933201
1.7845711
1.1165707
3.1307282
1.8199807
1.9941127
3.496513
2.7973042
2.7111669
2.7081255
2.7901892
2.2004665
1.6643
3.0697699
1.7501969
2.3027479
1.2531143
1.1541414
1.335266
1.2315431
1.4098709
1.3495705
2.3972849
2.3056792
2.0482203
1.5535213
9.6455829
76.917477
218.55546
542.79155
1598.9305
2222.9299
1470.1591
510.69877
186.95365
38.630282
10.400838
3.7356836
1.1910987
1.5922003
0.24715196
0.43677112
1.0397166
0.48672473
0.4219992
0.36556123
0.34317714
0.2583045
0.51904308
1.4796089
3.9063798
0.60588786
0.57268811
1.7114536
1.597989
5.6617745
1.6563992
1.7051152
0.8296331
1.9273813
0.68205269
1.5107009
0.90153885
0.53808931
0.66621829
0.61241534
0.87063047
1.1447662
1.4740333
1.3482886
1.0763244
0.71567631
0.74552548
1.7902586
1.5649601
2.0834288
1.3882522
1.070495
1.4688927
1.6887629
1.3771697
2.0534518
3.1395219
2.4819174
2.6767133
2.6966141
2.1091944
2.0305823
3.1442303
1.9531588
1.9458991
1.4683851
1.2737387
1.3768404
1.1722927
1.4334793
1.3262811
2.9413245
2.6458497
2.3859008
1.6926378
40.328732
218.12901
574.08363
1626.1897
2237.2513
1257.6271
491.20645
105.03186
21.519683
3.6970972
1.366935
0.55420393
0.43870918
0.72069445
0.19587362
0.3737428
0.78821192
0.40534599
0.42378528
0.37019984
0.38205873
0.25756523
0.58154609
1.7118034
4.8307631
0.59404536
0.50611283
0.98319346
1.5556599
3.8547717
1.5154492
1.4605769
0.69146493
1.0420098
0.65137724
1.7448807
0.92449615
0.5235064
0.97289716
1.0699047
1.0456796
1.2174539
1.5236591
1.2983708
0.8751401
0.69654412
0.72192517
1.6745153
1.5253116
1.590027
1.1534876
1.0692322
1.122221
1.3533489
1.2978364
1.5561923
2.2305345
2.2298133
2.4018368
2.4658586
1.8102247
2.13467
3.114014
2.9781465
1.7144186
0.92178955
1.1311654
1.4889211
1.0872785
1.6120989
1.5278923
3.9728077
2.9415286
2.5015582
1.7527605
155.23094
575.44397
1582.9121
2140.1818
1130.9414
442.54603
100.6202
11.652003
2.2426597
0.88222016
0.5703305
0.33321446
0.4525043
0.53767144
0.19562072
0.32914436
0.65630037
0.38536153
0.43609239
0.38964866
0.36041151
0.26781484
0.61152234
1.5134979
1.4945474
0.55769527
0.49783516
0.90702881
1.7691442
4.4855221
1.3633202
1.2193391
0.71225106
0.69490484
0.64173726
1.635887
0.94003634
0.51639884
1.4039682
1.4636891
0.96032301
1.0548783
1.2826828
0.99742421
0.82556286
0.72751156
0.70751445
1.8365659
1.2570743
1.1257298
0.98213345
1.0743744
0.99783833
1.0375906
1.2652292
1.6361542
2.9438139
2.9256435
2.4315602
2.3176355
1.7261509
1.8257313
5.3031244
3.0943788
1.7885848
0.92573125
0.97794714
1.6141725
1.02663
1.3071669
2.0360411
2.5057806
2.7699494
2.3129967
1.7351287
491.25796
1522.8251
2525.6694
1337.8264
451.4147
105.58661
10.862131
1.3022628
0.76839739
0.72086038
0.51795774
0.29523168
0.79601459
0.47771369
0.20349567
0.308488
0.58779893
0.38415379
0.46491792
0.39477737
0.38123717
0.26866754
0.65346819
1.2889261
0.60543712
0.5534335
0.5071084
1.3660917
2.6324126
5.3468197
1.3847207
0.95106669
0.79671635
0.63745627
0.55668227
0.92001522
0.89584232
0.60476892
0.91222937
1.130609
0.69313173
1.0611766
0.8449076
0.89319982
0.7705483
0.75874382
0.72280262
1.8040099
1.1368926
0.95828151
0.98021594
1.1475651
0.97927473
1.0181844
1.2468322
1.5688523
3.2859655
3.1599545
2.9641618
2.1691946
1.7761367
1.5735139
3.5585368
2.6042276
1.8968911
1.22639
1.0435887
1.6377515
0.99942796
0.95885363
2.2262075
2.0319424
1.4236975
1.704547
1.6486568
1458.1425
2992.7972
2047.2293
610.05893
120.90303
14.471529
1.1762365
0.43303305
0.70872915
0.71240651
0.51675894
0.28984441
1.1734261
0.46443363
0.20864338
0.29303002
0.54576929
0.39725154
0.47707597
0.41746134
0.396432
0.26948842
0.61315023
1.0866239
0.54263683
0.57715031
0.47387215
1.6167416
2.8744807
2.3756229
1.415939
0.86716357
0.88526863
0.65396339
0.54298735
0.58046445
0.96358322
0.64887395
0.78341042
0.78743436
0.70403046
0.88015659
0.87946019
0.96795321
0.76792144
0.76770673
0.74350298
1.4839914
1.0252049
0.96984965
1.1234224
1.0778225
0.97380502
1.1079707
1.1926
2.0556179
2.8541962
2.7371179
2.87471
2.2343434
1.5713932
2.2750636
4.8911572
2.6184785
2.0193809
1.2347014
1.0705861
1.5934391
0.99652618
0.98379249
2.0429114
1.7887602
1.0426635
1.2251434
1.5216312
4153.6577
3171.2251
778.7267
140.40898
18.383147
1.8166236
0.50262442
0.38911272
0.78318241
0.77518148
0.52096167
0.30633255
1.4417207
0.45272708
0.21465116
0.28423452
0.5185524
0.41786855
0.49913489
0.42839257
0.33417653
0.26681322
0.53142654
0.91297328
0.57796193
0.59063073
0.45069317
1.3348314
2.361869
1.0446183
1.305176
1.0289368
0.96281226
0.66014636
0.53470915
0.51263104
1.1322073
0.73639516
1.346852
0.93564314
0.78635422
0.98558684
0.96558467
0.88937106
0.85313032
0.74878055
0.74846516
1.0877539
0.99969517
0.98709301
1.0494581
1.2121846
1.1336716
1.2388531
1.5215655
1.4522693
2.9074498
3.4023032
4.3610408
2.3367829
1.6346143
2.5045303
15.285729
4.1882239
2.2261672
1.1243015
1.1182218
1.3827559
1.1636016
1.0867048
1.9522701
1.4382235
0.97426928
1.0632059
1.4872314
7751.9032
1535.4759
165.11992
19.606701
2.3739352
0.51929658
0.47822104
0.42441778
1.0890139
0.90064922
0.5326387
0.34172351
1.5352125
0.42888212
0.22647083
0.28096535
0.4955757
0.4371533
0.53797604
0.45391979
0.29423233
0.26819623
0.47264789
0.77059782
0.64353443
0.59712735
0.43460033
1.2164013
2.190762
0.8811226
1.2493409
1.1854663
1.017533
0.69258879
0.53334714
0.49511459
1.1286501
0.7475402
1.4327077
0.97998712
0.82981498
0.93588121
1.0780818
0.92888638
0.93916891
0.7644311
0.75280103
1.1947338
1.1029368
1.0715209
0.91739594
1.3415024
1.4039206
1.3301197
2.222239
1.4809633
1.4085266
1.8846937
3.5322562
2.1416859
2.0674627
2.3542095
27.824421
9.2294171
3.0365039
1.3173984
1.2815397
1.4080165
1.2431304
1.1471529
2.073377
1.304429
0.95636538
1.0144791
1.4952683
1475.2341
238.68198
18.768162
2.2667926
0.51719778
0.41716045
0.51994933
0.48080039
1.728039
1.0307983
0.55017222
0.36744524
1.4997363
0.39239411
0.23898549
0.28296469
0.48382461
0.46042074
0.59049936
0.48225909
0.28854497
0.27567838
0.4397341
0.63848685
0.71267748
0.60790019
0.43110927
1.180685
3.6894777
0.88290983
1.0986846
1.4217149
1.0293806
0.85771242
0.53527204
0.49723575
1.063631
0.75326657
0.7647083
0.74771594
0.69542269
0.87656887
1.0951098
0.98778634
0.91055935
0.74411298
0.79630019
1.3863765
1.1362491
1.3451819
1.1269853
1.8544735
1.7765469
1.3868696
3.7509512
1.7973558
1.1000123
1.3185036
2.3907737
1.8971574
2.000793
4.5697657
23.836007
18.852011
4.9237405
1.9595417
1.1893968
1.354895
1.3410725
1.0626846
1.5443989
1.1052184
0.95549597
1.0154637
1.4975485
98.865999
20.640789
1.6279467
0.39727784
0.32038729
0.43985737
0.5470001
0.57083989
1.9247842
1.0913124
0.56917748
0.38438405
1.1345647
0.35976378
0.25734693
0.29044808
0.47913803
0.46823744
0.65541229
0.55395554
0.28955133
0.27455183
0.42959673
0.61947773
0.81383164
0.61012622
0.45764845
0.73678936
3.1569915
0.79377967
1.6671069
1.5431588
0.86203593
0.86677499
0.5237219
0.51513947
0.85103439
0.75181466
0.68024275
0.65539877
0.8062926
1.2715973
1.0221546
1.0306781
0.8394496
0.70828452
0.89631439
1.152302
1.0458356
1.5131853
1.3120636
1.6545161
1.7714755
1.4852462
4.1829206
2.4417124
1.291732
1.2788274
1.9580739
1.5930408
1.6357855
9.7639031
34.958216
35.423314
12.623111
4.4818944
1.2076566
1.1286272
1.2438155
0.98140371
1.4154223
1.0461565
0.98940553
1.0600511
1.4063538
3.348899
1.2195211
0.23981261
0.21697978
0.3113927
0.45142373
0.59297393
0.62469363
1.6100729
1.228772
0.59294092
0.38891282
0.62745787
0.33341285
0.2808525
0.3052161
0.46969594
0.46925552
0.72271326
0.70803801
0.30226915
0.26905651
0.40691494
0.57972652
0.91727553
0.62686338
0.51970668
0.53988493
0.89015375
0.66116329
3.2703355
1.5533544
0.74660114
0.80320056
0.50608499
0.53731297
0.75927619
0.79019617
0.80449623
0.6611547
0.89217241
1.0032481
1.0726111
1.1852809
0.91137356
0.72768169
0.94834874
0.914932
0.92089807
1.1383587
0.92738476
1.0168113
1.0250958
1.5274768
2.755421
2.6875141
2.0911487
1.3206877
1.8612866
1.5615955
1.7287405
11.110084
10.298581
15.231815
11.502539
4.2680298
1.6232756
1.0453945
1.0525208
0.86542295
1.3735158
1.0186239
1.0298173
1.154371
1.3161059
0.58986395
0.32130809
0.15025355
0.20442865
0.32187252
0.46863279
0.63526121
0.62626422
1.3441467
1.5038873
0.6450761
0.38318971
0.39931251
0.31302929
0.30973515
0.32952253
0.46646531
0.46773041
0.75387266
0.85299432
0.32734448
0.26986534
0.42207065
0.74570054
1.0544162
0.63494423
0.61076193
0.59211654
0.6017446
0.79568605
2.2100321
1.2745813
0.60456182
0.61303183
0.50306451
0.59083814
0.75133017
0.8791871
0.94719344
0.79604283
0.69566793
1.3163934
1.5042808
1.3744335
1.0170259
0.7795378
0.95336269
0.93991909
0.87876254
0.92027133
0.81780401
0.95806427
0.86437766
1.4047196
1.8049571
2.4457431
2.1079227
1.3456044
1.5767822
1.9370512
2.1142278
9.6656607
10.463971
4.6835902
8.8116275
2.1641674
1.7428102
1.0879185
1.0900025
0.83935469
0.92815851
0.9694884
1.0706164
1.2173927
1.1105557
0.5336065
0.2898985
0.14728183
0.20770571
0.33246082
0.49533345
0.7003365
0.59954566
1.5343839
1.5768292
0.6941486
0.38663287
0.32624358
0.30029822
0.34113116
0.35968879
0.47048102
0.471242