/*--------------------------------*- C++ -*----------------------------------*\
| =========                 |                                                 |
| \\      /  F ield         | OpenFOAM: The Open Source CFD Toolbox           |
|  \\    /   O peration     | Version:  2.3.0                                 |
|   \\  /    A nd           | Web:      www.OpenFOAM.org                      |
|    \\/     M anipulation  |                                                 |
\*---------------------------------------------------------------------------*/
FoamFile
{
    version     2.0;
    format      ascii;
    class       volScalarField;
    location    "3.9e-05";
    object      p_rgh;
}
// * * * * * * * * * * * * * * * * * * * * * * * * * * * * * * * * * * * * * //

dimensions      [1 -1 -2 0 0 0 0];

internalField   nonuniform List<scalar> 
7500
(
-17044.759
-8568.5791
-3727.6263
-2468.041
1453.5916
1196.7489
3091.3929
237.78815
3240.9505
762.27533
2809.0231
-254.09604
1799.1346
333.15698
2240.48
1400.9037
816.77078
1010.3013
-300.75558
1841.5349
-270.6639
3018.0412
12.552812
1914.4558
40.222871
963.25783
578.21514
1526.3565
1838.9728
1103.4106
1887.8886
783.97331
1692.2257
624.1201
2287.3012
242.40831
1507.3702
2263.1453
2070.5787
2013.2108
-151.3585
791.55423
947.58764
2403.2278
2816.1947
2416.8463
2195.661
1612.5918
1204.0087
553.12559
1092.8772
1095.0119
1140.3473
833.97165
-2.9674201
-235.62071
-920.06477
-1580.2818
-2751.441
-1902.6089
-998.11245
154.38568
1861.9714
4519.9339
7441.6036
6945.188
5078.7996
3809.9011
3084.6799
4174.6823
5549.7313
4314.3975
1935.6395
359.83111
535.08127
-16935.076
-8983.3223
-3597.5597
-2059.3395
1367.6491
1058.9508
2873.1063
345.17966
3211.5456
885.80539
2765.1907
-138.81881
1656.7435
428.37628
2104.8413
1506.5058
763.96618
1075.9243
-284.85691
1764.6702
-227.18644
2941.6061
160.37994
1676.0542
309.40186
854.99083
670.62523
1302.8346
1943.1785
1075.5317
1928.3779
922.37105
1539.235
686.94841
2104.8224
517.58251
1378.7456
2336.4841
1894.6395
1934.9027
53.466468
892.58947
1026.1712
2133.3636
2826.8326
2384.6045
2214.1016
1646.5646
1169.8904
620.40337
1193.432
1141.8203
1162.9799
842.24782
-64.532501
-458.91736
-1193.7316
-1489.6181
-2369.7065
-1810.3496
-1213.5616
179.46159
2040.3377
4399.2133
7302.8418
6864.0953
5122.783
4027.0777
3117.2646
4086.9172
5472.2181
4241.2069
2042.7332
510.87401
493.63914
-16723.344
-9413.364
-3619.1387
-1594.2533
1362.1741
917.00752
2561.322
539.78091
3075.2596
1157.379
2581.0222
66.283841
1475.8139
535.68083
1990.5893
1515.5112
816.7231
1037.2937
-153.42373
1567.0063
34.399689
2582.3774
463.72725
1437.3933
475.73838
794.19963
773.25788
1207.7851
1860.5336
1181.381
1785.3156
1194.533
1382.6392
779.80516
1900.2412
733.31722
1339.8934
2333.0577
1827.2602
1654.1521
287.53792
1051.7968
1210.529
1930.9762
2673.1561
2408.347
2209.7946
1598.8397
1142.249
726.61548
1338.8985
1099.1795
1187.4671
993.80454
11.296836
-768.10604
-1581.5237
-1537.5652
-2120.8253
-1719.4852
-1150.4978
354.42766
2046.9466
4338.493
7147.3202
6696.9254
5185.595
4203.8016
3092.2979
4192.9511
5521.0033
4038.7359
2038.5646
724.44076
548.88643
-16401.329
-9922.473
-3636.7372
-1115.7773
1345.641
895.87392
2118.5008
799.44738
2894.9907
1481.4426
2305.5336
382.8699
1170.4956
750.63831
1828.1993
1495.0509
937.82104
889.64032
127.86678
1186.7322
520.75476
2088.7049
771.24183
1177.7477
669.2831
736.35471
839.04452
1231.7949
1666.3165
1359.1926
1533.0699
1525.855
1186.6832
1005.776
1683.2434
807.06111
1433.5871
2244.6153
1761.2045
1358.4873
546.79647
1157.0392
1475.7698
1832.6345
2436.3121
2368.9351
2210.7733
1596.212
1063.9926
836.97129
1489.3712
1042.0996
1248.7877
1096.4079
206.27309
-997.71558
-2034.18
-1689.1925
-1995.3302
-1748.4287
-999.94112
714.25782
2138.9787
4373.1132
6869.5731
6390.8886
5238.3848
4395.4014
3140.4733
4349.2452
5530.3579
3842.6515
2087.1628
960.34729
601.14564
-16115.265
-10446.081
-3595.79
-641.37849
1343.1967
882.98553
1694.5124
1037.9859
2708.4366
1859.6262
1950.1098
749.51163
852.45562
998.41867
1634.4484
1476.8712
1078.0298
703.22849
461.42159
773.37152
1012.2981
1650.0113
1041.1557
883.29765
861.32169
705.1067
892.74788
1300.141
1476.1085
1498.2036
1240.4828
1851.8368
1023.313
1269.2386
1516.9469
847.65148
1520.3636
2130.2594
1630.3946
1087.5026
835.05183
1221.6519
1811.881
1764.1702
2202.1737
2324.2719
2088.6331
1632.2443
1053.0501
937.3505
1591.3638
1009.362
1363.6492
1099.4108
437.64499
-1111.8981
-2486.895
-1963.8685
-1953.6732
-1893.6335
-815.40822
1172.8019
2278.4345
4506.2132
6573.583
6071.8908
5276.2608
4456.9577
3306.3507
4543.198
5354.5207
3754.8447
2326.3728
1218.2674
581.57031
-15995.487
-10872.17
-3499.874
-187.18981
1380.4388
793.92768
1353.1163
1251.1994
2540.9535
2203.6785
1645.7414
1029.9847
631.64198
1205.329
1476.975
1402.4267
1228.5767
578.32114
672.89792
522.30503
1348.0334
1330.8284
1242.2698
679.06332
931.29732
688.25825
966.81397
1410.8579
1354.3676
1524.1617
979.63688
2038.6274
985.91105
1527.1319
1396.157
932.3314
1567.9707
1961.7159
1454.4808
874.48347
1089.3699
1319.6624
2153.0943
1751.3454
1980.3172
2235.5733
1903.9093
1639.1014
1075.4939
1115.082
1638.6714
963.26733
1568.7292
1090.7019
589.78318
-1241.3707
-2728.1243
-2272.8401
-2163.1907
-2236.8098
-491.92279
1788.2314
2369.1204
4553.5909
6316.7862
5927.2693
5349.8648
4354.4039
3582.409
4718.868
4944.6624
3673.4184
2694.8072
1590.4006
525.36966
-16089.793
-11137.182
-3305.3017
213.27462
1396.9596
687.43814
1039.3754
1450.4507
2462.0657
2402.8895
1464.1705
1208.9757
511.4595
1324.0982
1412.1515
1269.8351
1340.1879
558.74925
744.11688
418.42561
1540.479
1155.9367
1298.2895
630.26391
896.53008
668.89993
1028.6066
1558.5719
1331.4326
1443.1896
782.98691
2024.6451
1023.2372
1832.0822
1358.1796
1032.9519
1584.6311
1690.0549
1222.1037
800.80785
1291.3514
1490.0785
2432.9909
1817.442
1848.6329
2002.6732
1697.4493
1642.3234
1032.5917
1385.2322
1651.2646
947.37317
1854.7267
1106.8694
643.49873
-1450.3754
-2649.6087
-2503.7376
-2640.2831
-2783.9748
-188.39354
2414.1934
2621.5075
4485.0561
5966.0807
5926.7291
5396.3389
4391.0866
4183.7299
4720.9229
4330.6793
3525.6657
2990.7973
2077.7056
474.65028
-16402.889
-11200.919
-2996.4162
529.172
1334.3099
597.74779
783.53101
1597.803
2489.3948
2499.7559
1343.3732
1309.2387
513.01636
1329.0376
1406.3751
1148.0658
1406.5796
571.01445
774.67031
404.54032
1604.8849
1082.0082
1285.7666
676.85953
777.256
652.70523
1090.7976
1705.4435
1384.135
1330.5784
621.27878
1862.9397
1059.1228
2183.5203
1417.6379
1258.378
1471.5103
1259.7509
965.27509
850.71091
1461.544
1730.7476
2597.654
2011.2064
1875.9811
1663.7035
1447.2123
1567.6797
1034.899
1633.7845
1521.1248
1140.2374
2165.365
1115.9708
572.55937
-1651.0138
-2176.7133
-2660.5623
-3344.865
-3240.8651
50.789679
2681.3891
3019.2882
4313.7148
5609.6762
5996.347
5188.0339
4840.481
5195.824
4479.3869
3814.1872
3413.4778
3159.3079
2543.4945
398.80187
-16906.714
-11047.244
-2618.7535
764.97164
1188.6561
503.9694
650.95686
1693.6673
2561.5429
2550.6041
1271.8264
1319.4906
601.97628
1300.6705
1386.3348
1052.156
1467.9995
571.15403
786.29379
494.74642
1559.1323
989.81821
1330.6573
786.21853
582.67825
575.04361
1208.2738
1848.5628
1496.3552
1228.8564
467.12867
1600.8414
1070.572
2516.7463
1580.6304
1748.2855
1161.2354
654.09014
729.99111
1015.7281
1514.3783
2025.4633
2535.0368
2383.1036
2168.609
1212.0848
1261.0367
1292.5944
1203.5042
1770.5786
1080.6
1655.2383
2412.1624
1150.1985
278.52209
-1843.0863
-1184.3804
-2611.6111
-4380.891
-3439.4816
445.55102
2652.8713
3346.6341
3725.4778
5351.3767
5974.1028
4613.85
5805.7314
6246.6414
3988.9335
3754.3706
3314.1034
3302.5417
3018.88
418.46842
-17556.112
-10689.404
-2218.6529
912.56861
991.76445
407.0851
604.8885
1797.0141
2641.9237
2522.7092
1272.9668
1278.7568
701.91676
1276.7979
1373.226
970.43519
1483.5761
591.93756
796.27328
666.32843
1431.8283
830.05957
1463.8013
946.15718
357.0475
404.96983
1376.2911
1940.672
1765.3347
1103.3335
301.48181
1270.7751
1129.2736
2560.3907
1938.4261
2612.6053
589.41867
4.9961852
514.18732
1302.7832
1428.1837
2276.8245
2169.1081
2861.7914
2729.6976
893.65042
1144.7118
772.77973
1559.8313
1643.8968
378.13206
2444.0834
2416.2438
1167.2135
-275.39554
-2095.9678
218.67354
-2163.5556
-5584.0376
-3345.9886
799.99185
2511.1783
3660.473
2706.9104
5098.4526
5326.5553
3720.0114
7397.5239
6654.7382
3477.5708
4288.3586
2969.5253
3411.39
3426.5618
600.95997
-18286.367
-10177.838
-1816.1754
942.58443
770.56383
335.02686
588.50814
1924.4265
2745.1869
2410.0058
1312.1346
1220.9913
830.00447
1202.365
1389.662
956.97676
1410.2151
553.32088
924.37388
898.18291
1178.4016
640.27017
1675.2343
1158.1792
81.526242
225.44106
1565.9355
1879.9478
2262.5035
970.00201
98.244443
865.54155
1377.171
2024.8165
2467.4715
3870.6166
-203.19925
-548.72623
432.03115
1495.397
1271.0971
2441.1864
1375.4866
3460.5207
3170.7281
1249.0141
1148.9205
-50.668457
2094.4641
1032.3534
-408.00738
3185.2458
2054.5785
944.20741
-1115.6943
-2553.5903
1436.2475
-1417.2706
-6325.483
-2861.6341
740.70106
1986.6844
3741.1857
1813.4392
4284.7723
3515.1347
2821.6885
8305.0825
5564.8587
3330.834
4384.5067
2192.691
3408.7549
3247.7093
1261.1569
-19061.803
-9569.8735
-1418.1146
852.50467
541.01338
292.86213
611.71133
2058.8165
2840.4588
2284.5349
1358.2976
1115.109
1035.0313
1078.7913
1381.8198
1062.0148
1295.8335
309.47073
1240.8097
1242.7404
745.02689
453.0609
1923.7162
1456.7737
-311.40615
203.15419
1658.0128
1670.5918
2885.4064
932.07891
-138.60086
464.55765
1740.8713
865.45276
3111.2705
5100.1973
-883.68962
-967.37174
596.21143
1292.6033
1027.1371
2404.022
150.9636
3666.1457
3099.0628
2447.6088
1305.5744
-861.11096
2347.302
-210.9349
-970.44506
3123.0895
1256.0895
191.36339
-2329.6827
-3030.2838
1086.4679
-591.33263
-4580.496
-1984.8693
471.88057
1430.1527
3850.8339
2002.3191
3203.9467
1947.6343
2816.9164
7813.8902
4579.2177
3815.3257
3978.1374
1642.8311
3465.7403
2547.9055
1175.1499
-19882.65
-8895.0488
-1042.9683
675.26403
321.48207
252.21534
689.90466
2231.1746
2851.1905
2188.1524
1437.787
941.07922
1291.4355
965.59068
1306.653
1299.2698
1158.8095
-161.44618
1714.1541
1700.4563
178.22645
265.39925
2131.4476
1853.2103
-885.92283
507.93555
1464.8942
1362.0034
3306.2217
1104.1734
-507.73433
341.28639
1869.9423
-863.30025
3544.3626
5397.3563
-999.66833
-1186.8687
784.93451
608.8024
708.85924
1749.1705
-936.01166
2649.2901
1991.7818
4816.8223
1995.9771
-799.1422
2209.2209
-516.61248
-700.00369
2792.1582
909.51221
-412.34528
-3279.0552
-3457.9797
151.67076
-2127.9076
-3399.2155
-311.66426
989.18162
1518.6299
4160.3203
4318.4137
4421.3883
2717.4257
3609.8974
7853.7137
4197.1671
4634.6558
3979.1455
1625.4649
3884.0895
2119.6418
1168.4441
-20714.832
-8172.2015
-716.36017
445.80577
140.63126
184.35935
799.56768
2490.5061
2750.7452
2097.6264
1567.2683
726.54325
1556.0643
897.94714
1138.9053
1719.1217
952.79181
-828.28149
2298.9608
2179.4309
-429.76147
46.003965
2171.4723
2177.9811
-1539.5458
1053.5999
930.86645
926.72026
3002.7293
1524.4219
-1068.5456
514.62522
1433.2073
-2593.9332
3240.0631
3855.6693
288.40317
-335.62425
820.45361
515.68131
853.71149
1420.6175
-1240.3388
1655.6242
80.359186
5544.6161
3451.8536
-246.86923
2507.0765
-25.861419
139.58734
3578.5021
1489.8757
478.47175
-3264.2649
-3579.5054
30.480339
-3198.8552
-3028.1595
207.71483
399.37103
1510.0009
2182.0827
1323.5482
3907.0654
1372.5644
4632.2612
8075.4412
3822.1178
4548.114
3691.7726
1405.9034
3860.2031
2264.0235
1318.967
-21520.28
-7409.6015
-457.79152
194.46703
16.488029
90.588023
911.60862
2833.3922
2575.781
1987.9028
1739.4489
473.70056
1821.9182
905.87828
818.25082
2351.3067
667.9422
-1639.5475
2754.7547
2583.6533
-1028.2587
-213.39499
1800.8231
1908.095
-1843.3318
1497.4446
155.35592
187.70038
1882.1113
1942.5309
-242.20683
1060.5412
1379.4495
-2818.5327
3042.1477
1886.0454
625.20603
1053.4587
1198.5735
922.45195
1629.3211
1914.8385
-588.84364
1736.6655
-129.03832
5728.4749
3117.1634
61.448198
1707.0411
-1546.1011
-382.09614
2917.5662
831.36284
-348.54555
-3139.625
-3216.4332
342.99961
-2908.0496
-3204.4337
73.609974
595.39098
1246.4693
2984.9595
3853.8923
3427.6176
2132.2085
3922.4899
8085.7154
3616.5145
4501.4921
3753.2745
1698.2913
3797.3946
1995.6453
1230.6235
-22260.618
-6613.0185
-281.38152
-40.868311
-65.427296
-7.1089096
1015.2005
3229.6583
2356.4467
1846.9306
1966.9051
146.34467
2048.6892
994.47317
353.27993
2950.609
368.86223
-2457.0421
2616.0144
2675.2564
-1517.5303
-425.38807
781.23249
740.31292
-933.25139
2109.744
241.78647
103.09391
976.61768
1702.5307
580.02533
1969.883
1926.3428
-2139.0991
3426.2468
1781.9156
630.81763
1335.7197
729.09983
49.883916
779.73027
1185.3452
-1285.0875
1492.4469
-170.47113
5888.8379
2776.2433
-214.10019
2449.7203
-181.84745
-28.318076
2258.353
828.61355
251.73537
-3171.9532
-4007.9856
-15.465356
-3248.0903
-3299.433
102.74007
509.57461
1633.2544
2374.6043
3588.3603
3923.8718
2378.6078
3599.2617
7692.5345
3112.4963
4322.9584
3614.7379
1420.3586
3799.9358
1921.7714
1183.0028
-22877.421
-5825.4117
-177.71018
-255.79497
-98.454848
-122.53121
1120.0255
3661.1161
2108.3097
1669.331
2182.7254
-179.47475
1995.8114
1079.2638
-89.401604
2832.2203
218.11227
-3127.8307
1774.6947
2045.4034
-660.77273
71.053218
679.65006
-407.80765
-315.94495
3034.281
883.24549
711.49333
1094.0181
1565.8181
535.72901
1448.4478
659.1674
-2944.2794
3262.9521
1653.2736
615.27641
1383.5496
1130.9964
543.71035
1248.6747
1446.4762
-1036.6723
1725.2656
-20.241035
5725.5206
2868.5096
-30.748988
1796.3069
-1356.6982
-446.06018
1224.8094
388.32577
102.47079
-3138.4002
-3940.3001
-398.49428
-3132.611
-3204.408
140.59987
605.61961
1743.9273
3312.8289
3847.6043
3589.4863
2385.8993
3590.7093
7389.4259
3209.9757
4290.7519
3422.692
1795.328
3771.7764
1777.3927
1098.0838
-23394.613
-5094.7944
-137.21418
-490.97414
-17.769481
-336.07877
1301.1824
3995.9419
1975.859
1380.4782
2157.2524
-284.25685
1131.1648
1117.2728
-413.35334
1767.9452
440.80638
-2432.9972
1879.5451
1387.4179
26.769606
947.96129
1203.0617
-475.33152
-320.97075
2757.7941
-205.64004
82.958309
925.61323
1610.6093
573.22001
1842.0011
1422.964
-2256.3088
3124.6939
1441.0751
541.63182
1297.2165
1047.9804
335.35077
830.47314
1297.9534
-1185.6556
1421.6408
-477.29848
4335.1964
2907.3741
-569.00739
1470.1487
-493.21577
-783.96813
504.09289
507.47455
153.79205
-2935.0142
-4302.5451
-771.49645
-3189.8864
-3059.3734
230.75665
630.95426
1765.1769
2664.6497
3778.3473
3658.6407
2656.0132
3585.8499
6732.4551
2747.7344
4242.8655
3477.9647
1941.811
3641.462
1622.3712
1024.3752
-23886.599
-4413.7609
-197.09675
-752.79674
175.96227
-667.82625
1640.4393
3928.6943
2233.3556
733.8235
1754.8474
-168.95887
-497.14156
1115.4905
399.3224
1567.8842
465.54758
-1600.1765
2593.3813
1304.2943
-146.01288
484.32
428.74454
-810.44467
-349.72127
3065.733
188.82157
285.36664
900.91689
1531.1541
541.64622
1441.7702
858.55081
-2853.5916
2989.1946
1105.1059
491.75536
1335.7786
1144.7685
518.15572
1089.7725
1327.471
-938.75577
1360.4114
-1195.2657
3297.9051
2866.5041
-1161.8102
613.34689
-1177.9162
-1225.5635
116.03335
408.29161
156.978
-2743.0636
-4447.2706
-954.78334
-3083.1159
-2905.7607
432.67602
804.21589
1643.68
3350.7676
3862.4998
3397.1544
2637.0778
3261.4218
6334.2415
2633.3587
4056.3384
3378.2755
2211.7794
3518.5134
1431.8941
934.91694
-24365.66
-3723.1373
-410.99115
-977.09537
305.0809
-916.66899
1992.7297
3316.8007
2751.7112
-158.60753
961.36775
626.08615
-507.17127
985.43897
1378.0059
1955.6474
278.36278
-2075.1532
2066.7068
1083.1485
-94.501688
777.49364
652.48247
-727.62239
-406.35673
2907.1748
29.065033
211.56809
877.87291
1384.1448
412.30394
1593.8365
1046.4718
-2079.0522
2518.4366
699.86796
355.08534
1284.2372
1123.2272
342.28012
874.21873
1342.3517
-1229.3044
1615.1933
-666.17829
2905.0122
2900.6757
-1745.4351
-0.84191291
-1072.0018
-921.40477
-273.09383
90.05581
123.93199
-2651.2239
-4785.2802
-1128.0573
-2994.1137
-2586.6406
702.26502
968.29931
1552.5484
2559.7891
3903.8334
3178.7286
2366.7333
2958.0007
5984.6498
2339.4967
3807.7266
3138.7347
2244.6007
3295.7162
1228.4404
832.83483
-24776.926
-2959.9481
-769.88745
-1102.3556
134.76709
-795.24067
1982.6592
2416.2577
2744.5909
653.56685
534.98753
1553.4336
142.01036
837.09361
762.8187
1470.3159
188.23955
-1787.3383
2251.3174
988.83369
-154.54148
637.06981
507.57818
-706.13182
-388.29838
2947.3639
99.653149
225.60145
867.19785
1215.1201
253.67656
1196.7173
893.64765
-2113.3652
1699.5224
448.68744
325.37104
1167.0815
1092.8016
437.5032
1014.6418
1350.3367
-1159.8809
1624.5352
-1009.4768
2938.5042
2856.9495
-1790.2298
76.51743
-1268.4282
-830.40417
-797.49153
-313.96451
16.813987
-2681.3087
-5357.0642
-1695.8107
-3421.3509
-2584.8252
864.43011
1192.7884
1736.6667
3080.1697
3691.9011
3375.6333
2847.9879
2831.4676
5600.901
2193.4304
3717.0592
2911.8203
2221.7343
3142.4104
1077.3256
754.28425
-25064.2
-2106.1724
-1129.6422
-1141.9934
-380.53689
-340.08895
1578.3463
2021.8977
2713.8892
1860.7781
595.95545
1177.0496
-221.72694
720.92237
1011.1397
1604.9991
191.98343
-1976.3563
2119.4789
926.6933
-127.73567
680.43559
583.02496
-690.33286
-441.7335
2778.4154
-4.0295327
27.900578
835.58314
1059.2751
34.498061
1224.4874
940.62266
-2144.8851
901.73802
281.32429
441.48222
1102.072
1049.5779
405.42251
910.13412
1206.0697
-1638.3488
1378.7753
-768.53314
2860.4534
2383.6402
-1502.6009
895.02481
-1976.7527
-915.60223
-759.97494
-715.72322
-115.5423
-2849.2552
-6070.283
-2080.9781
-3397.1437
-2329.7217
1014.5536
1594.8268
1693.2063
3329.0363
3238.9638
2162.8499
2924.1223
2695.1594
5141.2233
1833.2447
3605.8409
2839.3771
2172.6658
3011.025
924.78617
682.96195
-25292.391
-1204.1066
-1188.2159
-1171.2344
-969.83571
-149.10991
2270.3113
2133.7198
2776.0566
1558.5135
429.15639
1158.025
-61.241763
702.70817
873.64869
1547.6349
231.91283
-1825.7727
2048.3061
884.92696
-89.391132
625.36249
522.75586
-751.89534
-535.79561
2506.4057
-142.98943
-16.644886
852.80702
943.9506
-276.93266
976.56476
800.90924
-2128.4975
342.01971
202.21526
547.13957
959.46026
1095.8179
463.89067
1023.6256
1122.8794
-1796.8004
1184.9187
-1022.5289
2282.3551
1589.5663
-1485.747
1529.7076
-2096.178
-1236.4253
-460.79107
-890.55831
-882.61567
-3521.8123
-6823.544
-2576.5378
-3628.2747
-2292.7873
1474.2379
1926.9329
1848.1687
3568.4053
2565.9287
2359.0204
3014.7598
2453.9675
4669.8464
1604.181
3457.4775
2859.0649
2138.345
2836.3261
743.52149
602.60788
-25842.057
-352.51827
-599.34001
-1254.0096
-1171.672
-106.69563
3314.9132
1940.9915
2386.6893
1537.7396
483.22996
1092.085
-98.484251
701.58015
859.64029
1581.7951
239.40129
-1829.4878
1904.3988
820.58602
-71.13601
642.87786
593.89769
-830.26682
-683.30898
2157.1012
-345.39985
-186.62142
820.03737
877.87344
-490.36748
913.65062
802.96159
-2244.443
73.129875
286.80881
684.92443
881.86703
1045.0002
399.85593
1033.2882
972.15078
-1583.7816
1260.5087
-1451.4645
1843.915
894.10358
-1865.9346
1849.889
-1886.8002
-1270.092
-105.66149
-367.14283
-1326.5675
-4683.8376
-7755.3926
-2972.7467
-3613.4763
-2273.3309
818.87703
1842.1737
1767.7852
3856.8717
1881.9409
1552.2505
3045.0974
2464.3037
3996.924
1295.3111
3163.5407
2694.2211
2121.3441
2736.4134
534.15935
494.58884
-27388.274
334.70408
590.65681
-1321.6176
-943.09219
-76.435533
3151.7076
1988.4867
2437.7601
1495.0005
449.48598
1085.5081
-64.983857
713.89648
795.05665
1583.7225
236.17525
-1819.1194
1761.0709
770.35492
-58.110199
601.42133
562.5978
-884.76316
-819.80092
1796.1007
-504.75801
-186.6126
706.81533
786.58529
-458.86505
799.42573
663.03076
-2089.2899
-55.819422
308.03347
834.83233
813.07562
992.20721
423.66637
1084.3741
880.75005
-1451.1088
1224.4792
-1168.9008
1584.7578
452.00119
-2447.0437
1736.6682
-1452.6611
-1129.0446
-200.443
-86.772352
-1196.4784
-4602.8324
-7279.0899
-3384.4637
-3916.6806
-2540.9931
517.05028
2068.6892
1986.2806
4242.5076
1652.1022
1171.1362
3168.838
2691.7184
3423.0389
1049.4085
2846.4655
2537.0458
2105.2826
2642.6175
325.32743
385.97962
-29710.051
616.63352
1264.3925
-1124.6217
-901.63559
-225.4955
3143.849
1992.7385
2388.7406
1438.2989
444.24114
1076.4096
-59.566526
671.47746
749.26263
1611.1136
174.10406
-1844.4047
1606.9114
710.59405
-33.498698
591.86761
578.74531
-929.14052
-906.20059
1606.2293
-646.05533
-211.54242
406.47734
714.83003
-143.21844
776.10693
599.18482
-2055.2656
-52.761381
357.44575
908.33531
727.34199
864.44922
438.93322
1233.9411
780.06405
-1690.2129
1078.0098
-1087.7292
1370.7308
222.95539
-2874.3736
1396.1544
-1236.4209
-841.16739
-140.18943
-20.741097
-1242.5668
-4763.6024
-7101.7816
-3532.7354
-4422.7116
-2403.3946
436.78585
2079.9726
2308.9054
4750.5048
1937.6372
1045.1183
3057.2212
2527.1262
2814.8152
1037.1428
2455.7332
2325.1513
1964.8763
2514.4151
118.64042
266.25182
-29371.045
-382.71156
691.37224
-782.6654
-943.01429
-286.42838
3122.0849
1984.0427
2390.7945
1365.3285
408.16565
1067.9861
-58.696233
617.86234
693.35524
1633.9854
115.62014
-1875.5793
1457.9465
650.2173
-6.6309134
552.30389
581.13789
-839.56934
-934.21909
1525.9939
-749.85556
-262.51105
61.776385
694.41708
334.25915
717.97938
481.55399
-1994.1328
7.4616145
370.41475
876.66076
632.20728
840.94205
447.0202
1212.5473
718.27466
-1337.7413
1103.246
-996.38925
1388.7592
166.66376
-2977.596
1016.667
-1064.0421
-629.75434
-95.496618
-209.77911
-1328.264
-4922.2373
-7615.9837
-3669.914
-4797.7125
-2585.7593
354.28882
1898.6176
2619.9976
5135.2418
2013.8966
1197.3864
3015.3367
2188.6304
1974.4037
650.37248
2027.6378
1929.5871
1649.4041
2237.7812
-144.14029
116.49205
-20111.617
-2841.6366
172.02861
-617.86412
-952.35438
-314.40553
3113.3964
1973.7901
2387.5848
1285.3109
364.16256
1060.5168
-65.672094
550.01284
647.8388
1651.2554
34.812091
-1914.1756
1316.0994
605.28932
17.070538
531.87625
575.25402
-700.38142
-915.11486
1474.6454
-816.45987
-334.8363
-166.24754
633.66969
617.73326
679.93424
397.78513
-1836.0186
76.346483
379.3013
736.5507
593.85082
849.05009
465.55542
1212.3708
719.80654
-1404.089
1078.9837
-859.97082
1626.6106
-130.94066
-2747.9364
950.48218
-1006.8469
-494.99899
-42.618294
-314.45024
-1362.1924
-4749.6912
-7357.1529
-3677.9226
-4849.5403
-2518.0988
224.9805
1760.7738
2737.3168
5279.5756
1982.5829
1086.8687
2687.859
1942.493
1186.8451
322.22554
1735.4218
1647.0184
1319.5811
1733.7328
-436.37209
-54.833634
-2252.4724
-3793.3668
87.845165
-700.49518
-961.56542
-324.62101
3080.9527
1963.5066
2387.8757
1202.6327
302.02345
1058.7111
-70.049859
480.35698
587.87403
1669.462
-52.475395
-1947.4172
1185.7638
511.33054
30.24604
507.05637
570.53494
-582.69215
-919.06357
1435.4421
-788.63896
-246.55307
-193.96642
522.69293
645.68355
658.92353
307.7596
-1660.3335
154.06566
380.41375
506.42195
519.45321
867.77671
481.19745
1236.7437
702.14137
-1378.5386
1053.1474
-455.19572
2077.1264
-802.85816
-2550.0997
1032.2943
-997.66162
-388.45389
-35.934543
-393.77065
-1361.5774
-4502.3178
-7905.5159
-3628.2086
-5941.7188
-3657.0478
208.03492
1684.6382
3076.2923
4831.2371
1410.9483
1021.4522
2972.648
1728.6382
976.35543
143.03686
1454.5423
1529.4165
1169.7869
1280.1331
-630.80562
-212.68064
2068.8988
-2238.3179
23.471929
-709.94409
-948.87403
-335.85884
3033.8563
1951.8391
2387.2042
1119.0286
224.00785
1057.1895
-74.243266
414.98395
537.29392
1687.6462
-150.44509
-1989.9648
1073.0578
444.58925
46.749185
479.79561
559.38471
-487.04133
-930.54287
1409.6534
-707.25416
-155.63555
-98.9945
367.12784
554.25123
646.27846
243.62718
-1472.0233
242.14044
325.34464
236.25145
439.23627
869.55921
443.80218
1248.7573
729.1029
-1286.28
864.84994
-497.65725
2370.4014
-1404.1968
-2221.0856
1316.1896
-1027.8994
-448.29939
-300.03428
-572.13825
-1093.2065
-4649.5648
-8317.5482
-3599.0905
-6331.345
-4518.8876
-185.40314
1422.4299
3448.6716
4982.7803
982.20833
1161.3485
3035.3997
1538.8792
894.44289
-520.61841
1236.751
1483.9343
1202.8742
1101.9936
-761.25994
-303.62987
-7091.2203
-1294.2672
70.214103
-691.25415
-934.07035
-355.50535
2977.2388
1937.2937
2385.5186
1032.0662
129.03901
1062.7419
-72.727155
358.53439
484.3526
1703.4404
-245.27317
-2027.389
968.26336
380.40748
58.416964
445.06264
549.12902
-383.21246
-917.59598
1409.8747
-610.86238
21.41152
-17.926166
199.43155
471.01229
618.38643
167.43386
-1275.0932
284.70424
122.85844
-77.13007
392.97127
874.62828
421.68495
1234.252
745.77983
-1254.8297
873.52673
-398.70267
2467.0934
-2065.8134
-1829.4284
1656.0665
-1074.9798
-331.53886
-354.19034
-677.5855
-909.36751
-4998.77
-8722.1389
-3696.5023
-6434.9831
-4163.5413
-686.06175
981.85108
4012.1347
5225.1508
287.81592
804.41826
3585.2213
1554.2749
1053.7221
-710.6233
1253.3452
1388.556
1158.193
952.67465
-845.58701
-330.31324
-7178.9223
-1507.8214
107.5378
-654.52791
-918.9406
-383.21169
2907.744
1917.2516
2378.7158
934.78418
10.605115
1072.2376
-63.250434
313.25708
429.78665
1718.3404
-335.50948
-2065.0471
867.53168
320.4059
77.180738
406.4359
535.7946
-290.50472
-906.9365
1393.2866
-517.46339
158.70298
42.487307
177.20203
397.22778
554.43021
99.999277
-1144.932
304.99829
-77.186355
-321.20395
365.16679
879.87023
380.539
1235.5039
907.38921
-980.3819
999.3327
-342.13411
2434.8409
-2365.2152
-1420.2508
1806.178
-1118.654
-388.99942
-352.91327
-697.55663
-781.94694
-5244.6302
-8916.639
-3763.4941
-6229.1725
-4098.1015
-864.82672
484.32996
1805.4688
4987.7319
823.62109
356.74609
3749.5075
1268.9989
1337.4772
-411.93837
1419.0663
1242.4089
1007.1313
752.53703
-850.15723
-333.09806
-7005.2897
-1390.2252
155.95527
-616.33333
-907.10828
-418.01977
2825.51
1887.9519
2364.5333
818.83383
-137.59803
1083.4028
-53.902994
283.56903
373.95059
1736.845
-405.93792
-2093.497
799.67442
277.20877
114.98761
365.91174
521.60636
-208.94267
-919.03043
1357.6441
-441.04475
303.6179
136.65613
342.86983
327.06995
421.1071
42.441325
-1033.3399
291.34883
-326.16888
-512.46043
390.37099
885.36765
312.30923
1215.3259
1087.0632
-813.14987
1078.2426
-349.97006
2257.8922
-2271.4519
-988.64994
1841.2163
-1117.2659
-392.40426
-392.46658
-837.12248
-712.35606
-5439.7434
-8886.3915
-3851.2737
-6170.168
-4002.4562
-918.10326
169.67756
-481.52045
4869.4521
-409.40792
-1801.8813
3769.9911
1077.4889
1508.9539
28.676826
1464.2145
1186.4927
857.15011
602.04638
-784.68394
-325.77841
-6660.5342
-1337.3668
204.55693
-580.01577
-899.18973
-458.8592
2730.8425
1845.9637
2338.6233
675.26149
-315.3538
1092.1045
-31.416952
270.75224
319.19357
1734.417
-481.97952
-2103.7338
701.90608
197.57657
113.91136
324.23098
500.86761
-138.05496
-924.27608
1318.9157
-365.94937
416.523
258.43678
456.76045
247.27079
341.55467
-2.5161693
-915.15832
268.37205
-551.98782
-629.81395
431.39914
898.17049
278.38665
1174.1688
1228.2616
-585.67749
1182.756
-199.97827
2177.8266
-2238.4297
-753.76653
1784.9793
-1083.6369
-532.44004
-435.15926
-836.9145
-799.14341
-5646.2906
-8570.4832
-4004.1301
-6032.0097
-3956.0568
-1057.8481
63.916576
686.00729
5206.4643
-1594.6274
-2833.8549
4157.235
930.60259
1645.8568
394.9202
1363.3637
1179.6511
794.66327
479.06215
-778.41698
-322.97202
-6299.6821
-1228.194
253.87901
-546.96574
-896.02466
-504.24669
2625.0058
1789.7804
2298.7568
505.2129
-510.95119
1093.7922
-11.013115
275.16576
262.79616
1737.2569
-539.81188
-2085.1192
641.26232
147.45502
136.39066
281.83847
482.11882
-69.871803
-920.94795
1271.1703
-310.93702
517.89191
339.70228
388.5256
164.4568
365.73488
-30.149928
-786.93234
239.99813
-746.27407
-676.16514
488.50017
912.99245
288.14261
1177.0327
1307.7864
-375.41939
1092.1529
-14.58933
2305.1117
-2155.8405
-684.08156
1322.271
-999.99545
-518.67114
-482.32539
-1018.4561
-1016.9874
-5831.3675
-7964.8749
-4196.2341
-6263.7792
-3946.0937
-998.26214
65.078269
2628.9202
5469.6839
-1467.7188
-1929.4815
3981.7626
660.47054
1754.8418
915.60582
1450.0681
1191.0941
809.17353
403.05381
-787.36142
-285.60349
-5890.2222
-1177.5829
301.57915
-516.71243
-897.90172
-551.9862
2508.9536
1724.6137
2245.3309
329.4941
-696.61799
1091.3831
18.258131
298.84332
212.13741
1732.4119
-595.00488
-2068.4844
579.76561
89.058488
148.6848
237.84231
464.14191
-5.6110518
-904.72948
1216.7835
-285.18472
583.18317
403.13254
316.60756
77.407979
472.69446
-35.464428
-654.06994
227.5275
-927.23641
-708.61028
491.24996
890.77232
281.51628
1151.0461
1315.8624
-253.65333
1151.4094
101.06554
2319.0622
-2071.2129
-682.93339
914.51249
-711.62351
-657.33261
-507.53167
-1183.6025
-1164.5708
-6121.1399
-7841.7202
-4381.6718
-6405.834
-3953.1857
-965.4833
-51.570957
831.36496
4252.7431
-2195.6871
-2766.6515
3854.1153
-167.05811
1753.2135
1536.6629
1650.4299
1201.8007
789.57891
346.44224
-729.23397
-230.44241
-5502.5951
-1042.0305
344.51697
-496.23599
-905.92049
-599.98648
2382.6391
1660.5401
2184.6964
178.62534
-838.02263
1056.9965
33.727412
326.72752
165.4102
1716.713
-607.79952
-2032.1631
519.51146
32.951966
150.70903
193.25599
449.41858
65.917335
-823.19775
1160.0898
-246.03206
649.58438
453.24229
289.34748
4.7166485
515.96276
-51.015868
-511.97937
251.50647
-1133.252
-768.46868
460.561
879.58094
306.22327
1131.9132
1238.4851
-103.93268
1191.7869
148.02846
2255.1124
-1963.5779
-731.17556
822.97518
-573.92206
-765.40648
-528.99534
-1272.3846
-1199.8562
-6273.0757
-7842.1019
-4426.866
-6276.3055
-3818.1397
-1076.6791
-168.61185
201.83832
3509.7409
-2733.493
-4219.5188
3828.1042
-597.95154
1845.7528
1849.8108
1858.7682
1221.5074
728.59633
262.17426
-750.06779
-174.46213
-5080.5343
-1016.3184
384.24134
-477.57639
-920.43877
-646.85131
2246.1468
1603.1598
2124.3057
66.182864
-934.98704
1022.6145
52.861802
367.07754
125.4299
1688.8413
-608.62191
-1976.7529
458.70528
-10.666018
147.03566
144.01219
432.75959
146.07578
-692.02084
1072.63
-213.2956
687.54006
428.63399
308.82055
-19.423162
494.95225
-75.262334
-381.83308
281.01675
-1457.2887
-866.76
471.30522
846.22001
330.52048
1113.4206
1169.0859
-55.233471
1201.3579
160.38448
2196.3011
-1729.3329
-742.25112
737.79372
-498.30429
-831.7597
-525.73808
-1361.0503
-1280.9878
-6223.4598
-7722.6838
-4432.5331
-6348.7845
-3982.1307
-1139.3799
-162.63703
56.533436
2840.0345
-2295.7576
-3255.9506
3744.932
-523.87111
2122.2559
1928.4783
2076.0235
1263.128
697.30957
201.25783
-783.49497
-173.89694
-4708.0866
-850.27498
415.69385
-466.06781
-940.92038
-692.68887