/*--------------------------------*- C++ -*----------------------------------*\
| =========                 |                                                 |
| \\      /  F ield         | OpenFOAM: The Open Source CFD Toolbox           |
|  \\    /   O peration     | Version:  2.3.0                                 |
|   \\  /    A nd           | Web:      www.OpenFOAM.org                      |
|    \\/     M anipulation  |                                                 |
\*---------------------------------------------------------------------------*/
FoamFile
{
    version     2.0;
    format      ascii;
    class       surfaceScalarField;
    location    "3.9e-05";
    object      phi;
}
// * * * * * * * * * * * * * * * * * * * * * * * * * * * * * * * * * * * * * //

dimensions      [0 3 -1 0 0 0 0];

internalField   nonuniform List<scalar> 
14825
(
1.0342126e-09
-2.0451189e-11
1.0549365e-09
-2.0723953e-11
1.0750027e-09
-2.0066199e-11
1.0955362e-09
-2.0533511e-11
1.1157724e-09
-2.0236148e-11
1.1361349e-09
-2.0362486e-11
1.156213e-09
-2.0078169e-11
1.1761451e-09
-1.9932102e-11
1.1961779e-09
-2.0032761e-11
1.2157561e-09
-1.9578212e-11
1.2357557e-09
-1.9999553e-11
1.254945e-09
-1.9189342e-11
1.2748321e-09
-1.9887113e-11
1.2936209e-09
-1.8788767e-11
1.3133171e-09
-1.9696224e-11
1.33175e-09
-1.8432932e-11
1.3511169e-09
-1.9366873e-11
1.3692937e-09
-1.8176803e-11
1.3882412e-09
-1.8947523e-11
1.4062255e-09
-1.7984261e-11
1.4246078e-09
-1.8382304e-11
1.442439e-09
-1.7831156e-11
1.4602224e-09
-1.7783402e-11
1.4778634e-09
-1.7641007e-11
1.4950556e-09
-1.7192247e-11
1.5124224e-09
-1.7366742e-11
1.5291091e-09
-1.6686761e-11
1.5460964e-09
-1.6987242e-11
1.562304e-09
-1.620765e-11
1.5788179e-09
-1.6513933e-11
1.5946098e-09
-1.5791901e-11
1.6105581e-09
-1.5948213e-11
1.6259989e-09
-1.5440826e-11
1.6413073e-09
-1.5308418e-11
1.6563439e-09
-1.5036648e-11
1.671021e-09
-1.4677057e-11
1.6856709e-09
-1.4649913e-11
1.6997736e-09
-1.4102653e-11
1.7139308e-09
-1.4157183e-11
1.727429e-09
-1.3498254e-11
1.7408733e-09
-1.3444296e-11
1.7539256e-09
-1.3052244e-11
1.7668105e-09
-1.2884951e-11
1.7794044e-09
-1.2593898e-11
1.7916276e-09
-1.222316e-11
1.8036078e-09
-1.1980205e-11
1.8152422e-09
-1.1634422e-11
1.8265835e-09
-1.1341336e-11
1.8375975e-09
-1.1014e-11
1.8482964e-09
-1.0698849e-11
1.8587168e-09
-1.0420419e-11
1.8688398e-09
-1.0122976e-11
1.8786051e-09
-9.7652871e-12
1.8880727e-09
-9.4676751e-12
1.897223e-09
-9.1502898e-12
1.9060982e-09
-8.8751617e-12
1.9145096e-09
-8.4114111e-12
1.9225983e-09
-8.0887465e-12
1.9303551e-09
-7.7567502e-12
1.9378792e-09
-7.5240855e-12
1.9448868e-09
-7.0075885e-12
1.9516889e-09
-6.8021726e-12
1.9581385e-09
-6.4495595e-12
1.9643021e-09
-6.1635713e-12
1.9700479e-09
-5.7458433e-12
1.9754325e-09
-5.3846121e-12
1.9803564e-09
-4.9238774e-12
1.9851058e-09
-4.749395e-12
1.9894527e-09
-4.3469361e-12
1.9934538e-09
-4.0010485e-12
1.9971677e-09
-3.7139202e-12
2.000499e-09
-3.3312997e-12
2.0033474e-09
-2.8484254e-12
2.0059726e-09
-2.6251305e-12
-2.2623482e-12
2.8620048e-09
-8.0490044e-11
2.922707e-09
-8.1426207e-11
2.9820468e-09
-7.9405964e-11
3.0425251e-09
-8.1011851e-11
3.1023698e-09
-8.0080828e-11
3.1625482e-09
-8.0540821e-11
3.222111e-09
-7.9641031e-11
3.2813919e-09
-7.9212962e-11
3.3409673e-09
-7.9608223e-11
3.3995045e-09
-7.8115398e-11
3.4591265e-09
-7.9621561e-11
3.5167835e-09
-7.6846308e-11
3.5762504e-09
-7.9354032e-11
3.6330169e-09
-7.5555217e-11
3.6921058e-09
-7.8785159e-11
3.7480982e-09
-7.4425286e-11
3.8064358e-09
-7.7704495e-11
3.8619015e-09
-7.3642546e-11
3.9192512e-09
-7.6297197e-11
3.9743366e-09
-7.3069682e-11
4.0303272e-09
-7.4372912e-11
4.0851351e-09
-7.2638983e-11
4.1396672e-09
-7.2315523e-11
4.1940236e-09
-7.1997437e-11
4.2472138e-09
-7.0382424e-11
4.3008739e-09
-7.1026816e-11
4.352907e-09
-6.8719876e-11
4.4055601e-09
-6.9640394e-11
4.4565377e-09
-6.7185207e-11
4.5079579e-09
-6.7934169e-11
4.5579902e-09
-6.5824155e-11
4.6080096e-09
-6.5967628e-11
4.6571483e-09
-6.4579489e-11
4.7055773e-09
-6.3737474e-11
4.7537087e-09
-6.316804e-11
4.8006431e-09
-6.1611405e-11
4.8476963e-09
-6.1703137e-11
4.8933601e-09
-5.9766525e-11
4.9389981e-09
-5.9795116e-11
4.9831537e-09
-5.7653861e-11
5.0269969e-09
-5.7287542e-11
5.0700918e-09
-5.6147155e-11
5.1124828e-09
-5.5275952e-11
5.1543486e-09
-5.4459622e-11
5.1951282e-09
-5.3002807e-11
5.2353495e-09
-5.2201476e-11
5.2746693e-09
-5.0954254e-11
5.3131819e-09
-4.9853865e-11
5.3509323e-09
-4.8764434e-11
5.3877511e-09
-4.7517645e-11
5.4239822e-09
-4.6651535e-11
5.459284e-09
-4.5424753e-11
5.493785e-09
-4.4266312e-11
5.5274864e-09
-4.3169058e-11
5.5603066e-09
-4.1970527e-11
5.5923709e-09
-4.0939486e-11
5.6232311e-09
-3.9271571e-11
5.6533307e-09
-3.8188321e-11
5.6824497e-09
-3.687576e-11
5.71097e-09
-3.6044348e-11
5.7380641e-09
-3.410169e-11
5.7647296e-09
-3.3467722e-11
5.7903551e-09
-3.207502e-11
5.8152667e-09
-3.1075233e-11
5.839071e-09
-2.9550144e-11
5.8617721e-09
-2.8085663e-11
5.8834573e-09
-2.6609062e-11
5.9045117e-09
-2.5803793e-11
5.9244061e-09
-2.4241417e-11
5.9436086e-09
-2.3203492e-11
5.9619073e-09
-2.201265e-11
5.979014e-09
-2.0437999e-11
5.9950689e-09
-1.8903346e-11
6.0103817e-09
-1.7937855e-11
-1.6587803e-11
4.3657212e-09
-1.7810176e-10
4.4642164e-09
-1.7992134e-10
4.5614258e-09
-1.7661546e-10
4.6601378e-09
-1.7972378e-10
4.7581777e-09
-1.7812076e-10
4.8567324e-09
-1.7909555e-10
4.9546347e-09
-1.7754332e-10
5.0523782e-09
-1.7695644e-10
5.1505352e-09
-1.7776524e-10
5.2476113e-09
-1.7519146e-10
5.3460438e-09
-1.780541e-10
5.4421902e-09
-1.7299268e-10
5.5406242e-09
-1.7778805e-10
5.6358523e-09
-1.707833e-10
5.7339737e-09
-1.7690655e-10
5.8283909e-09
-1.6884252e-10
5.9257153e-09
-1.7502884e-10
6.0196145e-09
-1.6754174e-10
6.1158293e-09
-1.7251208e-10
6.2093256e-09
-1.6656588e-10
6.3039913e-09
-1.6903863e-10
6.3972057e-09
-1.6585339e-10
6.4901292e-09
-1.6523904e-10
6.5827089e-09
-1.6457712e-10
6.6741409e-09
-1.6181444e-10
6.7658407e-09
-1.6272663e-10
6.8558842e-09
-1.5876338e-10
6.9462331e-09
-1.5998929e-10
7.035046e-09
-1.5599806e-10
7.1238251e-09
-1.5671328e-10
7.2114433e-09
-1.5344237e-10
7.2984975e-09
-1.5302184e-10
7.3848325e-09
-1.5091448e-10
7.4698783e-09
-1.487833e-10
7.5548673e-09
-1.4815697e-10
7.6380227e-09
-1.4476683e-10
7.721534e-09
-1.4521444e-10
7.8031832e-09
-1.4141577e-10
7.8845726e-09
-1.4118447e-10
7.9641304e-09
-1.3721172e-10
8.0432231e-09
-1.3638016e-10
8.1214409e-09
-1.34365e-10
8.1985268e-09
-1.323618e-10
8.275022e-09
-1.3095489e-10
8.3499391e-09
-1.2791992e-10
8.4242012e-09
-1.2646351e-10
8.497153e-09
-1.2390611e-10
8.5689471e-09
-1.2164796e-10
8.6397647e-09
-1.1958206e-10
8.70916e-09
-1.1691288e-10
8.7779768e-09
-1.1546839e-10
8.8451219e-09
-1.125698e-10
8.9115064e-09
-1.1065084e-10
8.976616e-09
-1.0827862e-10
9.0405262e-09
-1.0588073e-10
9.1032049e-09
-1.0361825e-10
9.1642466e-09
-1.0031323e-10
9.2243506e-09
-9.8292364e-11
9.2829637e-09
-9.5488863e-11
9.3406579e-09
-9.3738557e-11
9.3962769e-09
-8.9720684e-11
9.4514731e-09
-8.8663872e-11
9.5050219e-09
-8.5623867e-11
9.5576372e-09
-8.3690521e-11
9.6085171e-09
-8.0429975e-11
9.6577365e-09
-7.7305143e-11
9.705799e-09
-7.4671495e-11
9.7525539e-09
-7.2558713e-11
9.7976513e-09
-6.9338864e-11
9.8422013e-09
-6.7753437e-11
9.884988e-09
-6.4799331e-11
9.9260411e-09
-6.1491117e-11
9.9657791e-09
-5.8641323e-11
1.0004206e-08
-5.6364911e-11
-5.360053e-11
5.5895707e-09
-3.1120178e-10
5.723756e-09
-3.1410655e-10
5.8573104e-09
-3.1016992e-10
5.9924657e-09
-3.1487907e-10
6.1271984e-09
-3.1285341e-10
6.2625879e-09
-3.1448513e-10
6.397594e-09
-3.1254936e-10
6.5327458e-09
-3.1210823e-10
6.6684016e-09
-3.1342107e-10
6.8033829e-09
-3.1017273e-10
6.9396163e-09
-3.142875e-10
7.0740807e-09
-3.0745712e-10
7.2105714e-09
-3.1427868e-10
7.3445671e-09
-3.0477908e-10
7.4809786e-09
-3.1331805e-10
7.6145005e-09
-3.0236441e-10
7.7503994e-09
-3.1092774e-10
7.8836608e-09
-3.0080313e-10
8.0187855e-09
-3.076368e-10
8.151659e-09
-2.9943933e-10
8.2857223e-09
-3.0310197e-10
8.4183306e-09
-2.9846172e-10
8.5509161e-09
-2.9782446e-10
8.6827352e-09
-2.9639629e-10
8.8142079e-09
-2.9328706e-10
8.9451933e-09
-2.9371204e-10
9.075386e-09
-2.8895609e-10
9.2050215e-09
-2.896248e-10
9.3340737e-09
-2.8505027e-10
9.4622778e-09
-2.8491741e-10
9.5900848e-09
-2.8124935e-10
9.7167235e-09
-2.796605e-10
9.8429592e-09
-2.7715024e-10
9.9677389e-09
-2.7356296e-10
1.0092529e-08
-2.7294755e-10
1.0215287e-08
-2.6752428e-10
1.0338659e-08
-2.6858646e-10
1.0459923e-08
-2.6268012e-10
1.0580754e-08
-2.6201559e-10
1.0699632e-08
-2.560896e-10
1.0818286e-08
-2.5503418e-10
1.0935765e-08
-2.5184343e-10
1.1052237e-08
-2.4883364e-10
1.1167766e-08
-2.4648385e-10
1.1281717e-08
-2.418711e-10
1.1394926e-08
-2.3967309e-10
1.1506668e-08
-2.3564814e-10
1.1617153e-08
-2.321331e-10
1.1726484e-08
-2.2891229e-10
1.1834205e-08
-2.2463422e-10
1.1941461e-08
-2.2272481e-10
1.2046316e-08
-2.1742471e-10
1.2150953e-08
-2.152873e-10
1.2253684e-08
-2.1100986e-10
1.2355362e-08
-2.0755899e-10
1.2455173e-08
-2.0342873e-10
1.2553333e-08
-1.9847373e-10
1.2650464e-08
-1.9542262e-10
1.2745932e-08
-1.9095752e-10
1.2840006e-08
-1.8781222e-10
1.2931825e-08
-1.8153971e-10
1.3023228e-08
-1.800674e-10
1.3112605e-08
-1.7500089e-10
1.3201076e-08
-1.7216105e-10
1.3286988e-08
-1.6634181e-10
1.3371331e-08
-1.6164832e-10
1.345434e-08
-1.5768075e-10
1.3535222e-08
-1.5344087e-10
1.3614546e-08
-1.4866273e-10
1.3693562e-08
-1.4676873e-10
1.3769661e-08
-1.4089885e-10
1.3844227e-08
-1.3605675e-10
1.3917135e-08
-1.3154918e-10
1.3988333e-08
-1.2756293e-10
-1.2306722e-10
6.572217e-09
-4.7764745e-10
6.740146e-09
-4.8203561e-10
6.9083179e-09
-4.7834174e-10
7.0781878e-09
-4.8474899e-10
7.247989e-09
-4.8265462e-10
7.4187271e-09
-4.8522329e-10
7.5894855e-09
-4.8330774e-10
7.7609048e-09
-4.8352749e-10
7.9328771e-09
-4.8539342e-10
8.1049674e-09
-4.8226298e-10
8.277886e-09
-4.8720618e-10
8.4502896e-09
-4.7986065e-10
8.6238125e-09
-4.8780163e-10
8.7966094e-09
-4.7757593e-10
8.9704469e-09
-4.8715552e-10
9.1434184e-09
-4.75336e-10
9.3173258e-09
-4.8483506e-10
9.490543e-09
-4.7402037e-10
9.6643795e-09
-4.8147331e-10
9.8372848e-09
-4.7234463e-10
1.0011107e-08
-4.769243e-10
1.0183853e-08
-4.7120726e-10
1.0356847e-08
-4.7081903e-10
1.0528776e-08
-4.6832464e-10
1.0701431e-08
-4.6594248e-10
1.0872752e-08
-4.6503281e-10
1.1044523e-08
-4.6072751e-10
1.1214898e-08
-4.5999966e-10
1.1385801e-08
-4.5595351e-10
1.1555262e-08
-4.5437788e-10
1.1725123e-08
-4.5111107e-10
1.1893502e-08
-4.4803909e-10
1.2061698e-08
-4.4534621e-10
1.2228902e-08
-4.4076702e-10
1.2395805e-08
-4.3984997e-10
1.2560974e-08
-4.3269397e-10
1.2727043e-08
-4.3465516e-10
1.2890859e-08
-4.2649586e-10
1.3054247e-08
-4.2540366e-10
1.3215786e-08
-4.1762854e-10
1.3377665e-08
-4.1691358e-10
1.3537801e-08
-4.1197917e-10
1.3697809e-08
-4.0884186e-10
1.3856041e-08
-4.0471592e-10
1.4013461e-08
-3.9929079e-10
1.4169757e-08
-3.9596882e-10
1.4324829e-08
-3.9072099e-10
1.4478579e-08
-3.8588261e-10
1.4631065e-08
-3.8139847e-10
1.4782308e-08
-3.7587667e-10
1.4933085e-08
-3.7350237e-10
1.5080887e-08
-3.6522697e-10
1.5229405e-08
-3.6380473e-10
1.5375176e-08
-3.5678093e-10
1.5520649e-08
-3.5303233e-10
1.5663376e-08
-3.4615524e-10
1.5804912e-08
-3.4000978e-10
1.5945159e-08
-3.3566943e-10
1.6084091e-08
-3.2989016e-10
1.6220804e-08
-3.2452501e-10
1.6355927e-08
-3.166632e-10
1.6490206e-08
-3.1434588e-10
1.6622702e-08
-3.0749714e-10
1.6754294e-08
-3.0375303e-10
1.6882387e-08
-2.9443494e-10
1.7009807e-08
-2.890678e-10
1.713519e-08
-2.8306378e-10
1.7257713e-08
-2.7596381e-10
1.7379865e-08
-2.7081472e-10
1.7501345e-08
-2.682494e-10
1.7618891e-08
-2.5844487e-10
1.7735963e-08
-2.5312843e-10
1.7850513e-08
-2.4609924e-10
1.7963273e-08
-2.4032236e-10
-2.3393517e-10
7.347703e-09
-6.7550385e-10
7.5474198e-09
-6.8175245e-10
7.7484841e-09
-6.79406e-10
7.9512916e-09
-6.875565e-10
8.1545606e-09
-6.8592366e-10
8.3591344e-09
-6.8979701e-10
8.5642844e-09
-6.884578e-10
8.7707122e-09
-6.8995527e-10
8.977804e-09
-6.924852e-10
9.1860148e-09
-6.9047375e-10
9.3945104e-09
-6.9570182e-10
9.6041898e-09
-6.8954008e-10
9.8137857e-09
-6.9739748e-10
1.0024988e-08
-6.887784e-10
1.0235532e-08
-6.9769905e-10
1.0447736e-08
-6.8754044e-10
1.0659181e-08
-6.9627945e-10
1.0872402e-08
-6.8724147e-10
1.1084618e-08
-6.9368936e-10
1.1297823e-08
-6.8555002e-10
1.1511353e-08
-6.904543e-10
1.1724768e-08
-6.8462259e-10
1.1938327e-08
-6.8437724e-10
1.2151255e-08
-6.8125275e-10
1.2365475e-08
-6.8016314e-10
1.2578175e-08
-6.7773251e-10
1.2792146e-08
-6.7469866e-10
1.3004787e-08
-6.7264035e-10
1.3218283e-08
-6.6944942e-10
1.3430757e-08
-6.6685207e-10
1.3643748e-08
-6.6410244e-10
1.3855748e-08
-6.6003921e-10
1.4067358e-08
-6.5695619e-10
1.4279358e-08
-6.5276674e-10
1.4490111e-08
-6.5060236e-10
1.4700195e-08
-6.4277872e-10
1.4911238e-08
-6.4569783e-10
1.5120116e-08
-6.3537427e-10
1.5328683e-08
-6.3397032e-10
1.5535894e-08
-6.2483957e-10
1.5744032e-08
-6.2505123e-10
1.5949746e-08
-6.1769358e-10
1.6156879e-08
-6.1597515e-10
1.6360945e-08
-6.0878141e-10
1.6565842e-08
-6.0418827e-10
1.6768525e-08
-5.9865179e-10
1.6971143e-08
-5.9333833e-10
1.717216e-08
-5.8689944e-10
1.7371991e-08
-5.8123013e-10
1.75714e-08
-5.752851e-10
1.7769746e-08
-5.7184867e-10
1.7965398e-08
-5.6087925e-10
1.8162752e-08
-5.6115812e-10
1.835633e-08
-5.5035975e-10
1.8550865e-08
-5.4756654e-10
1.8741677e-08
-5.3696712e-10
1.8932329e-08
-5.3066204e-10
1.9120928e-08
-5.2426859e-10
1.9309132e-08
-5.1809398e-10
1.9493841e-08
-5.0923434e-10
1.9678832e-08
-5.0165404e-10
1.9861701e-08
-4.9721525e-10
2.0044046e-08
-4.8984204e-10
2.022474e-08
-4.8444695e-10
2.0401741e-08
-4.7143593e-10
2.0579513e-08
-4.6683972e-10
2.0753736e-08
-4.5728663e-10
2.0925018e-08
-4.4724638e-10
2.1097895e-08
-4.4369161e-10
2.1268035e-08
-4.3838892e-10
2.1434556e-08
-4.2496646e-10
2.1602086e-08
-4.2065803e-10
2.1766082e-08
-4.1009546e-10
2.192853e-08
-4.0277057e-10
-3.942735e-10
7.9459789e-09
-9.0324623e-10
8.1752733e-09
-9.1104683e-10
8.4078025e-09
-9.1193524e-10
8.6414034e-09
-9.2115736e-10
8.87687e-09
-9.2139033e-10
9.1133546e-09
-9.2628158e-10
9.3518108e-09
-9.2691402e-10
9.5915097e-09
-9.2965416e-10
9.8327957e-09
-9.3377123e-10
1.0075597e-08
-9.33275e-10
1.0318878e-08
-9.3898264e-10
1.0564545e-08
-9.3520705e-10
1.0809628e-08
-9.4248105e-10
1.1058082e-08
-9.3723191e-10
1.1305011e-08
-9.4462774e-10
1.1555425e-08
-9.3795531e-10
1.180421e-08
-9.4506373e-10
1.2056742e-08
-9.3977426e-10
1.2307062e-08
-9.4400905e-10
1.2560339e-08
-9.3882672e-10
1.2813295e-08
-9.4341023e-10
1.3067596e-08
-9.38924e-10
1.3321544e-08
-9.3832536e-10
1.3576303e-08
-9.3601135e-10
1.3832004e-08
-9.3586416e-10
1.4087104e-08
-9.3283256e-10
1.4343444e-08
-9.3103856e-10
1.459991e-08
-9.2910659e-10
1.4856259e-08
-9.2579779e-10
1.5113513e-08
-9.2410666e-10
1.5370191e-08
-9.2077996e-10
1.5627618e-08
-9.1746693e-10
1.5883678e-08
-9.1301626e-10
1.6142738e-08
-9.118261e-10
1.6398562e-08
-9.0642674e-10
1.6656278e-08
-9.004941e-10
1.691376e-08
-9.031799e-10
1.7170199e-08
-8.918137e-10
1.7425992e-08
-8.8976293e-10
1.7681963e-08
-8.8081062e-10
1.7938562e-08
-8.8165066e-10
1.8192791e-08
-8.7192269e-10
1.8449743e-08
-8.7292727e-10
1.8702608e-08
-8.6164563e-10
1.8958523e-08
-8.6010406e-10
1.9210139e-08
-8.5026727e-10
1.9464079e-08
-8.4727891e-10
1.9715441e-08
-8.3826079e-10
1.9966377e-08
-8.3216591e-10
2.0217981e-08
-8.2688988e-10
2.0467219e-08
-8.2108673e-10
2.0715369e-08
-8.0902845e-10
2.096521e-08
-8.1099904e-10
2.1210794e-08
-7.9594463e-10
2.1458463e-08
-7.9523477e-10
2.1701888e-08
-7.80392e-10
2.1946845e-08
-7.7561936e-10
2.2188105e-08
-7.6552839e-10
2.2430288e-08
-7.6027708e-10
2.2667619e-08
-7.4656519e-10
2.2908112e-08
-7.421473e-10
2.3144397e-08
-7.3350064e-10
2.3382545e-08
-7.279903e-10
2.3616453e-08
-7.1835403e-10
2.3849068e-08
-7.0405142e-10
2.4082368e-08
-7.0013991e-10
2.4310506e-08
-6.8542392e-10
2.4537571e-08
-6.7431186e-10
2.4767693e-08
-6.7381347e-10
2.4991582e-08
-6.6227771e-10
2.5214859e-08
-6.4824388e-10
2.5438562e-08
-6.4436072e-10
2.5658132e-08
-6.2966553e-10
2.5877426e-08
-6.2206503e-10
-6.1081863e-10
8.3924381e-09
-1.1589774e-09
8.6495481e-09
-1.1681568e-09
8.9117157e-09
-1.1741029e-09
9.1742268e-09
-1.1836684e-09
9.4403744e-09
-1.1875379e-09
9.7068768e-09
-1.192784e-09
9.9774659e-09
-1.1975032e-09
1.0248463e-08
-1.2006508e-09
1.0523178e-08
-1.2084865e-09
1.079857e-08
-1.2086676e-09
1.1076257e-08
-1.2166696e-09
1.1355934e-08
-1.2148842e-09
1.163654e-08
-1.2230867e-09
1.1920194e-08
-1.220886e-09
1.2203932e-08
-1.2283652e-09
1.2490598e-08
-1.2246221e-09
1.2777326e-08
-1.2317908e-09
1.3067546e-08
-1.2299945e-09
1.3356551e-08
-1.233014e-09
1.3648907e-08
-1.2311826e-09
1.3941736e-08
-1.2362392e-09
1.4236389e-08
-1.2335778e-09
1.4531211e-08
-1.2331474e-09
1.4828046e-08
-1.2328459e-09
1.512556e-08
-1.2333785e-09
1.5423524e-08
-1.2307963e-09
1.5722849e-08
-1.2303631e-09
1.6024121e-08
-1.2303792e-09
1.6324017e-08
-1.2256938e-09
1.6627375e-08
-1.2274646e-09
1.6928326e-08
-1.2217308e-09
1.7232743e-08
-1.2218839e-09
1.7534145e-08
-1.2144188e-09
1.7842151e-08
-1.2198319e-09
1.8143737e-08
-1.2080127e-09
1.8452026e-08
-1.208783e-09
1.8756149e-08
-1.2073025e-09
1.9062647e-08
-1.1983116e-09
1.936674e-08
-1.1938565e-09
1.9674535e-08
-1.1886055e-09
1.9980209e-08
-1.1873246e-09
2.0286159e-08
-1.1778728e-09
2.0593728e-08
-1.180496e-09
2.0898451e-08
-1.1663686e-09
2.1207661e-08
-1.1693143e-09
2.1510134e-08
-1.1527404e-09
2.1818064e-08
-1.1552092e-09
2.2121718e-08
-1.1419143e-09
2.2426818e-08
-1.1372656e-09
2.2732826e-08
-1.1328986e-09
2.3035e-08
-1.1232601e-09
2.3339477e-08
-1.1135059e-09
2.3643727e-08
-1.115249e-09
2.394476e-08
-1.0969772e-09
2.4247537e-08
-1.0980115e-09
2.4546753e-08
-1.0796087e-09
2.4849595e-08
-1.0784609e-09
2.5146616e-08
-1.06255e-09
2.5445048e-08
-1.0587087e-09
2.5738448e-08
-1.0399655e-09
2.603799e-08
-1.0416888e-09
2.6331251e-08
-1.0267621e-09
2.6628343e-08
-1.0250817e-09
2.6917654e-08
-1.0076657e-09
2.7212255e-08
-9.9865212e-10
2.7502152e-08
-9.9003658e-10
2.7787667e-08
-9.7093882e-10
2.8076144e-08
-9.6278962e-10
2.8365354e-08
-9.6302287e-10
2.864521e-08
-9.4213375e-10
2.8932049e-08
-9.3508269e-10
2.9213502e-08
-9.2581418e-10
2.9493801e-08
-9.0996487e-10
2.9773869e-08
-9.0213221e-10
-8.8737499e-10
8.7086394e-09
-1.4399087e-09
8.9929537e-09
-1.4524712e-09
9.2817719e-09
-1.462921e-09
9.5727187e-09
-1.4746152e-09
9.8667138e-09
-1.481533e-09
1.0162892e-08
-1.488962e-09
1.0463085e-08
-1.4976968e-09
1.0764896e-08
-1.5024609e-09
1.1071053e-08
-1.5146438e-09
1.1378327e-08
-1.5159412e-09
1.1689066e-08
-1.5274096e-09
1.200179e-08
-1.527608e-09
1.2317245e-08
-1.5385416e-09
1.2634792e-08
-1.5384332e-09
1.2955362e-08
-1.5489346e-09
1.3276771e-08
-1.546031e-09
1.3602105e-08
-1.5571256e-09
1.3928268e-08
-1.5561573e-09
1.4257158e-08
-1.5619041e-09
1.4587043e-08
-1.5610671e-09
1.4921094e-08
-1.57029e-09
1.525437e-08
-1.5668543e-09
1.5591721e-08
-1.5704984e-09
1.5929377e-08
-1.570502e-09
1.6270071e-08
-1.5740722e-09
1.6609654e-08
-1.5703795e-09
1.6953737e-08
-1.5744461e-09
1.7298584e-08
-1.5752259e-09
1.7644168e-08
-1.5712776e-09
1.799265e-08
-1.5759471e-09
1.8339279e-08
-1.5683597e-09
1.8690356e-08
-1.5729611e-09
1.9038566e-08
-1.5626285e-09
1.9395e-08
-1.5762664e-09
1.974333e-08
-1.5563418e-09
2.0103562e-08
-1.5690151e-09
2.0453585e-08
-1.5573258e-09
2.081123e-08
-1.5559569e-09
2.1163909e-08
-1.5465353e-09
2.15251e-08
-1.5497962e-09
2.1878695e-08
-1.5409198e-09
2.2239042e-08
-1.5382195e-09
2.2595079e-08
-1.5365335e-09
2.2954217e-08
-1.5255066e-09
2.3316243e-08
-1.5313397e-09
2.367061e-08
-1.5071074e-09
2.4032322e-08
-1.5169212e-09
2.4388308e-08
-1.4979004e-09
2.4749007e-08
-1.4979645e-09
2.510816e-08
-1.4920525e-09
2.5463632e-08
-1.4787317e-09
2.5825188e-08
-1.4750621e-09
2.6182479e-08
-1.4725402e-09
2.6539851e-08
-1.4543488e-09
2.6896465e-08
-1.4546257e-09
2.7251268e-08
-1.434412e-09
2.7611683e-08
-1.438875e-09
2.796551e-08
-1.4163771e-09
2.8316906e-08
-1.4101052e-09
2.8666746e-08
-1.3898058e-09
2.9023973e-08
-1.398915e-09
2.9374756e-08
-1.3775455e-09
2.9727155e-08
-1.3774806e-09
3.0071284e-08
-1.3517947e-09
3.0429066e-08
-1.356434e-09
3.0770495e-08
-1.3314659e-09
3.1113606e-08
-1.3140496e-09
3.1465201e-08
-1.3143846e-09
3.1808146e-08
-1.3059679e-09
3.2141942e-08
-1.2759299e-09
3.2495089e-08
-1.2882297e-09
3.2827212e-08
-1.2579371e-09
3.3169579e-08
-1.2523319e-09
3.3508825e-08
-1.2413782e-09
-1.2221172e-09
8.9151844e-09
-1.7443131e-09
9.2252338e-09
-1.7625206e-09
9.5386419e-09
-1.7763291e-09
9.8571322e-09
-1.7931056e-09
1.0176627e-08
-1.8010277e-09
1.0502396e-08
-1.8147306e-09
1.0829406e-08
-1.8247074e-09
1.1162538e-08
-1.8355931e-09
1.1497043e-08
-1.8491481e-09
1.1837142e-08
-1.8560407e-09
1.2177692e-08
-1.8679598e-09
1.2524727e-08
-1.8746426e-09
1.2871772e-08
-1.8855865e-09
1.3224641e-08
-1.8913021e-09
1.3578907e-08
-1.9032011e-09
1.3936477e-08
-1.9036011e-09
1.429782e-08
-1.9184681e-09
1.4660594e-08
-1.9189317e-09
1.502763e-08
-1.9289397e-09
1.5395391e-08
-1.9288283e-09
1.5769463e-08
-1.9443617e-09
1.6140564e-08
-1.9379555e-09
1.652051e-08
-1.9504444e-09
1.689772e-08
-1.9477123e-09
1.7281934e-08
-1.9582863e-09
1.766128e-08
-1.9497254e-09
1.8051449e-08
-1.9646145e-09
1.8436764e-08
-1.9605413e-09
1.8830659e-08
-1.965173e-09
1.9220555e-08
-1.9658422e-09
1.9614926e-08
-1.9627311e-09
2.000925e-08
-1.9672856e-09
2.0406929e-08
-1.9603073e-09
2.0806696e-08
-1.9760329e-09
2.1204261e-08
-1.9539067e-09
2.161361e-08
-1.978364e-09
2.2009202e-08
-1.9529178e-09
2.2414722e-08
-1.9614775e-09
2.2816634e-08
-1.9484473e-09
2.3227597e-08
-1.9607592e-09
2.3627451e-08
-1.9407734e-09
2.404051e-08
-1.9512786e-09
2.444046e-08
-1.9364841e-09
2.4852762e-08
-1.9378082e-09
2.5262284e-08
-1.9408618e-09
2.5668007e-08
-1.9128299e-09
2.6076735e-08
-1.9256495e-09
2.648117e-08
-1.9023356e-09
2.6894487e-08
-1.9112809e-09
2.7299043e-08
-1.896609e-09
2.7704597e-08
-1.884285e-09
2.8117344e-08
-1.8878092e-09
2.8521386e-08
-1.8765827e-09
2.8929753e-08
-1.8627158e-09
2.9333613e-08
-1.8584853e-09
2.9737072e-08
-1.8378712e-09
3.0147191e-08
-1.8489945e-09
3.0553378e-08
-1.8225636e-09
3.0946613e-08
-1.8033401e-09
3.1346011e-08
-1.7892044e-09
3.1752657e-08
-1.8055604e-09
3.2155637e-08
-1.7805255e-09
3.2552271e-08
-1.7741149e-09
3.2949041e-08
-1.7485644e-09
3.3362869e-08
-1.7702621e-09
3.374602e-08
-1.7146174e-09
3.4142366e-08
-1.7103948e-09
3.4552059e-08
-1.7240776e-09
3.4935699e-08
-1.689608e-09
3.5317064e-08
-1.6572948e-09
3.5733435e-08
-1.7046007e-09
3.6101958e-08
-1.6264606e-09
3.6502264e-08
-1.6526382e-09
3.6889916e-08
-1.6290294e-09
-1.6041887e-09
9.0306049e-09
-2.0720096e-09
9.3631069e-09
-2.0950226e-09
9.7013245e-09
-2.1145467e-09
1.004399e-08
-2.1357713e-09
1.0389486e-08
-2.1465234e-09
1.0741751e-08
-2.1669953e-09
1.1095762e-08
-2.1787185e-09
1.1457582e-08
-2.1974139e-09
1.1820021e-08
-2.2115864e-09
1.2190987e-08
-2.2270066e-09
1.2560136e-08
-2.2371093e-09
1.2940469e-08
-2.2549757e-09
1.3316888e-08
-2.262005e-09
1.370523e-08
-2.2796446e-09
1.4089733e-08
-2.2877033e-09
1.4484938e-08
-2.2988065e-09
1.4877959e-08
-2.3114892e-09
1.5279338e-08
-2.3203106e-09
1.5679703e-08
-2.3293046e-09
1.6088647e-08
-2.337772e-09
1.6497007e-08
-2.3527224e-09
1.6909239e-08
-2.3501874e-09
1.7326784e-08
-2.3679891e-09
1.7746576e-08
-2.3675039e-09
1.8169379e-08
-2.3810899e-09
1.859089e-08
-2.3712365e-09
1.902294e-08
-2.396664e-09
1.9448951e-08
-2.3865525e-09
1.9888459e-08
-2.4046804e-09
2.0318238e-08
-2.3956214e-09
2.0757577e-08
-2.4020704e-09
2.1191929e-08
-2.4016379e-09
2.1638012e-08
-2.4063895e-09
2.2073183e-08
-2.4112042e-09
2.2519697e-08
-2.4004213e-09
2.2970068e-08
-2.4287343e-09
2.3408471e-08
-2.3913209e-09
2.3851818e-08
-2.4048246e-09
2.4300996e-08
-2.3976254e-09
2.4748791e-08
-2.4085548e-09
2.51916e-08
-2.3835824e-09
2.5645272e-08
-2.4049504e-09
2.6082356e-08
-2.3735674e-09
2.6536744e-08
-2.3921971e-09
2.6981474e-08
-2.3855912e-09
2.7431223e-08
-2.3625792e-09
2.7871016e-08
-2.365442e-09
2.8313049e-08
-2.3443693e-09
2.8771864e-08
-2.3700952e-09
2.9205088e-08
-2.3298338e-09
2.9656968e-08
-2.3361645e-09
3.0104366e-08
-2.3352076e-09
3.0546814e-08
-2.3190304e-09
3.0990505e-08
-2.3064065e-09
3.1432454e-08
-2.3004342e-09
3.1867025e-08
-2.2724429e-09
3.2306389e-08
-2.2883586e-09
3.2747845e-08
-2.2640189e-09
3.315229e-08
-2.2077851e-09
3.3603304e-08
-2.2402185e-09
3.4065649e-08
-2.2679057e-09
3.4522375e-08
-2.2372513e-09
3.4953721e-08
-2.2054606e-09
3.5397692e-08
-2.192536e-09
3.5866623e-08
-2.2391926e-09
3.6250874e-08
-2.0988685e-09
3.667561e-08
-2.1351306e-09
3.7135196e-08
-2.1836644e-09
3.7482523e-08
-2.0369345e-09
3.7843174e-08
-2.0179456e-09
3.8282451e-08
-2.1438777e-09
3.8533206e-08
-1.8772163e-09
3.890862e-08
-2.0280523e-09
3.9161237e-08
-1.8816455e-09
-1.8654801e-09
9.0686433e-09
-2.4218149e-09
9.421701e-09
-2.4480803e-09
9.7837483e-09
-2.476594e-09
1.0148225e-08
-2.5002484e-09
1.0519335e-08
-2.5176326e-09
1.0894999e-08
-2.5426598e-09
1.1276169e-08
-2.5598883e-09
1.1662804e-08
-2.5840487e-09
1.2054083e-08
-2.6028658e-09
1.2451217e-08
-2.6241403e-09
1.2850778e-08
-2.6366709e-09
1.3259198e-08
-2.6633954e-09
1.3667355e-08
-2.6701624e-09
1.4086065e-08
-2.698354e-09
1.4503083e-08
-2.704722e-09
1.4931605e-08
-2.7273283e-09
1.5358339e-08
-2.7382233e-09
1.5794547e-08
-2.7565184e-09
1.6229396e-08
-2.7641533e-09
1.6677912e-08
-2.7862878e-09
1.7119078e-08
-2.7938891e-09
1.7572382e-08
-2.8034913e-09
1.8023928e-08
-2.8195354e-09
1.8487273e-08
-2.8308482e-09
1.894195e-08
-2.8357675e-09
1.9407412e-08
-2.8366982e-09
1.9871615e-08
-2.8608666e-09
2.033881e-08
-2.853748e-09
2.0811982e-08
-2.877852e-09
2.1281658e-08
-2.8652975e-09
2.1750447e-08
-2.8708596e-09
2.2223225e-08
-2.8744165e-09
2.2701505e-08
-2.8846686e-09
2.3166068e-08
-2.8757677e-09
2.3645364e-08
-2.8797175e-09
2.4127833e-08
-2.9112027e-09
2.4591186e-08
-2.8546742e-09
2.5059599e-08
-2.8732374e-09
2.5541285e-08
-2.8793113e-09
2.6012657e-08
-2.8799267e-09
2.6485317e-08
-2.8562427e-09
2.6965117e-08
-2.8847505e-09
2.7421993e-08
-2.8304436e-09
2.7904511e-08
-2.874715e-09
2.8352741e-08
-2.8338213e-09
2.8822682e-08
-2.8325202e-09
2.9284145e-08
-2.8269053e-09
2.9771676e-08
-2.8318994e-09
3.0279729e-08
-2.8781488e-09
3.0711931e-08
-2.7620355e-09
3.1201617e-08
-2.8258502e-09
3.1635898e-08
-2.7694893e-09
3.2066285e-08
-2.7494172e-09
3.2439018e-08
-2.6791395e-09
3.2809021e-08
-2.6704373e-09
3.3021867e-08
-2.4852893e-09
3.3257943e-08
-2.5244343e-09
3.3068335e-08
-2.0744105e-09
3.2917203e-08
-2.0566536e-09
3.3375463e-08
-2.6984779e-09
3.3726544e-08
-2.6189866e-09
3.3932964e-08
-2.443671e-09
3.4302674e-08
-2.5751715e-09
3.4297195e-08
-2.1870566e-09
3.4576709e-08
-2.5187069e-09
3.4521528e-08
-2.0436876e-09
3.4387941e-08
-2.0015429e-09
3.4562181e-08
-2.3579043e-09
3.4300273e-08
-1.7750268e-09
3.4110516e-08
-1.8281883e-09
3.4033814e-08
-2.0671757e-09
3.3543534e-08
-1.3869362e-09
3.3387893e-08
-1.8724116e-09
3.2935366e-08
-1.4291191e-09
-1.4505046e-09
9.0420096e-09
-2.7924741e-09
9.4140677e-09
-2.8201385e-09
9.7978164e-09
-2.8603427e-09
1.0182946e-08
-2.8853781e-09
1.0576988e-08
-2.9116743e-09
1.0975218e-08
-2.9408895e-09
1.1380639e-08
-2.9653102e-09
1.1791564e-08
-2.9949737e-09
1.2209093e-08
-3.0203938e-09
1.2631724e-08
-3.0467721e-09
1.3060287e-08
-3.065234e-09
1.3495641e-08
-3.0987493e-09
1.3935223e-08
-3.1097437e-09
1.438294e-08
-3.1460717e-09
1.4832903e-08
-3.154685e-09
1.5292526e-08
-3.1869508e-09
1.5754874e-08
-3.2005714e-09
1.622098e-08
-3.2226244e-09
1.6693276e-08
-3.2364489e-09
1.7173942e-08
-3.2669547e-09
1.7650048e-08
-3.2699949e-09
1.8133966e-08
-3.2874092e-09
1.8619867e-08
-3.3054363e-09
1.9112877e-08
-3.3238581e-09
1.9596759e-08
-3.3196496e-09
2.0089968e-08
-3.3299068e-09
2.0579453e-08
-3.3503515e-09
2.1069367e-08
-3.3436619e-09
2.1565836e-08
-3.3743214e-09
2.205568e-08
-3.3551417e-09
2.2538466e-08
-3.3536458e-09
2.3032246e-08
-3.3681964e-09
2.3528517e-08
-3.3809397e-09
2.4003571e-08
-3.3508216e-09
2.449936e-08
-3.3755067e-09
2.4989421e-08
-3.4012634e-09
2.544026e-08
-3.3055133e-09
2.5938307e-08
-3.3712841e-09
2.6451998e-08
-3.3930023e-09
2.6937187e-08
-3.3651161e-09
2.7395451e-08
-3.3145058e-09
2.7864348e-08
-3.3536478e-09
2.8180867e-08
-3.1469623e-09
2.8557081e-08
-3.2509289e-09
2.8428256e-08
-2.704997e-09
2.8239336e-08
-2.6436003e-09
2.861555e-08
-3.2031194e-09
2.883022e-08
-3.0465693e-09
2.9123734e-08
-3.1716628e-09
2.9135206e-08
-2.7735072e-09
2.9061157e-08
-2.7518018e-09
2.8998572e-08
-2.7069039e-09
2.874059e-08
-2.4914349e-09
2.842661e-08
-2.3651595e-09
2.7964626e-08
-2.2084531e-09
2.7355931e-08
-1.8765944e-09
2.6796832e-08
-1.9653357e-09
2.6013266e-08
-1.2908442e-09
2.5242025e-08
-1.2854131e-09
2.4170687e-08
-1.6271394e-09
2.2983964e-08
-1.4322634e-09
2.1728126e-08
-1.1878334e-09
2.0583904e-08
-1.4309493e-09
1.9381173e-08
-9.8432573e-10
1.8026787e-08
-1.1643213e-09
1.6552467e-08
-5.6936684e-10
1.5281762e-08
-7.3083825e-10
1.3963508e-08
-1.0396504e-09
1.2856574e-08
-6.6809316e-10
1.1790628e-08
-7.6224177e-10
1.0721089e-08
-9.9763734e-10
9.8492267e-09
-5.1507347e-10
8.7834408e-09
-8.0662571e-10
7.9511602e-09
-5.9683843e-10
-9.3127125e-10
8.9617724e-09
-3.182741e-09
9.349735e-09
-3.2081011e-09
9.7542531e-09
-3.2648607e-09
1.0157129e-08
-3.2882542e-09
1.0573281e-08
-3.3278266e-09
1.0991952e-08
-3.3595603e-09
1.142091e-08
-3.3942678e-09
1.1854877e-08
-3.4289406e-09
1.2298068e-08
-3.4635851e-09
1.274558e-08
-3.4942844e-09
1.320294e-08
-3.5225939e-09
1.3665073e-08
-3.5608816e-09
1.4135029e-08
-3.5797005e-09
1.4612912e-08
-3.6239539e-09
1.5091643e-08
-3.6334166e-09
1.5584089e-08
-3.6793969e-09
1.6074329e-08
-3.6908114e-09
1.656993e-08
-3.7182246e-09
1.7067866e-08
-3.7343851e-09
1.7576538e-08
-3.7756267e-09
1.8071404e-08
-3.7648612e-09
1.8577659e-08
-3.7936645e-09
1.9077022e-08
-3.804799e-09
1.9587162e-08
-3.8339976e-09
2.0077287e-08
-3.809775e-09
2.0579548e-08
-3.8321673e-09
2.107727e-08
-3.8480738e-09
2.1570284e-08
-3.8366762e-09
2.2070759e-08
-3.8747964e-09
2.2548842e-08
-3.8332243e-09
2.3040634e-08
-3.845438e-09
2.3545617e-08
-3.8731795e-09
2.4053444e-08
-3.8887665e-09
2.4428478e-08
-3.7258554e-09
2.4852364e-08
-3.7993929e-09
2.4889234e-08
-3.4381334e-09
2.4631102e-08
-3.0473813e-09
2.4961135e-08
-3.7013172e-09
2.5163275e-08
-3.5951421e-09
2.5162542e-08
-3.3643831e-09
2.5045534e-08
-3.1974983e-09
2.472501e-08
-3.0331235e-09
2.4198922e-08
-2.6208742e-09