/*--------------------------------*- C++ -*----------------------------------*\
| =========                 |                                                 |
| \\      /  F ield         | OpenFOAM: The Open Source CFD Toolbox           |
|  \\    /   O peration     | Version:  2.3.0                                 |
|   \\  /    A nd           | Web:      www.OpenFOAM.org                      |
|    \\/     M anipulation  |                                                 |
\*---------------------------------------------------------------------------*/
FoamFile
{
    version     2.0;
    format      ascii;
    class       volVectorField;
    location    "3.9e-05";
    object      U;
}
// * * * * * * * * * * * * * * * * * * * * * * * * * * * * * * * * * * * * * //

dimensions      [0 1 -1 0 0 0 0];

internalField   nonuniform List<vector> 
7500
(
(460.00154 0.0022926596 -8.8751258e-17)
(459.97503 -0.0056132913 3.31785e-15)
(459.9636 0.016272217 3.8180721e-15)
(459.96157 -0.011198275 -2.0349488e-16)
(459.95034 0.0015376246 2.6974573e-15)
(459.95123 -0.0058937997 5.9988504e-15)
(459.9505 0.0036672815 2.0778456e-15)
(459.94826 0.0028226946 5.5058651e-15)
(459.95288 -0.00090287999 4.166622e-15)
(459.94303 0.0040338697 1.2609333e-15)
(459.95352 -0.0038770149 1.6052131e-15)
(459.94868 0.0044877181 -1.5696462e-15)
(459.95595 -0.007645497 1.0100007e-15)
(459.94934 0.009779035 9.5894922e-16)
(459.95576 -0.011646291 1.3207942e-15)
(459.94852 0.014449118 1.2559562e-15)
(459.96239 -0.015022565 1.2456737e-15)
(459.95123 0.015492026 -1.7762647e-15)
(459.97168 -0.016005928 1.1445147e-15)
(459.94844 0.013651055 9.7510745e-16)
(459.9757 -0.01177754 -1.2803938e-15)
(459.9455 0.010826447 1.0467854e-15)
(459.97564 -0.0089301983 6.670927e-16)
(459.95297 0.0056666828 -8.869451e-16)
(459.97528 3.6022189e-06 1.5210673e-15)
(459.95974 -0.0045482378 8.31107e-16)
(459.97518 0.0041852745 1.6730257e-15)
(459.96236 -0.0070909481 -2.1225742e-15)
(459.97417 0.011043524 -1.3831303e-15)
(459.96836 -0.010518631 3.4624708e-15)
(459.97268 0.012172864 -8.8585362e-16)
(459.96833 -0.011735046 9.7119893e-16)
(459.97552 0.0078293512 4.6956874e-16)
(459.97049 -0.0059999078 -1.6269093e-15)
(459.97554 0.0038494087 -8.0846288e-16)
(459.97118 0.00070935713 1.0588063e-15)
(459.97942 -0.0043598762 -1.2850818e-15)
(459.96191 0.0044556983 9.1756301e-16)
(459.97649 -0.0063412086 8.0976563e-16)
(459.96262 0.0097729956 7.9106801e-16)
(459.9771 -0.0048232851 9.2124032e-16)
(459.96572 0.0034146588 8.2486861e-16)
(459.9706 -0.0058065424 2.7961759e-15)
(459.96079 0.00064794394 2.7581e-15)
(459.97053 0.0016156178 5.6283549e-16)
(459.95701 -0.00072365774 -1.0522831e-15)
(459.97625 0.0035093208 -1.0664613e-15)
(459.95571 -0.001317636 -1.4747811e-15)
(459.97446 0.0014221323 7.6660115e-16)
(459.95668 0.00065360891 5.3729232e-16)
(459.96857 -0.00050965003 8.8985044e-16)
(459.95738 -0.001483087 2.7194489e-15)
(459.96666 -0.0028366271 3.628689e-16)
(459.96289 -0.0027338831 4.1663943e-16)
(459.96738 -0.0013225131 3.6733032e-16)
(459.96708 -0.00067142999 -9.2114685e-16)
(459.97054 0.0034092207 4.9865478e-16)
(459.9657 0.0054577344 5.965697e-16)
(459.97559 0.0015460905 3.5958622e-16)
(459.96652 -0.0048113894 3.3102988e-16)
(459.96796 -0.00040970429 4.9033553e-16)
(459.95514 0.0023576837 1.8570856e-15)
(459.95962 -0.00093454875 6.4229403e-17)
(459.94989 -0.0043468043 -1.1021189e-15)
(459.94166 0.0023305642 -1.388603e-15)
(459.93774 0.00070475681 6.4650407e-16)
(459.94365 0.0041856586 2.9377405e-16)
(459.93586 -0.00028913072 5.3555229e-16)
(459.94537 -0.0023329439 4.3721911e-16)
(459.93819 -0.0028001502 -1.3490474e-15)
(459.94065 0.00031687799 -1.1085193e-15)
(459.9475 0.00093461535 6.6232059e-16)
(459.95712 0.0016541942 2.0210253e-15)
(459.96137 -0.0027793939 2.2389281e-16)
(459.96124 -0.0015930076 1.8766829e-15)
(459.9986 0.0054907528 -4.2237165e-17)
(459.97855 -0.0094379908 6.5398181e-18)
(459.9609 0.016112634 6.8843349e-17)
(459.96222 -0.0077366963 -3.6060293e-17)
(459.94897 -0.00099597019 1.9206545e-18)
(459.95275 -0.0053021976 1.1857542e-16)
(459.94983 0.0027634719 5.2379457e-17)
(459.94872 0.0049188871 2.543743e-16)
(459.95177 -0.0050233284 1.1401126e-16)
(459.94341 0.011373429 2.8421848e-16)
(459.9522 -0.015331814 2.138471e-16)
(459.94899 0.018098173 1.8169505e-16)
(459.95479 -0.021902215 1.3881851e-16)
(459.94956 0.022411971 -6.98071e-16)
(459.95432 -0.023840174 2.3811941e-16)
(459.94852 0.024500237 -8.0476978e-16)
(459.96062 -0.023297861 1.5598365e-16)
(459.95101 0.021573959 3.8530522e-16)
(459.97002 -0.020495957 1.2806606e-16)
(459.94828 0.015924046 3.4397991e-16)
(459.97443 -0.012827647 2.3114921e-16)
(459.94485 0.0075685089 2.1302632e-16)
(459.9743 -0.0016891921 4.833103e-17)
(459.95261 -0.0036223898 1.4367964e-15)
(459.97312 0.0076031339 1.045757e-16)
(459.95879 -0.0099756963 2.1948474e-16)
(459.97333 0.0097884235 -6.2940725e-16)
(459.96185 -0.013087621 -4.8481414e-16)
(459.97188 0.013445987 1.6376924e-15)
(459.9676 -0.011236647 3.0139992e-16)
(459.97044 0.010711398 1.8647185e-16)
(459.9671 -0.007483996 3.6623977e-16)
(459.97397 0.0025844072 6.5656788e-18)
(459.96912 -0.0020162823 1.9233189e-16)
(459.9742 -0.00027565985 -2.3447826e-17)
(459.96911 0.0049064731 2.4254493e-16)
(459.97795 -0.0086249965 9.9915973e-17)
(459.96032 0.0082027968 -5.998123e-16)
(459.97523 -0.0092833565 8.8360857e-17)
(459.96138 0.0097008603 1.2822222e-16)
(459.97443 -0.0012586202 1.0911037e-17)
(459.96416 0.0019528662 -5.9763248e-16)
(459.96809 -0.0038675253 1.6250262e-16)
(459.95999 -0.0033872218 4.1373176e-16)
(459.9681 0.0030140326 1.2332259e-16)
(459.9556 -0.001088645 -4.798777e-16)
(459.97413 0.0013437401 2.9171461e-16)
(459.95402 0.0010414198 -3.2881148e-16)
(459.9729 0.0019507691 1.1920719e-16)
(459.95522 0.0013447722 1.2723973e-16)
(459.96654 -0.0010481889 1.5224583e-16)
(459.95588 -0.0015652583 -3.7948482e-16)
(459.96431 -0.0012027612 2.3141368e-16)
(459.96153 -0.0017906936 -5.0959312e-16)
(459.96498 -0.003741264 3.5443836e-17)
(459.96573 -0.0032561684 2.7048832e-16)
(459.96862 0.0041518974 2.6398664e-16)
(459.96358 0.0047307556 2.0868776e-16)
(459.97246 0.0048722706 1.7365005e-16)
(459.96484 -0.0031122912 -3.571266e-16)
(459.96755 0.0028114587 1.7722153e-16)
(459.95416 -0.002731855 9.6569581e-17)
(459.95799 -4.8554075e-05 3.1016838e-16)
(459.94949 -0.0029539759 1.1933718e-16)
(459.94129 0.0017036254 -3.9232941e-16)
(459.93699 0.00096569248 3.1913815e-16)
(459.94252 0.0044709514 -4.3566395e-16)
(459.93413 -0.00080075049 1.7006607e-16)
(459.94435 0.00025323611 1.0188606e-16)
(459.93793 -0.0014392345 2.3005386e-16)
(459.9409 -0.0023337482 7.7128266e-16)
(459.94772 -0.0012445268 -6.1191082e-16)
(459.95682 0.0019297237 1.3617412e-16)
(459.96138 -0.0012354935 1.7704486e-16)
(459.96146 -0.0016155026 2.2067486e-16)
(459.97952 0.0099412049 4.1082028e-17)
(459.99402 -0.016834771 -7.5209185e-16)
(459.94615 0.022138317 5.2050828e-17)
(459.97178 -0.011815597 -9.0939182e-17)
(459.9368 0.0025988042 4.3565814e-17)
(459.9611 -0.0083746701 5.8985538e-16)
(459.94099 0.0011386514 5.3333338e-17)
(459.95355 0.0092101651 -1.1148463e-17)
(459.9443 -0.012285978 1.1703004e-17)
(459.9465 0.019916347 1.0453848e-16)
(459.94531 -0.026166288 -1.2998069e-16)
(459.95179 0.030079921 -7.3798398e-16)
(459.94751 -0.036384186 -4.094241e-16)
(459.9519 0.038545836 7.3374761e-16)
(459.94688 -0.041635706 6.7697335e-16)
(459.94978 0.041127984 -8.0054397e-16)
(459.95309 -0.037884262 5.441438e-16)
(459.95116 0.033383263 -2.5445961e-16)
(459.96365 -0.029579931 -5.915534e-17)
(459.94823 0.02162044 -9.6547302e-17)
(459.96963 -0.014597996 1.2324931e-16)
(459.94509 0.0032871131 4.9341167e-16)
(459.97026 0.0051756438 5.1515487e-16)
(459.95161 -0.010835552 -8.5770503e-17)
(459.96967 0.014598743 3.1082331e-17)
(459.95627 -0.016645989 -9.2619847e-17)
(459.96913 0.016612407 -5.0179015e-16)
(459.95937 -0.018969722 -1.3389293e-16)
(459.9682 0.015460313 -3.8724368e-16)
(459.96515 -0.011635722 5.7951938e-16)
(459.96724 0.0090934115 8.4407745e-17)
(459.96464 -0.0039146459 -1.5131145e-16)
(459.97114 -0.0013049627 -4.6892399e-16)
(459.96734 0.002768032 -2.9003692e-17)
(459.97192 -0.0081702688 8.3663463e-17)
(459.9662 0.01181033 -1.2289594e-16)
(459.97539 -0.013215135 -3.7526982e-16)
(459.95795 0.01045456 -3.9398951e-16)
(459.9721 -0.010295245 1.6544591e-17)
(459.96001 0.0097913543 -1.0264703e-16)
(459.96989 0.00034257697 -3.6758442e-18)
(459.96078 0.0008772892 -7.8489142e-18)
(459.96307 -0.0010340816 -3.2832148e-16)
(459.95717 -0.0068848734 1.0591491e-17)
(459.96409 0.0022026585 2.1701945e-17)
(459.95142 -0.00043784192 -1.3462011e-16)
(459.97049 0.0016468369 4.5390024e-16)
(459.95081 0.00035455583 5.5427148e-16)
(459.96942 0.0023584344 -4.4516956e-16)
(459.95183 0.0031670476 -2.0021492e-17)
(459.96268 -0.0021469188 5.2280845e-16)
(459.95295 -0.00022204006 6.5860308e-16)
(459.95981 -0.001300144 2.2969535e-17)
(459.95708 -0.0011441161 1.4763671e-17)
(459.9588 -0.003851304 7.7626693e-17)
(459.96185 -0.0058663394 4.3709878e-16)
(459.96376 0.0041369451 -8.6824815e-16)
(459.95875 0.0026420383 -1.9846637e-17)
(459.96714 0.0068446676 -9.9058749e-17)
(459.96082 -0.00088687157 -5.2615297e-16)
(459.96451 0.0079228645 -2.9747705e-16)
(459.95161 -0.0050760831 -2.8590484e-16)
(459.95678 -0.00059993537 3.4070794e-19)
(459.94851 -0.0047673591 -1.5833252e-17)
(459.94011 0.00046296071 -2.8516668e-16)
(459.9362 0.0024020343 -4.9394258e-16)
(459.94045 0.006215129 1.389877e-17)
(459.93249 -2.6043837e-05 -7.255572e-17)
(459.94322 0.00071113712 7.4350387e-17)
(459.93684 -0.0019420058 -1.0892739e-17)
(459.94098 -0.0041660033 -8.7815319e-18)
(459.94936 -0.0025093728 4.57161e-17)
(459.95863 0.0016861058 -3.1983906e-17)
(459.96278 -0.0011298876 3.1066504e-16)
(459.96332 -0.0023136413 3.8205961e-16)
(459.90011 0.013464268 1.4421155e-20)
(460.05822 -0.02086348 4.1233072e-18)
(459.88078 0.028627312 -6.3092012e-16)
(460.01984 -0.017387218 -5.0121345e-16)
(459.88314 0.0076799893 -5.2405606e-17)
(459.99957 -0.012313982 -5.7933756e-16)
(459.89894 0.0020057815 5.5005631e-17)
(459.98325 0.009729322 2.1602109e-17)
(459.90903 -0.013570254 1.2627778e-16)
(459.97068 0.022412152 -4.7907656e-16)
(459.91526 -0.030613015 -5.0721022e-16)
(459.97108 0.037158311 5.7950942e-16)
(459.92174 -0.045621205 5.0299482e-16)
(459.96638 0.049688918 4.6788053e-16)
(459.92397 -0.054087148 4.6971013e-16)
(459.96062 0.053991612 2.4855005e-17)
(459.93246 -0.050283445 6.6835123e-17)
(459.9594 0.044425765 4.1508985e-17)
(459.94734 -0.03844755 -5.4989529e-16)
(459.95671 0.027151096 2.5921748e-17)
(459.95803 -0.017091094 5.6819749e-18)
(459.9545 0.0031542923 4.6301574e-16)
(459.96315 0.0045142011 1.340745e-17)
(459.95884 -0.010506148 -1.7684659e-19)
(459.96378 0.016564844 3.4544286e-16)
(459.96032 -0.018971421 -9.3560775e-18)
(459.96318 0.01861731 -4.0985657e-16)
(459.96087 -0.020355992 7.9650446e-17)
(459.9638 0.015351605 3.05742e-16)
(459.96591 -0.011657416 -3.0393683e-16)
(459.96448 0.0086847323 3.7243936e-16)
(459.96528 -0.0021486496 1.404051e-17)
(459.96984 -0.0028437214 5.7606221e-17)
(459.96745 0.0058663091 4.0061242e-16)
(459.97121 -0.012943239 -3.5124152e-17)
(459.96566 0.014536724 7.7814148e-18)
(459.97227 -0.014961628 -7.3759278e-17)
(459.95667 0.011340583 -3.1806169e-16)
(459.96793 -0.010833666 3.0768834e-16)
(459.95791 0.012594087 1.8754208e-17)
(459.96321 -0.0007596364 -4.620174e-17)
(459.95611 0.0019563167 2.5909032e-17)
(459.95514 5.3959168e-05 8.876229e-18)
(459.95116 -0.0083966101 1.0898144e-17)
(459.95736 0.002159393 -7.0779701e-17)
(459.94463 -0.001933104 -1.8775895e-18)
(459.96298 0.002743285 -5.3475781e-17)
(459.94392 0.0014914707 -7.3521542e-19)
(459.96308 0.0010321572 2.79852e-19)
(459.9449 0.0043604294 3.6315581e-16)
(459.95526 -0.0031991029 7.2005944e-18)
(459.94658 0.0019802128 -4.2849427e-18)
(459.95154 -0.0034842875 3.7513804e-16)
(459.94945 0.00012812856 3.2783347e-17)
(459.94887 -0.0026361304 -6.897176e-17)
(459.95403 -0.0071848793 -3.4155401e-18)
(459.95533 0.0021665149 -2.8240594e-16)
(459.9507 0.0023541473 4.3785135e-17)
(459.95907 0.0072552566 2.5091301e-16)
(459.9549 -0.00075381138 -3.3845243e-17)
(459.95851 0.011666866 1.7822324e-17)
(459.94686 -0.003989459 -1.2518767e-17)
(459.95328 0.00052520904 -2.720286e-16)
(459.94725 -0.0076432361 -2.269461e-16)
(459.93901 -0.0014973943 2.3144123e-16)
(459.93612 0.0033071681 -1.2112697e-17)
(459.93804 0.0071685138 2.5630444e-16)
(459.93042 0.001185216 -5.0248114e-17)
(459.94118 0.0017271169 -3.1953986e-16)
(459.93581 -0.0054043874 -3.0308081e-16)
(459.94092 -0.0038229451 3.0222259e-16)
(459.95146 -0.0019142532 8.5082965e-17)
(459.96066 -3.8312831e-06 6.2467013e-18)
(459.96512 -0.0034780109 -2.4864741e-17)
(459.96637 -0.0033654064 -2.5195453e-16)
(459.68906 0.014618643 -3.8702117e-17)
(460.24055 -0.017242561 1.0006639e-16)
(459.69485 0.028433336 1.8852422e-16)
(460.17439 -0.015329874 -6.3098911e-17)
(459.72243 0.0073346121 -3.5761237e-17)
(460.13362 -0.012569633 -1.1228377e-17)
(459.76423 0.0046898185 1.5163967e-17)
(460.09921 0.0069391386 -5.2450669e-16)
(459.79496 -0.010291143 3.5353342e-17)
(460.07179 0.021054428 -4.2597463e-17)
(459.81928 -0.030403912 -5.2966922e-16)
(460.05793 0.038238725 1.4992553e-17)
(459.84104 -0.045104379 -1.5676696e-17)
(460.03932 0.048656815 8.6202867e-17)
(459.85724 -0.053283371 1.1008352e-18)
(460.02149 0.053630524 -7.0984858e-17)
(459.87775 -0.049578794 4.3979628e-16)
(460.01178 0.043615464 2.6195672e-17)
(459.90465 -0.038649566 -3.9056754e-17)
(460.00523 0.027875044 2.8644959e-16)
(459.92697 -0.020684634 4.2701868e-16)
(460 0.0079977371 5.4228215e-17)
(459.94165 -0.001529454 -6.9476291e-17)
(459.99902 -0.0052536454 -6.6874555e-17)
(459.94645 0.011327419 7.4342071e-17)
(459.99167 -0.01169088 3.0162748e-16)
(459.94781 0.012652911 3.2556322e-18)
(459.98354 -0.014771685 -1.4586088e-17)
(459.95086 0.0093171387 2.1725198e-17)
(459.982 -0.008135029 -3.9409044e-16)
(459.95433 0.0062158481 2.8011236e-16)
(459.97613 0.00035829028 2.9641404e-16)
(459.96164 -0.0026335438 3.0682405e-16)
(459.97397 0.0048258148 -2.2624346e-16)
(459.96276 -0.011172187 -2.6463478e-16)
(459.96825 0.012724687 -3.9009019e-16)
(459.9606 -0.015371513 -2.2375192e-16)
(459.95526 0.011891424 2.2421117e-17)
(459.9542 -0.010928379 7.6277427e-17)
(459.95328 0.014895222 6.7133868e-18)
(459.94617 -0.00099781597 -6.9707684e-18)
(459.94746 0.003753587 2.8225278e-16)
(459.93709 -0.00023565676 1.5417895e-17)
(459.94037 -0.008602235 2.7085542e-16)
(459.94085 0.0012911075 -2.8837144e-16)
(459.9322 -0.0021940591 1.4646853e-17)
(459.94688 0.00054575268 2.9848513e-16)
(459.93094 0.0052806753 2.2989818e-16)
(459.94698 -0.00036360693 1.6849621e-16)
(459.93229 0.0052329497 -2.3756401e-16)
(459.93999 -0.0053847579 2.8730003e-16)
(459.93494 0.004966285 2.2293269e-16)
(459.93771 -0.0064636294 6.4022226e-17)
(459.93881 0.0017552493 2.5111332e-16)
(459.93568 -0.0038805729 1.9309992e-17)
(459.9439 -0.0052267006 -2.5365633e-16)
(459.94531 -0.00031095646 -2.1442065e-16)
(459.94165 0.00077167506 2.7284745e-16)
(459.94802 0.0073846376 7.747601e-17)
(459.94716 0.0011384994 2.3486335e-16)
(459.94881 0.014244758 -3.6697997e-17)
(459.93938 -0.0052706763 9.325361e-19)
(459.9451 0.0010243018 2.362693e-16)
(459.94269 -0.0067911321 1.1848713e-17)
(459.93481 -0.00043654522 1.8126542e-16)
(459.93428 0.0029596608 -2.5875637e-16)
(459.93287 0.0057733728 -7.0147676e-18)
(459.92643 0.00033638338 2.4036759e-17)
(459.93454 0.0050469108 -1.9276279e-16)
(459.93067 -0.0092972666 -1.3211183e-17)
(459.9357 -0.0025040309 3.7974818e-17)
(459.94728 -0.00067094854 2.1046828e-16)
(459.95489 -0.00053880385 -1.788355e-16)
(459.96073 -0.0059823668 4.1374142e-17)
(459.96201 -0.0040572684 3.3139042e-17)
(459.35939 0.015130553 2.3868715e-17)
(460.55727 -0.010035374 -2.6357233e-16)
(459.37694 0.024606329 -9.8900833e-18)
(460.47648 -0.011382294 2.8490915e-17)
(459.42287 0.003853518 -1.2609506e-16)
(460.42364 -0.010442857 3.3200608e-16)
(459.4898 0.0038906525 -1.3525996e-16)
(460.37423 0.0074544159 -2.0554019e-16)
(459.54585 -0.010999375 -3.6399825e-17)
(460.32987 0.020016209 4.2894273e-16)
(459.59578 -0.026874784 -3.1503127e-16)
(460.29507 0.032382495 3.3422892e-16)
(459.64237 -0.036860706 -4.2203913e-17)
(460.25257 0.039463907 -3.5791121e-16)
(459.68434 -0.044064704 1.9274185e-17)
(460.21162 0.04310579 7.6646543e-17)
(459.72755 -0.038983817 -6.4983185e-19)
(460.17985 0.034007313 5.5393239e-17)
(459.77509 -0.033394414 2.2901577e-17)
(460.15247 0.025377961 -6.8813097e-17)
(459.81529 -0.023166109 3.0412449e-16)
(460.12763 0.012029168 6.9564671e-17)
(459.84549 -0.0080429783 1.7707142e-18)
(460.10676 0.003511555 7.5805908e-17)
(459.86287 0.0001795186 1.4186158e-17)
(460.0783 0.0012273741 5.9133332e-17)
(459.87174 0.002580462 3.3161014e-16)
(460.04926 -0.0035684662 -3.5205842e-17)
(459.88154 -0.0016055088 -2.8063736e-16)
(460.02888 -0.00080365196 4.0260682e-17)
(459.89082 0.0004738952 5.873659e-17)
(460.00663 0.0037775875 -2.3112527e-16)
(459.90264 -0.00077543682 1.5240394e-19)
(459.99214 0.0036499797 1.1978157e-16)
(459.90809 -0.0093388733 2.926793e-16)
(459.97755 0.010820913 -4.3479395e-18)
(459.90761 -0.014333865 6.6841784e-17)
(459.9593 0.010221263 -2.6660352e-17)
(459.90473 -0.0076473699 2.4531727e-16)
(459.95273 0.014875661 -1.9211266e-16)
(459.90003 -0.0010952426 -1.4255786e-16)
(459.94232 0.0058351869 7.4959296e-17)
(459.89553 -0.0027896742 9.6379144e-18)
(459.93325 -0.0055175965 3.0428338e-16)
(459.90557 -0.0038418526 3.1977237e-17)
(459.92421 -0.00042053579 2.3154621e-16)
(459.91544 -0.0008664804 4.9684297e-17)
(459.92343 0.0064572787 3.5524768e-18)
(459.91828 -0.00084767516 3.5747973e-17)
(459.92511 0.0076810279 7.2970278e-17)
(459.91617 -0.0094555644 1.8346854e-16)
(459.93003 0.0085511972 4.748891e-17)
(459.91897 -0.01032123 -1.3871161e-16)
(459.93619 0.003167568 1.7950596e-17)
(459.9219 -0.0087785563 2.0318625e-16)
(459.94223 -0.00085299441 -1.7042105e-16)
(459.93487 -0.0020243344 8.964091e-17)
(459.93942 -0.0032440736 1.8930106e-16)
(459.9368 0.003723005 5.2182527e-17)
(459.94258 0.0052208065 -6.3853218e-17)
(459.93355 0.017050013 -1.9966536e-16)
(459.92983 -0.004905497 1.1585273e-17)
(459.92969 -0.00073002994 2.7441931e-16)
(459.93347 -0.0077891159 1.3742428e-17)
(459.91974 0.0037885984 -3.760578e-16)
(459.92393 0.0038828062 2.2994119e-16)
(459.91493 0.0055264443 -1.1005732e-16)
(459.91245 3.9750248e-05 7.352181e-17)
(459.91171 0.0043458156 2.1244045e-16)
(459.90961 -0.014821967 3.7415622e-17)
(459.90984 -0.0015783257 5.4610768e-17)
(459.92132 -0.001168365 4.229262e-17)
(459.92175 0.0021607137 2.7533573e-17)
(459.92864 -0.0065417617 -1.1422684e-16)
(459.9257 -0.0044651894 3.2443169e-17)
(459.15269 0.014489859 2.737496e-17)
(460.80464 -0.00038797506 -1.8287963e-16)
(459.13246 0.016965131 -2.4727379e-17)
(460.7583 -0.0083268501 1.677669e-16)
(459.14734 -0.0010867872 -1.346558e-17)
(460.73849 -0.0063963104 7.2719411e-18)
(459.19021 -0.00098237748 4.8141549e-17)
(460.71361 0.011263353 -1.5729604e-18)
(459.22927 -0.014560828 -2.046031e-16)
(460.68364 0.019147031 1.8158325e-16)
(459.27188 -0.023896827 8.2699325e-17)
(460.65074 0.027324363 4.5359924e-17)
(459.31689 -0.030381862 3.5052378e-16)
(460.60298 0.030189808 -3.4230214e-16)
(459.36157 -0.03321194 2.5603317e-17)
(460.55114 0.03066602 9.887597e-18)
(459.40951 -0.028079275 4.5644678e-17)
(460.49866 0.024762493 6.7469041e-17)
(459.46426 -0.027016117 -2.5485808e-16)
(460.4417 0.020488855 -1.3708277e-17)
(459.51532 -0.02145578 1.035575e-16)
(460.38224 0.012785365 -2.2392418e-18)
(459.56542 -0.012200338 4.6647961e-17)
(460.32682 0.010805355 3.7958042e-17)
(459.60791 -0.0083391832 -1.8949762e-16)
(460.26728 0.011508082 3.1344782e-16)
(459.63962 -0.0059787391 2.418555e-17)
(460.20823 0.0073281637 -1.2591937e-16)
(459.67196 -0.010252457 -1.8049821e-16)
(460.15945 0.0058715311 -2.4934362e-16)
(459.70356 -0.0046358696 3.1440484e-16)
(460.11127 0.006778758 6.1848545e-17)
(459.73614 0.00060845768 4.7011308e-17)
(460.07771 0.0049186301 6.2419483e-17)
(459.7627 -0.0085889225 6.4004856e-17)
(460.05341 0.0085187567 -1.4310361e-16)
(459.78126 -0.014630848 2.1224386e-16)
(460.03031 0.0096641317 1.9752426e-16)
(459.79903 -0.0047152008 3.7446479e-17)
(460.0169 0.016554432 1.0460617e-16)
(459.81326 -0.0028965371 7.534299e-17)
(459.99872 0.008606164 -1.3328343e-16)
(459.82536 -0.007279644 2.5767965e-16)
(459.98381 -0.00083436721 2.204517e-16)
(459.84869 -0.0099510322 5.1805145e-17)
(459.97082 -0.00011259012 1.798243e-16)
(459.86729 -0.0030573693 2.0700106e-17)
(459.96474 0.0084272704 2.4780008e-16)
(459.87578 -0.0029565298 1.3251509e-16)
(459.96047 0.010447158 -1.8238927e-16)
(459.87771 -0.012675414 7.4225932e-17)
(459.96028 0.012568901 1.5295267e-17)
(459.88273 -0.01669997 5.1329681e-18)
(459.95812 0.0068193948 2.0950457e-16)
(459.88708 -0.015008911 -1.30335e-16)
(459.95394 0.0048993058 -1.8442662e-16)
(459.89628 -0.0061033028 3.2356088e-17)
(459.93654 -0.0051971456 2.2260824e-17)
(459.89138 -0.0027506275 5.3512135e-17)
(459.9258 0.0079909263 -1.3245567e-16)
(459.87316 0.012392202 4.8452188e-17)
(459.89163 0.001042221 6.5688426e-18)
(459.85593 2.0535002e-05 -1.4909132e-16)
(459.88015 -0.0099865645 4.2802107e-17)
(459.83393 0.0064017248 5.1363979e-17)
(459.8518 0.0059011099 1.8533798e-16)
(459.81093 0.0080614611 -8.1988771e-17)
(459.81984 0.0057694127 1.7664369e-16)
(459.78651 -0.0013846466 -1.3158028e-16)
(459.79277 -0.020643734 -1.3646291e-16)
(459.76577 -0.0025355569 3.8426263e-18)
(459.77984 -0.005270408 1.9834278e-17)
(459.75099 0.0027000266 -1.3607751e-16)
(459.75945 -0.0061489411 2.1180445e-17)
(459.73102 -0.0038298606 1.6811613e-16)
(459.27443 0.012977087 -5.177443e-18)
(460.72008 0.010477455 -1.8981098e-16)
(459.21964 0.0067999003 2.6803618e-16)
(460.70623 -0.0033421382 3.3631814e-17)
(459.18919 -0.007472569 -1.2971866e-16)
(460.72997 0.0013551299 3.9634752e-17)
(459.1703 -0.0065609501 6.5471965e-17)
(460.75741 0.014408409 5.4120994e-17)
(459.14239 -0.016630533 2.4089551e-16)
(460.78264 0.018355994 6.0806915e-17)
(459.12277 -0.022880203 2.5568523e-16)
(460.80458 0.025004322 -1.3036731e-18)
(459.10316 -0.025233571 3.163292e-17)
(460.81601 0.022562634 -9.1781341e-17)
(459.08101 -0.024407288 7.0690563e-17)
(460.82025 0.023425975 2.1339649e-17)
(459.06723 -0.021109304 8.8564074e-17)
(460.81111 0.018980056 1.6068908e-17)
(459.07213 -0.019680085 -2.0710431e-16)
(460.78178 0.015540926 3.7558148e-17)
(459.09181 -0.018399388 5.7038762e-17)
(460.73449 0.012893721 3.3169928e-16)
(459.13708 -0.011393534 4.2639818e-17)
(460.67864 0.011198349 -2.3239892e-16)
(459.19693 -0.010201628 -1.7849611e-16)
(460.61307 0.016054956 4.6829209e-17)
(459.25272 -0.0079770097 6.9108708e-17)
(460.54556 0.010554173 2.6710388e-16)
(459.31534 -0.011626932 2.5865129e-16)
(460.48172 0.0071853929 -2.29546e-16)
(459.38433 -0.005876356 2.319833e-17)
(460.41145 0.0064945741 2.1241777e-17)
(459.45385 0.0029991519 7.6551819e-17)
(460.3572 0.0042002954 -1.5497543e-16)
(459.51449 -0.0069626904 -1.0020302e-17)
(460.31729 0.0060128494 -1.6060566e-16)
(459.56354 -0.02007979 6.0501747e-17)
(460.2799 0.011876369 -1.3996182e-16)
(459.60796 -0.0042988316 4.9686727e-17)
(460.24212 0.018385417 3.9350374e-16)
(459.64567 -0.0045876862 3.6657853e-17)
(460.19251 0.011890903 -2.4230702e-17)
(459.67645 -0.011346026 1.2415809e-17)
(460.14563 0.0074086494 2.2963005e-16)
(459.70674 -0.01867803 -1.6605865e-16)
(460.1024 0.0036236724 -5.2714807e-18)
(459.72246 -0.0096726257 -1.7375431e-16)
(460.0618 0.012363417 5.9218762e-17)
(459.71919 -0.004345361 2.0035806e-17)
(460.01787 0.0098640062 2.0967777e-17)
(459.70392 -0.01120556 1.1630884e-17)
(459.97396 0.018497258 -1.4179996e-16)
(459.68499 -0.02332004 3.3133637e-17)
(459.92152 0.013844398 6.2412649e-17)
(459.6621 -0.020931352 -1.1459287e-17)
(459.86107 0.017436045 4.5464663e-17)
(459.63447 -0.012304028 -1.4414827e-16)
(459.78309 -0.0031844091 -1.1890104e-16)
(459.58776 -0.0111539 1.1484579e-16)
(459.71145 0.01725486 6.7375979e-18)
(459.51576 -0.0025948193 1.4901462e-16)
(459.60767 0.0075185236 -1.3631221e-16)
(459.43905 -0.003048065 2.7919458e-17)
(459.52242 -0.004368894 -1.2770213e-18)
(459.35667 0.0096595757 -9.5314325e-17)
(459.41761 0.009540021 -6.4393139e-17)
(459.26375 0.012307042 -1.2016733e-18)
(459.30379 0.018536785 -1.2537852e-16)
(459.15823 -0.0060131994 -1.3428837e-16)
(459.18907 -0.013982259 -1.1654658e-16)
(459.0586 -0.0017568161 1.6544261e-17)
(459.0852 -0.0059930399 1.3527808e-16)
(458.95529 0.0015352687 -8.5297471e-18)
(458.9713 -0.0052094102 -1.7712743e-18)
(458.84545 -0.0020754285 1.4218514e-16)
(459.36474 0.01216649 8.7610675e-19)
(460.56783 0.020555309 1.369066e-16)
(459.38559 -0.0022858874 -4.5741355e-17)
(460.47448 0.0025337533 9.9741187e-17)
(459.42453 -0.012584834 1.4687756e-16)
(460.43029 0.0097650888 -9.6062601e-17)
(459.4476 -0.010105479 8.0207206e-17)
(460.4171 0.016344193 2.81647e-17)
(459.43938 -0.018171531 8.4796523e-17)
(460.43072 0.018539761 1.8256157e-16)
(459.42051 -0.021484841 -7.430925e-17)
(460.47381 0.022355617 -4.7504529e-19)
(459.36984 -0.020529297 1.9383178e-16)
(460.54357 0.019020588 2.1003915e-16)
(459.2851 -0.021056907 7.5932181e-18)
(460.63542 0.022192285 -1.3100149e-17)
(459.18818 -0.018570966 -6.8368823e-18)
(460.73161 0.018116069 -1.0337133e-16)
(459.09896 -0.017139857 3.1340314e-16)
(460.81716 0.015920567 -8.7652752e-18)
(459.02169 -0.020278777 1.9983229e-17)
(460.88343 0.015282376 -6.4626452e-18)
(458.98255 -0.010406966 5.3138827e-17)
(460.91905 0.0096547815 -8.5094491e-19)
(458.98353 -0.011312092 2.0986562e-16)
(460.92454 0.016357053 -6.2370357e-17)
(458.99107 -0.005647185 -1.7165979e-16)
(460.91599 0.0082159136 2.7084203e-16)
(459.01521 -0.0089591985 -2.2569169e-17)
(460.89207 0.0021799738 -1.9416276e-16)
(459.06008 -0.0027922552 3.7416568e-17)
(460.83375 0.00069012186 -2.2908071e-17)
(459.11396 0.0085431859 2.3860697e-16)
(460.77021 -0.00081196493 2.8350015e-17)
(459.15877 0.0010720496 -1.4116343e-16)
(460.70873 -0.001581026 -2.0684419e-16)
(459.19024 -0.022144537 1.2543893e-17)
(460.63892 0.0116064 1.4256479e-16)
(459.21049 -0.0016732401 1.7589521e-17)
(460.54337 0.017900149 1.9482785e-17)
(459.22365 -0.0055696211 7.2323789e-17)
(460.41293 0.017054461 -2.3282968e-17)
(459.22843 -0.013916062 1.5173315e-17)
(460.27324 0.021947275 -2.1326769e-17)
(459.2099 -0.025165743 -9.510508e-18)
(460.13869 0.010012133 2.1504104e-17)
(459.15596 -0.013227041 3.0566296e-17)
(459.9932 0.015578483 1.464716e-17)
(459.07148 -0.00065203911 -8.0217862e-17)
(459.8206 0.0079815215 -4.6769987e-17)
(458.96718 -0.0033639053 1.4164783e-17)
(459.63332 0.025588978 1.3164681e-16)
(458.84073 -0.023258935 -1.3172589e-16)
(459.42483 0.025636172 2.2928008e-17)
(458.70335 -0.021766093 -2.8221065e-17)
(459.19344 0.037356389 1.8470709e-17)
(458.53823 -0.011691859 -1.4086237e-16)
(458.93582 0.0059375425 -1.8825716e-16)
(458.34339 -0.018821895 -1.5565177e-16)
(458.6782 0.035057788 1.4988438e-17)
(458.09829 -0.015351861 2.5088754e-17)
(458.37117 0.019726661 -3.8411033e-17)
(457.84074 -0.012963242 -1.3115794e-16)
(458.06773 0.0081370955 -1.0842852e-16)
(457.57046 0.014871362 -1.1407553e-17)
(457.73954 0.02076988 5.8408636e-18)
(457.2824 0.02505562 -1.2494233e-17)
(457.39747 0.036922219 -1.2561388e-16)
(456.95716 -0.0060497626 -1.5672334e-16)
(457.04305 0.010615488 -4.0546429e-17)
(456.63628 0.0019094482 -2.2922601e-17)
(456.69501 0.0053996481 -1.2378091e-16)
(456.3079 0.0083766949 -6.4929404e-18)
(456.34212 0.0055869921 -1.4251105e-17)
(455.96797 0.0058395855 -2.0402103e-17)
(459.01134 0.01056296 -6.7731605e-17)
(460.87576 0.028283144 -1.2274712e-16)
(459.10422 -0.010692177 -2.0635557e-16)
(460.69696 0.0063905258 -2.2644247e-16)
(459.25755 -0.014562585 1.1144832e-16)
(460.53491 0.014679717 -7.0285155e-17)
(459.42079 -0.011628077 -6.7614537e-17)
(460.38615 0.017812067 1.0946209e-16)
(459.57179 -0.020120203 1.0550483e-16)
(460.25364 0.01737415 -1.758965e-16)
(459.72134 -0.017950037 -9.6592435e-18)
(460.1535 0.018108226 -3.2241247e-17)
(459.82439 -0.016834188 1.4070725e-16)
(460.10238 0.016259618 1.170254e-16)
(459.86278 -0.018139815 9.8499743e-19)
(460.1071 0.019732174 -1.9247576e-17)
(459.84798 -0.018336218 3.6861847e-17)
(460.15982 0.020633067 -1.5466718e-17)
(459.78318 -0.019545217 2.0703601e-17)
(460.25645 0.01911288 2.5267971e-17)
(459.66759 -0.026804017 6.0647289e-17)
(460.38399 0.021638794 -6.1986805e-19)
(459.53841 -0.014357458 8.5459404e-17)
(460.50331 0.011664393 -6.5680863e-18)
(459.42651 -0.015636069 -1.8193611e-16)
(460.60073 0.01909403 3.3658373e-17)
(459.30306 -0.0079900737 5.3888475e-17)
(460.68751 0.0095866525 1.9459576e-16)
(459.1757 -0.0065683827 8.6439286e-17)
(460.75364 -0.0042956094 3.2425217e-17)
(459.05817 0.0031721979 2.5024341e-17)
(460.76027 -0.0054974135 -1.3911848e-18)
(458.94718 0.01687381 -1.4222582e-16)
(460.72525 -0.010176649 2.0254353e-16)
(458.82169 0.023642902 5.9088209e-17)
(460.65868 -0.014949108 2.4010632e-17)
(458.67819 -0.013423065 3.5419077e-17)
(460.55241 0.009483251 1.5889877e-18)
(458.50875 0.0055354164 1.5140505e-16)
(460.37013 0.015981733 7.1655223e-18)
(458.32129 0.00096260857 9.3925382e-17)
(460.10246 0.018204304 1.4863311e-16)
(458.12358 -0.0049603963 -2.424516e-17)
(459.77768 0.034261315 -7.1382064e-19)
(457.87142 -0.020118895 -1.7605126e-17)
(459.43966 0.023037216 5.2412717e-18)
(457.55008 -0.020639788 1.4335906e-16)
(459.05347 0.028021569 1.0822194e-16)
(457.18062 0.00089791762 4.5171279e-17)
(458.57534 0.012509789 -3.2157472e-16)
(456.7945 0.0095798623 -2.0269806e-16)
(458.0442 0.031306052 -1.4080111e-17)
(456.36095 -0.014039438 1.7123087e-16)
(457.47564 0.038888107 -6.2471448e-17)
(455.9045 -0.01051581 -2.7242821e-17)
(456.85511 0.058356441 9.2336963e-17)
(455.39178 -0.0011848378 -1.9197337e-16)
(456.18618 0.026430191 -2.0152326e-16)
(454.81972 -0.01754076 1.1487543e-16)
(455.49587 0.051904825 9.9282585e-17)
(454.15072 -0.026483114 -1.6555633e-16)
(454.77182 0.04001164 -2.1662696e-16)
(453.5001 -0.024247837 -1.6604104e-16)
(454.06582 0.022356506 5.5837037e-17)
(452.86696 0.00047018351 -6.9289892e-17)
(453.33681 0.035109813 -1.4923119e-17)
(452.22165 0.031272929 -2.4777769e-17)
(452.57898 0.052510992 -8.943152e-17)