/*--------------------------------*- C++ -*----------------------------------*\
| =========                 |                                                 |
| \\      /  F ield         | OpenFOAM: The Open Source CFD Toolbox           |
|  \\    /   O peration     | Version:  2.3.0                                 |
|   \\  /    A nd           | Web:      www.OpenFOAM.org                      |
|    \\/     M anipulation  |                                                 |
\*---------------------------------------------------------------------------*/
FoamFile
{
    version     2.0;
    format      ascii;
    class       volScalarField;
    location    "0.015";
    object      T;
}
// * * * * * * * * * * * * * * * * * * * * * * * * * * * * * * * * * * * * * //

dimensions      [0 0 0 1 0 0 0];

internalField   nonuniform List<scalar> 
12225
(
1.00702
1.00235
1.00097
1.00057
1.00029
1.0001
1.00001
0.999956
0.999923
0.999895
0.999858
0.999777
0.999579
0.999079
0.99783
0.994743
0.987032
0.967103
0.99388
0.995662
0.997505
0.998595
0.999122
0.9994
0.999574
0.999688
0.999759
0.9998
0.999807
0.999758
0.999585
0.999114
0.997921
0.994987
0.987846
0.970542
1.00047
1.00054
1.00043
1.00038
1.00027
1.00015
1.00007
1.00002
0.999982
0.99995
0.999909
0.99983
0.999643
0.999183
0.998063
0.995385
0.98916
0.975408
1.00033
0.999923
0.999616
0.999668
0.999738
0.999771
0.999797
0.99982
0.999837
0.999845
0.999833
0.999778
0.999618
0.999207
0.998207
0.995877
0.990721
0.980238
1.00018
1
0.999776
0.999808
0.999867
0.999886
0.999893
0.999897
0.999898
0.999893
0.999873
0.999816
0.999666
0.999296
0.998426
0.996475
0.992383
0.984646
1.00003
0.999994
0.999833
0.999822
0.999855
0.999871
0.999877
0.999883
0.999886
0.999884
0.999868
0.999818
0.999688
0.999372
0.998647
0.997082
0.993961
0.988399
1.00001
1.00003
0.999913
0.999873
0.999883
0.999891
0.999894
0.999897
0.999899
0.999896
0.999881
0.999837
0.999726
0.999464
0.998882
0.997677
0.995382
0.99148
1
1.00003
0.999948
0.999903
0.9999
0.999903
0.999904
0.999905
0.999906
0.999903
0.999889
0.999852
0.999758
0.999541
0.999073
0.998134
0.996404
0.993549
1
1.00003
0.99997
0.999929
0.999919
0.999917
0.999916
0.999915
0.999915
0.999911
0.999899
0.999866
0.999787
0.999608
0.999233
0.998499
0.997186
0.995067
0.999998
1.00002
0.999986
0.999952
0.999938
0.999932
0.999929
0.999926
0.999925
0.999921
0.999909
0.999882
0.999818
0.999677
0.999389
0.998843
0.997888
0.996381
0.999998
1.00002
0.999996
0.99997
0.999956
0.999948
0.999943
0.99994
0.999937
0.999932
0.999922
0.999899
0.99985
0.999746
0.999535
0.999148
0.998489
0.997467
0.999998
1.00001
1
0.999983
0.999972
0.999964
0.999958
0.999953
0.999949
0.999944
0.999936
0.999919
0.999882
0.999808
0.999664
0.999406
0.998975
0.99832
0.999998
1.00001
1.00001
0.999993
0.999984
0.999977
0.999971
0.999967
0.999962
0.999957
0.999951
0.999937
0.999912
0.999863
0.99977
0.999609
0.999345
0.998951
0.999998
1.00001
1.00001
1
0.999993
0.999986
0.999982
0.999978
0.999975
0.99997
0.999964
0.999955
0.999938
0.999908
0.999852
0.999759
0.99961
0.999389
0.999998
1.00001
1.00001
1
0.999998
0.999995
0.999991
0.999988
0.999985
0.999981
0.999978
0.999971
0.999961
0.999942
0.999911
0.999862
0.999783
0.999671
0.999999
1.00001
1.00001
1
1
1
0.999997
0.999994
0.999992
0.999989
0.999987
0.999984
0.999978
0.999967
0.999951
0.999925
0.999888
0.999836
0.999998
1.00001
1.00001
1
1
1
1
0.999999
0.999997
0.999996
0.999993
0.99999
0.999987
0.999983
0.999976
0.999963
0.999945
0.999923
0.999999
1
1.00001
1.00001
1.00001
1.00001
1
0.999999
0.999998
0.999998
0.999997
0.999995
0.999992
0.999988
0.999983
0.999977
0.999969
0.999962
0.999999
1.00001
1.00001
1.00001
1.00001
1.00001
1
0.999999
0.999996
0.999995
0.999993
0.999991
0.999988
0.999987
0.999985
0.99998
0.999975
0.999973
0.999998
1.00001
1.00001
1.00001
1
1
1
0.999996
0.999992
0.999989
0.999988
0.999986
0.999984
0.999982
0.99998
0.999977
0.999974
0.999975
0.999997
1.00001
1.00001
1.00001
1
0.999995
0.999992
0.999987
0.999983
0.99998
0.999977
0.999975
0.999973
0.999972
0.999971
0.999969
0.999966
0.999966
0.999997
1.00001
1.00002
1.00001
0.999995
0.999987
0.999982
0.999976
0.999973
0.99997
0.999967
0.999966
0.999966
0.999964
0.999963
0.999962
0.99996
0.99996
0.999996
1.00003
1.00002
0.999994
0.999975
0.999966
0.999959
0.999954
0.999952
0.99995
0.999949
0.999948
0.999948
0.999949
0.999948
0.999948
0.999947
0.999949
0.999994
1.00005
1.00003
0.999984
0.999963
0.999957
0.999953
0.99995
0.999949
0.999948
0.999947
0.999947
0.999948
0.999948
0.999948
0.999947
0.999947
0.999949
0.999986
1.00005
0.999974
0.999913
0.9999
0.9999
0.9999
0.999902
0.999905
0.999908
0.999911
0.999914
0.999918
0.999921
0.999925
0.999927
0.999928
0.999931
1.00011
1.00014
0.999977
0.99993
0.999954
0.99997
0.999971
0.999969
0.999965
0.999962
0.999959
0.999954
0.999952
0.99995
0.999949
0.999948
0.999947
0.999947
1.00029
1.00004
0.999634
0.999556
0.999609
0.999662
0.999706
0.999746
0.999781
0.999809
0.999832
0.99985
0.999865
0.999878
0.999888
0.999897
0.999905
0.999908
1.00089
1.00118
1.00097
1.00079
1.00062
1.00045
1.00031
1.00022
1.00015
1.0001
1.00006
1.00003
1.00001
0.999992
0.999981
0.999974
0.99997
0.999957
0.993498
0.994872
0.996789
0.998012
0.998681
0.999064
0.999313
0.999485
0.999605
0.999689
0.99975
0.999794
0.999827
0.999852
0.999872
0.999888
0.999905
0.999901
1.00657
1.00291
1.00132
1.00082
1.00049
1.00027
1.00014
1.00007
1.00002
0.99999
0.999968
0.999954
0.999944
0.999937
0.999933
0.999931
0.999938
0.999911
0.0940654
0.0940037
0.0938796
0.0936957
0.0934529
0.0931506
0.0927902
0.0923726
0.0918988
0.0913708
0.0907906
0.0901598
0.0894801
0.0887537
0.0879825
0.0871689
0.086315
0.0854233
0.0844961
0.0835357
0.0825446
0.0815252
0.0804799
0.0794111
0.0783212
0.0772124
0.076087
0.0749473
0.0737955
0.0726336
0.0714637
0.0702877
0.0691076
0.0679251
0.0667421
0.06556
0.0643804
0.0632049
0.0620346
0.060871
0.0597151
0.058568
0.0574306
0.0563039
0.0551886
0.0540853
0.0529947
0.0519172
0.0508534
0.0498035
0.0487678
0.0477466
0.0467398
0.0457477
0.0447702
0.0438073
0.0428589
0.0419249
0.041005
0.0400992
0.0392072
0.0383287
0.0374634
0.0366112
0.0357716
0.0349445
0.0341295
0.0333263
0.0325347
0.0317543
0.0309849
0.0302263
0.0294783
0.0287404
0.0280127
0.0272949
0.0265867
0.025888
0.0251986
0.0245183
0.023847
0.0231846
0.0225307
0.0218853
0.0212483
0.0206193
0.0199983
0.019385
0.0187793
0.0181811
0.01759
0.017006
0.016429
0.0158588
0.0152953
0.0147384
0.0141883
0.0136449
0.0131082
0.0125785
0.012056
0.0115408
0.0110332
0.0105337
0.0100425
0.00956013
0.00908692
0.00862334
0.00816985
0.0077269
0.00729493
0.00687437
0.00646565
0.00606916
0.00568528
0.00531435
0.0049567
0.0046126
0.00428228
0.00396595
0.00366375
0.0033758
0.00310213
0.00284276
0.00259764
0.00236666
0.00214967
0.00194647
0.00175678
0.00158032
0.00141671
0.00126557
0.00112646
0.000998908
0.000882407
0.000776427
0.000680416
0.000593805
0.000516014
0.000446457
0.000384547
0.000329705
0.000281356
0.000238944
0.000201926
0.000169786
0.000142027
0.000118183
9.78139e-05
8.05126e-05
6.59015e-05
5.36349e-05
4.33983e-05
3.49079e-05
2.79098e-05
2.21781e-05
1.75138e-05
1.37431e-05
1.0715e-05
8.29967e-06
6.38633e-06
4.88107e-06
3.70542e-06
2.79355e-06
2.09129e-06
1.55463e-06
1.14746e-06
8.40861e-07
6.11716e-07
4.41755e-07
3.16656e-07
2.25286e-07
1.59069e-07
1.11454e-07
7.7484e-08
5.34393e-08
3.65571e-08
2.4798e-08
1.6695e-08
1.11758e-08
0.0961742
0.0961081
0.0959807
0.0957905
0.0955385
0.0952263
0.0948549
0.0944257
0.0939397
0.0933988
0.092805
0.0921601
0.0914664
0.0907259
0.0899409
0.0891136
0.0882463
0.0873413
0.0864011
0.085428
0.0844244
0.0833928
0.0823354
0.0812548
0.0801531
0.0790327
0.0778959
0.0767448
0.0755817
0.0744085
0.0732274
0.0720403
0.070849
0.0696554
0.0684611
0.0672677
0.0660769
0.0648901
0.0637085
0.0625334
0.061366
0.0602074
0.0590585
0.0579202
0.0567932
0.0556783
0.054576
0.0534868
0.0524112
0.0513495
0.0503019
0.0492688
0.0482502
0.0472462
0.0462568
0.0452819
0.0443216
0.0433756
0.0424438
0.0415259
0.0406218
0.0397312
0.0388538
0.0379894
0.0371376
0.0362981
0.0354706
0.0346549
0.0338506
0.0330575
0.0322753
0.0315037
0.0307425
0.0299914
0.0292503
0.0285188
0.0277969
0.0270842
0.0263807
0.0256861
0.0250003
0.024323
0.0236542
0.0229937
0.0223412
0.0216965
0.0210596
0.0204301
0.019808
0.0191929
0.0185848
0.0179833
0.0173885
0.0168001
0.016218
0.0156422
0.0150727
0.0145094
0.0139524
0.013402
0.0128582
0.0123213
0.0117917
0.0112697
0.0107556
0.01025
0.00975326
0.00926588
0.00878837
0.00832121
0.00786492
0.00741996
0.00698683
0.00656598
0.00615785
0.00576284
0.00538134
0.00501368
0.00466016
0.00432105
0.00399655
0.00368682
0.00339197
0.00311206
0.00284709
0.002597
0.00236166
0.00214092
0.00193453
0.00174221
0.00156363
0.0013984
0.00124608
0.0011062
0.000978245
0.000861677
0.00075592
0.00066038
0.000574449
0.000497508
0.000428936
0.000368111
0.00031442
0.000267263
0.000226056
0.000190235
0.000159263
0.00013263
0.000109854
9.04896e-05
7.41198e-05
6.03639e-05
4.88744e-05
3.93367e-05
3.14688e-05
2.50199e-05
1.97682e-05
1.55196e-05
1.21056e-05
9.38068e-06
7.22097e-06
5.52089e-06
4.19251e-06
3.16177e-06
2.36774e-06
1.76062e-06
1.29983e-06
9.52723e-07
6.93221e-07
5.00692e-07
3.58948e-07
2.554e-07
1.80344e-07
1.26366e-07
8.7853e-08
6.05907e-08
4.14482e-08
2.81151e-08
1.89217e-08
1.26509e-08
0.100412
0.100329
0.100184
0.0999756
0.0997029
0.0993674
0.098971
0.0985156
0.098003
0.0974354
0.0968148
0.0961434
0.0954233
0.0946567
0.0938459
0.0929933
0.0921011
0.0911716
0.0902074
0.0892107
0.0881839
0.0871293
0.0860493
0.0849463
0.0838225
0.0826801
0.0815215
0.0803487
0.0791639
0.0779691
0.0767663
0.0755575
0.0743445
0.0731291
0.0719129
0.0706976
0.0694848
0.0682757
0.0670719
0.0658744
0.0646846
0.0635034
0.0623318
0.0611706
0.0600208
0.0588829
0.0577575
0.0566452
0.0555464
0.0544615
0.0533907
0.0523343
0.0512923
0.0502649
0.0492521
0.0482539
0.04727
0.0463005
0.0453451
0.0444036
0.0434758
0.0425614
0.0416601
0.0407717
0.0398957
0.0390319
0.03818
0.0373397
0.0365105
0.0356923
0.0348848
0.0340876
0.0333005
0.0325232
0.0317556
0.0309973
0.0302481
0.0295079
0.0287764
0.0280535
0.0273389
0.0266325
0.0259341
0.0252435
0.0245605
0.0238848
0.0232163
0.0225547
0.0218998
0.0212515
0.0206093
0.0199732
0.019343
0.0187184
0.0180993
0.0174856
0.0168773
0.0162743
0.0156768
0.0150847
0.0144984
0.0139181
0.0133441
0.0127768
0.0122167
0.0116643
0.01112
0.0105846
0.0100585
0.00954233
0.00903674
0.0085423
0.00805961
0.00758925
0.00713177
0.00668771
0.00625757
0.00584183
0.00544091
0.00505519
0.00468502
0.00433067
0.00399237
0.00367028
0.0033645
0.00307506
0.00280194
0.00254503
0.00230416
0.0020791
0.00186955
0.00167514
0.00149545
0.00133001
0.0011783
0.00103973
0.000913711
0.000799592
0.000696709
0.00060438
0.000521908
0.000448596
0.000383746
0.000326671
0.000276697
0.000233173
0.000195471
0.000162991
0.000135169
0.000111474
9.14119e-05
7.45276e-05
6.04047e-05
4.86648e-05
3.89674e-05
3.10092e-05
2.45206e-05
1.92657e-05
1.50385e-05
1.16612e-05
8.98217e-06
6.87167e-06
5.22103e-06
3.9393e-06
2.95129e-06
2.19536e-06
1.6213e-06
1.18867e-06
8.65091e-07
6.24938e-07
4.4808e-07
3.18848e-07
2.25157e-07
1.57767e-07
1.0968e-07
7.56391e-08
5.17373e-08
3.50899e-08
2.36062e-08
1.57602e-08
0.106816
0.106712
0.106545
0.106311
0.106009
0.105642
0.105211
0.10472
0.104171
0.103566
0.102908
0.102199
0.101441
0.100637
0.0997888
0.0988993
0.0979705
0.097005
0.096005
0.094973
0.0939113
0.0928221
0.0917079
0.0905708
0.0894132
0.0882373
0.0870452
0.0858391
0.084621
0.083393
0.082157
0.0809149
0.0796685
0.0784196
0.0771699
0.075921
0.0746744
0.0734315
0.0721936
0.070962
0.0697379
0.0685223
0.0673162
0.0661205
0.064936
0.0637633
0.0626031
0.0614559
0.0603222
0.0592023
0.0580965
0.057005
0.055928
0.0548655
0.0538175
0.0527841
0.0517651
0.0507603
0.0497696
0.0487927
0.0478294
0.0468794
0.0459423
0.0450179
0.0441059
0.0432058
0.0423173
0.0414401
0.0405738
0.0397181
0.0388727
0.0380373
0.0372116
0.0363952
0.035588
0.0347896
0.0339998
0.0332185
0.0324453
0.03168
0.0309226
0.0301726
0.02943
0.0286944
0.0279657
0.0272437
0.026528
0.0258184
0.0251146
0.0244164
0.0237234
0.0230355
0.0223522
0.0216734
0.0209988
0.0203283
0.0196617
0.0189991
0.0183404
0.0176858
0.0170354
0.0163895
0.0157485
0.0151128
0.0144829
0.0138595
0.0132432
0.0126347
0.0120347
0.0114439
0.0108631
0.0102931
0.00973461
0.0091884
0.00865522
0.00813579
0.00763083
0.007141
0.00666692
0.00620919
0.00576832
0.00534479
0.00493902
0.00455133
0.00418199
0.00383118
0.00349902
0.00318552
0.00289062
0.00261417
0.00235593
0.00211559
0.00189276
0.00168696
0.00149767
0.00132427
0.00116612
0.0010225
0.000892659
0.000775827
0.000671197
0.000577952
0.000495266
0.000422319
0.000358301
0.000302421
0.000253911
0.000212034
0.000176091
0.00014542
0.000119405
9.74717e-05
7.90952e-05
6.3795e-05
5.11372e-05
4.0735e-05
3.2242e-05
2.5355e-05
1.98086e-05
1.53725e-05
1.18495e-05
9.07133e-06
6.89645e-06
5.20622e-06
3.90233e-06
2.90401e-06
2.14542e-06
1.5734e-06
1.14538e-06
8.27581e-07
5.93462e-07
4.22341e-07
2.98255e-07
2.08988e-07
1.45284e-07
1.00186e-07
6.85216e-08
4.64691e-08
3.12536e-08
2.08469e-08
0.115428
0.115304
0.115112
0.114848
0.114513
0.114108
0.113637
0.113103
0.112509
0.111859
0.111154
0.110397
0.109592
0.10874
0.107844
0.106906
0.10593
0.104917
0.10387
0.102792
0.101683
0.100548
0.0993882
0.0982057
0.0970028
0.0957817
0.0945446
0.0932935
0.0920306
0.0907577
0.0894768
0.0881898
0.0868985
0.0856046
0.0843098
0.0830157
0.0817237
0.0804352
0.0791518
0.0778744
0.0766045
0.0753429
0.0740908
0.0728489
0.0716182
0.0703992
0.0691927
0.0679991
0.066819
0.0656526
0.0645003
0.0633624
0.0622389
0.0611299
0.0600355
0.0589555
0.0578899
0.0568385
0.055801
0.0547774
0.0537671
0.0527701
0.0517858
0.050814
0.0498542
0.0489061
0.0479693
0.0470435
0.0461281
0.045223
0.0443276
0.0434417
0.0425649
0.0416968
0.0408373
0.0399859
0.0391425
0.0383067
0.0374783
0.0366571
0.0358428
0.0350352
0.034234
0.0334389
0.0326498
0.0318662
0.0310879
0.0303146
0.029546
0.0287815
0.028021
0.027264
0.0265102
0.0257592
0.0250107
0.0242644
0.0235201
0.0227777
0.0220373
0.0212987
0.0205623
0.0198282
0.0190969
0.018369
0.017645
0.0169256
0.0162117
0.0155041
0.0148036
0.0141112
0.0134279
0.0127546
0.0120923
0.011442
0.0108048
0.0101816
0.0095734
0.00898113
0.00840571
0.007848
0.00730879
0.00678884
0.00628882
0.00580931
0.00535082
0.00491377
0.00449846
0.0041051
0.00373378
0.00338451
0.00305714
0.00275146
0.00246712
0.00220368
0.00196061
0.00173728
0.00153296
0.00134688
0.00117819
0.00102597
0.000889277
0.000767142
0.000658565
0.00056254
0.000478069
0.000404166
0.000339869
0.000284246
0.000236405
0.000195503
0.000160744
0.000131385
0.000106746
8.61974e-05
6.91704e-05
5.51581e-05
4.3702e-05
3.43996e-05
2.68983e-05
2.08914e-05
1.61156e-05
1.23457e-05
9.39159e-06
7.09381e-06
5.31986e-06
3.96066e-06
2.92719e-06
2.14745e-06
1.5637e-06
1.13009e-06
8.10535e-07
5.76897e-07
4.07433e-07
2.85501e-07
1.98474e-07
1.36863e-07
9.36035e-08
6.34778e-08
4.26906e-08
2.84646e-08
0.126352
0.126205
0.125985
0.125689
0.125315
0.124868
0.124351
0.123768
0.123123
0.122419
0.121659
0.120846
0.119983
0.119073
0.118119
0.117124
0.116089
0.115018
0.113913
0.112776
0.111611
0.110418
0.1092
0.10796
0.106701
0.105423
0.104129
0.102821
0.101501
0.100172
0.0988341
0.0974905
0.0961425
0.0947918
0.0934401
0.092089
0.09074
0.0893945
0.0880538
0.0867193
0.0853919
0.084073
0.0827633
0.0814639
0.0801756
0.078899
0.0776349
0.0763837
0.075146
0.0739221
0.0727123
0.0715168
0.0703357
0.0691692
0.0680173
0.0668798
0.0657566
0.0646476
0.0635525
0.0624711
0.0614029
0.0603477
0.0593052
0.0582748
0.0572562
0.0562489
0.0552525
0.0542666
0.0532907
0.0523244
0.0513674
0.0504191
0.0494792
0.0485473
0.0476232
0.0467063
0.0457966
0.0448935
0.0439968
0.0431063
0.0422217
0.0413426
0.0404688
0.0396
0.0387358
0.0378759
0.03702
0.0361675
0.0353182
0.0344715
0.0336269
0.032784
0.0319422
0.0311011
0.0302602
0.0294192
0.0285776
0.0277353
0.0268921
0.026048
0.0252031
0.0243578
0.0235124
0.0226676
0.0218241
0.0209828
0.0201445
0.0193104
0.0184814
0.0176587
0.0168436
0.0160373
0.015241
0.0144562
0.0136841
0.012926
0.0121832
0.0114572
0.0107491
0.0100601
0.00939148
0.00874432
0.00811964
0.00751839
0.0069414
0.00638941
0.00586302
0.00536271
0.0048888
0.00444151
0.00402089
0.00362683
0.00325911
0.00291735
0.00260103
0.00230952
0.00204205
0.00179775
0.00157565
0.00137469
0.00119376
0.00103167
0.00088722
0.000759156
0.000646233
0.000547215
0.00046088
0.000386032
0.000321524
0.000266267
0.000219221
0.00017941
0.000145943
0.000117988
9.47892e-05
7.56671e-05
6.00114e-05
4.72818e-05
3.70037e-05
2.87636e-05
2.22049e-05
1.70224e-05
1.29575e-05
9.79301e-06
7.34795e-06
5.47317e-06
4.04674e-06
2.96986e-06
2.16322e-06
1.56378e-06
1.12183e-06
7.98588e-07
5.64071e-07
3.95294e-07
2.74814e-07
1.89511e-07
1.29615e-07
8.79049e-08
5.9123e-08
3.94191e-08
0.139709
0.139538
0.139286
0.138953
0.138537
0.138043
0.137475
0.136837
0.136134
0.135369
0.134546
0.133669
0.132741
0.131764
0.130742
0.129678
0.128575
0.127435
0.126261
0.125055
0.12382
0.122558
0.121271
0.119962
0.118633
0.117287
0.115924
0.114547
0.113159
0.111761
0.110355
0.108943
0.107527
0.106108
0.104688
0.103268
0.101851
0.100437
0.0990274
0.0976242
0.0962284
0.0948408
0.0934626
0.0920947
0.0907379
0.0893929
0.0880603
0.0867408
0.0854348
0.0841426
0.0828646
0.081601
0.080352
0.0791175
0.0778975
0.0766921
0.0755009
0.0743239
0.0731607
0.0720111
0.0708745
0.0697508
0.0686394
0.0675399
0.0664519
0.0653747
0.064308
0.0632512
0.0622038
0.0611654
0.0601354
0.0591135
0.058099
0.0570917
0.0560911
0.0550968
0.0541085
0.0531257
0.0521482
0.0511756
0.0502075
0.0492437
0.0482837
0.0473273
0.046374
0.0454234
0.044475
0.0435284
0.042583
0.0416382
0.0406934
0.0397479
0.038801
0.0378522
0.0369007
0.0359459
0.0349875
0.0340249
0.0330578
0.0320863
0.0311103
0.03013
0.0291461
0.0281591
0.0271698
0.0261794
0.0251888
0.0241992
0.023212
0.0222286
0.0212505
0.0202792
0.0193163
0.0183636
0.0174228
0.0164956
0.0155837
0.0146889
0.013813
0.0129576
0.0121244
0.0113149
0.0105308
0.00977338
0.00904394
0.00834365
0.00767353
0.00703442
0.00642702
0.00585183
0.00530916
0.00479914
0.0043217
0.0038766
0.00346339
0.00308147
0.00273002
0.00240811
0.00211465
0.0018484
0.00160806
0.0013922
0.00119935
0.00102798
0.000876506
0.000743392
0.000627075
0.000526024
0.000438753
0.000363856
0.00029997
0.000245816
0.000200209
0.00016205
0.000130335
0.000104153
8.26863e-05
6.52087e-05
5.1079e-05
3.97377e-05
3.07005e-05
2.35522e-05
1.79399e-05
1.35669e-05
1.01852e-05
7.59039e-06
5.61471e-06
4.12223e-06
3.00366e-06
2.17197e-06
1.55853e-06
1.10969e-06
7.83941e-07
5.49447e-07
3.82021e-07
2.63464e-07
1.80212e-07
1.22235e-07
8.22257e-08
5.48291e-08
0.155649
0.155449
0.155163
0.154788
0.154326
0.15378
0.153155
0.152457
0.151689
0.150857
0.149964
0.149014
0.14801
0.146958
0.145858
0.144716
0.143533
0.142313
0.141059
0.139772
0.138456
0.137113
0.135746
0.134356
0.132947
0.131519
0.130076
0.128619
0.12715
0.125672
0.124186
0.122694
0.121197
0.119698
0.118198
0.116699
0.115202
0.113708
0.11222
0.110737
0.109262
0.107795
0.106338
0.104891
0.103455
0.102031
0.10062
0.0992221
0.0978376
0.0964672
0.0951111
0.0937695
0.0924425
0.0911302
0.0898325
0.0885492
0.0872803
0.0860255
0.0847845
0.0835568
0.0823421
0.08114
0.07995
0.0787714
0.0776039
0.0764468
0.0752996
0.0741617
0.0730325
0.0719114
0.070798
0.0696916
0.0685918
0.067498
0.0664097
0.0653266
0.064248
0.0631738
0.0621033
0.0610362
0.0599722
0.0589109
0.0578517
0.0567943
0.0557383
0.054683
0.053628
0.0525726
0.0515162
0.0504579
0.049397
0.0483326
0.0472639
0.0461899
0.0451098
0.0440227
0.0429279
0.0418247
0.0407127
0.0395916
0.0384613
0.0373222
0.0361746
0.0350194
0.0338573
0.0326896
0.0315175
0.0303423
0.0291656
0.0279891
0.0268146
0.025644
0.0244793
0.0233227
0.0221762
0.0210422
0.0199229
0.0188206
0.0177376
0.0166761
0.0156386
0.014627
0.0136436
0.0126904
0.0117692
0.0108818
0.0100298
0.00921443
0.008437
0.0076984
0.00699934
0.00634027
0.0057214
0.00514269
0.00460383
0.00410432
0.00364336
0.00321996
0.00283292
0.00248083
0.00216218
0.00187527
0.00161831
0.00138942
0.00118663
0.00100803
0.000851628
0.00071547
0.000597648
0.000496324
0.000409733
0.000336202
0.000274168
0.000222178
0.000178898
0.000143115
0.000113735
8.97818e-05
7.0392e-05
5.48097e-05
4.2379e-05
3.25359e-05
2.48003e-05
1.8767e-05
1.40976e-05
1.05118e-05
7.77951e-06
5.71412e-06
4.16521e-06
3.01293e-06
2.16261e-06
1.54019e-06
1.08829e-06
7.62894e-07
5.30507e-07
3.65918e-07
2.50327e-07
1.69822e-07
1.14261e-07
7.62063e-08
0.174345
0.174114
0.173787
0.173367
0.172852
0.172248
0.171561
0.170795
0.169956
0.169048
0.168077
0.167045
0.165958
0.164819
0.163632
0.162401
0.161128
0.159817
0.15847
0.157092
0.155683
0.154247
0.152787
0.151304
0.149802
0.148281
0.146745
0.145196
0.143635
0.142065
0.140487
0.138903
0.137315
0.135725
0.134135
0.132545
0.130957
0.129373
0.127795
0.126222
0.124658
0.123101
0.121555
0.120019
0.118495
0.116983
0.115483
0.113997
0.112525
0.111067
0.109624
0.108195
0.106781
0.105382
0.103997
0.102627
0.101271
0.0999295
0.0986015
0.0972868
0.0959848
0.0946951
0.0934172
0.0921503
0.090894
0.0896476
0.0884104
0.0871817
0.085961
0.0847475
0.0835406
0.0823397
0.0811441
0.0799533
0.0787668
0.0775839
0.0764042
0.0752271
0.0740522
0.072879
0.0717071
0.0705359
0.069365
0.068194
0.0670221
0.0658487
0.0646733
0.0634951
0.0623132
0.0611266
0.0599343
0.0587353
0.0575284
0.0563123
0.0550859
0.053848
0.0525976
0.0513338
0.0500557
0.0487629
0.0474553
0.0461331
0.0447966
0.0434466
0.0420841
0.0407102
0.0393264
0.0379341
0.0365352
0.0351317
0.0337256
0.0323192
0.030915
0.0295155
0.0281235
0.0267417
0.0253729
0.0240202
0.0226865
0.0213748
0.0200881
0.0188294
0.0176014
0.0164071
0.015249
0.0141296
0.0130512
0.0120159
0.0110255
0.0100816
0.00918532
0.00833772
0.00753938
0.00679058
0.00609128
0.00544116
0.00483951
0.00428535
0.00377738
0.00331406
0.00289363
0.00251414
0.00217343
0.0018692
0.00159907
0.00136059
0.00115129
0.0009687
0.000810376
0.000673948
0.000557134
0.000457757
0.000373769
0.000303262
0.000244472
0.000195791
0.000155762
0.000123081
9.6592e-05
7.52775e-05
5.82539e-05
4.47591e-05
3.41426e-05
2.58544e-05
1.9434e-05
1.44993e-05
1.07363e-05
7.88973e-06
5.75359e-06
4.1635e-06
2.98947e-06
2.1297e-06
1.50523e-06
1.0554e-06
7.34052e-07
5.06406e-07
3.465e-07
2.35115e-07
1.5823e-07
1.05557e-07
0.195993
0.195725
0.195354
0.19488
0.194307
0.193639
0.192881
0.19204
0.191121
0.19013
0.18907
0.187947
0.186766
0.18553
0.184245
0.182912
0.181537
0.180123
0.178672
0.177189
0.175675
0.174134
0.172568
0.17098
0.169372
0.167747
0.166106
0.164453
0.162788
0.161114
0.159433
0.157746
0.156056
0.154364
0.152672
0.150981
0.149292
0.147608
0.14593
0.144258
0.142594
0.14094
0.139295
0.137661
0.136039
0.13443
0.132833
0.131251
0.129682
0.128128
0.126589
0.125065
0.123555
0.12206
0.120581
0.119115
0.117664
0.116228
0.114804
0.113394
0.111996
0.11061
0.109236
0.107872
0.106518
0.105174
0.103838
0.102509
0.101188
0.0998723
0.0985625
0.0972575
0.0959565
0.0946588
0.0933638
0.0920709
0.0907794
0.0894889
0.0881986
0.0869081
0.0856168
0.0843242
0.0830296
0.0817326
0.0804323
0.0791282
0.0778193
0.0765047
0.0751834
0.0738542
0.0725159
0.071167
0.069806
0.0684314
0.0670416
0.0656351
0.0642103
0.062766
0.0613011
0.0598149
0.058307
0.0567776
0.0552269
0.0536557
0.0520648
0.0504556
0.0488293
0.0471878
0.045533
0.0438672
0.0421928
0.0405123
0.0388288
0.0371452
0.0354647
0.0337909
0.0321273
0.0304775
0.0288452
0.0272344
0.0256489
0.0240925
0.0225691
0.0210823
0.0196358
0.0182331
0.0168772
0.0155713
0.014318
0.0131196
0.0119782
0.0108954
0.00987241
0.00890999
0.0080085
0.00716797
0.0063879
0.00566738
0.00500511
0.00439944
0.00384841
0.00334974
0.0029009
0.00249915
0.00214159
0.0018252
0.0015469
0.00130359
0.00109217
0.00090963
0.000753024
0.000619547
0.000506537
0.000411501
0.000332128
0.000266299
0.000212088
0.000167765
0.000131789
0.000102805
7.96269e-05
6.12321e-05
4.6745e-05
3.54235e-05
2.66449e-05
1.98917e-05
1.47378e-05
1.0836e-05
7.90597e-06
5.7235e-06
4.11116e-06
2.92978e-06
2.07133e-06
1.45271e-06
1.01063e-06
6.97369e-07
4.77269e-07
3.23926e-07
2.18056e-07
1.45505e-07
0.220809
0.220499
0.220075
0.219542
0.218902
0.21816
0.217324
0.216398
0.215389
0.214302
0.213143
0.211917
0.210629
0.209284
0.207887
0.206441
0.20495
0.203419
0.201851
0.20025
0.198617
0.196958
0.195273
0.193567
0.191841
0.190098
0.188341
0.18657
0.18479
0.183001
0.181205
0.179405
0.177601
0.175797
0.173993
0.172191
0.170393
0.168599
0.166811
0.165031
0.16326
0.161498
0.159746
0.158006
0.156279
0.154564
0.152863
0.151176
0.149503
0.147845
0.146203
0.144575
0.142962
0.141365
0.139782
0.138214
0.13666
0.13512
0.133594
0.13208
0.130579
0.129089
0.12761
0.126141
0.124681
0.12323
0.121786
0.120349
0.118918
0.117492
0.116071
0.114652
0.113236
0.111822
0.110409
0.108996
0.107583
0.106169
0.104753
0.103334
0.101912
0.100487
0.0990575
0.0976228
0.0961822
0.094735
0.09328
0.0918162
0.0903423
0.0888569
0.0873584
0.085845
0.0843149
0.0827661
0.0811965
0.0796039
0.0779866
0.0763428
0.0746708
0.0729699
0.0712395
0.0694795
0.0676899
0.0658713
0.0640246
0.0621508
0.0602516
0.0583286
0.0563839
0.0544201
0.0524397
0.0504457
0.0484416
0.0464307
0.044417
0.0424045
0.0403974
0.0384003
0.0364179
0.0344548
0.0325161
0.0306065
0.0287311
0.0268947
0.0251021
0.0233579
0.0216665
0.0200321
0.0184584
0.0169489
0.0155066
0.014134
0.0128333
0.0116059
0.0104528
0.00937448
0.00837081
0.00744112
0.00658424
0.00579846
0.00508166
0.00443128
0.00384441
0.0033178
0.00284799
0.00243131
0.00206396
0.00174208
0.0014618
0.0012193
0.00101084
0.000832825
0.000681829
0.000554624
0.000448203
0.000359797
0.00028688
0.000227175
0.000178645
0.000139493
0.000108145
8.32353e-05
6.35952e-05
4.82302e-05
3.63043e-05
2.71212e-05
2.01068e-05
1.47921e-05
1.0798e-05
7.82088e-06
5.6201e-06
4.00665e-06
2.83364e-06
1.98796e-06
1.38339e-06
9.54836e-07
6.53645e-07
4.43753e-07
2.98802e-07
1.99439e-07
0.249026
0.248668
0.248184
0.247581
0.246864
0.246038
0.24511
0.244086
0.242974
0.241778
0.240506
0.239162
0.237753
0.236283
0.234758
0.233183
0.231562
0.229899
0.228198
0.226464
0.224698
0.222905
0.221088
0.21925
0.217393
0.215519
0.213632
0.211733
0.209825
0.207909
0.205988
0.204064
0.202137
0.20021
0.198285
0.196363
0.194445
0.192533
0.190628
0.188732
0.186844
0.184967
0.183102
0.181248
0.179407
0.17758
0.175767
0.173969
0.172185
0.170417
0.168663
0.166925
0.165203
0.163495
0.161803
0.160125
0.158461
0.156811
0.155174
0.153549
0.151936
0.150335
0.148743
0.147161
0.145587
0.144021
0.142462
0.140908
0.139359
0.137813
0.136271
0.13473
0.13319
0.13165
0.130109
0.128567
0.127022
0.125474
0.123921
0.122364
0.120802
0.119233
0.117657
0.116074
0.114481
0.112879
0.111266
0.109641
0.108002
0.106347
0.104675
0.102984
0.10127
0.099532
0.0977667
0.0959717
0.0941446
0.0922828
0.0903847
0.0884491
0.086475
0.084462
0.0824099
0.080319
0.0781899
0.0760237
0.0738217
0.0715856
0.0693176
0.0670203
0.0646965
0.0623495
0.0599829
0.0576008
0.0552076
0.0528079
0.0504069
0.0480099
0.0456225
0.0432506
0.0409001
0.0385773
0.0362884
0.0340396
0.0318372
0.0296871
0.0275952
0.0255671
0.0236081
0.0217229
0.0199158
0.0181908
0.0165509
0.0149987
0.0135361
0.0121643
0.0108836
0.00969397
0.00859438
0.00758326
0.00665839
0.00581701
0.00505582
0.00437107
0.00375868
0.00321424
0.00273314
0.00231065
0.00194196
0.00162229
0.00134694
0.00111133
0.000911108
0.000742122
0.000600499
0.000482652
0.000385295
0.000305454
0.000240464
0.000187958
0.000145861
0.000112369
8.59298e-05
6.52225e-05
4.9133e-05
3.67315e-05
2.72498e-05
2.00595e-05
1.46514e-05
1.06174e-05
7.63333e-06
5.44426e-06
3.85186e-06
2.70324e-06
1.88175e-06
1.2992e-06
8.89643e-07
6.04146e-07
4.06922e-07
2.71681e-07
0.280893
0.280479
0.279925
0.279241
0.278433
0.277508
0.276473
0.275335
0.274102
0.272779
0.271375
0.269894
0.268344
0.266731
0.26506
0.263337
0.261567
0.259754
0.257904
0.256019
0.254104
0.252162
0.250197
0.248212
0.24621
0.244192
0.242163
0.240123
0.238075
0.236022
0.233964
0.231905
0.229845
0.227787
0.225732
0.223681
0.221636
0.219597
0.217567
0.215547
0.213536
0.211537
0.209551
0.207577
0.205617
0.203671
0.201739
0.199823
0.197922
0.196036
0.194166
0.192311
0.190472
0.188648
0.186839
0.185044
0.183263
0.181495
0.17974
0.177997
0.176265
0.174544
0.172832
0.171129
0.169433
0.167743
0.166059
0.16438
0.162703
0.161029
0.159357
0.157684
0.156011
0.154335
0.152657
0.150975
0.149289
0.147597
0.145898
0.144192
0.142478
0.140756
0.139023
0.13728
0.135524
0.133756
0.131973
0.130175
0.128359
0.126523
0.124664
0.122782
0.120871
0.118929
0.116954
0.114941
0.112888
0.110791
0.108649
0.10646
0.104223
0.101937
0.0996002
0.0972139
0.094778
0.0922931
0.0897605
0.0871816
0.0845585
0.0818938
0.0791904
0.0764517
0.0736817
0.0708848
0.068066
0.0652305
0.0623841
0.0595332
0.0566844
0.0538445
0.051021
0.0482215
0.0454535
0.0427249
0.0400436
0.0374173
0.0348537
0.03236
0.0299433
0.0276101
0.0253665
0.0232178
0.0211688
0.0192233
0.0173844
0.0156544
0.0140347
0.0125256
0.0111268
0.00983685
0.00865373
0.00757449
0.00659554
0.00571265
0.00492107
0.00421561
0.00359075
0.00304074
0.00255969
0.00214171
0.00178091
0.00147158
0.00120818
0.000985461
0.000798467
0.000642594
0.000513609
0.000407662
0.000321289
0.000251407
0.0001953
0.000150603
0.000115275
8.75724e-05
6.60237e-05
4.93969e-05
3.66722e-05
2.70136e-05
1.97429e-05
1.43152e-05
1.02971e-05
7.34761e-06
5.20073e-06
3.65132e-06
2.54263e-06
1.75608e-06
1.20288e-06
8.17121e-07
5.50541e-07
3.67675e-07
0.316676
0.316197
0.31556
0.31478
0.313864
0.312819
0.311656
0.310381
0.309003
0.307529
0.305968
0.304326
0.302611
0.30083
0.29899
0.297096
0.295154
0.29317
0.291149
0.289095
0.287012
0.284904
0.282774
0.280627
0.278464
0.276288
0.274103
0.271909
0.26971
0.267508
0.265304
0.2631
0.260898
0.258699
0.256505
0.254318
0.252137
0.249966
0.247804
0.245652
0.243513
0.241386
0.239272
0.237171
0.235086
0.233015
0.230959
0.228919
0.226894
0.224885
0.222891
0.220913
0.218951
0.217003
0.21507
0.213151
0.211245
0.209352
0.207472
0.205602
0.203743
0.201893
0.200052
0.198219
0.196391
0.194569
0.192751
0.190936
0.189123
0.187311
0.185498
0.183684
0.181867
0.180046
0.17822
0.176389
0.17455
0.172704
0.170848
0.168983
0.167107
0.16522
0.16332
0.161406
0.159477
0.157531