/*--------------------------------*- C++ -*----------------------------------*\
| =========                 |                                                 |
| \\      /  F ield         | OpenFOAM: The Open Source CFD Toolbox           |
|  \\    /   O peration     | Version:  2.3.0                                 |
|   \\  /    A nd           | Web:      www.OpenFOAM.org                      |
|    \\/     M anipulation  |                                                 |
\*---------------------------------------------------------------------------*/
FoamFile
{
    version     2.0;
    format      ascii;
    class       volScalarField;
    location    "0.078";
    object      alpha.water;
}
// * * * * * * * * * * * * * * * * * * * * * * * * * * * * * * * * * * * * * //

dimensions      [0 0 0 0 0 0 0];

internalField   nonuniform List<scalar> 
725
(
1
1
0.999999
1.00001
1.00021
1
1
0.999999
1.00003
1.0001
1
1
1
1.0001
0.999539
1
1
0.999999
1.00032
0.997871
1
1
0.999999
1.00009
0.97431
0.994813
0.989576
0.989625
0.994134
0.994124
0.775072
0.68623
0.85965
0.999999
0.999763
0.99939
0.999152
0.999364
0.999667
0.999851
0.999918
0.999939
0.999952
0.999963
0.999973
0.999983
0.999995
1.00001
1.00002
1.00002
1.00002
1.00002
1.00001
1.00002
1.00001
0.951636
0.238667
0.000360162
0.000358459
0.000359996
0.000389792
0.290346
1
0.999966
0.999938
0.999911
0.999717
1
0.836085
0.127549
0.997036
0.995347
0.997394
0.997538
0.95147
0.868092
0.691656
0.830742
1
0.999984
0.999869
0.999181
0.998845
0.999158
0.999487
0.999637
0.999715
0.999768
0.99981
0.999838
0.999857
0.999869
0.999881
0.999894
0.999909
0.999925
0.999945
0.99997
1.00001
1
0.952941
0.237209
0.000358076
0.000356442
0.000358446
0.000362154
0.290621
1
0.999955
0.999886
0.999861
0.999822
1
0.917366
0.1122
0.999538
0.999529
0.999445
0.999439
0.82318
0.456855
0.760651
0.861613
1
0.999991
0.999992
0.999931
0.99887
0.998962
0.999319
0.999453
0.999414
0.999451
0.999564
0.999699
0.999823
0.999861
0.999868
0.99987
0.999873
0.99988
0.99989
0.999908
0.999983
1
0.953577
0.237379
0.000358197
0.000356471
0.000356562
0.000356681
0.335476
1
0.999948
0.999913
0.999875
0.999848
1
0.976774
0.222749
0.825083
0.921638
0.998187
0.909304
0.156741
0.16594
0.731557
0.915194
1
0.999997
0.99983
0.998912
0.999286
0.999284
0.999891
0.999468
0.999233
0.999152
0.999217
0.999346
0.999486
0.999615
0.999713
0.999777
0.999815
0.999837
0.99985
0.999865
0.99999
1.00001
0.95429
0.237313
0.000358658
0.000356626
0.000360078
0.000359129
0.327064
0.996764
0.99995
0.999928
0.999898
0.999859
0.999995
0.983504
0.243574
0.0710351
0.0939061
0.437719
0.140873
0.00880802
0.16519
0.352876
0.762191
0.999993
0.995486
0.9946
0.998391
0.999665
0.999246
0.999349
0.999404
0.998884
0.9989
0.998978
0.999091
0.999229
0.999372
0.999502
0.99961
0.999693
0.999753
0.999794
0.999853
0.999958
1
0.953889
0.24161
0.000377456
0.000358864
0.00036532
0.000412474
0.327356
0.969755
0.999948
0.999777
0.999788
0.99977
0.999981
0.980932
0.251386
5.18794e-06
0.0104286
0.0463772
0.00698361
0.00653722
0.136535
0.369417
0.749776
0.933516
0.919326
0.977806
0.998935
0.999664
0.999427
0.998779
0.998821
0.998658
0.998874
0.998998
0.999102
0.999219
0.999346
0.999469
0.999576
0.999663
0.99973
0.999789
0.99984
0.999952
1.00001
0.954395
0.246004
0.000574153
0.00157117
0.000412593
0.000594055
0.38106
0.915978
0.999873
0.999821
0.999747
0.99975
0.999992
0.948719
0.173645
6.72402e-06
0.00518052
0.0295937
0.00687221
0.00132145
0.0495729
0.55666
0.657463
0.72941
0.885602
0.95709
0.999391
0.999792
0.992133
0.99849
0.998231
0.998543
0.998942
0.999064
0.999148
0.999247
0.999358
0.99947
0.999573
0.999659
0.999726
0.999789
0.99984
0.999926
1
0.954863
0.247523
0.000947388
0.00189334
0.000426102
0.0218956
0.470498
0.886881
0.999845
0.999865
0.999857
0.999753
1.00004
0.938297
0.134325
3.57622e-05
0.0104564
0.0131696
0.00330824
0.00126348
0.00132305
0.469615
0.721646
0.71088
0.96457
0.957655
0.989826
0.999644
0.99104
0.993917
0.994103
0.998555
0.99906
0.99915
0.999213
0.999297
0.999396
0.999499
0.999595
0.999676
0.999738
0.999796
0.999847
0.999923
1
0.955366
0.249057
0.00106155
0.00190296
0.000449409
0.038637
0.473165
0.873079
0.999791
0.999822
0.999732
0.999734
1.00001
0.931093
0.118236
0.00125203
0.00202135
0.00927484
0.00201073
0.00116944
0.00648915
0.313119
0.725755
0.738195
0.968232
0.960412
0.963543
0.999685
0.9912
0.990989
0.997051
0.998916
0.999199
0.999247
0.999293
0.999367
0.999457
0.999552
0.999639
0.99971
0.999762
0.999809
0.999853
0.999963
1.00002
0.955543
0.250914
0.000962846
0.000540913
0.0004923
0.0601526
0.513465
0.8825
0.999813
0.999839
0.999826
0.999733
1
0.916565
0.10584
1.3078e-06
0.00105163
0.0133648
0.0046811
0.00106397
0.00106757
0.134041
0.603631
0.883025
0.996732
0.975216
0.992129
0.999006
0.998878
0.99099
0.99919
0.999241
0.999329
0.999354
0.999388
0.999446
0.999519
0.999599
0.999669
0.999736
0.999785
0.999821
0.999853
1.00005
1.00004
0.954693
0.254226
0.000481945
0.000476578
0.000470689
0.0536434
0.520743
0.880161
0.999783
0.999788
0.999659
0.999711
1.00004
0.904281
0.0925649
1
1
1
1.00006
0.998008
1
1
1
1.00005
1
1
1
1
1.00001
1.00003
1
1
1
1
0.999986
1
1
1
1
1.00001
0.160743
0.0664143
0.00482368
0.00314186
0.00105503
0.00105595
0.159961
0.380375
0.959075
0.999944
0.997306
0.999579
0.996747
0.999788
0.99978
0.99942
0.999406
0.999431
0.999456
0.999486
0.999529
0.99958
0.999639
0.999817
0.999877
0.999864
0.999861
0.999884
0.999984
1
0.953409
0.260196
0.000476657
0.0004706
0.000466591
0.0521307
0.578575
0.973237
0.999864
0.999725
0.999705
0.999721
1
0.857957
0.0900655
0.79645
0.165298
0.0010491
0.00105053
0.00105374
0.00105464
0.0766533
0.414547
0.999944
0.999952
0.999952
0.999578
0.999196
0.999843
0.999646
0.999477
0.99949
0.999576
0.999645
0.999696
0.999733
0.999757
0.999773
0.999785
0.999799
0.999814
0.999827
0.999846
1.00001
1.00001
0.952715
0.272274
0.000471595
0.000465748
0.000466011
0.0197294
0.301611
0.960089
0.999937
0.99973
0.999746
0.999762
1
0.869627
0.0977344
0.968229
0.296629
0.00105503
0.00105339
0.00105457
0.00105696
0.00107027
0.195936
0.937204
0.999945
0.999787
0.999677
0.999568
0.999571
0.999576
0.999617
0.999808
0.99979
0.999779
0.999775
0.999775
0.999779
0.999788
0.999802
0.999818
0.999835
0.999852
0.999878
0.999998
1.00001
0.950906
0.281052
0.000477366
0.000471005
0.000466582
0.0128914
0.302246
0.977296
0.999945
0.999834
0.999845
0.999829
1
0.896748
0.10427
0.999997
0.477094
0.00531465
0.00105478
0.00105692
0.00105861
0.00110568
0.0318876
0.849745
0.999929
0.999759
0.999712
0.999637
0.999681
0.999684
0.99974
0.999769
0.999778
0.99979
0.999812
0.999838
0.999864
0.999884
0.999899
0.999908
0.999916
0.99993
0.999967
1.00002
1.00001
0.94926
0.287051
0.000474255
0.000475973
0.000471684
0.000476747
0.293989
0.987667
1
0.999853
0.999864
0.999842
1
0.95172
0.16878
1
0.551028
0.0105332
0.0011209
0.00150953
0.00123164
0.00123843
0.031484
0.737206
0.999921
0.999806
0.999806
0.999806
0.999847
0.999899
0.999968
1.00002
1.00003
1.00003
1.00002
1.00002
1.00002
1.00001
1.00001
1.00001
1.00002
1.00003
1.00004
1.00003
1.00001
0.944717
0.290589
0.00047736
0.000475396
0.000475887
0.000478373
0.273135
0.999999
1.00002
1.00004
1.00007
0.999822
1
0.982673
0.262259
)
;

boundaryField
{
    AirInlet
    {
        type            fixedValue;
        value           uniform 0;
    }
    WaterInlet
    {
        type            fixedValue;
        value           uniform 1;
    }
    ChannelWall
    {
        type            zeroGradient;
    }
    Outlet
    {
        type            inletOutlet;
        inletValue      uniform 0;
        value           nonuniform List<scalar> 
15
(
0.127549
0.1122
0
0
0
0
0
0.118236
0.10584
0.0925649
0.0900655
0.0977344
0.10427
0
0
)
;
    }
    FrontAndBack
    {
        type            empty;
    }
}


// ************************************************************************* //
