/*--------------------------------*- C++ -*----------------------------------*\
| =========                 |                                                 |
| \\      /  F ield         | OpenFOAM: The Open Source CFD Toolbox           |
|  \\    /   O peration     | Version:  2.3.0                                 |
|   \\  /    A nd           | Web:      www.OpenFOAM.org                      |
|    \\/     M anipulation  |                                                 |
\*---------------------------------------------------------------------------*/
FoamFile
{
    version     2.0;
    format      ascii;
    class       volScalarField;
    location    "0.078";
    object      p;
}
// * * * * * * * * * * * * * * * * * * * * * * * * * * * * * * * * * * * * * //

dimensions      [1 -1 -2 0 0 0 0];

internalField   nonuniform List<scalar> 
725
(
-27.0132
-71.3662
-84.616
-65.6343
-48.5459
-33.5637
-71.2841
-84.6471
-69.1554
-46.8207
-36.3803
-71.8763
-86.2118
-78.3443
-54.664
-36.1672
-73.4976
-90.1854
-106.961
-92.4453
-32.5196
-75.5195
-91.5446
-99.9322
-109.714
-51.7456
260.185
613.95
623.797
141.632
-540.689
-777.002
-822.31
-673.354
-404.381
-300.63
-270.057
-250.192
-243.948
-247
-250.144
-254.093
-255.389
-256.733
-258.214
-259.742
-261.346
-263.003
-264.802
-266.788
-269.05
-271.923
-275.548
-280.258
-287.296
-293.138
-276.761
-280.076
-279.484
-279.915
-276.138
-310.157
-362.546
-314.65
-361.802
-301.482
-463.732
-423.953
-870.665
139.945
-78.021
264.155
642.978
647.394
-105.451
-290.396
-991.723
-710.726
-626.075
-412.038
-294.304
-269.149
-248.032
-245.194
-246.466
-251.321
-254.998
-256.327
-257.519
-258.887
-260.35
-261.927
-263.604
-265.34
-267.217
-269.348
-272.055
-275.533
-280.219
-287.418
-295.488
-281.244
-280.027
-279.885
-279.983
-279.688
-333.346
-400.403
-331.687
-361.728
-298.869
-431.204
-344.557
-856.998
192.092
-129.313
268.225
750.9
740.589
-288.601
-829.129
-1273.67
-742.368
-483.03
-411.44
-283.785
-260.026
-245.465
-242.852
-242.801
-252.004
-255.194
-256.542
-257.665
-259.017
-260.457
-262.007
-263.662
-265.355
-267.161
-269.184
-271.731
-275.019
-279.789
-287.667
-300.092
-286.263
-279.984
-280.506
-279.901
-279.972
-267.924
-407.591
-357.838
-361.583
-297.094
-387.541
-230.789
-106.471
6.46728
-188.617
240.084
986.671
972.177
309.559
-44.6345
-2212.84
-742.419
-366.102
-417.979
-280.142
-256.737
-244.26
-244.659
-234.336
-254.131
-255.263
-256.679
-257.715
-259.105
-260.558
-262.085
-263.708
-265.345
-267.056
-268.932
-271.234
-274.161
-278.625
-287.065
-306.464
-293.76
-279.894
-281.394
-278.886
-277.323
-489.231
-562.754
-432.565
-364.373
-302.273
-366.128
-166.932
234.706
90.2066
771.296
610.737
824.475
677.027
738.752
178.674
-802.629
-1441.55
-145.087
-374.31
-293.73
-234.329
-239.926
-245.439
-231.11
-259.361
-254.749
-254.983
-255.95
-257.474
-259.427
-261.582
-263.493
-265.187
-266.832
-268.521
-270.446
-273.05
-276.955
-284.327
-306.023
-302.38
-279.757
-283.133
-277.639
-258.407
-1367.65
-800.194
-518.412
-367.21
-309.875
-383.074
-189.076
129.471
83.2354
752.37
623.892
769.682
753.044
761.107
203.02
-883.537
-1540.79
69.2541
668.541
-320.451
-197.485
-238.392
-245.361
-219.838
-267.041
-254.395
-255.129
-256.128
-257.569
-259.145
-260.714
-262.505
-264.349
-266.146
-267.88
-269.914
-272.035
-275.522
-280.958
-294.96
-288.786
-279.548
-290.418
-280.382
-255.757
-955.058
-707.814
-548.757
-363.905
-313.217
-419.936
-262.711
-441.306
-52.3848
753.845
645.731
776.911
759.189
758.861
406.898
4528.09
680.072
205.718
1860.23
-272.261
-181.242
-235.675
-243.621
-215.366
-270.014
-251.25
-255.374
-256.221
-257.75
-259.478
-260.989
-262.547
-264.25
-265.979
-267.693
-269.748
-271.696
-274.579
-279.584
-290.295
-280.335
-279.512
-282.855
-281.745
-325.783
-580.74
-556.599
-552.698
-362.748
-312.064
-431.661
-290.909
-642.847
-7.52995
753.532
652.975
777.754
771.614
760.106
816.404
1151.52
472.023
882.738
-133.402
-287.203
-205.717
-237.987
-204.469
-209.588
-127.837
-251.454
-255.173
-256.234
-257.809
-259.57
-261.177
-262.854
-264.581
-266.245
-267.837
-269.656
-271.414
-273.81
-278.066
-285.909
-280.494
-279.117
-285.405
-283.004
-305.749
-300.635
-337.078
-554.267
-366.892
-319.518
-442.923
-319.228
-803.023
62.6045
746.994
865.737
909.729
815.942
760.529
762.563
440.899
557.911
-34.7704
-53.3923
-346.515
746.169
-235.886
-212.341
-129.723
-234.18
-254.188
-254.997
-256.22
-257.842
-259.606
-261.225
-262.905
-264.621
-266.248
-267.799
-269.525
-271.056
-273.422
-276.533
-282.348
-288.44
-278.526
-278.229
-283.924
-107.542
24.813
-382.75
-555.782
-370.62
-323.948
-453.283
-346.407
-933.048
135.683
749.791
892.506
858.177
738.278
760.872
764.067
557.644
46.0681
289.288
-7.60509
-304.155
-265.288
-240.572
-212.458
-125.096
-235.329
-254.331
-254.863
-256.206
-257.87
-259.63
-261.246
-262.902
-264.612
-266.208
-267.721
-269.364
-270.716
-272.214
-275.035
-279.886
-291.82
-278.12
-278.686
-283.315
-190.785
155.025
-271.199
-555.951
-377.497
-329.627
-462.263
-371.69
-1032.02
225.719
1674.14
1629.76
1611.16
1552.28
1338.38
1670.62
1632.94
1616.97
1581.67
1402.23
1670.49
1635.33
1624.14
1628.51
1483.64
1673.33
1636.48
1628.41
1661.25
1547.84
1679.8
1636.43
1629.19
1675.51
1566.6
809.98
888.519
698.656
731.026
755.084
761.574
449.047
525.116
533.622
136.973
-185.462
-226.868
-246.073
-220.101
-267.045
-242.041
-252.245
-254.468
-256.168
-257.921
-259.667
-261.292
-262.913
-264.512
-266.051
-267.497
-268.875
-269.794
-270.604
-270.822
-273.368
-286.067
-277.658
-279.103
-279.78
-244.543
447.622
-457.461
-531.777
-406.676
-349.192
-483.191
-432.531
-1146.13
267.625
1296.85
820.864
721.46
728.515
750.514
750.074
782.039
562.547
601.834
200.639
-145.047
-203.816
-250.904
-223.745
-255.408
-246.331
-251.453
-254.135
-256.178
-258.009
-259.755
-261.407
-262.995
-264.499
-265.951
-267.112
-268.006
-268.107
-267.391
-264.095
-257.266
-271.588
-277.512
-279.701
-278.746
-271.589
-328.136
-511.829
-482.401
-421.974
-356.634
-488.306
-441.756
-1055.26
226.771
1805.51
834.523
722.944
730.894
748.121
746.996
747.042
582.529
138.937
147.341
-182.689
-189.385
-239.756
-227.694
-248.211
-247.645
-250.746
-253.894
-256.229
-258.107
-259.843
-261.476
-263.036
-264.491
-265.822
-266.813
-267.37
-266.815
-264.728
-258.413
-243.947
-264.992
-277.319
-279.814
-276.962
-276.957
-524.575
-723.129
-505.807
-440.693
-354.481
-460.993
-373.801
-918.439
154.236
2014.92
1162.89
725.473
732.426
746.627
747.43
753.268
707.314
-371.8
65.1222
-224.228
-185.576
-233.874
-231.396
-245.109
-247.674
-250.543
-253.923
-256.338
-258.225
-259.945
-261.559
-263.093
-264.516
-265.783
-266.619
-266.905
-265.879
-262.674
-254.974
-240.438
-263.763
-277.177
-279.714
-276.384
-273.511
-389.055
-452.689
-467.773
-438.908
-345.355
-412.764
-221.282
-219.187
16.503
2135.49
1487.59
731.225
733.217
745.908
747.532
753.183
755.554
-379.972
13.5084
-254.617
-181.328
-232.082
-232.465
-242.631
-246.403
-249.5
-253.135
-255.591
-257.549
-259.353
-261.051
-262.659
-264.114
-265.361
-266.116
-266.212
-264.874
-261.392
-253.62
-241.94
-259.311
-276.593
-279.702
-276.312
-272.579
-386.489
-497.208
-459.975
-435.979
-336.188
-386.022
-182.296
180.215
143.553
)
;

boundaryField
{
    AirInlet
    {
        type            calculated;
        value           nonuniform List<scalar> 5(752.365 754.25 753.664 758.02 749.79);
    }
    WaterInlet
    {
        type            calculated;
        value           nonuniform List<scalar> 10(-27.0112 -33.5577 -36.3702 -36.1531 -32.5015 1674.12 1670.6 1670.48 1673.33 1679.8);
    }
    ChannelWall
    {
        type            calculated;
        value           nonuniform List<scalar> 
110
(
-32.5456
-75.5495
-91.5786
-99.9701
-109.754
1674.17
1629.79
1611.2
1552.32
1338.42
1679.78
1636.4
1629.16
1675.47
1566.55
2135.45
1487.57
731.225
733.217
745.908
747.532
753.183
755.552
-380.005
13.4643
-254.661
-181.372
-232.126
-232.509
-242.675
-246.447
-249.544
-253.179
-255.636
-257.593
-259.397
-261.095
-262.703
-264.158
-265.406
-266.16
-266.256
-264.918
-261.436
-253.664
-241.982
-259.324
-276.593
-279.702
-276.312
-272.579
-386.501
-497.252
-460.019
-436.023
-336.233
-386.067
-182.34
180.172
143.542
-26.9866
-71.3357
-84.5816
-65.596
-48.5037
-51.7016
260.229
613.994
623.841
141.676
-540.654
-776.972
-822.272
-673.309
-404.337
-300.585
-270.013
-250.148
-243.904
-246.956
-250.1
-254.049
-255.345
-256.689
-258.169
-259.698
-261.302
-262.959
-264.758
-266.744
-269.006
-271.879
-275.504
-280.214
-287.252
-293.096
-276.75
-280.076
-279.484
-279.915
-276.138
-310.144
-362.502
-314.606
-361.757
-301.437
-463.688
-423.909
-870.628
139.951
)
;
    }
    Outlet
    {
        type            calculated;
        value           nonuniform List<scalar> 
15
(
-0.00566917
-0.0149768
-0.308376
-0.418353
-0.738435
-0.252236
-0.000621423
-0.058427
-0.0544473
-0.0495161
-0.0531019
-0.0662824
-0.0799547
-0.405562
-0.192272
)
;
    }
    FrontAndBack
    {
        type            empty;
    }
}


// ************************************************************************* //
