/*--------------------------------*- C++ -*----------------------------------*\
| =========                 |                                                 |
| \\      /  F ield         | OpenFOAM: The Open Source CFD Toolbox           |
|  \\    /   O peration     | Version:  2.3.0                                 |
|   \\  /    A nd           | Web:      www.OpenFOAM.org                      |
|    \\/     M anipulation  |                                                 |
\*---------------------------------------------------------------------------*/
FoamFile
{
    version     2.0;
    format      ascii;
    class       volScalarField;
    location    "0.06";
    object      alpha.water;
}
// * * * * * * * * * * * * * * * * * * * * * * * * * * * * * * * * * * * * * //

dimensions      [0 0 0 0 0 0 0];

internalField   nonuniform List<scalar> 
725
(
1
1
0.999999
1
0.969015
1
1
1
1.00002
0.990252
1
1
1
1.00007
0.994861
1
1
1
1.00005
0.966093
1
1
1.00002
1
0.856157
0.519152
0.641987
0.99966
0.999997
0.99998
1.00001
1.00002
1
0.740561
0.0717585
0.000476609
0.000571268
0.000476909
0.00434405
0.581733
0.999814
0.999799
0.999909
0.999931
0.999947
0.999963
0.999989
1.00001
1.00002
1.00001
0.99999
0.999979
0.999974
0.999975
0.999982
0.999989
0.999988
0.999977
0.999967
0.999922
0.999385
0.997995
0.996717
0.996591
0.998041
0.999342
0.999643
0.999691
0.850918
0.190353
0.523129
0.684564
0.99975
1
0.999889
0.999925
0.999972
0.999989
0.739609
0.0891893
0.000474737
0.000531283
0.000477065
0.0114753
0.594907
0.999824
0.999814
0.999891
0.999896
0.9999
0.999908
0.999915
0.999915
0.999908
0.999897
0.999884
0.999872
0.999863
0.999858
0.999858
0.999862
0.999868
0.999876
0.999884
0.999886
0.99989
0.99977
0.999669
0.994437
0.993988
0.997909
0.999627
0.999693
0.835944
0.184326
0.306913
0.583697
0.99221
0.995901
0.999615
0.99989
0.999927
0.999955
0.756261
0.111846
0.000474737
0.000476019
0.000476752
0.0229701
0.638359
0.999914
0.999881
0.999841
0.9998
0.999786
0.999796
0.999807
0.999811
0.999813
0.999815
0.999823
0.999838
0.99988
0.999879
0.999875
0.999872
0.999871
0.999873
0.999878
0.999881
0.999937
1.00017
1.00003
0.994237
0.992022
0.993404
0.999631
0.999693
0.718379
0.114454
0.247867
0.568558
0.988182
0.98766
0.993033
0.999851
0.999922
0.999946
0.787599
0.14134
0.000474737
0.000474809
0.000474909
0.0318294
0.644874
0.999916
0.999855
0.99974
0.999609
0.99955
0.999593
0.999656
0.999693
0.999705
0.999705
0.999704
0.999711
0.999727
0.999748
0.999766
0.999779
0.999784
0.999814
0.999952
0.999928
0.999957
1.00011
1.00004
0.99432
0.99202
0.992022
0.999629
0.988145
0.655826
0.0488196
0.20601
0.513219
0.948421
0.9901
0.994478
0.999501
0.999965
0.999965
0.828105
0.178875
0.000474743
0.00047493
0.000475057
0.0372816
0.659975
0.999896
0.999871
0.999675
0.999339
0.999117
0.999142
0.99926
0.999363
0.999428
0.999464
0.999487
0.999515
0.999553
0.9996
0.999651
0.999709
0.999765
0.999808
0.999833
0.999851
0.999911
1.00017
1.00008
0.995551
0.992023
0.99342
0.999596
0.975842
0.615818
0.108813
0.125562
0.489799
0.683725
0.979361
0.999285
0.999104
0.999805
0.999904
0.855304
0.204702
0.000478141
0.000486343
0.000489127
0.0356353
0.646148
0.999883
0.999886
0.999403
0.999018
0.998647
0.998573
0.998713
0.998908
0.999077
0.999195
0.999274
0.99935
0.999434
0.999512
0.999574
0.999631
0.999686
0.999734
0.999771
0.999785
0.999902
1.00006
1.00054
0.996756
0.992035
0.995938
0.999673
0.98046
0.508782
0.0374535
0.0307138
0.519666
0.572775
0.988563
0.999478
0.999282
0.999807
0.999954
0.864511
0.213673
0.000510699
0.000963217
0.00046947
0.0308758
0.648575
0.999776
0.999686
0.999047
0.99871
0.998463
0.998431
0.99854
0.998708
0.998878
0.99902
0.999137
0.999245
0.999351
0.999447
0.999524
0.99959
0.999651
0.999704
0.999746
0.999758
0.999971
0.999861
0.998396
0.997518
0.993818
0.997647
0.999886
0.979673
0.375604
0.0412097
0.00621276
0.528737
0.896383
0.98148
0.999601
0.999601
0.999824
0.999953
0.875049
0.223043
0.000554975
0.000876313
0.000458285
0.0307582
0.643874
0.999539
0.999401
0.999266
0.998791
0.9985
0.998415
0.998487
0.99864
0.998809
0.998957
0.99908
0.999196
0.999311
0.999418
0.999511
0.999592
0.999657
0.999704
0.999737
0.999756
0.999852
0.999992
0.99916
0.998187
0.998788
0.99908
0.999957
0.995821
0.296732
0.0412218
1.23867e-05
0.513299
0.985196
0.986526
0.999492
0.999859
0.999845
1.00001
0.883715
0.232509
0.000494735
0.000466361
0.000457036
0.0268367
0.643295
0.998927
0.998801
0.998724
0.998591
0.998425
0.998358
0.9984
0.998523
0.998684
0.998848
0.999003
0.999143
0.999268
0.999382
0.999479
0.999562
0.999628
0.999675
0.999706
0.99973
0.999777
0.999922
0.999656
0.999282
0.998714
0.999789
0.999941
1
0.369401
0.0113824
0.011353
0.42271
0.95215
0.999839
0.999673
0.99981
0.999918
1
0.89377
0.241756
0.000495407
0.000459319
0.000457005
0.018466
0.652872
0.999041
0.998838
0.998928
0.99862
0.998447
0.998372
0.998406
0.998539
0.998715
0.998888
0.999045
0.999177
0.999289
0.999391
0.999481
0.999555
0.99961
0.999645
0.999671
0.9997
0.99975
0.999834
0.99974
0.999713
0.998745
0.999602
0.999947
1
0.272044
1.54659e-05
1
1
0.999998
1.00001
0.906867
1
1
1
1.00001
0.982569
1
1
1
1.00001
1
1
1
1.00001
1.00001
1
1
1
1.00001
1
0.973905
0.0758625
0.314274
0.929381
1
0.999964
0.999891
0.999943
1
0.916845
0.26721
0.000460392
0.000458059
0.000457811
0.00994137
0.649478
0.999831
0.999832
0.999607
0.999246
0.998811
0.998593
0.998753
0.998954
0.999087
0.999161
0.999214
0.999267
0.999324
0.999382
0.999436
0.999486
0.999533
0.999578
0.999625
0.999675
0.999726
0.999774
0.999756
0.999768
0.999932
0.999746
0.999952
1
0.171108
3.58472e-15
0.133453
0.575684
0.964923
1
1.00001
1.00002
0.999947
1
0.955005
0.306901
0.000463818
0.000457911
0.000456541
0.00754333
0.652868
0.999833
0.999834
0.999509
0.999161
0.999025
0.999215
0.999157
0.999132
0.999135
0.999166
0.999219
0.999282
0.999348
0.999411
0.99947
0.999522
0.999572
0.999624
0.999679
0.999731
0.999737
0.999867
0.999862
0.999801
0.999811
0.999821
0.999974
1
0.163754
7.62654e-63
0.143815
0.622226
0.941289
1
0.999999
1.00001
1
1
0.979453
0.337012
0.000468977
0.000458584
0.000456445
0.0074419
0.655354
0.999701
0.999595
0.999388
0.999194
0.999065
0.999027
0.999045
0.999106
0.999193
0.999288
0.999382
0.999471
0.999554
0.999629
0.999694
0.999745
0.999785
0.999817
0.999844
0.999865
0.999872
0.999885
0.999855
0.99978
0.999767
0.999869
0.999973
1
0.166938
1.76931e-84
0.302849
0.691785
0.936275
1
1.00004
1.00002
1.00002
1.00002
1
0.361677
0.000475867
0.000466443
0.000458964
0.00606363
0.630488
0.999609
0.999573
0.999428
0.999343
0.999342
0.999405
0.999504
0.999604
0.999685
0.999746
0.999794
0.999834
0.999864
0.999882
0.999893
0.999899
0.999905
0.999914
0.999927
0.999937
0.999931
1
0.999865
0.999723
0.999721
0.999863
0.999982
1
0.150349
1.9125e-84
0.850252
0.82471
0.920196
1.00001
0.999994
1.00001
1.00002
1.00001
0.997393
0.372782
0.000488684
0.00047699
0.000464216
0.0079169
0.626802
0.999606
0.999592
0.999794
0.999883
0.999915
0.99994
0.999961
0.999974
0.99998
0.999983
0.999988
0.999991
0.999992
0.999992
0.999994
1
1.00001
1.00002
1.00002
1.00002
1.00002
1.00001
0.99989
0.99975
0.999816
0.999923
0.99999
1
0.155627
1.25333e-82
)
;

boundaryField
{
    AirInlet
    {
        type            fixedValue;
        value           uniform 0;
    }
    WaterInlet
    {
        type            fixedValue;
        value           uniform 1;
    }
    ChannelWall
    {
        type            zeroGradient;
    }
    Outlet
    {
        type            inletOutlet;
        inletValue      uniform 0;
        value           nonuniform List<scalar> 
15
(
0.190353
0.184326
0.114454
0
0.108813
0.0374535
0.0412097
0.0412218
0.0113824
1.54659e-05
0
0
0
0
0
)
;
    }
    FrontAndBack
    {
        type            empty;
    }
}


// ************************************************************************* //
