/*--------------------------------*- C++ -*----------------------------------*\
| =========                 |                                                 |
| \\      /  F ield         | OpenFOAM: The Open Source CFD Toolbox           |
|  \\    /   O peration     | Version:  2.3.0                                 |
|   \\  /    A nd           | Web:      www.OpenFOAM.org                      |
|    \\/     M anipulation  |                                                 |
\*---------------------------------------------------------------------------*/
FoamFile
{
    version     2.0;
    format      ascii;
    class       volScalarField;
    location    "0.06";
    object      p;
}
// * * * * * * * * * * * * * * * * * * * * * * * * * * * * * * * * * * * * * //

dimensions      [1 -1 -2 0 0 0 0];

internalField   nonuniform List<scalar> 
725
(
40.9436
5.58486
-12.514
-39.3276
-98.1345
35.1623
6.09182
-11.6951
-29.961
-56.7015
32.5314
5.82962
-10.429
-19.7632
0.550596
32.8386
4.56573
-10.1047
-30.9423
-40.3465
35.9744
2.56481
-5.42407
10.0108
214.438
308.558
-132.576
-566.556
-705.265
-666.595
-628.211
-615.575
-667.041
-763.223
-509.989
-494.063
-496.528
-494.976
-493.199
-765.689
-537.017
-523.547
-496.3
-488.811
-486.609
-486.407
-487.045
-488.132
-489.605
-491.215
-492.88
-494.496
-496.105
-497.732
-499.247
-500.691
-502.134
-503.492
-504.566
-506.1
-505.474
-500.322
-496.574
-495.034
-471.494
-456.299
-395.285
-353.667
-204.878
-287.709
324.338
-138.062
-662.026
-731.488
-667.136
-622.398
-607.23
-655.016
-743.109
-511.253
-494.383
-496.781
-495.341
-495.288
-612.362
-500.535
-506.691
-492.84
-487.809
-486.515
-486.605
-487.407
-488.622
-490.125
-491.739
-493.373
-494.988
-496.598
-498.247
-499.804
-501.28
-502.713
-504.047
-505.123
-506.301
-507.145
-506.867
-503.962
-494.999
-484.475
-469.345
-419.372
-348.2
-277.206
-335.616
1150.94
46.0496
-950.647
-784.124
-662.996
-607.41
-589.708
-632.476
-704.994
-511.401
-494.712
-497.047
-495.531
-496.583
-425.514
-454.928
-486.999
-485.639
-485.889
-485.928
-486.448
-487.394
-488.65
-490.179
-491.808
-493.449
-495.071
-496.676
-498.337
-499.899
-501.377
-502.833
-504.196
-505.25
-506.534
-507.249
-506.141
-502.457
-496.775
-481.097
-474.181
-435.034
-383.903
-648.196
-265.996
1526.86
166.675
-1197.72
-790.053
-609.67
-582.812
-563.058
-600.01
-658.917
-510.021
-494.866
-497.941
-495.546
-494.017
-320.454
-424.695
-468.619
-480.154
-483.933
-485.154
-486.171
-487.316
-488.636
-490.215
-491.869
-493.514
-495.144
-496.775
-498.463
-500.004
-501.465
-502.894
-504.317
-505.216
-506.734
-507.676
-507.934
-505.086
-498.971
-486
-481.397
-454.636
-414.052
-326.956
-151.673
1776.78
588.942
-2562.11
-771.361
-585.341
-541.746
-526.534
-558.452
-591.427
-502.872
-494.715
-499.123
-495.234
-488.117
-316.422
-441.956
-457.768
-477.518
-482.53
-484.276
-485.789
-487.195
-488.596
-490.251
-491.935
-493.583
-495.21
-496.839
-498.577
-500.108
-501.559
-503.02
-504.469
-506.042
-507.299
-507.869
-508.424
-503.15
-507.115
-493.255
-508.15
-509.21
-399.578
-253.616
-341.818
1999.83
1257.32
3826.94
-483.843
-533.013
-503.746
-501.597
-530.182
-551.739
-490.932
-494.132
-500.282
-494.486
-485.276
-409.747
-454.202
-451.866
-477.484
-482.129
-483.686
-485.436
-487.034
-488.511
-490.265
-491.973
-493.615
-495.234
-496.857
-498.683
-500.175
-501.598
-503.071
-504.544
-506.168
-507.395
-508.42
-510.425
-502.186
-511.251
-498.01
-515.978
-529.416
-625.55
-597.711
79.7108
2376.63
1463.68
7291.34
-349.238
-515.966
-497.428
-492.936
-519.512
-537.194
-485.879
-493.869
-487.489
-494.159
-484.899
-441.258
-455.761
-451.485
-477.69
-481.691
-483.327
-485.315
-486.97
-488.468
-490.257
-491.974
-493.611
-495.225
-496.848
-498.702
-500.174
-501.574
-503.057
-504.563
-506.201
-507.424
-506.094
-507.762
-481.094
-515.434
-501.518
-518.241
-537.32
-670.232
-334.755
42.443
2741.63
1606.92
1920.23
-139.706
-496.3
-486.92
-484.776
-508.746
-521.482
-480.437
-493.554
-490.555
-493.847
-485.219
-466.451
-459.804
-451.965
-477.962
-481.726
-483.355
-485.243
-486.928
-488.427
-490.24
-491.963
-493.584
-495.179
-496.81
-498.702
-500.186
-501.598
-503.082
-504.591
-506.236
-507.501
-509.419
-508.683
-506.391
-517.92
-504.365
-521.289
-547.792
-634.802
716.225
-6.08361
2910.98
925.431
2974.34
-175.523
-477.938
-476.961
-476.823
-497.967
-506.063
-475.547
-493.261
-488.249
-493.474
-493.624
-494.914
-462.671
-453.006
-461.086
-476.014
-480.838
-483.155
-484.107
-484.854
-486.476
-488.675
-491.216
-493.658
-495.919
-498.426
-500.126
-501.622
-503.145
-504.649
-506.268
-507.627
-509.579
-510.066
-516.999
-518.585
-506.009
-523.072
-559.054
-485.22
592.147
-83.941
2678.5
443.753
1625.03
-174.258
-467.665
-470.464
-468.967
-487.35
-491.162
-471.149
-492.996
-488.544
-493.022
-498.242
-523.983
-461.951
-452.017
-468.839
-477.013
-481.569
-483.692
-484.356
-485.385
-487.547
-490.057
-492.638
-494.759
-496.546
-498.643
-500.156
-501.643
-503.183
-504.688
-506.29
-507.683
-509.637
-510.775
-516.691
-518.61
-507.837
-531.825
-568.412
-579.59
-498.179
13.9659
-202.471
-237.354
-228.174
-160.006
334.925
-206.443
-239.293
-255.72
-272.389
-345.72
-207.297
-240.494
-264.933
-306.63
-695.463
-204.965
-241.341
-264.855
-285.513
-690.077
-199.273
-241.875
-256.56
-245.371
-509.148
1733.24
886.561
-119.059
-315.068
-450.512
-450.446
-449.086
-458.774
-449.46
-458.879
-492.451
-489.298
-492.108
-491.644
-571.663
-461.242
-495.413
-472.172
-480.986
-482.708
-484.096
-486.11
-488.292
-490.199
-491.984
-493.732
-495.475
-497.123
-498.485
-499.985
-501.552
-503.069
-504.589
-506.216
-507.798
-509.75
-511.424
-515.93
-518.52
-513.985
-534.266
-604.427
-1007.25
-878.201
2.74492
1509.83
-579.511
-327.473
-369.956
-419.387
-425.429
-416.874
-413.555
-387.151
-442.509
-491.937
-490.104
-491.908
-490.662
-497.054
-461.828
-492.124
-474.098
-481.587
-483.172
-484.499
-486.243
-488.339
-490.239
-492.038
-493.799
-495.539
-497.215
-498.708
-500.289
-501.904
-503.488
-505.105
-506.81
-508.474
-510.218
-512.277
-515.566
-518.948
-518.383
-538.258
-593.706
-857.888
-442.416
0.955458
1427.17
-575.018
-393.387
-360.664
-396.048
-400.83
-385.392
-371.751
-330.616
-432.732
-491.814
-490.544
-492.01
-492.525
-444.526
-446.929
-495.716
-475.321
-481.737
-483.369
-484.613
-486.358
-488.371
-490.298
-492.118
-493.883
-495.628
-497.313
-498.853
-500.447
-502.077
-503.692
-505.322
-507.019
-508.747
-510.653
-512.683
-515.648
-519.148
-519.052
-531.393
-544.287
-538.311
-304.299
-0.346668
459.107
-737.292
-443.197
-383.053
-383.223
-380.917
-359.72
-338.117
-281.019
-423.686
-492.153
-490.739
-491.775
-491.257
-540.631
-454.136
-504.492
-477.217
-482.751
-483.749
-484.88
-486.501
-488.441
-490.367
-492.208
-493.987
-495.728
-497.4
-498.949
-500.542
-502.175
-503.804
-505.455
-507.172
-508.945
-510.85
-512.716
-515.766
-518.676
-517.737
-523.428
-512.193
-453.231
-285.181
-0.917929
1488.03
-680.137
-375.469
-374.431
-373.905
-368.165
-344.232
-319.884
-274.419
-414.551
-490.975
-490.646
-491.663
-488.712
-522.62
-448.12
-521.634
-476.434
-481.465
-481.71
-482.894
-484.776
-487.05
-489.29
-491.37
-493.328
-495.213
-496.989
-498.608
-500.246
-501.889
-503.494
-505.148
-506.924
-508.783
-510.627
-512.849
-515.935
-518.803
-516.996
-518.097
-494.105
-398.48
-284.107
-1.19683
)
;

boundaryField
{
    AirInlet
    {
        type            calculated;
        value           nonuniform List<scalar> 5(2274.44 2550.74 2885.59 2911.29 2876.85);
    }
    WaterInlet
    {
        type            calculated;
        value           nonuniform List<scalar> 10(40.9456 35.1683 32.5415 32.8527 35.9924 -202.489 -206.458 -207.307 -204.971 -199.276);
    }
    ChannelWall
    {
        type            calculated;
        value           nonuniform List<scalar> 
110
(
35.9484
2.53477
-5.45807
9.97283
214.402
-202.445
-237.324
-228.14
-159.968
334.963
-199.3
-241.906
-256.594
-245.409
-509.189
1487.99
-680.173
-375.51
-374.475
-373.95
-368.209
-344.276
-319.928
-274.463
-414.567
-490.976
-490.646
-491.663
-488.713
-522.647
-448.164
-521.678
-476.478
-481.509
-481.754
-482.938
-484.82
-487.095
-489.334
-491.414
-493.372
-495.258
-497.033
-498.652
-500.29
-501.934
-503.538
-505.192
-506.968
-508.827
-510.671
-512.893
-515.979
-518.848
-517.04
-518.141
-494.149
-398.524
-284.114
-1.19688
40.9702
5.61531
-12.4796
-39.2893
-98.0936
308.581
-132.548
-566.511
-705.221
-666.551
-628.167
-615.531
-666.997
-763.19
-509.985
-494.063
-496.528
-494.976
-493.198
-765.663
-536.972
-523.503
-496.256
-488.767
-486.565
-486.363
-487.001
-488.088
-489.561
-491.171
-492.836
-494.451
-496.061
-497.688
-499.203
-500.647
-502.089
-503.448
-504.522
-506.056
-505.43
-500.278
-496.53
-494.99
-471.45
-456.255
-395.241
-353.623
-204.841
-287.7
)
;
    }
    Outlet
    {
        type            calculated;
        value           nonuniform List<scalar> 
15
(
-0.00843888
-0.0245193
-0.0254582
-0.382316
-0.0435862
-0.0173356
-0.0198563
-0.0206896
-0.00631068
-0.000537925
-0.000583695
-0.325033
-0.378168
-0.251568
-0.0696608
)
;
    }
    FrontAndBack
    {
        type            empty;
    }
}


// ************************************************************************* //
