/*--------------------------------*- C++ -*----------------------------------*\
| =========                 |                                                 |
| \\      /  F ield         | OpenFOAM: The Open Source CFD Toolbox           |
|  \\    /   O peration     | Version:  2.3.0                                 |
|   \\  /    A nd           | Web:      www.OpenFOAM.org                      |
|    \\/     M anipulation  |                                                 |
\*---------------------------------------------------------------------------*/
FoamFile
{
    version     2.0;
    format      ascii;
    class       volVectorField;
    location    "0.06";
    object      U;
}
// * * * * * * * * * * * * * * * * * * * * * * * * * * * * * * * * * * * * * //

dimensions      [0 1 -1 0 0 0 0];

internalField   nonuniform List<vector> 
725
(
(0.0420235 0.00711679 -3.2074e-31)
(0.0600012 0.00132942 7.63654e-32)
(0.0343706 -0.00148073 9.28257e-32)
(0.0859572 -0.000700533 0)
(0.0497991 -0.0150147 -1.91861e-30)
(0.0799276 0.0133056 -1.41672e-30)
(0.124483 0.00715102 3.22139e-31)
(0.0671532 -0.0062503 6.33494e-31)
(0.153655 0.00230424 0)
(0.0102416 -0.0296832 -8.97204e-30)
(0.090793 0.0081596 -2.9111e-31)
(0.142089 0.0118376 7.75184e-32)
(0.0744585 -0.00876932 9.63739e-31)
(0.135839 0.0205576 0)
(0.013445 -0.0397446 2.78725e-30)
(0.0806782 0.00132825 1.92553e-30)
(0.118092 0.0129412 7.27884e-32)
(0.0622207 -0.00867107 2.69198e-30)
(0.0798066 0.0160273 0)
(0.183539 -0.0941809 -1.69787e-29)
(0.0419367 0.0004242 1.99345e-30)
(0.0520154 0.00801782 -5.46074e-32)
(0.0205003 -0.00268922 1.31817e-30)
(-0.0422484 -0.0179686 6.59292e-30)
(0.00409805 -0.0818878 -3.06795e-29)
(0.181779 -0.00527016 0)
(0.0685332 0.00792212 0)
(0.0253042 0.00195501 0)
(0.079888 0.00669459 0)
(0.0317715 0.00384667 0)
(0.0539928 0.00137647 0)
(0.055461 -0.000240097 0)
(0.0363922 0.0119864 0)
(-0.11482 0.0244714 0)
(-0.121836 -0.0377579 0)
(0.284896 0.0257809 0)
(0.0758931 0.0357252 0)
(-0.0789101 0.00822493 0)
(0.0502963 0.0224709 0)
(-0.00519801 0.000595263 0)
(-0.0166688 -0.00213098 0)
(0.0144324 -0.000660889 0)
(0.0154147 -0.000313376 0)
(0.0148845 -6.34893e-05 0)
(0.0147634 -0.000162189 0)
(0.015852 -0.000128013 0)
(0.0166427 -6.76591e-05 0)
(0.016999 -1.59621e-05 0)
(0.017039 1.10788e-05 0)
(0.0169148 1.94343e-05 0)
(0.0168093 4.76877e-06 0)
(0.0168267 -8.58578e-06 0)
(0.0168946 -1.15668e-05 0)
(0.0167682 2.78619e-05 0)
(0.0165132 2.31235e-05 0)
(0.0163415 1.75204e-05 0)
(0.0161644 3.18593e-05 0)
(0.0160655 1.20217e-05 0)
(0.0167376 -0.000174978 0)
(0.0178389 -0.000191266 0)
(0.0218996 -0.00130249 0)
(0.0257204 -0.000610889 0)
(0.0232376 0.00153927 0)
(0.0153172 0.000310752 0)
(0.02457 -0.0026348 0)
(0.0285637 0.00287357 0)
(0.00401176 0.0014216 0)
(0.0208546 0.000123749 0)
(0.0740071 -0.0393042 0)
(0.247677 0.0401219 0)
(0.205446 0.00167057 0)
(0.115389 0.0636708 0)
(-0.0156438 -0.00603383 0)
(0.0847833 -6.99006e-05 0)
(0.0150362 0.00303186 0)
(0.070405 -0.0082904 0)
(0.0806574 0.00149282 0)
(0.044874 0.060489 0)
(-0.159219 0.0569141 0)
(-0.0372148 -0.16709 0)
(0.0922469 -0.062808 0)
(0.0698999 0.114488 0)
(-0.0935227 -0.0462764 0)
(0.192373 -0.0339611 0)
(0.0191812 0.0570154 0)
(0.00120145 -0.0172812 0)
(0.0447585 -0.00684533 0)
(0.0459109 -0.000564626 0)
(0.0426131 0.00086122 0)
(0.0407936 -0.000361852 0)
(0.0421609 -0.000716608 0)
(0.0434876 -0.000462964 0)
(0.044204 -0.000167973 0)
(0.0444011 3.71495e-05 0)
(0.0442545 0.000102604 0)
(0.0440819 4.27568e-05 0)
(0.044103 -3.07762e-05 0)
(0.0441921 1.84509e-06 0)
(0.0438702 0.000200986 0)
(0.0433132 0.000181585 0)
(0.0429895 0.000117446 0)
(0.0427841 0.000105674 0)
(0.0428334 -0.000145737 0)
(0.0440966 -0.000948956 0)
(0.0461345 -0.00129269 0)
(0.0483114 -0.00292201 0)
(0.0446741 -0.000345268 0)
(0.0429915 0.00297014 0)
(0.0412341 0.00121936 0)
(0.0474284 -0.00682324 0)
(0.0442374 0.00955239 0)
(0.0112586 -0.0108743 0)
(0.0463982 -0.00525762 0)
(0.0272839 -0.200342 0)
(0.480154 0.100809 0)
(0.177259 -0.0569627 0)
(0.283138 0.0954739 0)
(0.124984 -0.0126591 0)
(0.166805 -0.00110522 0)
(0.0336861 0.00879864 0)
(0.0884759 -0.0234996 0)
(0.0869179 0.00701558 0)
(0.0344581 0.106022 0)
(-0.126045 0.057711 0)
(0.0873617 -0.165114 0)
(-0.0545192 -0.0899702 0)
(-0.0286444 0.200532 0)
(-0.238566 -0.0574095 0)
(-0.187601 0.00842411 0)
(-0.0206257 0.0309094 0)
(-0.00563201 -0.031941 0)
(0.0686773 -0.0153431 0)
(0.0709346 -0.000296678 0)
(0.0661556 0.00285719 0)
(0.0625554 -7.80147e-05 0)
(0.0629533 -0.00124727 0)
(0.0638534 -0.000942174 0)
(0.0644965 -0.000421568 0)
(0.0647693 2.17318e-05 0)
(0.0646766 0.000179541 0)
(0.0645488 8.16095e-05 0)
(0.0646577 -6.5187e-05 0)
(0.064869 2.84143e-05 0)
(0.0645412 0.000460327 0)
(0.0638815 0.000408636 0)
(0.0635528 0.000214764 0)
(0.0634605 0.00011372 0)
(0.0636936 -0.00036924 0)
(0.0650497 -0.00192202 0)
(0.067065 -0.00210647 0)
(0.0683504 -0.00158751 0)
(0.0600939 0.00286976 0)
(0.0580868 0.0026618 0)
(0.064867 -0.000615699 0)
(0.06976 -0.00470434 0)
(0.0484015 0.0197576 0)
(0.00613831 0.00358711 0)
(-0.0557691 0.00483281 0)
(-0.179682 -0.528726 0)
(0.912782 -0.0154488 0)
(0.259575 -0.107563 0)
(0.328191 0.0412104 0)
(0.376896 0.127902 0)
(0.321559 0.0648465 0)
(0.104781 0.0332425 0)
(0.113845 -0.0311909 0)
(0.0767092 0.0219797 0)
(0.00196963 0.146477 0)
(-0.0823929 0.0438444 0)
(0.128298 -0.148806 0)
(-0.0594901 -0.097417 0)
(-0.0648221 0.293168 0)
(-0.0548269 -0.101036 0)
(0.209446 -0.0956114 0)
(0.026364 0.00468748 0)
(0.00135983 -0.0492741 0)
(0.0782837 -0.031134 0)
(0.0868141 -0.00166258 0)
(0.0843463 0.00495833 0)
(0.079761 0.000833245 0)
(0.0782535 -0.00122144 0)
(0.0777135 -0.00115506 0)
(0.0778157 -0.000631241 0)
(0.0780949 -2.07068e-05 0)
(0.0781329 0.000217344 0)
(0.0781549 6.34373e-05 0)
(0.0784399 -0.000171637 0)
(0.0788947 -1.18144e-05 0)
(0.0787299 0.000722809 0)
(0.0781352 0.000626673 0)
(0.0779225 0.000269317 0)
(0.0780525 1.45218e-05 0)
(0.0787604 -0.000753144 0)
(0.0796803 -0.00259912 0)
(0.080762 -0.00272609 0)
(0.0817451 -0.000592664 0)
(0.0725451 0.00643388 0)
(0.0746467 -0.00227058 0)
(0.0895481 -0.00342469 0)
(0.0921412 0.00371339 0)
(0.0461085 0.0379481 0)
(0.00685515 0.0440738 0)
(-0.17981 0.091254 0)
(-0.360643 -0.539294 0)
(-0.804187 0.271896 0)
(-0.689591 0.0324767 0)
(-0.513059 -0.157358 0)
(0.0710384 0.0348143 0)
(0.4384 0.0874991 0)
(0.324925 0.0813045 0)
(0.169349 0.00443479 0)
(0.0642216 0.0574436 0)
(-0.043443 0.170107 0)
(-0.0217995 0.00242863 0)
(0.127863 -0.102111 0)
(-0.0934954 -0.116082 0)
(-0.0618034 0.347681 0)
(0.164066 -0.300006 0)
(0.336253 -0.0131094 0)
(0.0799076 0.145069 0)
(0.0401476 -0.0761187 0)
(0.0882316 -0.0579583 0)
(0.0977487 -0.00573719 0)
(0.0963606 0.00637105 0)
(0.0914958 0.00225775 0)
(0.0877805 -0.000214792 0)
(0.0850265 -0.000743488 0)
(0.0841719 -0.000675771 0)
(0.084401 -8.11669e-05 0)
(0.0846545 0.000183114 0)
(0.0849094 -4.53247e-05 0)
(0.0853944 -0.000388017 0)
(0.0861902 -0.000201586 0)
(0.0864237 0.000927971 0)
(0.0861409 0.000766197 0)
(0.0862234 0.000232034 0)
(0.0865691 -0.000195908 0)
(0.0872089 -0.00119275 0)
(0.087334 -0.00269647 0)
(0.0870764 -0.00254974 0)
(0.0861904 0.000856909 0)
(0.0791902 0.01015 0)
(0.0825119 -0.00604258 0)
(0.0957796 -0.0125218 0)
(0.100714 0.0156522 0)
(0.0522257 0.0587244 0)
(0.0311756 0.0728218 0)
(-0.142416 0.169852 0)
(-0.0459042 -0.476405 0)
(0.228507 0.0435965 0)
(-0.40071 0.124262 0)
(-0.538999 -0.249172 0)
(-0.653872 -0.144061 0)
(0.398554 -0.00126164 0)
(0.440841 0.126955 0)
(0.192679 0.0553705 0)
(0.0624742 0.0899811 0)
(-0.0636559 0.176855 0)
(0.0230622 -0.0238129 0)
(0.105005 -0.0848067 0)
(-0.0788837 -0.120362 0)
(-0.0446422 0.355509 0)
(0.0225652 -0.341153 0)
(0.0108049 -0.064598 0)
(0.296211 0.169096 0)
(0.166289 -0.0444608 0)
(0.103168 -0.0575748 0)
(0.0998862 -0.00585508 0)
(0.098739 0.00701158 0)
(0.0944204 0.00342196 0)
(0.0895119 0.000987817 0)
(0.0853 -8.6423e-06 0)
(0.0837731 -0.000526556 0)
(0.0839636 -0.000157868 0)
(0.0844294 7.12591e-05 0)
(0.0848966 -0.000184205 0)
(0.0854983 -0.000599083 0)
(0.0865016 -0.000428657 0)
(0.0871369 0.000871456 0)
(0.0872874 0.000715787 0)
(0.0876629 0.000132966 0)
(0.0880633 -0.000315661 0)
(0.0885073 -0.00124846 0)
(0.0881749 -0.00260635 0)
(0.0880824 -0.00235172 0)
(0.0875637 0.00125082 0)
(0.0862768 0.00918708 0)
(0.103478 -0.00777791 0)
(0.10426 -0.014163 0)
(0.0976942 0.0223758 0)
(0.0520008 0.0697904 0)
(0.0244196 0.119526 0)
(-0.543399 0.15184 0)
(-0.119999 -0.604881 0)
(0.750276 0.226423 0)
(0.641135 0.139194 0)
(-0.185833 -0.124705 0)
(-0.586961 -0.194764 0)
(0.236208 -0.0537602 0)
(0.446915 0.136348 0)
(0.197475 0.0746695 0)
(0.0637499 0.10307 0)
(-0.0677346 0.17806 0)
(0.0406439 -0.0317073 0)
(0.0996853 -0.0777038 0)
(-0.08691 -0.119814 0)
(-0.0322973 0.354786 0)
(0.0465477 -0.340993 0)
(-0.121122 -0.0886222 0)
(0.345416 0.158091 0)
(0.16679 -0.0314459 0)
(0.10554 -0.05468 0)
(0.0995375 -0.00543185 0)
(0.0992618 0.00722128 0)
(0.0952298 0.00387706 0)
(0.0898431 0.00147315 0)
(0.085099 0.000299802 0)
(0.0833108 -0.000454861 0)
(0.0834682 -0.000190687 0)
(0.0840117 2.09203e-05 0)
(0.0845593 -0.000241112 0)
(0.0852002 -0.000682206 0)
(0.0862693 -0.000519754 0)
(0.0870638 0.000827141 0)
(0.0874022 0.000682025 0)
(0.0878871 9.07406e-05 0)
(0.0882962 -0.00035568 0)
(0.0886602 -0.00125088 0)
(0.0881802 -0.00257399 0)
(0.0881227 -0.00232761 0)
(0.0875042 0.00128384 0)
(0.088975 0.00827411 0)
(0.110281 -0.00884083 0)
(0.105488 -0.0134318 0)
(0.0957388 0.0247586 0)
(0.0538632 0.0738435 0)
(0.0309487 0.149111 0)
(-0.497061 0.138438 0)
(0.843443 -0.686848 0)
(1.60176 0.0894601 0)
(1.46434 0.0603322 0)
(1.0554 0.00452028 0)
(0.438335 -0.19778 0)
(0.238675 -0.0887537 0)
(0.414373 0.140505 0)
(0.194525 0.0930187 0)
(0.0660479 0.116334 0)
(-0.0675371 0.178807 0)
(0.0580581 -0.0392387 0)
(0.0913872 -0.0691813 0)
(-0.134625 -0.11658 0)
(-0.00523769 0.344844 0)
(0.27442 -0.336739 0)
(-0.129637 -0.102643 0)
(0.302964 0.144039 0)
(0.100397 -0.0208514 0)
(0.105071 -0.0527958 0)
(0.0980287 -0.00493781 0)
(0.0995099 0.00735811 0)
(0.0957545 0.0043548 0)
(0.08987 0.00201311 0)
(0.0846101 0.000650186 0)
(0.0825435 -0.000367035 0)
(0.0826446 -0.000226683 0)
(0.0832675 -3.84497e-05 0)
(0.0838996 -0.000304229 0)
(0.0845768 -0.000770956 0)
(0.0856999 -0.000623159 0)
(0.0866734 0.000761671 0)
(0.0872397 0.000631234 0)
(0.0878357 4.16928e-05 0)
(0.0882323 -0.000392309 0)
(0.0885014 -0.00124038 0)
(0.0878943 -0.00253353 0)
(0.0876592 -0.00230439 0)
(0.0869998 0.00123484 0)
(0.0899594 0.00709418 0)
(0.110884 -0.00983021 0)
(0.101844 -0.0122044 0)
(0.0933152 0.0268887 0)
(0.0578947 0.077047 0)
(0.055947 0.175007 0)
(-0.222299 0.0656891 0)
(1.72223 -0.836933 0)
(4.37829 0.0253178 0)
(-1.40255 -0.0279659 0)
(1.62548 -0.109783 0)
(1.12402 -0.108291 0)
(0.370431 -0.0725925 0)
(0.368244 0.145906 0)
(0.184083 0.109217 0)
(0.0686937 0.129107 0)
(-0.0613038 0.178811 0)
(0.0751571 -0.0460688 0)
(0.0829592 -0.0596408 0)
(-0.13597 -0.111213 0)
(0.0234314 0.322472 0)
(0.382998 -0.33578 0)
(-0.158071 -0.0872559 0)
(0.244144 0.132894 0)
(0.0453635 -0.0150028 0)
(0.104226 -0.0535844 0)
(0.0949559 -0.00459756 0)
(0.0996975 0.00739851 0)
(0.0960153 0.0048591 0)
(0.0895952 0.00261523 0)
(0.0838461 0.00104494 0)
(0.0814817 -0.000261712 0)
(0.0814991 -0.000265066 0)
(0.0822069 -0.000107936 0)
(0.0829372 -0.000374352 0)
(0.0836548 -0.000865286 0)
(0.0848144 -0.000742501 0)
(0.0859786 0.000673022 0)
(0.0867991 0.000562747 0)
(0.0874794 -9.81884e-06 0)
(0.0878269 -0.000421217 0)
(0.0879963 -0.0012186 0)
(0.0872911 -0.00248047 0)
(0.0868697 -0.00226258 0)
(0.0861982 0.00111155 0)
(0.0901715 0.00593066 0)
(0.107844 -0.0104116 0)
(0.0960141 -0.01105 0)
(0.0917896 0.0285474 0)
(0.0637689 0.0784297 0)
(0.0920246 0.186266 0)
(-0.0959458 -0.0041361 0)
(0.816505 -1.05395 0)
(3.42403 -0.144211 0)
(-1.94366 0.053793 0)
(1.20711 -0.393482 0)
(1.20566 -0.027403 0)
(0.383675 -0.0294979 0)
(0.312312 0.153499 0)
(0.168443 0.122452 0)
(0.071175 0.140644 0)
(-0.0486669 0.178028 0)
(0.0908992 -0.0514512 0)
(0.0757212 -0.050779 0)
(-0.108128 -0.10725 0)
(0.0499752 0.293741 0)
(0.319622 -0.330242 0)
(-0.150911 -0.0641613 0)
(0.248184 0.119392 0)
(0.0550972 -0.00966152 0)
(0.105661 -0.0552387 0)
(0.0891979 -0.00434989 0)
(0.0966203 0.00730814 0)
(0.0943067 0.00530138 0)
(0.0889167 0.00318986 0)
(0.0840011 0.00142777 0)
(0.0819526 -0.000152916 0)
(0.0819543 -0.000300697 0)
(0.0826061 -0.000177863 0)
(0.0832334 -0.000438083 0)
(0.0836797 -0.000940963 0)
(0.0843722 -0.00084464 0)
(0.0852721 0.000577863 0)
(0.086138 0.000483952 0)
(0.0868193 -5.86406e-05 0)
(0.0870948 -0.000442441 0)
(0.0871746 -0.00118961 0)
(0.0863932 -0.00241486 0)
(0.0858016 -0.00221266 0)
(0.0851311 0.000946413 0)
(0.0897211 0.00484209 0)
(0.104468 -0.0106023 0)
(0.0909611 -0.0100768 0)
(0.0909195 0.0295082 0)
(0.0700632 0.0780825 0)
(0.120032 0.187571 0)
(0.0042526 -0.0422681 0)
(0.292609 -1.34689 0)
(2.81886 -0.106054 0)
(0.0464586 -0.00180727 0)
(0.0522362 -0.00902945 -3.92969e-31)
(0.0392807 -0.00567235 -4.68843e-30)
(0.00852556 0.00706413 -1.69901e-29)
(0.0861139 0.0777744 0)
(0.0892772 -0.00377961 0)
(0.110925 -0.0160141 0)
(0.0954503 -0.0156096 0)
(0.164674 -0.0426358 -1.20911e-29)
(0.335143 0.0412199 0)
(0.100326 -0.0106976 0)
(0.128501 -0.0170815 0)
(0.103651 -0.0256536 0)
(0.200584 -0.109518 -2.13634e-30)
(0.311706 -0.0632784 0)
(0.087733 -0.0150202 0)
(0.108012 -0.0130047 0)
(0.068291 -0.03061 0)
(0.134466 -0.137007 -2.54945e-30)
(-0.0586364 -0.127914 0)
(0.0454084 -0.00730151 0)
(0.0485198 -0.00330744 0)
(0.00907919 -0.0127872 0)
(-0.0612354 -0.0530338 -1.55886e-30)
(-0.696776 -0.00776913 0)
(-0.702654 0.285522 0)
(-0.581015 -0.734558 0)
(0.0837316 -0.0298188 0)
(0.0798418 0.0187107 0)
(0.13012 0.167851 0)
(0.1154 0.14634 0)
(0.0762746 0.166208 0)
(0.0029395 0.173272 0)
(0.13187 -0.057878 0)
(0.067826 -0.0311071 0)
(-0.0465958 -0.0987686 0)
(0.113034 0.221861 0)
(0.152347 -0.275858 0)
(-0.289854 -0.0363103 0)
(0.251734 0.0299462 0)
(0.123525 0.0093838 0)
(0.110172 -0.0521824 0)
(0.0679171 -0.0040596 0)
(0.0855872 0.00667958 0)
(0.0879134 0.0059358 0)
(0.0864711 0.0043714 0)
(0.0843619 0.00226458 0)
(0.0831374 0.00013259 0)
(0.0828103 -0.000368876 0)
(0.083079 -0.000342777 0)
(0.083407 -0.000572324 0)
(0.0834351 -0.00105053 0)
(0.0832337 -0.000971473 0)
(0.0833895 0.000367428 0)
(0.0838876 0.000297908 0)
(0.0841764 -0.000163831 0)
(0.0842019 -0.000477363 0)
(0.0840601 -0.00109239 0)
(0.0831178 -0.00218371 0)
(0.0821171 -0.00207771 0)
(0.0814869 0.000466929 0)
(0.0868317 0.0019552 0)
(0.0943942 -0.0103977 0)
(0.0787153 -0.00718828 0)
(0.0834104 0.0300018 0)
(0.0805618 0.0743083 0)
(0.169407 0.182538 0)
(0.225787 -0.0901533 0)
(0.165971 -1.46907 0)
(0.44472 0.659247 0)
(0.489173 0.316435 0)
(-0.364301 -0.477667 0)
(-0.324889 -0.278599 0)
(-0.160242 0.0181264 0)
(-0.0436686 0.127363 0)
(0.0380271 0.134239 0)
(0.0766404 0.172255 0)
(0.0706056 0.154076 0)
(0.178118 -0.0548998 0)
(0.0735514 -0.0193194 0)
(0.0555037 -0.0764497 0)
(0.194742 0.108115 0)
(0.241407 -0.147102 0)
(0.171682 -0.0705115 0)
(0.138207 -0.0273556 0)
(0.106457 0.0390008 0)
(0.0965239 -0.0260973 0)
(0.0530033 -0.00378855 0)
(0.0679564 0.00304411 0)
(0.0740575 0.00411741 0)
(0.0761607 0.00390806 0)
(0.0771571 0.00234554 0)
(0.0772759 0.000460402 0)
(0.0769966 -0.000264347 0)
(0.0769453 -0.000378345 0)
(0.0769182 -0.000559373 0)
(0.0765572 -0.000864013 0)
(0.0759366 -0.000679942 0)
(0.0758963 0.000248449 0)
(0.0763258 0.000214582 0)
(0.0764453 -0.000143255 0)
(0.0763008 -0.000384682 0)
(0.0759686 -0.000817828 0)
(0.0748693 -0.00156069 0)
(0.073294 -0.00164725 0)
(0.0722585 -0.000180049 0)
(0.0754577 -0.000494926 0)
(0.076028 -0.00770512 0)
(0.062012 -0.00312276 0)
(0.0728417 0.0233281 0)
(0.0859715 0.0530289 0)
(0.193089 0.120493 0)
(0.34447 -0.0593933 0)
(0.191255 -0.988005 0)
(-1.41322 -0.326365 0)
(0.418729 0.549451 0)
(0.102987 -0.31041 0)
(-0.299819 -0.316906 0)
(-0.230408 -0.0720879 0)
(-0.11754 0.0750109 0)
(-0.0254237 0.099946 0)
(0.0742464 0.145796 0)
(0.154293 0.127073 0)
(0.240543 -0.0260017 0)
(0.0861725 -0.0287364 0)
(0.118194 -0.0852751 0)
(0.207966 0.0228695 0)
(0.306916 -0.13667 0)
(0.562893 -0.0971324 0)
(0.107308 0.0783962 0)
(0.0840233 0.0420545 0)
(0.0850933 -0.0122644 0)
(0.0476677 -0.00218149 0)
(0.0550887 0.000920592 0)
(0.0585551 0.00248706 0)
(0.0611179 0.00265251 0)
(0.0633273 0.00171964 0)
(0.0642463 0.000417223 0)
(0.0641897 -0.000192249 0)
(0.0639721 -0.000309729 0)
(0.0637046 -0.000415816 0)
(0.0631433 -0.000587726 0)
(0.0624195 -0.0004503 0)
(0.0623139 0.000120918 0)
(0.0626498 0.000112574 0)
(0.0626936 -9.9199e-05 0)
(0.0624729 -0.000245633 0)
(0.0620413 -0.000494705 0)
(0.0609899 -0.000905884 0)
(0.0594906 -0.000997483 0)
(0.0582694 -0.00033893 0)
(0.0596451 -0.000675148 0)
(0.0574952 -0.00479339 0)
(0.0455759 -0.00157707 0)
(0.0585329 0.0147964 0)
(0.0726857 0.0309382 0)
(0.150323 0.0571322 0)
(0.219936 -0.0732848 0)
(-0.0262065 -0.568475 0)
(-1.06752 -0.19491 0)
(0.184032 0.674288 0)
(0.277178 -0.173818 0)
(-0.202973 -0.225137 0)
(-0.248149 -0.0830362 0)
(-0.15769 0.0246118 0)
(-0.0722926 0.0513132 0)
(0.0524941 0.0847263 0)
(0.207241 0.0767997 0)
(0.282211 0.0175375 0)
(0.169407 -0.0275666 0)
(0.12173 -0.130124 0)
(0.123959 -0.0330894 0)
(0.0820244 -0.13058 0)
(-0.135731 -0.0838847 0)
(0.01045 0.160569 0)
(0.0298357 0.0344357 0)
(0.0602548 -0.00143853 0)
(0.0319064 -3.41348e-05 0)
(0.035628 0.00090149 0)
(0.0379755 0.00139494 0)
(0.0407678 0.00134525 0)
(0.0432165 0.000851064 0)
(0.0443654 0.00017492 0)
(0.0444128 -0.000132838 0)
(0.0441446 -0.000178967 0)
(0.0437979 -0.000215149 0)
(0.043231 -0.000291039 0)
(0.0425859 -0.000227509 0)
(0.0424669 4.3957e-05 0)
(0.0426981 4.39812e-05 0)
(0.0427088 -3.98447e-05 0)
(0.0425173 -9.65102e-05 0)
(0.0421612 -0.000194289 0)
(0.0413745 -0.00036293 0)
(0.0402411 -0.000431743 0)
(0.0391871 -0.000120952 0)
(0.0396999 -0.000408736 0)
(0.0373271 -0.00221007 0)
(0.0276844 -0.00071696 0)
(0.0397107 0.00690394 0)
(0.0514711 0.0139052 0)
(0.114476 0.0249561 0)
(0.160973 -0.00329981 0)
(0.0354137 -0.243224 0)
(-0.798499 -0.132829 0)
(0.095175 0.31223 0)
(0.80764 -0.00870172 0)
(0.180404 -0.0727089 0)
(-0.133527 -0.0353416 0)
(-0.115694 -0.00229185 0)
(-0.0777256 0.00675355 0)
(0.0038611 0.0135327 0)
(0.126759 0.0135477 0)
(0.203663 0.0227068 0)
(0.220926 0.0199205 0)
(0.155352 0.0945105 0)
(0.0676544 -0.00485547 0)
(-0.0722116 -0.0226028 0)
(-0.326197 -0.00308715 0)
(-0.0527488 0.059614 0)
(-0.0177062 0.0130802 0)
(0.0214904 0.00287186 0)
(0.00595883 0.00121207 0)
(0.0119491 0.000470793 0)
(0.0137563 0.000308613 0)
(0.015651 0.000242235 0)
(0.0171127 0.000128492 0)
(0.0177041 -1.26825e-07 0)
(0.0176287 -3.87436e-05 0)
(0.0173921 -3.3367e-05 0)
(0.0171505 -3.26358e-05 0)
(0.0168177 -4.77634e-05 0)
(0.0164452 -4.50387e-05 0)
(0.0163419 8.4395e-06 0)
(0.0164338 5.7485e-06 0)
(0.0164406 -3.0771e-06 0)
(0.0163696 -6.84692e-06 0)
(0.0162293 -1.52289e-05 0)
(0.0159008 -3.84146e-05 0)
(0.0153882 -6.10505e-05 0)
(0.0149802 2.41635e-05 0)
(0.0150827 -7.15116e-05 0)
(0.0138005 -0.000309362 0)
(0.00837893 -0.000365869 0)
(0.0146687 0.00110004 0)
(0.0201769 0.00141663 0)
(0.0533727 0.00378561 0)
(0.0820261 0.00408553 0)
(0.05143 -0.0418369 0)
(-0.412518 0.00727895 0)
)
;

boundaryField
{
    AirInlet
    {
        type            fixedValue;
        value           uniform (0.1 0 0);
    }
    WaterInlet
    {
        type            fixedValue;
        value           uniform (0.1 0 0);
    }
    ChannelWall
    {
        type            fixedValue;
        value           uniform (0 0 0);
    }
    Outlet
    {
        type            pressureInletOutletVelocity;
        value           nonuniform List<vector> 
15
(
(0.247677 0.0401219 0)
(0.480154 0.100809 0)
(0.912782 -0.0154488 0)
(-0.876943 0 0)
(0.228507 0.0435965 0)
(0.750276 0.226423 0)
(1.60176 0.0894601 0)
(4.37829 0.0253178 0)
(3.42403 -0.144211 0)
(2.81886 -0.106054 0)
(0.44472 0.659247 0)
(-0.763431 -0 0)
(-0.839298 -0 0)
(-0.69305 -0 0)
(-0.359045 0 0)
)
;
    }
    FrontAndBack
    {
        type            empty;
    }
}


// ************************************************************************* //
