/*--------------------------------*- C++ -*----------------------------------*\
| =========                 |                                                 |
| \\      /  F ield         | OpenFOAM: The Open Source CFD Toolbox           |
|  \\    /   O peration     | Version:  2.3.0                                 |
|   \\  /    A nd           | Web:      www.OpenFOAM.org                      |
|    \\/     M anipulation  |                                                 |
\*---------------------------------------------------------------------------*/
FoamFile
{
    version     2.0;
    format      ascii;
    class       volScalarField;
    location    "1.3";
    object      alpha.water;
}
// * * * * * * * * * * * * * * * * * * * * * * * * * * * * * * * * * * * * * //

dimensions      [0 0 0 0 0 0 0];

internalField   nonuniform List<scalar> 
2268
(
1
1
1
1
1
1
1
1
1
1
1
1
0.999984
0.999979
0.999974
0.993451
0.980882
0.980793
0.980214
0.985224
0.999713
0.999991
0.999991
1
1
1
1
1
1
1
1
1
1
1
1
0.993223
0.982591
0.997465
0.996365
0.99609
0.999469
0.996994
0.992537
0.995758
0.999981
0.999993
1
1
1
1
1
1
0.999943
0.999976
1
1
1
1
0.982898
0.959231
0.958249
0.964583
0.990397
0.999923
0.999939
0.999969
0.999451
0.999876
0.999996
1
1
1
1
1
0.999988
0.999627
0.999661
0.999932
0.999999
1
1
0.984356
0.958249
0.958203
0.958167
0.974124
0.999696
0.999994
0.999997
0.999999
0.999981
0.999997
0.999994
0.999988
0.999998
1
1
0.999862
0.999615
0.999615
0.999672
0.999917
1
1
1
0.969827
0.958169
0.958214
0.979526
0.999879
0.999997
0.999999
0.999999
0.999999
0.999999
0.999852
0.999755
0.999957
0.999995
1
0.999964
0.999843
0.999664
0.999667
0.999837
0.999999
1
0.999999
0.997532
0.972721
0.975033
0.994246
0.999986
0.999998
0.999999
0.999999
0.999999
0.999999
0.910267
0.917207
0.980114
0.999579
0.999998
0.999997
0.999997
0.999997
0.99988
0.999948
0.999994
0.999999
0.999999
0.999999
0.999556
0.999798
0.999977
0.999959
0.999103
0.996856
0.984244
0.999999
0.999999
0.600045
0.601582
0.724993
0.969219
0.999917
0.999992
0.999997
0.999996
0.999964
0.999888
0.99979
0.99999
0.999999
0.999996
0.999994
0.999995
0.999995
0.992078
0.954338
0.941493
0.940596
0.953428
0.991727
0.993868
0.993905
0.993885
0.83366
0.812121
0.828181
0.85357
0.89397
0.980772
0.984243
0.9842
0.917881
0.863372
0.863251
0.863251
0.88006
0.898746
0.895805
0.824615
0.993927
0.993927
0.958103
0.818341
0.837895
0.980242
0.984303
0.984308
0.98431
0.984308
0.98425
0.984199
0.896586
0.863372
0.863948
0.962441
0.947819
0.806563
0.711386
0.993927
0.967633
0.818814
0.819179
0.928377
0.984207
0.98427
0.984303
0.984308
0.984261
0.984196
0.983965
0.981212
0.871712
0.865931
0.971592
0.967213
0.657711
0.238337
0.993927
0.945907
0.858593
0.927452
0.984089
0.984162
0.984197
0.984282
0.982747
0.981345
0.983957
0.983813
0.983241
0.94581
0.944501
0.982707
0.950608
0.381827
0.177315
0.993927
0.983645
0.987166
0.992761
0.960092
0.983061
0.98182
0.804223
0.565129
0.57617
0.973366
0.981481
0.982724
0.98379
0.983766
0.984069
0.855817
0.184728
0.175092
0.993926
0.993921
0.993817
0.993313
0.936523
0.982239
0.894694
0.311153
0.0787046
0.0770061
0.526935
0.93806
0.98376
0.983723
0.983856
0.983966
0.635256
0.26868
0.175092
0.993921
0.993841
0.969883
0.914675
0.937682
0.98122
0.860994
0.237415
0.0769903
0.0770087
0.0829838
0.926415
0.983682
0.983794
0.983844
0.983855
0.643455
0.463791
0.277282
0.99386
0.935125
0.639194
0.423024
0.546996
0.789862
0.811888
0.46568
0.0796126
0.0755331
0.0763316
0.938743
0.983702
0.983764
0.983818
0.983849
0.781962
0.182337
0.17427
0.59773
0.595415
0.596266
0.65869
0.95981
0.999872
0.999989
0.999964
0.999096
0.995012
0.997101
0.999915
0.999996
0.999994
0.999995
0.999995
0.999995
0.999995
0.987042
0.965262
0.944186
0.933695
0.956118
0.820568
0.91226
0.770396
0.582494
0.581709
0.807568
0.968921
0.818272
0.662414
0.827712
0.996356
0.99972
0.999971
0.999994
0.999995
0.999995
0.999995
0.835599
0.591152
0.489831
0.559466
0.792424
0.967807
0.981177
0.981512
0.981303
0.981482
0.804162
0.385218
0.241824
0.229196
0.233027
0.646526
0.982602
0.892903
0.922776
0.999969
0.999994
0.919443
0.547328
0.161631
0.034989
0.0114504
0.014349
0.0375673
0.145607
0.979818
0.981178
0.98159
0.981222
0.846729
0.260057
0.229196
0.229196
0.25697
0.74351
0.598051
0.449693
0.587007
0.677368
0.536887
0.184601
0.0165587
0.0097601
0.00818316
0.00608587
0.005654
0.003712
0.00372658
0.734021
0.944119
0.980633
0.979969
0.967546
0.659262
0.297661
0.518558
0.817728
0.770979
0.181289
0.0778915
0.0875882
0.03711
0.0165029
0.00334424
0.00142805
0.00972489
0.0215561
0.0215708
0.0215831
0.0138824
0.00388033
0.195543
0.426349
0.903201
0.89584
0.888664
0.918922
0.919292
0.919288
0.827523
0.293219
0.00813713
0.0149802
0.00133257
0.00049716
0.000750735
0.000702248
0.000425948
0.000968983
0.0085035
0.0162367
0.0215729
0.0227629
0.0234754
0.0287613
0.057656
0.277632
0.382169
0.485998
0.838147
0.875726
0.503745
0.205461
0.00988426
0.0056236
0.00495594
0.000360988
0.000270095
0.000272316
0.000248963
0.000191142
0.000155849
8.21431e-05
2.40968e-05
1.4826e-05
0.0108135
0.0192715
0.00937431
0.00937431
0.0109262
0.114785
0.271103
0.346931
0.416975
0.299705
0.0775125
0.00363346
0.00101058
0.000351622
0.000271565
0.000270628
0.000246881
0.000199894
0.000157015
0.000103999
5.94423e-05
3.40905e-05
4.42232e-06
2.00797e-06
1.46007e-06
0.00937431
0.0252335
0.0145873
0.00692887
0.144187
0.354675
0.422866
0.422866
0.388162
0.0721845
0.0027873
0.000862155
0.000362029
0.000272519
0.000332823
0.000432718
0.000117184
7.0711e-05
2.09876e-05
8.18557e-06
2.77427e-06
1.40123e-06
9.39414e-07
0.00998718
0.0440502
0.0413484
0.00457306
0.00116507
0.0268858
0.278224
0.422866
0.395575
0.0796853
0.00329987
0.00161003
0.00103542
0.00245146
0.0121947
0.0211393
0.0128405
0.000799631
4.81974e-05
1.89943e-05
6.87808e-06
2.80725e-06
1.46025e-06
0.0110361
0.0442153
0.0441856
0.00952159
0.00043098
0.000244265
0.000112221
0.257597
0.171302
0.0131782
0.00544344
0.00454455
0.0208459
0.0229481
0.0229481
0.0229481
0.022823
0.0215055
0.00336191
0.000152894
4.02995e-05
9.56016e-06
3.98301e-06
0.0116412
0.0441414
0.0442125
0.00970097
0.000225451
0.000112345
7.99874e-05
7.64796e-05
0.0704467
0.0243905
0.0072619
0.0184862
0.0224787
0.0228238
0.0208088
0.0117831
0.00585418
0.0057194
0.00319725
0.000350492
3.47448e-05
1.43479e-05
1.11541e-05
0.00924337
0.0350704
0.0441845
0.00775045
0.000127535
9.10488e-05
4.95665e-05
1.33309e-05
0.0570316
0.0669533
0.0254981
0.0107528
0.0102705
0.00155227
3.915e-05
2.41724e-05
2.2247e-05
0.000661171
0.00141941
0.000444424
2.57335e-05
1.52544e-05
1.46993e-05
0.0170707
0.00168542
0.0140068
0.00236487
0.00010237
0.000140869
5.98177e-05
8.33551e-06
0.0237621
0.0669533
0.0499221
0.0036052
0.000126765
3.895e-05
2.41757e-05
2.21291e-05
2.23804e-05
9.25799e-05
0.000214079
0.000184312
1.90225e-05
1.5021e-05
1.5021e-05
0.1158
0.00123059
3.60982e-06
1.49581e-06
0.000101681
0.00018729
0.000153501
5.38158e-06
2.17906e-06
0.0124614
0.0129009
0.00189944
5.38391e-05
4.16807e-05
3.67511e-05
3.11629e-05
2.32183e-05
2.39702e-05
5.75838e-05
1.99893e-05
1.62377e-05
1.56219e-05
1.57201e-05
0.145074
0.000556355
1.49551e-06
2.8807e-09
2.22148e-05
0.000161138
6.59197e-05
2.18535e-06
1.33921e-06
2.17896e-06
8.94232e-06
5.62833e-05
7.13414e-05
8.22715e-05
8.22715e-05
8.24615e-05
6.1598e-05
3.52863e-05
6.06502e-05
5.77739e-05
2.8074e-05
1.62377e-05
5.64802e-05
0.145072
0.000384058
1.46145e-09
2.09339e-09
1.82846e-09
2.64629e-09
1.63408e-08
2.95344e-06
3.08598e-07
2.66684e-06
5.06935e-05
7.69786e-05
7.70235e-05
7.38079e-05
7.32535e-05
8.3009e-05
8.44355e-05
8.43382e-05
8.41875e-05
8.36256e-05
8.24771e-05
7.17591e-05
6.83316e-05
0.144895
0.00102422
-1.04818e-09
1.86322e-09
1.56678e-09
4.83401e-10
1.14607e-09
8.57834e-08
-6.32854e-11
-1.83382e-09
1.14046e-05
5.31163e-05
5.01443e-05
1.06271e-06
2.15755e-06
4.8083e-05
8.43449e-05
8.44355e-05
8.43173e-05
8.41875e-05
8.37754e-05
4.46585e-05
1.8351e-05
0.144718
0.00543298
0.000285316
1.60536e-09
1.50942e-09
5.67796e-10
2.31242e-10
1.8987e-10
8.3547e-11
1.48965e-11
1.94177e-10
5.69348e-10
2.14141e-09
8.72842e-09
3.1223e-08
9.72714e-06
4.17424e-05
5.43505e-05
3.54151e-05
2.52118e-05
1.16929e-05
1.76591e-06
1.96671e-07
0.14472
0.00842425
0.00629027
1.82403e-09
1.94728e-09
1.02446e-09
2.21136e-10
2.05304e-10
1.59189e-10
1.22452e-10
1.1331e-10
1.11321e-10
2.05975e-11
-3.26037e-10
-7.09236e-09
1.14802e-07
5.69854e-07
6.10131e-07
6.96243e-08
9.11531e-08
7.93033e-08
3.9025e-08
1.34534e-08
0.144432
0.00904511
0.00903467
1.86236e-09
1.8032e-09
1.10901e-09
4.49405e-10
3.14154e-10
1.61308e-10
1.22406e-10
1.16044e-10
1.05532e-10
5.81129e-11
5.1826e-13
1.92043e-11
-1.01827e-11
2.12486e-09
5.97034e-09
1.9485e-09
3.80542e-09
3.10304e-09
2.42318e-09
1.02702e-09
0.142999
0.00858765
0.0087055
1.97938e-09
1.92371e-09
1.24789e-09
4.28074e-10
2.21034e-10
1.55875e-10
1.44877e-10
1.04987e-10
7.25478e-11
4.08506e-11
3.15025e-11
2.23326e-11
9.79612e-12
8.64289e-11
2.9445e-10
2.6902e-11
3.90356e-11
1.10814e-10
9.39287e-11
5.18747e-11
0.0680013
0.00857705
0.00751539
2.09815e-09
2.14447e-09
1.47514e-09
7.9342e-10
9.83969e-10
1.57866e-10
1.52619e-10
1.49245e-10
8.92656e-11
1.52187e-11
7.50861e-12
8.66217e-12
7.42019e-12
6.423e-12
6.16448e-12
1.26076e-11
5.08031e-12
6.14733e-12
6.37294e-12
9.07857e-12
0.00311328
0.0179842
0.00740023
1.99623e-09
2.18672e-09
1.57207e-09
8.84625e-10
2.43211e-08
2.69894e-07
3.17231e-07
1.1533e-07
2.4741e-08
3.77413e-10
2.36698e-10
2.8677e-11
5.00535e-12
5.22684e-12
4.6864e-12
3.99342e-12
4.00174e-12
4.56187e-12
4.72556e-12
6.23871e-12
0.00296528
0.021118
0.00660543
1.7816e-09
1.9026e-09
2.13436e-09
2.80782e-09
1.03939e-08
2.04514e-07
1.02536e-06
1.18134e-06
8.45912e-07
5.09809e-08
4.46123e-08
3.8831e-10
2.2132e-11
6.14883e-12
4.15895e-12
3.55672e-12
2.61111e-12
2.2908e-12
2.44449e-12
3.08424e-12
0.00293334
0.0211486
0.00434352
-1.01718e-06
-3.53972e-07
3.42894e-09
4.42506e-09
8.6803e-09
2.93914e-08
6.32741e-07
1.18248e-06
1.18109e-06
1.17787e-06
7.61366e-07
5.42485e-09
2.72192e-10
1.12755e-11
3.17777e-12
3.58677e-12
2.58922e-12
1.61218e-12
1.20187e-12
1.363e-12
0.0024074
0.0210908
0.0139537
0.000126286
-1.3005e-07
4.32915e-09
4.35249e-09
8.49483e-09
2.48399e-08
1.30139e-07
8.36692e-07
1.17537e-06
1.17168e-06
1.14392e-06
9.97618e-07
2.56154e-09
2.64809e-11
7.28237e-12
3.50327e-12
3.51731e-12
1.82507e-12
7.90057e-13
5.9706e-13
0.00127009
0.0176697
0.0181684
0.00155502
1.04393e-06
-2.82395e-08
-6.92559e-09
8.56963e-06
7.44367e-05
2.72006e-07
6.39011e-07
5.57036e-07
5.08403e-07
1.11579e-06
1.3444e-06
8.40517e-07
1.25472e-09
-2.20293e-11
9.36856e-12
2.80235e-12
2.66848e-12
9.73137e-13
2.95204e-13
0.000550579
0.00105013
0.00836614
0.00259669
5.08868e-06
1.39053e-06
7.3293e-06
0.000153299
0.000222086
0.000168265
2.69394e-05
4.28763e-07
3.84943e-07
3.27995e-07
1.45354e-06
1.44846e-06
9.69022e-09
6.26822e-10
-3.45337e-11
-4.93403e-13
2.56403e-12
1.79733e-12
2.79043e-13
0.000237166
0.00020088
0.00020088
0.00242887
0.000114686
5.15777e-06
2.43617e-05
0.000220836
0.000224804
0.000224347
0.000222258
5.42966e-05
3.22763e-07
3.09657e-07
2.83708e-07
1.98823e-06
2.34609e-06
3.62807e-09
3.98647e-10
1.61096e-11
1.64421e-12
2.76989e-12
5.60224e-13
0.000270228
0.00020088
0.000199916
0.00172608
0.00024534
1.18142e-05
2.75254e-05
0.00022218
0.000223585
0.000224213
0.000225067
0.000185606
3.29824e-07
2.8265e-07
2.61731e-07
1.22665e-06
5.54122e-06
2.00698e-07
5.79723e-09
5.02367e-11
4.10005e-12
2.43981e-12
1.38994e-12
0.000379909
0.000777024
0.000188243
0.000725552
0.00027561
2.17782e-05
2.78246e-05
0.000217935
0.00022436
0.000224305
0.000224376
0.000181725
8.0711e-06
3.42578e-07
2.54679e-07
2.54849e-07
5.55332e-06
5.1497e-06
3.62667e-08
1.48507e-09
2.47623e-11
3.79486e-12
3.01434e-12
0.00202137
0.00269703
0.00010155
6.42518e-05
0.000263998
3.68026e-05
2.82773e-05
8.60677e-05
0.000223141
0.000223983
0.000227005
0.000150921
5.25345e-06
3.25821e-07
2.61953e-07
2.54735e-07
2.01116e-06
8.96987e-06
2.91206e-07
1.30372e-07
1.38787e-08
3.14209e-11
3.63382e-12
0.00269703
0.00273196
0.000539648
6.49302e-05
0.000248756
9.4033e-05
2.93716e-05
3.34717e-05
0.000134782
0.000225722
0.000227127
6.13153e-05
1.22056e-06
3.97972e-07
3.35683e-07
2.75096e-07
4.62332e-07
7.19786e-06
8.68543e-06
6.92369e-06
8.35424e-08
3.36683e-11
7.40625e-12
0.000527922
0.00273196
0.00240423
6.26554e-05
8.57451e-05
0.000127053
6.67479e-05
2.87017e-05
1.81691e-05
7.12342e-05
5.47325e-05
1.63352e-05
5.23166e-07
2.61374e-07
4.15959e-07
4.13699e-07
1.82049e-06
8.05159e-06
7.70125e-05
1.41525e-05
1.20208e-08
2.30521e-10
9.6848e-12
0.000172336
0.00273196
0.00272644
8.45523e-05
2.79061e-05
7.42697e-05
7.35706e-05
4.18928e-05
6.83179e-06
3.83329e-06
1.91754e-06
1.48873e-06
1.86696e-07
2.35783e-07
2.55518e-07
8.0315e-07
0.000155265
0.000349185
0.000183169
1.32686e-06
2.04178e-08
5.28996e-10
1.93415e-11
1.53932e-06
0.00121035
0.00272092
0.00239679
1.29189e-05
6.55226e-06
2.18601e-05
1.97346e-05
5.40357e-06
1.39191e-06
5.34967e-07
1.75129e-07
9.77722e-08
1.79848e-07
2.34325e-07
0.000208505
0.0016723
0.00145275
0.0001171
5.8503e-07
2.34947e-08
3.61673e-10
3.19999e-11
9.67426e-09
1.10651e-06
0.00248988
0.00320281
0.00154806
6.55175e-06
5.22076e-06
3.0053e-06
1.76769e-06
5.2822e-07
1.6277e-07
9.77749e-08
8.29133e-08
9.75912e-08
0.000197072
0.00170447
0.00170447
0.00142226
8.03116e-05
2.72966e-07
6.901e-09
2.02023e-10
8.74418e-12
1.42488e-10
1.54733e-09
4.45579e-07
0.00278429
0.00404357
0.0027913
5.20007e-05
2.23762e-06
7.57449e-07
1.99708e-07
1.10816e-07
8.31169e-08
8.48026e-08
0.000321986
0.00167934
0.0016919
0.0017007
0.000264814
1.01131e-07
1.71347e-09
1.48203e-11
2.32374e-12
1.32483e-12
1.31728e-10
1.07548e-12
-1.74411e-09
-4.56034e-10
0.00213833
0.00269806
0.00266437
0.00203226
6.88074e-05
6.64304e-07
2.5781e-07
1.12128e-07
8.27758e-08
0.00134311
0.00162451
0.00139804
4.06706e-05
1.46225e-08
9.709e-10
5.77071e-12
1.51762e-12
1.13465e-12
4.61572e-13
1.19366e-10
3.07036e-12
2.47174e-13
1.72306e-13
1.15595e-13
2.94421e-14
6.23123e-14
0.00175578
0.000922845
2.34233e-05
3.77045e-06
6.79459e-05
0.00104126
0.00136368
0.000323014
-5.88992e-10
1.53387e-09
1.12716e-10
7.13673e-12
2.42264e-12
3.27459e-12
2.74265e-13
1.3654e-14
1.58012e-15
3.63413e-11
5.98988e-12
9.97506e-13
2.09661e-13
9.99494e-20
4.00421e-23
4.54764e-05
0.000994823
0.000128764
2.01373e-05
0.000222517
0.000158077
5.03914e-22
8.94666e-20
3.75059e-15
1.45197e-12
1.12905e-11
2.32339e-12
1.40383e-12
2.79156e-14
4.10975e-16
4.78448e-18
0.992601
0.992601
0.992601
0.992252
0.971274
0.946944
0.877168
0.85802
0.249411
0.209036
0.120724
0.106162
0.00371237
0.00381526
0.00425088
0.00513416
0.00392774
0.010001
0.019745
0.0231505
0.0242169
0.0242478
0.0242169
0.023841
0.0235817
0.0240257
0.0134028
0.00695001
0.00326967
0.00164354
4.98357e-07
2.87146e-07
6.58069e-07
4.99531e-07
3.23329e-07
7.57657e-08
9.41527e-07
6.58069e-07
4.17842e-06
1.3161e-05
4.44797e-06
2.0946e-05
2.49311e-05
2.50285e-05
1.97425e-05
2.49311e-05
2.50547e-05
2.50078e-05
1.53573e-05
2.41564e-05
2.49311e-05
2.50078e-05
1.47516e-05
1.73282e-05
1.18264e-05
3.78214e-06
4.22341e-05
2.02254e-05
8.56563e-07
7.72669e-08
5.56748e-05
1.77575e-05
1.27091e-07
1.23656e-08
2.49371e-05
3.96377e-06
1.88952e-08
1.59703e-09
4.04635e-07
1.7063e-08
2.38805e-09
2.04221e-10
2.76477e-08
1.84442e-09
1.9802e-11
4.57769e-11
2.8348e-11
1.33313e-10
2.69052e-11
2.8337e-11
1.01026e-10
3.29279e-11
2.38321e-11
2.38327e-11
1.67475e-11
1.77317e-11
1.99151e-11
2.19969e-11
1.16865e-11
1.35124e-11
1.54798e-11
1.68875e-11
8.55828e-12
9.79431e-12
1.11483e-11
1.27243e-11
4.27205e-12
5.16332e-12
6.22845e-12
7.45235e-12
1.91512e-12
2.38979e-12
2.98574e-12
3.70527e-12
8.32491e-13
1.1145e-12
1.51025e-12
2.03829e-12
3.10512e-13
4.35804e-13
6.35891e-13
9.31948e-13
1.10646e-13
1.49007e-13
2.29734e-13
3.60153e-13
6.44181e-14
4.9982e-14
7.77887e-14
1.28833e-13
1.31589e-13
2.44207e-14
2.62948e-14
4.62384e-14
4.45953e-13
4.40847e-14
1.05271e-14
1.70103e-14
1.47833e-12
1.5648e-13
1.28919e-14
6.4763e-15
4.43377e-12
5.69643e-13
4.58145e-14
4.12818e-15
4.45789e-12
1.99574e-12
1.79275e-13
9.88642e-15
6.40214e-12
4.84544e-12
4.88486e-13
3.43819e-14
6.63627e-12
5.81004e-12
5.96608e-13
4.64478e-14
3.97207e-12
2.4424e-12
2.71107e-13
2.21478e-14
2.23056e-12
3.28371e-13
3.3781e-14
2.58466e-15
7.78721e-14
8.59217e-15
7.06929e-16
6.65195e-17
9.56423e-16
5.73552e-17
6.8373e-18
8.35398e-18
3.74959e-19
4.43965e-19
8.22285e-19
1.52383e-18
0.993338
0.813061
0.479283
0.192821
0.106669
0.368792
0.444958
0.453288
0.160171
0.0736086
0.0757452
0.730046
0.949411
0.954982
0.983795
0.983877
0.44409
0.0868251
0.0886851
0.741242
0.455747
0.284819
0.0421037
0.00445334
0.00556104
0.00624168
0.0940469
0.116223
0.0729696
0.0733067
0.237021
0.695274
0.254499
0.488696
0.544926
0.0868251
0.0868251
0.127655
0.0187701
0.00474123
0.00509952
0.00434019
0.00392412
0.00646902
0.00652542
0.0076383
0.114125
0.120014
0.0729786
0.0733565
0.489624
0.0376192
0.033688
0.050307
0.0904416
0.178821
0.178824
0.00473914
0.00434498
0.0110623
0.00367077
0.0037375
0.0247387
0.0236926
0.0103921
0.0655017
0.144916
0.0862031
0.0730423
0.285347
0.204239
0.0264675
0.0177457
0.0353929
0.0450873
0.175506
0.0112462
0.00429055
0.00345986
0.00345357
0.00366754
0.0248344
0.0246966
0.0103372
0.0230362
0.144916
0.144111
0.136391
0.15641
0.206065
0.0401811
0.0139979
0.0121504
0.0119153
0.01604
0.0231322
0.0216829
0.00347505
0.0035739
0.0160388
0.0245882
0.0160399
0.0103602
0.0759204
0.142721
0.108965
0.0819501
0.0242777
0.144755
0.0680593
0.0122645
0.0119134
0.0118976
0.0118909
0.0136772
0.0235886
0.0235825
0.0231319
0.0238185
0.0236642
0.00333054
0.0267256
0.044995
0.0245455
0.00416877
0.00512055
0.00815509
0.0163236
0.0678615
0.0258676
0.0118533
0.0118724
0.0528728
7.57652e-08
0.00274703
0.0121592
0.0128716
0.0115911
0.00141551
0.00312441
0.00580347
0.000197188
0.000359838
0.0029984
0.0052382
0.0083153
0.015187
0.0668169
0.0516725
0.0116433
0.0118854
0.127225
1.79218e-08
1.11761e-08
1.12219e-08
9.42588e-09
9.84621e-08
6.18064e-06
0.000463268
8.96206e-07
6.19344e-06
0.00804004
0.0198159
0.00989651
0.0086326
0.0172544
0.062835
0.0200041
0.0115337
0.0121886
0.127815
3.65081e-06
1.76246e-08
9.40656e-09
7.10628e-09
9.88856e-08
5.05893e-07
4.71502e-08
4.87756e-08
1.57799e-07
0.00993518
0.0238934
0.025555
0.010042
0.0105467
0.0132353
0.0116389
0.0116302
0.0257639
0.127815
1.20595e-05
3.35157e-08
7.1063e-09
6.5375e-09
9.53921e-09
2.47592e-08
2.4002e-08
2.78749e-08
1.43958e-08
1.57712e-07
0.0106562
0.0336382
0.0336498
0.0328883
0.0117524
0.0116372
0.0116388
0.0465103
0.127815
1.45848e-05
2.85124e-08
5.92828e-09
6.53747e-09
6.24572e-09
5.25764e-09
4.59072e-09
1.77153e-07
1.09947e-07
2.50678e-06
4.88576e-06
0.00162035
0.0223666
0.0317982
0.0303699
0.016771
0.0116372
0.0205627
0.0883164
4.54616e-06
1.22489e-08
4.19855e-09
6.60859e-09
8.1682e-09
4.99888e-09
4.59018e-09
6.35717e-06
3.77584e-05
2.01823e-05
7.7337e-06
5.64281e-05
0.000510853
0.00835184
0.0172727
0.0140094
0.0128901
0.0558332
0.0128428
1.67771e-07
3.4798e-09
2.15532e-09
9.39448e-09
9.71187e-09
6.19444e-09
4.568e-09
6.26617e-06
0.000187158
0.000531814
0.00114945
0.00200681
0.00105868
0.00113759
0.00689641
0.0394245
0.0551187
0.0558332
0.0117953
6.75809e-09
1.16307e-09
1.72159e-09
7.5247e-09
3.65321e-09
4.37397e-09
9.50276e-08
2.80701e-06
3.97173e-05
0.000330855
0.0184718
0.0442761
0.0442761
0.0443952
0.0444139
0.0442317
0.0390542
0.00345136
1.89992e-05
8.86991e-10
1.94334e-10
8.93722e-10
2.36132e-09
3.02648e-10
1.2695e-09
6.1781e-08
2.3303e-06
4.38008e-05
0.00244092
0.0233244
0.0325211
0.0349332
0.0337024
0.0205686
0.0100982
3.45953e-06
8.13076e-06
9.03707e-06
1.3514e-10
4.67081e-11
1.92694e-10
2.01461e-10
7.48868e-11
4.27055e-09
4.07106e-07
9.98274e-06
0.000340994
0.00153682
4.07544e-06
2.61249e-07
2.60571e-07
2.60847e-07
1.41059e-07
2.67499e-07
7.99913e-07
3.34378e-05
8.52437e-05
4.01114e-11
3.20812e-11
5.07411e-11
5.97727e-11
5.59898e-11
3.57263e-10
7.20906e-09
1.04964e-06
6.34118e-05
0.000160753
0.000229306
0.000112185
2.61263e-07
2.28305e-07
1.4379e-08
1.27696e-05
3.63853e-05
4.03657e-05
8.52437e-05
3.02117e-11
3.0515e-11
3.17884e-11
3.34094e-11
3.51491e-11
3.67084e-11
1.34169e-06
3.16121e-06
3.57342e-06
7.03345e-06
1.02279e-05
7.60605e-07
1.94502e-06
7.21375e-07
6.11628e-09
1.5201e-05
4.17864e-05
3.054e-06
2.70014e-05
2.69829e-11
2.94823e-11
3.0561e-11
3.39226e-11
1.19101e-07
4.29171e-06
9.93082e-06
1.09992e-05
1.09992e-05
1.00714e-05
4.19411e-06
1.07505e-07
5.9608e-08
3.87119e-08
5.02108e-09
3.35101e-08
4.17864e-05
2.89762e-06
1.20744e-07
2.54315e-11
2.60563e-11
3.16415e-11
1.45944e-10
6.27015e-07
8.39868e-06
1.02635e-05
9.4767e-06
8.32772e-06
7.58987e-06
3.92475e-06
5.07015e-08
6.17307e-09
5.01444e-09
4.97815e-09
5.97174e-08
2.21484e-05
3.24888e-06
1.18766e-07
2.30174e-11
2.38585e-11
2.68143e-11
7.08959e-11
8.47416e-08
2.21105e-06
6.35624e-06
1.43413e-06
4.95423e-07
3.83361e-07
6.51131e-07
1.78806e-07
5.16153e-09
4.9647e-09
5.00191e-09
3.01858e-05
5.20065e-06
1.0113e-06
1.10409e-07
1.87966e-11
2.51697e-11
2.4805e-11
3.23466e-11
1.60946e-10
4.99346e-08
9.00607e-06
1.57794e-05
3.69422e-07
6.08792e-09
6.40312e-09
1.79795e-08
4.96508e-09
4.98873e-09
6.08265e-06
3.02168e-05
1.84454e-05
4.29264e-06
6.15821e-08
1.44902e-11
1.94998e-11
1.79093e-11
3.15369e-11
3.77026e-10
6.32029e-07
1.55726e-05
2.04651e-05
1.00388e-05
6.08756e-09
5.86396e-09
5.61021e-09
5.27142e-09
4.96616e-09
1.11963e-05
1.79914e-05
1.35849e-05
4.85103e-06
2.15713e-08
8.81497e-12
1.26116e-11
1.07543e-11
1.43974e-11
7.66857e-11
1.82274e-09
7.03486e-06
2.05815e-05
2.07094e-05
1.66797e-05
8.11615e-07
2.73441e-07
5.28735e-06
1.0604e-05
1.77456e-05
9.92274e-06
1.60614e-06
3.6696e-07
1.89643e-08
4.53949e-12
6.8793e-12
9.82557e-12
1.07845e-11
1.4387e-11
3.13028e-11
3.74452e-10
4.5453e-06
2.06991e-05
2.07094e-05
2.05217e-05
1.97754e-05
1.96678e-05
1.95436e-05
1.903e-05
9.27931e-06
3.76911e-07
1.38345e-08
1.8685e-08
2.71425e-12
4.83689e-12
8.07803e-12
1.21174e-11
1.56809e-11
1.70754e-11
2.27105e-11
4.53857e-11
1.32424e-07
5.92952e-06
1.97625e-05
2.03156e-05
1.49748e-05
5.36814e-06
4.24264e-11
3.9925e-11
1.16355e-09
1.23481e-08
2.17824e-08
1.3519e-12
2.80767e-12
5.58826e-12
1.03665e-11
1.72417e-11
2.42051e-11
2.63071e-11
2.76783e-11
3.44536e-11
3.23128e-11
1.61391e-07
2.59895e-07
3.21688e-11
3.81142e-11
4.02043e-11
3.92824e-11
3.11046e-08
1.59315e-07
4.08674e-08
5.59211e-13
1.29637e-12
2.92779e-12
6.35487e-12
1.29521e-11
2.39758e-11
3.85263e-11
5.09214e-11
3.93675e-11
3.18533e-11
3.18522e-11
3.18523e-11
3.19163e-11
9.90421e-11
4.56158e-11
3.75209e-11
1.59188e-07
1.71883e-07
4.34114e-08
2.09003e-13
5.07699e-13
1.19777e-12
2.75427e-12
6.06792e-12
1.24526e-11
2.28801e-11
3.46703e-11
4.84917e-11
3.57669e-11
3.29618e-11
3.74909e-11
5.66689e-11
4.88905e-11
3.55809e-11
3.56686e-11
1.54263e-07
1.46804e-07
1.56338e-08
7.82896e-14
1.91172e-13
4.39763e-13
9.83736e-13
2.10992e-12
4.20532e-12
7.63518e-12
1.23296e-11
1.52795e-11
2.70804e-11
2.87061e-11
3.7117e-11
6.51032e-11
6.44962e-11
3.55909e-11
2.21841e-09
3.43841e-08
8.58127e-13
5.56432e-10
3.12396e-14
7.66374e-14
1.68345e-13
3.60981e-13
7.54207e-13
1.45927e-12
2.54466e-12
4.14851e-12
6.53529e-12
9.51012e-12
1.60672e-11
2.47532e-11
3.62324e-11
5.48145e-11
3.56184e-11
7.95545e-10
4.15179e-13
8.2821e-13
8.73762e-13
1.32918e-14
3.29941e-14
6.7697e-14
1.36581e-13
2.81406e-13
5.49073e-13
9.57393e-13
1.60022e-12
2.78686e-12
4.81065e-12
6.62081e-12
1.05649e-11
1.79928e-11
2.12009e-11
1.9206e-11
3.96091e-13
4.12342e-13
4.03242e-12
1.18412e-11
6.00323e-15
1.51346e-14
2.81488e-14
5.09324e-14
1.00854e-13
1.98456e-13
3.42906e-13
5.7405e-13
1.01625e-12
1.77686e-12
2.29791e-12
3.30553e-12
5.94217e-12
9.00252e-12
4.43608e-12
2.52618e-13
4.38068e-13
5.24822e-12
1.79827e-11
2.94803e-15
7.27436e-15
1.20342e-14
1.86606e-14
3.4311e-14
6.81275e-14
1.13893e-13
1.849e-13
3.20991e-13
5.58169e-13
6.73621e-13
8.25406e-13
1.33025e-12
1.89554e-12
9.60313e-13
1.21668e-13
3.39815e-13
4.37817e-12
1.01968e-11
2.02493e-15
3.5185e-15
5.12817e-15
6.58254e-15
1.07681e-14
2.18297e-14
3.47e-14
5.30403e-14
8.68548e-14
1.46224e-13
1.59483e-13
1.55655e-13
2.11776e-13
2.39792e-13
1.39205e-13
2.66958e-14
2.02186e-13
2.83437e-12
2.80038e-12
1.85265e-15
1.63477e-15
2.07821e-15
2.16293e-15
2.96023e-15
6.13848e-15
8.9544e-15
1.22205e-14
1.75484e-14
2.66949e-14
2.52545e-14
1.72479e-14
1.72077e-14
1.37515e-14
7.22187e-15
4.63296e-15
9.77875e-14
1.51003e-12
4.83158e-13
9.51623e-16
7.05581e-16
7.58666e-16
6.36945e-16
6.8414e-16
1.4396e-15
1.81555e-15
2.00605e-15
2.21728e-15
2.51637e-15
1.85036e-15
4.64088e-16
-5.06788e-16
-7.94293e-16
-5.76124e-16
1.07002e-15
3.61029e-14
6.26328e-13
7.32202e-14
2.40272e-16
2.62762e-16
2.35562e-16
1.59048e-16
1.27937e-16
2.72375e-16
2.7399e-16
1.91284e-16
1.11593e-16
3.47808e-17
-7.85025e-18
-4.22292e-17
-7.10473e-17
-7.27189e-17
-4.19718e-17
2.64908e-16
9.63907e-15
1.97385e-13
1.58408e-14
6.89385e-17
7.84079e-17
5.73741e-17
3.09989e-17
1.81144e-17
3.97844e-17
2.89185e-17
3.33599e-18
-8.56322e-18
-8.21071e-18
-4.70213e-18
-2.25849e-18
-9.798e-19
-3.78728e-19
5.49019e-19
3.65081e-17
1.64534e-15
4.28585e-14
3.26068e-15
1.83153e-17
1.63029e-17
9.59797e-18
4.08437e-18
1.69153e-18
4.15392e-18
1.96665e-18
-6.54747e-19
-1.13712e-18
-6.54727e-19
-2.48819e-19
-7.90629e-20
-2.31069e-20
-6.23315e-21
1.99418e-20
1.81078e-18
1.24858e-16
4.72389e-15
3.2357e-16
2.54865e-18
1.72606e-18
8.10902e-19
2.62667e-19
7.25032e-20
2.44685e-19
6.00576e-20
3.71696e-22
-1.09363e-21
-1.56425e-22
-1.19068e-23
-5.98578e-25
-2.30281e-26
-8.41088e-28
-4.17897e-29
-3.01047e-30
-4.24158e-31
-5.98742e-32
-1.70942e-32
)
;

boundaryField
{
    leftWall
    {
        type            zeroGradient;
    }
    rightWall
    {
        type            zeroGradient;
    }
    lowerWall
    {
        type            zeroGradient;
    }
    atmosphere
    {
        type            inletOutlet;
        inletValue      uniform 0;
        value           nonuniform List<scalar> 
46
(
0
0
0
0
0
0
0
0
0.000994823
0.000128764
2.01373e-05
0.000222517
0.000158077
0
0
0
0
1.12905e-11
2.32339e-12
0
0
0
0
0
0
0
0
0
0
0
0
0
0
0
0
0
0
0
0
0
0
0
0
0
0
0
)
;
    }
    defaultFaces
    {
        type            empty;
    }
}


// ************************************************************************* //
