/*--------------------------------*- C++ -*----------------------------------*\
| =========                 |                                                 |
| \\      /  F ield         | OpenFOAM: The Open Source CFD Toolbox           |
|  \\    /   O peration     | Version:  2.3.0                                 |
|   \\  /    A nd           | Web:      www.OpenFOAM.org                      |
|    \\/     M anipulation  |                                                 |
\*---------------------------------------------------------------------------*/
FoamFile
{
    version     2.0;
    format      ascii;
    class       volScalarField;
    location    "1.3";
    object      p;
}
// * * * * * * * * * * * * * * * * * * * * * * * * * * * * * * * * * * * * * //

dimensions      [1 -1 -2 0 0 0 0];

internalField   nonuniform List<scalar> 
2268
(
1166.49
1158.92
1135.65
1104.24
1069.51
1033.79
1002.9
979.71
961.461
944.853
927.596
909.364
890.594
872.7
857.715
837.441
813.593
797.311
785.459
773.52
763.934
757.875
755.085
1107.91
1100.56
1077.52
1045.4
1010.42
974.099
942.527
919.125
901.316
885.335
868.416
850.043
830.18
810.296
795.681
777.217
754.394
738.09
726.594
714.317
704.356
698.254
695.503
1050.29
1044.42
1022.51
989.358
951.411
912.392
879.61
856.292
839.568
825.068
809.139
791.054
771.952
752.701
735.514
715.387
693.192
678.11
666.515
653.61
643.56
637.587
634.882
993.946
990.888
970.03
935.418
892.739
849.38
814.634
791.326
776.007
763.82
749.667
732.29
714.172
696.345
677.662
655.424
633.353
618.34
605.296
591.241
581.105
575.565
573.033
938.371
939.135
919.115
882.351
833.914
785.489
748.461
724.791
710.703
701.434
689.783
673.315
655.753
638.936
619.738
596.92
575.179
558.526
542.417
526.929
516.795
512.081
509.891
882.681
888.821
867.672
827.655
774.227
720.894
681.758
657.309
643.917
638.019
629.43
613.767
595.788
579.029
560.382
538.884
517.839
498.09
477.387
460.226
450.318
447.128
445.612
829.902
844.704
817.753
770.423
712.702
655.147
614.713
589.658
576.621
574.775
569.298
553.508
534.453
517.153
499.655
480.937
460.65
436.024
409.62
390.666
381.803
380.544
380.145
788.23
804.685
775.953
711.576
647.561
587.535
547.419
522.267
509.016
512.175
509.933
492.517
470.51
453.186
437.847
422.913
403.213
372.99
341.707
321.023
313.443
314.818
315.043
566.61
544.722
518.985
490.836
477.032
492.399
492.011
469.195
462.834
482.126
508.032
510.581
486.106
446.598
445.075
498.777
537.257
515.499
485.635
507.101
482.516
458.228
439.877
424.296
434.769
429.486
401.334
396.688
419.979
438.553
434.234
417.998
388.019
389.268
442.473
481.876
461.52
434.047
448.694
425.437
406.906
389.773
371.938
378.576
367.681
331.734
327.561
352.976
378.533
361.765
335.302
328.696
346.537
392.928
429.002
410.178
397.264
391.514
370.376
357.793
335.561
314.041
323.246
307.848
260.096
239.513
253.839
302.136
299.264
259.694
266.404
306.019
355.404
378.897
365.847
374.305
335.748
312.852
301.631
273.038
249.154
263.637
241.964
176.117
133.344
140.326
201.434
239.518
193.155
202.125
257.505
313.706
330.216
331.128
351.12
282.918
259.291
244.774
204.868
182.425
198.655
173.245
122.637
108.084
106.802
120.414
179.641
133.534
143.153
201.368
266.975
294.328
299.469
326.539
232.295
214.567
188.854
138.976
118.957
135.904
127.423
108.359
101.84
98.5206
99.753
128.861
83.4697
95.4718
144.568
215.141
264.16
265.51
291.575
185.642
175.355
142.161
87.3129
59.467
89.5453
110.019
96.7846
93.2866
92.4776
95.409
102.335
46.3045
54.8732
87.1029
159.349
224.669
227.68
248.801
729.525
732.632
698.714
639.745
551.101
475.996
436.963
413.513
395.8
406.826
409.226
389.243
371.314
351.317
341.799
333.826
312.851
271.149
230.855
207.417
203.577
213.059
214.053
605.564
585.965
516.96
420.5
350.867
312.231
284.315
240.975
237.686
253.51
234.526
190.692
172.411
185.19
195.811
196.313
173.632
111.895
72.7037
57.4336
59.0215
74.2089
92.5782
449.819
428.853
339.632
216.273
178.381
187.374
184.377
184.836
195.834
191.727
115.654
50.6443
31.2099
42.0402
68.7606
64.1119
43.8175
28.0666
24.6724
22.6404
20.2898
18.1675
21.4467
285.24
284.33
212.376
98.0886
98.7565
129.641
152.999
174.316
187.579
172.883
85.6165
45.5116
24.5798
22.0809
28.9482
16.5919
13.1013
15.1965
16.7262
17.1337
15.8008
14.1678
13.1153
135.771
150.045
126.42
70.397
63.8163
96.1594
128.655
138.547
125.946
83.6332
27.9277
16.6478
11.4381
8.27457
6.13007
4.78804
4.00318
3.82834
5.61929
8.42577
10.6214
10.9055
10.6852
54.649
69.757
74.9938
65.7657
66.0954
65.2858
62.7264
66.7482
50.3983
21.3722
12.562
8.16363
6.57627
6.59609
5.75397
4.11293
2.28917
0.584178
-1.23651
-0.263977
1.81119
4.62444
6.61534
33.7132
41.3631
49.6561
52.6516
74.5779
98.904
94.7921
55.4066
21.9916
15.262
11.2005
6.34269
6.09433
6.10575
5.46822
4.03065
2.25532
0.508387
-0.67788
-0.547919
-0.0231019
0.372981
1.13128
28.0928
30.4632
31.4244
32.2133
37.2907
55.704
66.64
40.0851
16.3231
13.5668
9.28199
6.10008
5.78783
5.73418
5.18202
4.03363
2.46983
0.952656
-0.0815399
-0.371043
-0.240685
-0.146394
-0.0111669
24.5613
23.8798
22.2237
17.6645
12.3028
21.5641
30.9484
22.053
7.02156
4.35368
5.4279
5.32398
5.42172
5.4501
5.00774
3.65028
1.94328
0.662552
-0.131337
-0.384782
-0.231805
-0.0550232
0.0434474
21.6637
19.9234
11.4991
6.16611
2.55109
1.4767
12.4881
7.08387
1.63328
0.221095
2.55626
4.80619
5.98883
5.86113
4.40511
1.81702
-0.0168153
-0.90279
-1.15796
-0.916136
-0.446814
-0.147872
-0.00285236
18.664
15.9666
4.99476
0.456384
-0.50211
-1.15139
-1.19279
5.08531
-2.41338
-0.727364
2.23305
4.35999
5.40485
4.32561
2.11301
-0.370104
-2.347
-3.58762
-2.91467
-1.95155
-0.980553
-0.478309
-0.271677
16.273
12.2082
0.831684
-2.13742
-1.46704
-1.20722
-1.32907
-1.40939
-2.57013
0.195222
2.12635
2.39812
1.32422
-0.492408
-1.76265
-2.58176
-3.42138
-4.37876
-4.1506
-2.75545
-1.57321
-0.964374
-0.673512
15.1025
11.488
0.500533
-1.78228
-1.48209
-1.32919
-1.30739
-1.4083
-1.23685
-0.255653
0.110689
-0.572501
-1.93764
-2.68111
-3.11114
-3.35167
-3.63346
-3.95956
-4.01102
-2.97699
-1.99205
-1.40668
-1.0602
11.7595
4.29109
-0.673109
-1.7559
-1.76578
-1.7302
-1.58969
-1.52577
-1.069
-1.86776
-1.95379
-2.34905
-2.66075
-2.86605
-3.11496
-3.37377
-3.60273
-3.74462
-3.63078
-2.95712
-2.22863
-1.71753
-1.37006
7.12364
-1.8739
-2.01197
-1.94859
-1.96685
-2.00503
-1.88074
-1.82968
-2.21523
-2.4821
-2.60164
-2.54445
-2.66853
-2.95445
-3.25757
-3.47449
-3.59359
-3.6104
-3.41782
-2.89078
-2.36421
-1.93856
-1.61684
-0.280023
-2.73185
-1.93796
-1.97696
-1.97302
-2.03911
-2.01521
-2.06142
-2.37773
-2.73813
-2.91198
-2.86536
-2.89771
-3.12738
-3.40036
-3.59408
-3.66538
-3.59902
-3.35713
-2.93603
-2.49645
-2.12725
-1.83079
-0.494742
-2.02639
-1.64031
-1.82077
-1.86905
-1.97487
-2.05905
-2.20677
-2.47274
-2.72901
-2.83165
-2.90178
-3.03046
-3.24593
-3.48043
-3.64904
-3.70062
-3.61593
-3.38182
-3.02192
-2.63619
-2.29885
-2.02321
-0.556493
-1.69441
-1.45269
-1.66163
-1.76261
-1.91775
-2.06858
-2.25745
-2.48463
-2.69395
-2.84133
-2.96617
-3.11305
-3.2925
-3.47341
-3.60452
-3.641
-3.55684
-3.35345
-3.05415
-2.72583
-2.42657
-2.17883
-0.273794
-1.55227
-1.25002
-1.56537
-1.6855
-1.87993
-2.07867
-2.29744
-2.51964
-2.72038
-2.88727
-3.03224
-3.17055
-3.30651
-3.42519
-3.49738
-3.49536
-3.40873
-3.23582
-2.9976
-2.73826
-2.49884
-2.30104
-0.836635
-1.38392
-1.22874
-1.55532
-1.65903
-1.87337
-2.10131
-2.34392
-2.57977
-2.79119
-2.97069
-3.12063
-3.24501
-3.34369
-3.40896
-3.4274
-3.38695
-3.28835
-3.1369
-2.94876
-2.7518
-2.57258
-2.42621
-1.5021
-1.31724
-1.27575
-1.60363
-1.6602
-1.89938
-2.15172
-2.42295
-2.67884
-2.90496
-3.09289
-3.24141
-3.35157
-3.42314
-3.453
-3.43693
-3.37302
-3.26465
-3.12908
-2.975
-2.82094
-2.68313
-2.57061
-1.64873
-1.26533
-1.5053
-1.69948
-1.72055
-1.97872
-2.25345
-2.55313
-2.83204
-3.07319
-3.26456
-3.4056
-3.49744
-3.54284
-3.5441
-3.50378
-3.42689
-3.32253
-3.1941
-3.06083
-2.93284
-2.82004
-2.72728
-0.179612
-1.11216
-1.84935
-1.82018
-1.83434
-2.11925
-2.42344
-2.75899
-3.06456
-3.31671
-3.50527
-3.62914
-3.69415
-3.70826
-3.67932
-3.61503
-3.52369
-3.41453
-3.2957
-3.17618
-3.06511
-2.96851
-2.8888
-2.70388
-1.56077
-2.087
-1.88547
-1.9917
-2.33343
-2.6885
-3.07059
-3.40529
-3.66514
-3.83849
-3.93065
-3.95451
-3.9262
-3.85964
-3.76677
-3.65773
-3.54074
-3.42296
-3.31095
-3.21011
-3.1239
-3.05313
-3.04839
-1.67658
-1.26209
-1.76919
-2.17009
-2.6322
-3.06718
-3.50465
-3.86694
-4.12602
-4.27192
-4.31741
-4.28493
-4.2012
-4.08639
-3.95595
-3.82209
-3.69227
-3.57061
-3.46053
-3.36474
-3.28459
-3.21948
-3.90139
-2.63502
-1.09282
-1.83229
-2.51604
-3.06045
-3.56918
-4.05155
-4.43178
-4.68096
-4.7882
-4.77456
-4.67378
-4.52577
-4.3561
-4.18056
-4.01338
-3.86376
-3.73304
-3.62043
-3.52579
-3.44844
-3.3866
-4.67886
-4.15659
-2.15284
-2.60073
-3.29389
-3.69784
-4.20542
-4.68901
-5.06991
-5.30731
-5.36945
-5.2857
-5.1023
-4.87961
-4.65277
-4.43164
-4.22622
-4.04992
-3.90508
-3.78645
-3.69016
-3.61343
-3.55314
-5.14927
-5.00445
-4.05393
-4.34846
-4.52421
-4.59036
-4.97781
-5.41368
-5.78117
-5.99591
-6.00958
-5.84732
-5.56145
-5.24364
-4.95203
-4.69014
-4.44999
-4.24403
-4.08108
-3.95411
-3.85456
-3.77727
-3.71761
-5.61239
-5.6571
-5.60583
-6.07447
-5.58998
-5.49377
-5.81029
-6.21376
-6.58244
-6.76666
-6.70434
-6.44009
-6.03387
-5.6012
-5.23065
-4.93097
-4.66724
-4.43636
-4.25448
-4.11852
-4.01553
-3.93757
-3.87846
-5.98831
-6.12355
-6.40046
-6.56011
-6.1677
-6.19947
-6.54957
-6.97061
-7.35527
-7.52989
-7.39878
-6.99979
-6.46579
-5.92276
-5.46883
-5.13233
-4.85821
-4.61483
-4.41838
-4.27473
-4.16975
-4.09209
-4.03432
-6.1727
-6.41358
-6.7866
-6.88791
-6.54452
-6.6147
-7.03355
-7.50268
-7.89388
-8.06302
-7.90625
-7.42928
-6.78574
-6.16197
-5.64561
-5.28057
-5.01001
-4.76902
-4.56644
-4.41854
-4.31448
-4.23918
-4.18421
-6.18632
-6.49476
-6.89648
-6.92888
-6.65621
-6.68585
-7.15837
-7.70119
-8.10578
-8.27748
-8.11835
-7.62379
-6.93501
-6.27832
-5.74115
-5.3692
-5.12345
-4.89321
-4.69371
-4.54696
-4.44819
-4.37821
-4.32793
-6.04241
-6.37271
-6.68437
-6.68383
-6.44452
-6.41275
-6.89383
-7.49617
-7.94296
-8.13148
-7.98545
-7.51924
-6.88205
-6.26137
-5.76118
-5.41633
-5.18368
-4.98243
-4.79758
-4.6587
-4.57147
-4.50985
-4.46611
-5.73954
-6.03654
-6.30273
-6.29536
-6.04048
-5.92222
-6.33676
-6.93346
-7.39671
-7.60988
-7.50179
-7.12494
-6.61725
-6.10867
-5.70121
-5.41799
-5.21765
-5.04407
-4.88116
-4.75874
-4.68431
-4.63554
-4.60019
-5.53676
-5.66673
-5.88327
-5.8442
-5.54605
-5.41463
-5.68706
-6.18372
-6.62097
-6.84715
-6.81111
-6.56392
-6.21554
-5.86913
-5.59366
-5.39625
-5.23915
-5.08806
-4.94813
-4.85024
-4.79394
-4.75867
-4.73218
-5.41033
-5.4426
-5.53805
-5.42056
-5.16052
-5.05
-5.14931
-5.50047
-5.88721
-6.1119
-6.12329
-5.98381
-5.7921
-5.61295
-5.47709
-5.37324
-5.25934
-5.12853
-5.01549
-4.94553
-4.90734
-4.88357
-4.86453
-5.38883
-5.38954
-5.35443
-5.1484
-4.94292
-4.79288
-4.79436
-5.04946
-5.39075
-5.59208
-5.60534
-5.5296
-5.45316
-5.40169
-5.37575
-5.34625
-5.30541
-5.20317
-5.11802
-5.0603
-5.03113
-5.01342
-4.99877
-5.41699
-5.41194
-5.33964
-5.13162
-4.86315
-4.64605
-4.62241
-4.83068
-5.17222
-5.36098
-5.33635
-5.26485
-5.24224
-5.26557
-5.30152
-5.33934
-5.34249
-5.31232
-5.25385
-5.19364
-5.16424
-5.14759
-5.13455
-5.47943
-5.4635
-5.43812
-5.30197
-5.02517
-4.73955
-4.59601
-4.81608
-5.20966
-5.38687
-5.28427
-5.17546
-5.15622
-5.19625
-5.29862
-5.37934
-5.40643
-5.42172
-5.37607
-5.32717
-5.29886
-5.28191
-5.27003
-5.56545
-5.55245
-5.52143
-5.46972
-5.30233
-5.11444
-4.78681
-4.99611
-5.50734
-5.60539
-5.3858
-5.23559
-5.18121
-5.22914
-5.36525
-5.46584
-5.5096
-5.50336
-5.47742
-5.44671
-5.42615
-5.41294
-5.40365
-5.66564
-5.65775
-5.64131
-5.61776
-5.57464
-5.47603
-5.37564
-5.36811
-6.34894
-6.01855
-5.57701
-5.49703
-5.27783
-5.32023
-5.50537
-5.57745
-5.59473
-5.58928
-5.57502
-5.56024
-5.54908
-5.54101
-5.53532
-5.77055
-5.76909
-5.76322
-5.7566
-5.77131
-5.74847
-6.02662
-6.51745
-7.96876
-6.35557
-5.86741
-6.05943
-5.91744
-5.7287
-5.71515
-5.71023
-5.69678
-5.68594
-5.67899
-5.67388
-5.66994
-5.66748
-5.66595
199.592
195.194
186.678
171.775
97.7139
97.5453
93.2447
87.1921
27.8844
28.4971
26.7753
23.1082
12.8257
12.9304
12.964
11.7002
10.7834
10.6901
10.2708
9.41659
6.84948
6.68018
6.09989
5.51796
1.29597
1.75273
1.80902
1.72034
0.0573627
0.292268
0.645581
0.787023
0.145198
0.281313
0.415892
0.487371
0.088572
0.132731
0.17588
0.211288
-0.186086
-0.139493
-0.0959745
-0.0612455
-0.543785
-0.473454
-0.415756
-0.371174
-0.891929
-0.802041
-0.729279
-0.67097
-1.1873
-1.08872
-1.00892
-0.944373
-1.4366
-1.33903
-1.25957
-1.19488
-1.661
-1.56781
-1.49093
-1.42865
-1.86436
-1.77703
-1.70486
-1.64725
-2.03746
-1.9615
-1.89936
-1.85019
-2.18938
-2.12991
-2.08096
-2.0414
-2.34321
-2.29777
-2.25948
-2.22743
-2.50569
-2.46918
-2.43773
-2.4109
-2.67283
-2.64195
-2.61509
-2.59212
-2.8416
-2.8148
-2.79141
-2.7714
-3.01126
-2.98749
-2.96671
-2.94895
-3.18124
-3.15958
-3.14066
-3.1245
-3.35067
-3.3304
-3.31273
-3.29762
-3.51856
-3.49914
-3.48227
-3.46784
-3.68383
-3.66495
-3.64861
-3.63464
-3.84541
-3.827
-3.81114
-3.79758
-4.00238
-3.98464
-3.96938
-3.95636
-4.15415
-4.13749
-4.12314
-4.1109
-4.3007
-4.2856
-4.27256
-4.26141
-4.44257
-4.4295
-4.41815
-4.40837
-4.58099
-4.57022
-4.56076
-4.5525
-4.71741
-4.70898
-4.70139
-4.69464
-4.85342
-4.84696
-4.84097
-4.83551
-4.99002
-4.98488
-4.98005
-4.97559
-5.12707
-5.12274
-5.11871
-5.11502
-5.2636
-5.25993
-5.25661
-5.25361
-5.39867
-5.39587
-5.39338
-5.39116
-5.53231
-5.53062
-5.52915
-5.52784
-5.66524
-5.66486
-5.66454
-5.66427
136.636
116.46
93.7239
53.4131
26.979
45.3519
62.9686
67.0351
72.7671
80.2753
86.1138
86.7065
24.8695
25.1939
6.41628
75.6521
175.634
199.539
212.765
66.8191
37.1303
24.222
18.0436
18.5445
20.256
24.1699
27.5636
45.127
65.4279
68.7535
60.9428
44.5567
42.6823
32.7818
71.5153
130.054
172.962
180.205
12.1761
7.27114
5.61868
9.41102
13.7323
16.1082
20.6114
21.4423
30.1306
51.4924
55.1928
51.111
51.2045
49.493
35.2113
29.3771
53.0383
92.1652
117.462
8.35967
5.96165
4.76525
7.93825
9.5687
10.3448
17.2749
18.3816
20.5949
34.0179
42.4212
40.3026
39.4016
52.8508
40.8414
16.9829
10.256
21.279
46.4534
7.70153
6.30257
6.01929
8.11649
8.59348
6.54377
11.4513
13.433
13.6815
17.0523
22.3218
18.2101
16.5901
30.2754
32.5081
11.4984
4.27432
7.65682
16.953
5.50069
6.46414
7.54888
8.59896
8.6377
5.50789
6.35895
10.9904
7.07623
6.71192
7.21419
2.35684
-1.118
4.07628
13.3103
8.42802
5.22317
6.93094
12.3746
1.86471
3.18172
6.02472
7.05421
5.35046
3.17341
3.55152
5.61665
2.91752
0.883271
-0.623487
-2.97599
-3.7879
-3.38372
1.47031
8.0051
8.42665
9.67624
11.3057
0.792629
0.934331
1.46494
1.36755
0.863103
0.429207
0.843659
0.484196
-0.0284179
-0.158052
-1.16715
-3.15711
-3.33535
-2.89466
-0.135824
8.94231
10.5022
12.0291
12.2014
0.519873
0.488841
0.434391
0.346698
0.167992
0.010079
-0.0862496
-0.126624
-0.122336
-0.206516
-1.33219
-2.25125
-2.26086
-1.2909
2.42476
7.42889
10.1479
11.9121
11.6094
0.249645
0.251077
0.22286
0.164629
0.0598643
-0.0819936
-0.187544
-0.231494
-0.210381
-0.0833336
-0.124015
0.188096
0.212835
1.03624
3.22819
6.20221
7.91338
8.64842
9.30255
-0.0256752
-0.0197074
-0.0370083
-0.0759616
-0.140761
-0.225011
-0.32692
-0.376538
-0.406983
-0.564234
-0.138917
1.32748
2.96264
3.49095
4.21895
4.79588
5.61224
5.13579
6.8581
-0.317132
-0.291881
-0.298795
-0.323545
-0.359541
-0.396879
-0.437303
-0.483291
-0.571775
-0.705473
-0.77136
-0.721863
-0.0133966
1.80085
3.29233
3.96988
4.91964
4.21592
3.89547
-0.596294
-0.552556
-0.548619
-0.558131
-0.57047
-0.576476
-0.578276
-0.605947
-0.702064
-0.819168
-0.939955
-1.03656
-1.04193
-0.491512
1.67172
3.5581
4.87431
4.37731
0.364893
-0.859722
-0.8051
-0.791191
-0.789569
-0.790749
-0.781901
-0.761222
-0.791492
-0.884133
-0.98099
-1.0459
-1.23985
-1.31882
-0.674677
1.02587
2.81558
2.2442
1.45374
-0.685568
-1.10908
-1.05193
-1.03279
-1.02676
-1.02948
-1.02575
-1.02228
-1.07328
-1.2123
-1.39832
-1.83328
-3.02039
-2.96483
-2.42126
-0.567401
0.518984
0.329289
-2.09411
-2.01785
-1.34706
-1.2941
-1.27354
-1.26942
-1.27743
-1.29302
-1.31812
-1.40289
-1.66353
-2.0182
-1.583
-0.641583
-0.33805
-0.246713
-1.0286
-1.73259
-2.04284
-2.2736
-2.20631
-1.57433
-1.52677
-1.5071
-1.50679
-1.52279
-1.55778
-1.62655
-1.76118
-2.14815
-2.85773
-2.91228
-2.64474
-2.53816
-2.48391
-2.43797
-2.4014
-2.32633
-2.32373
-2.23027
-1.78876
-1.74608
-1.72879
-1.73129
-1.7521
-1.79524
-1.87841
-2.03821
-2.37489
-2.78233
-2.88969
-2.69243
-2.59647
-2.56178
-2.55031
-2.52824
-2.47837
-2.42778
-2.35673
-1.99076
-1.95382
-1.93869
-1.94186
-1.96295
-2.00548
-2.08157
-2.21052
-2.42128
-2.65562
-2.73766
-2.69999
-2.65072
-2.63135
-2.62932
-2.6293
-2.60629
-2.56666
-2.51391
-2.18514
-2.15315
-2.13965
-2.14262
-2.1621
-2.2007
-2.26799
-2.37089
-2.51149
-2.66105
-2.74167
-2.74863
-2.72783
-2.71788
-2.71679
-2.72065
-2.71338
-2.69042
-2.65705
-2.3749
-2.3469
-2.33522
-2.33845
-2.35698
-2.39175
-2.45335
-2.54372
-2.65504
-2.76073
-2.82063
-2.82808
-2.81396
-2.80729
-2.81118
-2.81781
-2.8205
-2.80838
-2.79014
-2.56113
-2.53676
-2.52728
-2.53127
-2.54843
-2.58132
-2.63481
-2.71402
-2.80597
-2.88577
-2.92776
-2.9318
-2.92138
-2.91776
-2.92171
-2.9271
-2.93438
-2.92759
-2.91667
-2.74439
-2.72313
-2.71563
-2.72042
-2.73643
-2.76499
-2.81011
-2.8744
-2.94814
-3.01349
-3.04198
-3.04527
-3.03942
-3.03821
-3.04278
-3.04804
-3.05452
-3.04919
-3.04213
-2.92489
-2.90579
-2.89931
-2.90413
-2.91879
-2.94319
-2.97941
-3.02886
-3.08547
-3.13217
-3.15597
-3.16113
-3.16036
-3.16228
-3.1681
-3.1767
-3.17855
-3.17365
-3.16896
-3.10247
-3.08456
-3.07802
-3.08168
-3.09415
-3.11446
-3.14255
-3.17752
-3.21556
-3.24856
-3.26848
-3.27735
-3.28301
-3.28998
-3.29723
-3.30435
-3.30434
-3.30118
-3.29829
-3.27687
-3.25946
-3.25218
-3.25388
-3.26336
-3.27957
-3.30129
-3.32612
-3.35085
-3.37262
-3.38866
-3.40081
-3.41154
-3.4219
-3.42913
-3.43246
-3.43241
-3.43165
-3.43022
-3.44785
-3.43049
-3.42219
-3.42176
-3.42803
-3.44001
-3.45628
-3.47495
-3.49341
-3.50947
-3.52241
-3.53414
-3.54491
-3.55361
-3.55926
-3.56229
-3.5639
-3.56483
-3.56433
-3.61513
-3.59764
-3.58832
-3.58593
-3.58932
-3.59735
-3.60898
-3.62272
-3.63661
-3.64967
-3.66111
-3.67093
-3.67936
-3.68633
-3.69165
-3.69549
-3.6983
-3.69998
-3.70004
-3.77853
-3.76095
-3.75079
-3.74679
-3.74785
-3.75297
-3.76115
-3.77129
-3.78202
-3.79224
-3.80125
-3.80945
-3.8166
-3.82274
-3.82778
-3.83165
-3.83463
-3.83648
-3.83692
-3.93796
-3.92056
-3.90987
-3.90466
-3.90391
-3.90672
-3.91221
-3.91946
-3.9275
-3.93552
-3.94304
-3.94996
-3.9561
-3.96144
-3.9659
-3.96942
-3.97222
-3.97402
-3.97469
-4.09352
-4.0767
-4.06587
-4.05988
-4.05781
-4.05887
-4.0623
-4.06736
-4.07332
-4.07957
-4.08566
-4.09142
-4.09662
-4.1012
-4.10507
-4.1082
-4.1107
-4.11236
-4.11315
-4.24547
-4.22968
-4.21911
-4.21273
-4.20978
-4.20956
-4.21144
-4.21483
-4.21916
-4.22393
-4.22878
-4.2335
-4.23782
-4.24169
-4.245
-4.24772
-4.24987
-4.25135
-4.25213
-4.39423
-4.37988
-4.3699
-4.36348
-4.36
-4.35889
-4.35964
-4.36176
-4.3648
-4.36837
-4.37213
-4.37596
-4.37948
-4.3827
-4.38548
-4.3878
-4.38962
-4.39088
-4.39159
-4.54037
-4.5277
-4.51856
-4.51237
-4.50865
-4.50696
-4.50691
-4.50808
-4.51013
-4.51273
-4.51561
-4.51861
-4.52145
-4.52408
-4.52639
-4.52833
-4.52984
-4.5309
-4.53147
-4.68451
-4.67356
-4.6654
-4.65962
-4.65589
-4.65389
-4.65329
-4.65379
-4.65508
-4.65692
-4.65907
-4.66138
-4.66362
-4.66575
-4.66762
-4.66923
-4.67045
-4.67135
-4.67178
-4.82717
-4.81784
-4.8107
-4.80546
-4.80191
-4.79979
-4.79887
-4.79889
-4.79964
-4.80088
-4.80245
-4.80418
-4.80592
-4.80762
-4.8091
-4.81041
-4.81137
-4.81214
-4.81246
-4.96871
-4.96085
-4.95472
-4.95011
-4.94686
-4.94479
-4.94372
-4.94345
-4.9438
-4.9446
-4.94571
-4.94697
-4.94828
-4.94965
-4.95076
-4.95181
-4.95251
-4.95322
-4.95343
-5.10934
-5.10283
-5.09771
-5.09379
-5.09095
-5.08906
-5.08797
-5.08754
-5.08763
-5.08811
-5.08885
-5.08975
-5.09073
-5.09177
-5.09252
-5.09342
-5.09388
-5.09449
-5.09461
-5.24905
-5.24388
-5.23979
-5.23664
-5.23431
-5.23269
-5.2317
-5.23122
-5.23115
-5.2314
-5.23187
-5.23248
-5.23316
-5.23387
-5.23442
-5.2352
-5.23542
-5.2359
-5.23595
-5.38782
-5.38408
-5.3811
-5.37878
-5.37702
-5.37577
-5.37496
-5.37452
-5.37437
-5.37446
-5.37473
-5.3751
-5.37554
-5.376
-5.37638
-5.37693
-5.37704
-5.3774
-5.37737
-5.52588
-5.52368
-5.52189
-5.52045
-5.51933
-5.51849
-5.51791
-5.51756
-5.5174
-5.51739
-5.51749
-5.51767
-5.5179
-5.51815
-5.51838
-5.51869
-5.51873
-5.51895
-5.51887
-5.66384
-5.66328
-5.66273
-5.66219
-5.66172
-5.66131
-5.66098
-5.66073
-5.66057
-5.66047
-5.66044
-5.66045
-5.66049
-5.66055
-5.66062
-5.66072
-5.6607
-5.6608
-5.6606
)
;

boundaryField
{
    leftWall
    {
        type            calculated;
        value           nonuniform List<scalar> 
50
(
1166.49
1107.91
1050.29
993.946
938.371
882.681
829.902
788.23
729.525
605.564
449.819
285.24
135.771
54.649
33.7132
28.0928
24.5613
21.6637
18.664
16.273
15.1025
11.7595
7.12364
-0.280023
-0.494742
-0.556493
-0.273794
-0.836635
-1.5021
-1.64873
-0.179612
-2.70388
-3.04839
-3.90139
-4.67886
-5.14927
-5.61239
-5.98831
-6.1727
-6.18632
-6.04241
-5.73954
-5.53676
-5.41033
-5.38883
-5.41699
-5.47943
-5.56545
-5.66564
-5.77055
)
;
    }
    rightWall
    {
        type            calculated;
        value           nonuniform List<scalar> 
50
(
485.635
434.047
397.264
374.305
351.12
326.539
291.575
248.801
212.765
180.205
117.462
46.4534
16.953
12.3746
11.3057
12.2014
11.6094
9.30255
6.8581
3.89547
0.364893
-0.685568
-2.01785
-2.20631
-2.23027
-2.35673
-2.51391
-2.65705
-2.79014
-2.91667
-3.04213
-3.16896
-3.29829
-3.43022
-3.56433
-3.70004
-3.83692
-3.97469
-4.11315
-4.25213
-4.39159
-4.53147
-4.67178
-4.81246
-4.95343
-5.09461
-5.23595
-5.37737
-5.51887
-5.6606
)
;
    }
    lowerWall
    {
        type            calculated;
        value           nonuniform List<scalar> 
62
(
1195.92
1188.35
1165.08
1133.67
1098.93
1063.22
1032.33
1009.14
990.89
974.282
957.025
938.793
920.023
902.129
887.144
866.678
842.46
826.175
814.307
802.515
793.355
787.304
784.514
755.085
695.503
634.882
573.033
509.891
445.612
380.145
315.043
261.727
257.329
248.812
233.888
566.61
507.101
448.694
391.514
335.748
282.918
232.295
185.642
595.859
573.972
548.235
515.375
500.938
516.777
517.136
495.507
491.698
511.092
536.997
537.596
511.518
472.007
470.484
524.681
563.709
541.865
509.908
)
;
    }
    atmosphere
    {
        type            calculated;
        value           nonuniform List<scalar> 
46
(
-5.82417
-5.82594
-5.82468
-5.83053
-5.83663
-5.84702
-6.31354
-6.0843
-11.4227
-6.466
-5.84429
-7.00258
-6.63376
-5.75092
-5.74053
-5.73193
-5.72922
-5.72904
-5.72904
-5.72909
-5.72946
-5.73016
-5.731
-5.7316
-5.73196
-5.73228
-5.73256
-5.73294
-5.73323
-5.73331
-5.73324
-5.73308
-5.73289
-5.73268
-5.73249
-5.73233
-5.73219
-5.73209
-5.73202
-5.73198
-5.73195
-5.73193
-5.73193
-5.73189
-5.73194
-5.73162
)
;
    }
    defaultFaces
    {
        type            empty;
    }
}


// ************************************************************************* //
