/*--------------------------------*- C++ -*----------------------------------*\
| =========                 |                                                 |
| \\      /  F ield         | OpenFOAM: The Open Source CFD Toolbox           |
|  \\    /   O peration     | Version:  2.3.0                                 |
|   \\  /    A nd           | Web:      www.OpenFOAM.org                      |
|    \\/     M anipulation  |                                                 |
\*---------------------------------------------------------------------------*/
FoamFile
{
    version     2.0;
    format      ascii;
    class       volScalarField;
    location    "1.3";
    object      p_rgh;
}
// * * * * * * * * * * * * * * * * * * * * * * * * * * * * * * * * * * * * * //

dimensions      [1 -1 -2 0 0 0 0];

internalField   nonuniform List<scalar> 
2268
(
1195.92
1188.35
1165.08
1133.67
1098.93
1063.22
1032.33
1009.14
990.89
974.282
957.025
938.793
920.023
902.129
887.144
866.678
842.46
826.175
814.307
802.515
793.355
787.304
784.514
1196.2
1188.85
1165.8
1133.68
1098.71
1062.39
1030.81
1007.41
989.604
973.623
956.704
938.331
917.87
897.048
883.745
865.185
842.337
826.331
814.617
801.947
792.27
786.54
783.791
1197.44
1191.56
1169.66
1136.5
1098.56
1059.54
1026.75
1003.44
986.714
972.215
956.286
938.201
916.585
893.855
876.524
857.327
838.927
825.246
813.653
800.753
790.626
784.716
782.028
1199.95
1196.89
1176.04
1141.42
1098.74
1055.38
1020.56
997.262
981.998
969.825
955.673
938.295
916.958
893.758
875.066
852.82
834.034
824.283
811.3
797.246
787.111
781.567
779.038
1203.23
1204
1183.98
1147.21
1098.78
1050.32
1013.22
989.554
975.481
966.277
954.648
938.179
920.617
895.816
873.534
850.727
834.626
823.358
807.28
791.793
781.659
776.945
774.755
1206.36
1212.47
1191.38
1151.38
1097.95
1044.61
1005.43
980.923
967.532
961.689
953.153
937.49
919.511
901.954
875.283
854.533
839.701
821.808
801.109
783.949
774.041
770.851
769.334
1178.19
1195.64
1192.73
1152.84
1095.28
1037.73
997.293
972.239
959.157
957.337
951.878
936.089
917.034
899.735
882.068
863.441
843.223
818.59
791.859
772.046
758.363
763.125
762.727
1053.29
1070.42
1096.12
1139.44
1088.97
1028.97
988.858
963.705
950.44
953.566
951.281
933.954
911.95
894.624
879.285
864.352
844.651
810.937
763.011
736.662
728.686
735.72
752.835
595.859
573.972
548.235
515.375
500.938
516.777
517.136
495.507
491.698
511.092
536.997
537.596
511.518
472.007
470.484
524.681
563.709
541.865
509.908
594.853
570.268
542.821
512.143
498.286
521.314
516.389
488.238
483.592
506.883
525.452
521.128
497.165
464.256
465.556
527.448
565.562
532.747
496.879
594.948
567.826
527.419
510.339
508.557
523.402
512.516
476.574
472.401
497.809
523.356
506.554
479.687
456.985
473.976
535.899
571.329
507.009
432.446
596.27
565.249
534.698
526.637
516.773
525.992
510.601
462.867
441.968
456.006
504.84
501.939
462.25
461.257
500.603
557.851
574.737
444.633
411.002
599.005
573.389
563.099
535.986
503.458
524.019
502.018
389.179
283.142
293.045
459.251
499.482
453.448
462.7
518.074
574.355
556.929
380.272
397.714
604.677
581.048
566.498
526.429
485.619
516.634
462.912
223.588
133.86
132.029
291.148
483.333
452.005
461.612
519.87
585.512
500.093
386.684
383.487
612.554
594.794
559.925
488.947
477.721
511.308
456.877
199.482
131.649
128.336
131.852
483.318
459.815
471.86
520.974
591.553
510.471
443.153
397.935
624.375
588.186
424.487
274.308
301.133
438.315
468.503
302.591
128.837
126.229
129.513
516.761
480.558
489.154
521.407
593.667
569.955
308.532
326.095
1048.61
1050.48
1017.02
991.317
1063.15
1009.39
970.424
946.961
928.785
937.635
941.148
922.665
904.779
884.78
875.264
867.291
846.316
804.613
757.416
722.371
707.299
711.19
724.134
1146.16
1186.89
1024.54
804.442
734.292
844.272
922.527
780.059
674.215
798.805
890.79
849.17
831.054
843.847
854.469
854.972
832.29
662.38
462.342
380.403
427.81
596.285
730.057
1218.94
1198.23
1108.85
985.628
808.882
489.812
374.526
365.096
379.094
698.788
885.886
750.636
754.594
825.872
852.612
784.886
473.199
155.419
52.8552
32.3907
32.3099
48.3693
136.251
1175.96
1176.29
1104.71
990.086
868.616
366.719
362.051
383.367
421.853
849.004
629.641
454.806
558.575
638.136
517.427
185.145
29.048
24.9691
25.0667
23.5696
21.8445
18.4479
17.4086
895.204
1126.55
1140.65
1083.95
1064.53
778.351
437.237
675.361
971.866
881.251
216.271
98.1603
102.969
47.6512
24.2153
9.27759
6.5129
14.9105
28.9255
31.7472
33.9555
26.2832
15.7286
282.302
564.748
1122.31
1104.56
1096.58
1130.81
1128.68
1132.7
1010.06
362.161
23.1465
26.6743
9.27919
8.33138
7.78297
6.08577
3.94198
2.86597
9.77237
19.7022
27.9581
32.1497
34.9659
71.9087
116.641
407.239
544.393
699.567
1175.82
1219.94
703.172
286.955
29.2316
19.7022
13.9875
7.84224
7.73701
7.10233
5.63479
3.78525
1.99303
0.712172
0.767639
1.28056
15.5351
27.1479
42.7056
45.076
48.2229
195.288
420.526
545.737
655.325
463.605
126.903
20.094
12.1151
8.00514
7.58014
7.52517
6.93956
5.72499
4.1008
2.50896
1.41201
1.0868
1.17537
1.26626
1.40072
40.4717
64.1101
46.1281
29.8249
234.947
566.988
680.943
672.048
603.799
116.583
11.2372
8.1811
7.51191
7.40303
7.05315
5.84887
3.65801
2.30601
1.43587
1.16279
1.30747
1.48215
1.57991
39.8882
94.6434
81.7379
15.411
6.14364
47.7286
475.599
710.092
659.377
134.044
9.68951
9.13674
9.36635
11.5872
26.291
38.5379
22.9402
2.08366
0.582196
0.775585
1.22481
1.517
1.65979
40.1337
96.6156
85.5907
19.2248
2.05201
1.0697
0.792781
466.327
304.91
24.563
13.7275
14.2512
44.3716
47.0419
44.8293
42.3462
40.1461
36.5556
4.86714
0.106567
0.876738
1.32416
1.52084
40.4032
98.3712
87.1305
18.2894
0.873882
0.917821
0.734209
0.647192
133.802
48.6598
17.8977
39.5932
46.1398
44.982
39.8656
21.8192
9.66307
8.44844
3.86258
-0.175862
0.403711
0.973619
1.25838
35.9371
84.8488
92.3973
16.0161
0.813086
0.891781
0.829217
0.654615
116.788
137.948
54.0036
23.3319
20.9859
2.51165
-0.995719
-1.2667
-1.55241
-0.579089
0.911537
-0.0373328
0.096087
0.660144
1.00549
50.7733
10.0906
31.7262
5.51047
0.616218
0.73491
0.70044
0.653218
52.3905
144.834
107.981
7.59499
-0.226087
-0.620966
-0.901774
-1.165
-1.39342
-1.38376
-1.00762
-0.398227
-0.0265643
0.475894
0.823368
273.886
3.22285
0.282468
0.341014
0.551572
0.708914
0.756035
0.468797
0.0759349
28.2648
29.149
4.07988
-0.259372
-0.573064
-0.887443
-1.11713
-1.25437
-1.26947
-1.00011
-0.558939
-0.0409383
0.383307
0.705252
351.61
1.01978
0.477028
0.434432
0.49188
0.760448
0.55497
0.355229
0.0368851
-0.3215
-0.479052
-0.318388
-0.314469
-0.517803
-0.79079
-0.984052
-1.10561
-1.10263
-0.799637
-0.385468
-0.0174341
0.323249
0.716657
369.661
1.48341
0.896276
0.715812
0.667535
0.561717
0.47757
0.337293
0.0646196
-0.185671
-0.166616
-0.170135
-0.298703
-0.522315
-0.758226
-0.90211
-0.950082
-0.86563
-0.631906
-0.27343
0.109394
0.419574
0.686527
387.396
3.69087
1.20909
1.00015
0.899167
0.744022
0.593193
0.404549
0.177141
-0.0321854
-0.149227
-0.163154
-0.31794
-0.627903
-0.805894
-0.814889
-0.75494
-0.67054
-0.467468
-0.168508
0.15871
0.353955
0.531739
405.435
16.3611
2.33132
1.22161
1.10147
0.907044
0.708302
0.489526
0.267331
0.0665884
-0.100297
-0.24527
-0.383571
-0.519519
-0.638135
-0.683332
-0.59217
-0.470442
-0.350248
-0.140442
0.0812592
0.293042
0.486478
423.103
26.0365
19.9834
1.35685
1.25314
1.03879
0.810856
0.568246
0.332396
0.120975
-0.0585278
-0.208465
-0.332849
-0.431531
-0.496816
-0.514906
-0.473128
-0.374417
-0.224535
-0.0363315
0.160591
0.339695
0.485995
439.787
29.1659
29.1757
1.43373
1.37716
1.13798
0.885636
0.614404
0.358515
0.1324
-0.0555279
-0.204052
-0.314217
-0.385785
-0.415641
-0.399573
-0.335653
-0.227278
-0.0917162
0.062374
0.216431
0.354238
0.466748
453.304
29.0289
29.1613
1.46308
1.44201
1.18384
0.909107
0.609427
0.330516
0.0893629
-0.102008
-0.243045
-0.334891
-0.380283
-0.381549
-0.341226
-0.26434
-0.159981
-0.0315449
0.101725
0.229713
0.34251
0.435269
226.456
30.3466
26.1224
1.46758
1.45341
1.16851
0.864307
0.528759
0.223192
-0.0289636
-0.217522
-0.341397
-0.406402
-0.420517
-0.391577
-0.327281
-0.235944
-0.126785
-0.00795693
0.111562
0.22264
0.319242
0.398949
11.3239
63.17
26.5572
1.52748
1.42125
1.07952
0.724442
0.342436
0.0085749
-0.251119
-0.425158
-0.517626
-0.54157
-0.513256
-0.446698
-0.353828
-0.244786
-0.127799
-0.0100157
0.101987
0.202832
0.289042
0.359813
10.9708
76.5051
25.6236
1.76895
1.36805
0.905945
0.470971
0.0335176
-0.32808
-0.584258
-0.729607
-0.776284
-0.746616
-0.662909
-0.548252
-0.417815
-0.283955
-0.154137
-0.0324768
0.0776009
0.173392
0.253549
0.318655
10.497
78.4252
18.4664
1.82732
1.14599
0.602888
0.0941714
-0.38819
-0.76834
-1.01531
-1.12054
-1.10691
-1.00614
-0.859652
-0.692753
-0.517227
-0.35005
-0.200426
-0.0697048
0.042897
0.137544
0.214891
0.276732
8.22102
79.4552
54.4466
1.66575
0.494142
0.0906985
-0.416881
-0.900451
-1.28129
-1.51829
-1.57776
-1.49273
-1.30934
-1.08676
-0.860473
-0.643106
-0.437693
-0.261394
-0.11656
0.00207516
0.0983686
0.175093
0.235388
3.73025
67.9944
70.8948
5.64509
-0.606408
-0.676752
-1.06412
-1.46646
-1.57642
-2.08113
-2.09336
-1.93142
-1.64574
-1.32556
-1.03305
-0.773131
-0.536267
-0.330309
-0.167361
-0.0403901
0.0591624
0.136446
0.196113
0.648044
2.61897
32.1894
8.44177
-1.53054
-1.44924
-1.74181
-1.5563
-1.64744
-2.04881
-2.55673
-2.39945
-1.9934
-1.56097
-1.18587
-0.886207
-0.628289
-0.397441
-0.215566
-0.0796042
0.0233831
0.101349
0.160449
-0.837607
-1.1238
-1.4007
7.70795
-1.52651
-2.01391
-2.28412
-1.88784
-2.25599
-2.43251
-2.31009
-2.60981
-2.30034
-1.75736
-1.30354
-0.959949
-0.684344
-0.450709
-0.254273
-0.110621
-0.00564174
0.0720219
0.129789
-0.725471
-1.2635
-1.64065
4.79768
-1.20393
-2.27477
-2.6263
-2.26133
-2.64651
-2.81296
-2.65253
-2.34465
-2.49503
-1.87145
-1.35519
-0.986009
-0.696963
-0.478854
-0.277117
-0.129235
-0.0251726
0.0501277
0.105096
-0.0963913
1.34648
-1.65181
0.685356
-1.02625
-2.17531
-2.62117
-2.32558
-2.70184
-2.87378
-2.71434
-2.40788
-2.48492
-1.86231
-1.32553
-0.953581
-0.684461
-0.455997
-0.279051
-0.132458
-0.0336965
0.0362853
0.08657
7.6645
10.3984
-1.68413
-1.85275
-0.707557
-1.70615
-2.22589
-2.56615
-2.39129
-2.57599
-2.41625
-2.2951
-2.31853
-1.7202
-1.2203
-0.87548
-0.634868
-0.402056
-0.256571
-0.118421
-0.0317145
0.0298392
0.0735849
11.4941
11.3599
0.87704
-1.32789
-0.21633
-0.819121
-1.535
-2.11259
-2.10371
-1.89308
-1.77844
-2.17431
-1.94667
-1.44193
-1.03476
-0.751821
-0.55061
-0.345635
-0.1758
-0.0615876
-0.0190317
0.0293505
0.0646995
1.77958
12.1966
10.4117
-0.754291
-0.345652
-0.0165687
-0.577566
-1.25629
-1.74395
-1.7162
-1.75912
-1.69567
-1.42295
-1.0778
-0.801589
-0.604186
-0.440361
-0.259448
0.210477
0.0075677
-0.00380285
0.0314081
0.057899
0.351176
12.8876
12.765
-0.0901014
-0.108215
0.229969
0.127225
-0.379489
-0.938385
-1.1778
-1.1986
-1.06123
-0.87591
-0.696512
-0.56056
-0.454016
0.418338
1.50137
0.799215
-0.023735
0.00803357
0.0317055
0.050745
-0.340613
5.74554
13.3871
11.9609
0.162605
0.280585
0.356187
0.0903779
-0.323067
-0.544598
-0.562176
-0.488253
-0.412197
-0.36031
-0.334098
0.744133
8.15583
7.15252
0.512095
-0.0168872
0.00945441
0.0270471
0.0416991
-0.251271
-0.24057
12.6751
16.5621
8.29126
0.553427
0.570201
0.350497
0.0025638
-0.192594
-0.169843
-0.0986832
-0.0761504
-0.0994056
0.88114
8.62223
8.61908
7.19291
0.326259
-0.026569
0.00146449
0.0180804
0.0311173
-0.188566
-0.172636
-0.144905
14.7054
21.6383
15.3049
0.969703
0.486603
0.0851983
-0.094957
0.00717696
0.115835
0.135086
1.79649
8.86851
8.8542
8.87359
1.26884
-0.0846772
-0.0363032
-0.00800511
0.0089493
0.0208305
-0.149394
-0.136392
-0.10539
-0.0536717
11.6834
14.8998
15.0452
11.4158
0.281006
-0.18574
0.0316529
0.181071
0.23529
7.45398
8.84046
7.51449
0.126511
-0.0872263
-0.0613606
-0.0306528
-0.0100971
0.00311824
0.0124023
-0.124387
-0.1165
-0.100059
-0.0765079
-0.0333945
0.065223
0.165606
9.89262
4.30091
-0.347635
-0.0148927
0.420343
6.0275
7.76996
1.82399
-0.0362004
-0.0534692
-0.048027
-0.0337758
-0.0189939
-0.00782773
0.000238787
0.00592346
-0.104111
-0.102648
-0.096782
-0.0901577
-0.104869
-0.0820263
-0.360175
-0.593578
3.32915
0.0397769
-0.0869751
0.866635
0.643841
-0.0622621
-0.0487039
-0.0437896
-0.0303331
-0.0194962
-0.0125491
-0.00743921
-0.00349742
-0.00103544
0.000495152
729.116
724.718
716.202
701.113
737.474
721.296
671.083
652.431
223.975
192.972
122.095
107.024
17.1061
17.3043
17.7334
17.2718
15.8758
22.0575
31.7058
34.3702
36.0589
35.9254
35.3093
34.292
32.8442
33.8708
20.2941
11.9243
6.07226
4.01689
2.05611
2.19726
1.68123
1.8171
1.95141
2.02251
1.75035
1.79404
1.84303
1.89333
1.60726
1.68328
1.73391
1.76881
1.4045
1.48474
1.54267
1.58717
1.17511
1.28289
1.35723
1.41569
1.00554
1.10968
1.1776
1.22479
0.946051
0.993351
1.02857
1.09148
0.884502
0.886349
0.920765
0.982768
0.735409
0.769599
0.831766
0.889338
0.62539
0.700322
0.762422
0.811589
0.597666
0.657066
0.706005
0.745569
0.568952
0.614389
0.652683
0.684729
0.53167
0.568178
0.599629
0.626455
0.489727
0.520602
0.547459
0.570435
0.446145
0.472945
0.49634
0.516345
0.401679
0.42545
0.44623
0.463991
0.356894
0.378554
0.397473
0.413637
0.312656
0.332929
0.350598
0.365711
0.269962
0.289384
0.306252
0.32069
0.229889
0.248771
0.265105
0.27908
0.193504
0.211909
0.227776
0.241333
0.161731
0.179467
0.194728
0.207748
0.135148
0.151815
0.16616
0.178398
0.113799
0.128901
0.141933
0.153084
0.0971204
0.110196
0.121539
0.131321
0.0838984
0.0946709
0.104129
0.112386
0.0726668
0.0810971
0.088687
0.0954405
0.0618533
0.0683154
0.0743073
0.0797627
0.0504512
0.0555891
0.0604229
0.0648759
0.0385903
0.042927
0.0469565
0.050648
0.0272612
0.0309297
0.0342515
0.0372497
0.0173797
0.0201838
0.0226728
0.0248921
0.00894065
0.010625
0.0121015
0.0134074
0.00120561
0.00158095
0.00189845
0.00217752
666.553
550.301
349.683
156.708
84.3602
242.427
300.635
309.141
158.661
120.037
127.014
476.306
531.376
534.669
531.247
600.527
412.838
246.344
260.561
555.217
337.672
212.293
46.4066
22.1334
24.5738
28.9356
90.1054
122.261
114.101
117.648
217.562
502.708
210.802
355.004
430.737
187.844
230.751
264.861
27.6583
11.7677
10.3958
13.5936
17.589
21.9578
26.5051
28.2075
120.283
146.256
113.124
109.338
435.399
79.7354
62.3753
69.555
124.644
232.979
258.278
13.5725
10.8166
15.7204
12.1809
13.8719
33.72
39.7002
28.7281
80.9887
166.531
121.615
107.544
299.446
239.238
65.7867
34.0076
43.3068
63.1337
206.747
20.3555
11.7699
10.6283
12.719
13.4171
33.2372
38.0023
25.1478
38.517
167.815
172.254
160.165
179.229
244.218
75.0578
26.9954
17.8625
21.0021
34.5599
33.4537
32.7385
12.7334
13.898
28.3746
35.1473
26.0971
24.1498
96.1728
173.182
134.586
98.4375
28.1618
172.902
93.3015
23.7931
20.1816
21.8712
27.307
20.702
34.7388
37.5739
38.0252
37.2025
34.8275
9.1104
41.1996
61.9464
33.6683
6.01114
4.8801
7.96256
18.8498
89.845
42.4869
24.9232
26.1973
80.4447
2.20256
6.21313
19.9999
20.906
18.5981
3.83266
6.65397
10.0677
1.65913
1.75858
4.46569
5.63029
9.7859
19.9048
95.3802
83.1287
28.3106
30.1785
192.797
2.05492
2.02388
1.96943
1.88174
1.70317
1.55458
2.15919
1.40977
1.42218
13.6578
30.5902
14.46
12.5122
26.7035
100.317
39.6399
29.3696
32.1382
209.148
1.91592
1.91132
1.88309
1.82486
1.72025
1.57906
1.47275
1.4288
1.4501
18.055
41.1649
44.2327
18.5283
20.1888
26.84
27.1663
28.863
53.0396
222.952
1.78125
1.76576
1.74842
1.70946
1.64467
1.56045
1.45854
1.40892
1.37846
1.22146
20.6531
63.1108
64.7668
63.9368
26.9663
27.3377
28.1569
89.8783
236.618
1.62131
1.61878
1.61182
1.58707
1.55108
1.51374
1.47331
1.42765
1.33904
1.20992
1.14857
4.2815
44.5882
64.4046
63.1699
37.8913
29.0422
45.3744
174.375
1.44875
1.48327
1.48719
1.47768
1.46535
1.45934
1.45753
1.44278
1.41053
1.25768
1.11158
1.114
2.03283
18.53
38.8362
34.0857
33.1256
119.965
28.5198
1.30164
1.3559
1.36981
1.37145
1.37027
1.37911
1.39978
1.38303
1.68091
2.3281
3.59658
5.25352
3.1277
3.94219
18.0751
90.0875
123.397
124.149
26.9394
1.17713
1.23426
1.25341
1.25945
1.25672
1.26045
1.26413
1.21932
1.1646
1.64351
42.6407
100.388
100.444
101.259
103.156
103.826
91.8115
8.07465
0.31173
1.06432
1.11729
1.13784
1.14197
1.13395
1.11837
1.09341
1.01411
0.853368
6.27329
57.0163
80.1123
86.2266
83.3528
50.932
25.005
0.376882
0.157369
0.226847
0.962248
1.00981
1.02948
1.02979
1.01379
0.978807
0.91106
0.800692
1.25252
3.57322
-0.365376
-0.107496
-0.000915313
0.0533328
0.0989673
0.135856
0.212277
0.297581
0.52232
0.873011
0.915698
0.932981
0.930481
0.909673
0.866532
0.783387
0.62636
0.455503
0.306902
0.381837
0.267661
0.0660027
0.1006
0.111504
0.167489
0.280153
0.341334
0.531714
0.796208
0.83315
0.848277
0.845109
0.824022
0.781487
0.709131
0.585248
0.375634
0.150928
0.0777886
0.0890922
0.141668
0.157626
0.157662
0.199993
0.297022
0.228814
0.348232
0.727027
0.759012
0.772517
0.769544
0.750414
0.723947
0.673069
0.573273
0.432668
0.280413
0.182695
0.163847
0.184509
0.194397
0.19539
0.191609
0.320354
0.230172
0.255468
0.662459
0.690454
0.702136
0.698903
0.682279
0.671092
0.615149
0.522394
0.407591
0.29966
0.228633
0.209429
0.22342
0.230079
0.22619
0.219727
0.28406
0.238836
0.247574
0.601419
0.625793
0.63527
0.631286
0.614389
0.588216
0.547825
0.453058
0.358148
0.277993
0.236845
0.231315
0.241189
0.244804
0.240863
0.330816
0.244601
0.238156
0.246227
0.543354
0.564617
0.572121
0.567331
0.551314
0.522919
0.507215
0.465176
0.340815
0.274281
0.24579
0.242533
0.248348
0.24955
0.264948
0.338952
0.29381
0.252653
0.245818
0.488054
0.507151
0.513634
0.508811
0.494157
0.471905
0.486625
0.453857
0.3617
0.280794
0.256986
0.251834
0.252599
0.250681
0.283013
0.297587
0.280712
0.25583
0.24405
0.43567
0.453572
0.460119
0.456451
0.443982
0.423685
0.420452
0.433367
0.395777
0.348534
0.272527
0.261752
0.273818
0.285638
0.303629
0.268858
0.239473
0.238254
0.23991
0.386461
0.403869
0.411151
0.40945
0.399966
0.383757
0.362046
0.353846
0.388231
0.3665
0.349777
0.334893
0.323766
0.31295
0.303839
0.264828
0.232302
0.231736
0.233178
0.340679
0.358035
0.366332
0.366766
0.360491
0.348512
0.332243
0.313575
0.295616
0.301501
0.340913
0.331272
0.300286
0.25523
0.22927
0.226237
0.224626
0.223737
0.224276
0.298585
0.316079
0.325399
0.327785
0.324404
0.316365
0.304741
0.291001
0.277104
0.264052
0.253245
0.243807
0.234358
0.227386
0.222071
0.218233
0.215544
0.214363
0.213842
0.260383
0.277965
0.288129
0.292126
0.291065
0.285947
0.277761
0.267624
0.256898
0.246675
0.237663
0.229465
0.222312
0.216174
0.21113
0.207263
0.204922
0.203124
0.202174
0.226146
0.243549
0.254241
0.259448
0.260194
0.257385
0.251898
0.244652
0.236611
0.228585
0.22107
0.214148
0.208009
0.202667
0.198212
0.194688
0.192534
0.190699
0.189485
0.195783
0.212602
0.223432
0.229424
0.231491
0.230434
0.227003
0.221942
0.21598
0.209736
0.203638
0.197878
0.192687
0.188102
0.18423
0.181111
0.178755
0.176941
0.176159
0.169032
0.184814
0.195386
0.201764
0.204721
0.204942
0.203056
0.199665
0.195338
0.190565
0.18572
0.180997
0.176682
0.17281
0.169498
0.166786
0.164625
0.163151
0.162363
0.145462
0.159813
0.169789
0.176209
0.179694
0.180805
0.180055
0.177932
0.174888
0.171324
0.167563
0.163728
0.160214
0.156996
0.154211
0.151893
0.150074
0.148815
0.148104
0.124512
0.137188
0.146322
0.152518
0.156239
0.157923
0.157981
0.156804
0.154754
0.152156
0.149276
0.146275
0.143439
0.140803
0.1385
0.136553
0.135045
0.133983
0.133412
0.105571
0.11652
0.124679
0.130461
0.134187
0.13619
0.136789
0.136294
0.134997
0.133162
0.131009
0.128705
0.126458
0.124331
0.122463
0.120853
0.119627
0.118731
0.118298
0.0881101
0.0974325
0.104575
0.109815
0.11337
0.115486
0.116409
0.116383
0.115641
0.114395
0.112829
0.111096
0.109354
0.107657
0.106179
0.10487
0.103901
0.103136
0.102816
0.0717561
0.0796174
0.0857472
0.0903582
0.0936077
0.0956755
0.0967493
0.0970189
0.0966676
0.095866
0.0947647
0.0934966
0.0921936
0.0908189
0.0897115
0.088662
0.0879569
0.0872479
0.0870399
0.0563287
0.062834
0.0679595
0.0718757
0.0747136
0.0766063
0.0776945
0.0781228
0.0780327
0.0775568
0.0768147
0.0759123
0.074939
0.0738983
0.0731418
0.0722436
0.0717884
0.071178
0.0710514
0.0418116
0.0469767
0.0510646
0.0542184
0.0565529
0.0581667
0.0591601
0.0596382
0.0597049
0.0594591
0.058991
0.0583817
0.0577006
0.0569921
0.0564348
0.0556551
0.0554424
0.0549571
0.0549098
0.0282358
0.0319784
0.0349544
0.0372778
0.0390309
0.0402827
0.0410959
0.0415385
0.0416804
0.0415888
0.0413268
0.0409518
0.0405145
0.0400566
0.03967
0.0391227
0.03901
0.0386583
0.0386837
0.0153649
0.0175654
0.0193551
0.0207947
0.021917
0.0227551
0.0233343
0.0236871
0.0238504
0.0238623
0.0237594
0.0235765
0.0233457
0.0230947
0.0228727
0.0225551
0.0225149
0.0222935
0.022378
0.00260622
0.00316591
0.00371726
0.00425237
0.00472636
0.00513453
0.00546336
0.00570867
0.00587444
0.00596936
0.00600515
0.00599485
0.0059516
0.00588881
0.00582661
0.00572513
0.00574398
0.00564609
0.00584601
)
;

boundaryField
{
    leftWall
    {
        type            fixedFluxPressure;
        gradient        uniform 0;
        value           nonuniform List<scalar> 
50
(
1195.92
1196.2
1197.44
1199.95
1203.23
1206.36
1178.19
1053.29
1048.61
1146.16
1218.94
1175.96
895.204
282.302
71.9087
42.7056
40.4717
39.8882
40.1337
40.4032
35.9371
50.7733
273.886
351.61
369.661
387.396
405.435
423.103
439.787
453.304
226.456
11.3239
10.9708
10.497
8.22102
3.73025
0.648044
-0.837607
-0.725471
-0.0963913
7.6645
11.4941
1.77958
0.351176
-0.340613
-0.251271
-0.188566
-0.149394
-0.124387
-0.104111
)
;
    }
    rightWall
    {
        type            fixedFluxPressure;
        gradient        uniform 0;
        value           nonuniform List<scalar> 
50
(
509.908
496.879
432.446
411.002
397.714
383.487
397.935
326.095
260.561
264.861
258.278
206.747
34.5599
27.307
80.4447
192.797
209.148
222.952
236.618
174.375
28.5198
26.9394
0.31173
0.226847
0.52232
0.531714
0.348232
0.255468
0.247574
0.246227
0.245818
0.24405
0.23991
0.233178
0.224276
0.213842
0.202174
0.189485
0.176159
0.162363
0.148104
0.133412
0.118298
0.102816
0.0870399
0.0710514
0.0549098
0.0386837
0.022378
0.00584601
)
;
    }
    lowerWall
    {
        type            fixedFluxPressure;
        gradient        uniform 0;
        value           nonuniform List<scalar> 
62
(
1195.92
1188.35
1165.08
1133.67
1098.93
1063.22
1032.33
1009.14
990.89
974.282
957.025
938.793
920.023
902.129
887.144
866.678
842.46
826.175
814.307
802.515
793.355
787.304
784.514
784.514
783.791
782.028
779.038
774.755
769.334
762.727
752.835
729.116
724.718
716.202
701.113
595.859
594.853
594.948
596.27
599.005
604.677
612.554
624.375
595.859
573.972
548.235
515.375
500.938
516.777
517.136
495.507
491.698
511.092
536.997
537.596
511.518
472.007
470.484
524.681
563.709
541.865
509.908
)
;
    }
    atmosphere
    {
        type            totalPressure;
        rho             rho;
        psi             none;
        gamma           1;
        p0              uniform 0;
        value           nonuniform List<scalar> 
46
(
-0.0951262
-0.0968954
-0.0956372
-0.101489
-0.10759
-0.11798
-0.584498
-0.355263
0
0
0
0
0
-0.0218775
-0.01149
-0.00289162
-0.000180306
0
0
-4.54861e-05
-0.00042038
-0.0011195
-0.00196183
-0.00256261
-0.00291685
-0.00323735
-0.00351513
-0.00390179
-0.0041908
-0.00427036
-0.00419997
-0.00404335
-0.00384754
-0.00364293
-0.00345177
-0.00328654
-0.00315298
-0.00305191
-0.00298089
-0.00293538
-0.00290904
-0.0028937
-0.00289192
-0.00285479
-0.00290043
-0.00257612
)
;
    }
    defaultFaces
    {
        type            empty;
    }
}


// ************************************************************************* //
