/*--------------------------------*- C++ -*----------------------------------*\
| =========                 |                                                 |
| \\      /  F ield         | OpenFOAM: The Open Source CFD Toolbox           |
|  \\    /   O peration     | Version:  2.3.0                                 |
|   \\  /    A nd           | Web:      www.OpenFOAM.org                      |
|    \\/     M anipulation  |                                                 |
\*---------------------------------------------------------------------------*/
FoamFile
{
    version     2.0;
    format      ascii;
    class       surfaceScalarField;
    location    "1.3";
    object      phi;
}
// * * * * * * * * * * * * * * * * * * * * * * * * * * * * * * * * * * * * * //

dimensions      [0 3 -1 0 0 0 0];

internalField   nonuniform List<scalar> 
4432
(
5.56448e-06
-5.56448e-06
1.22443e-05
-6.67978e-06
1.58875e-05
-3.64325e-06
1.49804e-05
9.07062e-07
1.19482e-05
3.03221e-06
1.04995e-05
1.44876e-06
1.20273e-05
-1.52783e-06
1.53719e-05
-3.34462e-06
1.93208e-05
-3.9489e-06
2.2945e-05
-3.62413e-06
2.59249e-05
-2.97996e-06
2.85563e-05
-2.63137e-06
2.95276e-05
-9.7131e-07
2.62659e-05
3.26172e-06
1.86106e-05
7.65526e-06
9.88976e-06
8.72089e-06
6.4293e-06
3.46046e-06
6.91363e-06
-4.84336e-07
6.50873e-06
4.04903e-07
4.34704e-06
2.16168e-06
2.43868e-06
1.90836e-06
1.25335e-06
1.18534e-06
1.25335e-06
3.61552e-06
-9.18e-06
8.80039e-06
-1.18646e-05
1.30258e-05
-7.86864e-06
1.30014e-05
9.31465e-07
1.04661e-05
5.56745e-06
9.19028e-06
2.72462e-06
1.04321e-05
-2.76962e-06
1.39573e-05
-6.86989e-06
1.83284e-05
-8.32e-06
2.21895e-05
-7.48523e-06
2.50594e-05
-5.84977e-06
2.69441e-05
-4.51608e-06
2.82231e-05
-2.25038e-06
2.81694e-05
3.31549e-06
2.25674e-05
1.32572e-05
1.46795e-05
1.66088e-05
1.14936e-05
6.64635e-06
1.17003e-05
-6.91032e-07
1.11302e-05
9.7502e-07
8.57473e-06
4.71717e-06
5.14249e-06
5.34061e-06
2.39104e-06
3.9368e-06
3.64439e-06
2.58428e-06
-1.17643e-05
6.31106e-06
-1.55914e-05
9.54796e-06
-1.11055e-05
1.02945e-05
1.84936e-07
9.20251e-06
6.65943e-06
8.4092e-06
3.51792e-06
9.24629e-06
-3.60671e-06
1.2433e-05
-1.00566e-05
1.71041e-05
-1.29911e-05
2.18226e-05
-1.22038e-05
2.52046e-05
-9.23173e-06
2.62924e-05
-5.60394e-06
2.53342e-05
-1.29213e-06
2.33704e-05
5.27931e-06
2.00181e-05
1.66095e-05
1.70423e-05
1.95846e-05
1.60986e-05
7.58998e-06
1.54689e-05
-6.12568e-08
1.35488e-05
2.89502e-06
1.0446e-05
7.82e-06
6.51997e-06
9.26667e-06
3.01218e-06
7.4446e-06
6.65658e-06
3.22932e-06
-1.49936e-05
6.9248e-06
-1.92869e-05
9.41276e-06
-1.35935e-05
1.0756e-05
-1.15826e-06
1.06135e-05
6.80189e-06
9.8127e-06
4.31872e-06
1.00295e-05
-3.82355e-06
1.23066e-05
-1.23336e-05
1.6453e-05
-1.71376e-05
2.14203e-05
-1.7171e-05
2.53587e-05
-1.31701e-05
2.67604e-05
-7.00568e-06
2.52441e-05
2.24174e-07
2.17919e-05
8.73157e-06
1.97445e-05
1.86568e-05
2.03203e-05
1.90089e-05
2.06483e-05
7.26193e-06
1.89134e-05
1.67369e-06
1.53481e-05
6.46033e-06
1.12221e-05
1.1946e-05
6.93348e-06
1.35553e-05
3.16779e-06
1.12103e-05
9.82437e-06
4.40648e-06
-1.94001e-05
9.81118e-06
-2.46916e-05
1.27349e-05
-1.65173e-05
1.412e-05
-2.54333e-06
1.42062e-05
6.71569e-06
1.3209e-05
5.31598e-06
1.28048e-05
-3.41938e-06
1.39756e-05
-1.35044e-05
1.70575e-05
-2.02195e-05
2.1572e-05
-2.16855e-05
2.57116e-05
-1.73097e-05
2.76934e-05
-8.98755e-06
2.70044e-05
9.13174e-07
2.44395e-05
1.12965e-05
2.34585e-05
1.96378e-05
2.48592e-05
1.76081e-05
2.46917e-05
7.42942e-06
2.13917e-05
4.97374e-06
1.62886e-05
1.15634e-05
1.12932e-05
1.69413e-05
6.79609e-06
1.80524e-05
3.08005e-06
1.49263e-05
1.29044e-05
4.80158e-06
-2.42017e-05
1.27748e-05
-3.26649e-05
1.78071e-05
-2.15495e-05
1.94806e-05
-4.21686e-06
1.91586e-05
7.03765e-06
1.7896e-05
6.57862e-06
1.68514e-05
-2.37482e-06
1.6739e-05
-1.3392e-05
1.86487e-05
-2.21293e-05
2.2672e-05
-2.57087e-05
2.67469e-05
-2.13846e-05
2.91026e-05
-1.13432e-05
2.94017e-05
6.14048e-07
2.8498e-05
1.22003e-05
2.83917e-05
1.9744e-05
2.902e-05
1.69798e-05
2.71789e-05
9.27053e-06
2.19314e-05
1.02213e-05
1.56064e-05
1.78884e-05
1.02904e-05
2.22574e-05
5.88763e-06
2.24552e-05
2.54731e-06
1.82667e-05
1.54517e-05
5.65006e-06
-2.98517e-05
1.68243e-05
-4.38392e-05
2.35683e-05
-2.82935e-05
2.59603e-05
-6.60876e-06
2.51956e-05
7.8023e-06
2.30408e-05
8.73343e-06
2.08268e-05
-1.608e-07
1.93019e-05
-1.18671e-05
2.04114e-05
-2.32387e-05
2.47755e-05
-3.00727e-05
2.92973e-05
-2.59065e-05
3.15247e-05
-1.35706e-05
3.18525e-05
2.86243e-07
3.16029e-05
1.245e-05
3.16875e-05
1.96595e-05
3.10821e-05
1.75852e-05
2.69792e-05
1.33735e-05
1.98991e-05
1.73014e-05
1.35042e-05
2.42833e-05
8.81375e-06
2.69478e-05
4.93836e-06
2.63306e-05
1.9256e-06
2.12794e-05
1.73773e-05
9.2319e-06
-3.90836e-05
2.5338e-05
-5.99453e-05
3.25878e-05
-3.55433e-05
3.214e-05
-6.16098e-06
3.0577e-05
9.36532e-06
2.70616e-05
1.22488e-05
2.29961e-05
3.90475e-06
2.05055e-05
-9.3765e-06
2.17788e-05
-2.45121e-05
2.76892e-05
-3.59831e-05
3.37999e-05
-3.20172e-05
3.65754e-05
-1.63461e-05
3.62208e-05
6.40831e-07
3.51511e-05
1.35197e-05
3.42921e-05
2.05185e-05
3.11375e-05
2.07397e-05
2.3524e-05
2.0987e-05
1.48291e-05
2.59963e-05
8.75525e-06
3.03572e-05
5.52884e-06
3.01742e-05
4.30429e-06
2.75551e-05
2.93765e-06
2.26461e-05
2.0315e-05
1.10424e-05
-1.10424e-05
1.75061e-05
-6.46368e-06
1.18417e-05
5.66436e-06
2.4999e-06
9.34183e-06
4.38677e-06
-1.88688e-06
1.65811e-05
-1.21943e-05
3.09566e-05
-1.43755e-05
4.14682e-05
-1.05116e-05
5.09662e-05
-9.49801e-06
6.17821e-05
-1.08159e-05
6.50119e-05
-3.22976e-06
4.77994e-05
1.72125e-05
2.24495e-05
2.53499e-05
7.58361e-06
1.48659e-05
9.23482e-06
-1.65121e-06
1.93587e-05
-1.01239e-05
2.03388e-05
-9.80145e-07
8.07296e-06
1.22659e-05
8.07295e-06
8.8237e-06
-1.98661e-05
1.5162e-05
-1.28019e-05
1.33969e-05
7.42943e-06
1.2234e-05
1.05047e-05
1.60314e-05
-5.68423e-06
2.23411e-05
-1.85041e-05
2.77314e-05
-1.97658e-05
3.11875e-05
-1.39677e-05
3.47431e-05
-1.30536e-05
4.50175e-05
-2.10903e-05
6.49952e-05
-2.32075e-05
7.58953e-05
6.31242e-06
6.45346e-05
3.67105e-05
4.20923e-05
3.73083e-05
2.73708e-05
1.30702e-05
2.73928e-05
-1.01459e-05
2.98952e-05
-3.48248e-06
1.7747e-05
2.4414e-05
2.582e-05
6.90164e-06
-2.67677e-05
9.54717e-06
-1.54475e-05
1.27755e-05
4.20112e-06
1.95098e-05
3.77043e-06
2.10969e-05
-7.27142e-06
1.64831e-05
-1.38902e-05
1.00227e-05
-1.33054e-05
5.98687e-06
-9.93194e-06
6.02901e-06
-1.30957e-05
1.4957e-05
-3.00183e-05
3.96364e-05
-4.78868e-05
6.70701e-05
-2.11213e-05
7.75973e-05
2.61834e-05
6.77811e-05
4.71244e-05
5.07233e-05
3.0128e-05
3.92068e-05
1.37068e-06
3.582e-05
-9.5685e-08
2.50646e-05
3.51694e-05
5.08846e-05
5.84419e-06
-3.26119e-05
7.80552e-06
-1.74088e-05
1.5601e-05
-3.59438e-06
2.34027e-05
-4.03129e-06
1.9562e-05
-3.43072e-06
5.16543e-06
5.06387e-07
-9.78738e-06
1.64746e-06
-1.70798e-05
-2.63952e-06
-1.81738e-05
-1.20018e-05
-8.82199e-06
-3.93701e-05
1.60958e-05
-7.28046e-05
4.76661e-05
-5.26916e-05
6.99456e-05
3.9039e-06
7.38814e-05
4.31886e-05
6.28677e-05
4.11416e-05
4.87794e-05
1.5459e-05
3.94888e-05
9.19493e-06
2.36662e-05
5.09921e-05
7.45508e-05
3.96326e-06
-3.65752e-05
7.58126e-06
-2.10268e-05
1.48145e-05
-1.08276e-05
1.94273e-05
-8.64412e-06
1.30936e-05
2.90297e-06
-4.60941e-06
1.82094e-05
-1.81808e-05
1.52189e-05
-2.23467e-05
1.52642e-06
-2.46943e-05
-9.65419e-06
-1.873e-05
-4.53344e-05
1.09461e-06
-9.26292e-05
3.03715e-05
-8.19685e-05
5.42904e-05
-2.00151e-05
6.6438e-05
3.10411e-05
6.25875e-05
4.49921e-05
5.08918e-05
2.71547e-05
3.95233e-05
2.05635e-05
1.77527e-05
7.27627e-05
9.23035e-05
-2.08824e-06
-3.44869e-05
3.27268e-07
-2.34423e-05
2.48894e-06
-1.29893e-05
7.95306e-06
-1.41082e-05
8.77965e-06
2.07638e-06
-4.115e-06
3.11041e-05
-4.98873e-06
1.60926e-05
5.9704e-06
-9.43272e-06
2.06785e-06
-5.75165e-06
-8.4517e-06
-3.48148e-05
-4.80941e-06
-9.62715e-05
1.76684e-05
-0.000104446
3.86563e-05
-4.1003e-05
5.33695e-05
1.63278e-05
5.46435e-05
4.37181e-05
4.52599e-05
3.65383e-05
2.60982e-05
3.97251e-05
-6.68744e-07
9.95297e-05
9.16347e-05
-6.5005e-06
-2.79864e-05
-9.55154e-06
-2.03913e-05
-1.09672e-05
-1.15736e-05
-9.99225e-06
-1.50832e-05
2.98526e-06
-1.09011e-05
6.06812e-06
2.80212e-05
1.62475e-05
5.91323e-06
3.53335e-05
-2.85188e-05
3.7364e-05
-7.78212e-06
1.66752e-05
-1.41261e-05
-2.82906e-06
-7.67672e-05
8.30691e-06
-0.000115582
2.52804e-05
-5.79765e-05
3.98114e-05
1.79678e-06
4.41514e-05
3.93781e-05
3.45394e-05
4.61504e-05
8.1035e-06
6.6161e-05
-1.40637e-05
0.000121697
7.7571e-05
-2.55539e-06
-2.5431e-05
-5.97169e-06
-1.6975e-05
-1.48598e-05
-2.68558e-06
-2.68742e-05
-3.06876e-06
-9.8319e-06
-2.79434e-05
1.76012e-05
5.88096e-07
3.44669e-05
-1.09525e-05
4.69333e-05
-4.09851e-05
4.99173e-05
-1.07662e-05
3.20165e-05
3.77474e-06
2.6735e-06
-4.74242e-05
5.11292e-07
-0.00011342
1.40976e-05
-7.15627e-05
2.89871e-05
-1.30927e-05
3.49714e-05
3.33938e-05
2.40198e-05
5.71021e-05
-2.28695e-06
9.24677e-05
-1.32248e-05
0.000132635
6.43462e-05
2.562e-05
-6.47037e-05
6.63619e-05
-0.000100687
0.000100714
-6.98955e-05
0.000101275
-6.72226e-06
7.43356e-05
3.63051e-05
5.67768e-05
2.98075e-05
4.98302e-05
1.08514e-05
4.66265e-05
-6.17286e-06
5.22509e-05
-3.01364e-05
7.02771e-05
-5.40093e-05
8.69402e-05
-4.86803e-05
9.34176e-05
-2.28235e-05
9.31155e-05
9.42857e-07
8.54946e-05
2.11406e-05
7.24011e-05
3.3612e-05
5.10713e-05
4.20696e-05
2.67103e-05
4.5348e-05
5.60804e-06
4.70986e-05
-7.4594e-06
4.34246e-05
-1.1831e-05
3.45459e-05
-6.51389e-06
2.2238e-05
5.50232e-06
1.06299e-05
2.3392e-06
2.34781e-05
2.05078e-05
-8.52115e-05
4.04017e-05
-0.000120581
8.62449e-05
-0.000115739
0.000132316
-5.27936e-05
0.000134289
3.43321e-05
0.000101864
6.22328e-05
7.32038e-05
3.95115e-05
6.0351e-05
6.67991e-06
6.77446e-05
-3.75301e-05
8.52798e-05
-7.15445e-05
9.61736e-05
-5.95741e-05
9.39906e-05
-2.06405e-05
8.31621e-05
1.17713e-05
6.97407e-05
3.4562e-05
5.09598e-05
5.23929e-05
2.49407e-05
6.80887e-05
-5.39152e-07
7.08278e-05
-1.72366e-05
6.3796e-05
-2.85852e-05
5.47732e-05
-3.33726e-05
3.93333e-05
-2.7233e-05
1.60984e-05
-1.74345e-05
8.31296e-07
-5.80531e-06
-9.28998e-06
5.09317e-06
-9.03047e-05
5.59698e-06
-0.000121085
2.62115e-05
-0.000136353
7.32047e-05
-9.97868e-05
0.000128753
-2.12157e-05
0.000145241
4.57446e-05
0.000130394
5.43579e-05
0.000110412
2.66618e-05
9.71135e-05
-2.42311e-05
8.22322e-05
-5.66632e-05
5.15692e-05
-2.8911e-05
2.85942e-05
2.33445e-06
1.40425e-05
2.63231e-05
1.7667e-06
4.68377e-05
-1.12073e-05
6.53669e-05
-2.2503e-05
7.93843e-05
-3.34815e-05
8.18064e-05
-5.23431e-05
8.26576e-05
-6.40223e-05
6.64525e-05
-5.67371e-05
3.2048e-05
-5.07109e-05
1.00721e-05
-5.13986e-05
1.51901e-06
-2.61132e-05
-3.10907e-05
-8.70445e-06
-8.16002e-05
-2.10124e-05
-0.000108777
-2.1709e-05
-0.000135657
-2.85301e-06
-0.000118643
3.88862e-05
-6.2955e-05
8.65854e-05
-1.95457e-06
0.000102455
3.84885e-05
0.000103339
2.57779e-05
8.45677e-05
-5.46006e-06
3.14677e-05
-3.56324e-06
-4.12129e-05
4.37696e-05
-7.02112e-05
3.13328e-05
-7.09591e-05
2.7071e-05
-6.40247e-05
3.99033e-05
-7.58637e-05
7.72059e-05
-0.000122481
0.000126002
-0.000196495
0.00015582
-0.000221133
0.000107295
-0.000195154
4.04736e-05
-0.000145732
-1.73735e-05
-0.000103685
-3.19748e-05
-9.02754e-05
-1.1891e-05
-6.18671e-06
-0.000110202
-1.33886e-05
-6.82116e-05
-3.25241e-05
-8.96412e-05
-4.77041e-05
-0.000120477
-4.74507e-05
-0.000118896
-2.33849e-05
-8.70208e-05
1.24224e-05
-3.77618e-05
4.97928e-05
1.11809e-06
6.79508e-05
7.6199e-06
5.01317e-05
1.23591e-05
4.16315e-06
4.24053e-05
-5.94286e-05
0.000107361
-8.49909e-05
5.68951e-05
-8.81218e-05
3.02019e-05
-0.00010634
5.81215e-05
-0.000145622
0.000116488
-0.000196638
0.000177017
-0.00022399
0.000183172
-0.000229641
0.000112946
-0.000210082
2.09145e-05
-0.000191002
-3.64538e-05
-0.000166817
-5.61597e-05
-0.000132617
-4.60908e-05
-3.12662e-05
-0.000107538
-9.94761e-06
-5.8264e-05
-1.53431e-05
-8.42457e-05
-3.8014e-05
-9.78058e-05
-5.5127e-05
-0.000101783
-4.93709e-05
-9.2777e-05
-2.33146e-05
-6.38182e-05
1.86429e-06
-2.40608e-05
3.90339e-06
5.58078e-06
-9.51003e-06
2.57725e-05
9.38679e-06
2.35085e-05
7.05071e-07
0.000116043
1.5907e-05
4.16931e-05
2.83899e-06
4.32697e-05
-3.23046e-05
9.32657e-05
-4.82302e-05
0.000132414
-4.16639e-05
0.000170451
-4.45581e-05
0.000186067
-7.46836e-05
0.000143072
-0.000105932
5.21626e-05
-0.000115749
-2.6637e-05
-0.000131696
-4.02123e-05
-0.000120147
-5.76392e-05
-6.22511e-05
-8.91625e-05
-9.15209e-06
-4.9112e-05
2.35713e-05
-0.000116969
1.84636e-05
-9.26981e-05
-1.41851e-05
-6.91344e-05
-4.12765e-05
-6.56855e-05
-4.69295e-05
-5.81652e-05
-3.88497e-05
-3.21405e-05
-2.27279e-05
-1.0541e-05
2.78547e-05
-2.48101e-05
3.48354e-05
1.65279e-05
3.17732e-05
0.000119105
1.98589e-05
5.36072e-05
3.56079e-05
2.75208e-05
7.27329e-05
5.61414e-05
0.000110152
9.49949e-05
0.000160561
0.000120041
0.00020658
0.000140049
0.000209777
0.000139875
0.000158439
0.000103501
7.93949e-05
5.24069e-05
1.18663e-05
2.73163e-05
-2.22315e-05
-2.35413e-05
-5.16064e-05
-3.28762e-05
6.15851e-08
-4.91735e-05
6.77657e-05
-0.000184673
8.30436e-05
-0.000107976
5.77613e-05
-4.38521e-05
4.29636e-05
-5.08878e-05
4.4327e-05
-5.95287e-05
7.06557e-05
-5.84692e-05
0.000126668
-6.65533e-05
0.000192043
-9.01846e-05
0.000239259
-3.06887e-05
0.00024301
0.000115355
0.000162453
0.000134164
0.000122609
6.73647e-05
0.000152868
2.58824e-05
0.000230194
1.76689e-05
0.000312367
3.78683e-05
0.000368208
8.42069e-05
0.000382348
0.000125735
0.000349642
0.000136207
0.000293467
0.000108582
0.000244783
7.60004e-05
0.000179688
4.1554e-05
1.5878e-05
0.000112204
4.00358e-05
-8.92094e-05
8.09086e-05
-0.000225546
0.000133574
-0.000160641
0.000106232
-1.651e-05
6.69594e-05
-1.16154e-05
8.73638e-05
-7.99331e-05
0.000125258
-9.63634e-05
0.000152163
-9.34582e-05
0.000155254
-9.32759e-05
0.000190867
-6.63017e-05
0.000229864
7.63581e-05
0.00024151
0.000122518
0.000249464
5.94101e-05
0.000285314
-9.96719e-06
0.000344468
-4.14851e-05
0.000416118
-3.37809e-05
0.000478548
2.17767e-05
0.000498332
0.000105951
0.000458866
0.000175673
0.000381149
0.000186299
0.000308486
0.000148663
0.000253511
9.65293e-05
5.77431e-05
0.000211646
6.08572e-05
-0.000150067
7.7742e-05
-0.000242431
0.000138683
-0.000221582
0.000210419
-8.82459e-05
0.000110518
8.82856e-05
5.48494e-05
-2.42646e-05
0.000102476
-0.00014399
0.000125499
-0.000116481
0.000131314
-9.90913e-05
0.000144724
-7.97118e-05
0.000173417
4.76647e-05
0.000195802
0.000100134
0.000218933
3.62784e-05
0.000223125
-1.4159e-05
0.000226718
-4.50783e-05
0.000248059
-5.5122e-05
0.000307799
-3.7963e-05
0.000385357
2.83932e-05
0.000419393
0.000141637
0.000375854
0.000229838
0.00030463
0.000219888
0.000239458
0.000161701
0.000107454
0.000189747
5.42243e-05
-0.000204291
6.60993e-05
-0.000254306
8.28406e-05
-0.000238324
0.000160242
-0.000165648
0.000187943
6.05848e-05
0.000101493
6.21846e-05
8.27712e-05
-0.000125268
0.000107195
-0.000140905
9.12691e-05
-8.31657e-05
6.9309e-05
-5.77516e-05
8.54727e-05
3.15009e-05
0.000125093
6.05139e-05
0.000148538
1.28338e-05
0.000160233
-2.58543e-05
0.000171976
-5.68214e-05
0.00018946
-7.2606e-05
0.00021547
-6.39729e-05
0.000253961
-1.00975e-05
0.000296655
9.89425e-05
0.000291929
0.000234564
0.000249767
0.00026205
0.000199558
0.000211911
0.000147646
0.000159366
4.55795e-05
-0.00024987
6.35254e-05
-0.000272252
5.87733e-05
-0.000233571
9.20868e-05
-0.000198961
0.000175881
-2.32084e-05
0.000193367
4.46984e-05
0.00011759
-4.9491e-05
9.05348e-05
-0.000113849
7.90714e-05
-7.17024e-05
5.98903e-05
-3.85706e-05
7.56237e-05
1.57675e-05
0.000114236
2.19018e-05
0.000135116
-8.04635e-06
0.000139889
-3.06275e-05
0.000150928
-6.78603e-05
0.000171302
-9.29793e-05
0.000190267
-8.29385e-05
0.000194779
-1.46096e-05
0.000194637
9.9085e-05
0.000191565
0.000237636
0.000175505
0.00027811
0.000153495
0.00023392
0.000169762
0.000131379
3.54054e-05
-0.000285275
6.89043e-05
-0.000305751
5.00418e-05
-0.000214709
3.93396e-05
-0.000188259
0.000107494
-9.13625e-05
0.000164109
-1.19172e-05
0.000118104
-3.4864e-06
8.42848e-05
-8.00302e-05
9.24126e-05
-7.98303e-05
9.17904e-05
-3.79483e-05
0.000109066
-1.50763e-06
0.000117766
1.32016e-05
0.00012988
-2.01607e-05
0.000147779
-4.85266e-05
0.000153935
-7.40164e-05
0.000145214
-8.42587e-05
0.000129018
-6.67421e-05
0.000111927
2.48081e-06
9.59197e-05
0.000115093
0.000100416
0.000233139
0.000111124
0.000267402
0.000115797
0.000229247
0.000174069
0.00011149
3.75517e-05
-0.000322827
6.96584e-05
-0.000337858
4.34898e-05
-0.00018854
1.80542e-05
-0.000162823
4.17834e-05
-0.000115091
8.45525e-05
-5.46866e-05
8.98991e-05
-8.833e-06
4.52833e-05
-3.54145e-05
8.60073e-05
-0.000120554
0.00010545
-5.73906e-05
0.000123585
-1.96434e-05
0.000135623
1.16404e-06
0.000142894
-2.74321e-05
0.000150783
-5.64153e-05
0.000136484
-5.9718e-05
9.9649e-05
-4.74239e-05
5.88848e-05
-2.5978e-05
2.9203e-05
3.21625e-05
1.8195e-05
0.000126101
3.8919e-05
0.000212415
7.01927e-05
0.000236128
9.08401e-05
0.000208599
0.000168993
9.59156e-05
1.2831e-05
-0.000335658
-6.96777e-06
-0.000318059
-1.97106e-05
-0.000175798
-3.83067e-05
-0.000144227
-3.18239e-05
-0.000121574
4.0171e-06
-9.05275e-05
4.10593e-05
-4.5875e-05
4.76678e-05
-4.20229e-05
2.29667e-05
-9.58533e-05
6.18467e-05
-9.62705e-05
7.39224e-05
-3.1719e-05
8.50894e-05
-1.00032e-05
9.02983e-05
-3.26412e-05
8.76616e-05
-5.37786e-05
7.4447e-05
-4.65035e-05
4.84097e-05
-2.13868e-05
1.13984e-05
1.10331e-05
-1.50483e-05
5.8609e-05
-1.50919e-05
0.000126144
1.24577e-05
0.000184866
4.80877e-05
0.000200498
6.96143e-05
0.000187073
0.000164808
7.37997e-05
-5.43917e-06
-0.000330219
-8.13556e-05
-0.000242143
-8.60879e-05
-0.000171065
-9.18341e-05
-0.000138481
-9.60271e-05
-0.000117381
-9.39809e-05
-9.25734e-05
-7.37144e-05
-6.61413e-05
-5.46379e-05
-6.10994e-05
-7.36171e-05
-7.68739e-05
-9.70718e-05
-7.28158e-05
-8.43185e-05
-4.44724e-05
-4.68779e-05
-4.74438e-05
-2.22201e-05
-5.72989e-05
-1.59326e-05
-6.0066e-05
-1.65656e-05
-4.58705e-05
-2.28757e-05
-1.50768e-05
-3.60786e-05
2.42359e-05
-4.45688e-05
6.70991e-05
-3.42383e-05
0.000115814
-6.32842e-06
0.000156956
2.05222e-05
0.000173647
3.4017e-05
0.000173578
0.000165361
3.34642e-05
-1.41337e-05
-0.000316085
-7.56099e-05
-0.000180667
-8.64754e-05
-0.0001602
-0.000106631
-0.000118325
-0.000122508
-0.000101504
-0.000133836
-8.12458e-05
-0.000134935
-6.50423e-05
-0.000134982
-6.10524e-05
-0.000147307
-6.4549e-05
-0.000157485
-6.26377e-05
-0.000144555
-5.74024e-05
-0.000131077
-6.09219e-05
-0.000122481
-6.5894e-05
-0.000118151
-6.43969e-05
-0.00011392
-5.01012e-05
-0.000107973
-2.10239e-05
-0.000101779
1.80413e-05
-9.36814e-05
5.90018e-05
-7.74833e-05
9.9616e-05
-5.46005e-05
0.000134073
-3.57365e-05
0.000154783
-2.55646e-05
0.000163406
0.000162738
-2.2942e-05
-1.18453e-05
-0.00030424
-3.22311e-05
-0.000160281
-5.86533e-05
-0.000133778
-9.37344e-05
-8.32445e-05
-0.000119767
-7.54706e-05
-0.00013962
-6.13933e-05
-0.000152831
-5.18309e-05
-0.000165062
-4.88216e-05
-0.000180096
-4.95154e-05
-0.000192193
-5.05399e-05
-0.000196408
-5.31879e-05
-0.000198704
-5.86254e-05
-0.000201505
-6.30935e-05
-0.000203968
-6.19339e-05
-0.000203185
-5.08848e-05
-0.000196499
-2.771e-05
-0.000184817
6.35978e-06
-0.000169193
4.33778e-05
-0.00014986
8.02824e-05
-0.000127979
0.000112192
-0.000107506
0.000134311
-8.95085e-05
0.000145408
0.000145965
-7.27353e-05
-9.36709e-06
-0.000294873
-7.44139e-06
-0.000162207
-3.31896e-05
-0.000108029
-7.94067e-05
-3.70273e-05
-0.000112201
-4.26769e-05
-0.000139786
-3.3808e-05
-0.000162404
-2.92128e-05
-0.000181793
-2.94329e-05
-0.000198745
-3.25638e-05
-0.000212314
-3.69702e-05
-0.000222831
-4.26708e-05
-0.000232708
-4.8749e-05
-0.000242883
-5.29188e-05
-0.000252313
-5.25043e-05
-0.000258293
-4.49047e-05
-0.00025762
-2.83831e-05
-0.000248273
-2.98712e-06
-0.000232338
2.74432e-05
-0.000211032
5.89767e-05
-0.000185401
8.65609e-05
-0.000157271
0.000106181
-0.000127882
0.000116019
0.000116419
-9.83361e-05
-7.90429e-06
-0.000286969
6.78124e-06
-0.000176892
-2.23687e-05
-7.88795e-05
-7.04539e-05
1.10579e-05
-0.000107026
-6.1044e-06
-0.000139253
-1.58118e-06
-0.000165946
-2.52035e-06
-0.000188192
-7.18709e-06
-0.000205974
-1.47815e-05
-0.000219641
-2.33033e-05
-0.000230363
-3.19488e-05
-0.000239759
-3.93531e-05
-0.000248731
-4.39477e-05
-0.000257122
-4.41135e-05
-0.000263545
-3.84812e-05
-0.000265559
-2.63691e-05
-0.000260288
-8.25807e-06
-0.000246827
1.39819e-05
-0.000225738
3.78875e-05
-0.000198434
5.92567e-05
-0.000167276
7.5023e-05
-0.000135041
8.37836e-05
8.60306e-05
-0.000104652
-7.46153e-06
-0.000279507
1.20477e-05
-0.000196402
-7.14259e-06
-5.96892e-05
-6.03003e-05
6.42153e-05
-0.000103973
3.75679e-05
-0.00014188
3.6326e-05
-0.000172615
2.82142e-05
-0.000196869
1.70672e-05
-0.000214985
3.33415e-06
-0.00022749
-1.07979e-05
-0.000235604
-2.38353e-05
-0.000241007
-3.39503e-05
-0.000244769
-4.01858e-05
-0.000247177
-4.17051e-05
-0.00024773
-3.79286e-05
-0.000245307
-2.87921e-05
-0.000238515
-1.50501e-05
-0.000225736
1.20337e-06
-0.000206975
1.91265e-05
-0.000183051
3.53319e-05
-0.000156208
4.81803e-05
-0.000129122
5.66971e-05
6.11353e-05
-0.000104226
-7.28488e-06
-0.000272222
1.13103e-05
-0.000214997
-5.03231e-06
-4.33466e-05
-5.58231e-05
0.000115006
-0.000105725
8.74693e-05
-0.000149333
7.9934e-05
-0.000185428
6.43091e-05
-0.000213197
4.48369e-05
-0.000232283
2.24202e-05
-0.000243439
3.5756e-07
-0.000248244
-1.90304e-05
-0.000248668
-3.35258e-05
-0.00024647
-4.23847e-05
-0.000242627
-4.55475e-05
-0.00023714
-4.34155e-05
-0.000229385
-3.65474e-05
-0.000218623
-2.58125e-05
-0.000204798
-1.26212e-05
-0.000187172
1.50077e-06
-0.000166728
1.48871e-05
-0.000144734
2.61871e-05
-0.000122774
3.47363e-05
4.05606e-05
-0.000102199
-4.96924e-06
-0.000267253
8.75138e-06
-0.000228717
-1.06266e-05
-2.39687e-05
-5.62152e-05
0.000160594
-0.000108549
0.000139803
-0.000157207
0.000128592
-0.000199072
0.000106175
-0.000231338
7.7102e-05
-0.000252822
4.39042e-05
-0.000263789
1.13251e-05
-0.000265977
-1.68422e-05
-0.000261586
-3.79177e-05
-0.00025308
-5.08908e-05
-0.000242584
-5.60431e-05
-0.000231235
-5.47648e-05
-0.000219039
-4.87432e-05
-0.000205428
-3.94236e-05
-0.000190075
-2.79744e-05
-0.000172996
-1.55781e-05
-0.000154568
-3.54103e-06
-0.000135475
7.09466e-06
-0.000116582
1.58427e-05
2.26068e-05
-9.86281e-05
-1.35502e-05
-0.000253703
-6.58193e-06
-0.000235685
-2.94565e-05
-1.09412e-06
-5.57231e-05
0.000186861
-0.000105597
0.000189676
-0.000158295
0.000181291
-0.000205316
0.000153196
-0.000241839
0.000113624
-0.000266248
6.83138e-05
-0.000278695
2.37721e-05
-0.000280538
-1.49999e-05
-0.000273912
-4.45433e-05
-0.000261283
-6.35195e-05
-0.000245201
-7.21255e-05
-0.000227922
-7.20432e-05
-0.000210919
-6.57465e-05
-0.000194429
-5.59138e-05
-0.000177847
-4.45565e-05
-0.000160777
-3.2648e-05
-0.000143422
-2.08965e-05
-0.000126163
-1.01643e-05
-0.00010938
-9.40084e-07
6.68891e-06
-9.34623e-05
-1.96014e-05
-0.000234101
-1.41969e-05
-0.00024109
9.03301e-07
-1.61943e-05
-2.5169e-05
0.000212933
-8.6472e-05
0.000250979
-0.000145406
0.000240225
-0.000197357
0.000205147
-0.000237649
0.000153916
-0.000264895
9.55596e-05
-0.000279345
3.82219e-05
-0.000282277
-1.2067e-05
-0.000275976
-5.08448e-05
-0.00026303
-7.64655e-05
-0.000245505
-8.96503e-05
-0.000225064
-9.24844e-05
-0.000203919
-8.68909e-05
-0.000184139
-7.56942e-05
-0.00016614
-6.25556e-05
-0.000149053
-4.97349e-05
-0.000132449
-3.75012e-05
-0.000116486
-2.61266e-05
-0.000101319
-1.61074e-05
-7.52791e-06
-8.71022e-05
-1.21316e-05
-0.00022197
-6.41665e-06
-0.000246805
5.35643e-05
-7.61752e-05
3.63589e-05
0.000230139
-4.85761e-05
0.000335915
-0.000117353
0.000309002
-0.000174669
0.000262463
-0.000218471
0.000197718
-0.000248927
0.000126016
-0.000265989
5.52834e-05
-0.000269858
-8.19821e-06
-0.000263434
-5.72685e-05
-0.000251073
-8.88256e-05
-0.000235641
-0.000105083
-0.000217079
-0.000111046
-0.000195539
-0.000108431
-0.000173553
-9.76802e-05
-0.000153946
-8.21626e-05
-0.000136843
-6.68386e-05
-0.00012108
-5.32635e-05
-0.00010634
-4.08671e-05
-9.26176e-05
-2.98294e-05
-2.02335e-05
-7.9912e-05
1.55538e-06
-0.000223525
1.72054e-06
-0.00024697
5.61771e-05
-0.000130632
8.64652e-05
0.000199851
-1.52056e-06
0.0004239
-8.19211e-05
0.000389402
-0.000144109
0.000324651
-0.000190383
0.000243992
-0.000223931
0.000159565
-0.000244898
7.62505e-05
-0.000250014
-3.08145e-06
-0.000241876
-6.54072e-05
-0.000227161
-0.00010354
-0.00021232
-0.000119925
-0.000198125
-0.00012524
-0.000181208
-0.000125349
-0.00016069
-0.000118198
-0.000140439
-0.000102414
-0.00012336
-8.39176e-05
-0.000108669
-6.79536e-05
-9.53526e-05
-5.41836e-05
-8.31875e-05
-4.19944e-05
-3.138e-05
-7.2041e-05
6.12788e-06
-0.000229653
2.4185e-06
-0.000243261
3.22692e-05
-0.000160482
7.74732e-05
0.000154647
2.3721e-05
0.000477653
-5.0704e-05
0.000463827
-0.00011241
0.000386357
-0.000159119
0.000290701
-0.000194498
0.000194944
-0.000217918
9.96704e-05
-0.000224477
3.47757e-06
-0.00021639
-7.34938e-05
-0.000198054
-0.000121876
-0.000179867
-0.000138112
-0.00016749
-0.000137618
-0.000157261
-0.000135578
-0.000142651
-0.000132808
-0.000124517
-0.000120548
-0.000108099
-0.000100335
-9.47658e-05
-8.12866e-05
-8.32074e-05
-6.57419e-05
-7.28421e-05
-5.23598e-05
-4.07742e-05
-6.3448e-05
1.15173e-05
-0.00024117
8.5682e-06
-0.000240312
3.49283e-05
-0.000186843
5.61234e-05
0.000133452
3.86646e-05
0.000495111
-2.25316e-05
0.000525024
-7.63073e-05
0.000440132
-0.000118994
0.000333388
-0.000153769
0.000229719
-0.000177051
0.000122952
-0.000187748
1.41752e-05
-0.000182132
-7.91096e-05
-0.000164317
-0.000139691
-0.000143432
-0.000158997
-0.000129671
-0.000151378
-0.000124064
-0.000141185
-0.000117498
-0.000139373
-0.000104848
-0.000133198
-9.06679e-05
-0.000114515
-7.91552e-05
-9.27993e-05
-6.97431e-05
-7.51543e-05
-6.14806e-05
-6.06226e-05
-4.81823e-05
-5.40725e-05
2.53827e-05
-0.000266552
3.74257e-05
-0.000252355
4.29186e-05
-0.000192336
5.09715e-05
0.000125399
5.31108e-05
0.000492972
1.14235e-05
0.000566711
-3.23776e-05
0.000483934
-6.72376e-05
0.000368248
-9.66198e-05
0.000259101
-0.000117899
0.000144231
-0.000130892
2.71675e-05
-0.000131407
-7.85947e-05
-0.000120459
-0.000150638
-0.000102884
-0.000176572
-8.91006e-05
-0.000165161
-8.53465e-05
-0.00014494
-8.58603e-05
-0.000138859
-8.07001e-05
-0.000138358
-7.07741e-05
-0.000124441
-6.18244e-05
-0.000101749
-5.49711e-05
-8.20078e-05
-4.91532e-05
-6.64406e-05
-5.33863e-05
-4.39491e-05
1.4526e-05
-0.000281078
2.03779e-05
-0.000258206
2.13345e-05
-0.000193292
4.44073e-05
0.000102326
6.77199e-05
0.00046966
5.22489e-05
0.000582182
2.09953e-05
0.000515187
-7.16184e-06
0.000396405
-3.01577e-05
0.000282097
-4.81525e-05
0.000162226
-6.01386e-05
3.91538e-05
-6.59403e-05
-7.27929e-05
-6.39766e-05
-0.000152602
-5.57413e-05
-0.000184807
-4.73147e-05
-0.000173588
-4.54334e-05
-0.000146821
-5.05122e-05
-0.00013378
-5.25745e-05
-0.000136296
-4.83536e-05
-0.000128662
-4.29252e-05
-0.000107177
-3.9094e-05
-8.5839e-05
-3.60623e-05
-6.94722e-05
-5.61814e-05
-3.32671e-05
-1.24055e-05
-0.000268673
-2.46332e-05
-0.000245979
-1.97815e-05
-0.000198144
2.90535e-05
5.34913e-05
7.92574e-05
0.000419456
9.64138e-05
0.000565026
8.315e-05
0.000528451
6.17597e-05
0.000417796
4.46309e-05
0.000299225
2.97321e-05
0.000177125
1.63311e-05
5.2555e-05
6.61044e-06
-6.30721e-05
5.38869e-07
-0.00014653
-2.84811e-06
-0.00018142
-4.37536e-06
-0.000172061
-8.2169e-06
-0.000142979
-1.49037e-05
-0.000127093
-2.16531e-05
-0.000129546
-2.36808e-05
-0.000126634
-2.28253e-05
-0.000108033
-2.25463e-05
-8.61183e-05
-2.2589e-05
-6.94295e-05
-5.63869e-05
-2.23834e-05
-3.03589e-05
-0.000238314
-5.37142e-05
-0.000222623
-5.57169e-05
-0.000196141
6.61295e-06
-8.83818e-06
8.39923e-05
0.000342077
0.000136366
0.000512653
0.000148555
0.000516262
0.000138525
0.000427826
0.000125256
0.000312494
0.000111927
0.000190455
9.79363e-05
6.65453e-05
8.25715e-05
-4.77072e-05
6.64523e-05
-0.000130411
5.11232e-05
-0.000166091
3.88773e-05
-0.000159815
2.92256e-05
-0.000133327
1.94864e-05
-0.000117355
1.00431e-05
-0.000120103
2.71805e-06
-0.000119309
-2.44666e-06
-0.000102869
-6.20274e-06
-8.23623e-05
-9.41514e-06
-6.6217e-05
-5.40014e-05
-1.18005e-05
-3.53781e-05
-0.000202936
-6.30445e-05
-0.000194957
-7.9706e-05
-0.000179479
-2.75347e-05
-6.10091e-05
7.62695e-05
0.000238273
0.000160457
0.000428466
0.000203636
0.000473082
0.000213082
0.00041838
0.000206652
0.000318924
0.000193595
0.000203511
0.000175786
8.43549e-05
0.000152516
-2.44375e-05
0.000125356
-0.000103251
9.86363e-05
-0.000139371
7.63061e-05
-0.000137486
6.07208e-05
-0.000117741
5.08641e-05
-0.000107498
4.14493e-05
-0.000110688
3.01228e-05
-0.000107982
1.8911e-05
-9.1657e-05
9.72666e-06
-7.31781e-05
2.84913e-06
-5.93396e-05
-4.8939e-05
-2.21335e-06
-3.44361e-05
-0.0001685
-6.06872e-05
-0.000168706
-8.91359e-05
-0.00015103
-6.23905e-05
-8.77544e-05
5.27904e-05
0.000123092
0.000157682
0.000323574
0.000230003
0.000400761
0.00026419
0.000384193
0.000270097
0.000313017
0.000258804
0.000214804
0.000235994
0.000107165
0.00020412
7.43626e-06
0.000167752
-6.68828e-05
0.000132916
-0.000104535
0.000104243
-0.000108811
8.65485e-05
-0.000100047
7.90339e-05
-9.99829e-05
7.1465e-05
-0.000103119
5.59753e-05
-9.2493e-05
3.74484e-05
-7.31302e-05
2.28624e-05
-5.85922e-05
1.27226e-05
-4.91998e-05
-4.1745e-05
5.52871e-06
-3.43872e-05
-0.000134112
-5.62877e-05
-0.000146805
-8.15003e-05
-0.000125818
-8.23201e-05
-8.69345e-05
1.20745e-05
2.86978e-05
0.00012511
0.000210538
0.000217921
0.00030795
0.000274478
0.000327636
0.000295274
0.000292222
0.000288449
0.000221628
0.00026291
0.000132705
0.000226355
4.39909e-05
0.000186425
-2.69528e-05
0.000149392
-6.75022e-05
0.000120503
-7.9923e-05
0.000106575
-8.6119e-05
0.000104284
-9.76916e-05
9.61999e-05
-9.50345e-05
7.42106e-05
-7.05038e-05
4.92408e-05
-4.81605e-05
3.08822e-05
-4.02337e-05
1.87803e-05
-3.70979e-05
-3.33508e-05
1.03861e-05
-2.89867e-05
-0.000105126
-5.33831e-05
-0.000122409
-6.6221e-05
-0.00011298
-7.94147e-05
-7.37408e-05
-3.29024e-05
-1.78146e-05
7.58689e-05
0.000101767
0.000176829
0.00020699
0.000247107
0.000257358
0.000278805
0.000260523
0.000276783
0.000223651
0.000252964
0.000156524
0.000218575
7.83802e-05
0.000180956
1.06661e-05
0.000146857
-3.34028e-05
0.000124402
-5.74672e-05
0.000120357
-8.20739e-05
0.000117238
-9.45731e-05
0.000103168
-8.09648e-05
7.52298e-05
-4.25653e-05
4.91217e-05
-2.20525e-05
3.16508e-05