/*--------------------------------*- C++ -*----------------------------------*\
| =========                 |                                                 |
| \\      /  F ield         | OpenFOAM: The Open Source CFD Toolbox           |
|  \\    /   O peration     | Version:  2.3.0                                 |
|   \\  /    A nd           | Web:      www.OpenFOAM.org                      |
|    \\/     M anipulation  |                                                 |
\*---------------------------------------------------------------------------*/
FoamFile
{
    version     2.0;
    format      ascii;
    class       volScalarField;
    location    "0.02";
    object      T;
}
// * * * * * * * * * * * * * * * * * * * * * * * * * * * * * * * * * * * * * //

dimensions      [0 0 0 1 0 0 0];

internalField   nonuniform List<scalar> 
12225
(
1.00702
1.00235
1.00097
1.00057
1.00029
1.0001
1.00001
0.999956
0.999924
0.999897
0.999862
0.99979
0.999613
0.999168
0.998056
0.995307
0.988437
0.970697
0.99388
0.995662
0.997505
0.998595
0.999122
0.9994
0.999574
0.999688
0.99976
0.999801
0.999811
0.999771
0.999618
0.9992
0.99814
0.995527
0.989165
0.97374
1.00047
1.00054
1.00043
1.00038
1.00027
1.00015
1.00007
1.00002
0.999982
0.999952
0.999914
0.999842
0.999675
0.999265
0.998268
0.995882
0.990338
0.978083
1.00033
0.999923
0.999616
0.999668
0.999738
0.999771
0.999797
0.999821
0.999838
0.999846
0.999837
0.999789
0.999648
0.999282
0.998393
0.996318
0.991727
0.982386
1.00018
1
0.999776
0.999808
0.999867
0.999886
0.999893
0.999897
0.999899
0.999895
0.999877
0.999826
0.999693
0.999365
0.99859
0.996853
0.99321
0.986317
1.00003
0.999994
0.999833
0.999822
0.999855
0.999871
0.999877
0.999883
0.999887
0.999885
0.999871
0.999827
0.999712
0.999431
0.998786
0.997394
0.994616
0.989661
1.00001
1.00003
0.999913
0.999873
0.999883
0.999891
0.999895
0.999897
0.999899
0.999897
0.999884
0.999846
0.999747
0.999514
0.998996
0.997924
0.995882
0.992407
1
1.00003
0.999948
0.999903
0.9999
0.999903
0.999904
0.999905
0.999906
0.999904
0.999892
0.999859
0.999776
0.999583
0.999167
0.998332
0.996792
0.994251
1
1.00003
0.99997
0.999929
0.999919
0.999917
0.999916
0.999915
0.999915
0.999912
0.999901
0.999872
0.999802
0.999643
0.99931
0.998657
0.997489
0.995604
0.999998
1.00002
0.999986
0.999952
0.999938
0.999932
0.999929
0.999927
0.999925
0.999922
0.999911
0.999887
0.999831
0.999705
0.999449
0.998964
0.998115
0.996774
0.999998
1.00002
0.999996
0.99997
0.999956
0.999948
0.999943
0.99994
0.999937
0.999933
0.999923
0.999903
0.99986
0.999767
0.99958
0.999236
0.99865
0.997742
0.999998
1.00001
1
0.999983
0.999972
0.999964
0.999958
0.999954
0.999949
0.999945
0.999937
0.999922
0.99989
0.999823
0.999696
0.999466
0.999083
0.998502
0.999998
1.00001
1.00001
0.999993
0.999984
0.999977
0.999971
0.999967
0.999962
0.999958
0.999952
0.999939
0.999917
0.999873
0.999791
0.999648
0.999413
0.999064
0.999998
1.00001
1.00001
1
0.999993
0.999986
0.999982
0.999978
0.999975
0.99997
0.999965
0.999957
0.999942
0.999914
0.999865
0.999782
0.999649
0.999454
0.999998
1.00001
1.00001
1
0.999998
0.999995
0.999991
0.999988
0.999985
0.999981
0.999978
0.999972
0.999963
0.999946
0.999918
0.999874
0.999804
0.999705
0.999999
1.00001
1.00001
1
1
1
0.999997
0.999994
0.999992
0.999989
0.999987
0.999985
0.999979
0.999969
0.999954
0.999932
0.999898
0.999853
0.999998
1.00001
1.00001
1
1
1
1
0.999999
0.999997
0.999996
0.999993
0.999991
0.999988
0.999984
0.999977
0.999966
0.99995
0.99993
0.999999
1
1.00001
1.00001
1.00001
1.00001
1
0.999999
0.999998
0.999998
0.999997
0.999995
0.999993
0.999989
0.999983
0.999978
0.999971
0.999965
0.999999
1.00001
1.00001
1.00001
1.00001
1.00001
1
0.999999
0.999996
0.999995
0.999993
0.999991
0.999988
0.999987
0.999985
0.99998
0.999976
0.999974
0.999998
1.00001
1.00001
1.00001
1
1
1
0.999996
0.999992
0.999989
0.999988
0.999986
0.999984
0.999982
0.99998
0.999977
0.999975
0.999975
0.999997
1.00001
1.00001
1.00001
1
0.999995
0.999992
0.999987
0.999983
0.99998
0.999977
0.999975
0.999973
0.999972
0.999971
0.999969
0.999966
0.999967
0.999997
1.00001
1.00002
1.00001
0.999995
0.999987
0.999982
0.999976
0.999973
0.99997
0.999967
0.999966
0.999966
0.999964
0.999963
0.999962
0.99996
0.99996
0.999996
1.00003
1.00002
0.999994
0.999975
0.999966
0.999959
0.999954
0.999952
0.99995
0.999949
0.999948
0.999948
0.999949
0.999948
0.999948
0.999947
0.999949
0.999994
1.00005
1.00003
0.999984
0.999963
0.999957
0.999953
0.99995
0.999949
0.999948
0.999947
0.999947
0.999948
0.999948
0.999948
0.999947
0.999947
0.999949
0.999986
1.00005
0.999974
0.999913
0.9999
0.9999
0.9999
0.999902
0.999905
0.999908
0.999911
0.999914
0.999918
0.999921
0.999925
0.999927
0.999928
0.999931
1.00011
1.00014
0.999977
0.99993
0.999954
0.99997
0.999971
0.999969
0.999965
0.999962
0.999959
0.999954
0.999952
0.99995
0.999949
0.999948
0.999947
0.999947
1.00029
1.00004
0.999634
0.999556
0.999609
0.999662
0.999706
0.999746
0.999781
0.999809
0.999832
0.99985
0.999865
0.999878
0.999888
0.999897
0.999905
0.999908
1.00089
1.00118
1.00097
1.00079
1.00062
1.00045
1.00031
1.00022
1.00015
1.0001
1.00006
1.00003
1.00001
0.999992
0.999981
0.999974
0.99997
0.999957
0.993498
0.994872
0.996789
0.998012
0.998681
0.999064
0.999313
0.999485
0.999605
0.999689
0.99975
0.999794
0.999827
0.999852
0.999872
0.999888
0.999905
0.999901
1.00657
1.00291
1.00132
1.00082
1.00049
1.00027
1.00014
1.00007
1.00002
0.99999
0.999968
0.999954
0.999944
0.999937
0.999933
0.999931
0.999938
0.999911
0.166638
0.166569
0.166426
0.166215
0.165938
0.165593
0.165181
0.164704
0.164161
0.163555
0.162889
0.162163
0.161379
0.16054
0.159646
0.158702
0.157708
0.156668
0.155584
0.154458
0.153293
0.152092
0.150857
0.149591
0.148297
0.146977
0.145634
0.14427
0.142888
0.141491
0.140081
0.13866
0.13723
0.135795
0.134356
0.132915
0.131474
0.130036
0.128601
0.127173
0.125752
0.12434
0.122939
0.12155
0.120173
0.118812
0.117465
0.116135
0.114822
0.113526
0.112249
0.110991
0.109753
0.108534
0.107335
0.106156
0.104997
0.103859
0.10274
0.101641
0.100562
0.0995017
0.0984607
0.0974382
0.0964338
0.0954471
0.0944775
0.0935245
0.0925876
0.0916662
0.0907597
0.0898675
0.0889889
0.0881232
0.0872699
0.0864281
0.0855973
0.0847765
0.0839652
0.0831623
0.082367
0.0815784
0.0807956
0.0800175
0.0792431
0.0784711
0.0777004
0.0769298
0.0761578
0.0753831
0.0746044
0.0738203
0.0730292
0.0722297
0.0714203
0.0705998
0.0697667
0.0689198
0.0680578
0.0671796
0.0662843
0.0653708
0.0644385
0.0634866
0.0625146
0.061522
0.0605086
0.059474
0.058418
0.0573408
0.0562422
0.0551225
0.0539818
0.0528204
0.0516388
0.0504375
0.049217
0.0479781
0.0467217
0.0454487
0.0441601
0.0428571
0.0415412
0.0402136
0.0388761
0.0375302
0.0361778
0.0348209
0.0334616
0.0321019
0.0307443
0.029391
0.0280447
0.0267078
0.0253829
0.0240729
0.0227802
0.0215078
0.0202583
0.0190343
0.0178385
0.0166734
0.0155415
0.0144451
0.0133863
0.0123671
0.0113893
0.0104544
0.00956364
0.00871817
0.00791868
0.00716566
0.0064593
0.00579946
0.00518576
0.00461752
0.00409377
0.00361331
0.00317468
0.00277626
0.00241618
0.00209246
0.00180303
0.00154559
0.00131791
0.00111774
0.000942762
0.000790741
0.000659465
0.000546799
0.000450707
0.000369268
0.000300688
0.000243309
0.000195615
0.000156231
0.000123937
9.76457e-05
7.65022e-05
5.97116e-05
0.168801
0.168726
0.168584
0.16837
0.168087
0.167735
0.167316
0.166831
0.166279
0.165664
0.164986
0.164249
0.163454
0.162604
0.1617
0.160745
0.159741
0.158692
0.157598
0.156464
0.155291
0.154082
0.15284
0.151568
0.150267
0.148941
0.147592
0.146223
0.144836
0.143433
0.142018
0.140592
0.139159
0.137719
0.136275
0.13483
0.133385
0.131942
0.130504
0.129072
0.127647
0.126231
0.124826
0.123432
0.122053
0.120687
0.119337
0.118003
0.116686
0.115387
0.114107
0.112846
0.111604
0.110382
0.10918
0.107998
0.106836
0.105695
0.104574
0.103472
0.102391
0.101329
0.100286
0.0992614
0.0982553
0.0972671
0.0962962
0.0953421
0.0944042
0.0934819
0.0925747
0.091682
0.090803
0.0899372
0.0890839
0.0882423
0.0874118
0.0865916
0.085781
0.084979
0.0841848
0.0833976
0.0826163
0.08184
0.0810674
0.0802976
0.0795292
0.0787609
0.0779915
0.0772196
0.0764436
0.0756623
0.074874
0.0740772
0.0732705
0.0724524
0.0716215
0.0707765
0.069916
0.0690389
0.068144
0.0672305
0.0662975
0.0653442
0.0643701
0.0633745
0.0623572
0.0613178
0.0602561
0.059172
0.0580656
0.0569368
0.0557858
0.0546129
0.0534185
0.052203
0.050967
0.0497112
0.0484363
0.0471433
0.0458332
0.0445072
0.0431666
0.0418128
0.0404474
0.039072
0.0376886
0.036299
0.0349054
0.03351
0.0321151
0.0307231
0.0293367
0.0279585
0.0265911
0.0252374
0.0239002
0.0225824
0.0212868
0.0200161
0.0187733
0.017561
0.0163818
0.0152382
0.0141326
0.0130671
0.0120436
0.0110639
0.0101294
0.00924129
0.00840056
0.0076078
0.0068633
0.00616706
0.00551879
0.00491787
0.0043634
0.00385422
0.00338889
0.00296577
0.00258298
0.0022385
0.00193022
0.00165577
0.00141286
0.00119911
0.0010121
0.000849477
0.00070892
0.000588184
0.000485123
0.000397707
0.000324037
0.000262353
0.000211042
0.000168643
0.000133851
0.000105507
8.26692e-05
6.44893e-05
0.173134
0.173038
0.172877
0.172646
0.172344
0.171971
0.171529
0.17102
0.170445
0.169807
0.169107
0.168349
0.167533
0.166662
0.165739
0.164767
0.163746
0.16268
0.161571
0.160423
0.159236
0.158015
0.156761
0.155477
0.154165
0.152829
0.15147
0.150091
0.148695
0.147284
0.14586
0.144426
0.142984
0.141536
0.140085
0.138632
0.13718
0.13573
0.134284
0.132844
0.131412
0.129989
0.128576
0.127176
0.125789
0.124416
0.123059
0.121719
0.120395
0.11909
0.117803
0.116536
0.115288
0.11406
0.112853
0.111665
0.110499
0.109353
0.108227
0.107121
0.106036
0.10497
0.103924
0.102896
0.101888
0.100897
0.0999241
0.0989683
0.0980289
0.0971056
0.0961977
0.0953046
0.0944256
0.09356
0.0927073
0.0918668
0.0910377
0.0902193
0.0894109
0.0886115
0.0878204
0.0870365
0.0862591
0.085487
0.0847191
0.0839543
0.0831914
0.0824289
0.0816656
0.0809
0.0801306
0.0793558
0.0785741
0.0777839
0.0769835
0.0761713
0.075346
0.0745058
0.0736495
0.0727756
0.071883
0.0709705
0.0700372
0.0690823
0.0681048
0.0671044
0.0660804
0.0650325
0.0639603
0.0628636
0.0617423
0.0605964
0.0594259
0.0582309
0.0570119
0.055769
0.0545028
0.0532139
0.0519029
0.0505708
0.0492184
0.047847
0.0464577
0.0450519
0.0436312
0.0421972
0.0407519
0.0392972
0.0378353
0.0363684
0.0348989
0.0334294
0.0319627
0.0305015
0.0290487
0.0276073
0.0261804
0.024771
0.0233824
0.0220176
0.0206798
0.0193719
0.018097
0.0168579
0.0156573
0.0144977
0.0133814
0.0123106
0.0112871
0.0103123
0.00938758
0.00851378
0.00769151
0.00692097
0.00620207
0.00553438
0.00491709
0.00434914
0.00382913
0.0033554
0.0029261
0.00253908
0.0021921
0.00188272
0.00160843
0.00136668
0.00115486
0.000970374
0.000810691
0.000673333
0.000555921
0.000456201
0.000372053
0.000301508
0.000242757
0.000194153
0.000154224
0.000121654
9.53533e-05
7.43321e-05
0.179657
0.179537
0.179354
0.179099
0.17877
0.178368
0.177895
0.177355
0.176749
0.17608
0.17535
0.174562
0.173717
0.172819
0.171869
0.17087
0.169825
0.168735
0.167604
0.166434
0.165227
0.163986
0.162713
0.161411
0.160082
0.158729
0.157355
0.155961
0.15455
0.153124
0.151686
0.150239
0.148783
0.147322
0.145858
0.144392
0.142927
0.141465
0.140007
0.138555
0.13711
0.135675
0.134251
0.132839
0.131441
0.130057
0.128689
0.127337
0.126003
0.124687
0.12339
0.122113
0.120855
0.119618
0.118402
0.117206
0.116031
0.114878
0.113745
0.112632
0.11154
0.110468
0.109417
0.108384
0.107371
0.106376
0.1054
0.104441
0.103499
0.102573
0.101664
0.100769
0.0998897
0.0990241
0.0981719
0.0973323
0.0965048
0.0956885
0.0948827
0.0940866
0.0932994
0.0925201
0.0917478
0.0909814
0.09022
0.0894622
0.0887068
0.0879524
0.0871977
0.086441
0.0856808
0.0849155
0.0841433
0.0833624
0.0825711
0.0817676
0.0809502
0.0801172
0.0792668
0.0783977
0.0775084
0.0765975
0.0756639
0.0747066
0.0737245
0.0727171
0.0716835
0.0706233
0.0695359
0.0684209
0.0672782
0.0661074
0.0649085
0.0636815
0.0624265
0.0611437
0.0598334
0.0584962
0.0571324
0.055743
0.0543287
0.0528905
0.0514296
0.0499474
0.0484453
0.046925
0.0453884
0.0438374
0.0422743
0.0407015
0.0391214
0.0375369
0.0359507
0.0343659
0.0327857
0.0312134
0.0296524
0.0281061
0.0265781
0.025072
0.0235913
0.0221397
0.0207205
0.0193372
0.0179931
0.0166912
0.0154344
0.0142254
0.0130666
0.01196
0.0109073
0.00990986
0.0089688
0.00808464
0.0072576
0.00648753
0.00577382
0.00511555
0.00451143
0.0039598
0.00345873
0.00300602
0.00259925
0.00223579
0.0019129
0.00162773
0.00137738
0.00115894
0.000969516
0.000806289
0.000666529
0.000547633
0.000447145
0.000362773
0.000292404
0.000234107
0.00018615
0.000146975
0.000115272
8.98406e-05
0.188382
0.188241
0.188034
0.187752
0.187393
0.186959
0.186452
0.185875
0.185233
0.184527
0.18376
0.182935
0.182054
0.181121
0.180137
0.179105
0.178028
0.176907
0.175746
0.174548
0.173313
0.172045
0.170747
0.169421
0.168068
0.166693
0.165296
0.16388
0.162449
0.161003
0.159545
0.158078
0.156604
0.155125
0.153642
0.152158
0.150675
0.149195
0.14772
0.146251
0.144789
0.143338
0.141897
0.140469
0.139054
0.137654
0.13627
0.134904
0.133555
0.132224
0.130913
0.129622
0.128352
0.127102
0.125873
0.124665
0.123479
0.122315
0.121171
0.120049
0.118948
0.117868
0.116808
0.115768
0.114748
0.113748
0.112766
0.111802
0.110856
0.109926
0.109014
0.108117
0.107236
0.10637
0.105517
0.104678
0.103851
0.103037
0.102234
0.101441
0.100658
0.0998836
0.0991171
0.0983574
0.0976033
0.0968536
0.0961072
0.0953624
0.094618
0.0938721
0.0931232
0.0923694
0.0916088
0.0908394
0.0900594
0.0892666
0.0884591
0.0876348
0.086792
0.0859288
0.0850435
0.0841344
0.0832003
0.0822398
0.0812518
0.0802353
0.0791895
0.0781135
0.0770067
0.0758684
0.0746982
0.0734956
0.0722604
0.0709922
0.0696911
0.068357
0.0669901
0.0655905
0.0641588
0.0626953
0.0612009
0.0596764
0.0581228
0.0565413
0.0549334
0.0533008
0.0516451
0.0499685
0.0482732
0.0465616
0.0448365
0.0431006
0.0413572
0.0396096
0.0378611
0.0361156
0.0343767
0.0326486
0.0309351
0.0292406
0.0275692
0.0259251
0.0243125
0.0227356
0.0211983
0.0197046
0.018258
0.0168619
0.0155196
0.0142339
0.013007
0.0118411
0.0107377
0.00969809
0.00872278
0.00781213
0.00696581
0.00618312
0.00546288
0.00480353
0.0042031
0.00365927
0.00316946
0.00273078
0.00234018
0.00199444
0.00169028
0.00142433
0.00119326
0.00099376
0.000822623
0.000676774
0.000553293
0.000449445
0.000362696
0.000290722
0.000231427
0.00018292
0.000143592
0.000111949
0.199382
0.199219
0.198986
0.198676
0.198284
0.197813
0.197268
0.196651
0.195967
0.195219
0.19441
0.193542
0.19262
0.191645
0.19062
0.189548
0.188432
0.187273
0.186076
0.184841
0.183572
0.182271
0.18094
0.179582
0.178199
0.176794
0.175368
0.173925
0.172466
0.170993
0.169509
0.168017
0.166517
0.165013
0.163506
0.161998
0.160492
0.158989
0.15749
0.155998
0.154515
0.153041
0.151579
0.150129
0.148694
0.147273
0.145869
0.144483
0.143115
0.141765
0.140436
0.139127
0.137839
0.136572
0.135328
0.134105
0.132904
0.131725
0.130568
0.129433
0.12832
0.127228
0.126157
0.125108
0.124079
0.123069
0.122079
0.121108
0.120156
0.119221
0.118304
0.117403
0.116519
0.11565
0.114796
0.113955
0.113129
0.112315
0.111514
0.110724
0.109944
0.109174
0.108413
0.10766
0.106913
0.106172
0.105435
0.1047
0.103967
0.103233
0.102496
0.101755
0.101007
0.100251
0.0994835
0.0987027
0.0979063
0.097092
0.0962576
0.0954009
0.09452
0.0936128
0.0926777
0.0917133
0.0907181
0.0896908
0.0886304
0.0875357
0.0864058
0.0852399
0.0840371
0.0827968
0.0815184
0.0802014
0.0788454
0.0774502
0.0760156
0.0745416
0.0730285
0.0714764
0.0698858
0.0682574
0.0665921
0.0648909
0.0631551
0.0613863
0.0595862
0.0577568
0.0559004
0.0540194
0.0521167
0.0501954
0.0482588
0.0463104
0.0443542
0.0423943
0.0404349
0.0384807
0.0365362
0.0346063
0.0326961
0.0308105
0.0289546
0.0271334
0.025352
0.0236151
0.0219274
0.0202932
0.0187167
0.0172017
0.0157515
0.014369
0.0130566
0.0118162
0.0106491
0.00955609
0.0085374
0.00759262
0.00672084
0.0059206
0.00518995
0.00452649
0.00392742
0.00338961
0.0029096
0.00248377
0.00210831
0.00177933
0.00149289
0.00124509
0.00103212
0.000850279
0.000696054
0.000566131
0.000457426
0.000367096
0.00029257
0.000231516
0.000181932
0.000141945
0.212737
0.212552
0.212292
0.211949
0.211522
0.211013
0.210426
0.209765
0.209036
0.208241
0.207384
0.206469
0.205498
0.204476
0.203404
0.202285
0.201123
0.199919
0.198678
0.1974
0.196089
0.194747
0.193376
0.191979
0.190558
0.189116
0.187654
0.186176
0.184682
0.183176
0.181659
0.180134
0.178603
0.177067
0.17553
0.173992
0.172456
0.170923
0.169396
0.167876
0.166364
0.164863
0.163373
0.161897
0.160436
0.15899
0.157561
0.156149
0.154757
0.153384
0.152032
0.150701
0.149392
0.148104
0.146839
0.145597
0.144377
0.14318
0.142006
0.140855
0.139726
0.13862
0.137535
0.136472
0.135431
0.13441
0.133409
0.132429
0.131467
0.130524
0.129599
0.128692
0.127802
0.126928
0.12607
0.125227
0.124398
0.123583
0.122782
0.121992
0.121214
0.120448
0.119691
0.118942
0.118202
0.117468
0.11674
0.116015
0.115292
0.114569
0.113845
0.113117
0.112382
0.111639
0.110884
0.110116
0.109331
0.108527
0.107701
0.106851
0.105974
0.105068
0.104132
0.103162
0.102159
0.101119
0.100042
0.0989262
0.0977703
0.0965732
0.0953337
0.0940508
0.0927237
0.0913515
0.0899335
0.0884692
0.0869579
0.0853996
0.0837938
0.0821407
0.0804404
0.0786933
0.0768999
0.0750612
0.0731783
0.0712524
0.0692852
0.0672787
0.065235
0.0631567
0.0610467
0.0589081
0.0567445
0.0545599
0.0523585
0.0501448
0.0479236
0.0457001
0.0434797
0.0412681
0.0390711
0.0368947
0.034745
0.032628
0.0305499
0.0285168
0.0265345
0.0246085
0.0227443
0.0209469
0.0192208
0.0175699
0.0159978
0.0145073
0.0131006
0.0117793
0.0105442
0.00939543
0.00833244
0.007354
0.00645827
0.0056428
0.00490461
0.00424027
0.00364593
0.00311744
0.00265043
0.00224033
0.00188251
0.00157235
0.00130525
0.00107676
0.000882633
0.000718812
0.00058152
0.000467262
0.000372855
0.000295405
0.00023241
0.000181508
0.228552
0.228343
0.228052
0.227675
0.227209
0.226657
0.226025
0.225317
0.224538
0.223692
0.222783
0.221814
0.22079
0.219713
0.218587
0.217415
0.216199
0.214944
0.21365
0.212322
0.210961
0.20957
0.208152
0.206708
0.205241
0.203754
0.202248
0.200727
0.199191
0.197643
0.196086
0.194522
0.192951
0.191378
0.189803
0.188228
0.186655
0.185087
0.183525
0.18197
0.180425
0.17889
0.177368
0.17586
0.174367
0.17289
0.17143
0.16999
0.168568
0.167167
0.165788
0.16443
0.163094
0.161782
0.160492
0.159226
0.157983
0.156764
0.155569
0.154398
0.153249
0.152124
0.151022
0.149942
0.148884
0.147848
0.146834
0.145839
0.144865
0.143911
0.142975
0.142058
0.141158
0.140276
0.139411
0.138561
0.137727
0.136908
0.136103
0.135311
0.134532
0.133766
0.13301
0.132264
0.131528
0.130799
0.130077
0.129359
0.128645
0.127932
0.127218
0.126501
0.125779
0.125047
0.124305
0.123548
0.122773
0.121979
0.121161
0.120316
0.119442
0.118537
0.117598
0.116622
0.115609
0.114555
0.11346
0.11232
0.111136
0.109905
0.108626
0.107296
0.105916
0.104484
0.102999
0.101459
0.0998644
0.0982138
0.0965068
0.0947429
0.0929221
0.0910442
0.0891096
0.0871187
0.0850725
0.0829719
0.0808184
0.0786138
0.0763601
0.0740599
0.0717159
0.0693315
0.0669105
0.0644568
0.0619753
0.0594707
0.0569486
0.0544146
0.051875
0.0493362
0.0468051
0.0442888
0.0417944
0.0393294
0.0369011
0.0345172
0.0321847
0.029911
0.0277027
0.0255663
0.023508
0.021533
0.0196463
0.017852
0.0161533
0.0145529
0.0130525
0.0116529
0.0103542
0.00915549
0.00805514
0.00705075
0.00613923
0.00531685
0.00457936
0.00392205
0.00333987
0.00282752
0.00237955
0.00199043
0.00165467
0.00136692
0.00112199
0.00091494
0.000741135
0.000596264
0.000476387
0.000377902
0.00029768
0.000232746
0.246948
0.246712
0.246387
0.24597
0.245461
0.244864
0.244182
0.243422
0.242588
0.241686
0.240718
0.23969
0.238605
0.237468
0.236281
0.235047
0.233771
0.232455
0.231102
0.229714
0.228295
0.226847
0.225372
0.223872
0.222351
0.220811
0.219253
0.21768
0.216094
0.214497
0.212892
0.211279
0.209663
0.208043
0.206424
0.204805
0.203189
0.201579
0.199975
0.198379
0.196794
0.19522
0.193659
0.192113
0.190583
0.189069
0.187574
0.186099
0.184643
0.183209
0.181797
0.180407
0.179041
0.177698
0.176379
0.175085
0.173815
0.172569
0.171348
0.170151
0.168979
0.167831
0.166706
0.165605
0.164527
0.163471
0.162437
0.161425
0.160434
0.159463
0.158512
0.15758
0.156667
0.155772
0.154895
0.154034
0.15319
0.152362
0.151549
0.15075
0.149966
0.149194
0.148435
0.147688
0.146951
0.146223
0.145503
0.144789
0.14408
0.143373
0.142666
0.141957
0.141243
0.140521
0.139788
0.13904
0.138274
0.137486
0.136673
0.135832
0.134959
0.134052
0.133108
0.132124
0.131099
0.130029
0.128913
0.127749
0.126534
0.125266
0.123945
0.122567
0.121131
0.119635
0.118078
0.116459
0.114776
0.113028
0.111213
0.109332
0.107382
0.105365
0.103279
0.101125
0.0989029
0.0966138
0.0942586
0.0918389
0.0893564
0.0868135
0.084213
0.0815581
0.0788527
0.0761009
0.0733077
0.0704785
0.0676191
0.064736
0.061836
0.0589265
0.0560155
0.0531112
0.0502219
0.0473566
0.0445242
0.0417337
0.0389941
0.0363142
0.0337028
0.031168
0.0287177
0.026359
0.0240985
0.0219419
0.0198939
0.0179585
0.0161387
0.0144362
0.0128518
0.0113853
0.0100356
0.00880024
0.00767623
0.0066596
0.00574568
0.00492919
0.00420436
0.00356505
0.00300485
0.00251724
0.00209567
0.00173367
0.00142497
0.00116356
0.000943753
0.000760249
0.000608176
0.000483061
0.000380999
0.000298251
0.268063
0.267795
0.267431
0.266971
0.266414
0.265764
0.265028
0.26421
0.263315
0.262349
0.261317
0.260222
0.259069
0.257862
0.256606
0.255303
0.253956
0.252571
0.251148
0.249692
0.248205
0.246689
0.245148
0.243584
0.241999
0.240396
0.238777
0.237144
0.235498
0.233844
0.232182
0.230514
0.228843
0.22717
0.225498
0.223828
0.222162
0.220502
0.21885
0.217207
0.215575
0.213955
0.21235
0.21076
0.209186
0.207631
0.206095
0.204578
0.203084
0.201611
0.200161
0.198734
0.197331
0.195953
0.1946
0.193272
0.191969
0.190691
0.189439
0.188212
0.187011
0.185834
0.184682
0.183553
0.182449
0.181368
0.18031
0.179274
0.17826
0.177267
0.176294
0.175342
0.174409
0.173495
0.172599
0.171722
0.170861
0.170018
0.16919
0.168378
0.167582
0.166799
0.166031
0.165275
0.164531
0.163797
0.163073
0.162357
0.161647
0.160941
0.160236
0.159529
0.158819
0.158101
0.157372
0.156628
0.155865
0.15508
0.154268
0.153426
0.15255
0.151638
0.150686
0.149691
0.148651
0.147563
0.146424
0.145232
0.143984
0.142678
0.141312
0.139883
0.138389
0.136828
0.135198
0.133496
0.131722
0.129873
0.127947
0.125944
0.123861
0.121698
0.119455
0.11713
0.114724
0.112236
0.109668
0.107021
0.104295
0.101494
0.0986186
0.0956731
0.0926609
0.0895863
0.0864544
0.0832708
0.0800418
0.0767744
0.0734762
0.0701555
0.0668211
0.0634826
0.0601497
0.0568328
0.0535425
0.0502895
0.0470849
0.0439394
0.0408638
0.0378684
0.0349632
0.0321575
0.0294598
0.0268779
0.0244184
0.022087
0.019888
0.0178248
0.0158992
0.0141119
0.0124622
0.0109483
0.00956725
0.00831491
0.00718628
0.00617554
0.00527617
0.0044811
0.00378289
0.00317387
0.00264624
0.00219229
0.00180444
0.00147542
0.00119829
0.000966559
0.000774221
0.000615745
0.000486276
0.00038114
0.292047
0.291743
0.291335
0.290825
0.290213
0.289505
0.288707
0.287823
0.286859
0.285821
0.284715
0.283543
0.282313
0.281027
0.27969
0.278307
0.27688
0.275414
0.273911
0.272375
0.270809
0.269216
0.267599
0.265959
0.2643
0.262624
0.260933
0.25923
0.257516
0.255794
0.254067
0.252335
0.2506
0.248866
0.247133
0.245404
0.243681
0.241964
0.240256
0.238559
0.236874
0.235202
0.233546
0.231906
0.230283
0.22868
0.227096
0.225534
0.223993
0.222476
0.220982
0.219513
0.218068
0.216649
0.215256
0.213888
0.212546
0.211231
0.209942
0.208678
0.207441
0.206229
0.205042
0.20388
0.202743
0.20163
0.20054
0.199473
0.198429
0.197406
0.196405
0.195424
0.194463
0.193523
0.192601
0.191698
0.190813
0.189945
0.189095
0.188261
0.187444
0.186642
0.185855
0.185082
0.184322
0.183575
0.182838
0.182111
0.181391
0.180677
0.179965
0.179254
0.178539
0.177817
0.177085
0.176338
0.175571
0.174782
0.173964
0.173115
0.172231
0.171308
0.170343
0.169333
0.168274
0.167163
0.165998
0.164775
0.163492
0.162146
0.160733
0.159251
0.157698
0.15607
0.154365
0.152581
0.150714
0.148763
0.146725
0.144598
0.14238
0.14007
0.137666
0.135167
0.132572
0.129881
0.127093
0.12421
0.121232
0.118161
0.114998
0.111747
0.108411
0.104995
0.101502
0.0979396
0.0943135
0.0906315
0.0869017
0.0831331
0.0793358
0.0755201
0.0716976
0.0678799
0.0640794
0.060309
0.0565817
0.0529105
0.0493086
0.0457887
0.0423633
0.0390441
0.0358424
0.0327681
0.0298302
0.0270366
0.0243937
0.0219064
0.0195782
0.0174109
0.0154048
0.0135589
0.0118703
0.0103351
0.00894807
0.00770284
0.00659216
0.005608
0.0047418
0.0039846
0.00332723
0.00276051
0.00227539
0.00186308
0.0015152
0.00122381
0.000981581
0.00078169
0.000618138
0.000485109
0.319068
0.318723
0.318264
0.317696
0.317021
0.316245
0.315374
0.314413
0.31337
0.312249
0.311056
0.309796
0.308475
0.307097
0.305667
0.30419
0.302669
0.301109
0.299514
0.297886
0.296228
0.294545
0.292839
0.291112
0.289367
0.287607
0.285834
0.28405
0.282258
0.280459
0.278656
0.27685
0.275044
0.27324
0.271439
0.269643
0.267853
0.266073
0.264302
0.262543
0.260798
0.259068
0.257353
0.255657
0.253979
0.252321
0.250684
0.249069
0.247477
0.245909
0.244365
0.242846
0.241353
0.239886
0.238446
0.237032
0.235644
0.234284
0.23295
0.231643
0.230362
0.229107
0.227878
0.226674
0.225496
0.224341
0.223211
0.222104
0.22102
0.219959
0.218919
0.2179
0.216902
0.215924
0.214966
0.214026
0.213106
0.212204
0.21132
0.210454
0.209604
0.208772
0.207955
0.207154
0.206367
0.205594
0.204833
0.204084
0.203343
0.20261
0.201881
0.201153
0.200423
0.199687
0.198941
0.19818
0.1974
0.196596
0.195764
0.194899
0.193998
0.193057
0.192072
0.191039
0.189956
0.188818
0.187622
0.186365
0.185043
0.183653
0.182192
0.180656
0.179042
0.177347
0.175567
0.1737
0.171741
0.169689
0.167539
0.16529
0.162938
0.160481
0.157917
0.155244
0.15246
0.149564
0.146556
0.143434
0.1402
0.136853
0.133396
0.129831
0.12616
0.122388
0.118519
0.114559
0.110515
0.106394
0.102205
0.0979571
0.093662
0.089331
0.0849767
0.0806125
0.0762528
0.0719122
0.0676061
0.0633501
0.0591598
0.0550509
0.0510386
0.0471377
0.0433621
0.0397249
0.0362378
0.0329115
0.0297546
0.0267745
0.0239765
0.0213642
0.0189393
0.0167016
0.0146491
0.012778
0.0110831
0.00955763
0.00819362
0.00698212
0.00591336
0.00497699
0.00416234
0.00345858
0.00285496
0.00234097
0.00190651
0.00154198
0.00123844
0.00098756
0.000781968
0.000614472
0.349306
0.348913
0.348394
0.347759
0.347009
0.346153
0.345196
0.344144
0.343005
0.341785
0.340489
0.339124
0.337696
0.336209
0.33467
0.333083
0.331452
0.329783
0.328078
0.326343
0.32458
0.322792
0.320983
0.319155
0.317312
0.315456
0.313588
0.311712
0.30983
0.307944
0.306055
0.304166
0.302279
0.300395
0.298517
0.296645
0.294782
0.29293
0.291089
0.289261
0.287449
0.285652
0.283873
0.282113
0.280373
0.278653
0.276956
0.275282
0.273631
0.272005
0.270404
0.268829
0.26728
0.265758
0.264262
0.262794
0.261352
0.259938
0.258551
0.25719
0.255857
0.254549
0.253268
0.252012
0.250782
0.249576
0.248394
0.247236
0.246101
0.244988
0.243898
0.242829
0.241781
0.240753
0.239745
0.238757
0.237789
0.236839
0.235908
0.234995
0.2341
0.233222
0.232362
0.231518
0.23069
0.229877
0.229078
0.228292
0.227516
0.226749
0.225988
0.22523
0.224471
0.223707
0.222933
0.222145
0.221338
0.220507
0.219648
0.218756
0.217827
0.216858
0.215843
0.21478
0.213664
0.212492
0.211259
0.209962
0.208597
0.207161
0.205648
0.204056
0.20238
0.200617
0.198763
0.196813
0.194764
0.192613
0.190355
0.187986
0.185503
0.182904
0.180184
0.177341
0.174372
0.171275
0.168048
0.164691
0.161202
0.157581
0.153828
0.149946
0.145937
0.141803
0.137549
0.13318
0.128703
0.124126
0.119456
0.114705
0.109884
0.105005
0.100083
0.095132
0.0901682
0.0852087
0.080271
0.0753735
0.0705345
0.0657729
0.0611071
0.0565552
0.0521346
0.0478616
0.0437516
0.039818
0.0360729
0.0325264
0.0291863
0.0260585
0.0231464
0.0204514
0.0179724
0.0157063
0.0136481
0.0117908
0.0101259
0.00864359
0.0073328
0.00618175
0.00517811
0.00430925
0.00356251
0.0029254
0.00238587
0.00193238
0.00155412
0.00124098
0.000983942
0.000774191
0.382955
0.382507
0.381918
0.381201
0.380362
0.379408
0.378345
0.377183
0.375928
0.374587
0.373167
0.371674
0.370117
0.3685
0.36683
0.365111
0.363351
0.361552
0.35972
0.357858
0.355972
0.354063
0.352135
0.350192
0.348236
0.346269
0.344295
0.342314
0.34033
0.338345
0.33636
0.334378
0.332399
0.330427
0.328462
0.326506
0.324561
0.322628
0.320709
0.318805
0.316917
0.315047
0.313196
0.311365
0.309555
0.307766
0.306001
0.304259
0.302542
0.30085
0.299184
0.297543
0.295929
0.294342
0.292782
0.291249
0.289743
0.288265
0.286813
0.285388
0.28399
0.282618
0.281272
0.279952
0.278657
0.277386
0.276139
0.274916
0.273715
0.272537
0.271382
0.270247
0.269134
0.268041
0.266969
0.265916
0.264883
0.263869
0.262874
0.261898
0.26094
0.260001
0.25908
0.258176
0.25729
0.25642
0.255566
0.254725
0.253897
0.253079
0.252269
0.251462
0.250656
0.249846
0.249028
0.248196
0.247345
0.246472
0.245571
0.244637
0.243667
0.242657
0.241601
0.240497
0.239339
0.238123
0.236845
0.235502
0.234088
0.232599
0.231032
0.229381
0.227641
0.22581
0.223881
0.221851
0.219715
0.217467
0.215105
0.212622
0.210014
0.207278
0.204409
0.201404
0.198257
0.194968
0.191531
0.187945
0.184208
0.180319
0.176277
0.172083
0.167737
0.163243
0.158603
0.153822
0.148906
0.143863
0.1387
0.133429
0.128062
0.122611
0.117091
0.111519
0.105913
0.100292
0.0946745
0.089083
0.0835386
0.0780633
0.0726791
0.0674079
0.062271
0.0572886
0.0524798
0.0478621
0.0434513
0.0392608
0.0353018
0.0315828
0.0281099
0.0248862
0.0219124
0.0191863
0.0167035
0.014457
0.0124381
0.0106359
0.00903849
0.00763244
0.00640367
0.00533759
0.00441943
0.0036345
0.00296851
0.0024077
0.00193911
0.00155052
0.00123103
0.000969881
0.420229
0.419714
0.419041
0.418225
0.417274
0.416198
0.415004
0.413703
0.412302
0.41081
0.409236
0.407587
0.405871
0.404095
0.402266
0.40039
0.398474
0.396522
0.39454
0.392531
0.390501
0.388452
0.386387
0.384311
0.382226
0.380134
0.378038
0.37594
0.373841
0.371745
0.369652
0.367565
0.365485
0.363414
0.361353
0.359304
0.357268
0.355246
0.35324
0.351251
0.349279
0.347327
0.345395
0.343484
0.341595
0.339729
0.337887
0.336068
0.334275
0.332507
0.330764
0.329048
0.327358
0.325695
0.324058
0.322449
0.320866
0.31931
0.31778
0.316277
0.3148
0.313349
0.311923
0.310522
0.309146
0.307794
0.306465
0.30516
0.303877
0.302616
0.301377
0.300159
0.298962
0.297786
0.29663
0.295493
0.294376