/*--------------------------------*- C++ -*----------------------------------*\
| =========                 |                                                 |
| \\      /  F ield         | OpenFOAM: The Open Source CFD Toolbox           |
|  \\    /   O peration     | Version:  2.3.0                                 |
|   \\  /    A nd           | Web:      www.OpenFOAM.org                      |
|    \\/     M anipulation  |                                                 |
\*---------------------------------------------------------------------------*/
FoamFile
{
    version     2.0;
    format      ascii;
    class       volScalarField;
    location    "2.8";
    object      alpha.water;
}
// * * * * * * * * * * * * * * * * * * * * * * * * * * * * * * * * * * * * * //

dimensions      [0 0 0 0 0 0 0];

internalField   nonuniform List<scalar> 
2268
(
0.980351
0.995023
0.995624
0.995582
0.993175
0.991798
0.99172
0.99571
0.999933
0.999939
0.997434
0.990366
0.986941
0.98846
0.986545
0.987118
0.997965
0.999813
0.99982
0.999822
0.999826
0.999826
0.999805
0.892492
0.972859
0.996092
0.999988
0.999988
0.999988
0.999643
0.999617
0.99993
0.999939
0.996288
0.959109
0.948096
0.948096
0.952689
0.98132
0.999503
0.999804
0.999813
0.999766
0.999754
0.999826
0.999826
0.892405
0.942913
0.999954
0.999988
0.999988
0.999988
0.999984
0.99998
0.99998
0.999565
0.99894
0.999244
0.991211
0.955353
0.947605
0.947815
0.982953
0.998708
0.999354
0.999672
0.999638
0.999701
0.999824
0.892405
0.892589
0.964826
0.99312
0.998208
0.999972
0.999978
0.99998
0.99964
0.999418
0.999415
0.999361
0.999199
0.999076
0.969144
0.947605
0.95256
0.990327
0.998295
0.999348
0.999718
0.999676
0.999675
0.946624
0.894109
0.893932
0.912206
0.938411
0.960593
0.98705
0.999428
0.99961
0.999537
0.998047
0.993389
0.997074
0.999076
0.995508
0.95267
0.950544
0.963939
0.998155
0.999875
0.999896
0.999675
0.999675
0.997575
0.957919
0.926925
0.915772
0.916583
0.917797
0.927865
0.986516
0.999538
0.996783
0.980536
0.978772
0.979794
0.996529
0.999694
0.987936
0.95431
0.966652
0.997903
0.999896
0.999913
0.999885
0.999858
0.997575
0.997575
0.997572
0.987837
0.967493
0.968818
0.975301
0.973964
0.988139
0.97874
0.978699
0.978699
0.978886
0.995698
0.999934
0.999974
0.996926
0.993793
0.996468
0.999902
0.999925
0.999929
0.999932
0.997575
0.997575
0.997568
0.997423
0.997289
0.997308
0.997289
0.997212
0.979308
0.978858
0.978699
0.981203
0.996787
0.999966
0.999936
0.999983
0.999981
0.999976
0.999563
0.999833
0.999723
0.999932
0.999932
0.936109
0.936234
0.993674
0.998505
0.99918
0.998094
0.998054
0.998037
0.998037
0.998392
0.998089
0.997652
0.99794
0.995023
0.946736
0.924722
0.955925
0.938651
0.907836
0.936109
0.936109
0.996743
0.99918
0.999181
0.999181
0.999181
0.99918
0.999176
0.999169
0.999163
0.998686
0.998686
0.998433
0.966601
0.898968
0.877893
0.877892
0.877892
0.936109
0.936109
0.959794
0.99918
0.99918
0.999181
0.999181
0.999147
0.997806
0.999104
0.999151
0.998645
0.998683
0.998686
0.997078
0.938072
0.877892
0.877892
0.877893
0.952321
0.98705
0.941057
0.99918
0.99918
0.999181
0.999113
0.996443
0.996277
0.996409
0.97279
0.961779
0.993453
0.998683
0.998614
0.997595
0.901671
0.877893
0.881589
0.988491
0.992331
0.941279
0.997825
0.999181
0.999181
0.998688
0.996429
0.996999
0.994727
0.942378
0.942418
0.973384
0.985047
0.99834
0.998229
0.992207
0.877942
0.979734
0.985568
0.996584
0.969344
0.993516
0.99918
0.999177
0.998769
0.996449
0.998698
0.998517
0.980544
0.942371
0.959797
0.99622
0.998135
0.998159
0.998145
0.914397
0.981861
0.98631
0.996827
0.999068
0.998084
0.999139
0.998883
0.996306
0.998706
0.998709
0.998698
0.998289
0.953877
0.947096
0.997918
0.998115
0.998145
0.948632
0.979133
0.981861
0.99784
0.999068
0.999111
0.999139
0.999137
0.998976
0.994398
0.998714
0.998698
0.998559
0.993914
0.954643
0.947377
0.998023
0.998101
0.961828
0.932228
0.981509
0.981861
0.997576
0.997447
0.997423
0.997256
0.997245
0.997289
0.997308
0.996753
0.991901
0.980258
0.988555
0.999914
0.999966
0.99998
0.999983
0.999983
0.999983
0.999983
0.999983
0.999031
0.998254
0.998269
0.999444
0.688272
0.654002
0.714919
0.812259
0.898509
0.959354
0.992518
0.996191
0.993213
0.995684
0.998197
0.999466
0.999915
0.999966
0.99998
0.999983
0.999983
0.999983
0.999983
0.999983
0.999964
0.999909
0.999893
0.0139138
0.0682489
0.0929702
0.109785
0.184836
0.309448
0.489244
0.687914
0.791111
0.851146
0.913072
0.964656
0.977338
0.960046
0.946493
0.950609
0.94795
0.92493
0.893204
0.868078
0.856539
0.844568
0.829505
0.000147078
0.000146228
0.000159439
0.00016137
0.000157068
0.000156154
0.000156963
0.0017421
0.048224
0.111185
0.192243
0.314622
0.451874
0.532926
0.541697
0.527059
0.496488
0.408398
0.280112
0.178986
0.120747
0.0875858
0.05296
0.000146159
0.000146228
0.000465029
0.000419518
0.000334663
0.000184898
0.000140991
0.000103164
6.44e-05
4.07857e-05
2.80637e-05
2.28559e-05
2.17946e-05
0.00530247
0.0399122
0.0604869
0.0437951
0.00989199
0.00062301
0.000813436
0.000137131
1.50346e-05
9.75137e-06
0.000149337
0.00075958
0.000760897
0.000754392
0.000671949
0.000613348
0.000551301
0.000626559
0.000670917
0.000462041
7.91829e-05
2.1039e-05
1.5265e-05
1.13126e-05
3.43836e-05
7.88721e-05
4.22386e-05
6.27473e-05
0.000165793
0.000202132
1.38319e-05
5.67923e-06
4.28257e-06
0.000156179
0.000760897
0.000623067
0.000131269
0.000137341
0.00014152
0.000617278
0.00075698
0.00075698
0.00075698
0.000322274
1.5312e-05
9.34389e-06
8.12852e-06
1.48911e-05
6.40208e-05
1.76267e-05
2.65875e-05
5.7204e-05
4.3591e-05
5.05004e-06
4.35355e-06
4.23312e-06
0.000273062
0.000460984
0.000110471
0.00012232
0.000128012
0.000142414
0.000171868
0.000554292
0.00075698
0.000515694
3.11095e-05
9.38925e-06
8.12975e-06
7.74939e-06
3.38891e-05
6.36778e-05
1.07933e-05
1.08377e-05
1.74385e-05
1.20173e-05
4.39603e-06
4.24838e-06
4.22305e-06
0.000400856
0.000217745
0.000105768
0.000111198
0.000172665
0.000430572
0.000289198
0.000759999
0.000478547
7.77086e-05
2.78669e-05
1.43668e-05
7.68491e-06
7.8599e-06
0.000157099
5.66811e-05
4.67601e-06
4.24481e-06
5.42015e-06
5.17009e-06
4.95321e-06
4.51988e-06
1.42026e-05
0.000400856
0.000271045
7.77364e-05
0.000250083
0.00120932
0.00149142
0.00150171
0.00121701
0.000271366
0.000104559
0.00053457
0.000442858
9.22452e-06
1.67226e-05
0.000163231
2.63811e-05
4.06712e-06
4.24199e-06
3.95301e-06
4.00667e-06
4.6873e-06
1.21636e-05
1.67896e-05
0.000400856
2.76071e-05
4.9462e-05
0.00136884
0.00148726
0.00149882
0.00150384
0.00135711
0.000290496
0.000273984
0.000662047
0.000634833
3.39443e-05
3.15929e-05
0.000163231
5.3585e-06
4.11455e-06
4.0332e-06
3.93396e-06
3.9725e-06
4.36634e-06
1.66964e-05
1.67085e-05
7.52337e-05
2.16631e-05
0.000613544
0.00141291
0.00147352
0.00149134
0.00149882
0.00119864
0.000299618
0.000314842
0.000662152
0.000662047
0.000537947
3.1371e-05
2.82074e-05
4.13381e-06
4.13862e-06
4.0776e-06
3.94645e-06
3.89542e-06
3.9261e-06
9.56304e-06
8.88537e-06
9.3761e-06
2.06181e-05
0.00123164
0.00128164
0.00100555
0.00148957
0.0014948
0.00114827
0.000299645
0.000156012
0.000662047
0.000662235
0.000659918
0.000252684
4.16384e-06
4.13522e-06
4.16651e-06
4.15136e-06
3.96434e-06
3.91604e-06
3.93812e-06
3.93795e-06
4.14329e-06
9.3761e-06
2.54768e-05
0.000415561
0.000123942
4.80766e-05
0.000766975
0.00149317
0.00137774
0.000291931
4.19465e-05
0.000184252
0.000454463
0.000428626
0.000144995
4.10244e-06
4.38092e-06
4.52272e-06
4.52701e-06
4.43784e-06
3.97852e-06
3.91138e-06
3.95936e-06
3.89825e-06
9.46122e-06
1.53939e-05
2.20946e-05
3.23228e-05
3.55071e-05
7.5582e-05
0.00129489
0.00135687
0.000760847
3.94993e-05
3.47765e-05
2.70354e-05
1.63347e-05
5.78785e-06
4.01555e-06
3.9453e-06
4.26362e-06
4.03559e-06
3.95807e-06
3.90423e-06
3.89455e-06
3.84036e-06
3.81296e-06
2.18314e-05
0.000517088
5.59631e-05
3.58286e-05
4.52725e-05
5.64175e-05
0.000315176
0.00132537
0.000842265
0.000369867
0.000272794
0.000210778
4.50127e-05
4.01546e-06
3.94529e-06
3.91476e-06
3.79728e-06
3.84157e-06
3.88319e-06
3.89103e-06
3.82029e-06
5.26161e-06
8.92454e-05
0.00010178
0.00085419
0.000109869
6.13182e-05
6.35076e-05
7.0555e-05
0.000345314
0.00101714
0.000958027
0.000827031
0.000844543
0.000793421
0.000766012
0.000728832
0.000491372
5.59897e-05
3.75229e-06
3.78227e-06
3.90127e-06
3.90005e-06
3.84751e-06
3.7728e-06
0.00143628
0.000214106
0.000864073
0.000449036
7.10169e-05
6.56909e-05
0.000191957
0.000546039
0.000445087
0.000569442
0.000684499
0.000752572
0.000786987
0.00076455
0.000749555
0.000735785
0.000346653
1.15783e-05
2.30622e-05
5.71193e-05
4.46545e-05
6.17937e-06
0.000321148
0.0013595
0.000535039
0.000884939
0.000864359
0.000450627
8.58878e-05
0.000153397
0.000170125
1.98887e-05
1.8784e-05
1.87727e-05
0.000140938
0.000225594
0.000244644
0.000302131
0.000362561
0.000363791
3.92743e-05
0.000422876
0.000497845
0.000497845
0.000497394
0.000179903
0.000132143
0.000905926
0.000905865
0.000879081
0.000834269
0.000517203
9.68375e-05
1.98964e-05
1.8792e-05
1.87541e-05
1.87928e-05
1.8771e-05
1.88387e-05
1.96217e-05
2.62987e-05
3.81315e-05
7.30462e-05
0.00022496
0.000417876
0.000184933
0.000127257
0.000127125
0.000126644
0.000128189
0.000905926
0.000549297
0.00057791
0.000796003
0.0007578
0.00049997
7.77472e-05
2.74728e-05
1.87846e-05
1.87775e-05
1.88381e-05
1.96154e-05
0.000107546
0.000309747
0.000109348
7.46835e-05
0.000191258
0.000375782
0.000127293
0.000127235
0.000223586
0.000322471
0.000324322
0.000905926
0.000225346
8.63918e-05
0.00018072
0.000535666
0.000621809
0.000611782
0.000322115
3.50049e-05
1.92848e-05
2.02359e-05
0.000111572
0.000837425
0.000882625
0.000858886
0.000197703
0.000215257
0.000285835
0.000133118
0.000275498
0.00030745
0.000182949
0.000563316
0.000905488
0.000428438
7.46261e-05
2.31784e-07
3.75149e-07
0.000283499
0.000410656
0.000415439
6.59926e-05
0.000145775
0.000373109
0.000880904
0.000882832
0.000883251
0.00088304
0.000716845
0.000108007
0.000179395
0.00024244
0.000274079
0.000166141
2.85644e-05
6.81252e-05
0.000813649
0.000560456
0.000110889
2.30707e-07
2.31784e-07
3.75149e-07
3.74281e-06
3.11237e-05
0.00032936
0.000840814
0.000857938
0.000872538
0.000878787
0.000882625
0.00088304
0.000455024
6.55812e-05
0.000124369
0.000256515
0.000202547
1.12571e-06
1.49195e-06
3.37349e-06
0.000288881
0.000540907
1.55447e-05
1.41161e-07
1.17085e-06
1.24809e-06
8.0641e-06
9.2655e-05
0.000531348
0.000680858
0.000661949
0.000690356
0.000792617
0.000661365
0.000289946
2.48281e-05
2.65515e-05
0.000140572
0.000256515
5.02975e-05
9.24321e-07
1.0055e-06
2.33252e-06
0.000288881
0.000358707
4.28357e-08
4.84364e-08
5.2429e-06
4.73575e-05
7.40533e-05
0.00011519
3.87887e-06
2.2103e-06
2.72663e-06
2.48197e-06
2.81804e-06
3.00807e-06
3.25925e-06
3.54805e-06
0.00010129
0.000231564
0.000144285
9.24322e-07
9.03591e-07
9.24322e-07
9.99077e-07
0.000301936
4.58989e-05
4.03959e-08
4.2719e-08
6.90336e-06
8.44365e-05
8.43693e-05
2.10069e-05
2.31271e-06
1.89358e-06
2.37371e-06
2.15511e-06
2.7147e-06
2.8935e-06
2.84983e-06
2.13689e-05
0.000230492
0.000236091
4.22967e-06
9.03591e-07
9.03591e-07
9.01201e-07
9.48397e-07
0.00047957
4.55876e-08
4.02877e-08
3.90141e-08
8.0062e-07
5.26232e-05
8.44419e-05
5.4964e-05
2.05302e-05
1.54139e-06
2.18971e-06
1.9438e-06
3.25141e-06
1.38155e-06
1.88789e-06
1.64804e-05
0.000210536
0.000238763
1.12099e-06
1.01285e-06
8.99503e-07
1.80582e-06
2.19541e-05
0.00047957
7.78415e-07
3.92401e-08
3.83011e-08
3.9146e-08
4.82997e-06
8.38699e-05
8.03777e-05
3.89786e-05
1.72396e-10
4.83522e-07
2.84865e-10
3.22632e-08
2.71492e-08
2.33641e-06
7.20994e-06
0.000170167
0.000261599
1.28525e-06
1.11943e-06
1.09783e-06
2.20178e-05
5.32755e-05
0.000371242
2.06239e-06
3.83126e-08
3.83227e-08
3.81218e-08
8.75648e-07
2.94838e-05
5.46369e-05
3.74982e-06
1.7162e-10
1.70887e-10
1.75462e-10
2.85268e-10
4.10598e-08
2.82375e-06
3.53151e-06
0.000146966
0.000278202
1.58108e-06
1.27908e-06
8.06505e-06
6.90901e-05
8.66346e-05
3.27449e-09
1.49099e-06
7.62055e-08
3.8147e-08
2.94084e-08
3.13843e-09
4.41593e-10
3.27275e-10
1.87703e-10
1.72573e-10
1.70887e-10
2.08587e-10
2.16691e-10
3.54264e-10
1.57029e-07
4.45112e-06
0.000100544
0.000288549
1.73774e-06
1.76235e-06
4.35278e-05
0.000210662
9.71522e-05
3.1901e-09
3.27452e-09
7.47586e-08
5.56896e-08
1.98246e-07
1.15093e-07
7.04743e-10
9.51259e-10
2.30246e-09
4.10621e-10
1.74593e-10
3.70569e-10
3.64949e-10
3.90883e-10
1.04583e-09
3.92893e-06
3.3198e-05
0.000293533
4.68136e-06
3.64583e-06
0.000107097
0.000517656
0.000244751
3.1753e-09
2.38434e-08
6.97229e-08
1.58711e-07
1.25693e-06
1.12293e-06
8.86046e-10
6.32326e-09
1.34281e-08
1.59027e-09
6.94684e-11
3.84319e-10
3.92162e-10
4.16193e-10
2.72997e-08
3.46461e-07
1.57631e-06
0.000291709
8.44257e-06
6.49923e-06
0.000170116
0.000509847
0.000508322
1.96593e-09
2.77956e-08
1.92989e-08
2.11364e-07
1.26225e-06
1.26139e-06
1.10156e-09
1.02804e-08
1.54937e-08
2.81302e-09
1.29439e-11
2.44092e-10
2.429e-10
3.01843e-10
1.10683e-07
9.36134e-07
9.55643e-07
0.000105154
6.99679e-06
6.93407e-06
0.000142727
0.000511772
0.000510768
4.66721e-11
4.28638e-12
3.60933e-12
1.21175e-07
1.26225e-06
1.25511e-06
9.09283e-10
5.99338e-09
1.5494e-08
2.0277e-09
1.07732e-11
9.35731e-11
9.84013e-11
2.12935e-10
5.40737e-08
4.22586e-06
1.24631e-06
4.05522e-06
6.58634e-06
6.58634e-06
5.46868e-05
0.000384942
0.000510266
6.4219e-16
1.22697e-12
1.65464e-12
8.84202e-09
4.1605e-07
1.17284e-06
4.26237e-13
1.05868e-09
7.58426e-09
2.75141e-10
9.98579e-12
2.75465e-11
3.76931e-11
2.47588e-10
5.82552e-09
7.04765e-06
0.000181098
0.000193765
6.58634e-06
6.72751e-06
6.81897e-06
5.09721e-05
0.000347578
1.01814e-15
3.98665e-13
1.17261e-12
9.83758e-14
7.39074e-14
1.42944e-07
5.02356e-15
4.71933e-11
8.5604e-14
1.64441e-11
8.3993e-12
9.87651e-12
3.22883e-11
2.29596e-10
8.82493e-09
4.7852e-06
0.000304288
0.000455368
0.000228401
8.43005e-06
1.01628e-05
1.17334e-05
3.74117e-05
1.39905e-15
1.78067e-13
1.03271e-12
5.10053e-14
-1.1823e-14
-2.66169e-13
2.54988e-15
1.77052e-14
8.39811e-14
1.24563e-12
4.75041e-12
6.90059e-12
3.67244e-11
2.10746e-10
1.1581e-08
6.48556e-07
0.000236593
0.000457577
0.000455368
3.61304e-05
1.27959e-05
1.01302e-05
1.16797e-05
8.533e-16
7.23953e-14
4.87742e-13
1.47559e-13
-3.27314e-15
1.90066e-17
5.80688e-16
9.66447e-15
1.14266e-13
9.05443e-13
4.33937e-12
6.18525e-12
2.30896e-11
4.18114e-10
8.86021e-09
2.24581e-07
0.000125973
0.000457119
0.000457577
0.000202162
1.23223e-05
5.54457e-06
8.37375e-06
1.98465e-16
1.7774e-14
1.92491e-13
1.20378e-13
-2.41541e-15
5.60783e-18
1.34941e-16
2.10231e-15
2.3547e-14
1.95865e-13
1.29405e-12
2.51289e-12
6.71235e-12
1.11061e-10
1.41182e-09
7.86063e-08
1.42895e-05
0.000317477
0.000453198
0.000201287
1.40066e-05
4.65152e-06
6.36947e-06
1.76386e-17
2.50104e-15
4.57462e-14
5.91814e-14
4.28692e-21
1.55179e-19
4.01655e-18
7.21058e-17
9.85955e-16
1.08885e-14
1.11971e-13
1.22257e-12
1.55279e-12
6.74258e-12
3.28634e-10
1.22315e-08
1.60467e-06
3.82083e-05
0.000154706
6.12626e-05
1.23999e-05
4.40513e-06
4.50929e-06
4.97372e-20
3.45579e-17
1.27754e-15
4.86128e-16
1.73419e-24
1.09982e-22
5.06072e-21
1.35229e-19
2.31343e-18
2.6152e-17
2.85584e-16
8.2227e-15
3.19445e-13
1.03364e-12
-2.80121e-12
2.85458e-10
1.74837e-08
2.32414e-07
2.71558e-06
5.40481e-06
4.7328e-06
4.40513e-06
4.40513e-06
0.999893
0.999899
0.999899
0.999899
0.999899
0.999898
0.999801
0.997196
0.776739
0.645947
0.427336
0.0857155
0.00243232
2.79504e-05
0.0001011
0.000156677
7.4614e-06
1.29378e-05
0.000115225
7.85072e-06
4.20548e-06
4.74747e-06
6.18826e-06
4.58463e-06
4.20855e-06
4.20947e-06
4.21131e-06
4.21192e-06
4.22427e-06
4.22284e-06
4.21192e-06
4.22224e-06
1.15469e-05
6.9614e-06
6.65858e-06
4.47776e-06
1.68695e-05
1.68749e-05
1.68695e-05
9.05661e-06
1.67951e-05
1.68768e-05
1.67315e-05
6.38092e-06
5.22231e-06
4.43117e-06
4.71195e-06
4.6564e-06
4.13095e-06
4.19576e-06
4.26349e-06
4.38677e-06
3.91145e-06
3.71672e-06
3.86811e-06
5.1286e-06
4.22265e-06
2.2977e-05
0.000105976
8.36121e-05
0.000112861
9.12579e-05
0.00161863
0.0017902
0.00175591
0.00179886
0.00180952
0.00179887
0.00165188
0.00176051
0.0017321
0.000484401
0.000134713
0.000134828
0.000142856
0.000168181
0.00013207
0.000389612
0.00106513
0.00106511
0.000950425
0.00107127
0.00106733
0.00107165
0.00033434
0.000737266
0.00107162
0.00107164
5.72126e-05
0.000555207
0.0010673
0.00107162
3.02265e-05
0.000220165
0.000386517
0.000431224
1.3917e-05
1.06307e-05
5.62719e-06
7.12381e-06
1.28428e-06
2.27632e-06
4.05312e-06
7.34438e-06
4.63e-06
8.67732e-06
8.64e-06
8.55036e-06
2.39111e-05
1.85116e-05
3.41136e-07
4.07789e-06
2.8428e-07
1.41097e-06
7.26588e-08
5.75396e-07
6.54597e-08
5.52369e-08
5.07466e-08
4.89097e-08
5.52363e-08
5.09778e-08
5.09771e-08
5.09779e-08
6.44338e-08
5.52356e-08
5.09762e-08
5.37899e-08
0.000491004
0.000356336
9.74311e-05
3.78556e-05
0.000515206
0.000536955
0.000549233
0.000318685
0.000514205
0.000511193
0.000537481
0.000529612
0.000517305
0.000515374
0.00051775
0.000515428
0.000140912
0.000229176
0.00027538
0.000215359
1.31769e-05
1.6556e-05
1.7573e-05
9.09821e-06
1.00233e-05
1.4611e-05
2.49671e-05
9.94747e-06
8.85985e-06
1.65889e-05
2.44505e-05
2.20696e-05
1.07359e-05
2.05348e-05
2.2431e-05
2.10056e-05
4.78541e-06
1.09727e-05
1.21614e-05
6.80945e-06
0.998498
0.863528
0.935938
0.999111
0.999138
0.999124
0.999114
0.999107
0.988319
0.924706
0.900408
0.916773
0.949408
0.966526
0.971894
0.963506
0.960307
0.960124
0.962273
0.770773
0.220668
0.221735
0.457572
0.724916
0.902876
0.977442
0.965731
0.910755
0.792231
0.627528
0.537392
0.504063
0.49221
0.496255
0.466001
0.403393
0.331866
0.341358
0.000296063
0.000172652
0.00067589
0.0100559
0.102675
0.280369
0.407362
0.383566
0.291502
0.215176
0.157664
0.0577015
8.56101e-05
7.67746e-05
4.08872e-05
3.91189e-05
4.08872e-05
4.32962e-05
4.57513e-05
2.46237e-05
1.17955e-05
3.4928e-05
0.000230738
0.000272998
0.000454604
0.000451152
0.000200024
9.42521e-05
9.41856e-05
9.03998e-05
8.49277e-05
8.6009e-05
0.000205102
8.54998e-05
3.87353e-05
0.000147041
0.00044841
9.97969e-05
4.79316e-06
4.83121e-06
5.08777e-06
9.44493e-06
1.79502e-05
2.15342e-05
3.60077e-05
5.71292e-05
7.4317e-05
7.62692e-05
0.000333086
0.000341524
0.000143583
4.13409e-05
3.8785e-05
3.91129e-05
0.000924475
0.00124848
0.000361042
4.26798e-06
4.72448e-06
5.52659e-06
5.39962e-06
1.03733e-05
2.05281e-05
3.16292e-05
7.09972e-05
7.18938e-05
7.30448e-05
0.000246498
0.000346223
0.000290835
3.91936e-05
3.8785e-05
0.000244249
0.00124848
0.00124889
0.000385886
4.21638e-06
4.31022e-06
4.31925e-06
6.74969e-06
7.03012e-05
0.000257224
0.000435149
0.000413156
0.00038578
0.00014809
0.000234173
0.000341638
0.000232543
3.88357e-05
3.9193e-05
0.00055934
0.00124889
0.00124889
0.00102976
4.26993e-06
4.2845e-06
4.36914e-06
0.000106477
0.000524889
0.000543657
0.000542513
0.000156656
3.24658e-05
3.12872e-05
3.64156e-05
0.000110676
4.92455e-05
4.26692e-05
0.000230685
0.00108453
0.000999965
0.00117758
0.00115531
4.27945e-06
4.35734e-06
4.43038e-06
0.000158547
0.000771328
0.000423771
3.7926e-05
3.14778e-05
3.12862e-05
3.12171e-05
3.12872e-05
3.18796e-05
3.73119e-05
8.11797e-05
0.00120392
0.00120392
0.000712948
0.00028236
0.000920235
4.35844e-06
4.38164e-06
4.80784e-06
0.000109527
0.000872026
0.000251456
0.000138462
4.42475e-05
3.12165e-05
3.12168e-05
3.12171e-05
3.12466e-05
3.47639e-05
0.000694877
0.00120135
0.00102716
0.000251923
0.000253524
0.000255393
4.45776e-06
4.52229e-06
7.3983e-06
0.000858598
0.00101107
0.00028238
0.000332321
0.000186989
3.12962e-05
3.12171e-05
3.1359e-05
3.23417e-05
0.000240295
0.00113338
0.000977067
0.000254871
0.000252819
0.000254875
0.000255595
4.73092e-06
5.46706e-06
0.000456655
0.00164628
0.00105326
0.000251625
0.000332463
0.00025691
3.12438e-05
3.13016e-05
3.1841e-05
6.58131e-05
0.000979135
0.00113338
0.00107138
0.00025568
0.000254875
0.000255587
0.00025602
5.41496e-06
4.33735e-05
0.0016709
0.00167256
0.00103911
0.000222689
0.000332321
0.00026962
3.12828e-05
3.13581e-05
3.1818e-05
4.58319e-05
0.000599618
0.000868379
0.000712976
0.000814261
0.000632027
0.000256108
0.000349222
1.16432e-05
0.00128475
0.00180185
0.0017319
0.000405276
0.000216986
0.000332019
0.000263995
3.13313e-05
3.13369e-05
3.14697e-05
3.23367e-05
5.97501e-05
0.000115295
0.000147536
0.000213498
0.00016615
0.000378925
0.00038581
0.00106333
0.00181374
0.00181757
0.00138605
0.00021766
0.000217836
0.000331788
0.000162066
3.12733e-05
9.47539e-05
0.00022125
0.000169395
0.000226434
0.000328585
0.000334078
0.000184038
0.000164296
0.00016374
0.000315667
0.00181374
0.00182722
0.00181497
0.000914128
0.000225803
0.000237071
0.000329304
5.9449e-05
4.93552e-05
0.000295548
0.000295749
0.000275949
8.35564e-05
0.000296515
0.000350752
0.000350416
0.000270842
0.000161482
0.00016142
0.00178469
0.00182723
0.00134759
0.000246264
0.000241912
0.000279261
0.000278607
6.94909e-05
0.000179115
0.000295749
0.000295749
0.000199177
3.26166e-05
2.0912e-05
0.000272618
0.000350752
0.000333153
0.00016142
0.00016142
0.0003849
0.000561918
0.000631564
0.000481798
0.000254411
0.000277695
8.43316e-05
7.52363e-05
0.000250068
0.000256208
0.000295749
0.00028684
0.000103719
1.15932e-05
1.00666e-05
0.000198489
0.000465133
0.00016585
0.000486063
0.000413131
0.000933326
0.00103888
0.00101972
0.00041996
0.000202488
9.59231e-05
0.00012656
0.000135599
7.36027e-05
5.4051e-05
9.16048e-05
7.31347e-05
8.80263e-06
8.69448e-06
0.000164626
0.000532686
0.000177871
0.00086961
0.0010448
0.00104819
0.00103795
0.00103193
0.000332254
0.000126573
0.000155222
0.000158587
0.000106911
8.0747e-05
1.03148e-05
8.88387e-06
8.32871e-06
8.51117e-06
8.6986e-06
0.000282365
0.000550806
0.000616556
0.00086961
0.00106595
0.00105896
0.00104978
0.00104144
4.60087e-05
5.44394e-05
0.000151386
6.27973e-05
6.34945e-05
0.000148406
5.66568e-05
8.32872e-06
8.32872e-06
8.32872e-06
4.98617e-05
0.000364033
0.000363844
0.000449102
0.000213426
0.00107166
0.00106668
0.00106147
0.000495235
1.83808e-05
9.90584e-06
4.68763e-05
1.20959e-05
0.000134172
0.000148406
1.19271e-05
8.45859e-06
8.32872e-06
5.29264e-05
0.000348876
0.000185774
3.40532e-05
0.000146505
2.69118e-05
0.00106727
0.000931691
0.000343918
2.14494e-05
2.53737e-05
1.39973e-06
3.92918e-06
4.60397e-05
0.000167089
0.000119782
9.83471e-06
8.56121e-06
0.000207947
0.000428806
0.000360912
3.22072e-05
3.06502e-05
3.19867e-05
2.69118e-05
0.000287144
7.9453e-05
9.07196e-06
2.7963e-06
1.01435e-05
1.06344e-06
2.81944e-06
0.000113037
0.000168007
5.96248e-05
3.47562e-05
0.000302008
0.000439628
0.000435573
0.000166429
3.06489e-05
2.85693e-05
2.69632e-05
2.69118e-05
5.77729e-06
2.44346e-06
1.30794e-06
3.34884e-07
1.64849e-07
6.11076e-07
5.98052e-06
0.000135268
0.000165648
7.61993e-05
0.00013505
0.000439628
0.000443741
0.000441444
0.000440325
0.000256815
0.000154596
6.13718e-05
2.69632e-05
2.71602e-06
5.72272e-07
2.58938e-07
1.03675e-07
7.10144e-08
2.11906e-07
2.79776e-06
0.000105076
0.00016302
0.000114547
7.25295e-05
0.000312261
0.000444351
0.000443741
0.000441818
0.000440024
0.000436414
0.000136425
2.75469e-05
3.98518e-06
2.61284e-07
1.08396e-07
7.20583e-08
5.9599e-08
6.97876e-08
2.02514e-07
2.94828e-05
0.000163774
0.000193359
6.11798e-05
5.82463e-05
0.000232629
0.000380708
0.000358461
0.000340504
0.000212748
3.64717e-05
7.01211e-05
5.10342e-06
5.22467e-07
4.30809e-07
5.24643e-07
5.77075e-08
4.69472e-08
8.81286e-08
3.77235e-06
0.000127439
0.000196408
0.00016575
5.82463e-05
5.76155e-05
6.19022e-05
6.12997e-05
4.73433e-05
3.52629e-05
3.60627e-05
0.000331883
1.78187e-06
1.53086e-06
1.63045e-06
1.60277e-06
8.03841e-07
3.93497e-08
4.22151e-08
1.38294e-07
2.00557e-05
0.000171697
0.000201883
0.000189107
0.000107204
7.02217e-05
8.08351e-05
0.000406548
0.00038663
5.0399e-05
0.000368875
6.90215e-08
1.24058e-06
1.62946e-06
1.63555e-06
5.40712e-07
3.61756e-08
3.04493e-08
4.74968e-08
1.45165e-07
3.33629e-06
9.11296e-06
0.000186799
0.000415397
0.00046137
0.000554954
0.000656183
0.000654916
0.000157347
0.000367157
5.37907e-08
7.6137e-08
2.18856e-07
1.5087e-07
6.58694e-08
7.28677e-08
2.70599e-08
1.25306e-08
3.46076e-08
8.38405e-06
0.000236444
0.000310871
0.000271332
9.67017e-05
5.64594e-05
0.000587427
0.000656183
0.000166734
0.000433675
1.33945e-06
1.36624e-08
1.10475e-08
7.46509e-09
5.91599e-09
2.21059e-08
1.83837e-08
8.60895e-09
1.17693e-08
5.5293e-06
0.000198359
0.000262627
3.51357e-05
4.00394e-05
4.08815e-05
0.000418386
0.000654049
0.000193764
0.000735977
7.04833e-06
1.23101e-08
7.46646e-09
5.73608e-09
5.60925e-09
4.87872e-09
7.86443e-09
8.30492e-09
6.61143e-09
3.19415e-07
4.83286e-05
5.16982e-08
3.42501e-08
8.7869e-06
0.000267812
0.00071965
0.000339301
0.000171914
0.000751492
4.58118e-06
4.97875e-08
9.32074e-07
6.2706e-07
1.67718e-10
3.3527e-09
4.92745e-09
5.34375e-09
1.30839e-09
6.65967e-10
1.15403e-08
3.20566e-08
1.87018e-08
1.66578e-06
0.00071965
0.00071965
0.000236119
0.000117132
0.000751492
0.000122242
6.39023e-08
5.21173e-06
2.43611e-06
1.24118e-10
1.33097e-09
1.90279e-09
1.94633e-09
9.71817e-10
2.21281e-10
6.89683e-10
2.01324e-09
2.78137e-09
0.000251206
0.000713594
0.000719075
7.72218e-05
7.69715e-05
0.000502039
7.14711e-05
2.76499e-07
5.25121e-06
3.05044e-06
1.07747e-10
1.59079e-10
6.07492e-10
6.28875e-10
2.93717e-10
2.13878e-10
2.21318e-10
1.1945e-09
2.28944e-09
0.00055255
0.000701465
0.000578752
0.000145694
0.000103728
1.48058e-06
3.26821e-05
3.9417e-06
2.12333e-06
3.38762e-07
8.86105e-11
9.44831e-11
3.78536e-10
2.65376e-10
9.78333e-11
9.8985e-11
3.90501e-10
1.67275e-09
0.000115189
0.000549347
0.00015481
2.22199e-05
0.000199193
0.000132641
6.79509e-07
4.87405e-06
2.95334e-06
1.317e-06
8.01796e-08
7.03229e-11
8.02971e-11
1.81681e-10
6.87442e-11
8.05309e-11
1.01791e-10
1.02481e-05
1.83771e-06
0.000419798
0.000353211
1.29362e-07
2.58241e-07
1.1642e-05
1.08566e-05
2.1017e-07
1.25423e-06
6.37596e-07
6.11693e-07
8.76916e-08
5.42695e-11
5.60302e-11
6.53403e-11
6.43672e-11
2.00711e-09
8.89812e-07
4.53901e-05
0.000225074
0.000420853
9.42926e-05
1.34217e-07
2.79615e-07
1.30149e-13
9.34014e-15
9.342e-15
1.08082e-05
6.74911e-07
2.95827e-08
8.37761e-11
5.09973e-11
5.02193e-11
5.10887e-11
5.69954e-11
3.89644e-10
2.35158e-06
0.000163048
0.000427146
0.000320649
1.72855e-07
1.56391e-07
5.45592e-16
8.3836e-15
1.8931e-14
8.54952e-14
1.03419e-05
5.30722e-07
1.23398e-09
7.15669e-11
5.13093e-11
5.02985e-11
8.25857e-11
9.63574e-11
3.86719e-13
8.25423e-13
0.000178114
0.000427146
0.000116423
2.94183e-07
1.61979e-06
5.38625e-16
9.38688e-15
2.98346e-14
7.69846e-14
1.32563e-06
2.03606e-07
2.16999e-10
5.62119e-11
5.32953e-11
5.19221e-11
2.18936e-10
3.46881e-10
-1.11189e-14
-1.53288e-11
2.46357e-05
0.000143068
7.70405e-06
7.52424e-06
1.18774e-06
4.5515e-22
5.84256e-16
3.50653e-15
1.47299e-14
)
;

boundaryField
{
    leftWall
    {
        type            zeroGradient;
    }
    rightWall
    {
        type            zeroGradient;
    }
    lowerWall
    {
        type            zeroGradient;
    }
    atmosphere
    {
        type            inletOutlet;
        inletValue      uniform 0;
        value           nonuniform List<scalar> 
46
(
0
0
0
0
0
0
0
0
0
0
0
0
0
0
0
2.85458e-10
1.74837e-08
2.32414e-07
2.71558e-06
5.40481e-06
4.7328e-06
4.40513e-06
4.40513e-06
4.78541e-06
1.09727e-05
1.21614e-05
6.80945e-06
1.32563e-06
2.03606e-07
2.16999e-10
5.62119e-11
5.32953e-11
5.19221e-11
2.18936e-10
0
0
0
2.46357e-05
0.000143068
7.70405e-06
0
0
0
0
0
0
)
;
    }
    defaultFaces
    {
        type            empty;
    }
}


// ************************************************************************* //
