/*--------------------------------*- C++ -*----------------------------------*\
| =========                 |                                                 |
| \\      /  F ield         | OpenFOAM: The Open Source CFD Toolbox           |
|  \\    /   O peration     | Version:  2.3.0                                 |
|   \\  /    A nd           | Web:      www.OpenFOAM.org                      |
|    \\/     M anipulation  |                                                 |
\*---------------------------------------------------------------------------*/
FoamFile
{
    version     2.0;
    format      ascii;
    class       volScalarField;
    location    "2.8";
    object      p;
}
// * * * * * * * * * * * * * * * * * * * * * * * * * * * * * * * * * * * * * //

dimensions      [1 -1 -2 0 0 0 0];

internalField   nonuniform List<scalar> 
2268
(
699.71
706.041
715.677
726.123
738.683
751.444
765.265
779.179
790.548
799.089
808.767
819.816
829.454
834.551
837.377
841.572
847.613
853.3
857.709
861.571
865.3
866.23
865.521
643.04
646.979
656.398
666.648
679.343
692.147
706.494
720.389
732.246
740.443
749.622
761.541
771.806
776.909
778.873
781.642
787.512
793.894
798.742
802.675
806.636
807.432
806.664
588.355
589.002
596.764
606.473
619.001
632.634
648.922
663.657
674.335
681.712
690.018
701.568
712.095
718.412
720.623
722.512
727.336
733.52
738.333
742.266
746.593
747.85
747.419
532.879
532.507
537.026
546.07
558.541
573
589.966
605.59
616.367
623.134
630.351
640.465
650.475
657.134
659.866
662.434
666.92
672.238
676.85
680.676
685.272
687.236
687.445
475.49
476.555
481.761
489.16
500.361
514.53
530.909
546.76
557.863
564.555
570.997
579.657
588.154
593.86
597.013
600.822
606.023
610.938
614.646
618.111
622.616
625.034
625.395
414.587
418.606
425.722
433.957
444.983
459.222
474.55
488.238
499.205
506.179
512.509
519.854
526.478
530.477
533.127
537.8
544.275
549.41
551.824
554.432
558.082
560.193
558.855
348.832
355.269
365.043
374.772
387.239
402.27
417.57
430.493
440.584
448.183
454.693
460.801
465.674
467.875
469.82
474.359
481.566
486.858
488.59
489.606
491.192
491.359
483.081
283.909
290.084
300.708
312.204
326.672
342.886
358.283
371.116
381.428
389.443
396.042
401.554
405.157
406.622
408.298
412.441
419.235
424.385
425.218
423.833
422.004
418.788
393.76
656.454
658.488
667.941
667.509
669.88
687.141
690.851
684.413
679.994
667.834
646.904
629.343
625.829
629.741
621.957
608.624
601.267
598.363
599.523
600.373
602.605
609.252
606.77
606.551
625.634
631.028
625.446
621.271
608.259
585.376
566.376
563.862
570.306
564.875
553.823
545.607
542.665
545.645
544.003
545.587
549.805
544.601
543
564.296
570.418
566.771
563.475
548.808
522.922
502.242
499.868
507.671
505.401
498.255
493.126
489.013
492.687
486.5
486.161
492.448
484.037
483.123
505.377
511.358
509.225
506.475
489.487
460.866
439.472
436.638
444.623
446.214
442.288
440.419
435.614
439.563
425.909
424.637
436.688
425.76
424.998
449.19
455.118
453.131
449.886
430.876
401.837
380.286
376.327
384.543
388.888
386.928
385.837
382.416
383.475
361.822
360.568
380.592
368.678
368.497
395.203
401.242
398.285
393.67
373.095
343.79
324.111
318.94
326.943
332.127
331.169
327.816
327.691
324.27
299.729
299.396
321.768
311.661
315.444
341.596
348.604
344.535
338.243
316.303
286.885
268.943
264.23
269.728
274.815
273.998
269.677
269.883
264.961
237.023
244.596
258.41
255.124
262.388
288.495
296.704
291.667
283.012
260.131
231.629
215.108
210.356
212.863
217.051
216.25
213.416
209.154
204.935
182.067
187.497
198.041
211.516
228.587
246.497
262.438
275.639
286.888
295.979
302.831
308.291
311.878
313.734
315.546
318.765
323.993
327.617
326.208
320.347
311.209
295.059
220.835
44.9812
54.6201
66.6027
76.2822
91.2945
110.125
130.792
149.383
163.625
175.083
184.212
191.697
197.071
200.042
202.125
203.297
205.988
205.508
198.701
187.528
175.454
162.455
142.963
1.87192
4.47824
6.30395
7.51467
12.1479
19.8222
30.9849
46.5778
59.0534
68.3069
77.9981
88.7063
98.7084
105.995
110.147
108.982
106.433
99.715
87.1177
74.5699
66.4707
61.989
56.9725
0.526152
0.354088
0.354533
0.399724
0.40181
0.324189
0.218492
0.634196
4.08719
7.04369
11.694
19.096
27.5963
32.8661
39.4314
43.3886
38.3536
28.6285
18.2006
10.8114
6.63329
5.44195
2.31276
0.255402
0.202211
0.188566
0.215531
0.206092
0.153489
0.0930644
0.0719714
0.012576
-0.328357
-0.590427
-0.713823
-0.748189
-0.425308
1.79356
2.83157
1.97018
0.00769625
-0.792201
-0.549265
0.0971233
0.153225
-0.100339
0.0248076
-0.0273742
-0.0409405
-0.0239941
-0.0322064
-0.085499
-0.161868
-0.254082
-0.390669
-0.624276
-0.865596
-1.02781
-1.09853
-1.12306
-1.08222
-0.998429
-0.866072
-0.783413
-0.773558
-0.610359
-0.293022
-0.305063
-0.399537
-0.189447
-0.264826
-0.26124
-0.246646
-0.270938
-0.346394
-0.470934
-0.613744
-0.790183
-1.01203
-1.20529
-1.32364
-1.36621
-1.3344
-1.237
-1.11922
-1.03724
-0.967711
-0.930998
-0.853848
-0.768066
-0.805252
-0.8432
-0.340526
-0.391075
-0.404544
-0.405739
-0.464284
-0.589804
-0.764648
-0.929302
-1.12764
-1.33024
-1.47121
-1.56292
-1.59579
-1.54797
-1.44152
-1.34909
-1.27209
-1.20113
-1.17181
-1.16591
-1.19227
-1.25852
-1.2925
-0.472164
-0.508127
-0.532527
-0.557941
-0.663885
-0.866866
-1.08018
-1.24326
-1.39308
-1.52293
-1.63803
-1.74723
-1.78491
-1.73613
-1.64584
-1.57083
-1.49533
-1.43578
-1.42597
-1.47394
-1.56721
-1.66622
-1.70935
-0.63705
-0.667711
-0.679609
-0.728139
-0.928132
-1.24276
-1.4838
-1.57906
-1.61352
-1.64861
-1.74458
-1.86725
-1.89399
-1.84719
-1.77847
-1.71422
-1.64686
-1.61062
-1.63691
-1.73347
-1.8684
-1.98461
-2.03136
-0.842445
-0.85468
-0.844713
-0.952503
-1.27113
-1.64895
-1.90118
-1.9067
-1.81833
-1.77797
-1.8326
-1.91406
-1.91164
-1.86937
-1.81568
-1.75536
-1.70688
-1.70696
-1.7767
-1.91093
-2.06851
-2.19444
-2.24398
-1.06528
-1.06712
-1.04768
-1.232
-1.59093
-1.97101
-2.21345
-2.16438
-1.99949
-1.91653
-1.90228
-1.90077
-1.87896
-1.83188
-1.78106
-1.73088
-1.71062
-1.74792
-1.85151
-2.00827
-2.17425
-2.30183
-2.35292
-1.27946
-1.29131
-1.33085
-1.526
-1.80623
-2.13941
-2.37779
-2.29703
-2.13615
-2.04072
-1.97836
-1.92063
-1.8557
-1.79564
-1.74374
-1.70495
-1.70697
-1.76808
-1.88775
-2.04742
-2.2094
-2.33126
-2.38192
-1.47819
-1.49596
-1.58698
-1.71002
-1.90205
-2.17411
-2.40409
-2.34995
-2.20575
-2.11128
-2.04061
-1.95987
-1.87145
-1.79575
-1.74349
-1.71161
-1.72319
-1.79172
-1.91097
-2.06064
-2.20843
-2.3178
-2.36486
-1.64482
-1.65864
-1.73445
-1.79703
-1.9356
-2.14704
-2.35866
-2.36743
-2.25147
-2.15152
-2.08262
-2.00371
-1.9155
-1.829
-1.77413
-1.75081
-1.76868
-1.83486
-1.94272
-2.07477
-2.204
-2.29947
-2.34601
-1.79283
-1.80881
-1.8631
-1.88889
-1.97513
-2.12017
-2.28808
-2.35888
-2.28822
-2.19114
-2.12223
-2.04732
-1.96606
-1.87813
-1.83085
-1.82239
-1.84856
-1.90804
-1.99987
-2.11464
-2.22725
-2.31217
-2.35572
-1.94543
-1.97323
-1.99056
-2.00921
-2.04544
-2.12393
-2.23338
-2.33181
-2.32031
-2.25896
-2.1945
-2.12728
-2.0563
-1.98704
-1.93628
-1.93166
-1.95984
-2.00714
-2.08488
-2.18712
-2.28728
-2.37595
-2.47025
-2.11578
-2.14942
-2.13457
-2.13817
-2.14834
-2.18832
-2.26616
-2.34312
-2.36644
-2.3565
-2.31693
-2.25733
-2.19172
-2.13535
-2.10402
-2.09165
-2.0965
-2.1163
-2.18834
-2.29931
-2.41039
-2.5358
-2.71662
-2.32031
-2.35561
-2.31911
-2.29642
-2.29649
-2.3329
-2.39095
-2.43205
-2.46577
-2.48007
-2.46665
-2.42911
-2.37459
-2.31799
-2.28087
-2.26306
-2.25732
-2.28179
-2.3724
-2.49229
-2.61203
-2.76463
-2.95279
-2.5562
-2.60108
-2.56267
-2.51199
-2.50236
-2.52758
-2.55668
-2.58168
-2.60742
-2.62104
-2.61746
-2.59064
-2.53956
-2.47756
-2.44027
-2.44275
-2.45941
-2.5093
-2.61195
-2.70968
-2.80514
-2.9416
-3.12464
-2.78089
-2.81355
-2.81401
-2.79005
-2.78111
-2.77391
-2.76129
-2.75508
-2.75647
-2.7601
-2.75787
-2.73742
-2.69327
-2.64244
-2.60853
-2.62158
-2.65971
-2.71834
-2.79782
-2.86542
-2.95384
-3.09334
-3.29005
-2.9518
-2.97117
-3.00704
-3.04046
-3.07455
-3.05809
-2.98926
-2.91836
-2.8838
-2.87409
-2.88101
-2.88332
-2.8824
-2.86751
-2.84137
-2.8262
-2.84128
-2.88569
-2.94372
-3.00059
-3.08573
-3.20847
-3.42161
-3.10722
-3.11305
-3.15923
-3.20523
-3.25267
-3.25793
-3.18461
-3.08223
-3.01379
-3.00097
-3.03757
-3.09486
-3.15933
-3.18819
-3.16303
-3.08799
-3.04195
-3.04711
-3.07989
-3.12395
-3.19847
-3.31016
-3.48057
-3.27713
-3.2725
-3.3084
-3.33405
-3.35745
-3.35209
-3.30912
-3.25108
-3.19976
-3.20598
-3.27007
-3.36436
-3.45975
-3.51098
-3.4803
-3.36687
-3.25422
-3.22331
-3.22204
-3.24687
-3.2999
-3.39338
-3.52415
-3.44473
-3.44329
-3.45088
-3.4602
-3.46379
-3.45028
-3.42731
-3.4102
-3.41675
-3.458
-3.51757
-3.5882
-3.66695
-3.69907
-3.65532
-3.54535
-3.44139
-3.39142
-3.36834
-3.37895
-3.42047
-3.49204
-3.57686
-3.59373
-3.60324
-3.59051
-3.59317
-3.58959
-3.57961
-3.57038
-3.57746
-3.60029
-3.63409
-3.67495
-3.7191
-3.76161
-3.77104
-3.73016
-3.6528
-3.58059
-3.53323
-3.51096
-3.52141
-3.56431
-3.61952
-3.67118
-3.73679
-3.74728
-3.73174
-3.73135
-3.72749
-3.72353
-3.72219
-3.73231
-3.74452
-3.76238
-3.78651
-3.81196
-3.82601
-3.81622
-3.78225
-3.73753
-3.68989
-3.65121
-3.64241
-3.66591
-3.71109
-3.75536
-3.79027
-3.87855
-3.88339
-3.87174
-3.86916
-3.86619
-3.86653
-3.86875
-3.87519
-3.88268
-3.89165
-3.90351
-3.91212
-3.90797
-3.88919
-3.85992
-3.82952
-3.79346
-3.75977
-3.76656
-3.80339
-3.84813
-3.88577
-3.9162
-4.02698
-4.02265
-4.01017
-4.00477
-4.00188
-4.00288
-4.00708
-4.01144
-4.01576
-4.0186
-4.02179
-4.0194
-4.00657
-3.98363
-3.95449
-3.92974
-3.90093
-3.87022
-3.89059
-3.93573
-3.97902
-4.01543
-4.04848
-4.17519
-4.16058
-4.14696
-4.13928
-4.13579
-4.13566
-4.13994
-4.14324
-4.14473
-4.14506
-4.144
-4.13685
-4.12168
-4.09933
-4.07066
-4.04484
-4.02203
-3.98853
-4.01975
-4.0715
-4.11579
-4.15617
-4.19559
-4.30756
-4.29182
-4.28028
-4.27353
-4.2698
-4.26904
-4.27103
-4.27312
-4.2734
-4.27371
-4.27159
-4.26436
-4.25095
-4.23178
-4.20661
-4.17838
-4.16502
-4.12177
-4.16237
-4.22262
-4.27499
-4.32398
-4.3676
-4.42364
-4.41725
-4.41166
-4.40705
-4.40413
-4.40346
-4.4037
-4.40461
-4.40529
-4.40562
-4.40391
-4.39867
-4.38889
-4.37478
-4.3562
-4.33211
-4.32724
-4.28012
-4.3276
-4.40228
-4.47694
-4.54471
-4.58148
-4.54553
-4.54447
-4.54227
-4.5403
-4.53831
-4.53805
-4.53783
-4.53845
-4.53928
-4.53989
-4.53946
-4.53716
-4.5322
-4.52485
-4.51567
-4.50342
-4.49884
-4.47127
-4.51688
-4.6167
-4.73069
-4.83587
-4.8757
-4.67345
-4.67485
-4.67349
-4.67327
-4.67217
-4.67225
-4.67208
-4.67278
-4.67402
-4.67545
-4.67689
-4.67791
-4.67806
-4.67802
-4.67948
-4.68332
-4.67427
-4.67898
-4.71135
-4.85186
-5.00641
-5.15615
-5.22618
-4.80483
-4.80703
-4.80588
-4.80624
-4.80585
-4.80609
-4.80616
-4.80702
-4.80883
-4.81127
-4.81469
-4.81903
-4.82428
-4.83176
-4.84376
-4.85798
-4.84477
-4.86866
-4.9119
-5.06385
-5.24506
-5.43102
-5.53776
-4.93809
-4.94013
-4.93919
-4.93945
-4.93941
-4.93968
-4.93995
-4.94083
-4.94305
-4.9463
-4.95138
-4.95869
-4.96888
-4.98396
-5.00587
-5.02652
-5.02758
-5.06435
-5.10977
-5.25122
-5.41702
-5.5951
-5.72159
-5.07233
-5.07368
-5.073
-5.07296
-5.07288
-5.07301
-5.07329
-5.074
-5.0762
-5.07971
-5.08563
-5.0949
-5.10897
-5.13078
-5.16394
-5.20334
-5.24168
-5.29659
-5.33392
-5.42757
-5.52713
-5.65657
-5.76492
-5.20705
-5.20748
-5.20705
-5.20675
-5.2064
-5.20615
-5.20615
-5.20641
-5.208
-5.211
-5.21653
-5.22593
-5.24127
-5.26634
-5.30822
-5.37039
-5.45026
-5.53492
-5.57189
-5.58877
-5.59653
-5.65867
-5.73871
-5.34167
-5.34176
-5.34127
-5.34071
-5.33999
-5.33922
-5.3386
-5.33811
-5.33852
-5.34012
-5.34382
-5.35104
-5.3639
-5.38626
-5.42743
-5.49886
-5.59873
-5.69518
-5.7401
-5.69558
-5.6348
-5.64291
-5.69269
-5.47634
-5.47625
-5.47563
-5.47479
-5.47365
-5.47229
-5.47086
-5.46934
-5.46818
-5.46764
-5.46831
-5.47122
-5.47788
-5.49101
-5.51961
-5.57687
-5.65854
-5.74853
-5.78753
-5.72233
-5.64627
-5.63559
-5.66333
-5.61138
-5.61123
-5.61048
-5.60935
-5.60777
-5.6058
-5.60348
-5.60081
-5.59793
-5.59494
-5.59202
-5.58949
-5.58779
-5.58795
-5.59743
-5.62807
-5.67889
-5.7272
-5.74024
-5.69339
-5.65173
-5.64431
-5.66098
-5.74742
-5.74761
-5.74676
-5.74529
-5.7432
-5.74056
-5.7374
-5.73357
-5.72902
-5.72368
-5.71739
-5.70989
-5.70068
-5.68932
-5.67831
-5.67594
-5.68327
-5.70313
-5.72442
-5.73075
-5.72617
-5.72041
-5.71943
88.0979
93.44
119.922
127.958
119.247
107.435
91.0316
67.7837
48.3815
40.4577
25.0883
5.19949
0.518229
0.104877
-0.294537
-0.119806
-0.0689827
-0.145738
-0.286588
-0.232946
-0.417314
-0.434321
-0.429489
-0.392278
-0.837982
-0.824444
-0.792622
-0.745413
-1.26966
-1.2365
-1.1871
-1.11975
-1.68044
-1.64058
-1.57862
-1.49596
-1.99786
-1.95332
-1.88724
-1.80058
-2.21293
-2.16941
-2.10314
-2.01589
-2.32431
-2.28203
-2.21872
-2.13565
-2.3574
-2.31769
-2.25969
-2.1862
-2.3469
-2.31585
-2.27102
-2.21458
-2.34456
-2.32977
-2.30309
-2.27075
-2.39351
-2.41515
-2.4305
-2.42154
-2.55757
-2.61208
-2.67862
-2.71869
-2.83087
-2.898
-2.97476
-3.01831
-3.07358
-3.14496
-3.21177
-3.26094
-3.26862
-3.37884
-3.50174
-3.59655
-3.49685
-3.65852
-3.81967
-3.94204
-3.64501
-3.79424
-3.95146
-4.08638
-3.63034
-3.7361
-3.8636
-3.97545
-3.62686
-3.69079
-3.75076
-3.79837
-3.63515
-3.66946
-3.6988
-3.72196
-3.7002
-3.71483
-3.72698
-3.73828
-3.80797
-3.81632
-3.8226
-3.82744
-3.93146
-3.93832
-3.94325
-3.94594
-4.06356
-4.06966
-4.07384
-4.07566
-4.21057
-4.21639
-4.21987
-4.22058
-4.38363
-4.3891
-4.3906
-4.3885
-4.58457
-4.58568
-4.58445
-4.5791
-4.86325
-4.84661
-4.82137
-4.79865
-5.21551
-5.18581
-5.13105
-5.06982
-5.5298
-5.49827
-5.43845
-5.35594
-5.72743
-5.69848
-5.64082
-5.56149
-5.78643
-5.77528
-5.73929
-5.68448
-5.7643
-5.7636
-5.74648
-5.71376
-5.71667
-5.72142
-5.7152
-5.697
-5.68149
-5.68654
-5.68489
-5.67499
-5.6743
-5.6798
-5.68092
-5.6749
-5.72008
-5.72108
-5.71773
-5.70837
139.292
145.982
146.391
159.551
178.748
205.267
215.936
208.75
196.57
177.581
153.957
136.228
127.294
125.158
126.57
125.578
121.665
113.436
110.334
36.9549
14.1304
14.6668
33.0415
66.9452
93.1462
104.367
96.8259
86.1013
73.4136
55.5716
39.7614
32.3916
31.6465
32.1402
30.3104
26.4654
22.055
22.6843
0.273649
0.191857
0.386278
1.16865
7.05951
18.0472
25.4861
23.7673
17.9927
13.5442
10.0258
3.82452
0.946059
0.875401
1.06035
1.09876
1.1108
1.1802
1.20912
0.202132
0.0507977
0.205559
0.293179
0.308831
0.231047
-0.0519152
-0.253087
-0.237857
-0.0165928
0.229997
0.471646
0.689184
0.732951
0.796834
0.835305
0.907721
1.02025
1.07381
-0.109389
-0.0453852
0.108703
0.2253
0.233151
0.125481
-0.0704393
-0.230724
-0.25979
-0.154582
0.0213094
0.249322
0.505539
0.61298
0.633569
0.628252
0.664775
0.802174
0.901543
-0.322448
-0.20877
-0.054464
0.094321
0.129229
0.0490793
-0.134431
-0.313027
-0.39751
-0.35236
-0.189401
0.0841258
0.349509
0.470912
0.482976
0.45605
0.41722
0.498587
0.612891
-0.638578
-0.471058
-0.293398
-0.130316
-0.0714227
-0.159344
-0.354082
-0.555206
-0.676448
-0.662195
-0.520294
-0.239853
0.076096
0.273988
0.333333
0.255198
0.0857097
0.0345948
0.202246
-0.984668
-0.777435
-0.579926
-0.413347
-0.352425
-0.468074
-0.654136
-0.835304
-0.973506
-0.998692
-0.863299
-0.569313
-0.190304
0.0855834
0.236851
-0.00530881
-0.334727
-0.434083
-0.193508
-1.33319
-1.09109
-0.867693
-0.694806
-0.614169
-0.696119
-0.845066
-1.0244
-1.18964
-1.24393
-1.12455
-0.827183
-0.419258
-0.0983087
0.0414342
-0.335814
-0.637236
-0.640794
-0.454396
-1.62985
-1.36882
-1.11587
-0.894025
-0.762751
-0.786498
-0.91521
-1.12617
-1.32375
-1.40691
-1.30989
-1.04096
-0.673252
-0.377041
-0.446196
-0.710295
-0.771111
-0.683182
-0.601311
-1.84552
-1.58346
-1.29777
-1.01067
-0.80265
-0.794365
-0.913583
-1.15592
-1.36776
-1.46691
-1.40764
-1.23704
-1.02434
-0.853133
-0.888681
-0.95547
-0.892011
-0.780864
-0.737289
-1.97752
-1.72522
-1.40587
-1.05265
-0.806664
-0.802612
-0.915811
-1.1336
-1.32387
-1.42133
-1.40351
-1.39725
-1.47514
-1.47098
-1.35471
-1.2318
-1.1168
-0.989654
-0.936637
-2.05073
-1.79969
-1.47829
-1.09869
-0.88076
-0.877952
-0.972062
-1.14929
-1.30267
-1.36666
-1.35841
-1.46194
-1.74226
-1.87178
-1.73163
-1.53111
-1.38733
-1.2655
-1.17226
-2.0997
-1.87184
-1.54456
-1.23522
-1.09375
-1.04714
-1.11336
-1.25539
-1.36937
-1.39007
-1.35402
-1.45663
-1.75853
-1.90282
-1.82062
-1.6799
-1.56253
-1.4551
-1.3669
-2.19665
-2.01289
-1.72968
-1.4864
-1.37173
-1.29515
-1.33804
-1.45078
-1.53051
-1.51316
-1.44674
-1.51545
-1.73922
-1.88153
-1.85593
-1.75064
-1.64747
-1.56041
-1.50932
-2.39492
-2.28661
-2.10205
-1.88934
-1.70229
-1.58976
-1.61448
-1.69752
-1.75456
-1.71964
-1.64434
-1.68036
-1.8446
-1.95531
-1.93597
-1.84144
-1.74453
-1.6646
-1.63303
-2.73126
-2.62382
-2.44935
-2.24788
-2.04834
-1.89369
-1.90196
-1.95375
-2.00096
-1.97594
-1.91436
-1.93318
-2.03504
-2.10147
-2.06415
-1.96369
-1.86431
-1.78042
-1.7578
-3.02976
-2.93631
-2.74178
-2.51781
-2.32016
-2.1614
-2.14876
-2.17898
-2.22373
-2.22748
-2.21148
-2.23518
-2.28599
-2.2941
-2.2221
-2.11308
-2.01753
-1.94476
-1.9177
-3.30438
-3.23769
-3.03977
-2.79704
-2.54651
-2.38015
-2.34081
-2.35524
-2.40246
-2.43732
-2.48154
-2.53018
-2.55206
-2.50988
-2.39694
-2.28158
-2.21297
-2.16829
-2.12003
-3.69414
-3.62985
-3.40066
-3.09665
-2.75541
-2.57525
-2.51058
-2.50996
-2.55755
-2.63385
-2.72793
-2.78256
-2.78121
-2.70549
-2.57069
-2.46177
-2.39826
-2.37407
-2.36045
-4.05544
-3.96244
-3.68645
-3.30208
-2.93258
-2.76184
-2.68538
-2.67311
-2.72367
-2.84505
-2.96178
-2.99744
-2.96872
-2.86886
-2.72894
-2.62848
-2.54319
-2.51392
-2.55206
-4.20143
-4.09224
-3.77382
-3.37396
-3.07405
-2.93723
-2.8641
-2.84103
-2.90597
-3.06009
-3.16089
-3.17509
-3.12392
-3.0129
-2.87958
-2.76881
-2.66846
-2.64021
-2.67845
-4.05982
-3.94231
-3.67621
-3.39998
-3.20825
-3.10576
-3.03782
-3.01362
-3.09283
-3.2461
-3.31826
-3.31918
-3.26609
-3.16587
-3.04695
-2.91312
-2.80816
-2.79176
-2.82158
-3.83107
-3.74364
-3.59367
-3.44987
-3.34557
-3.26981
-3.20347
-3.18558
-3.26346
-3.37832
-3.43176
-3.43268
-3.395
-3.32938
-3.2413
-3.13364
-3.05253
-3.01139
-2.99757
-3.72961
-3.67098
-3.5997
-3.53445
-3.47815
-3.42193
-3.36381
-3.34983
-3.40343
-3.46641
-3.49364
-3.49809
-3.49884
-3.51634
-3.51367
-3.45521
-3.37334
-3.28884
-3.21772
-3.74158
-3.70973
-3.67524
-3.64159
-3.60702
-3.56503
-3.52128
-3.50715
-3.52907
-3.54649
-3.54204
-3.54345
-3.59118
-3.69795
-3.7792
-3.75301
-3.64028
-3.51499
-3.4155
-3.82645
-3.80556
-3.78362
-3.76128
-3.73729
-3.70755
-3.67655
-3.66045
-3.66151
-3.65147
-3.61958
-3.60825
-3.67262
-3.81327
-3.91514
-3.89095
-3.7825
-3.65006
-3.54945
-3.94289
-3.9249
-3.90651
-3.88881
-3.87052
-3.84989
-3.82785
-3.81124
-3.80503
-3.78672
-3.73714
-3.69633
-3.72841
-3.84506
-3.9227
-3.89643
-3.84015
-3.75676
-3.66482
-4.07192
-4.05502
-4.03793
-4.02188
-4.00606
-3.9905
-3.97574
-3.96119
-3.95371
-3.94718
-3.90616
-3.83623
-3.81743
-3.88175
-3.90272
-3.90506
-3.92993
-3.89908
-3.82636
-4.21514
-4.19673
-4.17767
-4.16018
-4.14437
-4.13033
-4.11891
-4.10852
-4.10512
-4.112
-4.08488
-4.01923
-3.97983
-4.03035
-4.08846
-4.08095
-4.0814
-4.05428
-4.00386
-4.37804
-4.35262
-4.32651
-4.30412
-4.28602
-4.27134
-4.26048
-4.25264
-4.25306
-4.27149
-4.27443
-4.23624
-4.21196
-4.224
-4.23901
-4.2446
-4.23027
-4.19318
-4.17129
-4.56149
-4.52292
-4.48442
-4.45347
-4.43059
-4.41331
-4.40119
-4.39428
-4.39694
-4.423
-4.45791
-4.43881
-4.39056
-4.36342
-4.35342
-4.38445
-4.40892
-4.38363
-4.34814
-4.76405
-4.70561
-4.65018
-4.60723
-4.57729
-4.55569
-4.54054
-4.53189
-4.53303
-4.55345
-4.58737
-4.58529
-4.5398
-4.51388
-4.50582
-4.56635
-4.62303
-4.61007
-4.54736
-4.98881
-4.90258
-4.82175
-4.76325
-4.72461
-4.69781
-4.67914
-4.66723
-4.66358
-4.67137
-4.68865
-4.69263
-4.67482
-4.65345
-4.67523
-4.76892
-4.82336
-4.80446
-4.74961
-5.22454
-5.09618
-4.98979
-4.9156
-4.86936
-4.83814
-4.81657
-4.80198
-4.79381
-4.79184
-4.79672
-4.79984
-4.79273
-4.78186
-4.82714
-4.92298
-4.94576
-4.93077
-4.92879
-5.42808
-5.27103
-5.14317
-5.05845
-5.00794
-4.97451
-4.95147
-4.9353
-4.92448
-4.91738
-4.91541
-4.9141
-4.90327
-4.909
-4.96695
-5.03459
-5.02167
-5.01067
-5.04434
-5.56343
-5.40469
-5.27065
-5.1855
-5.13766
-5.10505
-5.08241
-5.06614
-5.05447
-5.04595
-5.04126
-5.03432
-5.01511
-5.03889
-5.09803
-5.12775
-5.10994
-5.10113
-5.12657
-5.63475
-5.49292
-5.37082
-5.2943
-5.25895
-5.22917
-5.20869
-5.19393
-5.18376
-5.17754
-5.17431
-5.16017
-5.14498
-5.17769
-5.20733
-5.21869
-5.21412
-5.2098
-5.2236
-5.6442
-5.54389
-5.45309
-5.39633
-5.36608
-5.34686
-5.33057
-5.31868
-5.31293
-5.31327
-5.3192
-5.30244
-5.29974
-5.31867
-5.32633
-5.32775
-5.32557
-5.32422
-5.33392
-5.64435
-5.58285
-5.52675
-5.49074
-5.46977
-5.45488
-5.44581
-5.44161
-5.44224
-5.44813
-5.46341
-5.47223
-5.46742
-5.46651
-5.46684
-5.45372
-5.44602
-5.44476
-5.44893
-5.65781
-5.62915
-5.60258
-5.58443
-5.57322
-5.56562
-5.56269
-5.56513
-5.57117
-5.57469
-5.60361
-5.71164
-5.63775
-5.64789
-5.62761
-5.59018
-5.57255
-5.56872
-5.56721
-5.69476
-5.68831
-5.68355
-5.67934
-5.6764
-5.67502
-5.67715
-5.68352
-5.69482
-5.71326
-5.75925
-6.0476
-5.81256
-5.79996
-5.76422
-5.72824
-5.70176
-5.69228
-5.68654
)
;

boundaryField
{
    leftWall
    {
        type            calculated;
        value           nonuniform List<scalar> 
50
(
699.71
643.04
588.355
532.879
475.49
414.587
348.832
283.909
182.067
44.9812
1.87192
0.526152
0.255402
0.0248076
-0.189447
-0.340526
-0.472164
-0.63705
-0.842445
-1.06528
-1.27946
-1.47819
-1.64482
-1.79283
-1.94543
-2.11578
-2.32031
-2.5562
-2.78089
-2.9518
-3.10722
-3.27713
-3.44473
-3.59373
-3.73679
-3.87855
-4.02698
-4.17519
-4.30756
-4.42364
-4.54553
-4.67345
-4.80483
-4.93809
-5.07233
-5.20705
-5.34167
-5.47634
-5.61138
-5.74742
)
;
    }
    rightWall
    {
        type            calculated;
        value           nonuniform List<scalar> 
50
(
599.523
545.645
492.687
439.563
383.475
324.27
264.961
204.935
110.334
22.6843
1.20912
1.07381
0.901543
0.612891
0.202246
-0.193508
-0.454396
-0.601311
-0.737289
-0.936637
-1.17226
-1.3669
-1.50932
-1.63303
-1.7578
-1.9177
-2.12003
-2.36045
-2.55206
-2.67845
-2.82158
-2.99757
-3.21772
-3.4155
-3.54945
-3.66482
-3.82636
-4.00386
-4.17129
-4.34814
-4.54736
-4.74961
-4.92879
-5.04434
-5.12657
-5.2236
-5.33392
-5.44893
-5.56721
-5.68654
)
;
    }
    lowerWall
    {
        type            calculated;
        value           nonuniform List<scalar> 
62
(
728.562
735.324
744.978
755.422
767.912
780.632
794.451
808.482
819.976
828.516
838.121
848.962
858.499
863.641
866.411
870.622
876.982
882.724
887.133
890.995
894.725
895.655
894.945
865.521
806.664
747.419
687.445
625.395
558.855
483.081
393.76
150.689
156.031
182.513
190.549
656.454
600.373
544.003
486.5
425.909
361.822
299.729
237.023
684.005
686.043
697.184
696.895
699.285
716.514
720.223
713.785
709.366
697.216
676.277
658.704
655.197
659.024
649.82
635.84
629.401
625.989
626.243
)
;
    }
    atmosphere
    {
        type            calculated;
        value           nonuniform List<scalar> 
46
(
-5.81601
-5.81675
-5.81577
-5.8141
-5.81173
-5.80868
-5.80519
-5.80077
-5.79542
-5.78903
-5.78138
-5.77214
-5.76086
-5.74705
-5.73348
-5.72904
-5.72914
-5.73037
-5.74458
-5.75997
-5.75613
-5.75425
-5.75425
-5.75643
-5.79184
-5.79864
-5.76801
-5.73663
-5.73021
-5.72904
-5.72904
-5.72904
-5.72904
-5.72904
-5.7306
-5.74356
-5.74598
-5.87004
-6.54786
-5.77313
-5.74927
-5.79974
-5.80133
-5.76547
-5.7535
-5.74571
)
;
    }
    defaultFaces
    {
        type            empty;
    }
}


// ************************************************************************* //
