/*--------------------------------*- C++ -*----------------------------------*\
| =========                 |                                                 |
| \\      /  F ield         | OpenFOAM: The Open Source CFD Toolbox           |
|  \\    /   O peration     | Version:  2.3.0                                 |
|   \\  /    A nd           | Web:      www.OpenFOAM.org                      |
|    \\/     M anipulation  |                                                 |
\*---------------------------------------------------------------------------*/
FoamFile
{
    version     2.0;
    format      ascii;
    class       surfaceScalarField;
    location    "2.8";
    object      phi;
}
// * * * * * * * * * * * * * * * * * * * * * * * * * * * * * * * * * * * * * //

dimensions      [0 3 -1 0 0 0 0];

internalField   nonuniform List<scalar> 
4432
(
-2.148e-07
2.148e-07
6.81017e-07
-8.95832e-07
2.23889e-06
-1.55785e-06
3.52098e-06
-1.2821e-06
6.01192e-06
-2.49094e-06
8.81612e-06
-2.8042e-06
9.80059e-06
-9.84469e-07
8.16184e-06
1.63875e-06
6.45122e-06
1.71061e-06
6.87935e-06
-4.2813e-07
1.0058e-05
-3.17867e-06
1.51917e-05
-5.13368e-06
2.07297e-05
-5.53801e-06
2.45914e-05
-3.8617e-06
2.51502e-05
-5.58799e-07
2.24608e-05
2.68945e-06
1.8254e-05
4.2068e-06
1.39027e-05
4.35129e-06
1.01052e-05
3.79748e-06
6.76706e-06
3.33814e-06
3.49268e-06
3.27438e-06
3.04926e-07
3.18776e-06
3.04925e-07
-6.55237e-07
8.70059e-07
-1.95132e-06
4.00228e-07
-2.36846e-06
-1.1407e-06
-1.68934e-06
-1.96123e-06
-2.57307e-07
-3.92298e-06
2.7012e-06
-5.76271e-06
5.94858e-06
-4.23185e-06
7.82304e-06
-2.35715e-07
8.80776e-06
7.25891e-07
1.0733e-05
-2.35335e-06
1.44964e-05
-6.94211e-06
1.98448e-05
-1.04821e-05
2.56216e-05
-1.13148e-05
2.96638e-05
-7.90392e-06
3.08241e-05
-1.71912e-06
2.96874e-05
3.82621e-06
2.68728e-05
7.02138e-06
2.25848e-05
8.63928e-06
1.74193e-05
8.96298e-06
1.23519e-05
8.4056e-06
7.21859e-06
8.40767e-06
2.34097e-06
8.06539e-06
2.64589e-06
7.68909e-07
1.01171e-07
-1.67263e-06
2.84174e-06
-2.94839e-06
1.3507e-07
-2.38154e-06
-2.52808e-06
-1.5719e-06
-4.73262e-06
-1.25807e-07
-7.20881e-06
2.59035e-06
-6.94802e-06
6.90791e-06
-4.55327e-06
1.13129e-05
-3.67914e-06
1.52469e-05
-6.28731e-06
1.93002e-05
-1.09954e-05
2.40058e-05
-1.51876e-05
2.90352e-05
-1.63442e-05
3.34112e-05
-1.22799e-05
3.5006e-05
-3.31397e-06
3.2973e-05
5.85926e-06
2.90428e-05
1.09516e-05
2.4715e-05
1.2967e-05
2.01636e-05
1.35144e-05
1.54621e-05
1.31071e-05
1.02396e-05
1.36302e-05
4.61571e-06
1.36893e-05
7.2616e-06
1.83901e-06
-1.73783e-06
1.64608e-06
3.03466e-06
8.47418e-07
9.33734e-07
1.3252e-06
-3.00587e-06
2.4153e-06
-5.82272e-06
3.9242e-06
-8.71771e-06
6.88658e-06
-9.91039e-06
1.14714e-05
-9.13806e-06
1.64446e-05
-8.65242e-06
2.09805e-05
-1.08232e-05
2.51347e-05
-1.51496e-05
2.89832e-05
-1.90361e-05
3.23738e-05
-1.97348e-05
3.53241e-05
-1.52302e-05
3.69296e-05
-4.91941e-06
3.55042e-05
7.28468e-06
3.13776e-05
1.50782e-05
2.67595e-05
1.75851e-05
2.268e-05
1.75939e-05
1.85446e-05
1.72425e-05
1.3471e-05
1.87038e-05
7.12854e-06
2.00318e-05
1.43901e-05
2.42473e-07
-1.98029e-06
3.20018e-06
7.69235e-08
5.23367e-06
-1.09975e-06
6.39398e-06
-4.16619e-06
7.77286e-06
-7.2016e-06
9.66413e-06
-1.0609e-05
1.27411e-05
-1.29874e-05
1.71348e-05
-1.35318e-05
2.20147e-05
-1.35323e-05
2.66473e-05
-1.54558e-05
3.05727e-05
-1.90751e-05
3.35225e-05
-2.19858e-05
3.5356e-05
-2.15684e-05
3.64384e-05
-1.63125e-05
3.71569e-05
-5.63795e-06
3.65143e-05
7.92728e-06
3.36073e-05
1.79852e-05
2.96821e-05
2.15103e-05
2.6001e-05
2.12749e-05
2.21186e-05
2.11249e-05
1.70061e-05
2.38163e-05
9.92346e-06
2.71144e-05
2.43136e-05
-2.39026e-06
4.09977e-07
1.15311e-06
-3.46646e-06
5.68421e-06
-5.63086e-06
8.98586e-06
-7.46784e-06
1.16963e-05
-9.91204e-06
1.45822e-05
-1.34949e-05
1.80872e-05
-1.64923e-05
2.23187e-05
-1.77633e-05
2.69005e-05
-1.81141e-05
3.11048e-05
-1.966e-05
3.42773e-05
-2.22476e-05
3.60269e-05
-2.37355e-05
3.64584e-05
-2.19999e-05
3.61498e-05
-1.60039e-05
3.58916e-05
-5.37972e-06
3.57378e-05
8.08102e-06
3.45901e-05
1.91329e-05
3.22876e-05
2.38128e-05
2.94217e-05
2.41408e-05
2.58261e-05
2.47205e-05
2.06556e-05
2.89869e-05
1.29364e-05
3.48336e-05
3.725e-05
-2.28155e-06
2.69153e-06
1.52333e-06
-7.27136e-06
6.3733e-06
-1.04808e-05
1.00646e-05
-1.11591e-05
1.34162e-05
-1.32636e-05
1.70076e-05
-1.70864e-05
2.09682e-05
-2.04528e-05
2.51544e-05
-2.19495e-05
2.92935e-05
-2.22532e-05
3.27361e-05
-2.31026e-05
3.49068e-05
-2.44182e-05
3.5552e-05
-2.43807e-05
3.50336e-05
-2.14814e-05
3.40143e-05
-1.49847e-05
3.3357e-05
-4.72241e-06
3.34946e-05
7.94343e-06
3.37349e-05
1.88926e-05
3.31891e-05
2.43587e-05
3.1674e-05
2.56559e-05
2.88839e-05
2.75106e-05
2.40954e-05
3.37754e-05
1.67093e-05
4.22197e-05
5.39593e-05
1.17208e-07
2.57432e-06
3.79208e-06
-1.09462e-05
7.39791e-06
-1.40867e-05
1.01643e-05
-1.39255e-05
1.29096e-05
-1.60089e-05
1.60403e-05
-2.02171e-05
1.96681e-05
-2.40806e-05
2.35242e-05
-2.58056e-05
2.71843e-05
-2.59134e-05
3.00258e-05
-2.59441e-05
3.15729e-05
-2.59653e-05
3.17937e-05
-2.46015e-05
3.10537e-05
-2.07415e-05
3.0072e-05
-1.40029e-05
2.96514e-05
-4.30185e-06
3.01846e-05
7.41033e-06
3.13703e-05
1.77068e-05
3.23855e-05
2.33435e-05
3.25396e-05
2.55018e-05
3.11513e-05
2.88989e-05
2.74418e-05
3.74849e-05
1.98915e-05
4.977e-05
7.38508e-05
1.1389e-06
-1.1389e-06
-9.66368e-07
2.10527e-06
-7.45344e-06
6.48708e-06
-1.59843e-05
8.53088e-06
-1.82592e-05
2.27491e-06
-9.76752e-06
-8.49171e-06
-3.1437e-06
-6.62381e-06
-4.4713e-07
-2.69658e-06
3.97894e-06
-4.42607e-06
1.11429e-05
-7.16399e-06
1.65573e-05
-5.41439e-06
1.54771e-05
1.0802e-06
7.02159e-06
8.45551e-06
-1.8327e-06
8.85429e-06
-6.9041e-06
5.07139e-06
-1.00524e-05
3.1483e-06
-9.7894e-06
-2.62993e-07
-5.81154e-06
-3.97786e-06
-5.81153e-06
-7.45729e-07
-3.9317e-07
-2.35883e-06
3.71837e-06
-1.05239e-05
1.46521e-05
-1.70202e-05
1.50272e-05
-1.45009e-05
-2.44363e-07
-5.58345e-06
-1.74092e-05
-1.51654e-07
-1.20556e-05
2.34324e-06
-5.19148e-06
5.18436e-06
-7.2672e-06
1.06645e-05
-1.26442e-05
1.50218e-05
-9.7717e-06
1.61726e-05
-7.06185e-08
1.19429e-05
1.26853e-05
1.51779e-06
1.92794e-05
-6.39975e-06
1.29889e-05
-7.66955e-06
4.41811e-06
-6.60959e-06
-1.32295e-06
-4.38148e-06
-6.20599e-06
-1.0193e-05
-2.82244e-06
2.42927e-06
-2.8359e-06
3.73183e-06
-7.68387e-06
1.95001e-05
-1.17009e-05
1.90443e-05
-1.00831e-05
-1.86213e-06
-4.89637e-06
-2.2596e-05
-4.32709e-07
-1.65193e-05
1.47195e-06
-7.09613e-06
3.32776e-06
-9.12302e-06
7.55742e-06
-1.68738e-05
1.10432e-05
-1.32575e-05
1.24464e-05
-1.47385e-06
1.18229e-05
1.33088e-05
6.10744e-06
2.49948e-05
-5.29e-07
1.96253e-05
-2.10428e-06
5.9934e-06
-2.16047e-06
-1.26677e-06
-2.26329e-06
-6.10318e-06
-1.24563e-05
-4.89955e-06
7.32882e-06
-3.11795e-06
1.95023e-06
-3.69892e-06
2.0081e-05
-5.98066e-06
2.1326e-05
-5.58323e-06
-2.25955e-06
-5.35256e-06
-2.28267e-05
-3.36227e-06
-1.85095e-05
-2.44726e-06
-8.01114e-06
-1.75494e-07
-1.13948e-05
3.41907e-06
-2.04684e-05
6.10456e-06
-1.5943e-05
7.0542e-06
-2.42348e-06
8.29594e-06
1.20671e-05
7.89668e-06
2.53941e-05
4.94892e-06
2.25731e-05
2.69944e-06
8.24288e-06
1.1498e-06
2.8287e-07
-4.98248e-07
-4.45515e-06
-1.29545e-05
-5.82476e-06
1.31536e-05
-3.17866e-06
-6.95871e-07
-6.12135e-07
1.75145e-05
-2.26051e-06
2.29744e-05
-3.00257e-06
-1.51749e-06
-5.89787e-06
-1.99314e-05
-6.71799e-06
-1.76894e-05
-6.18161e-06
-8.54752e-06
-3.76081e-06
-1.38156e-05
-1.62466e-06
-2.26045e-05
-3.78236e-07
-1.71894e-05
1.99565e-07
-3.00128e-06
2.38692e-06
9.87972e-06
6.0729e-06
2.17081e-05
6.6012e-06
2.20448e-05
4.73053e-06
1.01135e-05
2.02308e-06
2.99033e-06
4.76875e-07
-2.90896e-06
-1.24777e-05
-3.47587e-06
1.66294e-05
-2.3151e-06
-1.85664e-06
1.40744e-06
1.37919e-05
2.37129e-06
2.20105e-05
3.35949e-07
5.17852e-07
-5.78464e-06
-1.38108e-05
-8.66097e-06
-1.48131e-05
-8.31004e-06
-8.89844e-06
-7.23723e-06
-1.48884e-05
-7.32041e-06
-2.25213e-05
-7.45294e-06
-1.70569e-05
-6.89112e-06
-3.56309e-06
-4.44504e-06
7.43364e-06
1.29053e-06
1.59726e-05
4.50448e-06
1.88308e-05
3.97775e-06
1.06403e-05
7.1612e-07
6.25196e-06
1.32407e-06
-3.51692e-06
-1.11536e-05
3.26936e-06
1.33601e-05
2.25899e-06
-8.46282e-07
2.69551e-06
1.33554e-05
6.181e-06
1.8525e-05
2.92634e-06
3.77252e-06
-5.05138e-06
-5.83308e-06
-9.22707e-06
-1.06374e-05
-9.61932e-06
-8.50618e-06
-1.0919e-05
-1.35887e-05
-1.34185e-05
-2.00218e-05
-1.48556e-05
-1.56197e-05
-1.36097e-05
-4.80904e-06
-1.08077e-05
4.63168e-06
-5.0529e-06
1.02177e-05
-2.30277e-07
1.40082e-05
-8.24158e-08
1.04924e-05
-1.72608e-07
6.34215e-06
2.39889e-06
-6.08842e-06
-8.75469e-06
1.54156e-05
-2.05552e-06
1.56856e-05
-1.11632e-06
1.08609e-05
1.81802e-05
9.50461e-06
1.98813e-05
5.24865e-06
8.02848e-06
-3.5892e-06
3.00477e-06
-9.38213e-06
-4.84447e-06
-1.14856e-05
-6.40267e-06
-1.47472e-05
-1.03272e-05
-1.91048e-05
-1.56642e-05
-2.18105e-05
-1.2914e-05
-2.07953e-05
-5.82428e-06
-1.72414e-05
1.07783e-06
-1.26198e-05
5.59608e-06
-7.94208e-06
9.3305e-06
-5.37475e-06
7.92508e-06
-1.64896e-06
2.61637e-06
1.039e-06
-8.77639e-06
-7.71569e-06
7.43863e-06
-4.86431e-06
9.26551e-06
-1.27731e-05
8.76529e-06
-1.35864e-05
1.03954e-05
-1.55557e-05
1.46151e-05
-2.02286e-05
2.03224e-05
-2.59244e-05
2.66659e-05
-3.04241e-05
3.29064e-05
-3.20461e-05
3.8382e-05
-3.1389e-05
4.28495e-05
-3.04116e-05
4.57019e-05
-2.88177e-05
4.68651e-05
-2.57647e-05
4.68533e-05
-2.07297e-05
4.69469e-05
-1.40966e-05
4.84768e-05
-5.83174e-06
5.16767e-05
4.21039e-06
5.6008e-05
1.33756e-05
5.99672e-05
1.93843e-05
6.22565e-05
2.32125e-05
6.2767e-05
2.83884e-05
6.3356e-05
3.68958e-05
6.80547e-05
4.50713e-05
5.28613e-05
8.90443e-05
6.78889e-06
-1.16532e-05
-5.05441e-06
-9.29819e-07
-1.36857e-05
-4.95513e-06
-1.26538e-05
-1.65876e-05
-6.89007e-06
-2.59923e-05
-8.5646e-07
-3.1958e-05
4.26544e-06
-3.5546e-05
7.91008e-06
-3.56908e-05
9.86756e-06
-3.33465e-05
1.13966e-05
-3.19406e-05
1.32842e-05
-3.07054e-05
1.60396e-05
-2.85201e-05
1.90551e-05
-2.37452e-05
2.13493e-05
-1.63907e-05
2.28965e-05
-7.37892e-06
2.43741e-05
2.73276e-06
2.61692e-05
1.15805e-05
2.87842e-05
1.67692e-05
3.22072e-05
1.97895e-05
3.69356e-05
2.36601e-05
4.55171e-05
2.83143e-05
5.88965e-05
3.16919e-05
3.3495e-05
7.82628e-05
-3.76617e-05
2.60085e-05
-4.49274e-05
6.33588e-06
-3.94334e-05
-1.04492e-05
-2.94368e-05
-2.65842e-05
-1.60078e-05
-3.94213e-05
-1.9368e-06
-4.60291e-05
7.82564e-06
-4.53084e-05
1.18561e-05
-3.97213e-05
1.15502e-05
-3.30405e-05
8.61518e-06
-2.90056e-05
5.70929e-06
-2.77995e-05
4.9258e-06
-2.77366e-05
5.81874e-06
-2.46382e-05
6.43454e-06
-1.70065e-05
6.09221e-06
-7.03659e-06
6.02338e-06
2.80159e-06
6.77773e-06
1.08262e-05
6.52875e-06
1.70182e-05
6.35583e-06
1.99624e-05
8.96806e-06
2.10478e-05
1.69075e-05
2.03749e-05
2.97594e-05
1.884e-05
1.48312e-05
4.84232e-05
-1.72851e-05
4.32936e-05
-2.83745e-05
1.74256e-05
-8.25684e-06
-3.05669e-05
1.66559e-05
-5.14974e-05
3.51272e-05
-5.78925e-05
5.22456e-05
-6.31476e-05
7.46283e-05
-6.76911e-05
9.66327e-05
-6.17257e-05
9.33035e-05
-2.97113e-05
8.87695e-05
-2.44716e-05
7.8042e-05
-1.70719e-05
6.59452e-05
-1.56398e-05
5.54382e-05
-1.41311e-05
4.83403e-05
-9.9087e-06
4.76886e-05
-6.38485e-06
4.95216e-05
9.68538e-07
4.73122e-05
1.30356e-05
3.84828e-05
2.58477e-05
2.45613e-05
3.38839e-05
1.16048e-05
3.40044e-05
1.18047e-05
2.01749e-05
2.97046e-05
9.40105e-07
-1.09791e-05
5.55149e-05
-1.46675e-05
5.79608e-05
-1.61026e-06
4.36834e-06
1.90928e-05
-5.12695e-05
4.76965e-05
-8.01009e-05
8.10356e-05
-9.12313e-05
0.000111241
-9.33531e-05
0.000138719
-9.51695e-05
0.000171224
-9.42305e-05
0.000219754
-7.82411e-05
0.000249034
-5.37522e-05
0.000257716
-2.57541e-05
0.000243429
-1.35244e-06
0.000205128
2.41701e-05
0.000170673
2.45466e-05
0.000145117
1.91704e-05
0.000135484
1.06023e-05
0.000137653
1.0866e-05
0.00014353
1.99712e-05
0.000145412
3.20018e-05
0.00010312
7.62959e-05
2.62682e-05
9.70269e-05
-3.55266e-05
6.27348e-05
4.8295e-05
-9.48007e-05
-7.82031e-06
6.5781e-05
1.0456e-05
-1.39083e-05
3.30671e-05
-7.38805e-05
5.9165e-05
-0.000106199
8.60569e-05
-0.000118123
0.000110083
-0.000117379
0.00012928
-0.000114366
0.000147872
-0.000112823
0.000174303
-0.000104672
0.000203421
-8.28706e-05
0.000226941
-4.92736e-05
0.000239441
-1.38518e-05
0.000243617
1.99937e-05
0.000227874
4.02894e-05
0.000202724
4.43204e-05
0.000176195
3.71316e-05
0.000150987
3.60735e-05
0.000116331
5.46278e-05
5.62998e-05
9.20326e-05
-6.35519e-06
0.000138951
-5.48708e-05
0.000145542
-0.000104794
0.000112658
7.35273e-05
-0.000130026
1.08717e-05
5.49095e-05
3.16059e-05
-3.46425e-05
5.80744e-05
-0.000100349
8.60215e-05
-0.000134146
0.000112681
-0.000144783
0.000131813
-0.00013651
0.000140328
-0.000122882
0.000144417
-0.00011691
0.000149733
-0.000109988
0.000158867
-9.20052e-05
0.000170364
-6.07705e-05
0.000180885
-2.43722e-05
0.000186579
1.42997e-05
0.000180183
4.66853e-05
0.000165527
5.89762e-05
0.000141693
6.09656e-05
0.000102231
7.55356e-05
4.33855e-05
0.000113473
-2.39316e-05
0.000159349
-7.38761e-05
0.000188895
-0.000106149
0.000177815
-0.000128299
0.000134807
8.14186e-05
-0.00013619
2.37927e-05
3.11168e-05
4.79469e-05
-5.87966e-05
6.8702e-05
-0.000121104
9.21416e-05
-0.000157586
0.000118476
-0.000171118
0.000141442
-0.000159475
0.000147587
-0.000129028
0.000142089
-0.000111412
0.00013263
-0.000100528
0.00012646
-8.58355e-05
0.000127757
-6.20679e-05
0.000129602
-2.62169e-05
0.000127936
1.59659e-05
0.00012255
5.2072e-05
0.000111755
6.97703e-05
8.35998e-05
8.9121e-05
3.69812e-05
0.000122154
-2.01196e-05
0.000170574
-6.91373e-05
0.000208367
-9.7927e-05
0.000217685
-0.000111227
0.000191115
-0.000116246
0.000139826
8.04332e-05
-0.000115261
2.80331e-05
3.08351e-06
5.00832e-05
-8.08468e-05
6.27722e-05
-0.000133792
8.3159e-05
-0.000177973
0.000106941
-0.000194899
0.000127152
-0.000179686
0.000134289
-0.000136165
0.000123882
-0.000101005
0.000102399
-7.90457e-05
8.41307e-05
-6.75666e-05
7.8847e-05
-5.67843e-05
7.32975e-05
-2.06672e-05
6.77911e-05
2.14723e-05
6.09499e-05
5.89129e-05
4.79741e-05
8.27461e-05
1.95475e-05
0.000117548
-2.0342e-05
0.000162044
-5.79233e-05
0.000208155
-8.1133e-05
0.000231577
-8.82231e-05
0.000224775
-8.54722e-05
0.000188364
-7.85602e-05
0.000132914
7.20295e-05
-7.01568e-05
2.61581e-05
-2.30744e-05
3.91727e-05
-9.38613e-05
4.75426e-05
-0.000142162
6.96908e-05
-0.000200121
8.89234e-05
-0.000214132
0.00010079
-0.000191552
0.00010309
-0.000138465
8.97822e-05
-8.76973e-05
6.14122e-05
-5.06758e-05
3.3114e-05
-3.92677e-05
1.703e-05
-4.07002e-05
8.87584e-06
-1.25132e-05
5.47404e-06
2.4874e-05
-5.71264e-07
6.49583e-05
-1.25283e-05
9.47032e-05
-3.26832e-05
0.000137703
-5.45629e-05
0.000183923
-6.72786e-05
0.000220871
-6.71666e-05
0.000231465
-5.70398e-05
0.000214648
-4.24779e-05
0.000173802
-2.6688e-05
0.000117124
5.7449e-05
-1.21077e-05
2.13191e-05
-4.43933e-05
2.15902e-05
-9.4132e-05
3.26035e-05
-0.000153176
4.97744e-05
-0.000217292
6.25025e-05
-0.00022686
6.78479e-05
-0.000196898
6.41387e-05
-0.000134756
4.77908e-05
-7.13493e-05
1.87087e-05
-2.15937e-05
-1.13412e-05
-9.21776e-06
-2.76948e-05
-2.43465e-05
-3.60245e-05
-4.18364e-06
-4.37144e-05
3.2564e-05
-4.72199e-05
6.84638e-05
-5.31582e-05
0.000100642
-5.95447e-05
0.00014409
-6.11958e-05
0.000185574
-5.30036e-05
0.000212679
-3.59648e-05
0.000214426
-1.4064e-05
0.000192747
9.7457e-06
0.000149993
3.17402e-05
9.51295e-05
3.84522e-05
5.0737e-05
1.24872e-05
-5.68804e-05
6.70405e-06
-8.83487e-05
1.53485e-05
-0.00016182
1.99227e-05
-0.000221866
2.57848e-05
-0.000232723
2.85933e-05
-0.000199706
2.39574e-05
-0.00013012
1.04027e-05
-5.77945e-05
-7.99821e-06
-3.19289e-06
-3.33e-05
1.60838e-05
-5.10534e-05
-6.59311e-06
-5.8192e-05
2.95484e-06
-6.26998e-05
3.70719e-05
-6.57347e-05
7.14991e-05
-6.55579e-05
0.000100465
-5.90101e-05
0.000137542
-4.50143e-05
0.000171579
-2.25917e-05
0.000190256
5.64019e-06
0.000186195
3.63434e-05
0.000162044
6.57297e-05
0.000120606
9.18783e-05
6.89809e-05
1.59043e-05
0.000114426
6.2072e-06
-6.30876e-05
3.22385e-06
-8.5366e-05
-4.10772e-06
-0.000154488
-1.22233e-05
-0.00021375
-1.35212e-05
-0.000231425
-1.16465e-05
-0.000201581
-1.07115e-05
-0.000131055
-1.77296e-05
-5.0776e-05
-2.49105e-05
3.98786e-06
-3.94481e-05
3.06212e-05
-5.70659e-05
1.10248e-05
-6.20964e-05
7.98552e-06
-5.89202e-05
3.38958e-05
-5.68575e-05
6.94365e-05
-5.22636e-05
9.58712e-05
-3.71678e-05
0.000122446
-1.35682e-05
0.00014798
1.7402e-05
0.000159286
5.19215e-05
0.000151675
8.73249e-05
0.00012664
0.000120422
8.75094e-05
0.000149383
4.00203e-05
-8.88837e-06
0.000174175
5.08521e-06
-6.81724e-05
9.57338e-06
-8.98541e-05
-1.16527e-05
-0.000133262
-3.17463e-05
-0.000193657
-4.23841e-05
-0.000220786
-4.47459e-05
-0.00019922
-4.04474e-05
-0.000135354
-3.83555e-05
-5.28679e-05
-3.69198e-05
2.55209e-06
-3.88112e-05
3.25128e-05
-5.20688e-05
2.42823e-05
-5.88411e-05
1.47579e-05
-5.27756e-05
2.78302e-05
-3.97168e-05
5.63778e-05
-2.50725e-05
8.1227e-05
-3.48658e-06
0.00010086
2.56455e-05
0.000118848
6.0669e-05
0.000124263
9.81949e-05
0.000114149
0.000135087
8.97479e-05
0.0001686
5.39974e-05
0.000198273
1.03464e-05
-3.27259e-05
0.000222111
4.46335e-06
-7.26358e-05
1.87485e-05
-0.000104139
-5.37476e-06
-0.000109139
-3.74599e-05
-0.000161572
-6.24961e-05
-0.00019575
-7.38998e-05
-0.000187816
-6.8384e-05
-0.000140869
-5.45389e-05
-6.67132e-05
-4.72544e-05
-4.73273e-06
-3.7458e-05
2.27165e-05
-3.88054e-05
2.56299e-05
-4.44451e-05
2.03976e-05
-4.01417e-05
2.35269e-05
-2.1386e-05
3.76221e-05
3.02947e-06
5.68114e-05
3.02856e-05
7.3604e-05
6.26942e-05
8.64392e-05
9.90909e-05
8.78661e-05
0.000136596
7.66441e-05
0.000172123
5.42217e-05
0.000204068
2.20517e-05
0.000230811
-1.6396e-05
-5.05349e-05
0.00024862
1.32436e-06
-7.39603e-05
1.68575e-05
-0.000119672
3.25371e-06
-9.5535e-05
-3.48195e-05
-0.000123499
-7.34192e-05
-0.000157151
-9.65679e-05
-0.000164667
-9.87419e-05
-0.000138695
-7.80789e-05
-8.73762e-05
-5.34726e-05
-2.93391e-05
-3.10576e-05
3.01506e-07
-1.71901e-05
1.17625e-05
-1.08759e-05
1.40833e-05
-4.02505e-06
1.6676e-05
1.24321e-05
2.1165e-05
3.80099e-05
3.12336e-05
6.52932e-05
4.63206e-05
9.62144e-05
5.55181e-05
0.000130605
5.34758e-05
0.000165995
4.12535e-05
0.000198266
2.19509e-05
0.000222765
-2.44666e-06
0.000236569
-3.02001e-05
-5.7256e-05
0.00024329
-2.19667e-06
-7.17636e-05
5.69687e-06
-0.000127566
9.10929e-06
-9.89476e-05
-1.85787e-05
-9.58109e-05
-6.24466e-05
-0.000113283
-9.8661e-05
-0.000128453
-0.000113752
-0.000123604
-0.000105493
-9.56357e-05
-7.73676e-05
-5.74648e-05
-4.67996e-05
-3.02665e-05
-1.96903e-05
-1.53469e-05
2.84743e-06
-8.45447e-06
2.43226e-05
-4.79928e-06
4.74637e-05
-1.97607e-06
7.27381e-05
5.95923e-06
9.70172e-05
2.20415e-05
0.000122674
2.98615e-05
0.000151781
2.43687e-05
0.000179417
1.36178e-05
0.000199713
1.65456e-06
0.000210602
-1.33357e-05
0.000215405
-3.50025e-05
-5.80893e-05
0.000216238
-5.67864e-06
-6.6085e-05
-8.77874e-06
-0.000124466
9.10675e-06
-0.000116833
8.59706e-06
-9.53014e-05
-2.53675e-05
-7.93184e-05
-6.97902e-05
-8.40303e-05
-0.000100342
-9.30527e-05
-0.000112299
-8.36782e-05
-0.000105483
-6.42815e-05
-8.77147e-05
-4.80348e-05
-6.48993e-05
-3.81624e-05
-3.99631e-05
-3.33907e-05
-1.30287e-05
-3.17338e-05
1.65581e-05
-3.15628e-05
4.57312e-05
-2.3214e-05
7.49273e-05
-7.15455e-06
0.00010005
4.7385e-06
0.000128371
-3.95145e-06
0.000152477
-1.04889e-05
0.000170988
-1.6856e-05
0.00018457
-2.69174e-05
0.000190504
-4.09374e-05
-5.5607e-05
0.000188022
-6.25623e-06
-5.98289e-05
-1.54495e-05
-0.000115272
1.88597e-06
-0.000134169
2.7021e-05
-0.000120436
2.60158e-05
-7.83133e-05
-8.99968e-06
-4.90152e-05
-4.9949e-05
-5.21037e-05
-7.57478e-05
-5.78795e-05
-8.59486e-05
-5.40806e-05
-8.40731e-05
-4.99104e-05
-7.34224e-05
-4.88132e-05
-5.6402e-05
-5.04111e-05
-3.48058e-05
-5.333e-05
-1.09955e-05
-5.53731e-05
1.16968e-05
-4.59062e-05
3.57427e-05
-3.12005e-05
6.756e-05
-2.70787e-05
0.000102173
-3.85641e-05
0.000129353
-3.76687e-05
0.000148489
-3.59919e-05
0.000162105
-4.05335e-05
0.000166516
-4.53486e-05
-4.9586e-05
0.000160495
-1.38456e-06
-5.84446e-05
-7.18514e-06
-0.000109472
3.16687e-06
-0.000144521
2.92712e-05
-0.000146541
5.67195e-05
-0.000105762
5.57915e-05
-4.80873e-05
2.37153e-05
-2.00276e-05
-6.84681e-06
-2.73173e-05
-2.14753e-05
-3.94522e-05
-2.32894e-05
-4.80965e-05
-1.72311e-05
-5.48716e-05
-5.15962e-06
-6.24826e-05
1.06858e-05
-6.91754e-05
2.48866e-05
-6.95738e-05
3.81377e-05
-5.91572e-05
5.21411e-05
-4.52037e-05
7.69313e-05
-5.1869e-05
0.000100036
-6.16689e-05
0.00011422
-5.18525e-05
0.000118999
-4.07712e-05
0.000118949
-4.04837e-05
0.000115289
-4.1688e-05
-4.31935e-05
0.000108896
6.78869e-06
-6.52333e-05
1.04128e-05
-0.000113096
1.72943e-05
-0.000151402
2.84075e-05
-0.000157654
4.72686e-05
-0.000124623
6.75752e-05
-6.83937e-05
7.11896e-05
-2.3642e-05
5.99472e-05
-1.6075e-05
4.87812e-05
-2.82864e-05
4.74904e-05
-4.68061e-05
5.45465e-05
-6.19278e-05
6.58798e-05
-7.38159e-05
7.82178e-05
-8.15132e-05
8.46257e-05
-7.59817e-05
8.66994e-05
-6.12308e-05
8.32235e-05
-4.17277e-05
8.08284e-05
-4.94739e-05
7.86033e-05
-5.94438e-05
7.13395e-05
-4.45887e-05
6.47142e-05
-3.41458e-05
5.6798e-05
-3.25674e-05
4.83795e-05
-3.32693e-05
-3.34622e-05
3.86486e-05
9.37856e-06
-7.46117e-05
2.02775e-05
-0.000123995
2.62416e-05
-0.000157366
2.411e-05
-0.000155522
2.59332e-05
-0.000126446
3.89215e-05
-8.13819e-05
5.49175e-05
-3.96381e-05
6.47191e-05
-2.58769e-05
7.01821e-05
-3.37497e-05
8.06111e-05
-5.72352e-05
9.49926e-05
-7.63093e-05
0.000109553
-8.83765e-05
0.000116681
-8.86403e-05
0.000116099
-7.54005e-05
0.00010943
-5.4561e-05
9.51964e-05
-2.74945e-05
7.31161e-05
-2.73936e-05
5.20928e-05
-3.84204e-05
3.25221e-05
-2.50179e-05
1.55739e-05
-1.71975e-05
-4.49231e-06
-1.25013e-05
-2.41001e-05
-1.36617e-05
-2.04546e-05
-3.71079e-05
3.32699e-06
-7.79386e-05
1.37626e-05
-0.00013443
1.24098e-05
-0.000156013
1.99396e-06
-0.000145107
-5.34765e-06
-0.000119104
-1.16577e-06
-8.55637e-05
1.07883e-05
-5.15923e-05
2.63686e-05
-4.14575e-05
4.9738e-05
-5.71192e-05
7.60935e-05
-8.35906e-05
9.81157e-05
-9.83313e-05
0.000111849
-0.000102109
0.000114729
-9.15203e-05
0.000109189
-6.98613e-05
9.6389e-05
-4.17607e-05
7.64615e-05
-7.56709e-06
4.98082e-05
-7.40339e-07
2.03559e-05
-8.96792e-06
-6.41331e-06
1.75145e-06
-3.4323e-05
1.07123e-05
-6.17347e-05
1.49105e-05
-8.23965e-05
7.00011e-06
2.76241e-06
-0.000105614
-3.39825e-06
-7.45403e-05
-2.78768e-07
-0.000137549
-1.1734e-05
-0.000144558
-2.48699e-05
-0.000131971
-3.29301e-05
-0.000111044
-3.35054e-05
-8.49884e-05
-2.03172e-05
-6.47808e-05
6.83862e-06
-6.86134e-05
4.05647e-05
-9.08452e-05
6.2933e-05
-0.000105959
7.48292e-05
-0.000110227
7.79648e-05
-0.000105245
7.6219e-05
-8.97746e-05
6.91867e-05
-6.28291e-05
5.23611e-05
-2.49352e-05
3.09975e-05
1.37965e-05
1.18946e-05
1.83625e-05
-1.46974e-05
1.76242e-05
-4.4081e-05
3.11351e-05
-7.74874e-05
4.41185e-05
-0.000107611
4.50344e-05
-0.000135767
3.51553e-05
3.19025e-05
-0.000164907
-7.46723e-06
-6.70731e-05
-1.27861e-05
-0.00013223
-2.64863e-05
-0.000130858
-3.46346e-05
-0.000123822
-3.58925e-05
-0.000109786
-2.58058e-05
-9.50752e-05
-3.45259e-06
-8.71342e-05
2.08142e-05
-9.28801e-05
3.33187e-05
-0.00010335
3.53021e-05
-0.000107942
3.15693e-05
-0.000106495
2.60773e-05
-9.9753e-05
1.9678e-05
-8.33754e-05
8.10454e-06
-5.12558e-05
-7.56183e-06
-9.26883e-06
-1.69568e-05
2.31917e-05
-2.33646e-05
2.47704e-05
-4.26125e-05
3.68721e-05
-7.34637e-05
6.19863e-05
-0.000105159
7.58133e-05
-0.000131829
7.17043e-05
-0.00015696
6.02861e-05
5.60367e-05
-0.000181094
-6.46615e-06
-6.06069e-05
-1.80251e-05
-0.000120672
-2.67831e-05
-0.0001221
-2.95142e-05
-0.000121091
-2.60483e-05
-0.000113252
-1.27181e-05
-0.000108406
5.80006e-06
-0.000105652
1.55167e-05
-0.000102597
1.139e-05
-9.92229e-05
1.80656e-06
-9.83589e-05
-8.55295e-06
-9.61355e-05
-1.89457e-05
-8.93604e-05
-3.12968e-05
-7.10244e-05
-4.25306e-05
-4.0022e-05
-4.49583e-05
-6.84115e-06
-3.94569e-05
1.76903e-05
-4.27974e-05
2.81109e-05
-6.03551e-05
5.44298e-05
-8.95421e-05
9.11732e-05
-0.000113748
0.000100019
-0.000132165
9.01206e-05
-0.000147457
7.55787e-05
6.90724e-05
-0.000160493
-3.60204e-06
-5.70049e-05
-1.56086e-05
-0.000108665
-1.93975e-05
-0.000118311
-2.14284e-05
-0.00011906
-1.96305e-05
-0.00011505
-1.28972e-05
-0.000115139
-4.8339e-06
-0.000113716
-3.52216e-06
-0.000103908
-8.35867e-06
-9.43864e-05
-1.70793e-05
-8.96383e-05
-2.62484e-05
-8.69665e-05
-3.57692e-05
-7.98395e-05
-4.33078e-05
-6.34858e-05
-4.48188e-05
-3.85109e-05
-4.28631e-05
-8.79683e-06
-4.39253e-05
1.87525e-05
-5.11785e-05
3.5364e-05
-6.81134e-05
7.13645e-05
-9.28636e-05
0.000115923
-0.000109642
0.000116798
-0.000119568
0.000100046
-0.000124668
8.06792e-05
7.16207e-05
-0.000127216
-1.98278e-06
-5.50221e-05
-8.61473e-06
-0.000102033
-1.05947e-05
-0.000116331
-1.49229e-05
-0.000114732
-1.71873e-05
-0.000112786
-1.79739e-05
-0.000114352
-1.79903e-05
-0.000113699
-1.92139e-05
-0.000102685
-2.29748e-05
-9.06254e-05
-2.89903e-05
-8.36228e-05
-3.48276e-05
-8.11291e-05
-3.8818e-05
-7.5849e-05
-3.91487e-05
-6.3155e-05
-3.68851e-05
-4.07745e-05
-3.6427e-05
-9.25486e-06
-4.20864e-05
2.44118e-05
-5.30509e-05
4.63285e-05
-6.73572e-05
8.56707e-05
-8.85424e-05
0.000137109
-0.000101483
0.000129738
-0.000107182
0.000105745
-0.000107289
8.07863e-05
7.03354e-05
-0.000106004
-1.56453e-06
-5.34576e-05
-1.43828e-06
-0.000102159
-3.71648e-06
-0.000114052
-1.05434e-05
-0.000107906
-1.68121e-05
-0.000106517
-2.24904e-05
-0.000108674
-2.77533e-05
-0.000108436
-3.15941e-05
-9.88437e-05
-3.52101e-05
-8.70094e-05
-3.83318e-05
-8.0501e-05
-4.00441e-05
-7.94166e-05
-3.89407e-05
-7.69523e-05
-3.44307e-05
-6.76648e-05
-2.86764e-05
-4.65288e-05
-2.73277e-05
-1.06036e-05
-3.53293e-05
3.24133e-05
-4.97093e-05
6.07084e-05
-6.12975e-05
9.72589e-05
-8.13607e-05
0.000157172
-9.48888e-05
0.000143267
-0.000101901
0.000112758
-0.000103734
8.26188e-05
7.2288e-05
-0.000105687
-4.76526e-07
-5.29811e-05
2.86649e-06
-0.000105502
-5.27548e-07
-0.000110658
-8.01022e-06
-0.000100423
-1.64251e-05
-9.81022e-05
-2.43995e-05
-0.000100699
-3.20686e-05
-0.000100767
-3.72358e-05
-9.36765e-05
-3.93672e-05
-8.48779e-05
-3.90497e-05
-8.08183e-05
-3.75778e-05
-8.08883e-05
-3.43832e-05
-8.01469e-05
-2.86616e-05
-7.33865e-05
-2.16586e-05
-5.35319e-05
-1.81423e-05
-1.41199e-05
-2.5079e-05
3.93499e-05
-4.23342e-05
7.79635e-05
-5.17033e-05
0.000106628
-7.29742e-05
0.000178443
-9.08222e-05
0.000161114
-0.00010317
0.000125105
-0.000110381
8.98291e-05
7.872e-05
-0.000116813
3.10979e-06
-5.60909e-05
4.55138e-06
-0.000106944
-5.53657e-07
-0.000105554
-6.84841e-06
-9.41281e-05
-1.47592e-05
-9.01913e-05
-2.25854e-05
-9.2873e-05
-2.91863e-05
-9.41659e-05
-3.32339e-05
-8.96289e-05
-3.35123e-05
-8.45995e-05
-3.20871e-05
-8.22434e-05
-3.11354e-05
-8.18398e-05
-2.98335e-05
-8.14488e-05
-2.58844e-05
-7.73356e-05
-1.8775e-05
-6.06414e-05
-1.21275e-05
-2.07673e-05
-1.41203e-05
4.13427e-05
-3.1155e-05
9.49982e-05
-3.93641e-05
0.000114837
-6.25779e-05
0.000201656
-8.68433e-05
0.00018538
-0.000107156
0.000145418
-0.000120879
0.000103553
8.60549e-05
-0.000128214
6.94598e-06
-6.30371e-05
3.80095e-06
-0.000103799
-2.49783e-06
-9.92548e-05
-6.491e-06
-9.01349e-05
-1.19643e-05
-8.4718e-05
-1.80396e-05
-8.67977e-05
-2.22667e-05
-8.99389e-05
-2.48348e-05
-8.70608e-05
-2.52052e-05
-8.4229e-05
-2.52998e-05
-8.21487e-05
-2.62703e-05
-8.08694e-05
-2.68285e-05
-8.08906e-05
-2.44893e-05
-7.96749e-05
-1.79967e-05
-6.71339e-05
-9.35783e-06
-2.94062e-05
-4.95049e-06
3.69355e-05
-1.58395e-05
0.000105887
-2.52004e-05
0.000124198
-4.81332e-05
0.000224589
-7.80352e-05
0.000215282
-0.00010674
0.000174123
-0.000127676
0.000124488
9.31609e-05
-0.000134782
6.68597e-06
-6.97232e-05
1.17447e-06
-9.82879e-05
-4.5303e-06
-9.355e-05
-6.5928e-06
-8.80724e-05
-9.40259e-06
-8.19084e-05
-1.35289e-05
-8.26715e-05
-1.64085e-05
-8.70593e-05
-1.86488e-05
-8.48205e-05
-2.02122e-05
-8.26656e-05
-2.16888e-05
-8.06721e-05
-2.33593e-05
-7.9199e-05
-2.46074e-05
-7.96426e-05
-2.37685e-05
-8.05138e-05
-1.87235e-05
-7.21788e-05
-9.35093e-06
-3.87786e-05
9.78535e-07
2.66061e-05
-4.97416e-09
0.000106871
-1.07699e-05
0.000134963
-2.80243e-05
0.000241843
-5.88623e-05
0.000246119
-9.27573e-05
0.000208017
-0.000119412
0.000151143
0.000102989
-0.000129241
4.69953e-06
-7.44227e-05
-1.15319e-06
-9.24352e-05
-5.52718e-06
-8.91759e-05
-7.06221e-06
-8.65374e-05
-8.23077e-06
-8.07399e-05
-1.09029e-05
-7.99995e-05
-1.35081e-05
-8.4454e-05
-1.59494e-05
-8.23792e-05
-1.81697e-05
-8.04453e-05
-2.00062e-05
-7.88357e-05
-2.16367e-05
-7.75686e-05
-2.33137e-05
-7.79656e-05
-2.40096e-05
-7.98178e-05
-2.08522e-05
-7.53361e-05
-1.20028e-05
-4.76277e-05
1.39426e-06
1.3209e-05
1.05693e-05
9.76956e-05
3.01788e-06
0.000142514
-3.55147e-06
0.000248412
-2.789e-05
0.000270458
-6.17253e-05
0.000241852
-9.19702e-05
0.000181388
0.000119061
-0.000108042
2.74515e-06
-7.71679e-05
-2.21679e-06
-8.74733e-05
-5.60544e-06
-8.57873e-05
-7.49793e-06
-8.46451e-05
-8.12509e-06
-8.01128e-05
-9.78191e-06
-7.83426e-05
-1.23331e-05
-8.19028e-05
-1.47572e-05
-7.99551e-05
-1.69467e-05
-7.82559e-05
-1.88182e-05
-7.69642e-05
-2.05528e-05
-7.58341e-05
-2.26787e-05
-7.58397e-05
-2.46801e-05
-7.78163e-05
-2.3482e-05
-7.6534e-05
-1.57891e-05
-5.53206e-05
-2.79713e-06
2.1714e-07
1.4587e-05
8.03114e-05
1.69029e-05
0.000140198
2.37914e-05
0.000241524
9.50052e-06
0.000284749
-1.8461e-05
0.000269814
-4.87054e-05
0.000211632
0.000139795
-6.94402e-05
1.17293e-06
-7.83408e-05
-2.4097e-06
-8.38907e-05
-5.1052e-06
-8.30919e-05
-7.26329e-06
-8.2487e-05
-7.94188e-06
-7.9434e-05
-8.93339e-06
-7.7351e-05
-1.12519e-05
-7.95843e-05
-1.34619e-05
-7.7745e-05
-1.54998e-05
-7.6218e-05
-1.75463e-05
-7.49177e-05
-1.9657e-05
-7.37234e-05
-2.22668e-05
-7.32298e-05
-2.53553e-05
-7.47277e-05
-2.61697e-05
-7.57195e-05
-2.00463e-05
-6.1444e-05
-6.40631e-06
-1.34229e-05
1.56217e-05
5.82833e-05
2.7716e-05
0.000128104
4.4918e-05
0.000224321
4.26278e-05
0.000287039
2.64144e-05
0.000286027
1.62023e-06
0.000236426
0.000162074
-2.06589e-05
7.81138e-08
-7.8419e-05
-2.19867e-06
-8.16139e-05
-4.22675e-06
-8.10638e-05
-6.22461e-06
-8.0489e-05
-7.09129e-06
-7.85672e-05
-7.78216e-06
-7.66601e-05
-9.79664e-06
-7.75698e-05
-1.18056e-05
-7.5736e-05
-1.38229e-05
-7.42007e-05
-1.61081e-05
-7.26324e-05
-1.8669e-05
-7.11625e-05
-2.18132e-05
-7.00855e-05
-2.59333e-05
-7.06075e-05
-2.90628e-05
-7.25899e-05
-2.51955e-05
-6.53112e-05
-9.67321e-06