/*--------------------------------*- C++ -*----------------------------------*\
| =========                 |                                                 |
| \\      /  F ield         | OpenFOAM: The Open Source CFD Toolbox           |
|  \\    /   O peration     | Version:  2.3.0                                 |
|   \\  /    A nd           | Web:      www.OpenFOAM.org                      |
|    \\/     M anipulation  |                                                 |
\*---------------------------------------------------------------------------*/
FoamFile
{
    version     2.0;
    format      ascii;
    class       volScalarField;
    location    "0.07";
    object      T;
}
// * * * * * * * * * * * * * * * * * * * * * * * * * * * * * * * * * * * * * //

dimensions      [0 0 0 1 0 0 0];

internalField   nonuniform List<scalar> 
12225
(
2.67345e-10
2.65742e-10
2.65292e-10
2.65156e-10
2.65104e-10
2.65215e-10
2.65608e-10
2.66517e-10
2.68412e-10
2.72225e-10
2.79874e-10
2.95482e-10
3.28307e-10
3.99728e-10
5.6009e-10
9.3053e-10
1.81592e-09
4.0768e-09
2.6358e-10
2.64039e-10
2.64419e-10
2.64674e-10
2.64841e-10
2.65077e-10
2.65549e-10
2.66514e-10
2.68458e-10
2.72318e-10
2.79995e-10
2.95544e-10
3.27987e-10
3.9798e-10
5.53595e-10
9.08142e-10
1.73288e-09
3.67935e-09
2.65433e-10
2.65401e-10
2.65288e-10
2.65245e-10
2.6525e-10
2.65392e-10
2.65816e-10
2.66777e-10
2.68761e-10
2.72708e-10
2.80502e-10
2.96093e-10
3.28121e-10
3.96002e-10
5.43838e-10
8.71468e-10
1.59907e-09
3.16229e-09
2.6555e-10
2.65381e-10
2.65235e-10
2.65227e-10
2.65291e-10
2.65493e-10
2.65986e-10
2.67045e-10
2.69182e-10
2.73366e-10
2.81485e-10
2.9738e-10
3.29214e-10
3.94765e-10
5.32919e-10
8.26834e-10
1.44262e-09
2.652e-09
2.65738e-10
2.65639e-10
2.65531e-10
2.6553e-10
2.65609e-10
2.65841e-10
2.66397e-10
2.67582e-10
2.69956e-10
2.74543e-10
2.83264e-10
2.99874e-10
3.32005e-10
3.95553e-10
5.23519e-10
7.81744e-10
1.28868e-09
2.20812e-09
2.66037e-10
2.65995e-10
2.65919e-10
2.65923e-10
2.66023e-10
2.66306e-10
2.66968e-10
2.68364e-10
2.71128e-10
2.76384e-10
2.86146e-10
3.04138e-10
3.37494e-10
4.00176e-10
5.19311e-10
7.44898e-10
1.15812e-09
1.85704e-09
2.66527e-10
2.66515e-10
2.66468e-10
2.66485e-10
2.66617e-10
2.66978e-10
2.67804e-10
2.69526e-10
2.72901e-10
2.79222e-10
2.90694e-10
3.11134e-10
3.47315e-10
4.11481e-10
5.2554e-10
7.26482e-10
1.06882e-09
1.61229e-09
2.67117e-10
2.67116e-10
2.67093e-10
2.67132e-10
2.67308e-10
2.67768e-10
2.68807e-10
2.70956e-10
2.75137e-10
2.82883e-10
2.96699e-10
3.20667e-10
3.61515e-10
4.3046e-10
5.46009e-10
7.37031e-10
1.04304e-09
1.50523e-09
2.67773e-10
2.67779e-10
2.67776e-10
2.67841e-10
2.6807e-10
2.6865e-10
2.69946e-10
2.72614e-10
2.77782e-10
2.8729e-10
3.04043e-10
3.32549e-10
3.79764e-10
4.56425e-10
5.78866e-10
7.70671e-10
1.06207e-09
1.48364e-09
2.68668e-10
2.68679e-10
2.68698e-10
2.68799e-10
2.69108e-10
2.6987e-10
2.71557e-10
2.75025e-10
2.81724e-10
2.93984e-10
3.15382e-10
3.51219e-10
4.09162e-10
5.00113e-10
6.39232e-10
8.46576e-10
1.14614e-09
1.56164e-09
2.69888e-10
2.69904e-10
2.69947e-10
2.70101e-10
2.70533e-10
2.71578e-10
2.73886e-10
2.7863e-10
2.87788e-10
3.04509e-10
3.33515e-10
3.81553e-10
4.57858e-10
5.7462e-10
7.47349e-10
9.94798e-10
1.33782e-09
1.79653e-09
2.7155e-10
2.71572e-10
2.71645e-10
2.71878e-10
2.72506e-10
2.74016e-10
2.7735e-10
2.84219e-10
2.97512e-10
3.21789e-10
3.63799e-10
4.32939e-10
5.41563e-10
7.05079e-10
9.41715e-10
1.27181e-09
1.71637e-09
2.29486e-09
2.73811e-10
2.73843e-10
2.7396e-10
2.74321e-10
2.7528e-10
2.77586e-10
2.82704e-10
2.93307e-10
3.13928e-10
3.5171e-10
4.17147e-10
5.24617e-10
6.92553e-10
9.43071e-10
1.30103e-09
1.79248e-09
2.44256e-09
3.27303e-09
2.76885e-10
2.76933e-10
2.77124e-10
2.77706e-10
2.79257e-10
2.83011e-10
2.91421e-10
3.09004e-10
3.43466e-10
4.06987e-10
5.17408e-10
6.9896e-10
9.82166e-10
1.40271e-09
1.99921e-09
2.81018e-09
3.87036e-09
5.20709e-09
2.81058e-10
2.81137e-10
2.81461e-10
2.82457e-10
2.85138e-10
2.91711e-10
3.06633e-10
3.38229e-10
4.00847e-10
5.17297e-10
7.21005e-10
1.05707e-09
1.58153e-09
2.35833e-09
3.45428e-09
4.93269e-09
6.84633e-09
9.2309e-09
2.8671e-10
2.8685e-10
2.87434e-10
2.89262e-10
2.9426e-10
3.06737e-10
3.35588e-10
3.97733e-10
5.22768e-10
7.58189e-10
1.17378e-09
1.86317e-09
2.94081e-09
4.53365e-09
6.7685e-09
9.7574e-09
1.35833e-08
1.82877e-08
2.94332e-10
2.94598e-10
2.95732e-10
2.99346e-10
3.09459e-10
3.35338e-10
3.96666e-10
5.3185e-10
8.09487e-10
1.34126e-09
2.29218e-09
3.88228e-09
6.37488e-09
1.00501e-08
1.51689e-08
2.19361e-08
3.04707e-08
4.07862e-08
3.03789e-10
3.04311e-10
3.06582e-10
3.14007e-10
3.35417e-10
3.9198e-10
5.30381e-10
8.44904e-10
1.50899e-09
2.81127e-09
5.18269e-09
9.19459e-09
1.55105e-08
2.47918e-08
3.75825e-08
5.42104e-08
7.47332e-08
9.89323e-08
3.13745e-10
3.14703e-10
3.18961e-10
3.33284e-10
3.76006e-10
4.93065e-10
7.90316e-10
1.49075e-09
3.02048e-09
6.11071e-09
1.1873e-08
2.17769e-08
3.74663e-08
6.04245e-08
9.16076e-08
1.31211e-07
1.7865e-07
2.32706e-07
3.23122e-10
3.24696e-10
3.31833e-10
3.5653e-10
4.32741e-10
6.49475e-10
1.22163e-09
2.62357e-09
5.80332e-09
1.24528e-08
2.52158e-08
4.76041e-08
8.33869e-08
1.35495e-07
2.04948e-07
2.90491e-07
3.89029e-07
4.96481e-07
3.31591e-10
3.3394e-10
3.4479e-10
3.83371e-10
5.06416e-10
8.69485e-10
1.86665e-09
4.41282e-09
1.04326e-08
2.35324e-08
4.95769e-08
9.64931e-08
1.72462e-07
2.8252e-07
4.2558e-07
5.94626e-07
7.79481e-07
9.69859e-07
3.38941e-10
3.42167e-10
3.57318e-10
4.1256e-10
5.94244e-10
1.14952e-09
2.73507e-09
6.95752e-09
1.73923e-08
4.11392e-08
9.0387e-08
1.82227e-07
3.33874e-07
5.52541e-07
8.27128e-07
1.13342e-06
1.44552e-06
1.7436e-06
3.45078e-10
3.49207e-10
3.68874e-10
4.42196e-10
6.90072e-10
1.47239e-09
3.7896e-09
1.02202e-08
2.68516e-08
6.65906e-08
1.53178e-07
3.22019e-07
6.09184e-07
1.0224e-06
1.51594e-06
2.02262e-06
2.49047e-06
2.89402e-06
3.5001e-10
3.54994e-10
3.79005e-10
4.70232e-10
7.85989e-10
1.81087e-09
4.94828e-09
1.39969e-08
3.84679e-08
9.99915e-08
2.41738e-07
5.34099e-07
1.05398e-06
1.80627e-06
2.63743e-06
3.39065e-06
3.99345e-06
4.44249e-06
3.53822e-10
3.59539e-10
3.87394e-10
4.94925e-10
8.74358e-10
2.13495e-09
6.10395e-09
1.79475e-08
5.13325e-08
1.39597e-07
3.55531e-07
8.32176e-07
1.73681e-06
3.07837e-06
4.3775e-06
5.34253e-06
5.95702e-06
6.31191e-06
3.567e-10
3.62984e-10
3.93994e-10
5.15285e-10
9.49761e-10
2.42002e-09
7.1551e-09
2.16892e-08
6.41547e-08
1.81748e-07
4.87301e-07
1.2159e-06
2.72996e-06
5.12552e-06
6.94419e-06
7.88783e-06
8.24803e-06
8.30808e-06
3.58734e-10
3.65365e-10
3.98721e-10
5.30686e-10
1.00883e-09
2.64944e-09
8.0246e-09
2.48868e-08
7.55821e-08
2.21527e-07
6.22166e-07
1.65737e-06
4.07518e-06
8.46906e-06
1.04808e-05
1.08272e-05
1.05672e-05
1.01552e-05
3.60188e-10
3.67382e-10
4.02573e-10
5.42373e-10
1.05294e-09
2.82182e-09
8.68674e-09
2.73676e-08
8.46827e-08
2.54465e-07
7.41054e-07
2.09161e-06
5.69441e-06
1.41432e-05
1.48063e-05
1.36536e-05
1.25167e-05
1.15978e-05
3.58074e-10
3.66041e-10
4.0289e-10
5.47818e-10
1.07889e-09
2.93071e-09
9.11961e-09
2.90272e-08
9.08923e-08
2.77418e-07
8.26252e-07
2.42058e-06
7.17557e-06
2.42268e-05
1.87597e-05
1.56252e-05
1.37828e-05
1.25036e-05
3.63916e-10
3.69344e-10
4.05613e-10
5.52785e-10
1.09529e-09
2.99392e-09
9.36375e-09
2.99487e-08
9.42972e-08
2.8982e-07
8.70605e-07
2.56526e-06
7.37425e-06
1.92083e-05
1.8948e-05
1.63968e-05
1.4349e-05
1.2899e-05
1.04005e-07
1.04151e-07
1.04439e-07
1.04879e-07
1.05476e-07
1.06231e-07
1.07149e-07
1.08234e-07
1.09488e-07
1.10915e-07
1.12518e-07
1.143e-07
1.16265e-07
1.18413e-07
1.20748e-07
1.23271e-07
1.25985e-07
1.2889e-07
1.31989e-07
1.35282e-07
1.3877e-07
1.42453e-07
1.46332e-07
1.50407e-07
1.54676e-07
1.5914e-07
1.63798e-07
1.68648e-07
1.73688e-07
1.78918e-07
1.84334e-07
1.89935e-07
1.95717e-07
2.01679e-07
2.07816e-07
2.14125e-07
2.20603e-07
2.27245e-07
2.34047e-07
2.41005e-07
2.48114e-07
2.55369e-07
2.62765e-07
2.70296e-07
2.77958e-07
2.85743e-07
2.93647e-07
3.01663e-07
3.09786e-07
3.18009e-07
3.26326e-07
3.34731e-07
3.43217e-07
3.51779e-07
3.60409e-07
3.69102e-07
3.77851e-07
3.86651e-07
3.95496e-07
4.04379e-07
4.13295e-07
4.22239e-07
4.31205e-07
4.40189e-07
4.49185e-07
4.58189e-07
4.67197e-07
4.76204e-07
4.85207e-07
4.94202e-07
5.03185e-07
5.12155e-07
5.21107e-07
5.30039e-07
5.3895e-07
5.47836e-07
5.56696e-07
5.65529e-07
5.74333e-07
5.83106e-07
5.91848e-07
6.00559e-07
6.09237e-07
6.17881e-07
6.26493e-07
6.35072e-07
6.43617e-07
6.52129e-07
6.60609e-07
6.69056e-07
6.77472e-07
6.85858e-07
6.94214e-07
7.0254e-07
7.10839e-07
7.1911e-07
7.27355e-07
7.35576e-07
7.43772e-07
7.51945e-07
7.60095e-07
7.68224e-07
7.76332e-07
7.84421e-07
7.92489e-07
8.00539e-07
8.0857e-07
8.16582e-07
8.24576e-07
8.32551e-07
8.40509e-07
8.48448e-07
8.56368e-07
8.64269e-07
8.72151e-07
8.80012e-07
8.87853e-07
8.95672e-07
9.0347e-07
9.11244e-07
9.18994e-07
9.2672e-07
9.34419e-07
9.42091e-07
9.49735e-07
9.57349e-07
9.64932e-07
9.72483e-07
9.80001e-07
9.87482e-07
9.94927e-07
1.00233e-06
1.0097e-06
1.01702e-06
1.02431e-06
1.03154e-06
1.03873e-06
1.04587e-06
1.05296e-06
1.05999e-06
1.06697e-06
1.0739e-06
1.08076e-06
1.08757e-06
1.09431e-06
1.10099e-06
1.1076e-06
1.11414e-06
1.12061e-06
1.12701e-06
1.13334e-06
1.13959e-06
1.14576e-06
1.15185e-06
1.15786e-06
1.16379e-06
1.16963e-06
1.17539e-06
1.18106e-06
1.18664e-06
1.19213e-06
1.19752e-06
1.20283e-06
1.20801e-06
1.21308e-06
1.21805e-06
1.22289e-06
1.22763e-06
1.23227e-06
1.23682e-06
1.24126e-06
1.2456e-06
1.24984e-06
1.25397e-06
1.258e-06
1.26192e-06
1.26576e-06
1.26938e-06
1.27338e-06
1.27483e-06
1.03726e-07
1.0387e-07
1.04165e-07
1.04611e-07
1.05213e-07
1.05974e-07
1.06897e-07
1.07985e-07
1.09242e-07
1.1067e-07
1.12273e-07
1.14054e-07
1.16015e-07
1.1816e-07
1.20489e-07
1.23006e-07
1.25712e-07
1.28609e-07
1.31698e-07
1.3498e-07
1.38456e-07
1.42126e-07
1.45991e-07
1.5005e-07
1.54303e-07
1.5875e-07
1.63389e-07
1.6822e-07
1.7324e-07
1.78449e-07
1.83844e-07
1.89423e-07
1.95183e-07
2.01121e-07
2.07234e-07
2.1352e-07
2.19973e-07
2.2659e-07
2.33368e-07
2.40301e-07
2.47385e-07
2.54615e-07
2.61985e-07
2.69491e-07
2.77128e-07
2.84889e-07
2.92768e-07
3.00761e-07
3.0886e-07
3.1706e-07
3.25354e-07
3.33736e-07
3.422e-07
3.5074e-07
3.5935e-07
3.68022e-07
3.76751e-07
3.85532e-07
3.94358e-07
4.03223e-07
4.12122e-07
4.21049e-07
4.3e-07
4.38968e-07
4.4795e-07
4.5694e-07
4.65935e-07
4.7493e-07
4.83922e-07
4.92907e-07
5.01881e-07
5.10841e-07
5.19786e-07
5.28711e-07
5.37615e-07
5.46496e-07
5.55351e-07
5.6418e-07
5.72981e-07
5.81752e-07
5.90493e-07
5.99202e-07
6.07879e-07
6.16525e-07
6.25137e-07
6.33718e-07
6.42265e-07
6.5078e-07
6.59263e-07
6.67715e-07
6.76136e-07
6.84527e-07
6.92888e-07
7.01221e-07
7.09526e-07
7.17805e-07
7.26059e-07
7.34288e-07
7.42493e-07
7.50676e-07
7.58837e-07
7.66977e-07
7.75098e-07
7.83199e-07
7.91282e-07
7.99346e-07
8.07392e-07
8.15421e-07
8.23431e-07
8.31424e-07
8.394e-07
8.47357e-07
8.55296e-07
8.63217e-07
8.71119e-07
8.79001e-07
8.86862e-07
8.94703e-07
9.02522e-07
9.10318e-07
9.18091e-07
9.25838e-07
9.3356e-07
9.41256e-07
9.48923e-07
9.5656e-07
9.64166e-07
9.71741e-07
9.79281e-07
9.86786e-07
9.94254e-07
1.00168e-06
1.00907e-06
1.01642e-06
1.02372e-06
1.03098e-06
1.03819e-06
1.04535e-06
1.05246e-06
1.05951e-06
1.06651e-06
1.07346e-06
1.08034e-06
1.08716e-06
1.09392e-06
1.10061e-06
1.10724e-06
1.1138e-06
1.12028e-06
1.12669e-06
1.13303e-06
1.13929e-06
1.14547e-06
1.15157e-06
1.15759e-06
1.16352e-06
1.16937e-06
1.17513e-06
1.1808e-06
1.18638e-06
1.19185e-06
1.19724e-06
1.20255e-06
1.20773e-06
1.21283e-06
1.21785e-06
1.22275e-06
1.22754e-06
1.23224e-06
1.23683e-06
1.24132e-06
1.24571e-06
1.24999e-06
1.25416e-06
1.25823e-06
1.26219e-06
1.26608e-06
1.26978e-06
1.2737e-06
1.27601e-06
1.0317e-07
1.03309e-07
1.03602e-07
1.04049e-07
1.04652e-07
1.05413e-07
1.06334e-07
1.0742e-07
1.08674e-07
1.10097e-07
1.11694e-07
1.13467e-07
1.15418e-07
1.17551e-07
1.19866e-07
1.22368e-07
1.25056e-07
1.27933e-07
1.31e-07
1.34258e-07
1.37707e-07
1.41349e-07
1.45184e-07
1.4921e-07
1.5343e-07
1.5784e-07
1.62442e-07
1.67234e-07
1.72213e-07
1.7738e-07
1.82731e-07
1.88265e-07
1.93979e-07
1.9987e-07
2.05936e-07
2.12172e-07
2.18576e-07
2.25144e-07
2.31871e-07
2.38753e-07
2.45786e-07
2.52965e-07
2.60285e-07
2.67741e-07
2.75327e-07
2.83038e-07
2.90868e-07
2.98811e-07
3.06862e-07
3.15014e-07
3.23261e-07
3.31598e-07
3.40017e-07
3.48513e-07
3.57079e-07
3.6571e-07
3.744e-07
3.83141e-07
3.91929e-07
4.00758e-07
4.09623e-07
4.18517e-07
4.27436e-07
4.36375e-07
4.45329e-07
4.54293e-07
4.63263e-07
4.72236e-07
4.81206e-07
4.90172e-07
4.99129e-07
5.08074e-07
5.17005e-07
5.25919e-07
5.34814e-07
5.43687e-07
5.52537e-07
5.61362e-07
5.70161e-07
5.78932e-07
5.87674e-07
5.96387e-07
6.0507e-07
6.13723e-07
6.22345e-07
6.30936e-07
6.39496e-07
6.48026e-07
6.56526e-07
6.64995e-07
6.73436e-07
6.81849e-07
6.90234e-07
6.98592e-07
7.06924e-07
7.15232e-07
7.23517e-07
7.31778e-07
7.40018e-07
7.48237e-07
7.56437e-07
7.64618e-07
7.72782e-07
7.80928e-07
7.89056e-07
7.97169e-07
8.05265e-07
8.13346e-07
8.2141e-07
8.29459e-07
8.37491e-07
8.45508e-07
8.53507e-07
8.6149e-07
8.69455e-07
8.77401e-07
8.85329e-07
8.93237e-07
9.01125e-07
9.08991e-07
9.16834e-07
9.24653e-07
9.32447e-07
9.40215e-07
9.47956e-07
9.55668e-07
9.63349e-07
9.70998e-07
9.78613e-07
9.86194e-07
9.93737e-07
1.00124e-06
1.00871e-06
1.01613e-06
1.0235e-06
1.03083e-06
1.03812e-06
1.04535e-06
1.05253e-06
1.05966e-06
1.06673e-06
1.07374e-06
1.08069e-06
1.08758e-06
1.0944e-06
1.10116e-06
1.10784e-06
1.11446e-06
1.121e-06
1.12747e-06
1.13387e-06
1.14018e-06
1.14641e-06
1.15256e-06
1.15863e-06
1.1646e-06
1.17049e-06
1.17629e-06
1.182e-06
1.18762e-06
1.19314e-06
1.19856e-06
1.2039e-06
1.20912e-06
1.21426e-06
1.21931e-06
1.22425e-06
1.22909e-06
1.23382e-06
1.23845e-06
1.24298e-06
1.24739e-06
1.2517e-06
1.2559e-06
1.26e-06
1.26398e-06
1.26788e-06
1.2716e-06
1.27546e-06
1.27826e-06
1.02324e-07
1.02458e-07
1.0275e-07
1.03197e-07
1.03798e-07
1.04556e-07
1.05473e-07
1.06553e-07
1.07799e-07
1.09213e-07
1.10799e-07
1.12557e-07
1.14492e-07
1.16606e-07
1.189e-07
1.21376e-07
1.24037e-07
1.26883e-07
1.29917e-07
1.33138e-07
1.36548e-07
1.40148e-07
1.43937e-07
1.47916e-07
1.52085e-07
1.56443e-07
1.60989e-07
1.65723e-07
1.70643e-07
1.75748e-07
1.81036e-07
1.86504e-07
1.92151e-07
1.97974e-07
2.03971e-07
2.10136e-07
2.16469e-07
2.22964e-07
2.29619e-07
2.36428e-07
2.43387e-07
2.50493e-07
2.57739e-07
2.65121e-07
2.72634e-07
2.80273e-07
2.88031e-07
2.95903e-07
3.03884e-07
3.11967e-07
3.20146e-07
3.28416e-07
3.3677e-07
3.45203e-07
3.53707e-07
3.62278e-07
3.70909e-07
3.79594e-07
3.88328e-07
3.97105e-07
4.05919e-07
4.14766e-07
4.2364e-07
4.32536e-07
4.41449e-07
4.50376e-07
4.59311e-07
4.68251e-07
4.77193e-07
4.86131e-07
4.95064e-07
5.03988e-07
5.12901e-07
5.21799e-07
5.30681e-07
5.39544e-07
5.48387e-07
5.57207e-07
5.66004e-07
5.74777e-07
5.83523e-07
5.92244e-07
6.00936e-07
6.09601e-07
6.18239e-07
6.26848e-07
6.35429e-07
6.43982e-07
6.52508e-07
6.61007e-07
6.69479e-07
6.77926e-07
6.86349e-07
6.94747e-07
7.03123e-07
7.11476e-07
7.19809e-07
7.28123e-07
7.36417e-07
7.44694e-07
7.52955e-07
7.612e-07
7.6943e-07
7.77645e-07
7.85847e-07
7.94035e-07
8.0221e-07
8.10372e-07
8.1852e-07
8.26655e-07
8.34777e-07
8.42885e-07
8.50979e-07
8.59058e-07
8.67122e-07
8.75169e-07
8.832e-07
8.91213e-07
8.99207e-07
9.07181e-07
9.15134e-07
9.23065e-07
9.30972e-07
9.38853e-07
9.46709e-07
9.54536e-07
9.62333e-07
9.70099e-07
9.77832e-07
9.8553e-07
9.9319e-07
1.00081e-06
1.00839e-06
1.01593e-06
1.02342e-06
1.03087e-06
1.03827e-06
1.04562e-06
1.05291e-06
1.06015e-06
1.06732e-06
1.07444e-06
1.0815e-06
1.08849e-06
1.09542e-06
1.10228e-06
1.10906e-06
1.11578e-06
1.12241e-06
1.12898e-06
1.13546e-06
1.14186e-06
1.14817e-06
1.1544e-06
1.16054e-06
1.1666e-06
1.17256e-06
1.17843e-06
1.18421e-06
1.18989e-06
1.19547e-06
1.20096e-06
1.20635e-06
1.21163e-06
1.21682e-06
1.22192e-06
1.2269e-06
1.23178e-06
1.23656e-06
1.24123e-06
1.24579e-06
1.25024e-06
1.25459e-06
1.25882e-06
1.26294e-06
1.26694e-06
1.27085e-06
1.27458e-06
1.27841e-06
1.28146e-06
1.01178e-07
1.01311e-07
1.01601e-07
1.02046e-07
1.02644e-07
1.03396e-07
1.04307e-07
1.05377e-07
1.06611e-07
1.08011e-07
1.09579e-07
1.11318e-07
1.13229e-07
1.15316e-07
1.17579e-07
1.20022e-07
1.22645e-07
1.25451e-07
1.28439e-07
1.31613e-07
1.34971e-07
1.38516e-07
1.42247e-07
1.46164e-07
1.50268e-07
1.54557e-07
1.59033e-07
1.63693e-07
1.68536e-07
1.73562e-07
1.78769e-07
1.84154e-07
1.89716e-07
1.95452e-07
2.01359e-07
2.07436e-07
2.13677e-07
2.20081e-07
2.26642e-07
2.33358e-07
2.40224e-07
2.47236e-07
2.54389e-07
2.61678e-07
2.69098e-07
2.76644e-07
2.84311e-07
2.92093e-07
2.99985e-07
3.0798e-07
3.16073e-07
3.24258e-07
3.3253e-07
3.40881e-07
3.49307e-07
3.57802e-07
3.66359e-07
3.74973e-07
3.83638e-07
3.92349e-07
4.01101e-07
4.09888e-07
4.18705e-07
4.27547e-07
4.36411e-07
4.4529e-07
4.54182e-07
4.63082e-07
4.71987e-07
4.80892e-07
4.89796e-07
4.98694e-07
5.07584e-07
5.16464e-07
5.25331e-07
5.34183e-07
5.43019e-07
5.51836e-07
5.60633e-07
5.69409e-07
5.78163e-07
5.86894e-07
5.95602e-07
6.04285e-07
6.12944e-07
6.21579e-07
6.30189e-07
6.38775e-07
6.47338e-07
6.55876e-07
6.64392e-07
6.72886e-07
6.81359e-07
6.89812e-07
6.98246e-07
7.06661e-07
7.1506e-07
7.23443e-07
7.3181e-07
7.40165e-07
7.48507e-07
7.56837e-07
7.65156e-07
7.73464e-07
7.81763e-07
7.90051e-07
7.9833e-07
8.066e-07
8.1486e-07
8.2311e-07
8.3135e-07
8.39579e-07
8.47797e-07
8.56003e-07
8.64197e-07
8.72378e-07
8.80544e-07
8.88695e-07
8.96829e-07
9.04946e-07
9.13043e-07
9.2112e-07
9.29175e-07
9.37206e-07
9.45211e-07
9.5319e-07
9.6114e-07
9.69059e-07
9.76945e-07
9.84797e-07
9.92611e-07
1.00039e-06
1.00812e-06
1.01581e-06
1.02346e-06
1.03106e-06
1.0386e-06
1.0461e-06
1.05354e-06
1.06092e-06
1.06824e-06
1.0755e-06
1.0827e-06
1.08983e-06
1.09689e-06
1.10388e-06
1.11079e-06
1.11763e-06
1.12439e-06
1.13107e-06
1.13767e-06
1.14418e-06
1.15061e-06
1.15694e-06
1.16319e-06
1.16934e-06
1.1754e-06
1.18136e-06
1.18723e-06
1.19299e-06
1.19866e-06
1.20422e-06
1.20968e-06
1.21504e-06
1.22029e-06
1.22545e-06
1.23049e-06
1.23543e-06
1.24026e-06
1.24498e-06
1.24959e-06
1.25408e-06
1.25847e-06
1.26274e-06
1.26689e-06
1.27092e-06
1.27485e-06
1.2786e-06
1.28243e-06
1.28561e-06
9.97291e-08
9.98617e-08
1.0015e-07
1.00591e-07
1.01183e-07
1.01928e-07
1.02828e-07
1.03885e-07
1.05103e-07
1.06483e-07
1.08028e-07
1.0974e-07
1.11621e-07
1.13673e-07
1.15899e-07
1.18299e-07
1.20876e-07
1.23631e-07
1.26565e-07
1.2968e-07
1.32976e-07
1.36453e-07
1.40113e-07
1.43956e-07
1.47982e-07
1.5219e-07
1.5658e-07
1.61152e-07
1.65904e-07
1.70836e-07
1.75946e-07
1.81232e-07
1.86692e-07
1.92324e-07
1.98127e-07
2.04096e-07
2.10229e-07
2.16523e-07
2.22975e-07
2.2958e-07
2.36335e-07
2.43235e-07
2.50277e-07
2.57455e-07
2.64765e-07
2.72202e-07
2.7976e-07
2.87435e-07
2.9522e-07
3.03111e-07
3.11102e-07
3.19187e-07
3.2736e-07
3.35616e-07
3.43948e-07
3.52352e-07
3.60822e-07
3.69352e-07
3.77936e-07
3.86569e-07
3.95246e-07
4.03962e-07
4.12713e-07
4.21492e-07
4.30296e-07
4.39121e-07
4.47962e-07
4.56816e-07
4.65678e-07
4.74546e-07
4.83415e-07
4.92285e-07
5.0115e-07
5.1001e-07
5.18861e-07
5.27702e-07
5.36531e-07
5.45346e-07
5.54146e-07
5.62929e-07
5.71694e-07
5.80441e-07
5.89169e-07
5.97878e-07
6.06566e-07
6.15235e-07
6.23883e-07
6.32511e-07
6.4112e-07
6.4971e-07
6.58282e-07
6.66836e-07
6.75373e-07
6.83895e-07
6.92402e-07
7.00896e-07
7.09377e-07
7.17847e-07
7.26307e-07
7.34758e-07
7.43201e-07
7.51638e-07
7.60068e-07
7.68492e-07
7.7691e-07
7.85324e-07
7.93732e-07
8.02135e-07
8.10532e-07
8.18924e-07
8.27309e-07
8.35688e-07
8.4406e-07
8.52423e-07
8.60777e-07
8.69121e-07
8.77453e-07
8.85774e-07
8.9408e-07
9.02371e-07
9.10645e-07
9.18901e-07
9.27137e-07
9.3535e-07
9.4354e-07
9.51704e-07
9.5984e-07
9.67945e-07
9.76019e-07
9.84058e-07
9.92061e-07
1.00002e-06
1.00794e-06
1.01582e-06
1.02365e-06
1.03143e-06
1.03916e-06
1.04684e-06
1.05446e-06
1.06202e-06
1.06951e-06
1.07695e-06
1.08431e-06
1.09161e-06
1.09883e-06
1.10598e-06
1.11305e-06
1.12004e-06
1.12695e-06
1.13377e-06
1.14051e-06
1.14715e-06
1.15371e-06
1.16018e-06
1.16655e-06
1.17282e-06
1.17899e-06
1.18506e-06
1.19103e-06
1.1969e-06
1.20267e-06
1.20832e-06
1.21387e-06
1.21931e-06
1.22465e-06
1.22988e-06
1.23499e-06
1.24e-06
1.24489e-06
1.24967e-06
1.25434e-06
1.25889e-06
1.26332e-06
1.26763e-06
1.27183e-06
1.2759e-06
1.27986e-06
1.28363e-06
1.28748e-06
1.29072e-06
9.79699e-08
9.81033e-08
9.83896e-08
9.88257e-08
9.941e-08
1.00144e-07
1.0103e-07
1.0207e-07
1.03267e-07
1.04622e-07
1.06139e-07
1.07818e-07
1.09663e-07
1.11674e-07
1.13854e-07
1.16204e-07
1.18727e-07
1.21423e-07
1.24293e-07
1.2734e-07
1.30563e-07
1.33963e-07
1.37542e-07
1.41299e-07
1.45235e-07
1.4935e-07
1.53642e-07
1.58113e-07
1.62761e-07
1.67585e-07
1.72584e-07
1.77757e-07
1.83102e-07
1.88616e-07
1.94299e-07
2.00146e-07
2.06156e-07
2.12326e-07
2.18652e-07
2.25131e-07
2.3176e-07
2.38533e-07
2.45448e-07
2.525e-07
2.59685e-07
2.66997e-07
2.74431e-07
2.81984e-07
2.89649e-07
2.97421e-07
3.05295e-07
3.13265e-07
3.21327e-07
3.29474e-07
3.377e-07
3.46002e-07
3.54372e-07
3.62806e-07
3.71298e-07
3.79843e-07
3.88436e-07
3.97073e-07
4.05747e-07
4.14456e-07
4.23194e-07
4.31957e-07
4.40742e-07
4.49543e-07
4.58359e-07
4.67185e-07
4.76019e-07
4.84857e-07
4.93696e-07
5.02535e-07
5.11371e-07
5.20202e-07
5.29026e-07
5.37842e-07
5.46647e-07
5.55442e-07
5.64224e-07
5.72993e-07
5.81748e-07
5.90488e-07
5.99214e-07
6.07926e-07
6.16622e-07
6.25303e-07
6.33971e-07
6.42624e-07
6.51264e-07
6.59892e-07
6.68508e-07
6.77114e-07
6.8571e-07
6.94298e-07
7.0288e-07
7.11455e-07
7.20026e-07
7.28594e-07
7.37159e-07
7.45723e-07
7.54286e-07
7.62848e-07
7.7141e-07
7.79972e-07
7.88534e-07
7.97095e-07
8.05656e-07
8.14216e-07
8.22774e-07
8.3133e-07
8.39882e-07
8.48431e-07
8.56974e-07
8.6551e-07
8.74039e-07
8.82559e-07
8.91068e-07
8.99564e-07
9.08045e-07
9.16511e-07
9.24959e-07
9.33387e-07
9.41792e-07
9.50173e-07
9.58526e-07
9.6685e-07
9.75143e-07
9.83401e-07
9.91623e-07
9.99804e-07
1.00794e-06
1.01604e-06
1.02408e-06
1.03208e-06
1.04002e-06
1.04791e-06
1.05573e-06
1.0635e-06
1.0712e-06
1.07883e-06
1.08639e-06
1.09388e-06
1.10129e-06
1.10862e-06
1.11587e-06
1.12304e-06
1.13012e-06
1.13711e-06
1.14401e-06
1.15081e-06
1.15752e-06
1.16414e-06
1.17065e-06
1.17706e-06
1.18336e-06
1.18956e-06
1.19565e-06
1.20164e-06
1.20751e-06
1.21328e-06
1.21893e-06
1.22447e-06
1.22989e-06
1.23521e-06
1.24041e-06
1.24549e-06
1.25046e-06
1.2553e-06
1.26004e-06
1.26465e-06
1.26914e-06
1.27351e-06
1.27775e-06
1.28186e-06
1.28586e-06
1.28966e-06
1.29354e-06
1.29681e-06
9.58949e-08
9.60293e-08
9.63127e-08
9.67423e-08
9.73167e-08
9.80374e-08
9.89063e-08
9.99256e-08
1.01098e-07
1.02424e-07
1.03907e-07
1.05549e-07
1.0735e-07
1.09315e-07
1.11443e-07
1.13736e-07
1.16197e-07
1.18826e-07
1.21625e-07
1.24594e-07
1.27736e-07
1.31051e-07
1.34539e-07
1.38201e-07
1.42037e-07
1.46047e-07
1.50232e-07
1.54591e-07
1.59123e-07
1.63829e-07
1.68706e-07
1.73753e-07
1.7897e-07
1.84354e-07
1.89904e-07
1.95617e-07
2.01491e-07
2.07524e-07
2.13711e-07
2.20051e-07
2.2654e-07
2.33174e-07
2.39949e-07
2.46862e-07
2.53908e-07
2.61082e-07
2.6838e-07
2.75798e-07
2.8333e-07
2.90971e-07
2.98716e-07
3.06561e-07
3.14499e-07
3.22526e-07
3.30636e-07
3.38824e-07
3.47085e-07
3.55414e-07
3.63805e-07
3.72253e-07
3.80755e-07
3.89304e-07
3.97897e-07
4.06528e-07
4.15195e-07
4.23891e-07
4.32615e-07
4.41362e-07
4.50128e-07
4.5891e-07
4.67706e-07
4.76512e-07
4.85326e-07
4.94145e-07
5.02967e-07
5.11791e-07
5.20613e-07
5.29433e-07
5.3825e-07
5.47061e-07
5.55866e-07
5.64664e-07
5.73454e-07
5.82235e-07
5.91008e-07
5.99773e-07
6.08528e-07
6.17274e-07
6.26012e-07
6.34742e-07
6.43464e-07
6.5218e-07
6.6089e-07
6.69596e-07
6.78299e-07
6.86999e-07
6.95698e-07
7.04398e-07
7.13099e-07
7.21804e-07
7.30512e-07
7.39225e-07
7.47943e-07
7.56666e-07
7.65395e-07
7.74129e-07
7.82869e-07
7.91614e-07
8.00363e-07
8.09117e-07
8.17874e-07
8.26633e-07
8.35393e-07
8.44154e-07
8.52913e-07
8.6167e-07
8.70423e-07
8.79171e-07
8.8791e-07
8.9664e-07
9.05359e-07
9.14064e-07
9.22753e-07
9.31423e-07
9.40073e-07
9.487e-07
9.57301e-07
9.65873e-07
9.74414e-07
9.8292e-07
9.91389e-07
9.99818e-07
1.0082e-06
1.01654e-06
1.02483e-06
1.03307e-06
1.04125e-06
1.04937e-06
1.05743e-06
1.06543e-06
1.07336e-06
1.08121e-06
1.08899e-06
1.0967e-06
1.10432e-06
1.11186e-06
1.11931e-06
1.12668e-06
1.13395e-06
1.14113e-06
1.14821e-06
1.15519e-06
1.16207e-06
1.16885e-06
1.17552e-06
1.18208e-06
1.18853e-06
1.19487e-06
1.2011e-06
1.20722e-06
1.21322e-06
1.2191e-06
1.22486e-06
1.23051e-06
1.23604e-06
1.24145e-06
1.24674e-06
1.2519e-06
1.25695e-06
1.26188e-06
1.26668e-06
1.27136e-06
1.27591e-06
1.28034e-06
1.28464e-06
1.2888e-06
1.29284e-06
1.29668e-06
1.30059e-06
1.30388e-06
9.3495e-08
9.36304e-08
9.39104e-08
9.43323e-08
9.48952e-08
9.56003e-08
9.64496e-08
9.7445e-08
9.85885e-08
9.9882e-08
1.01327e-07
1.02926e-07
1.04681e-07
1.06592e-07
1.08662e-07
1.10893e-07
1.13286e-07
1.15841e-07
1.18562e-07
1.21448e-07
1.24501e-07
1.27721e-07
1.31111e-07
1.34669e-07
1.38397e-07
1.42295e-07
1.46363e-07
1.50601e-07
1.55008e-07
1.59585e-07
1.6433e-07
1.69243e-07
1.74321e-07
1.79565e-07
1.84972e-07
1.9054e-07
1.96268e-07
2.02152e-07
2.08191e-07
2.14381e-07
2.20719e-07
2.27202e-07
2.33827e-07
2.4059e-07
2.47486e-07
2.54512e-07
2.61663e-07
2.68936e-07
2.76324e-07
2.83824e-07
2.91431e-07
2.9914e-07
3.06946e-07
3.14844e-07
3.22829e-07
3.30896e-07
3.3904e-07
3.47256e-07
3.55539e-07
3.63885e-07
3.72289e-07
3.80746e-07
3.89252e-07
3.97802e-07
4.06393e-07
4.15021e-07
4.23681e-07
4.32371e-07
4.41087e-07
4.49825e-07
4.58584e-07
4.67359e-07
4.76149e-07
4.84951e-07
4.93763e-07
5.02583e-07
5.11409e-07
5.2024e-07
5.29073e-07
5.37909e-07
5.46745e-07
5.5558e-07
5.64415e-07
5.73248e-07
5.82079e-07
5.90907e-07
5.99734e-07
6.08558e-07
6.1738e-07
6.26201e-07
6.35021e-07
6.43841e-07
6.52662e-07
6.61485e-07
6.70311e-07
6.79142e-07
6.87978e-07
6.96821e-07
7.05674e-07
7.14536e-07
7.23408e-07
7.32292e-07
7.41187e-07
7.50093e-07
7.59012e-07
7.67942e-07
7.76884e-07
7.85836e-07
7.94799e-07
8.03771e-07
8.12752e-07
8.2174e-07
8.30734e-07
8.39733e-07
8.48735e-07
8.57739e-07
8.66742e-07
8.75744e-07
8.84741e-07
8.93731e-07
9.02713e-07
9.11684e-07
9.20641e-07
9.29581e-07
9.38503e-07
9.47402e-07
9.56276e-07
9.65122e-07
9.73937e-07
9.82717e-07
9.9146e-07
1.00016e-06
1.00882e-06
1.01743e-06
1.02598e-06
1.03449e-06
1.04293e-06
1.05132e-06
1.05963e-06
1.06788e-06
1.07606e-06
1.08416e-06
1.09218e-06
1.10012e-06
1.10798e-06
1.11574e-06
1.12342e-06
1.131e-06
1.13848e-06
1.14586e-06
1.15314e-06
1.16032e-06
1.16738e-06
1.17434e-06
1.18118e-06
1.18791e-06
1.19452e-06
1.20102e-06
1.20739e-06
1.21365e-06
1.21978e-06
1.22579e-06
1.23168e-06
1.23744e-06
1.24308e-06
1.24859e-06
1.25398e-06
1.25924e-06
1.26437e-06
1.26938e-06
1.27426e-06
1.27901e-06
1.28363e-06
1.28812e-06
1.29248e-06
1.29669e-06
1.30078e-06
1.30467e-06
1.30861e-06
1.31192e-06
9.07598e-08
9.08963e-08
9.11723e-08
9.15857e-08
9.21358e-08
9.28237e-08
9.36511e-08
9.46201e-08
9.57323e-08
9.69895e-08
9.83936e-08
9.99461e-08
1.01649e-07
1.03503e-07
1.05511e-07
1.07674e-07
1.09993e-07
1.1247e-07
1.15106e-07
1.17903e-07
1.20861e-07
1.23981e-07
1.27265e-07
1.30713e-07
1.34326e-07
1.38104e-07
1.42048e-07
1.46158e-07
1.50433e-07
1.54873e-07
1.59478e-07
1.64248e-07
1.69181e-07
1.74276e-07
1.79531e-07
1.84947e-07
1.90519e-07
1.96247e-07
2.02128e-07
2.08159e-07
2.14339e-07
2.20663e-07
2.27128e-07
2.33732e-07
2.40471e-07
2.4734e-07
2.54337e-07
2.61456e-07
2.68693e-07
2.76045e-07
2.83506e-07
2.91073e-07
2.9874e-07
3.06502e-07
3.14356e-07
3.22296e-07
3.30317e-07
3.38416e-07
3.46587e-07
3.54826e-07
3.63129e-07
3.7149e-07
3.79907e-07
3.88374e-07
3.96889e-07
4.05447e-07
4.14045e-07
4.22678e-07
4.31345e-07
4.40042e-07
4.48766e-07
4.57515e-07
4.66285e-07
4.75075e-07
4.83883e-07
4.92706e-07
5.01543e-07
5.10392e-07
5.19251e-07
5.2812e-07
5.36997e-07
5.45881e-07
5.54771e-07
5.63668e-07
5.7257e-07
5.81476e-07
5.90388e-07
5.99305e-07
6.08227e-07
6.17155e-07
6.26089e-07
6.3503e-07
6.43979e-07
6.52938e-07
6.61907e-07
6.70888e-07
6.79881e-07
6.88889e-07
6.97914e-07
7.06954e-07
7.16013e-07
7.25089e-07
7.34184e-07
7.43297e-07
7.52428e-07
7.61578e-07
7.70744e-07
7.79928e-07
7.89128e-07
7.98343e-07
8.07571e-07
8.16812e-07
8.26064e-07
8.35326e-07
8.44595e-07
8.5387e-07
8.63148e-07
8.72428e-07
8.81707e-07
8.90982e-07
9.00252e-07
9.09512e-07
9.18761e-07
9.27995e-07
9.37212e-07
9.46407e-07
9.55577e-07
9.6472e-07
9.73832e-07
9.82909e-07
9.91947e-07
1.00094e-06
1.00989e-06
1.01879e-06
1.02764e-06
1.03643e-06
1.04516e-06
1.05382e-06
1.06241e-06
1.07094e-06
1.07938e-06
1.08775e-06
1.09603e-06
1.10422e-06
1.11232e-06
1.12033e-06
1.12824e-06
1.13605e-06
1.14376e-06
1.15136e-06
1.15885e-06
1.16623e-06
1.17349e-06
1.18064e-06
1.18766e-06
1.19457e-06
1.20135e-06
1.20801e-06
1.21454e-06
1.22094e-06
1.22722e-06
1.23336e-06
1.23938e-06
1.24526e-06
1.25101e-06
1.25663e-06
1.26212e-06
1.26748e-06
1.27271e-06
1.2778e-06
1.28276e-06
1.28759e-06
1.29228e-06
1.29684e-06
1.30126e-06
1.30552e-06
1.30966e-06
1.3136e-06
1.31758e-06
1.32092e-06
8.76768e-08
8.78145e-08
8.80865e-08
8.84909e-08
8.90273e-08
8.96968e-08
9.05009e-08
9.14415e-08
9.25203e-08
9.37389e-08
9.50989e-08
9.6602e-08
9.82497e-08
1.00044e-07
1.01985e-07
1.04076e-07
1.06318e-07
1.08712e-07
1.11259e-07
1.13962e-07
1.1682e-07
1.19835e-07
1.23009e-07
1.26341e-07
1.29834e-07
1.33487e-07
1.37301e-07
1.41276e-07
1.45413e-07
1.49711e-07
1.5417e-07
1.58791e-07
1.63571e-07
1.68511e-07
1.7361e-07
1.78865e-07
1.84277e-07
1.89842e-07
1.95559e-07
2.01425e-07
2.0744e-07
2.13598e-07
2.19899e-07
2.26339e-07
2.32914e-07
2.39621e-07
2.46457e-07
2.53417e-07
2.60499e-07
2.67697e-07
2.75008e-07
2.82427e-07
2.89951e-07
2.97574e-07
3.05293e-07
3.13104e-07
3.21e-07
3.2898e-07
3.37037e-07
3.45168e-07
3.53369e-07
3.61635e-07
3.69963e-07
3.78349e-07
3.86789e-07
3.9528e-07
4.03817e-07
4.12399e-07
4.21022e-07
4.29682e-07
4.38377e-07
4.47105e-07
4.55863e-07
4.64649e-07
4.73461e-07
4.82296e-07
4.91154e-07
5.00031e-07
5.08928e-07
5.17842e-07
5.26773e-07
5.35719e-07
5.4468e-07
5.53654e-07
5.62642e-07
5.71642e-07
5.80656e-07
5.89682e-07
5.98722e-07
6.07775e-07
6.16841e-07
6.25923e-07
6.3502e-07
6.44135e-07
6.53267e-07
6.62418e-07
6.7159e-07
6.80785e-07
6.90003e-07
6.99245e-07
7.08512e-07
7.17804e-07
7.27121e-07
7.36464e-07
7.45831e-07
7.55222e-07
7.64637e-07
7.74075e-07
7.83535e-07
7.93015e-07
8.02514e-07