/*--------------------------------*- C++ -*----------------------------------*\
| =========                 |                                                 |
| \\      /  F ield         | OpenFOAM: The Open Source CFD Toolbox           |
|  \\    /   O peration     | Version:  2.3.0                                 |
|   \\  /    A nd           | Web:      www.OpenFOAM.org                      |
|    \\/     M anipulation  |                                                 |
\*---------------------------------------------------------------------------*/
FoamFile
{
    version     2.0;
    format      ascii;
    class       volScalarField;
    location    "0.012";
    object      p;
}
// * * * * * * * * * * * * * * * * * * * * * * * * * * * * * * * * * * * * * //

dimensions      [1 -1 -2 0 0 0 0];

internalField   nonuniform List<scalar> 
725
(
15.3486
-24.6826
-33.8511
-14.9584
-72.8398
9.46545
-24.9894
-37.1174
-40.203
-131.012
6.59516
-25.9002
-39.8472
-55.1269
-124.353
6.75808
-27.4748
-41.8755
-56.7304
-61.6371
9.81058
-29.4212
-42.475
-52.3647
-47.8617
879.757
130.601
77.7662
86.5892
-109.66
-43.6334
111.497
109.573
110.759
110.383
167.098
396.643
242.14
162.31
101.508
72.28
56.5765
48.0638
42.9674
39.8396
37.4487
35.494
33.8719
32.3172
30.8463
29.2991
27.653
25.9383
24.1985
22.497
20.8534
19.2256
17.6348
16.0904
14.5983
13.1365
11.744
10.4001
9.02607
7.61599
6.20752
4.81134
3.41089
2.00233
0.585639
391.034
146.689
55.1937
101.12
9.38706
75.2126
109.606
109.173
110.441
108.772
392.849
443.582
233.544
155.161
96.9428
70.388
55.3378
46.2241
41.1497
38.2076
36.0592
34.325
32.884
31.4545
30.0782
28.603
27.0226
25.3698
23.6879
22.0404
20.4518
18.8778
17.3344
15.8357
14.3768
12.9402
11.555
10.238
8.88569
7.4893
6.09025
4.70107
3.30852
1.90678
0.493802
640.724
147.875
82.3292
130.13
111.269
241.845
107.151
108.28
110.13
108.031
503.77
453.923
201.559
140.961
88.5697
65.4865
52.6219
44.8705
40.7194
38.1027
35.8896
34.1658
32.785
31.3622
30.0088
28.5275
26.9402
25.2842
23.5974
21.9557
20.3855
18.7942
17.2483
15.7535
14.2897
12.846
11.4385
10.1509
8.80053
7.40253
6.00186
4.61277
3.2209
1.81661
0.399109
574.764
250.996
189.974
156.685
113.454
-152.953
109.155
107.676
110.355
114.449
440.688
323.992
135.408
114.778
74.8548
58.9064
49.4343
42.9868
39.5026
37.2827
35.9968
34.5706
32.8727
31.3138
29.9827
28.4911
26.888
25.2269
23.5618
21.9174
20.3185
18.7213
17.1547
15.664
14.1959
12.7547
11.3065
10.0525
8.7891
7.34829
5.92898
4.53508
3.13961
1.72275
0.296574
1026.02
99.4369
148.157
164.77
-23.417
-574.044
114.954
105.884
113.349
119.348
-118.387
172.88
66.2545
88.9897
58.5423
50.0637
44.3925
41.2297
38.6648
36.7207
35.1814
33.9686
32.9414
31.9078
30.1109
28.5582
26.9762
25.3004
23.6132
21.9293
20.2492
18.6927
17.2886
16.0912
14.7466
13.2783
11.1578
10.0665
8.71715
7.26093
5.83683
4.44225
3.05016
1.63227
0.211235
5895.69
772.978
223.183
210.802
102.178
1221.15
97.486
95.3088
114.625
127.875
-468.223
146.285
33.3038
75.7025
47.0963
44.7777
41.3876
39.6551
38.0587
36.3124
34.9517
33.7824
32.7285
31.7831
30.2132
28.7706
27.358
25.7412
24.0563
22.3554
20.7804
19.2414
17.8087
16.1851
14.6994
13.0915
12.2275
10.259
8.72985
7.19637
5.7912
4.39182
2.99894
1.56822
0.145297
5021.95
963.628
244.883
219.391
120.834
1820.12
96.806
89.1618
109.017
127.925
180.727
216.417
27.5028
69.2912
43.0096
42.8799
41.4719
39.4876
39.7292
36.2872
34.9147
33.7533
32.705
31.7268
30.1455
28.7445
27.3232
25.6951
24.0026
22.2954
20.6905
19.1169
17.6331
16.1252
14.7018
13.0627
11.8111
10.0081
8.59468
7.1346
5.78379
4.37834
2.98035
1.5423
0.124423
5949.11
861.262
252.317
217.189
156.688
1230.84
143.122
118.989
143.294
114.839
662.019
288.979
23.5961
60.2557
39.3249
41.593
40.1103
38.8523
37.8798
36.0821
34.8003
33.6711
32.652
31.6902
30.4794
29.2151
27.7937
26.1726
24.4438
22.6645
20.964
19.2861
17.6717
16.12
14.685
13.0421
11.6983
9.89594
8.48254
7.03349
5.75496
4.35768
2.96187
1.51584
0.102994
5002.95
959.46
250.536
209.265
148.446
948.985
155.825
108.569
88.2273
98.9855
1620.42
450.125
18.6629
63.9632
40.5813
40.5551
37.4246
38.0071
37.2591
35.9371
34.6763
33.5383
32.5182
31.568
30.3695
29.2363
27.8185
26.1459
24.3674
22.5515
20.8196
19.1227
17.5413
16.0938
14.6585
13.0202
11.6508
9.89131
8.47686
7.01671
5.71729
4.33207
2.93977
1.48744
0.0828789
5972.48
767.18
235.214
205.728
175.458
673.691
166.079
102.293
90.2488
100.328
1334.74
660.946
1.21369
31.8472
28.3938
35.0832
36.3521
37.3493
36.5927
35.7908
34.6103
33.4674
32.4165
31.4256
30.2614
28.9335
27.3019
25.6093
23.8944
22.1838
20.568
18.9794
17.4705
16.1674
14.6391
12.9982
11.6033
9.88678
8.47083
7.00272
5.68808
4.31252
2.91922
1.4599
0.0649534
-8.58679
-45.2094
-59.8782
-59.8065
-31.1135
-11.9319
-43.9836
-60.8347
-69.1875
-68.4718
-12.4042
-43.1615
-60.6724
-74.4166
-125.375
-9.83847
-42.9903
-59.6702
-63.7809
-127.845
-4.25607
-43.3044
-58.4811
-48.2687
-63.4046
691.617
239.481
179.289
215.729
48.5183
17.9464
108.633
104.26
95.6311
103.782
17.1298
-454.899
-86.1261
4.99077
18.0862
28.9237
33.4053
35.671
36.0329
35.399
34.3495
33.2642
32.22
31.1531
30.013
28.6813
27.0772
25.4083
23.7241
22.0406
20.4405
18.8825
17.4002
15.9114
14.7931
13.1624
11.6309
9.94398
8.49547
7.08078
5.63433
4.26239
2.86897
1.41099
0.0484835
470.617
341.654
228.707
228.656
17.1514
-201.094
107.782
105.645
99.6476
103.901
-23.3017
-551.348
-154.059
-31.7937
1.68397
20.3405
28.9688
32.6064
33.7773
34.1611
33.8437
33.0863
32.0223
30.9278
29.79
28.4791
26.9362
25.2927
23.6461
22.0396
20.4111
18.8032
17.2399
15.6784
14.3243
12.8208
11.3845
9.90097
8.48252
7.21813
5.95122
4.66614
3.23256
1.66352
0.203865
582.466
283.72
165.474
212.249
112.297
137.703
103.219
105.496
101.639
104.379
100.305
-376.525
-160.575
-50.1762
-8.85833
14.3802
25.4719
30.5138
32.7857
33.6112
33.3664
32.6423
31.7276
30.7252
29.6198
28.3256
26.815
25.1911
23.531
21.8786
20.2586
18.7146
17.1657
15.644
14.4893
13.0686
11.5534
10.0036
8.4423
6.96646
5.48971
3.97103
2.57646
1.37714
0.0876044
381.919
272.382
152.004
217.569
125.803
115.221
102.466
105.407
102.402
103.928
85.7776
-301.636
-154.014
-65.4522
-16.6495
9.53758
23.006
29.7346
32.1623
32.8647
32.8684
32.372
31.5626
30.5997
29.5086
28.217
26.7144
25.095
23.4358
21.8089
20.2012
18.6107
17.0321
15.4382
13.6867
12.5604
11.3472
9.88765
8.35209
6.87647
5.39958
3.90056
2.50822
1.27926
0.00499319
506.135
268.82
144.227
206.989
98.2306
13.3962
104.553
105.584
102.786
103.824
101.265
-213.845
-140.54
-70.5784
-18.5187
8.20593
21.6648
29.4876
32.7268
33.598
33.6345
33.1222
32.292
31.3089
30.1936
28.8671
27.3315
25.6799
23.986
22.3137
20.6567
19.0064
17.3644
15.7303
13.9042
12.7337
11.4478
9.94213
8.36869
6.86532
5.36429
3.85039
2.45843
1.23159
-0.0506635
)
;

boundaryField
{
    AirInlet
    {
        type            calculated;
        value           nonuniform List<scalar> 5(6545.28 6872.34 6171.37 6838.63 6582.59);
    }
    WaterInlet
    {
        type            calculated;
        value           nonuniform List<scalar> 10(15.3506 9.4715 6.60523 6.77216 9.82861 -8.60488 -11.946 -12.4142 -9.84451 -4.25819);
    }
    ChannelWall
    {
        type            calculated;
        value           nonuniform List<scalar> 
110
(
9.78453
-29.4512
-42.509
-52.4026
-47.9025
-8.56074
-45.1793
-59.8442
-59.7686
-31.0716
-4.2826
-43.3349
-58.5154
-48.3069
-63.4454
506.097
268.783
144.183
206.945
98.1899
13.3799
104.553
105.584
102.786
103.824
101.264
-213.881
-140.584
-70.6225
-18.5628
8.16181
21.6207
29.4434
32.6827
33.5538
33.5903
33.078
32.2478
31.2648
30.1494
28.823
27.2873
25.6357
23.9418
22.2695
20.6126
18.9622
17.3202
15.6861
13.8601
12.6895
11.4037
9.89799
8.32455
6.82117
5.32014
3.80625
2.41428
1.18744
-0.0948085
15.3752
-24.6522
-33.8168
-14.9201
-72.7979
879.799
130.642
77.8086
86.6332
-109.616
-43.622
111.497
109.573
110.759
110.383
167.124
396.687
242.184
162.354
101.552
72.3241
56.6206
48.108
43.0116
39.8838
37.4928
35.5382
33.9161
32.3613
30.8904
29.3432
27.6972
25.9825
24.2427
22.5411
20.8975
19.2698
17.6789
16.1346
14.6425
13.1806
11.7882
10.4442
9.07022
7.66014
6.25166
4.85549
3.45504
2.04647
0.629784
)
;
    }
    Outlet
    {
        type            calculated;
        value           nonuniform List<scalar> 
15
(
-0.044145
-0.132435
-0.220706
-0.308949
-0.397212
-0.451153
-0.470767
-0.490381
-0.509994
-0.529606
-0.58354
-0.671782
-0.760164
-0.848559
-0.936855
)
;
    }
    FrontAndBack
    {
        type            empty;
    }
}


// ************************************************************************* //
