/*--------------------------------*- C++ -*----------------------------------*\
| =========                 |                                                 |
| \\      /  F ield         | OpenFOAM: The Open Source CFD Toolbox           |
|  \\    /   O peration     | Version:  2.3.0                                 |
|   \\  /    A nd           | Web:      www.OpenFOAM.org                      |
|    \\/     M anipulation  |                                                 |
\*---------------------------------------------------------------------------*/
FoamFile
{
    version     2.0;
    format      ascii;
    class       volScalarField;
    location    "0.012";
    object      p_rgh;
}
// * * * * * * * * * * * * * * * * * * * * * * * * * * * * * * * * * * * * * //

dimensions      [1 -1 -2 0 0 0 0];

internalField   nonuniform List<scalar> 
725
(
15.3752
-24.6522
-33.8168
-14.9201
-72.7979
9.54506
-24.898
-37.0143
-40.0881
-130.887
6.72783
-25.7479
-39.6754
-54.9354
-124.142
6.94382
-27.2617
-41.6349
-56.4623
-61.3416
10.0494
-29.1471
-42.1657
-52.02
-47.4917
879.799
130.642
77.8086
86.6332
-109.616
-43.622
111.497
109.573
110.759
110.383
167.124
396.687
242.184
162.354
101.552
72.3241
56.6206
48.108
43.0116
39.8838
37.4928
35.5382
33.9161
32.3613
30.8904
29.3432
27.6972
25.9825
24.2427
22.5411
20.8975
19.2698
17.6789
16.1346
14.6425
13.1806
11.7882
10.4442
9.07022
7.66014
6.25166
4.85549
3.45504
2.04647
0.629784
391.126
146.807
55.3223
101.252
9.51914
75.2532
109.606
109.173
110.441
108.774
392.931
443.715
233.676
155.293
97.0752
70.5204
55.4702
46.3564
41.2821
38.34
36.1916
34.4574
33.0164
31.5869
30.2106
28.7354
27.155
25.5022
23.8203
22.1728
20.5842
19.0103
17.4668
15.9682
14.5093
13.0726
11.6874
10.3704
9.01812
7.62173
6.22269
4.8335
3.44096
2.03921
0.626237
640.868
148.072
82.5457
130.35
111.489
241.925
107.151
108.28
110.13
108.034
503.887
454.14
201.78
141.182
88.7904
65.7072
52.8425
45.0912
40.94
38.3233
36.1102
34.3864
33.0056
31.5829
30.2295
28.7482
27.1609
25.5049
23.8181
22.1763
20.6062
19.0149
17.469
15.9742
14.5104
13.0667
11.6591
10.3716
9.02122
7.62322
6.22255
4.83346
3.4416
2.03731
0.619816
574.966
251.253
190.282
156.993
113.762
-152.833
109.156
107.676
110.356
114.455
440.855
324.284
135.717
115.087
75.1638
59.2154
49.7433
43.2957
39.8115
37.5915
36.3056
34.8794
33.1814
31.6225
30.2915
28.7999
27.1969
25.5357
23.8707
22.2263
20.6274
19.0303
17.4636
15.973
14.5049
13.0637
11.6154
10.3614
9.09805
7.65724
6.23793
4.84403
3.44856
2.0317
0.605523
1026.21
99.7886
148.553
165.166
-23.0209
-573.906
114.954
105.884
113.35
119.349
-118.266
173.241
66.6518
89.387
58.9394
50.4608
44.7896
41.6268
39.0619
37.1177
35.5784
34.3656
33.3384
32.3047
30.5078
28.9551
27.3732
25.6974
24.0103
22.3264
20.6463
19.0899
17.6858
16.4884
15.1438
13.6755
11.5551
10.4638
9.11439
7.65816
6.23406
4.83948
3.44739
2.02948
0.608447
5895.71
773.311
223.633
211.252
102.613
1221.36
97.4909
95.3096
114.626
127.875
-468.071
146.701
33.7551
76.1537
47.5473
45.2287
41.8385
40.1061
38.5096
36.7635
35.4027
34.2333
33.1794
32.2339
30.664
29.2214
27.8088
26.1921
24.5072
22.8065
21.2314
19.6925
18.2598
16.6362
15.1506
13.5426
12.6787
10.7101
9.18102
7.64753
6.24237
4.84299
3.4501
2.01938
0.59645
5022
964.011
245.352
219.861
121.283
1820.36
96.8152
89.1629
109.018
127.926
180.87
216.845
27.9737
69.762
43.4801
43.3504
41.9424
39.9582
40.1999
36.7579
35.3853
34.2239
33.1755
32.1972
30.6159
29.2149
27.7936
26.1656
24.4731
22.766
21.1612
19.5876
18.1039
16.596
15.1725
13.5335
12.2818
10.4789
9.06547
7.60538
6.25457
4.84912
3.45113
2.01307
0.59519
5949.12
861.629
252.806
217.678
157.142
1231.07
143.135
118.991
143.296
114.84
662.191
289.429
24.0866
60.7456
39.8148
42.083
40.6004
39.3425
38.37
36.5724
35.2905
34.1613
33.1421
32.1802
30.9694
29.7051
28.2837
26.6627
24.934
23.1547
21.4543
19.7764
18.1621
16.6103
15.1754
13.5325
12.1887
10.3863
8.97294
7.52389
6.24536
4.84807
3.45227
2.00623
0.593375
5003
959.874
251.045
209.774
148.917
949.219
155.839
108.571
88.2283
98.9864
1620.61
450.596
19.173
64.4725
41.0908
41.0648
37.9343
38.5169
37.769
36.447
35.1862
34.0481
33.0279
32.0776
30.8791
29.7459
28.3281
26.6556
24.8772
23.0613
21.3295
19.6326
18.0512
16.6038
15.1685
13.5302
12.1609
10.4013
8.98688
7.52673
6.22731
4.84208
3.44977
1.99744
0.592873
5972.51
767.573
235.742
206.256
175.943
673.935
166.094
102.294
90.2497
100.329
1334.92
661.447
1.74342
32.3765
28.923
35.6125
36.8815
37.8788
37.1222
36.3204
35.1398
33.9968
32.9459
31.9549
30.7906
29.4628
27.8311
26.1386
24.4238
22.7133
21.0976
19.5089
18.0001
16.697
15.1688
13.5278
12.133
10.4164
9.00047
7.53235
6.21771
4.84215
3.44884
1.98952
0.594559
-7.84461
-44.5024
-59.2066
-59.1701
-30.5124
-11.1366
-43.2158
-60.0943
-68.4746
-67.7863
-11.5558
-42.3328
-59.8632
-73.627
-124.605
-8.93708
-42.1007
-58.7923
-62.9148
-127.013
-3.3016
-42.3539
-57.5345
-47.3259
-62.4975
691.921
239.993
179.871
216.311
49.0668
18.1967
108.634
104.261
95.632
103.783
17.221
-454.408
-85.5424
5.57434
18.6695
29.507
33.9887
36.2546
36.6164
35.9825
34.9329
33.8476
32.8033
31.7364
30.5962
29.2646
27.6605
25.9916
24.3075
22.624
21.024
19.466
17.9837
16.4949
15.3768
13.7461
12.2145
10.5276
9.07906
7.66436
6.21791
4.84596
3.45252
1.99454
0.632024
471.044
342.196
229.377
229.326
17.7893
-200.834
107.783
105.646
99.6487
103.902
-23.1978
-550.719
-153.388
-31.1219
2.35575
21.0124
29.6406
33.2782
34.4491
34.8329
34.5153
33.7579
32.6939
31.5994
30.4616
29.1507
27.6079
25.9645
24.3179
22.7115
21.083
19.4751
17.9118
16.3503
14.9962
13.4926
12.0564
10.5728
9.15434
7.88995
6.62303
5.33794
3.90435
2.33531
0.875647
582.95
284.358
166.232
213.007
113.018
138.014
103.22
105.497
101.641
104.38
100.336
-375.898
-159.814
-49.4159
-8.09815
15.1403
26.232
31.2739
33.5457
34.3712
34.1263
33.4022
32.4875
31.4852
30.3798
29.0857
27.5751
25.9512
24.2911
22.6387
21.0188
19.4747
17.9259
16.4041
15.2494
13.8287
12.3134
10.7637
9.20239
7.72656
6.24982
4.73115
3.3366
2.13729
0.847768
382.483
273.087
152.841
218.414
126.601
115.547
102.467
105.408
102.404
103.929
85.8289
-300.908
-153.165
-64.6038
-15.8011
10.3859
23.8543
30.5829
33.0106
33.713
33.7167
33.2203
32.411
31.4481
30.357
29.0654
27.5629
25.9434
24.2842
22.6573
21.0497
19.4591
17.8806
16.2867
14.5352
13.4089
12.1957
10.7362
9.20063
7.72501
6.24813
4.74912
3.35678
2.12782
0.853552
506.95
269.603
145.144
207.923
99.0949
13.7417
104.554
105.585
102.788
103.826
101.295
-213.081
-139.603
-69.6419
-17.5823
9.14244
22.6015
30.4243
33.6636
34.5348
34.5713
34.059
33.2288
32.2458
31.1304
29.804
28.2683
26.6167
24.9228
23.2505
21.5936
19.9432
18.3012
16.6671
14.8411
13.6705
12.3847
10.879
9.30555
7.80217
6.30114
4.78725
3.39528
2.16844
0.886191
)
;

boundaryField
{
    AirInlet
    {
        type            fixedFluxPressure;
        gradient        nonuniform List<scalar> 5(6.49566e+07 1.85035e+08 2.22244e+07 1.83563e+08 6.10087e+07);
        value           nonuniform List<scalar> 5(6545.28 6872.34 6171.37 6838.63 6582.6);
    }
    WaterInlet
    {
        type            fixedFluxPressure;
        gradient        nonuniform List<scalar> 10(0.00329591 1.28732 1.5237 1.18629 -6.03104 -0.0145161 -6.3751 -1.27325 -0.902219 -11.238);
        value           nonuniform List<scalar> 10(15.3752 9.54507 6.72785 6.94384 10.0493 -7.84461 -11.1367 -11.5559 -8.93709 -3.30172);
    }
    ChannelWall
    {
        type            fixedFluxPressure;
        gradient        uniform 0;
        value           nonuniform List<scalar> 
110
(
10.0494
-29.1471
-42.1657
-52.02
-47.4917
-7.84461
-44.5024
-59.2066
-59.1701
-30.5124
-3.3016
-42.3539
-57.5345
-47.3259
-62.4975
506.95
269.603
145.144
207.923
99.0949
13.7417
104.554
105.585
102.788
103.826
101.295
-213.081
-139.603
-69.6419
-17.5823
9.14244
22.6015
30.4243
33.6636
34.5348
34.5713
34.059
33.2288
32.2458
31.1304
29.804
28.2683
26.6167
24.9228
23.2505
21.5936
19.9432
18.3012
16.6671
14.8411
13.6705
12.3847
10.879
9.30555
7.80217
6.30114
4.78725
3.39528
2.16844
0.886191
15.3752
-24.6522
-33.8168
-14.9201
-72.7979
879.799
130.642
77.8086
86.6332
-109.616
-43.622
111.497
109.573
110.759
110.383
167.124
396.687
242.184
162.354
101.552
72.3241
56.6206
48.108
43.0116
39.8838
37.4928
35.5382
33.9161
32.3613
30.8904
29.3432
27.6972
25.9825
24.2427
22.5411
20.8975
19.2698
17.6789
16.1346
14.6425
13.1806
11.7882
10.4442
9.07022
7.66014
6.25166
4.85549
3.45504
2.04647
0.629784
)
;
    }
    Outlet
    {
        type            totalPressure;
        rho             rho;
        psi             none;
        gamma           1;
        p0              uniform 0;
        value           uniform 0;
    }
    FrontAndBack
    {
        type            empty;
    }
}


// ************************************************************************* //
