/*--------------------------------*- C++ -*----------------------------------*\
| =========                 |                                                 |
| \\      /  F ield         | OpenFOAM: The Open Source CFD Toolbox           |
|  \\    /   O peration     | Version:  2.3.0                                 |
|   \\  /    A nd           | Web:      www.OpenFOAM.org                      |
|    \\/     M anipulation  |                                                 |
\*---------------------------------------------------------------------------*/
FoamFile
{
    version     2.0;
    format      ascii;
    class       surfaceScalarField;
    location    "0.012";
    object      phi;
}
// * * * * * * * * * * * * * * * * * * * * * * * * * * * * * * * * * * * * * //

dimensions      [0 3 -1 0 0 0 0];

internalField   nonuniform List<scalar> 
1380
(
3.07269e-13
1.92731e-13
2.35807e-13
7.14624e-14
5.43592e-15
2.30371e-13
-1.3898e-12
1.39524e-12
1.95394e-12
-3.34374e-12
5.97711e-13
9.50202e-14
5.93996e-13
7.51772e-14
5.59382e-13
2.64985e-13
3.29846e-13
1.62477e-12
1.48805e-12
7.95738e-13
6.86442e-13
-9.14217e-14
7.46665e-13
1.49547e-14
8.79686e-13
1.31963e-13
1.65267e-12
8.51792e-13
-4.5097e-14
3.18582e-12
6.02466e-13
-1.93888e-13
6.47213e-13
-2.97919e-14
7.89922e-13
-1.07464e-14
1.57492e-12
6.67902e-14
-6.85691e-13
2.21552e-12
3.06112e-13
2.7632e-13
2.65574e-13
3.32364e-13
-3.53326e-13
1.84339e-12
-5.18714e-12
1.81725e-12
2.61409e-14
1.40462e-12
4.12637e-13
1.404e-12
6.18551e-16
1.6402e-12
-2.36198e-13
1.62771e-12
1.24871e-14
-2.97177e-13
1.92488e-12
-1.19937e-12
9.02176e-13
4.02337e-13
-1.6017e-12
2.67299e-14
3.75617e-13
3.97303e-13
-3.70576e-13
9.22576e-13
-5.25273e-13
5.68863e-13
3.53713e-13
4.83106e-13
8.57567e-14
3.62601e-13
1.20506e-13
2.69519e-13
9.30823e-14
2.13112e-13
5.64072e-14
1.81287e-13
3.18243e-14
1.63174e-13
1.81137e-14
1.57562e-13
5.61179e-15
1.53327e-13
4.23468e-15
1.49312e-13
4.01568e-15
1.47781e-13
1.53013e-15
1.4693e-13
8.50649e-16
1.48396e-13
-1.46582e-15
1.50598e-13
-2.20189e-15
1.52077e-13
-1.47899e-15
1.52216e-13
-1.38994e-16
1.51027e-13
1.18941e-15
1.4946e-13
1.56687e-15
1.48174e-13
1.28619e-15
1.46484e-13
1.69005e-15
1.44709e-13
1.77403e-15
1.42894e-13
1.81585e-15
1.41691e-13
1.20271e-15
1.40481e-13
1.21031e-15
1.40974e-13
-4.93618e-16
1.42026e-13
-1.05202e-15
1.42746e-13
-7.19213e-16
1.42728e-13
1.69234e-17
1.42571e-13
1.57167e-16
1.42725e-13
-1.53608e-16
1.42732e-13
-7.77831e-18
1.42127e-13
6.05088e-16
1.36362e-15
3.66672e-13
-4.75807e-12
8.39885e-13
-4.47072e-13
1.70318e-12
-4.50656e-13
2.22216e-12
-5.18365e-13
2.44598e-12
-4.60021e-13
2.34087e-12
1.17599e-13
-1.33293e-12
5.59868e-12
-3.03603e-12
2.60527e-12
-1.62079e-13
-4.47566e-12
3.76921e-13
-1.63387e-13
1.37751e-12
-1.37116e-12
1.4354e-12
-5.83165e-13
7.32464e-13
1.05665e-12
6.72915e-13
1.45306e-13
6.00503e-13
1.92918e-13
5.13542e-13
1.80044e-13
4.54453e-13
1.15496e-13
4.13445e-13
7.28324e-14
3.94759e-13
3.67993e-14
3.93937e-13
6.43478e-15
3.92677e-13
5.49398e-15
3.88881e-13
7.81146e-15
3.87251e-13
3.15998e-15
3.85944e-13
2.15793e-15
3.88028e-13
-3.55037e-15
3.91445e-13
-5.61872e-15
3.93785e-13
-3.8183e-15
3.93779e-13
-1.32965e-16
3.915e-13
3.46779e-15
3.88515e-13
4.55239e-15
3.85791e-13
4.0095e-15
3.82422e-13
5.05897e-15
3.78992e-13
5.20395e-15
3.75807e-13
5.00148e-15
3.73589e-13
3.41984e-15
3.71582e-13
3.21747e-15
3.72616e-13
-1.52709e-15
3.74902e-13
-3.33812e-15
3.76604e-13
-2.42158e-15
3.7683e-13
-2.09487e-16
3.76705e-13
2.81794e-16
3.77096e-13
-5.44522e-16
3.77149e-13
-6.01359e-17
3.7569e-13
2.06369e-15
3.84061e-15
6.07629e-13
-2.17989e-12
8.85003e-13
-7.24446e-13
1.96272e-12
-1.52837e-12
2.55275e-12
-1.10839e-12
2.28702e-12
-1.94286e-13
-3.60533e-12
6.00994e-12
-2.90557e-12
4.89894e-12
-4.4829e-12
4.18262e-12
-7.88614e-14
-8.87969e-12
2.19286e-12
-2.43511e-12
2.3631e-12
-1.54141e-12
1.8963e-12
-1.16365e-13
9.26169e-13
2.02678e-12
7.91606e-13
2.79869e-13
7.35466e-13
2.49057e-13
6.58404e-13
2.57105e-13
6.12065e-13
1.61836e-13
5.80521e-13
1.04377e-13
5.74288e-13
4.30322e-14
5.81921e-13
-1.19785e-15
5.8382e-13
3.59541e-15
5.80064e-13
1.15666e-14
5.77195e-13
6.02937e-15
5.73037e-13
6.31511e-15
5.72605e-13
-3.11777e-15
5.73894e-13
-6.90778e-15
5.75038e-13
-4.96206e-15
5.74669e-13
2.35904e-16
5.72408e-13
5.72892e-15
5.69647e-13
7.31285e-15
5.67304e-13
6.35233e-15
5.63661e-13
8.70193e-15
5.60278e-13
8.58675e-15
5.57387e-13
7.89353e-15
5.55363e-13
5.44287e-15
5.532e-13
5.38069e-15
5.54268e-13
-2.59464e-15
5.57259e-13
-6.3295e-15
5.59616e-13
-4.77888e-15
5.60137e-13
-7.30347e-16
5.60076e-13
3.4233e-16
5.60722e-13
-1.19058e-15
5.61011e-13
-3.49062e-16
5.59127e-13
3.94816e-15
6.89949e-15
2.97983e-12
-2.9442e-12
2.68653e-12
-4.3114e-13
2.39838e-12
-1.24022e-12
2.57697e-12
-1.28699e-12
1.96812e-12
4.14568e-13
-8.29538e-12
1.62734e-11
-4.59229e-12
1.19585e-12
-4.58244e-12
4.17278e-12
2.11018e-12
-1.55723e-11
5.24165e-12
-5.56659e-12
9.94451e-13
2.70579e-12
1.09688e-12
-2.18798e-13
9.0531e-13
2.21836e-12
8.65175e-13
3.20004e-13
8.35192e-13
2.79041e-13
7.66032e-13
3.26265e-13
7.12525e-13
2.15344e-13
6.84653e-13
1.32248e-13
6.97622e-13
3.00628e-14
7.1909e-13
-2.26653e-14
7.27359e-13
-4.67372e-15
7.2462e-13
1.43055e-14
7.1751e-13
1.31386e-14
7.08471e-13
1.53544e-14
7.02388e-13
2.96542e-15
6.97985e-13
-2.50537e-15
6.95853e-13
-2.82923e-15
6.94555e-13
1.53413e-15
6.93748e-13
6.5353e-15
6.93674e-13
7.38714e-15
6.92201e-13
7.82465e-15
6.9008e-13
1.08233e-14
6.88268e-13
1.03985e-14
6.87408e-13
8.75401e-15
6.87059e-13
5.79104e-15
6.85237e-13
7.20312e-15
6.86305e-13
-3.66221e-15
6.88254e-13
-8.27951e-15
6.92525e-13
-9.04967e-15
6.92712e-13
-9.17694e-16
6.92664e-13
3.90517e-16
6.93645e-13
-2.17092e-15
6.94406e-13
-1.11067e-15
6.92429e-13
5.92516e-15
1.03518e-14
-2.70096e-12
-5.9657e-13
-6.39932e-13
-2.49217e-12
1.4933e-12
-3.37346e-12
1.5838e-12
-1.37749e-12
1.41984e-12
5.78532e-13
9.96739e-12
7.72588e-12
5.40008e-12
5.76316e-12
-1.66022e-12
1.12331e-11
-4.18204e-12
-1.30505e-11
-3.9106e-12
-5.83802e-12
3.8652e-13
-1.59132e-12
9.45323e-13
-7.77602e-13
1.03283e-12
2.13085e-12
9.5821e-13
3.9462e-13
8.86897e-13
3.50354e-13
8.17184e-13
3.95978e-13
7.57798e-13
2.7473e-13
7.54414e-13
1.35632e-13
7.71228e-13
1.32486e-14
7.8411e-13
-3.55471e-14
7.96113e-13
-1.6677e-14
8.04625e-13
5.79366e-15
8.02363e-13
1.54011e-14
7.94605e-13
2.31119e-14
7.77598e-13
1.99722e-14
7.64128e-13
1.09641e-14
7.57204e-13
4.09552e-15
7.55435e-13
3.30331e-15
7.57185e-13
4.78557e-15
7.59867e-13
4.70434e-15
7.60596e-13
7.0958e-15
7.60725e-13
1.06944e-14
7.61196e-13
9.92776e-15
7.65691e-13
4.25919e-15
7.70557e-13
9.2503e-16
7.67953e-13
9.80669e-15
7.6791e-13
-3.61896e-15
7.70516e-13
-1.08859e-14
7.73497e-13
-1.20308e-14
7.73836e-13
-1.2569e-15
7.74095e-13
1.31841e-16
7.75642e-13
-3.71842e-15
7.77045e-13
-2.51349e-15
7.75154e-13
7.81619e-15
1.36532e-14
3.13296e-13
-7.09865e-13
3.60031e-13
-2.5389e-12
3.83348e-13
-3.39677e-12
-1.28434e-13
-8.65707e-13
-1.03339e-12
1.48349e-12
1.80768e-12
4.8848e-12
3.201e-12
4.36985e-12
1.61488e-12
1.28192e-11
-1.98427e-12
-9.45136e-12
-6.98086e-12
-8.41424e-13
-1.54192e-13
-8.41799e-12
7.53416e-14
-1.00714e-12
2.50771e-13
1.95543e-12
2.10982e-13
4.34409e-13
1.94688e-13
3.66649e-13
1.76845e-13
4.13821e-13
1.69541e-13
2.82034e-13
1.70877e-13
1.34296e-13
1.74273e-13
9.85218e-15
1.75798e-13
-3.70715e-14
1.77358e-13
-1.82368e-14
1.78965e-13
4.18646e-15
1.80034e-13
1.43312e-14
1.79379e-13
2.3767e-14
1.75619e-13
2.37321e-14
1.71492e-13
1.50918e-14
1.69301e-13
6.28656e-15
1.6884e-13
3.76463e-15
1.69383e-13
4.2426e-15
1.70211e-13
3.87551e-15
1.71112e-13
6.19543e-15
1.72161e-13
9.64473e-15
1.7358e-13
8.50895e-15
1.74978e-13
2.86165e-15
1.75984e-13
-8.14391e-17
1.75706e-13
1.00849e-14
1.7554e-13
-3.45321e-15
1.7557e-13
-1.09163e-14
1.75904e-13
-1.23639e-14
1.75953e-13
-1.30658e-15
1.76085e-13
4.12786e-19
1.7651e-13
-4.14349e-15
1.76874e-13
-2.87754e-15
1.76436e-13
8.25446e-15
1.42205e-14
-9.76455e-14
-4.1222e-13
5.3054e-13
-3.16709e-12
3.78028e-13
-3.24426e-12
-1.19243e-13
-3.68436e-13
-1.3754e-12
2.73964e-12
-8.62693e-13
4.3721e-12
3.48577e-12
2.13778e-14
1.38076e-12
1.49242e-11
7.86106e-13
-8.85671e-12
-8.61192e-12
8.5566e-12
-6.14061e-13
-1.64159e-11
-3.9542e-14
-1.58165e-12
2.54562e-13
1.66132e-12
2.10945e-13
4.78025e-13
1.90975e-13
3.86619e-13
1.73916e-13
4.30879e-13
1.68898e-13
2.87052e-13
1.71622e-13
1.31572e-13
1.74872e-13
6.60154e-15
1.75779e-13
-3.79781e-14
1.77099e-13
-1.95569e-14
1.78752e-13
2.53364e-15
1.80059e-13
1.30239e-14
1.79743e-13
2.40826e-14
1.75991e-13
2.74846e-14
1.71649e-13
1.94339e-14
1.69303e-13
8.63187e-15
1.68825e-13
4.24298e-15
1.69446e-13
3.62196e-15
1.70489e-13
2.83269e-15
1.71706e-13
4.97757e-15
1.73194e-13
8.1574e-15
1.74789e-13
6.91315e-15
1.7619e-13
1.46112e-15
1.77224e-13
-1.11533e-15
1.77081e-13
1.02278e-14
1.76629e-13
-3.00144e-15
1.76532e-13
-1.08191e-14
1.76781e-13
-1.26132e-14
1.76831e-13
-1.35583e-15
1.76993e-13
-1.61563e-16
1.77446e-13
-4.59647e-15
1.77844e-13
-3.27563e-15
1.77433e-13
8.66548e-15
1.47595e-14
2.64275e-12
-2.85497e-12
4.43872e-13
-9.68206e-13
3.49241e-13
-3.14963e-12
6.92423e-14
-8.84371e-14
-3.5113e-13
3.16001e-12
1.56799e-12
2.45298e-12
1.10402e-12
4.85348e-13
9.15157e-13
1.51131e-11
2.94469e-12
-1.08862e-11
3.30076e-12
8.20053e-12
-3.62365e-13
-1.27527e-11
-1.03321e-13
-1.8407e-12
2.67537e-13
1.29046e-12
2.11312e-13
5.3425e-13
1.84825e-13
4.13106e-13
1.70299e-13
4.45405e-13
1.67776e-13
2.89576e-13
1.71641e-13
1.27707e-13
1.7469e-13
3.55271e-15
1.75284e-13
-3.85721e-14
1.76421e-13
-2.06946e-14
1.78143e-13
8.11719e-16
1.79703e-13
1.14645e-14
1.79745e-13
2.40401e-14
1.75736e-13
3.14933e-14
1.7102e-13
2.41506e-14
1.6851e-13
1.11416e-14
1.68011e-13
4.7418e-15
1.68777e-13
2.8559e-15
1.70085e-13
1.52548e-15
1.71662e-13
3.39986e-15
1.73524e-13
6.29589e-15
1.75355e-13
5.08234e-15
1.7682e-13
-4.19824e-18
1.77892e-13
-2.18747e-15
1.77859e-13
1.0261e-14
1.77289e-13
-2.43177e-15
1.76965e-13
-1.04952e-14
1.77065e-13
-1.27125e-14
1.7704e-13
-1.33103e-15
1.77251e-13
-3.7321e-16
1.77806e-13
-5.1512e-15
1.78249e-13
-3.71803e-15
1.77879e-13
9.03542e-15
1.52706e-14
1.08271e-13
-2.76324e-12
4.81841e-13
-1.34178e-12
2.66787e-13
-2.93458e-12
2.33224e-13
-5.48742e-14
1.52023e-13
3.24122e-12
2.1872e-12
4.178e-13
8.98937e-13
1.77361e-12
7.57727e-13
1.52543e-11
1.98625e-12
-1.21148e-11
1.42278e-11
-4.04106e-12
1.36402e-12
1.11095e-13
1.37816e-13
-6.14496e-13
2.91085e-13
1.13719e-12
2.07898e-13
6.17437e-13
1.7691e-13
4.44094e-13
1.67562e-13
4.54753e-13
1.67947e-13
2.89192e-13
1.71253e-13
1.244e-13
1.73911e-13
8.94657e-16
1.74217e-13
-3.88778e-14
1.7517e-13
-2.16474e-14
1.76879e-13
-8.97552e-16
1.78494e-13
9.84958e-15
1.78429e-13
2.41055e-14
1.75324e-13
3.45979e-14
1.71258e-13
2.82167e-14
1.6883e-13
1.35699e-14
1.68372e-13
5.19992e-15
1.69133e-13
2.09439e-15
1.70425e-13
2.33845e-16
1.72001e-13
1.82388e-15
1.73807e-13
4.48921e-15
1.75531e-13
3.35858e-15
1.76902e-13
-1.37462e-15
1.77953e-13
-3.23834e-15
1.77972e-13
1.02415e-14
1.77308e-13
-1.76727e-15
1.7681e-13
-9.99721e-15
1.76785e-13
-1.26881e-14
1.76757e-13
-1.30258e-15
1.77021e-13
-6.37362e-16
1.77608e-13
-5.73878e-15
1.78092e-13
-4.20127e-15
1.77769e-13
9.35815e-15
1.57461e-14
9.75155e-13
-3.5384e-12
3.2183e-13
-6.88451e-13
1.6125e-13
-2.774e-12
1.91288e-13
-8.49124e-14
-2.16301e-13
3.64881e-12
-3.6841e-13
5.69908e-13
1.1275e-12
2.77703e-13
5.92881e-13
1.57889e-11
3.34537e-12
-1.48673e-11
4.90151e-12
-5.59721e-12
1.23306e-12
3.77954e-12
3.50424e-13
2.68144e-13
2.96115e-13
1.1915e-12
2.06683e-13
7.06869e-13
1.72394e-13
4.78383e-13
1.65525e-13
4.61621e-13
1.6742e-13
2.87297e-13
1.70977e-13
1.20844e-13
1.72649e-13
-7.77363e-16
1.72644e-13
-3.88727e-14
1.73431e-13
-2.24346e-14
1.75097e-13
-2.56389e-15
1.76628e-13
8.31828e-15
1.76738e-13
2.39961e-14
1.74408e-13
3.69282e-14
1.71312e-13
3.13123e-14
1.69396e-13
1.54863e-14
1.69021e-13
5.57474e-15
1.6966e-13
1.45508e-15
1.70738e-13
-8.43579e-16
1.72081e-13
4.80469e-16
1.73636e-13
2.9346e-15
1.75183e-13
1.81145e-15
1.7644e-13
-2.63175e-15
1.77393e-13
-4.19117e-15
1.77429e-13
1.02055e-14
1.76716e-13
-1.05431e-15
1.76069e-13
-9.35088e-15
1.75947e-13
-1.25652e-14
1.75916e-13
-1.27168e-15
1.76251e-13
-9.73076e-16
1.76855e-13
-6.34215e-15
1.77373e-13
-4.71998e-15
1.77108e-13
9.62372e-15
1.6181e-14
3.06697e-13
1.93303e-13
2.87517e-13
1.91804e-14
3.15524e-13
-2.80065e-14
5.10148e-13
-1.94624e-13
-1.60011e-13
6.70159e-13
6.03024e-13
9.02784e-14
6.44815e-13
-2.26099e-14
7.96689e-13
-1.79881e-13
1.54103e-12
-9.38965e-13
-8.92517e-13
2.27354e-12
6.86532e-13
-9.62536e-14
7.37328e-13
-7.34056e-14
8.51039e-13
-2.93592e-13
1.49446e-12
-1.58239e-12
-2.04397e-12
2.64592e-12
5.97263e-13
-1.93516e-13
5.88786e-13
-6.49284e-14
5.20733e-13
-2.2554e-13
1.72508e-13
-1.23417e-12
-1.99901e-12
1.27545e-13
3.06484e-13
2.41555e-13
1.60158e-14
-1.21815e-12
-3.21716e-12
-1.61105e-12
-1.25719e-12
-5.843e-13
-1.7152e-12
-4.03898e-13
-2.9544e-12
-8.3952e-13
3.50709e-13
-3.83263e-12
6.64192e-12
-6.02245e-12
2.75973e-12
-8.50528e-13
-4.89422e-12
6.49699e-12
8.44138e-12
3.20885e-12
-1.15791e-11
2.19583e-12
-4.58419e-12
9.74699e-14
5.87791e-12
9.39741e-13
-5.74126e-13
1.1644e-12
9.66839e-13
8.87713e-13
9.8356e-13
7.10166e-13
6.55931e-13
7.18118e-13
4.53669e-13
7.43773e-13
2.61642e-13
7.58692e-13
1.05924e-13
7.5571e-13
2.20488e-15
7.50568e-13
-3.37315e-14
7.53534e-13
-2.54003e-14
7.61184e-13
-1.0214e-14
7.65869e-13
3.63319e-15
7.67695e-13
2.21708e-14
7.66664e-13
3.7959e-14
7.6365e-13
3.43261e-14
7.6067e-13
1.84668e-14
7.60465e-13
5.77889e-15
7.6229e-13
-3.69745e-16
7.64633e-13
-3.18638e-15
7.68127e-13
-3.01387e-15
7.71916e-13
-8.54565e-16
7.7624e-13
-2.5124e-15
7.79821e-13
-6.21202e-15
7.83472e-13
-7.84236e-15
7.83738e-13
9.93948e-15
7.80168e-13
2.51539e-15
7.75678e-13
-4.86038e-15
7.74518e-13
-1.14051e-14
7.75474e-13
-2.22745e-15
7.76578e-13
-2.07741e-15
7.79368e-13
-9.13232e-15
7.82638e-13
-7.99023e-15
7.82554e-13
9.7078e-15
1.8143e-14
2.5602e-12
-1.54385e-12
1.6638e-12
-8.18798e-13
-4.42581e-13
-8.48018e-13
-1.21443e-12
1.12256e-12
-1.56495e-12
6.99244e-12
1.50867e-12
-3.13895e-13
2.11648e-12
-5.50203e-12
5.46782e-12
5.09004e-12
4.46248e-13
-6.55753e-12
-1.16797e-12
-2.96998e-12
-5.30014e-13
5.23995e-12
1.13559e-13
-1.2177e-12
4.79303e-13
6.01095e-13
5.27349e-13
9.35514e-13
5.41968e-13
6.41312e-13
6.23194e-13
3.72443e-13
6.77835e-13
2.07002e-13
6.90675e-13
9.30836e-14
6.86561e-13
6.31902e-15
6.8196e-13
-2.91301e-14
6.7822e-13
-2.16604e-14
6.75681e-13
-7.67456e-15
6.75606e-13
3.7081e-15
6.79941e-13
1.78355e-14
6.87975e-13
2.99251e-14
6.95015e-13
2.72859e-14
6.98394e-13
1.50886e-14
6.99568e-13
4.60403e-15
7.00149e-13
-9.50777e-16
7.00588e-13
-3.62554e-15
7.01196e-13
-3.62163e-15
7.01966e-13
-1.62379e-15
7.02586e-13
-3.1326e-15
7.00869e-13
-4.49472e-15
7.05926e-13
-1.29001e-14
7.09669e-13
6.1971e-15
7.07172e-13
5.01168e-15
7.03621e-13
-1.30867e-15
6.99099e-13
-6.88338e-15
6.98451e-13
-1.57869e-15
6.98779e-13
-2.40609e-15
7.00259e-13
-1.0612e-14
7.01157e-13
-8.888e-15
7.00871e-13
9.9932e-15
1.49697e-14
-1.08347e-12
2.18553e-12
-1.35098e-12
-5.51292e-13
-1.50945e-12
-6.89541e-13
-1.11204e-12
7.25146e-13
1.13653e-12
4.74387e-12
2.42598e-12
-1.60334e-12
1.04512e-12
-4.12118e-12
3.22127e-12
2.9139e-12
-5.22946e-13
-2.81331e-12
-1.8489e-12
-1.64403e-12
1.75096e-12
1.64009e-12
5.84484e-14
4.74816e-13
3.22549e-14
6.27288e-13
1.87897e-13
7.79871e-13
3.53991e-13
4.75218e-13
4.75726e-13
2.50707e-13
5.48915e-13
1.33812e-13
5.74814e-13
6.71847e-14
5.69569e-13
1.15634e-14
5.55894e-13
-1.5455e-14
5.43656e-13
-9.42149e-15
5.38708e-13
-2.72706e-15
5.39367e-13
3.04937e-15
5.46391e-13
1.08111e-14
5.58605e-13
1.77118e-14
5.69841e-13
1.60497e-14
5.76043e-13
8.88622e-15
5.77885e-13
2.76188e-15
5.7821e-13
-1.27524e-15
5.76745e-13
-2.1606e-15
5.74947e-13
-1.82415e-15
5.75027e-13
-1.70283e-15
5.73464e-13
-1.56955e-15
5.6846e-13
5.08581e-16
5.72588e-13
-1.70279e-14
5.74671e-13
4.11392e-15
5.7412e-13
5.56348e-15
5.7218e-13
6.31073e-16
5.68654e-13
-3.35681e-15
5.67881e-13
-8.06088e-16
5.67359e-13
-1.88433e-15
5.6383e-13
-7.0831e-15
5.60629e-13
-5.68693e-15
5.6471e-13
5.91245e-15
9.6844e-15
-6.65447e-13
2.97852e-12
-1.06379e-12
-1.52947e-13
-1.32202e-12
-4.31312e-13
-9.06099e-13
3.09224e-13
1.2691e-12
2.56867e-12
2.64637e-14
-3.60701e-13
-1.63598e-12
-2.45874e-12
4.83655e-13
7.94262e-13
-9.21603e-13
-1.40805e-12
-1.2639e-12
-1.30173e-12
-4.19012e-13
7.95194e-13
-8.2361e-13
8.79415e-13
-5.36557e-13
3.40235e-13
-1.27793e-13
3.71108e-13
1.37411e-13
2.10014e-13
2.73312e-13
1.14806e-13
3.45285e-13
6.18384e-14
3.79277e-13
3.31932e-14
3.80295e-13
1.05455e-14
3.6733e-13
-2.48953e-15
3.59399e-13
-1.49117e-15
3.56687e-13
-1.4186e-17
3.58426e-13
1.30955e-15
3.65591e-13
3.64694e-15
3.77332e-13
5.97066e-15
3.88009e-13
5.37241e-15
3.93939e-13
2.95637e-15
3.95798e-13
9.02692e-16
3.94991e-13
-4.6838e-16
3.93546e-13
-7.15455e-16
3.92262e-13
-5.40171e-16
3.9112e-13
-5.60101e-16
3.90015e-13
-4.64516e-16
3.89948e-13
5.75227e-16
3.80422e-13
-7.50229e-15
3.83156e-13
1.37981e-15
3.863e-13
2.4199e-15
3.86372e-13
5.59944e-16
3.84141e-13
-1.12561e-15
3.83549e-13
-2.14417e-16
3.8232e-13
-6.55729e-16
3.77927e-13
-2.69022e-15
3.74452e-13
-2.21173e-15
3.78257e-13
2.10743e-15
3.82755e-15
-2.38633e-13
-3.9158e-13
-8.22892e-13
-5.13668e-13
2.055e-12
1.6943e-12
-7.64435e-13
2.983e-14
-1.37822e-12
-2.67995e-12
-1.88476e-12
-1.00534e-12
-6.65108e-13
-2.94e-13
-8.39859e-14
3.08202e-14
9.26587e-14
1.25852e-13
1.36398e-13
1.33908e-13
1.32417e-13
1.32403e-13
1.33712e-13
1.37359e-13
1.4333e-13
1.48702e-13
1.51659e-13
1.52561e-13
1.52093e-13
1.51378e-13
1.50838e-13
1.50278e-13
1.49813e-13
1.50388e-13
1.42886e-13
1.44266e-13
1.46686e-13
1.47246e-13
1.4612e-13
1.45906e-13
1.4525e-13
1.4256e-13
1.40348e-13
1.42455e-13
)
;

boundaryField
{
    AirInlet
    {
        type            calculated;
        value           nonuniform List<scalar> 5(-2e-13 -2e-13 -2e-13 -2e-13 -2e-13);
    }
    WaterInlet
    {
        type            calculated;
        value           nonuniform List<scalar> 10(-5e-13 -5e-13 -5e-13 -5e-13 -5e-13 -5e-13 -5e-13 -5e-13 -5e-13 -5e-13);
    }
    ChannelWall
    {
        type            calculated;
        value           uniform 0;
    }
    Outlet
    {
        type            calculated;
        value           nonuniform List<scalar> 
15
(
1.40764e-13
3.73213e-13
5.56068e-13
6.88977e-13
7.71853e-13
1.75868e-13
1.76894e-13
1.77368e-13
1.77294e-13
1.76673e-13
7.80592e-13
7.04044e-13
5.69995e-13
3.84114e-13
1.46283e-13
)
;
    }
    FrontAndBack
    {
        type            empty;
        value           nonuniform 0();
    }
}


// ************************************************************************* //
