/*--------------------------------*- C++ -*----------------------------------*\
| =========                 |                                                 |
| \\      /  F ield         | OpenFOAM: The Open Source CFD Toolbox           |
|  \\    /   O peration     | Version:  2.3.0                                 |
|   \\  /    A nd           | Web:      www.OpenFOAM.org                      |
|    \\/     M anipulation  |                                                 |
\*---------------------------------------------------------------------------*/
FoamFile
{
    version     2.0;
    format      ascii;
    class       volVectorField;
    location    "0.012";
    object      U;
}
// * * * * * * * * * * * * * * * * * * * * * * * * * * * * * * * * * * * * * //

dimensions      [0 1 -1 0 0 0 0];

internalField   nonuniform List<vector> 
725
(
(0.0470998 0.0069418 -4.18382e-31)
(0.0489353 0.00269924 3.11068e-32)
(0.0230126 0.00565236 -1.94976e-31)
(-0.0192489 0.0325733 0)
(-0.425401 0.0228862 4.29845e-30)
(0.0911805 0.0145368 -1.91187e-30)
(0.103805 0.0108576 3.91639e-32)
(0.0801383 0.0195662 -9.58016e-31)
(0.08923 0.0946589 0)
(-0.000699209 0.116634 1.03049e-29)
(0.104119 0.0105407 -4.81128e-31)
(0.121999 0.0147629 -9.17375e-32)
(0.110362 0.0220655 -7.13232e-31)
(0.142561 0.0842934 0)
(0.296808 0.0753657 -5.03486e-30)
(0.0921218 0.00390223 2.44649e-30)
(0.104642 0.013746 -6.19833e-32)
(0.0979561 0.0155183 9.89679e-32)
(0.120819 0.0345943 0)
(0.261685 -0.00630314 -2.96373e-30)
(0.047368 0.00201772 2.55508e-30)
(0.0487727 0.00788497 -1.09264e-31)
(0.0387455 0.00581954 2.0741e-31)
(0.0280045 -0.00264606 6.13541e-31)
(0.0766236 -0.0196911 6.58785e-30)
(-0.0924088 -0.166753 0)
(0.340582 0.00394404 0)
(0.152149 0.0140542 0)
(0.156098 0.00101983 0)
(0.139902 -0.00681525 0)
(0.1221 -0.00302369 0)
(0.162433 0.00458564 0)
(-0.171634 0.0230436 0)
(-0.00627612 -0.0221059 0)
(0.0264091 0.0176814 0)
(-0.00637858 0.00499809 0)
(0.0955164 -0.0100748 0)
(0.0873277 0.00848098 0)
(0.0516303 0.00333939 0)
(0.0504795 0.00369765 0)
(0.0346082 0.00216745 0)
(0.0266764 0.00127756 0)
(0.0218026 0.000662429 0)
(0.0189631 0.000404062 0)
(0.0177777 0.000152678 0)
(0.0173199 0.000114093 0)
(0.0168201 8.73567e-05 0)
(0.0164954 2.84313e-05 0)
(0.0163557 1.99605e-05 0)
(0.0163855 -2.27693e-05 0)
(0.0166116 -3.31624e-05 0)
(0.0168366 -2.20341e-05 0)
(0.0169303 -3.3287e-06 0)
(0.0168595 1.6417e-05 0)
(0.0166943 2.10216e-05 0)
(0.0165392 1.34345e-05 0)
(0.0163718 2.12229e-05 0)
(0.0161757 2.25979e-05 0)
(0.0159685 2.63688e-05 0)
(0.0158095 1.45421e-05 0)
(0.0156568 2.1064e-05 0)
(0.0156108 -7.62624e-06 0)
(0.0157226 -1.29143e-05 0)
(0.0158336 -8.72381e-06 0)
(0.0158687 2.12817e-06 0)
(0.0158463 3.66683e-06 0)
(0.0158486 -2.26008e-06 0)
(0.0158684 -1.25239e-07 0)
(0.0158492 4.0138e-06 0)
(0.0156448 2.24897e-05 0)
(0.119872 -0.304089 0)
(0.0136657 -0.00555303 0)
(0.142827 0.0178669 0)
(0.23404 -0.00215662 0)
(0.246731 -0.0110981 0)
(0.206611 0.00708759 0)
(0.200088 0.157443 0)
(-0.454645 0.0707264 0)
(-0.0790646 -0.157138 0)
(0.0226261 0.0121863 0)
(0.0504404 -0.0140474 0)
(0.194852 -0.0349647 0)
(0.114485 0.0295726 0)
(0.0657771 0.00480142 0)
(0.0771376 0.00839242 0)
(0.0618642 0.00714092 0)
(0.0536833 0.0044646 0)
(0.0481347 0.00269046 0)
(0.0445888 0.00148291 0)
(0.0438005 0.000398901 0)
(0.0438618 0.000295135 0)
(0.0434705 0.000309989 0)
(0.043113 0.000114875 0)
(0.0429238 5.82921e-05 0)
(0.0429484 -0.000139357 0)
(0.0432955 -0.000204179 0)
(0.043663 -0.000136659 0)
(0.0438042 -9.81174e-06 0)
(0.0436518 0.000112761 0)
(0.0433355 0.000148526 0)
(0.043029 0.00012492 0)
(0.0426822 0.000160172 0)
(0.042294 0.000167377 0)
(0.0419102 0.000167033 0)
(0.0416374 0.000113138 0)
(0.0413567 0.000105293 0)
(0.0412809 -4.63525e-05 0)
(0.0415253 -0.000102135 0)
(0.0417821 -6.73049e-05 0)
(0.0418824 -1.67388e-06 0)
(0.0418537 1.22768e-05 0)
(0.0418735 -1.4815e-05 0)
(0.0419268 3.53449e-07 0)
(0.0418849 6.19448e-05 0)
(0.0414727 0.000121481 0)
(0.275271 -0.146641 0)
(-0.0537871 -0.0458721 0)
(0.195359 -0.0700569 0)
(0.266658 -0.0447139 0)
(0.28684 -0.0257132 0)
(0.215714 0.118482 0)
(-0.537934 0.244493 0)
(-0.706979 0.165649 0)
(-0.138611 -0.327614 0)
(0.179941 -0.0437734 0)
(0.182631 -0.0718432 0)
(0.25448 -0.00715679 0)
(0.156266 0.0774436 0)
(0.0745697 0.0102725 0)
(0.0914227 0.0111277 0)
(0.0778666 0.0108523 0)
(0.0702499 0.00684506 0)
(0.0659638 0.00447743 0)
(0.0637569 0.00216734 0)
(0.0642877 0.000296494 0)
(0.0650533 0.000290449 0)
(0.0648097 0.000474423 0)
(0.0643264 0.000178791 0)
(0.0638827 0.000159708 0)
(0.0635906 -0.000215799 0)
(0.0636534 -0.000359362 0)
(0.0638431 -0.000246468 0)
(0.0639055 -4.71731e-06 0)
(0.0637403 0.000239939 0)
(0.0634548 0.00031214 0)
(0.0631863 0.00026753 0)
(0.0628316 0.000349378 0)
(0.0624282 0.000352584 0)
(0.0620612 0.000338695 0)
(0.0618395 0.000235112 0)
(0.0615471 0.000210222 0)
(0.0614466 -9.93208e-05 0)
(0.0617361 -0.000241175 0)
(0.0620865 -0.000167604 0)
(0.0622504 -2.16672e-05 0)
(0.0622202 1.60799e-05 0)
(0.0622567 -3.99075e-05 0)
(0.0623518 -5.90338e-06 0)
(0.0623177 0.000148475 0)
(0.0617905 0.000262953 0)
(0.306071 -0.124736 0)
(0.27763 -0.011548 0)
(0.283914 -0.0445396 0)
(0.286183 -0.0559811 0)
(0.269493 0.0160708 0)
(0.206038 0.423909 0)
(-1.08799 0.174456 0)
(-0.745438 0.256983 0)
(-0.0749448 -0.580694 0)
(0.590868 -0.174914 0)
(0.197876 -0.0430006 0)
(0.0649069 -0.0158219 0)
(0.145711 0.111606 0)
(0.0775796 0.0154844 0)
(0.101331 0.0129714 0)
(0.0897728 0.0143588 0)
(0.0813958 0.00923316 0)
(0.0769953 0.00599206 0)
(0.0764895 0.00195424 0)
(0.0787811 -0.000522236 0)
(0.0806081 4.78754e-05 0)
(0.0808776 0.000751342 0)
(0.0802456 0.00048195 0)
(0.0793138 0.000504361 0)
(0.0783801 -0.000140463 0)
(0.077689 -0.000335414 0)
(0.0773664 -0.000245743 0)
(0.0772176 3.56525e-05 0)
(0.0771148 0.000329143 0)
(0.0770873 0.0003985 0)
(0.0770249 0.000378739 0)
(0.0767905 0.00050701 0)
(0.0765462 0.000497848 0)
(0.076383 0.00045976 0)
(0.0764149 0.000331108 0)
(0.0762433 0.000309604 0)
(0.0761057 -0.000158995 0)
(0.076337 -0.000364253 0)
(0.0767524 -0.000340442 0)
(0.0770006 -4.105e-05 0)
(0.07695 1.9989e-05 0)
(0.0770004 -7.92633e-05 0)
(0.077152 -3.04487e-05 0)
(0.0771516 0.000246975 0)
(0.0765592 0.000431576 0)
(-0.262132 -0.110876 0)
(-0.198672 -0.0534784 0)
(0.0692102 -0.122666 0)
(0.228955 -0.0937452 0)
(0.0946237 -0.0244348 0)
(0.128111 0.583978 0)
(1.56722 0.196207 0)
(0.0176943 0.538119 0)
(-0.164444 -0.855011 0)
(-0.888053 -0.391644 0)
(0.231673 0.169094 0)
(-0.0324453 -0.0299819 0)
(0.16887 0.119835 0)
(0.0894911 0.0170431 0)
(0.107323 0.014977 0)
(0.09499 0.017731 0)
(0.0863879 0.0125015 0)
(0.08313 0.0068659 0)
(0.084719 0.00105812 0)
(0.0865493 -0.00158245 0)
(0.0879265 -0.000597366 0)
(0.0890697 0.000531759 0)
(0.0894075 0.000824401 0)
(0.088971 0.00103262 0)
(0.0875042 0.000515275 0)
(0.0854988 0.000103971 0)
(0.0843321 -2.88187e-05 0)
(0.0839199 0.000113454 0)
(0.0839796 0.000301779 0)
(0.0842772 0.000332805 0)
(0.0844862 0.000433154 0)
(0.0844928 0.000621204 0)
(0.0845438 0.000599283 0)
(0.0848062 0.000368977 0)
(0.0854128 0.000187464 0)
(0.0855562 0.000452668 0)
(0.0852687 -0.000218973 0)
(0.0854005 -0.000509612 0)
(0.0858111 -0.000547124 0)
(0.086008 -5.73498e-05 0)
(0.0859672 1.87759e-05 0)
(0.0860728 -0.000140374 0)
(0.0863018 -8.50182e-05 0)
(0.0863557 0.000343361 0)
(0.0857678 0.000610973 0)
(0.0644665 -0.0170268 0)
(0.147859 -0.126929 0)
(0.229374 -0.17004 0)
(0.162881 -0.0564913 0)
(-0.364122 0.0583286 0)
(-0.394104 0.392937 0)
(1.36043 0.256865 0)
(1.75349 0.478854 0)
(0.0365396 -0.533255 0)
(-4.72089 -0.142149 0)
(0.191165 -0.273793 0)
(-0.184766 -0.0409892 0)
(0.17374 0.103349 0)
(0.0995527 0.0206988 0)
(0.105157 0.0178461 0)
(0.0912317 0.0202555 0)
(0.0854278 0.0139407 0)
(0.0842439 0.00676421 0)
(0.0866425 0.000576542 0)
(0.0875937 -0.00182244 0)
(0.088217 -0.000875697 0)
(0.0891551 0.000250395 0)
(0.0898345 0.000745852 0)
(0.0902267 0.00117572 0)
(0.0890689 0.00109009 0)
(0.0865696 0.000647617 0)
(0.0849399 0.000257277 0)
(0.0843649 0.000176428 0)
(0.084477 0.000227053 0)
(0.084886 0.000217218 0)
(0.0853308 0.000335952 0)
(0.0857789 0.000513169 0)
(0.0864429 0.000463416 0)
(0.0871255 0.000179236 0)
(0.0878402 2.19344e-05 0)
(0.0880691 0.000498161 0)
(0.0877584 -0.000179338 0)
(0.0876958 -0.000546692 0)
(0.0878941 -0.000611005 0)
(0.0879993 -6.45028e-05 0)
(0.0879628 3.73659e-06 0)
(0.0881211 -0.000195921 0)
(0.0883918 -0.000134364 0)
(0.08848 0.000402082 0)
(0.0879391 0.000697106 0)
(-0.131745 -0.0386732 0)
(0.189014 -0.14239 0)
(0.259788 -0.167666 0)
(0.145958 -0.0300691 0)
(-0.379832 0.106564 0)
(-0.751679 0.224561 0)
(0.790983 0.122031 0)
(1.25774 0.72684 0)
(0.134417 -0.46216 0)
(-4.34598 0.24819 0)
(-0.0084347 -0.655 0)
(-0.325347 -0.0632166 0)
(0.161941 0.0911854 0)
(0.103213 0.0227454 0)
(0.103061 0.0188057 0)
(0.0891207 0.0211475 0)
(0.084682 0.0142687 0)
(0.084411 0.00665884 0)
(0.0870889 0.000409644 0)
(0.0877239 -0.00188164 0)
(0.0881063 -0.000949362 0)
(0.0889938 0.000166177 0)
(0.0897556 0.000688151 0)
(0.0903646 0.00119964 0)
(0.0893146 0.00128333 0)
(0.0867019 0.000861354 0)
(0.0849526 0.000371115 0)
(0.0843396 0.000200141 0)
(0.0844798 0.00019756 0)
(0.0849592 0.000169465 0)
(0.0855339 0.000282852 0)
(0.0861776 0.00044906 0)
(0.0870206 0.00038901 0)
(0.0877556 0.000108498 0)
(0.0884506 -3.04813e-05 0)
(0.0887338 0.00050901 0)
(0.0883962 -0.000162621 0)
(0.0882091 -0.000546227 0)
(0.0883432 -0.00062621 0)
(0.0884268 -6.68382e-05 0)
(0.0884017 -3.47111e-06 0)
(0.0885829 -0.000217838 0)
(0.0888711 -0.000153363 0)
(0.0889712 0.000423278 0)
(0.0884511 0.000725069 0)
(1.11954 -0.0815984 0)
(0.272676 -0.103653 0)
(0.230946 -0.160404 0)
(0.131203 -0.00916305 0)
(-0.0482938 0.146916 0)
(-0.366923 0.135114 0)
(1.86326 -0.0229987 0)
(0.0151644 0.787979 0)
(0.257741 -0.50464 0)
(2.73395 0.36398 0)
(0.105234 -0.707879 0)
(-0.290536 -0.0832472 0)
(0.159297 0.0736551 0)
(0.107315 0.0251053 0)
(0.0994908 0.0199275 0)
(0.0864537 0.0219416 0)
(0.0837636 0.0144488 0)
(0.0843328 0.00648767 0)
(0.0870982 0.00024649 0)
(0.0875292 -0.00191847 0)
(0.0877822 -0.00100837 0)
(0.0886468 8.40738e-05 0)
(0.0895052 0.000614599 0)
(0.0902596 0.00120589 0)
(0.0892516 0.0014796 0)
(0.0865138 0.00109254 0)
(0.0846058 0.000494726 0)
(0.0839308 0.000224704 0)
(0.0841054 0.000162244 0)
(0.0846827 0.00010969 0)
(0.0854137 0.000211137 0)
(0.0862554 0.000363106 0)
(0.0872616 0.000300909 0)
(0.0880638 3.60277e-05 0)
(0.0887554 -8.30144e-05 0)
(0.0891089 0.000513275 0)
(0.0887806 -0.000137378 0)
(0.0884734 -0.000535407 0)
(0.0885104 -0.000634698 0)
(0.0885391 -6.72e-05 0)
(0.0885168 -1.28306e-05 0)
(0.0887389 -0.000243011 0)
(0.0890637 -0.000174127 0)
(0.0891806 0.000443086 0)
(0.0886879 0.00075105 0)
(0.0292176 -0.12438 0)
(0.208322 -0.0565904 0)
(0.195784 -0.151474 0)
(0.102162 -0.00239064 0)
(0.20984 0.162319 0)
(-0.195581 0.0467076 0)
(1.90513 0.029659 0)
(-0.131303 0.774763 0)
(0.436603 -0.577719 0)
(7.83518 0.123107 0)
(0.690617 -0.342697 0)
(0.112898 -0.0607885 0)
(0.206213 0.0597959 0)
(0.111788 0.0284976 0)
(0.0946432 0.0213634 0)
(0.0837432 0.0225549 0)
(0.0833616 0.0144998 0)
(0.0844711 0.00630356 0)
(0.0868216 0.000100239 0)
(0.0870303 -0.00194154 0)
(0.08718 -0.00105967 0)
(0.0879994 -4.47294e-07 0)
(0.0888852 0.000533899 0)
(0.0896044 0.0012065 0)
(0.0888019 0.00166085 0)
(0.0864965 0.00131745 0)
(0.0847645 0.000621175 0)
(0.0841069 0.000249253 0)
(0.0842856 0.000123292 0)
(0.0848523 4.30025e-05 0)
(0.0855786 0.000129926 0)
(0.0864155 0.000268564 0)
(0.0873835 0.000209802 0)
(0.088136 -3.57546e-05 0)
(0.0887735 -0.000136121 0)
(0.0891586 0.000513053 0)
(0.0888395 -0.000106324 0)
(0.0884374 -0.000514624 0)
(0.0883888 -0.000636234 0)
(0.0883852 -6.53119e-05 0)
(0.0883858 -2.49372e-05 0)
(0.0886324 -0.00027159 0)
(0.0889772 -0.000197067 0)
(0.0891094 0.000460622 0)
(0.0886509 0.000775501 0)
(0.418435 -0.168378 0)
(0.220098 -0.0428851 0)
(0.121991 -0.143773 0)
(0.0516548 -0.00412052 0)
(0.161526 0.173435 0)
(-0.462083 -0.00915193 0)
(0.501935 0.1165 0)
(0.112172 0.777656 0)
(0.527686 -0.657178 0)
(3.80793 -0.220061 0)
(0.524759 0.122046 0)
(0.236682 -0.0109015 0)
(0.234453 0.0562565 0)
(0.112174 0.0329852 0)
(0.0910658 0.0230388 0)
(0.0821938 0.0229437 0)
(0.0830422 0.0144323 0)
(0.0844697 0.00612616 0)
(0.0863876 -5.48297e-06 0)
(0.0862859 -0.00194866 0)
(0.0863339 -0.00110539 0)
(0.0871128 -8.78443e-05 0)
(0.0879836 0.000453495 0)
(0.0886491 0.00120361 0)
(0.0880885 0.00179798 0)
(0.0863301 0.00149848 0)
(0.0849652 0.000731312 0)
(0.0844303 0.000270526 0)
(0.0845901 8.78061e-05 0)
(0.0850647 -1.7006e-05 0)
(0.0856778 5.55332e-05 0)
(0.0863994 0.000183272 0)
(0.0872522 0.000127065 0)
(0.087929 -0.000101838 0)
(0.0884976 -0.000186307 0)
(0.0888838 0.000511802 0)
(0.0885759 -7.12972e-05 0)
(0.0881053 -0.00048508 0)
(0.0879786 -0.000632767 0)
(0.087957 -6.45027e-05 0)
(0.0879887 -3.95521e-05 0)
(0.0882492 -0.00030191 0)
(0.0886082 -0.00022293 0)
(0.0887563 0.000475104 0)
(0.0883409 0.000799157 0)
(0.0457981 -0.00166484 0)
(0.0515219 -0.00871854 -3.44758e-32)
(0.0366426 -0.00652007 -3.5794e-31)
(0.0493843 -0.00748909 -1.98411e-30)
(0.0987037 -0.0157571 0)
(0.0886218 -0.00346253 0)
(0.109975 -0.0150756 0)
(0.0865382 -0.0166458 0)
(0.137658 -0.0457102 -1.71019e-30)
(0.226546 -0.0500534 0)
(0.0999099 -0.0101807 0)
(0.128056 -0.0155319 0)
(0.0954107 -0.0225714 0)
(0.149109 -0.0853824 3.05242e-31)
(0.273045 -0.110418 0)
(0.0874891 -0.0143601 0)
(0.108913 -0.0108691 0)
(0.0677604 -0.0194084 0)
(0.0887001 -0.0874556 -1.45785e-30)
(-0.0379532 -0.123128 0)
(0.0453385 -0.00701068 0)
(0.0513893 -0.00248109 0)
(0.0197675 -0.00528263 0)
(-0.0126764 -0.028061 -8.46288e-31)
(-0.369855 -0.0317531 0)
(-0.0703532 -0.0440917 0)
(-0.118199 -0.045151 0)
(-0.0476696 -0.143411 0)
(-0.0657719 0.00679658 0)
(-0.154232 0.248934 0)
(-0.57367 0.0268881 0)
(-0.50858 -0.161728 0)
(0.389247 0.683022 0)
(0.583785 -0.717779 0)
(0.385126 -0.423723 0)
(-0.0413692 0.279669 0)
(0.105787 -0.00618903 0)
(0.148786 0.0496247 0)
(0.104661 0.0437156 0)
(0.0808406 0.0284425 0)
(0.0772955 0.0234408 0)
(0.0813984 0.0139672 0)
(0.0836329 0.00559793 0)
(0.0844254 -0.000117522 0)
(0.0835905 -0.00191703 0)
(0.083375 -0.00124432 0)
(0.0840866 -0.000368361 0)
(0.0848492 0.000241074 0)
(0.0853355 0.00117785 0)
(0.0853884 0.00204991 0)
(0.085 0.00184803 0)
(0.0845963 0.000964826 0)
(0.0844195 0.000316675 0)
(0.0845525 9.16391e-06 0)
(0.0848062 -0.000144545 0)
(0.0851293 -0.000113503 0)
(0.0855435 -7.72744e-06 0)
(0.0860515 -6.99122e-05 0)
(0.0864486 -0.00026168 0)
(0.086824 -0.000312941 0)
(0.0872243 0.000514971 0)
(0.0869707 3.54182e-05 0)
(0.0863808 -0.000375 0)
(0.086077 -0.000617671 0)
(0.0860738 -8.22572e-05 0)
(0.0861882 -8.15052e-05 0)
(0.0864257 -0.000391324 0)
(0.08681 -0.000312301 0)
(0.0870074 0.000501249 0)
(0.0867408 0.000871409 0)
(0.318325 -0.0884424 0)
(0.246244 -0.0620323 0)
(0.0535956 -0.0962558 0)
(-0.130586 0.0339862 0)
(-0.134155 0.359241 0)
(-0.212673 0.206781 0)
(0.346308 -0.534979 0)
(0.387447 0.291925 0)
(0.487152 -0.466281 0)
(-0.238594 -0.162566 0)
(-0.0702201 0.247822 0)
(-0.00435116 -0.0484759 0)
(0.0557267 0.0422363 0)
(0.051023 0.0519038 0)
(0.0553027 0.0346945 0)
(0.0641819 0.0212425 0)
(0.0728958 0.0118391 0)
(0.0765401 0.00500229 0)
(0.0767881 0.000228231 0)
(0.0758596 -0.00163963 0)
(0.0753299 -0.00126989 0)
(0.0751079 -0.000547331 0)
(0.0750053 0.000149837 0)
(0.0752485 0.00102762 0)
(0.076003 0.00178206 0)
(0.0768926 0.00163042 0)
(0.077461 0.000894265 0)
(0.0776763 0.000273782 0)
(0.0777694 -4.21767e-05 0)
(0.0778199 -0.000193336 0)
(0.0778536 -0.000197718 0)
(0.0779496 -8.6727e-05 0)
(0.0780677 -0.000178261 0)
(0.077956 -0.00032727 0)
(0.0780649 -0.000518228 0)
(0.0787415 0.000419714 0)
(0.0788207 0.0002146 0)
(0.0783714 -0.000140551 0)
(0.0778769 -0.000471806 0)
(0.0776026 -0.000110881 0)
(0.0776247 -0.0001272 0)
(0.0777215 -0.0005317 0)
(0.0778254 -0.000458365 0)
(0.0778571 0.000514076 0)
(0.078219 0.000873559 0)
(0.130464 -0.0255213 0)
(-0.237913 -0.0341704 0)
(-0.1483 -0.0184082 0)
(-0.179302 0.0583498 0)
(-0.0357974 0.311459 0)
(0.244267 -0.0886799 0)
(0.150783 -0.270219 0)
(0.144038 0.171332 0)
(0.297103 -0.224237 0)
(-0.456541 -0.132699 0)
(0.231679 0.203318 0)
(0.030413 -0.0277113 0)
(0.00329142 0.0282595 0)
(0.00586232 0.0445821 0)
(0.0300849 0.0290695 0)
(0.0468106 0.0157258 0)
(0.0575788 0.00851837 0)
(0.063005 0.00407096 0)
(0.0638782 0.000466399 0)
(0.0624041 -0.0011523 0)
(0.0608777 -0.000808445 0)
(0.0599838 -0.000267612 0)
(0.0597396 0.000187152 0)
(0.0601668 0.000735225 0)
(0.0613508 0.00121288 0)
(0.0627853 0.00110274 0)
(0.0637727 0.000611441 0)
(0.064173 0.000185154 0)
(0.0642553 -6.3977e-05 0)
(0.06417 -0.000155958 0)
(0.0639727 -0.000146817 0)
(0.0638878 -9.37828e-05 0)
(0.0638199 -0.000125884 0)
(0.0634767 -6.87218e-05 0)
(0.0632601 -0.000843614 0)
(0.0637322 0.000243095 0)
(0.063927 0.000298348 0)
(0.0637256 8.76848e-06 0)
(0.0633487 -0.000244817 0)
(0.0631011 -5.74858e-05 0)
(0.0630959 -0.000119071 0)
(0.0628607 -0.000477581 0)
(0.0624052 -0.000389708 0)
(0.0623848 0.000420293 0)
(0.0633212 0.000641538 0)
(0.0325565 0.183912 0)
(-0.110533 -0.0111749 0)
(-0.163654 -0.0355168 0)
(-0.153826 0.0230228 0)
(-0.0207684 0.187651 0)
(0.266764 -0.0688407 0)
(-0.195067 -0.176055 0)
(-0.166054 0.0892966 0)
(0.132621 -0.102262 0)
(-0.2515 -0.098149 0)
(-0.0621762 0.0381205 0)
(-0.0555381 0.0559037 0)
(-0.0932522 0.0282042 0)
(-0.0351712 0.0297838 0)
(0.00430874 0.0174265 0)
(0.0239909 0.00916616 0)
(0.0348499 0.00492018 0)
(0.0407706 0.00261427 0)
(0.0425377 0.00068604 0)
(0.0414835 -0.000348747 0)
(0.0401823 -0.000201642 0)
(0.0396235 -2.87936e-05 0)
(0.0395864 0.000119252 0)
(0.0400874 0.00034669 0)
(0.0412401 0.000559345 0)
(0.0426052 0.000503271 0)
(0.0435489 0.000277527 0)
(0.043939 8.41409e-05 0)
(0.0439639 -4.85407e-05 0)
(0.0438198 -6.94095e-05 0)
(0.0436415 -5.18246e-05 0)
(0.0435237 -5.90818e-05 0)
(0.0434135 -4.16322e-05 0)
(0.0433935 7.05504e-05 0)
(0.0427021 -0.000688491 0)
(0.0423643 0.000127361 0)
(0.0427924 0.000221405 0)
(0.0429733 4.66573e-05 0)
(0.0427955 -9.93928e-05 0)
(0.0426294 -2.1232e-05 0)
(0.0425987 -6.52545e-05 0)
(0.0422608 -0.000246702 0)
(0.041701 -0.00019627 0)
(0.0416638 0.000200079 0)
(0.0426669 0.000333461 0)
(-0.170111 0.0968989 0)
(0.0741408 0.00104664 0)
(-0.123241 -0.00546997 0)
(-0.0964144 0.00387001 0)
(0.0275399 0.0563583 0)
(0.301071 0.00104069 0)
(0.0714632 0.0794793 0)
(-0.118809 0.0161444 0)
(0.0113617 -0.0299807 0)
(-0.332118 -0.00485338 0)
(-0.241777 0.0346986 0)
(-0.0686336 0.0144777 0)
(-0.115253 0.00689301 0)
(-0.0505202 0.00815063 0)
(-0.0185364 0.00434368 0)
(-0.00175513 0.00242768 0)
(0.0073702 0.00130826 0)
(0.0124505 0.000745954 0)
(0.0147845 0.000319118 0)
(0.0150179 4.70273e-05 0)
(0.0147139 3.8015e-05 0)
(0.0146513 2.72518e-05 0)
(0.014728 2.45223e-05 0)
(0.0150036 4.63283e-05 0)
(0.0155806 7.86466e-05 0)
(0.0162617 6.93432e-05 0)
(0.0167334 3.68503e-05 0)
(0.0169313 1.15186e-05 0)
(0.0169388 -8.21577e-06 0)
(0.0168619 -8.83752e-06 0)
(0.0167854 -4.37546e-06 0)
(0.0167288 -6.96188e-06 0)
(0.016668 -8.1859e-06 0)
(0.0167464 2.07675e-05 0)
(0.0162597 -0.000150519 0)
(0.0158783 3.54447e-05 0)
(0.0161795 4.2605e-05 0)
(0.0163564 1.19805e-05 0)
(0.0162977 -1.9427e-05 0)
(0.0162191 7.33343e-07 0)
(0.0162013 -5.72689e-06 0)
(0.0159998 -4.21449e-05 0)
(0.0156683 -3.87525e-05 0)
(0.0156376 2.73201e-05 0)
(0.0162398 6.63052e-05 0)
)
;

boundaryField
{
    AirInlet
    {
        type            fixedValue;
        value           uniform (0.1 0 0);
    }
    WaterInlet
    {
        type            fixedValue;
        value           uniform (0.1 0 0);
    }
    ChannelWall
    {
        type            fixedValue;
        value           uniform (0 0 0);
    }
    Outlet
    {
        type            pressureInletOutletVelocity;
        value           nonuniform List<vector> 
15
(
(0.0156448 2.24897e-05 0)
(0.0414727 0.000121481 0)
(0.0617905 0.000262953 0)
(0.0765592 0.000431576 0)
(0.0857678 0.000610973 0)
(0.0879391 0.000697106 0)
(0.0884511 0.000725069 0)
(0.0886879 0.00075105 0)
(0.0886509 0.000775501 0)
(0.0883409 0.000799157 0)
(0.0867408 0.000871409 0)
(0.078219 0.000873559 0)
(0.0633212 0.000641538 0)
(0.0426669 0.000333461 0)
(0.0162398 6.63052e-05 0)
)
;
    }
    FrontAndBack
    {
        type            empty;
    }
}


// ************************************************************************* //
