/*--------------------------------*- C++ -*----------------------------------*\
| =========                 |                                                 |
| \\      /  F ield         | OpenFOAM: The Open Source CFD Toolbox           |
|  \\    /   O peration     | Version:  2.3.0                                 |
|   \\  /    A nd           | Web:      www.OpenFOAM.org                      |
|    \\/     M anipulation  |                                                 |
\*---------------------------------------------------------------------------*/
FoamFile
{
    version     2.0;
    format      ascii;
    class       volVectorField;
    location    "0.012";
    object      U;
}
// * * * * * * * * * * * * * * * * * * * * * * * * * * * * * * * * * * * * * //

dimensions      [0 1 -1 0 0 0 0];

internalField   nonuniform List<vector> 
725
(
(0.218406 0.025486 -1.68594e-30)
(0.200583 0.00878142 3.38664e-31)
(0.172409 -0.000980961 2.61185e-31)
(0.15969 -0.010871 0)
(0.359463 -0.066597 5.18354e-31)
(0.380602 0.0526968 -7.81149e-30)
(0.410431 0.0346684 1.76394e-30)
(0.376655 0.0122326 1.59935e-30)
(0.340519 -0.0201763 0)
(0.422553 -0.213385 5.12184e-30)
(0.417347 0.0372283 -3.2079e-30)
(0.467514 0.0430164 5.40385e-31)
(0.432173 0.0268121 1.81257e-30)
(0.343275 0.0121296 0)
(0.237733 -0.222199 1.34795e-29)
(0.375976 0.0161378 5.23813e-30)
(0.392442 0.0406488 1.1367e-31)
(0.348742 0.0340664 1.65902e-30)
(0.230903 0.0504967 0)
(0.210019 -0.131231 5.32695e-29)
(0.210507 0.0103516 6.46932e-30)
(0.178771 0.0273007 -4.89326e-31)
(0.146741 0.0247172 2.86983e-31)
(0.0392303 0.0171768 -3.40641e-31)
(0.109453 -0.0464719 2.1834e-29)
(0.698978 -0.0265206 0)
(0.54365 0.0893638 0)
(0.166744 0.0147238 0)
(0.283702 -0.0226559 0)
(0.369149 0.0300094 0)
(0.229631 0.0210892 0)
(0.132169 -0.00244595 0)
(0.14527 4.55518e-05 0)
(0.0667507 0.0177886 0)
(0.00705898 -0.00638258 0)
(0.0628313 -0.00729592 0)
(0.137426 -0.0092701 0)
(0.13835 0.0112136 0)
(0.0767289 0.000424125 0)
(0.0926172 -0.0101672 0)
(0.170618 -0.0194378 0)
(0.216176 0.00398669 0)
(0.141823 0.0151054 0)
(0.122608 -0.00958496 0)
(0.193352 -0.014191 0)
(0.175677 0.0126247 0)
(0.10369 0.012204 0)
(0.0646747 0.00428567 0)
(0.0324269 0.00262757 0)
(0.044491 -0.000350449 0)
(-0.0102685 0.00289627 0)
(0.0342092 -0.0130353 0)
(0.135358 -0.00100883 0)
(0.114868 0.00433437 0)
(0.119639 -0.00387034 0)
(0.143396 2.21347e-06 0)
(0.129462 0.00618077 0)
(0.107872 0.00127454 0)
(0.0962413 0.00148236 0)
(0.0781184 0.0017545 0)
(0.0612829 0.000960576 0)
(0.0529076 0.000288485 0)
(0.0508397 -4.89763e-05 0)
(0.0514593 -0.000164832 0)
(0.0525209 -9.01305e-05 0)
(0.0531013 -7.2069e-05 0)
(0.053085 0.00010252 0)
(0.0533098 -0.000169674 0)
(0.0533133 8.15434e-05 0)
(0.050878 0.000253244 0)
(0.768159 -0.183043 0)
(0.796279 0.283879 0)
(0.381804 0.129293 0)
(0.477914 -0.152541 0)
(0.640396 0.0433513 0)
(0.504613 0.0833502 0)
(0.363657 0.0223795 0)
(0.367481 0.0228404 0)
(0.253139 0.0795271 0)
(0.143817 -0.0157796 0)
(0.188054 -0.0362346 0)
(0.282292 -0.0485225 0)
(0.300168 0.0397827 0)
(0.200601 0.0177653 0)
(0.192003 -0.0290397 0)
(0.216025 -0.0467037 0)
(0.226579 0.0104695 0)
(0.199149 0.0409476 0)
(0.226185 -0.0280244 0)
(0.258534 -0.020913 0)
(0.208857 0.0435766 0)
(0.167296 0.0394157 0)
(0.145077 0.0198803 0)
(0.0990355 0.0145431 0)
(0.102751 0.00939281 0)
(-6.73578e-05 0.0125332 0)
(0.0779399 -0.0679663 0)
(0.248997 -0.024702 0)
(0.24975 0.00916411 0)
(0.261418 -0.0194996 0)
(0.302075 -0.00730043 0)
(0.289114 0.0213537 0)
(0.261018 0.00922962 0)
(0.244183 0.0128732 0)
(0.208208 0.0160295 0)
(0.168034 0.0111014 0)
(0.144987 0.004467 0)
(0.137802 0.000554988 0)
(0.137918 -0.000749557 0)
(0.139735 -0.000707688 0)
(0.140642 -0.000223836 0)
(0.140758 0.000162106 0)
(0.140898 -0.00036141 0)
(0.140201 0.000791088 0)
(0.136082 0.00136975 0)
(0.0772126 -0.281134 0)
(0.401814 0.3172 0)
(0.568393 0.238829 0)
(0.544043 -0.285935 0)
(0.632757 0.0581869 0)
(0.479761 0.13775 0)
(0.392298 0.0407961 0)
(0.51609 0.037215 0)
(0.454679 0.170034 0)
(0.300895 -0.0169699 0)
(0.284478 -0.0422532 0)
(0.282076 -0.0825737 0)
(0.320216 0.0695036 0)
(0.244825 0.0377146 0)
(0.242177 -0.0273621 0)
(0.228625 -0.0330982 0)
(0.195239 0.0065332 0)
(0.193062 0.0390811 0)
(0.245136 -0.0539774 0)
(0.296997 -0.0167793 0)
(0.261405 0.0713964 0)
(0.230587 0.050405 0)
(0.210657 0.0278544 0)
(0.164172 0.0310245 0)
(0.158077 0.0273876 0)
(0.0247809 0.0304679 0)
(0.103938 -0.14062 0)
(0.312872 -0.0650479 0)
(0.342238 0.00787247 0)
(0.361399 -0.0412594 0)
(0.397316 -0.015276 0)
(0.367438 0.0392227 0)
(0.333756 0.0125727 0)
(0.33254 0.024436 0)
(0.302128 0.0355025 0)
(0.254622 0.0285138 0)
(0.221834 0.0135578 0)
(0.209176 0.00285971 0)
(0.207716 -0.00110477 0)
(0.209333 -0.00142792 0)
(0.210173 -0.000369873 0)
(0.210389 0.000122694 0)
(0.209893 -2.29113e-05 0)
(0.208322 0.0016969 0)
(0.205242 0.0024216 0)
(0.109195 -0.387779 0)
(0.422481 0.14361 0)
(0.536832 0.324443 0)
(0.170463 -0.339933 0)
(0.0895523 0.178978 0)
(0.115065 0.144002 0)
(0.2214 -0.0134572 0)
(0.504886 -0.0433833 0)
(0.525438 0.261332 0)
(0.401327 0.00406546 0)
(0.347231 0.00711628 0)
(0.155613 -0.102533 0)
(0.23733 0.0920315 0)
(0.240078 0.0325542 0)
(0.293479 -0.0283011 0)
(0.273547 -0.00768685 0)
(0.150964 0.0145369 0)
(0.139636 0.0287943 0)
(0.219169 -0.0830122 0)
(0.299141 -0.0353733 0)
(0.344439 0.076071 0)
(0.319093 0.0760876 0)
(0.2654 0.0372442 0)
(0.219914 0.0490261 0)
(0.213319 0.0508853 0)
(0.0567348 0.0576967 0)
(0.123828 -0.222318 0)
(0.336601 -0.126489 0)
(0.404731 0.00655124 0)
(0.43126 -0.0619699 0)
(0.44573 -0.0189515 0)
(0.373566 0.0740133 0)
(0.333225 0.0153489 0)
(0.362679 0.0301795 0)
(0.352372 0.0506075 0)
(0.312448 0.0468004 0)
(0.27856 0.0253904 0)
(0.263302 0.00681811 0)
(0.260329 -0.000931708 0)
(0.261311 -0.00193976 0)
(0.261919 -0.000558601 0)
(0.261957 0.000149641 0)
(0.261009 0.000766971 0)
(0.258744 0.0026866 0)
(0.257158 0.0030173 0)
(-0.0794446 -0.700638 0)
(0.702346 0.141298 0)
(-0.194941 0.413435 0)
(-0.204761 -0.413368 0)
(-0.214986 0.239234 0)
(-0.0439369 0.0403014 0)
(0.250175 -0.13005 0)
(0.464547 -0.189188 0)
(0.482642 0.323511 0)
(0.503629 -0.0623162 0)
(0.634294 0.162544 0)
(0.196962 -0.0658206 0)
(0.170798 0.0621784 0)
(0.263602 -0.00120828 0)
(0.408922 -0.0375587 0)
(0.370846 0.0465435 0)
(0.114114 0.064585 0)
(0.0283308 0.016949 0)
(0.102048 -0.135212 0)
(0.263498 -0.0817419 0)
(0.355765 0.0563753 0)
(0.282059 0.116222 0)
(0.24459 0.0495019 0)
(0.25335 0.0677064 0)
(0.266239 0.0776104 0)
(0.0869833 0.0933054 0)
(0.175098 -0.288745 0)
(0.331267 -0.188419 0)
(0.426217 -0.00442621 0)
(0.372488 -0.0750702 0)
(0.274915 0.0103741 0)
(0.244585 0.100071 0)
(0.276428 -0.0101617 0)
(0.345802 0.0242712 0)
(0.359858 0.0566087 0)
(0.338 0.0611517 0)
(0.311402 0.0364282 0)
(0.298056 0.0113859 0)
(0.294935 -0.000334107 0)
(0.295358 -0.00220765 0)
(0.295489 -0.000604002 0)
(0.29502 0.000552579 0)
(0.293644 0.00145229 0)
(0.291006 0.00373828 0)
(0.293173 0.00246615 0)
(-0.339546 -0.867535 0)
(0.445908 0.387292 0)
(-1.017 0.730636 0)
(0.215512 -0.545343 0)
(-0.0338432 0.251145 0)
(0.0797651 -0.0465516 0)
(0.37773 -0.178669 0)
(0.288781 -0.195786 0)
(0.249711 0.371843 0)
(0.225023 -0.164645 0)
(0.65254 0.219141 0)
(0.403285 -0.00310094 0)
(0.124474 0.0820467 0)
(0.220691 -0.0609022 0)
(0.467481 -0.0545708 0)
(0.411826 0.095468 0)
(0.0961323 0.120947 0)
(0.0141238 0.0171614 0)
(0.0360767 -0.16246 0)
(0.16205 -0.120165 0)
(0.283216 0.0557023 0)
(0.138028 0.143439 0)
(0.15574 0.0335662 0)
(0.255309 0.0583705 0)
(0.29614 0.0943581 0)
(0.115755 0.11008 0)
(0.223539 -0.31652 0)
(0.259447 -0.235116 0)
(0.586385 -0.00481613 0)
(0.62632 -0.0275705 0)
(0.197655 0.0219414 0)
(0.234323 0.0969117 0)
(0.25145 -0.0261536 0)
(0.310467 0.0135466 0)
(0.340851 0.0533359 0)
(0.334612 0.065644 0)
(0.316003 0.0406148 0)
(0.306967 0.0131238 0)
(0.304917 -5.84718e-05 0)
(0.304885 -0.0021879 0)
(0.304588 -0.000521234 0)
(0.304448 0.000870801 0)
(0.30245 0.00206536 0)
(0.299334 0.00388462 0)
(0.303109 0.00170952 0)
(-1.02612 -0.85162 0)
(0.474106 0.50198 0)
(-0.266231 0.724966 0)
(0.0794578 -0.560655 0)
(0.0966772 0.256131 0)
(0.187258 -0.0665594 0)
(0.421047 -0.18765 0)
(0.268841 -0.181154 0)
(0.130818 0.377885 0)
(0.12943 -0.187194 0)
(0.621856 0.208337 0)
(0.495175 0.0204772 0)
(0.140137 0.0996369 0)
(0.224908 -0.0831333 0)
(0.469862 -0.0609995 0)
(0.412867 0.113501 0)
(0.0759478 0.143766 0)
(0.0259109 0.0156586 0)
(0.0337037 -0.163195 0)
(0.106138 -0.136063 0)
(0.227305 0.0612512 0)
(0.0545903 0.150493 0)
(0.129605 0.022441 0)
(0.258963 0.05126 0)
(0.30608 0.100529 0)
(0.128547 0.114643 0)
(0.235727 -0.323924 0)
(0.179209 -0.244383 0)
(0.560367 -0.0473015 0)
(0.683945 0.016351 0)
(0.117043 0.0337586 0)
(0.210018 0.0937795 0)
(0.231836 -0.0306187 0)
(0.295223 0.00891773 0)
(0.331682 0.0515622 0)
(0.330953 0.0666952 0)
(0.315948 0.0418161 0)
(0.30906 0.0136162 0)
(0.307575 3.46624e-05 0)
(0.307388 -0.00216399 0)
(0.306928 -0.000488152 0)
(0.306699 0.000970202 0)
(0.304594 0.00233883 0)
(0.301596 0.00385211 0)
(0.305725 0.00147539 0)
(-1.43251 -0.80705 0)
(1.52485 0.397281 0)
(1.1453 0.668178 0)
(-0.266219 -0.531505 0)
(0.113106 0.240119 0)
(0.274985 -0.0848782 0)
(0.44824 -0.187598 0)
(0.254117 -0.15896 0)
(0.00707606 0.380635 0)
(0.207201 -0.218765 0)
(0.653699 0.188615 0)
(0.455354 0.0393104 0)
(0.155701 0.118861 0)
(0.26951 -0.105123 0)
(0.509761 -0.0694586 0)
(0.432813 0.132865 0)
(0.120129 0.164028 0)
(0.108529 0.0132129 0)
(0.0908227 -0.158303 0)
(0.0746696 -0.150173 0)
(0.208212 0.066924 0)
(0.080299 0.154318 0)
(0.15189 0.00977628 0)
(0.261747 0.043426 0)
(0.314735 0.10643 0)
(0.145221 0.119022 0)
(0.24899 -0.327424 0)
(0.0826903 -0.238639 0)
(0.323843 -0.0981901 0)
(0.610592 0.0608373 0)
(0.0150275 0.0499277 0)
(0.185802 0.0872167 0)
(0.217678 -0.035355 0)
(0.280129 0.00388455 0)
(0.320916 0.0494076 0)
(0.325299 0.0673342 0)
(0.314587 0.0427255 0)
(0.31007 0.0139704 0)
(0.309235 0.000106021 0)
(0.308914 -0.00212471 0)
(0.308289 -0.000447624 0)
(0.308022 0.00108184 0)
(0.305868 0.00260919 0)
(0.303014 0.00379003 0)
(0.307267 0.00123836 0)
(-2.02583 -0.847469 0)
(1.45528 0.197531 0)
(1.63669 0.752548 0)
(-0.657975 -0.414489 0)
(-0.130279 0.194403 0)
(0.198712 -0.106834 0)
(0.326373 -0.18605 0)
(0.228171 -0.138313 0)
(-0.0336748 0.383032 0)
(0.290359 -0.264893 0)
(0.644468 0.189506 0)
(0.390448 0.0531737 0)
(0.223754 0.130426 0)
(0.365968 -0.121442 0)
(0.511603 -0.076925 0)
(0.418235 0.154429 0)
(0.170111 0.177152 0)
(0.215297 0.0100855 0)
(0.238417 -0.151765 0)
(0.114616 -0.153274 0)
(0.180791 0.0666065 0)
(0.166543 0.154387 0)
(0.222496 0.00236627 0)
(0.269265 0.0368245 0)
(0.321649 0.111689 0)
(0.166293 0.12347 0)
(0.265613 -0.329848 0)
(0.091437 -0.221462 0)
(0.27861 -0.150453 0)
(0.536077 0.0955386 0)
(-0.0190072 0.0645309 0)
(0.190731 0.0773499 0)
(0.214675 -0.0396369 0)
(0.267436 -0.00108157 0)
(0.3091 0.0468957 0)
(0.31796 0.0675021 0)
(0.311954 0.0432861 0)
(0.310022 0.0141673 0)
(0.30991 0.000148602 0)
(0.30945 -0.00206988 0)
(0.308653 -0.000398314 0)
(0.308415 0.00119282 0)
(0.306338 0.0028719 0)
(0.303713 0.00372191 0)
(0.307748 0.000996922 0)
(-1.83342 -0.83762 0)
(0.692463 -0.000878722 0)
(1.7209 0.887225 0)
(-0.631607 -0.299201 0)
(-0.160731 0.129894 0)
(0.150178 -0.127047 0)
(0.247503 -0.189005 0)
(0.198592 -0.127091 0)
(0.0704289 0.382505 0)
(0.360395 -0.302507 0)
(0.613216 0.197525 0)
(0.343596 0.0661439 0)
(0.217631 0.132447 0)
(0.335059 -0.132965 0)
(0.418678 -0.0815027 0)
(0.371114 0.171999 0)
(0.226252 0.182499 0)
(0.305002 0.00545369 0)
(0.341221 -0.147451 0)
(0.135178 -0.141656 0)
(0.146013 0.0601331 0)
(0.233909 0.149721 0)
(0.270983 0.000605286 0)
(0.277583 0.0325885 0)
(0.326822 0.115871 0)
(0.19227 0.127485 0)
(0.29212 -0.337186 0)
(0.212281 -0.22296 0)
(0.629655 -0.188761 0)
(0.491867 0.132138 0)
(-0.0358626 0.0759079 0)
(0.186377 0.0665539 0)
(0.207446 -0.0429851 0)
(0.255993 -0.00573678 0)
(0.29644 0.0441924 0)
(0.308919 0.0671621 0)
(0.308125 0.0434665 0)
(0.308933 0.0141991 0)
(0.309581 0.000164069 0)
(0.308983 -0.0019988 0)
(0.308011 -0.000340897 0)
(0.307793 0.00128715 0)
(0.305932 0.00312041 0)
(0.30372 0.00365307 0)
(0.307102 0.000793219 0)
(0.210395 -0.0107429 0)
(0.190946 -0.0320016 3.74578e-31)
(0.155052 -0.0354508 1.48341e-30)
(0.26854 -0.102964 5.11312e-30)
(0.60084 -0.294577 0)
(0.374253 -0.0173698 0)
(0.404161 -0.0494828 0)
(0.329325 -0.059898 0)
(0.472822 -0.187523 9.35382e-30)
(0.188575 -0.318814 0)
(0.414326 -0.0387319 0)
(0.474312 -0.052707 0)
(0.38143 -0.053616 0)
(0.522161 -0.166109 1.14829e-29)
(-0.0758099 -0.188198 0)
(0.377001 -0.053811 0)
(0.41211 -0.0412578 0)
(0.296532 -0.0300112 0)
(0.444509 -0.111002 -4.56937e-30)
(-0.249366 -0.0989605 0)
(0.215654 -0.0259279 0)
(0.199451 -0.0099388 0)
(0.0969015 -0.00595305 0)
(0.226664 -0.0275287 -1.42024e-30)
(-0.373754 -0.0288644 0)
(0.0778401 -0.152987 0)
(-2.27069 -0.357265 0)
(0.747601 0.661102 0)
(-0.326511 -0.0613446 0)
(-0.101203 -0.0597978 0)
(0.131705 -0.185055 0)
(0.234918 -0.200443 0)
(-5.5508e-05 -0.100785 0)
(0.213887 0.34532 0)
(0.247141 -0.300456 0)
(0.225191 0.221508 0)
(0.118856 0.120679 0)
(0.00375992 0.106959 0)
(0.161573 -0.163981 0)
(0.218056 -0.0961091 0)
(0.28411 0.193591 0)
(0.30857 0.176696 0)
(0.363673 0.0144615 0)
(0.374474 -0.144655 0)
(0.21864 -0.0913754 0)
(0.167584 0.0322694 0)
(0.303723 0.1264 0)
(0.350713 0.00727416 0)
(0.310671 0.0294592 0)
(0.34216 0.122663 0)
(0.275604 0.138282 0)
(0.371861 -0.358694 0)
(0.400726 -0.449428 0)
(2.05547 -0.138397 0)
(0.544022 0.246346 0)
(-0.013976 0.0976818 0)
(0.190146 0.0355222 0)
(0.190396 -0.0456877 0)
(0.222568 -0.0187765 0)
(0.26047 0.0365955 0)
(0.280769 0.0644008 0)
(0.294456 0.0427799 0)
(0.303105 0.0138392 0)
(0.305877 0.00016172 0)
(0.304848 -0.00174637 0)
(0.303431 -0.000160177 0)
(0.303281 0.00145488 0)
(0.302464 0.00372876 0)
(0.30105 0.00353686 0)
(0.300568 0.000622865 0)
(0.341069 0.634824 0)
(-0.447171 -0.511508 0)
(-0.136724 0.156894 0)
(0.337308 0.174461 0)
(0.40952 -0.0692925 0)
(0.24563 -0.173639 0)
(0.153493 -0.166311 0)
(-0.116824 -0.0779294 0)
(0.198766 0.213354 0)
(0.100696 -0.191843 0)
(-0.0655201 0.187577 0)
(0.110526 0.172265 0)
(0.0247034 0.0884457 0)
(0.111075 -0.181537 0)
(0.0775763 -0.123999 0)
(0.175237 0.135847 0)
(0.308152 0.136093 0)
(0.389604 0.00771075 0)
(0.310541 -0.12172 0)
(0.188159 -0.0259729 0)
(0.195871 0.00749558 0)
(0.275959 0.069167 0)
(0.323707 0.017079 0)
(0.313683 0.0368333 0)
(0.348738 0.107705 0)
(0.379723 0.128741 0)
(0.425288 -0.330401 0)
(0.0545232 -0.959556 0)
(0.995093 0.307083 0)
(0.34738 0.620946 0)
(-0.466169 0.249062 0)
(0.0556126 -0.0327866 0)
(0.163056 -0.0607825 0)
(0.201987 -0.0283207 0)
(0.202564 0.0261038 0)
(0.228121 0.0516838 0)
(0.257064 0.0342121 0)
(0.273803 0.009867 0)
(0.278232 -0.000325151 0)
(0.276539 -0.00101309 0)
(0.274789 0.000169984 0)
(0.274761 0.00129545 0)
(0.275067 0.00425284 0)
(0.274565 0.00348638 0)
(0.274495 0.00162684 0)
(-0.081372 0.873545 0)
(0.250758 -0.316118 0)
(-0.501444 -0.158956 0)
(0.473849 -0.0665272 0)
(0.459619 -0.0681291 0)
(0.256044 -0.0825727 0)
(0.144546 -0.0884488 0)
(-0.0936128 -0.0603357 0)
(0.0893538 0.134956 0)
(0.0231952 -0.102054 0)
(-0.0864903 0.127854 0)
(0.191591 0.150699 0)
(0.21419 0.0677005 0)
(0.231746 -0.157829 0)
(0.0803154 -0.119111 0)
(0.118414 0.0659778 0)
(0.266216 0.0793055 0)
(0.344056 0.00782723 0)
(0.280591 -0.0719446 0)
(0.202831 -0.0243182 0)
(0.20478 0.00199738 0)
(0.232797 0.0367121 0)
(0.262833 0.0146037 0)
(0.277017 0.0295987 0)
(0.324075 0.0752341 0)
(0.422556 0.09812 0)
(0.430962 -0.196355 0)
(-0.203646 -1.09597 0)
(-0.895688 0.299961 0)
(-0.0499851 0.639397 0)
(0.250483 0.339619 0)
(0.0508573 -0.214122 0)
(0.16737 -0.130706 0)
(0.190775 -0.0147448 0)
(0.14075 0.0242925 0)
(0.169157 0.0361976 0)
(0.205341 0.0216491 0)
(0.223459 0.00442815 0)
(0.226774 -0.000551667 0)
(0.224495 8.78519e-05 0)
(0.223057 0.000342008 0)
(0.222998 0.00122883 0)
(0.224672 0.00379822 0)
(0.226052 0.00369825 0)
(0.228874 0.00126164 0)
(0.395386 0.569122 0)
(0.808667 0.0260001 0)
(0.0189997 -0.0742259 0)
(0.137076 -0.178037 0)
(0.224509 -0.0633665 0)
(0.144507 -0.0273715 0)
(0.0932248 -0.031597 0)
(-0.0809462 -0.0286226 0)
(0.0518737 0.0825758 0)
(0.0564224 -0.0495167 0)
(0.00422728 0.0486151 0)
(0.251883 0.104719 0)
(0.311987 0.0490507 0)
(0.271973 -0.115618 0)
(0.067054 -0.0775432 0)
(0.0734942 0.0264801 0)
(0.192874 0.0346999 0)
(0.251323 0.000499298 0)
(0.20427 -0.0372476 0)
(0.151912 -0.00939862 0)
(0.146339 0.00316255 0)
(0.158328 0.0206367 0)
(0.182799 0.0094293 0)
(0.20552 0.0149009 0)
(0.258586 0.0368374 0)
(0.379604 0.0496164 0)
(0.398995 -0.0756694 0)
(0.074557 -0.396712 0)
(-1.26881 -0.000471926 0)
(-0.180639 0.340365 0)
(0.2976 0.210865 0)
(0.191054 -0.06665 0)
(0.0726151 -0.17718 0)
(0.0720737 0.00690187 0)
(0.0619237 0.0213982 0)
(0.10438 0.0193857 0)
(0.137805 0.00914453 0)
(0.150345 0.000534301 0)
(0.15095 -0.000189318 0)
(0.149884 0.000704514 0)
(0.149846 0.000431306 0)
(0.150322 0.000753125 0)
(0.152676 0.00320695 0)
(0.156346 0.000818244 0)
(0.160703 0.000520235 0)
(0.116489 0.170188 0)
(0.69501 0.0165512 0)
(0.599999 0.0112193 0)
(0.295549 -0.0627617 0)
(0.117931 -0.0263836 0)
(0.0502362 -0.0052834 0)
(0.0562085 -0.00228786 0)
(-0.0520573 -0.00869404 0)
(0.0376686 0.023056 0)
(0.06949 -0.0189459 0)
(-0.0310583 0.00227912 0)
(0.149181 0.0331169 0)
(0.311743 0.0221893 0)
(0.254332 -0.0349982 0)
(0.0371339 -0.0179211 0)
(0.0173525 0.00468147 0)
(0.0838899 0.00491476 0)
(0.110077 -0.00197102 0)
(0.0734082 -0.0100473 0)
(0.0367496 -0.00169208 0)
(0.0378555 0.00241359 0)
(0.0545239 0.00674298 0)
(0.0759471 0.00162663 0)
(0.0877687 0.0011289 0)
(0.117485 0.0051458 0)
(0.181345 0.0107324 0)
(0.192253 -0.0233171 0)
(-0.0714304 -0.0621886 0)
(-0.688908 0.0302969 0)
(-0.143435 0.0577224 0)
(0.248045 0.0472654 0)
(0.454752 0.0177878 0)
(-0.00998123 -0.0841945 0)
(-0.0239398 0.00619264 0)
(0.00115959 0.00520269 0)
(0.0337496 0.00339863 0)
(0.052047 0.00103266 0)
(0.0561791 -0.000272883 0)
(0.0552638 3.79846e-05 0)
(0.0555604 0.000214718 0)
(0.0566622 0.000186112 0)
(0.0569276 -7.72133e-05 0)
(0.0607784 0.00133483 0)
(0.0630143 -0.00125599 0)
(0.0636772 0.00036878 0)
)
;

boundaryField
{
    AirInlet
    {
        type            fixedValue;
        value           uniform (0.08 0 0);
    }
    WaterInlet
    {
        type            fixedValue;
        value           uniform (0.4 0 0);
    }
    ChannelWall
    {
        type            fixedValue;
        value           uniform (0 0 0);
    }
    Outlet
    {
        type            pressureInletOutletVelocity;
        value           nonuniform List<vector> 
15
(
(0.050878 0.000253244 0)
(0.136082 0.00136975 0)
(0.205242 0.0024216 0)
(0.257158 0.0030173 0)
(0.293173 0.00246615 0)
(0.303109 0.00170952 0)
(0.305725 0.00147539 0)
(0.307267 0.00123836 0)
(0.307748 0.000996922 0)
(0.307102 0.000793219 0)
(0.300568 0.000622865 0)
(0.274495 0.00162684 0)
(0.228874 0.00126164 0)
(0.160703 0.000520235 0)
(0.0636772 0.00036878 0)
)
;
    }
    FrontAndBack
    {
        type            empty;
    }
}


// ************************************************************************* //
