/*--------------------------------*- C++ -*----------------------------------*\
| =========                 |                                                 |
| \\      /  F ield         | OpenFOAM: The Open Source CFD Toolbox           |
|  \\    /   O peration     | Version:  2.3.0                                 |
|   \\  /    A nd           | Web:      www.OpenFOAM.org                      |
|    \\/     M anipulation  |                                                 |
\*---------------------------------------------------------------------------*/
FoamFile
{
    version     2.0;
    format      ascii;
    class       volScalarField;
    location    "1.1e-05";
    object      alpha.fuel;
}
// * * * * * * * * * * * * * * * * * * * * * * * * * * * * * * * * * * * * * //

dimensions      [0 0 0 0 0 0 0];

internalField   nonuniform List<scalar> 
7500
(
1
1
1
1
1
1
1
1
1
1
1
1
1
1
1
1
1
1
1
1
1
1
1
1
1
1
1
1
1
1
1
1
1
1
1
1
1
1
1
1
1
1
1
1
1
1
1
1
1
1
1
1
1
1
1
1
1
1
1
1
1
1
1
1
1
1
1
1
1
1
1
1
1
1
1
1
1
1
1
1
1
1
1
1
1
1
1
1
1
1
1
1
1
1
1
1
1
1
1
1
1
1
1
1
1
1
1
1
1
1
1
1
1
1
1
1
1
1
1
1
1
1
1
1
1
1
1
1
1
1
1
1
1
1
1
1
1
1
1
1
1
1
1
1
1
1
1
1
1
1
1
1
1
1
1
1
1
1
1
1
1
1
1
1
1
1
1
1
1
1
1
1
1
1
1
1
1
1
1
1
1
1
1
1
1
1
1
1
1
1
1
1
1
1
1
1
1
1
1
1
1
1
1
1
1
1
1
1
1
1
1
1
1
1
1
1
1
1
1
1
1
1
1
1
1
1
1
1
1
1
1
1
1
1
1
1
1
1
1
1
1
1
1
1
1
1
1
1
1
1
1
1
1
1
1
1
1
1
1
1
1
1
1
1
1
1
1
1
1
1
1
1
1
1
1
1
1
1
1
1
1
1
1
1
1
1
1
1
1
1
1
1
1
1
1
1
1
1
1
1
1
1
1
1
1
1
1
1
1
1
1
1
1
1
1
1
1
1
1
1
1
1
1
1
1
1
1
1
1
1
1
1
1
1
1
1
1
1
1
1
1
1
1
1
1
1
1
1
1
1
1
1
1
1
1
1
1
1
1
1
1
1
1
1
1
1
1
1
1
1
1
1
1
1
1
1
1
1
1
1
1
1
1
1
1
1
1
1
1
1
1
1
1
1
1
1
1
1
1
1
1
1
1
1
1
1
1
1
1
1
1
1
1
1
1
1
1
1
1
1
1
1
1
1
1
1
1
1
1
1
1
1
1
1
1
1
1
1
1
1
1
1
1
1
1
1
1
1
1
1
1
1
1
1
1
1
1
1
1
1
1
1
1
1
1
1
1
1
1
1
1
1
1
1
1
1
1
1
1
1
1
1
1
1
1
1
1
1
1
1
1
1
1
1
1
1
1
1
1
1
1
1
1
1
1
1
1
1
1
1
1
1
1
1
1
1
1
1
1
1
1
1
1
1
1
1
1
1
1
1
1
1
1
1
1
1
1
1
1
1
1
1
1
1
1
1
1
1
1
1
1
1
1
1
1
1
1
1
1
1
1
1
1
1
1
1
1
1
1
1
1
1
1
1
1
1
1
1
1
1
1
1
1
1
1
1
1
1
1
1
1
1
1
1
1
1
1
1
1
1
1
1
1
1
1
1
1
1
1
1
1
1
1
1
1
1
1
1
1
1
1
1
1
1
1
1
1
1
1
1
1
1
1
1
1
1
1
1
1
1
1
1
1
1
1
1
1
1
1
1
1
1
1
1
1
1
1
1
1
1
1
1
1
1
1
1
1
1
1
1
1
1
1
1
1
1
1
1
1
1
1
1
1
1
1
1
1
1
1
1
1
1
1
1
1
1
1
1
1
1
1
1
1
1
1
1
1
1
1
1
1
1
1
1
1
1
1
1
1
1
1
1
1
1
1
1
1
1
1
1
1
1
1
1
1
1
1
1
1
1
1
1
0.99662615
0.99437481
0.99326135
0.99050721
0.98888414
0.98675182
0.9837847
0.96802683
1
1
1
1
1
1
1
1
1
1
1
1
1
1
1
1
1
1
1
1
1
1
1
1
1
1
1
1
1
1
1
1
1
1
1
1
1
1
1
1
1
1
1
1
1
1
1
1
1
1
1
1
0.99456354
0.98427578
0.97035182
0.95885816
0.95209736
0.94255165
0.92042558
0.88414992
0.80842779
0.6961461
0.61330918
0.54832518
0.48686209
0.45731945
0.40805275
0.29323451
0.23664621
0.23291396
0.21934466
0.21086203
0.20448598
0.19970653
0.15128025
1
1
1
1
1
1
1
1
1
1
1
1
1
1
1
1
1
1
1
1
1
1
1
1
1
1
1
1
1
1
1
1
1
1
1
1
1
1
1
1
1
1
0.99061023
0.96949732
0.93777289
0.89820492
0.84328874
0.76335403
0.69235463
0.60741125
0.49930916
0.40355026
0.28305111
0.19338264
0.13260541
0.10619051
0.10030942
0.087892595
0.038305919
9.264569e-10
3.6404218e-10
3.6404216e-10
3.6404216e-10
3.6404217e-10
3.6404217e-10
3.6404217e-10
3.6404218e-10
3.6404219e-10
3.6404221e-10
3.6404223e-10
3.6404225e-10
3.6404227e-10
3.6404229e-10
3.640423e-10
3.6404232e-10
1
1
1
1
1
1
1
1
1
1
1
1
1
1
1
1
1
1
1
1
1
1
1
1
1
1
1
1
1
1
1
1
1
1
0.98768694
0.95970015
0.92029622
0.82361151
0.73276048
0.60067002
0.49700723
0.37259103
0.24186555
0.13931305
0.067594114
1.6304461e-09
9.2456576e-10
9.2456573e-10
9.2456573e-10
9.2456571e-10
9.245657e-10
9.2456569e-10
9.2456569e-10
9.2456594e-10
9.2456902e-10
9.2456399e-10
9.2456247e-10
9.2456247e-10
9.2456246e-10
1.1956034e-08
5.7625403e-09
3.8139414e-10
6.8966064e-10
1.2064337e-09
1.9607045e-09
2.8320252e-09
3.5534732e-09
4.2206768e-09
4.6889155e-09
4.8904887e-09
5.1297726e-09
5.212655e-09
5.2586447e-09
5.7214798e-09
6.6151737e-09
1
1
1
1
1
1
1
1
1
1
1
1
1
1
1
1
1
1
1
1
1
1
1
1
1
1
1
1
0.98273586
0.92808775
0.80956136
0.66516485
0.50472144
0.35136453
0.22130358
0.12090296
0.017620473
3.3323098e-09
3.1256903e-09
3.1256903e-09
3.1256903e-09
3.1256903e-09
3.1256903e-09
3.1256903e-09
3.1256904e-09
3.5778941e-09
4.2170191e-09
5.3939864e-09
5.9762877e-09
6.5096537e-09
5.6495899e-09
3.4600643e-09
9.531915e-10
5.9061456e-08
3.8484433e-07
1.7753532e-07
1.4028185e-09
1.2750754e-09
1.0738569e-09
9.3039765e-10
3.8638737e-06
6.646358e-06
1.0690231e-09
1.452231e-09
1.7621319e-09
3.2162233e-09
4.96972e-09
6.0750434e-09
6.5304018e-09
6.4786249e-09
6.1510083e-09
7.1275102e-09
5.3160771e-09
7.2710396e-09
7.9793245e-09
1
1
1
1
1
1
1
1
1
1
1
1
1
1
1
1
1
1
1
1
1
1
1
0.97848734
0.90739777
0.74070654
0.55944213
0.3681871
0.20872993
0.024188788
3.8959561e-09
3.6297794e-09
3.6297794e-09
3.6297794e-09
3.6297795e-09
3.6297795e-09
3.6297795e-09
4.1521837e-09
4.5918483e-09
5.2000734e-09
5.7172164e-09
5.8993079e-09
6.1366731e-09
1.161901e-08
1.2701147e-08
2.0959665e-08
1.930748e-08
1.6921988e-08
1.4630775e-08
1.2027961e-08
7.7762741e-09
1.8705477e-09
1.4580276e-09
1.3557116e-09
9.1240707e-09
1.7027432e-09
1.3300684e-09
0.00014843559
1.0134373e-09
9.3932114e-10
9.248462e-10
0.00014511033
0.00017870827
1.8885304e-09
2.2623359e-09
2.2721456e-09
4.9781682e-09
6.672479e-09
8.1232353e-09
9.3526247e-09
7.0898224e-09
4.3901822e-08
1.0097185e-07
2.467562e-08
8.3390732e-09
1
1
1
1
1
1
1
1
1
1
1
1
1
1
1
1
1
1
1
0.96570957
0.84457605
0.64661951
0.41079007
0.2022438
5.0269331e-09
3.740236e-09
3.740236e-09
3.740236e-09
3.740236e-09
3.7402361e-09
4.1021105e-09
4.646221e-09
5.0131311e-09
5.9541518e-09
7.4256641e-09
7.805323e-09
7.9597872e-09
4.6544102e-09
7.617392e-09
8.0126573e-09
7.5537402e-09
6.7483595e-09
5.7516259e-09
2.9059891e-08
4.3070414e-08
2.2318915e-08
2.1410772e-08
1.6794539e-08
9.9130576e-09
5.9068052e-09
3.9920825e-09
0.0015330099
0.0059506267
0.0016543815
9.8222503e-09
0.0024201122
0.013891919
0.016877088
0.0032902558
1.4599228e-09
1.3571448e-09
1.2793393e-09
0.00080102917
0.0039756792
0.0041847886
0.00091424407
5.1458737e-09
4.8511152e-09
4.5292632e-09
9.0594561e-08
7.6633658e-08
1.8846735e-08
1.4049753e-08
1.4275475e-08
0.00029050344
1
1
1
1
1
1
1
1
1
1
1
1
1
1
1
1
0.92121533
0.71840891
0.44999998
0.16022897
4.9426627e-09
3.9406898e-09
3.9406898e-09
3.9406898e-09
4.9591224e-09
5.4299626e-09
4.4044209e-09
4.4757027e-09
3.7420178e-09
5.4929518e-09
6.7573956e-09
7.4690135e-09
6.7945636e-09
1.9573463e-08
1.0207697e-08
6.8701375e-09
1.170941e-08
3.5514789e-06
6.3476608e-09
5.8831264e-09
5.2896274e-09
7.4908892e-09
5.2262261e-09
6.8594934e-09
7.1947123e-09
1.078475e-07
1.319494e-07
4.1323037e-08
1.0720389e-08
4.6979339e-09
4.0022306e-09
0.0078947481
0.010421955
0.0042157929
1.0129491e-08
0.014762063
0.016877088
0.016877088
0.012016643
0.0007222962
1.6547319e-09
1.7014722e-09
1.8163964e-09
0.0075023134
0.0052597645
4.6936831e-06
5.423977e-09
7.9545637e-06
4.4621878e-05
2.9342257e-06
1.5732721e-09
1.3423439e-09
1.2001642e-09
0.0014447612
0.0017669233
1
1
1
1
1
1
1
1
1
1
1
1
1
0.93088715
0.72053124
0.40774203
0.045981766
4.7671219e-09
4.3710314e-09
4.3710314e-09
5.9241228e-09
4.9780447e-09
4.765054e-09
4.6380646e-09
9.9665733e-09
5.5717853e-09
7.0199749e-07
3.0044137e-05
3.7447337e-06
6.0745375e-09
6.6294233e-09
7.3004392e-09
7.3867664e-09
8.5169546e-07
5.4726001e-08
6.0948611e-09
6.0955302e-09
4.535713e-05
0.00044682231
0.0055897425
0.00062708554
4.6837005e-09
4.582004e-09
4.5163921e-09
7.6925668e-09
2.0730832e-09
2.0293484e-09
8.276443e-07
3.9508976e-09
3.9477759e-09
0.0018823585
3.8942542e-07
0.00017157871
0.0089889627
0.0051063483
1.7712449e-08
0.0011309742
0.0037633222
0.0083302842
0.009765728
0.0092990686
0.0070574422
0.001253359
3.0796912e-09
0.01013559
0.0017087706
0.0064207272
0.0010634218
3.0000255e-06
2.1603908e-09
1.8699273e-09
1.2581011e-09
0.00071079583
0.002177623
0.0010747027
1
1
1
1
1
1
1
1
1
1
1
0.86992918
0.55049827
0.10587754
4.2453959e-09
3.5104737e-09
3.5104737e-09
5.1731817e-09
2.305962e-08
4.3817615e-09
2.9248021e-05
6.1638342e-09
0.0017567415
4.1503239e-05
6.8129573e-09
5.5816518e-09
2.2354311e-05
9.7407229e-05
6.7339608e-09
4.3973587e-06
2.0354666e-05
0.00056428894
0.0003816316
6.8677684e-08
0.00062026866
0.0093987542
0.0090081943
6.9551146e-09
0.0087700975
0.010927708
0.010927708
0.0031792118
4.6041394e-09
4.0771138e-09
3.3414476e-09
2.8843495e-09
2.4055817e-09
2.1150548e-09
0.00033837048
0.0002600852
7.9181443e-09
2.4736769e-05
1.2344622e-08
7.0085382e-05
5.2303115e-07
5.1773187e-07
1.3523183e-09
1.0670002e-09
0.00059144497
0.0087673429
0.010209293
0.010163393
0.004709798
3.0323306e-09
2.6016998e-09
0.027728131
0.030501176
0.021406979
0.00039441853
2.0452519e-09
1.6855103e-09
1.4705557e-09
0.001751082
0.000625326
5.0917178e-09
1
1
1
1
1
1
1
1
1
0.84675768
0.45662297
0.0059651914
3.7580317e-09
3.6960588e-09
3.9564039e-09
5.3306061e-09
4.3944352e-09
4.7269561e-07
1.2412821e-07
4.3893461e-09
1.8667239e-05
0.00035206377
0.0068871894
0.0044852386
6.6341373e-09
5.5912238e-09
6.5589557e-09
4.8277943e-05
0.0005007988
0.00039174483
0.0013216306
0.0013676029
0.0013592365
0.000106654
7.6894923e-09
0.0094266993
0.0019430197
2.8198814e-06
4.0111999e-09
0.000969017
0.0053204978
0.0011884399
4.7010901e-09
4.2064802e-09
3.7388933e-09
3.2781684e-09
7.8365917e-07
1.051524e-05
0.00010088161
6.0023979e-05
8.1852007e-09
6.9655974e-05
0.0012553836
0.0048207791
0.0017872153
4.0523552e-05
1.3473617e-09
1.0671758e-09
1.2980307e-05
0.00020126494
0.00055561382
5.5257454e-10
5.1926019e-10
6.834465e-05
1.6280623e-06
9.2380108e-10
0.040809759
0.057990426
0.03461256
0.00018043213
0.003076301
0.013854832
0.00059258863
5.1422743e-09
5.0696451e-09
1
1
1
1
1
1
1
0.8924629
0.51099737
0.0079151653
1.9925081e-08
1.9866368e-08
2.0488068e-05
1.00308e-05
4.519424e-09
4.5400553e-05
1.4927963e-06
6.3547421e-09
6.3483781e-09
5.3670243e-09
6.0521571e-09
0.0036834236
0.0053452794
0.0068871947
0.0043879859
0.00020740941
7.3691776e-09
9.2683438e-06
2.6790914e-05
1.3204253e-08
1.320422e-08
1.322562e-08
0.00032222907
0.0001614524
7.6163868e-09
8.3154456e-09
8.4936433e-09
1.3837632e-08
4.7872938e-09
4.0174394e-09
4.6202798e-09
4.834593e-09
0.0010861688
0.0012171694
0.0012696854
0.00056176209
3.13704e-05
2.8674123e-09
2.8550303e-09
2.9957394e-09
8.3454229e-07
2.4648588e-09
0.0075559421
0.010683595
0.0079082667
0.00014926182
1.6719798e-09
1.4288949e-09
1.8260662e-09
1.6050539e-09
1.3006795e-09
1.0824664e-09
9.462966e-10
5.1872642e-10
8.0896457e-06
6.0064447e-10
6.7752484e-10
0.03407913
0.036864916
1.0028543e-05
0.060142252
0.19577809
0.1656227
0.22883023
0.11415079
1
1
1
1
1
1
0.73508145
0.10516207
2.8783817e-08
2.8010322e-08
1.7332334e-05
0.00010729197
0.0001502536
0.00014005762
5.8013596e-09
6.8579095e-09
0.00015916802
0.0017193328
0.0016400089
0.0024865534
0.0017732583
1.1065219e-05
9.265596e-09
0.0017171212
0.004384164
0.00087510945
7.5071748e-09
0.00036717853
2.1998724e-08
2.151733e-08
1.321501e-08
0.00045464533
0.00049466873
8.8392398e-05
6.9953334e-09
7.4483663e-09
8.013066e-09
5.1414921e-09
4.9534578e-09
4.0174401e-09
0.0012561907
0.0025151021
0.0025070168
0.0024968697
0.0025023089
0.0019229224
1.6968869e-06
2.501641e-09
2.4943677e-09
0.00042510905
0.00023560614
2.8515243e-09
3.0277652e-09
0.0010992662
0.0047585316
0.003668279
0.0014052559
0.0034259779
0.0043310369
0.0026667647
0.00026149604
1.3525521e-09
1.0405806e-09
5.4506342e-10
5.211774e-10
0.01323259
0.0062560025
3.2168464e-09
0.0017590814
0.0011226274
9.0076753e-10
0.071625538
0.37141785
0.37329221
0.37329221
1
1
1
1
0.97087287
0.47656434
1.3502716e-08
1.1248791e-08
1.5203902e-07
6.5581015e-05
0.00046316017
0.00046372817
2.188365e-05
2.9378682e-09
0.00045736374
0.0020934224
0.0017131303
0.00093578787
0.0040398368
0.0053803631
0.0054134828
2.0706136e-07
1.3260538e-08
1.3823921e-08
0.0022862812
0.0025727114
0.0020910301
5.3641162e-05
4.1933495e-05
1.0658026e-08
4.5389771e-07
0.00020839568
4.7029408e-05
8.2152735e-09
7.4836474e-09
7.4319507e-09
1.4478225e-08
5.2793226e-09
4.4990449e-09
4.0174815e-09
0.00011862864
0.00089940394
2.6383781e-09
2.5809594e-09
2.5809564e-09
2.5809562e-09
0.00045123757
0.00025294798
2.903376e-09
1.1921873e-05
2.9340362e-05
3.262709e-09
0.0059295497
0.00012499765
0.00055328956
0.00018041552
0.003971013
0.0056279586
0.0056643813
0.0052016417
0.001404064
4.5025075e-05
9.3055763e-10
7.0442209e-09
5.2133171e-10
0.0073570188
0.0079088541
0.0010419268
1.8831521e-05
0.00016421475
3.0978804e-05
9.0101526e-10
0.1066908
0.22530169
0.03635114
1
1
1
0.95648271
0.26908405
3.3967254e-08
3.2411768e-08
1.1298681e-08
0.00022311936
0.00050853052
3.9642547e-09
2.9383456e-09
2.9383518e-09
2.9381148e-09
0.00112424
0.013589504
0.013738816
1.3453131e-07
1.3399564e-07
1.3326985e-07
3.7785805e-05
0.0028318244
1.2033843e-08
0.0037155437
2.7035759e-06
0.0025727065
0.00052652295
7.5529987e-09
1.9839338e-07
1.5594331e-08
6.7216547e-09
7.2683509e-09
7.4775151e-09
3.382003e-05
0.0034377404
0.00024171565
5.0402602e-09
0.10538788
0.012479416
4.5731867e-09
4.6554934e-09
5.1666194e-09
2.582049e-08
1.435653e-08
3.9855407e-09
2.9951231e-09
2.5867789e-09
2.8184026e-09
2.6760485e-09
2.6764353e-09
2.6775074e-09
0.042842253
0.063872414
0.015444881
4.0063047e-08
3.6079063e-05
4.4714188e-10
4.351918e-10
0.0021447339
0.0056643829
0.0056643825
0.0034616355
1.2745192e-09
7.8073368e-07
5.4022125e-06
8.7031286e-10
6.6190839e-10
6.8758101e-10
0.0016113646
0.00032752421
2.4146724e-09
0.00039628582
0.0050837775
4.8503244e-10
4.863929e-10
1
1
0.98782165
0.24943243
3.8662984e-08
3.6728337e-08
3.5318471e-08
3.213768e-06
5.3625015e-09
5.3535095e-09
6.7857355e-08
7.7425586e-08
8.8330671e-09
2.4566728e-08
2.9862533e-09
0.013730947
0.008415488
1.350146e-07
0.0027765937
1.3453543e-07
0.0017474594
0.005142772
1.1986028e-08
0.0004524943
5.90892e-06
8.8742533e-05
7.6891517e-09
7.0111596e-09
6.4199751e-09
7.0261079e-09
6.706191e-09
6.6578057e-09
2.0335329e-06
1.9246936e-07
0.014236276
0.0039211069
0.0077456237
0.11269305
0.034758145
0.00053553318
0.0011151092
0.00024589114
1.5043071e-08
1.4702512e-08
1.2702169e-07
3.2778842e-09
2.9450951e-09
0.0018656943
0.010220314
0.0088504987
2.9421663e-09
0.062941716
0.063872414
0.03333009
3.941504e-08
3.8803859e-08
3.8548855e-08
6.811818e-10
4.3008779e-10
0.002027268
0.0044531068
0.0016363378
1.0712711e-09
8.2093048e-10
6.2225301e-10
6.1400437e-10
1.6848521e-05
0.00013752218
2.3787996e-09
2.1508725e-09
2.3340382e-09
0.00035689536
7.2136216e-10
4.4995432e-10
3.4938753e-05
1
1
0.31743903
3.9855986e-08
3.7335355e-08
0.0019851693
0.0016817694
4.1204475e-05
5.3628235e-09
8.9186531e-09
8.008345e-09
3.3462939e-08
2.0087792e-08
4.0400692e-07
3.2006949e-09
0.0039616514
7.910193e-09
0.0024435341
0.0043527861
0.00026790185
0.0029436489
2.7753923e-05
1.2949433e-08
1.3817789e-08
6.0932193e-05
1.4532659e-08
1.9904947e-05
0.00034983952
8.3628792e-05
0.00062420764
7.188799e-09
0.0030071158
0.0041780716
6.1101039e-07
0.0052443159
0.014335225
0.063217671
0.080367316
0.011952207
1.1355577e-05
4.5838804e-05
1.9469831e-05
1.0707135e-05
2.0427283e-06
1.0988009e-07
0.0018677113
0.0040661293
0.0012859179
0.0040340627
0.0012416137
0.0019003105
0.0011719632
0.025990839
0.027342605
0.0016256852
3.9413244e-08
4.7994633e-08
1.6503491e-06
2.2036154e-07
4.2465806e-10
4.2448877e-10
5.7986761e-10
0.0013233641
0.00042021651
0.00011475809
8.2277736e-10
6.1376486e-10
0.00054222133
0.0040781175
0.0069975051
0.013882027
0.0040224884
6.448918e-10
4.6975081e-10
0.00024672508
1
0.64733672
0.025240449
0.00028926601
5.5995105e-08
0.0048339763
0.0010628811
2.9668059e-09
1.0411179e-08
9.0449252e-09
7.9665968e-09
1.7841231e-08
1.1333778e-08
9.6093988e-09
5.537124e-06
7.1501749e-09
6.6067143e-09
0.00018050235
6.2351058e-08
0.00050935689
0.0029436486
2.8619184e-07
0.0052566581
0.00047074194
0.0032155879
0.00038019132
2.1746176e-05
0.0016893536
0.0016931624
0.0016613359
0.00032508869
7.9853243e-05
0.00038376431
0.00082793929
2.9405215e-08
0.056944348
0.1175464
0.0032787449
6.1565229e-05
0.00020663461
1.5148542e-06
4.2893728e-09
9.2655643e-06
9.5787376e-06
1.0995024e-07
0.0076170505
0.0081586579
0.0021733525
4.6582225e-09
4.2974623e-09
0.045352771
0.0014422267
1.6415051e-09
0.048474397
0.021413328
3.995367e-08
7.1353054e-06
1.1395739e-05
1.4993949e-06
6.3617439e-10
4.2448894e-10
0.002027076
0.0057456724
0.0053145009
1.8742238e-06
6.4219593e-10
6.7345193e-10
4.9457048e-10
0.016960818
0.032006119
0.026109896
9.8280128e-05
1.7720579e-05
2.1271178e-05
1.3721599e-08
0.9682769
0.079807652
1.0163685e-08
6.9621768e-09
0.0013349762
0.0048339752
0.00038100356
2.5788793e-09
9.8476892e-09
9.1531923e-09
7.6791041e-09
1.1434248e-08
7.0709556e-09
8.5004666e-09
0.0034219679
0.0060396406
0.0013377835
6.3196212e-08
6.2348579e-08
6.2330413e-08
0.0024385505
0.00054279157
0.0067411202
0.0017309183
0.0030361149
2.3183367e-08
2.2798533e-08
2.313086e-08
0.00087064353
3.5792499e-09
3.5338887e-09
3.9973065e-09
4.3710148e-09
4.7153532e-09
0.0022500737
0.011369032
0.1175464
0.010729673
3.8953208e-09
3.5167126e-09
3.5193731e-09
3.9601175e-09
2.2371653e-09
2.229874e-09
0.00071624217
1.6910589e-05
0.0047610297
0.0054635041
0.00042032553
4.2543032e-09
0.022582273
0.0031376429
1.6784119e-09
0.031422877
0.0041841378
0.00087793868
6.566529e-10
4.3138431e-10
4.3138014e-10
4.2904764e-10
5.0559375e-10
0.0057188164
0.0057456724
0.00071459343
0.0010484475
0.00050110279
8.1637196e-10
6.1096827e-10
4.4737983e-10
0.0045564765
0.0018892299
5.7770689e-05
2.1860984e-10
0.00018750439
0.00048547056
0.31914713
2.511782e-08
3.5612241e-08
6.9775882e-09
0.0034168489
0.0034233055
0.0034225041
2.5784259e-09
1.0315695e-08
9.2208926e-09
7.5029828e-09
5.0753074e-09
5.4161237e-09
2.2228043e-06
3.2482049e-09
0.0053635422
0.0069982643
9.5588549e-05
6.3161847e-08
6.3552185e-08
6.3713359e-08
0.0063711951
0.0067406358
1.0420089e-06
1.0416467e-06
0.0028028202
0.00038733262
0.0014659811
2.1823103e-05
4.1220948e-09
3.5367441e-09
2.593002e-06
0.00013503404
0.00074744
0.019090431
0.012592889
0.009553397
4.7895052e-09
4.323524e-09
3.8880046e-09
4.050631e-09
2.3706538e-09
2.378804e-09
2.0119323e-09
0.0023820237
0.00016162693
1.238294e-05
0.0017430283
1.3203141e-08
0.029261331
0.016116226
0.00064976824
1.3859414e-09
1.1064363e-09
7.8968573e-10
9.3808769e-10
6.5721129e-10
1.0198517e-08
6.6933729e-09
4.95391e-10
0.0016591094
0.0019233936
0.0024438961
0.00039085982
0.00018017678
2.8915607e-05
9.8328614e-10
2.6214069e-05
4.8599016e-06
1.6845786e-10
1.6586269e-10
2.2715879e-11
1.8650968e-10
1.3171184e-10
0.0053223396
0.10148279
2.1052874e-08
8.0314234e-07
3.9210187e-07
9.5115108e-08
0.0014535088
0.0018831207
0.00014774177
1.1440923e-08
9.4566651e-05
0.00019892651
0.00019774226
1.3035016e-06
1.8124149e-05
3.0287484e-09
4.6428191e-09
0.0051081921
4.3320364e-05
0.0005815945
6.459136e-08
6.3697192e-08
6.3766281e-08
0.0017705541
0.005684546
1.0420407e-06
0.00065633389
1.6813737e-05
0.0026060865
0.0011013438
0.0009423958
4.3140134e-09
3.7122265e-09
0.021545698
0.020936541
1.4920678e-08
0.00026724449
0.00012755972
0.0056387612
0.0033432865
0.00053104937
2.9965082e-09
2.7238679e-07
2.5226562e-09
2.0550778e-09
1.7234256e-09
1.8361003e-09
9.6861728e-06
0.00125017
0.00010629558
0.012070385
0.0092019049
0.0011332026
1.3865925e-09
1.128805e-09
1.0984873e-09
0.0020209996
0.00012100657
1.2374737e-09
9.9873882e-10
0.00035373294
5.2051338e-10
4.4633796e-10
4.4633791e-10
0.00026711946
8.0214935e-09
8.0789696e-05
0.0022850358
0.00053640216
6.5452092e-10
4.1015595e-09
4.6811768e-10
2.2714785e-11
0.00035742487
1.0542217e-06
0.00074412999
1.6190373e-09
1.4546915e-08
1.4359946e-08
9.6230421e-07
2.4305569e-07
1.52669e-08
1.429938e-08
2.0559989e-05
1.391492e-05
0.00019642295
0.00019838123
2.0623216e-05
0.00037530752
3.0343327e-09
3.0285798e-09
3.0398233e-09
1.4058158e-06
0.008131275
0.0064120872
0.00070645645
0.003925895
0.00024368675
2.0669961e-07
0.0038871343
8.0711237e-05
1.5694166e-05
1.5693973e-05
0.00072232137
0.0023192211
0.002322324
0.00011514069
0.000720038
0.00034779301
3.710571e-09
1.9070366e-06
0.00036251767
0.0001275594
0.008411979
0.008379654
0.0024681678
2.4397326e-09
1.0088781e-09
0.020301479
0.0085567016
2.1974726e-09
5.996293e-06
1.0000834e-08
9.7626509e-09
4.8658039e-05
1.1838221e-09
8.9111871e-10
5.9170584e-10
0.0046913993
1.4854847e-09
0.010560494
0.01061587
0.00052641227
1.4155189e-09
6.0707331e-06
5.2887355e-10
5.2423837e-10
6.1564573e-10
4.4633796e-10
0.0016588944
0.00083929678
0.012989584
0.01289764
4.3629493e-06
4.8968501e-10
5.3820969e-09
2.2233704e-09
2.2708636e-11
0.0009132048
0.00043697699
4.5932997e-09
5.3661121e-09
2.5230416e-08
1.4008727e-08
1.3441291e-08
1.1272904e-08
1.2941739e-08
1.2075582e-08
8.6036167e-09
7.1097789e-09
7.5293217e-09
7.3679719e-09
8.3853937e-09
0.00029287059
4.0358854e-08
3.0254771e-09
1.8629268e-07
4.041561e-09
0.005766889
1.4714658e-07
0.0060337564
0.0060700054
0.0014797158
2.0642366e-07
2.0589903e-07
0.0011218329
0.0067973078
0.005113116
3.5256247e-08
3.4730866e-08
0.00051747477
0.00047026652
0.00049139695
8.7475813e-05
2.3546346e-06
5.7083143e-09
0.0084693047
0.00012755953
0.0053585285
2.155135e-09
2.0708788e-09
1.2707592e-09
9.5504117e-10
0.027598551
0.02833383
0.0051540339
1.1634111e-06
0.0013350807
9.4393759e-09
0.0010212044
0.00063689428
9.2142843e-10
5.9165844e-10
0.014507206
0.00064089132
0.015822674
0.0014006057
2.2021259e-09
7.1228583e-09
1.0146867e-09
7.6235657e-10
7.3293369e-10
9.1836173e-07
4.4718664e-10
0.00058013486
0.021932299
0.021932299
0.0054417648
5.7210157e-10
3.5479845e-10
8.3315735e-09
4.9677316e-09
2.2716656e-11
0.00038027808
0.00086326367
7.1410143e-06
2.2489162e-05
5.6091183e-08
1.6456149e-08
2.5060231e-05
1.1356045e-08
1.4208956e-08
1.1722752e-08
1.2580206e-08
9.1219243e-09
2.5385423e-05
1.0432549e-06
4.8344845e-08
5.644976e-09
4.1182812e-09
3.0254804e-09
4.5265215e-05
2.3646525e-06
1.5804108e-07
5.0524665e-05
0.0060328172
0.002642387
2.0523948e-07
2.0507516e-07
2.0507516e-07
2.053244e-07
0.0035719358
4.3515925e-05
3.5886728e-08
0.00027887155
1.7356957e-09
1.556255e-09
2.0928799e-09
1.5690413e-09
0.0012657814
0.0040508552
0.021927256
0.014401777
2.8979029e-09
2.2870097e-09
1.9234316e-06
1.3129076e-06
9.5504225e-10
9.5499308e-10
0.013703783
0.011142815
6.2581342e-05
0.0060896356
0.0050270398
1.3408585e-09
9.5524282e-10
5.9166499e-10
7.9378687e-10
7.9132352e-10
0.018925898
3.6745893e-06
1.7534101e-09
1.9043453e-09
2.1232218e-09
0.0018193951
0.0016947877
0.00089996317
2.5720525e-05
5.9592766e-10
4.4534022e-10
0.010047543
0.016836649
0.002784457
7.5429862e-10
1.2636868e-09
1.8417457e-09
2.1359183e-09
1.166551e-10
7.7028542e-12
8.1882633e-06
0.00041297894
4.0071733e-05
5.8110106e-08
1.5529127e-05
0.00018649125
1.1381893e-08
1.1810938e-08
9.347746e-09
9.7954949e-09
3.9306117e-06
6.6606626e-05
3.3309004e-06
5.6477164e-09
5.6455902e-09
2.3273353e-05
3.0346259e-09
3.0570547e-09
5.1791184e-09
0.00018070062
0.00019532327
0.003961811
0.0025481739
1.1360257e-05
0.00069660955
0.00049169832
2.0614417e-07
2.0677554e-07
2.0696108e-07
0.00074387405
0.0013110272
5.4105533e-05
1.9851104e-09
1.4970207e-09
1.4970205e-09
0.00086768234
0.021728173
0.021929553
0.022201066
0.0026073868
2.6297752e-09
0.00028028848
1.1476307e-05
0.004536577
1.0071212e-09
5.4388327e-10
5.4388327e-10
8.0197961e-10
8.1687266e-10
1.1166864e-09
0.019174158
0.029345078
0.0031923932
0.00098604243
8.7401665e-10
0.013363592
0.0017420245
0.00023847426
0.00099219036
0.0028136966
0.0027996046
0.0027702196
0.0018839708
6.9165125e-09
9.7733976e-08
1.3453441e-08
2.1075465e-09
1.8975894e-09
1.6895983e-09
7.3235718e-09
1.6849075e-09
1.8150921e-10
4.0299655e-10
4.8919281e-11
9.7003675e-12
1.3265538e-10
0.001019846
2.8709038e-05
3.7149163e-05
0.00018636704
0.000186496
4.8252684e-05
1.2081835e-08
9.3647718e-07
1.7151896e-05
6.4198494e-05
6.660658e-05
6.3525412e-07
0.00038889997
6.1578843e-09
6.2362576e-05
3.6728832e-09
4.0720669e-07
4.4881584e-09
4.7435874e-06
2.0926018e-08
2.0380598e-08
0.002148696
1.2161778e-06
0.00017707225
6.9397639e-05
2.0705271e-07
2.0742992e-07
2.0717374e-07
0.00093214871
0.00088363993
4.6625147e-05
2.4796166e-09
0.0018531532
0.0034666627
6.8648961e-07
5.3733379e-10
0.00094966257
0.012312993
3.2094568e-09
2.7972833e-09
2.8710291e-09
0.016713231
0.029335547
0.005497622
9.2207937e-10
9.126635e-10
0.0092804508
0.00031674158
8.8916405e-10
0.033201605
0.03572127
0.03572127
0.018211357
7.4431331e-10
7.7945666e-10
8.76182e-10
0.0027225476
0.0035941418
0.0035941418
0.0011862166
8.0893119e-10
7.3017989e-10
2.3395333e-06
2.2753207e-06
5.5426953e-10
2.6563405e-09
2.2351821e-09
1.509184e-09
1.3228384e-09
4.5748472e-10
5.5476547e-11
4.1701497e-11
1.599688e-11
7.7016858e-12
0.0013515819
0.0042472837
1.6795175e-09
0.00018381177
0.00018591864
8.3153696e-05
0.00016370613
1.1338107e-08
1.2061705e-08
6.7058887e-05
6.6496567e-05
6.6606681e-05
6.535068e-09
0.00033046207
0.00017816276
3.0985722e-07
1.9380914e-07
5.8621937e-09
0.00032134592
1.070676e-05
0.00017828455
3.5521894e-06
3.2395167e-09
0.00032985156
0.00051735388
7.0072296e-05
0.0067823163
0.0021637848
0.00022808075
1.0052514e-09
8.137668e-10
1.1996635e-09
0.00073343684
0.00016248389
1.1324088e-07
1.0479592e-09
5.3904117e-10
0.0012592433
9.7788649e-10
0.016818319
3.1922727e-09
0.00043644148
0.0017467426
0.019563434
0.0087782755
1.2309229e-09
0.026215655
0.034941
0.0094331164
0.02094513
0.00025218111
0.0044116404
0.017518376
4.3341199e-10
5.0155165e-10
5.0915923e-10
0.00071402299
1.07836e-08
0.0030860993
0.0020051325
1.2318921e-09
1.0242654e-09
8.1091789e-10
8.0779298e-05
3.2525802e-10
2.9099037e-10
5.7815315e-10
1.7501373e-09
8.101434e-10
3.3821034e-10
1.0114929e-10
1.3600181e-11
9.9812289e-12
1.16555e-11
7.7016725e-12
0.0071532822
0.0071621773
8.5943937e-10
2.8479087e-10
6.6582147e-10
2.296137e-09
3.7163052e-06
1.1692356e-05
8.6418317e-05
1.3281226e-05
1.2932385e-07
5.8851095e-05
5.2081703e-09
3.0742722e-08
0.00023466507
2.2616106e-05
4.9796642e-06
3.2242005e-07
0.00040089206
1.7426813e-05
0.0013870543
9.2399327e-05
3.2282628e-09
0.0049420361
0.0096723775
0.00027743633
0.0070185355
0.0070409303
0.0048116972
0.00022355329
2.648029e-05
0.0038498209
0.0011415235
2.5838643e-09
2.5890383e-09
1.1039982e-05
4.3926786e-07
5.733595e-10
5.730508e-10
0.11474309
0.015143431
1.357453e-09
9.3059422e-10
1.0400975e-09
6.9797361e-10
0.0092984598
0.034941001
0.034941
0.0077512986
0.004195556
0.00048775042
5.844059e-10
5.5714297e-10
3.2663789e-10
2.6215942e-10
0.0016029866
0.0019359487
0.00016643861
0.0012774804
1.0340605e-09
1.4333897e-09
0.00016209621
2.5052621e-05
1.1131672e-09
0.0014321555
0.0068728803
4.7114355e-10
3.4010484e-10
3.3227397e-10
1.1369563e-10
3.7334199e-11
1.4631307e-11
9.0509503e-12
1.4094344e-11
7.702235e-12
0.0013004675
0.0028681484
1.2436427e-09
2.9042381e-08
2.3027503e-05
0.00021445422
5.3826638e-09
5.7463896e-09
6.3654236e-05
2.4719261e-07
2.5108975e-07
5.6030884e-09
5.6400708e-09
5.1305084e-09
0.00023466152
3.3196564e-05
9.294195e-09
3.1870019e-05
7.0603889e-05
1.5886368e-05
0.0013072983
7.1446107e-05
3.5566724e-09
2.9500246e-09
0.0064321857
1.3721597e-09
1.2640796e-09
1.1218634e-09
1.1219226e-09
0.00080995332
0.0012190017
0.019420172
0.00025176771
2.6403808e-09
2.8446357e-06
2.795361e-05
3.6160713e-09
5.7183688e-10
0.0015509568
0.11475521
0.10992193
0.0021798355
1.1858003e-09
9.506056e-10
6.9797362e-10
0.020106101
0.0151909
0.034941
0.011463416
8.264523e-10
6.0617262e-10
8.0711928e-10
2.2402591e-09
5.6540216e-10
2.8077399e-10
0.00048755094
3.3094758e-10
6.227556e-10
7.4423359e-10
9.0174216e-10
0.00013215925
0.00030132337
0.0002515412
1.2006552e-09
0.0011193457
0.010518592
0.0098258348
3.5036834e-10
2.226715e-10
7.0022906e-11
2.4714141e-11
2.0355446e-11
1.4259331e-11
2.3640455e-11
4.6731358e-11
4.0625969e-11
1.192666e-10
4.6111555e-10
2.366512e-09
0.00010821643
0.00028888156
0.00021417056
0.00021325894
9.6492392e-09
8.4276886e-09
7.4258154e-09
6.5246743e-09
6.4016477e-09
0.00019241846
0.00015091527
1.0037332e-08
8.3113304e-09
7.4578554e-09
7.4513431e-09
0.00037787605
2.8957468e-09
2.8144894e-09
3.5751666e-08
4.7717934e-09
4.5429148e-09
0.0065708778
0.00069888304
1.6289627e-09
3.0183808e-07
9.0145788e-10
9.0145311e-10
0.019419604
0.00025735262
2.3168122e-09
0.00010512679
2.8119923e-05
0.0027007842
0.0081513164
0.040874654
0.03031005
0.10920221
0.010222172
1.5221004e-09
1.6727477e-09
7.3192221e-10
4.5110922e-10
4.4856427e-10
0.034914803
0.013513237
1.0840964e-09
8.4112859e-10
9.2559945e-10
8.8889299e-10
2.4912308e-05
1.3334654e-06
4.7024385e-10
2.9104104e-10
0.00052438381
0.0003899198
0.0001223333
0.00031077973
0.00010421715
0.00014634412
5.5278041e-05
5.76161e-10
0.010486983
0.010518591
0.0043339763
2.3518558e-10
8.4158996e-11
3.4611504e-11
3.494826e-11
2.7284136e-11
4.0719168e-11
5.868361e-11
1.2625045e-10
8.0703938e-11
6.6992944e-10
1.6961228e-08
1.7001522e-08
3.7910026e-05
0.00033519048
0.00016366439
1.0438336e-08
1.9400868e-05
6.7710912e-06
8.2623533e-06
1.8095403e-05
0.00014866067
1.1152547e-08
1.2169642e-08
3.3409861e-06
1.7051677e-07
6.8932653e-09
0.00015190308
3.0497521e-05
3.3625497e-09
7.6202575e-08
4.7632015e-09
3.9465571e-09
0.0096757941
0.00082872414
0.001091797
1.0976522e-05
1.2778105e-09
9.0145312e-10
0.019416149
0.00043016924
0.00043789768
1.0842682e-09
6.6375008e-10
0.030383938
0.030425457
0.0043343788
0.00036676819
0.078831345
0.080584168
0.0022987678
1.9661955e-09
0.00054994766
0.00010069172
4.9192851e-10
0.0063026424
0.0050167
5.9362711e-06
1.0575686e-09
1.1171293e-09
8.886788e-10
3.0166287e-05
5.7918982e-09
2.9387486e-10
2.9104032e-10
0.00082591001
0.00084536901
0.00082825091
2.0434481e-06
1.3292667e-09
1.3819716e-09
1.6190235e-06
5.3603976e-10
0.0049337402
0.010518591
0.0019566216
2.5958461e-10
9.309641e-11
5.1800978e-11
5.816758e-11
5.1412237e-11
6.7299842e-11
7.3712794e-11
8.7771006e-11
4.3254943e-11
1.2496685e-10
4.3357963e-08
8.9116126e-07
5.7848534e-05
0.00030112267
2.3799681e-07
9.0378207e-05
9.0810737e-05
8.2764981e-05
0.00010301485
0.00054597445
1.0927028e-08
1.0119895e-08
0.00020778142
0.0001083601
7.5992522e-09
6.8820524e-09
0.00011011862
9.6734968e-06
3.3574739e-09
2.9255466e-09
0.00035756851
0.0015775784
0.0062428844
0.00073653847
0.0022383859
9.3726828e-05
1.2440918e-09
9.01454e-10
0.0024310884
0.00017939871
0.00023387744
8.0389694e-05