/*--------------------------------*- C++ -*----------------------------------*\
| =========                 |                                                 |
| \\      /  F ield         | OpenFOAM: The Open Source CFD Toolbox           |
|  \\    /   O peration     | Version:  2.3.0                                 |
|   \\  /    A nd           | Web:      www.OpenFOAM.org                      |
|    \\/     M anipulation  |                                                 |
\*---------------------------------------------------------------------------*/
FoamFile
{
    version     2.0;
    format      ascii;
    class       volScalarField;
    location    "1.1e-05";
    object      k;
}
// * * * * * * * * * * * * * * * * * * * * * * * * * * * * * * * * * * * * * //

dimensions      [0 2 -2 0 0 0 0];

internalField   nonuniform List<scalar> 
7500
(
9.9992944e-06
1.0003197e-05
1.0012298e-05
1.002319e-05
1.0025751e-05
1.0033427e-05
1.0042776e-05
1.0052282e-05
1.0069377e-05
1.0078213e-05
1.0102428e-05
1.0155087e-05
1.0181054e-05
1.0210389e-05
1.0236972e-05
1.0266388e-05
1.0313536e-05
1.0387817e-05
1.0431442e-05
1.0476079e-05
1.0507316e-05
1.0559715e-05
1.0624926e-05
1.0625461e-05
1.0623448e-05
1.0632161e-05
1.0634341e-05
1.0636003e-05
1.0639808e-05
1.0663021e-05
1.0752155e-05
1.0769971e-05
1.0822561e-05
1.0943077e-05
1.1018612e-05
1.1031795e-05
1.1076599e-05
1.1105187e-05
1.1203117e-05
1.1298557e-05
1.149495e-05
1.1655179e-05
1.1696877e-05
1.1781529e-05
1.1808317e-05
1.1820019e-05
1.1821628e-05
1.1856463e-05
1.1940514e-05
1.1963045e-05
1.197526e-05
1.2029778e-05
1.2172079e-05
1.2227132e-05
1.2350098e-05
1.2467149e-05
1.2642412e-05
1.2882642e-05
1.3157206e-05
1.3329853e-05
1.3809978e-05
1.4039459e-05
1.4519251e-05
1.4816663e-05
1.5366403e-05
1.5921522e-05
1.6683491e-05
1.7150615e-05
1.7902216e-05
1.8262226e-05
1.900711e-05
1.9748877e-05
2.1283358e-05
2.2188657e-05
2.4420644e-05
9.9994589e-06
1.0001372e-05
1.000316e-05
1.0009917e-05
1.0022799e-05
1.0033304e-05
1.0046179e-05
1.0064258e-05
1.0075256e-05
1.0090519e-05
1.0103345e-05
1.0129647e-05
1.0165919e-05
1.0205227e-05
1.0274426e-05
1.033676e-05
1.0417474e-05
1.0476636e-05
1.0520939e-05
1.0567005e-05
1.0591887e-05
1.0625766e-05
1.0643066e-05
1.0653386e-05
1.0665594e-05
1.0681516e-05
1.0694808e-05
1.07069e-05
1.0726991e-05
1.0763328e-05
1.081475e-05
1.0848436e-05
1.0928384e-05
1.1035283e-05
1.1161343e-05
1.1249955e-05
1.1372253e-05
1.1522138e-05
1.1618301e-05
1.1806038e-05
1.1910565e-05
1.2069482e-05
1.2101577e-05
1.2150695e-05
1.2225533e-05
1.2299738e-05
1.2370033e-05
1.2554355e-05
1.2699514e-05
1.3003772e-05
1.3160333e-05
1.3397236e-05
1.3703008e-05
1.4010852e-05
1.4242994e-05
1.4642372e-05
1.5038984e-05
1.5398772e-05
1.6158112e-05
1.6720952e-05
1.7975509e-05
1.8655657e-05
1.9903109e-05
2.0647556e-05
2.2440115e-05
2.3340449e-05
2.4826068e-05
2.7017982e-05
2.789019e-05
2.9101758e-05
3.192362e-05
3.350938e-05
3.6721786e-05
3.9222014e-05
4.5843932e-05
1.0000555e-05
1.0009863e-05
1.0023448e-05
1.0052845e-05
1.0092543e-05
1.0166803e-05
1.0216301e-05
1.028439e-05
1.0321679e-05
1.0392104e-05
1.0454077e-05
1.058264e-05
1.0722219e-05
1.0852261e-05
1.1098907e-05
1.1261457e-05
1.1474114e-05
1.162104e-05
1.1727783e-05
1.1831254e-05
1.1873192e-05
1.1935985e-05
1.1953665e-05
1.1969119e-05
1.198132e-05
1.1992801e-05
1.2005946e-05
1.2027168e-05
1.2068261e-05
1.2148938e-05
1.2211909e-05
1.2265944e-05
1.2383532e-05
1.249833e-05
1.2704906e-05
1.2862479e-05
1.3095129e-05
1.3538152e-05
1.3798568e-05
1.4394622e-05
1.4751088e-05
1.5640176e-05
1.609274e-05
1.6875975e-05
1.7487874e-05
1.8348857e-05
1.9085173e-05
2.089077e-05
2.201555e-05
2.465757e-05
2.6789665e-05
2.968483e-05
3.2414557e-05
3.6373199e-05
3.8288599e-05
4.1431711e-05
4.5036422e-05
4.8751799e-05
5.6199807e-05
6.1702849e-05
7.4183507e-05
8.1128963e-05
9.213044e-05
9.8557939e-05
0.00011479446
0.00012342155
0.00013406302
0.00015362155
0.00015780991
0.00016632417
0.00018693057
0.00019544234
0.00021147528
0.00022776435
0.00027177008
1.0001731e-05
1.0047545e-05
1.0079989e-05
1.0158415e-05
1.0217961e-05
1.0366172e-05
1.0455582e-05
1.0641664e-05
1.0771536e-05
1.1053071e-05
1.1280861e-05
1.1720959e-05
1.2166537e-05
1.2501222e-05
1.3033849e-05
1.3302979e-05
1.3688956e-05
1.3921622e-05
1.4130556e-05
1.4353501e-05
1.4489901e-05
1.4668163e-05
1.4730936e-05
1.4824593e-05
1.4887038e-05
1.4958439e-05
1.5089953e-05
1.5390098e-05
1.5796067e-05
1.6403605e-05
1.7004205e-05
1.7509768e-05
1.861917e-05
1.9409371e-05
2.1064986e-05
2.2400456e-05
2.4174177e-05
2.8043591e-05
3.0658859e-05
3.7025124e-05
4.0804678e-05
5.1146376e-05
5.7087698e-05
6.7810574e-05
7.5444844e-05
8.6687315e-05
9.6111092e-05
0.0001190638
0.0001326325
0.00016565065
0.000191766
0.00022459682
0.00026069898
0.00030427379
0.00032418539
0.00035772898
0.00039543571
0.00043646643
0.00051729851
0.00057465886
0.0007010299
0.00078286104
0.00087873068
0.00094141024
0.0010959698
0.0011849718
0.0012774313
0.0014402917
0.0014621046
0.0015274406
0.0016884124
0.0017511351
0.0018588576
0.0019792584
0.0022975745
1.0071875e-05
1.043591e-05
1.0538146e-05
1.0699485e-05
1.0736785e-05
1.0826178e-05
1.0925081e-05
1.1176608e-05
1.1516938e-05
1.2167606e-05
1.2737161e-05
1.3701908e-05
1.4515773e-05
1.5058294e-05
1.578231e-05
1.610723e-05
1.6694634e-05
1.7028797e-05
1.752214e-05
1.8152018e-05
1.8669691e-05
1.9315327e-05
1.9667572e-05
2.0229994e-05
2.0812778e-05
2.1657612e-05
2.2962066e-05
2.5493666e-05
2.8697599e-05
3.4425366e-05
4.0858859e-05
4.7191309e-05
6.0903494e-05
7.0497515e-05
9.0583449e-05
0.00010582339
0.00012532696
0.00016856698
0.00019862878
0.00027187986
0.00031466652
0.00043212345
0.00049775828
0.00061939563
0.00069823109
0.00081947858
0.00091830806
0.0011471181
0.0012796835
0.0016106553
0.0018707515
0.002159552
0.0025359384
0.0029167317
0.0030832401
0.0033754005
0.0036594814
0.0040476226
0.0047103278
0.0051600632
0.00620917
0.0069022565
0.0075785886
0.0080550448
0.0092093531
0.0098080717
0.010581607
0.011529368
0.011628773
0.012037053
0.01310708
0.013510445
0.014154856
0.014845129
0.016692833
1.0312477e-05
1.1595954e-05
1.1955885e-05
1.221013e-05
1.2347927e-05
1.2628368e-05
1.2897073e-05
1.3464134e-05
1.435698e-05
1.5749429e-05
1.6909386e-05
1.9186484e-05
2.1032909e-05
2.2013315e-05
2.3328445e-05
2.3794569e-05
2.4694797e-05
2.536801e-05
2.637758e-05
2.8359339e-05
3.0046786e-05
3.3234091e-05
3.607076e-05
4.1707469e-05
4.8352157e-05
6.0303175e-05
7.4618627e-05
0.00010150405
0.00013343534
0.0001939674
0.00026185999
0.0003304982
0.00048215523
0.00058602733
0.00079206917
0.00094579923
0.0011332734
0.0015568663
0.0018350075
0.0025063764
0.0028969188
0.0039499652
0.0045090177
0.0055809565
0.0062165756
0.0072242033
0.008019218
0.0097776921
0.010775512
0.01323019
0.015207327
0.01700805
0.020025389
0.022515042
0.023555775
0.02539659
0.02706035
0.030076592
0.033398079
0.036226098
0.04299291
0.04705961
0.050392901
0.053229442
0.059784575
0.062619301
0.066902428
0.071250566
0.07152118
0.073284062
0.078075979
0.07996611
0.082911441
0.085687606
0.093436459
1.0183418e-05
1.1010708e-05
1.1649876e-05
1.1988933e-05
1.2540523e-05
1.3060536e-05
1.3823448e-05
1.4968563e-05
1.7765468e-05
2.1710521e-05
2.5031564e-05
2.9540827e-05
3.3637419e-05
3.5747975e-05
3.8722346e-05
4.0261048e-05
4.3334737e-05
4.6655518e-05
5.2791536e-05
6.2064106e-05
7.7968229e-05
0.00010464455
0.00013587931
0.00020227941
0.00027498507
0.00041941686
0.00056771241
0.00085077325
0.0011563475
0.0017269293
0.0023731609
0.0029742113
0.004333923
0.0051950217
0.0068265256
0.0080723665
0.0094860982
0.012818979
0.014798671
0.019534658
0.022259038
0.029421837
0.033028811
0.040225863
0.044038078
0.050237998
0.055073887
0.065109636
0.07084431
0.084768172
0.095888755
0.10487783
0.12213669
0.13338259
0.13853187
0.14735577
0.15451767
0.16965999
0.18502634
0.19655813
0.22464529
0.2446678
0.2554458
0.26843658
0.29593219
0.30546249
0.32098854
0.33690944
0.33677332
0.34237266
0.35744788
0.36249933
0.36876917
0.37634272
0.39881981
1.0153664e-05
1.0779377e-05
1.1592496e-05
1.2166699e-05
1.323608e-05
1.3960479e-05
1.5863741e-05
1.882191e-05
2.2780066e-05
3.1037883e-05
3.5681253e-05
4.4728849e-05
5.1354593e-05
5.7308825e-05
6.8024259e-05
7.9648621e-05
0.00010291198
0.00013642143
0.00019851103
0.00028436036
0.00047236232
0.00070049485
0.0010269216
0.0017119667
0.0023519444
0.0037317862
0.0049757161
0.0074064754
0.0097171855
0.013949669
0.01882555
0.022924889
0.032367016
0.037880037
0.047854026
0.055988147
0.06409671
0.083878863
0.094547635
0.12009621
0.13434912
0.17110185
0.1890142
0.2255436
0.2434586
0.27283725
0.29479568
0.33831345
0.362925
0.42254331
0.47144537
0.50620371
0.58088085
0.61864502
0.63861579
0.67258634
0.69252635
0.73593971
0.79927458
0.83394094
0.91887582
0.99358169
1.0250581
1.0665784
1.1564571
1.18364
1.2318529
1.2724657
1.2627199
1.273692
1.3076012
1.3088327
1.3137939
1.3196496
1.354954
1.153879e-05
1.8398166e-05
2.014769e-05
2.230231e-05
2.487805e-05
2.6926351e-05
3.1645359e-05
3.8828662e-05
4.5014775e-05
6.0169359e-05
6.9283553e-05
9.2376619e-05
0.00011075847
0.00014418192
0.00021583974
0.0003254926
0.00055183595
0.00086757508
0.0014732592
0.0022190148
0.0039853193
0.0057963667
0.0085298178
0.013986102
0.018483838
0.028510226
0.036556921
0.05271148
0.066232079
0.09080111
0.11909707
0.14032428
0.19035235
0.21849556
0.26293537
0.31286886
0.34669304
0.43430117
0.48179132
0.59414501
0.65053818
0.7906629
0.86263002
1.0099788
1.0775244
1.190222
1.2663548
1.4238633
1.5084846
1.7019731
1.8901514
1.9938188
2.2313089
2.3532427
2.4116154
2.5073226
2.5463684
2.6337076
2.8417479
2.9420557
3.1714586
3.4309046
3.5206979
3.6471877
3.9558132
4.0348426
4.1500752
4.2394425
4.1430418
4.1035804
4.1327552
4.0995167
4.0466291
4.0264993
4.0943149
1.2080201e-05
2.4261369e-05
2.6587242e-05
3.4707782e-05
3.6659253e-05
4.2715484e-05
4.6586024e-05
6.0410528e-05
7.1731637e-05
0.00010144757
0.00014058081
0.00022067959
0.00037142155
0.00063133694
0.0012158614
0.0021370539
0.0041036767
0.0065194156
0.011562227
0.0168743
0.029751572
0.041023865
0.059978536
0.09253199
0.11718268
0.17310026
0.21402449
0.29648834
0.35831347
0.46867226
0.59805362
0.68230638
0.88443229
1.0093751
1.1443823
1.3949783
1.5071486
1.7976738
1.9563906
2.3548916
2.5499066
2.9801713
3.2310416
3.7424923
3.9732432
4.365532
4.5980807
5.1233289
5.4070909
5.9508085
6.6089968
6.8769945
7.5216866
7.9007257
8.0852127
8.3378913
8.4236702
8.652823
9.3322757
9.749837
10.502622
11.513755
12.00547
12.563349
13.837555
13.868268
13.925445
13.984128
13.358261
12.552612
12.560126
12.402955
12.122203
12.112274
12.879703
1.0705892e-05
1.4558392e-05
1.6489746e-05
2.3145554e-05
2.5329269e-05
3.4409414e-05
4.3286822e-05
6.7570309e-05
0.00012009662
0.00024647647
0.00051195127
0.0010672841
0.0021566893
0.0041715523
0.0086581953
0.015158467
0.029192714
0.044639343
0.078672673
0.10931627
0.18166355
0.23786673
0.33885276
0.49149609
0.59733088
0.83713121
1.0043546
1.3307413
1.5783321
1.9521857
2.441094
2.7245932
3.3980022
3.876773
4.2835329
5.1722343
5.5339578
6.4930869
6.9870654
8.2502743
8.9210499
10.150475
11.072508
12.82793
13.695435
15.252171
16.055217
17.865148
18.787795
20.293492
22.217775
23.02842
25.452779
26.952106
27.660348
28.712328
29.38728
31.207448
33.34479
36.872069
39.088659
42.909524
51.583623
51.965344
54.593141
52.788201
51.155533
46.976445
45.32456
42.1694
42.705737
42.277378
41.778375
43.194618
54.748637
1.0165748e-05
1.1187405e-05
1.2422855e-05
1.4774552e-05
2.1034813e-05
4.0229074e-05
9.9262622e-05
0.00025887344
0.0006496168
0.001564754
0.0034771647
0.0075511301
0.015023286
0.028847981
0.057706916
0.095673912
0.17696988
0.25569598
0.43247193
0.57297487
0.89493254
1.1212229
1.5367392
2.1116833
2.4847575
3.328867
3.9152348
4.9386524
5.9806319
6.884536
8.5439644
9.533994
11.73071
13.434614
14.715035
17.790819
18.986363
22.838503
24.619773
29.021676
31.694723
34.243723
40.239794
47.268599
51.18282
59.62618
62.115052
67.276232
68.689991
76.178996
79.087174
86.756339
105.7917
111.95623
110.25251
124.37781
127.74644
147.94295
142.30891
174.55024
169.97927
209.13807
222.51548
189.52423
174.8416
141.56457
146.48252
137.1088
146.57029
145.9418
165.23476
159.53763
160.7226
210.67737
219.79738
1.1854496e-05
1.4732428e-05
1.9381781e-05
3.3664707e-05
8.3002419e-05
0.0002465633
0.0007225497
0.001939177
0.0047475369
0.011169357
0.023731655
0.051164821
0.09371126
0.17772312
0.31801715
0.50891433
0.88516186
1.207011
1.9359454
2.4549355
3.6111657
4.3730562
5.8107251
7.6147768
8.8534651
11.707299
13.604308
16.801198
20.095547
22.924755
28.887543
32.971149
40.777701
46.17467
51.232685
65.57353
68.697107
93.084042
96.956454
111.81272
123.09999
128.19813
196.89575
214.27455
225.46798
285.9674
274.96219
273.55866
273.19347
324.85736
323.85694
401.38429
399.25839
325.33156
379.8108
403.25209
447.98253
451.1138
395.04201
525.19374
490.45066
500.42287
307.51889
244.24585
126.11711
127.20309
177.65857
165.31257
207.98752
213.14421
228.6883
261.67037
357.46312
383.76205
234.96951
1.3965048e-05
2.5681277e-05
4.5929043e-05
0.00013448499
0.00046775931
0.0015798273
0.0047421789
0.012523362
0.029690869
0.069505665
0.13904694
0.28472196
0.49082781
0.94849209
1.4084781
2.3641825
3.5817276
4.743326
7.2773699
8.8948881
12.497476
14.884542
19.803199
25.033889
29.612654
39.971431
45.838755
57.917996
65.929394
81.219477
111.98454
127.19876
153.7732
172.11728
207.79546
299.51276
274.5569
457.77177
407.59225
463.95944
515.27102
516.64643
848.72654
681.11652
722.25656
863.1026
665.90277
573.10407
541.58622
529.93464
659.58955
633.85187
379.94917
305.32719
482.16967
323.48302
358.57708
274.3843
283.49496
285.11325
234.82573
133.77412
59.176259
44.075301
34.326979
41.3373
48.080827
51.853909
75.225952
91.149671
88.299598
140.83788
213.21722
140.70885
56.411918
1.0974911e-05
2.8290361e-05
0.00013551021
0.00069516703
0.0028641884
0.009610871
0.027833987
0.070007892
0.15839074
0.37327884
0.68499936
1.3013426
2.2018988
3.8184654
5.4930167
9.2231555
12.136369
16.668724
23.946573
28.791457
40.741569
48.855681
67.535792
84.613691
105.0405
143.72764
162.39286
223.25535
248.99796
385.80139
517.4309
541.55219
654.73573
698.87859
886.49977
841.0532
1189.9896
1150.1899
834.45954
762.84559
662.77694
1165.2596
935.63639
368.87691
646.26179
386.60219
175.06555
144.27132
139.82338
151.09163
188.55824
108.52729
48.372978
52.917253
54.477119
40.862184
35.401689
29.67852
52.123678
45.562684
37.085393
34.1753
36.878929
35.674258
29.092032
29.904533
34.380491
36.594342
33.839905
34.055408
34.537565
38.568635
44.916705
41.485401
37.227323
9.4631784e-06
7.4668253e-05
0.00078118758
0.0043206499
0.017232621
0.054326087
0.14783474
0.35034648
0.74279332
1.6930903
2.8520414
5.1835405
8.5561346
12.916476
19.55105
30.375388
38.831284
55.922674
73.814149
93.229691
143.5917
172.27772
258.0998
328.16506
438.48391
569.70213
668.39688
1003.2655
974.21072
1569.9597
1276.7999
1097.0648
1124.9457
1034.8951
991.24293
745.50439
1718.2511
365.917
288.228
133.22544
112.52582
434.0301
85.299013
62.325629
88.489919
61.269596
36.317213
36.587055
35.995962
36.719872
40.55335
37.022741
29.067193
30.107805
41.557438
33.903459
26.564314
22.85938
24.795779
29.116082
34.696155
34.815674
38.796611
37.998706
32.631277
54.705407
73.005248
55.393231
39.988012
30.400528
27.955346
32.302107
37.175271
35.588271
38.963885
7.5973267e-06
0.00048823648
0.0049170814
0.02512708
0.09205701
0.26876485
0.68471954
1.5357082
3.0133013
6.4509963
10.272133
18.85055
27.00542
43.163878
67.989492
92.059048
126.01397
192.00042
248.1354
354.64743
595.50792
709.64157
1121.5024
1084.6171
1331.1199
1321.3201
1627.646
1420.1726
1256.4605
1330.1386
388.12936
292.67001
162.37968
131.65983
108.33263
298.76974
349.27209
52.315924
51.883482
53.470422
65.303066
154.80995
40.083136
38.105353
67.484478
48.996976
27.323472
27.459754
31.449715
29.196205
28.455649
33.941526
28.519121
27.020628
32.47676
33.192938
28.034341
26.92403
24.954647
27.931857
26.809035
28.078086
32.39804
37.68466
37.705872
49.772261
45.368091
45.765673
48.730857
40.345681
30.122355
33.566388
30.687032
32.300124
45.374876
1.5152658e-06
0.0032079024
0.028322192
0.13049534
0.43246769
1.1602337
2.7648717
5.8281024
10.698516
21.47326
33.783058
60.190946
86.172592
155.00496
222.66259
303.4255
487.67738
748.17394
970.66642
1498.7115
1522.9054
1825.1096
1589.5975
1070.1156
1128.2555
628.38638
687.57595
307.14803
640.43065
131.97204
33.742159
33.119363
40.57517
33.79609
56.050982
106.42554
66.214888
34.899786
34.196386
55.350233
49.906276
72.481477
30.354555
23.223169
31.193608
28.995367
24.306604
23.205572
26.329599
29.938853
38.194677
29.931929
26.227537
26.681599
28.496463
38.725885
38.476206
31.682677
34.949467
33.801403
28.041161
28.382086
28.393587
35.500928
35.188152
53.528615
58.955701
44.604791
42.513238
41.215578
40.610678
36.736207
32.291346
35.04854
47.9078
8.2269289e-05
0.018827368
0.14367173
0.59306469
1.7746258
4.3846309
9.654361
19.39199
34.805723
67.779411
109.74859
194.07952
287.62699
605.36844
803.18603
1193.3857
1487.3768
1766.6943
1792.1187
1881.3109
936.57984
759.32752
244.03795
151.31594
124.3621
95.327154
103.69984
56.441879
237.84873
33.946318
17.158559
28.614765
23.974905
51.394103
50.794051
74.888671
74.7108
35.298211
28.509719
74.075906
68.755999
51.196591
21.729743
21.347729
22.212725
28.071191
24.58633
30.403619
29.568668
39.771976
31.738968
32.439493
26.522009
25.724063
28.101684
41.508773
39.651577
32.38495
30.061325
27.360503
25.47352
26.589964
27.877476
33.221513
41.91899
46.556939
44.425072
37.541147
39.491163
41.503736
41.101911
41.91482
40.428097
38.924967
47.61911
0.0013104782
0.10132623
0.648795
2.3672249
6.3894211
14.676489
30.222148
59.863085
111.43651
222.38999
378.20826
699.98404
1102.7045
1860.7854
1806.784
1789.5757
1481.4784
1046.0282
880.87103
286.42495
106.3443
82.909026
27.930016
27.620291
35.101534
21.773036
26.241145
23.409587
74.791764
44.309198
16.161785
15.706613
19.685206
27.873651
50.079081
66.322471
94.323525
33.580564
26.593
67.678955
82.244845
47.177224
21.36963
22.549785
25.938288
35.60009
31.724144
25.31587
27.019966
28.451805
27.447696
35.974983
32.538917
33.472352
39.573576
43.555445
37.470899
29.654923
25.726447
23.130817
24.050298
27.528582
28.89138
32.657643
83.20342
66.204929
51.479667
37.813609
35.194649
44.35462
43.52864
35.978372
31.64648
31.695682
45.951624
0.012148038
0.48351078
2.5974149
8.3228209
20.462865
44.557283
91.368883
187.64491
374.7174
830.775
1483.8889
1784.5048
2111.4179
1949.3947
747.55901
449.52683
247.98116
195.07788
178.12777
21.715766
16.233794
20.178724
20.918267
19.833295
19.215176
28.382567
21.192217
21.144375
28.262565
19.894878
12.120141
17.761867
18.931368
21.609072
141.13466
89.011769
55.555467
28.965383
25.192746
29.567013
61.913289
35.316639
21.795192
25.061961
36.58799
36.157074
33.243787
31.602327
29.199565
27.815876
26.204401
33.138238
29.467837
26.663454
29.813477
28.39547
25.400982
29.68622
28.557767
26.073557
26.220193
29.699676
32.951339
32.906367
77.766137
71.764069
56.033567
45.271312
34.866234
37.870732
35.207815
34.561365
29.472739
30.094688
47.181083
0.086462147
2.0528683
9.1916608
26.052071
59.973686
130.91704
282.15747
650.50959
1442.2517
2101.2925
2035.177
1468.0731
915.38439
308.26788
75.059701
63.376926
38.78778
47.282477
19.233389
5.5445557
10.273507
52.516401
24.77778
36.109876
26.916252
19.452793
15.996446
15.256896
30.052034
15.697962
10.663408
11.282595
31.774573
39.385827
42.43892
69.541723
58.118903
29.253946
25.443719
27.423301
35.711304
30.390726
24.251441
22.572673
45.034733
33.754525
30.247654
32.319991
38.642519
31.233858
29.664948
29.453715
27.226501
25.838641
31.591499
29.830263
28.742996
33.858449
31.823609
25.599799
28.062681
34.920724
35.240752
32.58134
47.735559
60.77657
52.183826
50.481318
39.073723
36.472512
39.638091
47.168133
35.31568
32.660265
51.941737
0.51342202
7.756993
28.983421
74.52851
168.67906
396.29731
985.37748
1845.746
2511.5434
1799.7325
480.65112
274.84421
164.50488
25.227345
13.692375
13.739109
10.788909
22.381226
26.836526
5.3340138
16.8294
44.374988
16.278221
78.134764
50.882579
15.674009
12.333699
17.737198
102.13999
14.166215
8.9388098
12.944039
22.597512
24.470281
53.295724
47.65707
33.190951
28.763166
31.206483
26.897553
23.131257
22.662004
29.24201
22.850354
26.01598
27.830209
29.418306
36.185186
34.05426
35.456945
40.89881
33.406821
29.094949
24.368782
35.049962
29.802315
29.680022
39.229403
44.345856
36.01023
36.195383
36.759309
34.397972
31.810042
40.881678
44.721743
56.786908
54.310793
45.216501
41.896515
52.477293
56.586258
43.979442
41.574249
63.733047
2.6495649
26.116983
83.091754
202.62647
487.20731
1369.3049
1948.1599
1974.3157
1263.1732
305.65342
71.99716
49.788657
20.025517
8.8275822
11.491366
8.1971942
6.4939852
17.098704
23.228362
6.7227901
15.309695
23.371564
15.088047
111.6825
28.029389
11.898303
11.081823
13.051858
97.261298
13.960877
8.6513122
15.607565
12.64451
23.863312
18.831631
20.241676
29.576393
28.00718
40.739489
40.672114
22.627058
23.772039
34.588854
27.135941
23.780354
29.165
29.090468
29.768051
44.446548
50.10872
48.267811
33.143241
32.268865
28.088877
23.8789
24.495335
29.822051
40.363242
43.054682
48.405228
41.993757
36.218357
36.191006
34.011716
34.438552
44.37826
64.696151
61.221427
56.871004
48.049433
72.380407
112.66562
79.926951
79.204636
95.364833
12.12958
79.125644
222.53062
557.43272
1572.642
2171.4952
1436.8233
676.34879
375.63634
40.780982
30.547499
21.777607
4.8468009
8.4826886
11.702828
6.64827
5.9378912
11.803571
6.8601805
8.0967515
10.080656
20.371559
17.744969
131.43235
52.550658
13.377839
10.250471
14.014821
36.73376
10.129719
8.569941
13.213198
17.637973
16.694762
16.363435
15.479201
18.004058
25.34723
36.187291
35.480658
33.738617
25.433924
33.949835
27.837465
27.131548
36.65434
34.819866
43.518496
53.552611
40.819049
44.716392
37.035417
35.061988
27.94528
25.658267
26.378227
33.239221
37.020878
37.436898
45.052625
39.816529
37.250139
38.500775
38.983736
58.227765
55.932371
63.069736
57.071818
71.023183
54.823204
98.593978
180.53483
154.99199
180.80523
170.65028
50.200046
216.99189
584.92734
1659.4333
2168.7547
1146.3874
534.28058
267.86904
67.896865
10.300679
37.126874
20.073346
3.9476798
7.5601505
14.403255
5.7642297
5.2256557
11.753427
5.8782793
8.1610412
10.310826
25.698615
19.995901
76.645469
17.470524
11.802464
10.487825
14.373586
13.928329
9.2341136
9.9079342
12.170457
13.385246
22.684155
17.310713
13.098615
14.075541
33.886544
48.594175
82.759637
55.373466
29.898659
23.259861
24.439982
31.076715
51.457304
47.083057
38.291771
34.735403
25.12157
31.204841
39.364283
41.18296
33.06362
45.354963
45.577454
51.227103
46.978925
40.317716
38.820666
39.874519
38.848282
40.220929
45.868205
47.936871
73.679309
62.81718
65.268618
126.92502
98.962976
132.89865
294.39255
212.12075
245.11489
200.63689
178.46372
552.82203
1634.5878
2164.7872
1039.3143
393.3189
177.67954
75.71555
11.195111
6.2584996
15.692342
15.815489
3.6905288
6.5418972
20.565965
5.020065
3.7582991
12.596901
10.38086
9.2024094
8.4057952
11.683738
15.826615
22.539852
19.697542
9.6400051
12.841875
15.183002
17.369118
9.340925
12.424352
13.275946
24.143745
17.75325
13.345059
13.957624
15.413766
28.049942
89.064329
242.78092
105.80438
37.700344
21.907577
23.358347
37.456103
58.965923
56.984377
43.154588
30.624692
24.462407
29.088019
40.007198
41.499004
49.568699
86.698684
73.008286
54.887233
53.741455
50.479112
47.860435
43.649669
41.118017
44.495282
50.069487
50.580609
57.843547
54.137561
79.512722
150.79284
260.43878
213.65152
261.82635
114.22342
141.74589
166.77551
523.63142
1429.6143
2631.8864
1303.6243
356.55233
119.20682
47.574765
24.679821
7.580934
4.06969
4.503131
11.710098
3.6586607
6.6901203
21.021015
5.0416664
2.8135157
14.652779
24.50635
11.917822
7.7230899
7.8171956
14.355981
16.800783
11.493974
8.6853143
20.079279
19.980256
19.120379
8.5572417
18.074196
13.073462
14.45802
15.248751
13.683385
16.93385
24.549888
42.122875
51.063946
142.27841
114.38029
45.302976
22.328095
25.984827
55.498246
60.598877
60.824647
54.150137
38.445648
27.125165
48.130372
40.318824
40.571164
53.714959
77.114506
74.824345
56.998108
60.44427
54.807543
46.00339
48.478231
44.567349
48.575429
50.024294
43.771591
39.51941
57.133028
107.26727
118.04438
364.34529
221.91575
73.92203
42.874442
56.67527
94.988845
1497.8964
2930.1215
2116.7174
492.10807
84.480083
31.714827
15.368524
11.233612
4.9255565
4.0238672
3.3742387
8.9058287
3.6693658
6.3611271
14.224861
5.828837
2.6422502
12.219359
35.138977
12.397587
5.958108
6.9704794
12.454188
20.463413
9.9865553
15.784722
31.501409
22.315801
11.670677
8.2674312
28.249474
13.255595
22.113796
17.620328
14.713
17.003142
23.685937
17.184219
29.717669
32.062063
30.549743
34.420518
23.271275
30.497515
57.299926
56.460911
59.418927
48.706043
99.735523
45.333319
43.344159
39.318264
45.78758
53.510266
70.026576
60.453745
57.077488
66.326787
56.489039
39.414008
41.010004
46.559662
49.779263
47.749102
37.24621
39.374298
96.865751
105.92916
99.687618
243.49002
180.40756
46.340274
38.347257
50.301709
72.379023
4242.1803
3210.9099
820.5091
89.955432
14.603587
9.3873423
7.7195742
6.4310677
3.9366382
4.431956
3.6043487
7.6515713
4.0674123
4.8591646
12.872837
6.8044773
2.7313423
6.0897693
23.381094
12.448201
5.8890044
6.2498262
7.5507683
29.843682
10.253032
34.776956
44.408945
23.255137
11.442803
8.4400567
40.069747
14.465678
20.10557
18.543497
15.083671
18.345931
18.311892
13.966913
37.609026
33.08198
29.639974
26.206274
23.46595
34.227958
52.976461
50.251117
60.589919
49.67006
56.782828
54.902257
51.607803
41.845015
53.351366
103.01802
75.568639
43.923044
119.73815
79.936806
49.361554
34.61699
37.182192
42.713529
50.672578
48.016146
40.887929
53.106356
78.204147
88.682024
143.2225
77.780123
105.79294
37.961845
39.70888
57.174008
66.673151
7864.715
1647.8616
166.85859
10.419111
4.0076264
4.5124648
5.1684968
4.5867945
3.8785209
4.5938062
2.8882269
7.1449708
4.2979984
3.1033337
13.248761
9.0745254
3.2203446
4.8194914
13.16461
9.1276152
6.0779538
6.1203885
6.0304909
28.795243
12.11781
19.126867
33.491992
24.089952
11.467593
8.4679356
50.052452
16.833662
12.888151
19.025819
15.371109
12.265418
14.54864
13.23063
39.382068
33.359931
22.852574
20.756272
23.506542
57.33007
58.656587
47.713581
45.184564
45.997431
92.054363
59.071749
47.962048
35.962753
60.046954
163.08585
70.808906
38.252244
78.056826
68.608893
45.800907
33.73513
41.070975
45.905073
47.945986
64.217189
69.993495
60.709481
64.62659
59.532104
62.868323
90.016729
79.550692
22.118525
38.628403
70.638073
72.594364
1477.1452
280.82635
18.548085
1.647806
2.8563099
3.2818442
4.0498476
3.8972729
4.3991795
3.7669268
2.1038566
6.0628818
4.1403001
2.5113388
5.5955221
15.173155
4.8537501
9.8990646
14.798121
8.9268541
5.402335
6.1343299
5.6136646
25.731342
13.235575
13.390375
43.349333
27.480343
11.143767
8.3411228
56.503666
17.938737
11.52956
13.043889
12.591833
11.402647
17.542278
13.540919
18.205038
27.831436
23.583684
19.079695
25.245769
67.888443
64.322758
37.767207
43.066705
39.788546
56.931527
50.955258
47.076634
32.730915
44.209943
131.01413
70.261088
37.493819
66.762784
65.824608
43.555652
33.628395
40.767817
60.581077
60.143993
47.591316
49.527907
109.56318
63.378226
53.530626
103.82639
59.804631
56.343725
16.004962
25.745467
101.22409
86.46909
98.991665
26.440945
2.6282746
0.79034682
2.4383048
2.7979941
3.5404278
3.7800881
5.3753787
3.4958105
1.9780781
4.9106369
4.1947396
2.4668681
3.4407794
14.675127
8.5221394
34.126
17.471383
9.5771734
4.6856552
6.6936369
5.8912427
26.170167
14.343452
43.340185
37.28702
26.826427
10.882338
7.6503069
64.695571
20.022654
12.841062
11.925347
11.784572
11.422917
18.572674
12.733401
16.049042
28.720511
24.655165
20.412911
28.055647
54.524921
51.386372
29.960018
42.143028
39.374335
35.304879
58.416703
52.592123
32.311512
32.171763
140.86255
72.491074
37.541401
71.108775
53.02147
40.110141
35.443719
33.384709
58.546271
65.893419
47.842595
51.420772
82.865698
44.013988
63.621473
38.246078
24.463344
20.480107
7.0657774
15.967409
73.11192
75.720572
3.7644046
1.9696055
1.2377001
0.71050602
1.8635319
2.4775951
3.3310371
3.8919834
5.6460565
3.4431763
1.9838255
4.1404841
4.1985112
2.4796246
3.3739435
7.4245209
10.290229
19.224896
8.7575966
10.289548
4.5137679
8.0462034
6.4585691
24.359761
14.260999
36.772614
50.762336
29.478178
11.189355
7.23421
64.527762
25.50112
16.907629
11.647523
11.840164
10.298413
15.426329
12.4664
17.41841
20.58588
20.420513
18.871992
27.903347
34.33092
34.32398
26.200288
34.553054
41.230807
45.884774
41.253055
44.283972
29.856105
35.696568
135.62302
63.861904
36.47732
48.64077
48.109034
43.580787
36.758103
31.377413
41.28665
62.693016
56.78434
49.911191
53.936767
45.019342
38.208852
15.457384
3.5129393
6.1216332
5.8672307
12.451261
88.53711
50.004039
1.0050742
0.58770086
0.98545666
0.70279579
1.3860525
2.304093
3.2364326
4.0418545
5.491912
3.1297187
2.0524491
3.4313352
3.8035721
2.7162468
3.7996318
3.7550339
10.176829
27.8302
4.3237968
6.9385113
4.3118756
9.5188863
6.7003218
18.465726
13.8517
88.097243
45.181044
24.798861
9.6462273
7.2076989
38.960786
25.629418
15.343181
12.193589
10.817107
10.410002
14.17584
12.271317
18.918491
16.587833
20.507613
19.83472
26.363568
30.717289
30.521635
24.812286
31.035487
39.061132
55.34555
36.086172
43.147568
29.285566
36.30486
108.02814
57.365697
34.98896
33.515717
45.382612
43.093913
36.180317
30.324357
31.384972
57.912098
62.040852
56.072155
51.362923
25.937684
10.377563
4.8461731
1.0977602
9.2437544
7.4498446
11.594065
68.128423
61.301031
0.94929143
0.50986824
0.73995639
0.72931609
1.1215717
2.1977336
3.2192799
4.1359327
4.7336991
3.1436318
2.204936
3.0923869
2.9841436
2.7841323
3.6532873
3.3983018
9.5247712
17.77945
3.7421123
5.2099524
4.0405365
11.247977
10.536244
14.949604
8.6770612
22.84749
49.661259
25.332417
10.010153
7.900796
34.726435
23.666376
16.820287
12.214996
10.259658
9.8185871
14.429024
12.071435
15.861798
14.912001
17.932233
25.358018
27.029879
28.554202
26.352329
24.251316
30.700099
45.173501
41.973242
27.558664
29.842937
22.545597
31.910728
63.772105
52.489518
33.702502
45.613734
43.201374
38.774083
33.969376
29.026979
30.728553
53.782902
75.257628
50.594586