/*--------------------------------*- C++ -*----------------------------------*\
| =========                 |                                                 |
| \\      /  F ield         | OpenFOAM: The Open Source CFD Toolbox           |
|  \\    /   O peration     | Version:  2.3.0                                 |
|   \\  /    A nd           | Web:      www.OpenFOAM.org                      |
|    \\/     M anipulation  |                                                 |
\*---------------------------------------------------------------------------*/
FoamFile
{
    version     2.0;
    format      ascii;
    class       volScalarField;
    location    "1.1e-05";
    object      nuSgs;
}
// * * * * * * * * * * * * * * * * * * * * * * * * * * * * * * * * * * * * * //

dimensions      [0 2 -1 0 0 0 0];

internalField   nonuniform List<scalar> 
7500
(
4.1405438e-10
4.19122e-10
4.2425609e-10
4.2938729e-10
4.3429761e-10
4.3927549e-10
4.4424829e-10
4.4918323e-10
4.5424805e-10
4.5908661e-10
4.6423685e-10
4.7001028e-10
4.7513574e-10
4.8030512e-10
4.8537504e-10
4.904772e-10
4.9597124e-10
5.0209243e-10
5.0744648e-10
5.1279444e-10
5.1778138e-10
5.2325753e-10
5.2902332e-10
5.3314235e-10
5.3715015e-10
5.4138336e-10
5.4540521e-10
5.4936747e-10
5.5333902e-10
5.5777273e-10
5.6389824e-10
5.6812013e-10
5.7322214e-10
5.8009442e-10
5.8574741e-10
5.8970632e-10
5.9447053e-10
5.9876162e-10
6.0488753e-10
6.1707361e-10
6.2623984e-10
6.3439604e-10
6.3929707e-10
6.4534063e-10
6.49766e-10
6.5373528e-10
6.5738088e-10
6.6190852e-10
6.6777612e-10
6.7188788e-10
6.7566778e-10
6.8060179e-10
6.8798592e-10
6.9287073e-10
6.9964582e-10
7.0622102e-10
7.1440987e-10
7.2438962e-10
7.3527736e-10
7.4326624e-10
7.597204e-10
7.6916886e-10
7.8536556e-10
7.9651255e-10
8.1430303e-10
8.3203179e-10
8.5487844e-10
8.6992121e-10
8.9194666e-10
9.0401234e-10
9.2541058e-10
9.4644147e-10
9.8572617e-10
1.0096787e-09
1.0625412e-09
4.5546356e-10
4.6099215e-10
4.6646868e-10
4.7201317e-10
4.7765704e-10
4.8320007e-10
4.8875592e-10
4.943958e-10
4.9981869e-10
5.0530348e-10
5.1068372e-10
5.163633e-10
5.2226068e-10
5.2820207e-10
5.3488837e-10
5.4137086e-10
5.4831054e-10
5.546578e-10
5.6058052e-10
5.6651649e-10
5.7184706e-10
5.7738061e-10
5.8242221e-10
5.8722672e-10
5.9203608e-10
5.969023e-10
6.0164897e-10
6.0631495e-10
6.1116158e-10
6.1642908e-10
6.2209098e-10
6.2720449e-10
6.3361959e-10
6.4078656e-10
6.4848187e-10
6.5505955e-10
6.6258724e-10
6.7088832e-10
6.7759345e-10
6.9385746e-10
7.0120663e-10
7.1013021e-10
7.152888e-10
7.2091063e-10
7.2725977e-10
7.3355629e-10
7.3970156e-10
7.4922158e-10
7.5754006e-10
7.705544e-10
7.7914243e-10
7.9006818e-10
8.029672e-10
8.1585854e-10
8.2648765e-10
8.4189023e-10
8.5710575e-10
8.7117515e-10
8.9630816e-10
9.1570357e-10
9.5343389e-10
9.7531402e-10
1.0114697e-09
1.034295e-09
1.0824433e-09
1.1081407e-09
1.1471166e-09
1.2010448e-09
1.2246272e-09
1.2553066e-09
1.3192441e-09
1.356121e-09
1.424265e-09
1.4766423e-09
1.6014038e-09
5.0103739e-10
5.0730658e-10
5.1363563e-10
5.2032665e-10
5.2724764e-10
5.3504449e-10
5.4216452e-10
5.4975078e-10
5.5648353e-10
5.6407903e-10
5.7141936e-10
5.8056107e-10
5.8999595e-10
5.9915828e-10
6.1152914e-10
6.2157371e-10
6.3299116e-10
6.4258324e-10
6.510456e-10
6.5939353e-10
6.65993e-10
6.7313766e-10
6.789656e-10
6.8467702e-10
6.9024086e-10
6.9572853e-10
7.0120911e-10
7.0687199e-10
7.1306992e-10
7.2039663e-10
7.2716026e-10
7.3361596e-10
7.419345e-10
7.5013656e-10
7.6105849e-10
7.704783e-10
7.8210917e-10
7.9993756e-10
8.1228339e-10
8.4277373e-10
8.5838979e-10
8.892158e-10
9.0733595e-10
9.3456171e-10
9.5679052e-10
9.855592e-10
1.0106758e-09
1.0631217e-09
1.0971588e-09
1.1671763e-09
1.2228121e-09
1.2936504e-09
1.3584779e-09
1.4459925e-09
1.490607e-09
1.5577899e-09
1.6315478e-09
1.7051023e-09
1.8387477e-09
1.9349498e-09
2.1305727e-09
2.2372774e-09
2.3937935e-09
2.4856994e-09
2.6930583e-09
2.8030348e-09
2.9322485e-09
3.1502971e-09
3.2043356e-09
3.3011143e-09
3.511575e-09
3.60261e-09
3.7596843e-09
3.9142262e-09
4.2889741e-09
5.5117353e-10
5.5908662e-10
5.6659049e-10
5.7535679e-10
5.835649e-10
5.9429158e-10
6.0332462e-10
6.1514011e-10
6.253291e-10
6.3991516e-10
6.5294395e-10
6.7208648e-10
6.9132597e-10
7.0737607e-10
7.2896402e-10
7.4312605e-10
7.6052924e-10
7.7364993e-10
7.860963e-10
7.9891558e-10
8.0930328e-10
8.2083395e-10
8.2909651e-10
8.3818277e-10
8.4634058e-10
8.5470317e-10
8.6474089e-10
8.7957414e-10
8.9738113e-10
9.2079903e-10
9.438635e-10
9.6416457e-10
1.0007282e-09
1.0282832e-09
1.0779673e-09
1.1184567e-09
1.1689099e-09
1.2664437e-09
1.3318682e-09
1.4867974e-09
1.5704358e-09
1.7688316e-09
1.8798235e-09
2.0607008e-09
2.1860285e-09
2.3563981e-09
2.4948431e-09
2.7918258e-09
2.9622548e-09
3.3277491e-09
3.5987742e-09
3.9142102e-09
4.2378432e-09
4.6004492e-09
4.7710923e-09
5.0351474e-09
5.3180018e-09
5.612072e-09
6.1364616e-09
6.4955336e-09
7.2044963e-09
7.6448136e-09
8.132156e-09
8.4505494e-09
9.1532912e-09
9.553878e-09
9.9565234e-09
1.0610683e-08
1.072884e-08
1.1004181e-08
1.1608971e-08
1.1862069e-08
1.2261323e-08
1.2692494e-08
1.3717662e-08
5.995257e-10
6.1809373e-10
6.2891761e-10
6.4151217e-10
6.5037661e-10
6.6079278e-10
6.7148836e-10
6.8688011e-10
7.0501476e-10
7.3255899e-10
7.5752278e-10
7.9392702e-10
8.2557103e-10
8.4934141e-10
8.781275e-10
8.9573677e-10
9.2061455e-10
9.3847847e-10
9.6071407e-10
9.8663903e-10
1.0094581e-09
1.0356782e-09
1.0539862e-09
1.0778948e-09
1.1022929e-09
1.1335134e-09
1.1763958e-09
1.249192e-09
1.3354898e-09
1.4736782e-09
1.6173129e-09
1.7507033e-09
2.0029836e-09
2.1700167e-09
2.4766612e-09
2.6949212e-09
2.9521508e-09
3.445978e-09
3.7644977e-09
4.4318468e-09
4.7971484e-09
5.6555604e-09
6.1058726e-09
6.8508268e-09
7.3153197e-09
7.969524e-09
8.4828809e-09
9.5322452e-09
1.0121419e-08
1.1414266e-08
1.23643e-08
1.3351094e-08
1.4539091e-08
1.5667831e-08
1.6185177e-08
1.7013375e-08
1.7795615e-08
1.8799249e-08
2.036881e-08
2.1410656e-08
2.3585485e-08
2.4969669e-08
2.6270277e-08
2.719081e-08
2.9186716e-08
3.0235015e-08
3.1521541e-08
3.3022774e-08
3.3283056e-08
3.3980389e-08
3.5579525e-08
3.6243333e-08
3.721857e-08
3.82367e-08
4.06727e-08
6.4117676e-10
6.8919359e-10
7.0916891e-10
7.2606029e-10
7.3951963e-10
7.572796e-10
7.7473157e-10
8.0115041e-10
8.3709482e-10
8.8694293e-10
9.2950548e-10
1.0011927e-09
1.059769e-09
1.0958669e-09
1.140055e-09
1.1633384e-09
1.1972163e-09
1.225565e-09
1.2619911e-09
1.3211642e-09
1.3727888e-09
1.4572039e-09
1.5320014e-09
1.6621586e-09
1.8054688e-09
2.0337735e-09
2.2816127e-09
2.6833819e-09
3.101964e-09
3.7702098e-09
4.4154609e-09
4.9992866e-09
6.0847364e-09
6.7589003e-09
7.916121e-09
8.7134499e-09
9.6064919e-09
1.1339083e-08
1.2395809e-08
1.4585879e-08
1.5786354e-08
1.8555217e-08
1.9953471e-08
2.2340507e-08
2.3726269e-08
2.573467e-08
2.7278143e-08
3.0300389e-08
3.1995359e-08
3.5657138e-08
3.8445308e-08
4.0884275e-08
4.4605758e-08
4.7551924e-08
4.8895862e-08
5.103449e-08
5.2948902e-08
5.6102314e-08
5.9410873e-08
6.2175278e-08
6.805666e-08
7.1536154e-08
7.4366908e-08
7.6776705e-08
8.1728178e-08
8.4008023e-08
8.7205342e-08
9.0372909e-08
9.0918077e-08
9.240462e-08
9.5757152e-08
9.7287488e-08
9.944226e-08
1.0147314e-07
1.0635245e-07
6.622836e-10
6.986655e-10
7.2888333e-10
7.4971939e-10
7.7724296e-10
8.0380947e-10
8.3780162e-10
8.8302622e-10
9.7412757e-10
1.0901923e-09
1.1848189e-09
1.3024517e-09
1.4060766e-09
1.4661498e-09
1.5431159e-09
1.5908815e-09
1.6684213e-09
1.749639e-09
1.8806477e-09
2.0601315e-09
2.3324154e-09
2.7289941e-09
3.1401096e-09
3.8680865e-09
4.5525747e-09
5.6746519e-09
6.6623487e-09
8.2290849e-09
9.6784605e-09
1.1930379e-08
1.4105033e-08
1.5923185e-08
1.938025e-08
2.1390927e-08
2.4717041e-08
2.7089588e-08
2.9593536e-08
3.4663915e-08
3.7523893e-08
4.3430399e-08
4.6696915e-08
5.4071019e-08
5.7692888e-08
6.4110179e-08
6.7536747e-08
7.2618578e-08
7.6535832e-08
8.3758798e-08
8.792905e-08
9.6788851e-08
1.0358084e-07
1.0898893e-07
1.1832255e-07
1.2438199e-07
1.274989e-07
1.3225119e-07
1.3619178e-07
1.4350242e-07
1.506803e-07
1.561415e-07
1.6781013e-07
1.7604293e-07
1.8080262e-07
1.8628004e-07
1.9656089e-07
2.0067874e-07
2.0670687e-07
2.1277528e-07
2.1372484e-07
2.1648351e-07
2.2219726e-07
2.24756e-07
2.2768217e-07
2.3099711e-07
2.388007e-07
6.7931922e-10
7.1074672e-10
7.4821117e-10
7.7786924e-10
8.2310584e-10
8.5734855e-10
9.2666083e-10
1.0231608e-09
1.1406974e-09
1.3489949e-09
1.4650392e-09
1.6610579e-09
1.8019471e-09
1.9267583e-09
2.1243098e-09
2.3256936e-09
2.6741404e-09
3.1138186e-09
3.7980461e-09
4.595531e-09
5.9867556e-09
7.3676773e-09
9.0135199e-09
1.1756996e-08
1.3919137e-08
1.7706636e-08
2.0644998e-08
2.5429294e-08
2.9401796e-08
3.5554599e-08
4.1680647e-08
4.640865e-08
5.5631481e-08
6.0707032e-08
6.8817574e-08
7.5064996e-08
8.0984281e-08
9.340021e-08
9.9961321e-08
1.1355435e-07
1.2104237e-07
1.3765045e-07
1.4577334e-07
1.604272e-07
1.6790334e-07
1.7903405e-07
1.8742834e-07
2.021994e-07
2.1087722e-07
2.2909417e-07
2.4361736e-07
2.5411308e-07
2.7399211e-07
2.8458007e-07
2.9097283e-07
3.004802e-07
3.067822e-07
3.1817412e-07
3.3356894e-07
3.4273765e-07
3.6186153e-07
3.7844208e-07
3.8656258e-07
3.9651054e-07
4.1514632e-07
4.2226992e-07
4.3308178e-07
4.4247673e-07
4.4306247e-07
4.4725512e-07
4.5544975e-07
4.5792356e-07
4.6103245e-07
4.6428362e-07
4.7268528e-07
7.3736622e-10
9.4635963e-10
1.0062342e-09
1.0753154e-09
1.1532025e-09
1.2178375e-09
1.3397691e-09
1.5055699e-09
1.6441125e-09
1.927322e-09
2.0964342e-09
2.4532241e-09
2.7216261e-09
3.1454017e-09
3.8973291e-09
4.8456879e-09
6.3867358e-09
8.1044731e-09
1.0686091e-08
1.3267239e-08
1.7983268e-08
2.1931548e-08
2.6898949e-08
3.4818472e-08
4.045546e-08
5.0772293e-08
5.8087692e-08
7.0461846e-08
7.9775327e-08
9.4329052e-08
1.0908122e-07
1.1953662e-07
1.4053542e-07
1.5196321e-07
1.6822553e-07
1.8515686e-07
1.9663677e-07
2.2200598e-07
2.3584154e-07
2.6412194e-07
2.7868201e-07
3.0976363e-07
3.2618065e-07
3.5576492e-07
3.7036718e-07
3.9228049e-07
4.0773398e-07
4.3561559e-07
4.5171466e-07
4.8333674e-07
5.1304743e-07
5.3069452e-07
5.6536862e-07
5.8464679e-07
5.9591123e-07
6.117298e-07
6.2058668e-07
6.3529272e-07
6.6419061e-07
6.8013866e-07
7.1061828e-07
7.4371988e-07
7.5802159e-07
7.7619859e-07
8.1321105e-07
8.2614408e-07
8.4273998e-07
8.5666221e-07
8.5167027e-07
8.5234878e-07
8.6009741e-07
8.6129987e-07
8.6032742e-07
8.6273826e-07
8.745278e-07
7.6300546e-10
1.1001313e-09
1.1712767e-09
1.3605609e-09
1.4211155e-09
1.5585473e-09
1.6531285e-09
1.9114067e-09
2.1141763e-09
2.551356e-09
3.0468923e-09
3.8717056e-09
5.0929445e-09
6.7308615e-09
9.466307e-09
1.2715746e-08
1.7849098e-08
2.278414e-08
3.0722276e-08
3.7571478e-08
5.049217e-08
5.9996294e-08
7.3393367e-08
9.2209465e-08
1.0494265e-07
1.2896801e-07
1.449779e-07
1.7247923e-07
1.9162637e-07
2.2145149e-07
2.5273509e-07
2.7269022e-07
3.1356741e-07
3.3828256e-07
3.6368966e-07
4.053778e-07
4.2532923e-07
4.6882959e-07
4.935628e-07
5.4638535e-07
5.73614e-07
6.2555923e-07
6.5698676e-07
7.1310203e-07
7.4093318e-07
7.8308824e-07
8.1024692e-07
8.6217309e-07
8.9277621e-07
9.4394184e-07
1.0024816e-06
1.0304219e-06
1.0857678e-06
1.1210726e-06
1.1424178e-06
1.168544e-06
1.1829458e-06
1.2073981e-06
1.2626518e-06
1.2994758e-06
1.3578764e-06
1.4312795e-06
1.4712059e-06
1.5148457e-06
1.6000799e-06
1.612072e-06
1.6255665e-06
1.6391204e-06
1.6118614e-06
1.5719778e-06
1.5818691e-06
1.5812421e-06
1.5723791e-06
1.5808075e-06
1.6394119e-06
7.2251235e-10
8.5810117e-10
9.297425e-10
1.1209758e-09
1.1929432e-09
1.4139641e-09
1.6122038e-09
2.0470048e-09
2.7724687e-09
4.0338127e-09
5.9025544e-09
8.6504493e-09
1.2477995e-08
1.760498e-08
2.5723086e-08
3.4510423e-08
4.854752e-08
6.0840535e-08
8.1837168e-08
9.7721174e-08
1.2758326e-07
1.478253e-07
1.7861612e-07
2.1773186e-07
2.429026e-07
2.9093925e-07
3.2236677e-07
3.7529874e-07
4.133114e-07
4.6474304e-07
5.2534768e-07
5.6096721e-07
6.3308507e-07
6.8325403e-07
7.2557042e-07
8.0535128e-07
8.4133629e-07
9.2028396e-07
9.6389262e-07
1.0574071e-06
1.109905e-06
1.1949096e-06
1.2594309e-06
1.3678412e-06
1.4259327e-06
1.5180267e-06
1.5709917e-06
1.671368e-06
1.7284682e-06
1.8113788e-06
1.9109183e-06
1.9612788e-06
2.0784788e-06
2.1557639e-06
2.2009869e-06
2.2597706e-06
2.3036147e-06
2.3917647e-06
2.4907058e-06
2.6383773e-06
2.7362421e-06
2.8874131e-06
3.1882582e-06
3.2224275e-06
3.325736e-06
3.2926381e-06
3.2631998e-06
3.1479275e-06
3.112467e-06
3.0217361e-06
3.0604682e-06
3.0644553e-06
3.0654736e-06
3.136373e-06
3.5527087e-06
7.0509065e-10
7.5415703e-10
8.099159e-10
8.9978068e-10
1.0932631e-09
1.5389825e-09
2.4598227e-09
4.0406109e-09
6.5084134e-09
1.0267603e-08
1.5553197e-08
2.3283074e-08
3.3351474e-08
4.6920625e-08
6.7355486e-08
8.8001916e-08
1.2141392e-07
1.4801129e-07
1.9517311e-07
2.2772684e-07
2.884346e-07
3.271201e-07
3.8795066e-07
4.6059024e-07
5.0591505e-07
5.9283369e-07
6.5077185e-07
7.3966943e-07
8.2359009e-07
8.9392622e-07
1.0072689e-06
1.0760465e-06
1.2068742e-06
1.3057163e-06
1.3812906e-06
1.5349846e-06
1.6023731e-06
1.775619e-06
1.8623839e-06
2.0423918e-06
2.1555729e-06
2.2625241e-06
2.4763239e-06
2.7094888e-06
2.8459698e-06
3.1002788e-06
3.1933224e-06
3.3534075e-06
3.4187198e-06
3.6320078e-06
3.7329024e-06
3.9433171e-06
4.3914536e-06
4.5554663e-06
4.5581103e-06
4.8809058e-06
4.9865373e-06
5.409107e-06
5.3469617e-06
5.9679261e-06
5.9346302e-06
6.6329343e-06
6.8932556e-06
6.4090561e-06
6.2010394e-06
5.6203498e-06
5.7582049e-06
5.6104769e-06
5.8415532e-06
5.8694763e-06
6.2882642e-06
6.2208421e-06
6.2858076e-06
7.2444353e-06
7.4481478e-06
7.5978003e-10
8.6457474e-10
1.0117513e-09
1.3598074e-09
2.1764988e-09
3.8222431e-09
6.6642974e-09
1.1115474e-08
1.7700728e-08
2.7621914e-08
4.0948437e-08
6.1129243e-08
8.4083479e-08
1.1765345e-07
1.5986263e-07
2.0535649e-07
2.7494222e-07
3.2584664e-07
4.1871549e-07
4.7829763e-07
5.883041e-07
6.563994e-07
7.6698855e-07
8.8982357e-07
9.7216482e-07
1.1324749e-06
1.2364229e-06
1.3913666e-06
1.5405665e-06
1.6655613e-06
1.8921786e-06
2.0454805e-06
2.3013678e-06
2.4771355e-06
2.6389021e-06
3.0188828e-06
3.1240328e-06
3.6760561e-06
3.7919827e-06
4.1152282e-06
4.3630076e-06
4.4982767e-06
5.6313555e-06
5.9335134e-06
6.1467363e-06
6.9900586e-06
6.9203096e-06
6.9683182e-06
7.0291032e-06
7.7361084e-06
7.7949736e-06
8.7565195e-06
8.8113823e-06
8.0241521e-06
8.7456684e-06
9.0892091e-06
9.6616822e-06
9.7770203e-06
9.2253741e-06
1.0724558e-05
1.0448015e-05
1.0638517e-05
8.4059232e-06
7.5502519e-06
5.4675806e-06
5.5332462e-06
6.5888639e-06
6.403547e-06
7.236041e-06
7.379025e-06
7.6989182e-06
8.2946251e-06
9.7636825e-06
1.018767e-05
8.0271855e-06
8.2039517e-10
1.1369754e-09
1.5531002e-09
2.7132412e-09
5.1635802e-09
9.6790864e-09
1.7096945e-08
2.831445e-08
4.4412252e-08
6.9195476e-08
9.9623944e-08
1.4506219e-07
1.9374043e-07
2.7386787e-07
3.3925767e-07
4.4667562e-07
5.5855576e-07
6.5283889e-07
8.2106202e-07
9.2144004e-07
1.1084184e-06
1.2272902e-06
1.4359152e-06
1.6372111e-06
1.8053423e-06
2.1260819e-06
2.3073448e-06
2.6278658e-06
2.8401957e-06
3.1927544e-06
3.7962773e-06
4.0962157e-06
4.5589558e-06
4.8813979e-06
5.4272794e-06
6.5922118e-06
6.3845163e-06
8.3378756e-06
7.9560118e-06
8.5823875e-06
9.1433909e-06
9.2543229e-06
1.198751e-05
1.085158e-05
1.1290331e-05
1.2468479e-05
1.1062493e-05
1.0365134e-05
1.017534e-05
1.0163208e-05
1.1447474e-05
1.1328426e-05
8.8530322e-06
8.0097215e-06
1.0157638e-05
8.3951852e-06
8.9178906e-06
7.8699559e-06
8.069441e-06
8.1623409e-06
7.4708852e-06
5.6863973e-06
3.8136103e-06
3.3184237e-06
2.9524637e-06
3.2661193e-06
3.5506142e-06
3.7164455e-06
4.5113235e-06
5.0043193e-06
4.9631683e-06
6.3156343e-06
7.8291022e-06
6.4072502e-06
4.0867084e-06
7.2167671e-10
1.1856319e-09
2.6537146e-09
6.1434419e-09
1.2739128e-08
2.3827327e-08
4.1383749e-08
6.6952383e-08
1.0268775e-07
1.6067576e-07
2.2176088e-07
3.1129706e-07
4.1224654e-07
5.5249436e-07
6.7416427e-07
8.8845235e-07
1.0361802e-06
1.234258e-06
1.5031844e-06
1.6743048e-06
2.0226195e-06
2.2486916e-06
2.6835185e-06
3.0479995e-06
3.4452844e-06
4.0875898e-06
4.4058788e-06
5.2372862e-06
5.606176e-06
7.0717038e-06
8.2976306e-06
8.5990148e-06
9.5758955e-06
1.0018081e-05
1.1423046e-05
1.1262556e-05
1.3558295e-05
1.3488204e-05
1.1623509e-05
1.1242149e-05
1.059849e-05
1.4211353e-05
1.2875896e-05
8.1733863e-06
1.0935583e-05
8.5484367e-06
5.8131766e-06
5.3321811e-06
5.3033569e-06
5.5689434e-06
6.2836755e-06
4.8144508e-06
3.2457417e-06
3.4276503e-06
3.511085e-06
3.0696126e-06
2.8838743e-06
2.6649005e-06
3.5639192e-06
3.3621818e-06
3.0604187e-06
2.9638477e-06
3.1057567e-06
3.0810119e-06
2.8060818e-06
2.8690609e-06
3.1020335e-06
3.2268483e-06
3.1284549e-06
3.1638464e-06
3.2117308e-06
3.4209432e-06
3.7207738e-06
3.6036557e-06
3.4400056e-06
6.6350768e-10
1.9096711e-09
6.3249103e-09
1.5222106e-08
3.1092093e-08
5.6430698e-08
9.5106573e-08
1.4950884e-07
2.22199e-07
3.4224869e-07
4.5298648e-07
6.2250964e-07
8.1493782e-07
1.01987e-06
1.2775731e-06
1.6208265e-06
1.8646363e-06
2.2760566e-06
2.6589371e-06
3.0376152e-06
3.8309853e-06
4.2631216e-06
5.2997529e-06
6.0679474e-06
7.1202501e-06
8.2367823e-06
9.0523632e-06
1.1250268e-05
1.1243296e-05
1.4472006e-05
1.323034e-05
1.2429718e-05
1.2754386e-05
1.2393842e-05
1.2286543e-05
1.0791123e-05
1.6588566e-05
7.7500603e-06
6.9623571e-06
4.7905381e-06
4.4550154e-06
8.8521158e-06
3.9696896e-06
3.4320231e-06
4.1355436e-06
3.4794857e-06
2.7082896e-06
2.7478292e-06
2.7547504e-06
2.8117635e-06
2.9857895e-06
2.8823298e-06
2.5800116e-06
2.6522755e-06
3.1471092e-06
2.8705705e-06
2.5656992e-06
2.4029865e-06
2.5265277e-06
2.7635801e-06
3.0448922e-06
3.0782254e-06
3.2790545e-06
3.2744071e-06
3.0614023e-06
3.9988303e-06
4.6598235e-06
4.0940789e-06
3.5082438e-06
3.0847833e-06
2.9829e-06
3.2330127e-06
3.4967856e-06
3.4491346e-06
3.6380446e-06
5.8751409e-10
4.8324711e-09
1.5724163e-08
3.642125e-08
7.1385173e-08
1.2482499e-07
2.0377948e-07
3.1196968e-07
4.4648781e-07
6.6714274e-07
8.5930854e-07
1.1876806e-06
1.4497587e-06
1.868464e-06
2.3896188e-06
2.8324355e-06
3.3744073e-06
4.2398354e-06
4.9046289e-06
5.9646309e-06
7.8598981e-06
8.7226821e-06
1.1144535e-05
1.11355e-05
1.2530605e-05
1.2677852e-05
1.4285314e-05
1.3543844e-05
1.2927189e-05
1.3493867e-05
7.3932851e-06
6.510366e-06
4.9165203e-06
4.4875117e-06
4.125336e-06
6.9416846e-06
7.6035063e-06
2.980609e-06
3.0059484e-06
3.0897798e-06
3.4567509e-06
5.3871614e-06
2.7741577e-06
2.7369398e-06
3.6849368e-06
3.1761724e-06
2.3989199e-06
2.4319969e-06
2.6316607e-06
2.5634977e-06
2.5582609e-06
2.8239767e-06
2.6160349e-06
2.5730584e-06
2.8501144e-06
2.9108613e-06
2.7021929e-06
2.6746351e-06
2.6004315e-06
2.7780985e-06
2.7480216e-06
2.8392251e-06
3.0787015e-06
3.3514994e-06
3.3835086e-06
3.9230203e-06
3.7794198e-06
3.8300331e-06
3.9872897e-06
3.6599794e-06
3.1900009e-06
3.3964673e-06
3.2752512e-06
3.388638e-06
4.0499647e-06
2.5886614e-10
1.2238852e-08
3.7338152e-08
8.2229194e-08
1.5347671e-07
2.5756689e-07
4.0713284e-07
6.0490511e-07
8.3823727e-07
1.2139594e-06
1.5557291e-06
2.1206503e-06
2.5900379e-06
3.5442175e-06
4.332249e-06
5.1556325e-06
6.660694e-06
8.4040694e-06
9.7477138e-06
1.2329812e-05
1.264793e-05
1.4085563e-05
1.336861e-05
1.1151721e-05
1.1638302e-05
8.8254781e-06
9.3779493e-06
6.3654866e-06
9.332439e-06
4.3002732e-06
2.2066598e-06
2.2181189e-06
2.4904219e-06
2.3050574e-06
3.0099237e-06
4.2044999e-06
3.3613324e-06
2.4728871e-06
2.4800566e-06
3.1961806e-06
3.0737807e-06
3.7510956e-06
2.4577257e-06
2.1761482e-06
2.5526893e-06
2.4905758e-06
2.3072914e-06
2.2807485e-06
2.4574346e-06
2.6503007e-06
3.027173e-06
2.7095883e-06
2.5642365e-06
2.6144065e-06
2.73084e-06
3.2172288e-06
3.2404547e-06
2.9709716e-06
3.1523601e-06
3.1315704e-06
2.8808747e-06
2.9270717e-06
2.9563809e-06
3.3378305e-06
3.3550025e-06
4.1772906e-06
4.4251639e-06
3.8849059e-06
3.8276695e-06
3.8031697e-06
3.8092423e-06
3.655364e-06
3.457433e-06
3.633589e-06
4.2850674e-06
1.8791641e-09
2.9255281e-08
8.3096173e-08
1.7345148e-07
3.0802003e-07
4.9668033e-07
7.5554614e-07
1.0970318e-06
1.5047937e-06
2.1487829e-06
2.7963791e-06
3.8011229e-06
4.7276532e-06
7.0039437e-06
8.234653e-06
1.0241021e-05
1.1659989e-05
1.2954776e-05
1.3296213e-05
1.3877482e-05
9.9709207e-06
9.1392891e-06
5.272536e-06
4.223665e-06
3.8941759e-06
3.4663871e-06
3.6747872e-06
2.7548606e-06
5.7450046e-06
2.2042783e-06
1.591231e-06
2.0859634e-06
1.937796e-06
2.8787674e-06
2.9032333e-06
3.5753388e-06
3.621139e-06
2.523408e-06
2.298693e-06
3.7550387e-06
3.6655822e-06
3.2043679e-06
2.1145008e-06
2.1224701e-06
2.1922004e-06
2.4949023e-06
2.3634462e-06
2.6599343e-06
2.654415e-06
3.1147488e-06
2.8148203e-06
2.8783985e-06
2.6321941e-06
2.621367e-06
2.7702017e-06
3.4036698e-06
3.3626856e-06
3.0715224e-06
2.9906168e-06
2.8829897e-06
2.8106104e-06
2.9009613e-06
3.0004713e-06
3.3083077e-06
3.7530962e-06
3.9941116e-06
3.93951e-06
3.6562793e-06
3.7857431e-06
3.9175928e-06
3.9349655e-06
4.0104066e-06
3.9746797e-06
3.9354319e-06
4.3918681e-06
7.3794375e-09
6.6885222e-08
1.7428643e-07
3.4251347e-07
5.7845446e-07
9.0050274e-07
1.3263179e-06
1.9145628e-06
2.6774416e-06
3.8744202e-06
5.172475e-06
7.1997076e-06
9.2406917e-06
1.2268872e-05
1.2350344e-05
1.2550701e-05
1.165505e-05
9.9914066e-06
9.3502305e-06
5.435167e-06
3.3747598e-06
3.0353471e-06
1.793966e-06
1.8160136e-06
2.083315e-06
1.6691829e-06
1.8636261e-06
1.7896256e-06
3.2513922e-06
2.5430207e-06
1.5602538e-06
1.5621774e-06
1.7757911e-06
2.1451084e-06
2.9181777e-06
3.4076026e-06
4.1225916e-06
2.4949131e-06
2.251429e-06
3.6414898e-06
4.0691269e-06
3.1233951e-06
2.130073e-06
2.2167972e-06
2.4082953e-06
2.8574355e-06
2.7314106e-06
2.4703629e-06
2.5835202e-06
2.6832677e-06
2.6670907e-06
3.0895734e-06
2.972708e-06
3.0499087e-06
3.3541409e-06
3.5585908e-06
3.3375406e-06
3.0019008e-06
2.8265275e-06
2.7090827e-06
2.7918989e-06
3.018522e-06
3.1246463e-06
3.3564161e-06
5.4122011e-06
4.8766629e-06
4.3433503e-06
3.7593828e-06
3.662463e-06
4.1514956e-06
4.1522309e-06
3.8109468e-06
3.6078889e-06
3.6444309e-06
4.4287474e-06
2.2081865e-08
1.4383957e-07
3.4385108e-07
6.3419694e-07
1.023659e-06
1.5535853e-06
2.2862454e-06
3.3643854e-06
4.8785218e-06
7.4486931e-06
1.0201417e-05
1.1457091e-05
1.275576e-05
1.253815e-05
7.9385825e-06
6.2909726e-06
4.772679e-06
4.3218755e-06
4.2146407e-06
1.5011637e-06
1.3234973e-06
1.5040641e-06
1.5603763e-06
1.5475965e-06
1.5510613e-06
1.9188335e-06
1.6872045e-06
1.7144048e-06
2.0157243e-06
1.7194232e-06
1.3640627e-06
1.6779487e-06
1.759821e-06
1.9095521e-06
4.9552148e-06
3.9948549e-06
3.2031323e-06
2.3468793e-06
2.2204284e-06
2.4398413e-06
3.5803223e-06
2.7416255e-06
2.1832593e-06
2.3727913e-06
2.9051662e-06
2.9259894e-06
2.8420548e-06
2.8065088e-06
2.7318393e-06
2.6996382e-06
2.6526038e-06
3.0193364e-06
2.8815056e-06
2.7735794e-06
2.9673293e-06
2.9295597e-06
2.8026197e-06
3.0642308e-06
3.0391806e-06
2.9362388e-06
2.9768274e-06
3.2026157e-06
3.4096409e-06
3.443548e-06
5.3494291e-06
5.1923584e-06
4.6354098e-06
4.2090418e-06
3.7311066e-06
3.9274171e-06
3.8243024e-06
3.826167e-06
3.5675791e-06
3.6396785e-06
4.6006309e-06
5.7841169e-08
2.9151781e-07
6.3726491e-07
1.1071324e-06
1.7316724e-06
2.6349525e-06
3.9803367e-06
6.2134825e-06
9.5043029e-06
1.1776389e-05
1.1888726e-05
1.03511e-05
8.3737763e-06
4.9754623e-06
2.5123389e-06
2.3610967e-06
1.8882003e-06
2.1300632e-06
1.3874298e-06
7.6044026e-07
1.0562238e-06
2.4357512e-06
1.7058341e-06
2.098828e-06
1.8461795e-06
1.5984936e-06
1.4758464e-06
1.4670114e-06
2.0949559e-06
1.5401693e-06
1.2908611e-06
1.3498973e-06
2.3024221e-06
2.6046648e-06
2.7465807e-06
3.5707241e-06
3.3144689e-06
2.3871e-06
2.2594163e-06
2.38013e-06
2.7554246e-06
2.5781826e-06
2.3355246e-06
2.2845316e-06
3.2710653e-06
2.870206e-06
2.7532686e-06
2.8835004e-06
3.1939398e-06
2.9083469e-06
2.8702924e-06
2.8958669e-06
2.8186658e-06
2.7794452e-06
3.1104414e-06
3.0585709e-06
3.037736e-06
3.335445e-06
3.2709567e-06
2.9671742e-06
3.1416665e-06
3.5436851e-06
3.599171e-06
3.4984872e-06
4.2803897e-06
4.8814462e-06
4.5710829e-06
4.5429798e-06
4.0382826e-06
3.9415901e-06
4.1508364e-06
4.5735288e-06
3.9968394e-06
3.8815702e-06
4.9428804e-06
1.3826668e-07
5.5692055e-07
1.114051e-06
1.8464559e-06
2.867875e-06
4.5334897e-06
7.3652656e-06
1.0376225e-05
1.2448503e-05
1.0829151e-05
5.7467246e-06
4.4591709e-06
3.5376388e-06
1.4197012e-06
1.0712135e-06
1.0983563e-06
9.9573612e-07
1.4664411e-06
1.641116e-06
7.4739941e-07
1.3555476e-06
2.2465605e-06
1.3881702e-06
3.1015641e-06
2.5515182e-06
1.4431194e-06
1.3040847e-06
1.5925866e-06
3.8906295e-06
1.4746039e-06
1.1917489e-06
1.458649e-06
1.959729e-06
2.073089e-06
3.1093117e-06
2.9873898e-06
2.532458e-06
2.3941554e-06
2.5319699e-06
2.3861528e-06
2.2457101e-06
2.2554058e-06
2.5990371e-06
2.3302529e-06
2.5213969e-06
2.6440092e-06
2.7556148e-06
3.0974439e-06
3.0449319e-06
3.1479204e-06
3.4248292e-06
3.1350373e-06
2.9628407e-06
2.7455239e-06
3.3334732e-06
3.1114346e-06
3.1426016e-06
3.6561596e-06
3.9332338e-06
3.5857776e-06
3.6365424e-06
3.7066634e-06
3.6261873e-06
3.5261304e-06
4.041683e-06
4.273554e-06
4.8678503e-06
4.8116253e-06
4.4369667e-06
4.3158853e-06
4.8805088e-06
5.1202294e-06
4.5600572e-06
4.4784419e-06
5.6004768e-06
3.0787921e-07
1.003613e-06
1.8558591e-06
3.0004054e-06
4.8106859e-06
8.3293872e-06
1.0249908e-05
1.0634708e-05
8.7589641e-06
4.4326239e-06
2.2114325e-06
1.8889364e-06
1.2296064e-06
8.3737696e-07
9.7933652e-07
8.4734398e-07
7.7216933e-07
1.2821229e-06
1.5283455e-06
8.404949e-07
1.2959418e-06
1.6352765e-06
1.341284e-06
3.7236914e-06
1.9027962e-06
1.2640576e-06
1.2433977e-06
1.3748906e-06
3.8228106e-06
1.4747169e-06
1.1816717e-06
1.6150868e-06
1.4788537e-06
2.0661576e-06
1.866156e-06
1.966614e-06
2.4157398e-06
2.3882906e-06
2.925714e-06
2.9685472e-06
2.2479366e-06
2.3387485e-06
2.8629077e-06
2.5728352e-06
2.4432213e-06
2.7441954e-06
2.7791271e-06
2.8502183e-06
3.5303257e-06
3.7990086e-06
3.7782203e-06
3.1719745e-06
3.1705052e-06
2.9959921e-06
2.7973809e-06
2.8687507e-06
3.2045262e-06
3.7737299e-06
3.9446721e-06
4.2326404e-06
3.9890094e-06
3.7479066e-06
3.7898488e-06
3.7160341e-06
3.7816345e-06
4.3409315e-06
5.2994129e-06
5.2117327e-06
5.077733e-06
4.7175409e-06
5.8517164e-06
7.377763e-06
6.2789605e-06
6.3151744e-06
7.0005267e-06
6.4524104e-07
1.7145745e-06
2.9865154e-06
4.9020418e-06
8.5271087e-06
1.0363746e-05
8.7091736e-06
6.1662934e-06
4.7374601e-06
1.6076929e-06
1.4318289e-06
1.2430206e-06
6.0246746e-07
8.1825437e-07
9.8601485e-07
7.6194976e-07
7.3782731e-07
1.065267e-06
8.3117424e-07
9.2368407e-07
1.0537518e-06
1.5308205e-06
1.4593843e-06
4.0552124e-06
2.6169814e-06
1.3470383e-06
1.2024519e-06
1.4333051e-06
2.3646837e-06
1.2649896e-06
1.1849035e-06
1.4978456e-06
1.7612645e-06
1.7434132e-06
1.7556368e-06
1.7363623e-06
1.9037299e-06
2.2957712e-06
2.7872593e-06
2.8036728e-06
2.7766854e-06
2.4479568e-06
2.8711466e-06
2.638755e-06
2.6435049e-06
3.117293e-06
3.0818853e-06
3.494187e-06
3.9303055e-06
3.4786991e-06
3.6905658e-06
3.4038393e-06
3.3558934e-06
3.0353165e-06
2.9461541e-06
3.0254535e-06
3.4391766e-06
3.6749448e-06
3.7412295e-06
4.1543341e-06
3.9526777e-06
3.8688752e-06
3.9797941e-06
4.05152e-06
5.0088521e-06
4.9653439e-06
5.3323862e-06
5.1293841e-06
5.7856034e-06
5.1389811e-06
6.9665731e-06
9.5285679e-06
8.9229768e-06
9.7392249e-06
9.560769e-06
1.28494e-06
2.7853608e-06
4.7591351e-06
8.3279893e-06
9.8759949e-06
7.4378302e-06
5.2530272e-06
3.8433847e-06
1.9972248e-06
8.0212231e-07
1.568715e-06
1.1871782e-06
5.4140431e-07
7.6987718e-07
1.091121e-06
7.0826998e-07
6.9151263e-07
1.0627833e-06
7.6977822e-07
9.2843076e-07
1.0676523e-06
1.7235563e-06
1.5538889e-06
3.107939e-06
1.515206e-06
1.2711958e-06
1.2226492e-06
1.4598478e-06
1.4651428e-06
1.2158484e-06
1.2831474e-06
1.4484353e-06
1.546615e-06
2.0493749e-06
1.8217177e-06
1.6120431e-06
1.6994872e-06
2.6810534e-06
3.2634671e-06
4.3279693e-06
3.5967425e-06
2.6845227e-06
2.4045273e-06
2.5024575e-06
2.8643884e-06
3.7406463e-06
3.6305922e-06
3.3215103e-06
3.2086683e-06
2.7671845e-06
3.1269741e-06
3.5603079e-06
3.6910061e-06
3.3515e-06
3.9772667e-06
4.0391281e-06
4.33747e-06
4.2067573e-06
3.9463e-06
3.9206516e-06
4.022527e-06
4.01886e-06
4.1385801e-06
4.472326e-06
4.626045e-06
5.8021853e-06
5.4193777e-06
5.5873064e-06
7.879774e-06
7.035861e-06
8.2439202e-06
1.2404589e-05
1.0644123e-05
1.156531e-05
1.0575176e-05
2.3702378e-06
4.3592742e-06
7.8167016e-06
9.3628923e-06
6.7409632e-06
4.3022619e-06
2.9957573e-06
2.0233997e-06
8.0405612e-07
6.2059868e-07
1.0133936e-06
1.0481411e-06
5.2117074e-07
7.1364565e-07
1.3003505e-06
6.5974476e-07
5.8580221e-07
1.0998582e-06
1.0232971e-06
9.8687237e-07
9.6556735e-07
1.164761e-06
1.386352e-06
1.6911404e-06
1.6152339e-06
1.1539919e-06
1.3596614e-06
1.508597e-06
1.6458633e-06
1.2306929e-06
1.4467291e-06
1.5238084e-06
2.0931702e-06
1.8277143e-06
1.6131114e-06
1.6788692e-06
1.794937e-06
2.4627793e-06
4.4623232e-06
7.4895332e-06
5.0249298e-06
3.0477355e-06
2.3600829e-06
2.4750201e-06
3.1823772e-06
4.0535122e-06
4.0444551e-06
3.5715763e-06
3.0525465e-06
2.7674129e-06
3.060551e-06
3.6395878e-06
3.7580886e-06
4.1633549e-06
5.5804059e-06
5.1891432e-06
4.5585555e-06
4.569429e-06
4.4855323e-06
4.4231759e-06
4.2772286e-06
4.2029475e-06
4.4259038e-06
4.7520524e-06
4.8337056e-06
5.2306332e-06
5.119896e-06
6.2771513e-06
8.7441137e-06
1.1622757e-05
1.0646112e-05
1.191731e-05
7.9585791e-06
8.9629995e-06
9.8278652e-06
3.9700524e-06
6.8710069e-06
9.7422483e-06
7.1501064e-06
3.8922072e-06
2.3385569e-06
1.5327818e-06
1.1437911e-06
6.5593356e-07
4.966894e-07
5.3937262e-07
8.970056e-07
5.165897e-07
7.1909339e-07
1.3110442e-06
6.5987305e-07
5.0624615e-07
1.1856595e-06
1.5725997e-06
1.1240546e-06
9.2691491e-07
9.5473623e-07
1.3239089e-06
1.4647763e-06
1.2385056e-06
1.100051e-06
1.7082877e-06
1.7396919e-06
1.7367231e-06
1.1852026e-06
1.7564596e-06
1.5227649e-06
1.6318216e-06
1.7071576e-06
1.6468505e-06
1.8651077e-06
2.285556e-06
3.046099e-06
3.411467e-06
5.7907859e-06
5.2785723e-06
3.3765216e-06
2.4087579e-06
2.6399001e-06
3.9185886e-06
4.1580523e-06
4.2293443e-06
4.0505992e-06
3.4637183e-06
2.952027e-06
3.9891185e-06
3.7031794e-06
3.7670856e-06
4.3948577e-06
5.3381671e-06
5.3296773e-06
4.7140613e-06
4.9188108e-06
4.7451935e-06
4.4036743e-06
4.5784348e-06
4.4454302e-06
4.6991065e-06
4.8276997e-06
4.5712114e-06
4.3961207e-06
5.3491206e-06
7.4163998e-06
7.8713717e-06
1.3989471e-05
1.1043467e-05
6.446379e-06
4.9647511e-06
5.7718792e-06