/*--------------------------------*- C++ -*----------------------------------*\
| =========                 |                                                 |
| \\      /  F ield         | OpenFOAM: The Open Source CFD Toolbox           |
|  \\    /   O peration     | Version:  2.3.0                                 |
|   \\  /    A nd           | Web:      www.OpenFOAM.org                      |
|    \\/     M anipulation  |                                                 |
\*---------------------------------------------------------------------------*/
FoamFile
{
    version     2.0;
    format      ascii;
    class       volScalarField;
    location    "1.1e-05";
    object      p;
}
// * * * * * * * * * * * * * * * * * * * * * * * * * * * * * * * * * * * * * //

dimensions      [1 -1 -2 0 0 0 0];

internalField   nonuniform List<scalar> 
7500
(
19422.043
-24504.946
-20640.651
22283.832
689.00397
-911.67823
9309.5829
14078.928
2770.919
18782.451
-8213.6175
14465.249
30878.651
-23322.645
41442.787
-6903.4146
9533.8396
24035.961
-14963.2
33558.491
-13054.329
34055.886
16662.511
-4923.3765
43361.195
7616.3043
3959.5246
31734.86
-3881.4492
65475.07
49622.487
-16813.488
97166.429
25221.78
18903.781
28282.246
-21704.288
83862.461
47347.025
74583.334
14939.269
581.08424
66184.025
96251.985
99680.564
27932.553
-48792.131
32888.943
21636.268
5668.9905
120035.52
49148.741
-15985.22
38399.37
22866.114
-16068.53
38579.292
-15799.013
-4370.4421
-14578.978
-30318.131
19859.343
80658.834
-50028.551
3534.9085
106934.14
-62053.169
126827.52
106233.51
-73728.407
178321.07
94940.584
-82029.28
118678.1
112091.64
19005.185
-24343.29
-20175.927
22086.523
845.10459
-637.34053
8094.3396
14750.16
3612.0238
17406.469
-7245.8468
14392.708
30786.378
-23990.331
41099.979
-4821.3041
8194.3699
23556.304
-13209.77
31750.673
-11619.924
33697.352
15066.639
-2368.8756
41289.322
8557.2952
3520.3469
30817.507
355.5462
61351.716
48248.194
-10559.384
92849.165
24662.109
21348.027
27597.226
-19618.549
79895.135
48955.753
73413.453
14941.312
2096.157
65589.089
98836.837
97445.709
26031.033
-45153.303
31654.056
18005.565
7871.3729
118907.29
48713.822
-11508.04
37841.538
20092.776
-14775.95
39406.332
-16743.494
-5339.8484
-10634.478
-30061.302
20122.422
77508.205
-51034.604
1133.2986
105920.68
-54789.088
123546.61
102587.25
-71042.339
174572.97
95520.866
-73927.762
115898.64
106654.11
18459.896
-24784.923
-20074.032
23822.151
173.07018
-675.33593
8567.9112
13124.48
4778.5617
17287.008
-6116.2318
12133.818
31760.9
-22322.319
37445.058
-2181.1095
8048.4725
21266.616
-9826.7875
29409.25
-10663.436
34437.616
11629.887
2451.5626
37809.906
8492.2006
5593.3958
26378.277
6912.7533
59635.884
40371.973
-240.73223
90589.393
18930.078
23696.372
27592.999
-14249.238
72672.722
51558.817
72723.295
12112.242
5993.7513
64475.86
102492.88
95685.519
20826.818
-38641.339
29908.522
13070.419
13630.783
115357.51
44909.668
-3843.0157
38097.022
14835.739
-12359.019
39517.275
-15454.48
-10120.375
-6158.6703
-30634.527
19603.402
74677.256
-48958.792
-1348.6161
101297.92
-41777.339
115722.61
97503.675
-63258.646
164453.33
92677.58
-56228.925
112443.38
97573.202
17554.023
-23847.346
-21096.067
24923.45
1190.1467
-1927.5482
8786.3831
12413.503
5693.015
15560
-2872.1731
10137.176
30180.516
-18108.768
32798.525
39.819399
9549.7454
16853.215
-5101.8148
26832.064
-9865.8073
36378.324
6316.9367
8804.3108
34279.099
6981.1972
8226.9772
22574.648
13369.821
56699.825
32572.812
11852.731
85907.954
14960.924
25840.236
25961.875
-6550.2276
65402.457
53690.073
69550.571
11854.513
9441.9956
60733.292
108936.44
93830.392
11948.295
-27304.034
28566.576
4161.5344
23932.761
109684.92
37928.979
8176.5842
37769.355
5945.5842
-7806.917
40944.482
-17073.41
-16490.768
2316.2136
-31594.875
14668.84
74685.418
-43541.01
-3340.564
90548.849
-26775.924
105604.03
92867.224
-49930.833
149465.79
94620.893
-38849.985
103302.87
87250.801
16311.597
-21941.97
-22128.403
24994.515
2557.2838
-2383.4201
8288.2758
11248.917
8018.6128
12824.808
-292.08976
10487.536
27494.763
-15472.363
30121.207
1904.7718
10021.741
13539.711
-1135.2906
24297.268
-7962.1434
36369.122
3484.1893
14417.693
28977.334
8564.8671
8642.1355
18739.561
22312.571
49869.257
26719.617
26424.682
77210.091
12444.49
29378.829
24268.076
-125.91426
58658.71
58421.806
61963.346
14469.614
15340.29
56409.63
114519.37
88994.555
2901.3552
-13408.965
25980.216
-2816.1898
34553.321
102161.51
31844.159
21910.147
38541.577
-4344.0649
-5093.3613
43856.214
-18006.527
-26403.822
10194.262
-27605.663
8968.2772
75636.118
-38391.86
-7319.7127
80857.006
-10756.041
91720.157
89932.923
-30476.986
129736.72
96459.499
-21839.531
93424.208
76303.922
14320.234
-20166.753
-22172.072
24634.52
3685.8958
-2592.1448
8315.8108
9229.6096
9991.1127
12168.696
-65.185537
10957.894
26825.685
-14512.819
27420.346
4621.3503
9433.2975
11197.563
2658.0292
20412.496
-3513.2238
34244.919
371.46146
22255.614
21986.041
10011.297
10549.373
14074.057
30474.328
43437.747
21208.275
41037.758
68258.12
9628.8729
32409.514
25229.733
2660.1887
53129.215
63782.951
52679.724
18730.573
19773.234
55337.483
120880.21
80456.058
-5190.0865
2752.3314
17640.924
-7454.859
47062.974
91033.367
30442.608
35486.578
37259.8
-12363.17
265.97341
41553.507
-18884.351
-32563.222
10556.322
-24978.047
7059.0499
76230.021
-29010.538
-12162.586
67342.753
6035.346
77125.492
87883.018
-7333.2324
111121.21
94876.916
-5606.8256
83199.404
65679.165
12063.641
-18457.042
-21701.777
24368.853
4756.2829
-3302.7422
8447.6949
7986.5002
10529.489
12474.897
1233.9556
9044.4759
27115.913
-12367.61
23355.949
7492.126
8767.2937
9362.1375
6222.746
16620.62
242.37397
32680.027
-1161.2765
26586.164
18644.688
10076.396
10889.831
14442.319
32997.287
37177.265
21954.789
49449.485
60764.033
9079.7902
32018.812
29751.456
1858.1276
49423.846
69909.097
40032.462
26256.453
21301.272
56821.163
126161.92
70413.281
-8602.5684
16917.693
7950.6074
-10128.024
58457.378
77828.944
31407.099
48537.826
35150.11
-17740.387
7145.1826
38504.907
-23349.613
-35779.338
11119.414
-28117.306
5370.2193
76416.53
-20508.523
-12937.405
58168.957
19736.779
65508.336
81815.444
10687.156
96859.924
93038.972
8213.7299
71380.702
57217.746
9492.8718
-16301.929
-21032.025
23655.041
6214.6084
-4299.0684
8525.4382
7011.8218
10875.531
12590.213
2732.9778
8580.9983
24594.143
-8928.783
20804.952
8322.0193
8678.9586
8517.8196
7978.7894
14777.943
3540.1854
28186.964
2183.8123
27719.694
14602.009
12960.385
8108.1372
18279.214
34153.02
27838.267
28414.584
54416.447
51486.312
12237.746
30644.275
33965.137
367.32527
46270.795
74666.418
27757.766
35213.149
22178.494
59634.924
129074.89
56633.913
-6817.9679
28637.162
-1619.815
-9003.9458
65526.464
67409.849
36170.492
57442.644
27719.261
-16897.284
13939.774
35526.437
-22492.793
-40490.55
8781.6486
-26652.658
435.72773
72441.913
-14180.227
-20275.722
55301.754
34846.147
61779.006
82941.85
22430.204
83210.298
92859.95
13967.629
57792.808
48943.012
6773.3563
-13789.409
-20125.944
22414.559
7662.4407
-4935.2109
8459.1765
6009.7858
11137.11
12952.142
3332.0189
9755.2791
21778.01
-7573.9309
20961.424
8128.9398
7527.2162
9909.3349
7931.8578
13201.388
8124.3339
22128.403
5869.5925
29375.834
10572.179
14781.612
7051.3569
21053.237
34213.131
21945.016
34872.534
55918.627
43330.122
15135.162
33315.096
33937.716
-2414.9267
50216.701
70120.599
19930.112
44239.769
23231.738
67417.014
123493.01
47585.196
-1991.1913
31400.838
-7767.5388
-2117.9548
62535.516
60874.965
48019.161
60251.899
19879.17
-15284.532
19954.718
27352.801
-17882.667
-37901.913
876.05998
-26719.945
3013.4948
64511.527
-9999.7707
-31317.651
43244.209
47846.997
60096.14
93895.427
42142.464
70439.111
85172.913
22595.848
43999.645
37420.163
3949.3514
-11223.512
-18861.141
20947.132
8846.6565
-5386.6125
8444.0818
5176.6929
11111.434
13719.202
3379.28
10692.281
20316.298
-7059.0041
20653.866
9029.2728
5525.2341
11364.582
8082.4621
12319.406
10691.118
18115.633
9573.9824
27310.462
10369.961
15187.739
6312.2129
24400.694
29590.763
22314.626
41531.382
52126.553
38397.957
16100.554
38003.728
34017.155
-8746.8852
58244.622
62217.785
12584.132
52478.452
24515.29
83821.631
104906.13
43369.996
14127.563
23642.535
-17255.75
12603.922
53564.537
47820.404
72441.453
56417.217
10949.75
-4499.2321
21838.028
13901.422
-12199.363
-32399.947
-5423.1663
-28816.87
5381.798
59878.046
-4535.4213
-39576.666
25646.362
53786.003
55326.315
96136.76
69680.999
76800.16
67507.205
25958.751
42277.299
26266.017
1098.3589
-8844.7527
-17185.375
19339.242
9564.8384
-5106.843
7645.6234
4855.1207
11172.73
14298.934
3899.9428
10379.908
19360.405
-5235.5435
18820.69
9989.6724
4966.0061
11895.417
6731.86
13892.687
12032.186
13351.483
15558.804
23065.486
9693.6162
17305.367
5920.3747
26347.634
23169.235
26785.593
47082.166
46413.793
35687.096
16533.449
43379.553
29304.742
-7598.02
60943.817
52679.028
12891.413
51796.292
29543.438
105111.43
80281.649
39623.635
32749.835
16409.486
-25035.241
21222.135
54480.158
31197.485
93700.699
61567.923
-4297.4086
5823.3662
26520.067
4531.152
-11949.049
-22035.424
-12066.855
-36926.824
11768.258
56052.989
-5229.2564
-38020.115
17563.846
50447.62
60830.165
89951.271
77686.394
87244.684
64533.216
24356.306
40403.08
23703.563
-1739.8123
-6652.3668
-15338.756
17818.841
9731.8099
-4149.2096
6679.4717
4020.9419
11777.014
14764.423
4815.4955
9866.9809
17212.888
-2046.621
17144.21
9366.2736
5504.9578
13164.534
4448.5271
14506.685
14481.569
10057.264
18855.694
20630.4
9246.9007
16795.974
9935.0747
24669.715
15369.887
37166.286
49166.654
39747.662
35947.455
14230.156
52877.323
17393.053
-984.10201
66670.21
36087.973
21582.508
40343.265
38443.921
123631.86
60815.976
37154.028
47208.621
3303.5804
-20562.232
24142.453
45869.642
34690.959
91784.817
69228.175
-5619.5707
6668.7685
25827.572
3939.5429
-10815.711
-18551.726
-14275.001
-33355.227
9053.147
53788.772
-5851.2173
-40935.048
17389.546
55092.013
62513.926
88566.845
80138.614
84993.658
69187.29
27850.202
32432.705
21850.965
-4571.8743
-4726.9304
-13343.296
16458.839
9497.8885
-3171.7902
6137.336
3093.6506
11816.708
15698.389
5711.5067
9848.198
14707.364
115.91572
16898.055
8235.8085
5819.0131
13666.428
4350.4756
14709.054
13353.024
11678.143
20259.871
15236.922
14058.768
13379.611
13986.131
23365.317
5629.5055
50007.85
50323.036
32862.921
38025.938
12009.535
58012.373
10965.062
819.90073
74672.688
21817.43
31057.354
22495.532
51937.902
124737.05
53524.149
42493.532
48127.916
2532.6472
-18733.185
22603.025
42954.709
38193.51
90438.159
65868.437
-2206.7419
8490.373
22113.427
3212.6548
-10897.819
-16925.654
-15411.146
-35697.058
17853.118
54979.482
-6461.5809
-40431.713
13240.285
52517.485
63349.074
86663.285
80567.06
86034.545
64903.554
28619.319
36383.699
21853.997
-7252.1896
-2945.8609
-11465.428
15271.272
9339.9991
-2704.5177
5709.8161
2828.2095
11346.163
16617.789
6306.9572
9895.2685
13825.568
586.86206
16184.793
8098.2629
7115.8721
12078.815
3783.9423
18816.379
9374.0673
12689.041
24576.632
6744.3136
18648.538
14466.576
14337.079
21027.952
-58.745973
58113.769
51657.463
29113.764
36462.244
15811.274
54646.326
9159.3593
5186.5216
74856.252
21646.771
30293.407
18797.07
58710.902
119086.59
49691.317
42868.586
49621.707
2618.6694
-18673.731
23820.172
42210.452
37462.557
95544.587
64401.999
-6894.1364
10150.839
24558.893
2612.5387
-11720.053
-16445.662
-14930.882
-34443.343
11340.949
49731.245
-8328.6038
-41885.343
17877.729
52743.087
66600.622
87510.021
75760.477
84981.855
71935.612
32064.565
33982.605
16926.18
-9678.909
-1343.6104
-9671.4104
13924.732
9630.5354
-2250.2395
4481.9792
3175.8378
11128.124
17602.017
6486.9769
8765.5731
14826.29
1556.1051
13901.263
7717.3372
9424.9022
11318.952
409.73104
23140.764
8955.2499
10597.92
27329.817
3307.1563
16756.716
17111.246
16720.53
15224.031
-781.01718
60072.355
52561.159
29229.921
36143.615
16131.139
54041.022
6321.5555
4016.2771
79272.152
22380.334
32019.205
15317.748
60694.776
126183.31
46685.765
44716.208
50175.258
2386.9501
-16812.431
23338.404
40786.018
39296.456
89794.967
60393.322
-3259.467
5812.3166
23636.436
3236.0585
-12706.933
-17520.348
-15965.961
-32375.107
14086.467
41413.248
-13397.393
-49174.778
12437.582
44496.66
64059.594
89231.083
77468.944
81833.353
81295.717
42784.692
30722.505
9883.3243
-11821.773
175.42081
-7902.0188
12356.618
9916.7808
-1127.8547
2782.8013
2980.23
11552.265
18809.855
7114.1524
6199.1521
15579.412
4026.8208
11521.234
7035.7946
10489.599
11083.387
-1234.245
22576.761
11031.162
10429.494
24705.862
3144.6722
17645.249
17534.67
17294.846
13612.846
-880.21627
60376.048
53644.693
30508.8
35395.313
17909.169
53669.473
4891.9565
5570.0916
77439.339
23479.633
32795.848
15764.195
59126.62
114927.12
48092.608
38982.959
42300.903
527.55654
-17136.605
23776.609
38420.704
37427.207
86807.072
50053.392
-9941.8891
10025.956
22114.338
1541.6145
-13265.295
-19058.793
-14394.335
-32386.046
7171.0995
29477.101
-20636.983
-62557.082
8153.5135
68290.003
69135.367
85806.37
69480.231
78908.11
82605.054
48119.423
24496.149
1959.4979
-13662.702
1487.993
-6005.2918
10802.367
9696.7579
364.0039
1576.3928
2042.4056
12077.979
19974.144
8311.715
4151.509
14532.747
6741.7534
9253.9291
6786.2143
11872.859
7936.068
-443.20421
21476.848
12228.21
11008.379
24637.041
1430.6182
18544.064
18360.08
17982.334
14118.883
-213.57196
60255.161
52339.895
30515.769
34839.937
16360.88
52338.999
7873.4343
1299.8499
66044.923
25390.806
28231.168
15514.707
55747.738
102349.51
46311.344
36922.286
37904.847
-3906.8426
-19263.378
23290.46
36070.996
38052.952
84675.734
39943.232
-21622.771
10958.816
18859.804
1465.1945
-7708.1066
-21738.559
-20470.091
-34253.403
-576.3505
17034.828
-32516.307
-54406.789
-13724.046
39070.281
68612.396
92796.746
68250.329
75058.159
98686.224
57191.728
21510.061
-5702.5957
-15284.19
2522.9195
-4161.81
9757.3016
9121.7605
1278.5119
1058.189
848.62968
12850.285
20549.346
8919.5648
3848.99
12081.231
9115.0962
6565.2906
5802.725
12705.963
8282.2196
-413.94624
21220.516
13153.616
11480.32
25907.233
1266.0089
18372.601
18523.465
16827.195
11730.446
-1907.0004
61516.849
50375.702
29398.494
34449.892
17583.446
52364.137
9702.9743
-3218.0446
49016.695
26051.765
20484.553
5349.586
50834.289
99492.521
43923.17
41007.618
38520.53
-11203.704
-20848.33
20949.829
33813.49
41573.339
85819.383
37354.93
-22352.669
14622.073
19481.014
1578.435
-5514.596
-22079.169
-21310.29
-37407.607
-11381.762
7451.7465
-51868.272
-65181.012
-46761.708
31560.53
66539.98
84858.165
62871.917
73568.691
111704.01
65032.661
18627.725
-13868.269
-16716.538
3274.1796
-2651.7515
9172.7262
9059.7323
1412.3147
456.91798
-568.90026
14184.003
20837.719
8062.875
4489.9621
9393.3093
10023.395
6936.0089
5603.5168
13018.976
8595.0844
693.74387
21126.732
13054.845
10639.595
23979.331
1743.2667
17807.812
18309.029
17963.298
13132.673
-1676.912
58759.412
46200.635
27025.224
34413.787
15583.732
52160.645
10499.529
-10266.173
34425.132
25989.965
11138.107
-6755.4147
53765.006
99160.136
37594.354
47281.958
37562.814
-20473.885
-33454.506
16621.575
28693.951
42576.499
85779.476
33554.605
-18546.799
17551.223
21584.702
2640.0723
-7967.8747
-22153.675
-22880.975
-37156.302
-18239.658
-1776.8968
-74990.296
-81977.964
-79088.49
61046.03
71656.137
77261.787
56444.975
64872.144
124312.04
73617.915
17999.627
-21196.042
-18001.876
3990.2264
-1745.6442
8605.0488
9698.6283
1881.0449
-633.13796
-2759.9849
15692.51
21111.738
6661.3415
5297.5156
9348.5377
10177.32
7618.9096
5989.1718
13087.601
7603.233
310.19661
20864.08
13241.411
11421.171
22244.781
2241.5273
17504.46
18787.438
16191.629
13942.297
-3791.5144
52292.041
42950.476
22164.497
34901.32
15008.462
50821.27
8033.2413
-14249.067
26963.268
26638.56
7214.5478
-8715.4905
57627.379
98101.713
33231.382
50803.112
36898.126
-26144.65
-33942.142
14961.044
25529.54
45449.45
86835.658
31240.712
-21617.122
14625.491
20828.302
2339.0241
-9815.0012
-23973.031
-24805.296
-36499.539
-22443.274
-6958.0976
-81195.233
-120006.65
-74860.152
83174.966
68654.176
88211.779
33118.464
47937.937
149462.73
68864.003
17545.253
-29752.884
-19102.916
4868.2633
-1207.9626
7510.1525
10149.46
3619.5108
-1797.1662
-5282.8491
16159.703
22213.92
6129.2235
6226.4234
9940.0127
10189.13
7156.9623
5320.8566
13240.654
7628.1229
651.48524
20763.118
12656.741
10752.279
20693.115
2845.0645
15924.617
18760.153
17370.39
15564.21
-4269.872
43011.787
39443.722
20234.77
35140.665
15500.415
50428.835
8491.2928
-13614.089
23553.945
28379.529
10419.623
-3888.899
63844.083
94729.964
26990.836
50997.716
37486.268
-29037.113
-36105.371
14425.429
24407.346
47890.598
88267.658
28936.658
-24777.615
16626.104
19876.914
5143.0167
-9247.0407
-26646.463
-26611.478
-34900.434
-19328.422
-12532.576
-74173.981
-122363.92
-45403.915
56121.554
48636.7
-6384.5227
10764.876
55315.794
218124.93
94074.29
13357.647
-47182.733
-20027.235
5976.8753
-471.06941
6039.0033
9251.3137
6044.6007
-2592.7328
-6191.4992
16224.194
23598.639
6028.4564
5824.861
9452.8086
10099.393
7264.3513
5464.0808
13400.78
7083.8341
538.50013
19674.977
12422.351
11090.82
19011.201
2963.2063
14727.964
18565.749
16431.709
16701.25
-3713.2178
31317.554
35037.662
15899.707
35956.932
14391.653
47128.989
13190.192
-10649.597
24241.103
28874.457
13750.538
3518.7954
69979.83
89346.164
21220.333
48891.53
35519.096
-32187.584
-38103.82
12160.576
21858.27
46319.746
91502.488
25032.621
-28597.377
20659.785
19514.703
3440.5761
-11627.62
-28226.596
-29258.352
-31613.359
-14576.39
-15959.98
-74668.483
-102932.66
-10718.488
68972.089
47810.323
-5411.9597
11648.987
39286.571
30066.703
-4237.1124
-34146.579
-132586.89
-20875.2
7117.0564
1115.8895
4989.9334
7214.7782
7268.0965
-1967.7156
-6199.5769
16338.506
23367.828
5814.404
5991.4137
9516.8062
9755.1598
7089.196
5016.2353
13529.119
6507.055
351.02718
18440.969
12558.604
11543.608
16784.702
3129.2717
13979.826
18167.788
16407.072
17260.95
-5670.353
21991.816
30578.496
10003.853
35806.475
12537.972
45075.403
16605.578
-7462.7046
31150.772
29693.321
15848.404
6414.7537
74530.093
82839.757
17112.164
46879.973
31909.067
-39328.555
-37940.899
12131.458
19651.718
44245.137
98184.402
18476.742
-32217.209
21422.035
19357.144
2132.8547
-13827.374
-31149.795
-32224.322
-31886.795
-18173.886
-20549.129
-75053.738
-98298.9
12507.598
85805.374
50607.333
3964.4033
15145.347
38261.74
-9966.809
49349.313
-2593.6594
-23225.157
-22022.036
7924.9411
3766.2487
5061.7077
5958.8256
7502.3404
-1055.3443
-6435.8457
15859.758
23422.958
5879.8768
6012.8542
9060.776
9144.7317
6923.5916
4755.6719
13584.951
6004.57
161.13395
17810.632
12856.487
11827.837
14410.337
4157.2166
13947.138
18008.722
15789.372
16698.795
-4627.1408
17743.766
26709.279
5575.4217
35200.069
14493.873
41726.215
14782.257
-6419.4911
37061.828
30351.001
17254.942
8269.2644
76184.351
77318.728
13192.279
46776.275
28427.481
-50867.051
-41764.301
11470.023
18255.223
44738.598
91220.115
1848.3419
-44715.095
21356.341
19718.033
-377.58607
-13611.103
-32447.626
-35039.253
-32724.259
-21448.812
-26716.979
-81484.404
-98988.148
22334.786
73685.631
51308.393
3247.151
21082.323
60973.05
16691.529
67253.435
18051.585
-1025.2177
-24081.011
8040.0243
6792.1619
5684.1405
6004.9381
7629.0184
-1296.6211
-6357.2104
15764.031
23052.11
5746.1748
5901.9039
9188.7142
8517.7618
6776.2376
4327.2021
13315.901
5785.2094
70.31548
17448.214
13008.84
11818.704
13180.374
4910.8603
14418.102
18246.647
14751.535
15273.349
-1580.6862
16996.798
22490.664
-110.1001
35163.961
15310.675
33768.105
13182.966
-9976.1014
35830.079
33975.44
20793.54
11629.281
75578.868
73765.012
10079.239
46865.625
25534.133
-60522.338
-49299.726
9570.2849
13191.843
47491.284
49030.608
-21296.893
-67157.087
29002.981
20714.41
-6156.5629
-14885.037
-31643.565
-34111.829
-36457.242
-25762.752
-30064.554
-89540.626
-109113.87
24886.313
89467.169
50450.68
-1887.8195
21703.24
75604.207
41876.464
68362.301
12766.37
-20656.972
-26831.227
7225.4766
8199.6471
6087.7551
5957.1785
7509.6515
-1294.5445
-6330.7283
15632.107
22193.958
5455.0459
5569.8473
8809.6032
7826.57
6804.429
4096.6083
13083.74
5652.4907
63.356595
17014.975
13031.582
11497.206
13868.44
5830.6243
13627.019
17921.892
13486.601
12717.699
2052.5572
18164.856
17728.765
-5192.6344
34848.621
16111.534
26522.108
8156.7226
-5050.3873
57745.478
38883.509
23340.528
12799.282
71719.835
67615.188
7784.0662
46309.161
21513.389
-68873.751
-45759.849
8892.2109
12819.762
55024.71
28342.941
-35132.374
-82171.351
34903.503
20910.358
-8173.7319
-14560.131
-30794.847
-34028.233
-38968.818
-34290.104
-35596.652
-82068.91
-103792.25
29032.652
91006.359
49296.972
-7053.2786
12682.979
87192.443
68030.954
75494.102
6956.8456
-24313.855
-26946.725
5016.9094
7625.6362
6510.0145
5862.5639
7461.1688
-1327.142
-6456.9443
15446.457
21156.237
5101.8027
5389.2979
8374.0989
7160.4804
6966.518
4147.8814
12890.016
5443.018
50.19918
16622.777
13119.363
11119.91
14841.706
7100.0381
11326.752
16990.924
11861.192
9392.5138
5884.9271
19704.481
13962.504
-9293.6404
33739.992
17338.07
22388.63
6389.3575
5077.7886
85563.738
41147.608
25342.745
12201.414
65215.194
63322.708
4199.692
45617.98
16410.016
-76131.206
-50976.915
7556.0969
9384.3621
47026.077
20130.576
-43842.175
-80274.775
43818.552
21380.846
-9886.6504
-13002.789
-30081.116
-34035.732
-41617.365
-35537.363
-36637.766
-70870.282
-88736.763
33285.522
83169.052
47904.401
-11920.541
6712.3788
77654.376
73836.044
66837.341
-1710.1279
-26950.214
-18103.133
1904.2488
7017.8918
6698.7896
5851.1566
7424.0837
-1314.0115
-6678.2887
14877.303
20089.357
4967.2562
5298.414
8021.6174
6649.4784
7248.0264
4426.0955
12744.435
5277.321
18.917906
16101.193
13503.726
10375.115
15407.943
7101.3903
7198.0814
16340.121
10504.889
6940.9731
9054.6533
20997.111
10338.426
-13193.551
34911.372
19308.327
18210.992
1361.116
21967.678
94990.86
37191.425
27050.604
10380.267
58015.116
60475.735
1926.7031
43948.346
8493.8556
-78802.004
-53989.633
5862.2051
6354.9566
34669.192
16785.525
-52178.892
-56533.902
47576.869
11874.965
-11614.256
-11085.544
-30552.043
-36742.02
-45918.408
-39491.294
-27767.863
-61961.564
-78507.054
37076.213
79797.053
50569.449
-5670.6814
-9245.1142
47696.174
75960.524
51406.572
-8652.8511
-24203.781
238.50154
819.86749
6888.7401
6660.3972
5904.2733
7391.1352
-1265.1739
-6833.3911
14327.131
19056.873
4673.9801
5200.9248
7712.3577
6275.691
7485.65
4937.3971
12628.253
5310.2301
335.54279
15588.692
13339.622
9247.5904
15170.814
6839.9845
3439.958
15863.638
10049.182
5563.4514
10617.062
21263.252
6719.3046
-13913.079
36173.86
19950.945
13231.533
-2576.759
13049.055
88874.948
41021.43
27105.423
6635.3508
48799.134
56563.375
1758.8497
39919.321
-1142.0619
-82885.675
-55572.959
4426.3419
5646.4974
31341.015
23667.083
-59301.947
-69076.929
47091.326
-6268.7911
-18556.791
-9981.1533
-32443.75
-39805.238
-50725.277
-46502.916
-25081.102
-50185.943
-64864.336
44794.224
74005.801
45307.89
8264.8935
1307.7278
28108.129
76430.531
39443.695
-16565.979
-18694.827
6429.4044
2398.3634
6773.3716
6668.7494
5910.6559
7395.5494
-1307.4882
-6966.8269
13690.73
18156.269
4406.37
5099.1335
7424.8704
5951.4758
7692.6596
5469.3111
12392.68
5799.09
901.73252
15042.687
13741.516
7531.7489
13977.353
6452.849
1059.2931
15691.498
10689.903
5517.6402
12146.216
21164.049
4258.2548
-14412.766
36576.259
20022.312
12002.348
-1931.0802
11001.139
85622.503
39367.822
25832.679
1738.7536
38358.934
50004.403
699.03894
36360.683
-10972.78
-86614.943
-58843.682
5598.6064
7428.4606
29390.807
33984.193
-65952.409
-84548.21
54182.929
-17720.587
-32869.777
-10383.573
-36060.377
-44053.975
-56755.38
-51588
-24919.286
-35759.111
-48972.346
41525.338
62430.069
45456.613
12266.64
-865.409
24644.749
77608.649
24788.87
-23674.754
-14569.281
-2203.6043
3380.211
6765.9204
6638.7685
5985.1843
7390.383
-1366.2036
-7118.3841
12961.012
17334.834
4215.5399
5037.4821
7213.2724
5626.792
7756.4984
5732.2034
12177.54
6774.4723
1689.977
14305.28
14140.416
5459.1892
12244.046
6054.3089
247.35533
15824.428
12729.276
7725.4387
13411.715
21039.844
2243.7877
-13876.099
36898.748
17308.472
11347.209
-2294.9742
12926.909
81191.039
37917.654
24607.493
-3046.9936
32532.292
40618.487
-3037.7581
32651.457
-18150.336
-85814.381
-62558.917
4764.3999
9186.9408
27776.171
31575.628
-53909.841
-82472
35907.061
-13381.816
-32155.754
-14666.97
-43060.167
-48385.818
-60707.593
-62227.978
-26627.065
-23598.267
-36618.007
41531.671
76540.685
48792.282
18251.228
6716.8779
29701.222
79295.709
12118.535
-35324.959
-13838.31
-2207.6658
3186.3975
6745.8329
6588.6364
6071.3114
7377.9082
-1457.0813
-7293.9017
12088.537
16578.193
4104.2239
5030.48
7058.8211
5331.1867
7607.7309
5766.6498
11875.811
7954.9791
2316.1386
13367.307
14741.664
3085.1786
9999.1229
5446.1272
435.84538
15647.366
15486.836
10046.147
14361.74
21299.972
12.598436
-11519.047
36143.558
12905.121
10283.24
-2213.5957
15753.245
78337.726
36826.731
23265.999
-7441.8844
31428.254
22726.253
-8855.5316
28658.119
-20813.024
-82509.906
-61563.445
-659.98042
4284.1301
22070.642
29336.836
-5883.28
-85300.36
-22964.57
-12410.701
-26153.017
-17528.356
-47738.732
-54043.626
-66212.134
-67568.962
-31128.235
-26239.44
-29948.864
47832.268
79633.453
45298.767
21959.9
9177.3738
25909.224
67087.238
14804.956
-34435.35
-12621.641
-1977.4189
3393.8905
6727.6894
6541.8659
6160.326
7351.5464
-1591.5256
-7471.8121
11154.276
15823.6
4004.6083
5052.4204
6898.5077
5060.7384
7233.9494
5651.8697
11414.694
8588.7654
2455.9085
12258.621
15473.352
556.59841
7323.1049
4516.8038
1569.0262
15465.072
17431.017
11141.242
15030.828
22362.474
-1454.6805
-9025.1356
35703.267
7916.4825
8756.5459
-1020.5914
16573.092
76659.377
35921.352
22433.036
-12054.538
33374.363
25250.44
-10084.803
25596.878
-17977.853
-79096.634
-52900.963
4965.3617
2439.8332
20905.059
34014.528
12256.667
-95009.594
-41323.445
-11980.215
-20256.493
-16355.857
-51908.59
-59904.511
-75226.48
-81158.634
-33240.204
-23637.29
-21366.321
40916.816
78070.14
49244.417
31465.744
8822.0539
21398.912
56429.897
13322.631
-23099.201
-6338.3654
-1584.49
3528.087
6708.2059
6502.6668
6242.7238
7308.4342
-1771.0628
-7611.2243
10238.286
15088.823
3883.9122
5088.5407
6715.346
4759.9086
6614.0952
5572.4453
10562.571
8478.7715
2075.1612
11535.226
16099.403
-1793.6871
4351.3105
3459.3467
4335.0748
16141.115
18870.181
12013.787
15479.409
23040.584
-2840.2538
-8484.1882
36721.031
5145.1183
3151.5561
-783.2656
17809.248
76707.88
35218.636
22280.846
-12010.312
35268.073
33752.256
-6065.9852
26804.711
-12354.63
-73211.538
-37894.304
5841.6642
-857.81718
24044.167
40174.704
11557.727
-80541.9
-42466.782
-17929.361
-13438.581
-12304.722
-57766.153
-66335.495
-86601.465
-97870.69
-35735.578
-19023.819
-11144.407
48848.316
79094.813
48337.634
29793.913
11378.457
16521.284
47773.986
14776.585
-17919.619
-2812.3323
-1178.5721
3723.223
6685.907
6476.2853
6325.216
7248.2582
-2000.2192
-7691.5054
9300.5318
14402.864
3835.9205
5140.7184
6556.0686
4461.2055
5769.706
5404.6006
9239.3027
7960.0758
1984.3399
11106.875
16627.837
-3814.3238
1485.0875
2429.3082
6260.7614
16528.029
19718.013
12640.688
15457.721
23573.682
-5631.9851
-10314.415
38410.586
3252.2873
689.02027
-86.293634
19293.175
75707.232
34650.525
22082.308
-7920.4967
31134.851
43387.438
-2897.1349
28275.912
-7368.0035
-67659.146
-25543.741
2964.7677
-4647.8171
27444.641
51795.778
11505.317
-60245.925
-33049.118
-27817.036
-13912.684
-7806.3603
-63687.729
-74080.01
-103374.7
-109675.03
-40554.653
-14985.547
-7614.6124
43496.51
71194.357
49499.519
34250.496
9683.6041
16257.168
40233.53
10060.033
-13425.66
-1081.7416
-707.93375
3840.7669
6663.1544
6457.8066
6409.6985
7174.7127
-2275.3684
-7709.5914
8433.4213
13743.815
3784.71
5207.8953
6460.795
4251.7518
4940.5956
5027.2664
7829.9013
7644.1773
2345.3706
10868.361
17081.98
-5492.4904
-1232.6413
1442.2815
7067.3947
16510.764
19532.754
12865.444
15679.335
23777.815
-7587.2574
-12202.11
40800.152
1331.9
-1167.2226
858.71706
20384.439
71836.068
33961.748
21515.804
-13502.884
32970.953
55674.24
-1215.7101
29196.067
-2561.6518
-61256.316
-14687.1
8439.8483
-5011.7495
28123.638
61535.935
7035.6861
-40540.847
-14454.048
-30589.381
-10728.142
-3842.7606
-70714.288
-82735.164
-121369.1
-131671.2
-49401.931
-7257.67
2825.6634
44913.072
70068.544
49047.081
35052.084
9207.4744
8752.4269
30210.616
-430.11731
-12374.073
-1756.7309
-256.24312
4053.8651
6636.5111
6451.9556
6491.9226
7089.5199
-2594.2593
-7687.4756
7618.1706
13166.318
3782.5761
5316.4145
6442.4489
4145.9271
4203.1403
4575.6779
6687.4818
7611.5642
3068.216
10613.581
17361.866
-6176.9348
-4251.1286
756.42249
8338.543
16068.875
19224.835
13024.207
16273.507
24620.916
-7058.6092
-11896.169
39869.74
-303.40522
-2715.1084
1810.3158
21395.602
59353.948
32689.987
19653.364
-16612.759
34401.523
60254.313
2123.3192
29998.032
-936.66765
-55618.181
-6941.9794
10761.135
-4792.7919
28719.164
66254.291
-634.639
-20545.276
6689.2583
-28238.03
-2876.8514
-1829.1007
-74553.384
-92537.116
-138983.79
-151706.51
-60105.963
-8062.9497
9362.7192
49542.852
65876.575
51522.548
35733.545
5033.7571
-1209.4484
18511.661
-3966.1247
-9610.8026
-4748.1356
230.49544
4134.793
6613.0758
6451.4386
6577.3153
6994.3852
-2947.942
-7664.7003
6841.026
12631.256
3879.1876
5480.2285
6448.4374
4118.7627
3332.008
4052.6601
5860.5277
7638.5028
3877.6582
10407.931
17413.234
-5540.3673
-6071.8452
466.89719
9009.9713
15588.14
18665.967
12910.071
16512.571
25251.547
-3907.3556
-8358.2102
40022.948
-1474.4121
-4982.6016
2727.2937
23090.474
39463.827
30434.965
18109.797
-19045.465
34605.125
60939.358
6355.509
27521.886
-2551.779
-50518.092
-2753.887
9585.6468
-4257.7875
29250.684
64841.872
-10769.124
-4350.9478
25401.671
-25520.863
4257.1326
-4106.0009
-81699.148
-104062.76
-159049.8
-173575.08
-67949.027
-8074.3236
8446.7864
48513.206
61920.302
50421.818
37843.317
2541.2778
-10788.818
9023.974
-2412.1017
-4257.8516
-2634.2077
677.84184
4369.832
6578.9618
6460.2106
6662.7133
6894.3368
-3326.4726
-7670.766
6142.0541
12112.263
4030.5788
5689.8951
6428.305
4121.492
2428.7985
3381.1833
5233.7237
7815.7455
4651.5108
10231.118
17392.694
-4435.654
-6504.6687