/*--------------------------------*- C++ -*----------------------------------*\
| =========                 |                                                 |
| \\      /  F ield         | OpenFOAM: The Open Source CFD Toolbox           |
|  \\    /   O peration     | Version:  2.3.0                                 |
|   \\  /    A nd           | Web:      www.OpenFOAM.org                      |
|    \\/     M anipulation  |                                                 |
\*---------------------------------------------------------------------------*/
FoamFile
{
    version     2.0;
    format      ascii;
    class       surfaceScalarField;
    location    "1.1e-05";
    object      phi;
}
// * * * * * * * * * * * * * * * * * * * * * * * * * * * * * * * * * * * * * //

dimensions      [0 3 -1 0 0 0 0];

internalField   nonuniform List<scalar> 
14825
(
1.0345913e-09
-2.0829957e-11
1.0545273e-09
-1.9935958e-11
1.0757566e-09
-2.1229351e-11
1.0953185e-09
-1.9561856e-11
1.1158117e-09
-2.0493208e-11
1.1361016e-09
-2.02899e-11
1.156415e-09
-2.0313369e-11
1.1758765e-09
-1.9461536e-11
1.1960231e-09
-2.014656e-11
1.2161344e-09
-2.0111313e-11
1.2346005e-09
-1.8466141e-11
1.2562504e-09
-2.1649869e-11
1.2742884e-09
-1.8038005e-11
1.2939362e-09
-1.9647844e-11
1.3141331e-09
-2.0196883e-11
1.3310149e-09
-1.6881732e-11
1.3519293e-09
-2.0914467e-11
1.3692092e-09
-1.727991e-11
1.3877708e-09
-1.8561589e-11
1.4074179e-09
-1.9647058e-11
1.4235264e-09
-1.610852e-11
1.4440992e-09
-2.0572822e-11
1.4598979e-09
-1.5798702e-11
1.4776154e-09
-1.7717452e-11
1.4966278e-09
-1.901243e-11
1.5114395e-09
-1.4811688e-11
1.5297742e-09
-1.8334697e-11
1.5455525e-09
-1.5778277e-11
1.5615662e-09
-1.6013682e-11
1.5808845e-09
-1.9318323e-11
1.5942902e-09
-1.3405757e-11
1.6084421e-09
-1.4151867e-11
1.6293805e-09
-2.0938387e-11
1.639157e-09
-9.7764849e-12
1.6576391e-09
-1.8482165e-11
1.6702063e-09
-1.2567144e-11
1.6839612e-09
-1.3754903e-11
1.7024667e-09
-1.8505506e-11
1.7094977e-09
-7.0309916e-12
1.7309568e-09
-2.1459064e-11
1.7358869e-09
-4.9301137e-12
1.7547719e-09
-1.8885059e-11
1.7639081e-09
-9.1361339e-12
1.7785529e-09
-1.4644881e-11
1.7917501e-09
-1.3197204e-11
1.803226e-09
-1.1475879e-11
1.8117409e-09
-8.5148534e-12
1.8293947e-09
-1.7653809e-11
1.8337658e-09
-4.3711408e-12
1.8473028e-09
-1.3537012e-11
1.8575784e-09
-1.0275573e-11
1.8657391e-09
-8.1606792e-12
1.8763861e-09
-1.0647048e-11
1.8885393e-09
-1.215315e-11
1.8953055e-09
-6.7662142e-12
1.9055521e-09
-1.0246594e-11
1.9122533e-09
-6.7012081e-12
1.9206375e-09
-8.3841622e-12
1.9301329e-09
-9.495452e-12
1.9333158e-09
-3.1829274e-12
1.9465921e-09
-1.3276298e-11
1.9519979e-09
-5.4057509e-12
1.9606298e-09
-8.6318799e-12
1.9613438e-09
-7.1402397e-13
1.9748269e-09
-1.3483098e-11
1.9719933e-09
2.8335723e-12
1.9786323e-09
-6.6389402e-12
1.9898498e-09
-1.1217489e-11
1.9878436e-09
2.0061228e-12
1.9915461e-09
-3.7024293e-12
2.0004973e-09
-8.9511908e-12
1.9959453e-09
4.5519608e-12
1.9992724e-09
-3.327136e-12
2.0055237e-09
-6.2512234e-12
-1.1862317e-12
2.8630297e-09
-8.1893736e-11
2.9215221e-09
-7.8428336e-11
2.9841745e-09
-8.3881725e-11
3.0418371e-09
-7.7224447e-11
3.1024315e-09
-8.1087642e-11
3.1624446e-09
-8.0303029e-11
3.222607e-09
-8.0475709e-11
3.2808856e-09
-7.7740185e-11
3.3404664e-09
-7.9727365e-11
3.4006285e-09
-8.0273443e-11
3.4560056e-09
-7.3843198e-11
3.5201395e-09
-8.5783758e-11
3.5751539e-09
-7.305244e-11
3.6333593e-09
-7.7853268e-11
3.6944934e-09
-8.1330909e-11
3.7459247e-09
-6.8313042e-11
3.8084859e-09
-8.3475716e-11
3.8616116e-09
-7.0405615e-11
3.9180978e-09
-7.5047792e-11
3.9776051e-09
-7.9154317e-11
4.0278249e-09
-6.6328304e-11
4.0895148e-09
-8.2262752e-11
4.1389849e-09
-6.5268746e-11
4.193734e-09
-7.2466599e-11
4.2511877e-09
-7.6466147e-11
4.2985048e-09
-6.2128792e-11
4.3542793e-09
-7.4109132e-11
4.4042197e-09
-6.571874e-11
4.4551561e-09
-6.6950054e-11
4.5127147e-09
-7.6876921e-11
4.5575013e-09
-5.8192366e-11
4.6025589e-09
-5.9209448e-11
4.6662771e-09
-8.4656648e-11
4.6999125e-09
-4.3411854e-11
4.7574973e-09
-7.6066914e-11
4.7991996e-09
-5.4269515e-11
4.8433092e-09
-5.7864517e-11
4.9011695e-09
-7.6365715e-11
4.9281615e-09
-3.4023016e-11
4.9934774e-09
-8.6775003e-11
5.0153487e-09
-2.6801396e-11
5.0752509e-09
-7.8787218e-11
5.1087177e-09
-4.2602991e-11
5.1552538e-09
-6.1180948e-11
5.1986918e-09
-5.6635247e-11
5.2368892e-09
-4.967327e-11
5.2664671e-09
-3.8092758e-11
5.3230695e-09
-7.4256146e-11
5.3432996e-09
-2.4601295e-11
5.3909258e-09
-6.1163182e-11
5.4286703e-09
-4.802009e-11
5.4578774e-09
-3.7367806e-11
5.4943535e-09
-4.7123095e-11
5.5381232e-09
-5.5922832e-11
5.562027e-09
-3.0670011e-11
5.5981732e-09
-4.6392812e-11
5.6270158e-09
-3.554387e-11
5.6577742e-09
-3.9142561e-11
5.690787e-09
-4.2508172e-11
5.7074321e-09
-1.9828029e-11
5.7477568e-09
-5.3601016e-11
5.7667021e-09
-2.4351036e-11
5.7955864e-09
-3.7516196e-11
5.806487e-09
-1.1614622e-11
5.8495411e-09
-5.653726e-11
5.8581028e-09
-5.7280641e-12
5.8820121e-09
-3.0548267e-11
5.9179576e-09
-4.7163033e-11
5.9173036e-09
2.6601246e-12
5.9404998e-09
-2.689857e-11
5.9701944e-09
-3.86458e-11
5.9684087e-09
6.3376604e-12
5.9887663e-09
-2.368479e-11
6.0093735e-09
-2.685841e-11
-1.1918793e-11
4.3671711e-09
-1.8095536e-10
4.4622354e-09
-1.7349256e-10
4.5644028e-09
-1.8604916e-10
4.6589833e-09
-1.7180497e-10
4.757818e-09
-1.7992233e-10
4.8567243e-09
-1.792093e-10
4.9555066e-09
-1.7925808e-10
5.0521994e-09
-1.7443289e-10
5.1501477e-09
-1.7767574e-10
5.2492125e-09
-1.7933826e-10
5.3415605e-09
-1.6619118e-10
5.4456786e-09
-1.899018e-10
5.5393112e-09
-1.6668506e-10
5.6349815e-09
-1.7352362e-10
5.7377577e-09
-1.841071e-10
5.8251219e-09
-1.5567723e-10
5.9279395e-09
-1.8629326e-10
6.0179298e-09
-1.6039596e-10
6.1137485e-09
-1.7086647e-10
6.2126875e-09
-1.7809337e-10
6.3008871e-09
-1.5452783e-10
6.4037098e-09
-1.8508547e-10
6.4889784e-09
-1.5053733e-10
6.5841175e-09
-1.6760574e-10
6.6782997e-09
-1.7064836e-10
6.7629419e-09
-1.46771e-10
6.8562854e-09
-1.6745265e-10
6.9437892e-09
-1.5322249e-10
7.0342286e-09
-1.573895e-10
7.1294814e-09
-1.7212966e-10
7.2102276e-09
-1.3893857e-10
7.292305e-09
-1.4128681e-10
7.3973316e-09
-1.8968325e-10
7.4615806e-09
-1.0766094e-10
7.5609903e-09
-1.7547658e-10
7.6361933e-09
-1.2947254e-10
7.7158416e-09
-1.3751281e-10
7.8131966e-09
-1.7372065e-10
7.8710562e-09
-9.188269e-11
7.9793901e-09
-1.9510884e-10
8.0244117e-09
-7.182304e-11
8.1279284e-09
-1.8230394e-10
8.1875263e-09
-1.0220085e-10
8.2742908e-09
-1.4794544e-10
8.3538693e-09
-1.3621377e-10
8.4282833e-09
-1.2408727e-10
8.4862673e-09
-9.6076743e-11
8.583513e-09
-1.7150186e-10
8.6265672e-09
-6.7655473e-11
8.7151761e-09
-1.497721e-10
8.7865686e-09
-1.1941262e-10
8.8432989e-09
-9.4098032e-11
8.9138376e-09
-1.1766179e-10
8.9947217e-09
-1.36807e-10
9.0444987e-09
-8.0446941e-11
9.1116713e-09
-1.1356547e-10
9.1716666e-09
-9.5539196e-11
9.2331437e-09
-1.0061957e-10
9.2951803e-09
-1.0454483e-10
9.3377648e-09
-6.2412531e-11
9.4099524e-09
-1.2578856e-10
9.4583561e-09
-7.2754785e-11
9.51363e-09
-9.2790115e-11
9.554711e-09
-5.269554e-11
9.627289e-09
-1.2911532e-10
9.6620902e-09
-4.0529253e-11
9.7047429e-09
-7.3200936e-11
9.7767106e-09
-1.191308e-10
9.784708e-09
-5.3372803e-12
9.8438349e-09
-8.6025422e-11
9.9029984e-09
-9.7809289e-11
9.9242416e-09
-1.4905568e-11
9.9679949e-09
-6.7438104e-11
1.000264e-08
-6.1503437e-11
-4.2154943e-11
5.590837e-09
-3.1532159e-10
5.7207461e-09
-3.0340172e-10
5.8600623e-09
-3.2536536e-10
5.9909968e-09
-3.027395e-10
6.1261384e-09
-3.1506392e-10
6.2630544e-09
-3.1612528e-10
6.3990128e-09
-3.1521651e-10
6.5329588e-09
-3.0837882e-10
6.6684938e-09
-3.1321079e-10
6.8045632e-09
-3.1540762e-10
6.9341719e-09
-2.957999e-10
7.0765714e-09
-3.3230128e-10
7.2104226e-09
-3.0053624e-10
7.3420221e-09
-3.0512317e-10
7.485795e-09
-3.2787999e-10
7.6108749e-09
-2.8075708e-10
7.7542858e-09
-3.2970424e-10
7.8829081e-09
-2.8901827e-10
8.0197953e-09
-3.0775368e-10
8.1540901e-09
-3.1238815e-10
8.2815527e-09
-2.8199038e-10
8.4260508e-09
-3.2958363e-10
8.5487391e-09
-2.732256e-10
8.6865662e-09
-3.0543283e-10
8.8179521e-09
-3.020343e-10
8.9449294e-09
-2.7374822e-10
9.0764125e-09
-2.9893584e-10
9.2039396e-09
-2.8074956e-10
9.3359167e-09
-2.8936658e-10
9.4679593e-09
-3.0417223e-10
9.5874695e-09
-2.5844876e-10
9.713867e-09
-2.6768434e-10
9.8562629e-09
-3.3207914e-10
9.9578088e-09
-2.0920684e-10
1.0098956e-08
-3.1662363e-10
1.0214018e-08
-2.4453514e-10
1.0331858e-08
-2.5535275e-10
1.0467361e-08
-3.0922305e-10
1.0566885e-08
-1.9140743e-10
1.0716548e-08
-3.4477145e-10
1.0794544e-08
-1.4981924e-10
1.0948851e-08
-3.366102e-10
1.1044143e-08
-1.9749341e-10
1.1174306e-08
-2.7810859e-10
1.1281148e-08
-2.4305532e-10
1.1385202e-08
-2.2814194e-10
1.1484768e-08
-1.9564184e-10
1.163193e-08
-3.1866417e-10
1.1709351e-08
-1.4507678e-10
1.1843604e-08
-2.840252e-10
1.1944774e-08
-2.2058227e-10
1.204329e-08
-1.9261443e-10
1.2159591e-08
-2.339622e-10
1.2277482e-08
-2.5469868e-10
1.2361342e-08
-1.6430634e-10
1.246832e-08
-2.2054382e-10
1.2562978e-08
-1.9019731e-10
1.2661141e-08
-1.9878202e-10
1.2761199e-08
-2.0460312e-10
1.2841099e-08
-1.4231214e-10
1.2945354e-08
-2.3004411e-10
1.303518e-08
-1.6258079e-10
1.3119975e-08
-1.7758465e-10
1.3200562e-08
-1.3328238e-10
1.33072e-08
-2.3575342e-10
1.3381949e-08
-1.1527843e-10
1.3461072e-08
-1.5232451e-10
1.357261e-08
-2.3066872e-10
1.3601071e-08
-3.3797936e-11
1.369934e-08
-1.8429419e-10
1.3791068e-08
-1.8953782e-10
1.3844039e-08
-6.7875809e-11
1.3914384e-08
-1.3778378e-10
1.3984596e-08
-1.3171491e-10
-1.0213183e-10
6.5730286e-09
-4.8257893e-10
6.7357034e-09
-4.6607643e-10
6.9103967e-09
-5.000587e-10
7.0765089e-09
-4.6885167e-10
7.2457128e-09
-4.8426784e-10
7.4188258e-09
-4.8923829e-10
7.5905805e-09
-4.8697125e-10
7.7606795e-09
-4.7847777e-10
7.9335108e-09
-4.8604213e-10
8.1054158e-09
-4.8731261e-10
8.2730005e-09
-4.6338456e-10
8.4508464e-09
-5.1014725e-10
8.6257353e-09
-4.7542512e-10
8.7933937e-09
-4.7278151e-10
8.9783096e-09
-5.1279597e-10
9.142007e-09
-4.4445446e-10
9.3239498e-09
-5.1164706e-10
9.4883334e-09
-4.5340187e-10
9.6674496e-09
-4.8686985e-10
9.8388178e-09
-4.837563e-10
1.0009635e-08
-4.5280748e-10
1.0187851e-08
-5.0779951e-10
1.0349811e-08
-4.3518592e-10
1.0532909e-08
-4.8853073e-10
1.0701001e-08
-4.7012662e-10
1.0875112e-08
-4.4785875e-10
1.1043735e-08
-4.675592e-10
1.121286e-08
-4.4987388e-10
1.1389582e-08
-4.6608886e-10
1.1558142e-08
-4.7273272e-10
1.1720486e-08
-4.2079213e-10
1.1896962e-08
-4.4416084e-10
1.2076015e-08
-5.1113176e-10
1.2222241e-08
-3.5543339e-10
1.240344e-08
-4.9782187e-10
1.256141e-08
-4.0250546e-10
1.271634e-08
-4.1028318e-10
1.288925e-08
-4.8213266e-10
1.3033084e-08
-3.3524124e-10
1.3225023e-08
-5.3671076e-10
1.3346428e-08
-2.712243e-10
1.3547472e-08
-5.3765361e-10
1.3687069e-08
-3.3709097e-10
1.3870437e-08
-4.6147642e-10
1.4019019e-08
-3.9163753e-10
1.4169464e-08
-3.7858672e-10
1.4316127e-08
-3.423052e-10
1.4480647e-08
-4.8318345e-10
1.4590773e-08
-2.5520294e-10
1.478326e-08
-4.7651239e-10
1.493708e-08
-3.7440198e-10
1.5076681e-08
-3.3221537e-10
1.5238131e-08
-3.9541248e-10
1.5403089e-08
-4.1965654e-10
1.5532146e-08
-2.9336361e-10
1.5683601e-08
-3.7199855e-10
1.5817654e-08
-3.2425105e-10
1.5955838e-08
-3.3696556e-10
1.6100823e-08
-3.4958829e-10
1.6224907e-08
-2.6639623e-10
1.6369833e-08
-3.7496979e-10
1.6503427e-08
-2.9617456e-10
1.6631202e-08
-3.0535997e-10
1.6759812e-08
-2.618922e-10
1.6910021e-08
-3.8596277e-10
1.7014399e-08
-2.1965586e-10
1.7143956e-08
-2.8188185e-10
1.7280972e-08
-3.6768506e-10
1.7359068e-08
-1.1189411e-10
1.7497756e-08
-3.2298217e-10
1.7653702e-08
-3.4548366e-10
1.7745445e-08
-1.5961856e-10
1.7857583e-08
-2.4992158e-10
1.7956045e-08
-2.3017732e-10
-2.0091278e-10
7.3502767e-09
-6.8300903e-10
7.5407793e-09
-6.5657902e-10
7.74885e-09
-7.0812944e-10
7.948481e-09
-6.6848263e-10
8.1505719e-09
-6.8635874e-10
8.3585075e-09
-6.9717389e-10
8.5648992e-09
-6.9336302e-10
8.7709931e-09
-6.8457159e-10
8.9798895e-09
-6.949386e-10
9.1876787e-09
-6.9510177e-10
9.3923365e-09
-6.6804231e-10
9.6023376e-09
-7.2014835e-10
9.8172698e-09
-6.9035732e-10
1.0018932e-08
-6.7444386e-10
1.0243526e-08
-7.3739022e-10
1.0446865e-08
-6.4779274e-10
1.0667109e-08
-7.3189149e-10
1.0871536e-08
-6.5782872e-10
1.109208e-08
-7.0741416e-10
1.1295073e-08
-6.8674875e-10
1.1510024e-08
-6.677586e-10
1.172472e-08
-7.2249579e-10
1.1930502e-08
-6.409681e-10
1.2152142e-08
-7.1017025e-10
1.2357335e-08
-6.7532029e-10
1.258093e-08
-6.7145327e-10
1.2786934e-08
-6.7356295e-10
1.3000319e-08
-6.6325929e-10
1.3221698e-08
-6.8746754e-10
1.3426726e-08
-6.7776046e-10
1.3642456e-08
-6.3652234e-10
1.3865505e-08
-6.6720981e-10
1.4081182e-08
-7.2680905e-10
1.4283019e-08
-5.5727085e-10
1.4496987e-08
-7.1178949e-10
1.4708072e-08
-6.1359037e-10
1.4903641e-08
-6.058517e-10
1.5122733e-08
-7.0122481e-10
1.5310233e-08
-5.2274177e-10
1.5541615e-08
-7.6809246e-10
1.5703284e-08
-4.3289386e-10
1.5946389e-08
-7.8075839e-10
1.612882e-08
-5.1952161e-10
1.6370843e-08
-7.0349983e-10
1.6563023e-08
-5.8381764e-10
1.6764607e-08
-5.8017058e-10
1.6970908e-08
-5.4860621e-10
1.7186988e-08
-6.9926286e-10
1.7357693e-08
-4.259082e-10
1.7578192e-08
-6.9701184e-10
1.7758817e-08
-5.5502685e-10
1.7943748e-08
-5.1714627e-10
1.8175994e-08
-6.2765838e-10
1.8386299e-08
-6.299616e-10
1.8567639e-08
-4.7470337e-10
1.8770731e-08
-5.7509023e-10
1.8943581e-08
-4.9710126e-10
1.914174e-08
-5.3512477e-10
1.9325482e-08
-5.3333067e-10
1.9496802e-08
-4.377161e-10
1.9696229e-08
-5.7439655e-10
1.9881622e-08
-4.8156795e-10
2.0033535e-08
-4.5727301e-10
2.0228969e-08
-4.5732566e-10
2.043499e-08
-5.919839e-10
2.0583701e-08
-3.6836638e-10
2.0779937e-08
-4.7811839e-10
2.0969803e-08
-5.57551e-10
2.1091935e-08
-2.3402558e-10
2.1242963e-08
-4.7401059e-10
2.143957e-08
-5.4209064e-10
2.1602966e-08
-3.2301478e-10
2.1783918e-08
-4.3087338e-10
2.1918303e-08
-3.6456279e-10
-3.4712102e-10
7.9520304e-09
-9.1680289e-10
8.1649939e-09
-8.6954248e-10
8.405779e-09
-9.4891455e-10
8.6380775e-09
-9.0078121e-10
8.8723705e-09
-9.2065171e-10
9.1137339e-09
-9.3853727e-10
9.3538156e-09
-9.3344471e-10
9.5930979e-09
-9.2385395e-10
9.8337279e-09
-9.3556854e-10
1.0077389e-08
-9.3876304e-10
1.0317716e-08
-9.0836938e-10
1.0556965e-08
-9.5939762e-10
1.0811943e-08
-9.4533519e-10
1.1047176e-08
-9.0967612e-10
1.1309895e-08
-1.0001097e-09
1.1556622e-08
-8.9451993e-10
1.1810856e-08
-9.8612529e-10
1.2057228e-08
-9.0420078e-10
1.2318545e-08
-9.6873106e-10
1.2555109e-08
-9.2331261e-10
1.2815629e-08
-9.2827894e-10
1.306299e-08
-9.6985646e-10
1.3316086e-08
-8.9406414e-10
1.3574662e-08
-9.6874625e-10
1.38138e-08
-9.1445794e-10
1.4085783e-08
-9.4343678e-10
1.4328223e-08
-9.1600278e-10
1.4595538e-08
-9.3057397e-10
1.4860032e-08
-9.5196222e-10
1.5100284e-08
-9.1801263e-10
1.5380615e-08
-9.1685267e-10
1.5638042e-08
-9.246365e-10
1.5901916e-08
-9.9068388e-10
1.6151236e-08
-8.0659004e-10
1.6407395e-08
-9.6794934e-10
1.6673219e-08
-8.7941395e-10
1.6895655e-08
-8.2828725e-10
1.7180896e-08
-9.8646653e-10
1.7403746e-08
-7.4559163e-10
1.7687231e-08
-1.0515778e-09
1.7910651e-08
-6.5631362e-10
1.820091e-08
-1.0710168e-09
1.8427381e-08
-7.4599336e-10
1.873133e-08
-1.0074482e-09
1.8947938e-08
-8.0042551e-10
1.9187123e-08
-8.1935552e-10
1.9459173e-08
-8.2065648e-10
1.9703434e-08
-9.4352372e-10
1.9946629e-08
-6.691038e-10
2.023626e-08
-9.8664258e-10
2.047549e-08
-7.9425636e-10
2.0706146e-08
-7.478025e-10
2.0979091e-08
-9.0060412e-10
2.1201827e-08
-8.5269735e-10
2.1451666e-08
-7.2454166e-10
2.1722291e-08
-8.4571614e-10
2.193891e-08
-7.1371971e-10
2.2210057e-08
-8.0627202e-10
2.2456977e-08
-7.8025097e-10
2.2662773e-08
-6.4351135e-10
2.2916971e-08
-8.2859479e-10
2.3178277e-08
-7.4287446e-10
2.3372227e-08
-6.5122255e-10
2.3607806e-08
-6.9290437e-10
2.3845159e-08
-8.2933674e-10
2.4045796e-08
-5.6900339e-10
2.4299601e-08
-7.3192425e-10
2.4563892e-08
-8.2184135e-10
2.4772551e-08
-4.4268497e-10
2.4999849e-08
-7.0130883e-10
2.5260763e-08
-8.0300457e-10
2.5469106e-08
-5.3135751e-10
2.5651006e-08
-6.1277329e-10
2.5861702e-08
-5.7525888e-10
-5.4884205e-10
8.3992544e-09
-1.1793504e-09
8.6385418e-09
-1.1088299e-09
8.9100282e-09
-1.220401e-09
9.1710129e-09
-1.1617659e-09
9.4367074e-09
-1.1863462e-09
9.7055939e-09
-1.2074237e-09
9.9762462e-09
-1.204097e-09
1.0248479e-08
-1.1960865e-09
1.051765e-08
-1.2047401e-09
1.079709e-08
-1.2182027e-09
1.1074088e-08
-1.1853677e-09
1.1346102e-08
-1.2314114e-09
1.1641185e-08
-1.2404182e-09
1.1912101e-08
-1.1805918e-09
1.2207997e-08
-1.2960061e-09
1.2498927e-08
-1.1854498e-09
1.278511e-08
-1.2723082e-09
1.3074135e-08
-1.1932261e-09
1.3371574e-08
-1.2661698e-09
1.3642411e-08
-1.1941496e-09
1.3949789e-08
-1.2356573e-09
1.4220186e-08
-1.240253e-09
1.4531888e-08
-1.2057659e-09
1.4822129e-08
-1.2589876e-09
1.5106015e-08
-1.1983443e-09
1.5429073e-08
-1.2664944e-09
1.5700232e-08
-1.1871614e-09
1.6019774e-08
-1.2501167e-09
1.6328074e-08
-1.2602623e-09
1.6605888e-08
-1.1958261e-09
1.6946749e-08
-1.2577136e-09
1.7232435e-08
-1.2103231e-09
1.7555849e-08
-1.3140974e-09
1.784361e-08
-1.0943517e-09
1.8153577e-08
-1.2779162e-09
1.8474742e-08
-1.2005783e-09
1.8729302e-08
-1.0828477e-09
1.908484e-08
-1.3420045e-09
1.933619e-08
-9.9694119e-10
1.9685547e-08
-1.4009347e-09
1.9949734e-08
-9.2050154e-10
2.0291574e-08
-1.4128563e-09
2.0585765e-08
-1.0401846e-09
2.0931971e-08
-1.3536538e-09
2.1214607e-08
-1.0830621e-09
2.1512804e-08
-1.1175523e-09
2.1831687e-08
-1.1395394e-09
2.2106803e-08
-1.2186396e-09
2.2387292e-08
-9.4959251e-10
2.2715883e-08
-1.3152345e-09
2.3022524e-08
-1.1008966e-09
2.33103e-08
-1.0355791e-09
2.3693981e-08
-1.2842844e-09
2.394795e-08
-1.1066672e-09
2.4238541e-08
-1.0151323e-09
2.4561171e-08
-1.1683463e-09
2.4799911e-08
-9.5245976e-10
2.511101e-08
-1.1173704e-09
2.5477796e-08
-1.1470377e-09
2.5723518e-08
-8.8923313e-10
2.6027522e-08
-1.132599e-09
2.6373348e-08
-1.0887002e-09
2.6627034e-08
-9.0490847e-10
2.6914539e-08
-9.8040942e-10
2.724884e-08
-1.1636376e-09
2.7474714e-08
-7.9487771e-10
2.7764757e-08
-1.0219671e-09
2.806612e-08
-1.1232038e-09
2.8342714e-08
-7.1927895e-10
2.8608179e-08
-9.667745e-10
2.8960388e-08
-1.1552128e-09
2.9273308e-08
-8.442776e-10
2.9536129e-08
-8.7559454e-10
2.9757675e-08
-7.968051e-10
-8.0844999e-10
8.7136676e-09
-1.4653099e-09
8.9850411e-09
-1.3802034e-09
9.2813008e-09
-1.5166607e-09
9.5672682e-09
-1.4477333e-09
9.8625167e-09
-1.4815947e-09
1.0156103e-08
-1.5010105e-09
1.045688e-08
-1.5048732e-09
1.0761029e-08
-1.5002356e-09
1.1062339e-08
-1.5060499e-09
1.1377068e-08
-1.5329321e-09
1.1691187e-08
-1.4994863e-09
1.2000452e-08
-1.5406773e-09
1.2326328e-08
-1.5662938e-09
1.2638635e-08
-1.4928985e-09
1.2957243e-08
-1.6146144e-09
1.3292034e-08
-1.5202404e-09
1.360202e-08
-1.5822943e-09
1.393525e-08
-1.5264562e-09
1.4269408e-08
-1.600328e-09
1.4574575e-08
-1.4993162e-09
1.4938807e-08
-1.5998898e-09
1.5228737e-08
-1.5301829e-09
1.5596743e-08
-1.573772e-09
1.5923148e-08
-1.5853925e-09
1.6248793e-08
-1.523989e-09
1.6620274e-08
-1.6379759e-09
1.6936738e-08
-1.5036257e-09
1.7303526e-08
-1.6169044e-09
1.763259e-08
-1.5893265e-09
1.7971246e-08
-1.5344814e-09
1.8354594e-08
-1.6410621e-09
1.8666627e-08
-1.5223561e-09
1.9051668e-08
-1.6991379e-09
1.9398364e-08
-1.441048e-09
1.9735556e-08
-1.6151078e-09
2.01419e-08
-1.6069222e-09
2.0421927e-08
-1.3628748e-09
2.0841065e-08
-1.7611425e-09
2.1142001e-08
-1.2978779e-09
2.1529664e-08
-1.7885973e-09
2.186831e-08
-1.2591473e-09
2.2215956e-08
-1.7605022e-09
2.2591083e-08
-1.4153116e-09
2.2974488e-08
-1.7370586e-09
2.3288426e-08
-1.3970005e-09
2.3698834e-08
-1.5279607e-09
2.4024236e-08
-1.4649408e-09
2.4398047e-08
-1.5924508e-09
2.4740815e-08
-1.2923603e-09
2.5059571e-08
-1.6339909e-09
2.5457041e-08
-1.498366e-09
2.5740306e-08
-1.3188448e-09
2.6183539e-08
-1.7275171e-09
2.6536552e-08
-1.4596806e-09
2.6908102e-08
-1.3866816e-09
2.7311603e-08
-1.5718478e-09
2.7567095e-08
-1.207952e-09
2.789218e-08
-1.4424554e-09
2.8321972e-08
-1.5768292e-09
2.8648438e-08
-1.2156998e-09
2.8986861e-08
-1.471022e-09
2.9443354e-08
-1.5451924e-09
2.9740705e-08
-1.2022601e-09
3.0065899e-08
-1.3056028e-09
3.0484491e-08
-1.5822295e-09
3.0792322e-08
-1.1027088e-09
3.10546e-08
-1.284246e-09
3.1456802e-08
-1.5254052e-09
3.1820214e-08
-1.0826916e-09
3.2078369e-08
-1.2249293e-09
3.2450986e-08
-1.5278296e-09
3.2835452e-08
-1.2287438e-09
3.3194885e-08
-1.2350277e-09
3.3520067e-08
-1.1219862e-09
-1.1232077e-09
8.919476e-09
-1.7740058e-09
9.2232922e-09
-1.6840196e-09
9.5395436e-09
-1.8329121e-09
9.8513854e-09
-1.7595751e-09
1.0175424e-08
-1.805633e-09
1.049201e-08
-1.8175966e-09
1.0823424e-08
-1.8362872e-09
1.1157799e-08
-1.8346107e-09
1.1491092e-08
-1.8393433e-09
1.1837536e-08
-1.8793761e-09
1.2184646e-08
-1.8465962e-09
1.2532691e-08
-1.888722e-09
1.2878266e-08
-1.9118685e-09
1.3237787e-08
-1.8524202e-09
1.3571969e-08
-1.9487966e-09
1.3949087e-08
-1.8973577e-09
1.4285512e-08
-1.9187195e-09
1.4657119e-08
-1.8980626e-09
1.5033713e-08
-1.976922e-09
1.5371506e-08
-1.8371102e-09
1.5788004e-08
-2.0163868e-09
1.6115327e-08
-1.8575066e-09
1.6531067e-08
-1.9895123e-09
1.6896987e-08
-1.9513117e-09
1.7267566e-08
-1.8945679e-09
1.7668756e-08
-2.0391668e-09
1.803692e-08
-1.8717898e-09
1.8453343e-08
-2.0333268e-09
1.8802588e-08
-1.9385719e-09
1.9201759e-08
-1.9336523e-09
1.9631904e-08
-2.0712071e-09
1.9979734e-08
-1.8701856e-09
2.0413517e-08
-2.1329215e-09
2.0819648e-08
-1.8471792e-09
2.1178267e-08
-1.973726e-09
2.1658653e-08
-2.087309e-09
2.1974211e-08
-1.6784323e-09
2.2449907e-08
-2.2368383e-09
2.2807714e-08
-1.6556846e-09
2.3215716e-08
-2.1965992e-09
2.3647705e-08
-1.6911366e-09
2.3980992e-08
-2.0937889e-09
2.4455957e-08
-1.8902772e-09
2.483828e-08
-2.1193818e-09
2.5209962e-08
-1.7686825e-09
2.5707269e-08
-2.0252677e-09
2.6017036e-08
-1.7747078e-09
2.6471172e-08
-2.0465867e-09
2.6888142e-08
-1.7093303e-09
2.7223594e-08
-1.9694433e-09
2.7755397e-08
-2.0301688e-09
2.8055199e-08
-1.6186471e-09
2.8511847e-08
-2.1841651e-09
2.8889106e-08
-1.8369393e-09
2.9344624e-08
-1.842199e-09
2.9773924e-08
-2.0011486e-09
3.0190388e-08
-1.624416e-09
3.0512632e-08
-1.764699e-09
3.0961242e-08
-2.0254391e-09
3.1318776e-08
-1.5732343e-09
3.1665607e-08
-1.8178527e-09
3.2235506e-08
-2.1150916e-09
3.2598926e-08
-1.56568e-09
3.2961409e-08
-1.668086e-09
3.3424577e-08
-2.0453966e-09
3.3818149e-08
-1.4962815e-09
3.4101708e-08
-1.5678048e-09
3.4658805e-08
-2.0825016e-09
3.5079579e-08
-1.503466e-09
3.5311591e-08
-1.4569417e-09
3.5703891e-08
-1.9201297e-09
3.6172669e-08
-1.6975218e-09
3.6621256e-08
-1.6836148e-09
3.702705e-08
-1.52778e-09
-1.4730754e-09
9.0392825e-09
-2.11038e-09
9.3637487e-09
-2.0084858e-09
9.7020653e-09
-2.1712288e-09
1.0042122e-08
-2.0996322e-09
1.0388242e-08
-2.1517529e-09
1.0733635e-08
-2.1629894e-09
1.1093102e-08
-2.1957544e-09
1.1454553e-08
-2.1960617e-09
1.1818712e-08
-2.2035017e-09
1.2193431e-08
-2.2540951e-09
1.2565706e-08
-2.2188717e-09
1.2950933e-08
-2.2739487e-09
1.3312309e-08
-2.2732445e-09
1.3715731e-08
-2.2558422e-09
1.4074013e-08
-2.3070783e-09
1.4485614e-08
-2.3089591e-09
1.4862375e-08
-2.295481e-09
1.5268345e-08
-2.3040323e-09
1.5681974e-08
-2.3905507e-09
1.6065632e-08
-2.2207679e-09
1.6514267e-08
-2.4650223e-09
1.6890456e-08
-2.2336958e-09
1.733886e-08
-2.4379162e-09
1.7751934e-08
-2.3643855e-09
1.8162449e-08
-2.3050829e-09
1.8597152e-08
-2.4738696e-09
1.902081e-08
-2.2954482e-09
1.9453441e-08
-2.4659573e-09
1.9867527e-08
-2.3526581e-09
2.0310223e-08
-2.3763481e-09
2.0759863e-08
-2.5208469e-09
2.1174163e-08
-2.2844857e-09
2.1629868e-08
-2.5886268e-09
2.2089455e-08
-2.3067666e-09
2.2500441e-08
-2.3847116e-09
2.3013401e-08
-2.6002695e-09
2.3368655e-08
-2.0336862e-09
2.3887584e-08
-2.7557669e-09
2.4277938e-08
-2.0460385e-09
2.4741538e-08
-2.6601992e-09
2.5192609e-08
-2.142208e-09
2.5563897e-08
-2.4650764e-09
2.6125458e-08
-2.4518383e-09
2.6470935e-08
-2.4648588e-09
2.6957915e-08
-2.2556631e-09
2.7468564e-08
-2.5359159e-09
2.7804583e-08
-2.1107273e-09
2.8304896e-08
-2.5469e-09
2.8780881e-08
-2.1853144e-09
2.9104432e-08
-2.2929947e-09
2.9627049e-08
-2.5527854e-09
3.0059598e-08
-2.0511962e-09
3.057228e-08
-2.6968471e-09
3.0991214e-08
-2.2558736e-09
3.1535876e-08
-2.3868613e-09
3.1900625e-08
-2.3658972e-09
3.2388158e-08
-2.111949e-09
3.2794512e-08
-2.1710527e-09
3.326061e-08
-2.4915375e-09
3.37088e-08
-2.0214239e-09
3.4018372e-08
-2.1274249e-09
3.4520202e-08
-2.6169215e-09
3.5078405e-08
-2.1238828e-09
3.5544817e-08
-2.1344985e-09
3.5912054e-08
-2.4126333e-09
3.6317361e-08
-1.9015887e-09
3.6656775e-08
-1.9072184e-09
3.7237763e-08
-2.6634899e-09
3.7731579e-08
-1.9972816e-09
3.8048789e-08
-1.7741517e-09
3.8643769e-08
-2.5151095e-09
3.908324e-08
-2.1369928e-09
3.9941502e-08
-2.5418769e-09
4.0116434e-08
-1.7027118e-09
-1.6435748e-09
9.0750064e-09
-2.4665484e-09
9.4218736e-09
-2.3553529e-09
9.7851951e-09
-2.5345503e-09
1.0148485e-08
-2.4629223e-09
1.051973e-08
-2.5229981e-09
1.0891879e-08
-2.5351381e-09
1.1277427e-08
-2.5813018e-09
1.1663627e-08
-2.5822621e-09
1.2054973e-08
-2.5948476e-09
1.2455072e-08
-2.6541942e-09
1.2850269e-08
-2.6140686e-09
1.3268048e-08
-2.691728e-09
1.365129e-08
-2.6564864e-09
1.4093245e-08
-2.697797e-09
1.4484149e-08
-2.6979828e-09
1.4926395e-08
-2.7512042e-09
1.5350375e-08
-2.719461e-09
1.5784001e-08
-2.7376588e-09
1.6234586e-08
-2.8411355e-09
1.6664304e-08
-2.6504865e-09
1.713345e-08
-2.9341677e-09
1.7567074e-08
-2.6673203e-09
1.8032968e-08
-2.9038101e-09
1.8495297e-08
-2.8267142e-09
1.8939529e-08
-2.7493149e-09
1.941345e-08
-2.9477907e-09
1.9888788e-08
-2.7707862e-09
2.03223e-08
-2.8994696e-09
2.0808671e-08
-2.8390292e-09
2.1269569e-08
-2.8372455e-09
2.1738715e-08
-2.9899928e-09
2.2216496e-08
-2.7622668e-09
2.265791e-08
-3.0300414e-09
2.3183162e-08
-2.8320184e-09
2.3635299e-08
-2.8368487e-09
2.4135844e-08
-3.100814e-09
2.4592235e-08
-2.4900777e-09
2.5092141e-08
-3.2556729e-09
2.549072e-08
-2.4446171e-09
2.603547e-08
-3.2049488e-09
2.6427614e-08
-2.5343523e-09
2.6897912e-08
-2.9353746e-09
2.7477891e-08
-3.0318175e-09
2.7776102e-08
-2.7630696e-09
2.8396241e-08
-2.8758021e-09
2.8852125e-08
-2.9917994e-09
2.9279813e-08
-2.5384162e-09
2.9836054e-08
-3.103141e-09
3.0302526e-08
-2.6517864e-09
3.0646249e-08
-2.6367172e-09
3.1096883e-08
-3.0034193e-09
3.1687192e-08
-2.6415057e-09
3.2098425e-08
-3.1080804e-09
3.2480571e-08
-2.6380195e-09
3.3069951e-08
-2.9762409e-09
3.3420099e-08
-2.7160452e-09
3.3808301e-08
-2.5001507e-09
3.407044e-08
-2.4331921e-09
3.3762206e-08
-2.183303e-09
3.420454e-08
-2.4637585e-09
3.4127552e-08
-2.0504366e-09
3.385446e-08
-2.3438296e-09
3.5130231e-08
-3.3996536e-09
3.5931182e-08
-2.93545e-09
3.5675533e-08
-2.156984e-09
3.6248209e-08
-2.474265e-09
3.6221548e-08
-1.8805576e-09
3.6305363e-08
-2.7473042e-09
3.7184449e-08
-2.876368e-09
3.7102926e-08
-1.6926283e-09
3.8451333e-08
-3.8635174e-09
3.9208829e-08
-2.8944888e-09
3.9748471e-08
-3.0815189e-09
3.884583e-08
-8.0007006e-10
-9.5107163e-10
9.0446406e-09
-2.8398387e-09
9.4186612e-09
-2.7293735e-09
9.7978069e-09
-2.9136959e-09
1.0185119e-08
-2.8502342e-09
1.0579227e-08
-2.9171067e-09
1.0972317e-08
-2.928228e-09
1.1385772e-08
-2.9947567e-09
1.1791166e-08
-2.9876557e-09
1.2211579e-08
-3.0152604e-09
1.2633197e-08
-3.075813e-09
1.3056136e-08
-3.0370078e-09
1.3504297e-08
-3.1398884e-09
1.3915917e-08
-3.0681066e-09
1.4393601e-08
-3.1754805e-09
1.4815785e-08
-3.120167e-09
1.5291453e-08
-3.2268725e-09
1.575111e-08
-3.1791178e-09
1.6215147e-08
-3.2016956e-09
1.6698817e-08
-3.3248057e-09
1.7166114e-08
-3.1177833e-09
1.7660301e-08
-3.4283551e-09
1.8141135e-08
-3.148154e-09
1.8623821e-08
-3.3864964e-09
1.9119989e-08
-3.3228822e-09
1.9599139e-08
-3.2284651e-09
2.0091789e-08
-3.440441e-09
2.0599768e-08
-3.2787644e-09
2.104752e-08
-3.3472214e-09
2.1553273e-08
-3.344783e-09
2.204351e-08
-3.3274819e-09
2.2510687e-08
-3.4571698e-09
2.3020876e-08
-3.2724558e-09
2.3466914e-08
-3.47608e-09
2.4027398e-08
-3.3925022e-09
2.4492413e-08
-3.3018633e-09
2.496406e-08
-3.572461e-09
2.5518327e-08
-3.0443448e-09
2.595887e-08
-3.696216e-09
2.6373988e-08
-2.8597355e-09
2.7051852e-08
-3.8828121e-09
2.7265768e-08
-2.7482692e-09
2.7737421e-08
-3.4070267e-09
2.8408668e-08
-3.7030649e-09
2.8271672e-08
-2.626074e-09
2.8194057e-08
-2.7981865e-09
2.894725e-08
-3.7449928e-09
2.8912275e-08
-2.5034415e-09
2.9242489e-08
-3.4333547e-09
2.9529074e-08
-2.9383717e-09
2.9595385e-08
-2.7030273e-09
2.9068439e-08
-2.4764736e-09
2.9770999e-08
-3.344066e-09
3.010572e-08
-3.4428011e-09
2.980292e-08
-2.3352198e-09
2.9958179e-08
-3.1314997e-09
3.0407366e-08
-3.1652317e-09
2.9748479e-08
-1.8412644e-09
3.0207539e-08
-2.8922522e-09
2.9203608e-08
-1.1793721e-09
2.9174541e-08
-2.434691e-09
2.7673485e-08
-5.4938075e-10
2.4234696e-08
1.0949591e-09
2.688681e-08
-6.0517675e-09
2.7973581e-08
-4.0222207e-09
2.8016579e-08
-2.1999817e-09
2.8908209e-08
-3.3658948e-09
2.8890715e-08
-1.8630636e-09
2.9372856e-08
-3.2294461e-09
3.0235459e-08
-3.738971e-09
2.8785286e-08
-2.4245484e-10
2.990433e-08
-4.9825612e-09
3.2654732e-08
-5.644891e-09
2.9606565e-08
-3.3351851e-11
2.6529551e-08
2.2769439e-09
-1.8537439e-09
8.9641523e-09
-3.2324855e-09
9.3540579e-09
-3.1192792e-09
9.7497116e-09
-3.3093496e-09
1.0160571e-08
-3.2610939e-09
1.0572033e-08
-3.3285684e-09
1.0990853e-08
-3.3470485e-09
1.1427389e-08
-3.4312925e-09
1.1852591e-08
-3.4128574e-09
1.2304187e-08
-3.4668567e-09
1.2740653e-08
-3.5122785e-09
1.3206253e-08
-3.502608e-09
1.366668e-08
-3.6003157e-09
1.4124474e-08
-3.5259006e-09
1.4622193e-08
-3.6731988e-09
1.5077753e-08
-3.5757278e-09
1.5587256e-08
-3.7363751e-09
1.6065249e-08
-3.6571105e-09
1.6574304e-08
-3.7107512e-09
1.7064126e-08
-3.8146278e-09
1.7573964e-08
-3.6276204e-09
1.8079075e-08
-3.9334664e-09
1.8585224e-08
-3.6543028e-09
1.9078488e-08
-3.8797605e-09
1.958273e-08
-3.8271247e-09
2.0078847e-08
-3.7245819e-09
2.0576092e-08
-3.9376857e-09
2.1091631e-08
-3.7943033e-09
2.1547007e-08
-3.8025974e-09
2.2032325e-08
-3.830101e-09
2.2562578e-08
-3.8577357e-09
2.2987434e-08
-3.8820255e-09
2.3522194e-08
-3.8072155e-09
2.3998375e-08
-3.9522611e-09
2.4467369e-08
-3.8614965e-09
2.4820472e-08
-3.6549657e-09
2.5063974e-08
-3.8159628e-09
2.4217917e-08
-2.1982883e-09
2.5290544e-08
-4.7688426e-09
2.5283278e-08
-2.8524695e-09
2.5526239e-08
-4.1257731e-09
2.5348182e-08
-2.5702125e-09
2.4301751e-08
-2.360596e-09
2.4251719e-08
-3.6530321e-09
2.3631316e-08
-2.0056719e-09