/*--------------------------------*- C++ -*----------------------------------*\
| =========                 |                                                 |
| \\      /  F ield         | OpenFOAM: The Open Source CFD Toolbox           |
|  \\    /   O peration     | Version:  2.3.0                                 |
|   \\  /    A nd           | Web:      www.OpenFOAM.org                      |
|    \\/     M anipulation  |                                                 |
\*---------------------------------------------------------------------------*/
FoamFile
{
    version     2.0;
    format      ascii;
    class       volVectorField;
    location    "1.1e-05";
    object      U;
}
// * * * * * * * * * * * * * * * * * * * * * * * * * * * * * * * * * * * * * //

dimensions      [0 1 -1 0 0 0 0];

internalField   nonuniform List<vector> 
7500
(
(459.93051 -0.010015045 -8.0454504e-17)
(459.95577 0.040198536 2.7904833e-15)
(460.2654 -0.053260128 1.6006621e-15)
(459.91535 0.033018711 -5.9504376e-16)
(460.02492 0.00078014752 3.2583149e-15)
(459.83247 -0.019425339 6.134797e-15)
(460.19081 0.0053263761 1.4252603e-15)
(459.67194 0.039748786 4.8945654e-15)
(460.02503 -0.03387959 4.9982054e-15)
(459.91028 -0.016037166 1.9913661e-15)
(459.86295 0.073691867 1.3833238e-15)
(459.92054 -0.083704685 -1.2072964e-15)
(459.95908 0.018143502 1.5928099e-15)
(460.18729 0.011392937 9.9968936e-16)
(459.65153 -0.017227278 1.0133874e-15)
(460.46599 0.054555734 1.4781055e-15)
(459.58928 -0.077096349 9.0130515e-16)
(460.11553 0.064296955 -1.8455103e-15)
(459.98207 -0.01689947 1.832199e-15)
(459.76774 -0.029899418 7.4874309e-16)
(460.28403 0.069654306 -8.859236e-16)
(459.68993 -0.10626135 1.9197715e-15)
(460.20037 0.083140974 6.4422198e-16)
(459.99024 -0.017825269 -2.1549372e-15)
(459.76902 -0.044902014 1.7411714e-15)
(460.30307 0.069322551 4.7845211e-16)
(459.48998 -0.052344005 1.0496546e-15)
(460.28229 0.053784212 -1.0211757e-15)
(459.38883 -0.029118637 -7.5812132e-16)
(460.70809 -0.072815127 2.189774e-15)
(458.71044 0.1149928 -1.2312448e-15)
(461.65196 -0.016245915 1.3252826e-15)
(457.6643 -0.11835356 1.2969407e-15)
(462.42015 0.16770328 -1.9382949e-15)
(457.24642 -0.10851793 -1.3434875e-15)
(462.59416 0.050188313 1.3477639e-15)
(457.62033 0.0002512333 -5.5901005e-16)
(461.54985 -0.074421866 7.6067252e-16)
(458.51372 0.12905865 1.2072234e-15)
(460.18998 -0.12263349 1.0194089e-15)
(460.11111 0.17219361 1.0295298e-15)
(459.00536 -0.14818835 8.4726919e-16)
(460.91249 0.12324803 2.5693746e-15)
(458.44583 -0.085590641 2.5530806e-15)
(460.51936 -0.020934033 5.2464686e-16)
(459.4543 0.048439544 -1.6521913e-15)
(460.0858 0.034021087 -1.7313154e-15)
(459.6943 -0.12325626 -9.7910544e-16)
(459.99702 0.1400156 6.2694482e-16)
(459.19664 -0.062323043 6.8335474e-16)
(460.19126 0.02482705 4.4187602e-16)
(459.13094 0.081256588 2.3655693e-15)
(460.1376 -0.071198663 3.9290929e-16)
(460.42303 -0.035837111 5.2634405e-16)
(459.43903 0.062182262 7.267264e-16)
(460.51966 -0.04126035 -1.412635e-15)
(459.85799 0.026193592 5.0612902e-16)
(459.57048 -0.0059014249 5.5777317e-16)
(460.45856 -0.00063302109 4.2131567e-16)
(459.60333 0.065870064 5.4180707e-16)
(459.77859 -0.14466405 7.7752468e-16)
(460.45067 0.0178709 2.434614e-15)
(459.40018 -0.046321557 1.1742609e-16)
(459.63527 0.1015907 -1.7462038e-15)
(460.28476 -0.16946062 -1.1872997e-15)
(459.40253 0.20006979 1.0837356e-15)
(459.82009 -0.041544719 2.7898238e-16)
(459.98352 -0.12594446 6.4048098e-16)
(459.32904 0.10691434 -1.4565737e-16)
(460.20017 0.02694301 -1.8817464e-15)
(459.30893 -0.073990346 -1.0992514e-15)
(459.82321 0.16741163 9.1574816e-16)
(460.79655 -0.037096482 2.2492893e-15)
(458.90195 -0.085305752 4.0900134e-16)
(459.58185 0.032324234 2.025737e-15)
(459.9729 -0.0059755126 -5.8050341e-16)
(459.90871 0.0024091597 5.6119492e-16)
(460.28596 0.010502201 -3.4263249e-16)
(459.89234 -0.0096974549 2.5470229e-16)
(460.03208 0.017123883 -5.9818723e-17)
(459.81158 -0.0055431453 2.7822008e-16)
(460.19917 -0.02089614 2.4756401e-17)
(459.68623 0.042962129 2.1523512e-16)
(460.0081 -0.016382065 2.3920648e-16)
(459.94457 0.0098617694 2.2455766e-16)
(459.85324 0.0054412089 2.2276755e-16)
(459.92223 -0.050292028 4.9423113e-16)
(459.94919 0.059146644 6.2078104e-17)
(460.19366 -0.04856622 -6.7653075e-16)
(459.61729 -0.0028931021 3.081097e-16)
(460.44343 0.064344499 -1.0255389e-15)
(459.58165 -0.076728333 4.2965961e-16)
(460.08963 0.069934084 9.5562559e-17)
(459.97868 -0.022869335 3.3367903e-16)
(459.77045 -0.04638961 3.8564249e-16)
(460.2972 0.069275592 2.4427692e-16)
(459.69808 -0.097634536 4.22546e-16)
(460.20971 0.080630569 2.1841384e-16)
(460.0325 -0.030278518 1.05184e-15)
(459.71288 -0.032043553 3.4576571e-16)
(460.37163 0.09080135 -3.715247e-18)
(459.42772 -0.075427114 -6.3195991e-16)
(460.35306 0.052949829 -2.9419501e-16)
(459.24673 0.028041492 1.6623347e-15)
(460.91852 -0.14617199 3.5745905e-17)
(458.45106 0.1057769 -6.0126368e-17)
(461.93356 0.09953033 1.4966614e-16)
(457.31009 -0.26795193 -1.1866595e-16)
(462.84683 0.25313999 2.8537966e-16)
(456.75422 -0.14935162 -5.3658644e-17)
(463.07726 0.10102251 2.9381579e-16)
(457.20464 0.014015624 1.9355413e-16)
(461.82064 -0.18551571 -9.3546903e-16)
(458.37421 0.33905765 5.401022e-16)
(460.24629 -0.39974677 3.9883633e-17)
(460.07513 0.41921729 2.4306916e-16)
(459.04869 -0.26433873 -9.2488561e-16)
(460.87845 0.12258489 2.4072441e-16)
(458.47538 -0.060159217 -6.1488626e-18)
(460.50059 -0.037969147 -1.3108503e-16)
(459.48527 0.0010405861 -7.7557822e-16)
(460.1087 0.15571653 6.4148597e-17)
(459.5619 -0.28083605 -5.1857291e-16)
(460.14849 0.28484798 -3.5187166e-16)
(459.11178 -0.15573731 2.5822855e-16)
(460.13508 0.0075856827 -1.5570978e-16)
(459.30814 0.055589235 -3.732507e-16)
(459.93857 0.01205093 1.2033799e-16)
(460.45826 -0.15013146 -3.1637853e-16)
(459.6533 0.10979574 -1.6022819e-16)
(460.28321 -0.063508445 1.7389722e-16)
(459.83214 0.083208353 1.1469446e-16)
(459.75121 -0.025501753 2.5873233e-16)
(460.2773 -0.080853574 -4.9314061e-17)
(459.60841 0.2068995 3.8558252e-17)
(459.85395 -0.21409658 -1.788025e-16)
(460.30994 0.094024546 3.9915833e-16)
(459.4812 -0.11894064 4.38752e-16)
(459.79967 0.22892861 2.4952935e-16)
(460.07194 -0.29654143 -4.126507e-16)
(459.39934 0.30204402 1.9884677e-16)
(460.00476 -0.07978693 -3.8438882e-16)
(459.9573 -0.23982729 -4.0806893e-16)
(459.24493 0.29801357 2.0681597e-16)
(460.29008 -0.040004849 2.690272e-17)
(459.37328 -0.22969284 3.0683208e-16)
(459.81446 0.32111865 -5.2736007e-16)
(460.80344 -0.011198334 1.4561944e-16)
(458.9726 -0.11892901 1.6415126e-16)
(459.58194 0.035782282 2.3301851e-16)
(459.95519 -0.044271335 -1.9435425e-16)
(459.90153 0.084886547 -8.6981028e-16)
(460.26612 -0.093731197 2.1909856e-16)
(459.85449 0.12029947 -2.1578077e-16)
(460.01468 -0.073753914 2.4063179e-16)
(459.78554 0.03310625 4.8181667e-16)
(460.19201 -0.030872993 2.8571329e-16)
(459.73703 0.016030773 -2.3927982e-16)
(460.01815 0.028690072 1.4595235e-16)
(459.98643 -0.071666846 -2.4043359e-17)
(459.82578 0.13956212 1.1528336e-16)
(459.91745 -0.21535925 -6.1887852e-16)
(459.89592 0.14675124 -6.5795676e-16)
(460.17239 -0.013266487 5.8697577e-16)
(459.57747 -0.15637846 1.1168634e-15)
(460.42364 0.24630506 -8.6266581e-16)
(459.5779 -0.20420891 6.5920083e-16)
(460.07942 0.11767975 -3.3519618e-16)
(459.99773 0.0043031765 1.4566344e-16)
(459.76833 -0.12305605 -2.2842376e-16)
(460.34009 0.17459185 3.8651997e-16)
(459.70204 -0.22028223 7.0269695e-16)
(460.22081 0.14750225 4.9793455e-16)
(460.06018 0.0080833274 1.172555e-16)
(459.67992 -0.15532345 -1.3751835e-16)
(460.42238 0.19657815 -9.1188099e-17)
(459.35724 -0.077246923 -7.206145e-16)
(460.47236 0.013725327 1.4145769e-16)
(459.08225 0.054904546 -8.0821342e-16)
(461.09506 -0.17056598 7.2600001e-16)
(458.24755 0.096465057 -1.3773798e-16)
(462.17313 0.17493844 2.1363215e-16)
(456.97097 -0.39220964 -5.8760271e-16)
(463.25766 0.36562251 1.3208947e-16)
(456.30642 -0.2377012 -1.8716035e-16)
(463.54265 0.15445031 1.4845267e-16)
(456.75454 0.081297273 -7.2255797e-16)
(462.18423 -0.33931625 -2.5269835e-16)
(458.0589 0.47677633 -3.5005033e-16)
(460.50863 -0.4889091 1.3953338e-16)
(459.83971 0.50647838 -2.3142745e-16)
(459.20755 -0.38420831 -3.3642591e-17)
(460.80245 0.28083145 -5.8457363e-16)
(458.52212 -0.16881867 2.5050224e-16)
(460.52176 -0.051810412 -1.7003715e-17)
(459.43019 0.054698971 2.8597066e-16)
(460.21722 0.20335047 5.2142101e-16)
(459.38274 -0.44045889 4.0946994e-16)
(460.23623 0.47040929 -5.5741793e-16)
(459.09174 -0.30775593 1.3420021e-16)
(460.07834 -0.02024546 5.1987527e-16)
(459.44808 0.17335774 8.5595884e-16)
(459.85487 -0.12990914 -7.6226393e-17)
(460.40253 -0.19814862 1.3479046e-16)
(459.84379 0.24395524 -1.1142145e-16)
(460.20549 -0.13373922 3.1473766e-16)
(459.6943 0.036411381 -6.1991526e-16)
(459.83927 0.048872838 1.279392e-16)
(460.23766 -0.12234187 -3.8831674e-17)
(459.56785 0.27292015 -6.044467e-17)
(459.8625 -0.34832009 -2.7162685e-16)
(460.28655 0.18831506 -1.5680077e-16)
(459.41161 -0.09220692 1.365882e-16)
(459.91445 0.32926581 6.6101602e-17)
(460.02681 -0.50777496 -2.2449478e-16)
(459.40056 0.37000535 -7.2603465e-16)
(460.03608 0.010829211 -5.1389416e-17)
(460.05416 -0.3974485 -1.8700113e-16)
(459.30697 0.49117215 -8.3278272e-17)
(460.31227 -0.11938937 -5.1193813e-17)
(459.42238 -0.2833603 2.1885961e-17)
(459.83352 0.42500565 -1.0867976e-16)
(460.81013 -0.058961812 -4.7643617e-17)
(459.06143 -0.092720674 5.0366473e-16)
(459.55621 0.085192047 4.2313812e-16)
(459.92775 -0.011933874 -1.0406943e-16)
(459.83133 0.046384567 1.3109649e-16)
(460.24778 -0.10960609 -7.1403111e-16)
(459.75004 0.094241753 -4.2758782e-16)
(460.03585 0.0050120746 -1.1616451e-16)
(459.72259 -0.064089292 -3.8356072e-16)
(460.229 0.018694604 -9.7609286e-18)
(459.76572 0.043521198 1.951504e-17)
(460.02039 -0.046874648 9.5881705e-17)
(460.02785 0.013954272 -7.060853e-16)
(459.75489 0.12551661 -1.4503012e-16)
(459.83116 -0.21655537 3.3760419e-16)
(459.8763 0.11060109 5.0867316e-16)
(460.11276 0.035711709 3.4159952e-16)
(459.59362 -0.17630289 7.3782333e-16)
(460.45442 0.2381246 7.6635079e-18)
(459.62766 -0.19067883 -4.331275e-17)
(460.13289 0.10257429 -1.0820174e-16)
(460.04231 0.017968655 -5.0832834e-16)
(459.79574 -0.13747835 1.4360184e-16)
(460.3546 0.16865254 2.2553189e-17)
(459.66417 -0.20275792 5.397413e-16)
(460.26636 0.13438651 -2.0723687e-16)
(459.99691 -0.023385294 2.2947194e-16)
(459.64423 -0.07887544 3.4591686e-16)
(460.51604 0.1290515 2.4296102e-16)
(459.24064 -0.055073127 -6.8528565e-16)
(460.6227 0.059307467 2.0384805e-16)
(458.91295 -0.022460392 2.3164726e-16)
(461.24316 -0.15575601 -1.4787664e-16)
(458.09578 0.14689395 2.0279214e-16)
(462.27465 0.1490244 1.7085629e-16)
(456.88107 -0.46688852 -2.3472772e-16)
(463.4775 0.5297805 5.3438273e-16)
(456.04044 -0.39390466 -1.4123406e-16)
(463.87243 0.23504132 2.7132658e-16)
(456.47321 0.093309031 -1.9876911e-16)
(462.39465 -0.3804582 -1.3002428e-16)
(457.78174 0.54931206 1.0525834e-16)
(460.76875 -0.66871191 2.3146171e-16)
(459.55468 0.8103219 -2.3396698e-16)
(459.34794 -0.65006185 1.4049675e-16)
(460.74361 0.33718112 -1.499804e-16)
(458.56354 -0.15143833 -4.8322845e-18)
(460.54184 -0.059836487 6.3529775e-17)
(459.36445 -0.0015358247 -1.9783806e-17)
(460.26747 0.40053918 -4.1049841e-17)
(459.24807 -0.63353564 1.3118664e-16)
(460.30578 0.55499342 6.4700199e-17)
(459.00438 -0.31110902 2.0683006e-16)
(460.14966 -0.098917838 -1.4069735e-18)
(459.46684 0.15782029 3.9191704e-17)
(459.83182 -0.0065989516 2.4001478e-16)
(460.42042 -0.38613482 8.7292876e-17)
(459.90466 0.26340629 -9.8232278e-17)
(460.2367 -0.043750796 -4.2448603e-17)
(459.6523 0.064088692 -2.7078304e-16)
(459.76866 -0.077518351 -6.3563821e-17)
(460.25021 -0.030442877 2.0461443e-16)
(459.55457 0.34821844 -6.9399106e-17)
(459.77794 -0.4151758 1.640115e-16)
(460.29162 0.13703357 1.809925e-17)
(459.29318 -0.023106673 -2.9802143e-16)
(459.97253 0.28606006 -2.6782142e-16)
(460.04663 -0.46431491 2.5616029e-16)
(459.41684 0.30096691 7.3602781e-17)
(460.07434 0.061660342 2.3611968e-16)
(460.20897 -0.53496663 2.0577878e-17)
(459.34113 0.76314064 -3.4620621e-16)
(460.23891 -0.26282011 -2.3751371e-16)
(459.53428 -0.34089413 2.4488217e-16)
(459.80101 0.49378994 -1.0445545e-17)
(460.73025 -0.079201123 1.3300436e-17)
(459.12807 -0.059797907 -1.144944e-17)
(459.51168 0.1272517 -2.5680362e-16)
(460.03041 -0.03508606 -4.7200248e-17)
(459.62766 0.12686123 9.4727262e-17)
(460.29871 -0.1810758 1.5059133e-16)
(459.59779 0.1598401 7.9465562e-17)
(460.10066 -0.047376076 -9.7091508e-17)
(459.59722 0.0077131679 5.0297369e-17)
(460.29014 -0.080319681 9.0957474e-18)
(459.67904 0.076366211 -5.7720206e-16)
(460.0304 0.012073528 -1.804757e-17)
(460.02394 -0.10619856 -5.6355459e-17)
(459.78382 0.25537297 -4.0680538e-16)
(459.78849 -0.26347016 -6.3163696e-17)
(459.88023 0.06562202 5.8735861e-17)
(460.15994 0.088239016 4.3483841e-17)
(459.62861 -0.23185315 -9.3652977e-17)
(460.51063 0.27789335 1.5043501e-16)
(459.74204 -0.24193655 2.718652e-16)
(460.19744 0.17579567 4.3639438e-17)
(460.08901 -0.056722194 -9.3671233e-17)
(459.82675 -0.072473963 3.4649298e-16)
(460.32505 0.1656509 3.5177804e-16)
(459.59259 -0.28486317 7.6548531e-18)
(460.21953 0.28309816 -7.0266387e-17)
(459.98636 -0.1445836 3.2639868e-17)
(459.51033 -0.061154935 -1.586215e-16)
(460.57095 0.190795 3.9111473e-16)
(459.13567 -0.13696754 -6.8960313e-17)
(460.79193 0.10637409 1.5038863e-16)
(458.56049 -0.023180666 -1.7580367e-16)
(461.51119 -0.21702399 -1.3542121e-16)
(457.829 0.24111073 2.5405981e-16)
(462.3808 0.096123345 3.6257307e-16)
(456.89351 -0.51231461 2.0158923e-16)
(463.71351 0.61386955 -3.373359e-16)
(455.84137 -0.41417522 -2.6537226e-16)
(464.17657 0.19989596 -2.5917406e-16)
(456.16235 0.15337162 -3.4413163e-16)
(462.71318 -0.40551534 2.1045859e-16)
(457.33799 0.6020904 -8.7713754e-17)
(460.95849 -0.73483613 1.7279159e-16)
(459.37257 0.90465954 -1.4770406e-16)
(459.33642 -0.74242773 5.2353984e-16)
(460.63451 0.44010554 -1.5664232e-16)
(458.64792 -0.36389535 1.8833695e-16)
(460.59871 0.034435407 -1.5143342e-16)
(459.21008 0.094522371 -3.1520931e-17)
(460.30519 0.28302978 2.2044243e-16)
(459.21282 -0.60799749 2.60752e-16)
(460.3432 0.73580211 2.1186371e-16)
(458.81855 -0.59347452 -1.3453817e-16)
(460.32526 0.073205094 3.0160297e-16)
(459.44293 0.18085901 2.2005655e-16)
(459.79181 -0.19281768 -1.5558715e-18)
(460.50621 -0.32854138 2.2311579e-16)
(460.00191 0.31731173 -6.5118103e-18)
(460.27962 -0.20374237 -1.8053489e-16)
(459.64865 0.15498418 -2.3618596e-16)
(459.72166 -0.042063506 1.8895093e-16)
(460.26983 -0.16231526 5.3851767e-17)
(459.44393 0.41545884 8.3288852e-17)
(459.71894 -0.30137772 -2.3049305e-17)
(460.3647 0.05231177 2.9316704e-17)
(459.04297 0.034625971 2.1385334e-16)
(460.04703 0.22037527 5.6573035e-17)
(460.187 -0.51730764 2.038191e-16)
(459.29834 0.37247693 -2.0946202e-16)
(459.97331 0.042639384 6.2666017e-17)
(460.41838 -0.58449052 7.2257321e-17)
(459.36813 0.93383514 -1.4881244e-16)
(459.96618 -0.31912969 2.0541757e-19)
(459.59095 -0.43896285 7.1225586e-17)
(459.7964 0.54144844 2.177037e-16)
(460.67624 -0.055292621 -2.2336955e-16)
(459.16132 -0.0024768217 -4.5366131e-17)
(459.45172 0.16218027 -1.488914e-17)
(460.54993 -0.015524199 -2.0189455e-16)
(459.3314 0.11900767 -7.8352848e-17)
(460.34338 -0.14819243 -1.1885633e-16)
(459.39043 0.084561857 1.726451e-16)
(460.11209 0.042687918 -3.1088835e-16)
(459.46604 -0.097379918 5.3882584e-16)
(460.31132 0.012726505 -1.9434213e-16)
(459.66911 0.026733082 -1.9422978e-16)
(460.12988 -0.014522519 5.0211959e-17)
(460.02783 0.016355634 3.4056633e-16)
(460.02808 0.093119788 -3.6377717e-16)
(459.8062 -0.12265896 3.912477e-16)
(459.79511 0.0070690895 1.1913684e-17)
(460.26223 0.074238155 -2.34468e-16)
(459.46406 -0.24175836 -6.6698194e-17)
(460.59282 0.2929276 1.4453402e-16)
(459.74489 -0.26617659 -1.9809332e-16)
(460.26433 0.21105455 1.8306413e-16)
(460.14572 -0.085992348 -1.0901033e-16)
(459.84406 -0.048571194 3.6062365e-17)
(460.21182 0.19290486 1.6756242e-16)
(459.5893 -0.3094029 1.3955515e-16)
(460.04662 0.27058936 -5.2837303e-17)
(459.96094 -0.091159066 4.4304995e-17)
(459.32224 -0.089281123 3.630201e-17)
(460.56762 0.13804454 2.2053807e-17)
(458.94182 -0.036588533 3.1849796e-16)
(460.89613 0.02921021 1.569889e-17)
(458.23203 -0.031991753 -1.9494919e-16)
(461.63029 -0.1360267 8.9411652e-17)
(457.55321 0.14692648 -2.9857073e-17)
(462.75703 0.11104658 -2.3902317e-16)
(456.5681 -0.54255435 4.2368524e-17)
(464.25971 0.65571505 6.5440031e-17)
(455.6743 -0.4500921 3.2671801e-16)
(464.36006 0.27898684 5.1757186e-17)
(455.89237 0.11407262 -1.7719457e-17)
(463.11249 -0.3365557 1.701875e-16)
(456.69609 0.58762714 7.8122531e-17)
(461.27868 -0.76433086 -1.1566782e-16)
(458.94467 0.99025028 -2.862583e-16)
(459.43123 -0.80359876 1.881364e-16)
(460.55807 0.45010238 -1.3575327e-17)
(458.51253 -0.355148 2.373517e-16)
(460.79351 0.0070558969 -1.307371e-17)
(459.21732 0.0855096 2.1110115e-16)
(460.25184 0.37036506 5.6152394e-17)
(459.16327 -0.72629538 6.8297646e-17)
(460.62292 0.85171026 9.1319795e-17)
(458.58823 -0.59911559 9.5273146e-17)
(460.38075 -0.035767864 1.8144874e-16)
(459.55999 0.30275315 2.8347284e-17)
(459.8663 -0.25112086 -1.0402253e-16)
(460.41986 -0.42561909 -2.6919917e-17)
(460.23376 0.34535294 2.0616963e-16)
(460.48576 -0.11972544 -7.8532307e-17)
(459.4344 0.0095788314 -2.2434624e-17)
(459.74568 0.022819162 2.165415e-16)
(460.5305 -0.12941961 7.3794285e-17)
(459.13241 0.3181767 -2.0007297e-16)
(459.5466 -0.29275856 -1.0339161e-16)
(460.73008 0.15082683 4.0152261e-17)
(458.70778 0.046822365 1.9260862e-16)
(459.78374 0.2600357 4.4857596e-17)
(460.45092 -0.62288955 -3.0333598e-16)
(459.3215 0.42624872 1.8500895e-16)
(459.62108 -0.050199939 -8.064574e-17)
(460.50871 -0.57506146 1.0144114e-16)
(459.50821 0.99663561 1.4370511e-16)
(459.76869 -0.24007939 -1.5945102e-17)
(459.6274 -0.58431411 2.5138873e-17)
(459.80968 0.546296 7.387465e-17)
(460.67567 -0.021713668 1.9266578e-17)
(459.22138 0.085576056 -1.1388969e-16)
(459.40272 0.18813772 7.9095673e-17)
(461.28116 -0.036014399 -2.8999064e-16)
(459.04704 0.21891363 8.5617047e-17)
(460.22988 -0.2070565 -3.2245012e-16)
(459.35264 0.14090416 5.306255e-16)
(460.05439 -0.033733725 -2.5773079e-16)
(459.57531 -0.043019207 3.1807784e-16)
(460.27798 -0.065424561 -1.6834839e-16)
(459.85255 0.062350247 1.6042644e-16)
(460.14692 -0.035179156 -2.6989236e-16)
(459.92208 -0.029350851 2.9260768e-16)
(460.20775 0.20304863 -5.395335e-17)
(459.69615 -0.23493401 9.7450745e-17)
(459.53758 0.092814055 2.6475428e-16)
(460.36956 0.087990062 -1.4066281e-16)
(459.10335 -0.32279139 -1.4492286e-16)
(460.63592 0.32451478 1.9478783e-16)
(459.88773 -0.28848035 -1.7745176e-16)
(460.09434 0.23048177 2.2705032e-16)
(460.51527 -0.1131287 -3.7582617e-16)
(459.67242 0.020093465 1.238402e-16)
(460.36952 0.12650115 -9.495471e-17)
(459.39733 -0.20414456 1.6252929e-16)
(460.0353 0.23413021 -8.6505124e-17)
(459.8782 -0.17418301 1.4319656e-16)
(459.03282 0.098119942 -2.2248915e-16)
(460.53694 -0.057158347 3.1767872e-16)
(458.89112 0.075854517 -4.5926209e-17)
(460.54136 0.040072184 -9.5990704e-17)
(458.48362 -0.17186527 -1.9057511e-16)
(461.35495 0.0046777168 -1.1273254e-16)
(457.58682 0.1070089 1.6708793e-16)
(463.06625 -0.068352392 9.5837541e-17)
(456.11038 -0.36036328 -6.660343e-17)
(465.05399 0.48302419 1.7208022e-16)
(454.88181 -0.30439626 -3.9992166e-17)
(465.36653 0.20490588 -5.5377876e-17)
(454.87015 0.16539463 2.2114219e-16)
(463.98963 -0.29489488 3.7589214e-16)
(455.91353 0.61404922 -1.5339551e-16)
(461.83614 -0.8345881 1.7472515e-16)
(458.34111 1.110002 -6.3556251e-17)
(459.76287 -0.99322315 -3.7026956e-17)
(460.49156 0.65143521 1.9022478e-16)
(458.25325 -0.65810571 1.7767165e-16)
(461.36504 0.25919946 5.2032036e-17)
(458.86882 0.093903353 1.429135e-16)
(460.60835 0.20235473 4.4029327e-17)
(459.24296 -0.58014128 2.0538059e-16)
(460.5822 0.83188883 2.2831062e-16)
(458.65906 -0.6803622 -9.4625131e-17)
(460.62998 0.058644632 4.1304927e-17)
(459.18655 0.23199837 -1.3670987e-17)
(460.23322 -0.35190225 4.4726803e-17)
(460.43649 -0.29711489 2.0495312e-16)
(459.90912 0.31585932 -1.4256638e-16)
(460.89174 -0.18205474 -1.5286097e-16)
(459.47141 0.22662255 -1.3280776e-17)
(459.28448 -0.23440149 4.9172298e-17)
(460.792 0.0007029311 6.0825058e-17)
(459.17732 0.34598907 -1.9207109e-16)
(458.95083 -0.44218222 6.3361305e-17)
(460.78799 0.11757648 1.3483679e-17)
(458.70814 0.28623551 -1.4481541e-16)
(459.42108 0.073782528 2.8699008e-17)
(460.23471 -0.42122112 -1.3261554e-18)
(459.44546 0.49683691 1.6674983e-16)
(459.45224 -0.17596289 -8.9677253e-17)
(460.4356 -0.58235981 1.9732842e-16)
(459.63919 0.9222998 -1.318352e-16)
(459.73798 -0.17370648 -1.1771702e-16)
(459.72658 -0.61951657 5.0901788e-17)
(459.71532 0.42202796 1.9105423e-17)
(460.51964 -0.0091254346 -1.2856266e-16)
(459.15053 0.23395578 4.3001188e-17)
(459.17876 0.25822714 1.7770021e-16)
(461.41979 -0.065405957 -2.2547051e-16)
(459.0297 0.30742318 8.4284766e-17)
(460.16724 -0.23666376 5.4659483e-19)
(459.58666 0.087218402 3.2663377e-16)
(459.76976 0.041808569 -4.8458941e-16)
(460.01692 -0.15079644 3.6835419e-16)
(459.65808 0.012281403 -1.7568208e-16)
(460.15744 0.0054360834 2.8700959e-16)
(459.65949 0.0064548517 1.0805487e-16)
(459.7919 -0.016447677 1.0743942e-16)
(460.07724 0.14412472 2.0866887e-16)
(459.74169 -0.063523637 5.7062873e-17)
(459.36744 -0.13865794 1.6853413e-17)
(460.66625 0.29925353 4.0860715e-17)
(459.01673 -0.43993548 -1.1020256e-16)
(460.64655 0.28196172 2.2660021e-16)
(460.22088 -0.24736983 -1.366869e-16)
(459.7556 0.20294021 1.9428527e-16)
(461.0949 -0.15152339 -3.5059311e-16)
(459.1677 0.15511657 2.2006329e-16)
(460.88636 0.018445066 -1.1913255e-16)
(459.17147 -0.12478018 4.7076233e-16)
(459.82471 0.26347621 -3.4481581e-17)
(460.2299 -0.20537387 -1.8847845e-16)
(458.55372 0.11910582 -1.9409924e-16)
(460.66274 -0.062021761 1.2065962e-17)
(458.98132 0.077665748 1.3066191e-16)
(460.27348 0.059828881 2.5977348e-16)
(458.82552 -0.24505075 2.8048967e-16)
(461.15779 0.068554345 -1.5041733e-16)
(457.83547 -0.014873318 -3.6716645e-17)
(462.79995 0.0015132246 9.3104246e-17)
(455.99346 -0.49473507 -9.4396737e-17)
(465.29482 0.66965341 -3.454017e-17)
(454.17361 -0.48133817 -1.7614724e-16)
(466.24809 0.27485082 -2.5015154e-17)
(453.8882 0.28770172 -3.3920584e-17)
(465.18471 -0.48178727 -1.2245782e-16)
(454.88089 0.80990205 -5.9120205e-17)
(462.80929 -0.90146059 4.9633787e-16)
(458.06243 1.1182568 -8.5006376e-17)
(459.57753 -1.0059662 1.3502302e-16)
(461.06309 0.54990435 -7.2047244e-17)
(457.66172 -0.60858166 2.477794e-16)
(461.83972 0.15096541 -1.3533781e-16)
(458.83649 0.28120315 -1.3760201e-17)
(460.64797 0.080015704 -1.1422797e-16)
(459.0548 -0.41338178 -1.071266e-17)
(461.10531 0.73135035 -4.0152087e-17)
(457.62321 -0.65947972 2.4967421e-17)
(461.26253 0.097059382 -2.4049556e-18)
(458.64531 0.24903846 -1.5759429e-16)
(459.78486 -0.54703657 -1.7597439e-17)
(460.53021 -0.20048479 3.7773361e-17)
(459.2504 0.38499951 4.4336661e-17)
(460.66629 -0.30021939 2.4658748e-17)
(459.68594 0.4661575 -1.6401995e-16)
(458.48521 -0.22106678 -6.6958506e-17)
(460.39974 -0.25701813 1.9371513e-16)
(459.36303 0.5584443 -8.336677e-18)
(457.9554 -0.38429655 1.1829859e-16)
(460.33415 -0.25014692 -1.4507177e-16)
(458.69648 0.45617108 3.819204e-17)
(458.8185 0.073048892 6.3076612e-17)
(459.59349 -0.55486115 -9.7015304e-17)
(459.27318 0.77625068 -1.1611981e-16)
(458.73955 -0.13912211 2.5955098e-17)
(459.75493 -0.478968 -1.2273243e-16)
(459.48705 0.86903468 -1.6332073e-16)
(459.2879 -0.26968117 -1.1086708e-16)
(459.08031 -0.65835184 2.4817258e-17)
(458.97621 0.42318926 1.1312611e-16)
(459.78029 -0.018889899 4.7486008e-18)
(458.55954 0.23447531 9.1840284e-18)
(458.3268 0.28559705 1.0998015e-16)
(460.61696 -0.10587153 -4.9371708e-17)
(459.60193 0.40471304 2.4425528e-16)
(459.88594 -0.30846241 -1.6976982e-16)
(460.01603 0.16264798 3.0503176e-16)
(459.089 -0.049925782 -3.3285549e-17)
(460.61891 -0.025095345 3.7963813e-17)
(458.55281 -0.10045546 -9.3720267e-17)
(460.74476 0.068107904 1.9663476e-16)
(458.73987 -0.00021679314 -6.9033756e-17)
(460.38764 -0.062629994 3.1321816e-16)
(459.45191 0.1631598 -1.8838226e-16)
(460.64014 -0.061304505 9.4813734e-17)
(459.06788 -0.15751002 1.6123776e-16)
(461.38731 0.25194489 1.9730747e-16)
(459.0973 -0.33221704 -2.2847117e-18)
(460.47724 0.13002341 6.5138131e-17)
(460.76875 -0.13843276 5.2504941e-18)
(458.75157 0.15277722 -6.4397175e-17)
(461.95883 -0.15878949 2.3648454e-16)
(458.17265 0.20636478 3.0232016e-17)
(461.35351 -0.01594692 -4.5967819e-17)
(459.15758 -0.010135494 8.6382222e-17)
(459.51161 0.11597885 -4.4405275e-17)
(460.68427 -0.063716784 5.4169593e-17)
(458.51439 0.12971062 2.3460387e-16)
(460.84313 -0.21334005 -7.0445519e-18)
(459.07367 0.27214232 -1.9056776e-16)
(460.49238 -0.13284473 1.2412572e-16)
(459.06519 -0.12336362 3.5771832e-17)
(460.64917 0.10286842 -8.7984369e-17)
(458.57209 -0.18260169 -1.3593385e-16)
(461.79776 0.083975117 1.6917231e-16)
(456.48879 -0.4846536 9.6997624e-17)
(464.32152 0.58634441 1.4613746e-16)
(455.33174 -0.2904668 -3.6089802e-16)
(464.26307 -0.050965842 -5.8853599e-17)
(456.40342 0.61615574 7.6085495e-18)
(462.89384 -0.63280223 2.7427171e-16)
(456.87339 0.80839548 -4.251078e-17)
(461.73052 -0.85198038 4.248317e-17)
(458.58402 1.1673226 -6.5143774e-17)
(459.67988 -1.022657 7.9656263e-17)
(460.14146 0.52253897 -5.9124922e-17)
(458.33741 -0.73886277 5.5641058e-17)
(460.97457 0.36854958 2.9644571e-17)
(458.57931 0.060969343 -4.9874624e-17)
(461.19703 0.10114321 8.3447366e-17)
(456.96546 -0.28066768 5.6176575e-18)
(462.57215 0.76426274 -1.87154e-16)
(455.33475 -0.78081476 3.4494487e-17)
(461.53387 0.23358036 1.7922326e-17)
(457.75734 0.27538845 1.1182461e-16)
(458.58282 -0.73840472 -1.2693993e-16)
(459.69719 0.0047814529 -5.0229778e-17)
(458.51795 0.1730895 4.9199714e-17)
(459.34489 -0.33505359 4.3160374e-17)
(459.30217 0.56944583 -1.9056881e-16)
(457.33996 -0.058513422 -1.6074448e-16)
(458.72246 -0.39368608 -1.2331358e-16)
(459.20922 0.58144991 -3.6768268e-17)
(456.02001 -0.36558421 1.1753302e-17)
(458.90299 -0.26596464 1.0221509e-17)
(458.06277 0.28682164 -1.7121024e-16)
(456.97165 0.098863848 -1.4364356e-16)
(457.67461 -0.76543511 3.4681999e-17)
(458.25735 0.7438119 1.8862441e-17)
(456.09928 -0.054707029 -2.0393487e-17)
(457.23098 -0.48003845 -1.2983826e-16)
(458.20097 0.99276559 -1.4350009e-16)
(457.34532 -0.018745829 -5.1361531e-17)
(456.39543 -0.9324397 -2.8844193e-17)
(456.6356 0.28640213 -1.1391195e-16)
(457.58109 0.16702799 -5.1918496e-17)
(456.53134 0.26823166 -5.3392508e-17)
(455.84042 0.25747656 -1.9476011e-17)
(459.05575 -0.13288952 -4.1399771e-17)
(461.08114 0.43411823 -1.6454622e-16)
(458.9618 -0.30344661 -1.5626089e-16)
(461.0881 0.14877776 -2.5618933e-16)
(458.01955 -0.007467988 1.0248368e-16)
(461.90712 -0.061888985 -6.0102286e-17)
(457.06662 -0.02688129 -1.1432259e-16)
(462.18937 -0.0049263373 1.789322e-16)
(457.37161 0.025947679 7.4439801e-17)
(461.9434 -0.06594519 -1.587534e-16)
(458.16871 0.057176241 -1.0033698e-16)
(462.26333 0.040538897 -6.7473504e-18)
(458.20521 -0.22786206 6.2899108e-17)
(462.11076 0.26357094 1.3375818e-16)
(459.08907 -0.28343983 4.5206969e-17)
(459.93394 0.088091833 -4.136647e-18)
(461.22425 -0.074849115 5.8182708e-17)
(457.72037 0.10758897 -5.0124187e-18)
(462.30493 -0.14213108 1.6869697e-17)
(457.66222 0.2872554 4.0155589e-17)
(461.2464 -0.23460881 1.9948441e-17)
(459.42591 0.29194256 4.2002336e-17)
(459.4063 -0.12837447 -1.5381851e-17)
(460.84536 -0.024602769 5.7741489e-17)
(458.95614 0.25217407 -2.5776743e-16)
(460.80182 -0.35818289 1.4728687e-16)
(459.1899 0.35877568 -3.4353487e-17)
(460.69649 -0.1978172 2.4795409e-16)
(459.17636 -0.061842017 4.9233937e-17)
(460.00825 0.19688569 -1.4982209e-17)
(459.3208 -0.3508993 5.3415723e-17)
(460.64999 0.25313588 6.0611948e-17)
(457.47949 -0.60715981 -1.3194674e-16)
(462.53444 0.54256029 1.741697e-16)
(457.40006 -0.15321132 3.574258e-17)
(460.91573 -0.25305114 5.0908565e-17)
(460.00956 0.74348617 -2.0897988e-18)
(458.71143 -0.72233497 7.0710422e-17)
(460.00838 0.92071887 1.4268754e-16)
(458.93103 -0.9245413 3.1386104e-17)
(459.17715 1.1414726 -1.9861506e-17)
(459.16488 -0.81463495 1.6939162e-16)
(458.09356 0.41157422 -2.7363333e-18)
(458.80151 -0.89584772 7.7686329e-17)
(458.65583 0.70075354 -2.0734071e-17)
(457.65295 -0.23933456 -2.3449553e-18)
(460.86469 0.24278183 1.9112207e-16)
(453.75501 -0.43721139 9.4747197e-17)
(463.11097 0.9061611 -4.9310383e-18)
(451.95744 -0.69342141 -2.7494581e-16)
(460.76196 -0.10967438 -2.1470199e-16)
(454.97593 0.81297077 -7.2401318e-17)
(457.09246 -1.2331424 1.8801542e-16)
(456.37224 0.21692151 -3.5779702e-17)
(457.17108 0.21505402 -2.6430257e-18)
(456.26498 -0.6227924 1.7502494e-16)
(456.90774 0.7985958 -1.6975769e-16)
(455.5117 0.049507275 -2.8174883e-16)
(454.46108 -0.73264766 1.2343736e-16)
(457.02032 0.88016153 1.0567142e-16)
(452.36488 -0.22565611 -1.8063829e-16)
(455.13345 -0.83296979 -1.9034816e-16)
(454.42238 0.74996122 -1.403779e-16)
(453.32269 0.16249293 1.0463085e-16)
(452.71546 -1.0140075 2.6900868e-19)
(454.37987 0.65850231 -3.6946891e-17)
(450.9714 0.17620291 -8.7229668e-17)
(451.74344 -1.0543071 -1.1536537e-16)
(454.01186 0.71885627 -8.0662367e-17)
(452.7907 0.67970412 2.0872904e-17)
(451.01569 -0.74834451 -2.2331166e-16)
(451.47912 -0.17991317 6.9267786e-17)
(453.04685 0.16195721 -5.5958854e-17)
(452.01616 0.45134724 -9.5073757e-17)
(450.55905 0.30240542 -8.508353e-17)
(457.85964 -0.17467506 -1.7578214e-17)
(462.88118 0.46801565 2.4634047e-16)
(457.33811 -0.3344485 5.2355548e-16)
(462.86613 0.23589148 1.8826328e-16)
(456.63 -0.11839118 -2.0191257e-17)
(463.40267 0.11916005 1.640958e-16)
(455.88233 -0.19937626 1.3689328e-16)
(463.77023 0.14306717 1.2345303e-16)
(456.08628 -0.086036138 1.0355667e-16)
(463.69446 -0.031315743 1.4383311e-16)
(456.73895 0.018086851 1.5676671e-16)
(463.62424 -0.015370982 1.5080242e-16)
(457.17601 -0.10557134 1.2055852e-17)
(462.39593 0.14318517 4.19786e-17)
(458.70669 -0.14435016 -8.8033302e-18)
(459.76951 0.0010494481 2.0018731e-16)