/*--------------------------------*- C++ -*----------------------------------*\
| =========                 |                                                 |
| \\      /  F ield         | OpenFOAM: The Open Source CFD Toolbox           |
|  \\    /   O peration     | Version:  2.3.0                                 |
|   \\  /    A nd           | Web:      www.OpenFOAM.org                      |
|    \\/     M anipulation  |                                                 |
\*---------------------------------------------------------------------------*/
FoamFile
{
    version     2.0;
    format      ascii;
    class       volScalarField;
    location    "3";
    object      p_rgh;
}
// * * * * * * * * * * * * * * * * * * * * * * * * * * * * * * * * * * * * * //

dimensions      [1 -1 -2 0 0 0 0];

internalField   nonuniform List<scalar> 
2268
(
672.245
673.199
673.115
672.55
671.699
670.487
669.989
670.643
671.996
673.708
677.235
682.958
690.988
700.413
710.462
722.381
736.748
750.71
762.05
773.457
786.452
796.761
802.744
669.558
673.305
673.473
672.947
671.981
670.775
670.274
670.825
671.699
673.241
676.707
682.586
690.997
700.886
710.707
721.619
735.052
747.842
761.287
773.314
787.039
797.358
803.502
660.255
673.026
673.804
673.247
671.904
670.692
670.471
670.652
671.236
672.916
676.076
681.76
689.979
699.901
711.259
724.011
735.988
746.269
757.778
774.157
788.946
799.447
805.657
658.957
658.69
670.9
672.174
669.582
666.659
666.437
667.628
669.161
671.899
674.982
680.45
687.718
695.488
706.163
720.227
735.231
745.897
757.08
773.191
791.529
802.918
809.31
660.591
654.626
653.427
652.343
650.668
649.243
648.395
652.115
662.734
670.659
672.592
675.816
682.908
692.904
703.589
715.372
732.335
745.231
755.988
771.092
792.963
806.893
814.077
684.234
655.19
661.464
664.461
663.657
666.576
671.157
669.172
665.722
666.522
666.255
672.035
680.615
691.89
702.735
714.788
730.652
747.649
755.438
772.017
794.612
811.285
819.627
689.911
685.407
687.803
685.274
682.59
680.097
676.999
673.056
668.847
663.197
666.273
671.683
682.69
694.115
704.862
715.887
729.068
746.355
760.776
773.257
789.953
814.814
824.91
690.19
690.018
688.636
685.263
682.687
680.436
676.857
672.326
666.818
662.985
664.097
667.722
675.748
688.242
701.034
713.311
727.253
746.104
768.272
775.984
793.477
811.546
829.331
811.544
813.267
811.482
808.966
818.038
832.291
838.264
833.099
817.539
795.244
769.387
747.252
735.79
733.189
729.463
716.463
704.921
694.02
691.621
811.526
814.478
810.444
806.108
814.482
828.853
836.377
832.586
817.404
794.661
767.3
742.584
731.299
731.846
731.56
711.698
699.553
690.142
690.77
811.009
812.237
808.17
802.216
809.591
823.655
833.023
831.367
816.584
793.072
764.051
737.625
725.455
727.815
730.753
707.777
697.42
688.068
691.288
810.096
805.119
806.222
799.046
804.502
817.668
829.243
829.896
815.248
791.162
759.754
726.652
717.335
722.179
727.237
717.773
697.442
685.04
703.726
809.224
808.541
805.416
796.627
800.19
812.676
825.977
828.735
814.632
789.768
757.723
715.637
702.349
715.4
722.302
721.822
717.16
681.024
702.929
813.501
816.377
796.339
794.556
797.51
809.584
824.338
828.922
815.508
790.743
758.126
711.824
696.886
704.681
717.323
717.728
714.949
685.995
700.412
827.724
819.406
795.047
791.315
796.198
806.304
823.601
830.454
815.864
793.507
753.747
711.689
695.025
698.981
713.433
714.109
711.491
705.969
703.503
833.797
821.313
800.516
798.585
794.957
803.372
824.025
833.667
809.137
774.86
752.435
729.011
710.46
707.076
710.274
710.448
706.822
707.685
705.883
691.073
691.141
689.353
686.469
684.19
680.845
675.195
667.188
657.911
645.611
637.002
637.998
649.037
672.608
692.174
707.075
722.941
746.599
772.245
795.151
806.713
818.808
824.771
506.68
538.623
534.343
509.931
500.448
474.945
429.138
365.407
296.926
250.321
227.688
230.215
281.449
412.589
511.63
558.416
626.92
730.986
783.973
803.754
821.423
840.481
854.086
65.4484
52.9521
55.1645
50.5214
45.9647
34.7652
16.6753
4.5487
1.48747
1.37786
1.37736
1.4269
1.5263
2.18792
4.00607
1.05598
16.0606
260.753
523.975
606.352
704.576
799.487
850.277
1.04256
0.972354
0.892341
0.823576
0.787371
0.829439
0.982366
1.1988
1.30825
1.29082
1.27
1.5012
1.92613
2.47471
1.5373
1.22626
1.24552
1.39465
1.6479
0.699105
22.6404
187.798
336.077
0.971874
0.995823
0.884066
0.841752
0.835031
0.847828
0.934679
1.14677
1.27449
1.14193
1.335
1.73772
1.67647
1.4037
1.45406
1.48952
1.3841
1.37241
1.46385
0.68669
0.559724
0.934092
1.26861
0.920191
1.25267
1.25292
0.912184
0.824846
0.807615
0.900831
1.44691
1.46575
1.35531
0.728166
0.624222
0.531876
0.423912
0.421587
0.954394
0.855345
0.705616
1.1189
1.31817
1.56852
1.57927
1.17979
0.933958
1.20177
1.24002
0.897761
0.808911
0.778349
1.22634
1.37995
1.37543
1.24832
0.670545
0.544152
0.440898
0.314326
0.157284
-0.00487513
-0.126773
-0.184007
-0.00963352
1.16149
1.38615
1.71199
1.42473
0.997015
1.24546
1.24212
0.902862
0.793471
0.747293
1.20608
1.35876
1.29621
0.847919
0.763004
0.628099
0.344501
0.192386
0.02373
-0.145974
-0.275557
-0.353758
-0.370685
-0.0882225
1.18453
1.43914
1.71421
1.00973
1.02748
1.42936
1.88277
0.987115
0.688495
0.837507
1.05242
0.640131
0.59127
0.624788
0.492297
0.229739
0.0743595
-0.109355
-0.254832
-0.365809
-0.494426
-0.560869
-0.54619
0.616022
1.18932
1.45316
1.00646
1.17167
1.9805
1.91575
1.74871
0.665838
0.684424
0.664288
0.605265
0.476881
0.367566
0.26813
0.147232
-0.0149417
-0.213287
-0.350377
-0.479437
-0.592133
-0.702326
-0.736191
0.0331073
0.979506
1.17951
1.27921
1.90059
1.90248
1.88972
1.83355
0.71974
0.63378
0.891823
1.26268
0.72956
0.516053
0.246265
0.0943482
-0.07308
-0.276576
-0.47602
-0.581351
-0.688756
-0.827656
-0.862209
-0.733425
0.846892
0.988591
1.15277
1.52738
1.81422
1.88383
1.86452
0.70564
0.583912
1.31041
1.29076
1.25549
1.20697
0.763739
0.083606
-0.102567
-0.293462
-0.483564
-0.640933
-0.760722
-0.843774
-0.885925
-0.894819
-0.346143
-0.289874
0.472137
0.3972
1.28545
1.72743
1.3441
0.591227
0.543899
1.19298
1.28478
1.24659
1.19391
1.11929
0.330382
-0.114707
-0.268321
-0.430315
-0.570735
-0.679402
-0.75531
-0.796505
-0.80154
-0.758085
-0.624593
0.530263
0.693412
0.355321
0.224647
0.230382
0.81101
0.519029
0.74021
1.27697
1.23353
1.16983
1.08597
0.574405
-0.108789
-0.211041
-0.323905
-0.431995
-0.518401
-0.578931
-0.609797
-0.613565
-0.58044
-0.490871
0.857962
1.91446
0.503111
0.204403
0.207349
0.847629
0.835771
0.746456
1.14207
1.21737
0.748796
0.305131
0.224826
0.00431654
-0.00484642
-0.158395
-0.239388
-0.285795
-0.327834
-0.350555
-0.361557
-0.354472
-0.315667
2.25017
1.97328
0.37456
0.180538
0.180985
0.759594
1.18818
1.1547
0.64021
0.381129
0.0139932
-0.0136594
-0.0278943
0.21557
0.53127
1.02632
0.162355
-0.0177653
-0.035292
-0.0590314
-0.0904929
-0.125388
-0.152071
2.2592
0.210585
0.180397
0.16364
0.163777
0.152724
1.19507
1.15967
0.757729
0.0625939
0.0304794
0.00715225
-0.00646021
-0.00606198
0.226212
1.87977
2.04077
0.2131
0.228681
0.197129
0.146213
0.0639814
-0.0287465
0.700351
0.177939
0.166564
0.163373
0.152793
0.136712
0.804441
1.18726
1.1478
0.391501
0.0595332
0.0364698
0.0183603
0.00968136
0.0149956
1.52758
2.35204
2.00673
0.363631
0.342348
0.273613
0.157604
0.0416253
0.17723
0.168095
0.153663
0.182619
0.248082
0.203144
0.0871939
0.730761
1.04166
0.710945
0.21743
0.193803
0.248332
0.0367611
0.0138633
0.0330983
2.38777
2.63465
1.89813
0.347464
0.286348
0.172464
0.0391156
0.282003
0.177446
0.14167
0.169355
0.26557
0.245578
0.0801978
0.0467914
0.0974981
0.290582
0.378794
0.366184
0.315719
0.0221485
-0.00570158
0.00912672
1.70171
2.6259
2.73127
1.18185
0.193994
0.11309
0.0134433
1.22888
0.184549
0.12919
0.127126
0.254188
0.245269
0.120768
0.0524921
0.0423199
0.0358272
0.0393349
0.0337013
0.00860012
-0.0115747
-0.022933
-0.02139
0.677412
2.47297
2.67828
2.72791
0.848906
0.0118759
-0.0392035
1.26019
0.157594
0.118599
0.111958
0.123064
0.247611
0.196867
0.0592587
0.0507308
0.0415463
0.0308252
0.017854
0.0029126
-0.00548611
-0.0251703
0.00746339
0.175003
0.925122
1.13753
2.89727
3.84444
2.06994
0.30497
1.28631
0.106614
0.108384
0.10653
0.100019
0.124623
0.126878
0.0664596
0.058032
0.0479628
0.0378679
0.071147
0.270427
0.251574
-0.0171336
-0.00981052
0.308933
2.52125
3.49516
2.10231
3.73447
3.23768
0.210203
0.85561
0.102638
0.102463
0.102196
0.0978563
0.0897698
0.0805504
0.0730332
0.0648898
0.0555884
0.051553
0.29803
0.429363
0.403844
0.113087
-0.0387649
1.05786
4.10557
3.84697
3.63622
3.56161
2.46064
-0.281194
0.0949225
0.0998239
0.0996075
0.0992512
0.0964292
0.0911492
0.084825
0.078773
0.0722787
0.0646753
0.0685796
0.407114
0.461765
0.437901
0.190663
-0.0486501
-0.0680042
2.33627
3.96213
3.68614
3.57312
3.56957
0.680887
0.0968387
0.0980707
0.0989118
0.0979927
0.0960241
0.0926234
0.0886885
0.0846803
0.0801574
0.0747851
0.0715395
0.301644
0.496959
0.360798
0.0130466
-0.0305412
-0.109323
-0.242902
1.97661
3.95904
3.8088
3.84895
4.04216
0.0955477
0.0965619
0.0984083
0.100252
0.098409
0.0941268
0.0921214
0.0900795
0.0875677
0.0846342
0.0829173
0.180254
0.526236
0.167702
0.0394281
-0.00546878
-0.0814959
-0.199168
-0.362832
0.341018
2.58964
3.0592
1.10326
0.0943641
0.0956862
0.0975169
0.0996888
0.0994609
0.0956329
0.0946031
0.0940835
0.0933174
0.0925138
0.0933142
0.145819
0.443638
0.210834
0.0530513
0.0106976
-0.0495989
-0.133365
-0.234388
-0.325553
-0.378031
-0.328165
-0.298976
0.0932825
0.0947297
0.0956192
0.098683
0.0988834
0.0974652
0.0957235
0.0961963
0.0966211
0.0972133
0.0994318
0.155226
0.431471
0.25864
0.0559018
0.014496
-0.0328843
-0.086718
-0.141557
-0.183034
-0.194412
-0.174815
-0.130567
0.091423
0.0926558
0.0928831
0.0956647
0.0973669
0.0963307
0.0952789
0.0963548
0.0974117
0.0985946
0.101051
0.135652
0.415049
0.329234
0.0556081
0.0169757
-0.0209257
-0.0555519
-0.0828975
-0.0954873
-0.0910201
-0.0702757
-0.0411967
0.0882965
0.0892522
0.0895879
0.0899434
0.0934484
0.0919306
0.0933361
0.0947422
0.0960691
0.0973009
0.0991402
0.105525
0.289862
0.347383
0.0726523
0.0235645
0.00790323
0.000162373
-0.0415157
-0.0465823
-0.0362054
-0.0167011
0.00241951
0.0839872
0.0847512
0.0853172
0.0859872
0.0870156
0.0884239
0.0900563
0.0916571
0.0931057
0.0942367
0.0952783
0.0954195
0.127138
0.212594
0.063778
0.0363926
0.0417523
0.0328058
0.0217978
-0.00761539
-0.00281852
0.0134138
0.0275737
0.0786443
0.0792757
0.0800097
0.0809194
0.082181
0.0837804
0.0855868
0.0873449
0.0889001
0.0900024
0.0905505
0.0902128
0.0889831
0.209922
0.242348
0.0513569
0.051998
0.0602687
0.0556826
0.0274985
0.0227615
0.032575
0.0427819
0.0723156
0.0728766
0.0737287
0.0748419
0.0763013
0.0780813
0.0800564
0.0819898
0.0836956
0.0848923
0.0852816
0.084796
0.0860603
0.331138
0.511594
0.0623256
0.0543535
0.0756379
0.0694448
0.0435341
0.043185
0.0470301
0.0555381
0.065046
0.0655897
0.0665291
0.0677998
0.0694391
0.0713975
0.0735566
0.0757048
0.0776412
0.0790788
0.0796021
0.079038
0.0831055
0.387752
0.537231
0.176911
0.0649594
0.0643297
0.0636764
0.0594048
0.0576825
0.0664064
0.0765574
0.056875
0.0574255
0.0584351
0.0598306
0.0616297
0.0637655
0.0661311
0.0685414
0.0707972
0.0726253
0.0735598
0.0731385
0.0734262
0.348631
0.550516
0.402026
0.0689922
0.0695839
0.0690455
0.0668696
0.0713887
0.0775551
0.0859823
0.0478307
0.048389
0.0494521
0.0509434
0.0528753
0.0551778
0.0577614
0.060469
0.063115
0.0654563
0.067027
0.0671217
0.0661327
0.249817
0.557478
0.558121
0.0954484
0.0640603
0.0643234
0.0628335
0.0673015
0.0754995
0.0759683
0.0379872
0.0385379
0.0396285
0.0411773
0.0431984
0.0456305
0.0484055
0.0513999
0.0544538
0.0573718
0.059723
0.0606295
0.05996
0.12965
0.561394
0.55497
0.240221
0.0450992
0.0450863
0.045883
0.0451123
0.0639095
0.103272
0.027492
0.0280134
0.0290975
0.0306539
0.0326993
0.0351864
0.0380666
0.0412528
0.0446226
0.0480437
0.0512027
0.0531875
0.0533731
0.0551283
0.306699
0.535529
0.0934765
0.00940099
0.00410122
0.00773085
0.0261729
0.091861
0.112176
0.0164638
0.0169423
0.0179809
0.0194864
0.0214758
0.0239134
0.0267601
0.0299534
0.0334031
0.0370016
0.0405681
0.0433941
0.0444857
0.0434994
0.0574955
0.273019
0.166239
0.649414
0.181627
-0.0385511
-0.0158695
0.042508
0.079289
0.00482353
0.00523515
0.00617574
0.00757006
0.00942317
0.0117002
0.0143546
0.0173208
0.0205155
0.0238357
0.0271746
0.0302469
0.0322511
0.0325602
0.0412553
0.320836
0.500835
0.895697
0.8122
-0.126206
-0.0388988
-0.0404366
-0.0151764
-0.00772035
-0.00752589
-0.00672839
-0.00548552
-0.00382844
-0.0018049
0.000518207
0.00304227
0.0056147
0.00799795
0.00980719
0.0108345
0.0107465
0.00719633
-0.00691749
0.00176122
0.12565
0.523946
0.596522
0.118365
-0.181213
-0.160809
-0.0836905
818.093
828.255
839.883
843.379
860.601
864.869
865.01
860.735
862.107
864.855
867.384
866.302
361.998
359.887
357.985
346.838
1.41153
1.48598
1.54593
1.60053
1.25807
1.3012
1.32009
1.31811
1.00137
1.02364
1.02416
1.00944
0.907949
0.702523
0.710765
0.712779
1.11861
0.410564
0.408609
0.445791
0.940978
0.0839223
0.131988
0.199621
0.24941
-0.1486
-0.0786353
0.105328
-0.17256
-0.231445
-0.134697
-0.0601103
-0.431216
-0.334268
-0.271817
-0.216733
-0.402339
-0.343161
-0.281482
-0.230854
-0.275951
-0.252118
-0.232112
-0.216087
-0.170261
-0.183264
-0.195625
-0.201412
-0.0953428
-0.131811
-0.162096
-0.191126
-0.051569
-0.105046
-0.147122
-0.188085
-0.0386975
-0.0869849
-0.138114
-0.16656
-0.0474181
-0.0768579
-0.0947943
-0.0987101
-0.0505033
-0.0457035
-0.0296938
-0.0114299
-0.0863205
-0.0363868
0.0105992
0.0556179
-0.129401
-0.0575259
0.0222424
0.0763731
-0.180682
-0.0812928
1.53803
0.339056
0.901724
2.25845
3.19715
3.17803
4.06153
4.16163
3.04094
1.5941
0.735868
0.372468
0.1436
-0.0424231
-0.221477
-0.157977
-0.083703
0.000846347
-0.0900456
-0.0590607
-0.01563
0.0260722
-0.0222796
-0.00952983
0.00679489
0.0297297
0.0116339
0.0183113
0.0255327
0.0336647
0.0327492
0.0379534
0.0429126
0.0479368
0.0485371
0.0533695
0.0579288
0.0622237
0.0627889
0.0672804
0.0716425
0.0757036
0.0750539
0.0790308
0.0831866
0.0870519
0.0931952
0.0966801
0.0933253
0.0951333
0.0848563
0.0896413
0.0942003
0.0983226
0.106351
0.0927133
0.0986416
0.100664
0.125573
0.13515
0.145445
0.148605
0.0576153
0.0517435
0.0770847
0.102291
0.00183049
0.00762199
0.0154066
0.0222005
-0.0512118
-0.036988
-0.0248966
-0.0148973
839.067
820.578
807.391
799.025
796.276
806.658
830.044
841.374
813.576
760.577
764.606
742.425
716.916
705.974
704.886
703.209
699.99
700.024
700.164
849.652
833.716
827.476
826.735
831.879
845.148
855.776
852.271
832.535
773.687
687.547
585.937
524.455
518.163
517.487
500.445
484.795
484.465
490.689
857.839
839.345
820.478
810.151
778.612
798.656
842.802
784.592
657.956
559.28
421.681
255.908
139.107
89.5455
62.9096
45.5799
38.1602
39.3962
47.441
290.282
213.532
152.412
196.541
499.49
684.558
474.004
191.347
65.7528
48.2125
32.4459
16.5742
5.22744
1.13863
1.1893
1.69612
2.1809
2.58382
2.91915
1.52013
0.661405
0.711829
43.1129
74.2011
2.27392
1.99118
1.95635
1.69027
1.18706
0.782934
0.689826
0.754139
0.791343
1.02334
1.40333
1.80178
2.1127
2.44617
1.20565
0.818189
0.573027
0.349729
0.415014
1.12003
1.7584
1.75991
1.68566
1.25681
0.951563
0.87497
0.664272
0.520108
0.839303
1.14894
1.48261
2.18461
2.36741
1.04602
0.444986
0.228395
0.178795
0.333068
1.3627
2.05556
1.85309
1.26608
0.346317
-0.140226
0.022278
0.204718
0.383226
0.682451
0.936299
1.72234
2.30255
2.64068
0.845512
0.333481
0.192414
0.13263
0.207038
0.774453
1.74091
1.5174
-0.0541522
-0.216479
-0.23649
-0.167402
0.00723759
0.298023
0.55518
0.874778
1.48158
1.51763
2.46563
0.669551
0.297658
0.173917
0.126513
0.178664
0.199094
1.59373
0.642204
-0.174347
-0.259975
-0.250244
-0.162781
0.0122937
0.258986
0.606407
0.779172
0.77279
0.72696
2.21203
0.501257
0.238913
0.155615
0.135826
0.168192
0.168743
1.57496
-0.0131705
-0.149341
-0.212889
-0.19176
-0.0941229
0.0817763
0.28665
0.498335
0.634486
0.611806
0.664363
2.24445
0.36226
0.160615
0.123271
0.130047
0.166652
0.16661
1.70802
0.196121
-0.0365359
-0.0945601
-0.0780433
0.0239896
0.186623
0.361346
0.49203
0.601976
0.659815
1.4342
2.68504
0.0645666
0.0702766
0.0694069
0.103461
0.166924
0.19003
1.87238
0.316453
0.129156
0.0739581
0.0711216
0.276065
0.725937
0.570644
0.555207
0.663691
1.00559
2.83023
2.81622
-0.108303
-0.0231694
0.00361544
0.0654891
0.169736
0.240175
1.78119
0.432226
0.294344
0.238687
0.221344
0.580615
0.844375
0.966872
0.685149
1.45423
2.95091
2.91468
2.24126
-0.156494
-0.117231
-0.0555863
0.0321638
0.179139
0.307056
0.832014
0.734603
0.873379
1.65552
1.35058
0.658544
0.636738
0.990606
1.66617
1.78405
1.75136
1.1863
0.926785
-0.195548
-0.177807
-0.0988166
0.0120336
0.197785
0.378552
1.196
1.06645
2.00387
2.03708
1.50106
0.568957
0.596816
0.776105
1.30624
1.41447
0.941995
0.940075
0.946111
-0.215559
-0.210357
-0.130743
0.0123447
0.227763
0.734602
2.65719
1.23484
1.76071
2.32656
0.85996
0.614254
0.60268
0.672311
0.983447
1.30596
1.02306
0.948764
1.30499
-0.225811
-0.214686
-0.122654
0.0429694
0.261207
1.58771
2.83469
1.34252
2.03137
2.50889
1.07879
0.627885
0.57111
0.81421
1.10712
1.18017
1.11754
1.75538
2.29294
-0.22992
-0.203406
-0.0261331
0.138888
0.283083
2.21881
2.89143
2.5143
2.67447
2.55275
2.49227
0.821829
0.542439
0.935653
1.01621
0.959199
0.806378
1.32622
2.31683
-0.178958
-0.12489
0.116312
0.295218
0.386561
2.65094
2.82359
2.81065
2.64196
2.56014
2.38507
0.487985
0.456581
0.627428
0.990356
0.699403
0.588832
0.588959
1.20966
-0.0850276
0.0957957
0.366091
0.368944
0.77204
2.53659
2.6896
2.14028
2.58987
2.56152
1.21284
0.422016
0.446686
0.464371
0.499302
0.500414
0.598731
1.41138
0.872027
0.0274709
0.193051
0.547649
0.439268
0.746403
2.43463
0.826307
0.679931
2.59005
2.36894
1.05053
0.924005
0.442526
0.472125
0.496754
0.514676
1.97418
1.97451
0.890492
0.117303
0.191069
0.623224
0.848861
0.916527
2.28095
0.287752
0.437824
2.41259
0.646901
0.522682
0.582569
0.473404
0.483671
0.698722
1.98177
2.01169
1.60776
0.506102
0.148408
0.22952
2.11231
1.39758
0.333896
0.481848
0.306724
0.511778
0.470057
0.240068
0.29268
0.365
0.420263
0.946548
1.19415
1.19823
0.523366
0.463973
0.471739
0.139772
1.29884
2.26665
0.766013
0.241538
0.241862
0.348489
0.74163
0.567713
0.304875
0.334747
0.380876
0.423268
0.71945
0.870061
0.572477
0.502237
0.466685
0.46861
2.67121
2.6819
1.79797
0.228151
0.250709
0.259986
0.78031
0.787535
0.651689
0.304616
0.339207
0.361453
0.389411
1.23907
2.33998
2.35939
1.03024
0.458427
0.456143
1.7891
1.15517
0.229621
0.249458
0.272501
0.270285
0.889211
0.793165
0.297356
0.285425
0.288453
0.673017
2.48044
2.6606
2.70853
2.81003
2.93389
0.588523
0.590481
0.0907347
0.177901
0.247152
0.27817
0.519111
0.980027
0.741927
0.241615
0.213138
0.225133
0.206146
0.961428
2.48681
2.55878
1.75778
2.34981
2.93834
2.90025
1.28303
0.103082
0.215135
0.577916
1.54934
1.66316
0.997666
0.147259
0.161175
0.179933
0.184415
0.146625
0.296109
0.947198
0.701507
0.341945
0.319568
2.96692
3.07036
1.56853
0.130228
1.11676
1.83246
1.8236
1.74304
0.22499
0.144087
0.167996
0.188573
0.188429
0.247397
0.959426
0.966324
0.633922
0.385005
0.296132
2.46321
3.12769
2.44167
0.196875
1.62694
1.85118
1.86194
1.84115
0.645331
0.186335
0.204237
0.217286
0.662751
1.23776
1.16255
0.726629
0.377673
0.202814
0.212264
2.85399
3.17296
3.17107
0.0579292
0.546011
1.72405
1.90564
1.91773
1.91098
1.19474
0.875236
1.16073
1.29609
1.08355
0.376257
-0.0151602
-0.0186409
-0.0163582
0.172079
2.36358
3.19038
3.18271
0.0564032
0.0623686
0.205295
0.968894
1.84808
1.89251
1.87461
1.8553
1.79761
0.959875
0.0578291
0.0132151
-0.00390367
-0.0129468
0.0184715
0.662681
0.836228
3.20148
2.2163
0.0681628
0.0717897
0.0758098
0.0854205
0.273487
0.739627
1.04196
1.0436
0.660969
0.231123
0.190559
0.0263414
0.00913846
0.149484
0.205198
0.242211
0.602504
3.09125
-0.0110481
0.0812989
0.0839031
0.083823
0.0814784
0.0730059
0.0553166
0.0350285
0.0208076
0.0149974
0.0201878
0.0232509
0.0216143
0.0903438
0.563531
0.0744058
0.0454642
0.691752
1.48215
-0.0134965
0.092153
0.093281
0.0905323
0.0849055
0.0749929
0.0602833
0.0442416
0.0334787
0.0314925
0.0324116
0.0314839
0.030374
0.626061
0.597916
0.0498607
0.0514335
0.167888
-0.021014
-0.00708644
0.0997011
0.0986785
0.0931443
0.085339
0.0755629
0.064307
0.0536215
0.0460865
0.0419973
0.0396817
0.0355017
0.0387884
0.679066
0.339873
-0.00577275
0.0800033
0.179305
0.0993215
0.0726626
0.102617
0.0996853
0.0914847
0.0814571
0.0710266
0.0611013
0.052904
0.0467747
0.0416137
0.0418609
0.037821
0.164756
0.686604
0.00165506
-0.00771316
0.0114613
0.135378
0.138502
0.00844754
0.0989565
0.0947845
0.0853204
0.0739321
0.0629008
0.0532057
0.0461186
0.0410052
0.0363972
0.0920298
0.356858
0.684599
0.175342
-0.00221253
-0.00952452
-0.0170122
-0.0240287
-0.0253296
-0.029538
0.113422
0.0817537
0.0739774
0.0629483
0.0523312
0.0428853
0.0364587
0.0327131
0.0227036
0.299179
0.941275
0.688461
0.00548377
-0.00363023
-0.0116625
-0.0171422
-0.0228204
-0.0256888
-0.0270529
0.108021
0.0618604
0.0568375
0.048523
0.0396299
0.0309238
0.0240736
0.0243044
0.00771763
0.194397
0.965446
0.232668
-0.00203416
-0.00523976
-0.0175684
-0.0188836
-0.0233096
-0.0251822
-0.0254836
0.029847
0.0350799
0.0356364
0.0312868
0.0251343
0.0185093
0.0100396
0.0162067
-0.00286074
0.0219891
0.906957
0.00128165
-0.0214277
-0.0140796
-0.0239429
-0.0221776
-0.0246323
-0.0254424
-0.0247331
-0.00211427
0.00706066
0.0116422
0.0111021
0.00824366
0.00600282
0.000531407
-0.000464933
-0.00917555
-0.00266483
0.100686
-0.0321587
-0.0398535
-0.0249839
-0.0292661
-0.0262597
-0.0260769
-0.0259236
-0.0240355
)
;

boundaryField
{
    leftWall
    {
        type            fixedFluxPressure;
        gradient        uniform 0;
        value           nonuniform List<scalar> 
50
(
672.245
669.558
660.255
658.957
660.591
684.234
689.911
690.19
691.073
506.68
65.4484
1.04256
0.971874
0.920191
0.933958
0.997015
1.00973
1.00646
1.27921
1.15277
0.472137
0.530263
0.857962
2.25017
2.2592
0.700351
0.17723
0.282003
1.22888
1.26019
1.28631
0.85561
0.0949225
0.0968387
0.0955477
0.0943641
0.0932825
0.091423
0.0882965
0.0839872
0.0786443
0.0723156
0.065046
0.056875
0.0478307
0.0379872
0.027492
0.0164638
0.00482353
-0.00772035
)
;
    }
    rightWall
    {
        type            fixedFluxPressure;
        gradient        uniform 0;
        value           nonuniform List<scalar> 
50
(
691.621
690.77
691.288
703.726
702.929
700.412
703.503
705.883
700.164
490.689
47.441
2.91915
2.44617
2.36741
2.64068
2.46563
2.21203
2.24445
2.68504
2.81622
2.24126
0.926785
0.946111
1.30499
2.29294
2.31683
1.20966
0.872027
0.890492
0.506102
0.471739
0.46861
0.456143
0.590481
1.28303
1.56853
2.44167
3.17107
3.18271
2.2163
-0.0110481
-0.0134965
-0.00708644
0.0726626
0.00844754
-0.029538
-0.0270529
-0.0254836
-0.0247331
-0.0240355
)
;
    }
    lowerWall
    {
        type            fixedFluxPressure;
        gradient        uniform 0;
        value           nonuniform List<scalar> 
62
(
672.245
673.199
673.115
672.55
671.699
670.487
669.989
670.643
671.996
673.708
677.235
682.958
690.988
700.413
710.462
722.381
736.748
750.71
762.05
773.457
786.452
796.761
802.744
802.744
803.502
805.657
809.31
814.077
819.627
824.91
829.331
818.093
828.255
839.883
843.379
811.544
811.526
811.009
810.096
809.224
813.501
827.724
833.797
811.544
813.267
811.482
808.966
818.038
832.291
838.264
833.099
817.539
795.244
769.387
747.252
735.79
733.189
729.463
716.463
704.921
694.02
691.621
)
;
    }
    atmosphere
    {
        type            totalPressure;
        rho             rho;
        psi             none;
        gamma           1;
        p0              uniform 0;
        value           nonuniform List<scalar> 
46
(
-0.0144793
-0.0145702
-0.0138224
-0.0126652
-0.011128
-0.00926547
-0.00715598
-0.0049164
-0.00273325
-0.000915814
-7.84616e-06
0
0
0
0
0
0
0
0
0
-0.0193297
-0.173518
-0.144614
-0.0826012
-0.0631194
-0.0509862
-0.0377845
-0.0203587
-0.00920686
-0.00206608
0
0
0
0
-2.30435e-05
-0.00992822
-0.0140199
0
-0.0521043
-0.0476619
-0.0274102
-0.0322787
-0.0282156
-0.0269142
-0.0263684
-0.0234176
)
;
    }
    defaultFaces
    {
        type            empty;
    }
}


// ************************************************************************* //
