/*--------------------------------*- C++ -*----------------------------------*\
| =========                 |                                                 |
| \\      /  F ield         | OpenFOAM: The Open Source CFD Toolbox           |
|  \\    /   O peration     | Version:  2.3.0                                 |
|   \\  /    A nd           | Web:      www.OpenFOAM.org                      |
|    \\/     M anipulation  |                                                 |
\*---------------------------------------------------------------------------*/
FoamFile
{
    version     2.0;
    format      ascii;
    class       volScalarField;
    location    "0.002";
    object      p_rgh;
}
// * * * * * * * * * * * * * * * * * * * * * * * * * * * * * * * * * * * * * //

dimensions      [1 -1 -2 0 0 0 0];

internalField   nonuniform List<scalar> 
725
(
-623.773
-793.764
-843.722
-805.657
-960.23
-650.359
-792.872
-847.15
-841.21
-1051.84
-665.528
-793.895
-854.487
-874.367
-1079.21
-668.397
-800.06
-862.822
-893.685
-1008.72
-660.733
-806.521
-868.721
-902.236
-966.668
480.309
-683.82
-281.591
-18.1755
83.9049
154.535
166.76
156.226
140.378
97.1076
74.2924
109.97
130.058
117.574
108.906
86.3015
92.5193
107.004
117.104
120.471
118.672
115.01
110.721
106.088
101.343
96.6129
91.8904
87.1062
82.2172
77.2842
72.348
67.3916
62.4144
57.4136
52.4103
47.4295
42.4534
37.45
32.4194
27.3859
22.3677
17.37
12.3903
7.42416
2.47385
-606.59
-1024.63
-270.146
3.7627
105.832
164.516
169.884
155.938
141.91
96.9884
68.5457
110.024
131.913
117.697
104.03
83.7944
92.8537
107.623
117.392
120.715
118.832
115.127
110.817
106.152
101.375
96.6233
91.8908
87.1074
82.2161
77.2758
72.346
67.3925
62.4172
57.4152
52.407
47.4242
42.4518
37.4522
32.4235
27.3896
22.3704
17.3719
12.3917
7.42519
2.46982
374.154
-662.983
-199.92
40.3602
138.157
189.726
177.707
156.957
144.991
92.9125
57.7742
113.16
138.851
120.366
94.3638
76.0165
93.668
109.851
118.87
121.636
119.227
115.361
110.975
106.246
101.425
96.6481
91.9074
87.1233
82.2212
77.2627
72.3454
67.396
62.4232
57.4182
52.4029
47.4189
42.4513
37.4551
32.4262
27.3911
22.3709
17.3715
12.3909
7.42436
2.47017
500.986
-430.432
-146.903
97.6904
172.079
235.956
188.443
156.191
148.92
84.0853
59.7838
143.051
157.278
129.229
72.8715
62.0996
96.6985
113.938
121.348
122.838
119.565
115.596
111.142
106.349
101.487
96.69
91.9432
87.1545
82.2334
77.2388
72.3469
67.4022
62.4324
57.4229
52.3992
47.4156
42.4528
37.4563
32.4248
27.3886
22.3683
17.369
12.3885
7.42217
2.46959
771.897
233.12
343.398
269.484
221.121
314.478
199.827
240.845
147.641
57.3055
33.6179
173.126
204.855
151.245
23.3811
43.8736
105.528
122.823
125.41
124.677
119.583
115.82
111.272
106.456
101.553
96.7467
91.9989
87.2025
82.2538
77.1927
72.3514
67.4131
62.4453
57.4286
52.3953
47.415
42.4577
37.4555
32.4187
27.3819
22.3629
17.3647
12.3845
7.41811
2.47066
5849.04
3258.84
677.713
260.449
190.709
384.469
208.244
243.044
162.099
397.471
443.125
212.315
235.006
183.21
-48.2542
40.3097
115.859
128.952
127.884
125.706
123.895
116.762
111.17
106.414
101.509
96.7365
92.0216
87.2402
82.2711
77.1431
72.3623
67.428
62.4637
57.439
52.3931
47.422
42.4749
37.4655
32.4201
27.3807
22.3627
17.3658
12.3864
7.4173
2.46792
5164.02
2995.68
711.546
266.791
180.931
412.351
211.476
237.124
171.638
323.077
428.261
223.731
243.381
201.383
-84.7166
42.8487
131.076
130.867
128.768
125.898
122.652
116.474
111.585
106.404
101.481
96.722
92.0258
87.3196
82.5728
77.8072
72.8962
67.9661
62.9874
57.981
52.9534
47.8689
42.7356
37.6054
32.5046
27.4426
22.4159
17.4157
12.4347
7.46174
2.47913
5133.51
2856.99
2280.57
287.594
175.411
440.056
241.873
234.558
179.001
293.759
380.8
230.331
247.087
217.025
617.237
47.6066
137.319
132.725
129.641
126.076
122.434
115.821
111.236
106.385
101.54
96.7438
91.9722
87.2068
82.424
77.5939
72.6955
67.7442
62.7402
57.6958
52.6234
47.5196
42.3914
37.2756
32.1968
27.1519
22.1366
17.1504
12.1912
7.24945
2.30162
5335.15
3161.7
397.458
299.074
166.839
471.182
232.224
233.314
186.28
285.509
365.135
239.418
250.334
226.146
441.263
516.388
161.329
134.022
130.449
126.239
122.226
115.753
111.093
105.904
100.996
95.9753
90.9146
85.9257
81.1111
76.4378
71.3906
66.4731
61.5599
56.6808
51.8034
46.8442
41.8644
36.9437
32.0514
27.152
22.2364
17.3075
12.3711
7.42603
2.46275
4648.4
1955.76
788.758
308.195
157.563
561.932
220.63
230.879
191.441
281.583
354.061
246.779
248.871
235.016
355.495
248.924
152.535
136.601
131.219
126.378
122.022
115.718
110.994
105.869
100.97
95.9677
90.9205
85.9362
81.1155
76.4136
71.3898
66.4728
61.5599
56.6783
51.7969
46.8399
41.8618
36.9369
32.0395
27.1362
22.2167
17.2836
12.3428
7.39635
2.45685
1456.97
1314.73
1267.01
1261.04
1393.36
1448.91
1319.58
1266.95
1236
1270.96
1451.18
1322.82
1267.16
1225.57
1177.27
1465.83
1322.01
1266.16
1228.83
1152.85
1492.16
1320.04
1263.83
1233.17
1177.47
2274.46
1832.65
499.483
227.617
126.024
21.5398
191.854
225.306
208.525
272.02
324.712
258.729
243.807
225.296
293.778
249.213
171.451
142.054
133.268
126.887
121.591
115.794
110.847
105.859
100.948
95.9712
90.9473
85.9691
81.1234
76.3625
71.3862
66.4744
61.5643
56.6766
51.7861
46.8382
41.8675
36.9354
32.0314
27.1267
22.2085
17.2768
12.3373
7.3951
2.46166
2050.87
1463.76
429.578
164.578
136.996
98.7903
189.699
225.045
220.307
262.091
300.234
267.307
251.801
251.253
262.226
241.964
184.286
151.217
136.968
127.997
121.648
116.006
110.965
105.99
101.033
96.036
91.0029
86.0117
81.1371
76.315
71.3839
66.4777
61.5711
56.6786
51.7812
46.8375
41.8719
36.9351
32.0274
27.1235
22.2076
17.2778
12.3394
7.3986
2.46268
1577.26
828.69
627.653
194.106
162.705
142.362
194.115
223.694
226.961
256.485
286.244
271.813
258.863
262.072
251.744
231.47
190.279
157.8
139.815
129.017
121.978
116.288
111.132
106.107
101.107
96.0813
91.0367
86.0383
81.1445
76.2894
71.3807
66.4793
61.5761
56.6806
51.7767
46.8342
41.8732
36.9363
32.0269
27.1228
22.2075
17.2785
12.341
7.40064
2.46339
1049.69
628.78
534.426
220.432
176.798
164.94
198.707
222.748
229.647
254.636
280.213
274.78
265.179
266.065
246.023
224.486
191.867
161.145
141.515
129.82
122.394
116.565
111.298
106.209
101.162
96.1065
91.0515
86.0514
81.1477
76.2765
71.379
66.4813
61.5806
56.6824
51.7723
46.8292
41.8728
36.9386
32.0293
27.124
22.2076
17.2778
12.3401
7.40031
2.46259
1395.53
607.301
557.639
234.769
188.029
179.196
205.327
223.715
229.789
254.96
279.428
277.236
268.514
267.112
242.27
221.555
191.611
161.873
142.065
130.228
122.702
116.78
111.439
106.294
101.203
96.1186
91.052
86.0528
81.1476
76.2706
71.3789
66.4839
61.5842
56.684
51.7691
46.8241
41.8708
36.9401
32.0318
27.1257
22.2081
17.2777
12.3398
7.39999
2.4666
)
;

boundaryField
{
    AirInlet
    {
        type            fixedFluxPressure;
        gradient        nonuniform List<scalar> 5(1.52467e+08 8.37363e+07 -7.75678e+07 1.97352e+08 1.23084e+08);
        value           nonuniform List<scalar> 5(7373.71 6001.38 4357.83 7308.67 5879.23);
    }
    WaterInlet
    {
        type            fixedFluxPressure;
        gradient        nonuniform List<scalar> 10(0.00373077 0.271979 -2.77678 -8.95728 -19.0807 -0.0393219 -13.126 0.0155882 -15.3265 -5.61396);
        value           nonuniform List<scalar> 10(-623.773 -650.359 -665.528 -668.397 -660.733 1456.97 1448.91 1451.18 1465.83 1492.16);
    }
    ChannelWall
    {
        type            fixedFluxPressure;
        gradient        uniform 0;
        value           nonuniform List<scalar> 
110
(
-660.733
-806.521
-868.721
-902.236
-966.668
1456.97
1314.73
1267.01
1261.04
1393.36
1492.16
1320.04
1263.83
1233.17
1177.47
1395.53
607.301
557.639
234.769
188.029
179.196
205.327
223.715
229.789
254.96
279.428
277.236
268.514
267.112
242.27
221.555
191.611
161.873
142.065
130.228
122.702
116.78
111.439
106.294
101.203
96.1186
91.052
86.0528
81.1476
76.2706
71.3789
66.4839
61.5842
56.684
51.7691
46.8241
41.8708
36.9401
32.0318
27.1257
22.2081
17.2777
12.3398
7.39999
2.4666
-623.773
-793.764
-843.722
-805.657
-960.23
480.309
-683.82
-281.591
-18.1755
83.9049
154.535
166.76
156.226
140.378
97.1076
74.2924
109.97
130.058
117.574
108.906
86.3015
92.5193
107.004
117.104
120.471
118.672
115.01
110.721
106.088
101.343
96.6129
91.8904
87.1062
82.2172
77.2842
72.348
67.3916
62.4144
57.4136
52.4103
47.4295
42.4534
37.45
32.4194
27.3859
22.3677
17.37
12.3903
7.42416
2.47385
)
;
    }
    Outlet
    {
        type            totalPressure;
        rho             rho;
        psi             none;
        gamma           1;
        p0              uniform 0;
        value           uniform 0;
    }
    FrontAndBack
    {
        type            empty;
    }
}


// ************************************************************************* //
