/*--------------------------------*- C++ -*----------------------------------*\
| =========                 |                                                 |
| \\      /  F ield         | OpenFOAM: The Open Source CFD Toolbox           |
|  \\    /   O peration     | Version:  2.3.0                                 |
|   \\  /    A nd           | Web:      www.OpenFOAM.org                      |
|    \\/     M anipulation  |                                                 |
\*---------------------------------------------------------------------------*/
FoamFile
{
    version     2.0;
    format      ascii;
    class       volScalarField;
    location    "0.002";
    object      p_rgh;
}
// * * * * * * * * * * * * * * * * * * * * * * * * * * * * * * * * * * * * * //

dimensions      [1 -1 -2 0 0 0 0];

internalField   nonuniform List<scalar> 
725
(
774.691
742.147
697.805
717.658
715.033
768.809
743.167
702.886
740.423
681.006
766.592
743.539
708.091
753.862
810.548
767.37
742.206
706.839
710.893
630.611
771.206
739.613
702.11
649.267
385.232
1631.13
1233.91
569.545
275.653
197.106
130.708
105.26
84.8443
73.5752
66.3686
61.0088
56.6646
53.033
49.9659
47.3541
45.0688
42.9713
40.9593
38.9992
37.1039
35.2994
33.5959
31.9853
30.4471
28.9593
27.5022
26.0643
24.636
23.2126
21.7913
20.3707
18.9507
17.5311
16.1119
14.693
13.2742
11.8551
10.4362
9.0169
7.59751
6.17771
4.75682
3.32453
1.83447
2.61597
1777.32
1229.46
519.614
246.024
187.553
124.753
101.84
83.1099
72.5308
65.8396
60.7712
56.5577
52.9708
49.9184
47.3178
45.0458
42.957
40.9477
38.9872
37.0922
35.2891
33.5874
31.9795
30.4432
28.9571
27.5009
26.0632
24.6357
23.2121
21.7909
20.3705
18.9505
17.5312
16.1122
14.6931
13.2741
11.8551
10.436
9.01673
7.59744
6.17759
4.7574
3.33016
1.89989
0.59546
2004.23
1323.1
511.788
203.054
176.959
116.314
96.4103
80.449
71.1168
65.1095
60.3838
56.3274
52.8152
49.8101
47.2481
45.0051
42.9324
40.9285
38.9678
37.0716
35.2697
33.5717
31.9681
30.4358
28.9524
27.4982
26.0618
24.6349
23.2118
21.7907
20.3703
18.9503
17.5309
16.1119
14.6931
13.2742
11.8552
10.4361
9.01682
7.59757
6.1778
4.75875
3.33642
1.9299
0.557915
2311.36
1315.78
541.281
147.748
161.666
104.784
87.8173
76.4954
69.1512
64.0868
59.828
55.9876
52.5842
49.6498
47.1456
44.9479
42.9012
40.9047
38.9416
37.0424
35.2413
33.5481
31.951
30.4248
28.9457
27.4942
26.0598
24.634
23.2113
21.7903
20.3701
18.9503
17.531
16.1121
14.6933
13.2744
11.8553
10.4362
9.017
7.59791
6.17855
4.76145
3.34362
1.95039
0.542134
2991.19
1420.17
791.697
192.67
140.269
90.6056
76.9296
71.3338
66.7002
62.8817
59.234
55.6386
52.3313
49.4551
47.0141
44.8775
42.8678
40.8803
38.9113
37.0058
35.2047
33.5175
31.9289
30.4106
28.9374
27.4893
26.0576
24.6331
23.2109
21.79
20.37
18.9503
17.5312
16.1123
14.6935
13.2745
11.8554
10.4363
9.01717
7.59831
6.1793
4.76423
3.34841
1.96589
0.530104
3790.74
708.308
822.425
116.976
115.236
76.9776
78.489
67.3201
64.5345
61.7521
58.6789
55.4016
52.2956
49.5334
47.1324
44.978
42.9314
40.9112
38.9212
37.0065
35.204
33.5178
31.9309
30.413
28.9415
27.4988
26.0618
24.6343
23.2118
21.7905
20.3704
18.9508
17.5315
16.1126
14.6938
13.2748
11.8557
10.4366
9.01731
7.59903
6.17957
4.7662
3.34591
1.98166
0.516608
3701.43
1204.46
732.31
89.6638
105.106
71.9333
74.2496
65.8798
63.6856
61.3097
58.5466
55.4428
52.4319
49.6979
47.2683
45.0681
42.984
40.9398
38.938
37.0186
35.2141
33.5266
31.9381
30.4188
28.9451
27.4994
26.0628
24.6354
23.2123
21.7908
20.3706
18.9509
17.5316
16.1127
14.6939
13.2749
11.8557
10.4366
9.01732
7.59897
6.17948
4.7665
3.34524
1.98568
0.514362
3741.69
1532.2
692.123
61.4399
91.8082
66.8691
70.8297
64.399
62.7922
60.8871
58.3696
55.3701
52.4259
49.7168
47.292
45.0905
43.0037
40.9587
38.9582
37.0401
35.2353
33.5454
31.9531
30.4299
28.9525
27.5038
26.0657
24.6372
23.2134
21.7914
20.371
18.9512
17.5319
16.1129
14.694
13.275
11.8558
10.4367
9.01738
7.59901
6.17957
4.7667
3.34522
1.98574
0.512959
3774.49
2229.59
728.523
26.6868
77.6577
61.8608
67.9992
62.8206
61.8844
60.4699
57.8812
55.0398
52.2698
49.687
47.3154
45.1127
43.0122
40.9653
38.9721
37.0617
35.2601
33.5689
31.9723
30.444
28.9621
27.5098
26.0695
24.6395
23.2147
21.7922
20.3714
18.9515
17.5321
16.1131
14.6941
13.2751
11.8559
10.4368
9.01744
7.59895
6.17964
4.76673
3.34544
1.98512
0.513095
4235.29
1554.39
892.363
-8.72876
63.222
56.939
64.7189
61.2619
61.0247
59.8176
57.3958
54.8107
52.2216
49.7292
47.3764
45.1556
43.0318
40.974
38.9832
37.0804
35.2836
33.592
31.9916
30.4584
28.972
27.5159
26.0734
24.6417
23.216
21.793
20.3719
18.9518
17.5323
16.1132
14.6942
13.2751
11.856
10.4368
9.0175
7.59894
6.17968
4.76652
3.34619
1.98214
0.51574
-1630.71
-1676.13
-1672.89
-1678.11
-1731.9
-1634.46
-1674.74
-1674.74
-1712.45
-1903.47
-1634.59
-1672.74
-1669.9
-1712.15
-1829.67
-1631.59
-1671.57
-1665.86
-1701.48
-1765.74
-1625.02
-1671.63
-1664.14
-1701.53
-1695.34
-1167.09
-315.361
161.288
-82.8325
24.5588
45.1327
56.5087
57.1863
58.7674
57.6744
56.2903
54.3243
52.1202
49.815
47.5089
45.2597
43.094
41.015
39.0243
37.1292
35.3361
33.6412
32.032
30.4887
28.9928
27.5289
26.0819
24.6469
23.219
21.7948
20.373
18.9526
17.5328
16.1136
14.6944
13.2753
11.8561
10.4369
9.01769
7.59891
6.17995
4.76484
3.34895
1.96604
0.528704
-1224.04
-1069.88
-46.4278
-162.216
-21.8401
19.2736
44.0239
53.7824
56.178
56.2784
55.4101
53.8493
51.8917
49.7267
47.4929
45.2771
43.1244
41.0504
39.0627
37.1691
35.3749
33.6758
32.0602
30.5099
29.0077
27.5383
26.0882
24.6508
23.2212
21.7961
20.3738
18.9532
17.5333
16.1139
14.6947
13.2755
11.8563
10.4371
9.01786
7.59887
6.17951
4.76238
3.34449
1.95083
0.540523
-1032.96
-1137.24
-244.653
-179.255
-53.244
4.0568
37.0581
47.3693
53.2771
54.8347
54.6039
53.4193
51.6778
49.6334
47.4643
45.2812
43.1431
41.0755
39.0912
37.1993
35.4043
33.7022
32.0817
30.5263
29.0193
27.5459
26.0931
24.6537
23.2229
21.7972
20.3745
18.9537
17.5338
16.1142
14.6949
13.2756
11.8564
10.4373
9.01807
7.5988
6.17895
4.75991
3.33763
1.93069
0.556159
-1227.98
-1140.19
-377.745
-206.522
-72.1423
-6.72231
27.8981
44.1904
51.6669
54.0006
54.1491
53.1652
51.5398
49.5655
47.4389
45.28
43.1542
41.0925
39.1113
37.2205
35.4249
33.7208
32.0971
30.5381
29.0277
27.5513
26.0965
24.6558
23.2243
21.798
20.3751
18.9541
17.5341
16.1145
14.6951
13.2759
11.8567
10.4374
9.01804
7.59871
6.17878
4.75848
3.33131
1.9014
0.593561
-1143.65
-1111.02
-467.609
-226.968
-80.6723
-12.0248
26.7478
43.8286
51.4354
53.7785
53.9857
53.0585
51.4759
49.5309
47.424
45.278
43.1594
41.1014
39.1222
37.2325
35.437
33.7316
32.1061
30.5449
29.0324
27.5544
26.0985
24.6571
23.225
21.7985
20.3755
18.9544
17.5342
16.1145
14.6952
13.276
11.8567
10.4374
9.01815
7.59891
6.17906
4.75817
3.32588
1.84667
2.6193
)
;

boundaryField
{
    AirInlet
    {
        type            fixedFluxPressure;
        gradient        nonuniform List<scalar> 5(4.95961e+07 2.76539e+07 -9.60544e+07 6.87622e+07 8.32687e+07);
        value           nonuniform List<scalar> 5(4286.7 3977.97 2781.14 4462.11 5067.97);
    }
    WaterInlet
    {
        type            fixedFluxPressure;
        gradient        nonuniform List<scalar> 10(0.238857 -46.0152 -6.7616 -21.004 -110.233 0.0836231 -172.439 -11.2096 -228.929 -14.8185);
        value           nonuniform List<scalar> 10(774.691 768.809 766.592 767.37 771.205 -1630.71 -1634.47 -1634.59 -1631.59 -1625.02);
    }
    ChannelWall
    {
        type            fixedFluxPressure;
        gradient        uniform 0;
        value           nonuniform List<scalar> 
110
(
771.206
739.613
702.11
649.267
385.232
-1630.71
-1676.13
-1672.89
-1678.11
-1731.9
-1625.02
-1671.63
-1664.14
-1701.53
-1695.34
-1143.65
-1111.02
-467.609
-226.968
-80.6723
-12.0248
26.7478
43.8286
51.4354
53.7785
53.9857
53.0585
51.4759
49.5309
47.424
45.278
43.1594
41.1014
39.1222
37.2325
35.437
33.7316
32.1061
30.5449
29.0324
27.5544
26.0985
24.6571
23.225
21.7985
20.3755
18.9544
17.5342
16.1145
14.6952
13.276
11.8567
10.4374
9.01815
7.59891
6.17906
4.75817
3.32588
1.84667
2.6193
774.691
742.147
697.805
717.658
715.033
1631.13
1233.91
569.545
275.653
197.106
130.708
105.26
84.8443
73.5752
66.3686
61.0088
56.6646
53.033
49.9659
47.3541
45.0688
42.9713
40.9593
38.9992
37.1039
35.2994
33.5959
31.9853
30.4471
28.9593
27.5022
26.0643
24.636
23.2126
21.7913
20.3707
18.9507
17.5311
16.1119
14.693
13.2742
11.8551
10.4362
9.0169
7.59751
6.17771
4.75682
3.32453
1.83447
2.61597
)
;
    }
    Outlet
    {
        type            totalPressure;
        rho             rho;
        psi             none;
        gamma           1;
        p0              uniform 0;
        value           uniform 0;
    }
    FrontAndBack
    {
        type            empty;
    }
}


// ************************************************************************* //
