/*--------------------------------*- C++ -*----------------------------------*\
| =========                 |                                                 |
| \\      /  F ield         | OpenFOAM: The Open Source CFD Toolbox           |
|  \\    /   O peration     | Version:  2.3.0                                 |
|   \\  /    A nd           | Web:      www.OpenFOAM.org                      |
|    \\/     M anipulation  |                                                 |
\*---------------------------------------------------------------------------*/
FoamFile
{
    version     2.0;
    format      ascii;
    class       surfaceScalarField;
    location    "0.002";
    object      phi;
}
// * * * * * * * * * * * * * * * * * * * * * * * * * * * * * * * * * * * * * //

dimensions      [0 3 -1 0 0 0 0];

internalField   nonuniform List<scalar> 
1380
(
3.24978e-13
1.75022e-13
3.59203e-13
-3.42249e-14
6.59157e-13
-2.99954e-13
1.37604e-12
-7.16886e-13
-1.06212e-12
2.43816e-12
6.13169e-13
6.18531e-14
6.72855e-13
-9.39108e-14
9.43979e-13
-5.71078e-13
1.24902e-12
-1.02192e-12
-1.22818e-12
1.41508e-12
6.87048e-13
-1.25194e-13
7.27245e-13
-1.34108e-13
7.5431e-13
-5.98143e-13
3.42043e-13
-6.09655e-13
-3.98559e-13
-4.87581e-13
5.87898e-13
-2.13093e-13
5.48248e-13
-9.44583e-14
3.1906e-13
-3.68955e-13
-1.9206e-13
-9.85352e-14
-7.74099e-13
1.8348e-13
2.86907e-13
1.92449e-13
-1.76506e-13
-2.75041e-13
-1.04914e-12
3.75422e-12
-1.31606e-12
2.60733e-12
1.14689e-12
8.69662e-13
1.73767e-12
2.32954e-13
6.36708e-13
2.37197e-13
-4.24361e-15
2.54978e-13
-1.77802e-14
2.1792e-13
3.70575e-14
1.87123e-13
3.07972e-14
1.72901e-13
1.4222e-14
1.67362e-13
5.53952e-15
1.6156e-13
5.80162e-15
1.54852e-13
6.70791e-15
1.49594e-13
5.25835e-15
1.46725e-13
2.86898e-15
1.45792e-13
9.3303e-16
1.4589e-13
-9.79706e-17
1.46235e-13
-3.44642e-16
1.46387e-13
-1.52769e-16
1.46228e-13
1.59193e-16
1.45828e-13
4.00387e-16
1.45315e-13
5.12427e-16
1.44806e-13
5.09303e-16
1.44383e-13
4.23396e-16
1.44077e-13
3.05201e-16
1.4388e-13
1.97586e-16
1.43753e-13
1.26388e-16
1.43688e-13
6.56857e-17
1.43665e-13
2.32943e-17
1.4366e-13
4.16377e-18
1.43664e-13
-3.85853e-18
1.43669e-13
-4.22442e-18
1.43673e-13
-4.03462e-18
1.43678e-13
-5.63425e-18
1.43683e-13
-4.66015e-18
1.43686e-13
-3.47253e-18
1.43687e-13
-1.10989e-18
1.4369e-13
-2.91018e-18
1.43694e-13
-3.7526e-18
1.43701e-13
-6.81737e-18
1.4373e-13
-2.93564e-17
1.43837e-13
-1.07249e-16
1.44321e-13
-4.83413e-16
1.46065e-13
-1.74458e-15
1.53194e-13
-7.12913e-15
-1.64333e-14
4.27361e-12
-4.17459e-12
1.3545e-12
4.066e-12
5.97106e-13
2.49506e-12
2.81287e-13
9.52527e-13
3.91729e-13
-1.14686e-13
5.23493e-13
-1.49544e-13
4.91551e-13
6.89993e-14
4.46168e-13
7.61797e-14
4.2723e-13
3.31602e-14
4.21354e-13
1.14157e-14
4.12412e-13
1.47438e-14
3.99972e-13
1.91473e-14
3.89594e-13
1.56364e-14
3.83862e-13
8.60107e-15
3.82061e-13
2.73472e-15
3.82333e-13
-3.69132e-16
3.83089e-13
-1.10122e-15
3.83487e-13
-5.51093e-16
3.83323e-13
3.2322e-16
3.82724e-13
9.99306e-16
3.8192e-13
1.31713e-15
3.81116e-13
1.31294e-15
3.80434e-13
1.10586e-15
3.79946e-13
7.92357e-16
3.79631e-13
5.12752e-16
3.79428e-13
3.30168e-16
3.79325e-13
1.68111e-16
3.7929e-13
5.81789e-17
3.79289e-13
5.77646e-18
3.79298e-13
-1.27949e-17
3.7931e-13
-1.60564e-17
3.79322e-13
-1.67191e-17
3.79331e-13
-1.44137e-17
3.79337e-13
-1.08347e-17
3.79341e-13
-7.0903e-18
3.79343e-13
-3.70178e-18
3.79345e-13
-4.94075e-18
3.7935e-13
-8.46209e-18
3.79363e-13
-2.06161e-17
3.7941e-13
-7.57892e-17
3.79555e-13
-2.52033e-16
3.80076e-13
-1.00458e-15
3.81631e-13
-3.29982e-15
3.85622e-13
-1.11202e-14
-1.74208e-14
4.48142e-12
-9.14359e-12
1.02102e-12
7.52641e-12
3.9999e-13
3.11609e-12
4.89533e-13
8.62985e-13
6.00839e-13
-2.25992e-13
7.07949e-13
-2.56654e-13
6.8537e-13
9.15784e-14
6.31627e-13
1.29923e-13
6.09226e-13
5.55611e-14
6.03219e-13
1.74218e-14
5.94807e-13
2.31565e-14
5.82408e-13
3.15466e-14
5.71837e-13
2.62072e-14
5.66066e-13
1.43718e-14
5.6445e-13
4.35163e-15
5.65019e-13
-9.38883e-16
5.66049e-13
-2.13093e-15
5.66654e-13
-1.15642e-15
5.66648e-13
3.29042e-16
5.66173e-13
1.47531e-15
5.65469e-13
2.02041e-15
5.64749e-13
2.03337e-15
5.6415e-13
1.70509e-15
5.63723e-13
1.21835e-15
5.63457e-13
7.79218e-16
5.63288e-13
4.99707e-16
5.63211e-13
2.45145e-16
5.63196e-13
7.32031e-17
5.63207e-13
-5.04652e-18
5.63222e-13
-2.77828e-17
5.63238e-13
-3.24561e-17
5.63251e-13
-3.01578e-17
5.63261e-13
-2.36841e-17
5.63266e-13
-1.68153e-17
5.6327e-13
-1.11081e-17
5.63273e-13
-6.12345e-18
5.63273e-13
-5.53831e-18
5.63276e-13
-1.12274e-17
5.63286e-13
-3.07e-17
5.63315e-13
-1.04612e-16
5.63387e-13
-3.24411e-16
5.63586e-13
-1.20333e-15
5.63785e-13
-3.49917e-15
5.63166e-13
-1.05007e-14
-1.43297e-14
3.33704e-12
-1.22972e-11
-1.46497e-12
1.23284e-11
-1.58748e-13
1.80987e-12
8.35075e-13
-1.30839e-13
9.05982e-13
-2.96899e-13
8.58067e-13
-2.08738e-13
8.0943e-13
1.40216e-13
7.5422e-13
1.85132e-13
7.2568e-13
8.4101e-14
7.17029e-13
2.60726e-14
7.10374e-13
2.98116e-14
7.02424e-13
3.94974e-14
6.96238e-13
3.23923e-14
6.93324e-13
1.72867e-14
6.93068e-13
4.6073e-15
6.94128e-13
-1.9993e-15
6.95317e-13
-3.31916e-15
6.96079e-13
-1.91874e-15
6.96359e-13
4.89748e-17
6.96291e-13
1.54327e-15
6.96052e-13
2.26015e-15
6.95777e-13
2.30766e-15
6.95559e-13
1.92291e-15
6.95434e-13
1.34365e-15
6.95378e-13
8.35551e-16
6.95337e-13
5.40668e-16
6.95346e-13
2.35731e-16
6.95378e-13
4.11963e-17
6.9541e-13
-3.67778e-17
6.95435e-13
-5.30017e-17
6.95451e-13
-4.8433e-17
6.95462e-13
-4.10908e-17
6.9547e-13
-3.12978e-17
6.95474e-13
-2.12838e-17
6.95476e-13
-1.33565e-17
6.95477e-13
-7.08171e-18
6.95476e-13
-4.64544e-18
6.95475e-13
-9.7945e-18
6.95473e-13
-2.83936e-17
6.95463e-13
-9.4504e-17
6.95411e-13
-2.72513e-16
6.952e-13
-9.9314e-16
6.9429e-13
-2.58864e-15
6.91364e-13
-7.57454e-15
-9.1203e-15
7.34737e-13
-1.4081e-11
3.73812e-12
9.32503e-12
1.64194e-12
3.90604e-12
1.31978e-12
1.91325e-13
1.21581e-12
-1.92936e-13
9.89956e-13
1.71191e-14
8.72765e-13
2.57406e-13
8.12423e-13
2.45475e-13
7.79078e-13
1.17447e-13
7.64497e-13
4.06535e-14
7.59846e-13
3.44625e-14
7.60315e-13
3.90276e-14
7.62779e-13
2.9929e-14
7.65418e-13
1.46468e-14
7.67602e-13
2.42367e-15
7.69159e-13
-3.55612e-15
7.70183e-13
-4.34318e-15
7.70938e-13
-2.67428e-15
7.71669e-13
-6.81712e-16
7.72442e-13
7.70995e-16
7.73223e-13
1.47916e-15
7.7394e-13
1.58984e-15
7.74549e-13
1.31402e-15
7.75033e-13
8.59426e-16
7.75389e-13
4.79955e-16
7.75601e-13
3.28464e-16
7.7576e-13
7.68389e-17
7.75865e-13
-6.37511e-17
7.75922e-13
-9.30579e-17
7.75951e-13
-8.22857e-17
7.75965e-13
-6.30396e-17
7.7597e-13
-4.57056e-17
7.75969e-13
-3.06755e-17
7.75966e-13
-1.83276e-17
7.75963e-13
-9.8069e-18
7.75959e-13
-3.05833e-18
7.75953e-13
1.01554e-18
7.75945e-13
-2.11416e-18
7.75932e-13
-1.48688e-17
7.75887e-13
-4.94869e-17
7.75727e-13
-1.1253e-16
7.75198e-13
-4.64402e-16
7.73586e-13
-9.76714e-16
7.69378e-13
-3.36682e-15
-3.0433e-15
-6.86004e-12
-7.02098e-12
4.00077e-13
2.06491e-12
6.05631e-13
3.70049e-12
4.10424e-13
3.86533e-13
2.85688e-13
-6.82007e-14
2.28715e-13
7.40924e-14
1.98152e-13
2.87969e-13
1.81497e-13
2.6213e-13
1.7291e-13
1.26034e-13
1.68548e-13
4.50153e-14
1.67685e-13
3.53254e-14
1.68945e-13
3.77677e-14
1.70743e-13
2.81307e-14
1.72249e-13
1.31411e-14
1.73179e-13
1.49393e-15
1.73615e-13
-3.99225e-15
1.73813e-13
-4.54077e-15
1.74001e-13
-2.86252e-15
1.74286e-13
-9.66254e-16
1.74661e-13
3.95258e-16
1.75068e-13
1.07226e-15
1.75444e-13
1.2137e-15
1.75752e-13
1.00649e-15
1.75978e-13
6.33226e-16
1.76131e-13
3.26792e-16
1.76233e-13
2.27037e-16
1.76292e-13
1.78e-17
1.76323e-13
-9.47207e-17
1.76338e-13
-1.08586e-16
1.76345e-13
-8.91727e-17
1.76347e-13
-6.51425e-17
1.76347e-13
-4.53662e-17
1.76345e-13
-2.92575e-17
1.76344e-13
-1.64806e-17
1.76342e-13
-7.98825e-18
1.7634e-13
-1.37834e-18
1.76338e-13
2.65378e-18
1.76336e-13
4.23263e-19
1.76332e-13
-1.10278e-17
1.76317e-13
-3.45708e-17
1.76281e-13
-7.63409e-17
1.76124e-13
-3.07398e-16
1.7579e-13
-6.42709e-16
1.74539e-13
-2.11596e-15
-1.86677e-15
-2.72595e-12
-4.09504e-12
6.42032e-13
-1.30306e-12
7.59798e-13
3.58272e-12
4.5696e-13
6.89371e-13
2.90916e-13
9.78427e-14
2.2955e-13
1.35458e-13
1.96318e-13
3.21201e-13
1.81152e-13
2.77296e-13
1.72129e-13
1.35056e-13
1.67409e-13
4.97354e-14
1.66643e-13
3.60912e-14
1.68412e-13
3.5999e-14
1.70713e-13
2.583e-14
1.72555e-13
1.1299e-14
1.73641e-13
4.07414e-16
1.74116e-13
-4.46673e-15
1.74313e-13
-4.73759e-15
1.7451e-13
-3.0604e-15
1.74832e-13
-1.28736e-15
1.75266e-13
-3.88343e-17
1.75739e-13
5.99211e-16
1.76175e-13
7.77057e-16
1.7653e-13
6.51392e-16
1.7679e-13
3.74093e-16
1.76965e-13
1.5085e-16
1.77079e-13
1.13075e-16
1.77144e-13
-4.65409e-17
1.77176e-13
-1.27402e-16
1.77192e-13
-1.24597e-16
1.77199e-13
-9.58162e-17
1.77201e-13
-6.677e-17
1.772e-13
-4.46205e-17
1.77198e-13
-2.74743e-17
1.77196e-13
-1.43215e-17
1.77194e-13
-5.89533e-18
1.77192e-13
5.1911e-19
1.7719e-13
4.39317e-18
1.77188e-13
3.07607e-18
1.77184e-13
-6.91628e-18
1.77168e-13
-1.87673e-17
1.77131e-13
-3.94948e-17
1.76968e-13
-1.44406e-16
1.76631e-13
-3.05575e-16
1.75353e-13
-8.38602e-16
-6.91491e-16
2.14886e-12
-6.0439e-12
1.3047e-12
-4.589e-13
9.27843e-13
3.95958e-12
4.90435e-13
1.12678e-12
2.94579e-13
2.93699e-13
2.26889e-13
2.03148e-13
1.93155e-13
3.54936e-13
1.79595e-13
2.90856e-13
1.70848e-13
1.43804e-13
1.6597e-13
5.46131e-14
1.65722e-13
3.63399e-14
1.68248e-13
3.34726e-14
1.71007e-13
2.30714e-14
1.73012e-13
9.29361e-15
1.74069e-13
-6.49611e-16
1.74445e-13
-4.84251e-15
1.74551e-13
-4.84347e-15
1.74701e-13
-3.21028e-15
1.75015e-13
-1.60192e-15
1.75465e-13
-4.89044e-16
1.75962e-13
1.03019e-16
1.76421e-13
3.18006e-16
1.76793e-13
2.79199e-16
1.77065e-13
1.02222e-16
1.77249e-13
-3.30094e-17
1.77366e-13
-4.35058e-18
1.77431e-13
-1.11519e-16
1.77463e-13
-1.59471e-16
1.77479e-13
-1.40009e-16
1.77485e-13
-1.01871e-16
1.77486e-13
-6.78577e-17
1.77485e-13
-4.34876e-17
1.77483e-13
-2.54327e-17
1.7748e-13
-1.19825e-17
1.77478e-13
-3.66784e-18
1.77476e-13
2.47925e-18
1.77474e-13
6.11974e-18
1.77472e-13
5.74469e-18
1.77467e-13
-2.61853e-18
1.77451e-13
-2.65452e-18
1.77414e-13
-2.28116e-18
1.77249e-13
2.01695e-17
1.7691e-13
3.39917e-17
1.75628e-13
4.43525e-16
4.88432e-16
3.08943e-13
-6.15285e-12
9.79421e-13
-1.12938e-12
8.60104e-13
4.0789e-12
5.01809e-13
1.48507e-12
2.9653e-13
4.98977e-13
2.22385e-13
2.77294e-13
1.8885e-13
3.8847e-13
1.77244e-13
3.02462e-13
1.69257e-13
1.51791e-13
1.64927e-13
5.89432e-14
1.65858e-13
3.54082e-14
1.68712e-13
3.06188e-14
1.71417e-13
2.03665e-14
1.73263e-13
7.44724e-15
1.74175e-13
-1.56168e-15
1.74443e-13
-5.11019e-15
1.74469e-13
-4.86971e-15
1.74556e-13
-3.29728e-15
1.74823e-13
-1.86834e-15
1.75241e-13
-9.07353e-16
1.75718e-13
-3.74142e-16
1.76165e-13
-1.2931e-16
1.7653e-13
-8.52844e-17
1.76796e-13
-1.63376e-16
1.76974e-13
-2.11776e-16
1.77089e-13
-1.18895e-16
1.77152e-13
-1.74656e-16
1.77182e-13
-1.89555e-16
1.77196e-13
-1.53939e-16
1.77201e-13
-1.07078e-16
1.77202e-13
-6.84304e-17
1.772e-13
-4.20982e-17
1.77198e-13
-2.33085e-17
1.77196e-13
-9.65887e-18
1.77194e-13
-1.49438e-18
1.77192e-13
4.39624e-18
1.7719e-13
7.77892e-18
1.77188e-13
8.31613e-18
1.77183e-13
1.58605e-18
1.77167e-13
1.34223e-17
1.7713e-13
3.46285e-17
1.76967e-13
1.8343e-16
1.7663e-13
3.71459e-16
1.75351e-13
1.72271e-15
1.66579e-15
-5.98593e-12
3.3086e-14
-2.05868e-13
-6.90944e-12
6.97007e-13
3.17602e-12
4.91822e-13
1.69026e-12
2.96946e-13
6.93853e-13
2.15971e-13
3.58269e-13
1.83867e-13
4.20575e-13
1.74479e-13
3.11849e-13
1.67724e-13
1.58546e-13
1.64672e-13
6.19948e-14
1.66142e-13
3.39382e-14
1.69007e-13
2.77539e-14
1.71518e-13
1.78559e-14
1.73149e-13
5.81634e-15
1.73897e-13
-2.30945e-15
1.74061e-13
-5.27467e-15
1.74024e-13
-4.83228e-15
1.74059e-13
-3.33223e-15
1.74268e-13
-2.07748e-15
1.74623e-13
-1.26225e-15
1.75038e-13
-7.89538e-16
1.75432e-13
-5.23571e-16
1.75756e-13
-4.08708e-16
1.75991e-13
-3.9917e-16
1.7615e-13
-3.70386e-16
1.76252e-13
-2.21166e-16
1.76308e-13
-2.3058e-16
1.76334e-13
-2.15434e-16
1.76346e-13
-1.65324e-16
1.76349e-13
-1.10977e-16
1.76349e-13
-6.83952e-17
1.76348e-13
-4.0505e-17
1.76346e-13
-2.12e-17
1.76343e-13
-7.46556e-18
1.76341e-13
5.10587e-19
1.7634e-13
6.136e-18
1.76338e-13
9.2607e-18
1.76336e-13
1.06464e-17
1.76332e-13
5.63976e-18
1.76316e-13
2.88776e-17
1.7628e-13
7.09792e-17
1.76123e-13
3.40942e-16
1.75787e-13
7.06639e-16
1.74533e-13
2.97692e-15
2.84599e-15
3.05214e-13
1.94786e-13
2.76e-13
2.92132e-14
2.43319e-13
3.26809e-14
4.4116e-13
-1.97841e-13
9.24404e-13
-4.83244e-13
5.99812e-13
9.49744e-14
6.4245e-13
-1.3424e-14
7.90875e-13
-1.15744e-13
1.66946e-12
-1.07643e-12
1.19518e-13
2.47435e-12
6.8389e-13
-8.89163e-14
7.32791e-13
-6.23246e-14
8.00138e-13
-1.83091e-13
1.07772e-12
-1.35401e-12
-4.98451e-13
1.69569e-12
5.98431e-13
-1.87348e-13
5.89712e-13
-5.36056e-14
4.9117e-13
-8.45488e-14
-1.91441e-13
-6.71398e-13
-6.20799e-13
-6.90921e-14
3.12653e-13
2.59047e-13
1.74498e-13
-4.969e-13
-1.1177e-12
-3.02882e-12
2.57867e-12
2.89705e-13
-1.0228e-11
2.47557e-12
9.90158e-13
2.07382e-12
2.092e-12
1.34063e-12
1.42705e-12
8.56579e-13
8.4232e-13
7.71403e-13
5.05751e-13
7.50959e-13
3.32293e-13
7.285e-13
1.81004e-13
7.35874e-13
5.46205e-14
7.45951e-13
2.38619e-14
7.57348e-13
1.63569e-14
7.66144e-13
9.05992e-15
7.71006e-13
9.54072e-16
7.72652e-13
-3.95551e-15
7.7241e-13
-5.03272e-15
7.71667e-13
-4.08922e-15
7.71261e-13
-2.92621e-15
7.71437e-13
-2.25385e-15
7.72092e-13
-1.91719e-15
7.72982e-13
-1.67909e-15
7.7388e-13
-1.42189e-15
7.74638e-13
-1.1664e-15
7.75189e-13
-9.50576e-16
7.75554e-13
-7.35081e-16
7.75809e-13
-4.7599e-16
7.75934e-13
-3.55851e-16
7.75982e-13
-2.63368e-16
7.75996e-13
-1.79747e-16
7.75995e-13
-1.10333e-16
7.75988e-13
-6.12132e-17
7.7598e-13
-3.20257e-17
7.75972e-13
-1.33647e-17
7.75965e-13
-5.21201e-19
7.75959e-13
6.20984e-18
7.75955e-13
1.03856e-17
7.75952e-13
1.28304e-17
7.75946e-13
1.61801e-17
7.7593e-13
2.21815e-17
7.7588e-13
7.83021e-17
7.75717e-13
2.3395e-16
7.75181e-13
8.77438e-16
7.73556e-13
2.33152e-15
7.69327e-13
7.20553e-15
8.96987e-15
2.16804e-12
2.88498e-12
-1.36607e-12
-6.69386e-12
-1.27305e-13
-2.48611e-13
6.66127e-13
1.29857e-12
6.53798e-13
1.43938e-12
5.54608e-13
9.4151e-13
5.9731e-13
4.63048e-13
6.4332e-13
2.86283e-13
6.67619e-13
1.56706e-13
6.75401e-13
4.68381e-14
6.84667e-13
1.45963e-14
6.92755e-13
8.26855e-15
6.98066e-13
3.74921e-15
7.00032e-13
-1.01249e-15
6.9968e-13
-3.60335e-15
6.98447e-13
-3.79935e-15
6.97274e-13
-2.91599e-15
6.96478e-13
-2.13102e-15
6.96021e-13
-1.79682e-15
6.95795e-13
-1.69144e-15
6.95701e-13
-1.58468e-15
6.95676e-13
-1.39721e-15
6.95674e-13
-1.16382e-15
6.95658e-13
-9.34509e-16
6.95629e-13
-7.06957e-16
6.95621e-13
-4.67584e-16
6.95593e-13
-3.28332e-16
6.95557e-13
-2.27525e-16
6.95527e-13
-1.49356e-16
6.95504e-13
-8.76282e-17
6.95489e-13
-4.61028e-17
6.9548e-13
-2.25572e-17
6.95475e-13
-8.29666e-18
6.95472e-13
1.73147e-18
6.95472e-13
6.73202e-18
6.95473e-13
9.96714e-18
6.95474e-13
1.15917e-17
6.95474e-13
1.56019e-17
6.9547e-13
2.65182e-17
6.95456e-13
9.24522e-17
6.95396e-13
2.93751e-16
6.95164e-13
1.10973e-15
6.94221e-13
3.27487e-15
6.91263e-13
1.01633e-14
1.42535e-14
2.3389e-12
2.24176e-12
-1.29141e-12
-3.06354e-12
-1.15305e-12
-3.86975e-13
-4.9104e-13
6.36562e-13
-5.66347e-14
1.00497e-12
2.40092e-13
6.44783e-13
3.93795e-13
3.09345e-13
4.83114e-13
1.96964e-13
5.40744e-13
9.90754e-14
5.57873e-13
2.97092e-14
5.64707e-13
7.76234e-15
5.69511e-13
3.46432e-15
5.72169e-13
1.09183e-15
5.72327e-13
-1.171e-15
5.70967e-13
-2.24257e-15
5.69293e-13
-2.12589e-15
5.67946e-13
-1.56852e-15
5.66984e-13
-1.16948e-15
5.66246e-13
-1.05882e-15
5.65623e-13
-1.06911e-15
5.65083e-13
-1.04455e-15
5.6463e-13
-9.43703e-16
5.64262e-13
-7.95919e-16
5.63965e-13
-6.37164e-16
5.63735e-13
-4.77641e-16
5.63584e-13
-3.16465e-16
5.63472e-13
-2.15936e-16
5.6339e-13
-1.45889e-16
5.63333e-13
-9.21554e-17
5.63297e-13
-5.19208e-17
5.63277e-13
-2.6574e-17
5.63267e-13
-1.24242e-17
5.63263e-13
-4.23502e-18
5.63263e-13
2.32653e-18
5.63265e-13
5.11015e-18
5.63268e-13
6.40986e-18
5.63272e-13
7.39024e-18
5.63277e-13
1.11595e-17
5.63284e-13
1.95763e-17
5.63307e-13
6.92411e-17
5.63368e-13
2.33177e-16
5.63533e-13
9.44475e-16
5.63673e-13
3.13526e-15
5.63008e-13
1.08279e-14
1.74333e-14
1.21107e-12
9.61598e-13
-6.57141e-13
-1.19533e-12
-1.23347e-12
1.89356e-13
-9.41459e-13
3.44549e-13
-3.85443e-13
4.48955e-13
-5.66979e-15
2.6501e-13
1.77789e-13
1.25886e-13
2.98074e-13
7.66793e-14
3.60713e-13
3.64361e-14
3.80253e-13
1.01697e-14
3.85631e-13
2.38427e-15
3.88233e-13
8.61878e-16
3.89193e-13
1.32361e-16
3.88509e-13
-4.87075e-16
3.87001e-13
-7.34092e-16
3.85515e-13
-6.40868e-16
3.84403e-13
-4.55944e-16
3.83589e-13
-3.55653e-16
3.82892e-13
-3.62496e-16
3.8222e-13
-3.96857e-16
3.81584e-13
-4.08982e-16
3.81018e-13
-3.77255e-16
3.80542e-13
-3.20074e-16
3.80161e-13
-2.56111e-16
3.79873e-13
-1.89504e-16
3.7968e-13
-1.23163e-16
3.79546e-13
-8.20852e-17
3.79454e-13
-5.48165e-17
3.79395e-13
-3.25955e-17
3.7936e-13
-1.73606e-17
3.79342e-13
-8.72479e-18
3.79334e-13
-4.02832e-18
3.79331e-13
-1.06893e-18
3.79331e-13
2.1936e-18
3.79334e-13
2.20755e-18
3.79339e-13
1.4033e-18
3.79344e-13
2.49491e-18
3.7935e-13
4.94121e-18
3.79363e-13
7.43095e-18
3.79404e-13
2.7821e-17
3.79537e-13
1.00636e-16
3.8002e-13
4.61576e-16
3.81482e-13
1.67323e-15
3.85374e-13
6.9353e-15
1.65034e-14
-1.561e-13
-1.35143e-12
-1.16207e-12
-8.17526e-13
-3.6857e-13
-1.0356e-13
2.23254e-14
9.90047e-14
1.35441e-13
1.45611e-13
1.47995e-13
1.48857e-13
1.48989e-13
1.48502e-13
1.47768e-13
1.47127e-13
1.46671e-13
1.46315e-13
1.45953e-13
1.45556e-13
1.45147e-13
1.4477e-13
1.4445e-13
1.44194e-13
1.44004e-13
1.43881e-13
1.43799e-13
1.43744e-13
1.43711e-13
1.43694e-13
1.43685e-13
1.43681e-13
1.4368e-13
1.43682e-13
1.43685e-13
1.43686e-13
1.43689e-13
1.43693e-13
1.43701e-13
1.43729e-13
1.43829e-13
1.44291e-13
1.45964e-13
1.529e-13
)
;

boundaryField
{
    AirInlet
    {
        type            calculated;
        value           nonuniform List<scalar> 5(-2e-13 -2e-13 -2e-13 -2e-13 -2e-13);
    }
    WaterInlet
    {
        type            calculated;
        value           nonuniform List<scalar> 10(-5e-13 -5e-13 -5e-13 -5e-13 -5e-13 -5e-13 -5e-13 -5e-13 -5e-13 -5e-13);
    }
    ChannelWall
    {
        type            calculated;
        value           uniform 0;
    }
    Outlet
    {
        type            calculated;
        value           nonuniform List<scalar> 
15
(
1.69627e-13
3.86609e-13
5.60074e-13
6.86154e-13
7.63301e-13
1.73362e-13
1.74178e-13
1.74448e-13
1.74173e-13
1.73353e-13
7.63203e-13
6.85979e-13
5.59828e-13
3.86304e-13
1.69403e-13
)
;
    }
    FrontAndBack
    {
        type            empty;
        value           nonuniform 0();
    }
}


// ************************************************************************* //
