/*--------------------------------*- C++ -*----------------------------------*\
| =========                 |                                                 |
| \\      /  F ield         | OpenFOAM: The Open Source CFD Toolbox           |
|  \\    /   O peration     | Version:  2.3.0                                 |
|   \\  /    A nd           | Web:      www.OpenFOAM.org                      |
|    \\/     M anipulation  |                                                 |
\*---------------------------------------------------------------------------*/
FoamFile
{
    version     2.0;
    format      ascii;
    class       volVectorField;
    location    "0.002";
    object      U;
}
// * * * * * * * * * * * * * * * * * * * * * * * * * * * * * * * * * * * * * //

dimensions      [0 1 -1 0 0 0 0];

internalField   nonuniform List<vector> 
725
(
(0.215409 0.0245799 -2.86771e-30)
(0.192313 0.0109519 3.66125e-31)
(0.127416 0.00923375 -3.18847e-31)
(0.114272 0.0350488 0)
(-0.429203 0.022869 8.00863e-30)
(0.377436 0.0524229 -1.41888e-29)
(0.402233 0.0426195 1.22828e-30)
(0.339111 0.0398681 -2.91782e-30)
(0.339623 0.117682 0)
(0.0291251 0.129068 2.78298e-29)
(0.415306 0.0391041 -6.95281e-30)
(0.465466 0.0535544 -5.85181e-31)
(0.428093 0.0614 -5.24926e-30)
(0.439544 0.147127 0)
(0.303686 0.205374 -1.18469e-30)
(0.374967 0.0187024 7.50379e-30)
(0.397358 0.0488617 -1.5063e-30)
(0.370821 0.0627418 -5.95195e-30)
(0.388713 0.134314 0)
(0.426739 0.270315 -6.53609e-30)
(0.21032 0.0115996 9.97202e-30)
(0.186078 0.0304231 -1.51683e-30)
(0.170043 0.0354213 -1.60595e-30)
(0.182301 0.0575018 -1.61036e-30)
(0.434183 0.197584 8.21987e-30)
(0.116902 -0.223564 0)
(0.594268 0.0659099 0)
(0.175165 0.0278411 0)
(0.0664229 0.00285284 0)
(0.0555696 -0.00295582 0)
(0.0349863 0.00197335 0)
(0.0353933 -0.00125098 0)
(0.0554189 -0.00143055 0)
(0.0734251 -0.00172493 0)
(0.0435117 0.00643595 0)
(-0.000938071 0.00552135 0)
(-0.00200692 -0.000915322 0)
(0.0217085 -0.00420683 0)
(0.0422018 -0.00210579 0)
(0.0665155 -0.00581828 0)
(0.0700103 0.00278003 0)
(0.0485952 0.00285982 0)
(0.0410724 0.000502425 0)
(0.0467692 -0.000684792 0)
(0.0539629 -0.000488221 0)
(0.0570515 3.99055e-05 0)
(0.0571075 0.000106593 0)
(0.0564924 8.30785e-05 0)
(0.0558458 7.50721e-05 0)
(0.0553277 4.79313e-05 0)
(0.0550882 1.09735e-05 0)
(0.0551209 -1.59503e-05 0)
(0.0552813 -2.20645e-05 0)
(0.0554114 -9.25646e-06 0)
(0.0554997 -1.14911e-05 0)
(0.0555727 -7.01739e-06 0)
(0.0556148 -3.60909e-06 0)
(0.0556291 -1.87856e-06 0)
(0.0556195 2.32905e-06 0)
(0.0556119 1.55197e-06 0)
(0.0556497 -6.10877e-06 0)
(0.0557219 -8.60894e-06 0)
(0.0557649 -2.18467e-06 0)
(0.0557437 5.21393e-06 0)
(0.0556781 8.52361e-06 0)
(0.0556036 8.25887e-06 0)
(0.0555408 6.56435e-06 0)
(0.0554931 5.0755e-06 0)
(0.055457 3.85361e-06 0)
(0.0554296 1.21902e-06 0)
(0.107659 -0.564916 0)
(0.523383 0.101922 0)
(0.257248 0.108121 0)
(0.199995 0.0470537 0)
(0.141306 0.0243417 0)
(0.0761869 0.00894509 0)
(0.0926979 -0.0109588 0)
(0.134205 -0.0121129 0)
(0.16883 -0.00149569 0)
(0.112558 0.0336777 0)
(0.039173 0.0205568 0)
(0.0433719 -0.0114241 0)
(0.0854679 -0.0208971 0)
(0.116672 -0.0110623 0)
(0.150637 -0.0195625 0)
(0.147844 0.0141512 0)
(0.110734 0.012455 0)
(0.104048 -0.000715637 0)
(0.121189 -0.00652643 0)
(0.139049 -0.00468594 0)
(0.147441 -0.00106323 0)
(0.148836 0.00023051 0)
(0.148135 0.000482543 0)
(0.147012 0.000491817 0)
(0.146023 0.000319399 0)
(0.145563 7.58148e-05 0)
(0.145648 -9.85865e-05 0)
(0.145982 -0.000137562 0)
(0.146249 -7.94418e-05 0)
(0.146427 -7.25416e-05 0)
(0.146565 -4.69251e-05 0)
(0.146642 -2.1654e-05 0)
(0.146661 -4.85548e-06 0)
(0.146637 8.90416e-06 0)
(0.146631 -9.31057e-06 0)
(0.146726 -5.09421e-05 0)
(0.146886 -5.43352e-05 0)
(0.146974 -7.64689e-06 0)
(0.146922 4.22595e-05 0)
(0.146778 6.34573e-05 0)
(0.146619 5.97373e-05 0)
(0.146489 4.68789e-05 0)
(0.146393 3.53396e-05 0)
(0.146321 2.71507e-05 0)
(0.14626 1.20628e-05 0)
(-0.00264917 -0.517041 0)
(0.0678117 0.158493 0)
(0.0487665 0.0976743 0)
(0.240142 0.0621471 0)
(0.223228 0.0654181 0)
(0.154573 0.0163295 0)
(0.159239 -0.0259268 0)
(0.193409 -0.0274721 0)
(0.242841 -0.00613687 0)
(0.195301 0.0666417 0)
(0.106072 0.0487408 0)
(0.0889421 -0.025281 0)
(0.134794 -0.0436199 0)
(0.164977 -0.0199536 0)
(0.206711 -0.0370018 0)
(0.205904 0.0319984 0)
(0.157889 0.0236252 0)
(0.154372 -0.00535085 0)
(0.179927 -0.0171143 0)
(0.204686 -0.0123227 0)
(0.216654 -0.0036954 0)
(0.21923 -0.000158222 0)
(0.218928 0.000832195 0)
(0.217883 0.00101024 0)
(0.216794 0.000695672 0)
(0.216238 0.000174489 0)
(0.216334 -0.000216684 0)
(0.216758 -0.000308866 0)
(0.217087 -0.00018222 0)
(0.217286 -0.000158246 0)
(0.217437 -9.87911e-05 0)
(0.217514 -4.42005e-05 0)
(0.21753 -6.57995e-06 0)
(0.21749 2.04076e-05 0)
(0.217459 -2.43924e-05 0)
(0.217555 -0.000119088 0)
(0.217757 -0.000128054 0)
(0.217892 -2.25789e-05 0)
(0.217853 9.33351e-05 0)
(0.217688 0.000143992 0)
(0.2175 0.000135568 0)
(0.217346 0.000105112 0)
(0.217238 7.74812e-05 0)
(0.21716 5.97261e-05 0)
(0.217096 2.87321e-05 0)
(0.153835 -0.181415 0)
(-0.463688 0.16121 0)
(-0.137525 -0.125817 0)
(0.288672 -0.0199387 0)
(0.348327 0.0822795 0)
(0.270749 0.0327751 0)
(0.238338 -0.0296069 0)
(0.234954 -0.0390651 0)
(0.295314 -0.0188239 0)
(0.268618 0.105263 0)
(0.193193 0.0767959 0)
(0.162828 -0.0344605 0)
(0.184181 -0.0660086 0)
(0.186545 -0.025888 0)
(0.231426 -0.0633199 0)
(0.249143 0.0543179 0)
(0.19395 0.0346211 0)
(0.19707 -0.0124093 0)
(0.227923 -0.0307102 0)
(0.254462 -0.0218599 0)
(0.266639 -0.00692802 0)
(0.269112 -0.00091603 0)
(0.269135 0.00102381 0)
(0.268469 0.00146846 0)
(0.267588 0.00108076 0)
(0.267086 0.000288786 0)
(0.267193 -0.000347733 0)
(0.267646 -0.000507038 0)
(0.267962 -0.000282908 0)
(0.268119 -0.000247669 0)
(0.268233 -0.0001421 0)
(0.268271 -6.18891e-05 0)
(0.268266 -4.72221e-06 0)
(0.268208 4.59878e-05 0)
(0.268127 -2.05436e-05 0)
(0.26817 -0.00018602 0)
(0.268364 -0.000220509 0)
(0.268533 -5.70565e-05 0)
(0.268534 0.00013561 0)
(0.268401 0.000224975 0)
(0.268238 0.000214334 0)
(0.268108 0.000164195 0)
(0.268025 0.000117725 0)
(0.267971 8.95726e-05 0)
(0.267935 4.32442e-05 0)
(0.476384 0.081284 0)
(0.455458 0.101409 0)
(0.749547 -0.161767 0)
(0.707965 -0.0616312 0)
(0.53526 0.115227 0)
(0.393349 0.0617122 0)
(0.320838 -0.00682894 0)
(0.263549 -0.043113 0)
(0.322202 -0.0555996 0)
(0.380759 0.128506 0)
(0.364173 0.112976 0)
(0.282593 -0.0307573 0)
(0.243166 -0.0701358 0)
(0.167089 -0.0144371 0)
(0.18245 -0.102796 0)
(0.261829 0.0786253 0)
(0.216854 0.0417681 0)
(0.237859 -0.0220729 0)
(0.270002 -0.045093 0)
(0.290243 -0.0310408 0)
(0.29832 -0.00914679 0)
(0.299335 -0.00169499 0)
(0.299174 0.00109635 0)
(0.298823 0.00176067 0)
(0.298391 0.00137263 0)
(0.298149 0.000379284 0)
(0.298299 -0.000481094 0)
(0.29869 -0.000706698 0)
(0.298909 -0.000341217 0)
(0.298959 -0.000327255 0)
(0.298977 -0.000153563 0)
(0.298921 -5.96113e-05 0)
(0.298858 2.15812e-06 0)
(0.298776 8.6445e-05 0)
(0.298657 1.90788e-05 0)
(0.298629 -0.000225632 0)
(0.298755 -0.00031183 0)
(0.298901 -0.000108403 0)
(0.298935 0.000154547 0)
(0.298875 0.000282499 0)
(0.298797 0.000271796 0)
(0.298747 0.000204085 0)
(0.298732 0.000140331 0)
(0.298739 0.000103626 0)
(0.298773 4.70563e-05 0)
(0.607272 0.0689321 0)
(0.62267 -0.0685667 0)
(0.664485 -0.13256 0)
(0.639181 -0.0238177 0)
(0.583228 0.162998 0)
(0.456714 0.0847882 0)
(0.376844 0.022479 0)
(0.26501 -0.0363162 0)
(0.291208 -0.079025 0)
(0.480512 0.0999498 0)
(0.570431 0.135095 0)
(0.397026 -0.00378852 0)
(0.272526 -0.0409728 0)
(0.106131 0.0105162 0)
(0.0734305 -0.12609 0)
(0.228171 0.0754576 0)
(0.227691 0.0354435 0)
(0.269921 -0.030876 0)
(0.296298 -0.0507157 0)
(0.303687 -0.0331917 0)
(0.306336 -0.00954317 0)
(0.306843 -0.00176332 0)
(0.305678 0.00125848 0)
(0.30522 0.00181335 0)
(0.305124 0.00138488 0)
(0.305158 0.000345911 0)
(0.305342 -0.000552819 0)
(0.305565 -0.000770805 0)
(0.305657 -0.000346606 0)
(0.305604 -0.000317062 0)
(0.305492 -0.000122901 0)
(0.305355 -2.53211e-05 0)
(0.305219 3.1534e-05 0)
(0.305097 0.000117028 0)
(0.304993 4.32174e-05 0)
(0.30496 -0.000230099 0)
(0.305008 -0.000335073 0)
(0.305067 -0.00012406 0)
(0.305093 0.000152735 0)
(0.305099 0.000285451 0)
(0.305113 0.000270622 0)
(0.305151 0.000195852 0)
(0.305211 0.000126065 0)
(0.305287 8.31671e-05 0)
(0.3054 3.30538e-05 0)
(0.743625 -0.0150665 0)
(0.244843 -0.0631166 0)
(0.213546 -0.124644 0)
(0.531055 -0.0398603 0)
(0.58679 0.172904 0)
(0.478302 0.0923492 0)
(0.398486 0.034122 0)
(0.275162 -0.0317721 0)
(0.282746 -0.0874389 0)
(0.427557 0.0827662 0)
(0.544542 0.139925 0)
(0.412671 0.0103005 0)
(0.283222 -0.0259869 0)
(0.0737173 0.0222893 0)
(0.0171241 -0.133288 0)
(0.201334 0.0674695 0)
(0.233702 0.0316838 0)
(0.28188 -0.0344156 0)
(0.304696 -0.0522087 0)
(0.307708 -0.0335351 0)
(0.30838 -0.00965388 0)
(0.308413 -0.00170574 0)
(0.306969 0.00133702 0)
(0.306556 0.0018304 0)
(0.30659 0.00138013 0)
(0.306745 0.000329698 0)
(0.306942 -0.000573051 0)
(0.307085 -0.000784341 0)
(0.307114 -0.000346147 0)
(0.307032 -0.000306779 0)
(0.306878 -0.000108436 0)
(0.306705 -9.5811e-06 0)
(0.306535 4.58254e-05 0)
(0.306392 0.000128863 0)
(0.306299 5.01393e-05 0)
(0.306272 -0.000230421 0)
(0.306286 -0.000339065 0)
(0.306305 -0.000127196 0)
(0.306325 0.000150816 0)
(0.306356 0.000282947 0)
(0.306408 0.000266169 0)
(0.306481 0.000189261 0)
(0.306572 0.000117727 0)
(0.306676 7.20426e-05 0)
(0.306823 2.6293e-05 0)
(1.03913 -0.071367 0)
(-0.0999396 0.0326413 0)
(-0.225471 -0.158593 0)
(0.42227 -0.0778464 0)
(0.580765 0.175468 0)
(0.517801 0.0967249 0)
(0.438324 0.0490455 0)
(0.286427 -0.026768 0)
(0.280679 -0.0924586 0)
(0.376653 0.0696401 0)
(0.499704 0.138942 0)
(0.412919 0.0234996 0)
(0.293059 -0.00871197 0)
(0.02569 0.0391928 0)
(-0.0527593 -0.141289 0)
(0.155308 0.0551238 0)
(0.242985 0.0258989 0)
(0.296877 -0.0378622 0)
(0.312221 -0.0531555 0)
(0.310639 -0.0335177 0)
(0.309415 -0.00964123 0)
(0.309023 -0.00158694 0)
(0.307423 0.00143895 0)
(0.306963 0.00185444 0)
(0.307081 0.00136789 0)
(0.307372 0.000309265 0)
(0.30759 -0.000588076 0)
(0.307647 -0.000788919 0)
(0.30761 -0.000340438 0)
(0.307489 -0.000292497 0)
(0.307293 -8.97968e-05 0)
(0.307098 9.20409e-06 0)
(0.306905 6.27522e-05 0)
(0.306756 0.000140818 0)
(0.306681 5.60345e-05 0)
(0.306645 -0.000228081 0)
(0.306598 -0.000337602 0)
(0.306557 -0.00012722 0)
(0.306564 0.000147872 0)
(0.306622 0.00027689 0)
(0.306716 0.000257595 0)
(0.30683 0.000178947 0)
(0.306953 0.000106203 0)
(0.307084 5.78666e-05 0)
(0.307258 1.74141e-05 0)
(0.129252 -0.0949547 0)
(0.336488 0.0949559 0)
(0.333935 -0.176846 0)
(0.49976 -0.112103 0)
(0.562235 0.1763 0)
(0.510425 0.097945 0)
(0.447643 0.0644463 0)
(0.314412 -0.0208362 0)
(0.282988 -0.0942612 0)
(0.341479 0.0596042 0)
(0.460867 0.134912 0)
(0.407634 0.0339378 0)
(0.304132 0.00883194 0)
(0.0418155 0.0592316 0)
(-0.0366563 -0.148141 0)
(0.116228 0.0395011 0)
(0.260078 0.0177788 0)
(0.311192 -0.0410139 0)
(0.318491 -0.0535658 0)
(0.312443 -0.0332188 0)
(0.30936 -0.00953699 0)
(0.308522 -0.0014693 0)
(0.306944 0.00152602 0)
(0.306561 0.00186506 0)
(0.306758 0.00133876 0)
(0.307098 0.000281117 0)
(0.307261 -0.000598902 0)
(0.307195 -0.000785453 0)
(0.30709 -0.000330235 0)
(0.306966 -0.000277679 0)
(0.306776 -6.99654e-05 0)
(0.306605 2.76841e-05 0)
(0.306439 7.89954e-05 0)
(0.306319 0.000150531 0)
(0.306287 5.98722e-05 0)
(0.30627 -0.000223592 0)
(0.306196 -0.000331179 0)
(0.30612 -0.000124264 0)
(0.306119 0.000144384 0)
(0.306191 0.000268344 0)
(0.306299 0.000246423 0)
(0.306418 0.000166745 0)
(0.306538 9.3541e-05 0)
(0.306658 4.31519e-05 0)
(0.30681 8.47698e-06 0)
(0.248503 -0.144579 0)
(0.625991 0.0552344 0)
(0.543048 -0.157115 0)
(0.509729 -0.121507 0)
(0.532114 0.1774 0)
(0.49351 0.100137 0)
(0.439594 0.0758134 0)
(0.330936 -0.0142222 0)
(0.286464 -0.0933542 0)
(0.319468 0.0515635 0)
(0.431131 0.129848 0)
(0.40203 0.0418783 0)
(0.314977 0.0242791 0)
(0.107346 0.0759305 0)
(0.0645459 -0.149802 0)
(0.130116 0.0238517 0)
(0.275336 0.00904564 0)
(0.322395 -0.0437738 0)
(0.3233 -0.0534612 0)
(0.313095 -0.0326104 0)
(0.308205 -0.00930629 0)
(0.306916 -0.00130751 0)
(0.305424 0.00161675 0)
(0.305136 0.00187841 0)
(0.305425 0.00131001 0)
(0.305802 0.000257752 0)
(0.305918 -0.000598782 0)
(0.305756 -0.000771632 0)
(0.305599 -0.000317031 0)
(0.305467 -0.000262651 0)
(0.305281 -5.19035e-05 0)
(0.305134 4.32163e-05 0)
(0.304995 9.22291e-05 0)
(0.304906 0.000156554 0)
(0.304908 6.06294e-05 0)
(0.304903 -0.000218553 0)
(0.304805 -0.000321805 0)
(0.304702 -0.000119544 0)
(0.304696 0.000140484 0)
(0.30478 0.000258479 0)
(0.304903 0.000234391 0)
(0.305027 0.000154656 0)
(0.305143 8.18729e-05 0)
(0.30525 3.03178e-05 0)
(0.305377 1.40905e-06 0)
(0.209216 -0.0110642 0)
(0.181534 -0.0283311 -2.9679e-31)
(0.15023 -0.0270839 -8.92692e-31)
(0.0866414 -0.010717 -7.94855e-30)
(0.1628 -0.00792154 0)
(0.373928 -0.0175685 0)
(0.39487 -0.0441481 0)
(0.361656 -0.0467789 0)
(0.299505 -0.0571764 -6.24846e-30)
(0.530681 -0.012224 0)
(0.414828 -0.0378837 0)
(0.466511 -0.0487638 0)
(0.432936 -0.0440005 0)
(0.39838 -0.0817121 -1.9454e-30)
(0.508165 -0.040128 0)
(0.377494 -0.0515671 0)
(0.406131 -0.0394068 0)
(0.355678 -0.0255234 0)
(0.334527 -0.0619888 -5.38309e-31)
(0.165454 -0.0376528 0)
(0.215854 -0.0243545 0)
(0.196557 -0.0100476 0)
(0.149948 -0.00363895 0)
(0.144637 -0.0125613 -2.47198e-31)
(-0.0769273 -0.0120761 0)
(-0.261097 -0.149349 0)
(0.0606104 -0.0668065 0)
(0.383908 -0.145794 0)
(0.324743 -0.102965 0)
(0.350949 0.181061 0)
(0.377851 0.116573 0)
(0.365508 0.0901478 0)
(0.348713 -0.000530454 0)
(0.290441 -0.0820839 0)
(0.282501 0.0341094 0)
(0.370632 0.112695 0)
(0.386309 0.0579162 0)
(0.344102 0.0546634 0)
(0.290026 0.100323 0)
(0.261491 -0.127169 0)
(0.194315 -0.010752 0)
(0.304268 -0.0135581 0)
(0.344179 -0.049876 0)
(0.330183 -0.0516417 0)
(0.310555 -0.0300029 0)
(0.301717 -0.00842779 0)
(0.299456 -0.000723483 0)
(0.298375 0.00183917 0)
(0.298414 0.00190799 0)
(0.298975 0.0012224 0)
(0.299438 0.00020124 0)
(0.299432 -0.000571948 0)
(0.299064 -0.000706805 0)
(0.298802 -0.000281445 0)
(0.298649 -0.000211588 0)
(0.298485 -1.24106e-05 0)
(0.298398 7.7358e-05 0)
(0.298333 0.00012056 0)
(0.298328 0.000162762 0)
(0.298404 5.40687e-05 0)
(0.298406 -0.000202388 0)
(0.298254 -0.000287733 0)
(0.2981 -0.000102193 0)
(0.298086 0.000128269 0)
(0.298197 0.000227361 0)
(0.298349 0.000198445 0)
(0.298484 0.000121219 0)
(0.298588 5.22711e-05 0)
(0.298661 1.4473e-06 0)
(0.298728 -1.44414e-05 0)
(-0.00551706 0.0521245 0)
(-0.340167 -0.300537 0)
(-0.0289767 -0.222527 0)
(0.0297558 -0.0844901 0)
(0.140975 0.113468 0)
(0.250009 0.100995 0)
(0.297141 0.0716726 0)
(0.308831 0.00391962 0)
(0.259469 -0.0501985 0)
(0.23865 0.0210379 0)
(0.300391 0.0796037 0)
(0.344095 0.0595606 0)
(0.349469 0.0567369 0)
(0.392802 0.0724877 0)
(0.378358 -0.0737365 0)
(0.315745 -0.0210105 0)
(0.347194 -0.0270874 0)
(0.344561 -0.0468631 0)
(0.309431 -0.040481 0)
(0.281037 -0.0212611 0)
(0.269186 -0.0054703 0)
(0.266541 0.000299608 0)
(0.266498 0.00179618 0)
(0.267356 0.00161469 0)
(0.268277 0.000905699 0)
(0.268736 9.40745e-05 0)
(0.268591 -0.000441552 0)
(0.268117 -0.00050023 0)
(0.267793 -0.000206733 0)
(0.267641 -0.00011588 0)
(0.267543 1.43946e-05 0)
(0.267531 8.83591e-05 0)
(0.267563 0.000117773 0)
(0.267646 0.000123377 0)
(0.267741 1.93589e-05 0)
(0.267701 -0.000157974 0)
(0.267511 -0.000198341 0)
(0.267351 -5.77375e-05 0)
(0.267357 0.000100607 0)
(0.267489 0.000159543 0)
(0.267647 0.000129717 0)
(0.267766 7.03752e-05 0)
(0.267837 2.04994e-05 0)
(0.267869 -1.45325e-05 0)
(0.267877 -1.99305e-05 0)
(0.422673 0.269618 0)
(0.361401 -0.161409 0)
(0.093046 -0.248487 0)
(-0.0547937 -0.106634 0)
(0.0505216 0.0456202 0)
(0.146702 0.0626061 0)
(0.212119 0.048212 0)
(0.234582 0.00544545 0)
(0.197318 -0.0273944 0)
(0.179728 0.0134461 0)
(0.226919 0.0506854 0)
(0.280503 0.0450788 0)
(0.31543 0.0408795 0)
(0.376451 0.0426433 0)
(0.37771 -0.0440561 0)
(0.336201 -0.020586 0)
(0.326584 -0.0227988 0)
(0.296512 -0.0313714 0)
(0.253972 -0.0238968 0)
(0.226171 -0.0112825 0)
(0.215702 -0.00231036 0)
(0.214068 0.000751667 0)
(0.215004 0.00137239 0)
(0.216398 0.00109975 0)
(0.217447 0.000561342 0)
(0.217836 3.67783e-05 0)
(0.217628 -0.000279122 0)
(0.217173 -0.000298045 0)
(0.216875 -0.000119951 0)
(0.216751 -5.6958e-05 0)
(0.216707 1.93881e-05 0)
(0.216745 6.69656e-05 0)
(0.216831 8.163e-05 0)
(0.216944 7.57338e-05 0)
(0.217016 5.69037e-06 0)
(0.216942 -9.75711e-05 0)
(0.216758 -0.00011319 0)
(0.216633 -2.61598e-05 0)
(0.216662 6.42544e-05 0)
(0.21679 9.27153e-05 0)
(0.216924 7.05791e-05 0)
(0.217013 3.39831e-05 0)
(0.217053 4.78364e-06 0)
(0.217058 -1.48518e-05 0)
(0.217036 -1.55481e-05 0)
(0.42948 0.217219 0)
(0.628657 -0.0355973 0)
(0.257026 -0.109242 0)
(-0.091921 -0.0604437 0)
(-0.0204191 0.0155217 0)
(0.0483853 0.0294556 0)
(0.115627 0.0248502 0)
(0.141832 0.00442126 0)
(0.116671 -0.0115234 0)
(0.105996 0.00717689 0)
(0.144219 0.025246 0)
(0.196175 0.0232484 0)
(0.239545 0.0194202 0)
(0.292759 0.0184006 0)
(0.294982 -0.0244461 0)
(0.259645 -0.0131826 0)
(0.234988 -0.011124 0)
(0.201424 -0.0129766 0)
(0.167915 -0.00872951 0)
(0.14904 -0.00361164 0)
(0.142908 -0.000324642 0)
(0.142765 0.000650227 0)
(0.144187 0.000736049 0)
(0.145616 0.00052929 0)
(0.146532 0.000252821 0)
(0.146818 1.18629e-05 0)
(0.146623 -0.000126664 0)
(0.146267 -0.00013104 0)
(0.146043 -4.82982e-05 0)
(0.145958 -2.28742e-05 0)
(0.145942 1.0638e-05 0)
(0.145993 3.18645e-05 0)
(0.146083 3.72791e-05 0)
(0.146183 3.5356e-05 0)
(0.146231 5.33022e-06 0)
(0.146162 -4.02288e-05 0)
(0.146023 -4.72235e-05 0)
(0.145942 -9.76608e-06 0)
(0.145975 2.79405e-05 0)
(0.146074 3.84461e-05 0)
(0.146168 2.79513e-05 0)
(0.146224 1.20916e-05 0)
(0.146243 -1.38956e-07 0)
(0.146236 -7.86432e-06 0)
(0.146207 -7.07336e-06 0)
(0.0827695 0.0163517 0)
(0.220259 -0.040878 0)
(0.0723172 -3.8825e-05 0)
(-0.0318468 -0.0099412 0)
(-0.045351 9.5741e-05 0)
(-0.0156235 0.00432428 0)
(0.0245519 0.00459648 0)
(0.0437649 0.00147071 0)
(0.0336047 -0.00232354 0)
(0.0285484 0.00127781 0)
(0.0509323 0.00494998 0)
(0.0825915 0.00386944 0)
(0.108285 0.00245465 0)
(0.136147 0.00295747 0)
(0.130344 -0.00777486 0)
(0.10239 -0.00229508 0)
(0.0873496 -0.00066657 0)
(0.0732002 -0.00106325 0)
(0.0606915 -0.000670354 0)
(0.0542453 -0.000219742 0)
(0.0526283 0.000117229 0)
(0.0532265 0.000157804 0)
(0.0542244 0.000126829 0)
(0.0550433 8.18344e-05 0)
(0.0555295 3.77938e-05 0)
(0.055681 2.04478e-06 0)
(0.055591 -2.00322e-05 0)
(0.0554181 -2.13518e-05 0)
(0.0553101 -5.12217e-06 0)
(0.0552698 -4.48257e-06 0)
(0.0552615 1.42359e-06 0)
(0.0552866 4.30224e-06 0)
(0.0553299 4.61488e-06 0)
(0.0553801 6.42073e-06 0)
(0.0554113 3.59836e-06 0)
(0.0553884 -4.4983e-06 0)
(0.0553282 -7.28376e-06 0)
(0.0552898 -2.09907e-06 0)
(0.0553024 3.58008e-06 0)
(0.0553454 5.24672e-06 0)
(0.0553867 3.78148e-06 0)
(0.0554106 1.49708e-06 0)
(0.0554172 -2.1151e-07 0)
(0.0554123 -1.16048e-06 0)
(0.0553996 -8.54061e-07 0)
)
;

boundaryField
{
    AirInlet
    {
        type            fixedValue;
        value           uniform (0.08 0 0);
    }
    WaterInlet
    {
        type            fixedValue;
        value           uniform (0.4 0 0);
    }
    ChannelWall
    {
        type            fixedValue;
        value           uniform (0 0 0);
    }
    Outlet
    {
        type            pressureInletOutletVelocity;
        value           nonuniform List<vector> 
15
(
(0.0554296 1.21902e-06 0)
(0.14626 1.20628e-05 0)
(0.217096 2.87321e-05 0)
(0.267935 4.32442e-05 0)
(0.298773 4.70563e-05 0)
(0.3054 3.30538e-05 0)
(0.306823 2.6293e-05 0)
(0.307258 1.74141e-05 0)
(0.30681 8.47698e-06 0)
(0.305377 1.40905e-06 0)
(0.298728 -1.44414e-05 0)
(0.267877 -1.99305e-05 0)
(0.217036 -1.55481e-05 0)
(0.146207 -7.07336e-06 0)
(0.0553996 -8.54061e-07 0)
)
;
    }
    FrontAndBack
    {
        type            empty;
    }
}


// ************************************************************************* //
