/*--------------------------------*- C++ -*----------------------------------*\
| =========                 |                                                 |
| \\      /  F ield         | OpenFOAM: The Open Source CFD Toolbox           |
|  \\    /   O peration     | Version:  2.3.0                                 |
|   \\  /    A nd           | Web:      www.OpenFOAM.org                      |
|    \\/     M anipulation  |                                                 |
\*---------------------------------------------------------------------------*/
FoamFile
{
    version     2.0;
    format      ascii;
    class       volScalarField;
    location    "2.65";
    object      alpha.water;
}
// * * * * * * * * * * * * * * * * * * * * * * * * * * * * * * * * * * * * * //

dimensions      [0 0 0 0 0 0 0];

internalField   nonuniform List<scalar> 
2268
(
1
0.999999
1
1
1
0.999999
0.999999
0.999999
0.999999
1
1
0.999998
0.999998
0.999998
0.999998
0.999991
0.996283
0.983686
0.985118
0.9986
0.9986
0.995804
0.995208
0.999999
1
1
1
1
0.999997
0.999997
1
0.999999
0.999998
0.999998
0.999996
0.999995
0.999998
0.999996
0.999646
0.987046
0.980395
0.980395
0.990091
0.997587
0.999302
0.998543
1
1
1
1
1
0.999998
0.999999
1
0.999998
0.999997
0.999997
0.999999
0.999999
0.999999
0.999998
0.999673
0.988208
0.980395
0.980414
0.980433
0.983067
0.999654
0.999991
1
1
1
1
0.999999
0.999999
1
0.999999
0.999998
0.999998
0.999999
1
0.999999
1
0.999999
0.999995
0.998545
0.987254
0.980448
0.983945
0.995291
0.99928
0.999992
1
1
1
1
1
1
1
1
0.999999
0.999999
1
1
1
1
1
0.999999
0.999829
0.999202
0.998974
0.999999
0.999998
0.999997
0.999992
1
1
1
0.999999
1
1
1
1
0.999999
0.999999
1
1
1
1
0.999999
0.999997
1
1
1
1
0.999999
0.999997
0.999992
1
0.999999
0.999999
0.999999
1
1
1
0.999999
0.999999
0.999999
0.999999
1
1
1
1
1
1
1
1
0.999999
0.999996
0.999994
0.999992
1
0.999999
0.999999
0.999999
1
1
0.999999
0.999999
0.999999
1
1
1
1
1
1
1
1
0.999999
0.999996
0.999989
0.999978
0.999971
0.999977
0.946519
0.946693
0.966049
0.978917
0.976824
0.978686
0.97928
0.946579
0.929783
0.929783
0.981998
0.99394
0.993866
0.993545
0.969065
0.969065
0.975239
0.978001
0.972731
0.946519
0.990127
0.997742
0.997635
0.997499
0.997477
0.997455
0.997439
0.941499
0.956752
0.99394
0.99394
0.99394
0.978238
0.982743
0.992007
0.994058
0.994051
0.988685
0.949007
0.996508
0.997796
0.99773
0.99747
0.997457
0.997437
0.997428
0.989879
0.931414
0.989753
0.99394
0.954958
0.901504
0.925286
0.981373
0.994049
0.994032
0.994022
0.949099
0.991901
0.99804
0.996741
0.996566
0.997403
0.997428
0.997428
0.987584
0.929606
0.943012
0.943287
0.900376
0.900311
0.899742
0.956914
0.994032
0.994021
0.993957
0.949262
0.990737
0.998223
0.998224
0.997993
0.991996
0.997167
0.997426
0.942946
0.929606
0.929605
0.937905
0.900311
0.900129
0.899998
0.951518
0.99356
0.993979
0.993523
0.956655
0.994772
0.998224
0.998225
0.998225
0.990274
0.989877
0.997418
0.958701
0.929603
0.929699
0.986283
0.899964
0.900007
0.899888
0.949294
0.993991
0.993991
0.993593
0.997412
0.99733
0.998213
0.998224
0.998225
0.997548
0.9629
0.99524
0.99517
0.937812
0.984303
0.994953
0.958184
0.899888
0.899867
0.963315
0.99398
0.993991
0.993986
0.997902
0.998068
0.998205
0.998213
0.99822
0.997985
0.906697
0.99517
0.995021
0.995094
0.995025
0.994927
0.994927
0.955867
0.945226
0.988605
0.992796
0.99398
0.993981
1
1
1
1
1
1
1
1
1
1
1
1
1
1
1
0.999999
0.999995
0.999981
0.999942
0.999872
0.999797
0.999708
0.9969
0.998125
0.996308
0.993846
0.994195
0.998072
1
1
1
1
1
1
1
1
0.999999
0.999984
0.999956
0.999865
0.996454
0.972711
0.919484
0.858851
0.826251
0.825614
0.446148
0.41089
0.405856
0.42042
0.443141
0.477609
0.517329
0.565782
0.617697
0.661019
0.699911
0.728517
0.740605
0.74094
0.730727
0.699893
0.630173
0.520028
0.384874
0.265132
0.188822
0.149803
0.131408
0.0107856
0.0103021
0.00667037
0.00515662
0.00699233
0.0118249
0.0208144
0.0262439
0.0264219
0.0353436
0.0459396
0.0572899
0.0701298
0.0774319
0.072573
0.0457965
0.0168748
0.00307084
0.00307084
0.00306969
0.00307084
0.00308962
0.00324127
0.00663575
0.010092
0.00498354
0.00381933
0.00429972
0.00597266
0.0142944
0.0177952
0.0144606
0.0140289
0.0138596
0.014023
0.014402
0.0122147
0.00616961
0.00307454
0.0030715
0.00307084
0.00306998
0.00307084
0.00365328
0.0107586
0.0118978
0.00649933
0.00822977
0.00497028
0.00370758
0.00370552
0.00702654
0.0103966
0.0210831
0.021082
0.0210906
0.021082
0.0210529
0.0209682
0.0106646
0.00315923
0.00307854
0.00307461
0.0030717
0.00307469
0.00320923
0.0126391
0.0139054
0.013933
0.00322262
0.00237716
0.00321916
0.00372908
0.00344753
0.00186786
0.00330604
0.0171331
0.0210898
0.0210009
0.0198309
0.0209609
0.0158801
0.0042486
0.0033028
0.00613977
0.00849879
0.00393091
0.00311263
0.00394743
0.0132905
0.0139107
0.00737802
0.00022163
9.95051e-05
0.000874535
0.00155094
0.000862053
0.000467844
0.0023379
0.00418305
0.00201759
6.91746e-05
6.83562e-05
0.000102451
0.00465832
0.00919585
0.00927506
0.00928234
0.00928149
0.00928201
0.00332562
0.00129272
0.00274814
0.00124279
5.00516e-07
7.07486e-05
3.04817e-05
3.69669e-05
7.34382e-05
0.000189723
0.000393434
0.00191914
0.0010427
6.91738e-05
6.83784e-05
6.79033e-05
6.67546e-05
6.6054e-05
8.07752e-05
0.00139437
0.00575363
0.00676269
0.00213602
0.000334521
2.04601e-06
9.6818e-07
5.14964e-07
5.01287e-07
2.87493e-05
1.09185e-05
1.03475e-05
2.1423e-05
0.000165329
0.00145584
0.00180931
0.00169564
0.000630364
9.7788e-05
7.32902e-05
6.61796e-05
6.61301e-05
6.61664e-05
7.34699e-05
2.19192e-05
5.21008e-06
1.76184e-06
6.69149e-07
1.77582e-05
3.30945e-05
1.08437e-05
5.14965e-07
1.02079e-05
3.80651e-06
3.21124e-06
7.07239e-06
0.000159662
0.00156938
0.00171967
0.00170035
0.00168321
0.00154915
0.00067831
0.000130944
6.61796e-05
0.00016485
0.000563217
0.000569612
0.000295375
4.92902e-05
3.5456e-07
9.66731e-07
3.82494e-05
6.83415e-05
4.65822e-06
3.4666e-06
1.38706e-06
9.7733e-07
4.01023e-06
0.000102268
0.000587678
0.000650352
0.00037676
0.000225371
0.000532231
0.000930008
0.000930008
0.000264658
0.000137039
0.000572272
0.000565056
0.000556363
0.000350518
6.52544e-08
1.96336e-06
5.84996e-05
6.98252e-05
6.00196e-05
1.10818e-06
4.95327e-07
2.64733e-07
7.3036e-07
2.68991e-05
4.18456e-06
1.22583e-06
1.53474e-08
3.4766e-09
2.23213e-10
1.02204e-05
5.82428e-05
9.23611e-05
6.25108e-05
0.000132202
0.000355141
0.000242841
2.33864e-10
1.09032e-09
1.41397e-08
1.91137e-05
6.98252e-05
6.8503e-05
3.29219e-07
1.63946e-07
7.05219e-08
7.98927e-08
3.41675e-07
5.83149e-07
1.04322e-07
3.48068e-09
3.68539e-10
1.68248e-10
1.63716e-10
1.61005e-10
1.60746e-10
1.60746e-10
1.60746e-10
1.60746e-10
1.61313e-10
1.70633e-10
2.1067e-10
-1.03095e-09
2.90303e-09
5.5453e-06
6.69772e-05
9.38441e-08
5.25027e-08
2.15044e-08
2.00809e-08
7.62686e-08
9.98736e-08
6.26294e-08
1.26555e-08
3.75949e-09
1.60242e-09
5.15242e-10
4.12912e-10
1.77469e-10
1.61242e-10
1.60807e-10
1.62073e-10
2.78119e-10
6.3642e-10
2.33713e-10
1.04781e-10
1.65824e-10
2.93914e-09
1.57158e-06
2.98504e-08
1.75278e-08
7.93408e-09
5.97123e-09
1.69341e-08
1.62663e-08
1.28931e-08
6.24942e-09
2.29907e-09
1.1109e-09
6.07506e-10
4.42934e-10
2.71671e-10
1.9285e-10
1.66309e-10
1.91442e-10
4.3704e-10
9.6959e-10
5.68859e-10
1.00182e-10
9.39666e-11
1.49147e-08
7.01861e-08
1.24152e-08
8.19642e-09
3.93429e-09
2.54465e-09
3.88078e-09
3.80097e-09
3.13837e-09
2.22221e-09
1.446e-09
8.85992e-10
5.81544e-10
4.17101e-10
2.85141e-10
2.26106e-10
1.77982e-10
1.53421e-10
1.43674e-10
1.46789e-10
1.2266e-10
9.89796e-11
6.90066e-11
5.81259e-08
3.56336e-07
7.12362e-09
5.20532e-09
2.51762e-09
1.68694e-09
1.89512e-09
1.88856e-09
1.82977e-09
1.61995e-09
1.25395e-09
8.43147e-10
5.63981e-10
4.19476e-10
2.88457e-10
2.33607e-10
1.90386e-10
1.599e-10
1.37296e-10
1.21552e-10
1.11188e-10
9.54918e-11
7.59919e-11
3.2953e-08
1.9075e-07
3.05368e-08
8.46428e-09
1.66994e-09
1.43864e-09
1.54125e-09
1.57079e-09
1.63231e-09
1.56021e-09
1.28581e-09
8.97068e-10
5.88468e-10
4.15668e-10
2.67238e-10
2.26926e-10
1.9192e-10
1.62689e-10
1.37639e-10
1.19411e-10
1.08076e-10
9.31816e-11
8.0493e-11
3.11233e-09
5.02263e-11
5.28281e-08
1.07151e-08
1.438e-09
1.39749e-09
1.47938e-09
1.53195e-09
1.5507e-09
1.48576e-09
1.25629e-09
8.98006e-10
5.99615e-10
4.06104e-10
2.60271e-10
2.24382e-10
1.86953e-10
1.5483e-10
1.29326e-10
1.11182e-10
9.83616e-11
8.28246e-11
1.53961e-10
5.08098e-11
4.90268e-11
5.30827e-08
1.75e-08
1.87299e-09
1.34395e-09
1.39581e-09
1.43601e-09
1.41817e-09
1.34074e-09
1.13735e-09
8.50046e-10
5.89356e-10
3.92745e-10
2.54147e-10
2.18555e-10
1.78186e-10
1.43096e-10
1.15256e-10
9.46049e-11
7.9367e-11
6.37563e-11
2.10164e-10
2.55959e-10
1.36132e-10
5.30833e-08
3.95804e-08
4.9453e-09
1.1765e-09
1.19992e-09
1.26651e-09
1.2638e-09
1.20363e-09
1.04059e-09
7.99201e-10
5.63624e-10
3.72943e-10
2.4499e-10
2.09331e-10
1.67474e-10
1.3079e-10
1.01294e-10
7.87178e-11
6.17538e-11
4.97539e-11
5.44085e-11
6.59197e-11
7.6211e-11
5.30846e-08
2.82061e-08
3.45454e-09
1.11042e-09
1.09896e-09
1.12905e-09
1.14386e-09
1.13557e-09
1.0399e-09
8.09422e-10
5.52572e-10
3.51528e-10
2.33095e-10
1.97702e-10
1.54973e-10
1.17534e-10
8.74574e-11
6.44684e-11
4.73876e-11
3.5499e-11
2.85569e-11
2.43314e-11
2.0541e-11
1.06162e-08
3.11023e-09
1.12887e-09
1.08776e-09
1.08276e-09
1.08307e-09
1.12093e-09
1.10432e-09
1.05369e-09
8.45454e-10
5.66284e-10
3.38315e-10
2.22776e-10
1.86261e-10
1.41998e-10
1.03771e-10
7.38173e-11
5.16592e-11
3.58286e-11
2.49354e-11
1.77315e-11
1.29588e-11
9.57187e-12
1.4387e-09
1.12889e-09
1.08758e-09
1.08234e-09
1.08234e-09
1.08233e-09
1.08481e-09
1.07898e-09
1.03079e-09
8.42409e-10
5.85877e-10
3.57377e-10
2.02554e-10
1.64302e-10
1.22401e-10
8.69596e-11
5.96417e-11
3.99576e-11
2.64009e-11
1.73458e-11
1.14185e-11
7.55854e-12
5.01725e-12
1.13885e-05
1.48912e-05
1.88962e-05
6.69147e-06
1.61816e-07
1.00777e-09
8.99128e-10
8.75951e-10
8.8969e-10
7.83163e-10
5.78437e-10
3.58004e-10
1.79688e-10
1.38896e-10
9.9721e-11
6.83684e-11
4.51363e-11
2.8994e-11
1.83087e-11
1.14458e-11
7.11493e-12
4.40674e-12
2.71987e-12
2.57934e-05
2.62958e-05
2.63193e-05
2.60075e-05
2.84908e-06
3.86114e-09
7.05809e-10
5.2919e-10
6.744e-10
6.26897e-10
4.96664e-10
3.05411e-10
1.43958e-10
1.07446e-10
7.39082e-11
4.8403e-11
3.0501e-11
1.86916e-11
1.12429e-11
6.67678e-12
3.92811e-12
2.29353e-12
1.33032e-12
2.23106e-05
2.63193e-05
2.62958e-05
1.83988e-05
1.34264e-06
2.25242e-09
3.92578e-10
2.87831e-10
4.03975e-10
3.66058e-10
2.84591e-10
1.55233e-10
1.06117e-10
7.28958e-11
4.73237e-11
2.9298e-11
1.74665e-11
1.01329e-11
5.76108e-12
3.22559e-12
1.78395e-12
9.76601e-13
5.30086e-13
2.27414e-06
1.55509e-05
1.09424e-05
1.39143e-06
2.8347e-07
1.11633e-08
2.16471e-10
1.70018e-10
1.60863e-10
1.40639e-10
1.11996e-10
8.85612e-11
6.27077e-11
4.10336e-11
2.52274e-11
1.46881e-11
8.20027e-12
4.45118e-12
2.36264e-12
1.23153e-12
6.32399e-13
3.20743e-13
1.61077e-13
9.31574e-09
1.3828e-07
2.91839e-08
6.81124e-09
1.23239e-09
7.33325e-09
1.57289e-09
1.77047e-10
1.08585e-10
9.11822e-11
6.81006e-11
4.82444e-11
3.17201e-11
1.941e-11
1.11234e-11
6.0043e-12
3.09171e-12
1.5459e-12
7.53942e-13
3.60012e-13
1.68871e-13
7.80572e-14
3.56861e-14
6.3031e-10
3.03704e-09
1.91429e-09
4.74969e-10
1.1926e-10
8.26945e-10
6.86894e-10
2.03508e-10
6.71084e-11
5.02636e-11
3.41721e-11
2.21422e-11
1.34228e-11
7.58288e-12
3.9975e-12
1.96976e-12
9.20546e-13
4.16961e-13
1.83669e-13
7.8933e-14
3.32034e-14
1.37238e-14
5.61815e-15
8.19663e-11
2.51616e-10
1.76366e-10
7.07546e-11
4.37443e-11
4.20477e-11
8.3618e-11
5.79474e-11
3.50294e-11
2.23577e-11
1.40555e-11
8.38683e-12
4.67095e-12
2.41404e-12
1.15557e-12
5.11139e-13
2.13452e-13
8.61286e-14
3.36827e-14
1.27983e-14
4.73985e-15
1.72393e-15
6.45045e-16
3.77757e-11
4.78671e-11
4.05273e-11
3.22259e-11
3.62418e-11
3.56988e-11
2.81461e-11
2.09297e-11
1.31509e-11
8.07522e-12
4.7393e-12
2.60494e-12
1.32504e-12
6.19926e-13
2.65543e-13
1.03426e-13
3.80454e-14
1.34577e-14
4.59581e-15
1.51865e-15
4.8838e-16
1.60457e-16
8.11023e-17
3.54098e-11
2.67581e-11
2.92344e-11
2.91114e-11
1.90881e-11
1.40316e-11
1.01283e-11
6.7271e-12
4.14348e-12
2.41274e-12
1.31452e-12
6.61442e-13
3.04467e-13
1.27291e-13
4.79571e-14
1.60959e-14
5.14287e-15
1.57139e-15
4.61419e-16
1.30852e-16
3.73427e-17
1.68136e-17
3.26737e-17
1.20988e-11
1.89502e-11
1.52399e-11
1.00681e-11
6.55603e-12
4.45408e-12
2.98363e-12
1.87661e-12
1.09903e-12
5.98433e-13
2.99997e-13
1.36944e-13
5.63803e-14
2.07362e-14
6.73029e-15
1.91266e-15
5.20501e-16
1.3526e-16
3.3677e-17
8.26074e-18
2.97703e-18
5.58004e-18
2.26429e-17
3.45379e-12
5.84924e-12
4.49277e-12
2.90265e-12
1.8425e-12
1.18913e-12
7.49866e-13
4.4498e-13
2.44558e-13
1.23283e-13
5.63597e-14
2.3098e-14
8.38911e-15
2.66405e-15
7.26228e-16
1.72129e-16
3.90444e-17
8.47007e-18
1.77529e-18
4.64962e-19
6.71967e-19
2.98315e-18
1.39471e-17
7.95915e-13
1.4333e-12
1.07998e-12
6.92855e-13
4.30394e-13
2.66773e-13
1.59535e-13
8.91477e-14
4.56707e-14
2.11578e-14
8.74629e-15
3.18271e-15
1.0041e-15
2.69369e-16
5.98065e-17
1.16556e-17
2.1583e-18
3.82661e-19
7.16623e-20
5.41978e-20
2.49808e-19
1.32947e-18
6.79868e-18
1.47781e-13
2.85956e-13
2.15382e-13
1.37954e-13
8.43532e-14
5.05295e-14
2.87764e-14
1.51316e-14
7.19778e-15
3.04747e-15
1.13062e-15
3.61371e-16
9.74569e-17
2.15668e-17
3.76499e-18
5.93138e-19
8.79599e-20
1.25765e-20
3.27947e-21
1.14367e-20
7.16398e-20
4.27956e-19
2.42973e-18
2.22042e-14
4.69897e-14
3.5926e-14
2.31306e-14
1.40072e-14
8.15067e-15
4.43472e-15
2.195e-15
9.67619e-16
3.73114e-16
1.23559e-16
3.43899e-17
7.82053e-18
1.39715e-18
1.86211e-19
2.3036e-20
2.66836e-21
3.1185e-22
2.33986e-22
1.68701e-21
1.26019e-20
8.71288e-20
5.66741e-19
2.69732e-15
6.38772e-15
5.0478e-15
3.30104e-15
1.99376e-15
1.13282e-15
5.9085e-16
2.75692e-16
1.1266e-16
3.95433e-17
1.16714e-17
2.8204e-18
5.37859e-19
7.6822e-20
7.7694e-21
7.21499e-22
6.23682e-23
5.79506e-24
1.04823e-23
1.08291e-22
1.03002e-21
8.89087e-21
7.11093e-20
2.59697e-16
7.17685e-16
6.02575e-16
4.06107e-16
2.46595e-16
1.37542e-16
6.9035e-17
3.04588e-17
1.15727e-17
3.71113e-18
9.81224e-19
2.07396e-19
3.35505e-20
3.90306e-21
3.02151e-22
2.03293e-23
1.21702e-24
6.79362e-26
8.81708e-26
1.41549e-24
2.05344e-23
2.65862e-22
3.12703e-21
1.84244e-17
6.6676e-17
6.19512e-17
4.37117e-17
2.68789e-17
1.47899e-17
7.1748e-18
3.00777e-18
1.06927e-18
3.16138e-19
7.59201e-20
1.43488e-20
2.0432e-21
2.0655e-22
1.37549e-23
6.62459e-25
2.23861e-26
4.97431e-28
9.73591e-30
7.38766e-29
2.89982e-27
1.02818e-25
3.35262e-24
0.991307
0.991223
0.993325
0.996007
0.868558
0.872423
0.87616
0.880849
0.131234
0.131439
0.139037
0.147313
0.00354572
0.00376211
0.00382427
0.00383971
0.00678279
0.00430546
0.0038395
0.00383997
0.0137247
0.0125132
0.00707151
0.00488691
0.000384653
4.91801e-07
5.07998e-07
0.00145436
5.00472e-07
4.95908e-07
4.99258e-07
5.10102e-07
5.00517e-07
5.00518e-07
5.09237e-07
5.30542e-07
5.0586e-07
5.24278e-07
5.90744e-07
1.41152e-06
5.28623e-07
6.11034e-07
7.59372e-07
4.09659e-06
6.12315e-07
7.23626e-07
1.47053e-06
1.47542e-05
2.9242e-05
4.98594e-07
1.38654e-07
3.74329e-06
4.87932e-05
3.79478e-07
9.13585e-08
4.40573e-08
4.18985e-05
6.82891e-06
4.46147e-08
3.06155e-08
2.75241e-08
4.77469e-07
1.66615e-06
8.82677e-08
2.6451e-08
2.50961e-08
4.43875e-08
1.89838e-07
1.23241e-07
4.6067e-08
4.2557e-09
1.34229e-09
5.08471e-08
7.08672e-08
2.8504e-08
7.32262e-11
4.44191e-11
4.44126e-11
4.3348e-11
2.80929e-10
8.23586e-11
5.57802e-11
4.3284e-11
3.84195e-11
7.21636e-11
6.18125e-11
4.89704e-11
3.70727e-11
1.8581e-11
1.64817e-11
1.4281e-11
1.20918e-11
8.15622e-12
6.91103e-12
5.79496e-12
4.79492e-12
4.03192e-12
3.23768e-12
2.59162e-12
2.06332e-12
2.09365e-12
1.61118e-12
1.23816e-12
9.48819e-13
9.86199e-13
7.30613e-13
5.40544e-13
3.98974e-13
3.77189e-13
2.68138e-13
1.90363e-13
1.34878e-13
1.09123e-13
7.3858e-14
4.99503e-14
3.37613e-14
2.27474e-14
1.45025e-14
9.26987e-15
5.96931e-15
3.33816e-15
2.00829e-15
1.24973e-15
8.39461e-16
3.80144e-16
2.56527e-16
2.17949e-16
2.37845e-16
7.56837e-17
9.24554e-17
1.29489e-16
1.90471e-16
4.78574e-17
7.25284e-17
1.1055e-16
1.68374e-16
3.52903e-17
5.47658e-17
8.46204e-17
1.30658e-16
2.20149e-17
3.45182e-17
5.40154e-17
8.51801e-17
1.08467e-17
1.72181e-17
2.75411e-17
4.54682e-17
3.92491e-18
6.36653e-18
1.07343e-17
1.98928e-17
9.33884e-19
1.60704e-18
3.15682e-18
7.68784e-18
1.24411e-19
2.65436e-19
7.71278e-19
2.9186e-18
7.48252e-21
3.06793e-20
1.54652e-19
9.53077e-19
4.87143e-23
6.79673e-22
9.34882e-21
1.75525e-19
0.997838
0.997903
0.998069
0.998092
0.998046
0.997745
0.837378
0.780567
0.886504
0.92762
0.949331
0.966049
0.989616
0.988264
0.986172
0.968565
0.968957
0.989434
0.993908
0.885014
0.886121
0.875825
0.863096
0.86625
0.894053
0.802648
0.613356
0.637965
0.665116
0.711153
0.754599
0.780115
0.824465
0.870811
0.901222
0.924453
0.915175
0.905174
0.155951
0.161153
0.160203
0.162566
0.178979
0.27444
0.473694
0.603718
0.612971
0.613434
0.605548
0.580341
0.554995
0.535038
0.517826
0.496481
0.483239
0.509857
0.567735
0.00383997
0.00374484
0.00351128
0.00333577
0.00328083
0.00322147
0.00297512
0.0283551
0.0439927
0.0359423
0.0104205
0.00136411
0.00662488
0.0145657
0.0164083
0.0131214
0.0106241
0.0198192
0.0386786
0.00395759
0.0056084
0.0053747
0.00493325
0.00469618
0.00416232
0.00288864
0.00154419
0.00141586
0.00136327
0.00135742
0.00137723
0.00063312
5.26923e-05
4.66701e-05
3.35625e-05
5.95566e-05
9.81012e-05
0.000203589
0.0086527
0.00865848
0.0086392
0.00862057
0.00862057
0.00862057
0.00860369
0.00841801
0.00592956
0.00367495
0.00210091
0.00142024
8.64617e-05
4.68185e-05
4.23543e-05
2.0443e-05
2.30081e-05
3.09074e-05
0.000152771
0.00320292
0.00454628
0.00444939
0.00448306
0.00423585
0.00359554
0.00164881
1.39431e-05
1.24328e-05
1.23717e-05
1.24328e-05
1.26868e-05
0.00043971
0.000421067
3.72726e-05
1.89852e-05
1.96138e-05
2.30081e-05
0.000209371
5.92184e-07
1.00428e-06
2.40995e-06
4.27855e-06
5.6738e-06
7.25934e-06
1.01692e-05
1.43193e-05
1.23717e-05
1.23712e-05
1.23717e-05
5.41484e-05
0.000260131
0.000139672
1.79913e-05
1.85855e-05
1.89842e-05
0.000125521
0.000229952
1.30095e-05
3.38646e-05
3.37224e-05
2.15527e-05
3.00242e-05
6.00149e-05
9.29322e-05
0.000116557
5.4525e-05
1.23713e-05
1.23712e-05
1.23835e-05
1.44241e-05
1.45167e-05
1.61706e-05
4.68125e-05
0.000157693
0.000184183
0.00018741
3.62433e-05
7.78725e-05
7.99767e-05
8.12718e-05
8.96539e-05
0.000120916
0.000123249
0.000123148
0.000103917
1.23713e-05
1.23831e-05
1.51099e-05
5.76748e-05
0.000126179
0.000143991
0.000163243
0.000163075
0.000131203
2.11985e-05
3.01741e-05
5.23227e-05
1.78428e-05
9.14977e-07
7.17751e-07
5.73584e-07
4.78192e-05
0.000109075
2.60201e-05
1.24375e-05
2.41714e-05
0.000152086
0.000153509
0.000153523
0.000153287
0.000130875
2.71983e-05
1.92205e-05
1.91124e-05
2.40889e-05
4.17114e-06
1.22347e-06
7.18267e-07
5.73759e-07
5.52036e-07
4.27142e-07
6.95502e-07
2.88938e-05
3.90133e-05
3.12839e-05
0.000127173
0.000153522
0.000153289
9.50723e-05
8.2392e-06
1.15658e-05
1.68533e-05
4.44085e-05
1.35812e-05
2.36409e-05
1.89974e-05
1.17987e-05
2.56569e-06
4.05448e-07
1.71218e-07
1.54383e-05
4.92634e-05
4.93318e-05
3.61276e-05
7.28166e-06
4.39954e-05
5.08136e-05
1.10809e-05
4.84857e-06
4.99011e-05
5.99656e-05
5.99656e-05
2.40352e-06
2.42101e-05
2.44973e-05
2.44973e-05
2.2462e-05
3.25113e-07
8.37268e-08
1.57582e-06
1.85938e-05
2.27521e-05
1.18745e-07
1.36217e-07
1.63866e-07
2.37055e-07
5.06274e-08
3.31731e-06
4.47006e-05
5.98799e-05
5.99656e-05
8.02428e-09
1.57147e-06
2.31212e-05
2.44589e-05
2.42647e-05
1.59331e-05
8.37359e-08
8.36808e-08
8.37446e-08
8.50451e-08
1.03821e-07
1.08187e-06
1.28443e-06
4.90442e-07
3.92295e-08
2.15803e-08
4.0529e-08
2.38786e-05
5.98799e-05
6.00577e-09
1.44243e-10
4.11176e-09
1.79046e-05
2.39504e-05
1.77569e-05
8.36843e-08
8.37451e-08
9.74286e-08
1.9353e-07
1.53999e-07
7.84505e-07
1.28411e-06
1.28481e-06
7.61788e-07
7.42791e-10
1.5561e-09
1.64328e-06
3.20509e-05
9.19113e-09
3.20838e-11
3.05762e-11
-2.21733e-10
6.27229e-06
2.53303e-06
1.32549e-07
9.14331e-08
8.47202e-07
1.10486e-06
3.73748e-07
1.76799e-07
1.76537e-07
4.04099e-07
1.23729e-07
6.55155e-10
2.94928e-09
1.22516e-07
1.4412e-07
3.20837e-11
3.12173e-11
2.99868e-11
2.98153e-11
2.9902e-11
3.3882e-11
1.62495e-10
1.65826e-07
1.10486e-06
1.10486e-06
1.10486e-06
4.45894e-07
5.41043e-10
5.40548e-10
5.40092e-10
6.03952e-10
6.56712e-10
2.3297e-07
5.33301e-06
6.69098e-11
5.74256e-11
3.5173e-11
2.98152e-11
3.20881e-11
3.4078e-11
6.07793e-11
5.5825e-08
2.7324e-07
1.10486e-06
1.10478e-06
1.10469e-06
1.10715e-07
5.40392e-10
5.47721e-10
1.13237e-09
7.03821e-10
1.0418e-06
3.40195e-05
9.47375e-11
4.88349e-11
3.60596e-11
2.96763e-11
2.64353e-11
5.52033e-11
6.44503e-10
2.01171e-11
2.79264e-11
3.89538e-07
1.10469e-06
9.39994e-07
1.59308e-07
2.72849e-09
1.15929e-08
3.68155e-09
9.11815e-11
1.19592e-06
3.40195e-05
3.21305e-11
2.77534e-11
2.45491e-11
2.25581e-11
2.11888e-11
2.09334e-11
1.91131e-11
1.98744e-11
2.01634e-11
2.32324e-11
1.3915e-07
5.69957e-08
9.0724e-08
1.10671e-07
1.01853e-07
6.5931e-09
8.29843e-11
7.41455e-07
3.40195e-05
2.24172e-11
1.59844e-11
1.37849e-11
1.33373e-11
1.37664e-11
1.52796e-11
1.81492e-11
2.22061e-11
2.60119e-11
2.52203e-11
2.5342e-11
2.55343e-11
1.26062e-08
1.13565e-07
1.13566e-07
9.62832e-09
6.27398e-11
7.25876e-07
3.4006e-05
8.42738e-12
6.38233e-12
5.72514e-12
6.0272e-12
7.09285e-12
9.08762e-12
1.22792e-11
1.67325e-11
2.14509e-11
2.5186e-11
2.59815e-11
2.60932e-11
2.59403e-11
6.18163e-08
3.2364e-08
2.80018e-09
5.04361e-11
2.40031e-07
3.31329e-05
3.19217e-12
2.25766e-12
1.92092e-12
2.10968e-12
2.86069e-12
4.3735e-12
6.91391e-12
1.05537e-11
1.50683e-11
1.89782e-11
2.23572e-11
2.47901e-11
2.59398e-11
2.59401e-11
2.60141e-11
3.15562e-11
5.0391e-11
4.9976e-11
3.18795e-05
1.28204e-12
8.16496e-13
6.02551e-13
6.21836e-13
9.35959e-13
1.72614e-12
3.25454e-12
5.69496e-12
8.94789e-12
1.26973e-11
1.66553e-11
2.07341e-11
2.47903e-11
2.84286e-11
3.658e-11
5.35846e-11
5.16151e-11
4.9976e-11
3.18364e-05
5.49463e-13
3.17378e-13
1.99317e-13
1.76259e-13
2.76143e-13
6.00617e-13
1.32728e-12
2.64449e-12
4.65774e-12
7.41874e-12
1.10396e-11
1.56629e-11
2.16156e-11
2.967e-11
4.51602e-11
7.1136e-11
6.01756e-11
4.9976e-11
3.09037e-05
2.16182e-13
1.16041e-13
6.60537e-14
5.30179e-14
8.65527e-14
2.13708e-13
5.33219e-13
1.18782e-12
2.33673e-12
4.17832e-12
7.00988e-12
1.12607e-11
1.77196e-11
2.751e-11
4.68467e-11
7.73207e-11
7.48731e-11
5.00934e-11
8.04224e-06
6.8393e-14
3.49717e-14
2.04478e-14
2.0041e-14
3.93235e-14
1.01835e-13
2.61902e-13
6.1565e-13
1.30745e-12
2.55635e-12
4.69824e-12
8.27391e-12
1.42102e-11
2.38985e-11
4.44918e-11
7.96831e-11
7.94579e-11
5.65594e-11
6.76972e-11
1.61465e-14
8.69645e-15
7.66316e-15
1.35702e-14
3.23026e-14
7.98056e-14
1.9153e-13
4.36025e-13
9.32495e-13
1.88182e-12
3.61331e-12
6.66838e-12
1.19596e-11
2.10496e-11
4.23577e-11
8.33713e-11
7.95377e-11
7.39569e-11
7.92193e-09
3.03013e-15
2.91233e-15
6.10056e-15
1.56902e-14
3.88912e-14
9.05454e-14
2.00189e-13
4.24183e-13
8.64758e-13
1.70189e-12
3.24443e-12
6.02361e-12
1.09606e-11
1.96916e-11
4.24566e-11
9.01682e-11
7.96291e-11
8.01353e-11
9.8257e-06
9.42766e-16
2.61578e-15
8.15098e-15
2.27429e-14
5.61386e-14
1.25362e-13
2.60075e-13
5.12838e-13
9.77069e-13
1.81793e-12
3.32642e-12
6.03011e-12
1.08776e-11
1.96379e-11
4.49833e-11
9.84068e-11
7.9758e-11
2.51666e-07
1.7569e-05
8.76461e-16
3.6164e-15
1.26496e-14
3.67006e-14
9.07e-14
1.97357e-13
3.90285e-13
7.21986e-13
1.28062e-12
2.22085e-12
3.82359e-12
6.63259e-12
1.16428e-11
2.08482e-11
5.14747e-11
1.07476e-10
8.00358e-11
1.81243e-06
1.7569e-05
1.07642e-15
5.35254e-15
2.0473e-14
6.19686e-14
1.55525e-13
3.36349e-13
6.47226e-13
1.14151e-12
1.89917e-12
3.06237e-12
4.91085e-12
8.03267e-12
1.34708e-11
2.3541e-11
6.49672e-11
1.21617e-10
8.04451e-11
2.17351e-06
1.75661e-05
1.3209e-15
7.75714e-15
3.22237e-14
1.02723e-13
2.67133e-13
5.88728e-13
1.13101e-12
1.94605e-12
3.08964e-12
4.67602e-12
6.99252e-12
1.07021e-11
1.68544e-11
2.81482e-11
7.76453e-11
1.52136e-10
8.65052e-11
8.65054e-11
1.63567e-05
1.53586e-15
1.03565e-14
4.66093e-14
1.59277e-13
4.40878e-13
1.01845e-12
2.0054e-12
3.44627e-12
5.32603e-12
7.68331e-12
1.08262e-11
1.55483e-11
2.283e-11
3.59037e-11
8.6612e-11
2.18505e-10
8.72509e-11
6.86605e-10
7.03377e-07
1.61944e-15
1.21324e-14
5.97036e-14
2.25131e-13
6.86324e-13
1.71136e-12
3.53812e-12
6.20054e-12
9.50411e-12
1.32871e-11
1.79104e-11
2.45003e-11
3.39709e-11
5.07231e-11
1.24151e-10
1.75591e-10
4.87725e-10
2.28347e-07
8.25246e-10
1.46824e-15
1.20096e-14
6.63538e-14
2.87143e-13
1.00126e-12
2.76298e-12
6.108e-12
1.10975e-11
1.71599e-11
2.36448e-11
3.10228e-11
4.14381e-11
5.63697e-11
8.3155e-11
1.65875e-10
6.18108e-10
8.03386e-10
4.14098e-09
6.36816e-10
1.07687e-15
9.76767e-15
6.32268e-14
3.27282e-13
1.35094e-12
4.18026e-12
9.97787e-12
1.90013e-11
3.00655e-11
4.14881e-11
5.38649e-11
7.19409e-11
1.01e-10
1.57305e-10
3.31634e-10
9.01435e-10
1.08397e-09
6.80805e-10
9.48391e-10
6.00794e-16
6.41132e-15
5.12537e-14
3.2756e-13
1.6419e-12
5.6896e-12
1.47351e-11
2.96612e-11
4.87022e-11
6.84047e-11
8.91771e-11
1.19758e-10
1.76336e-10
3.04903e-10
6.91194e-10
1.02639e-09
9.03473e-10
5.32322e-10
1.52361e-09
2.4134e-16
3.37433e-15
3.51555e-14
2.79711e-13
1.72479e-12
6.61119e-12
1.87493e-11
4.03233e-11
7.01298e-11
1.02608e-10
1.36531e-10
1.83643e-10
2.61571e-10
4.57647e-10
7.61705e-10
7.39458e-10
5.0766e-10
5.10089e-10
7.92031e-10
6.45809e-17
1.35112e-15
1.87038e-14
1.83165e-13
1.41944e-12
5.95289e-12
1.89174e-11
4.39697e-11
8.3476e-11
1.32314e-10
1.82566e-10
2.51482e-10
3.15412e-10
4.00191e-10
1.65164e-09
7.41648e-10
8.71435e-08
4.92051e-08
8.03058e-10
9.27231e-18
3.20505e-16
5.79881e-15
6.71323e-14
6.98199e-13
3.19521e-12
1.17236e-11
2.94037e-11
6.21769e-11
1.12958e-10
1.66336e-10
2.36275e-10
3.07275e-10
3.26919e-10
7.324e-11
9.07741e-08
3.42872e-07
3.42873e-07
1.08004e-07
)
;

boundaryField
{
    leftWall
    {
        type            zeroGradient;
    }
    rightWall
    {
        type            zeroGradient;
    }
    lowerWall
    {
        type            zeroGradient;
    }
    atmosphere
    {
        type            inletOutlet;
        inletValue      uniform 0;
        value           nonuniform List<scalar> 
46
(
1.84244e-17
6.6676e-17
6.19512e-17
4.37117e-17
2.68789e-17
1.47899e-17
7.1748e-18
3.00777e-18
1.06927e-18
3.16138e-19
7.59201e-20
1.43488e-20
2.0432e-21
2.0655e-22
1.37549e-23
6.62459e-25
0
0
0
0
0
0
0
0
0
0
0
0
0
0
0
0
0
0
0
0
0
0
0
0
0
7.324e-11
9.07741e-08
3.42872e-07
3.42873e-07
1.08004e-07
)
;
    }
    defaultFaces
    {
        type            empty;
    }
}


// ************************************************************************* //
