/*--------------------------------*- C++ -*----------------------------------*\
| =========                 |                                                 |
| \\      /  F ield         | OpenFOAM: The Open Source CFD Toolbox           |
|  \\    /   O peration     | Version:  2.3.0                                 |
|   \\  /    A nd           | Web:      www.OpenFOAM.org                      |
|    \\/     M anipulation  |                                                 |
\*---------------------------------------------------------------------------*/
FoamFile
{
    version     2.0;
    format      ascii;
    class       volScalarField;
    location    "2.65";
    object      epsilon;
}
// * * * * * * * * * * * * * * * * * * * * * * * * * * * * * * * * * * * * * //

dimensions      [0 2 -3 0 0 0 0];

internalField   nonuniform List<scalar> 
2268
(
0.00375878
0.0204477
0.0380497
0.0558663
0.0738787
0.0920666
0.110343
0.128501
0.146164
0.162776
0.177689
0.190327
0.20033
0.207851
0.213627
0.216227
0.213185
0.20453
0.193554
0.176119
0.141
0.082661
0.0177077
0.00765619
0.0136556
0.0214046
0.0293943
0.0375307
0.0458223
0.0542526
0.0627395
0.0711062
0.0790746
0.0862938
0.0924061
0.0971356
0.100481
0.102598
0.103347
0.102434
0.0998686
0.0960164
0.0895929
0.0772858
0.0551044
0.0298391
0.0130645
0.0140993
0.01958
0.0256377
0.0319695
0.0385298
0.0452824
0.0521431
0.0589542
0.0654801
0.0714315
0.0765183
0.0805228
0.0834033
0.0852681
0.0861994
0.0862773
0.0856348
0.0842841
0.081359
0.0746974
0.0606415
0.047017
0.0185937
0.0157287
0.0201184
0.0254491
0.0311892
0.0372253
0.0434868
0.0498695
0.0562077
0.0622751
0.0678112
0.0725703
0.0763829
0.0792228
0.0812109
0.0825126
0.0833452
0.0839363
0.0843087
0.0838965
0.0810441
0.0722107
0.0625294
0.0242667
0.0178941
0.0216107
0.0266411
0.0322133
0.038139
0.0443072
0.0505858
0.0567922
0.062699
0.0680656
0.0726848
0.0764334
0.0793183
0.0814864
0.0831495
0.0845871
0.0860977
0.0878414
0.0896713
0.0906525
0.0876365
0.0804696
0.0302703
0.0204825
0.0237482
0.0287105
0.0343418
0.0403716
0.0466423
0.0529898
0.0592094
0.0650692
0.0703468
0.0748738
0.0785744
0.0814961
0.0838147
0.0857686
0.0876612
0.0898381
0.0926446
0.0965117
0.101839
0.107704
0.109377
0.0368664
0.0235259
0.026478
0.031532
0.037378
0.0436511
0.0501409
0.056647
0.0629412
0.0687866
0.0739826
0.0784027
0.0820212
0.0849306
0.0873355
0.0894813
0.0916679
0.0942641
0.0977942
0.103344
0.113421
0.133954
0.179723
0.0443944
0.02713
0.0298436
0.0351133
0.0412978
0.0479168
0.0546983
0.0614047
0.0677844
0.0736
0.078679
0.0829429
0.0864185
0.0892469
0.0916602
0.0938874
0.0962041
0.0989795
0.102855
0.109393
0.123091
0.16118
0.327091
0.0167279
0.0824671
0.134813
0.164474
0.180339
0.18174
0.168293
0.144781
0.114047
0.0880596
0.0807688
0.0767914
0.0597893
0.0515963
0.0565615
0.0601972
0.0565387
0.0373277
0.0102132
0.0223616
0.046575
0.0636115
0.0742323
0.0801775
0.0811844
0.0778457
0.0716177
0.0638708
0.0540039
0.0458624
0.0408333
0.036084
0.0343789
0.0340782
0.0310295
0.0273462
0.0211691
0.0150084
0.0362181
0.0466641
0.0555768
0.0614249
0.0645647
0.0646327
0.0623129
0.0585566
0.0536793
0.0472213
0.040916
0.0363928
0.0331007
0.0317261
0.0307767
0.0282052
0.0257038
0.0227802
0.0234614
0.052802
0.0529248
0.0564898
0.0592762
0.0606101
0.0598305
0.0575345
0.0544758
0.0503956
0.0453735
0.0404309
0.0365388
0.0337012
0.0319353
0.0306022
0.0288538
0.0273145
0.0262645
0.0326533
0.074941
0.0624159
0.0604044
0.0604395
0.0602813
0.0587769
0.0563165
0.0535093
0.049844
0.045693
0.0416789
0.038348
0.0357483
0.0335986
0.031869
0.0305813
0.0297786
0.0301451
0.0429026
0.108056
0.0742033
0.0655269
0.0629405
0.0615199
0.0594564
0.0568482
0.0541813
0.0508926
0.0474093
0.0440265
0.0411158
0.0386453
0.0361988
0.0340859
0.0329107
0.0326264
0.0342477
0.0547054
0.170488
0.0871781
0.0707867
0.0659102
0.0635143
0.061109
0.0584766
0.0559788
0.0531235
0.0501884
0.04722
0.0445562
0.0421244
0.0394378
0.0369809
0.0357033
0.0357676
0.0388039
0.0687387
0.318933
0.0985835
0.0753379
0.0688813
0.0658657
0.0633702
0.0609215
0.0587003
0.0563305
0.0538218
0.0510843
0.0485041
0.0460105
0.0431057
0.040349
0.0388649
0.0391479
0.0435752
0.0830748
0.0589376
0.0338999
0.0362461
0.0420173
0.0489022
0.0561881
0.0634907
0.0705175
0.0769882
0.0826769
0.0874715
0.0913789
0.0945083
0.0970714
0.0993045
0.10141
0.103616
0.106271
0.110036
0.116438
0.129152
0.157054
0.225129
0.0830495
0.0462976
0.0484555
0.0555023
0.0638819
0.072379
0.0804234
0.0877112
0.0939801
0.09909
0.103086
0.106121
0.108399
0.110195
0.111726
0.113185
0.114753
0.11673
0.119417
0.123111
0.128608
0.136871
0.148706
0.121294
0.0657518
0.0670827
0.076143
0.0866524
0.096417
0.104698
0.111474
0.116623
0.12026
0.12273
0.12433
0.125243
0.12567
0.125985
0.126413
0.127103
0.128543
0.130636
0.132067
0.132603
0.132584
0.131117
0.199624
0.0985757
0.0958403
0.108442
0.122
0.132443
0.139227
0.143762
0.145884
0.146438
0.146378
0.145966
0.144862
0.143084
0.141718
0.140875
0.140494
0.142235
0.14575
0.145831
0.142582
0.139881
0.132623
0.327755
0.145855
0.130042
0.14251
0.154398
0.161286
0.165953
0.168615
0.170022
0.170046
0.169434
0.168117
0.164633
0.160254
0.15786
0.156002
0.153914
0.156635
0.161797
0.156575
0.15326
0.149722
0.137654
0.466717
0.191324
0.149513
0.146154
0.151335
0.156641
0.160662
0.163171
0.166001
0.168552
0.170875
0.172253
0.17134
0.170273
0.171272
0.169481
0.164604
0.163776
0.163665
0.156687
0.151789
0.143855
0.132432
0.577373
0.234139
0.164296
0.146448
0.145483
0.148587
0.150661
0.151876
0.154333
0.15714
0.159953
0.162602
0.164615
0.167682
0.17226
0.172257
0.169634
0.169665
0.165843
0.159769
0.152341
0.140143
0.128709
0.634321
0.258968
0.177548
0.149248
0.141534
0.141734
0.142957
0.142713
0.145178
0.148347
0.151034
0.153444
0.155369
0.158076
0.161952
0.164186
0.165606
0.16947
0.17115
0.168227
0.157219
0.140066
0.126065
0.617615
0.256301
0.183785
0.15181
0.138042
0.13605
0.135224
0.134391
0.137207
0.141073
0.144299
0.146671
0.147796
0.148185
0.150045
0.152382
0.156319
0.163108
0.169452
0.170175
0.155254
0.13565
0.119156
0.564692
0.239096
0.176741
0.147625
0.132398
0.12768
0.125716
0.12605
0.128988
0.132602
0.135853
0.13808
0.138935
0.138305
0.138704
0.140949
0.14575
0.15138
0.153556
0.14921
0.136978
0.121958
0.109089
0.496246
0.216735
0.1621
0.137813
0.125077
0.119538
0.117743
0.118978
0.121509
0.124178
0.126738
0.128492
0.128892
0.128327
0.128298
0.130042
0.133803
0.136695
0.134549
0.128113
0.119009
0.10893
0.0998688
0.428314
0.196536
0.147225
0.126962
0.11722
0.112819
0.111778
0.113399
0.115432
0.117068
0.118601
0.119535
0.11932
0.118533
0.118441
0.119609
0.121702
0.122443
0.119415
0.113436
0.106322
0.0990562
0.0923171
0.36511
0.177987
0.13486
0.117635
0.109578
0.106143
0.105505
0.106688
0.108312
0.109745
0.110912
0.111266
0.110467
0.109349
0.109295
0.110315
0.11159
0.111312
0.108125
0.102958
0.0972068
0.0915454
0.0862203
0.307097
0.16015
0.124073
0.109153
0.101757
0.0981936
0.0970737
0.0975117
0.09878
0.100444
0.101765
0.102118
0.1014
0.100506
0.100657
0.101757
0.102615
0.101855
0.098954
0.0946809
0.0900013
0.0854254
0.0810917
0.255282
0.142316
0.113395
0.100561
0.0936927
0.0898796
0.0881643
0.0879826
0.0887957
0.0901438
0.0914745
0.0921246
0.0920079
0.0917477
0.09215
0.0931404
0.093723
0.092951
0.0906424
0.0873082
0.0836172
0.0799592
0.0764593
0.21069
0.124671
0.102332
0.0916776
0.0856034
0.081957
0.0800242
0.0794305
0.0797927
0.0807146
0.0817881
0.0826193
0.0830247
0.0833124
0.083878
0.0846565
0.0850562
0.0844769
0.0828069
0.0803668
0.0775886
0.0747591
0.0719991
0.173996
0.107983
0.0912038
0.0827736
0.0777532
0.0746207
0.0728222
0.0720842
0.0721461
0.0727212
0.0735193
0.0743184
0.0749736
0.0755408
0.0761607
0.0767649
0.0770375
0.0766514
0.0755242
0.0738279
0.0718264
0.0697146
0.0675896
0.145222
0.0930574
0.0806119
0.0742434
0.0703666
0.0679154
0.0664605
0.0657906
0.065729
0.0660863
0.0666719
0.0673356
0.0680128
0.0686359
0.0692152
0.0696843
0.069879
0.0696349
0.0689036
0.0677696
0.0663768
0.0648464
0.0632458
0.123619
0.0804022
0.0710707
0.066419
0.0635998
0.0618356
0.0607941
0.0603074
0.0602519
0.0605057
0.0609488
0.061482
0.0620497
0.0626145
0.0631041
0.0634654
0.0636118
0.0634637
0.0629961
0.0622488
0.0612962
0.060207
0.0590236
0.107812
0.0701129
0.0628453
0.0594815
0.0575225
0.0563493
0.0556967
0.0554264
0.0554453
0.0556728
0.0560333
0.0564624
0.0569153
0.057371
0.0577612
0.0580377
0.0581528
0.0580677
0.0577704
0.0572794
0.0566313
0.0558622
0.0549951
0.0961606
0.0619376
0.0559433
0.0534547
0.0521236
0.0514055
0.0510727
0.0510027
0.0511181
0.0513608
0.0516821
0.0520407
0.0524048
0.0527538
0.0530652
0.053282
0.0533796
0.053339
0.0531544
0.0528341
0.0523955
0.0518554
0.0512243
0.0871452
0.0554285
0.050193
0.0482494
0.0473379
0.0469446
0.0468544
0.0469486
0.0471559
0.0474306
0.0477401
0.0480589
0.0483668
0.0486496
0.0489008
0.0490825
0.0491775
0.0491752
0.0490722
0.048872
0.0485819
0.0482089
0.0477557
0.0796197
0.0500982
0.0453441
0.0437238
0.0430795
0.0429109
0.0429978
0.0432172
0.0435006
0.0438101
0.0441239
0.044427
0.0447083
0.0449596
0.0451774
0.0453515
0.04546
0.0454978
0.0454626
0.045355
0.0451776
0.0449322
0.0446175
0.0728803
0.0455226
0.0411437
0.0397325
0.0392685
0.0392614
0.0394769
0.0397874
0.0401286
0.04047
0.0407976
0.041104
0.0413838
0.0416332
0.0418503
0.0420362
0.042173
0.0422568
0.0422851
0.0422569
0.0421721
0.0420299
0.0418276
0.0665939
0.0413866
0.0373745
0.0361552
0.0358444
0.0359665
0.0362765
0.0366508
0.0370344
0.0374051
0.037755
0.0380807
0.0383802
0.0386516
0.0388943
0.03911
0.0392889
0.0394262
0.0395184
0.0395637
0.0395604
0.0395067
0.0393993
0.0607396
0.0375137
0.033888
0.032903
0.0327624
0.0330001
0.0333816
0.0338021
0.0342209
0.0346237
0.0350063
0.0353671
0.0357047
0.0360178
0.0363051
0.0365673
0.0368003
0.036998
0.0371564
0.0372726
0.0373445
0.0373697
0.0373449
0.0554685
0.0338699
0.0306493
0.0299284
0.029981
0.0303305
0.0307742
0.0312384
0.0316975
0.0321432
0.0325727
0.0329846
0.0333769
0.0337474
0.0340941
0.034416
0.0347124
0.0349761
0.0352027
0.0353889
0.0355319
0.0356292
0.0356777
0.0507551
0.0305434
0.0277122
0.0272484
0.0274822
0.0279368
0.0284482
0.0289691
0.0294848
0.0299903
0.0304832
0.0309613
0.0314219
0.0318622
0.0322793
0.0326712
0.0330372
0.033371
0.0336676
0.0339231
0.0341343
0.0342985
0.0344132
0.0465712
0.0276875
0.0251745
0.024921
0.0252915
0.0258405
0.0264316
0.027028
0.0276189
0.0282007
0.0287708
0.0293268
0.0298657
0.0303842
0.0308791
0.0313479
0.0317888
0.0321964
0.0325649
0.0328897
0.0331672
0.0333947
0.0335699
0.0430863
0.0253882
0.0231273
0.0230141
0.0234768
0.0241094
0.0247859
0.0254684
0.0261452
0.0268122
0.0274669
0.028107
0.0287296
0.0293316
0.0299097
0.0304607
0.030982
0.0314677
0.031911
0.0323067
0.0326502
0.0329389
0.0331705
0.0405372
0.0237158
0.0216325
0.0215995
0.0221232
0.0228242
0.0235784
0.0243432
0.0251037
0.0258546
0.0265934
0.0273182
0.0280266
0.0287159
0.0293825
0.0300223
0.0306315
0.0312021
0.0317262
0.0321968
0.0326085
0.0329582
0.0332439
0.0391089
0.022734
0.0207349
0.0207368
0.021294
0.0220413
0.0228536
0.0236841
0.024515
0.0253399
0.0261563
0.0269632
0.0277588
0.0285406
0.0293042
0.030044
0.0307535
0.0314214
0.0320368
0.0325905
0.0330757
0.0334887
0.0338282
0.0388897
0.0224759
0.0204611
0.0204534
0.0210131
0.0217776
0.0226206
0.0234924
0.0243737
0.0252577
0.0261431
0.0270297
0.0279167
0.0288014
0.0296781
0.0305382
0.0313694
0.0321552
0.0328798
0.0335303
0.0340983
0.0345797
0.0349743
0.039864
0.0229402
0.0208067
0.0207388
0.0212631
0.0220104
0.022852
0.0237372
0.0246467
0.0255747
0.0265218
0.0274898
0.0284795
0.0294879
0.0305067
0.0315216
0.0325104
0.0334476
0.0343093
0.0350773
0.0357413
0.0362981
0.03675
0.041922
0.0240789
0.021728
0.0215443
0.0219899
0.0226822
0.0234891
0.0243598
0.0252763
0.0262357
0.027242
0.0283009
0.029416
0.0305846
0.0317942
0.0330207
0.0342253
0.0353659
0.0364054
0.037319
0.0380954
0.0387351
0.0392457
0.0448694
0.0257933
0.0231398
0.0227851
0.0231077
0.023707
0.0244471
0.0252777
0.0261836
0.0271665
0.0282364
0.0294059
0.0306846
0.032072
0.0335504
0.0350795
0.0365917
0.0380138
0.0392874
0.0403804
0.0412855
0.0420123
0.0425791
0.0484317
0.0279361
0.0249174
0.0243437
0.0245027
0.0249749
0.0256205
0.0263902
0.0272729
0.028277
0.0294221
0.0307329
0.0322311
0.0339247
0.0357923
0.0377684
0.0397334
0.0415518
0.0431316
0.0444384
0.0454809
0.0462897
0.0469018
0.0522581
0.0303175
0.0269016
0.0260747
0.0260392
0.0263586
0.0268895
0.0275841
0.0284365
0.0294643
0.0307015
0.0321924
0.0339831
0.036104
0.0385411
0.0411945
0.0438489
0.04623
0.0481972
0.0497379
0.0509055
0.0517722
0.0524044
0.0559354
0.0327172
0.0289073
0.0278125
0.027567
0.027721
0.0281279
0.0287414
0.0295614
0.0306174
0.0319629
0.0336728
0.0358361
0.0385357
0.0417997
0.0455073
0.0492669
0.0524431
0.0548605
0.0566085
0.0578456
0.0587146
0.0593224
0.0590173
0.0349019
0.0307333
0.0293794
0.0289295
0.0289231
0.0292103
0.0297459
0.0305357
0.0316222
0.0330826
0.0350333
0.0376313
0.0410637
0.045491
0.050876
0.0565745
0.0608284
0.0636526
0.0654714
0.066649
0.0674243
0.0679423
0.0611003
0.0366342
0.0321674
0.0305927
0.0299711
0.0298314
0.0300201
0.0304918
0.0312572
0.0323701
0.0339315
0.0361033
0.0391301
0.0433672
0.0492847
0.0573192
0.0669881
0.0724201
0.0752681
0.076816
0.0777114
0.0782604
0.0786114
0.0618657
0.0376107
0.0329776
0.0312698
0.0305454
0.030327
0.0304579
0.0308923
0.0316432
0.0327713
0.0343931
0.0367029
0.0400185
0.0448713
0.0522004
0.0638143
0.0836195
0.0887641
0.0904339
0.091113
0.0914491
0.0916399
0.0917573
0.425499
0.411099
0.436037
0.516057
0.161444
0.161833
0.158967
0.150888
0.128168
0.125033
0.120788
0.115363
0.124347
0.11932
0.114531
0.109623
0.126639
0.119908
0.114117
0.109314
0.123352
0.117654
0.112302
0.107606
0.121885
0.116846
0.110897
0.106189
0.116998
0.111698
0.107378
0.103492
0.109991
0.105386
0.101565
0.0980457
0.10172
0.0977172
0.0942207
0.0910334
0.0940507
0.09068
0.0876063
0.0847724
0.087638
0.0848186
0.0821768
0.0797084
0.0824112
0.080069
0.0778329
0.0757131
0.0779832
0.0760555
0.0741885
0.0723914
0.0739437
0.0723731
0.0708345
0.0693314
0.0699988
0.0687365
0.0674868
0.066249
0.0660246
0.0650256
0.064026
0.0630227
0.0620363
0.0612544
0.0604627
0.0596591
0.0581028
0.0574949
0.0568722
0.0562337
0.0542987
0.053829
0.0533417
0.0528364
0.050701
0.0503406
0.0499619
0.0495649
0.0473671
0.047094
0.0468031
0.0464945
0.044336
0.0441338
0.0439148
0.0436794
0.0416338
0.0414904
0.0413315
0.0411574
0.0392792
0.0391856
0.0390778
0.0389557
0.0372881
0.0372374
0.0371732
0.0370955
0.035676
0.0356625
0.0356359
0.0355962
0.0344599
0.0344787
0.0344846
0.0344772
0.0336595
0.0337065
0.0337402
0.0337605
0.0332985
0.0333704
0.0334282
0.0334719
0.0334072
0.0335012
0.0335801
0.0336439
0.0340248
0.034139
0.0342365
0.0343175
0.0352029
0.0353358
0.0354501
0.035546
0.0370098
0.0371602
0.0372895
0.0373983
0.039535
0.039701
0.0398431
0.0399623
0.0428938
0.0430723
0.0432238
0.0433503
0.0472331
0.0474182
0.047574
0.0477028
0.0527366
0.0529192
0.0530711
0.0531955
0.0596316
0.0597986
0.0599357
0.060047
0.0681974
0.0683327
0.0684425
0.0685307
0.0787793
0.0788668
0.0789369
0.0789928
0.0918118
0.0918396
0.0918616
0.0918789
0.15942
0.0984317
0.0800377
0.0729771
0.069609
0.0673919
0.0657446
0.0642471
0.0626551
0.0605788
0.0579446
0.0552723
0.0525186
0.0492724
0.0461063
0.0442378
0.0446997
0.0505625
0.100231
0.118164
0.095061
0.0834882
0.0777647
0.0750589
0.0739308
0.0740205
0.0742707
0.0734863
0.0713882
0.0684082
0.0651637
0.0616633
0.0578008
0.0541535
0.0518886
0.0525617
0.0603698
0.123381
0.105245
0.093971
0.0866556
0.0825714
0.0808707
0.0809607
0.0826962
0.0845025
0.0844399
0.0823657
0.0790121
0.0751683
0.0709124
0.0664153
0.0622957
0.0596817
0.060543
0.0689734
0.134659
0.102016
0.0946637
0.0900507
0.0875635
0.0868932
0.0880729
0.0910615
0.0933493
0.0936838
0.0919821
0.0887616
0.0848938
0.0799625
0.0746847
0.070052
0.0671774
0.0689081
0.0780065
0.141829
0.101887
0.0951337
0.0923719
0.0914865
0.0912794
0.0916235
0.0929419
0.0951868
0.0968311
0.0966799
0.0943763
0.0897763
0.084818
0.0801169
0.0759961
0.0732159
0.0734806
0.0810706
0.147651
0.101019
0.0945196
0.0916984
0.091194
0.0914031
0.0912515
0.0909569
0.0912036
0.0914511
0.0909699
0.0891785
0.0861677
0.082926
0.0800426
0.077939
0.0750185
0.0720644
0.0758661
0.123297
0.0995938
0.0927692
0.0893615
0.0884402
0.0885944
0.0887025
0.0883951
0.0876802
0.0868516
0.0859482
0.0844796
0.0821976
0.0796574
0.0770175
0.0747555
0.071233
0.0672244
0.0687529
0.106838
0.0971921
0.0901323
0.0860086
0.0844179
0.0840905
0.0838993
0.0834414
0.0826397
0.0812649
0.0798078
0.0781494
0.0760065
0.0735492
0.071122
0.0687748
0.0654444
0.062051
0.0630262
0.102342
0.092633
0.0861628
0.081744
0.0793257
0.0780597
0.0771155
0.0760954
0.0748528
0.0733502
0.0718165
0.0701558
0.0681929
0.0660618
0.06428
0.0627759
0.0604473
0.0578093
0.0578479
0.0921082
0.0863638
0.0808212
0.0766739
0.0738858
0.0719878
0.0704757
0.0689991
0.0673786
0.0656414
0.0639313
0.0621776
0.0603163
0.0586165
0.0575558
0.0567822
0.0552112
0.052949
0.0520382
0.0737736
0.0806722
0.0758817
0.0721157
0.069277
0.0670918
0.0652501
0.0634809
0.0616239
0.0596809
0.0577178
0.0557254
0.0537665
0.0521142
0.0510278
0.0501084
0.048742
0.047042
0.0458981
0.0558425
0.0761138
0.0719052
0.0684945
0.0657603
0.0635223
0.0615745
0.0597126
0.0577797
0.0557247
0.0535766
0.0513089
0.0490556
0.0470598
0.0454507
0.0440249
0.0426223
0.0415082
0.0404357
0.0414053
0.072571
0.0688302
0.0657326
0.063165
0.0609919
0.0590572
0.0571926
0.0552583
0.0531832
0.0509487
0.04852
0.0460527
0.0438016
0.0418788
0.0402173
0.038799
0.0380291
0.0378641
0.039697
0.069663
0.0663337
0.0635219
0.0611363
0.0590663
0.0571796
0.0553301
0.0534073
0.0513581
0.0491355
0.0467122
0.0442357
0.041978
0.0400937
0.0385541
0.0372775
0.0366718
0.0379717
0.0465559
0.066988
0.0640505
0.0615184
0.0593218
0.057365
0.05553
0.0536936
0.0517796
0.0497656
0.0476061
0.0452827
0.042922
0.0407709
0.0390103
0.0376678
0.0367069
0.0365458
0.0392397
0.0552016
0.064266
0.0617085
0.059457
0.0574595
0.0556288
0.0538571
0.0520423
0.0501416
0.048155
0.0460572
0.0438442
0.04162
0.0395822
0.0379076
0.0366956
0.0360654
0.0365457
0.0403942
0.062998
0.0613723
0.0591791
0.0572011
0.0554079
0.0537187
0.0520332
0.0502676
0.048403
0.0464507
0.044408
0.0422907
0.0401859
0.0382489
0.036646
0.0355363
0.0351722
0.0362414
0.0411935
0.0685227
0.0583061
0.0564556
0.0547394
0.053144
0.0516029
0.0500269
0.0483479
0.0465554
0.0446654
0.0426938
0.0406733
0.0386839
0.0368553
0.0353465
0.0343539
0.0342134
0.0357425
0.0417169
0.0718797
0.0551395
0.0536011
0.0521323
0.0507264
0.0493347
0.0478852
0.0463234
0.0446392
0.0428494
0.0409811
0.0390789
0.0372216
0.0355268
0.0341495
0.0333052
0.0333714
0.0352391
0.0419561
0.0744346
0.0519611
0.0507066
0.049468
0.048243
0.0470023
0.0456908
0.0442659
0.0427179
0.0410623
0.039331
0.0375755
0.0358749
0.0343413
0.0331271
0.0324547
0.0327185
0.034844
0.0420708
0.0772274
0.0488702
0.0478568
0.0468264
0.0457795
0.0446924
0.0435253
0.0422478
0.0408534
0.0393553
0.0377864
0.0362007
0.0346768
0.0333232
0.0322898
0.0318002
0.032256
0.0346121
0.0422713
0.0804784
0.045949
0.0451384
0.0442911
0.0434072
0.0424693
0.0414502
0.0403274
0.0390948
0.0377655
0.0363723
0.0349685
0.033631
0.0324652
0.0316179
0.0313127
0.0319598
0.034556
0.0427386
0.084322
0.043258
0.042618
0.0419297
0.0411928
0.0403948
0.039517
0.0385437
0.0374712
0.0363121
0.0350976
0.0338788
0.032729
0.0317491
0.0310816
0.0309476
0.0317634
0.0345625
0.0431916
0.0877257
0.0408404
0.040344
0.039793
0.0391864
0.0385157
0.0377684
0.0369341
0.0360118
0.035014
0.0339699
0.0329272
0.0319546
0.0311479
0.0306441
0.0306609
0.0316176
0.0345726
0.043532
0.0906149
0.0387271
0.0383521
0.0379186
0.0374255
0.0368674
0.0362365
0.0355267
0.0347393
0.0338869
0.0329967
0.0321128
0.0312991
0.0306457
0.030284
0.0304279
0.0314961
0.0345603
0.0437387
0.0930482
0.0369423
0.0366697
0.0363357
0.0359397
0.0354785
0.0349478
0.0343451
0.0336737
0.0329465
0.0321887
0.0314409
0.0307625
0.0302383
0.0299946
0.0302406
0.0313928
0.0345256
0.0438231
0.0949243
0.0355071
0.0353203
0.0350696
0.0347546
0.0343742
0.0339267
0.0334124
0.0328362
0.0322112
0.0315612
0.0309238
0.0303542
0.0299327
0.0297808
0.0301042
0.0313156
0.0344843
0.043803
0.0958191
0.0344424
0.0343269
0.0341445
0.0338955
0.0335799
0.0331985
0.0327533
0.0322509
0.0317043
0.0311361
0.0305814
0.030092
0.0297444
0.0296565
0.0300308
0.031276
0.0344484
0.043676
0.0952668
0.0337713
0.0337143
0.0335868
0.0333895
0.0331237
0.0327916
0.032397
0.0319471
0.0314551
0.0309424
0.0304418
0.0300024
0.0296975
0.0296423
0.0300365
0.0312838
0.0344227
0.0434767
0.0938158
0.033521
0.0335113
0.0334266
0.0332683
0.0330385
0.0327404
0.0323787
0.0319614
0.0315011
0.031018
0.0305429
0.0301222
0.0298264
0.0297682
0.0301446
0.0313548
0.0344233
0.0433054
0.0927914
0.0337249
0.0337529
0.0337008
0.0335703
0.0333643
0.0330865
0.0327424
0.0323395
0.0318899
0.0314122
0.0309348
0.0305012
0.0301792
0.0300788
0.0303951
0.0315251
0.0344924
0.0432732
0.0930182
0.0344253
0.0344831
0.0344549
0.034343
0.0341506
0.033882
0.0335423
0.0331388
0.0326819
0.0321881
0.0316827
0.0312059
0.0308222
0.0306393
0.0308513
0.0318581
0.0346985
0.0434477
0.0942887
0.0356763
0.0357574
0.0357461
0.0356454
0.0354591
0.0351912
0.0348465
0.0344309
0.0339528
0.0334254
0.03287
0.0323225
0.0318434
0.0315381
0.0316021
0.0324432
0.0351285
0.043864
0.0960469
0.0375471
0.0376459
0.037646
0.0375515
0.0373662
0.0370941
0.0367389
0.0363047
0.0357968
0.035224
0.0346021
0.0339608
0.0333552
0.0328887
0.0327603
0.0333924
0.0358884
0.0445982
0.098324
0.0401256
0.040237
0.0402445
0.040153
0.0399668
0.0396894
0.0393231
0.0388695
0.03833
0.0377073
0.0370097
0.0362574
0.0354974
0.0348299
0.0344615
0.0348372
0.0371047
0.0457419
0.100716
0.0435227
0.0436417
0.0436533
0.0435639
0.0433778
0.0430981
0.0427255
0.0422585
0.0416937
0.0410262
0.0402529
0.03938
0.0384402
0.0375267
0.0368592
0.0369226
0.0389275
0.0474771
0.103496
0.0478774
0.0479979
0.0480113
0.0479247
0.047743
0.0474682
0.0470997
0.0466328
0.0460586
0.0453627
0.0445264
0.0435333
0.0423891
0.0411699
0.040116
0.0397924
0.0415007
0.050093
0.108529
0.0533628
0.0534778
0.0534909
0.0534098
0.0532392
0.0529805
0.0526319
0.052186
0.0516285
0.0509343
0.0500644
0.0489668
0.0475953
0.0459775
0.0443775
0.0435106
0.0448739
0.0536865
0.115939
0.0601954
0.0602968
0.060308
0.0602362
0.0600856
0.0598574
0.0595487
0.0591511
0.0586463
0.0579996
0.0571486
0.0559902
0.0543809
0.0522128
0.049716
0.0480367
0.0489686
0.0581899
0.125447
0.0686475
0.0687272
0.0687352
0.0686774
0.0685572
0.0683753
0.0681294
0.0678113
0.0674026
0.0668644
0.0661161
0.0649961
0.0632014
0.0602799
0.0560996
0.053101
0.0534447
0.063241
0.136417
0.0790666
0.0791172
0.0791214
0.0790828
0.0790035
0.0788843
0.0787237
0.0785164
0.0782489
0.0778895
0.0773616
0.0764756
0.0747517
0.0710195
0.0631968
0.0580426
0.0575897
0.0680278
0.147347
0.091902
0.0919179
0.0919181
0.0919037
0.0918755
0.0918341
0.0917793
0.0917098
0.0916215
0.0915029
0.0913211
0.090968
0.0900304
0.0866167
0.0696464
0.061563
0.0602913
0.0712251
0.155123
)
;

boundaryField
{
    leftWall
    {
        type            epsilonWallFunction;
        value           nonuniform List<scalar> 
50
(
0.00375878
0.00765619
0.0130645
0.0185937
0.0242667
0.0302703
0.0368664
0.0443944
0.0589376
0.0830495
0.121294
0.199624
0.327755
0.466717
0.577373
0.634321
0.617615
0.564692
0.496246
0.428314
0.36511
0.307097
0.255282
0.21069
0.173996
0.145222
0.123619
0.107812
0.0961606
0.0871452
0.0796197
0.0728803
0.0665939
0.0607396
0.0554685
0.0507551
0.0465712
0.0430863
0.0405372
0.0391089
0.0388897
0.039864
0.041922
0.0448694
0.0484317
0.0522581
0.0559354
0.0590173
0.0611003
0.0618657
)
;
        Cmu             0.09;
        kappa           0.41;
        E               9.8;
        value           nonuniform List<scalar> 
50
(
0.00375878
0.00765619
0.0130645
0.0185937
0.0242667
0.0302703
0.0368664
0.0443944
0.0589376
0.0830495
0.121294
0.199624
0.327755
0.466717
0.577373
0.634321
0.617615
0.564692
0.496246
0.428314
0.36511
0.307097
0.255282
0.21069
0.173996
0.145222
0.123619
0.107812
0.0961606
0.0871452
0.0796197
0.0728803
0.0665939
0.0607396
0.0554685
0.0507551
0.0465712
0.0430863
0.0405372
0.0391089
0.0388897
0.039864
0.041922
0.0448694
0.0484317
0.0522581
0.0559354
0.0590173
0.0611003
0.0618657
)
;
    }
    rightWall
    {
        type            epsilonWallFunction;
        value           nonuniform List<scalar> 
50
(
0.0102132
0.0150084
0.0234614
0.0326533
0.0429026
0.0547054
0.0687387
0.0830748
0.100231
0.123381
0.134659
0.141829
0.147651
0.123297
0.106838
0.102342
0.0921082
0.0737736
0.0558425
0.0414053
0.039697
0.0465559
0.0552016
0.062998
0.0685227
0.0718797
0.0744346
0.0772274
0.0804784
0.084322
0.0877257
0.0906149
0.0930482
0.0949243
0.0958191
0.0952668
0.0938158
0.0927914
0.0930182
0.0942887
0.0960469
0.098324
0.100716
0.103496
0.108529
0.115939
0.125447
0.136417
0.147347
0.155123
)
;
        Cmu             0.09;
        kappa           0.41;
        E               9.8;
        value           nonuniform List<scalar> 
50
(
0.0102132
0.0150084
0.0234614
0.0326533
0.0429026
0.0547054
0.0687387
0.0830748
0.100231
0.123381
0.134659
0.141829
0.147651
0.123297
0.106838
0.102342
0.0921082
0.0737736
0.0558425
0.0414053
0.039697
0.0465559
0.0552016
0.062998
0.0685227
0.0718797
0.0744346
0.0772274
0.0804784
0.084322
0.0877257
0.0906149
0.0930482
0.0949243
0.0958191
0.0952668
0.0938158
0.0927914
0.0930182
0.0942887
0.0960469
0.098324
0.100716
0.103496
0.108529
0.115939
0.125447
0.136417
0.147347
0.155123
)
;
    }
    lowerWall
    {
        type            epsilonWallFunction;
        value           nonuniform List<scalar> 
62
(
0.00375878
0.0204477
0.0380497
0.0558663
0.0738787
0.0920666
0.110343
0.128501
0.146164
0.162776
0.177689
0.190327
0.20033
0.207851
0.213627
0.216227
0.213185
0.20453
0.193554
0.176119
0.141
0.082661
0.0177077
0.0177077
0.0298391
0.047017
0.0625294
0.0804696
0.109377
0.179723
0.327091
0.425499
0.411099
0.436037
0.516057
0.0167279
0.0223616
0.0362181
0.052802
0.074941
0.108056
0.170488
0.318933
0.0167279
0.0824671
0.134813
0.164474
0.180339
0.18174
0.168293
0.144781
0.114047
0.0880596
0.0807688
0.0767914
0.0597893
0.0515963
0.0565615
0.0601972
0.0565387
0.0373277
0.0102132
)
;
        Cmu             0.09;
        kappa           0.41;
        E               9.8;
        value           nonuniform List<scalar> 
62
(
0.00375878
0.0204477
0.0380497
0.0558663
0.0738787
0.0920666
0.110343
0.128501
0.146164
0.162776
0.177689
0.190327
0.20033
0.207851
0.213627
0.216227
0.213185
0.20453
0.193554
0.176119
0.141
0.082661
0.0177077
0.0177077
0.0298391
0.047017
0.0625294
0.0804696
0.109377
0.179723
0.327091
0.425499
0.411099
0.436037
0.516057
0.0167279
0.0223616
0.0362181
0.052802
0.074941
0.108056
0.170488
0.318933
0.0167279
0.0824671
0.134813
0.164474
0.180339
0.18174
0.168293
0.144781
0.114047
0.0880596
0.0807688
0.0767914
0.0597893
0.0515963
0.0565615
0.0601972
0.0565387
0.0373277
0.0102132
)
;
    }
    atmosphere
    {
        type            inletOutlet;
        inletValue      uniform 0.1;
        value           nonuniform List<scalar> 
46
(
0.0618657
0.0376107
0.0329776
0.0312698
0.0305454
0.030327
0.0304579
0.0308923
0.0316432
0.0327713
0.0343931
0.0367029
0.0400185
0.0448713
0.0522004
0.0638143
0.1
0.1
0.1
0.1
0.1
0.1
0.1
0.1
0.1
0.1
0.1
0.1
0.1
0.1
0.1
0.1
0.1
0.1
0.1
0.1
0.1
0.1
0.1
0.1
0.1
0.0696464
0.061563
0.0602913
0.0712251
0.155123
)
;
    }
    defaultFaces
    {
        type            empty;
    }
}


// ************************************************************************* //
