/*--------------------------------*- C++ -*----------------------------------*\
| =========                 |                                                 |
| \\      /  F ield         | OpenFOAM: The Open Source CFD Toolbox           |
|  \\    /   O peration     | Version:  2.3.0                                 |
|   \\  /    A nd           | Web:      www.OpenFOAM.org                      |
|    \\/     M anipulation  |                                                 |
\*---------------------------------------------------------------------------*/
FoamFile
{
    version     2.0;
    format      ascii;
    class       volScalarField;
    location    "2.65";
    object      nut;
}
// * * * * * * * * * * * * * * * * * * * * * * * * * * * * * * * * * * * * * //

dimensions      [0 2 -1 0 0 0 0];

internalField   nonuniform List<scalar> 
2268
(
3.06182e-05
3.60007e-05
4.43855e-05
5.05725e-05
5.56065e-05
5.98817e-05
6.3579e-05
6.6783e-05
6.95274e-05
7.18218e-05
7.36762e-05
7.51154e-05
7.61922e-05
7.71319e-05
7.78026e-05
7.8014e-05
7.74837e-05
7.63731e-05
7.48901e-05
7.23616e-05
6.67429e-05
5.5647e-05
3.44261e-05
7.06014e-05
0.000295209
0.000403919
0.000480019
0.000539289
0.000587324
0.000626718
0.000658919
0.000684875
0.00070533
0.000721129
0.000733335
0.000743047
0.000749859
0.000752637
0.000750647
0.000741958
0.000725192
0.000696098
0.000645775
0.000560638
0.000413553
0.000108614
8.47808e-05
0.000529215
0.000784272
0.000959517
0.00109264
0.00119706
0.00127939
0.00134368
0.00139279
0.00142908
0.00145482
0.00147241
0.00148378
0.00148861
0.00148517
0.00147016
0.00143812
0.00138293
0.00129498
0.00115795
0.000951498
0.000644304
0.000125187
9.57506e-05
0.000710559
0.00111002
0.00138383
0.00158848
0.00174553
0.0018662
0.0019577
0.00202524
0.00207292
0.00210438
0.00212291
0.00213082
0.00212777
0.00211119
0.00207549
0.00201194
0.00190969
0.00175386
0.00152365
0.00119873
0.000764854
0.000136228
0.000105025
0.000858856
0.00139161
0.00175697
0.0020265
0.00222984
0.00238313
0.00249695
0.00257896
0.00263497
0.00266973
0.00268707
0.00268934
0.00267612
0.00264392
0.00258558
0.00248979
0.00234176
0.00212146
0.00180332
0.00136687
0.000818774
0.000146979
0.000113473
0.000987388
0.00164113
0.00208924
0.00241594
0.00265889
0.00283924
0.00297106
0.00306437
0.00312661
0.00316337
0.00317878
0.00317514
0.00315187
0.00310502
0.00302633
0.00290283
0.00271664
0.00244266
0.0020482
0.00150682
0.000843578
0.000161503
0.000121638
0.00110406
0.00186747
0.0023895
0.0027658
0.00304203
0.00324444
0.00339049
0.00349257
0.00355955
0.00359774
0.00361141
0.00360273
0.00357119
0.00351277
0.00341865
0.00327505
0.00306217
0.0027506
0.00229891
0.00166603
0.000882414
0.000189404
0.000129903
0.00121315
0.00207675
0.00266474
0.00308382
0.00338773
0.00360781
0.00376487
0.0038736
0.00394426
0.00398374
0.00399634
0.00398415
0.00394695
0.00388115
0.00377768
0.00362284
0.00339639
0.00306685
0.00258676
0.00189882
0.00100637
0.000235551
3.3383e-05
5.71045e-05
6.71821e-05
7.16007e-05
7.36721e-05
7.37533e-05
7.18337e-05
6.84918e-05
6.3519e-05
5.83483e-05
5.67693e-05
5.5976e-05
5.16757e-05
4.91175e-05
5.04029e-05
5.13887e-05
5.0137e-05
4.36389e-05
4.45215e-05
0.000113176
0.000473943
0.0006144
0.000677877
0.000699476
0.000690292
0.000656876
0.000610956
0.000516615
0.000471645
0.000525918
0.0005457
0.000477975
0.000407815
0.000413848
0.000466054
0.000432376
0.000315367
0.000101169
0.000133515
0.000792041
0.00114578
0.00131569
0.0013802
0.00137134
0.00130657
0.00121447
0.00107192
0.000998079
0.0010657
0.00109421
0.00099123
0.000866021
0.000851672
0.000894173
0.00079559
0.000521583
0.000117733
0.000152418
0.00101161
0.00156371
0.00184223
0.00195651
0.00195995
0.00188118
0.00176345
0.00160845
0.00152495
0.001576
0.00159109
0.00147472
0.00132318
0.001266
0.00125709
0.0010894
0.000691358
0.000131525
0.0001727
0.00120001
0.00191839
0.00228899
0.00244825
0.00246886
0.00238869
0.0022627
0.00211294
0.00202902
0.00205174
0.00204229
0.00191773
0.00175336
0.00165123
0.00157753
0.00134531
0.000852193
0.000143875
0.000196175
0.00139526
0.00224945
0.00268758
0.0028808
0.00291813
0.00284358
0.00272009
0.00258315
0.00250041
0.00249268
0.00245505
0.00232183
0.0021474
0.00200449
0.00186583
0.00157407
0.00100282
0.000155516
0.00022835
0.0016238
0.00258181
0.00305852
0.00327203
0.00332271
0.00325688
0.00314138
0.00301869
0.00293554
0.00289934
0.00283389
0.00269047
0.0025049
0.00232611
0.00212823
0.00177617
0.00112407
0.00016742
0.000279168
0.00191472
0.00293008
0.00341277
0.0036327
0.00369232
0.00363591
0.00353066
0.00342019
0.00333442
0.00327302
0.00318221
0.00302694
0.00282865
0.0026181
0.00236803
0.00195812
0.00122905
0.000178022
0.000143626
0.00137569
0.00238423
0.0030649
0.00354179
0.00388147
0.00412321
0.00429306
0.00440932
0.00448442
0.00452606
0.00453851
0.00452369
0.00448167
0.00440866
0.00429698
0.00413473
0.00390359
0.00357375
0.00310061
0.00243898
0.00160407
0.000773962
0.000161142
0.00157472
0.00275541
0.00354428
0.00408314
0.00445628
0.00471412
0.00489051
0.00500955
0.00508712
0.005132
0.00514845
0.00513823
0.0051017
0.00503557
0.00493533
0.00479365
0.00460012
0.00433829
0.00398802
0.003545
0.00304342
0.00255363
0.000181597
0.00175851
0.00311585
0.00401352
0.00460576
0.00499941
0.00525858
0.00542798
0.0055394
0.00561299
0.00565821
0.00567863
0.00567529
0.00564767
0.00559532
0.00551555
0.00540463
0.00525972
0.00507586
0.00484808
0.00459267
0.00434161
0.0041179
0.000209843
0.00193002
0.00349718
0.00451959
0.0051603
0.00555787
0.00579657
0.00594108
0.00603076
0.00609106
0.00613121
0.00615244
0.00615264
0.00613168
0.00609343
0.00603435
0.00595153
0.00584904
0.00573104
0.00559336
0.00546713
0.00536837
0.00525813
0.000245792
0.00220323
0.00391838
0.00500996
0.00564989
0.00602039
0.00623552
0.00636356
0.00644842
0.00650872
0.00655115
0.00657504
0.00657411
0.00655647
0.00653242
0.00649186
0.00642981
0.00636014
0.00629015
0.00619997
0.00615951
0.00612527
0.00604687
0.000280257
0.00242871
0.00416969
0.00524016
0.00586558
0.00623845
0.00646463
0.00661011
0.00671669
0.00679433
0.00685287
0.00689251
0.00690743
0.00690943
0.00691079
0.00689029
0.00684164
0.00678398
0.00671786
0.00665674
0.00664756
0.00662355
0.00656884
0.000303799
0.00255396
0.00427973
0.00534638
0.00597719
0.0063617
0.00660043
0.00676042
0.00688012
0.00696993
0.0070395
0.00709328
0.00712936
0.00715932
0.00719219
0.0071955
0.00717119
0.00713415
0.00706913
0.00702983
0.007015
0.00698345
0.00694208
0.000317551
0.00257031
0.00430783
0.00538578
0.00602881
0.00642641
0.00668115
0.00685016
0.00698408
0.00708719
0.00716678
0.00723011
0.00727897
0.00732259
0.00736841
0.00739666
0.0074008
0.00739128
0.00735806
0.00733165
0.0072965
0.0072488
0.00720556
0.000318471
0.00249392
0.00426193
0.00535254
0.00600817
0.00643045
0.00669886
0.0068841
0.00703474
0.0071528
0.00724499
0.00731834
0.00737645
0.00742541
0.0074775
0.00751912
0.00754501
0.00755757
0.00754934
0.00752472
0.00747253
0.00741965
0.00737736
0.000311322
0.00235468
0.00410525
0.00521214
0.00589877
0.00635044
0.00665141
0.00687011
0.00704058
0.00717151
0.00727324
0.00735346
0.00742051
0.00747947
0.00754019
0.00759445
0.0076383
0.00766099
0.00764774
0.00760769
0.00756383
0.00752753
0.00750594
0.000299396
0.00217351
0.00385711
0.00497862
0.00571323
0.00620937
0.00655823
0.00681732
0.00701073
0.00715483
0.00726555
0.00735274
0.00742642
0.0074976
0.00757087
0.00763857
0.00769404
0.00771864
0.00769998
0.00766419
0.00763657
0.00761996
0.00761298
0.000285773
0.00192626
0.00354515
0.00468552
0.00546867
0.00602
0.00642265
0.00672543
0.00694655
0.00710751
0.00722931
0.00732501
0.00740628
0.00748742
0.00757369
0.00765439
0.00771771
0.00774786
0.00774133
0.00772048
0.00770537
0.00769949
0.0076995
0.00027141
0.00169136
0.00321683
0.00435567
0.00517307
0.00577354
0.00622957
0.00657785
0.00683281
0.00701998
0.00716085
0.00727029
0.0073625
0.00745432
0.00755327
0.0076474
0.00772135
0.00776183
0.00776982
0.0077638
0.00775952
0.00776122
0.00776647
0.000256261
0.00149534
0.0029135
0.00403179
0.00486641
0.00549947
0.00599199
0.00637457
0.00666655
0.00688788
0.00705522
0.00718497
0.00729453
0.00740137
0.00751284
0.00761867
0.00770265
0.00775457
0.0077782
0.00778761
0.00779489
0.00780471
0.00781629
0.000240551
0.00134248
0.00265339
0.0037363
0.00457466
0.00522641
0.00574297
0.00615344
0.0064763
0.00672793
0.0069229
0.00707739
0.00720877
0.00733273
0.00745528
0.00756905
0.00766153
0.00772588
0.00776588
0.00779152
0.007812
0.00783186
0.00785161
0.000224698
0.00122857
0.00244317
0.00348382
0.00431658
0.00497884
0.00551152
0.00594188
0.00628791
0.00656443
0.00678509
0.00696371
0.00711607
0.00725522
0.00738652
0.00750611
0.00760648
0.00768292
0.00773849
0.00778016
0.00781461
0.0078458
0.00787498
0.00020931
0.00114767
0.00228268
0.00328063
0.00410153
0.00476774
0.00531051
0.00575435
0.00611692
0.00641244
0.00665388
0.00685365
0.0070241
0.00717624
0.00731522
0.00744004
0.00754696
0.00763404
0.00770347
0.00775987
0.00780778
0.00785045
0.00788932
0.000195114
0.00109374
0.00216685
0.00312514
0.00393012
0.00459476
0.00514266
0.00559522
0.00596933
0.00627885
0.00653609
0.00675237
0.00693766
0.00710073
0.00724684
0.00737708
0.00749053
0.00758691
0.00766796
0.00773682
0.00779667
0.00784994
0.00789797
0.000182767
0.00106031
0.00208708
0.00301002
0.0037967
0.00445547
0.00500457
0.00546237
0.00584458
0.00616446
0.0064336
0.00666238
0.00685962
0.00703208
0.00718515
0.00732127
0.00744129
0.007546
0.00763699
0.00771646
0.00778663
0.00784923
0.00790522
0.000172616
0.00104039
0.00203271
0.00292472
0.00369233
0.00434253
0.00489014
0.0053509
0.00573905
0.00606698
0.00634556
0.00658431
0.00679126
0.00697241
0.00713262
0.00727518
0.00740197
0.00751445
0.00761415
0.00770273
0.00778174
0.00785237
0.00791525
0.000164562
0.00102718
0.00199304
0.00285835
0.00360764
0.00424837
0.00479324
0.0052558
0.00564879
0.00598362
0.00627038
0.00651789
0.00673359
0.00692326
0.00709101
0.00724068
0.00737464
0.00749468
0.00760232
0.0076989
0.00778556
0.00786308
0.00793181
0.000158152
0.00101542
0.00195949
0.00280208
0.00353516
0.00416715
0.00470934
0.00517351
0.00557106
0.00591245
0.00620708
0.00646313
0.00668753
0.00688583
0.00706194
0.00721949
0.00736112
0.00748878
0.00760394
0.00770778
0.00780115
0.00788458
0.00795824
0.000152812
0.00100238
0.00192727
0.00275092
0.00347076
0.00409587
0.00463632
0.00510255
0.00550491
0.00585311
0.00615587
0.00642084
0.00665446
0.00686198
0.00704729
0.0072134
0.00736322
0.00749865
0.00762111
0.00773166
0.00783098
0.00791948
0.00799718
0.000148059
0.000988063
0.00189592
0.00270437
0.00341423
0.00403463
0.00457455
0.00504352
0.00545121
0.00580671
0.0061182
0.00639274
0.0066363
0.00685375
0.00704882
0.00722419
0.0073826
0.00752588
0.00765541
0.00777214
0.00787672
0.00796944
0.00805034
0.000143582
0.000974114
0.00186867
0.00266596
0.00336875
0.00398612
0.00452634
0.00499858
0.00541211
0.00577551
0.00609635
0.00638112
0.00663526
0.0068632
0.00706839
0.00725333
0.0074204
0.00757135
0.00770751
0.00782979
0.00793882
0.00803491
0.00811809
0.000139268
0.000963837
0.00185083
0.00264144
0.0033391
0.00395404
0.00449478
0.00497056
0.00539034
0.00576212
0.0060928
0.00638821
0.00665321
0.00689178
0.00710705
0.00730135
0.00747666
0.0076347
0.00777675
0.00790371
0.00801624
0.0081147
0.00819921
0.000135201
0.000961523
0.00184629
0.0026336
0.00332794
0.00394075
0.00448217
0.00496182
0.00538822
0.00576867
0.00610931
0.00641528
0.00669087
0.0069396
0.00716429
0.00736714
0.00754976
0.00771387
0.00786069
0.0079912
0.00810609
0.00820582
0.00829064
0.000131432
0.000963845
0.00185294
0.00264066
0.0033339
0.00394595
0.0044891
0.00497335
0.00540673
0.0057958
0.00614598
0.00646179
0.006747
0.00700475
0.00723758
0.00744752
0.00763607
0.00780481
0.00795501
0.00808768
0.00820366
0.00830351
0.00838761
0.000127914
0.000964505
0.00186558
0.00265844
0.00335357
0.00396765
0.00451448
0.00500427
0.00544471
0.00584182
0.00620048
0.00652474
0.00681798
0.00708302
0.00732219
0.00753739
0.00773007
0.00790172
0.00805366
0.00818703
0.00830276
0.00840158
0.008484
0.00012478
0.00096742
0.00188236
0.00268374
0.00338434
0.00400338
0.00455558
0.00505138
0.00549838
0.00590236
0.00626791
0.00659876
0.00689802
0.00716829
0.00741173
0.00763014
0.00782497
0.00799768
0.0081497
0.00828227
0.00839648
0.00849322
0.00857314
0.0001223
0.000975042
0.00190376
0.00271557
0.00342402
0.00404961
0.0046077
0.00510913
0.00556161
0.00597092
0.00634152
0.00667697
0.00698019
0.00725359
0.00749923
0.00771883
0.00791384
0.00808582
0.0082363
0.0083667
0.00847827
0.00857203
0.00864882
0.000120742
0.000986556
0.00192969
0.00275228
0.00346887
0.0041009
0.00466435
0.00517045
0.00562715
0.00604029
0.00641429
0.00675259
0.00705795
0.00733264
0.00757859
0.0077975
0.00799089
0.00816049
0.00830801
0.00843505
0.00854302
0.00863313
0.00870633
0.000120285
0.00100133
0.00195802
0.00279005
0.00351359
0.00415104
0.00471889
0.00522871
0.00568862
0.00610452
0.00648074
0.00682059
0.00712668
0.00740113
0.00764578
0.00786237
0.00805255
0.00821833
0.00836168
0.00848439
0.00858806
0.00867404
0.0087434
0.000120958
0.0010181
0.00198565
0.00282468
0.00355343
0.00419513
0.00476663
0.0052796
0.00574221
0.00616028
0.00653804
0.00687863
0.00718444
0.00745746
0.00769948
0.0079123
0.00809795
0.00825876
0.008397
0.00851472
0.00861366
0.00869527
0.00876072
0.000122633
0.00103562
0.00201029
0.00285357
0.00358592
0.00423105
0.00480582
0.0053218
0.00578701
0.00620711
0.00658614
0.00692699
0.00723185
0.00750253
0.00774083
0.00794876
0.00812887
0.00828395
0.0084166
0.00852906
0.00862315
0.00870038
0.00876195
0.000125055
0.00105291
0.00203104
0.0028762
0.00361099
0.00425914
0.00483716
0.00535627
0.00582424
0.00624646
0.00662672
0.00696763
0.00727112
0.00753886
0.00777273
0.00797512
0.00814925
0.00829851
0.00842575
0.0085332
0.00862266
0.00869563
0.00875341
0.000127902
0.00106907
0.00204774
0.00289317
0.0036298
0.00428089
0.00486232
0.00538482
0.00585577
0.00628032
0.00666192
0.00700289
0.00730489
0.00756951
0.00779887
0.0079959
0.00816471
0.0083092
0.00843212
0.00853536
0.00862058
0.00868937
0.00874326
0.000130833
0.00108291
0.00206009
0.00290503
0.00364341
0.00429764
0.00488273
0.00540885
0.00588302
0.00631008
0.00669321
0.00703443
0.00733517
0.00759712
0.0078229
0.00801639
0.00818248
0.00832511
0.00844586
0.0085459
0.00862697
0.00869115
0.00874052
0.000133513
0.00109276
0.00206728
0.00291183
0.00365236
0.00431006
0.00489901
0.00542886
0.00590633
0.00633602
0.00672085
0.0070626
0.00736266
0.00762318
0.00784803
0.00804269
0.0082124
0.00835879
0.00848001
0.00857695
0.00865264
0.0087106
0.00875397
0.00013564
0.00109666
0.00206841
0.00291358
0.00365694
0.00431834
0.00491113
0.00544454
0.00592511
0.00635729
0.00674384
0.00708638
0.00738652
0.00764756
0.00787625
0.00808205
0.0082702
0.00842907
0.00855125
0.00864168
0.00870788
0.00875614
0.00879094
0.000136984
0.00109361
0.00206409
0.00291133
0.00365795
0.00432283
0.00491889
0.00545522
0.0059383
0.00637249
0.00676047
0.00710381
0.00740453
0.00766786
0.00790632
0.00814149
0.00838829
0.00856639
0.00867944
0.00875202
0.00880033
0.00883341
0.00885628
0.000137387
0.00108904
0.00205924
0.00290839
0.00365731
0.00432439
0.00492242
0.00546046
0.00594498
0.00638032
0.00676911
0.00711292
0.00741408
0.00767962
0.00792936
0.00821373
0.00865777
0.00881769
0.00888148
0.00891328
0.00893193
0.00894389
0.00895186
0.000263891
0.000261023
0.000266715
0.000282989
0.00223365
0.00219074
0.00222551
0.00236562
0.00400997
0.00399367
0.00403237
0.00413132
0.00519149
0.00517264
0.00518291
0.00522178
0.00598272
0.00595272
0.00593978
0.0059472
0.00651856
0.0064913
0.00647255
0.00646745
0.00690737
0.00688494
0.0068648
0.006857
0.00717404
0.00715968
0.00715217
0.00714736
0.00736275
0.00735998
0.00735873
0.0073562
0.00750379
0.00750505
0.00750542
0.00750361
0.00761521
0.00761738
0.00761792
0.00761611
0.00770335
0.00770582
0.00770662
0.00770524
0.00777249
0.00777604
0.007778
0.00777792
0.0078259
0.00783162
0.00783577
0.00783793
0.00786604
0.00787472
0.00788184
0.00788693
0.00789496
0.00790701
0.00791747
0.00792584
0.00791502
0.00793054
0.00794437
0.00795603
0.00792926
0.00794812
0.00796513
0.00797986
0.00794133
0.00796326
0.00798315
0.00800061
0.00795555
0.00798014
0.00800251
0.00802235
0.00797563
0.00800244
0.00802684
0.00804859
0.00800493
0.00803349
0.00805948
0.00808268
0.00804612
0.00807599
0.00810312
0.00812732
0.0081009
0.00813164
0.00815946
0.0081842
0.00816962
0.00820079
0.00822885
0.0082537
0.00825103
0.00828217
0.00831003
0.00833453
0.00834209
0.00837274
0.00839998
0.00842373
0.00843803
0.0084678
0.00849403
0.00851668
0.00853283
0.00856138
0.00858632
0.00860761
0.00861994
0.00864703
0.00867047
0.00869025
0.00869328
0.00871876
0.00874062
0.00875885
0.00874829
0.00877212
0.0087924
0.00880914
0.00878283
0.00880504
0.00882381
0.00883917
0.00879765
0.00881832
0.0088357
0.00884982
0.00879648
0.00881569
0.00883178
0.00884479
0.00878558
0.00880338
0.00881824
0.00883022
0.00877294
0.00878928
0.00880287
0.00881379
0.00876731
0.00878195
0.00879405
0.00880375
0.00877701
0.00878948
0.00879972
0.00880788
0.00880893
0.00881856
0.00882641
0.00883262
0.00886778
0.00887386
0.00887877
0.00888264
0.00895578
0.00895783
0.00895947
0.00896076
0.00147859
0.00271823
0.00350843
0.00393615
0.00414548
0.00421414
0.0041821
0.0040951
0.00399841
0.0039048
0.00380905
0.00368315
0.00350719
0.00328705
0.00303198
0.00271031
0.0022162
0.00137305
0.00018894
0.00307409
0.00381278
0.00430815
0.00460568
0.00476473
0.00482473
0.00481045
0.00474211
0.00464942
0.00453886
0.00440787
0.00424359
0.00403526
0.00378136
0.00347635
0.00308136
0.00249426
0.00152605
0.000201647
0.00438952
0.0047528
0.00502774
0.00520913
0.0053127
0.00535487
0.00534671
0.00529147
0.00519399
0.00506226
0.00489872
0.00469929
0.00445887
0.00417216
0.0038243
0.00337055
0.00270974
0.00164772
0.000208157
0.00531934
0.00549089
0.00563468
0.00573499
0.00579283
0.00581373
0.00579933
0.00573853
0.00562739
0.00547457
0.00528303
0.00505437
0.00478297
0.00446371
0.00407715
0.00357469
0.00285779
0.00172615
0.000209345
0.0059817
0.00605832
0.0061304
0.00618013
0.0062009
0.00618994
0.00614412
0.00606177
0.0059377
0.00577051
0.00555726
0.00530082
0.00500556
0.00465906
0.00423813
0.0036947
0.00292696
0.00174893
0.000217202
0.00647518
0.00650002
0.00652264
0.00653303
0.00652124
0.00647721
0.00639681
0.00628262
0.00613144
0.00593718
0.00569644
0.00541421
0.00509201
0.00472357
0.0042856
0.00371638
0.0029094
0.00168503
0.00020474
0.00685089
0.00684321
0.00683102
0.00680828
0.00676586
0.00669292
0.00658381
0.00643665
0.00624865
0.00601436
0.00573363
0.00541361
0.00505624
0.0046563
0.00419386
0.00361041
0.00280659
0.00162624
0.000195581
0.00713552
0.00710844
0.00707164
0.00702116
0.0069482
0.00684286
0.00670043
0.00651848
0.00628718
0.00600475
0.00567649
0.00531353
0.00491682
0.00448252
0.00399912
0.00341653
0.00265253
0.00155776
0.00019284
0.00734447
0.00730943
0.00725684
0.00718322
0.00708123
0.00694328
0.00676473
0.00654153
0.00626572
0.00593622
0.00556185
0.00515235
0.00471178
0.00424661
0.00375206
0.00318317
0.00246764
0.0014635
0.000187272
0.00749211
0.00745569
0.00739629
0.00730874
0.00718635
0.00702267
0.00681246
0.00655071
0.00623236
0.00585898
0.00543879
0.00498144
0.00449537
0.00399429
0.00347695
0.00290419
0.00220862
0.00128854
0.000173293
0.00760473
0.00756898
0.00750777
0.00741373
0.0072796
0.00709873
0.00686536
0.00657459
0.00622377
0.00581546
0.00535596
0.00485445
0.00432082
0.00376874
0.00319939
0.002585
0.00188072
0.00103109
0.000157399
0.00769516
0.00766184
0.00760203
0.00750684
0.00736823
0.0071791
0.0069334
0.00662665
0.0062576
0.00582831
0.00534275
0.00480721
0.00422992
0.00361945
0.00297914
0.00230072
0.00158146
0.000827497
0.000140809
0.00777067
0.00774159
0.00768571
0.0075934
0.00745611
0.00726643
0.00701834
0.0067079
0.00633409
0.0058982
0.0054024
0.0048504
0.0042466
0.0035947
0.00289991
0.0021694
0.00142613
0.00072052
0.00013716
0.00783499
0.00781189
0.00776202
0.00767562
0.00754401
0.00735971
0.00711689
0.00681206
0.00644417
0.00601386
0.00552249
0.00497251
0.00436598
0.00370522
0.00299537
0.00224705
0.00148158
0.000747452
0.00014466
0.00788942
0.00787368
0.00783136
0.00775301
0.00763005
0.00745515
0.00722277
0.0069298
0.00657518
0.00615908
0.00568254
0.00514724
0.00455489
0.00390777
0.00320976
0.00246857
0.00168895
0.000875474
0.000153465
0.00793435
0.00792671
0.00789277
0.00782365
0.00771107
0.00754794
0.00732908
0.00705163
0.00671439
0.00631716
0.0058605
0.00534545
0.00477302
0.00414439
0.00346131
0.00272361
0.00192165
0.0010339
0.000160547
0.00797057
0.00797109
0.00794561
0.00788599
0.00778439
0.00763407
0.00743016
0.00716984
0.00685164
0.00647485
0.00603932
0.005545
0.00499125
0.00437653
0.00369785
0.00294767
0.00210745
0.0011462
0.00016509
0.00799998
0.00800814
0.00799061
0.00794001
0.00784908
0.00771153
0.00752271
0.00727968
0.00698052
0.0066239
0.00620869
0.00573333
0.00519491
0.00458844
0.00390553
0.00313149
0.00224087
0.00120261
0.000167857
0.0080255
0.00804033
0.00802985
0.0079874
0.00790629
0.00778071
0.00760618
0.00737954
0.0070984
0.00676066
0.00636403
0.00590525
0.00537904
0.004777
0.00408604
0.00328603
0.00234787
0.00124616
0.000170183
0.00805107
0.00807095
0.00806634
0.00803096
0.00795855
0.0078437
0.00768209
0.00747034
0.00720555
0.00688481
0.00650463
0.00606008
0.00554365
0.00494405
0.00424472
0.0034223
0.00244688
0.00129811
0.000172675
0.00808034
0.00810406
0.00810386
0.00807408
0.00800901
0.00790344
0.00775306
0.00755436
0.00730391
0.006998
0.00663198
0.00619938
0.00569073
0.00509243
0.00438541
0.00354432
0.00253875
0.00135196
0.000175411
0.00811667
0.0081431
0.008146
0.00812031
0.00806087
0.00796285
0.00782196
0.00763434
0.00739607
0.00710268
0.00674844
0.0063255
0.00582271
0.00522453
0.00450991
0.00365167
0.00261832
0.00139219
0.000178351
0.00816276
0.00819083
0.00819562
0.00817263
0.00811722
0.00802488
0.00789136
0.00771257
0.00748415
0.00720094
0.00685629
0.00644116
0.00594305
0.00534487
0.00462386
0.00375086
0.00269198
0.00142754
0.000180817
0.00822033
0.008249
0.00825455
0.008233
0.00818015
0.00809179
0.00796375
0.00779175
0.00757102
0.00729582
0.00695869
0.0065496
0.00605492
0.00545626
0.00472936
0.0038431
0.0027608
0.00146018
0.000182867
0.00828975
0.00831803
0.00832328
0.00830202
0.00825045
0.00816462
0.00804041
0.0078734
0.00765849
0.00738938
0.00705793
0.00665325
0.00616073
0.00556088
0.00482806
0.00392932
0.00282524
0.00149045
0.000184556
0.0083698
0.00839677
0.0084008
0.00837885
0.00832749
0.008243
0.00812131
0.00795787
0.00774724
0.00748268
0.00715539
0.00675373
0.00626222
0.00566036
0.00492124
0.00401025
0.00288546
0.00151837
0.00018578
0.00845754
0.00848243
0.00848452
0.00846115
0.00840923
0.00832522
0.00820512
0.00804423
0.00783684
0.00757573
0.00725153
0.00685191
0.00636055
0.00575595
0.00501003
0.00408663
0.00294169
0.00154409
0.000186175
0.00854851
0.00857074
0.0085704
0.00854518
0.00849227
0.00840832
0.00828933
0.00813049
0.00792581
0.00766764
0.00734606
0.00694803
0.00645641
0.00584871
0.00509564
0.0041596
0.00299485
0.00156868
0.000185596
0.00863709
0.00865633
0.00865338
0.00862622
0.00857229
0.00848838
0.00837052
0.00821376
0.00801186
0.00775675
0.00743797
0.00704178
0.00655018
0.00593963
0.00517956
0.00423093
0.00304666
0.0015934
0.000184716
0.00871721
0.00873343
0.00872798
0.00869913
0.00864451
0.00856105
0.00844479
0.00829068
0.0080922
0.00784092
0.00752583
0.00713248
0.00664197
0.00602961
0.00526344
0.00430277
0.00309904
0.0016185
0.000184365
0.00878331
0.00879671
0.00878915
0.00875912
0.00870446
0.00862219
0.00850839
0.00835791
0.008164
0.00791789
0.00760802
0.00721925
0.00673171
0.00611945
0.00534887
0.00437727
0.00315389
0.00164409
0.00018489
0.00883126
0.00884224
0.00883314
0.00880265
0.00874878
0.00866867
0.00855844
0.00841285
0.00822502
0.00798581
0.0076832
0.00730133
0.00681932
0.00620981
0.00543725
0.00445635
0.00321319
0.0016715
0.000186009
0.0088592
0.00886828
0.0088583
0.00882814
0.00877598
0.00869908
0.00859363
0.00845437
0.00827427
0.00804395
0.0077509
0.00737859
0.00690506
0.0063014
0.00552977
0.00454165
0.00327892
0.00170283
0.000187404
0.00886806
0.00887574
0.00886553
0.00883647
0.00878693
0.0087143
0.00861486
0.00848338
0.00831274
0.00809332
0.00781222
0.00745217
0.00699013
0.00639546
0.00562774
0.00463458
0.00335265
0.00173915
0.000189122
0.0088615
0.00886824
0.00885836
0.00883112
0.00878504
0.0087177
0.00862547
0.00850322
0.00834377
0.00813731
0.0078705
0.00752531
0.00707747
0.00649447
0.00573304
0.00473662
0.00343588
0.00178233
0.000190861
0.00884554
0.00885165
0.00884257
0.00881776
0.00877593
0.00871485
0.00863108
0.00851956
0.00837315
0.00818183
0.00793176
0.00760396
0.00717262
0.00660303
0.00584887
0.00484945
0.00352942
0.00183351
0.000192879
0.00882772
0.00883335
0.0088254
0.00880355
0.00876672
0.00871291
0.00863889
0.0085398
0.00840856
0.00823498
0.00800459
0.00769709
0.00728445
0.00672881
0.00598036
0.00497512
0.00363217
0.00188903
0.000196201
0.0088161
0.0088212
0.00881461
0.00879618
0.00876507
0.00871954
0.00865668
0.00857196
0.0084585
0.00830606
0.00809945
0.00781651
0.00742559
0.00688347
0.00613514
0.00511639
0.00374322
0.00194715
0.00020056
0.00881824
0.00882262
0.00881749
0.00880287
0.00877814
0.0087419
0.00869166
0.00862343
0.00853086
0.008404
0.00822723
0.00797605
0.00761299
0.00708407
0.00632306
0.00527578
0.00386089
0.00200634
0.000205651
0.00884048
0.00884386
0.00884023
0.0088297
0.00881189
0.00878577
0.00874944
0.00869971
0.00863133
0.00853547
0.00839712
0.00819016
0.00786892
0.00735709
0.00655347
0.00545136
0.0039794
0.0020622
0.000211019
0.00888751
0.00888962
0.00888747
0.0088812
0.0088706
0.00885506
0.00883341
0.00880363
0.00876218
0.00870276
0.00861353
0.00847067
0.00822256
0.0077523
0.0068254
0.00562793
0.00408541
0.00210752
0.000215954
0.00896238
0.00896309
0.00896239
0.00896034
0.00895689
0.00895184
0.00894483
0.00893518
0.00892168
0.00890207
0.00887155
0.00881841
0.00870648
0.00839118
0.00708984
0.00576047
0.00415428
0.00213335
0.000219257
)
;

boundaryField
{
    leftWall
    {
        type            nutkWallFunction;
        Cmu             0.09;
        kappa           0.41;
        E               9.8;
        value           nonuniform List<scalar> 
50
(
5.80542e-06
8.49714e-06
1.0095e-05
1.13009e-05
1.23007e-05
1.31955e-05
1.40469e-05
1.4898e-05
1.62921e-05
1.81203e-05
2.03603e-05
2.48633e-05
2.94212e-05
3.30256e-05
3.60686e-05
3.61392e-05
3.52398e-05
3.38558e-05
3.20652e-05
3.01631e-05
2.82084e-05
2.61864e-05
2.41238e-05
2.20776e-05
2.01281e-05
1.83632e-05
1.68512e-05
1.56134e-05
1.46173e-05
1.37955e-05
1.30747e-05
1.23983e-05
1.17346e-05
1.11846e-05
1.06886e-05
1.00646e-05
9.31865e-06
8.80027e-06
8.41534e-06
8.18735e-06
8.14354e-06
8.28498e-06
8.58688e-06
9.00584e-06
9.48899e-06
9.98135e-06
1.04307e-05
1.07901e-05
1.10235e-05
1.11047e-05
)
;
    }
    rightWall
    {
        type            nutkWallFunction;
        Cmu             0.09;
        kappa           0.41;
        E               9.8;
        value           nonuniform List<scalar> 
50
(
9.02167e-06
1.20233e-05
1.38399e-05
1.53441e-05
1.66962e-05
1.79871e-05
1.92904e-05
2.04415e-05
2.16414e-05
2.30477e-05
2.37058e-05
2.4542e-05
2.3599e-05
2.15689e-05
2.05521e-05
2.0269e-05
1.91451e-05
1.60802e-05
1.37962e-05
1.1733e-05
1.15028e-05
1.26372e-05
1.39201e-05
1.47327e-05
1.5139e-05
1.55833e-05
1.61273e-05
1.64513e-05
1.68148e-05
1.72237e-05
1.75658e-05
1.78448e-05
1.80827e-05
1.82539e-05
1.81474e-05
1.80199e-05
1.78842e-05
1.78797e-05
1.79787e-05
1.81106e-05
1.8286e-05
1.84977e-05
1.85968e-05
1.88521e-05
1.93038e-05
1.99299e-05
2.06843e-05
2.14987e-05
2.22603e-05
2.27767e-05
)
;
    }
    lowerWall
    {
        type            nutkWallFunction;
        Cmu             0.09;
        kappa           0.41;
        E               9.8;
        value           nonuniform List<scalar> 
62
(
2.59917e-06
4.33089e-06
5.3653e-06
6.10787e-06
6.70359e-06
7.20749e-06
7.64545e-06
8.03001e-06
8.36616e-06
8.65444e-06
8.89388e-06
9.08441e-06
9.22846e-06
9.33794e-06
9.4191e-06
9.45261e-06
9.40517e-06
9.27994e-06
9.1147e-06
8.83645e-06
8.21181e-06
6.89339e-06
4.12108e-06
4.12108e-06
1.30166e-05
1.49691e-05
1.63159e-05
1.76085e-05
1.93231e-05
2.2481e-05
2.71225e-05
2.97088e-05
2.94019e-05
2.99485e-05
3.15503e-05
4.02628e-06
1.35595e-05
1.5775e-05
1.77578e-05
1.98223e-05
2.22119e-05
2.55432e-05
3.08755e-05
4.02628e-06
6.93352e-06
8.13595e-06
8.66979e-06
8.92563e-06
8.94465e-06
8.72478e-06
8.31683e-06
7.70571e-06
7.08395e-06
6.88799e-06
6.77907e-06
6.24577e-06
5.94391e-06
6.12164e-06
6.24769e-06
6.11294e-06
5.31624e-06
3.81164e-06
)
;
    }
    atmosphere
    {
        type            calculated;
        value           nonuniform List<scalar> 
46
(
0.000137387
0.00108904
0.00205924
0.00290839
0.00365731
0.00432439
0.00492242
0.00546046
0.00594498
0.00638032
0.00676911
0.00711292
0.00741408
0.00767962
0.00792936
0.00821373
0.009
0.009
0.009
0.009
0.009
0.009
0.009
0.009
0.009
0.009
0.009
0.009
0.009
0.009
0.009
0.009
0.009
0.009
0.009
0.009
0.009
0.009
0.009
0.009
0.009
0.00708984
0.00576047
0.00415428
0.00213335
0.000219257
)
;
    }
    defaultFaces
    {
        type            empty;
    }
}


// ************************************************************************* //
