/*--------------------------------*- C++ -*----------------------------------*\
| =========                 |                                                 |
| \\      /  F ield         | OpenFOAM: The Open Source CFD Toolbox           |
|  \\    /   O peration     | Version:  2.3.0                                 |
|   \\  /    A nd           | Web:      www.OpenFOAM.org                      |
|    \\/     M anipulation  |                                                 |
\*---------------------------------------------------------------------------*/
FoamFile
{
    version     2.0;
    format      ascii;
    class       volScalarField;
    location    "2.65";
    object      p;
}
// * * * * * * * * * * * * * * * * * * * * * * * * * * * * * * * * * * * * * //

dimensions      [1 -1 -2 0 0 0 0];

internalField   nonuniform List<scalar> 
2268
(
763.505
762.866
762.632
762.921
763.716
764.898
766.301
767.738
769.017
769.954
770.37
770.108
769.022
767.001
763.908
759.617
753.891
747.288
740.466
733.495
726.116
719.986
716.62
704.803
704.247
704.091
704.465
705.325
706.556
707.993
709.451
710.736
711.66
712.041
711.707
710.501
708.27
704.916
700.373
694.774
688.352
681.02
673.096
665.571
659.968
657.22
646.039
645.561
645.499
646.009
646.984
648.312
649.828
651.346
652.671
653.61
653.973
653.573
652.235
649.802
646.172
641.388
635.913
629.347
621.602
613.334
605.638
599.695
596.988
587.178
586.698
586.679
587.331
588.456
589.929
591.577
593.211
594.634
595.648
596.05
595.639
594.228
591.662
587.847
582.862
577.187
570.55
562.655
554.106
545.92
539.201
536.195
528.187
527.647
527.616
528.399
529.698
531.36
533.194
535.005
536.59
537.742
538.246
537.888
536.471
533.839
529.902
524.722
518.664
511.746
503.637
494.806
486.273
478.75
475.121
469.025
468.396
468.328
469.241
470.744
472.641
474.716
476.765
478.575
479.929
480.598
480.353
478.984
476.333
472.303
466.921
460.454
452.985
444.43
435.393
426.946
418.874
413.82
409.647
408.921
408.821
409.882
411.632
413.812
416.181
418.522
420.615
422.23
423.118
423.037
421.762
419.127
415.012
409.408
402.511
394.472
385.409
376.163
368.065
359.796
351.801
350.009
349.217
349.143
350.404
352.461
354.968
357.655
360.308
362.701
364.597
365.722
365.818
364.651
362.048
357.846
352.015
344.712
336.142
326.574
317.063
309.235
300.92
288.785
702.466
706.443
708.805
708.808
706.718
703.431
700.023
698.287
698.153
700.458
704.904
708.06
710.96
712.812
713.845
719.271
727.293
733.11
734.46
646.348
648.195
649.181
648.597
646.526
643.581
640.913
640.65
643.255
645.978
648.441
650.543
653.984
656.082
656.668
660.68
668.026
673.952
676.267
589.912
589.717
589.226
588.046
585.906
583.424
581.617
582.608
587.309
590.651
591.444
593.349
597.58
601.281
600.708
602.806
609.031
614.611
617.723
533.256
531.934
530.115
528.256
526.013
523.861
522.608
524.578
529.546
535.045
535.19
537.633
542.833
547.406
546.419
546.31
550.898
555.593
559.236
476.481
474.346
471.266
468.881
466.638
464.895
463.584
466.407
472.67
478.886
480.209
483.39
488.899
492.839
492.198
490.699
493.365
496.992
501.123
419.421
416.034
412.071
409.5
407.509
406.372
404.384
407.885
415.868
422.367
424.962
427.71
434.534
437.933
437.645
435.345
436.207
438.968
443.564
361.059
356.18
352.204
349.979
348.566
348.024
345.456
348.614
357.705
365.109
367.997
370.524
378.462
382.751
382.931
379.725
379.282
381.754
386.562
300.768
294.606
291.612
290.305
289.944
290.399
288.11
288.295
297.798
306.555
309.326
312.45
320.294
325.724
326.71
323.224
322.446
325.114
330.19
256.312
255.382
255.456
257.134
259.803
262.906
266.125
269.276
272.153
274.499
275.987
276.342
275.331
272.797
268.511
262.42
254.661
245.472
235.103
224.608
215.715
207.837
200.723
126.972
125.077
125.204
127.636
131.295
135.645
140.166
144.605
148.736
152.218
154.652
155.726
155.149
152.962
149.139
143.1
134.812
124.536
112.519
100.162
89.9149
82.3672
77.1716
31.9225
30.4051
30.106
31.2867
33.6435
37.2375
41.419
45.2089
48.3597
51.2707
53.4556
54.6655
54.5034
53.443
50.9547
46.6762
40.7198
33.8642
26.6979
20.5182
16.6599
14.4652
12.7288
2.7131
2.54287
2.05632
1.82561
2.23787
3.45151
5.36964
6.84134
7.48921
8.10619
8.46908
8.56647
8.1529
7.00651
5.71363
4.19116
2.67004
1.77251
1.74977
2.25652
3.14255
3.69551
3.4984
1.31045
1.15142
0.911279
0.856411
0.992355
1.44206
2.37242
3.56833
4.24217
4.50918
4.50161
4.17863
3.38396
2.25991
1.62545
1.54235
1.48681
1.35944
1.30488
1.49934
1.97619
2.25385
2.13647
0.218614
0.0395849
0.031283
0.0809872
0.104795
0.179505
0.621525
1.48834
2.12242
2.29576
2.29872
2.15148
1.64603
1.11913
1.03883
1.04474
0.962099
0.790812
0.653848
0.671047
0.83382
0.823514
0.597291
-0.704958
-0.818293
-0.769748
-0.700272
-0.703894
-0.712552
-0.554674
-0.220096
-0.0337751
-0.120254
-0.157051
-0.0680345
0.0362123
0.17448
0.321234
0.290877
0.189846
0.0505415
-0.200352
-0.398035
-0.403065
-0.451766
-0.747401
-1.16815
-1.22401
-1.24606
-1.24107
-1.21141
-1.15187
-1.12709
-1.17795
-1.28229
-1.38558
-1.40302
-1.35533
-1.15249
-0.878653
-0.72094
-0.644635
-0.678819
-0.840345
-1.08439
-1.23295
-1.29313
-1.28095
-1.29323
-1.39397
-1.44006
-1.47836
-1.49657
-1.46838
-1.42365
-1.43749
-1.46262
-1.4792
-1.49386
-1.50318
-1.5054
-1.53032
-1.54923
-1.49635
-1.35255
-1.31456
-1.46979
-1.50581
-1.51034
-1.50588
-1.46546
-1.44402
-1.58364
-1.61607
-1.64614
-1.66733
-1.66669
-1.65348
-1.66508
-1.65434
-1.63488
-1.62745
-1.63611
-1.6506
-1.66646
-1.67192
-1.67408
-1.68522
-1.68724
-1.67163
-1.64756
-1.63353
-1.62468
-1.60651
-1.59087
-1.75827
-1.78276
-1.80665
-1.8324
-1.8566
-1.87463
-1.882
-1.8759
-1.85107
-1.82458
-1.80615
-1.79984
-1.81174
-1.81853
-1.81326
-1.80429
-1.79188
-1.78178
-1.77569
-1.76826
-1.75933
-1.74504
-1.73162
-1.91983
-1.93913
-1.95825
-1.98514
-2.02112
-2.06018
-2.07137
-2.06999
-2.06155
-2.04393
-2.01108
-1.98452
-1.97903
-1.97917
-1.97894
-1.96626
-1.94872
-1.9333
-1.91903
-1.90773
-1.89803
-1.88528
-1.87248
-2.06717
-2.08121
-2.09587
-2.11931
-2.15154
-2.18351
-2.19553
-2.19347
-2.18532
-2.1787
-2.17172
-2.15856
-2.13853
-2.12879
-2.12887
-2.11915
-2.10393
-2.08413
-2.06125
-2.04595
-2.03572
-2.0249
-2.01328
-2.20314
-2.21141
-2.22159
-2.23906
-2.26196
-2.28337
-2.29487
-2.29713
-2.29388
-2.28866
-2.28183
-2.27326
-2.26348
-2.25583
-2.25205
-2.24634
-2.23194
-2.21116
-2.19254
-2.17862
-2.16857
-2.16019
-2.1512
-2.33221
-2.33534
-2.34187
-2.35435
-2.3706
-2.38638
-2.39653
-2.40065
-2.4005
-2.3978
-2.39308
-2.38674
-2.37965
-2.37334
-2.36786
-2.36017
-2.34825
-2.33341
-2.31919
-2.30754
-2.29819
-2.29047
-2.28414
-2.45768
-2.45707
-2.4609
-2.46984
-2.48175
-2.49356
-2.50226
-2.50709
-2.50865
-2.50779
-2.50496
-2.50057
-2.4952
-2.48966
-2.48382
-2.47634
-2.46648
-2.45514
-2.44408
-2.43435
-2.42602
-2.41889
-2.41271
-2.58136
-2.57843
-2.58026
-2.58656
-2.59538
-2.60442
-2.61177
-2.61661
-2.619
-2.61929
-2.61781
-2.61487
-2.61085
-2.60614
-2.60072
-2.59407
-2.58598
-2.577
-2.5681
-2.5599
-2.55257
-2.54614
-2.54046
-2.70416
-2.70012
-2.70046
-2.70471
-2.71118
-2.71815
-2.72425
-2.72875
-2.73145
-2.73244
-2.73188
-2.73
-2.72703
-2.72319
-2.71852
-2.71287
-2.70625
-2.69901
-2.69171
-2.68476
-2.67836
-2.67263
-2.66751
-2.82658
-2.82225
-2.82157
-2.82421
-2.82885
-2.83417
-2.83913
-2.8431
-2.84581
-2.84717
-2.84724
-2.84613
-2.84401
-2.84099
-2.83715
-2.83249
-2.82709
-2.8212
-2.81518
-2.8093
-2.80376
-2.79869
-2.79409
-2.94882
-2.94469
-2.94336
-2.94479
-2.94801
-2.95198
-2.95593
-2.95931
-2.96183
-2.96335
-2.96382
-2.96329
-2.96185
-2.95957
-2.95653
-2.95278
-2.94842
-2.94364
-2.93867
-2.93371
-2.92893
-2.92448
-2.92035
-3.07094
-3.06723
-3.06555
-3.06611
-3.06825
-3.07117
-3.07425
-3.07706
-3.07931
-3.08083
-3.08155
-3.08143
-3.08053
-3.07889
-3.07656
-3.07361
-3.07013
-3.06627
-3.06219
-3.05803
-3.05392
-3.05003
-3.04635
-3.193
-3.18973
-3.18791
-3.1879
-3.18928
-3.19141
-3.19379
-3.19608
-3.19803
-3.19947
-3.2003
-3.20048
-3.19999
-3.19886
-3.19714
-3.19487
-3.19213
-3.18903
-3.18569
-3.18221
-3.17871
-3.17532
-3.17206
-3.31505
-3.31216
-3.31032
-3.31
-3.3109
-3.31247
-3.31431
-3.31617
-3.31782
-3.31913
-3.31999
-3.32034
-3.32015
-3.31942
-3.31818
-3.31647
-3.31433
-3.31186
-3.30913
-3.30624
-3.30326
-3.30033
-3.29745
-3.43719
-3.43457
-3.43277
-3.43235
-3.43302
-3.43423
-3.43567
-3.43716
-3.43854
-3.43969
-3.44052
-3.44095
-3.44095
-3.44051
-3.43963
-3.43834
-3.43668
-3.43471
-3.43248
-3.43008
-3.42756
-3.42503
-3.4225
-3.55949
-3.55703
-3.55528
-3.55499
-3.55567
-3.55665
-3.55777
-3.55894
-3.56007
-3.56104
-3.56178
-3.56222
-3.56232
-3.56206
-3.56144
-3.56046
-3.55916
-3.55758
-3.55576
-3.55375
-3.55161
-3.54943
-3.54723
-3.68277
-3.68052
-3.67889
-3.67841
-3.67904
-3.67976
-3.68055
-3.68141
-3.68227
-3.68305
-3.68367
-3.68406
-3.6842
-3.68404
-3.68358
-3.68282
-3.68178
-3.68049
-3.67899
-3.6773
-3.67548
-3.67359
-3.67167
-3.80783
-3.8058
-3.80426
-3.80339
-3.80339
-3.80356
-3.80392
-3.80445
-3.80504
-3.80562
-3.80609
-3.8064
-3.80651
-3.80639
-3.80603
-3.80541
-3.80456
-3.80348
-3.80222
-3.80078
-3.79922
-3.79759
-3.7959
-3.93381
-3.9319
-3.93038
-3.92929
-3.92824
-3.92774
-3.92769
-3.9279
-3.92824
-3.92861
-3.92893
-3.92914
-3.9292
-3.92908
-3.92875
-3.92823
-3.9275
-3.92658
-3.9255
-3.92426
-3.92291
-3.92149
-3.92002
-4.05857
-4.05722
-4.05568
-4.05415
-4.05273
-4.05194
-4.05163
-4.0516
-4.05173
-4.05192
-4.0521
-4.05221
-4.0522
-4.05205
-4.05174
-4.05126
-4.05062
-4.04982
-4.04888
-4.0478
-4.04662
-4.04539
-4.04411
-4.18217
-4.18107
-4.17956
-4.17803
-4.17682
-4.17603
-4.1756
-4.17543
-4.17541
-4.17547
-4.17552
-4.17553
-4.17545
-4.17527
-4.17495
-4.17451
-4.17393
-4.17322
-4.17239
-4.17145
-4.17042
-4.16935
-4.16823
-4.30562
-4.3044
-4.30301
-4.30176
-4.30076
-4.30005
-4.29961
-4.29936
-4.29924
-4.29919
-4.29914
-4.29906
-4.29893
-4.2987
-4.29838
-4.29796
-4.29743
-4.29679
-4.29606
-4.29524
-4.29434
-4.29342
-4.29245
-4.42919
-4.42795
-4.42664
-4.42555
-4.42471
-4.42408
-4.42366
-4.42337
-4.42319
-4.42305
-4.42293
-4.42278
-4.42259
-4.42233
-4.422
-4.4216
-4.42111
-4.42054
-4.4199
-4.41919
-4.41841
-4.41762
-4.41679
-4.5529
-4.55167
-4.55044
-4.54946
-4.54873
-4.54818
-4.54777
-4.54747
-4.54723
-4.54704
-4.54685
-4.54664
-4.54641
-4.54613
-4.5458
-4.54541
-4.54497
-4.54447
-4.54391
-4.5433
-4.54264
-4.54196
-4.54127
-4.67672
-4.67553
-4.67438
-4.6735
-4.67285
-4.67235
-4.67196
-4.67164
-4.67137
-4.67113
-4.6709
-4.67065
-4.67037
-4.67007
-4.66974
-4.66938
-4.66898
-4.66855
-4.66808
-4.66756
-4.66702
-4.66645
-4.66588
-4.80063
-4.79952
-4.79845
-4.79765
-4.79706
-4.7966
-4.79622
-4.7959
-4.79561
-4.79533
-4.79506
-4.79477
-4.79447
-4.79415
-4.79382
-4.79347
-4.79313
-4.79277
-4.79239
-4.79198
-4.79154
-4.79108
-4.79062
-4.9246
-4.92358
-4.92261
-4.92189
-4.92135
-4.92093
-4.92057
-4.92024
-4.91993
-4.91963
-4.91932
-4.919
-4.91867
-4.91833
-4.918
-4.91768
-4.91739
-4.91712
-4.91684
-4.91653
-4.91619
-4.91584
-4.91547
-5.04861
-5.04769
-5.04682
-5.04617
-5.0457
-5.04531
-5.04497
-5.04465
-5.04434
-5.04402
-5.04368
-5.04333
-5.04297
-5.0426
-5.04225
-5.04195
-5.04173
-5.04157
-5.0414
-5.0412
-5.04097
-5.04071
-5.04044
-5.17261
-5.1718
-5.17104
-5.17048
-5.17007
-5.16973
-5.16942
-5.16912
-5.16881
-5.16848
-5.16812
-5.16774
-5.16734
-5.16693
-5.16655
-5.16625
-5.16612
-5.1661
-5.16607
-5.16598
-5.16585
-5.16569
-5.1655
-5.29658
-5.29588
-5.29523
-5.29478
-5.29445
-5.29418
-5.29391
-5.29364
-5.29334
-5.29301
-5.29263
-5.29222
-5.29176
-5.29129
-5.29084
-5.29049
-5.29052
-5.29072
-5.29085
-5.29088
-5.29085
-5.29077
-5.29065
-5.42047
-5.41989
-5.41938
-5.41907
-5.41886
-5.41867
-5.41846
-5.41822
-5.41794
-5.4176
-5.41719
-5.41672
-5.41618
-5.41557
-5.41492
-5.41432
-5.41468
-5.4154
-5.41577
-5.41592
-5.41595
-5.41593
-5.41587
-5.54423
-5.54382
-5.54351
-5.5434
-5.54334
-5.54325
-5.5431
-5.54289
-5.54262
-5.54225
-5.5418
-5.54123
-5.54054
-5.53968
-5.53853
-5.53714
-5.53813
-5.54007
-5.54087
-5.54111
-5.54117
-5.54118
-5.54115
-5.66794
-5.6677
-5.6676
-5.66763
-5.66765
-5.66762
-5.66754
-5.66739
-5.66718
-5.6669
-5.66653
-5.66606
-5.66546
-5.66462
-5.66328
-5.6613
-5.66163
-5.66487
-5.66601
-5.66634
-5.66645
-5.6665
-5.66651
201.816
201.202
200.69
200.689
75.7768
74.8456
73.9816
73.7773
11.5933
11.051
10.7911
10.7006
2.93768
2.54904
2.17785
1.88098
1.76503
1.54676
1.36623
1.24489
0.2916
0.0796791
-0.0569999
-0.0205546
-0.933449
-0.991811
-1.00373
-0.989649
-1.26522
-1.25784
-1.26115
-1.27512
-1.42807
-1.42003
-1.41751
-1.42002
-1.58029
-1.5753
-1.57287
-1.57241
-1.72448
-1.7211
-1.71897
-1.71789
-1.86641
-1.86341
-1.86102
-1.85925
-2.00647
-2.00288
-1.99987
-1.9975
-2.14402
-2.13968
-2.13592
-2.13289
-2.27774
-2.2735
-2.26929
-2.26587
-2.40792
-2.40404
-2.40003
-2.39665
-2.53594
-2.53251
-2.52894
-2.52578
-2.66337
-2.6602
-2.65687
-2.65392
-2.7903
-2.78734
-2.78421
-2.78142
-2.91688
-2.91412
-2.91116
-2.90851
-3.04318
-3.0406
-3.03779
-3.03526
-3.16918
-3.16678
-3.16414
-3.16174
-3.29485
-3.29264
-3.29018
-3.28792
-3.42017
-3.41816
-3.41589
-3.41379
-3.54514
-3.54333
-3.54126
-3.53935
-3.66981
-3.66818
-3.66633
-3.66461
-3.79425
-3.79279
-3.79114
-3.78962
-3.91854
-3.91725
-3.91579
-3.91446
-4.04279
-4.04164
-4.04035
-4.0392
-4.16707
-4.16604
-4.1649
-4.1639
-4.29142
-4.29051
-4.28951
-4.28864
-4.41589
-4.41508
-4.4142
-4.41345
-4.54048
-4.53978
-4.539
-4.53836
-4.66521
-4.66459
-4.66392
-4.66336
-4.79005
-4.78953
-4.78895
-4.78847
-4.91501
-4.91457
-4.91408
-4.91368
-5.04007
-5.03971
-5.0393
-5.03897
-5.16522
-5.16493
-5.16461
-5.16434
-5.29044
-5.29023
-5.28998
-5.28978
-5.41573
-5.41558
-5.4154
-5.41526
-5.54107
-5.54097
-5.54086
-5.54077
-5.66649
-5.66647
-5.66643
-5.6664
199.974
197.289
196.439
196.878
198.765
202.276
205.16
205.367
210.429
215.689
219.253
222.823
227.878
232.855
235.171
234.479
235.05
237.665
242.684
74.4955
75.2432
76.2805
77.9502
81.6893
90.2217
102.198
109.873
112.508
114.376
115.382
115.839
116.34
117.276
118.25
118.905
120.145
123.387
128.879
10.8131
11.2796
11.8334
12.615
14.2012
18.8703
27.0323
34.3218
36.6734
36.912
35.6705
34.2653
33.5193
33.1027
32.7102
32.2574
32.6049
35.4726
39.7513
1.5934
1.64686
1.80177
1.91567
1.94729
1.59361
0.896149
1.24385
1.67665
1.25842
0.140124
-0.370077
-0.305758
-0.0329237
0.0729077
0.0148432
0.0387441
0.664697
1.64533
1.13177
1.08332
1.08263
1.05729
0.976488
0.806314
0.593818
0.229303
-0.204968
-0.489167
-0.603188
-0.677036
-0.798436
-0.91044
-0.963753
-0.954627
-0.925458
-0.914217
-0.910826
0.027469
0.0355075
0.0130506
-0.0195954
-0.0891319
-0.207441
-0.348279
-0.500023
-0.662911
-0.816801
-0.926129
-0.979638
-1.00477
-1.03783
-1.07037
-1.07959
-1.07633
-1.06907
-1.05558
-0.961344
-0.926561
-0.940387
-0.966432
-0.999974
-1.05464
-1.13236
-1.18076
-1.19124
-1.19645
-1.19901
-1.19559
-1.17946
-1.18952
-1.20275
-1.20354
-1.19888
-1.19354
-1.19154
-1.29462
-1.30677
-1.31635
-1.32866
-1.33435
-1.33231
-1.31942
-1.31235
-1.32349
-1.33088
-1.33305
-1.33377
-1.33687
-1.33953
-1.33469
-1.33093
-1.3268
-1.32736
-1.33214
-1.42749
-1.43404
-1.43974
-1.44447
-1.44706
-1.44749
-1.44732
-1.44985
-1.45619
-1.46164
-1.46343
-1.4651
-1.4676
-1.46536
-1.46152
-1.4605
-1.46195
-1.46785
-1.47424
-1.57316
-1.5767
-1.58106
-1.58472
-1.58755
-1.58948
-1.58982
-1.59009
-1.59185
-1.5925
-1.59212
-1.59051
-1.59173
-1.59226
-1.59246
-1.59503
-1.60041
-1.6042
-1.6063
-1.71735
-1.71947
-1.72158
-1.72362
-1.72582
-1.72793
-1.72863
-1.72805
-1.72629
-1.72343
-1.72296
-1.72188
-1.72367
-1.72611
-1.72867
-1.73115
-1.73085
-1.73004
-1.72984
-1.85727
-1.85637
-1.85547
-1.85558
-1.85657
-1.85788
-1.85937
-1.85954
-1.85645
-1.85475
-1.85597
-1.85967
-1.86104
-1.86178
-1.8622
-1.86001
-1.85484
-1.8532
-1.85538
-1.99432
-1.99091
-1.98861
-1.98727
-1.98684
-1.98736
-1.98789
-1.98793
-1.98712
-1.98678
-1.98839
-1.99208
-1.99395
-1.99361
-1.99098
-1.98696
-1.98381
-1.98309
-1.98552
-2.12908
-2.12553
-2.12214
-2.11953
-2.11772
-2.11697
-2.11699
-2.11727
-2.11769
-2.11776
-2.11806
-2.11908
-2.12049
-2.12026
-2.11819
-2.11697
-2.11766
-2.11839
-2.11897
-2.26161
-2.25816
-2.25494
-2.25176
-2.24912
-2.24714
-2.24635
-2.24601
-2.24615
-2.24605
-2.24571
-2.24618
-2.24681
-2.24685
-2.2465
-2.24736
-2.25035
-2.25302
-2.25277
-2.39233
-2.38858
-2.38573
-2.3829
-2.38011
-2.37767
-2.37577
-2.37468
-2.37411
-2.3737
-2.37349
-2.37377
-2.37427
-2.37464
-2.37517
-2.37674
-2.37979
-2.38331
-2.38426
-2.52169
-2.5179
-2.51478
-2.51226
-2.50976
-2.50717
-2.50476
-2.50325
-2.50234
-2.50176
-2.5015
-2.50167
-2.50214
-2.50273
-2.50361
-2.50522
-2.5077
-2.51026
-2.51126
-2.6501
-2.64641
-2.64321
-2.64042
-2.63794
-2.63543
-2.63322
-2.63165
-2.63063
-2.62997
-2.62965
-2.62972
-2.63012
-2.63076
-2.63168
-2.63305
-2.63475
-2.63618
-2.63608
-2.77782
-2.77432
-2.77114
-2.76831
-2.76576
-2.76341
-2.7614
-2.75988
-2.75885
-2.75817
-2.75781
-2.75781
-2.75813
-2.75871
-2.75954
-2.76063
-2.76178
-2.76269
-2.76204
-2.90512
-2.90175
-2.89869
-2.89593
-2.89345
-2.89124
-2.88937
-2.88792
-2.88688
-2.88622
-2.88587
-2.88582
-2.88604
-2.88652
-2.88722
-2.88808
-2.88895
-2.88976
-2.88923
-3.03205
-3.02886
-3.02595
-3.02331
-3.02095
-3.01888
-3.01712
-3.01574
-3.01472
-3.01406
-3.01371
-3.01361
-3.01376
-3.01413
-3.0147
-3.01537
-3.016
-3.01665
-3.01601
-3.15869
-3.15569
-3.15295
-3.15045
-3.14823
-3.14628
-3.14464
-3.14332
-3.14233
-3.14166
-3.14128
-3.14115
-3.14124
-3.14152
-3.14195
-3.14244
-3.14288
-3.1431
-3.1424
-3.28505
-3.28226
-3.27971
-3.27737
-3.27528
-3.27345
-3.27191
-3.27065
-3.2697
-3.26903
-3.26862
-3.26844
-3.26847
-3.26866
-3.26896
-3.26929
-3.26951
-3.26936
-3.26845
-3.41114
-3.40857
-3.40621
-3.40403
-3.40209
-3.40038
-3.39893
-3.39774
-3.39682
-3.39615
-3.39573
-3.39551
-3.39547
-3.39556
-3.39574
-3.39592
-3.39594
-3.39547
-3.39428
-3.53693
-3.5346
-3.53246
-3.53046
-3.52866
-3.52707
-3.52572
-3.5246
-3.52372
-3.52306
-3.52262
-3.52236
-3.52225
-3.52225
-3.52231
-3.52236
-3.52223
-3.52152
-3.5201
-3.66246
-3.66038
-3.65845
-3.65663
-3.65499
-3.65354
-3.65229
-3.65124
-3.6504
-3.64976
-3.64931
-3.64902
-3.64884
-3.64875
-3.6487
-3.64861
-3.64834
-3.64746
-3.64619
-3.78774
-3.78592
-3.78421
-3.78259
-3.78111
-3.77979
-3.77865
-3.77769
-3.77691
-3.7763
-3.77584
-3.77552
-3.77528
-3.7751
-3.7749
-3.77463
-3.77411
-3.77293
-3.77165
-3.91284
-3.91128
-3.90978
-3.90835
-3.90704
-3.90587
-3.90485
-3.90398
-3.90326
-3.90269
-3.90224
-3.90189
-3.90161
-3.90132
-3.90097
-3.90045
-3.89952
-3.89782
-3.89589
-4.03781
-4.03649
-4.03521
-4.03397
-4.03283
-4.0318
-4.0309
-4.03013
-4.02949
-4.02896
-4.02854
-4.02819
-4.02786
-4.02748
-4.02698
-4.0262
-4.02486
-4.02266
-4.02016
-4.16274
-4.16164
-4.16055
-4.15949
-4.15851
-4.15763
-4.15686
-4.15619
-4.15563
-4.15516
-4.15477
-4.15442
-4.15407
-4.15365
-4.15304
-4.15209
-4.15046
-4.14799
-4.14517
-4.28766
-4.28676
-4.28585
-4.28496
-4.28413
-4.28339
-4.28274
-4.28217
-4.28169
-4.28129
-4.28095
-4.28063
-4.28028
-4.27984
-4.27921
-4.27819
-4.2765
-4.27399
-4.27125
-4.41263
-4.41189
-4.41115
-4.41041
-4.40972
-4.40911
-4.40857
-4.4081
-4.40771
-4.40738
-4.40709
-4.40681
-4.4065
-4.40609
-4.40548
-4.40452
-4.40292
-4.4005
-4.39791
-4.53767
-4.53707
-4.53647
-4.53586
-4.53531
-4.53481
-4.53437
-4.534
-4.53369
-4.53343
-4.5332
-4.53297
-4.53271
-4.53235
-4.53182
-4.53097
-4.52955
-4.52731
-4.52475
-4.66279
-4.66232
-4.66183
-4.66135
-4.6609
-4.66051
-4.66016
-4.65987
-4.65963
-4.65944
-4.65927
-4.65911
-4.65891
-4.65862
-4.65817
-4.65744
-4.65619
-4.65412
-4.65183
-4.788
-4.78763
-4.78725
-4.78686
-4.78651
-4.7862
-4.78594
-4.78572
-4.78555
-4.78541
-4.7853
-4.7852
-4.78507
-4.78485
-4.78447
-4.78382
-4.78265
-4.78059
-4.77842
-4.9133
-4.91301
-4.91271
-4.91241
-4.91214
-4.9119
-4.9117
-4.91154
-4.91143
-4.91135
-4.91129
-4.91125
-4.91118
-4.91103
-4.91072
-4.91011
-4.90894
-4.90681
-4.90444
-5.03867
-5.03845
-5.03822
-5.03799
-5.03778
-5.0376
-5.03746
-5.03734
-5.03727
-5.03724
-5.03723
-5.03725
-5.03725
-5.03717
-5.03692
-5.03635
-5.0352
-5.03311
-5.03079
-5.1641
-5.16394
-5.16377
-5.16359
-5.16344
-5.1633
-5.1632
-5.16312
-5.16308
-5.16308
-5.16312
-5.16318
-5.16325
-5.16327
-5.16309
-5.16257
-5.1615
-5.15955
-5.15739
-5.28959
-5.28947
-5.28934
-5.28921
-5.2891
-5.289
-5.28892
-5.28887
-5.28885
-5.28887
-5.28893
-5.28904
-5.28919
-5.28934
-5.28928
-5.28879
-5.28784
-5.28612
-5.28418
-5.41512
-5.41503
-5.41494
-5.41484
-5.41476
-5.41469
-5.41463
-5.41459
-5.41458
-5.4146
-5.41467
-5.4148
-5.41506
-5.41549
-5.41565
-5.41508
-5.41423
-5.41277
-5.41112
-5.54068
-5.54062
-5.54055
-5.54048
-5.54042
-5.54037
-5.54033
-5.54029
-5.54028
-5.54028
-5.54032
-5.54046
-5.5409
-5.54197
-5.5425
-5.54151
-5.54067
-5.53952
-5.53822
-5.66638
-5.66636
-5.66633
-5.6663
-5.66627
-5.66624
-5.66621
-5.66618
-5.66615
-5.66613
-5.66615
-5.66627
-5.66682
-5.66868
-5.66859
-5.66753
-5.66728
-5.6666
-5.66551
)
;

boundaryField
{
    leftWall
    {
        type            calculated;
        value           nonuniform List<scalar> 
50
(
763.505
704.803
646.039
587.178
528.187
469.025
409.647
350.009
256.312
126.972
31.9225
2.7131
1.31045
0.218614
-0.704958
-1.16815
-1.39397
-1.58364
-1.75827
-1.91983
-2.06717
-2.20314
-2.33221
-2.45768
-2.58136
-2.70416
-2.82658
-2.94882
-3.07094
-3.193
-3.31505
-3.43719
-3.55949
-3.68277
-3.80783
-3.93381
-4.05857
-4.18217
-4.30562
-4.42919
-4.5529
-4.67672
-4.80063
-4.9246
-5.04861
-5.17261
-5.29658
-5.42047
-5.54423
-5.66794
)
;
    }
    rightWall
    {
        type            calculated;
        value           nonuniform List<scalar> 
50
(
734.46
676.267
617.723
559.236
501.123
443.564
386.562
330.19
242.684
128.879
39.7513
1.64533
-0.910826
-1.05558
-1.19154
-1.33214
-1.47424
-1.6063
-1.72984
-1.85538
-1.98552
-2.11897
-2.25277
-2.38426
-2.51126
-2.63608
-2.76204
-2.88923
-3.01601
-3.1424
-3.26845
-3.39428
-3.5201
-3.64619
-3.77165
-3.89589
-4.02016
-4.14517
-4.27125
-4.39791
-4.52475
-4.65183
-4.77842
-4.90444
-5.03079
-5.15739
-5.28418
-5.41112
-5.53822
-5.66551
)
;
    }
    lowerWall
    {
        type            calculated;
        value           nonuniform List<scalar> 
62
(
792.935
792.295
792.061
792.351
793.146
794.327
795.73
797.167
798.447
799.383
799.8
799.537
798.451
796.431
793.337
789.046
783.211
776.238
769.457
762.884
755.504
749.292
745.909
716.62
657.22
596.988
536.195
475.121
413.82
351.801
288.785
263.869
263.251
262.87
263.037
702.466
646.348
589.912
533.256
476.481
419.421
361.059
300.768
730.323
734.305
737.237
737.618
735.466
732.234
728.844
726.146
725.518
727.823
733.804
737.311
740.209
742.052
742.365
747.791
755.995
761.893
763.088
)
;
    }
    atmosphere
    {
        type            calculated;
        value           nonuniform List<scalar> 
46
(
-5.72904
-5.72904
-5.72904
-5.72904
-5.72904
-5.72904
-5.72904
-5.72904
-5.72904
-5.72904
-5.72904
-5.72904
-5.72904
-5.72904
-5.72904
-5.72904
-5.72904
-5.72905
-5.72908
-5.72912
-5.72916
-5.7292
-5.72924
-5.72927
-5.72928
-5.72929
-5.7293
-5.72931
-5.72933
-5.72933
-5.72933
-5.72932
-5.72931
-5.72928
-5.72925
-5.72921
-5.72917
-5.72913
-5.7291
-5.72906
-5.72904
-5.72904
-5.72956
-5.731
-5.731
-5.72966
)
;
    }
    defaultFaces
    {
        type            empty;
    }
}


// ************************************************************************* //
