/*--------------------------------*- C++ -*----------------------------------*\
| =========                 |                                                 |
| \\      /  F ield         | OpenFOAM: The Open Source CFD Toolbox           |
|  \\    /   O peration     | Version:  2.3.0                                 |
|   \\  /    A nd           | Web:      www.OpenFOAM.org                      |
|    \\/     M anipulation  |                                                 |
\*---------------------------------------------------------------------------*/
FoamFile
{
    version     2.0;
    format      ascii;
    class       volScalarField;
    location    "2.65";
    object      p_rgh;
}
// * * * * * * * * * * * * * * * * * * * * * * * * * * * * * * * * * * * * * //

dimensions      [1 -1 -2 0 0 0 0];

internalField   nonuniform List<scalar> 
2268
(
792.935
792.295
792.061
792.351
793.146
794.327
795.73
797.167
798.447
799.383
799.8
799.537
798.451
796.431
793.337
789.046
783.211
776.238
769.457
762.884
755.504
749.292
745.909
793.091
792.536
792.379
792.753
793.613
794.843
796.281
797.739
799.024
799.948
800.329
799.995
798.789
796.558
793.204
788.63
781.92
774.911
767.579
760.51
753.646
748.195
745.38
793.186
792.708
792.646
793.156
794.131
795.459
796.975
798.493
799.817
800.757
801.12
800.72
799.382
796.949
793.319
788.486
781.327
773.611
765.87
757.605
750.296
746.791
744.134
793.184
792.704
792.684
793.337
794.461
795.934
797.582
799.216
800.64
801.653
802.055
801.644
800.233
797.667
793.852
788.866
782.893
773.933
764.636
756.807
750.957
745.058
742.199
793.052
792.512
792.481
793.264
794.563
796.225
798.059
799.869
801.454
802.607
803.111
802.753
801.335
798.703
794.766
789.586
783.483
776.4
768.23
759.67
751.137
743.613
739.983
792.748
792.119
792.051
792.964
794.467
796.364
798.439
800.488
802.298
803.652
804.321
804.076
802.707
800.056
796.026
790.643
784.177
776.708
768.153
759.116
750.669
742.596
737.54
792.229
791.503
791.402
792.464
794.213
796.394
798.763
801.104
803.196
804.811
805.7
805.618
804.343
801.708
797.594
791.99
785.093
777.054
767.99
758.744
750.646
742.376
734.38
791.449
790.657
790.584
791.844
793.901
796.408
799.095
801.748
804.141
806.037
807.163
807.258
806.091
803.489
799.287
793.455
786.152
777.582
768.013
758.499
750.666
742.348
730.215
730.323
734.305
737.237
737.618
735.466
732.234
728.844
726.146
725.518
727.823
733.804
737.311
740.209
742.052
742.365
747.791
755.995
761.893
763.088
729.919
735.613
737.27
736.676
734.594
731.647
728.977
728.712
726.383
730.451
736.195
738.297
741.738
742.451
743.434
748.263
755.79
761.715
763.557
729.563
736.35
736.048
734.86
732.681
730.197
728.387
729.377
732.968
727.715
737.085
739.605
738.106
733.949
736.872
747.215
755.303
760.88
763.991
728.786
736.272
735.717
733.591
731.312
729.332
728.084
730.054
732.996
726.564
729.467
731.967
728.336
732.896
731.791
743.448
755.675
760.368
763.998
727.92
736.76
735.66
733.276
730.971
727.642
727.699
730.59
722.438
725.124
726.446
731.824
727.386
731.277
730.602
742.735
756.525
760.263
764.274
729.126
738.066
735.219
732.649
730.658
726.95
724.833
730.773
726.235
723.323
725.95
746.997
725.905
729.319
728.992
742.67
757.987
760.748
765.215
742.652
737.741
734.103
731.882
730.469
729.669
713.858
729.377
738.441
723.923
744.579
751.177
745.062
727.07
727.242
748.286
759.563
762.039
766.845
741.283
735.194
732.261
730.958
730.6
730.951
688.404
727.606
737.043
745.832
748.572
751.653
759.497
747.702
743.995
759.639
760.71
763.899
768.976
789.779
788.849
788.923
790.601
793.27
796.373
799.592
802.743
805.621
807.966
809.454
809.809
808.798
806.264
801.978
795.886
788.125
778.929
768.539
758.006
749.074
741.148
732.538
784.4
781.309
779.816
782.478
788.688
794.306
798.828
803.266
807.397
810.88
813.313
814.387
813.811
811.623
807.79
801.732
793.385
780.864
753.224
705.843
655.7
626.702
621.087
382.072
352.945
348.704
361.29
381.438
412.024
447.309
489.041
532.845
569.68
602.321
625.931
635.235
634.436
623.951
595.527
534.975
441.867
328.866
228.919
165.305
132.556
116.415
13.417
12.8076
9.02302
7.4176
9.49695
15.0993
25.1812
31.5835
32.3931
41.1123
51.0978
61.5029
72.7497
78.2347
72.5292
46.6899
18.9038
5.47032
5.44757
5.95329
6.84036
7.41037
7.35098
9.20083
12.6128
7.09457
5.83683
6.46912
8.64732
18.1758
22.9887
20.2173
20.0383
19.8557
19.7016
19.2985
15.9145
9.0342
5.75325
5.69457
5.56651
5.51106
5.70641
6.78504
14.404
15.4636
8.9061
10.7314
6.9477
5.53484
5.55627
9.47765
13.8231
27.0679
27.7008
27.884
27.877
27.6961
27.0925
14.6312
5.85754
5.76999
5.6828
5.50814
5.37464
5.54767
16.6329
18.0894
17.8951
4.71543
3.51707
4.64619
5.37008
5.00513
2.9692
4.97277
23.0523
28.3164
28.1159
26.5776
28.1168
21.7006
6.91155
5.84451
9.45498
12.3814
6.37991
5.07887
5.95254
17.9379
18.6851
10.0058
0.553826
0.325968
1.39548
2.35313
1.41255
0.916881
3.57548
6.12336
2.96915
0.121676
0.103085
0.198793
6.81821
13.4828
13.7521
13.8386
13.8032
13.6424
5.0093
1.99758
3.98723
1.87924
0.117303
0.249545
0.141702
0.113354
0.151065
0.357578
0.714701
3.04051
1.67137
0.161904
0.14602
0.135969
0.13199
0.105996
0.109663
2.17693
9.0056
10.591
3.34079
0.542199
0.0278243
0.0306261
0.0703568
0.0917758
0.124263
0.062253
0.0312434
0.0284186
0.267732
2.42132
2.99598
2.8182
1.07083
0.194952
0.145665
0.119379
0.103439
0.098043
0.107989
0.0113491
-0.0183849
-0.00849188
0.0137641
0.0561363
0.0904318
0.0716924
0.0702037
0.0453476
0.00944194
-0.0155124
-0.0343768
0.213588
2.70998
2.97067
2.9423
2.93657
2.72393
1.18911
0.219125
0.0917155
0.26091
0.976717
0.997102
0.520366
0.0915505
0.0103498
0.0188744
0.0943021
0.16227
0.0621046
-0.00260594
-0.0258765
-0.0457784
-0.0668778
0.0846858
0.972129
1.08056
0.559742
0.279221
0.882542
1.67463
1.70119
0.43673
0.193
1.02396
1.02286
1.02381
0.64634
-0.00829881
0.00661938
0.124232
0.158604
0.152684
-0.0291169
-0.0444062
-0.0595278
-0.0820274
-0.0610326
-0.139197
-0.157238
-0.157641
-0.149507
-0.142901
-0.115136
-0.00430782
0.0851165
0.0341467
0.175801
0.638926
0.42575
-0.0483265
-0.0254493
-0.01012
0.038951
0.152906
0.161838
-0.0414364
-0.0500613
-0.0604436
-0.0778935
-0.100228
-0.121118
-0.133653
-0.136127
-0.132884
-0.127669
-0.120837
-0.112262
-0.102481
-0.0948387
-0.0910506
-0.0853413
-0.070947
-0.0501638
-0.0315387
-0.0176241
-0.00756492
0.0127725
0.154387
-0.0458009
-0.0490295
-0.0556294
-0.0681102
-0.084238
-0.0999607
-0.110196
-0.114435
-0.114297
-0.111604
-0.106888
-0.100547
-0.0934573
-0.0871536
-0.081673
-0.0739749
-0.0620594
-0.0472218
-0.0330019
-0.0213528
-0.0119989
-0.00427747
0.0056435
-0.0462268
-0.0456392
-0.0494927
-0.058437
-0.0703247
-0.0821401
-0.0908476
-0.0956917
-0.0972562
-0.096401
-0.0935773
-0.0891803
-0.0838173
-0.0782719
-0.0724393
-0.0649502
-0.0550977
-0.0437562
-0.0326914
-0.0229676
-0.0146329
-0.00746562
-0.00115833
-0.0447491
-0.0418318
-0.0436682
-0.0499776
-0.0587873
-0.0678309
-0.0751776
-0.0800276
-0.0824148
-0.0827078
-0.0812288
-0.0782889
-0.0742663
-0.069555
-0.0641384
-0.057493
-0.0494046
-0.0404231
-0.0315244
-0.023325
-0.0159917
-0.00941012
-0.00298137
-0.0423676
-0.0383287
-0.0386828
-0.0429337
-0.0494038
-0.0563717
-0.0624716
-0.0669747
-0.0696766
-0.0706629
-0.0701083
-0.0682267
-0.0652576
-0.061417
-0.0567453
-0.0510954
-0.0444717
-0.037231
-0.0299343
-0.0229884
-0.0165887
-0.01077
-0.00522835
-0.0395237
-0.0352584
-0.0345973
-0.0372408
-0.0418805
-0.0471926
-0.0521523
-0.0561298
-0.0588335
-0.060195
-0.0602655
-0.059164
-0.0570393
-0.0540244
-0.0501835
-0.0455198
-0.0401201
-0.0342351
-0.0282124
-0.022336
-0.0167881
-0.0117137
-0.00711942
-0.0364996
-0.0324952
-0.0311969
-0.032626
-0.0358394
-0.0398135
-0.0437581
-0.0471454
-0.049668
-0.0511822
-0.0516553
-0.0511292
-0.0496857
-0.0474103
-0.0443685
-0.040615
-0.0362548
-0.0314741
-0.0265048
-0.0215503
-0.0167673
-0.0123133
-0.00819128
-0.0334222
-0.0298148
-0.0281885
-0.0287513
-0.0308909
-0.0338105
-0.0368917
-0.0397016
-0.0419528
-0.0434743
-0.0441857
-0.0440746
-0.0431732
-0.0415312
-0.039203
-0.036253
-0.0327767
-0.0289142
-0.0248285
-0.0206688
-0.0165658
-0.0126691
-0.00899397
-0.0302758
-0.027048
-0.0253398
-0.0253464
-0.0267273
-0.0288529
-0.0312354
-0.0335272
-0.0354782
-0.0369191
-0.0377487
-0.0379218
-0.0374354
-0.0363113
-0.0345869
-0.0323177
-0.0295808
-0.0264814
-0.0231376
-0.019661
-0.01616
-0.0127701
-0.00951051
-0.02713
-0.0243205
-0.0225623
-0.0222509
-0.0231529
-0.0247202
-0.0265643
-0.0284169
-0.0300739
-0.0313839
-0.0322433
-0.032591
-0.0324019
-0.0316766
-0.0304356
-0.0287182
-0.0265839
-0.02411
-0.0213835
-0.0184886
-0.0155143
-0.0125807
-0.009707
-0.0242083
-0.021617
-0.019826
-0.0194056
-0.0200764
-0.021285
-0.0227268
-0.0242161
-0.0255988
-0.0267496
-0.027573
-0.028004
-0.0280057
-0.0275645
-0.0266866
-0.0253968
-0.0237375
-0.0217648
-0.0195426
-0.017135
-0.0146139
-0.0120841
-0.00956316
-0.0213448
-0.0188872
-0.01714
-0.0168512
-0.0175269
-0.0185077
-0.019627
-0.0208016
-0.0219261
-0.0228993
-0.0236379
-0.0240793
-0.024182
-0.0239235
-0.0233001
-0.0223245
-0.0210255
-0.0194427
-0.0176228
-0.0156145
-0.0134753
-0.0112958
-0.009091
0.0222366
0.0373043
0.0535961
0.00940935
-0.0151199
-0.0164297
-0.0172125
-0.0180742
-0.0189388
-0.0197177
-0.0203356
-0.0207326
-0.0208656
-0.0207071
-0.0202471
-0.0194896
-0.0184526
-0.0171638
-0.0156571
-0.0139689
-0.0121452
-0.0102641
-0.00833781
0.0783151
0.0822458
0.0838797
0.0835616
-0.00408663
-0.0150184
-0.0153935
-0.0159211
-0.0165161
-0.0170881
-0.0175614
-0.0178765
-0.0179888
-0.0178684
-0.0175012
-0.0168858
-0.0160323
-0.0149597
-0.0136922
-0.012257
-0.010691
-0.0090617
-0.00737841
0.0671408
0.0847192
0.0861517
0.0563668
-0.00926984
-0.0140134
-0.0139703
-0.0141809
-0.0145198
-0.0148891
-0.0152103
-0.0154232
-0.0154827
-0.0153589
-0.0150353
-0.014507
-0.013779
-0.0128638
-0.0117786
-0.0105436
-0.00918871
-0.00777225
-0.00630128
-0.0104846
0.0444414
0.0273855
-0.00962572
-0.0126768
-0.0129853
-0.0127126
-0.0126849
-0.0128154
-0.0130076
-0.0131859
-0.0132924
-0.0132848
-0.0131341
-0.0128238
-0.012347
-0.0117053
-0.0109066
-0.00996292
-0.00888931
-0.00771024
-0.00647646
-0.00519287
-0.0180209
-0.0163855
-0.015328
-0.0138953
-0.0127041
-0.0118894
-0.0114891
-0.0113242
-0.011306
-0.0113574
-0.0114126
-0.0114207
-0.0113442
-0.0111575
-0.0108448
-0.0103991
-0.00981968
-0.00911109
-0.00828177
-0.00734281
-0.00631439
-0.00524081
-0.00412482
-0.0163181
-0.0150799
-0.0136991
-0.0124568
-0.0114521
-0.010742
-0.0103003
-0.0100574
-0.00993951
-0.00988397
-0.00983847
-0.00976151
-0.00962221
-0.00939911
-0.00907881
-0.00865443
-0.00812421
-0.00749041
-0.00675869
-0.00593707
-0.00504205
-0.00411218
-0.00314808
-0.0146937
-0.0134502
-0.0121445
-0.0110535
-0.0102074
-0.00958669
-0.00915734
-0.00887462
-0.00868879
-0.00855312
-0.00842762
-0.00828043
-0.00808775
-0.00783295
-0.00750549
-0.00709966
-0.00661332
-0.00604705
-0.00540405
-0.00468947
-0.00391644
-0.00311812
-0.00229305
-0.0132051
-0.0119755
-0.0107442
-0.00976934
-0.00903826
-0.00848728
-0.00807704
-0.00777328
-0.00754041
-0.00734444
-0.0071561
-0.00695228
-0.00671596
-0.0064356
-0.00610417
-0.00571793
-0.00527519
-0.00477496
-0.00421744
-0.00360463
-0.00294618
-0.00227016
-0.00157315
-0.0118335
-0.0106478
-0.00949501
-0.00861315
-0.00796477
-0.00746526
-0.00707158
-0.00675496
-0.0064883
-0.00624653
-0.0060088
-0.00575935
-0.00548741
-0.00518667
-0.00485439
-0.00449008
-0.00409368
-0.00366206
-0.00319078
-0.00267784
-0.00212919
-0.00156802
-0.000989416
-0.0105515
-0.00943657
-0.00837034
-0.00756922
-0.00698369
-0.00652319
-0.0061439
-0.00581991
-0.00552917
-0.00525266
-0.00497572
-0.00468854
-0.00438595
-0.00406711
-0.00373484
-0.00339388
-0.00304857
-0.00269175
-0.00231084
-0.0018984
-0.00145651
-0.00100392
-0.000534945
-0.0093285
-0.00830523
-0.00733431
-0.00661017
-0.00607929
-0.00565346
-0.00529005
-0.00496478
-0.00465852
-0.00435622
-0.00404758
-0.00372733
-0.00339521
-0.00305612
-0.00272032
-0.00240147
-0.00211442
-0.00184391
-0.00156171
-0.00125294
-0.000916075
-0.000566472
-0.000198926
-0.00813508
-0.00721742
-0.00634867
-0.00570404
-0.0052293
-0.00484157
-0.00450002
-0.00418135
-0.00386821
-0.00354802
-0.00321325
-0.00286176
-0.00249722
-0.00213027
-0.00178113
-0.00147865
-0.00126138
-0.00109751
-0.00092805
-0.00072879
-0.000496093
-0.000243975
3.04057e-05
-0.00694251
-0.00613639
-0.0053742
-0.00481725
-0.00440835
-0.00406868
-0.00375901
-0.00345692
-0.00314635
-0.00281612
-0.00246006
-0.00207742
-0.00167442
-0.00126682
-0.000886792
-0.000586315
-0.000459461
-0.000437632
-0.000400987
-0.00031816
-0.000187855
-2.63639e-05
0.000164235
-0.00571693
-0.0050212
-0.00437145
-0.00391949
-0.00359499
-0.00331915
-0.00305453
-0.00278039
-0.002482
-0.00214888
-0.00177469
-0.00135789
-0.000904512
-0.000432299
1.76377e-05
0.000365628
0.000343432
0.000138911
1.11904e-05
-2.4779e-05
1.15164e-05
9.40083e-05
0.000213053
-0.00441411
-0.00383516
-0.00332193
-0.00301288
-0.0028036
-0.00261188
-0.00240506
-0.00216625
-0.00188258
-0.00154358
-0.00114091
-0.000669117
-0.000127801
0.000479487
0.00112984
0.00173429
0.00137167
0.000656529
0.000280171
0.000133015
9.92636e-05
0.000123554
0.000187653
-0.00298116
-0.00257611
-0.0022649
-0.00215624
-0.00209305
-0.00199865
-0.00185285
-0.00164566
-0.00136689
-0.00100561
-0.000549462
1.47959e-05
0.000704085
0.00157003
0.00271857
0.00410409
0.00311989
0.00117955
0.000379142
0.000140609
7.68577e-05
7.16011e-05
0.000100976
-0.00149333
-0.00125373
-0.00116072
-0.00118973
-0.00121018
-0.00118045
-0.00109446
-0.000948769
-0.000737823
-0.000453719
-8.49359e-05
0.000385177
0.000986338
0.00181946
0.00315885
0.00514389
0.0048122
0.00156831
0.000432976
0.000103656
-6.33449e-06
-5.24133e-05
-6.9007e-05
730.65
729.992
730.6
732.028
647.949
649.561
651.156
654.037
115.143
114.761
120.451
126.841
7.06674
6.87462
6.55987
6.27703
9.80733
7.02945
6.36748
6.24663
17.3481
15.7329
9.29324
6.79929
0.84483
0.293455
0.281554
2.16144
0.145317
0.152687
0.14938
0.135431
0.107723
0.115763
0.118294
0.115813
0.0807672
0.085792
0.0883312
0.0901476
0.0618706
0.0653987
0.0677989
0.0748331
0.045368
0.048575
0.0523939
0.0795181
0.0888045
0.0339359
0.0362173
0.0459099
0.122313
0.0221392
0.025272
0.0281966
0.104138
0.0282871
0.017004
0.0203906
0.0035265
0.00849073
0.0153644
0.0149493
0.000709037
0.00413027
0.00775293
0.011282
-0.00126833
0.0016994
0.00491282
0.00785314
-0.00318887
-0.000175971
0.00283728
0.00554723
-0.00472053
-0.00195759
0.00100662
0.00365722
-0.00582004
-0.00323965
-0.000433123
0.00209387
-0.00662483
-0.00422921
-0.00158622
0.000816609
-0.00710243
-0.00489804
-0.00243314
-0.000170307
-0.00722724
-0.00521855
-0.00294827
-0.00084851
-0.00700479
-0.00519067
-0.00312704
-0.00121179
-0.00647801
-0.0048506
-0.00299693
-0.00127924
-0.00572103
-0.00426714
-0.00261711
-0.00109871
-0.00482471
-0.00352854
-0.00206815
-0.00074012
-0.00387917
-0.00272488
-0.0014358
-0.000281683
-0.00295965
-0.001933
-0.000796051
0.000204172
-0.00211996
-0.00120895
-0.000206628
0.000659741
-0.00139256
-0.000587528
0.000294704
0.00104498
-0.000792287
-8.56788e-05
0.000687748
0.00133637
-0.0003211
0.000292911
0.000965939
0.00152401
2.72288e-05
0.000553295
0.00113217
0.00160804
0.000263121
0.000705318
0.00119498
0.0015951
0.00039842
0.000760838
0.00116572
0.00149545
0.000445108
0.000732241
0.00105671
0.00132075
0.000415299
0.000632234
0.000880763
0.0010836
0.000320729
0.000472535
0.000649692
0.000796291
0.000182325
0.000277575
0.000389123
0.000481673
-5.08949e-05
-2.24967e-05
1.24922e-05
4.14727e-05
732.289
729.639
728.877
729.328
731.191
734.541
651.96
621.891
683.41
710.583
725.717
738.196
755.811
760.067
761.269
751.194
751.973
765.501
772.904
657.496
658.972
653.235
646.529
652.343
679.17
631.001
514.122
532.95
552.684
583.981
613.026
630.316
660.435
691.905
712.57
729.097
726.233
725.145
133.718
138.258
138.068
140.7
155.139
234.56
398.753
507.86
517.458
518.059
510.642
489.498
468.905
452.86
438.989
421.822
411.8
435.511
485.113
5.98969
5.95675
5.89956
5.85407
5.83581
5.42821
4.50703
27.9033
42.5373
34.8082
10.5125
1.77778
6.61963
14.1039
15.883
12.84
10.596
19.5724
37.6801
6.25504
7.91222
7.67007
7.18863
6.86288
6.14112
4.61263
2.85902
2.29216
1.95362
1.83356
1.78018
0.889956
0.178248
0.118712
0.114296
0.170322
0.221387
0.333769
11.2092
11.2239
11.1791
11.1249
11.0553
10.937
10.7766
10.4098
7.36462
4.59927
2.66676
1.82484
0.254813
0.175836
0.138132
0.10353
0.109761
0.126171
0.280809
4.43376
6.19254
6.05437
6.07154
5.72073
4.84433
2.26827
0.121768
0.109346
0.104066
0.101583
0.105324
0.669479
0.635492
0.129717
0.105464
0.11093
0.12062
0.361791
0.11604
0.104474
0.0968725
0.087194
0.0834705
0.0877386
0.104736
0.117646
0.10376
0.0963722
0.0941992
0.152318
0.439335
0.26701
0.100482
0.105078
0.109771
0.259257
0.40156
0.127488
0.152911
0.147001
0.123602
0.134009
0.179564
0.230215
0.263914
0.162451
0.0923508
0.0905679
0.0889182
0.0895419
0.0919223
0.0983033
0.146306
0.314898
0.349618
0.348172
0.147165
0.212677
0.211803
0.210287
0.221368
0.271284
0.274809
0.274372
0.240719
0.0882355
0.0886387
0.0947726
0.164147
0.277237
0.306577
0.335937
0.330275
0.273627
0.0890766
0.121884
0.159262
0.0956582
0.0634256
0.060869
0.0585083
0.142073
0.25191
0.105528
0.0841659
0.105561
0.334798
0.33555
0.333133
0.330153
0.287691
0.103074
0.0896585
0.0896648
0.0993201
0.062198
0.0574747
0.0563948
0.0551313
0.0537831
0.0520539
0.0523978
0.109306
0.130322
0.11435
0.293672
0.342597
0.341408
0.229869
0.0663232
0.077847
0.0895773
0.139985
0.0690992
0.0929707
0.085827
0.0725259
0.0541755
0.0492659
0.048262
0.07927
0.148868
0.149354
0.12089
0.058528
0.131323
0.145533
0.0673579
0.0587007
0.153476
0.174664
0.172238
0.037104
0.0877322
0.0917441
0.0943526
0.0917676
0.0447292
0.0441868
0.0471231
0.0834455
0.0923566
0.0431884
0.0422117
0.0408604
0.0412461
0.0429129
0.0511901
0.139833
0.171873
0.171479
0.024597
0.0316237
0.0840582
0.0902972
0.0924898
0.0754439
0.0400299
0.0403669
0.0402352
0.0403333
0.0407131
0.0424822
0.0423109
0.0404603
0.0397804
0.038882
0.0359305
0.0877092
0.170182
0.019073
0.0228041
0.0256691
0.071617
0.088974
0.0764942
0.0358166
0.0369093
0.037505
0.0381496
0.0382685
0.0395021
0.040211
0.0398411
0.0380463
0.0346486
0.0315979
0.0320353
0.10434
0.0149089
0.0186801
0.0217949
0.0243207
0.0427092
0.0358247
0.032153
0.0335649
0.0363872
0.037618
0.0360313
0.0353571
0.0348876
0.0348767
0.0332866
0.031364
0.0288918
0.0266349
0.0256835
0.0116703
0.0153679
0.018565
0.0213492
0.0238335
0.0263401
0.0285543
0.0305643
0.0340807
0.0347386
0.0350658
0.0332432
0.0316519
0.0310161
0.0300914
0.0287232
0.0270251
0.0262122
0.0398736
0.00914402
0.0126495
0.015829
0.0186621
0.021207
0.0235543
0.0255729
0.027243
0.028884
0.0318784
0.0322323
0.0322364
0.0291489
0.0282642
0.0274296
0.0263433
0.0251878
0.0271743
0.119644
0.00704195
0.0104166
0.0134714
0.0162363
0.0187102
0.0209188
0.0227956
0.0242455
0.0252786
0.0270742
0.0295083
0.0290765
0.0265864
0.0256535
0.0249768
0.0240901
0.0232163
0.0258831
0.121908
0.00530381
0.00850246
0.011406
0.0140511
0.0164086
0.0184822
0.0202353
0.0216206
0.022635
0.0232987
0.0240742
0.0239159
0.0238743
0.023559
0.0229687
0.022011
0.0213629
0.0229553
0.124578
0.00385974
0.00686433
0.00959793
0.0120981
0.0143245
0.0162707
0.0179161
0.0192344
0.0202216
0.020892
0.0212741
0.0214067
0.0213561
0.0213915
0.0209632
0.0201383
0.0196742
0.0217444
0.127589
0.00269187
0.00548813
0.00803823
0.0103806
0.01247
0.0142946
0.0158414
0.0170946
0.0180509
0.018721
0.0191285
0.0193039
0.0192782
0.0192908
0.0188958
0.0184679
0.0182415
0.019176
0.128124
0.0018049
0.00437565
0.00673082
0.00890636
0.0108541
0.0125589
0.0140106
0.0151988
0.0161211
0.0167864
0.0172146
0.0174333
0.0174752
0.01738
0.0172044
0.0170231
0.0170015
0.0174731
0.127355
0.00120292
0.00353139
0.00568072
0.00768046
0.0094801
0.0110619
0.0124168
0.0135368
0.0144205
0.0150755
0.0155197
0.0157793
0.0158874
0.0158854
0.0158244
0.0157742
0.0159015
0.0166177
0.13056
0.000874788
0.00294874
0.00488286
0.00669794
0.00834106
0.00979299
0.0110452
0.0120909
0.0129287
0.0135659
0.0140194
0.0143151
0.0144869
0.0145769
0.0146335
0.0147197
0.0149901
0.0158675
0.130238
0.000786587
0.00260141
0.00431511
0.00593887
0.00741769
0.00873198
0.0098735
0.0108361
0.0116189
0.012229
0.0126833
0.0130086
0.0132414
0.0134278
0.0136214
0.0138958
0.014419
0.0155911
0.0473174
0.000883474
0.00244406
0.00393844
0.00536882
0.00667884
0.00784945
0.00887285
0.00974354
0.0104612
0.0110335
0.0114785
0.0118246
0.0121129
0.0123978
0.0127492
0.0132746
0.0142008
0.0158979
0.0178309
0.00109954
0.00242008
0.00370324
0.00494381
0.00608535
0.00710985
0.00801022
0.00878179
0.0094252
0.00994925
0.0103729
0.0107273
0.0110581
0.0114292
0.0119303
0.0127106
0.0140575
0.0162528
0.0187884
0.00136975
0.00247153
0.00355737
0.00461704
0.00559527
0.00647555
0.00725169
0.00792014
0.0084826
0.0089488
0.00933865
0.00968474
0.0100359
0.0104623
0.0110666
0.012023
0.0136455
0.0161221
0.0598094
0.00163878
0.00254678
0.00345304
0.00434472
0.00516899
0.00591108
0.00656594
0.00713113
0.00760923
0.00801041
0.00835465
0.00867446
0.00901886
0.0094586
0.0100973
0.0111089
0.012799
0.0163947
0.0933343
0.00186513
0.00260495
0.00335122
0.00409042
0.00477328
0.00538684
0.00592723
0.00639291
0.00678688
0.00711906
0.00740847
0.00768588
0.0079978
0.00841091
0.00902004
0.00998044
0.0115753
0.0219878
0.094064
0.00202168
0.00261757
0.0032238
0.00382752
0.00438371
0.00488122
0.00531709
0.00569034
0.00600379
0.00626648
0.00649558
0.00671907
0.00697955
0.00733755
0.00787572
0.00872396
0.0101375
0.0222373
0.0946109
0.00209426
0.00256822
0.00305387
0.00353962
0.00398515
0.00438084
0.00472433
0.00501466
0.00525399
0.00544985
0.00561713
0.00578076
0.00597952
0.00626871
0.00672143
0.00745001
0.00869528
0.0107685
0.089282
0.00207916
0.00245082
0.00283425
0.00321929
0.00357042
0.00387927
0.00414363
0.00436213
0.00453579
0.00467017
0.00477756
0.00488007
0.00501406
0.00523326
0.00561053
0.00625871
0.0074319
0.00949674
0.0150278
0.00198003
0.00226682
0.00256496
0.00286565
0.00313807
0.0033748
0.00357352
0.00373213
0.00385009
0.00393047
0.00398246
0.00402521
0.0040937
0.00424394
0.00455951
0.00516608
0.00633961
0.00958658
0.0108348
0.00180494
0.00202226
0.0022504
0.00248164
0.00268982
0.00286827
0.00301443
0.00312537
0.0031987
0.0032344
0.00323751
0.00322291
0.00322355
0.00329892
0.00355242
0.00412486
0.00527506
0.00737675
0.00968107
0.00156404
0.00172556
0.00189719
0.00207217
0.00222889
0.00236152
0.00246734
0.00254271
0.00258336
0.00258561
0.00254894
0.00248126
0.00241031
0.00239558
0.00257501
0.0031016
0.00417233
0.00611372
0.00827783
0.00126913
0.00138748
0.00151449
0.0016446
0.00176083
0.00185844
0.00193489
0.00198624
0.00200683
0.00198945
0.00192699
0.00181554
0.00166574
0.00151882
0.00158741
0.00207647
0.00302147
0.00474382
0.00668894
0.000934107
0.00102161
0.00111484
0.00120986
0.00129472
0.00136621
0.00142258
0.00146043
0.00147386
0.00145385
0.0013876
0.00124973
0.000990691
0.000564741
0.000406663
0.000979781
0.00182764
0.00328162
0.00493856
0.000568119
0.000632328
0.000700167
0.000767333
0.000827374
0.000879279
0.000922631
0.00095552
0.000973561
0.000968961
0.000926856
0.000788888
0.000352288
-0.000719977
-0.00123879
-0.000257597
0.0010623
0.00199956
0.00302895
6.51996e-05
8.73971e-05
0.000114443
0.000143525
0.000173405
0.000204353
0.000236194
0.000267516
0.000294779
0.00031032
0.000296173
0.00017499
-0.000374245
-0.00223729
-0.00214421
-0.000577316
0.00110823
0.00178361
0.00154634
)
;

boundaryField
{
    leftWall
    {
        type            fixedFluxPressure;
        gradient        uniform 0;
        value           nonuniform List<scalar> 
50
(
792.935
793.091
793.186
793.184
793.052
792.748
792.229
791.449
789.779
784.4
382.072
13.417
9.20083
8.9061
4.71543
0.553826
0.249545
0.124263
0.0453476
-0.00260594
-0.0291169
-0.0414364
-0.0458009
-0.0462268
-0.0447491
-0.0423676
-0.0395237
-0.0364996
-0.0334222
-0.0302758
-0.02713
-0.0242083
-0.0213448
0.0222366
0.0783151
0.0671408
-0.0104846
-0.0180209
-0.0163181
-0.0146937
-0.0132051
-0.0118335
-0.0105515
-0.0093285
-0.00813508
-0.00694251
-0.00571693
-0.00441411
-0.00298116
-0.00149333
)
;
    }
    rightWall
    {
        type            fixedFluxPressure;
        gradient        uniform 0;
        value           nonuniform List<scalar> 
50
(
763.088
763.557
763.991
763.998
764.274
765.215
766.845
768.976
772.904
725.145
485.113
37.6801
0.333769
0.280809
0.361791
0.40156
0.348172
0.0890766
0.0896648
0.139985
0.172238
0.171479
0.170182
0.10434
0.0256835
0.0398736
0.119644
0.121908
0.124578
0.127589
0.128124
0.127355
0.13056
0.130238
0.0473174
0.0178309
0.0187884
0.0598094
0.0933343
0.094064
0.0946109
0.089282
0.0150278
0.0108348
0.00968107
0.00827783
0.00668894
0.00493856
0.00302895
0.00154634
)
;
    }
    lowerWall
    {
        type            fixedFluxPressure;
        gradient        uniform 0;
        value           nonuniform List<scalar> 
62
(
792.935
792.295
792.061
792.351
793.146
794.327
795.73
797.167
798.447
799.383
799.8
799.537
798.451
796.431
793.337
789.046
783.211
776.238
769.457
762.884
755.504
749.292
745.909
745.909
745.38
744.134
742.199
739.983
737.54
734.38
730.215
730.65
729.992
730.6
732.028
730.323
729.919
729.563
728.786
727.92
729.126
742.652
741.283
730.323
734.305
737.237
737.618
735.466
732.234
728.844
726.146
725.518
727.823
733.804
737.311
740.209
742.052
742.365
747.791
755.995
761.893
763.088
)
;
    }
    atmosphere
    {
        type            totalPressure;
        rho             rho;
        psi             none;
        gamma           1;
        p0              uniform 0;
        value           nonuniform List<scalar> 
46
(
0
0
0
0
0
0
0
0
0
0
0
0
0
0
0
0
-1.56722e-06
-1.36364e-05
-4.1309e-05
-7.87164e-05
-0.000120273
-0.000162074
-0.000201258
-0.000226081
-0.00024015
-0.000251769
-0.000260925
-0.000273256
-0.000286578
-0.000293797
-0.000293019
-0.000283432
-0.000265184
-0.000239208
-0.000207
-0.000170406
-0.000131493
-9.24983e-05
-5.59925e-05
-2.47677e-05
-2.92758e-06
0
0
0
0
0
)
;
    }
    defaultFaces
    {
        type            empty;
    }
}


// ************************************************************************* //
