/*--------------------------------*- C++ -*----------------------------------*\
| =========                 |                                                 |
| \\      /  F ield         | OpenFOAM: The Open Source CFD Toolbox           |
|  \\    /   O peration     | Version:  2.3.0                                 |
|   \\  /    A nd           | Web:      www.OpenFOAM.org                      |
|    \\/     M anipulation  |                                                 |
\*---------------------------------------------------------------------------*/
FoamFile
{
    version     2.0;
    format      ascii;
    class       surfaceScalarField;
    location    "2.65";
    object      phi;
}
// * * * * * * * * * * * * * * * * * * * * * * * * * * * * * * * * * * * * * //

dimensions      [0 3 -1 0 0 0 0];

internalField   nonuniform List<scalar> 
4432
(
-6.71759e-07
6.71759e-07
-1.5295e-06
8.57739e-07
-2.41734e-06
8.87837e-07
-3.25022e-06
8.32874e-07
-4.01917e-06
7.68938e-07
-4.71949e-06
7.00318e-07
-5.34805e-06
6.2857e-07
-5.9022e-06
5.54158e-07
-6.37806e-06
4.75845e-07
-6.77121e-06
3.93155e-07
-7.07385e-06
3.02651e-07
-7.26826e-06
1.94386e-07
-7.31528e-06
4.70032e-08
-7.14169e-06
-1.73566e-07
-6.65671e-06
-4.85005e-07
-5.8255e-06
-8.31209e-07
-4.84239e-06
-9.83101e-07
-3.78046e-06
-1.06194e-06
-2.33159e-06
-1.44887e-06
-3.1952e-07
-2.01206e-06
1.62757e-06
-1.94708e-06
2.26127e-06
-6.33693e-07
2.26127e-06
-8.24546e-07
1.4963e-06
-1.66241e-06
1.69561e-06
-2.51817e-06
1.74358e-06
-3.33181e-06
1.64651e-06
-4.08225e-06
1.51938e-06
-4.76527e-06
1.38334e-06
-5.38099e-06
1.24429e-06
-5.92942e-06
1.1026e-06
-6.40883e-06
9.55265e-07
-6.815e-06
7.99298e-07
-7.13729e-06
6.24935e-07
-7.35412e-06
4.11211e-07
-7.43061e-06
1.23479e-07
-7.32226e-06
-2.81897e-07
-6.98134e-06
-8.25928e-07
-6.37174e-06
-1.44081e-06
-5.50811e-06
-1.84672e-06
-4.34966e-06
-2.2204e-06
-2.85577e-06
-2.94275e-06
-1.13306e-06
-3.73474e-06
5.75785e-07
-3.65592e-06
1.42078e-06
-1.47869e-06
3.68204e-06
-8.93106e-07
2.3894e-06
-1.72547e-06
2.52797e-06
-2.54669e-06
2.5648e-06
-3.32995e-06
2.42976e-06
-4.05448e-06
2.24391e-06
-4.71711e-06
2.04598e-06
-5.31948e-06
1.84666e-06
-5.86276e-06
1.64588e-06
-6.34606e-06
1.43857e-06
-6.76543e-06
1.21866e-06
-7.11027e-06
9.6978e-07
-7.36003e-06
6.60987e-07
-7.4837e-06
2.47144e-07
-7.44464e-06
-3.20935e-07
-7.2095e-06
-1.06105e-06
-6.75118e-06
-1.89913e-06
-5.98281e-06
-2.61508e-06
-4.8923e-06
-3.3109e-06
-3.53039e-06
-4.30465e-06
-1.95828e-06
-5.30684e-06
-2.78874e-07
-5.33532e-06
7.96031e-07
-2.55359e-06
4.47808e-06
-9.295e-07
3.3189e-06
-1.78345e-06
3.38193e-06
-2.5983e-06
3.37965e-06
-3.368e-06
3.19946e-06
-4.07952e-06
2.95543e-06
-4.73228e-06
2.69875e-06
-5.32932e-06
2.44371e-06
-5.87253e-06
2.18909e-06
-6.3614e-06
1.92744e-06
-6.79213e-06
1.6494e-06
-7.15441e-06
1.33205e-06
-7.42879e-06
9.35371e-07
-7.58719e-06
4.05546e-07
-7.59813e-06
-3.09997e-07
-7.43441e-06
-1.22478e-06
-7.06902e-06
-2.26454e-06
-6.41791e-06
-3.26619e-06
-5.45787e-06
-4.27094e-06
-4.26882e-06
-5.4937e-06
-2.87557e-06
-6.7001e-06
-1.25071e-06
-6.96017e-06
1.64909e-07
-3.9692e-06
4.643e-06
-9.56721e-07
4.27562e-06
-1.84861e-06
4.27382e-06
-2.6804e-06
4.21146e-06
-3.45529e-06
3.97436e-06
-4.16849e-06
3.66863e-06
-4.82278e-06
3.35305e-06
-5.42276e-06
3.04368e-06
-5.9708e-06
2.73712e-06
-6.46637e-06
2.42301e-06
-6.9057e-06
2.08872e-06
-7.27874e-06
1.70508e-06
-7.56695e-06
1.22359e-06
-7.74418e-06
5.82771e-07
-7.78156e-06
-2.72623e-07
-7.65505e-06
-1.35129e-06
-7.34053e-06
-2.57908e-06
-6.7882e-06
-3.81852e-06
-5.98611e-06
-5.07302e-06
-5.02332e-06
-6.45649e-06
-3.92444e-06
-7.79899e-06
-2.51039e-06
-8.37422e-06
-7.21896e-07
-5.75771e-06
3.9211e-06
-9.95536e-07
5.27117e-06
-1.93941e-06
5.21771e-06
-2.80712e-06
5.07918e-06
-3.60506e-06
4.77231e-06
-4.33451e-06
4.39807e-06
-5.00143e-06
4.01997e-06
-5.61178e-06
3.65403e-06
-6.16803e-06
3.29338e-06
-6.66924e-06
2.92422e-06
-7.11132e-06
2.53079e-06
-7.48436e-06
2.07813e-06
-7.7705e-06
1.50974e-06
-7.94497e-06
7.5724e-07
-7.98058e-06
-2.37017e-07
-7.85628e-06
-1.47559e-06
-7.55815e-06
-2.87721e-06
-7.06807e-06
-4.30859e-06
-6.41444e-06
-5.72664e-06
-5.71768e-06
-7.15326e-06
-5.04368e-06
-8.47298e-06
-4.11896e-06
-9.29894e-06
-2.23499e-06
-7.64168e-06
1.68611e-06
-1.06274e-06
6.33392e-06
-2.07254e-06
6.22752e-06
-2.99183e-06
5.99847e-06
-3.82882e-06
5.60931e-06
-4.58782e-06
5.15708e-06
-5.27704e-06
4.70919e-06
-5.9033e-06
4.2803e-06
-6.46856e-06
3.85864e-06
-6.97081e-06
3.42646e-06
-7.40514e-06
2.96513e-06
-7.76174e-06
2.43472e-06
-8.0235e-06
1.77151e-06
-8.16719e-06
9.00929e-07
-8.16757e-06
-2.36638e-07
-8.00827e-06
-1.63488e-06
-7.68959e-06
-3.19588e-06
-7.22749e-06
-4.77068e-06
-6.69381e-06
-6.26032e-06
-6.25608e-06
-7.59099e-06
-6.0636e-06
-8.66545e-06
-5.93233e-06
-9.43022e-06
-4.53717e-06
-9.03682e-06
-2.85104e-06
-1.16596e-06
7.4999e-06
-2.25511e-06
7.31667e-06
-3.23917e-06
6.98254e-06
-4.12772e-06
6.49787e-06
-4.92721e-06
5.95658e-06
-5.64631e-06
5.4283e-06
-6.29128e-06
4.92527e-06
-6.86251e-06
4.42987e-06
-7.35656e-06
3.9205e-06
-7.76742e-06
3.37599e-06
-8.0856e-06
2.7529e-06
-8.29538e-06
1.98129e-06
-8.37615e-06
9.81701e-07
-8.30584e-06
-3.0695e-07
-8.0755e-06
-1.86522e-06
-7.70224e-06
-3.56914e-06
-7.23451e-06
-5.23841e-06
-6.78246e-06
-6.71239e-06
-6.55637e-06
-7.81707e-06
-6.78742e-06
-8.43442e-06
-7.50996e-06
-8.70767e-06
-7.35989e-06
-9.18691e-06
-1.02109e-05
-2.03351e-06
2.03351e-06
4.13596e-07
-2.44711e-06
3.44858e-06
-3.03499e-06
6.18366e-06
-2.73508e-06
8.58519e-06
-2.40152e-06
1.05327e-05
-1.94748e-06
1.15817e-05
-1.04904e-06
1.13456e-05
2.36058e-07
8.33931e-06
3.00631e-06
4.10006e-06
4.23924e-06
2.39426e-06
1.70581e-06
1.35868e-06
1.03558e-06
-1.8639e-06
3.22258e-06
-6.74848e-06
4.88459e-06
-1.04034e-05
3.65496e-06
-1.01845e-05
-2.1895e-07
-7.1104e-06
-3.07407e-06
-2.98296e-06
-4.12743e-06
-2.98297e-06
-3.43634e-07
2.37714e-06
1.6731e-06
-4.46384e-06
3.66348e-06
-5.02536e-06
5.54138e-06
-4.613e-06
7.29778e-06
-4.15791e-06
8.60976e-06
-3.25948e-06
8.95828e-06
-1.39755e-06
8.49749e-06
6.96824e-07
7.07673e-06
4.42709e-06
4.5326e-06
6.78335e-06
2.55984e-06
3.67858e-06
1.22364e-06
2.3718e-06
-1.29819e-06
5.7444e-06
-4.78942e-06
8.37584e-06
-7.2014e-06
6.06694e-06
-7.4836e-06
6.3271e-08
-6.25098e-06
-4.30669e-06
-3.84226e-06
-6.53615e-06
-6.82524e-06
9.78869e-07
1.39826e-06
2.25109e-06
-5.73607e-06
3.52077e-06
-6.29503e-06
4.85147e-06
-5.94371e-06
6.15844e-06
-5.46488e-06
7.07135e-06
-4.1724e-06
7.05805e-06
-1.38425e-06
6.23564e-06
1.51923e-06
5.19701e-06
5.46572e-06
3.80383e-06
8.17653e-06
2.36697e-06
5.11542e-06
1.1734e-06
3.56538e-06
-4.08815e-07
7.32661e-06
-2.30368e-06
1.02707e-05
-4.131e-06
7.89425e-06
-4.97601e-06
9.08289e-07
-4.76531e-06
-4.51739e-06
-3.52758e-06
-7.77388e-06
-1.03528e-05
1.71053e-06
-3.12279e-07
2.40308e-06
-6.42862e-06
3.12505e-06
-7.017e-06
4.04835e-06
-6.86703e-06
5.04182e-06
-6.45835e-06
5.70872e-06
-4.83931e-06
5.48016e-06
-1.15569e-06
4.61165e-06
2.38774e-06
3.71652e-06
6.36085e-06
3.1035e-06
8.78957e-06
2.14203e-06
6.0769e-06
1.27682e-06
4.43059e-06
4.32724e-07
8.1707e-06
-3.91152e-07
1.10946e-05
-1.53975e-06
9.04285e-06
-2.57208e-06
1.94062e-06
-2.95332e-06
-4.13616e-06
-2.52546e-06
-8.20174e-06
-1.28783e-05
1.87476e-06
-2.18705e-06
2.13272e-06
-6.68657e-06
2.47087e-06
-7.35515e-06
3.10421e-06
-7.50038e-06
3.87895e-06
-7.23309e-06
4.43016e-06
-5.39053e-06
4.10004e-06
-8.25556e-07
3.24788e-06
3.23991e-06
2.63779e-06
6.97095e-06
2.48171e-06
8.94565e-06
2.01106e-06
6.54755e-06
1.54477e-06
4.8969e-06
1.28688e-06
8.42859e-06
1.15478e-06
1.12267e-05
5.91851e-07
9.60578e-06
-3.45733e-07
2.87821e-06
-1.09887e-06
-3.38303e-06
-1.2782e-06
-8.0224e-06
-1.41565e-05
1.54717e-06
-3.73423e-06
1.44147e-06
-6.58087e-06
1.5805e-06
-7.49417e-06
2.0247e-06
-7.94459e-06
2.64737e-06
-7.85575e-06
3.18727e-06
-5.93043e-06
2.86719e-06
-5.05459e-07
2.09358e-06
4.01351e-06
1.84077e-06
7.22376e-06
2.04959e-06
8.73681e-06
2.05792e-06
6.53921e-06
1.82037e-06
5.13446e-06
2.06198e-06
8.18697e-06
2.38611e-06
1.09026e-05
2.3106e-06
9.6813e-06
1.55558e-06
3.63323e-06
5.9186e-07
-2.41931e-06
4.4665e-08
-7.4752e-06
-1.41118e-05
5.19597e-07
-4.25382e-06
3.91312e-07
-6.45259e-06
5.04791e-07
-7.60765e-06
8.36745e-07
-8.27655e-06
1.34743e-06
-8.36643e-06
1.92141e-06
-6.50442e-06
1.76115e-06
-3.45199e-07
1.21277e-06
4.56189e-06
1.24797e-06
7.18856e-06
1.8434e-06
8.14138e-06
2.19018e-06
6.19243e-06
2.17897e-06
5.14566e-06
2.70012e-06
7.66581e-06
3.3664e-06
1.02363e-05
3.66823e-06
9.37947e-06
3.08621e-06
4.21525e-06
2.00587e-06
-1.33897e-06
1.03312e-06
-6.50246e-06
-1.30787e-05
-1.07348e-06
-3.18033e-06
-8.72091e-07
-6.65397e-06
-6.73275e-07
-7.80646e-06
-4.12325e-07
-8.53751e-06
-1.77617e-08
-8.761e-06
5.83645e-07
-7.10583e-06
7.73564e-07
-5.35126e-07
5.18506e-07
4.81694e-06
8.96963e-07
6.81011e-06
1.80981e-06
7.22853e-06
2.3804e-06
5.62184e-06
2.61732e-06
4.90875e-06
3.24346e-06
7.03968e-06
4.11139e-06
9.36835e-06
4.66348e-06
8.82737e-06
4.20191e-06
4.67682e-06
3.11758e-06
-2.54628e-07
1.89535e-06
-5.28023e-06
-1.11833e-05
-2.83305e-06
1.0333e-05
-5.47423e-06
9.95785e-06
-7.84459e-06
9.35289e-06
-9.93753e-06
8.59081e-06
-1.17964e-05
7.81546e-06
-1.34401e-05
7.07193e-06
-1.4875e-05
6.36019e-06
-1.60947e-05
5.64961e-06
-1.70854e-05
4.91119e-06
-1.78298e-05
4.12039e-06
-1.83118e-05
3.23489e-06
-1.8506e-05
2.17547e-06
-1.83849e-05
8.60582e-07
-1.79163e-05
-7.75584e-07
-1.71105e-05
-2.671e-06
-1.60654e-05
-4.61425e-06
-1.49819e-05
-6.32188e-06
-1.41733e-05
-7.52098e-06
-1.41693e-05
-7.82108e-06
-1.55653e-05
-7.03845e-06
-1.84091e-05
-5.86384e-06
-2.17972e-05
-5.79877e-06
-6.91269e-06
-2.50955e-05
-3.20727e-06
1.35402e-05
-6.30116e-06
1.30517e-05
-8.98293e-06
1.20347e-05
-1.13463e-05
1.09542e-05
-1.34738e-05
9.94296e-06
-1.53043e-05
8.90239e-06
-1.68119e-05
7.86779e-06
-1.79843e-05
6.82205e-06
-1.88194e-05
5.74629e-06
-1.93114e-05
4.61239e-06
-1.94467e-05
3.37012e-06
-1.92143e-05
1.94307e-06
-1.86364e-05
2.82719e-07
-1.77373e-05
-1.67468e-06
-1.65191e-05
-3.88918e-06
-1.51612e-05
-5.97215e-06
-1.3962e-05
-7.52109e-06
-1.3251e-05
-8.232e-06
-1.34879e-05
-7.58423e-06
-1.50804e-05
-5.44593e-06
-1.77124e-05
-3.23184e-06
-2.0306e-05
-3.20514e-06
-5.79301e-06
-2.14257e-05
-3.5969e-06
1.71371e-05
-6.66723e-06
1.61221e-05
-9.67308e-06
1.50405e-05
-1.26003e-05
1.38814e-05
-1.53126e-05
1.26553e-05
-1.7457e-05
1.10467e-05
-1.88358e-05
9.24658e-06
-1.96321e-05
7.6184e-06
-2.01017e-05
6.21587e-06
-2.01644e-05
4.67514e-06
-1.98167e-05
3.02242e-06
-1.90457e-05
1.17206e-06
-1.79742e-05
-7.88868e-07
-1.66605e-05
-2.98831e-06
-1.51795e-05
-5.37025e-06
-1.37371e-05
-7.41454e-06
-1.26779e-05
-8.58029e-06
-1.23194e-05
-8.59046e-06
-1.2969e-05
-6.93469e-06
-1.47795e-05
-3.63531e-06
-1.67995e-05
-1.21195e-06
-1.79031e-05
-2.10154e-06
-5.38705e-06
-1.8309e-05
-6.19027e-06
2.33274e-05
-4.63894e-06
1.45708e-05
-8.55064e-06
1.89522e-05
-1.35499e-05
1.88807e-05
-1.82009e-05
1.73063e-05
-2.16707e-05
1.45166e-05
-2.24014e-05
9.97729e-06
-2.16827e-05
6.89972e-06
-2.13238e-05
5.85695e-06
-2.05849e-05
3.93625e-06
-1.94155e-05
1.85304e-06
-1.76938e-05
-5.49547e-07
-1.56359e-05
-2.84675e-06
-1.39736e-05
-4.65063e-06
-1.24292e-05
-6.91464e-06
-1.10793e-05
-8.76448e-06
-1.08474e-05
-8.8122e-06
-1.29932e-05
-6.44453e-06
-1.67793e-05
-3.14863e-06
-2.10188e-05
6.0426e-07
-2.08122e-05
-1.41851e-06
-1.5257e-05
-7.65671e-06
-1.06087e-05
-1.00354e-05
-1.13744e-05
3.47017e-05
-1.59214e-05
1.91181e-05
-2.46585e-05
2.76892e-05
-3.64176e-05
3.06396e-05
-4.65736e-05
2.74624e-05
-5.14409e-05
1.93837e-05
-5.05503e-05
9.08672e-06
-4.52326e-05
1.58209e-06
-3.84899e-05
-8.85819e-07
-3.19273e-05
-2.62631e-06
-2.56516e-05
-4.42263e-06
-1.93333e-05
-6.86788e-06
-1.38836e-05
-8.29644e-06
-1.1731e-05
-6.80329e-06
-1.23676e-05
-6.27808e-06
-1.20184e-05
-9.11368e-06
-1.19831e-05
-8.84739e-06
-1.72085e-05
-1.21908e-06
-2.80476e-05
7.69042e-06
-3.51045e-05
7.66118e-06
-2.75514e-05
-8.97173e-06
-1.68763e-05
-1.83317e-05
-1.92367e-05
-8.24814e-06
-1.90099e-05
5.37114e-05
-3.16479e-05
3.1756e-05
-3.9599e-05
3.56405e-05
-4.65714e-05
3.76121e-05
-5.29916e-05
3.38828e-05
-5.82388e-05
2.4631e-05
-5.96767e-05
1.05246e-05
-5.52625e-05
-2.83204e-06
-4.91486e-05
-6.99977e-06
-4.35722e-05
-8.20268e-06
-3.8355e-05
-9.63985e-06
-3.29083e-05
-1.23146e-05
-2.80443e-05
-1.31604e-05
-2.58576e-05
-8.99007e-06
-2.4563e-05
-7.57262e-06
-1.99333e-05
-1.37434e-05
-1.52631e-05
-1.35175e-05
-1.59174e-05
-5.64878e-07
-2.17539e-05
1.35269e-05
-2.45754e-05
1.04827e-05
-2.01727e-05
-1.33745e-05
-1.47532e-05
-2.37513e-05
-2.27422e-05
-1.12476e-05
-2.11806e-05
7.48921e-05
-3.94755e-05
5.00508e-05
-4.64334e-05
4.25983e-05
-4.89852e-05
4.01638e-05
-5.18934e-05
3.67907e-05
-5.60977e-05
2.88355e-05
-5.57942e-05
1.02209e-05
-5.27343e-05
-5.89188e-06
-4.949e-05
-1.0244e-05
-4.70152e-05
-1.06775e-05
-4.51442e-05
-1.15109e-05
-4.37615e-05
-1.36974e-05
-4.28993e-05
-1.40226e-05
-4.06831e-05
-1.12062e-05
-3.42701e-05
-1.39856e-05
-2.79254e-05
-2.0088e-05
-2.21071e-05
-1.93358e-05
-1.54873e-05
-7.18474e-06
-1.34055e-05
1.1445e-05
-1.3843e-05
1.09201e-05
-1.28631e-05
-1.43543e-05
-1.13845e-05
-2.52298e-05
-2.29844e-05
-1.11422e-05
-1.90247e-05
9.3917e-05
-3.56975e-05
6.67238e-05
-4.49761e-05
5.18772e-05
-4.90877e-05
4.42756e-05
-5.16202e-05
3.93229e-05
-4.97445e-05
2.696e-05
-4.5588e-05
6.0644e-06
-4.46092e-05
-6.8707e-06
-4.45262e-05
-1.03271e-05
-4.5064e-05
-1.01396e-05
-4.5684e-05
-1.0891e-05
-4.83499e-05
-1.10315e-05
-4.82535e-05
-1.41191e-05
-4.48465e-05
-1.46132e-05
-4.00683e-05
-1.87637e-05
-3.44564e-05
-2.56999e-05
-2.88001e-05
-2.49921e-05
-2.22946e-05
-1.36902e-05
-1.43185e-05
3.46899e-06
-7.97156e-06
4.57323e-06
-7.63978e-06
-1.4686e-05
-1.16499e-05
-2.12198e-05
-1.69689e-05
-1.76654e-05
-1.19619e-05
0.000105879
-2.52904e-05
8.00521e-05
-3.68315e-05
6.34186e-05
-4.51841e-05
5.26282e-05
-4.67873e-05
4.09261e-05
-4.10775e-05
2.12501e-05
-3.78705e-05
2.85733e-06
-3.6954e-05
-7.78723e-06
-3.71954e-05
-1.00857e-05
-3.75707e-05
-9.76441e-06
-3.9158e-05
-9.30378e-06
-4.09543e-05
-9.23516e-06
-4.34558e-05
-1.16175e-05
-4.32861e-05
-1.47828e-05
-4.0857e-05
-2.11928e-05
-3.7867e-05
-2.86899e-05
-3.4769e-05
-2.80901e-05
-3.13022e-05
-1.7157e-05
-2.24032e-05
-5.43011e-06
-1.28119e-05
-5.0181e-06
-1.412e-05
-1.33779e-05
-1.91254e-05
-1.62146e-05
-1.37771e-05
-2.23178e-05
-6.09008e-06
0.00011197
-1.56226e-05
8.95843e-05
-2.53943e-05
7.31903e-05
-3.26515e-05
5.98853e-05
-3.44974e-05
4.27723e-05
-3.17917e-05
1.85443e-05
-3.09032e-05
1.96878e-06
-3.09552e-05
-7.73537e-06
-3.07233e-05
-1.03176e-05
-3.01546e-05
-1.03331e-05
-3.04198e-05
-9.03854e-06
-3.19311e-05
-7.72379e-06
-3.452e-05
-9.02865e-06
-3.56235e-05
-1.36793e-05
-3.50033e-05
-2.1813e-05
-3.65917e-05
-2.71014e-05
-3.80351e-05
-2.66468e-05
-3.52217e-05
-1.99703e-05
-2.85238e-05
-1.2128e-05
-2.33543e-05
-1.01876e-05
-2.33133e-05
-1.34189e-05
-2.48158e-05
-1.4712e-05
-1.35436e-05
-2.50491e-05
-1.3292e-06
0.000113299
-6.64585e-06
9.49016e-05
-1.23771e-05
7.89214e-05
-1.66929e-05
6.42009e-05
-1.86085e-05
4.46877e-05
-1.98071e-05
1.97428e-05
-2.14743e-05
3.63587e-06
-2.39277e-05
-5.28201e-06
-2.55035e-05
-8.74183e-06
-2.59967e-05
-9.84002e-06
-2.56392e-05
-9.39607e-06
-2.52766e-05
-8.08631e-06
-2.68769e-05
-7.42835e-06
-2.86391e-05
-1.1917e-05
-2.94882e-05
-2.09639e-05
-3.04132e-05
-2.61764e-05
-3.09698e-05
-2.60903e-05
-3.00811e-05
-2.0859e-05
-2.79994e-05
-1.42096e-05
-2.60275e-05
-1.21594e-05
-2.58537e-05
-1.35926e-05
-2.59826e-05
-1.45834e-05
-1.43523e-05
-2.51742e-05
3.30835e-06
0.00010999
1.65161e-06
9.6559e-05
1.17108e-07
8.04558e-05
-7.65472e-07
6.50836e-05
-1.95007e-06
4.58718e-05
-5.84429e-06
2.36369e-05
-1.03005e-05
8.09185e-06
-1.50618e-05
-5.20727e-07
-1.90308e-05
-4.77291e-06
-2.11612e-05
-7.70963e-06
-2.14934e-05
-9.06392e-06
-2.10505e-05
-8.5291e-06
-2.08801e-05
-7.59877e-06
-2.1625e-05
-1.11721e-05
-2.33696e-05
-1.92193e-05
-2.50981e-05
-2.4448e-05
-2.641e-05
-2.47784e-05
-2.68552e-05
-2.04137e-05
-2.60143e-05
-1.50506e-05
-2.49756e-05
-1.31981e-05
-2.4704e-05
-1.38644e-05
-2.44613e-05
-1.48261e-05
-1.53089e-05
-2.35048e-05
6.85947e-06
0.000103131
8.47136e-06
9.49472e-05
1.00653e-05
7.8862e-05
1.15556e-05
6.35932e-05
1.11772e-05
4.62499e-05
6.8334e-06
2.79808e-05
9.67686e-07
1.39576e-05
-4.55995e-06
5.00693e-06
-8.85432e-06
-4.78699e-07
-1.22277e-05
-4.3365e-06
-1.45807e-05
-6.71105e-06
-1.54781e-05
-7.63166e-06
-1.47804e-05
-8.29656e-06
-1.46844e-05
-1.12681e-05
-1.68863e-05
-1.70174e-05
-1.95419e-05
-2.17922e-05
-2.20262e-05
-2.22941e-05
-2.33485e-05
-1.90914e-05
-2.26695e-05
-1.57297e-05
-2.17706e-05
-1.4097e-05
-2.14276e-05
-1.42075e-05
-2.12342e-05
-1.50197e-05
-1.59145e-05
-2.06287e-05
9.04094e-06
9.40902e-05
1.31759e-05
9.08119e-05
1.65272e-05
7.5511e-05
1.89603e-05
6.11599e-05
1.90133e-05
4.61972e-05
1.58131e-05
3.11812e-05
1.09043e-05
1.88663e-05
5.93889e-06
9.97191e-06
1.68595e-06
3.77399e-06
-1.90451e-06
-7.46088e-07
-4.70134e-06
-3.91424e-06
-6.38331e-06
-5.94968e-06
-6.9814e-06
-7.69841e-06
-7.65461e-06
-1.05947e-05
-9.8266e-06
-1.48452e-05
-1.32314e-05
-1.83873e-05
-1.62086e-05
-1.93169e-05
-1.75084e-05
-1.77915e-05
-1.75182e-05
-1.57201e-05
-1.70738e-05
-1.45414e-05
-1.68461e-05
-1.44352e-05
-1.68773e-05
-1.49885e-05
-1.5947e-05
-1.68448e-05
9.91514e-06
8.41752e-05
1.57666e-05
8.49605e-05
2.00509e-05
7.12267e-05
2.29375e-05
5.82732e-05
2.36359e-05
4.54992e-05
2.17176e-05
3.30994e-05
1.8172e-05
2.24118e-05
1.41536e-05
1.39901e-05
1.0338e-05
7.58951e-06
6.91062e-06
2.68137e-06
4.03687e-06
-1.0404e-06
1.93145e-06
-3.84421e-06
5.24334e-07
-6.29127e-06
-9.21975e-07
-9.14844e-06
-3.25741e-06
-1.25099e-05
-6.34233e-06
-1.53024e-05
-9.17277e-06
-1.64865e-05
-1.08862e-05
-1.6078e-05
-1.15266e-05
-1.50796e-05
-1.16716e-05
-1.43965e-05
-1.17955e-05
-1.43114e-05
-1.20496e-05
-1.47344e-05
-1.54949e-05
-1.25017e-05
9.78563e-06
7.43894e-05
1.66273e-05
7.81191e-05
2.1427e-05
6.64269e-05
2.46102e-05
5.50902e-05
2.5863e-05
4.42466e-05
2.50604e-05
3.39017e-05
2.27878e-05
2.46842e-05
1.98081e-05
1.69698e-05
1.66734e-05
1.07244e-05
1.36569e-05
5.69803e-06
1.09472e-05
1.6693e-06
8.69438e-06
-1.59135e-06
6.84355e-06
-4.44029e-06
4.97787e-06
-7.28263e-06
2.63103e-06
-1.0163e-05
-1.15515e-07
-1.25558e-05
-2.68847e-06
-1.39134e-05
-4.55313e-06
-1.42133e-05
-5.65383e-06
-1.39789e-05
-6.29593e-06
-1.37544e-05
-6.80199e-06
-1.38054e-05
-7.36794e-06
-1.41684e-05
-1.47925e-05
-8.0703e-06
9.00915e-06
6.53802e-05
1.62283e-05
7.09e-05
2.12826e-05
6.13724e-05
2.46628e-05
5.17103e-05
2.63623e-05
4.2547e-05
2.64143e-05
3.38496e-05
2.5183e-05
2.59154e-05
2.31668e-05
1.89861e-05
2.0787e-05
1.31043e-05
1.83154e-05
8.16965e-06
1.59375e-05
4.04708e-06
1.37721e-05
5.74057e-07
1.17997e-05
-2.46777e-06
9.81011e-06
-5.29298e-06
7.57419e-06
-7.92699e-06
5.13828e-06
-1.01199e-05
2.82272e-06
-1.15978e-05
9.51827e-07
-1.23425e-05
-4.01916e-07
-1.26252e-05
-1.38472e-06
-1.27717e-05
-2.20099e-06
-1.29892e-05
-3.01215e-06
-1.33573e-05
-1.38873e-05
-3.9173e-06
7.89813e-06
5.74823e-05
1.5022e-05
6.37762e-05
2.01298e-05
5.62648e-05
2.36263e-05
4.82142e-05
2.5659e-05
4.05141e-05
2.63373e-05
3.31713e-05
2.59111e-05
2.63417e-05
2.47122e-05
2.01852e-05
2.30494e-05
1.47671e-05
2.11556e-05
1.00636e-05
1.91969e-05
6.00566e-06
1.72769e-05
2.49399e-06
1.54079e-05
-5.98804e-07
1.35014e-05
-3.38644e-06
1.14591e-05
-5.88466e-06
9.31781e-06
-7.97856e-06
7.25788e-06
-9.53798e-06
5.47192e-06
-1.05565e-05
4.02639e-06
-1.11797e-05
2.85702e-06
-1.16023e-05
1.84167e-06
-1.19738e-05
8.62532e-07
-1.2378e-05
-1.28561e-05
-1.6865e-07
6.70825e-06
5.07742e-05
1.34057e-05
5.70787e-05
1.83968e-05
5.12743e-05
2.19287e-05
4.46823e-05
2.41906e-05
3.82521e-05
2.53171e-05
3.20449e-05
2.54944e-05
2.61647e-05
2.49518e-05
2.0728e-05
2.3914e-05
1.5805e-05
2.25668e-05
1.14108e-05
2.10509e-05
7.5216e-06
1.94587e-05
4.08635e-06
1.78231e-05
1.03684e-06
1.61222e-05
-1.68557e-06
1.43272e-05
-4.08976e-06
1.24732e-05
-6.12456e-06
1.06671e-05
-7.73187e-06
9.02529e-06
-8.9146e-06
7.60079e-06
-9.75513e-06
6.36977e-06
-1.03712e-05
5.26287e-06
-1.08669e-05
4.20032e-06
-1.13155e-05
-1.17686e-05
3.11267e-06
5.61451e-06
4.51598e-05
1.16957e-05
5.09977e-05
1.64364e-05
4.65341e-05
1.99235e-05
4.1195e-05
2.23201e-05
3.58556e-05
2.37542e-05
3.06109e-05
2.43705e-05
2.55485e-05
2.43347e-05
2.07638e-05
2.38118e-05
1.63278e-05
2.29463e-05
1.22762e-05
2.1853e-05
8.61478e-06
2.06131e-05
5.32635e-06
1.92695e-05
2.38042e-06
1.78339e-05
-2.50004e-07
1.63125e-05
-2.56836e-06
1.47398e-05
-4.55189e-06
1.31849e-05
-6.17695e-06
1.17214e-05
-7.45104e-06
1.03899e-05
-8.42365e-06
9.18607e-06
-9.16745e-06
8.07295e-06
-9.75384e-06
6.9998e-06
-1.02425e-05
-1.06849e-05
5.91599e-06
4.70892e-06
4.04508e-05
1.01116e-05
4.55953e-05
1.45178e-05
4.21278e-05
1.78893e-05
3.78236e-05
2.0334e-05
3.34109e-05
2.19588e-05
2.89861e-05
2.2879e-05
2.46284e-05
2.32192e-05
2.04236e-05
2.31029e-05
1.6444e-05
2.26409e-05
1.2738e-05
2.19251e-05
9.33047e-06
2.10246e-05
6.22688e-06
1.99845e-05
3.42056e-06
1.88311e-05
9.03357e-07
1.75865e-05
-1.32381e-06
1.62844e-05
-3.24979e-06
1.49735e-05
-4.86612e-06
1.37037e-05
-6.18134e-06
1.25066e-05
-7.22667e-06
1.13871e-05
-8.04805e-06
1.03278e-05
-8.69461e-06
9.29851e-06
-9.21322e-06
-9.65098e-06
8.2646e-06
4.01472e-06
3.64361e-05
8.77552e-06
4.08346e-05
1.28179e-05
3.80849e-05
1.60194e-05
3.46223e-05
1.84342e-05
3.0996e-05
2.01499e-05
2.72704e-05
2.12622e-05
2.35161e-05
2.1868e-05
1.98177e-05
2.20606e-05
1.62514e-05
2.19241e-05
1.28746e-05
2.15299e-05
9.72466e-06
2.09351e-05
6.82177e-06
2.01818e-05
4.17395e-06
1.93009e-05
1.78427e-06
1.83199e-05
-3.42902e-07
1.72706e-05
-2.2006e-06
1.61905e-05
-3.7861e-06
1.5116e-05
-5.10694e-06
1.40728e-05
-6.18343e-06
1.307e-05
-7.0453e-06
1.2102e-05
-7.72662e-06
1.11527e-05
-8.26383e-06
-8.6984e-06
1.02002e-05
3.50474e-06
3.29315e-05
7.72309e-06
3.6616e-05
1.14184e-05
3.43894e-05
1.44152e-05
3.16256e-05
1.6733e-05
2.8678e-05
1.8456e-05
2.55472e-05
1.96706e-05
2.23015e-05
2.04535e-05
1.90347e-05
2.08737e-05
1.58312e-05
2.09925e-05
1.27558e-05
2.08636e-05
9.85365e-06
2.0532e-05
7.15342e-06
2.00344e-05
4.67155e-06
1.94011e-05
2.41752e-06
1.86599e-05
3.98188e-07
1.784e-05
-1.38083e-06
1.6972e-05
-2.91813e-06
1.60844e-05
-4.21944e-06
1.51991e-05
-5.29804e-06
1.43273e-05
-6.17347e-06
1.34705e-05
-6.86966e-06
1.26217e-05
-7.41496e-06
-7.84541e-06
1.17687e-05
3.1194e-06
2.98121e-05
6.91588e-06
3.28189e-05
1.03106e-05
3.09949e-05
1.3084e-05
2.88519e-05
1.52521e-05
2.65096e-05
1.69207e-05
2.38783e-05
1.81747e-05
2.10473e-05
1.90717e-05
1.81376e-05
1.9658e-05
1.52449e-05
1.99749e-05
1.24389e-05
2.00602e-05
9.76827e-06
1.99484e-05
7.2652e-06
1.96699e-05
4.94995e-06
1.92522e-05
2.83508e-06
1.87215e-05
9.2887e-07
1.81039e-05
-7.63276e-07
1.74254e-05
-2.23964e-06
1.67099e-05
-3.5039e-06
1.59765e-05
-4.56455e-06
1.52376e-05
-5.43447e-06
1.44986e-05
-6.1306e-06
1.37589e-05
-6.67518e-06
-7.09952e-06
1.3013e-05
2.81037e-06
2.70015e-05
6.25279e-06
2.93762e-05
9.39099e-06
2.78569e-05
1.19347e-05
2.63079e-05
1.39254e-05
2.45187e-05
1.55168e-05
2.22868e-05
1.6784e-05
1.978e-05
1.77616e-05
1.716e-05
1.84742e-05
1.45322e-05
1.89462e-05
1.19669e-05
1.92031e-05
9.51137e-06
1.92707e-05
7.19752e-06
1.91744e-05
5.0462e-06
1.89385e-05
3.07091e-06
1.85869e-05
1.28052e-06
1.8143e-05
-3.19359e-07
1.76296e-05
-1.72619e-06
1.70675e-05
-2.9417e-06
1.64739e-05
-3.9709e-06
1.58616e-05
-4.82215e-06
1.52385e-05
-5.50749e-06
1.46078e-05
-6.0445e-06
-6.46046e-06
1.39687e-05
2.54385e-06
2.44574e-05
5.60148e-06
2.63187e-05
8.37892e-06
2.50794e-05
1.07575e-05
2.39293e-05
1.262e-05
2.26562e-05
1.41773e-05
2.07295e-05
1.54771e-05
1.84803e-05
1.65307e-05
1.61064e-05
1.73485e-05
1.37145e-05
1.79447e-05
1.13707e-05
1.83378e-05
9.11825e-06
1.85488e-05
6.98647e-06
1.85998e-05
4.99523e-06
1.85126e-05
3.158e-06
1.83093e-05
1.48391e-06
1.80109e-05
-2.10015e-08
1.7638e-05
-1.35323e-06
1.7209e-05
-2.51268e-06
1.67399e-05
-3.50179e-06
1.62435e-05
-4.32569e-06
1.57288e-05
-4.99286e-06
1.52016e-05
-5.51729e-06
-5.92282e-06
1.46639e-05
2.15884e-06
2.22984e-05
4.84945e-06
2.36282e-05
7.2655e-06
2.26632e-05
9.41917e-06
2.17758e-05
1.12702e-05
2.08053e-05
1.28789e-05
1.91209e-05
1.42495e-05
1.71098e-05
1.53847e-05
1.49713e-05
1.62926e-05
1.28066e-05
1.69869e-05
1.06764e-05
1.74849e-05
8.62015e-06
1.78066e-05
6.66478e-06
1.79724e-05
4.82928e-06
1.80032e-05
3.1271e-06
1.79193e-05
1.56781e-06
1.77401e-05
1.58176e-07
1.74841e-05
-1.09728e-06
1.71682e-05
-2.19678e-06
1.68072e-05
-3.14076e-06
1.64134e-05
-3.93195e-06
1.59968e-05
-4.57621e-06
1.55641e-05
-5.08465e-06
-5.47815e-06
1.51195e-05
1.7713e-06
2.05271e-05
4.09453e-06
2.13048e-05
6.20261e-06
2.05551e-05
8.12312e-06
1.98554e-05
1.00179e-05
1.89105e-05
1.1701e-05
1.74378e-05
1.31413e-05
1.56695e-05
1.43416e-05
1.3771e-05
1.53145e-05
1.18337e-05
1.60772e-05
9.91376e-06
1.66489e-05
8.04831e-06
1.70502e-05
6.26346e-06
1.73012e-05
4.57813e-06
1.7422e-05
3.00629e-06
1.74314e-05
1.55836e-06
1.73476e-05
2.42097e-07
1.71871e-05
-9.36793e-07
1.69654e-05
-1.97508e-06
1.66963e-05
-2.87155e-06
1.63915e-05
-3.62714e-06
1.60611e-05
-4.24574e-06
1.57126e-05
-4.73615e-06
-5.11658e-06
1.53511e-05
1.70957e-06
1.88175e-05
3.55175e-06
1.94625e-05
5.37148e-06
1.87354e-05
7.21098e-06
1.80158e-05
9.06535e-06
1.70561e-05
1.07461e-05
1.57571e-05
1.21975e-05
1.42181e-05
1.34158e-05
1.25526e-05
1.44137e-05
1.08358e-05
1.52094e-05
9.11801e-06
1.5823e-05
7.43472e-06
1.62746e-05
5.81181e-06
1.65841e-05
4.26872e-06
1.67701e-05
2.82037e-06
1.68502e-05
1.47836e-06
1.68408e-05
2.51664e-07
1.67569e-05
-8.52799e-07
1.66125e-05
-1.83052e-06
1.642e-05
-2.679e-06
1.61908e-05
-3.39785e-06
1.59346e-05
-3.98947e-06
1.56594e-05
-4.46083e-06
-4.82772e-06
1.53706e-05
1.70334e-06
1.7114e-05
3.30347e-06
1.78625e-05
4.97064e-06
1.70683e-05
6.71448e-06
1.62718e-05
8.43674e-06
1.53338e-05
1.00226e-05
1.41713e-05
1.14119e-05
1.28288e-05
1.25927e-05
1.13718e-05
1.35725e-05
9.85605e-06
1.43663e-05
8.32426e-06
1.4992e-05
6.80908e-06
1.54682e-05
5.33576e-06
1.58128e-05
3.9242e-06
1.60431e-05
2.59033e-06
1.61746e-05
1.34699e-06
1.6222e-05
2.04498e-07
1.61984e-05
-8.29071e-07
1.61162e-05
-1.74817e-06
1.59866e-05
-2.5494e-06
1.58203e-05
-3.23148e-06
1.56267e-05
-3.79579e-06
1.54138e-05
-4.24784e-06
-4.60117e-06
1.51874e-05
1.64295e-06
1.54711e-05
3.25022e-06
1.62554e-05
4.83971e-06
1.54787e-05
6.44184e-06
1.46696e-05
8.00338e-06
1.37723e-05
9.44663e-06
1.27281e-05
1.07274e-05
1.1548e-05
1.18308e-05
1.02683e-05
1.27592e-05
8.9277e-06
1.3523e-05
7.56043e-06
1.41369e-05
6.19533e-06
1.46164e-05
4.85632e-06
1.49774e-05
3.56334e-06
1.52347e-05
2.33316e-06
1.54019e-05
1.17989e-06
1.54914e-05
1.15143e-07
1.55143e-05
-8.51927e-07
1.54813e-05
-1.71506e-06
1.54024e-05
-2.47041e-06
1.52872e-05
-3.11632e-06
1.51451e-05
-3.65357e-06
1.49839e-05
-4.08655e-06
-4.42672e-06
1.48095e-05
1.61733e-06
1.3854e-05
3.226e-06
1.46467e-05
4.75076e-06
1.39538e-05
6.22354e-06
1.31968e-05
7.62623e-06
1.23697e-05
8.91946e-06
1.14348e-05
1.00754e-05
1.03921e-05
1.10821e-05
9.2616e-06
1.19395e-05
8.07024e-06
1.26549e-05
6.84496e-06
1.32397e-05
5.61058e-06
1.37068e-05
4.38926e-06
1.40694e-05
3.2007e-06
1.43403e-05
2.06238e-06
1.45305e-05
9.89686e-07
1.46501e-05
-4.41386e-09
1.47079e-05
-9.09749e-07
1.47127e-05
-1.71975e-06
1.46731e-05
-2.43077e-06
1.45981e-05
-3.04134e-06
1.44967e-05
-3.55211e-06
1.43769e-05
-3.96664e-06
-4.29441e-06
1.42446e-05
1.57866e-06
1.22754e-05
3.15745e-06
1.30677e-05
4.60647e-06
1.25046e-05
5.9589e-06
1.18444e-05
7.21885e-06
1.11097e-05
8.37205e-06
1.02815e-05
9.40464e-06
9.35939e-06
1.03097e-05
8.35645e-06
1.10877e-05
7.29224e-06
1.17443e-05
6.18832e-06
1.22888e-05
5.06607e-06
1.2732e-05
3.946e-06
1.30853e-05
2.84747e-06
1.33589e-05
1.78876e-06
1.35619e-05
7.86685e-07
1.37016e-05
-1.44113e-07
1.37843e-05
-9.924e-07
1.38164e-05
-1.75182e-06
1.38055e-05
-2.41981e-06
1.37601e-05
-2.99588e-06
1.3689e-05
-3.48096e-06
1.36004e-05
-3.87802e-06
-4.19461e-06
1.35006e-05
1.50906e-06
1.07662e-05
3.0173e-06
1.15591e-05
4.37493e-06
1.11468e-05
5.61286e-06
1.06064e-05
6.74555e-06
9.97692e-06
7.77262e-06
9.25435e-06
8.69002e-06
8.44192e-06
9.49589e-06
7.55055e-06
1.01923e-05
6.59587e-06
1.07848e-05
5.59582e-06
1.12817e-05
4.56919e-06
1.16926e-05
3.53507e-06
1.20275e-05
2.5127e-06
1.2295e-05
1.52132e-06
1.2502e-05
5.79731e-07
1.2653e-05
-2.95135e-07
1.27512e-05
-1.09055e-06
1.28006e-05
-1.80114e-06
1.28077e-05
-2.42687e-06
1.27811e-05
-2.96918e-06
1.27298e-05
-3.42969e-06
1.26627e-05
-3.81078e-06
-4.118e-06
1.25861e-05
1.40762e-06
9.3583e-06
2.8119e-06
1.01545e-05
4.06471e-06
9.89391e-06
5.19104e-06
9.47995e-06
6.20753e-06
8.96024e-06
7.12026e-06
8.34151e-06
7.93114e-06
7.631e-06
8.64218e-06
6.8395e-06
9.25731e-06
5.98077e-06
9.78273e-06
5.07046e-06
1.02265e-05
4.12548e-06
1.05979e-05
3.16381e-06
1.0906e-05
2.20468e-06
1.11588e-05
1.26864e-06
1.13614e-05
3.77223e-07
1.15154e-05
-4.491e-07
1.16198e-05
-1.19486e-06
1.16758e-05
-1.85704e-06
1.16895e-05
-2.44053e-06
1.16703e-05
-2.94994e-06
1.16283e-05
-3.38768e-06
1.15728e-05
-3.75521e-06
-4.05575e-06
1.15106e-05
1.28528e-06
8.0728e-06
2.56594e-06
8.87389e-06
3.70576e-06
8.75403e-06
4.72198e-06
8.46358e-06
5.62921e-06
8.05288e-06
6.43576e-06
7.53492e-06
7.14678e-06
6.91999e-06
7.76682e-06
6.21949e-06
8.3013e-06
5.44634e-06
8.75704e-06
4.6148e-06
9.14228e-06
3.74033e-06
9.46632e-06
2.83989e-06
9.73853e-06
1.93257e-06
9.96691e-06
1.04036e-06
1.01558e-05
1.88428e-07
1.03038e-05
-5.97095e-07
1.0404e-05
-1.29502e-06
1.04542e-05
-1.90717e-06
1.04615e-05
-2.44783e-06
1.04376e-05
-2.92596e-06
1.03942e-05
-3.34423e-06
1.03412e-05
-3.70216e-06
-3.99994e-06
1.02855e-05
1.15976e-06
6.91305e-06
2.31244e-06
7.72131e-06
3.33775e-06
7.72867e-06
4.24555e-06
7.55571e-06
5.04768e-06
7.25074e-06
5.75313e-06
6.82952e-06
6.36874e-06
6.30444e-06
6.90046e-06
5.68783e-06
7.35439e-06
4.99249e-06
7.73751e-06
4.23177e-06
8.05806e-06
3.41986e-06
8.32557e-06
2.57244e-06
8.55031e-06
1.70788e-06
8.74168e-06
8.49025e-07
8.90492e-06
2.52123e-08
9.03627e-06
-7.28432e-07
9.1196e-06
-1.37835e-06
9.14858e-06
-1.93616e-06
9.13433e-06
-2.43358e-06
9.09276e-06
-2.88439e-06
9.03786e-06
-3.28928e-06
8.97966e-06
-3.64387e-06
-3.94435e-06
8.9242e-06
1.05325e-06
5.85993e-06
2.08868e-06
6.68587e-06