/*--------------------------------*- C++ -*----------------------------------*\
| =========                 |                                                 |
| \\      /  F ield         | OpenFOAM: The Open Source CFD Toolbox           |
|  \\    /   O peration     | Version:  2.3.0                                 |
|   \\  /    A nd           | Web:      www.OpenFOAM.org                      |
|    \\/     M anipulation  |                                                 |
\*---------------------------------------------------------------------------*/
FoamFile
{
    version     2.0;
    format      ascii;
    class       volVectorField;
    location    "2.65";
    object      U;
}
// * * * * * * * * * * * * * * * * * * * * * * * * * * * * * * * * * * * * * //

dimensions      [0 1 -1 0 0 0 0];

internalField   nonuniform List<vector> 
2268
(
(-0.00510064 0.00238888 0)
(-0.0122758 0.00300567 0)
(-0.0226097 0.00307896 0)
(-0.0323575 0.00292596 0)
(-0.0414946 0.00277326 0)
(-0.0498808 0.00259691 0)
(-0.0574716 0.00239544 0)
(-0.0642379 0.00216994 0)
(-0.0701388 0.00191517 0)
(-0.0751291 0.00163306 0)
(-0.0791485 0.00131496 0)
(-0.0820638 0.000922191 0)
(-0.0836014 0.000352015 0)
(-0.0831677 -0.000550558 0)
(-0.0795618 -0.00185897 0)
(-0.0719009 -0.00337189 0)
(-0.061503 -0.00387652 0)
(-0.0501941 -0.0039181 0)
(-0.0361315 -0.0058266 0)
(-0.0162829 -0.00894818 0)
(0.00705211 -0.00913823 0)
(0.0277554 -0.00379288 0)
(0.0201613 0.00688433 0)
(-0.00615941 0.00581471 0)
(-0.0141331 0.00713558 0)
(-0.0238794 0.00741956 0)
(-0.0334925 0.0070066 0)
(-0.0424283 0.00647977 0)
(-0.0506094 0.00591132 0)
(-0.0580222 0.00532087 0)
(-0.0646763 0.00471066 0)
(-0.0705554 0.00406952 0)
(-0.0756337 0.00338856 0)
(-0.0798405 0.00263146 0)
(-0.083003 0.00171003 0)
(-0.0847986 0.000459224 0)
(-0.0847657 -0.00133988 0)
(-0.0823683 -0.00379005 0)
(-0.0770311 -0.00653964 0)
(-0.0686035 -0.00810675 0)
(-0.0571551 -0.00940914 0)
(-0.0422195 -0.0126227 0)
(-0.0237385 -0.0164361 0)
(-0.00328697 -0.0158811 0)
(0.0157401 -0.0054822 0)
(0.0151133 0.0167433 0)
(-0.00636375 0.0104394 0)
(-0.0150713 0.0113756 0)
(-0.0243722 0.011649 0)
(-0.0336642 0.0110435 0)
(-0.0422815 0.0102034 0)
(-0.0501965 0.00930054 0)
(-0.057412 0.00838277 0)
(-0.0639552 0.00745204 0)
(-0.069822 0.00648692 0)
(-0.0749938 0.00546359 0)
(-0.0794008 0.00431104 0)
(-0.0828718 0.00288733 0)
(-0.0851094 0.000974534 0)
(-0.0857094 -0.00167957 0)
(-0.0842746 -0.0051685 0)
(-0.0804625 -0.00910569 0)
(-0.0735666 -0.0121881 0)
(-0.0629656 -0.0151317 0)
(-0.0489535 -0.0197722 0)
(-0.0321697 -0.0245578 0)
(-0.0131763 -0.0242488 0)
(0.00586608 -0.0105577 0)
(0.011357 0.0220667 0)
(-0.0063492 0.0154309 0)
(-0.0157574 0.0158874 0)
(-0.0250141 0.0159983 0)
(-0.0341869 0.0151636 0)
(-0.0426469 0.0140097 0)
(-0.050428 0.0127851 0)
(-0.0575539 0.0115586 0)
(-0.0640634 0.0103285 0)
(-0.0699598 0.00906169 0)
(-0.0752265 0.00771656 0)
(-0.0797956 0.00618681 0)
(-0.0835013 0.00428061 0)
(-0.086067 0.00173046 0)
(-0.087132 -0.00173852 0)
(-0.086361 -0.00620783 0)
(-0.0834945 -0.0112837 0)
(-0.0778355 -0.0159507 0)
(-0.0685841 -0.0206014 0)
(-0.0561975 -0.0266334 0)
(-0.0415926 -0.0326197 0)
(-0.0245081 -0.0332696 0)
(-0.00542388 -0.0174139 0)
(0.00891733 0.0250404 0)
(-0.00630797 0.0205266 0)
(-0.016385 0.0205987 0)
(-0.0258908 0.0204312 0)
(-0.03517 0.019317 0)
(-0.0436603 0.0178405 0)
(-0.0514554 0.0163004 0)
(-0.058605 0.0147798 0)
(-0.0651577 0.0132674 0)
(-0.0711194 0.011716 0)
(-0.0764726 0.0100662 0)
(-0.0811507 0.0081771 0)
(-0.0849928 0.00580941 0)
(-0.0877382 0.00265183 0)
(-0.0890516 -0.00158696 0)
(-0.0886218 -0.0069676 0)
(-0.0862255 -0.0130995 0)
(-0.0813748 -0.0191916 0)
(-0.0735189 -0.0253759 0)
(-0.0632481 -0.0325311 0)
(-0.0517066 -0.039546 0)
(-0.0381492 -0.0418105 0)
(-0.0207778 -0.0261999 0)
(0.00265658 0.0248406 0)
(-0.00639851 0.025763 0)
(-0.0171969 0.0255273 0)
(-0.0271714 0.0249912 0)
(-0.0367703 0.0235371 0)
(-0.045477 0.0217134 0)
(-0.0534327 0.0198518 0)
(-0.0607126 0.0180399 0)
(-0.0673719 0.0162504 0)
(-0.0734138 0.0144182 0)
(-0.0788149 0.0124662 0)
(-0.0835075 0.0102214 0)
(-0.0873348 0.00739949 0)
(-0.0900478 0.00364919 0)
(-0.0913283 -0.00133488 0)
(-0.0908813 -0.00758538 0)
(-0.0885317 -0.0146954 0)
(-0.0840456 -0.0219628 0)
(-0.0772993 -0.0292861 0)
(-0.0692617 -0.0370465 0)
(-0.0615366 -0.0445001 0)
(-0.0535625 -0.048522 0)
(-0.0417839 -0.0361292 0)
(-0.0133454 0.0198983 0)
(-0.00676413 0.031279 0)
(-0.0184031 0.0307683 0)
(-0.0290209 0.0297712 0)
(-0.0391277 0.0279074 0)
(-0.0482225 0.0256914 0)
(-0.0564715 0.0234812 0)
(-0.0639699 0.0213583 0)
(-0.0707741 0.0192726 0)
(-0.0768762 0.0171373 0)
(-0.08224 0.0148584 0)
(-0.0867933 0.0122335 0)
(-0.0903841 0.00893669 0)
(-0.0927768 0.00457945 0)
(-0.0936717 -0.00115627 0)
(-0.0928001 -0.00826547 0)
(-0.0900667 -0.0162808 0)
(-0.0855188 -0.0244687 0)
(-0.0795048 -0.0324565 0)
(-0.07347 -0.0401107 0)
(-0.0696609 -0.0468844 0)
(-0.0684305 -0.0515231 0)
(-0.067066 -0.0456219 0)
(-0.0452428 -0.00219674 0)
(-0.00752532 0.037223 0)
(-0.0201089 0.0365305 0)
(-0.0315062 0.0350104 0)
(-0.0422611 0.0326509 0)
(-0.0518896 0.0299723 0)
(-0.0605443 0.0273415 0)
(-0.0683252 0.0248359 0)
(-0.0752744 0.0223744 0)
(-0.0813666 0.0198492 0)
(-0.0865506 0.0171549 0)
(-0.090749 0.0140639 0)
(-0.0938187 0.0102128 0)
(-0.0955461 0.00518434 0)
(-0.0956656 -0.00135171 0)
(-0.0939574 -0.00934014 0)
(-0.0904385 -0.0181901 0)
(-0.0854458 -0.0270273 0)
(-0.0797672 -0.0351517 0)
(-0.0752846 -0.0418586 0)
(-0.0747926 -0.0465339 0)
(-0.0795725 -0.0495372 0)
(-0.0902492 -0.0510154 0)
(-0.0910537 -0.0407031 0)
(-0.0262196 0.00676465 0)
(-0.0123806 -0.010275 0)
(0.0231626 -0.0126544 0)
(0.0549918 -0.0113463 0)
(0.0841929 -0.0099366 0)
(0.109929 -0.00840006 0)
(0.127757 -0.00555481 0)
(0.135224 -0.00109539 0)
(0.121133 0.00976725 0)
(0.0721162 0.0161792 0)
(0.0284125 0.0058514 0)
(0.0230026 0.00282796 0)
(0.00878451 0.0124161 0)
(-0.0528152 0.0178919 0)
(-0.10972 0.0115099 0)
(-0.124727 -0.00305332 0)
(-0.0986105 -0.0143852 0)
(-0.0585694 -0.0161594 0)
(-0.0158565 -0.00803562 0)
(-0.0132082 0.0123298 0)
(0.00745426 -0.0179407 0)
(0.030986 -0.021253 0)
(0.0525649 -0.0193586 0)
(0.0735234 -0.0172583 0)
(0.0923248 -0.0137264 0)
(0.102763 -0.0065871 0)
(0.101354 0.00237833 0)
(0.0946379 0.0193648 0)
(0.0677381 0.0292421 0)
(0.0351049 0.014312 0)
(0.0222778 0.00884536 0)
(0.00758138 0.0238213 0)
(-0.0366721 0.0352498 0)
(-0.0773693 0.0251851 0)
(-0.0868412 -0.000754049 0)
(-0.0796247 -0.0197723 0)
(-0.0605733 -0.0277774 0)
(-0.028817 -0.0234938 0)
(0.00346136 0.0100458 0)
(0.0185796 -0.0249143 0)
(0.0329475 -0.0279535 0)
(0.047529 -0.0260632 0)
(0.0629944 -0.0237393 0)
(0.0772262 -0.0183339 0)
(0.0833817 -0.00694232 0)
(0.0772752 0.00537428 0)
(0.067327 0.0244072 0)
(0.0520788 0.0370693 0)
(0.0329126 0.0219524 0)
(0.0204466 0.0148736 0)
(0.00779237 0.0324615 0)
(-0.0156702 0.0464114 0)
(-0.0406639 0.0346134 0)
(-0.0543232 0.00209509 0)
(-0.0566525 -0.0220201 0)
(-0.0506421 -0.0358266 0)
(-0.0285825 -0.0428198 0)
(0.014386 0.00310729 0)
(0.02356 -0.0297291 0)
(0.031009 -0.0326082 0)
(0.0404367 -0.031346 0)
(0.0518534 -0.0291395 0)
(0.0630436 -0.0219858 0)
(0.0666376 -0.00624256 0)
(0.0584734 0.00950569 0)
(0.0476728 0.0289835 0)
(0.0390439 0.0416332 0)
(0.0292969 0.0276685 0)
(0.0194901 0.019769 0)
(0.0107536 0.0382102 0)
(0.000907429 0.0525784 0)
(-0.0118126 0.0417231 0)
(-0.0246842 0.00695677 0)
(-0.0321739 -0.0213862 0)
(-0.0345123 -0.0397501 0)
(-0.0203818 -0.0582394 0)
(0.0188616 -0.00649149 0)
(0.0226394 -0.0320651 0)
(0.0253721 -0.035116 0)
(0.0311831 -0.0350944 0)
(0.0396156 -0.0334049 0)
(0.0489412 -0.024891 0)
(0.0513971 -0.00478902 0)
(0.0424037 0.0137959 0)
(0.0324868 0.0326768 0)
(0.0289822 0.0435179 0)
(0.0259053 0.0311424 0)
(0.0201082 0.0230496 0)
(0.0159188 0.0408349 0)
(0.0145137 0.0547632 0)
(0.0106263 0.0458493 0)
(0.00143328 0.0118595 0)
(-0.00844807 -0.0185165 0)
(-0.0164301 -0.0400882 0)
(-0.00929329 -0.0674964 0)
(0.01685 -0.0154135 0)
(0.0159859 -0.0322411 0)
(0.016326 -0.0361425 0)
(0.0199507 -0.0376616 0)
(0.0262387 -0.0367883 0)
(0.0344871 -0.0275226 0)
(0.0371182 -0.00306559 0)
(0.0284596 0.0178597 0)
(0.0206507 0.0348478 0)
(0.0217908 0.0433711 0)
(0.0241686 0.032187 0)
(0.0219262 0.0247259 0)
(0.021382 0.0406974 0)
(0.0257557 0.0542028 0)
(0.0282241 0.0472984 0)
(0.023234 0.0160325 0)
(0.0125673 -0.0142149 0)
(0.000891399 -0.0380276 0)
(0.00184219 -0.0702323 0)
(0.00450464 -0.0179829 0)
(0.00425905 -0.0314808 0)
(0.00453597 -0.0366312 0)
(0.00718892 -0.0394902 0)
(0.0119104 -0.0395447 0)
(0.0193105 -0.0302448 0)
(0.023271 -0.0017695 0)
(0.0169026 0.0212246 0)
(0.0120081 0.0353811 0)
(0.0171863 0.0412593 0)
(0.0240674 0.0312306 0)
(0.0247571 0.0252605 0)
(0.026888 0.0386756 0)
(0.0348093 0.0515619 0)
(0.0419 0.0465983 0)
(0.040464 0.0192958 0)
(0.0298094 -0.00915001 0)
(0.0160813 -0.0343216 0)
(0.0117739 -0.0668775 0)
(-0.0186283 -0.0164159 0)
(-0.0105572 -0.0319129 0)
(-0.0088307 -0.0374576 0)
(-0.00637052 -0.0409169 0)
(-0.00301524 -0.0417064 0)
(0.0031663 -0.0330885 0)
(0.00921257 -0.00191604 0)
(0.00726966 0.0232143 0)
(0.00633107 0.0343297 0)
(0.0151249 0.037489 0)
(0.0249967 0.0288965 0)
(0.0285098 0.0246175 0)
(0.032582 0.035796 0)
(0.0420881 0.0475802 0)
(0.0517984 0.0442857 0)
(0.0528061 0.0217935 0)
(0.0428919 -0.00381546 0)
(0.0285059 -0.028789 0)
(0.0199726 -0.0592057 0)
(-0.00918455 0.0490641 0)
(-0.0230346 0.0469466 0)
(-0.0359389 0.0443991 0)
(-0.0478987 0.0410599 0)
(-0.0585335 0.0374947 0)
(-0.0679541 0.0340132 0)
(-0.0762302 0.0306839 0)
(-0.0833682 0.027393 0)
(-0.089311 0.0240121 0)
(-0.0939874 0.020423 0)
(-0.0973135 0.0163654 0)
(-0.0991716 0.0114348 0)
(-0.0994129 0.00519532 0)
(-0.0978637 -0.00269852 0)
(-0.0944091 -0.0121174 0)
(-0.0892758 -0.0221175 0)
(-0.0832394 -0.0314386 0)
(-0.077649 -0.0388142 0)
(-0.0748293 -0.0426009 0)
(-0.077947 -0.0420751 0)
(-0.0888915 -0.0398352 0)
(-0.108935 -0.0420627 0)
(-0.133567 -0.0484109 0)
(-0.011628 0.0557256 0)
(-0.0264559 0.0579427 0)
(-0.0411078 0.055386 0)
(-0.0546643 0.0513965 0)
(-0.066871 0.0471613 0)
(-0.0775917 0.0428263 0)
(-0.0865981 0.0384545 0)
(-0.0937701 0.0339472 0)
(-0.0991464 0.0292325 0)
(-0.102746 0.0241586 0)
(-0.104452 0.0184398 0)
(-0.104203 0.0116909 0)
(-0.102022 0.00356885 0)
(-0.098017 -0.0062517 0)
(-0.0922126 -0.0173523 0)
(-0.0850419 -0.028215 0)
(-0.0777638 -0.0369092 0)
(-0.0721526 -0.0418601 0)
(-0.070492 -0.0411319 0)
(-0.0753225 -0.0346175 0)
(-0.0871581 -0.0273655 0)
(-0.103127 -0.0279524 0)
(-0.115526 -0.0385823 0)
(-0.0165152 0.0730103 0)
(-0.0279473 0.0719646 0)
(-0.043553 0.0668813 0)
(-0.0597562 0.0608002 0)
(-0.0753581 0.0552787 0)
(-0.0886344 0.0498478 0)
(-0.0981821 0.0443421 0)
(-0.103836 0.0387152 0)
(-0.107035 0.0329279 0)
(-0.108547 0.0265695 0)
(-0.107821 0.0195619 0)
(-0.104779 0.0114138 0)
(-0.0997158 0.0017239 0)
(-0.0931484 -0.00950336 0)
(-0.0854842 -0.0216737 0)
(-0.0774168 -0.032775 0)
(-0.070264 -0.0408946 0)
(-0.0660879 -0.0446181 0)
(-0.0669084 -0.0410393 0)
(-0.0739991 -0.0286614 0)
(-0.0849256 -0.0154235 0)
(-0.0939388 -0.0149968 0)
(-0.0977414 -0.0296568 0)
(-0.0456174 0.112076 0)
(-0.0211794 0.0825167 0)
(-0.0347897 0.079417 0)
(-0.0593802 0.0722019 0)
(-0.086034 0.0659651 0)
(-0.108053 0.0587585 0)
(-0.119917 0.0492907 0)
(-0.119611 0.0402862 0)
(-0.115398 0.0337604 0)
(-0.113003 0.0252004 0)
(-0.108028 0.0162143 0)
(-0.100022 0.00598983 0)
(-0.0895354 -0.00578989 0)
(-0.0792856 -0.0175051 0)
(-0.070682 -0.0298593 0)
(-0.0630351 -0.0399967 0)
(-0.0576162 -0.0454228 0)
(-0.0610895 -0.0457599 0)
(-0.0777831 -0.0380718 0)
(-0.102367 -0.0190324 0)
(-0.115952 -0.00218121 0)
(-0.100799 -0.0109928 0)
(-0.0649591 -0.0301882 0)
(-0.0616989 0.156599 0)
(-0.0767018 0.0943194 0)
(-0.104952 0.137825 0)
(-0.163616 0.146489 0)
(-0.229037 0.132451 0)
(-0.271793 0.0983099 0)
(-0.272575 0.0576071 0)
(-0.259221 0.0289693 0)
(-0.226339 0.0204377 0)
(-0.188476 0.00947887 0)
(-0.153948 -0.00264263 0)
(-0.119838 -0.0175276 0)
(-0.0890854 -0.0308376 0)
(-0.068234 -0.0337593 0)
(-0.0618464 -0.0394452 0)
(-0.0636116 -0.0497682 0)
(-0.0616747 -0.049346 0)
(-0.0728158 -0.0204874 0)
(-0.122158 0.0169226 0)
(-0.181399 0.0369253 0)
(-0.175538 -0.0212936 0)
(-0.115644 -0.0726464 0)
(-0.066279 -0.0843355 0)
(-0.0957778 0.211415 0)
(-0.141449 0.131701 0)
(-0.190278 0.171539 0)
(-0.230808 0.189612 0)
(-0.271601 0.169138 0)
(-0.30619 0.121088 0)
(-0.319524 0.0514945 0)
(-0.309046 -0.005889 0)
(-0.281311 -0.0256405 0)
(-0.24881 -0.0338847 0)
(-0.219286 -0.043189 0)
(-0.190569 -0.0573984 0)
(-0.164804 -0.0611847 0)
(-0.14399 -0.0413488 0)
(-0.133177 -0.030348 0)
(-0.121046 -0.0599676 0)
(-0.0926001 -0.0590415 0)
(-0.0767311 0.00475272 0)
(-0.100464 0.0649931 0)
(-0.130958 0.0505398 0)
(-0.124177 -0.0607823 0)
(-0.0925353 -0.115481 0)
(-0.0655949 -0.113987 0)
(-0.0966014 0.335508 0)
(-0.172492 0.20412 0)
(-0.235125 0.206864 0)
(-0.256388 0.208855 0)
(-0.272818 0.191476 0)
(-0.295067 0.146317 0)
(-0.302933 0.0547725 0)
(-0.289161 -0.0200071 0)
(-0.274971 -0.0435246 0)
(-0.25935 -0.050596 0)
(-0.2464 -0.0583989 0)
(-0.23733 -0.0698018 0)
(-0.232335 -0.0719096 0)
(-0.227276 -0.0543721 0)
(-0.204282 -0.0635599 0)
(-0.167154 -0.0954552 0)
(-0.134892 -0.0886622 0)
(-0.098162 -0.0211563 0)
(-0.0747708 0.0715955 0)
(-0.0725605 0.0506819 0)
(-0.0701083 -0.071516 0)
(-0.0642674 -0.130595 0)
(-0.0609104 -0.12851 0)
(-0.0820253 0.47067 0)
(-0.153169 0.314806 0)
(-0.226364 0.250559 0)
(-0.254986 0.225741 0)
(-0.27296 0.20715 0)
(-0.275531 0.15771 0)
(-0.25493 0.0484667 0)
(-0.238855 -0.0351434 0)
(-0.241297 -0.0569697 0)
(-0.241488 -0.0570645 0)
(-0.241743 -0.0609614 0)
(-0.252108 -0.0718427 0)
(-0.260668 -0.0789424 0)
(-0.252599 -0.0742277 0)
(-0.229611 -0.0899032 0)
(-0.199915 -0.121641 0)
(-0.169585 -0.117094 0)
(-0.140487 -0.0533529 0)
(-0.103762 0.0391206 0)
(-0.0536362 0.0495992 0)
(-0.0287355 -0.0769636 0)
(-0.0482329 -0.131933 0)
(-0.0836267 -0.11345 0)
(-0.0494062 0.555034 0)
(-0.101073 0.408829 0)
(-0.17292 0.312252 0)
(-0.227147 0.259466 0)
(-0.253078 0.218908 0)
(-0.237693 0.129422 0)
(-0.210181 0.0249139 0)
(-0.197722 -0.0455162 0)
(-0.199724 -0.0610657 0)
(-0.199549 -0.0575936 0)
(-0.203588 -0.0575523 0)
(-0.211924 -0.056249 0)
(-0.231923 -0.0742548 0)
(-0.240152 -0.0785481 0)
(-0.222942 -0.107334 0)
(-0.207559 -0.144534 0)
(-0.196766 -0.140466 0)
(-0.185522 -0.0818759 0)
(-0.149526 0.00273803 0)
(-0.0889946 0.00732 0)
(-0.0530736 -0.0790964 0)
(-0.0897992 -0.103522 0)
(-0.117774 -0.0785142 0)
(-0.0230432 0.594031 0)
(-0.0563453 0.464274 0)
(-0.113246 0.373699 0)
(-0.1622 0.305876 0)
(-0.186032 0.224196 0)
(-0.179258 0.105879 0)
(-0.166166 0.0106207 0)
(-0.164796 -0.043756 0)
(-0.165679 -0.0565718 0)
(-0.16301 -0.0551387 0)
(-0.161562 -0.0484685 0)
(-0.16597 -0.0433994 0)
(-0.179013 -0.0549927 0)
(-0.190474 -0.0804383 0)
(-0.189477 -0.121281 0)
(-0.188719 -0.157542 0)
(-0.204701 -0.154116 0)
(-0.203316 -0.104053 0)
(-0.17155 -0.0533577 0)
(-0.13502 -0.047476 0)
(-0.118788 -0.0738249 0)
(-0.129359 -0.0798173 0)
(-0.136867 -0.0708442 0)
(-0.00412397 0.612812 0)
(-0.0179363 0.501016 0)
(-0.0527633 0.414994 0)
(-0.0809986 0.33802 0)
(-0.0979622 0.23452 0)
(-0.103176 0.103115 0)
(-0.109168 0.0144015 0)
(-0.121804 -0.0350365 0)
(-0.133937 -0.050348 0)
(-0.138872 -0.0541076 0)
(-0.138656 -0.0506642 0)
(-0.135436 -0.0421747 0)
(-0.139666 -0.0424217 0)
(-0.149937 -0.068958 0)
(-0.156022 -0.116081 0)
(-0.160152 -0.146791 0)
(-0.165732 -0.146951 0)
(-0.166509 -0.115218 0)
(-0.157348 -0.0754687 0)
(-0.143067 -0.0631905 0)
(-0.137035 -0.0732063 0)
(-0.139467 -0.0780266 0)
(-0.138687 -0.0746192 0)
(0.0108062 0.608223 0)
(0.0164478 0.521075 0)
(0.00359903 0.434777 0)
(-0.00218642 0.352747 0)
(-0.00698243 0.246043 0)
(-0.0188453 0.114207 0)
(-0.041707 0.0275393 0)
(-0.0679562 -0.0208141 0)
(-0.0942101 -0.0404266 0)
(-0.110095 -0.0484995 0)
(-0.115107 -0.0491767 0)
(-0.113986 -0.0446121 0)
(-0.112122 -0.0408239 0)
(-0.113683 -0.062086 0)
(-0.120034 -0.108228 0)
(-0.129812 -0.136736 0)
(-0.138839 -0.137386 0)
(-0.144532 -0.113116 0)
(-0.143306 -0.081175 0)
(-0.136332 -0.069335 0)
(-0.132527 -0.0740322 0)
(-0.132232 -0.0791586 0)
(-0.129473 -0.0802652 0)
(0.022389 0.580192 0)
(0.0444131 0.521719 0)
(0.0492079 0.433907 0)
(0.0585889 0.350427 0)
(0.0632477 0.251288 0)
(0.0522752 0.138178 0)
(0.022151 0.056966 0)
(-0.0101906 0.0108955 0)
(-0.0370679 -0.0152573 0)
(-0.0582316 -0.0351798 0)
(-0.0742168 -0.0453618 0)
(-0.0823291 -0.0447487 0)
(-0.0807492 -0.042773 0)
(-0.0777306 -0.0603865 0)
(-0.0833584 -0.0986146 0)
(-0.0972607 -0.12567 0)
(-0.112269 -0.128441 0)
(-0.124054 -0.107355 0)
(-0.12456 -0.0831768 0)
(-0.11923 -0.0739342 0)
(-0.115528 -0.0758048 0)
(-0.114607 -0.0807696 0)
(-0.112786 -0.0847976 0)
(0.0300068 0.5353 0)
(0.0632849 0.505082 0)
(0.0800223 0.419001 0)
(0.0966038 0.338295 0)
(0.105137 0.250973 0)
(0.0968349 0.161617 0)
(0.0729638 0.0907298 0)
(0.044895 0.0421296 0)
(0.0196765 0.00989074 0)
(-0.00146112 -0.0134095 0)
(-0.0190097 -0.0292194 0)
(-0.0313413 -0.0378603 0)
(-0.0364533 -0.0441391 0)
(-0.0380837 -0.0595781 0)
(-0.0452324 -0.0865873 0)
(-0.0615308 -0.109273 0)
(-0.0801754 -0.112621 0)
(-0.0921434 -0.0995818 0)
(-0.0952383 -0.0853184 0)
(-0.0929552 -0.0778569 0)
(-0.0907434 -0.0776664 0)
(-0.090492 -0.0813204 0)
(-0.0907985 -0.0865531 0)
(0.0334339 0.482071 0)
(0.0728899 0.476556 0)
(0.0972234 0.39714 0)
(0.117121 0.322915 0)
(0.127889 0.248225 0)
(0.124499 0.175082 0)
(0.108477 0.113242 0)
(0.086959 0.0661434 0)
(0.0653709 0.0316178 0)
(0.045725 0.00575832 0)
(0.0285399 -0.013259 0)
(0.0149941 -0.0268241 0)
(0.00608402 -0.0384938 0)
(-0.000427952 -0.053816 0)
(-0.010033 -0.07374 0)
(-0.0253451 -0.0904737 0)
(-0.042504 -0.0962933 0)
(-0.055244 -0.0915567 0)
(-0.0611925 -0.0837239 0)
(-0.0625811 -0.0787231 0)
(-0.0628338 -0.0780385 0)
(-0.0638284 -0.0806104 0)
(-0.0660818 -0.0853003 0)
(0.0331843 0.42751 0)
(0.0748345 0.441067 0)
(0.103737 0.371972 0)
(0.125365 0.306181 0)
(0.137867 0.242744 0)
(0.138943 0.181954 0)
(0.12985 0.128511 0)
(0.114883 0.0848425 0)
(0.0979369 0.0504155 0)
(0.0811414 0.0233196 0)
(0.0655371 0.00210378 0)
(0.0521112 -0.0146333 0)
(0.0413922 -0.0292416 0)
(0.0320576 -0.0445997 0)
(0.0210885 -0.061069 0)
(0.00699943 -0.0747855 0)
(-0.0080743 -0.0817363 0)
(-0.0204245 -0.0817977 0)
(-0.0282217 -0.0788022 0)
(-0.0324527 -0.0764434 0)
(-0.0351646 -0.0762791 0)
(-0.0378965 -0.0783007 0)
(-0.0414343 -0.0820502 0)
(0.0302765 0.375996 0)
(0.0713206 0.402237 0)
(0.102525 0.344998 0)
(0.12506 0.288328 0)
(0.13893 0.234623 0)
(0.143504 0.183662 0)
(0.139815 0.137647 0)
(0.130502 0.0981492 0)
(0.118257 0.0652712 0)
(0.104946 0.0381853 0)
(0.0917211 0.0159612 0)
(0.0794388 -0.0024644 0)
(0.0684817 -0.0185726 0)
(0.0581795 -0.0338914 0)
(0.0470128 -0.0485898 0)
(0.0342408 -0.0607944 0)
(0.0210214 -0.0684975 0)
(0.00948035 -0.0715675 0)
(0.000868797 -0.0719447 0)
(-0.00514642 -0.071854 0)
(-0.00970962 -0.0725791 0)
(-0.0139426 -0.0744951 0)
(-0.0186258 -0.077553 0)
(0.0259477 0.329993 0)
(0.0645439 0.362891 0)
(0.0962296 0.317261 0)
(0.119069 0.269629 0)
(0.133937 0.224392 0)
(0.141085 0.181438 0)
(0.141423 0.141841 0)
(0.136654 0.106614 0)
(0.128627 0.0760731 0)
(0.118827 0.0499441 0)
(0.108306 0.0277121 0)
(0.0978085 0.00869163 0)
(0.0876915 -0.00800301 0)
(0.0777099 -0.0231845 0)
(0.0671844 -0.0369578 0)
(0.0558179 -0.0484482 0)
(0.0442716 -0.0566823 0)
(0.0337511 -0.0615994 0)
(0.0250708 -0.064224 0)
(0.0181899 -0.0658767 0)
(0.012503 -0.0675011 0)
(0.00725437 -0.0695647 0)
(0.00179294 -0.0722416 0)
(0.021339 0.290541 0)
(0.0563936 0.325206 0)
(0.0871178 0.289769 0)
(0.109705 0.250529 0)
(0.125188 0.212658 0)
(0.134157 0.176362 0)
(0.137422 0.142275 0)
(0.136159 0.111101 0)
(0.131657 0.0832114 0)
(0.125048 0.0586104 0)
(0.117211 0.0370745 0)
(0.108783 0.0182207 0)
(0.100117 0.00155541 0)
(0.091212 -0.0133489 0)
(0.081845 -0.026556 0)
(0.0719619 -0.0376729 0)
(0.0619778 -0.0462539 0)
(0.0525958 -0.0522993 0)
(0.0443413 -0.0563764 0)
(0.0372836 -0.059276 0)
(0.0311211 -0.0616606 0)
(0.0253675 -0.0639623 0)
(0.0195296 -0.0664498 0)
(0.0172522 0.257503 0)
(0.0482894 0.290582 0)
(0.0770432 0.263372 0)
(0.0988769 0.231489 0)
(0.114579 0.199974 0)
(0.124747 0.169293 0)
(0.130078 0.139944 0)
(0.131433 0.112476 0)
(0.129739 0.0872705 0)
(0.125849 0.0644759 0)
(0.120466 0.0440604 0)
(0.114123 0.025858 0)
(0.107157 0.00962478 0)
(0.0996968 -0.0048488 0)
(0.091745 -0.0175937 0)
(0.0833757 -0.0284386 0)
(0.0748807 -0.0371947 0)
(0.0666949 -0.0438971 0)
(0.0591653 -0.0488784 0)
(0.0523926 -0.052622 0)
(0.0462425 -0.0555845 0)
(0.0404138 -0.0581242 0)
(0.0345506 -0.0605273 0)
(0.0140702 0.229964 0)
(0.0411298 0.259636 0)
(0.0673796 0.238648 0)
(0.0880758 0.212918 0)
(0.103614 0.186819 0)
(0.114439 0.160912 0)
(0.121136 0.135646 0)
(0.124369 0.1115 0)
(0.124823 0.0888571 0)
(0.123144 0.067949 0)
(0.119881 0.0488679 0)
(0.115471 0.0315948 0)
(0.110219 0.0160443 0)
(0.104307 0.00213407 0)
(0.0978408 -0.0101406 0)
(0.090954 -0.0207012 0)
(0.0838727 -0.0294769 0)
(0.0768874 -0.0365152 0)
(0.0702397 -0.0420222 0)
(0.0640337 -0.0463007 0)
(0.0582257 -0.0496641 0)
(0.0526364 -0.0523963 0)
(0.047017 -0.0547658 0)
(0.0118312 0.206729 0)
(0.0353297 0.23236 0)
(0.0589845 0.215878 0)
(0.0783206 0.195149 0)
(0.0933475 0.17363 0)
(0.10435 0.151791 0)
(0.111831 0.130038 0)
(0.116327 0.108821 0)
(0.11836 0.0885335 0)
(0.118414 0.0694636 0)
(0.116909 0.0517847 0)
(0.114193 0.0355748 0)
(0.11053 0.0208473 0)
(0.10611 0.00759635 0)
(0.101078 -0.0041618 0)
(0.0955852 -0.0143835 0)
(0.0898203 -0.0230462 0)
(0.0839937 -0.0301954 0)
(0.0782852 -0.0359638 0)
(0.0727941 -0.0405458 0)
(0.0675262 -0.044158 0)
(0.0623808 -0.0470213 0)
(0.0571892 -0.0493745 0)
(0.0103377 0.186664 0)
(0.0309075 0.208317 0)
(0.0522129 0.195067 0)
(0.0701233 0.178416 0)
(0.0843516 0.160798 0)
(0.0951143 0.142426 0)
(0.102906 0.123664 0)
(0.108179 0.104976 0)
(0.111329 0.086786 0)
(0.112704 0.0694257 0)
(0.112615 0.0531226 0)
(0.111329 0.0380146 0)
(0.109062 0.0241747 0)
(0.105992 0.011642 0)
(0.102268 0.00044863 0)
(0.0980403 -0.00937353 0)
(0.0934709 -0.0178164 0)
(0.0887245 -0.0249164 0)
(0.0839435 -0.0307609 0)
(0.0792216 -0.035477 0)
(0.0745918 -0.0392159 0)
(0.070004 -0.0421493 0)
(0.0653478 -0.0444853 0)
(0.00925515 0.168942 0)
(0.027589 0.186858 0)
(0.0469531 0.176015 0)
(0.0634824 0.162859 0)
(0.0766987 0.148663 0)
(0.0869004 0.133225 0)
(0.0946649 0.116948 0)
(0.100377 0.100381 0)
(0.104305 0.0840038 0)
(0.10668 0.0681829 0)
(0.107715 0.0531762 0)
(0.107603 0.039153 0)
(0.10652 0.0262171 0)
(0.104619 0.0144317 0)
(0.102041 0.00383878 0)
(0.0989253 -0.00553231 0)
(0.095414 -0.0136744 0)
(0.0916437 -0.0206128 0)
(0.0877338 -0.0264043 0)
(0.0837726 -0.0311328 0)
(0.0798084 -0.0349053 0)
(0.0758232 -0.0378558 0)
(0.0717484 -0.0401652 0)
(0.00848432 0.15294 0)
(0.0249231 0.167343 0)
(0.0426187 0.158368 0)
(0.0578336 0.148493 0)
(0.0699549 0.137464 0)
(0.0794603 0.124442 0)
(0.0870686 0.110142 0)
(0.0930583 0.0953004 0)
(0.0975658 0.0804608 0)
(0.100715 0.0660061 0)
(0.102639 0.0522003 0)
(0.103477 0.0392197 0)
(0.10337 0.0271783 0)
(0.102448 0.0161484 0)
(0.100841 0.00617692 0)
(0.0986765 -0.00270668 0)
(0.0960789 -0.0104912 0)
(0.093167 -0.0171911 0)
(0.0900451 -0.0228416 0)
(0.0867971 -0.0274977 0)
(0.0834791 -0.0312355 0)
(0.0800941 -0.0341607 0)
(0.0766016 -0.0364309 0)
(0.00792018 0.138338 0)
(0.0223622 0.149707 0)
(0.0380343 0.142345 0)
(0.0518329 0.135204 0)
(0.0631733 0.127119 0)
(0.072279 0.116022 0)
(0.0799026 0.103258 0)
(0.0862032 0.0898255 0)
(0.0912119 0.0763116 0)
(0.0949866 0.0630883 0)
(0.0976168 0.0504029 0)
(0.0992111 0.0384215 0)
(0.0998863 0.0272548 0)
(0.0997616 0.016976 0)
(0.0989545 0.00763364 0)
(0.0975811 -0.000741216 0)
(0.0957541 -0.00813243 0)
(0.0935791 -0.0145442 0)
(0.0911498 -0.0199959 0)
(0.0885458 -0.0245224 0)
(0.0858267 -0.0281779 0)
(0.0830088 -0.031046 0)
(0.0800699 -0.0332648 0)
(0.0065892 0.125634 0)
(0.0192327 0.134138 0)
(0.0328918 0.128306 0)
(0.0450709 0.123039 0)
(0.0558273 0.117167 0)
(0.0651192 0.107549 0)
(0.0731015 0.0960833 0)
(0.07982 0.0839177 0)
(0.0852916 0.0716327 0)
(0.0895729 0.0595719 0)
(0.0927494 0.0479581 0)
(0.0949236 0.0369422 0)
(0.0962055 0.0266282 0)
(0.0967073 0.0170879 0)
(0.0965392 0.00837144 0)
(0.0958084 0.000512788 0)
(0.0946175 -0.0064666 0)
(0.0930619 -0.0125615 0)
(0.0912271 -0.0177791 0)
(0.0891884 -0.0221397 0)
(0.0870061 -0.0256811 0)
(0.0847048 -0.0284701 0)
(0.0822737 -0.0306274 0)
(0.00521155 0.115189 0)
(0.0161212 0.12069 0)
(0.0278346 0.116184 0)
(0.0385627 0.112103 0)
(0.0488892 0.107087 0)
(0.0585597 0.0986429 0)
(0.0669658 0.0884631 0)
(0.0740486 0.0775763 0)
(0.0798646 0.0665164 0)
(0.0845003 0.0555993 0)
(0.0880568 0.0450306 0)
(0.0906424 0.0349524 0)
(0.0923674 0.0254656 0)
(0.0933405 0.0166435 0)
(0.0936663 0.00853941 0)
(0.093444 0.00119208 0)
(0.0927673 -0.00537106 0)
(0.0917227 -0.0111363 0)
(0.0903884 -0.0161012 0)
(0.088835 -0.0202749 0)
(0.0871221 -0.023683 0)
(0.0852786 -0.0263787 0)
(0.0833006 -0.0284675 0)
(0.00542567 0.106018 0)
(0.0143527 0.109634 0)
(0.0239931 0.105712 0)
(0.033782 0.101974 0)
(0.0438106 0.0969227 0)
(0.0534178 0.0894703 0)
(0.0618612 0.0805754 0)
(0.0690233 0.070983 0)
(0.0749527 0.0611445 0)
(0.0797429 0.051349 0)
(0.0835001 0.0417926 0)
(0.0863338 0.0326155 0)
(0.0883519 0.0239207 0)
(0.0896583 0.0157859 0)
(0.0903507 0.00826999 0)
(0.0905201 0.00141809 0)
(0.0902508 -0.00473591 0)
(0.0896206 -0.0101708 0)
(0.0887005 -0.0148763 0)
(0.0875562 -0.0188532 0)
(0.0862448 -0.0221179 0)
(0.0847978 -0.0247124 0)
(0.0832155 -0.0267287 0)
(0.00583977 0.0969609 0)
(0.0136623 0.100512 0)
(0.0221702 0.0964176 0)
(0.0313374 0.0923272 0)
(0.0407673 0.0871992 0)
(0.0497573 0.0805705 0)
(0.0577808 0.072835 0)
(0.0646805 0.0644486 0)
(0.0704649 0.0557597 0)
(0.0752041 0.0470204 0)
(0.0789907 0.0384151 0)
(0.0819246 0.0300827 0)
(0.0841049 0.0221295 0)
(0.0856266 0.0146389 0)
(0.0865781 0.0076766 0)
(0.0870402 0.00129481 0)
(0.0870874 -0.00446604 0)
(0.0867878 -0.00957847 0)
(0.086205 -0.0140261 0)
(0.0853991 -0.0178038 0)
(0.0844242 -0.0209213 0)
(0.0833133 -0.0234116 0)
(0.0820691 -0.0253541 0)
(0.00575121 0.0878914 0)
(0.0134465 0.0919994 0)
(0.0217072 0.0877055 0)
(0.0302824 0.0833058 0)
(0.0388714 0.0783074 0)
(0.0470134 0.0723646 0)
(0.054359 0.0655941 0)
(0.0607642 0.05825 0)
(0.0662085 0.0505797 0)
(0.0707339 0.0427897 0)
(0.0744119 0.035046 0)
(0.0773258 0.027482 0)
(0.0795617 0.0202054 0)
(0.0812025 0.0133047 0)
(0.0823251 0.00685277 0)
(0.0829987 0.000908603 0)
(0.0832863 -0.00448114 0)
(0.0832456 -0.00928417 0)
(0.0829319 -0.0134803 0)
(0.0823998 -0.0170609 0)
(0.0817003 -0.0200313 0)
(0.080867 -0.0224178 0)
(0.0799049 -0.0242876 0)
(0.00565769 0.0790427 0)
(0.0133793 0.0833393 0)
(0.0214874 0.0793025 0)
(0.0295015 0.0750072 0)
(0.0372773 0.0703203 0)
(0.0445619 0.0649855 0)
(0.0511605 0.0590144 0)
(0.0569715 0.0525448 0)
(0.0619693 0.0457465 0)
(0.0661783 0.0387822 0)
(0.0696518 0.0317959 0)
(0.0724574 0.0249119 0)
(0.0746672 0.0182375 0)
(0.0763518 0.011865 0)
(0.0775754 0.00587388 0)
(0.0783946 0.000330253 0)
(0.0788595 -0.00471365 0)
(0.079016 -0.00922269 0)
(0.0789105 -0.0131757 0)
(0.0785923 -0.0165635 0)
(0.0781098 -0.0193893 0)
(0.0774976 -0.0216742 0)
(0.0767633 -0.0234746 0)
(0.0055383 0.0703813 0)
(0.0131306 0.0746763 0)
(0.0209744 0.0712511 0)
(0.0284395 0.0673894 0)
(0.0354813 0.0631561 0)
(0.0419849 0.0584022 0)
(0.0478661 0.0531188 0)
(0.0530707 0.0473881 0)
(0.0575836 0.0413298 0)
(0.0614237 0.0350721 0)
(0.0646338 0.0287387 0)
(0.0672699 0.0224441 0)
(0.0693931 0.0162937 0)
(0.0710626 0.0103838 0)
(0.0723311 0.00480059 0)
(0.0732421 -0.000381789 0)
(0.0738308 -0.00510583 0)
(0.0741295 -0.00933594 0)
(0.0741756 -0.013054 0)
(0.0740138 -0.0162536 0)
(0.0736915 -0.0189385 0)
(0.0732451 -0.021126 0)
(0.0726859 -0.0228621 0)
(0.00532727 0.0620014 0)
(0.0125734 0.0662892 0)
(0.0200044 0.0636545 0)
(0.0269108 0.0604039 0)
(0.0332883 0.0567167 0)
(0.0390973 0.0525366 0)
(0.0443219 0.0478699 0)
(0.0489472 0.042778 0)
(0.052974 0.0373525 0)
(0.0564239 0.031698 0)
(0.0593357 0.0259217 0)
(0.0617591 0.02013 0)
(0.0637481 0.0144268 0)
(0.0653541 0.00891274 0)
(0.0666199 0.00368322 0)
(0.0675761 -0.00117776 0)
(0.0682407 -0.00560627 0)
(0.0686297 -0.00956956 0)
(0.0687711 -0.0130584 0)
(0.0687076 -0.0160741 0)
(0.0684883 -0.0186229 0)
(0.0681529 -0.0207193 0)
(0.0677174 -0.022399 0)
(0.00500564 0.054095 0)
(0.0117276 0.0583941 0)
(0.0186249 0.056596 0)
(0.0249554 0.0540264 0)
(0.0307148 0.0509283 0)
(0.0358963 0.0473154 0)
(0.0405219 0.0432173 0)
(0.0446033 0.0386915 0)
(0.0481561 0.0338156 0)
(0.0512078 0.0286791 0)
(0.0537974 0.0233774 0)
(0.0559727 0.0180104 0)
(0.0577846 0.0126814 0)
(0.0592809 0.00749771 0)
(0.0604983 0.00256676 0)
(0.0614555 -0.00201245 0)
(0.0621495 -0.00616583 0)
(0.0625749 -0.00986873 0)
(0.0627511 -0.0131306 0)
(0.0627239 -0.015966 0)
(0.0625481 -0.0183858 0)
(0.0622691 -0.0204011 0)
(0.061908 -0.0220361 0)
(0.00459813 0.0468121 0)
(0.0107016 0.0511345 0)
(0.0169928 0.0501345 0)
(0.0227348 0.048247 0)
(0.0279029 0.0457441 0)
(0.0325016 0.0426847 0)
(0.0365702 0.0391183 0)
(0.0401368 0.0351046 0)
(0.0432277 0.0307148 0)
(0.0458756 0.0260289 0)
(0.048121 0.0211338 0)
(0.050012 0.016124 0)
(0.0516003 0.0111031 0)
(0.052935 0.00618597 0)
(0.0540523 0.00149737 0)
(0.0549625 -0.00284016 0)
(0.0556357 -0.00673259 0)
(0.0560357 -0.0101728 0)
(0.0561768 -0.0132057 0)
(0.0561169 -0.0158662 0)
(0.0559228 -0.0181695 0)
(0.0556473 -0.0201198 0)
(0.0553156 -0.0217275 0)
(0.00416105 0.04022 0)
(0.0096465 0.0445742 0)
(0.0153125 0.0442957 0)
(0.0204667 0.0430587 0)
(0.0250605 0.0411364 0)
(0.0291031 0.0386106 0)
(0.0326421 0.035544 0)
(0.0357143 0.0320003 0)
(0.0383516 0.0280483 0)
(0.0405884 0.023762 0)
(0.0424654 0.0192215 0)
(0.0440305 0.0145153 0)
(0.0453383 0.00974567 0)
(0.0464447 0.00503488 0)
(0.0473941 0.000529555 0)
(0.0481984 -0.00361016 0)
(0.0487904 -0.00724639 0)
(0.049088 -0.0104085 0)
(0.0491083 -0.0132081 0)
(0.0489388 -0.0157064 0)
(0.0486653 -0.0179164 0)
(0.0483465 -0.0198284 0)
(0.0480079 -0.0214338 0)
(0.00377635 0.0342756 0)