/*--------------------------------*- C++ -*----------------------------------*\
| =========                 |                                                 |
| \\      /  F ield         | OpenFOAM: The Open Source CFD Toolbox           |
|  \\    /   O peration     | Version:  2.3.0                                 |
|   \\  /    A nd           | Web:      www.OpenFOAM.org                      |
|    \\/     M anipulation  |                                                 |
\*---------------------------------------------------------------------------*/
FoamFile
{
    version     2.0;
    format      ascii;
    class       volScalarField;
    location    "0.04";
    object      T;
}
// * * * * * * * * * * * * * * * * * * * * * * * * * * * * * * * * * * * * * //

dimensions      [0 0 0 1 0 0 0];

internalField   nonuniform List<scalar> 
12225
(
1.00702
1.00235
1.00097
1.00057
1.00029
1.0001
1.00001
0.999957
0.999925
0.999901
0.999874
0.999822
0.999699
0.99939
0.99862
0.996717
0.991956
0.979734
0.99388
0.995662
0.997505
0.998595
0.999122
0.9994
0.999575
0.999689
0.999761
0.999805
0.999823
0.999802
0.999701
0.999416
0.998683
0.996876
0.992469
0.981774
1.00047
1.00054
1.00043
1.00038
1.00027
1.00015
1.00007
1.00002
0.999984
0.999955
0.999925
0.999872
0.999754
0.999469
0.998777
0.997124
0.993286
0.984796
1.00033
0.999923
0.999616
0.999668
0.999738
0.999771
0.999797
0.999821
0.999839
0.99985
0.999848
0.999817
0.999721
0.99947
0.998856
0.997421
0.994244
0.987767
1.00018
1
0.999776
0.999808
0.999867
0.999886
0.999893
0.999898
0.9999
0.999898
0.999887
0.999852
0.99976
0.999533
0.998998
0.997796
0.995274
0.990494
1.00003
0.999994
0.999833
0.999822
0.999855
0.999871
0.999877
0.999883
0.999888
0.999888
0.99988
0.999851
0.999772
0.999578
0.999132
0.998169
0.996246
0.992811
1.00001
1.00003
0.999913
0.999874
0.999883
0.999891
0.999895
0.999898
0.9999
0.9999
0.999892
0.999866
0.999798
0.999638
0.99928
0.998538
0.997124
0.994716
1
1.00003
0.999948
0.999903
0.9999
0.999903
0.999904
0.999906
0.999907
0.999906
0.999899
0.999877
0.99982
0.999686
0.999399
0.998821
0.997755
0.995995
1
1.00003
0.99997
0.999929
0.999919
0.999917
0.999916
0.999915
0.999916
0.999915
0.999907
0.999888
0.99984
0.99973
0.999499
0.999048
0.998239
0.996934
0.999998
1.00002
0.999986
0.999952
0.999938
0.999932
0.999929
0.999927
0.999926
0.999924
0.999916
0.9999
0.999862
0.999775
0.999598
0.999262
0.998674
0.997746
0.999998
1.00002
0.999996
0.99997
0.999956
0.999948
0.999943
0.99994
0.999938
0.999935
0.999927
0.999914
0.999884
0.99982
0.999691
0.999452
0.999046
0.998418
0.999998
1.00001
1
0.999983
0.999972
0.999964
0.999958
0.999954
0.99995
0.999946
0.999941
0.99993
0.999907
0.999861
0.999773
0.999614
0.999348
0.998947
0.999998
1.00001
1.00001
0.999993
0.999984
0.999977
0.999972
0.999967
0.999962
0.999959
0.999954
0.999945
0.999929
0.999899
0.999841
0.999742
0.999579
0.999338
0.999998
1.00001
1.00001
1
0.999993
0.999986
0.999982
0.999979
0.999975
0.999971
0.999966
0.99996
0.999949
0.99993
0.999895
0.999838
0.999746
0.999611
0.999998
1.00001
1.00001
1
0.999998
0.999995
0.999991
0.999988
0.999985
0.999982
0.999979
0.999974
0.999967
0.999955
0.999935
0.999904
0.999855
0.999787
0.999999
1.00001
1.00001
1
1
1
0.999997
0.999994
0.999992
0.999989
0.999988
0.999986
0.999981
0.999974
0.999963
0.999946
0.999923
0.999892
0.999998
1.00001
1.00001
1
1
1
1
0.999999
0.999997
0.999996
0.999994
0.999991
0.999989
0.999986
0.999981
0.999972
0.99996
0.999947
0.999999
1
1.00001
1.00001
1.00001
1.00001
1
0.999999
0.999998
0.999998
0.999997
0.999996
0.999993
0.999989
0.999985
0.999981
0.999975
0.999972
0.999999
1.00001
1.00001
1.00001
1.00001
1.00001
1
0.999999
0.999996
0.999995
0.999993
0.999991
0.999989
0.999987
0.999986
0.999982
0.999978
0.999977
0.999998
1.00001
1.00001
1.00001
1
1
1
0.999996
0.999992
0.999989
0.999988
0.999986
0.999984
0.999983
0.999981
0.999978
0.999976
0.999977
0.999997
1.00001
1.00001
1.00001
1
0.999995
0.999992
0.999987
0.999983
0.99998
0.999977
0.999975
0.999973
0.999972
0.999971
0.999969
0.999966
0.999967
0.999997
1.00001
1.00002
1.00001
0.999995
0.999987
0.999982
0.999976
0.999973
0.99997
0.999967
0.999966
0.999966
0.999964
0.999963
0.999962
0.99996
0.999961
0.999996
1.00003
1.00002
0.999994
0.999975
0.999966
0.999959
0.999954
0.999952
0.99995
0.999949
0.999948
0.999948
0.999949
0.999948
0.999948
0.999948
0.999949
0.999994
1.00005
1.00003
0.999984
0.999963
0.999957
0.999953
0.99995
0.999949
0.999948
0.999947
0.999947
0.999948
0.999948
0.999948
0.999947
0.999947
0.999949
0.999986
1.00005
0.999974
0.999913
0.9999
0.9999
0.9999
0.999902
0.999905
0.999908
0.999911
0.999914
0.999918
0.999921
0.999925
0.999927
0.999928
0.999931
1.00011
1.00014
0.999977
0.99993
0.999954
0.99997
0.999971
0.999969
0.999965
0.999962
0.999959
0.999954
0.999952
0.99995
0.999949
0.999948
0.999947
0.999947
1.00029
1.00004
0.999634
0.999556
0.999609
0.999662
0.999706
0.999746
0.999781
0.999809
0.999832
0.99985
0.999865
0.999878
0.999888
0.999897
0.999905
0.999908
1.00089
1.00118
1.00097
1.00079
1.00062
1.00045
1.00031
1.00022
1.00015
1.0001
1.00006
1.00003
1.00001
0.999992
0.999981
0.999974
0.99997
0.999957
0.993498
0.994872
0.996789
0.998012
0.998681
0.999064
0.999313
0.999485
0.999605
0.99969
0.99975
0.999794
0.999827
0.999852
0.999872
0.999888
0.999905
0.999901
1.00657
1.00291
1.00132
1.00082
1.00049
1.00027
1.00014
1.00007
1.00002
0.99999
0.999968
0.999954
0.999944
0.999937
0.999933
0.999931
0.999938
0.999912
0.413329
0.413274
0.413141
0.412949
0.412702
0.412397
0.412034
0.411615
0.411137
0.410605
0.41002
0.409383
0.408696
0.40796
0.407176
0.406347
0.405476
0.404564
0.403614
0.402629
0.401611
0.400565
0.399491
0.398394
0.397276
0.396142
0.394993
0.393833
0.392666
0.391495
0.390322
0.389152
0.387988
0.386832
0.385689
0.38456
0.38345
0.382361
0.381296
0.380258
0.37925
0.378275
0.377334
0.376431
0.375567
0.374745
0.373967
0.373233
0.372547
0.371909
0.371322
0.370785
0.370299
0.369867
0.369487
0.369161
0.368889
0.36867
0.368505
0.368394
0.368335
0.368328
0.368373
0.368469
0.368615
0.368809
0.36905
0.369337
0.369669
0.370045
0.370462
0.370918
0.371413
0.371945
0.372511
0.373111
0.373741
0.3744
0.375086
0.375798
0.376532
0.377288
0.378062
0.378852
0.379658
0.380475
0.381302
0.382138
0.382978
0.383822
0.384666
0.385509
0.386349
0.387182
0.388008
0.388823
0.389626
0.390415
0.391188
0.391942
0.392677
0.393391
0.394082
0.394749
0.39539
0.396003
0.396589
0.397145
0.39767
0.398163
0.398623
0.399049
0.39944
0.399794
0.40011
0.400387
0.400623
0.400819
0.400972
0.40108
0.401144
0.401161
0.401131
0.401051
0.400921
0.400739
0.400504
0.400215
0.39987
0.399467
0.399005
0.398484
0.3979
0.397253
0.396542
0.395764
0.394918
0.394003
0.393017
0.391959
0.390826
0.389618
0.388333
0.386969
0.385525
0.383999
0.382389
0.380695
0.378914
0.377046
0.375088
0.37304
0.3709
0.368666
0.366338
0.363914
0.361393
0.358774
0.356056
0.353238
0.350317
0.347294
0.344173
0.340934
0.337591
0.334143
0.330578
0.32691
0.323137
0.319259
0.315275
0.311185
0.306989
0.30269
0.298293
0.293805
0.289259
0.28466
0.28023
0.275505
0.414939
0.414873
0.414752
0.414572
0.414331
0.414032
0.413674
0.413258
0.412782
0.412248
0.411659
0.411016
0.410322
0.409578
0.408788
0.407952
0.407074
0.406156
0.4052
0.40421
0.403187
0.402136
0.401058
0.399957
0.398836
0.397698
0.396547
0.395384
0.394215
0.393041
0.391867
0.390695
0.389529
0.388371
0.387226
0.386095
0.384983
0.383893
0.382826
0.381786
0.380776
0.379798
0.378855
0.377949
0.377083
0.376258
0.375476
0.37474
0.374051
0.37341
0.372818
0.372278
0.371789
0.371352
0.370968
0.370638
0.370361
0.370139
0.369969
0.369853
0.36979
0.369779
0.369819
0.36991
0.370051
0.370241
0.370478
0.370761
0.371089
0.37146
0.371873
0.372326
0.372817
0.373345
0.373908
0.374504
0.375131
0.375788
0.376472
0.377181
0.377914
0.378668
0.379441
0.380231
0.381036
0.381853
0.382681
0.383517
0.384359
0.385204
0.386051
0.386896
0.387739
0.388575
0.389404
0.390223
0.39103
0.391824
0.392601
0.39336
0.3941
0.39482
0.395516
0.396188
0.396835
0.397455
0.398046
0.398608
0.39914
0.399639
0.400106
0.400538
0.400935
0.401295
0.401617
0.4019
0.402144
0.402345
0.402504
0.402619
0.402689
0.402712
0.402687
0.402613
0.402488
0.402312
0.402082
0.401798
0.401458
0.40106
0.400603
0.400085
0.399506
0.398863
0.398155
0.397381
0.396538
0.395626
0.394643
0.393587
0.392457
0.391251
0.389968
0.388605
0.387162
0.385637
0.384029
0.382335
0.380554
0.378686
0.376728
0.374679
0.372538
0.370303
0.367973
0.365547
0.363024
0.360402
0.35768
0.354859
0.351933
0.348907
0.34578
0.342542
0.339203
0.335764
0.332213
0.328557
0.324795
0.320927
0.316952
0.31287
0.308681
0.304388
0.299996
0.295512
0.290966
0.286371
0.281897
0.277292
0.418165
0.418066
0.417925
0.41773
0.417477
0.417162
0.416786
0.416351
0.415858
0.415309
0.414704
0.414048
0.41334
0.412585
0.411783
0.410937
0.41005
0.409123
0.40816
0.407163
0.406135
0.405078
0.403996
0.402892
0.401768
0.400627
0.399473
0.398309
0.397138
0.395962
0.394787
0.393613
0.392445
0.391286
0.390139
0.389007
0.387893
0.386799
0.38573
0.384687
0.383674
0.382693
0.381746
0.380836
0.379965
0.379136
0.378349
0.377608
0.376913
0.376266
0.375668
0.375121
0.374625
0.374181
0.373791
0.373453
0.373169
0.372939
0.372762
0.372638
0.372567
0.372548
0.372581
0.372664
0.372798
0.37298
0.37321
0.373486
0.373807
0.374172
0.374579
0.375026
0.375512
0.376036
0.376594
0.377187
0.377811
0.378465
0.379148
0.379856
0.380588
0.381343
0.382118
0.38291
0.383718
0.38454
0.385374
0.386216
0.387065
0.387919
0.388775
0.389632
0.390485
0.391335
0.392177
0.39301
0.393833
0.394642
0.395436
0.396212
0.39697
0.397707
0.398422
0.399113
0.399779
0.400419
0.40103
0.401613
0.402165
0.402685
0.403173
0.403626
0.404044
0.404425
0.404769
0.405074
0.405338
0.405561
0.405741
0.405877
0.405967
0.406011
0.406007
0.405953
0.405849
0.405692
0.405482
0.405217
0.404895
0.404515
0.404076
0.403575
0.403013
0.402386
0.401694
0.400934
0.400106
0.399208
0.398238
0.397195
0.396077
0.394882
0.393609
0.392257
0.390823
0.389306
0.387705
0.386018
0.384244
0.382381
0.380428
0.378383
0.376245
0.374013
0.371685
0.36926
0.366737
0.364115
0.361392
0.358569
0.355643
0.352614
0.349483
0.346243
0.342902
0.339459
0.335908
0.332251
0.328486
0.324615
0.320636
0.316549
0.312355
0.308055
0.303653
0.299157
0.294591
0.289969
0.28543
0.280829
0.422994
0.422863
0.422701
0.422489
0.422214
0.421877
0.421479
0.421021
0.420507
0.419937
0.419313
0.418638
0.417914
0.417142
0.416325
0.415465
0.414565
0.413627
0.412653
0.411646
0.410609
0.409545
0.408455
0.407344
0.406214
0.405068
0.403909
0.402741
0.401565
0.400386
0.399206
0.398028
0.396856
0.395693
0.394542
0.393405
0.392286
0.391188
0.390114
0.389066
0.388046
0.387059
0.386105
0.385188
0.38431
0.383472
0.382677
0.381926
0.381222
0.380565
0.379957
0.3794
0.378893
0.378438
0.378036
0.377687
0.377391
0.377149
0.37696
0.376824
0.376741
0.37671
0.376731
0.376803
0.376925
0.377096
0.377314
0.37758
0.37789
0.378245
0.378643
0.379081
0.379559
0.380075
0.380626
0.381213
0.381832
0.382482
0.383161
0.383868
0.384599
0.385354
0.386131
0.386926
0.387739
0.388567
0.389408
0.39026
0.391119
0.391985
0.392855
0.393727
0.394597
0.395465
0.396327
0.397181
0.398025
0.398857
0.399675
0.400477
0.401261
0.402025
0.402768
0.403487
0.404182
0.404851
0.405493
0.406105
0.406688
0.407239
0.407758
0.408243
0.408693
0.409106
0.409482
0.409819
0.410115
0.41037
0.410582
0.41075
0.410872
0.410948
0.410975
0.410952
0.410878
0.410751
0.41057
0.410334
0.410041
0.409689
0.409277
0.408803
0.408266
0.407665
0.406997
0.406261
0.405456
0.404579
0.40363
0.402607
0.401507
0.400331
0.399075
0.397738
0.396319
0.394816
0.393228
0.391552
0.389789
0.387935
0.38599
0.383953
0.381821
0.379594
0.37727
0.374848
0.372327
0.369707
0.366984
0.36416
0.361232
0.3582
0.355065
0.351822
0.348476
0.345025
0.341467
0.337801
0.334028
0.330148
0.326159
0.322061
0.317854
0.313539
0.30912
0.304602
0.300006
0.295342
0.290731
0.286072
0.429419
0.429267
0.429084
0.428853
0.428558
0.428198
0.427776
0.427294
0.426756
0.426162
0.425516
0.424819
0.424073
0.423281
0.422445
0.421568
0.420651
0.419697
0.418709
0.417689
0.41664
0.415564
0.414465
0.413344
0.412205
0.411051
0.409885
0.408709
0.407527
0.406341
0.405154
0.403971
0.402793
0.401623
0.400465
0.399322
0.398196
0.39709
0.396008
0.394952
0.393924
0.392927
0.391964
0.391036
0.390147
0.389298
0.388491
0.387729
0.387011
0.386341
0.38572
0.385148
0.384627
0.384158
0.38374
0.383376
0.383064
0.382806
0.382601
0.382449
0.38235
0.382303
0.382308
0.382364
0.38247
0.382625
0.382829
0.38308
0.383376
0.383717
0.384101
0.384527
0.384994
0.385499
0.386041
0.386618
0.38723
0.387873
0.388547
0.38925
0.389979
0.390733
0.39151
0.392308
0.393126
0.39396
0.394808
0.39567
0.396542
0.397422
0.398308
0.399197
0.400087
0.400976
0.401862
0.402741
0.403612
0.404472
0.40532
0.406152
0.406968
0.407765
0.408541
0.409295
0.410026
0.410731
0.411409
0.412059
0.412679
0.413269
0.413827
0.414351
0.41484
0.415293
0.415708
0.416085
0.416422
0.416717
0.416969
0.417176
0.417338
0.417453
0.417519
0.417534
0.417498
0.41741
0.417266
0.417066
0.416809
0.416492
0.416114
0.415674
0.41517
0.4146
0.413963
0.413256
0.41248
0.411631
0.410708
0.40971
0.408634
0.40748
0.406246
0.404929
0.403529
0.402043
0.400471
0.398811
0.397061
0.39522
0.393285
0.391257
0.389134
0.386913
0.384595
0.382178
0.37966
0.37704
0.374318
0.371493
0.368563
0.365527
0.362387
0.359139
0.355786
0.352326
0.348758
0.345083
0.341299
0.337407
0.333405
0.329293
0.32507
0.320738
0.316297
0.311752
0.307121
0.30241
0.297726
0.292976
0.437487
0.437317
0.437116
0.436864
0.436547
0.436163
0.435716
0.435209
0.434644
0.434025
0.433352
0.43263
0.43186
0.431045
0.430187
0.429288
0.428351
0.427378
0.426373
0.425336
0.424271
0.423181
0.422068
0.420935
0.419784
0.418619
0.417442
0.416256
0.415063
0.413868
0.412672
0.411479
0.410292
0.409113
0.407946
0.406793
0.405657
0.404541
0.403448
0.402381
0.401341
0.400332
0.399356
0.398415
0.397512
0.396649
0.395827
0.395048
0.394315
0.393628
0.392989
0.3924
0.39186
0.391372
0.390936
0.390552
0.390221
0.389942
0.389717
0.389545
0.389425
0.389358
0.389343
0.389379
0.389465
0.3896
0.389785
0.390016
0.390294
0.390618
0.390985
0.391394
0.391845
0.392335
0.392863
0.393428
0.394029
0.394662
0.395328
0.396023
0.396747
0.397498
0.398274
0.399072
0.399892
0.400731
0.401586
0.402457
0.40334
0.404234
0.405136
0.406044
0.406955
0.407867
0.408778
0.409684
0.410584
0.411475
0.412354
0.41322
0.414071
0.414904
0.415718
0.416511
0.41728
0.418026
0.418745
0.419437
0.4201
0.420733
0.421335
0.421903
0.422437
0.422935
0.423396
0.423818
0.4242
0.42454
0.424838
0.425091
0.425298
0.425458
0.425569
0.425629
0.425637
0.425592
0.425491
0.425333
0.425117
0.424841
0.424503
0.424102
0.423635
0.423102
0.422501
0.421829
0.421086
0.420269
0.419377
0.418409
0.417361
0.416234
0.415025
0.413732
0.412354
0.41089
0.409337
0.407694
0.40596
0.404134
0.402212
0.400196
0.398083
0.39587
0.393559
0.391147
0.388632
0.386015
0.383293
0.380467
0.377535
0.374496
0.371351
0.368097
0.364736
0.361267
0.35769
0.354003
0.350207
0.346302
0.342286
0.338158
0.333918
0.329565
0.325101
0.320527
0.315859
0.311098
0.306343
0.301491
0.447243
0.44706
0.446841
0.446569
0.446228
0.44582
0.445347
0.444812
0.44422
0.443572
0.442872
0.442122
0.441325
0.440483
0.439599
0.438675
0.437715
0.43672
0.435692
0.434636
0.433552
0.432443
0.431313
0.430163
0.428997
0.427817
0.426625
0.425425
0.42422
0.423011
0.421803
0.420598
0.419398
0.418206
0.417026
0.41586
0.414711
0.413582
0.412475
0.411393
0.410338
0.409314
0.408321
0.407364
0.406444
0.405562
0.404722
0.403924
0.403171
0.402464
0.401804
0.401193
0.400631
0.40012
0.399661
0.399253
0.398898
0.398596
0.398346
0.398149
0.398005
0.397913
0.397873
0.397883
0.397945
0.398056
0.398216
0.398424
0.398679
0.398979
0.399324
0.399713
0.400143
0.400613
0.401123
0.401671
0.402255
0.402874
0.403527
0.404211
0.404926
0.405669
0.406439
0.407234
0.408053
0.408893
0.409752
0.410629
0.411522
0.412427
0.413343
0.414268
0.415198
0.416132
0.417066
0.417999
0.418927
0.419849
0.420761
0.421661
0.422548
0.423418
0.42427
0.425102
0.425913
0.4267
0.427463
0.428199
0.428907
0.429585
0.430233
0.430848
0.431429
0.431975
0.432484
0.432955
0.433386
0.433776
0.434122
0.434425
0.434681
0.434889
0.435049
0.435157
0.435213
0.435215
0.435161
0.435049
0.434879
0.434647
0.434353
0.433995
0.43357
0.433078
0.432516
0.431883
0.431177
0.430396
0.429539
0.428603
0.427587
0.42649
0.425309
0.424044
0.422691
0.421251
0.41972
0.418097
0.416382
0.414573
0.412667
0.410664
0.408562
0.40636
0.404057
0.401652
0.399142
0.396528
0.393808
0.390982
0.388048
0.385007
0.381857
0.378598
0.375229
0.371752
0.368165
0.364467
0.360659
0.35674
0.352709
0.348565
0.344308
0.339934
0.335446
0.330843
0.326137
0.321327
0.316504
0.31155
0.458757
0.458561
0.458323
0.458027
0.457662
0.457227
0.456726
0.456162
0.45554
0.454862
0.454131
0.453351
0.452523
0.451652
0.450739
0.449787
0.448799
0.447777
0.446725
0.445643
0.444536
0.443405
0.442253
0.441083
0.439896
0.438697
0.437487
0.43627
0.435047
0.433821
0.432596
0.431374
0.430158
0.42895
0.427754
0.426571
0.425405
0.424259
0.423134
0.422034
0.420961
0.419917
0.418906
0.417928
0.416987
0.416084
0.415221
0.4144
0.413623
0.412892
0.412207
0.41157
0.410983
0.410445
0.409958
0.409523
0.40914
0.408809
0.40853
0.408304
0.40813
0.408008
0.407938
0.407919
0.40795
0.408032
0.408162
0.408341
0.408567
0.408839
0.409156
0.409517
0.409921
0.410366
0.410851
0.411376
0.411938
0.412537
0.41317
0.413837
0.414536
0.415266
0.416024
0.41681
0.417622
0.418458
0.419316
0.420194
0.421091
0.422003
0.422929
0.423866
0.424811
0.425763
0.426718
0.427674
0.428628
0.429576
0.430518
0.43145
0.432369
0.433275
0.434163
0.435033
0.435883
0.436711
0.437516
0.438295
0.439047
0.43977
0.440464
0.441126
0.441755
0.442349
0.442906
0.443426
0.443907
0.444347
0.444743
0.445096
0.445402
0.445661
0.44587
0.446029
0.446134
0.446185
0.44618
0.446117
0.445994
0.445809
0.445561
0.445248
0.444868
0.444419
0.443899
0.443307
0.442641
0.441899
0.441078
0.440178
0.439197
0.438133
0.436983
0.435747
0.434423
0.433008
0.431502
0.429903
0.428209
0.426419
0.424531
0.422543
0.420456
0.418266
0.415973
0.413576
0.411073
0.408464
0.405748
0.402923
0.399989
0.396946
0.393793
0.39053
0.387156
0.383671
0.380074
0.376367
0.372548
0.368616
0.364571
0.360412
0.356137
0.351744
0.347233
0.342603
0.337862
0.333006
0.328121
0.323072
0.472104
0.471892
0.471632
0.471311
0.470918
0.470454
0.469923
0.469328
0.468673
0.467962
0.467197
0.466383
0.465522
0.464617
0.46367
0.462686
0.461666
0.460614
0.459531
0.45842
0.457284
0.456126
0.454947
0.453752
0.452541
0.451317
0.450084
0.448844
0.447599
0.446352
0.445106
0.443863
0.442626
0.441398
0.440181
0.438977
0.43779
0.436623
0.435477
0.434355
0.433259
0.432193
0.431158
0.430156
0.42919
0.428262
0.427373
0.426525
0.425721
0.424961
0.424247
0.423581
0.422963
0.422394
0.421876
0.421408
0.420991
0.420627
0.420314
0.420053
0.419844
0.419687
0.419581
0.419527
0.419522
0.419568
0.419663
0.419806
0.419996
0.420233
0.420516
0.420843
0.421213
0.421626
0.422079
0.422573
0.423106
0.423676
0.424283
0.424925
0.4256
0.426309
0.427048
0.427818
0.428615
0.429439
0.430288
0.43116
0.432052
0.432964
0.433892
0.434834
0.435788
0.436751
0.43772
0.438692
0.439665
0.440635
0.4416
0.442558
0.443505
0.444439
0.445359
0.446262
0.447147
0.448011
0.448853
0.449671
0.450463
0.451229
0.451965
0.45267
0.453344
0.453983
0.454587
0.455154
0.455682
0.45617
0.456615
0.457016
0.457371
0.457679
0.457938
0.458146
0.4583
0.4584
0.458444
0.458429
0.458353
0.458216
0.458015
0.457747
0.457412
0.457008
0.456531
0.455982
0.455356
0.454654
0.453872
0.45301
0.452065
0.451035
0.449919
0.448714
0.44742
0.446034
0.444555
0.442981
0.44131
0.439541
0.437673
0.435704
0.433632
0.431457
0.429177
0.42679
0.424297
0.421695
0.418985
0.416164
0.413233
0.41019
0.407036
0.403771
0.400393
0.396902
0.3933
0.389584
0.385756
0.381814
0.377757
0.373585
0.369295
0.364885
0.360354
0.355699
0.350929
0.346032
0.341093
0.33596
0.487363
0.487134
0.48685
0.4865
0.486077
0.485581
0.485015
0.484385
0.483694
0.482945
0.482143
0.481291
0.480391
0.479447
0.478463
0.477441
0.476384
0.475295
0.474176
0.47303
0.47186
0.470669
0.469458
0.468231
0.46699
0.465737
0.464475
0.463207
0.461935
0.460661
0.459389
0.45812
0.456858
0.455604
0.454361
0.453133
0.451921
0.450728
0.449556
0.448408
0.447286
0.446192
0.44513
0.4441
0.443105
0.442147
0.441229
0.44035
0.439514
0.438722
0.437975
0.437274
0.436621
0.436016
0.435461
0.434956
0.434501
0.434097
0.433745
0.433444
0.433194
0.432996
0.432848
0.432751
0.432704
0.432707
0.432759
0.432859
0.433006
0.4332
0.43344
0.433725
0.434053
0.434425
0.434838
0.435292
0.435786
0.436319
0.43689
0.437497
0.43814
0.438817
0.439527
0.440269
0.441042
0.441844
0.442673
0.443529
0.444408
0.445308
0.446229
0.447166
0.448118
0.449082
0.450055
0.451034
0.452016
0.452998
0.453978
0.454952
0.455917
0.456873
0.457815
0.458743
0.459654
0.460547
0.461419
0.462269
0.463094
0.463894
0.464667
0.46541
0.466122
0.466801
0.467446
0.468054
0.468625
0.469156
0.469645
0.470091
0.470491
0.470845
0.471149
0.471403
0.471604
0.47175
0.47184
0.471871
0.471842
0.47175
0.471594
0.471372
0.471081
0.470719
0.470286
0.469778
0.469194
0.468532
0.46779
0.466965
0.466057
0.465063
0.463981
0.46281
0.461547
0.460191
0.45874
0.457193
0.455548
0.453803
0.451957
0.450008
0.447955
0.445797
0.443532
0.441159
0.438677
0.436086
0.433384
0.43057
0.427644
0.424606
0.421454
0.418189
0.41481
0.411318
0.407712
0.403992
0.400157
0.396208
0.392143
0.387961
0.383659
0.379236
0.37469
0.370016
0.365222
0.360293
0.355311
0.350108
0.504628
0.504378
0.504066
0.503684
0.503226
0.502693
0.502089
0.501419
0.500686
0.499895
0.499049
0.498152
0.497208
0.49622
0.495191
0.494124
0.493023
0.49189
0.490729
0.489541
0.48833
0.487099
0.48585
0.484584
0.483306
0.482018
0.480721
0.479419
0.478113
0.476807
0.475503
0.474202
0.472909
0.471625
0.470352
0.469093
0.467851
0.466628
0.465425
0.464247
0.463094
0.461969
0.460875
0.459813
0.458785
0.457793
0.45684
0.455926
0.455054
0.454224
0.453439
0.452699
0.452006
0.45136
0.450763
0.450215
0.449716
0.449267
0.448869
0.448521
0.448224
0.447977
0.447781
0.447634
0.447537
0.447489
0.447489
0.447538
0.447634
0.447776
0.447964
0.448196
0.448473
0.448793
0.449155
0.449559
0.450004
0.450488
0.451011
0.451572
0.45217
0.452804
0.453473
0.454176
0.454912
0.455679
0.456476
0.457302
0.458154
0.459031
0.459931
0.46085
0.461788
0.46274
0.463704
0.464676
0.465655
0.466636
0.467617
0.468595
0.469567
0.470531
0.471484
0.472426
0.473352
0.474262
0.475154
0.476025
0.476873
0.477698
0.478497
0.479268
0.48001
0.48072
0.481397
0.48204
0.482645
0.483212
0.483738
0.484222
0.484661
0.485054
0.485399
0.485693
0.485935
0.486123
0.486254
0.486327
0.48634
0.48629
0.486176
0.485995
0.485746
0.485426
0.485033
0.484566
0.484022
0.483399
0.482695
0.481908
0.481036
0.480077
0.47903
0.477892
0.476662
0.475337
0.473916
0.472397
0.470779
0.46906
0.467238
0.465312
0.46328
0.461142
0.458895
0.456539
0.454072
0.451494
0.448804
0.446001
0.443084
0.440053
0.436908
0.433647
0.430272
0.426781
0.423176
0.419455
0.415619
0.411667
0.407598
0.403411
0.399103
0.394672
0.390116
0.38543
0.38062
0.375669
0.370654
0.365398
0.524
0.523726
0.523382
0.522962
0.522463
0.521887
0.521238
0.52052
0.519739
0.518897
0.518
0.517051
0.516054
0.515012
0.51393
0.51281
0.511656
0.510471
0.509258
0.508021
0.506761
0.505481
0.504185
0.502874
0.501551
0.500219
0.49888
0.497537
0.496191
0.494846
0.493504
0.492166
0.490836
0.489515
0.488207
0.486912
0.485635
0.484376
0.483139
0.481925
0.480736
0.479576
0.478445
0.477345
0.47628
0.475249
0.474257
0.473303
0.472389
0.471517
0.470688
0.469904
0.469165
0.468473
0.467827
0.46723
0.46668
0.46618
0.465729
0.465327
0.464974
0.464671
0.464417
0.464212
0.464056
0.463948
0.463888
0.463875
0.463909
0.463988
0.464113
0.464283
0.464497
0.464753
0.465053
0.465394
0.465776
0.466199
0.466661
0.467162
0.467702
0.468279
0.468892
0.469541
0.470225
0.470942
0.471692
0.472473
0.473283
0.474121
0.474984
0.47587
0.476777
0.477701
0.478639
0.47959
0.480549
0.481513
0.482479
0.483445
0.484408
0.485366
0.486315
0.487255
0.488182
0.489096
0.489993
0.490872
0.49173
0.492567
0.49338
0.494167
0.494927
0.495657
0.496355
0.49702
0.49765
0.498243
0.498796
0.499308
0.499777
0.500201
0.500577
0.500904
0.50118
0.501402
0.501568
0.501677
0.501726
0.501712
0.501635
0.501491
0.501279
0.500997
0.500641
0.500211
0.499703
0.499117
0.498449
0.497698
0.496861
0.495937
0.494924
0.493819
0.492621
0.491328
0.489938
0.488448
0.486859
0.485167
0.483371
0.48147
0.479462
0.477346
0.47512
0.472784
0.470336
0.467776
0.465101
0.462313
0.459409
0.45639
0.453255
0.450004
0.446636
0.443153
0.439553
0.435837
0.432005
0.428055
0.423988
0.419801
0.415494
0.411062
0.406503
0.401813
0.396996
0.392033
0.386999
0.381704
0.54559
0.545288
0.544904
0.54444
0.543893
0.543265
0.542562
0.541787
0.540947
0.540044
0.539084
0.538072
0.53701
0.535904
0.534757
0.533573
0.532355
0.531107
0.529833
0.528534
0.527215
0.525877
0.524524
0.523159
0.521783
0.520399
0.51901
0.517618
0.516225
0.514833
0.513445
0.512063
0.51069
0.509327
0.507976
0.506641
0.505322
0.504023
0.502745
0.50149
0.500261
0.499059
0.497886
0.496744
0.495636
0.494562
0.493524
0.492525
0.491564
0.490644
0.489766
0.488931
0.48814
0.487394
0.486693
0.486039
0.485432
0.484872
0.48436
0.483895
0.483479
0.48311
0.482789
0.482516
0.48229
0.482111
0.481979
0.481893
0.481853
0.481858
0.481908
0.482002
0.482139
0.482319
0.482542
0.482806
0.483112
0.483458
0.483844
0.48427
0.484735
0.485239
0.48578
0.486359
0.486974
0.487624
0.488309
0.489027
0.489777
0.490557
0.491366
0.4922
0.493057
0.493934
0.494828
0.495738
0.496658
0.497586
0.498519
0.499455
0.50039
0.501323
0.502251
0.503171
0.504082
0.504982
0.505868
0.506738
0.507591
0.508425
0.509236
0.510024
0.510787
0.511523
0.512229
0.512903
0.513545
0.514151
0.514719
0.515248
0.515735
0.516178
0.516576
0.516926
0.517225
0.517472
0.517665
0.517801
0.517878
0.517894
0.517846
0.517733
0.517552
0.517301
0.516977
0.516579
0.516105
0.515551
0.514916
0.514198
0.513394
0.512503
0.511522
0.510449
0.509283
0.508021
0.506661
0.505202
0.503642
0.501978
0.500211
0.498336
0.496355
0.494264
0.492062
0.489749
0.487323
0.484784
0.482129
0.47936
0.476474
0.473471
0.470352
0.467115
0.463762
0.460291
0.456702
0.452997
0.449174
0.445234
0.441175
0.436996
0.432695
0.428269
0.423717
0.419031
0.414217
0.409253
0.404214
0.398897
0.569519
0.569182
0.568753
0.568235
0.567629
0.566938
0.566167
0.565322
0.564408
0.563429
0.562392
0.5613
0.560159
0.558973
0.557747
0.556484
0.555188
0.553864
0.552514
0.551143
0.549752
0.548345
0.546924
0.545493
0.544054
0.542609
0.54116
0.53971
0.538261
0.536815
0.535374
0.533941
0.532517
0.531105
0.529706
0.528323
0.526957
0.525611
0.524286
0.522985
0.521709
0.52046
0.51924
0.51805
0.516893
0.515769
0.514681
0.513629
0.512615
0.51164
0.510706
0.509813
0.508962
0.508154
0.507391
0.506672
0.505997
0.505368
0.504785
0.504248
0.503757
0.503312
0.502913
0.50256
0.502253
0.501991
0.501774
0.501603
0.501475
0.501392
0.501352
0.501355
0.501401
0.50149
0.50162
0.501791
0.502004
0.502257
0.50255
0.502884
0.503257
0.503669
0.50412
0.50461
0.505137
0.505701
0.506302
0.506938
0.507607
0.50831
0.509042
0.509803
0.510589
0.511398
0.512228
0.513074
0.513934
0.514805
0.515683
0.516567
0.517454
0.518342
0.519228
0.520109
0.520984
0.521851
0.522707
0.52355
0.524379
0.52519
0.525983
0.526755
0.527505
0.528229
0.528927
0.529595
0.530233
0.530837
0.531407
0.531938
0.53243
0.532881
0.533287
0.533647
0.533959
0.53422
0.534429
0.534582
0.534677
0.534713
0.534687
0.534596
0.534439
0.534212
0.533914
0.533542
0.533095
0.532568
0.531962
0.531272
0.530498
0.529637
0.528685
0.527643
0.526507
0.525275
0.523945
0.522516
0.520985
0.519351
0.517613
0.515767
0.513814
0.51175
0.509576
0.507289
0.504889
0.502374
0.499744
0.496998
0.494135
0.491154
0.488056
0.484839
0.481505
0.478052
0.474482
0.470794
0.466988
0.463063
0.45902
0.454856
0.45057
0.446159
0.441621
0.43695
0.43215
0.427197
0.422166
0.416845
0.595921
0.595541
0.595056
0.594473
0.593793
0.593022
0.592166
0.59123
0.590222
0.589147
0.588011
0.58682
0.585579
0.584293
0.582968
0.581608
0.580217
0.578799
0.577359
0.575898
0.574422
0.572932
0.571431
0.569922
0.568408
0.566891
0.565372
0.563855
0.56234
0.560831
0.559329
0.557836
0.556354
0.554885
0.553431
0.551993
0.550573
0.549174
0.547796
0.546441
0.545112
0.543809
0.542535
0.541291
0.540077
0.538897
0.53775
0.536639
0.535564
0.534526
0.533527
0.532567
0.531648
0.530769
0.529933
0.529138
0.528386
0.527678
0.527013
0.526391
0.525813
0.525279
0.524789
0.524343
0.52394
0.523581
0.523265
0.522993
0.522763
0.522575
0.52243
0.522326
0.522264
0.522244
0.522264
0.522325
0.522427
0.522569
0.522751
0.522973
0.523234
0.523536
0.523877
0.524257
0.524676
0.525133
0.525629
0.526161
0.526728
0.52733
0.527965
0.528629
0.529321
0.53004
0.53078
0.53154
0.532316
0.533106
0.533908
0.534717
0.535533
0.536353
0.537175
0.537995
0.538813
0.539625
0.54043
0.541226
0.54201
0.542781
0.543535
0.544272
0.54499
0.545685
0.546356
0.547002
0.547619
0.548205
0.548759
0.549278
0.54976
0.550202
0.550604
0.550961
0.551272
0.551534
0.551746
0.551905
0.552008
0.552053
0.552038
0.55196
0.551817
0.551606
0.551326
0.550973
0.550546
0.550041
0.549457
0.548792
0.548042
0.547206
0.546281
0.545266
0.544157
0.542954
0.541653
0.540253
0.538752
0.537148
0.535439
0.533623
0.531699
0.529666
0.527521
0.525264
0.522893
0.520407
0.517805
0.515087
0.512251
0.509297
0.506225
0.503035
0.499726
0.496299
0.492753
0.489089
0.485307
0.481405
0.477385
0.473244
0.468982
0.464595
0.460081
0.455435
0.450659
0.44573
0.440721
0.435411
0.624947
0.624516
0.623961
0.623294
0.62252
0.621644
0.620676
0.619622
0.618491
0.61729
0.616027
0.614708
0.61334
0.611928
0.61048
0.608999
0.60749
0.605959
0.604408
0.602841
0.601262
0.599673
0.598077
0.596477
0.594875
0.593273
0.591674
0.590078
0.588488
0.586906
0.585334
0.583772
0.582224
0.58069
0.579172
0.577671
0.57619
0.574729
0.57329
0.571875
0.570484
0.56912
0.567784
0.566476
0.565199
0.563952
0.562739
0.561558
0.560412
0.559302
0.558228
0.557191
0.556191
0.555231
0.554309
0.553427
0.552585
0.551783
0.551022
0.550303
0.549624
0.548986
0.54839