/*--------------------------------*- C++ -*----------------------------------*\
| =========                 |                                                 |
| \\      /  F ield         | OpenFOAM: The Open Source CFD Toolbox           |
|  \\    /   O peration     | Version:  2.3.0                                 |
|   \\  /    A nd           | Web:      www.OpenFOAM.org                      |
|    \\/     M anipulation  |                                                 |
\*---------------------------------------------------------------------------*/
FoamFile
{
    version     2.0;
    format      ascii;
    class       volScalarField;
    location    "10";
    object      sigmaEq;
}
// * * * * * * * * * * * * * * * * * * * * * * * * * * * * * * * * * * * * * //

dimensions      [1 -1 -2 0 0 0 0];

internalField   nonuniform List<scalar> 
1000
(
10314.8
10658.5
11349.9
11817.9
12054.5
12130.4
12107.2
12026.6
11913.9
11749.8
12375.3
11855.7
12044.6
12247.6
12332.7
12314
12224.3
12092
11939.6
11714.4
14362.2
13060.1
12711.5
12601.1
12500.3
12365.8
12201.6
12021.2
11842.1
11613.6
16224.1
14200.1
13327.5
12881.5
12576.1
12315.6
12076.6
11855.9
11658.8
11437.3
17927.1
15253.6
13877.2
13097.3
12580.5
12191.9
11878
11618
11404.6
11190.7
19429.6
16180.3
14352.6
13255.8
12534.3
12018.6
11630.8
11331.5
11099.6
10891.3
20717.4
16971.8
14744.3
13365.1
12455.6
11822.1
11363.9
11025.2
10774.2
10569.4
21745.5
17594.7
15048.3
13434.4
12365.7
11630.4
11110.2
10736.6
10467.5
10264.5
22475.5
18027.1
15250.8
13467.9
12283.1
11472.4
10906
10505.5
10222.8
10021.7
22861
18249.2
15337.2
13459.5
12211
11359.6
10768.5
10354.3
10066
9866.77
5306.92
3478.08
2630.55
2468.97
2667.57
3024.4
3438.05
3862.79
4277.2
4670.75
5127.31
3546.04
3119.09
3207.63
3472.82
3800.13
4150.77
4504.92
4851.25
5179.49
4550.66
3718.86
3904.45
4277.71
4624.35
4934.02
5221.46
5494.52
5754.35
5995.68
3751.76
4025.54
4830.01
5446.53
5867.58
6170.97
6410.68
6615.47
6797.52
6956.28
2888.02
4527.42
5830.26
6624.51
7100.06
7396.97
7596.96
7743.72
7858.65
7943.96
2420.81
5263.45
6864.1
7764.98
8267.52
8549.8
8711.17
8805.22
8860.61
8880.94
2925.67
6160.03
7897.73
8831.17
9331.9
9589.46
9710.98
9755.34
9756.53
9719.9
4357.19
7205.48
8872.08
9782.63
10258.4
10485.8
10569.5
10569.2
10524.1
10439.3
6191
8307.28
9766.59
10594.2
11023.2
11216.6
11268.2
11236.2
11158.7
11037.9
8229.46
9480.33
10599.2
11273.6
11623.1
11769
11792.2
11743
11647.7
11545.6
5031.44
5363.34
5663.57
5934.52
6180.12
6403.16
6606.09
6790.42
6957.2
7107.21
7240.58
7357.7
7457.84
7541.61
7607.94
7656.74
7685.94
7692.48
7674.15
7646.65
5454.91
5697.19
5930.62
6150.86
6357.33
6549.48
6727.65
6891.68
7041.83
7177.83
7299.64
7406.84
7499.15
7575.95
7637.25
7682.24
7709.44
7714.64
7693.4
7649.77
6158.47
6281.76
6416.14
6555.53
6696.37
6835.1
6969.35
7096.98
7216.68
7327.08
7427.29
7516.22
7593.16
7657.42
7708.42
7745.02
7766.16
7766.88
7742.48
7694.99
7007.54
7008.53
7035.65
7083.62
7147.23
7220.83
7299.96
7380.83
7460.71
7537.17
7608.36
7672.65
7728.8
7775.45
7812.02
7837.32
7849.35
7843.7
7816.83
7764.76
7896.78
7789.08
7715.59
7674.97
7661.04
7666.99
7687.13
7716.7
7751.97
7789.82
7827.63
7863.23
7894.81
7921.1
7940.72
7952.19
7954.13
7941.99
7912.4
7854.5
8752.7
8558.17
8399.28
8281.04
8196.68
8138.81
8101.58
8079.87
8069.71
8067.49
8070.29
8075.52
8081.16
8085.27
8086.76
8084.16
8075.37
8056.26
8024.34
7960.26
9529.08
9272.52
9047.5
8866.71
8723.02
8608.81
8519.38
8449.58
8396.11
8354.92
8323.42
8298.37
8278.02
8260.19
8243.62
8226.09
8206.35
8179.94
8144.42
8076.86
10200.6
9907.39
9633.1
9406.29
9213.21
9053.05
8917.26
8806.21
8712.71
8637.08
8572.81
8520.69
8475.03
8437.32
8402.4
8371.98
8339.66
8305.86
8262.86
8205.76
10756.5
10439
10132.9
9866.83
9637.81
9438.15
9268.13
9121.29
8997.64
8891.11
8801.88
8724.43
8659.68
8602.64
8554.86
8510.42
8470.28
8425.05
8389.35
8349.76
11225.8
10886.2
10547.7
10250.4
9990.93
9763.14
9565.49
9393.12
9244.5
9115.48
9004.71
8908.74
8826.74
8755.94
8695.85
8642.46
8593.76
8549.06
8519.31
8494.3
11646.9
11239.4
10869.6
10550.6
10268.4
10022.5
9804.77
9615.38
9448.14
9303.46
9176.05
9066.82
8971.06
8890.46
8820.07
8761.2
8706.87
8660.53
8633.59
8628.82
11446
11273.3
10985.8
10699.8
10433
10190.4
9972.26
9777.22
9603.71
9449.96
9314.4
9195.51
9092.13
9003.1
8927.4
8862.58
8805.76
8761.2
8734.26
8727.99
11249.1
11166.7
10969.5
10742.6
10511.2
10289.2
10082.1
9892.24
9719.72
9564.34
9425.34
9302.16
9194.05
9100.6
9020.95
8953.79
8897.5
8851.79
8828.34
8824.6
11066.9
11023.7
10889.2
10718
10528.3
10334.8
10146.6
9968.49
9802.85
9650.76
9512.76
9388.93
9279.38
9184.07
9102.97
9034.98
8978.93
8939.51
8917.11
8911.92
10892.9
10873.9
10779.1
10651.1
10499.7
10336.7
10171.1
10009.1
9854.56
9709.83
9576.4
9455.24
9347.08
9252.52
9171.96
9105.34
9052.89
9014.18
8997.88
8998.37
10729.8
10724.6
10657.7
10561.6
10441.8
10306.8
10164.1
10020.1
9879.1
9744.4
9618.25
9502.29
9397.88
9306.15
9228.1
9164.01
9114.2
9083.7
9070.69
9073.98
10577.8
10583.3
10535.6
10462.5
10367.5
10256.2
10134.6
10008.4
9881.87
9758.65
9641.45
9532.46
9433.52
9346.24
9272
9211.96
9167.67
9139.15
9134.07
9146.08
10438
10450.3
10417
10361.2
10285.3
10193.5
10090.4
9980.69
9868.39
9757.06
9649.65
9548.67
9456.3
9374.53
9305.18
9249.61
9209.33
9189.81
9189.01
9205.18
10309.5
10327.4
10304.4
10261.8
10200.9
10125
10037.6
9942.65
9843.65
9743.96
9646.52
9553.97
9468.72
9393.03
9328.97
9278.65
9244.62
9227.47
9234.56
9259.01
10192.6
10213.2
10198.8
10166.5
10117.7
10054.8
9980.78
9898.77
9811.91
9723.2
9635.46
9551.32
9473.28
9403.79
9345.25
9299.81
9269.89
9261.26
9271.91
9299.25
10086.3
10109.3
10101.2
10077
10037.9
9985.82
9923.18
9852.57
9776.67
9698.14
9619.57
9543.48
9472.42
9408.91
9355.45
9314.84
9290.45
9283.29
9300.28
9333.85
9990.93
10014.8
10011.6
9994.02
9962.94
9920.04
9867.26
9806.77
9740.78
9671.61
9601.56
9533.03
9468.45
9410.39
9361.5
9324.6
9302.86
9302.31
9321
9355.44
9905.55
9930.34
9930.55
9918.19
9893.86
9858.95
9814.92
9763.55
9706.59
9646.04
9583.87
9522.31
9463.61
9410.29
9364.97
9330.97
9312.39
9310.95
9333.31
9371.55
9830.43
9854.41
9857.78
9849.83
9831.51
9803.71
9767.74
9724.69
9676.15
9623.52
9568.71
9513.46
9460.04
9410.6
9367.97
9335.13
9316.12
9317.55
9338.63
9375.43
9764.54
9788.47
9793.88
9789.68
9776.75
9755.66
9727.16
9691.99
9651.22
9606.03
9557.94
9508.54
9459.73
9413.51
9372.32
9339.41
9319.63
9316
9336.02
9373
9708.45
9731.66
9738.86
9738.51
9730.75
9716.31
9694.82
9667.17
9633.51
9595.33
9553.32
9509.38
9464.56
9421.02
9380.35
9345.75
9321.19
9314.33
9327.43
9358.17
9660.9
9684.1
9693.54
9697.27
9695.35
9687.23
9672.68
9651.69
9624.79
9592.68
9556.47
9517.24
9476.31
9434.86
9394.32
9356.94
9327.15
9309.11
9311.93
9334.82
9621.76
9643.99
9657.84
9667.45
9672.16
9670.33
9662.14
9647.03
9626.04
9599.27
9568.24
9533.34
9496.06
9456.75
9416.55
9376.24
9338.44
9308.69
9293.86
9300.04
9587.74
9610.1
9633.35
9652.16
9663.85
9668.12
9664.84
9654.74
9638.21
9616.3
9589.55
9559
9525.11
9488.63
9449.64
9408.23
9364.87
9320.45
9280.49
9253.34
9544.13
9589.49
9628.97
9657.25
9674.63
9682.57
9682.16
9674.87
9661.49
9643.1
9620.16
9593.41
9562.94
9529.06
9491.95
9452.54
9410.05
9359.88
9291.12
9164.28
9726.99
9867.47
10093.1
10378.6
10682.5
10967.6
11205.1
11378.8
11483.4
11519.4
9619.45
9740.44
9942.46
10203.1
10487.3
10762.3
11001.8
11189.9
11320.4
11377.1
9533.09
9637.33
9815.32
10048.7
10307.1
10562.6
10791.5
10978.3
11115.5
11183
9462.43
9552.78
9709.62
9918.01
10152.4
10388.8
10606.5
10790.2
10927.5
11003.9
9403.83
9483.02
9621.57
9807.6
10019.6
10236.7
10441.1
10617.3
10751.4
10831.3
9355.06
9424.95
9547.86
9714.05
9905.2
10103.5
10293.2
10459.8
10587.7
10669.5
9314.63
9376.84
9486.22
9634.78
9806.82
9987.04
10161.5
10316.6
10437.4
10518.1
9281.19
9336.64
9434.33
9567.28
9721.98
9885.25
10044.7
10187.9
10300.8
10379.6
9253.26
9303.12
9390.59
9509.67
9648.72
9796.26
9941.3
10072.6
10177.8
10252.6
9229.64
9274.54
9353.14
9460.05
9585.14
9718.34
9849.98
9970.06
10067.1
10138.3
9208.76
9249.75
9320.66
9416.96
9529.63
9649.98
9769.33
9878.48
9967.69
10034.4
9189.62
9226.98
9291.5
9378.71
9480.68
9589.72
9697.93
9797.11
9878.78
9941.68
9170.59
9205.39
9264.63
9344.11
9436.96
9536.07
9634.56
9724.95
9800.28
9858.67
9151.11
9183.74
9238.58
9311.85
9396.95
9487.93
9578.32
9661.82
9731.44
9786.61
9130.11
9161.53
9212.91
9281
9359.72
9444.08
9528.24
9606.34
9671.63
9723.32
9108.06
9137.78
9186.46
9250.14
9323.98
9403.04
9482.94
9557.35
9619.86
9669.5
9083.34
9112.37
9158.43
9218.51
9288.02
9363.14
9439.92
9512.7
9574.92
9623.33
9055.7
9082.55
9125.85
9182.83
9248.84
9320.97
9395.49
9468.14
9532.58
9584.1
9026.34
9047.77
9087.8
9141.93
9205.37
9274.71
9346.77
9418.25
9484.42
9546.86
9014.38
9021.31
9055.36
9102.34
9158.07
9219.34
9282.85
9345.04
9405.83
9478.31
)
;

boundaryField
{
    left
    {
        type            symmetryPlane;
    }
    right
    {
        type            calculated;
        value           nonuniform List<scalar> 
30
(
7658
7663
7713.98
7790.46
7886.06
7995.65
8114.2
8242.81
8378.27
8512.1
8628.73
8729.49
8823.17
8911.7
8995.32
9072.63
9142.52
9203.67
9255.59
9297.85
9330.63
9353.99
9368.21
9373.31
9368.69
9353.68
9327.33
9289.86
9236.32
9123.03
)
;
    }
    down
    {
        type            symmetryPlane;
    }
    up
    {
        type            calculated;
        value           nonuniform List<scalar> 
30
(
9025.56
9032.2
9066.25
9113.17
9168.71
9229.46
9291.91
9352.22
9410.11
9479.31
9541.61
9588.6
9628.89
9657.25
9674.68
9682.5
9682.1
9674.76
9661.51
9643.18
9620.4
9593.64
9563.15
9528.91
9491.23
9451.2
9407.98
9355.09
9279.65
9135.31
)
;
    }
    hole
    {
        type            calculated;
        value           nonuniform List<scalar> 
20
(
10218.5
12387
14454.5
16391.9
18155.2
19713.9
21046.9
22113
22870.6
23273.9
5337.96
5131.71
4474.87
3531.65
2383.63
1466.69
2010.94
3752.84
5807.81
8007.03
)
;
    }
    frontAndBack
    {
        type            empty;
    }
}


// ************************************************************************* //
