/*--------------------------------*- C++ -*----------------------------------*\
| =========                 |                                                 |
| \\      /  F ield         | OpenFOAM: The Open Source CFD Toolbox           |
|  \\    /   O peration     | Version:  2.3.0                                 |
|   \\  /    A nd           | Web:      www.OpenFOAM.org                      |
|    \\/     M anipulation  |                                                 |
\*---------------------------------------------------------------------------*/
FoamFile
{
    version     2.0;
    format      ascii;
    class       volSymmTensorField;
    location    "10";
    object      sigma;
}
// * * * * * * * * * * * * * * * * * * * * * * * * * * * * * * * * * * * * * //

dimensions      [1 -1 -2 0 0 0 0];

internalField   nonuniform List<symmTensor> 
1000
(
(8051.89 -5229.05 2.66474e-13 3668.8 -1.48937e-13 2704.78)
(10068 -4046.99 2.37907e-14 1525.9 4.08839e-14 2675.52)
(11126 -3255.69 1.00532e-13 323.507 3.80501e-14 2642.19)
(11667.9 -2690.64 8.05881e-15 -370.52 -6.34412e-15 2607.09)
(11931 -2271.32 7.70373e-14 -759.553 3.15849e-14 2578.02)
(12031.8 -1953.35 8.55831e-15 -972.561 -1.79587e-15 2552.12)
(12041 -1708.2 -6.14557e-14 -1080.11 -2.53615e-14 2529.43)
(11994.9 -1512.64 -1.03529e-13 -1131.23 -2.7248e-14 2507)
(11911.5 -1350.28 0 -1156.9 0 2481.82)
(11831.6 -1116.1 1.49713e-14 -1130.95 -4.40692e-15 2469.38)
(10358.5 -5984.01 1.41522e-13 3939.45 -8.92273e-14 3299.54)
(11769 -4243.47 -3.47565e-14 1904.17 1.50133e-14 3155.34)
(12440.3 -3142.24 5.22247e-14 728.003 1.85855e-14 3038.84)
(12733.3 -2406.46 1.00338e-14 42.1143 -4.24156e-15 2948.17)
(12805.4 -1900 -7.74924e-14 -362.389 -3.20824e-14 2871.47)
(12761 -1542.25 1.32943e-14 -594.102 -5.80318e-15 2807.75)
(12646.5 -1283.32 8.0924e-14 -730.175 1.74396e-14 2749.92)
(12501.2 -1085.2 -7.36446e-14 -803.68 -1.54131e-14 2699.43)
(12349.1 -913.953 -3.4634e-14 -839.14 1.46089e-14 2656.13)
(12205 -683.492 -5.68628e-15 -774.785 -1.33757e-14 2637.74)
(12820.7 -6490.66 7.28183e-14 3905.7 -7.46498e-14 3859.94)
(13514.7 -4317.52 -1.87329e-14 2150.8 4.96378e-15 3615.12)
(13732.4 -2967.3 -3.09099e-16 1127.51 7.31039e-17 3429.22)
(13712.2 -2099.35 -5.78383e-15 499.751 8.14518e-16 3279.68)
(13569 -1523.7 -7.73885e-14 117.07 -3.1688e-14 3158.32)
(13365 -1132.64 -7.35268e-14 -118.044 -2.4385e-14 3056.99)
(13134.5 -858.189 -1.97066e-14 -265.135 -1.88567e-14 2969.86)
(12902.2 -653.069 2.66399e-14 -355.217 1.18637e-14 2895.46)
(12688.2 -483.353 -2.13526e-14 -406.312 1.00421e-14 2834.28)
(12498.4 -282.023 -4.04313e-15 -357.287 -1.24687e-14 2801.79)
(15369.7 -6681.85 1.80909e-13 3647.1 -6.84306e-14 4388.5)
(15240.8 -4231 -6.06113e-14 2297.83 -1.78167e-14 4047.38)
(14939.5 -2729.2 8.84945e-16 1487.62 -4.41901e-17 3790.88)
(14583.8 -1777.52 0 974.615 0 3590.4)
(14211.1 -1162.12 7.373e-14 640.678 2.6907e-14 3427.33)
(13848.2 -752.867 6.1491e-15 421.169 -8.04608e-15 3292.93)
(13505.5 -472.908 -5.98731e-14 268.02 -2.46121e-14 3178.5)
(13194.5 -270.227 3.19767e-14 160.476 3.49537e-14 3081.92)
(12926.1 -111.54 -1.93781e-14 87.8995 1.02311e-14 3003.22)
(12694.6 55.5729 4.50794e-14 101.773 1.75482e-14 2953.01)
(17879 -6523.61 -2.21163e-13 3205.48 3.10301e-14 4865.66)
(16885.9 -3971.82 -1.40276e-13 2347.13 -3.32994e-14 4438.39)
(16048.7 -2420.91 9.70874e-15 1819.57 1.38219e-15 4123.45)
(15340.5 -1453 5.27453e-15 1446.71 1.90633e-15 3873.97)
(14736.5 -834.741 0 1180.97 0 3673.26)
(14216.9 -431.107 1.35627e-13 983.826 4.36604e-14 3507.86)
(13769.1 -160.119 8.83271e-14 830.25 3.39942e-14 3369.08)
(13387 29.8347 4.01595e-14 707.54 2.93589e-14 3252.58)
(13067.7 170.165 -4.20156e-14 608.698 1.82135e-15 3156.1)
(12798.3 302.938 -4.76392e-14 578.899 -1.69364e-14 3087.05)
(20247.5 -5996.68 -2.84604e-13 2677.24 2.38711e-14 5290.32)
(18389.4 -3539.04 1.0524e-13 2345.07 2.53625e-14 4784.88)
(17020.2 -2056.6 6.93261e-14 2107.61 2.07996e-14 4414.11)
(15974.8 -1137.35 0 1894.56 0 4123.7)
(15149.7 -557.595 -7.06639e-14 1704.25 -1.73614e-14 3889.37)
(14484.7 -184.145 -2.24991e-17 1536.67 7.42488e-17 3697.24)
(13940.2 61.5438 1.22448e-13 1384.15 3.14482e-14 3536.39)
(13493.2 228.559 5.79641e-14 1245.85 1.27422e-14 3401.32)
(13129.1 346.594 7.48202e-15 1122.57 -5.51605e-15 3288.85)
(12827.2 447.57 -4.21555e-14 1047.83 -5.5752e-15 3201.93)
(22363 -5119.08 -4.15565e-14 2127.01 -2.75498e-15 5651.54)
(19703.2 -2942.1 1.38426e-13 2307.61 2.98564e-14 5079.42)
(17841.7 -1640.29 0 2361.1 0 4662.19)
(16484.5 -840.468 -9.3e-14 2298.43 -3.05489e-14 4334.52)
(15460.6 -339.513 -4.20796e-17 2182.39 -1.19056e-16 4071.46)
(14666.1 -21.0014 -1.30611e-13 2042.1 -1.9841e-14 3855.75)
(14037.7 185.254 -5.4989e-15 1891.89 9.15798e-15 3676.07)
(13535.2 321.861 8.48155e-15 1740.89 -9.63483e-15 3525.25)
(13132.2 414.495 3.47541e-14 1593.91 -4.12009e-15 3398.33)
(12803.6 486.934 -2.4461e-16 1477.07 2.03923e-16 3295.55)
(24107.3 -3924.18 -2.67371e-14 1638.81 -3.49989e-14 5941.4)
(20761.4 -2209.12 2.71314e-14 2268.5 2.43083e-14 5314.58)
(18488 -1192.83 -6.20245e-14 2569.88 -2.13855e-14 4859.52)
(16869.8 -571.602 -8.3549e-14 2637.49 -1.63649e-14 4501.68)
(15680 -185.931 3.33945e-17 2584.1 1.35445e-16 4214.79)
(14779.8 57.7076 1.05225e-17 2467.46 -9.05231e-17 3980.13)
(14083.1 212.597 -5.94405e-14 2318.8 -3.27786e-15 3785.06)
(13535.9 313.544 -5.02417e-14 2155.69 -1.11945e-14 3621.14)
(13102.6 379.582 4.33309e-15 1989.56 -5.70562e-15 3482.82)
(12754.2 427.67 5.43136e-15 1837.67 1.14564e-15 3367.35)
(25363.7 -2479.14 2.4734e-13 1272.69 -9.67307e-15 6146.85)
(21508.1 -1381.49 1.19104e-13 2242.92 -4.43512e-16 5481.01)
(18932.9 -737.042 -7.56353e-15 2727.99 -1.4962e-14 4998.66)
(17126.4 -345.547 8.07302e-14 2891.12 4.02104e-15 4619.42)
(15817 -102.284 1.41029e-15 2881.28 9.63606e-15 4314.99)
(14841.1 49.722 6.11976e-14 2780.05 1.77962e-14 4066.42)
(14096.7 146.814 0 2631.3 0 3860.32)
(13518.6 208.509 0 2459.44 0 3687.24)
(13064.8 249.174 -2.28037e-14 2278.74 -2.88011e-15 3540.81)
(12703 276.636 2.1137e-14 2099.79 -1.77487e-14 3416.03)
(26034.5 -878.526 5.14052e-15 1080.8 1.25666e-14 6257.38)
(21910.4 -554.455 -3.77093e-13 2253.73 -5.25707e-15 5576.33)
(19157.2 -344.151 4.74606e-14 2834.79 -1.33617e-14 5075.08)
(17238.6 -211.463 8.23353e-14 3039.17 2.5339e-15 4679.49)
(15861 -125.757 7.01307e-14 3047.07 2.24671e-15 4363.39)
(14842.2 -70.8898 0 2949.37 0 4105.76)
(14072.4 -33.7482 0 2798.45 0 3893.27)
(13478.2 -9.50567 6.47847e-16 2619.86 -5.27718e-15 3714.93)
(13014.7 7.92587 6.77173e-14 2429.45 1.89499e-15 3564.03)
(12648.5 19.9416 -1.02495e-15 2237.7 -2.90404e-16 3435.29)
(-242.879 163.157 -6.69928e-15 -6041.8 1.05886e-13 -1450.31)
(348.248 28.2678 1.53773e-15 -3542.76 -1.87907e-14 -737.194)
(1008.07 -84.9303 0 -2008.68 0 -230.909)
(1782.14 -148.648 4.25916e-15 -1043.94 8.04409e-15 170.354)
(2558.61 -178.017 -1.26465e-14 -428.468 4.93427e-15 491.571)
(3292.7 -186.562 -1.28389e-14 -27.9399 1.31509e-14 753.405)
(3967.2 -184.089 3.42786e-14 236.691 1.16654e-14 970.128)
(4579.3 -175.349 4.85329e-14 412.309 -6.0662e-16 1151.91)
(5132.22 -163.75 -4.56246e-16 529.226 -1.86306e-15 1306.49)
(5629.8 -152.506 3.62628e-15 606.209 3.82703e-15 1439.08)
(-227.108 267.76 -5.32517e-15 -5816.04 -2.29323e-14 -1394.57)
(516.974 -419.797 2.0529e-16 -3389.85 3.72311e-16 -662.971)
(1254.69 -783.281 -2.5179e-14 -1980.53 -1.96222e-14 -167.503)
(2054.06 -960.464 -1.16639e-14 -1098.77 -3.99359e-15 220.45)
(2835.09 -1029.89 1.5228e-14 -530.09 1.91917e-15 531.923)
(3561.54 -1039.42 6.47391e-15 -154.833 -4.81521e-15 786.163)
(4222.93 -1017.84 -1.25522e-14 96.8821 -4.83295e-15 996.88)
(4819.35 -979.984 -4.55383e-14 267.814 -3.23395e-15 1173.96)
(5354.11 -935.142 -3.9701e-14 384.293 1.98711e-15 1324.25)
(5826.87 -892.918 4.51179e-14 464.517 -1.77029e-15 1451.86)
(-134.597 296.26 -6.79885e-15 -5096.05 -1.83801e-14 -1207.07)
(853.973 -793.058 3.83589e-14 -3076.28 3.124e-14 -512.84)
(1709.18 -1355.2 7.91486e-17 -1893.15 1.42844e-16 -42.453)
(2565.16 -1617.32 -6.66243e-14 -1141.54 -2.47406e-14 328.529)
(3356.85 -1714.46 -5.53595e-14 -648.982 -1.67924e-14 624.893)
(4071.9 -1720.78 -2.53068e-14 -315.752 -7.02722e-15 866.804)
(4709.95 -1679.7 -7.72738e-15 -85.8033 -1.00201e-14 1067.11)
(5277.08 -1614.79 1.63153e-14 75.7876 -1.05374e-15 1235.28)
(5778.45 -1539.39 -6.38203e-14 190.239 -5.19061e-15 1377.39)
(6206.99 -1469.99 -8.5496e-14 271.415 -6.74258e-16 1495.02)
(41.4776 173.669 -1.8476e-14 -4089.31 2.76184e-14 -934.116)
(1363.33 -1177.31 5.09947e-16 -2625.22 -1.01757e-14 -291.205)
(2389.36 -1861.57 -2.0654e-14 -1758.54 4.02198e-15 145.573)
(3304.07 -2173.01 8.43147e-15 -1194.24 8.39582e-15 486.883)
(4104.58 -2276.9 8.20901e-16 -806.245 2.49634e-16 761.153)
(4798.39 -2270.11 1.08732e-14 -530.852 6.84082e-16 984.816)
(5400.92 -2206.03 -5.54164e-14 -330.09 -7.15314e-15 1170.19)
(5924.94 -2114.33 -3.02469e-15 -180.986 1.02441e-14 1325.53)
(6378.67 -2011.38 1.20992e-14 -69.4759 3.53806e-15 1455.97)
(6745.74 -1920.77 2.80264e-14 11.5483 7.64869e-15 1559.37)
(372.341 -143.908 2.82797e-14 -2858.84 -9.06513e-14 -573.807)
(2067.1 -1597.88 -3.53213e-14 -2070.18 -1.10356e-15 -0.711424)
(3263.28 -2316.83 -5.9148e-14 -1592.85 -2.12069e-14 385.485)
(4245.81 -2621.68 4.71689e-14 -1245 7.01472e-15 692.493)
(5045.88 -2706 4.70076e-14 -981.415 1.3692e-14 937.953)
(5707.24 -2673.52 6.02278e-14 -774.348 1.33007e-14 1138.36)
(6261.13 -2582.25 5.61276e-14 -608.469 1.59736e-14 1304.46)
(6728.69 -2464.48 -2.94235e-14 -473.935 3.41885e-15 1443.41)
(7122.13 -2338.02 1.01799e-14 -365.68 1.86086e-14 1559.18)
(7412.56 -2234.36 -4.0615e-15 -285.731 -9.81552e-15 1644.65)
(888.454 -661.151 1.65775e-14 -1565.32 1.15492e-13 -156.199)
(2973 -2057.03 -4.44577e-14 -1476.34 -5.45962e-16 345.382)
(4334.43 -2699.58 7.17845e-14 -1395.81 1.57557e-14 678.142)
(5356.02 -2947.28 -3.28768e-15 -1280.39 -1.02169e-14 940.532)
(6139.34 -2983.98 5.59572e-14 -1148.45 1.7454e-14 1151.75)
(6752.55 -2913.29 -5.00467e-14 -1015 -1.51372e-14 1324.05)
(7244.94 -2790.55 4.38532e-14 -886.68 1.34662e-14 1467.29)
(7644.43 -2647.84 -2.94226e-14 -767.529 4.12621e-15 1586.98)
(7966.64 -2503.08 5.28242e-14 -662.541 -9.22486e-15 1685.56)
(8169.85 -2395.92 9.36623e-15 -584.509 -2.79691e-14 1750.46)
(1680.94 -1384.7 1.81152e-13 -198.06 -2.75248e-13 342.204)
(4088.74 -2512.19 -1.5425e-14 -844.089 2.77884e-14 748.765)
(5569.95 -2995.67 1.62364e-13 -1167.74 4.78559e-14 1015.89)
(6596.73 -3133.92 -8.24771e-16 -1274.92 -1.11465e-14 1228.11)
(7335.48 -3100.05 8.30142e-15 -1273.82 5.38168e-15 1398.85)
(7882.65 -2980.66 -4.12548e-14 -1215.54 -1.72804e-14 1538.56)
(8299.87 -2823.95 -2.11426e-14 -1127.03 1.91024e-15 1655.27)
(8621.35 -2658.23 0 -1024.71 0 1753.07)
(8865.57 -2500.54 -3.99268e-14 -922.775 -1.34526e-14 1832.95)
(8976.59 -2400.29 6.63978e-14 -848.803 1.20141e-14 1875.64)
(2796.03 -2290.46 5.01349e-14 1105.64 -1.58148e-13 900.386)
(5401.69 -2963.76 7.12401e-14 -209.387 -1.18533e-14 1198.22)
(6919.68 -3188.61 -3.77492e-14 -874.627 -2.58949e-14 1395.01)
(7910.09 -3178.48 7.54445e-14 -1190.75 3.87412e-14 1550.62)
(8574.72 -3057.02 -1.98783e-13 -1316.71 -6.85564e-14 1674.92)
(9036.42 -2884.24 6.055e-14 -1336.49 2.17223e-14 1776.91)
(9368.02 -2693.61 -1.98084e-14 -1291.6 2.25854e-15 1863.79)
(9606.4 -2506.81 0 -1209.95 0 1937.64)
(9770.46 -2340.84 1.62621e-14 -1116.12 -3.53518e-15 1997.16)
(9791.49 -2256.28 1.84212e-14 -1050.92 -4.77332e-15 2017.05)
(4223.62 -3281.42 0 2217.69 0 1486.46)
(6851.09 -3380.5 -1.23738e-14 434.435 1.29706e-14 1681.28)
(8321.24 -3285.99 -1.71816e-13 -516.375 -8.76182e-14 1801.12)
(9221.7 -3100.23 -6.37054e-15 -1009.87 1.52405e-14 1895.04)
(9784.81 -2879.82 4.47275e-15 -1251.66 4.42331e-15 1969.19)
(10147 -2653.81 4.07704e-14 -1346.14 2.41187e-14 2030.98)
(10385.8 -2432.95 0 -1349.94 0 2085.2)
(10540.9 -2229.95 0 -1299.35 0 2132.67)
(10632 -2054.85 0 -1224.59 0 2170.93)
(10585.4 -1982.31 1.03482e-13 -1168.64 7.31142e-15 2173.11)
(5995.42 -4298.35 1.43785e-13 3095.86 -1.38132e-13 2097.99)
(8427.8 -3752.17 -3.214e-14 1018.61 2.5985e-14 2179.94)
(9740.78 -3310.49 -3.9829e-14 -107.253 -2.65203e-14 2223.12)
(10488.7 -2932.02 -7.95273e-14 -730.505 -4.14702e-14 2251.88)
(10917.5 -2609.24 1.50705e-13 -1062.05 5.98647e-14 2274.33)
(11159.7 -2332.63 0 -1224.84 0 2292.66)
(11295.8 -2093.67 -6.03838e-14 -1281.17 -2.40865e-14 2311.07)
(11362.9 -1886.72 0 -1278.12 0 2327.26)
(11400.1 -1699.7 1.43751e-14 -1222.3 -3.89299e-15 2348.72)
(11353 -1606.83 -2.01609e-14 -1194.3 -9.11811e-15 2344.3)
(6066.04 -126.922 7.1627e-14 650.346 -6.86334e-15 1549.93)
(6466.87 -104.071 -6.55663e-15 691.187 -2.13105e-14 1651.86)
(6828.98 -85.0096 -8.4748e-14 728.198 -8.44222e-15 1743.96)
(7157.06 -69.2272 -9.72067e-17 763.661 5.93952e-19 1827.86)
(7456.71 -56.4068 -4.16308e-15 798.979 -1.49906e-14 1905.16)
(7731.4 -45.9104 -3.04981e-14 834.484 1.1627e-16 1976.74)
(7984.94 -37.3488 0 871.502 0 2043.79)
(8219.5 -30.317 0 910.614 0 2106.95)
(8437.45 -24.5965 -6.36665e-14 953.37 5.6859e-15 2167.11)
(8640.25 -19.9178 1.01156e-13 1000.51 1.69862e-14 2224.79)
(8829.39 -16.1504 9.91006e-14 1053.78 -2.56076e-14 2280.73)
(9005.99 -13.0213 -6.99904e-14 1114.09 -1.15679e-14 2335.4)
(9170.86 -10.4813 -3.53205e-14 1183.57 -8.60752e-15 2389.48)
(9325.37 -8.37908 -1.04693e-13 1263.22 -4.16971e-16 2443.52)
(9470.02 -6.62137 3.63649e-14 1355.32 1.6484e-14 2498.15)
(9605.34 -4.83625 7.03219e-14 1460.9 -7.37664e-15 2553.75)
(9730.85 -3.25831 6.68049e-16 1582.57 4.9658e-15 2610.79)
(9842.44 -1.63751 3.49829e-14 1719.7 -6.546e-15 2668.19)
(9940.37 -1.63788 -3.56765e-14 1876.36 -2.41915e-15 2726.94)
(10042.6 -10.9172 8.49522e-14 2053.84 1.96723e-15 2791.48)
(6226.92 -823.826 8.96404e-14 520.831 4.11613e-15 1557.17)
(6596.42 -732.195 3.8833e-14 583.925 6.49558e-15 1657)
(6933.69 -655.429 -2.33475e-14 637.874 2.99804e-15 1747.28)
(7243.01 -588.263 6.55214e-14 686.904 4.2199e-15 1829.98)
(7527.43 -530.078 2.00667e-15 732.614 2.52333e-17 1906.16)
(7789.76 -479.343 -9.55101e-14 776.715 -1.80896e-15 1976.88)
(8032.69 -434.848 6.79178e-15 820.399 5.61919e-15 2043.02)
(8258.32 -395.409 -6.39135e-14 865.306 3.21208e-16 2105.45)
(8468.41 -360.219 -1.68833e-15 912.446 -5.88067e-17 2164.81)
(8664.48 -328.474 6.21653e-14 963.541 -5.83996e-15 2221.85)
(8847.55 -299.573 3.96219e-14 1019.54 8.90769e-15 2277.02)
(9018.97 -272.926 -4.83499e-15 1082.42 -5.94103e-15 2331.09)
(9179.28 -248.128 -3.50161e-14 1153.14 -3.34767e-16 2384.4)
(9329.67 -224.472 0 1233.97 0 2437.76)
(9470.88 -201.902 -3.1567e-15 1325.89 -5.57916e-15 2491.56)
(9603.93 -179.672 -7.06046e-14 1431.39 -1.38139e-15 2546.61)
(9727.75 -157.281 -2.455e-15 1551.38 -2.63905e-15 2602.88)
(9839.35 -133.024 1.54602e-15 1688.25 2.3724e-15 2660.22)
(9937.86 -105.647 7.11054e-16 1847.82 2.08405e-15 2719.77)
(10039.2 -72.7846 1.20308e-13 2046.22 1.24468e-14 2788.95)
(6545.97 -1361.68 -8.60599e-15 334.983 -1.21194e-15 1587.91)
(6866.14 -1220.18 6.21915e-14 422.176 1.22138e-15 1681.92)
(7159.36 -1099.6 -5.79973e-14 496.981 1.37309e-15 1766.85)
(7432.36 -992.953 2.03791e-14 563.841 -3.51927e-15 1845.28)
(7686.71 -899.321 1.01598e-13 624.293 4.23807e-15 1917.92)
(7923.9 -816.872 -9.75024e-14 680.485 -1.68668e-15 1985.63)
(8145.54 -743.83 -3.35993e-14 734.14 2.37954e-16 2049.16)
(8352.94 -678.644 6.42809e-14 787.246 -4.25741e-16 2109.27)
(8547.25 -620.031 1.60682e-15 841.134 1.06306e-16 2166.55)
(8729.58 -566.865 -4.69195e-15 897.684 -3.15386e-15 2221.68)
(8900.66 -518.173 1.00202e-13 958.028 5.14511e-16 2275.08)
(9061.48 -473.018 2.72054e-14 1024.13 -5.86548e-15 2327.45)
(9212.53 -430.657 -1.01922e-13 1097.08 -1.41842e-15 2379.14)
(9355.07 -390.466 -3.44836e-14 1179.08 -6.77032e-16 2430.96)
(9489.42 -351.738 3.12821e-14 1271.1 -2.12956e-15 2483.2)
(9616.3 -313.558 3.22324e-14 1375.53 -1.74271e-15 2536.58)
(9735.35 -275.184 -3.95891e-14 1493.44 -6.67593e-15 2591.26)
(9842.94 -233.498 -3.76479e-14 1627.15 -4.18587e-15 2646.94)
(9937.55 -185.349 2.85494e-14 1781.76 -4.92878e-15 2704.46)
(10027.6 -126.409 -3.58364e-14 1966.36 -7.12316e-15 2767.83)
(7001.75 -1785.31 -3.26598e-14 82.6295 -1.12872e-14 1634.86)
(7252.78 -1610.76 -1.08735e-14 199.634 -3.32896e-15 1719.79)
(7486.14 -1459.5 3.09074e-14 301.544 -5.97114e-16 1797.16)
(7709.01 -1324.45 -1.54913e-14 391.561 -6.50311e-15 1869.36)
(7921.19 -1204.58 8.86984e-15 471.421 3.34009e-15 1936.76)
(8122.66 -1097.96 -2.28263e-14 543.77 3.78176e-15 1999.94)
(8313.73 -1002.69 -6.90264e-14 610.927 -1.65066e-14 2059.54)
(8494.74 -917.077 -6.41108e-14 675.239 3.85327e-16 2116.15)
(8666.15 -839.637 2.33577e-14 738.457 -3.65917e-15 2170.29)
(8828.46 -769.058 6.69e-14 802.573 2.83508e-16 2222.55)
(8981.99 -704.102 7.83513e-14 868.977 7.4476e-15 2273.3)
(9127.44 -643.708 1.75932e-14 939.599 1.03232e-14 2323.16)
(9265.08 -586.859 -8.60435e-14 1015.64 8.08443e-15 2372.47)
(9395.53 -532.623 3.39002e-14 1099.09 9.14344e-16 2421.83)
(9519.43 -480.275 3.01293e-14 1191.13 -2.00256e-15 2471.67)
(9637.38 -428.786 -3.00368e-14 1293.87 1.69809e-15 2522.6)
(9748.12 -376.661 3.4157e-15 1408.27 2.92936e-15 2574.55)
(9848.67 -319.879 3.13455e-14 1536.32 -5.9153e-16 2627.31)
(9937.94 -254.507 -4.37652e-14 1681.91 -1.03497e-14 2681.5)
(10013.1 -175.321 -1.04663e-14 1848.01 -9.15917e-16 2737.18)
(7569.45 -2086.83 8.32106e-14 -207.994 -5.83431e-15 1698.8)
(7734.2 -1899.56 -7.01131e-14 -61.289 -1.19559e-14 1770.67)
(7895.65 -1732.72 -1.95552e-14 70.6194 4.22392e-15 1838.37)
(8057.74 -1581.81 1.07284e-14 186.046 3.83493e-15 1902.41)
(8218.39 -1445.97 3.27918e-14 287.454 1.15511e-14 1962.89)
(8375.74 -1323.59 1.04057e-13 378.009 2.92696e-15 2020.1)
(8528.72 -1213.05 2.43091e-14 460.677 8.017e-15 2074.48)
(8676.64 -1112.83 -6.4615e-14 538.049 1.84822e-16 2126.47)
(8819.19 -1021.52 -4.12627e-14 612.3 -1.88971e-14 2176.5)
(8956.21 -937.786 -9.03059e-14 685.41 3.11074e-15 2224.99)
(9087.62 -860.313 1.35633e-14 759.075 7.409e-15 2272.31)
(9213.48 -787.892 1.98126e-14 835.008 1.10434e-14 2318.88)
(9333.87 -719.386 -2.23583e-14 914.674 -1.1562e-14 2365.05)
(9449.35 -653.893 9.37583e-14 999.744 -3.20707e-16 2411.33)
(9559.88 -590.343 1.77641e-14 1091.43 1.08564e-14 2458)
(9665.6 -527.495 -2.87814e-14 1191.46 1.61683e-15 2505.48)
(9766.24 -463.849 4.35788e-14 1301.06 8.85079e-15 2553.99)
(9858.32 -394.497 1.05976e-13 1421.43 1.09832e-14 2603.02)
(9940.6 -314.749 -2.93422e-14 1555.79 -8.25092e-17 2653.01)
(9998.82 -219.802 -3.67058e-14 1702.34 -1.39577e-14 2700.27)
(8219.99 -2252.72 6.86094e-15 -503.081 5.26127e-15 1780.83)
(8285.85 -2076.01 -1.16908e-14 -334.259 4.78549e-15 1834.98)
(8368.27 -1910.45 -9.66466e-14 -174.307 -7.70652e-16 1890.92)
(8462.67 -1757.65 -6.36809e-14 -35.1367 -1.98673e-16 1944.82)
(8565.29 -1617.19 -3.57105e-15 86.8159 -2.80824e-16 1996.64)
(8672.48 -1488.36 4.72692e-16 195.505 -1.18149e-19 2046.46)
(8781.7 -1370.35 2.95422e-14 293.931 1.25036e-14 2094.38)
(8891.4 -1262.09 1.59973e-13 385.08 4.48616e-16 2140.73)
(9000.41 -1162.53 1.40591e-14 470.988 4.68267e-15 2185.71)
(9108.03 -1070.46 -1.60978e-13 553.878 -1.745e-15 2229.67)
(9213.51 -984.668 -1.96214e-14 635.256 -8.60299e-15 2272.79)
(9316.64 -903.959 1.61794e-13 717.003 3.76611e-15 2315.46)
(9416.99 -827.161 1.20886e-14 800.289 -1.07553e-14 2357.83)
(9514.48 -753.216 -1.62103e-13 886.797 -6.35163e-15 2400.29)
(9609.24 -681.136 -3.49955e-14 977.537 -2.12302e-15 2443.1)
(9701.48 -609.635 -1.9543e-14 1074.24 -1.1764e-14 2486.71)
(9789.62 -536.934 -1.90167e-14 1177.34 -1.16032e-14 2530.84)
(9871.27 -457.735 7.11424e-14 1288.55 9.35237e-15 2575.34)
(9945.35 -366.66 4.67731e-14 1409.9 1.33594e-14 2620.44)
(9986.82 -259.347 -3.62831e-14 1538.06 -1.57709e-14 2659.59)
(8920.79 -2277.76 -3.90955e-15 -769.227 -3.3567e-15 1881.13)
(8880.69 -2135.55 -3.98612e-14 -593.464 -2.19697e-15 1912.44)
(8881.94 -1988.39 0 -413.024 0 1954.36)
(8905.63 -1847.88 0 -255.99 0 1996.07)
(8946.75 -1714.55 -4.55644e-14 -117.574 -1.5548e-14 2037.5)
(9000.18 -1589.11 0 7.23886 0 2078.64)
(9061.92 -1472.08 -2.59956e-14 120.06 -9.75757e-15 2118.92)
(9130.05 -1362.96 -4.1496e-14 224.681 -1.50319e-14 2158.78)
(9202.28 -1261.39 3.46612e-14 321.87 1.42053e-14 2197.88)
(9277.69 -1166.33 2.44838e-14 414.725 9.79662e-15 2236.71)
(9354.67 -1076.94 -2.04228e-14 503.655 -9.25533e-15 2275)
(9432.73 -992.004 3.15109e-14 591.363 8.92165e-16 2313.25)
(9510.77 -910.527 2.79913e-14 677.976 1.37573e-14 2351.25)
(9588.97 -831.483 8.19636e-15 765.936 4.43139e-15 2389.59)
(9666.23 -753.867 5.50756e-14 854.984 -1.67991e-14 2427.97)
(9742.53 -676.413 5.79401e-14 947.661 4.80811e-16 2466.97)
(9816.38 -597.647 -1.07187e-13 1043.38 -1.55136e-14 2506.1)
(9886.12 -511.609 -9.61757e-14 1144.97 -9.46734e-15 2545.63)
(9948.66 -412.114 3.21375e-14 1251.6 3.84666e-15 2584.68)
(9977.34 -293.221 -3.33533e-14 1362.94 -1.37995e-14 2616.99)
(9640.19 -2165.95 2.49432e-14 -976.58 -8.12233e-15 1999.29)
(9493.36 -2078.99 -2.64325e-14 -817.379 -1.57789e-15 2002.15)
(9416.32 -1964.23 -1.02089e-13 -624.908 -6.01119e-15 2028.79)
(9368.42 -1849.24 1.29305e-14 -461.385 -5.00426e-15 2055.47)
(9347.7 -1733.54 2.51695e-15 -309.528 2.97852e-16 2085.73)
(9345.01 -1621.83 -3.21748e-14 -174.883 -8.52024e-16 2116.18)
(9358.25 -1513.99 4.33086e-14 -47.9719 -1.54328e-14 2148.53)
(9382.41 -1411.98 3.8566e-14 65.9429 1.23097e-14 2180.39)
(9416.92 -1314.65 -1.25086e-13 175.194 8.00159e-15 2213.57)
(9458.01 -1222.59 -1.79313e-14 274.801 -6.1241e-15 2246.03)
(9505.71 -1134.34 2.16203e-14 372.649 -1.47236e-14 2279.62)
(9556.94 -1049.73 0 463.485 0 2312.4)
(9612.37 -967.325 1.03974e-14 555.099 5.04878e-15 2346.34)
(9669.05 -886.688 1.13096e-13 641.373 1.50745e-14 2379.33)
(9728.45 -806.634 4.24991e-14 730.762 7.50415e-15 2413.66)
(9787.12 -726.198 -6.68625e-14 816.171 7.72524e-15 2446.91)
(9846.16 -643.665 -8.3774e-15 907.495 1.11273e-14 2481.61)
(9900.01 -553.632 0 995.903 0 2514.44)
(9950.83 -448.104 2.46912e-14 1094.21 -3.93356e-16 2548.86)
(9971.59 -318.382 -2.37922e-14 1175.92 -2.06218e-15 2572.5)
(10358.4 -1920.27 2.01253e-14 -1097.21 -3.12047e-15 2137.2)
(10118.3 -1895.03 -4.14385e-14 -964.752 1.18462e-14 2112.36)
(9963.43 -1825.64 1.04091e-14 -779.828 -4.91586e-15 2119.29)
(9844.04 -1746.87 -1.93785e-14 -613.756 -7.04207e-15 2130.07)
(9758.38 -1661.37 2.91156e-14 -462.039 1.92719e-14 2145.31)
(9699.14 -1572.84 1.35175e-13 -319.514 1.78058e-14 2164.53)
(9661.82 -1484.16 -5.39198e-14 -189.495 -1.10063e-15 2185.92)
(9642.26 -1396.55 -1.28111e-13 -66.9109 6.33248e-15 2209.7)
(9637.44 -1310.94 3.4453e-14 45.3726 -1.70945e-14 2234.5)
(9644.7 -1227.39 1.2297e-13 152.619 -6.84543e-15 2260.92)
(9661.56 -1145.87 -6.98255e-14 251.576 -1.84258e-14 2287.65)
(9686.53 -1065.81 -6.06171e-14 347.761 8.70412e-15 2315.61)
(9717.39 -986.793 -5.88243e-14 436.96 -2.67387e-15 2343.31)
(9753.75 -907.99 -2.60697e-15 525.278 -6.54897e-16 2372.08)
(9793.07 -828.77 7.81895e-14 607.25 1.44273e-14 2400.07)
(9835.33 -747.68 9.24096e-15 690.635 5.3291e-15 2429.07)
(9876.8 -663.818 0 769.445 0 2456.83)
(9917.18 -570.754 2.17102e-14 854.938 -1.92815e-15 2485.87)
(9961.23 -462.972 -5.96309e-14 932.697 -7.82881e-15 2513.98)
(9978.45 -334.441 5.55108e-14 984.26 2.80183e-14 2529.85)
(11061.7 -1538.26 4.04155e-14 -1147.34 2.75685e-14 2287.92)
(10754.3 -1568.41 1.22304e-14 -1037.6 -5.99738e-15 2242.31)
(10511.2 -1563.75 3.37122e-14 -872.043 6.03149e-15 2224.41)
(10313 -1539.55 -7.7785e-14 -719.727 7.27381e-16 2213.82)
(10158.4 -1498.56 -9.37728e-14 -576.355 -1.04585e-14 2211.24)
(10041.4 -1445.31 4.70437e-14 -438.281 -8.26566e-15 2216.1)
(9953.74 -1384.8 1.31205e-13 -309.724 1.72097e-14 2225.54)
(9891.51 -1319.37 5.1106e-14 -186.977 -8.74581e-15 2239.51)
(9848.8 -1251.4 -6.85469e-14 -73.3042 -1.11389e-14 2255.88)
(9823.45 -1181.76 1.06387e-15 35.2035 -1.0484e-15 2275.07)
(9810.94 -1111.13 -1.63218e-14 135.565 2.00186e-14 2295.35)
(9810.36 -1039.73 -9.48388e-14 231.714 -1.24743e-14 2317.4)
(9818.07 -967.128 5.66238e-14 320.375 2.75253e-15 2339.64)
(9834.06 -893.452 -7.12178e-15 405.626 -1.76727e-14 2363.01)
(9854.98 -817.377 -9.68846e-16 483.704 6.10444e-16 2385.85)
(9880.57 -738.28 -3.76601e-14 559.933 -8.7885e-15 2409.35)
(9906.6 -653.138 2.83401e-14 631.276 2.689e-15 2431.82)
(9938.88 -560.602 -1.53435e-16 706.363 5.52042e-16 2456.59)
(9973.89 -459.382 -2.1499e-14 766.343 1.59364e-15 2478.51)
(9989.82 -337.17 -6.55438e-15 797.232 -1.04658e-14 2489.32)
(11703.2 -1138 -1.92216e-14 -1138.2 -1.70527e-14 2438.07)
(11338.8 -1218.73 -2.52858e-14 -996.207 -1.33576e-14 2386.75)
(10984 -1292.32 -1.96964e-14 -890.47 -3.19168e-15 2329.28)
(10716.2 -1321.97 2.20507e-14 -766.913 1.14078e-14 2296)
(10508.1 -1320.47 -2.43992e-14 -636.144 -2.87475e-14 2278.14)
(10344.8 -1298.87 -1.83671e-14 -510.586 -1.82458e-14 2269.42)
(10218.1 -1262.89 -4.54433e-14 -386.485 -1.12062e-14 2268.83)
(10119.9 -1217.76 -1.0592e-14 -270.874 7.48863e-15 2272.84)
(10046.2 -1165.93 7.33536e-14 -158.55 2.70155e-14 2281.76)
(9991.42 -1109.72 -5.43173e-15 -55.3935 -5.2833e-17 2292.93)
(9953.73 -1050.02 3.15303e-14 44.3724 1.57636e-14 2307.25)
(9928.66 -987.588 -2.89987e-14 134.757 -1.51612e-14 2322.33)
(9915.88 -922.609 0 222.157 0 2339.55)
(9911.49 -854.935 -1.06101e-14 299.709 -7.07681e-15 2356.43)
(9915.87 -784.102 9.7938e-15 374.861 6.84697e-15 2374.78)
(9924.43 -708.141 -1.92994e-15 439.841 1.32508e-16 2391.75)
(9938.53 -625.729 -2.61188e-14 506.135 -2.56539e-15 2410.31)
(9953.76 -536.142 8.27237e-16 564.142 -2.48479e-16 2427.21)
(9983.95 -441.658 -6.60838e-15 616.76 -6.34756e-15 2446.32)
(10012.9 -331.191 -3.56723e-15 638.951 -6.29638e-15 2458.12)
(11695 -848.972 3.54974e-14 -981.997 1.12027e-14 2472.23)
(11490 -952.014 0 -964.627 0 2428.93)
(11188.5 -1054.41 -3.05844e-14 -904.873 -4.90329e-15 2373.14)
(10932.3 -1118.78 5.43432e-28 -803.3 1.04019e-28 2337.46)
(10719.8 -1148.22 2.52479e-29 -687.588 6.60531e-29 2315.13)
(10545.9 -1151.83 3.44902e-28 -568.588 1.51396e-28 2302.46)
(10404.5 -1137.16 4.59726e-28 -451.259 9.61113e-29 2296.9)
(10290.5 -1109.59 -2.77337e-14 -337.817 -1.9037e-15 2296.77)
(10199.3 -1072.78 0 -229.729 0 2300.68)
(10127.6 -1029.16 2.71307e-14 -127.509 1.58647e-15 2307.71)
(10072.2 -980.279 -2.45363e-28 -31.793 1.5686e-29 2317.02)
(10030.8 -927.108 -2.67243e-14 57.3488 -1.57847e-15 2328.03)
(10001.2 -870.15 2.65797e-14 139.428 1.67411e-15 2340.15)
(9982 -809.614 2.33364e-28 214.483 6.35751e-29 2353.03)
(9971.31 -744.97 -2.63858e-14 281.916 -2.05062e-15 2366.13)
(9966.74 -674.11 -1.81629e-28 341.825 -1.68864e-29 2378.9)
(9966.02 -594.928 2.62808e-14 395.396 2.72125e-15 2391.1)
(9975.3 -510.778 2.62649e-14 446.142 3.15478e-15 2404.95)
(9989.98 -426.388 -1.56437e-28 482.645 -2.09934e-31 2416.76)
(10007 -329.728 -3.69068e-14 495.163 -1.66771e-14 2423.59)
(11718.7 -572.303 2.10698e-14 -763.875 -4.57561e-15 2528.03)
(11573.3 -684.471 -1.09239e-14 -803.177 -1.14096e-14 2485.41)
(11328.3 -804.495 -4.17031e-14 -801.903 -1.64558e-14 2429.17)
(11098.8 -896.246 0 -745.994 0 2389.11)
(10894.4 -954.946 1.93466e-14 -661.845 -6.85677e-15 2361.36)
(10717.9 -985.612 9.27798e-15 -565.219 -1.71291e-14 2342.93)
(10568.2 -994.649 -3.80823e-14 -463.898 -1.2304e-14 2331.77)
(10442.6 -987.555 -4.64144e-14 -362.701 -2.09323e-14 2326.13)
(10338.2 -968.331 2.78019e-14 -263.933 2.04405e-15 2324.82)
(10252.1 -939.84 -1.6842e-14 -169.552 -1.73215e-14 2326.74)
(10182.1 -904.015 -8.10472e-15 -80.3792 -8.36672e-15 2331.16)
(10126 -862.176 -1.56334e-14 2.44304 -1.62015e-14 2337.33)
(10082.1 -815.145 -1.51152e-14 78.5191 -1.57252e-14 2344.76)
(10048.9 -763.373 -7.32716e-15 146.908 -7.65352e-15 2352.89)
(10025 -706.494 -1.42483e-14 207.223 -1.49467e-14 2361.27)
(10008.3 -642.3 -1.38929e-14 258.609 -1.46457e-14 2369.28)
(9997.68 -568.845 -2.64401e-14 301.958 -2.84313e-15 2376.84)
(9990.74 -490.39 -6.65094e-15 336.594 -7.1007e-15 2383.23)
(9997.67 -414.306 -6.52695e-15 361.176 -7.04064e-15 2390.5)
(10007.9 -328.324 -3.56114e-15 364.092 -7.04106e-15 2393.54)
(11686.5 -356.031 1.34815e-13 -598.081 4.08225e-14 2558.87)
(11574.9 -462.905 9.40554e-15 -658.505 1.10248e-14 2519.17)
(11379.3 -584.937 -7.13393e-14 -690.86 -2.18261e-14 2466.57)
(11185.4 -689.626 1.12306e-27 -671.267 2.68263e-28 2426.34)
(11001.8 -767.671 5.04019e-14 -617.764 -2.48913e-15 2396.32)
(10834.9 -819.44 0 -544.538 0 2374.7)
(10687 -848.951 8.85747e-15 -461.262 9.78747e-15 2359.79)
(10558.1 -860.62 -5.69537e-14 -373.832 -5.24315e-15 2350.22)
(10447.1 -858.244 1.27535e-27 -286.208 2.23292e-28 2344.81)
(10352.3 -844.691 5.55783e-14 -200.819 4.40261e-15 2342.66)
(10272.3 -822.114 -7.8122e-15 -119.602 -8.54361e-15 2342.93)
(10205.4 -792.032 -1.84822e-28 -43.8123 -1.15463e-29 2344.99)
(10150.4 -755.512 -1.11575e-27 25.2612 -8.74377e-29 2348.23)
(10106.1 -713.233 7.16948e-15 86.7541 7.85982e-15 2352.19)
(10071.2 -665.021 -5.51633e-28 139.42 -4.90757e-29 2356.3)
(10044 -608.603 -5.3319e-14 182.327 -5.2371e-15 2359.92)
(10022.6 -541.952 4.00122e-28 214.916 9.04001e-29 2362.51)
(10011.7 -470.683 4.64777e-14 238.719 -7.53063e-16 2365.49)
(10005.4 -403.06 -6.46572e-15 247.818 -7.34933e-15 2366.12)
(10003 -325.625 -7.815e-14 239.108 -4.02266e-14 2363.57)
(11621.4 -188.835 1.57148e-14 -462.952 2.10803e-14 2575.03)
(11535.7 -287.464 3.93519e-14 -531.677 1.68e-14 2539.38)
(11376.8 -403.667 1.66491e-14 -581.593 2.13218e-14 2491.21)
(11215.2 -510.656 1.73636e-28 -587.327 -3.82391e-30 2452.6)
(11056 -597.936 4.67539e-14 -559.227 2.49397e-14 2422.34)
(10904.9 -663.045 -2.11891e-14 -508.208 6.36725e-15 2399.23)
(10765.5 -707.507 -2.08949e-14 -443.201 6.52039e-15 2382.07)
(10639.7 -734.244 1.60579e-14 -370.711 1.90158e-14 2369.76)
(10527.6 -746.244 2.83327e-14 -295.327 2.67054e-15 2361.3)
(10429.1 -746.066 3.56705e-14 -220.295 1.1422e-14 2355.87)
(10343.2 -735.775 1.49479e-14 -148.028 1.73525e-14 2352.73)
(10269.1 -716.953 -2.01775e-14 -80.4003 6.11814e-15 2351.25)
(10206.1 -690.776 -1.3008e-14 -18.9967 1.41148e-14 2350.87)
(10153.2 -658.091 6.96471e-15 34.7882 8.03621e-15 2351.07)
(10109.5 -618.843 4.05582e-14 79.5084 1.82905e-14 2351.31)
(10074.2 -570.805 6.69076e-15 113.886 7.76189e-15 2351.1)
(10046.6 -512.12 5.92922e-30 136.988 6.70454e-31 2350.07)
(10023.1 -448.865 3.9561e-14 146.983 1.86151e-14 2346.95)
(10012.3 -389.665 1.2728e-14 144.56 1.52609e-14 2343.88)