/*--------------------------------*- C++ -*----------------------------------*\
| =========                 |                                                 |
| \\      /  F ield         | OpenFOAM: The Open Source CFD Toolbox           |
|  \\    /   O peration     | Version:  2.3.0                                 |
|   \\  /    A nd           | Web:      www.OpenFOAM.org                      |
|    \\/     M anipulation  |                                                 |
\*---------------------------------------------------------------------------*/
FoamFile
{
    version     2.0;
    format      ascii;
    class       volScalarField;
    location    "6e-06";
    object      alpha.fuel;
}
// * * * * * * * * * * * * * * * * * * * * * * * * * * * * * * * * * * * * * //

dimensions      [0 0 0 0 0 0 0];

internalField   nonuniform List<scalar> 
7500
(
1
1
1
1
1
1
1
1
1
1
1
1
1
1
1
1
1
1
1
1
1
1
1
1
1
1
1
1
1
1
1
1
1
1
1
1
1
1
1
1
1
1
1
1
1
1
1
1
1
1
1
1
1
1
1
1
1
1
0.57891372
0.015098667
1.911136e-08
7.9124545e-09
3.081845e-09
8.4325711e-10
1.5105976e-10
1.7964749e-11
1.4674714e-12
8.5830624e-14
3.7538939e-15
1.280087e-16
3.5377406e-18
8.2096781e-20
1.6526254e-21
2.9745017e-23
4.9236382e-25
1
1
1
1
1
1
1
1
1
1
1
1
1
1
1
1
1
1
1
1
1
1
1
1
1
1
1
1
1
1
1
1
1
1
1
1
1
1
1
1
1
1
1
1
1
1
1
1
1
1
1
1
1
1
1
1
1
1
1
0.57822756
0.030381951
6.3825636e-09
2.5429065e-09
6.6479818e-10
1.145389e-10
1.3169601e-11
1.0418049e-12
5.9079781e-14
2.5087775e-15
8.3181466e-17
2.2382162e-18
5.0631851e-20
9.9469946e-22
1.7491663e-23
2.831838e-25
1
1
1
1
1
1
1
1
1
1
1
1
1
1
1
1
1
1
1
1
1
1
1
1
1
1
1
1
1
1
1
1
1
1
1
1
1
1
1
1
1
1
1
1
1
1
1
1
1
1
1
1
0.99999999
0.99999999
1
1
1
1
1
0.98239363
0.37863665
0.0015919877
2.2986698e-09
5.5158413e-10
9.1010735e-11
1.0094925e-11
7.7240381e-13
4.2537819e-14
1.7613772e-15
5.7147239e-17
1.5089939e-18
3.3575305e-20
6.4998135e-22
1.1279923e-23
1.8044303e-25
1
1
1
1
1
1
1
1
1
1
1
1
1
1
1
1
1
1
1
1
1
1
1
1
1
1
1
1
1
1
1
1
1
1
1
1
1
1
1
1
1
1
1
1
1
1
1
1
0.99999999
0.99999999
0.99999999
0.99999999
0.99999999
0.99999999
0.99999999
0.99999999
0.99999999
0.99999999
1
1
0.87668677
0.088984196
1.6246414e-09
4.4034682e-10
7.0781799e-11
7.5660599e-12
5.6445577e-13
3.0515748e-14
1.2449951e-15
3.9911914e-17
1.0438112e-18
2.3046134e-20
4.4331486e-22
7.6514508e-24
1.217983e-25
1
1
1
1
1
1
1
1
1
1
1
1
1
1
1
1
1
1
1
1
1
1
1
1
1
1
1
1
1
1
1
1
1
1
1
1
1
1
1
1
1
1
1
1
1
1
1
0.99999999
0.99999999
0.99999999
0.99999999
0.99999998
0.99999998
0.99999998
0.99999998
0.99999998
0.99999998
0.99999999
1
1
0.91345055
0.096281033
1.2825094e-09
3.4969879e-10
5.5428727e-11
5.8033262e-12
4.2366728e-13
2.2435304e-14
8.9790675e-16
2.8285186e-17
7.28223e-19
1.5857888e-20
3.0143366e-22
5.1509346e-24
8.1334418e-26
1
1
1
1
1
1
1
1
1
1
1
1
1
1
1
1
1
1
1
1
1
1
1
1
1
1
1
1
1
1
1
1
1
1
1
1
1
1
1
1
1
1
1
1
1
1
1
0.99999999
0.99999999
0.99999999
0.99999999
0.99999999
0.99999999
0.99999999
1
1
1
1
1
1
0.54545257
0.017774278
1.0384109e-09
2.5595576e-10
3.9263448e-11
4.0534472e-12
2.9093903e-13
1.5135923e-14
5.9688817e-16
1.8604181e-17
4.7594128e-19
1.034167e-20
1.9696651e-22
3.3861584e-24
5.4001093e-26
1
1
1
1
1
1
1
1
1
1
1
1
1
1
1
1
1
1
1
1
1
1
1
1
1
1
1
1
1
1
1
1
1
1
1
1
1
1
1
1
1
1
1
1
1
0.99999999
0.99999999
0.99999999
0.99999999
0.99999999
0.99999999
0.99999998
0.99999997
0.99999995
0.99999999
1
1
1
1
0.79004284
0.084113773
1.6368146e-09
6.7226048e-10
1.6342752e-10
2.5432209e-11
2.6280851e-12
1.880262e-13
9.7832778e-15
3.8805826e-16
1.2241324e-17
3.1887136e-19
7.094248e-21
1.3900153e-22
2.4675283e-24
4.0740229e-26
1
1
1
1
1
1
1
1
1
1
1
1
1
1
1
1
1
1
1
1
1
1
1
1
1
1
1
1
1
1
1
1
1
1
1
1
1
1
1
1
1
1
1
1
1
0.99999999
0.99999999
0.99999999
0.99999999
0.99999999
0.99999999
0.99999999
1
1
0.99994828
0.99979735
0.99984861
0.9999866
1
0.51226224
9.325161e-05
1.1885428e-09
4.5301744e-10
1.0932579e-10
1.7148922e-11
1.7929998e-12
1.3050091e-13
6.9591183e-15
2.8513028e-16
9.3576621e-18
2.5510406e-19
5.9658551e-21
1.2320811e-22
2.3078613e-24
4.018916e-26
1
1
1
1
1
1
1
1
1
1
1
1
1
1
1
1
1
1
1
1
1
1
1
1
1
1
1
1
1
1
1
1
1
1
1
1
1
1
1
1
1
1
1
1
1
1
0.99999999
0.99999999
0.99999999
0.99999999
0.99999999
0.99999999
1
1
0.99997327
0.99950678
0.99963238
0.99999992
1
0.38462256
1.4997299e-09
8.1975678e-10
3.1078636e-10
7.6278371e-11
1.2381087e-11
1.3483657e-12
1.0303883e-13
5.8253995e-15
2.5518258e-16
8.9988295e-18
2.6380971e-19
6.6123508e-21
1.4537458e-22
2.8720492e-24
5.2187112e-26
1
1
1
1
1
1
1
1
1
1
1
1
1
1
1
1
1
1
1
1
1
1
1
1
1
1
1
1
1
1
1
1
1
1
1
1
1
1
1
1
1
1
1
1
1
1
1
1
1
1
1
1
1
1
1
1
0.9999998
0.99999915
1
0.54416211
0.0047589676
7.0964748e-10
2.5505663e-10
6.2512953e-11
1.0767659e-11
1.2944148e-12
1.1155671e-13
7.115091e-15
3.4564287e-16
1.3163239e-17
4.0485891e-19
1.0363047e-20
2.2738838e-22
4.4020444e-24
7.7297617e-26
1
1
1
1
1
1
1
1
1
1
1
1
1
1
1
1
1
1
1
1
1
1
1
1
1
1
1
1
1
1
1
1
1
1
1
1
1
1
1
1
1
1
1
1
1
1
1
1
0.95093236
0.76215775
0.50249193
0.43570986
0.50639734
0.6697449
0.83991339
0.95584877
0.99969804
1
1
0.96081535
0.054995634
9.3334626e-10
2.4324266e-10
6.6354956e-11
1.5862015e-11
2.4306905e-12
2.3594415e-13
1.5412216e-14
7.2067613e-16
2.5469656e-17
7.1334672e-19
1.6510562e-20
3.2785498e-22
5.7780052e-24
9.3189961e-26
1
1
1
1
1
1
1
1
1
1
1
1
1
1
1
1
1
1
1
1
1
1
1
1
1
1
1
1
1
1
1
1
1
1
1
1
1
1
1
1
1
0.9802045
0.92128781
0.91750596
0.91838392
0.91620287
0.86704927
0.65504931
0.17880066
3.3341029e-09
2.5090688e-09
2.5090688e-09
2.5090688e-09
2.509069e-09
2.509069e-09
0.019946866
0.40739617
0.95619158
1
1
0.80119099
8.5269786e-10
1.2415003e-10
1.6519083e-10
4.7393344e-11
6.1677466e-12
4.8028536e-13
2.5546913e-14
1.0021668e-15
3.0614651e-17
7.6099001e-19
1.5980871e-20
2.93026e-22
4.8317446e-24
7.3575371e-26
1
1
1
1
1
1
1
1
1
1
1
1
1
1
1
1
1
1
1
1
1
1
1
1
1
1
1
1
1
1
1
1
1
1
0.98760911
0.92733218
0.8205107
0.75772071
0.66894562
0.55126075
0.44099283
0.23907924
0.047648391
0.038343427
0.042628579
0.03035859
3.9962532e-09
3.6297366e-09
3.6297366e-09
3.7458686e-09
3.6557628e-09
3.0211217e-09
2.9308093e-09
7.8011034e-08
3.1434321e-08
2.5077746e-09
2.5077596e-09
0.34144482
0.97505903
1
1
0.86818369
0.20458654
5.6989821e-10
9.4981249e-11
8.9394355e-12
5.4863536e-13
2.4465838e-14
8.4433173e-16
2.3412375e-17
5.3735567e-19
1.0509287e-20
1.8028473e-22
2.789869e-24
3.9970324e-26
1
1
1
1
1
1
1
1
1
1
1
1
1
1
1
1
1
1
1
1
1
1
1
1
1
1
1
1
0.9835378
0.92500965
0.81373814
0.70763149
0.58779541
0.42896015
0.26078563
0.04143783
4.0345302e-09
3.6297892e-09
3.6297892e-09
3.6297892e-09
3.6297892e-09
3.6297892e-09
3.6297893e-09
3.6297892e-09
3.6297894e-09
3.6297896e-09
3.8142775e-09
6.2548661e-09
4.176925e-09
4.2181026e-09
3.994336e-09
2.7871525e-09
1.4378376e-06
3.4539786e-06
4.6094792e-07
2.9704503e-09
2.5247963e-09
0.2174057
0.6410354
1
1
1
0.27593954
5.1499828e-10
8.8608298e-11
7.8799171e-12
4.4590444e-13
1.8112809e-14
5.6542059e-16
1.4151708e-17
2.9395802e-19
5.2397196e-21
8.2775527e-23
1.1937839e-24
1.6122184e-26
1
1
1
1
1
1
1
1
1
1
1
1
1
1
1
1
1
1
1
1
1
1
1
0.96627939
0.87904892
0.73251537
0.5460526
0.39904039
0.23250911
0.03160362
3.9471408e-09
3.6297694e-09
3.6297694e-09
3.6297694e-09
3.6297694e-09
3.6297694e-09
4.3907852e-09
4.2348349e-09
5.0517061e-09
6.233229e-09
6.6244355e-09
8.1296654e-09
9.312561e-09
9.6674118e-09
8.8517139e-09
7.7277534e-09
4.9456308e-09
4.0480626e-09
1.9225196e-06
3.8203278e-06
4.1088215e-09
6.9309023e-05
4.8358661e-05
3.4158332e-09
2.986245e-09
2.5077526e-09
0.011183689
0.18602377
0.0087168234
0.12353238
0.42764063
0.25434219
0.015594235
8.7478095e-10
3.5407928e-10
8.6599925e-11
3.9499756e-12
8.2511703e-14
1.1006048e-15
1.237663e-17
1.4975657e-19
2.0641959e-21
2.9529006e-23
4.0958649e-25
5.4302939e-27
1
1
1
1
1
1
1
1
1
1
1
1
1
1
1
1
1
1
1
0.96786366
0.84218012
0.65725403
0.43963272
0.16471315
4.9073859e-09
3.8755177e-09
3.8755177e-09
3.8755177e-09
3.8755177e-09
3.8755178e-09
3.9740847e-09
3.7873706e-09
3.6432251e-09
5.3848229e-09
6.0265987e-09
6.7378607e-09
7.1250445e-09
7.6539255e-09
7.890549e-09
7.487083e-09
9.3975931e-09
1.0696523e-08
1.1932476e-08
1.1664465e-08
8.9037572e-09
7.5258802e-09
5.3169009e-09
4.0482304e-09
4.4023977e-06
1.3276859e-05
1.3370306e-05
1.1599981e-05
2.7301117e-06
0.00083802019
0.0021614939
0.00064985329
2.26637e-09
0.21860401
0.38628292
0.1368208
1.4540768e-09
1.0366658e-09
7.0020668e-10
9.8943956e-08
4.7882159e-09
2.4263603e-10
5.8416723e-12
8.2487135e-14
7.8912863e-16
6.1941349e-18
5.5357696e-20
6.8582288e-22
9.9223819e-24
1.4369371e-25
2.0184676e-27
1
1
1
1
1
1
1
1
1
1
1
1
1
1
1
1
0.93147152
0.74235448
0.47585233
0.17501726
4.9855417e-09
3.9406587e-09
3.9406587e-09
3.9406587e-09
4.2261226e-09
4.5978639e-09
5.113146e-09
5.1621961e-09
5.2470383e-09
4.913654e-09
4.7977044e-09
3.7668432e-09
1.3404588e-05
9.1909699e-06
6.3390075e-09
5.8075447e-09
6.3565903e-09
6.383146e-09
6.4347249e-09
5.1644578e-09
7.5334988e-09
8.4287546e-09
1.1058574e-08
1.0307607e-08
8.3418449e-09
7.6868676e-09
1.4713767e-07
2.0823942e-08
1.9415115e-09
1.9127655e-09
3.9198622e-07
1.9045451e-09
2.4396683e-09
0.0074417528
0.0074435021
0.002834367
2.422528e-09
0.023245978
0.61029942
0.62373835
0.13948291
8.9832672e-10
4.1991549e-10
1.491098e-09
7.5336704e-10
3.3676085e-11
6.9480732e-13
8.7560032e-15
8.6328473e-17
9.8064625e-19
1.5928891e-20
3.0268711e-22
5.733517e-24
1.0434354e-25
1.8203761e-27
1
1
1
1
1
1
1
1
1
1
1
1
1
0.93139552
0.73368922
0.42382478
0.06658278
4.9037561e-09
4.370986e-09
4.370986e-09
4.5717696e-09
4.7809087e-09
5.1032819e-09
6.9174313e-09
6.6183966e-09
1.2970855e-08
5.6188735e-09
5.6055279e-09
5.8776032e-09
4.0495386e-09
4.0454009e-09
3.0709093e-05
0.00013911852
0.00054805699
7.0202542e-05
4.7975634e-09
0.023276869
0.0026761234
4.4425152e-09
3.6728072e-09
3.3797051e-09
3.0285308e-08
3.6630316e-08
1.5134775e-08
8.9808722e-09
2.7785286e-08
8.1634442e-08
6.2075318e-09
3.0910797e-08
4.5673586e-09
1.7907475e-09
1.7682783e-09
0.0073463813
0.0071035961
0.0023396575
6.8641568e-05
2.7962534e-09
2.3018651e-09
0.18718361
0.51937913
0.30671757
6.9149015e-10
2.3015648e-10
2.2208846e-10
7.2366548e-11
2.7882874e-12
5.6597689e-14
1.0618405e-15
2.860327e-17
9.1271172e-19
2.6741451e-20
6.7918714e-22
1.5050014e-23
2.966188e-25
5.3154269e-27
1
1
1
1
1
1
1
1
1
1
1
0.87422109
0.55354956
0.10746045
4.2638588e-09
3.5094923e-09
3.5094928e-09
7.3863121e-09
8.7544262e-09
1.0779663e-08
5.3873641e-09
7.0349514e-09
7.8992777e-09
9.8991972e-09
1.055005e-08
1.0800795e-07
3.3766615e-09
2.3139931e-09
1.6529812e-09
1.6525269e-09
5.322627e-08
1.7686395e-06
2.4376693e-08
0.00030982362
0.0076878453
0.03509339
0.1392265
0.092138434
0.00071156789
4.3249531e-09
3.654375e-09
3.0681877e-09
2.7071495e-08
1.4538282e-08
1.3984793e-08
1.1727903e-08
2.1972023e-06
1.0044845e-05
3.45582e-06
2.2240915e-09
1.7682876e-09
9.0617553e-05
0.00080945516
1.8601106e-09
1.792785e-09
1.792784e-09
2.1935434e-09
2.240698e-09
2.3139479e-09
0.0019733303
0.017701115
0.0011131599
3.2485885e-10
7.8997451e-11
1.2362258e-11
8.8654178e-13
5.4281964e-14
2.7631373e-15
1.1274655e-16
3.7354903e-18
1.0282138e-19
2.4034441e-21
4.8728281e-23
8.7540134e-25
1.4243258e-26
1
1
1
1
1
1
1
1
1
0.84397433
0.43737155
5.1814497e-09
3.104877e-09
3.104877e-09
2.2471395e-08
2.7660741e-08
3.7519651e-08
3.2725343e-08
2.4434994e-08
1.0606621e-08
3.503189e-07
1.4406526e-07
1.3887961e-08
1.0629867e-08
1.0676518e-08
7.8101564e-07
1.2096596e-05
3.4059272e-06
1.4991594e-05
1.6445626e-09
1.6239987e-09
1.6246629e-09
0.0055782059
3.7808912e-05
0.0021277391
0.12415982
0.10035007
0.14196245
0.063503757
4.5841651e-09
4.0593633e-09
3.5928551e-09
3.0887418e-09
9.0704317e-08
1.2645663e-08
1.2178673e-08
1.3113391e-06
0.0002868809
2.6179363e-09
2.1859767e-09
1.7682857e-09
1.7973405e-09
1.8494146e-09
1.5499628e-09
1.2953857e-08
7.3206931e-09
2.7584255e-09
2.0409632e-09
1.9825378e-09
1.6989463e-09
1.9339671e-09
0.00046699725
1.3014301e-05
2.705773e-10
4.1290521e-11
3.9112999e-12
2.4768173e-13
1.140154e-14
4.0846712e-16
1.1868098e-17
2.8597669e-19
5.8128616e-21
1.0160875e-22
1.5625425e-24
2.166746e-26
1
1
1
1
1
1
1
0.88534578
0.48618109
7.4885021e-09
5.1907192e-09
5.2434975e-09
5.1913814e-09
4.2244266e-09
9.4540479e-08
6.9737849e-08
4.8520077e-08
4.4186586e-08
2.7262746e-08
5.5461354e-09
1.7416167e-06
2.0850873e-06
3.014155e-07
3.5670663e-07
4.6190167e-08
2.2085152e-09
1.4474943e-05
1.4870837e-05
9.0984151e-09
0.0042907688
0.0043252406
0.004070895
0.0090285307
0.0015580438
5.3436734e-09
4.8850632e-09
4.8850631e-09
0.025385447
0.011188441
0.00041012529
4.4287384e-09
3.9838366e-09
3.6187666e-09
3.4731533e-09
0.012449729
0.0061228135
0.00022292102
2.7599257e-09
0.0055612368
0.02584028
0.018945737
0.0023491099
2.1429448e-09
1.9380067e-09
7.3305742e-09
4.0627355e-09
1.6850441e-09
1.7058615e-09
1.6968394e-09
1.4568244e-09
1.6932297e-09
1.3387311e-09
3.1762589e-06
7.9889506e-08
2.8076438e-10
3.5952665e-11
1.2265515e-12
3.3208955e-14
8.120435e-16
1.7363814e-17
3.1945677e-19
5.1011253e-21
7.2095669e-23
9.2251913e-25
1.092228e-26
1
1
1
1
1
1
0.73172874
0.098327474
7.0049648e-09
6.2850601e-09
7.2096014e-09
7.3613277e-09
1.5198156e-05
1.555366e-05
1.5227787e-06
2.7535364e-08
2.6513707e-08
4.5191068e-08
2.7698605e-08
6.3226648e-09
6.480698e-09
1.3895497e-07
1.268705e-08
1.4621769e-06
3.0743192e-07
2.201659e-09
1.4591594e-09
1.5023338e-09
0.00075682455
0.0013318624
0.00094368293
0.0070745393
0.00070489578
0.00074661093
0.00025702325
5.4653237e-09
1.0122062e-08
4.5237222e-09
4.9635479e-09
5.2439307e-09
4.8180186e-09
0.00012487564
0.025833306
0.017790929
0.025079451
0.014615241
2.8800482e-09
2.7055437e-09
0.015395274
0.051340215
0.042887204
2.471532e-09
1.9772343e-09
1.8917682e-09
5.3813355e-09
2.0146718e-09
1.2797825e-09
1.4206603e-09
1.4070548e-09
1.2466573e-09
1.447994e-09
1.0635451e-09
1.1410549e-09
9.5339054e-09
3.6452556e-10
1.4550575e-11
4.9176468e-13
1.4303267e-14
3.4638233e-16
6.9400591e-18
1.1709769e-19
1.7085985e-21
2.2161202e-23
2.6207554e-25
2.886168e-27
1
1
1
1
0.97492082
0.46899073
1.0250219e-08
8.0391807e-09
8.4315305e-09
8.1979093e-09
0.001176903
0.0011510912
5.4520718e-09
7.1198473e-05
4.6439611e-08
0.0043414324
2.5323759e-08
2.4213128e-08
2.6706353e-08
1.7165444e-07
2.5687548e-07
1.2982146e-08
1.4316921e-06
4.0129116e-07
3.8743235e-09
3.0613323e-09
2.2752631e-09
1.6462148e-05
0.00014028689
2.8014172e-09
2.6879861e-09
2.6894656e-09
3.421631e-09
0.015696454
5.7584986e-09
4.9667633e-09
4.5335847e-09
4.0784556e-09
0.00022561434
0.0012363834
0.0069836737
0.02349371
0.040734393
0.040734393
0.0072638215
2.3591679e-09
2.2207973e-09
2.3680714e-07
5.5047722e-09
0.0035350855
0.017200311
0.016512091
2.3096177e-09
1.8142529e-09
3.248174e-09
1.2033912e-09
9.2534696e-10
1.0903012e-09
1.0988618e-09
1.0556306e-09
1.1856313e-09
8.0003173e-10
9.0480614e-10
1.2611819e-09
7.8848727e-11
3.7189433e-12
1.3810919e-13
4.0125381e-15
9.2365811e-17
1.7343707e-18
2.7469117e-20
3.7879815e-22
4.6757389e-24
5.2878379e-26
5.5798964e-28
1
1
1
0.95840742
0.2781407
1.4430221e-08
1.2759448e-08
0.00040538013
0.00023311778
0.00031432546
0.0014223919
7.6334356e-05
5.3316e-09
5.3239041e-09
0.0083853451
0.017504462
0.0072003117
1.8035759e-05
2.7516452e-08
1.5365098e-06
3.7514022e-06
5.1077297e-09
1.4226951e-07
1.9251704e-08
0.00021471034
0.00061854605
0.00062545208
9.5916475e-05
2.2468283e-09
2.1314849e-09
2.1314921e-09
7.715334e-05
0.022140495
0.031632424
0.017322653
0.0009439587
9.8119368e-05
1.8735608e-06
3.8920972e-09
0.02727627
0.037770664
0.038549768
0.01821343
0.017293213
0.00094882068
2.6236717e-09
2.2203424e-09
1.8755304e-09
0.001160131
0.0029891764
0.0052284562
0.0023132806
9.9670056e-05
2.0556453e-09
2.0645723e-09
7.6500191e-10
5.6195475e-10
7.0658452e-10
7.7325967e-10
8.1981706e-10
8.8975641e-10
5.448638e-10
5.5754009e-10
2.1971324e-10
1.721566e-11
8.7369087e-13
3.18155e-14
8.7304749e-16
1.8888024e-17
3.358628e-19
5.0887959e-21
6.7685862e-23
8.096449e-25
8.8852205e-27
9.0928477e-29
1
1
0.99223521
0.25316817
1.8056425e-08
1.6067941e-08
0.0014334469
0.0018932843
0.0018902933
0.00011212543
0.0011116652
8.1952604e-05
5.6420086e-09
7.1278365e-09
0.001324807
0.014297632
0.014508854
0.001158104
3.3180129e-05
8.5231942e-08
8.2885124e-08
0.00060481501
1.2829632e-08
0.0083865638
0.00095998838
0.00098125258
0.0010042638
0.00018352467
1.7453831e-09
9.5814617e-05
0.030996765
0.031934037
0.031934037
0.018201706
0.031632426
0.016968958
0.0010469896
4.0321006e-09
3.8832662e-09
3.9189677e-09
3.7838752e-09
0.0020909532
2.4799165e-08
2.4665581e-08
0.038332014
0.019758738
0.003473257
1.9473053e-09
0.01138219
0.013520837
0.0023692344
1.8559739e-09
8.4763487e-06
4.1874185e-07
6.1775674e-10
4.6295115e-10
2.6243118e-10
3.72842e-10
4.7158186e-10
5.5584589e-10
5.8336022e-10
3.1805926e-10
2.4484494e-10
4.9667953e-11
3.8173988e-12
1.8332851e-13
6.2222967e-15
1.601382e-16
3.295797e-18
5.6606222e-20
8.4027809e-22
1.1114771e-23
1.3495883e-25
1.5539926e-27
1.7589241e-29
1
1
0.32499689
1.9225652e-08
1.6665426e-08
0.00018510586
0.0020879654
7.233581e-09
7.2283645e-09
8.7721737e-09
1.0731121e-08
9.2171576e-09
9.9096733e-08
1.5722085e-08
1.2398537e-08
1.2265577e-08
1.2259384e-08
0.010992789
0.0096789332
8.5284533e-08
8.3935981e-08
7.3306168e-05
0.006938333
0.0099768765
0.0036762218
2.4630995e-09
1.5188905e-09
1.5196767e-09
1.5336671e-09
0.00031743898
0.0052265815
0.031571213
0.004789696
3.5702791e-09
0.0036267676
0.00018697938
0.025339201
0.002257241
0.020036854
0.0078539475
0.00017378814
3.7872712e-09
0.012249563
0.042357486
0.04272472
0.04071194
0.014280388
1.7944203e-09
1.4468789e-09
0.00096831256
1.7558304e-09
1.5065259e-09
1.747612e-09
8.3125461e-08
1.1864738e-09
2.6053234e-10
1.4641336e-10
2.463822e-10
2.5939361e-10
3.2395245e-10
3.2475685e-10
1.5441339e-10
8.0233897e-11
1.1380136e-11
7.7829197e-13
3.4217218e-14
1.0871056e-15
2.6866518e-17
5.4688629e-19
9.6454991e-21
1.5482432e-22
2.369492e-24
3.580781e-26
5.419728e-28
8.1759684e-30
1
0.64885644
0.025148635
0.00033819505
1.8156571e-08
0.0014149438
7.8106907e-09
7.8373018e-09
9.2295804e-09
9.1439696e-09
1.060161e-08
1.7476436e-08
4.6290955e-09
1.4580976e-09
0.011247568
0.00046001869
0.00055373156
1.6963633e-09
1.6648844e-09
2.4319842e-05
0.00051973382
5.8914591e-08
0.0001467124
5.1134376e-09
0.0090158722
0.0033929585
2.3041754e-09
1.1068096e-07
1.3961914e-05
1.0430955e-06
1.3013133e-08
2.1441415e-05
2.8177722e-09
7.0578479e-08
2.8055819e-09
0.00023091516
0.00027290764
0.050556675
0.050968069
0.038252176
4.0768746e-09
0.022576493
0.059447177
0.031505708
0.00058927801
2.5425386e-09
2.5428164e-09
5.552714e-06
1.4475261e-09
0.022586919
0.0027965816
1.943538e-09
1.6636064e-09
7.9499081e-10
5.6602153e-10
1.9042408e-10
2.7877393e-10
4.1138954e-10
1.4287727e-09
1.8693232e-10
1.5598752e-10
6.2867448e-11
2.1337841e-11
2.3950255e-12
1.4646875e-13
6.062493e-15
1.9058641e-16
4.953694e-18
1.1422545e-19
2.4584189e-21
5.0445899e-23
9.8265044e-25
1.7941767e-26
3.0477308e-28
4.8200022e-30
0.96532424
0.077484065
1.6406962e-08
1.3227722e-08
4.2411347e-07
7.7702949e-09
7.7703201e-09
1.0201842e-08
1.1042965e-08
8.9801369e-09
1.1739474e-08
3.722818e-08
1.7421355e-08
1.4578628e-09
0.011291019
0.0022233308
0.0021642771
2.8490342e-09
2.901952e-09
0.0011911151
0.0019205459
0.0018903998
7.9642845e-08
5.1185704e-09
0.0047252676
0.009002689
0.0027632722
3.6359437e-06
0.00011845572
0.00014714599
1.2186643e-05
5.1524184e-09
4.2487411e-07
7.0342317e-07
2.8236624e-09
0.0015429158
0.00038392327
0.017600693
0.030642984
3.8562539e-09
3.914289e-09
0.001511656
0.020400994
0.0057080536
0.00012142155
3.1914865e-09
1.9192212e-05
8.6029758e-05
1.9967513e-06
1.1003329e-09
0.031164864
3.2308627e-06
1.5965182e-09
1.2449288e-09
5.1102843e-10
6.6576741e-09
1.2107358e-10
3.1754991e-10
3.1016602e-08
1.185846e-09
1.1860249e-10
2.5622954e-11
5.3413438e-12
5.0399435e-13
2.9330697e-14
1.2638669e-15
4.5131119e-17
1.4258704e-18
4.07342e-20
1.0466971e-21
2.395799e-23
4.873507e-25
8.8645935e-27
1.4591058e-28
2.2055815e-30
0.315608
1.1285162e-08
1.5297689e-08
1.3233505e-08
1.6857905e-08
3.8355583e-07
0.00046156989
0.0039890461
0.0033991143
7.2529287e-09
2.5983001e-08
2.1559082e-07
2.1468379e-07
1.4722711e-09
0.000231393
2.5297407e-09
2.5900317e-09
0.0011207547
2.3285544e-09
1.5320012e-09
0.0008047128
0.0016095311
2.1195376e-08
5.2958084e-07
3.5048101e-09
0.0026874197
0.0058783208
0.00074277051
1.9147386e-08
8.379236e-06
2.5630468e-06
4.6241501e-09
5.1141923e-09
5.0566918e-08
2.8065561e-09
0.0030903035
0.0013469795
5.4314674e-09
4.9952362e-09
2.0627855e-05
0.00024151131
4.5880172e-09
4.2702477e-09
3.9153724e-09
4.2122939e-09
0.0033728055
0.0025060414
1.6642939e-09
1.3870232e-09
1.1076169e-09
0.0064701738
0.02020642
1.1961559e-09
1.0570937e-09
2.6041758e-10
8.2762697e-06
0.080277164
0.0026281657
7.4308651e-10
5.0606872e-10
8.8839688e-11
1.2482838e-11
1.6308634e-12
1.3672703e-13
8.3015282e-15
4.0688807e-16
1.6898e-17
6.0026305e-19
1.8199197e-20
4.7171559e-22
1.0542863e-23
2.0600637e-25
3.5787151e-27
5.6288433e-29
8.1665748e-31
0.1020438
7.1721231e-09
0.0006366239
1.1627529e-08
9.2935201e-09
1.180811e-08
0.0014988695
0.0049733072
0.0049707982
7.2527307e-09
1.0314648e-08
2.2084705e-09
1.4776282e-09
1.4724628e-09
2.4520036e-09
2.4525096e-09
1.7162168e-05
0.0015604357
0.00012954624
2.9274051e-09
3.5333244e-09
4.4477535e-09
0.00022747259
4.5939769e-07
4.3099377e-09
3.4935024e-09
3.7113521e-09
0.00074080843
7.8073886e-05
4.1375526e-09
3.6296517e-09
0.0030129994
0.0070592588
3.3713282e-09
2.8119471e-09
0.0042627661
0.003350953
0.00015391892
4.5142526e-09
4.0141799e-09
0.002372147
0.0012389527
4.2611419e-09
3.6056971e-09
0.004997838
0.0049661044
0.00016070438
1.266734e-09
0.00012108127
1.0945824e-05
1.0165459e-09
0.028550516
0.028491633
0.0018578273
6.1768279e-12
6.1621795e-12
0.38149938
0.3907233
0.034961179
2.7774278e-10
5.6213036e-11
6.7068462e-12
6.7859037e-13
5.3445807e-14
3.3597588e-15
1.7294005e-16
7.3449375e-18
2.5846072e-19
7.6016606e-21
1.8948178e-22
4.0726854e-24
7.6930684e-26
1.3023071e-27
2.0144582e-29
2.9014271e-31
1.5019318e-09
1.5177326e-09
0.00090160399
0.00010887874
2.9436091e-09
4.3154006e-06
0.00074865312
0.0025911894
0.0021416432
3.1676105e-06
1.0399412e-08
1.2254576e-07
1.9590772e-09
0.00029091801
3.128287e-09
3.3553639e-09
4.4481119e-09
0.00047820438
0.0010199478
2.8859281e-08
0.0016297786
3.1094783e-09
3.5617241e-09
4.1037134e-09
4.6763749e-09
4.1424652e-09
0.0023422244
1.2222238e-06
4.3402424e-05
4.7371762e-06
0.0057023673
0.0013504661
0.021356684
0.0091479935
8.0796e-07
0.0072407008
0.0038355788
4.5896076e-09
4.0489774e-09
4.2410337e-09
0.0019337805
0.00079635891
9.16151e-07
0.0027560201
0.030718391
0.0014310529
1.0756649e-09
8.3513322e-10
0.0013249015
1.2513502e-09
9.3656278e-10
0.01712016
0.019585882
0.00168468
6.7371395e-12
0.22031593
0.5750254
0.5750254
0.10446342
2.8070536e-10
3.4418159e-11
3.5392444e-12
3.19358e-13
2.4059726e-14
1.4871125e-15
7.5148087e-17
3.1149348e-18
1.0697984e-19
3.0902095e-21
7.6402113e-23
1.6463648e-24
3.1472099e-26
5.4271725e-28
8.576538e-30
1.2607195e-31
3.9894143e-09
3.582309e-08
2.0681171e-08
0.00058234626
2.2026023e-09
3.8285282e-08
7.7185626e-09
7.7185592e-09
9.8263738e-09
4.1549436e-06
2.224067e-08
4.5210299e-07
2.8957293e-08
0.00032427846
0.00022916996
0.00043829523
0.0023164295
1.7055967e-08
1.7055967e-08
0.014457868
0.0089961336
0.0047529475
0.0014874858
0.00031626734
0.00045040733
0.0020589858
0.031792759
0.0037563629
0.00021797119
6.6915244e-09
0.01788427
0.00084927246
0.012541571
0.022145294
0.0031818032
0.0054454406
0.013005888
0.0033295809
4.0942553e-09
0.00030159709
1.6842655e-09
0.025550262
4.4833889e-09
0.034330443
0.00018684961
1.5323347e-09
0.00013013794
1.0251525e-09
5.2431495e-05
0.042722506
0.0022134557
2.2653817e-09
2.0060722e-09
5.1627721e-05
8.9184054e-05
0.019838982
0.10622583
0.12405234
0.031908112
2.0485806e-06
1.9435466e-11
2.6800092e-12
2.2794031e-13
1.6444884e-14
9.9339486e-16
4.9651481e-17
2.0546303e-18
7.0932668e-20
2.0656186e-21
5.1381951e-23
1.1066049e-24
2.0930622e-26
3.5289298e-28
5.3858938e-30
7.5563188e-32
3.1808981e-09
5.9103093e-08
1.9277535e-08
1.3218883e-08
1.2601579e-08
1.3070147e-08
9.1861365e-09
1.7836377e-08
1.3554039e-07
7.7410282e-07
3.7031773e-09
2.3815614e-09
0.0001416318
4.2761034e-09
4.2750631e-09
0.0054502758
0.0057101083
1.7134688e-08
1.7055967e-08
0.018604471
0.0027235277
2.6881121e-06
0.012329278
0.0085558255
0.0020615618
0.031792758
0.031792759
0.0097311978
7.3483169e-09
6.6545163e-09
0.010237476
1.3437651e-05
1.0290604e-05
0.0072965586
0.010849157
0.00084096466
0.0125097
0.014208884
0.014087885
0.0062705396
2.0161829e-09
0.00040393671
0.040404098
0.047468458
0.0039210778
1.6197971e-09
0.00039047343
1.7572594e-05
6.5029648e-10
0.07771899
0.075579198
0.0040925375
1.7153313e-09
5.4698088e-05
0.00030726749
1.1581211e-09
1.1366884e-09
9.4231738e-10
7.4934764e-10
1.7395139e-05
1.1218083e-07
1.5205889e-10
3.0264235e-12
8.2514637e-14
3.3021792e-15
1.1975714e-16
3.6681717e-18
9.7019957e-20
2.2620481e-21
4.6956234e-23
8.7112281e-25
1.4498339e-26
2.180306e-28
2.9951545e-30
3.8105897e-32
3.5743637e-09
9.2957162e-08
1.23305e-07
9.7104056e-09
1.1652914e-08
1.378148e-08
3.3664209e-06
2.2519534e-06
5.6314031e-09
6.622191e-09
3.8513847e-05
2.3280006e-09
0.00014187212
5.4767434e-09
4.073141e-09
0.0018010387
0.00039146581
3.4450411e-05
1.7058768e-08
0.011726403
0.0043918576
2.8660909e-09
0.0034528374
1.1442668e-09
1.1087684e-09
0.013149829
0.0048336414
0.011645483
8.1486322e-05
2.6673278e-06
6.5023189e-09
0.011683281
0.0006975609
1.2639535e-09
1.2563874e-09
0.00053629668
0.0052736392
0.014208885
0.0077728041
1.2483076e-09
1.0778797e-06
1.0142452e-09
0.045730992
0.025682839
0.0014538024
1.2751399e-09
1.0078112e-09
1.3161274e-05
2.426931e-06
6.7378956e-10
0.17045734
0.021348062
1.3483822e-09
3.5210088e-06
1.1353806e-07
1.3871532e-09
1.041941e-09
8.2899306e-10
5.5469265e-10
3.2836651e-06
1.0746168e-07
1.5621381e-10
8.41481e-12
2.9239087e-13
8.7924456e-15
2.4474599e-16
6.1399778e-18
1.3503459e-19
2.5902055e-21
4.3732897e-23
6.5954965e-25
9.0281588e-27
1.1396561e-28
1.348008e-30
1.5196628e-32
6.966893e-10
1.1818375e-07
1.2809736e-06
1.071455e-08
8.8201543e-05
0.0001400094
8.4992093e-05
4.6253526e-06
8.4550193e-05
2.7171524e-05
0.00011661077
2.2880071e-09
4.2994032e-05
2.8444676e-06
4.6801344e-09
4.2562449e-09
3.4334247e-09
0.00036279985
1.7733753e-08
1.7734235e-08
0.0033658253
2.0351989e-09
1.2348396e-09
1.2027646e-09
1.1234076e-09
6.4516768e-10
6.3287165e-10
0.0093055366
0.003604382
0.013839201
0.00059014348
0.022168387
0.0015924815
1.6779092e-09
1.6828723e-09
2.2483301e-05
1.0742988e-08
0.0013290162
1.3723095e-09
1.0642987e-09
1.3516456e-09
1.0150754e-09
0.0034807761
6.9435494e-10
3.6337709e-10
4.3140173e-06
8.5073775e-07
6.9622771e-10
6.7693839e-10
6.7762555e-10
0.048760874
0.14537346
9.2855781e-10
8.4195984e-10
8.8735325e-10
1.0367248e-09
9.468967e-10
7.0202466e-10
5.531623e-10
7.1532646e-10
1.5364549e-08
2.5281946e-10
6.4912063e-12
1.9656825e-13
5.9005965e-15
1.6055716e-16
3.7774957e-18
7.5889359e-20
1.3113695e-21
1.9815894e-23
2.6731126e-25
3.2928036e-27
3.7937474e-29
4.1938048e-31
4.5743371e-33
7.7246537e-10
1.7105559e-08
5.2495297e-07
0.00019175843
0.00022342155
0.00022233332
7.0647313e-08
7.1489344e-08
3.4761352e-05
0.00019670891
1.4687407e-09
2.2498709e-09
3.3026518e-09
7.9413392e-05
1.4898653e-05
4.2275994e-09
2.9583825e-09
0.00039474018
0.00021065104
1.825783e-08
0.018133893
0.00062620408
2.8631787e-05
1.6794155e-09
0.00036718011
0.00019439367
7.9374228e-10
0.0024122145
0.014015293
0.014018714
2.1882836e-09
0.00035949308
1.0775242e-09
1.3999413e-09
0.010785458
0.00017820473
1.9480681e-06
1.2521253e-09
9.7168362e-10
1.3758676e-09
5.027319e-06
4.2133897e-07
6.0139855e-10
5.653148e-10
4.9348429e-07
3.9576397e-06
0.00012756612
9.1455588e-10
1.0058421e-09
9.6653184e-05
2.4523706e-09
0.1347252
0.13241397
0.037193818
1.1307558e-09
1.0411251e-09
8.4494167e-10
5.8528782e-10
4.1929438e-10
8.1976972e-10
5.2272291e-10
6.18066e-11
2.2876674e-12
7.883332e-14
2.4115563e-15
6.2696923e-17
1.369573e-18
2.5317141e-20
4.0273313e-22
5.6388234e-24
7.1415621e-26
8.4504347e-28
9.695725e-30
1.1208055e-31
1.3463584e-33
2.411702e-10
1.5380706e-08
1.800205e-07
1.0212673e-05
5.0966248e-05
3.2746631e-09
6.7273438e-06
2.2933287e-05
2.1523814e-08
0.00013039141
4.6034821e-07
1.4026881e-09
8.4400439e-06
7.9034931e-05
3.5421254e-05
4.1524496e-09
3.0008801e-05
3.1563788e-05
0.010868193
0.00071086434
0.0054742718
0.00033157867
0.0001393491
0.0011225526
0.019464062
0.014217811
9.2464654e-10
0.01351538
1.8577221e-09
1.5791389e-09
0.015765852
0.0094827176
1.5872967e-09
0.0031551019
0.035306349
0.0089547645
9.9776147e-09
1.2955418e-05
9.8682671e-10
0.00037715325
0.00030400613
8.5238847e-06
6.5146522e-10
4.3659508e-10
0.0001298188
8.230155e-09
8.2309427e-09
0.0031202045
0.011709657
0.0013858679
2.3399866e-09
2.0073187e-09
0.05780412
0.032685026
0.00050068815
8.4909151e-10
6.9781923e-10
4.5129891e-10
2.7158316e-10
6.0014119e-10
2.5166714e-10
1.5607434e-11
6.7812493e-13
2.420609e-14
7.1104792e-16
1.7236747e-17
3.4880881e-19
6.0035098e-21
9.0154106e-23
1.2218405e-24
1.5615294e-26
1.9799519e-28
2.5998483e-30
3.5883436e-32
5.1280982e-34
2.7715032e-10
5.8467793e-09
9.1019825e-08
1.6417555e-09
2.6849475e-05
2.1916292e-07
1.2002744e-05
0.00080579996
0.00030711152
2.2413352e-09
1.146128e-09
1.9389779e-09
9.4729731e-11
9.0121847e-11
0.00072674434
0.0036186728
0.0018501466
0.0040504862
0.010764262
0.00070795204
2.1759481e-06
2.1757484e-06
2.1761554e-06
0.018802531
0.019252671
4.9184439e-10
2.6960972e-10
0.017475854
0.001439816
4.3390729e-05
0.0242959
0.0054811339
8.813098e-10
0.025817504
0.034792952
0.017821724
9.9388266e-09
5.094184e-06
0.00024314766
0.00049541715
1.1628116e-09
1.9713819e-05
2.5456237e-05
4.5813448e-06
4.7396314e-06
0.20984123
0.2364424
0.025291393
0.014478291
0.00031648479
1.9266352e-07
1.6212529e-09
1.4106942e-09
1.6259311e-09
2.0029796e-05
2.1972284e-07
4.5150269e-10
3.0571022e-10
1.5054825e-10
2.7823921e-10
5.8414553e-11
3.8559198e-12
1.719259e-13
5.8884773e-15
1.6166676e-16
3.64888e-18
6.9416379e-20
1.1493676e-21
1.7323617e-23
2.5208942e-25
3.7524995e-27
5.8623898e-29
9.4376393e-31
1.509262e-32
2.331968e-34
9.9420901e-12
1.4296891e-09
2.9569032e-08
2.8459376e-11
0.00019929994
1.641185e-07
1.5938991e-07
0.00026437473
2.3019566e-06
1.2381592e-09