/*--------------------------------*- C++ -*----------------------------------*\
| =========                 |                                                 |
| \\      /  F ield         | OpenFOAM: The Open Source CFD Toolbox           |
|  \\    /   O peration     | Version:  2.3.0                                 |
|   \\  /    A nd           | Web:      www.OpenFOAM.org                      |
|    \\/     M anipulation  |                                                 |
\*---------------------------------------------------------------------------*/
FoamFile
{
    version     2.0;
    format      ascii;
    class       volScalarField;
    location    "6e-06";
    object      nuSgs;
}
// * * * * * * * * * * * * * * * * * * * * * * * * * * * * * * * * * * * * * //

dimensions      [0 2 -1 0 0 0 0];

internalField   nonuniform List<scalar> 
7500
(
4.1442672e-10
4.1991509e-10
4.2814759e-10
4.3340959e-10
4.3895738e-10
4.442304e-10
4.5082651e-10
4.5737003e-10
4.6574299e-10
4.7520704e-10
4.8121955e-10
4.8923377e-10
4.9832413e-10
5.0616194e-10
5.1446146e-10
5.2145705e-10
5.2824001e-10
5.3473656e-10
5.4363123e-10
5.5546156e-10
5.7101879e-10
5.8236428e-10
5.9797548e-10
6.0852845e-10
6.263858e-10
6.4150634e-10
6.5128745e-10
6.66923e-10
6.7583758e-10
6.8873474e-10
7.0584053e-10
7.3151797e-10
7.5331247e-10
7.7217392e-10
7.9357555e-10
8.3348445e-10
8.7493761e-10
9.5095607e-10
1.0096436e-09
1.0771973e-09
1.1419693e-09
1.2576641e-09
1.3472074e-09
1.4457173e-09
1.5999704e-09
1.9352802e-09
1.9860324e-09
2.0676952e-09
2.3176713e-09
2.9348536e-09
3.8920634e-09
4.305057e-09
4.9389444e-09
6.5902562e-09
1.1135043e-08
2.3990713e-08
5.7110616e-08
1.4198426e-07
3.7279131e-07
6.3918445e-07
5.4505929e-07
2.8374708e-07
1.3471062e-07
5.9144191e-08
2.4012663e-08
9.5932177e-09
4.1196475e-09
1.9583129e-09
1.0004061e-09
5.3090438e-10
2.8440037e-10
1.4884256e-10
7.1877504e-11
3.0700316e-11
8.1254871e-12
4.5556152e-10
4.6143402e-10
4.6787513e-10
4.7394561e-10
4.8072615e-10
4.8716965e-10
4.9482929e-10
5.0194652e-10
5.0907028e-10
5.1857303e-10
5.2631819e-10
5.3449104e-10
5.4160242e-10
5.5139711e-10
5.6319918e-10
5.7201446e-10
5.8343073e-10
5.944754e-10
6.101216e-10
6.3141906e-10
6.4791216e-10
6.612754e-10
6.8130503e-10
6.9706801e-10
7.2258451e-10
7.4196431e-10
7.5775696e-10
7.8583753e-10
8.0401488e-10
8.3641134e-10
8.6350475e-10
9.0548223e-10
9.5549339e-10
9.8914161e-10
1.0161258e-09
1.0720688e-09
1.1335478e-09
1.2331512e-09
1.302624e-09
1.3841623e-09
1.4430451e-09
1.5504311e-09
1.7822267e-09
2.0149071e-09
2.1771776e-09
2.5301958e-09
2.7811152e-09
2.9382672e-09
3.2670576e-09
3.9840584e-09
5.5402943e-09
6.4023903e-09
6.7558852e-09
7.6285022e-09
1.0125243e-08
1.7526486e-08
3.8398478e-08
9.3893721e-08
2.3573603e-07
5.2361118e-07
5.7613145e-07
4.236289e-07
2.0232596e-07
8.3503933e-08
3.0865228e-08
1.11819e-08
4.5103295e-09
2.1030403e-09
1.0730545e-09
5.7075638e-10
3.0658044e-10
1.6095638e-10
7.8016485e-11
3.3747014e-11
9.0874934e-12
5.0114764e-10
5.0807602e-10
5.1481443e-10
5.2138849e-10
5.2849618e-10
5.3506351e-10
5.4360907e-10
5.5144656e-10
5.5906231e-10
5.6946482e-10
5.7938925e-10
5.9065994e-10
6.0053172e-10
6.1637909e-10
6.389857e-10
6.5774657e-10
6.8509645e-10
7.1395401e-10
7.641331e-10
8.1521889e-10
8.5089057e-10
8.7539439e-10
9.097123e-10
9.427394e-10
9.9485101e-10
1.0296819e-09
1.0638772e-09
1.1202464e-09
1.1536681e-09
1.2117001e-09
1.2696894e-09
1.3670295e-09
1.492065e-09
1.5609242e-09
1.6286335e-09
1.7500928e-09
1.9040506e-09
2.107341e-09
2.2458362e-09
2.4360167e-09
2.5497605e-09
2.8353159e-09
3.4565159e-09
3.8860092e-09
4.177009e-09
4.5886002e-09
5.3995714e-09
5.8622206e-09
6.5593461e-09
8.0140514e-09
1.1098789e-08
1.2824512e-08
1.3199743e-08
1.350876e-08
1.4680563e-08
1.9294391e-08
3.3497686e-08
6.8671673e-08
1.461206e-07
3.0613324e-07
4.1708092e-07
3.9885977e-07
2.2869222e-07
9.7627399e-08
3.6548042e-08
1.3325654e-08
5.401669e-09
2.5308592e-09
1.2958029e-09
6.9110314e-10
3.7217165e-10
1.9596405e-10
9.5416231e-11
4.1703287e-11
1.1432326e-11
5.5128566e-10
5.5859782e-10
5.6802227e-10
5.7560894e-10
5.8432463e-10
5.9239836e-10
6.0384587e-10
6.1738084e-10
6.2589205e-10
6.3900539e-10
6.5322066e-10
6.6938397e-10
6.8415406e-10
7.1081592e-10
7.4794609e-10
8.0674878e-10
8.9175809e-10
9.5911549e-10
1.052448e-09
1.1536437e-09
1.2134962e-09
1.2534674e-09
1.3024289e-09
1.3632195e-09
1.4635022e-09
1.536093e-09
1.5970339e-09
1.7130479e-09
1.7976801e-09
1.9556913e-09
2.0672821e-09
2.2393266e-09
2.4835613e-09
2.638627e-09
2.7986412e-09
3.1442059e-09
3.556873e-09
3.9866904e-09
4.3146715e-09
4.5852123e-09
4.9667706e-09
5.8857798e-09
6.9917042e-09
8.2425595e-09
9.1670765e-09
9.8351857e-09
1.0632957e-08
1.2190859e-08
1.4075394e-08
1.7729737e-08
2.4169273e-08
2.7889481e-08
2.8164766e-08
2.7746169e-08
2.8108201e-08
3.1023004e-08
4.3543027e-08
7.8665385e-08
1.5487507e-07
2.8525652e-07
3.6376102e-07
3.7183938e-07
2.61725e-07
1.1378442e-07
4.2701443e-08
1.5659733e-08
6.3983034e-09
3.0108483e-09
1.5449584e-09
8.2565247e-10
4.4571278e-10
2.354993e-10
1.1537023e-10
5.1222019e-11
1.4428369e-11
5.9796249e-10
6.0724209e-10
6.204885e-10
6.284249e-10
6.3767326e-10
6.4779117e-10
6.6167702e-10
6.8187131e-10
6.9576506e-10
7.151096e-10
7.3784553e-10
7.8018532e-10
8.1942326e-10
8.6090695e-10
9.2430226e-10
1.0412461e-09
1.1970345e-09
1.2997448e-09
1.4088747e-09
1.5648517e-09
1.6751687e-09
1.7473186e-09
1.8293443e-09
1.9446793e-09
2.1649078e-09
2.3076654e-09
2.4519953e-09
2.6704067e-09
2.8873109e-09
3.3641849e-09
3.6969595e-09
3.9340981e-09
4.360343e-09
4.7117258e-09
5.2620702e-09
6.4828451e-09
7.4730384e-09
8.3971413e-09
9.0966216e-09
9.8880935e-09
1.0981962e-08
1.3598123e-08
1.6605338e-08
1.7803596e-08
1.9247426e-08
2.1211921e-08
2.275659e-08
2.5604566e-08
3.2381525e-08
4.1122444e-08
5.2033063e-08
5.887207e-08
5.9343924e-08
5.6596765e-08
5.5571275e-08
5.7338591e-08
6.9016688e-08
1.1003479e-07
2.0775179e-07
3.4146328e-07
4.1004553e-07
4.1609329e-07
2.9547082e-07
1.2877868e-07
4.868709e-08
1.8166458e-08
7.5525531e-09
3.5840445e-09
1.8459878e-09
9.8957e-10
5.3608148e-10
2.8460697e-10
1.40585e-10
6.3684356e-11
1.8557812e-11
6.320901e-10
6.4343379e-10
6.616942e-10
6.7342638e-10
6.8355567e-10
6.9941004e-10
7.1817949e-10
7.5109323e-10
7.7191053e-10
8.0412103e-10
8.4832307e-10
8.8698517e-10
9.3463453e-10
9.9960599e-10
1.1630492e-09
1.3701007e-09
1.5184004e-09
1.6214463e-09
1.7728364e-09
2.0921481e-09
2.2642117e-09
2.4069319e-09
2.5774525e-09
2.9021475e-09
3.4049431e-09
3.6932411e-09
4.1577963e-09
4.5881572e-09
5.301798e-09
6.8887169e-09
7.6068877e-09
8.1301441e-09
8.9230931e-09
9.8928483e-09
1.183892e-08
1.5764175e-08
1.8092302e-08
2.0009896e-08
2.1349901e-08
2.3107825e-08
2.5887518e-08
3.2865754e-08
3.9562391e-08
4.2053734e-08
4.4044053e-08
4.6968077e-08
5.0519698e-08
5.6787715e-08
7.3915215e-08
9.2018833e-08
1.0751277e-07
1.1654065e-07
1.1921109e-07
1.1310461e-07
1.0400888e-07
1.0439036e-07
1.1444602e-07
1.6446452e-07
3.0467001e-07
4.9486253e-07
5.952992e-07
5.7886599e-07
3.4408158e-07
1.461736e-07
5.5495129e-08
2.1071444e-08
8.9095489e-09
4.2640098e-09
2.206607e-09
1.1881936e-09
6.4701328e-10
3.4584068e-10
1.7272653e-10
8.022482e-11
2.4326281e-11
6.5671018e-10
6.7001309e-10
6.8458907e-10
6.982528e-10
7.1449984e-10
7.3498285e-10
7.8604889e-10
8.361752e-10
8.6939499e-10
9.4201978e-10
1.0364362e-09
1.1221848e-09
1.1970694e-09
1.2863116e-09
1.4879495e-09
1.7468948e-09
1.9940286e-09
2.1850511e-09
2.471742e-09
3.1186698e-09
3.5096039e-09
3.9360524e-09
4.564213e-09
5.7930077e-09
6.9857717e-09
7.80962e-09
9.2228827e-09
1.0520906e-08
1.2609595e-08
1.7114217e-08
1.8923829e-08
2.0211227e-08
2.2062431e-08
2.4851823e-08
3.1096631e-08
4.1040804e-08
4.6008645e-08
4.9284903e-08
5.2321407e-08
5.7000296e-08
6.3296598e-08
7.8070737e-08
9.0348857e-08
9.4255532e-08
9.7381037e-08
1.0183564e-07
1.0932577e-07
1.233824e-07
1.5529848e-07
1.9251775e-07
2.1199302e-07
2.2159502e-07
2.2345899e-07
2.1375211e-07
1.871353e-07
1.802284e-07
1.8932718e-07
2.4909736e-07
4.9275298e-07
7.0981767e-07
7.5258378e-07
6.3846742e-07
3.4228494e-07
1.4973676e-07
5.9026854e-08
2.3342041e-08
1.0133934e-08
4.8982948e-09
2.5474225e-09
1.3784109e-09
7.54931e-10
4.0664618e-10
2.0567783e-10
9.8263172e-11
3.1109753e-11
6.763321e-10
6.9874229e-10
7.1435557e-10
7.3681062e-10
7.5960617e-10
7.9701477e-10
9.2790629e-10
9.8248245e-10
1.0763545e-09
1.1584313e-09
1.3396562e-09
1.4758494e-09
1.6014314e-09
1.795699e-09
2.1968255e-09
2.5991687e-09
3.128786e-09
3.7674691e-09
4.6687672e-09
6.541543e-09
7.6911553e-09
9.1225864e-09
1.1273706e-08
1.54292e-08
1.8395034e-08
2.0636949e-08
2.4912121e-08
2.8390466e-08
3.3747853e-08
4.4872938e-08
4.9532953e-08
5.2507571e-08
5.6856661e-08
6.3892009e-08
8.0861078e-08
1.0138017e-07
1.1039114e-07
1.1559529e-07
1.2198022e-07
1.3247789e-07
1.4473735e-07
1.7115029e-07
1.9058987e-07
1.9647699e-07
2.0062676e-07
2.057715e-07
2.1542743e-07
2.4230686e-07
2.9914745e-07
3.5402018e-07
3.872181e-07
3.9773812e-07
3.9829604e-07
3.7881384e-07
3.2673978e-07
2.9768666e-07
2.9652072e-07
3.663815e-07
6.0778167e-07
1.1231672e-06
1.1152866e-06
7.3832784e-07
3.7435938e-07
1.6229764e-07
6.4419913e-08
2.586927e-08
1.1317803e-08
5.4879716e-09
2.8656016e-09
1.5588028e-09
8.5925647e-10
4.6686284e-10
2.3949221e-10
1.1798784e-10
3.9058753e-11
6.8757486e-10
7.1729068e-10
7.7748887e-10
8.2765603e-10
9.5060183e-10
9.6943015e-10
1.0356874e-09
1.1309502e-09
1.2862577e-09
1.5321444e-09
1.9567965e-09
2.1671653e-09
2.5198492e-09
3.1124786e-09
4.2632344e-09
5.3410212e-09
7.1255094e-09
9.1864233e-09
1.191423e-08
1.733887e-08
2.0809049e-08
2.4817305e-08
3.0990889e-08
4.2810859e-08
4.932927e-08
5.4870375e-08
6.6584251e-08
7.4768194e-08
8.668325e-08
1.1109316e-07
1.2134528e-07
1.2772453e-07
1.3744363e-07
1.5345782e-07
1.9070744e-07
2.2661582e-07
2.4054408e-07
2.484342e-07
2.5969973e-07
2.7982514e-07
2.9764767e-07
3.3546097e-07
3.6108895e-07
3.6611111e-07
3.7077633e-07
3.7697635e-07
3.9067146e-07
4.3243633e-07
5.3245376e-07
6.2594845e-07
6.7349993e-07
6.9508466e-07
6.8864606e-07
6.3733373e-07
5.672119e-07
4.9917661e-07
4.5953309e-07
4.7013353e-07
8.5897092e-07
1.4568645e-06
1.4924102e-06
9.0448994e-07
4.1800781e-07
1.7753908e-07
7.1520903e-08
2.8906499e-08
1.2512425e-08
6.0366575e-09
3.1600524e-09
1.7286939e-09
9.5972294e-10
5.264465e-10
2.7425062e-10
1.395735e-10
4.8308347e-11
7.2104101e-10
8.6005516e-10
9.4902587e-10
1.0108931e-09
1.176956e-09
1.2570102e-09
1.4151274e-09
1.6520079e-09
1.8707302e-09
2.3664086e-09
3.2528866e-09
4.1402509e-09
5.4307369e-09
7.3461142e-09
1.0490702e-08
1.3522441e-08
1.9019959e-08
2.5204927e-08
3.2304452e-08
4.618627e-08
5.5890256e-08
6.5535674e-08
8.0444813e-08
1.0918953e-07
1.2211903e-07
1.341049e-07
1.6119993e-07
1.7855346e-07
2.0187238e-07
2.4831791e-07
2.6868168e-07
2.811662e-07
3.0250396e-07
3.339253e-07
3.9799624e-07
4.5373014e-07
4.7519714e-07
4.8501219e-07
5.0069738e-07
5.312258e-07
5.5012432e-07
5.9254312e-07
6.1887461e-07
6.206014e-07
6.2606477e-07
6.3427361e-07
6.5311045e-07
7.1230941e-07
8.5725956e-07
1.13574e-06
1.2520712e-06
1.2969283e-06
1.2580449e-06
1.1131673e-06
9.9773853e-07
8.8041835e-07
7.5760423e-07
6.7744643e-07
8.0218018e-07
1.8695057e-06
2.4340365e-06
1.5496708e-06
6.5329101e-07
2.6374299e-07
9.9797753e-08
3.6554697e-08
1.4325368e-08
6.593043e-09
3.4321454e-09
1.8876311e-09
1.0561083e-09
5.853445e-10
3.1000445e-10
1.6315465e-10
5.8966367e-11
7.7971816e-10
1.1260651e-09
1.1900972e-09
1.277306e-09
1.4687925e-09
1.7704071e-09
2.1353268e-09
2.886418e-09
3.6025013e-09
4.8432916e-09
6.9683208e-09
1.005677e-08
1.4022447e-08
1.9707055e-08
2.818272e-08
3.6001767e-08
5.0810103e-08
6.8207277e-08
8.3893601e-08
1.1410593e-07
1.3894104e-07
1.5853673e-07
1.881487e-07
2.4894969e-07
2.7436857e-07
2.9683168e-07
3.4919602e-07
3.8108948e-07
4.2386693e-07
5.0488717e-07
5.3890111e-07
5.6153641e-07
6.0763444e-07
6.5835719e-07
7.4661086e-07
8.3824996e-07
8.6655622e-07
8.7161078e-07
8.89276e-07
9.2396409e-07
9.3724987e-07
9.7166656e-07
1.0039167e-06
1.0023771e-06
1.0054663e-06
1.0207714e-06
1.0559123e-06
1.1546222e-06
1.3840239e-06
2.1336978e-06
2.5304777e-06
2.6994236e-06
2.5350859e-06
2.1530535e-06
1.8556711e-06
1.6197099e-06
1.3347586e-06
1.0320974e-06
9.8404949e-07
1.4741762e-06
3.0455421e-06
3.3642941e-06
1.8047328e-06
6.1183803e-07
1.9023982e-07
5.5592155e-08
1.7395765e-08
7.1739809e-09
3.6801643e-09
2.0351381e-09
1.1482376e-09
6.4350683e-10
3.4678275e-10
1.8882861e-10
7.1113089e-11
7.371281e-10
9.6939917e-10
1.3836554e-09
1.5579965e-09
1.9364242e-09
2.5838493e-09
3.6224078e-09
5.5602454e-09
7.9426652e-09
1.1691942e-08
1.8061261e-08
2.6553631e-08
3.7051828e-08
5.2145366e-08
7.3041797e-08
9.0770166e-08
1.2504144e-07
1.6427085e-07
1.9671626e-07
2.5503184e-07
3.0975663e-07
3.4454379e-07
3.9545292e-07
5.0985704e-07
5.5822572e-07
5.9789226e-07
6.8784319e-07
7.3835815e-07
8.1688519e-07
9.5076884e-07
1.003462e-06
1.0393688e-06
1.1163074e-06
1.2313569e-06
1.3485659e-06
1.4803667e-06
1.5134912e-06
1.4825938e-06
1.5018024e-06
1.5357529e-06
1.5285194e-06
1.5601617e-06
1.6103848e-06
1.6076013e-06
1.6331973e-06
1.6565785e-06
1.808988e-06
1.9949478e-06
2.3904211e-06
2.7235093e-06
4.6973395e-06
4.3386834e-06
3.8443079e-06
3.3800989e-06
3.0987392e-06
2.8431458e-06
2.4653446e-06
1.8348152e-06
1.4054941e-06
1.4795505e-06
2.432082e-06
3.1971651e-06
2.5650562e-06
9.7624137e-07
2.8829698e-07
7.4473426e-08
2.0165084e-08
7.6625257e-09
3.8981656e-09
2.170773e-09
1.2359678e-09
7.0087481e-10
3.845875e-10
2.1665221e-10
8.480006e-11
7.4768598e-10
1.0126315e-09
1.9403048e-09
2.6368923e-09
3.7947208e-09
5.5728478e-09
8.1812592e-09
1.2794821e-08
1.9482844e-08
2.9251814e-08
4.7093218e-08
6.5887659e-08
9.067343e-08
1.2584118e-07
1.6959613e-07
2.0771304e-07
2.8021596e-07
3.4777521e-07
4.1679816e-07
5.134845e-07
6.2185509e-07
6.8177852e-07
7.6317955e-07
9.6372347e-07
1.0519954e-06
1.1198508e-06
1.2800845e-06
1.3558828e-06
1.5087047e-06
1.7190412e-06
1.784144e-06
1.8416558e-06
1.9987283e-06
2.3922822e-06
2.4815903e-06
2.5796722e-06
2.6098301e-06
2.4404488e-06
2.5598328e-06
2.5935425e-06
2.4804412e-06
2.5222408e-06
2.6024527e-06
2.6634713e-06
2.9417168e-06
2.8522512e-06
2.9925257e-06
3.1901245e-06
3.1392e-06
3.0987511e-06
3.1619908e-06
4.4751194e-06
4.2023159e-06
3.8285317e-06
4.2270383e-06
4.0827753e-06
3.6335247e-06
2.6953308e-06
2.2724323e-06
1.9779332e-06
2.2174401e-06
2.589595e-06
2.3316648e-06
1.1261235e-06
3.425058e-07
8.4161337e-08
2.1487665e-08
7.9755502e-09
4.0827657e-09
2.2943093e-09
1.3191888e-09
7.5737861e-10
4.233918e-10
2.4663839e-10
1.0004809e-10
9.4994655e-10
1.6372126e-09
2.1449388e-09
3.5752334e-09
6.1142236e-09
1.0583414e-08
1.780074e-08
3.0183058e-08
4.74252e-08
7.0444043e-08
1.1375913e-07
1.5342319e-07
2.094654e-07
2.7385057e-07
3.6084832e-07
4.3589815e-07
5.7241012e-07
6.722851e-07
8.2884795e-07
9.4467489e-07
1.159377e-06
1.2797905e-06
1.407884e-06
1.7476256e-06
1.9110259e-06
2.0330568e-06
2.3885289e-06
2.4966804e-06
2.7985349e-06
3.1231954e-06
3.1337914e-06
3.3019748e-06
3.8863278e-06
5.0357586e-06
4.6892184e-06
4.4500385e-06
4.4042491e-06
3.7689633e-06
4.1598171e-06
4.349655e-06
3.9657817e-06
4.0841535e-06
4.06565e-06
3.8808862e-06
3.9975919e-06
3.9418268e-06
3.7334617e-06
3.50884e-06
3.3386819e-06
3.3211099e-06
3.6720539e-06
4.2036399e-06
4.3033998e-06
4.0475349e-06
4.0134906e-06
4.7251401e-06
4.5855537e-06
3.5072508e-06
3.0049831e-06
3.0553372e-06
2.9062734e-06
2.9120157e-06
2.7061333e-06
1.2672858e-06
3.5815582e-07
8.5183429e-08
2.1517681e-08
8.1413305e-09
4.2351055e-09
2.4057928e-09
1.3978282e-09
8.129396e-10
4.6314219e-10
2.7876476e-10
1.1685058e-10
8.6585325e-10
1.8327221e-09
3.4463986e-09
6.6930871e-09
1.3217586e-08
2.4199616e-08
4.1762798e-08
7.0958891e-08
1.1186854e-07
1.5991519e-07
2.5176646e-07
3.2932604e-07
4.3693172e-07
5.4588387e-07
7.0900455e-07
8.4468663e-07
1.0733116e-06
1.2495801e-06
1.5018176e-06
1.7063222e-06
2.1343933e-06
2.362575e-06
2.5730312e-06
3.2350915e-06
3.5099517e-06
3.7874946e-06
4.8489279e-06
4.7622319e-06
5.3856921e-06
5.9881045e-06
5.3274374e-06
7.0095141e-06
8.3485494e-06
8.1386086e-06
6.3206081e-06
5.9356189e-06
5.6036626e-06
4.573163e-06
5.4443349e-06
5.5438386e-06
5.6104994e-06
5.2507504e-06
4.5992099e-06
3.9943598e-06
3.9511429e-06
4.155716e-06
4.3033437e-06
4.2627552e-06
4.0422348e-06
3.9363849e-06
3.5792137e-06
3.8630181e-06
3.8530185e-06
3.890342e-06
4.2938132e-06
5.1260471e-06
4.9043529e-06
3.915918e-06
3.395118e-06
4.415951e-06
4.3232383e-06
4.2872958e-06
3.1930036e-06
1.1994201e-06
3.2248385e-07
7.5002888e-08
1.9714204e-08
8.1188145e-09
4.3565873e-09
2.5054411e-09
1.471852e-09
8.674734e-10
5.0375982e-10
3.1296663e-10
1.3517539e-10
6.739219e-10
1.8597458e-09
6.5485797e-09
1.5423749e-08
3.1129871e-08
5.6241823e-08
9.4987648e-08
1.5922517e-07
2.4822626e-07
3.3625703e-07
5.075427e-07
6.5944975e-07
8.0951232e-07
1.0416833e-06
1.3086467e-06
1.5458825e-06
1.9452915e-06
2.293403e-06
2.6403722e-06
3.17171e-06
4.097058e-06
4.3588675e-06
4.7919973e-06
6.7028501e-06
6.8157326e-06
7.7720526e-06
9.4408211e-06
7.9575861e-06
8.6959501e-06
8.7877783e-06
8.156495e-06
1.4160244e-05
1.1544658e-05
5.9616402e-06
5.7185576e-06
4.6499423e-06
4.7981821e-06
4.5895064e-06
5.2997731e-06
5.520548e-06
5.3841564e-06
5.0385525e-06
4.1960815e-06
4.1279311e-06
4.7153759e-06
4.9316829e-06
4.9609179e-06
4.8023618e-06
4.4961297e-06
4.4388036e-06
4.2369211e-06
3.920011e-06
3.7143935e-06
3.9862241e-06
5.3505537e-06
5.5470354e-06
5.6184764e-06
4.6615857e-06
4.1874911e-06
4.3428274e-06
4.6248533e-06
4.6467125e-06
2.805617e-06
8.8149648e-07
2.3060446e-07
5.6167944e-08
1.7350436e-08
8.0593753e-09
4.4542943e-09
2.5937868e-09
1.5412654e-09
9.2089215e-10
5.4514244e-10
3.491405e-10
1.5496299e-10
5.4180019e-10
4.3624003e-09
1.4689869e-08
3.5718045e-08
7.0417007e-08
1.2349975e-07
2.0237815e-07
3.3387655e-07
4.9994041e-07
6.5372362e-07
9.5653667e-07
1.2094903e-06
1.4539763e-06
1.9374567e-06
2.3468111e-06
2.7937497e-06
3.6665032e-06
4.1861469e-06
4.98795e-06
6.659724e-06
8.1019585e-06
8.0381217e-06
9.7993495e-06
1.1663082e-05
1.1163477e-05
1.3858996e-05
1.0866836e-05
8.2930605e-06
7.0540748e-06
6.942668e-06
1.0053683e-05
9.6721784e-06
5.9209367e-06
4.2256998e-06
4.4279019e-06
4.471696e-06
4.3781593e-06
4.4977754e-06
4.8198104e-06
5.7782455e-06
5.3298599e-06
5.6128801e-06
5.4003253e-06
5.0244177e-06
5.79209e-06
5.7556761e-06
5.4861623e-06
5.1495827e-06
4.7860507e-06
4.7740715e-06
4.4986022e-06
4.0726785e-06
4.7126318e-06
5.1435662e-06
6.9877203e-06
8.3953281e-06
7.6447489e-06
6.3338245e-06
5.1194647e-06
5.8631957e-06
5.2327454e-06
4.1866682e-06
1.8764345e-06
5.79744e-07
1.5510125e-07
4.2276522e-08
1.5849154e-08
8.0195216e-09
4.5309222e-09
2.6711686e-09
1.6060991e-09
9.7310383e-10
5.8717089e-10
3.8715492e-10
1.7613201e-10
1.6589169e-10
1.1241799e-08
3.4762762e-08
7.9844929e-08
1.5055922e-07
2.5431841e-07
4.0305216e-07
6.4924411e-07
9.2649793e-07
1.1955995e-06
1.7261443e-06
2.0895273e-06
2.5918138e-06
3.6422564e-06
4.2748835e-06
5.2522962e-06
7.3775035e-06
8.1976693e-06
1.008334e-05
1.2600071e-05
1.2231344e-05
1.0300644e-05
1.468472e-05
1.1141821e-05
1.1232731e-05
6.6295721e-06
3.9753721e-06
3.433495e-06
4.0948701e-06
3.7909453e-06
6.673636e-06
5.5293433e-06
3.8073406e-06
4.0947073e-06
3.7983911e-06
4.1919257e-06
3.7212515e-06
4.5173429e-06
5.3683441e-06
5.9369696e-06
7.3515339e-06
6.1413649e-06
5.8998187e-06
5.6891848e-06
6.2530272e-06
6.0880205e-06
5.8772127e-06
5.9527076e-06
5.3564356e-06
5.0277647e-06
4.6802036e-06
4.3555625e-06
4.52538e-06
5.5986912e-06
7.1926594e-06
1.1036689e-05
1.3794698e-05
1.2261276e-05
9.0245622e-06
7.4011399e-06
5.9646561e-06
3.3707661e-06
1.2601567e-06
3.7910441e-07
1.0662298e-07
3.4168399e-08
1.497389e-08
7.9754344e-09
4.5872706e-09
2.7383018e-09
1.6664159e-09
1.0240154e-09
6.2970707e-10
4.2684721e-10
1.985807e-10
1.4990837e-09
2.7460604e-08
7.8369357e-08
1.6873491e-07
3.0208575e-07
4.9030081e-07
7.5425089e-07
1.1819542e-06
1.6326791e-06
2.1228632e-06
3.0341121e-06
3.6724624e-06
4.8456168e-06
7.093507e-06
8.2699655e-06
1.0938364e-05
1.2239225e-05
1.2877192e-05
1.4243551e-05
1.1068298e-05
7.137792e-06
5.2760154e-06
6.7378811e-06
3.9556824e-06
5.3035334e-06
4.9555232e-06
2.9499344e-06
2.602236e-06
3.2443356e-06
3.186208e-06
5.2890203e-06
4.2813597e-06
3.557631e-06
3.8592257e-06
3.5474024e-06
3.7345603e-06
3.7499991e-06
5.6558609e-06
6.216141e-06
5.064939e-06
4.6517541e-06
5.2023552e-06
6.6392083e-06
6.8094757e-06
6.3958817e-06
6.1529221e-06
5.9708217e-06
6.4128131e-06
6.2162056e-06
5.4186019e-06
5.3087984e-06
5.939867e-06
7.2051644e-06
8.3139627e-06
9.9709009e-06
1.3284101e-05
1.5639016e-05
1.5251734e-05
1.2358319e-05
8.6597714e-06
5.9088674e-06
2.5231266e-06
8.3958946e-07
2.5260998e-07
7.7894106e-08
2.9584298e-08
1.4360213e-08
7.9103969e-09
4.6245927e-09
2.7956469e-09
1.7223048e-09
1.0735387e-09
6.7259962e-10
4.6803315e-10
2.2219106e-10
6.4301722e-09
6.3131919e-08
1.6610008e-07
3.3421767e-07
5.6862553e-07
8.88597e-07
1.3472425e-06
2.0804254e-06
2.8482219e-06
3.7951753e-06
5.465557e-06
6.8567149e-06
1.0029692e-05
1.1856371e-05
1.2608469e-05
1.5242377e-05
1.0219438e-05
1.095428e-05
8.9861307e-06
3.9055933e-06
2.4856317e-06
2.6429458e-06
3.8263201e-06
3.541447e-06
3.3760613e-06
3.0731676e-06
2.7279319e-06
2.5518374e-06
2.6260724e-06
3.0338818e-06
4.5544306e-06
5.0899418e-06
3.5988891e-06
3.284661e-06
3.4746943e-06
4.0264342e-06
3.9674312e-06
4.6746811e-06
5.8204274e-06
4.5539256e-06
5.4501166e-06
5.4439077e-06
7.2840209e-06
6.949487e-06
5.6305895e-06
6.4229983e-06
6.1620269e-06
6.7222015e-06
6.5996736e-06
5.9082594e-06
5.8202042e-06
6.0426136e-06
6.5411782e-06
9.036805e-06
1.3155634e-05
1.4190432e-05
1.3760747e-05
1.1874507e-05
1.0988243e-05
8.2630187e-06
4.5539101e-06
1.6752185e-06
5.471348e-07
1.7281755e-07
6.0895764e-08
2.6688461e-08
1.3832174e-08
7.8210357e-09
4.6446735e-09
2.8437252e-09
1.7738706e-09
1.1215815e-09
7.1569267e-10
5.1051417e-10
2.4683268e-10
1.9737156e-08
1.3645855e-07
3.3020916e-07
6.2103205e-07
1.0110044e-06
1.5379214e-06
2.3650715e-06
3.6942046e-06
5.1016847e-06
7.1852076e-06
1.0561721e-05
1.1664492e-05
1.3963683e-05
1.0674883e-05
1.097531e-05
1.0764958e-05
4.3845353e-06
4.3524328e-06
3.3754712e-06
2.4029258e-06
1.8772319e-06
2.5374657e-06
3.056864e-06
4.7984338e-06
4.6369602e-06
3.3545393e-06
2.8655477e-06
3.0441496e-06
2.7147515e-06
4.1246813e-06
4.4392398e-06
4.0050474e-06
3.4678157e-06
3.3225892e-06
3.5427149e-06
3.8834958e-06
4.3524318e-06
4.4687796e-06
4.2626907e-06
4.0547781e-06
4.4595498e-06
4.4853978e-06
4.3318554e-06
5.3674427e-06
5.4747164e-06
8.0731305e-06
7.4023414e-06
9.3956807e-06
8.2985583e-06
7.2109283e-06
6.6152732e-06
6.0826303e-06
6.1213317e-06
6.9749686e-06
9.6783267e-06
1.0342831e-05
7.2635847e-06
5.8936348e-06
6.1645093e-06
5.4537062e-06
2.7837657e-06
1.0469317e-06
3.551399e-07
1.2349602e-07
5.0507236e-08
2.4574944e-08
1.3329545e-08
7.7096672e-09
4.6494505e-09
2.8832816e-09
1.8212374e-09
1.1680625e-09
7.5880638e-10
5.5404642e-10
2.7236355e-10
5.2309258e-08
2.7876932e-07
6.1635628e-07
1.0887467e-06
1.7224465e-06
2.6027324e-06
4.2361841e-06
6.8707537e-06
9.7939585e-06
1.1215904e-05
1.2321416e-05
1.2131004e-05
9.1358034e-06
3.8755745e-06
5.2446165e-06
4.04906e-06
4.0632582e-06
3.5539631e-06
4.5030346e-06
2.8145772e-06
1.9755333e-06
2.0974113e-06
4.5098698e-06
6.6161436e-06
4.4968757e-06
3.2465798e-06
2.5146986e-06
3.6496363e-06
3.2719352e-06
3.9129561e-06
5.9926501e-06
4.2620597e-06
3.6992225e-06
3.5709691e-06
3.7708925e-06
4.1054094e-06
4.2418001e-06
4.3124104e-06
3.8939709e-06
4.211455e-06
4.2331417e-06
4.1644891e-06
4.4483957e-06
5.1928123e-06
6.4123825e-06
9.6130874e-06
8.9378674e-06
1.1763594e-05
1.1141279e-05
9.2078451e-06
7.0446486e-06
6.5458711e-06
7.5744214e-06
7.9516448e-06
8.0627961e-06
5.9654588e-06
3.2234797e-06
2.5538044e-06
3.0238372e-06
3.0122955e-06
1.6424091e-06
6.4801669e-07
2.358411e-07
9.3670601e-08
4.3687037e-08
2.2847672e-08
1.2835401e-08
7.5801155e-09
4.6408581e-09
2.914981e-09
1.8645444e-09
1.2128938e-09
8.0179105e-10
5.9841603e-10
2.9862208e-10
1.2594056e-07
5.3692196e-07
1.0854322e-06
1.8231977e-06
2.8806329e-06
4.4436639e-06
8.1469841e-06
1.1096182e-05
1.2534601e-05
1.0114892e-05
7.332113e-06
6.7345007e-06
4.2824305e-06
2.4465213e-06
3.3262295e-06
3.7461685e-06
2.241369e-06
3.0717492e-06
4.7958794e-06
2.744836e-06
2.009133e-06
3.0511553e-06
7.5549785e-06
4.6012572e-06
3.4627163e-06
2.9438938e-06
2.392946e-06
3.4804996e-06
3.4071304e-06
3.5241896e-06
5.064737e-06
4.0202657e-06
3.5850722e-06
3.8231843e-06
4.0714071e-06
4.1557349e-06
4.5973016e-06
4.491089e-06
4.0904464e-06
4.5095706e-06
4.8633905e-06
4.2950932e-06
4.699848e-06
5.5503902e-06
6.8139783e-06
9.4383589e-06
8.701049e-06
1.1522681e-05
1.1538593e-05
1.1108288e-05
9.5317888e-06
7.5502254e-06
7.6414655e-06
7.4997525e-06
5.9187769e-06
3.2247119e-06
1.460823e-06
1.2499624e-06
1.5676703e-06
1.6708684e-06
9.7548732e-07
4.0710641e-07
1.6464997e-07
7.5311981e-08
3.8744246e-08
2.1338801e-08
1.2347536e-08
7.4363259e-09
4.6206943e-09
2.9394847e-09
1.9039075e-09
1.2560082e-09
8.4445404e-10
6.4338671e-10
3.2546391e-10
2.8182475e-07
9.7650314e-07
1.8201495e-06
2.97127e-06
4.8975837e-06
8.073494e-06
1.0831539e-05
1.0640226e-05
7.8717751e-06
4.8480766e-06
4.3191092e-06
4.2394996e-06
5.0334222e-06
3.2763624e-06
2.4663822e-06
2.2404508e-06
1.5432901e-06
2.4843774e-06
2.5977036e-06
2.3287504e-06
1.8337142e-06
4.1355192e-06
6.1810039e-06
3.3426365e-06
3.1483308e-06
2.6527074e-06
2.2929821e-06
2.4291707e-06
3.1244677e-06
3.2695976e-06
3.8059318e-06
3.1606835e-06
3.5975905e-06
4.0086013e-06
4.0966402e-06
4.6322627e-06
4.8698594e-06
4.6023243e-06
4.9654202e-06
4.5803287e-06
6.3686736e-06
5.983896e-06
6.1051149e-06
7.0333372e-06
7.9841045e-06
8.4792841e-06
8.5094598e-06
9.1980252e-06
1.1709556e-05
1.0380961e-05
9.522715e-06
7.8540464e-06
7.580449e-06
6.9431128e-06
4.3115861e-06
1.764001e-06
8.2879088e-07
7.6688554e-07
9.3730074e-07
9.7499104e-07
5.9138527e-07
2.6609639e-07
1.2252554e-07
6.3170524e-08
3.4839216e-08
1.9979033e-08
1.1868338e-08
7.2819013e-09
4.5906528e-09
2.9574171e-09
1.9395673e-09
1.2973355e-09
8.8661927e-10
6.8867699e-10
3.5272149e-10
5.9247674e-07
1.6872511e-06
2.9426159e-06
4.8603662e-06
8.8101952e-06
1.0657132e-05
8.61353e-06
5.6528596e-06
3.2340421e-06
2.6221567e-06
2.8567582e-06
2.9198643e-06
2.3360224e-06
2.0135151e-06
2.0851506e-06
1.9108073e-06
1.054168e-06
2.4384985e-06
2.3094235e-06
2.6512657e-06
1.9292692e-06
3.9660713e-06
5.5002768e-06
3.5042572e-06
3.0045634e-06
2.5555385e-06
2.3163136e-06
2.1738445e-06
2.5144131e-06
2.6359489e-06
3.023258e-06
3.2324292e-06
4.119628e-06
3.9182743e-06
4.0827931e-06
5.1475769e-06
4.8504505e-06
4.6262124e-06
4.6978574e-06
4.728813e-06
7.0033997e-06
7.0459131e-06
7.161254e-06
7.7878487e-06
7.7270872e-06
8.5750418e-06
8.2643637e-06
9.7634314e-06
1.5989085e-05
1.2371109e-05
9.8068834e-06
8.8885955e-06
7.3775994e-06
5.5174694e-06
2.7698811e-06
1.0181029e-06
6.6924734e-07
6.4672677e-07
6.4098192e-07
6.0706371e-07
3.7296393e-07
1.8453371e-07
9.6464552e-08
5.4377769e-08
3.1585573e-08
1.8738878e-08
1.140106e-08
7.1199811e-09
4.5522526e-09
2.9693859e-09
1.9715973e-09
1.3368033e-09
9.2818507e-10
7.3409549e-10
3.8020982e-10
1.181902e-06
2.7840012e-06
4.6928316e-06
8.3290443e-06
1.0282904e-05
8.5903969e-06
5.4967075e-06
3.2699216e-06
1.223678e-06
1.9321716e-06
2.5750818e-06
4.3492142e-06
2.0878041e-06
1.7120561e-06
2.2014907e-06
1.6636664e-06
1.0332989e-06
1.3793665e-06
2.7922542e-06
2.9477661e-06
2.0675205e-06
3.8527517e-06
6.6507659e-06
3.0692695e-06
2.2244367e-06
2.4127988e-06
2.4163359e-06
2.1823735e-06
2.0980474e-06
2.1697864e-06
2.4165366e-06
5.0779246e-06
4.3377547e-06
3.8418894e-06
4.2100733e-06
5.9386791e-06
5.5889243e-06
4.65959e-06
4.7632806e-06
4.7476321e-06
8.074756e-06
8.0686531e-06
7.6653774e-06
8.2121268e-06
7.9118888e-06
8.8364369e-06
8.5178416e-06
9.2058884e-06
1.9796261e-05
1.5554456e-05
1.1355478e-05
8.3942864e-06
6.0867535e-06
4.3349498e-06
1.8646981e-06
1.0793912e-06
1.402245e-06
1.1389542e-06
4.9557926e-07
4.0992053e-07
2.4959257e-07
1.3596226e-07
7.895607e-08
4.7552487e-08
2.8801187e-08
1.7603599e-08
1.094858e-08
6.9532393e-09
4.5068785e-09
2.9759702e-09
2.0001729e-09
1.3743712e-09
9.6891975e-10
7.7940316e-10
4.0780989e-10
2.262477e-06
4.4158003e-06
7.674382e-06
9.5132721e-06
7.299025e-06
5.6353314e-06
2.7862841e-06
1.4737479e-06
8.3258847e-07
1.6485705e-06
2.4205785e-06
3.8729185e-06
1.6859748e-06
1.763964e-06
3.0280177e-06
1.5843983e-06
1.0424479e-06
1.3765044e-06
2.8567428e-06
2.1349052e-06
2.0321071e-06
3.4235577e-06
6.3155395e-06
2.1139032e-06
1.9784229e-06
2.4730686e-06
2.6910029e-06
2.3763496e-06
2.3012676e-06
2.2013225e-06
2.5776449e-06
6.5054447e-06
4.0039702e-06
3.8947932e-06
4.1598927e-06
5.2598065e-06
5.9333499e-06
4.8489473e-06
4.9929239e-06
5.0788499e-06
5.8668488e-06
7.5757993e-06
7.973404e-06
8.7086705e-06
8.1300874e-06
8.5344413e-06
9.32367e-06
1.0039563e-05
2.0107298e-05
1.7039663e-05
1.1708247e-05
8.4588073e-06
6.1820108e-06
3.3797048e-06
1.6248587e-06
2.3757115e-06
5.1641107e-06
3.4393679e-06
4.5641839e-07
3.050284e-07
1.7826689e-07
1.0504696e-07
6.6265162e-08
4.2046154e-08
2.6389119e-08
1.6563585e-08
1.0512944e-08
6.7838267e-09
4.4557147e-09
2.9776843e-09
2.0254439e-09
1.409987e-09
1.0086776e-09
8.2432809e-10
4.3534818e-10
3.8752363e-06
7.0288029e-06
9.6774515e-06
7.6256461e-06
4.9468586e-06
3.3880134e-06
1.2850304e-06
1.1552677e-06
8.3138941e-07
1.544156e-06
2.0474507e-06
1.8702295e-06
1.356822e-06
1.4488728e-06
3.0236588e-06
1.5964636e-06
1.1499167e-06
2.1263633e-06
2.1749591e-06
1.8279374e-06
1.7555987e-06
3.05577e-06
4.5836595e-06
1.8358035e-06
1.9235137e-06
2.7430877e-06
2.8917256e-06
2.6413164e-06
2.7701682e-06
2.4054663e-06
2.917973e-06
5.2918048e-06
3.6076959e-06
3.3888868e-06
3.7338763e-06
4.2393968e-06
4.6698335e-06
5.781655e-06
5.5530155e-06
4.4582803e-06
4.7366681e-06
6.959351e-06
8.8786288e-06
9.3406407e-06
8.6257946e-06
8.8382934e-06
9.6319991e-06
1.4696828e-05
2.3662721e-05
2.1867526e-05
1.6118114e-05
9.6258202e-06
6.9198888e-06
4.0230513e-06
2.6997083e-06
7.2332286e-06
1.6302097e-05
9.4227399e-06
8.986425e-07
2.3636823e-07
1.3200072e-07
8.3686048e-08
5.6566314e-08
3.7500349e-08
2.4280514e-08
1.5609434e-08
1.0095399e-08
6.6137084e-09
4.4000007e-09
2.9751496e-09
2.0476391e-09
1.4436534e-09
1.0473979e-09