/*--------------------------------*- C++ -*----------------------------------*\
| =========                 |                                                 |
| \\      /  F ield         | OpenFOAM: The Open Source CFD Toolbox           |
|  \\    /   O peration     | Version:  2.3.0                                 |
|   \\  /    A nd           | Web:      www.OpenFOAM.org                      |
|    \\/     M anipulation  |                                                 |
\*---------------------------------------------------------------------------*/
FoamFile
{
    version     2.0;
    format      ascii;
    class       volScalarField;
    location    "6e-06";
    object      p;
}
// * * * * * * * * * * * * * * * * * * * * * * * * * * * * * * * * * * * * * //

dimensions      [1 -1 -2 0 0 0 0];

internalField   nonuniform List<scalar> 
7500
(
19895.837
4308.1799
-56881.931
34872.604
62574.489
-1261.6315
-46092.311
64693.441
36745.231
-60252.151
112989.25
6690.5629
-24059.727
98828.512
12433.084
-25349.435
107440.9
33248.786
-44637.013
160754.99
28520.393
43277.527
172356.43
2055.8087
57838.726
173563.58
269351.88
90323.794
-202226.23
85707.33
187069.09
61094.218
325526.2
189748.69
-14610.934
148287.73
21592.888
-34812.994
192311.76
207480.99
-618.99983
36019.994
118888.91
-30291.745
-44387.984
-97663.083
-300595.91
-279795.09
-268597.34
-458648.8
-583901.09
-463245.57
-240160.65
-244524.83
-186930
-234267.26
-240791.65
277305.91
211347.28
1195084.7
1692631.6
1814684.4
1529371.1
1218859.9
952404.17
736998.07
568862.24
439268.49
338939.15
259993.15
196311.79
143330.46
97646.853
56704.324
18384.602
18436.252
6327.5867
-55880.457
32306.414
63926.667
-2286.7642
-44714.251
64509.249
35847.969
-57499.654
108700.66
7970.2692
-21997.685
96166.014
13992.753
-25701.752
106421.58
33298.1
-42398.172
160772.77
26209.143
41769.667
171744.12
7140.9416
59376.178
169956.66
267399.01
91594.624
-199081.25
81659.55
185520.23
63733.871
322040.8
193580.92
-14489.804
139534.97
26895.837
-31183.842
186590.16
206919.84
-2787.624
34494.379
125949.35
-35440.921
-37238.608
-80778.213
-307118.14
-314430.71
-270806.99
-435652.01
-589364.16
-457786.4
-236276.95
-245885.09
-215934.29
-246083.82
-245464.65
220238.4
454506.31
1163353.7
1669939.3
1825728.8
1529013.4
1216743.9
950356.05
735405.79
567712.65
438461.3
338378.77
259606.63
196047.22
143152.63
97532.906
56640.162
18362.264
16337.162
8079.6456
-51854.303
27788.921
64207.956
-2366.2152
-42951.318
65290.935
31724.962
-51564.557
103799.39
7261.7695
-18246.607
91847.806
16684.826
-23891.279
104630.72
30094.532
-37660.536
161169.41
24065.175
41322.329
165559.44
13363.507
64012.442
166902.46
260764.05
88683.946
-183444.69
78732.401
173519.31
73359.047
316343.9
194306.21
-2751.2065
126219.68
24591.762
-23832.095
182003.62
205008.79
4808.7552
34328.135
128538.39
-31785.258
-47815.138
-67133.737
-318798.11
-339337.32
-269539.06
-434080.71
-580236.05
-442329.79
-231528.85
-283848.62
-231726.86
-274697.54
-299087.81
191478.89
626320.08
1237015
1619659.5
1832362.6
1526225.8
1210594.3
944740.55
731124.12
564636.99
436306.17
336884.45
258576.47
195342.17
142679.03
97230.226
56471.178
18306.864
11881.52
9896.6115
-44663.834
22162.903
64662.128
-3419.9956
-39902.577
66627.595
24949.338
-43612.942
97346.006
6545.1087
-13019.687
85380.758
20402.616
-21852.62
103201.78
25661.338
-32345.076
161244.75
23087.644
44875.337
155270.69
19262.616
72245.567
160521.08
251640.34
86345.987
-165771.5
74994.278
161127.66
85534.524
307733.71
195657.12
10980.498
111605.35
24270.824
-17314.667
172619.63
212907.34
9625.3462
15068.67
122016.38
-15182.355
-14232.372
-46003.019
-336903.45
-366795.42
-270074.93
-452592.18
-586190.49
-416840.28
-243318.7
-176255.3
-228548.22
-334369.36
-330250.94
185271.98
684003.85
1258765.9
1393096
1817598.6
1512764.5
1200338.9
936059.2
724661.88
560024.58
433076.46
334643.89
257030.64
194283.3
141967.32
96775.39
56217.834
18225.191
8328.9893
10602.134
-37111.413
17112.842
63782.697
-3653.0896
-36803.832
67827.176
18934.006
-36062.591
89501.982
6515.1123
-7123.6221
78286.769
22561.169
-20144.836
102764.6
22942.372
-27364.004
158922.17
24522.005
49016.359
144625.8
27139.741
81143.932
154864.4
236354.66
82813.151
-139836.07
66120.931
144009.53
101738.56
300116.61
198182.29
23037.363
93097.948
27137.781
-11124.97
164540.03
222454
20596.835
1243.0681
108544.29
-10405.043
-5038.9728
-40585.817
-334207.42
-346713.4
-295318.24
-469730.62
-587575.21
-417562.78
-252951.45
-292003.95
-240303.77
-293856.99
-344583.06
168920.81
708461.8
1169971.2
1376803.1
1717997.9
1484233.1
1183556
924138.76
716068.46
553932.54
428814.94
331686.4
254988.31
192882.64
141024.69
96172.393
55881.948
18117.604
4457.2641
12641.083
-30689.9
12169.352
63511.178
-5192.8607
-31908.971
67417.087
13132.139
-26338.089
79351.854
7028.1389
-840.28774
71429.807
25419.821
-19569.178
100847.15
20875.142
-19404.904
153926
24594.528
53833.244
131976.78
41152.118
91642.935
147340.53
223310.31
73950.662
-114751.48
62307.339
124020.86
113506.13
293367.04
208030.87
35102.436
67088.894
27552.091
-3582.0674
156130.13
239601.81
29768.093
-3814.9688
108016.44
-16470.181
-4423.8317
-28383.655
-336348.68
-356976.97
-329026.11
-466216.21
-472197.11
-413022.43
-281013.55
-238284.98
-316044.6
-400582.83
-273771.91
218456.03
728282.1
1043050.6
1662016
1617533.3
1450773.6
1160955.8
909277.35
705472.13
546436.97
423573.15
328047.11
252472.81
191155.24
139860.54
95426.768
55466.381
17984.957
1316.8033
13666.801
-24256.744
7073.6846
62705.347
-5638.192
-27658.935
67495.478
7049.6706
-17535.644
71215.405
7155.4378
4131.483
65200.254
28422.723
-17719.296
97045.984
17844.775
-10369.449
150768.38
23408.667
54049.926
122410.59
56989.223
103129.45
139057.24
209933.15
69966.883
-94578.899
54373.399
109695.4
122770.97
284600.91
218031.31
50060.435
45307.612
20202.146
-1641.3698
158933.82
248087.84
33054.028
-3910.929
101466.38
-9643.6028
16538.09
-33085.279
-340214.81
-346221.34
-365522.51
-467740.87
-527928.77
-395031.12
-199029.95
-248494.84
-298073.67
-517808.66
-455349.67
241669.95
706031.49
965166.7
1688289.3
1583348.2
1407342
1133947.5
891909.08
693017.94
537615.23
417402.26
323760.99
249507.38
189116
138484.08
94543.901
54973.867
17828.015
-1773.2475
15131.788
-17933.287
2825.0236
60535.009
-5024.8712
-23655.025
65879.657
4071.4523
-12208.599
63593.76
10463.322
6376.3621
59980.19
31530.064
-16707.631
94873.751
14430.382
-3223.2128
145905.47
27038.555
52938.449
109119.3
77099.809
111371.23
133697.85
196333.84
64825.863
-68856.988
44144.997
91066.547
132015.73
280135.11
229217.19
57817.689
25989.353
21023.07
-9398.2326
156039.54
264498.92
38430.886
-402.29707
93384.785
-7609.6217
35462.24
-49906.345
-338728.55
-337524.63
-349336.88
-493215.22
-543559.18
-358628.35
-247726.02
-229910.91
-219130.89
-394381.86
-464156.95
-86136.603
785546.75
1258770.4
1675180.8
1588112.9
1368917.4
1105489.4
872641.68
678873.35
527547.31
410355.34
318864.8
246116.57
186780.73
136905.15
93529.579
54407.377
17647.632
-4599.8162
14915.15
-11875.025
146.90034
57172.249
-4000.9412
-18354.367
62009.913
2922.7289
-6416.0591
53401.832
14981.625
9536.825
54600.602
35000.542
-16151.432
91207.464
14663.2
2260.6147
137403.06
30878.524
54167.952
97904.097
94305.063
117852.52
129771.83
188144.56
55501.59
-45650.502
41566.989
73635.043
133033.54
277045.94
242640.93
66001.644
5837.3074
18377.425
-9859.2549
154568.41
264134.71
40908.129
16415.701
93817.471
-1799.8276
51340.672
-72934.027
-352247.66
-322955.01
-364535.2
-477069
-533979.31
-337806.58
-244896.77
-255125.06
-332131.05
-356333.78
-239562.78
-185430.51
552101.49
1372994.8
1685409.5
1592728.4
1331735.4
1074959.2
851452.66
663107.06
516304.16
402487.62
313397.95
242326.84
184166.52
135134.4
92390.101
53770.168
17444.75
-6283.5821
15112.625
-7923.9832
-430.69808
53586.771
-4356.7475
-12131.184
58302.76
683.51404
-123.09996
45606.34
16223.827
13202.459
52228.514
36322.333
-14482.782
87539.95
13614.393
10668.982
126746.83
33750.837
53963.743
90240.989
109960.75
119238.9
128854.4
179104.36
50245.044
-26120.175
40178.552
61054.609
134060.29
273106.35
252668.98
67858.588
-7452.4034
15904.02
-13871.249
166802.8
262863.13
25837.777
21623.815
90476.475
28295.279
74548.884
-89366.616
-376723.68
-326111.53
-369708.15
-534619.04
-495839
-322551.55
-226315.58
-227828.42
-357150.91
-423792.28
-374200.44
28276.19
489835.54
963244.16
1719619
1597171.8
1292570.1
1042312.2
828633.71
645833.53
503962.24
393857.67
307402.53
238166.46
181291.6
133183.27
91132.274
53065.785
17220.406
-8376.6919
15448.338
-4736.8038
-1548.7273
51697.304
-5092.8161
-7415.8775
56544.582
-348.35176
1791.1272
41368.655
18270.673
12816.43
52404.779
38336.271
-14119.245
84095.383
14827.805
16402.961
118884.04
33735.937
53317.311
86903.219
122006.64
117047.27
131308.03
170197.47
41521.717
-2225.5161
41547.775
48461.786
135944.41
278126.45
260555.61
58056.284
-29270.677
17798.947
-13920.447
185879.1
262797.43
19998.469
16298.034
59799.244
39801.225
151045.87
-104808.62
-390293.67
-338212.77
-381826.84
-518066.24
-504199.68
-351243.74
-228126.58
-196123.1
-291710.23
-427553.19
-406235.76
-211743.99
359894.94
620763.4
1598808.3
1635863.3
1255968.3
1008352.6
804524.98
627150.14
490595.2
384526.83
300923.19
233665.32
178175.3
131063.88
89763.354
52298.034
16975.725
-10108.213
15909.88
-1593.8958
-3147.9646
48984.133
-3432.1545
-4803.7856
53838.053
2324.6893
1371.9925
34750.754
24508.013
12376.799
48868.747
41811.482
-10790.96
77675.221
17051.638
23569.447
109136.54
36933.499
45872.6
88729.947
136542.56
111860.6
131735.23
161077.17
34359.635
16132.884
47514.557
37397.082
132707.73
291298.45
279215.79
47611.725
-56630.196
-1966.052
-15574.91
222904.3
264989.09
8061.9891
25322.428
34127.598
23500.867
196925.14
-83213.26
-398590.44
-363675.09
-380263.2
-510151.63
-484264.86
-356114.99
-229621.88
-197798.49
-304439.61
-399590.99
-432218.51
-644929.83
-143442.54
453430.11
1163518.9
1461296.6
1231423
978672.27
780019.61
607154.37
476271.81
374559.47
294007.13
228854.82
174837.79
128788.93
88290.976
51470.945
16711.913
-11813.662
16162.241
1630.1437
-4017.5088
44645.303
-1084.5504
-305.3414
48262.32
5681.9761
3546.3613
25160.012
28538.844
18194.465
43116.632
39828.665
-3724.0729
74524.213
15369.122
31248.937
100154.44
38627.127
43922.041
82526.135
148496.3
115397.9
136806.24
141092.47
25377.068
39499.172
51770.217
27958.632
121328.41
301245.94
310053.89
49821.349
-81590.708
-12953.428
-31509.478
228006.15
289381.42
78.925107
21920.577
38458.636
23494.391
186982.03
-73664.964
-377107.98
-358580
-388965.28
-526427.87
-504171.43
-345121.11
-227383.83
-199708.42
-297071.47
-431211.09
-402008.11
-400076.17
-487441.04
-220931.46
619436.38
1048530.9
1193868.9
940279.55
753976.68
585590.25
461025.55
364022.42
286704.09
223767.6
171299.99
126371.6
86723.097
50588.742
16430.244
-12767.032
16024.383
4225.296
-3139.6462
39718.176
-617.13979
6133.4201
43856.313
5520.1433
7714.7937
18451.587
27114.55
24996.262
43646.493
33762.826
-2152.4946
76184.961
16111.286
35739.061
93980.65
34071.525
46006.032
85377.16
146284.88
114256.49
156288.73
124445.09
6332.2779
54023.902
66216.566
28620.16
107525.14
293720.63
335121.38
55615.92
-83115.736
-13327.007
-28048.447
229570.43
283492.03
2035.4176
20547.91
37380.729
26964.767
183277.21
-71570.114
-374358.6
-357339.13
-398953.15
-542446.03
-503789.8
-350271.8
-228153.88
-199662.42
-309733.39
-402931.52
-433709.83
-381857.71
-555232.15
-768927.7
139483.32
404093.62
776035.65
881571.1
718532.74
561597.01
444898.41
352991.92
279066.71
218437.34
167583.33
123825.42
85067.917
49655.804
16132.055
-13575.489
16149.566
5380.6743
-1385.7166
36410.59
-1852.0946
11246.567
42928.694
4085.7166
8269.1716
16252.37
27275.61
25381.359
45800.222
34704.694
-5966.7003
73376.652
21651.993
39810.23
90165.729
31025.38
38468.365
92169.03
154294.89
108892.09
159812.98
124270.06
-716.28395
50844.865
70111.674
31780.07
106344.9
291958.49
332065.11
53914.809
-82219.121
-14642.823
-28805.61
236030.24
279355.76
-1044.4548
20163.114
36163.897
25927.425
181185.19
-77652.277
-369510.89
-357637.48
-417888.95
-548513.67
-508077.44
-349698.79
-222947.9
-195520.66
-320801.3
-413846.05
-443326.92
-769215.77
-746751.84
-808028.3
-45019.852
165557.08
539634.19
820357.35
674757.6
535845.38
428081.6
341563.21
271150.66
212898.43
163709.55
121164.11
83333.809
48676.625
15818.728
-14278.774
16525.928
5889.6844
-769.23461
34641.199
-1893.5908
13723.215
42714.732
5472.2
5071.6498
11362.312
34740.916
26517.787
39176.115
38393.22
-1760.9884
62645.861
25534.547
46403.926
81092.875
38548.955
34828.788
79851.562
161689.35
109903.94
161611.29
124352.34
-3659.8416
50950.964
71609.589
29424.411
111123.57
298619.08
321699.27
56182.826
-92012.077
-20963.322
-28903.856
239569.57
273917.45
-3235.4386
14684.734
31899.832
29781.505
178037.05
-84483.613
-371336
-360984.28
-432841.59
-561676.41
-509199.27
-342025.68
-209744.64
-190358.57
-342589.56
-451956.48
-450128.64
-256424.02
-975234.1
-1019372.2
-42438.265
168634.3
450616.43
731597.25
628065.61
509297.56
410820.35
329841.49
263012.97
207185.43
159700.45
118401.52
81529.244
47655.774
15491.686
-15106.835
17129.331
6841.4028
-1320.809
31968.331
104.18008
16202.303
40618.336
9052.2512
3931.0256
104.35734
41232.972
36682.483
31914.851
31468.704
9600.4481
54702.322
22391.608
54100.09
72434.642
42714.286
33826.535
79702.1
162928.58
110168.06
162631.1
125622.37
-147.61173
45980.588
65999.314
33259.265
105513.84
293058.21
305193.55
50191.991
-105118.02
-21833.132
-32000.748
232649.22
270601.8
3324.5307
5932.2707
27759.252
27138.081
166960.89
-99639.839
-368751.68
-366502.69
-459187.67
-566193.21
-503447
-340139.6
-207276.38
-179291.91
-353569.55
-486353.07
-457325.71
-471042.6
-882608.4
-1493944.1
-127825.7
167624.94
440866.39
654375.27
583059.77
482603.63
393349.24
317931.16
254710.23
201332.53
155577.67
115551.42
79662.713
46597.86
15152.382
-16035.984
17367.216
8677.096
-1525.5508
27836.568
1224.6141
20455.51
37873.871
11091.365
6531.5234
-9412.3947
38972.757
45347.506
36512.464
18603.916
16038.039
52650.386
23117.101
55311.149
70390.582
45059.376
34351.938
78670.505
162107.14
113943.67
157494.55
112265.43
3045.6018
41465.336
59906.096
42020.219
103022.17
277475.19
281294.89
41559.312
-122015.35
-28605.717
-42255.038
227218.39
265849.1
8068.261
-4334.2964
24049.701
15404.656
151720.6
-120169.14
-377094.03
-372379.36
-479218.02
-579007.12
-497920.5
-327282.58
-201151.41
-201932.52
-359526.82
-513063.46
-475577.92
-552432.81
-687628.23
-766526.13
-430879.35
135736.66
417324.7
588420.2
540665.3
456235.37
375872.28
305930.52
246297.08
195373.06
151362.41
112627.43
77742.66
45507.483
14802.288
-16839.452
17154.032
10303.581
-292.15423
24421.234
191.75361
24255.767
36713.448
11381.555
6070.5261
-10844.811
35584.378
42630.31
40191.691
17588.188
17180.062
52030.625
23268.073
57489.471
70070.627
43823.665
36596.051
74690.216
156960.19
117585.61
156457.32
104131.95
2252.0955
36310.047
56990.811
49158.091
101294.21
251016.05
250102.23
35464.092
-125967.26
-63371.833
-61969.594
207722.2
253732.89
16819.767
-10014.421
14696.124
-8803.2067
152107.03
-137928.24
-384792.38
-385323.62
-504039.92
-581627.53
-494504.88
-326266.83
-209222.71
-190878.89
-336012.18
-504316.98
-478869.98
-534697.75
-695808.99
-708279.21
-391719.48
116178.98
387136.43
531687.2
501183.44
430549.07
358560.94
293929.08
237825.1
189338.95
147075.24
109642.87
75777.408
44389.203
14442.887
-17469.223
16870.897
10704.776
1105.4936
23449.271
-551.09889
26066.416
35844.045
14468.446
-975.02508
-10592.93
36171.436
43103.964
40596.445
17549.249
18098.03
52075.94
21839.374
57712.536
68979.91
41571.779
38519.91
71780.931
152673.2
121289.66
156059.08
95428.734
-4794.9502
30636.295
59218.4
45101.904
101535.67
231473.05
233987.13
16298.905
-121400.78
-101675.18
-84858.682
154501.13
230042.06
18761.127
-18772.763
-516.52855
-29859.14
168600.05
-152495.37
-399640.57
-395189
-518850.45
-590267.25
-477019.51
-314797.86
-203078.15
-173331.65
-326404.56
-506375.26
-486704.33
-520357.66
-661030.73
-661404.06
-352903.02
109527.3
357766.18
482664.56
464691.72
405796.09
341555
282006.16
229341.95
183260.42
142735.89
106610.65
73775.1
43247.5
14075.622
-17810.613
17065.53
10224.827
719.37359
22731.111
1800.6016
26888.079
33596.213
19730.46
-1543.6524
-11224.397
37212.684
44194.669
40606.737
16235.879
17068.689
52967.326
22285.141
57915.463
66376.387
39689.908
39423.05
69428.311
150359.2
124580.27
154992.65
85748.266
-15068.054
20295.401
56725.033
46360.692
102939.6
212003.98
220110.23
-1914.6153
-120620.21
-104504.68
-67661.238
111449.16
208643.19
13051.984
-35544.244
-16598.03
-32775.139
177703.16
-164397.58
-409215.43
-408339.93
-529441.43
-592869.72
-508025.98
-340260.58
-232920.17
-165136.58
-290093.14
-494579.96
-495237.06
-512815.19
-598983.41
-573897.26
-284407.26
115397.42
331658.42
440095.23
431136.68
382139.81
324964.82
270230.26
220890.88
177165.64
138363.1
103543.2
71743.637
42086.712
13696.976
-18095.194
18070.493
10142.269
-756.78358
18203.085
6191.8604
27823.869
32487.677
20460.638
-939.11159
-11161.5
37331.938
43424.001
40441.579
17094.057
17300.931
51704.451
18946.917
56989.614
62939.15
37360.606
43073.936
65961.198
148678.82
128082.16
156078.85
78988.956
-22608.225
10170.739
46000.617
43890.03
100781.16
204048.89
198862.7
-11132.121
-129545.49
-112366.79
-64321.377
96019.615
189508.98
16924.999
-61266.323
-41269.123
-30318.504
174001.23
-177179.99
-419723.07
-413132.63
-543973.36
-594821.08
-485268.85
-325966.86
-193137.93
-150005.69
-298265.58
-502343.24
-522603.83
-506513.71
-524558.82
-468794.26
-211382.72
122327.18
308422.24
402924.53
400379.19
359673.01
308874.85
258659.05
212510.4
171080.56
133974.47
100452.35
69690.639
40911.342
13317.786
-18535.356
19427.759
11656.465
-187.4115
9947.0952
8703.2273
28671.47
32523.516
20801.823
-1555.8392
-11722.1
38427.517
43515.894
39973.357
15192.523
16429.67
49510.302
18750.523
57698.706
59804.531
34437.027
44269.909
56593.241
138212.99
130792.51
156137.88
73349.852
-23339.193
7509.5789
35323.98
42934.802
100401.39
201851.42
180280.72
-11526.969
-138994
-125229.28
-76688.36
84771.252
159934.88
19338.127
-75008.665
-67798.354
-34230.578
223046.31
-198275.16
-437950.06
-411217.64
-539064.68
-615676.96
-499204.59
-342942.71
-202192.32
-149424.8
-302184.32
-522757.54
-560384.52
-502215.25
-452566.65
-368651.78
-146912.1
126960.27
287565.42
370292.16
372232.28
338435.76
293346.26
247339.88
204234.23
165028.72
129586.37
97349.284
67623.379
39725.466
12934.501
-19568.346
20206.474
14423.656
4335.4929
4396.834
9177.0411
29831.884
32175.831
20810.774
-1952.9262
-12393.981
39220.074
43311.493
39590.104
14095.237
13789.693
47031.21
23475.215
59651.129
57573.864
32846.975
46982.153
41295.529
116852.99
132437.48
153558.88
65755.174
-22220.927
12182.122
28604.488
44286.687
104474.39
199075.63
143351.72
-18082.232
-143529.06
-132285
-97303.881
69125.883
92615.741
18827.671
-117608.75
-78741.138
-45024.366
233090.72
-231629.92
-447583.51
-416306.96
-538729.65
-614935.28
-477168.81
-329537.77
-198007.08
-154972.45
-316374.1
-554855.93
-606762.8
-500264.73
-383322.87
-279296.34
-92832.929
130043.36
268814.88
341490
346488.65
318430.07
278420.23
236310.44
196091.34
159031.29
125213.9
94244.499
65548.754
38532.984
12548.435
-21583.662
19486.844
16509.222
8638.2619
3816.1816
9158.1395
29540.441
31984.709
21634.755
-2264.0805
-13642.831
39984.561
42433.907
38675.641
13671.652
12445.928
44627.275
24675.466
60820.617
55729.155
31621.883
48015.85
21829.723
84640.941
130408.13
151241.84
59575.189
-23562.438
14817.91
18050.1
45817.547
113274.54
214257.53
119866.9
-47432.278
-156530.82
-145845.58
-98955.244
63074.353
99333.301
49.439276
-151804.19
-72707.971
-55359.967
132707.33
-254856.09
-443378.32
-413482.26
-542459.66
-619646.8
-473311.37
-319447.36
-194226.92
-155934.81
-337117.74
-601018.72
-660260.84
-502419.35
-317863.58
-199753.42
-47879.728
132223.49
251930.98
315931.74
322937.2
299631.19
264121.08
225599.72
188106.2
153106.99
120870.8
91147.739
63473.258
37337.611
12160.849
-24004.325
16975.922
16137.407
9621.3425
3683.7208
9043.3429
29182.266
31358.232
22312.21
-2466.6632
-15362.058
39730.109
40803.371
37430.064
13650.579
11677.924
43621.753
26082.452
61278.19
53440.161
30287.699
44440.577
6487.7375
52982.175
125379.88
147371.57
55209.24
-25690.602
14612.639
5661.0788
48066.555
118249.74
235345.25
115001.21
-66398.899
-178332.14
-155649.29
-111929.43
72509.261
170012.03
-20220.207
-193112.79
-53700.56
-59470.997
-86706.158
-308435.82
-434268.9
-414650.51
-544003.16
-620326.28
-463772.3
-311484.46
-191735.3
-170051.7
-359912.63
-653808.57
-721542.01
-510615.73
-260096.36
-127732.23
-10344.578
133727.4
236673.75
293129.62
301372.48
281996.31
250459.4
215229.13
180299.02
147272.18
116569.51
88067.991
61402.96
36142.858
11772.929
-22984.453
12925.581
14894.103
10156.695
3641.002
9199.1366
28672.834
30646.579
22983.625
-2730.7512
-16159.764
39140.46
39481.083
36164.189
13870.782
11482.925
42601.489
26832.457
60641.225
51083.621
28532.685
39411.199
2460.1793
37974.2
118850.8
142203.13
50478.23
-27029.349
11934.235
-3478.1788
54177.186
116642.03
232428.38
105627.3
-73216.744
-181718.08
-160915.32
-137464.45
81430.174
197828.62
-28373.661
-199054.41
-61634.246
-89331.361
-169794.59
-316097.81
-453768.76
-442837.92
-532670.33
-550817.06
-475593.83
-308798.47
-171521.27
-162201.01
-371067.29
-709888.07
-795087.86
-525517.24
-197414.96
-60666.13
21144.925
134605.21
222813.05
272675.81
281600.26
265471.09
237434.86
205213.37
172686.08
141540.95
112321.12
85013.467
59343.488
34952.017
11385.791
-11929.725
8893.0181
14111.808
10334.897
3731.2449
9481.2783
28277.576
29899.253
23681.255
-3134.8149
-16024.024
38487.129
38651.332
34951.003
14016.676
11924.706
41784.818
26240.652
59302.859
48445.852
26520.736
34610.88
5677.9521
30454.307
111563.04
135537.14
45924.271
-28342.512
7520.6147
-10167.791
48967.275
111626.19
214229.27
89920.087
-82530.689
-183144.28
-168914.6
-115075.56
77737.368
225684.97
-34819.743
-179494.02
-65833.787
-80241.295
-176557.46
-321715.56
-466372.09
-496348.41
-517326.77
-482847.13
-472879.88
-305446.23
-169056.99
-161585.29
-396957.65
-778775.97
-874843.42
-539203.78
-133726.91
3420.3096
47139.539
134798.96
210134.01
254228.05
263440.49
249994.54
225038.86
195561.42
165280.11
135925.25
108135.43
81991.611
57300.023
33768.153
11000.47
8765.081
7710.9664
13988.173
10199.766
3850.2798
9869.5644
27953.925
29251.402
24474.452
-3750.3881
-16113.882
36903.948
37893.681
33751.453
14824.434
13195.43
41807.644
25995.378
57556.603
45286.388
24567.358
30350.501
10728.651
29156.052
105936.26
127901.64
39290.015
-29960.754
2799.9388
-18708.78
38559.632
107091.2
189722.28
76215.607
-91643.826
-195503.94
-168837.44
-107828.81
66728.411
233112.09
-49380.241
-189300.27
-74431.58
-107338.35
-275891.73
-383909.02
-453977.06
-528944.36
-515054.79
-483111.14
-441174.95
-315631.1
-169245.82
-170589.69
-419270.04
-809129.8
-957994.91
-529443.08
-68458.01
64960.435
67804.96
134194.21
198440.87
237498.62
246728.69
235502.63
213256.52
186277.4
158090.63
130435.01
104021.02
79009.103
55277.299
32594.096
10617.924
15493.677
9276.3349
13911.002
10126.191
3981.5844
10329.274
27715.267
28741.905
25385.093
-4557.9705
-17764.788
34741.716
37569.372
32796.619
15845.825
14932.108
41732.082
25255.887
55354.732
42217.594
23329.869
27025.992
17861.299
32370.844
99951.11
123527.73
30768.048
-32239.888
-1393.3526
-30488.914
34188.193
96925.487
147114.59
64578.085
-100055.76
-203749.36
-165409.78
-102058.68
55294.741
210943.87
-74211.171
-192473.73
-94273.26
-98310.543
-280241.56
-428228.75
-451476.37
-494557.07
-512485.66
-477184.8
-408686.35
-334636.31
-181164.41
-193907.63
-423989.33
-810777.35
-1347152.3
-517061.49
-5099.0401
122807.71
82908.363
132642.46
187560.33
222245.69
231316.2
221930.76
202068.55
177361.42
151124.37
125078.32
99985.259
76071.886
53279.602
31432.442
10239.04
6725.474
10250.765
13977.798
10095.589
4051.3369
10744.732
27485.98
28266.839
26189.085
-5577.4255
-18961.767
32370.759
37103.973
32019.645
16831.836
16428.891
41696.694
24918.647
52983.906
39359.179
22401.773
23597.737
25342.211
35914.475
92995.649
119718.45
22691.555
-34112.505
-6926.6079
-18423.484
16931.931
77559.873
80511.357
44626.318
-114570.03
-209119.75
-161785.88
-97520.856
52172.157
206853.5
-117512.21
-263889.86
-98935.706
-140253
-450954.5
-402376.68
-451594.9
-494590.79
-505173.39
-481469.31
-395775.74
-353833.2
-173874.37
-244778.13
-423184.27
-747947.49
-501062.17
-372569.1
5947.1715
144074.02
91976.085
129965.44
177271.39
208174.57
216986.06
209149.26
191404.05
168776.75
144363.49
119847.9
96026.74
73181.688
51310.082
30286.55
9866.4323
6646.7462
10108.217
14033.533
10110.715
4135.3628
11072.22
27214.709
27842.232
26959.925
-6848.7355
-20173.67
29631.622
36376.33
30974.941
17781.732
17765.024
41173.801
24698.947
50621.924
36132.59
20708.056
20101.245
32593.065
39643.33
84828.999
113180.98
11753.649
-40842.833
-10707.026
-21862.677
-8010.7491
56181.055
11209.129
18816.112
-133947.33
-215491.87
-159795.84
-92399.946
61131.953
195585.76
-137981.91
-284112.08
-161947.32
-305351.58
-467552.4
-362522.77
-405063.97
-465271.33
-511631.38
-514252.93
-448028.57
-400207.81
-172289.56
-259997.14
-379518.99
-517484.83
-327902.81
-218233.6
-9488.4895
127820.08
92636.558
126052.77
167458.92
195124.6
203622.92
197094.7
181232.95
160510.69
137803.31
114742.46
92145.338
70338.461
49368.186
29154.998
9497.5304
6815.4665
10335.58
14145.252
10081.181
4219.7783
11353.268
26875.84
27410.86
27573.583
-8362.388
-21783.872
26852.515
35560.947
29973.334
18644.754
18855.651
39683.147
24245.441
48641.904
29909.683
18120.472
17431.531
39977.575
40273.987
74831.477
101265.35
-100.09921
-52545.112
-13791.968
-13913.233
-19974.247
31048.587
-21612.298
-1353.2971
-149604.39
-227023.79
-162092.17
-83741.476
61980.391
163208.99
-126443.74
-270737.58
-235577.69
-342007.84
-436805.9
-362094.84
-364993.99
-422268.17
-504712.32
-566862.32
-620069.58
-493101.4
-203731.06
-220766
-363223.78
-486765.36
-360603.77
-211163.26
-31628.839
100291.19
89382.562
121261.17
158101.82
183024.73
191186.79
185762.49
171570.13
152584.47
131464.48
109779.24
88354.358
67551.827
47460.414
28041.795
9134.3967
7151.7969
10492.553
14221.43
10032.325
4311.6558
11595.177
26464.008
26951.413
28006.29
-10068.429
-23472.331
24365.046
34504.844
28936.26
19443.049
19437.266
38223.526
24299.207
47542.151
21581.854
13979.082
14142.394
44080.396
41112.389
66627.06
86280.118
-9424.3844
-57956.262
-14480.091
-7872.1507
-32557.123
982.33244
-48178.27
-11975.041
-162542.91
-235667.65
-158256.85
-74322.74
51854.83
137425.08
-128297.17
-269739.51
-196869.39
-309763.54
-405990.23
-355815.3
-363062.96
-426038
-495850.75
-571887.33
-778255.18
-625149.46
-220992.44
-170129.72
-348371.68
-430077.35
-330763.68
-196825.04
-35500.903
79643.241
85188.504
115956.56
149166.58
171765.96
179590.32
175102.54
162392.76
144990.71
125347.02
104961.27
84657.581
64825.28
45589.484
26948.647
8777.6011
7482.2795
10704.41
14250.4
9950.2164
4409.105
11804.083
26009.202
26468.786
28237.346
-11873.444
-25220.404
22318.767
33359.545
27956.521
20175.725
19793.768
37066.44
24488.837
47851.632
16198.608
8668.7923
9872.8312
45545.914
43810.248
62254.618
81070.148
-13338.488
-53548.722
-15027.642
-6817.039
-38590.531
-52734.776
-66466.541
-22028.198
-173645.65
-237812.52
-159365.42
-63109.684
51349.769
115647.13
-143908.01
-252039.66
-169158.04
-279006.8
-355639.52
-333193.02
-364717.06
-446896.58
-491537.77
-565934.19
-815788.44
-882250.38
-252669.5
-126990.18
-300824.05
-379756.04
-302639.37
-177555.27
-35397.715
64419.512
80520.893
110366.79
140631.78
161257.84
168756.33
165067.83
153677.74
137720.69
119449.63
100290.44
81057.969
62161.741
43757.729
25877.042
8427.6513
7886.3372
10814.594
14235.721
9859.2492
4534.0554
12000.92
25549.742
25964.812
28294.629
-13798.679
-26962.197
20747.827
31959.964
26951.543
21025.546
20023.86
36058.565
25533.354
49403.807
12609.393
7212.4
4342.5796
42286.602
44118.716
60251.799
77808.968
-12727.957
-45715.185
-15320.633
1331.8389
-42205.356
-60343.022
-66817.276
-37029.845
-186462.15
-244463.44
-159691.15
-61831.073
44071.792
94074.739
-148607.92
-264234.93
-181709.2
-245156.37
-341534.6
-327288.17
-375539.87
-456520.72
-475572.72
-576836.52
-924527.92
-969764.54
-323922.8
-76442.447
-238848.19
-332717.67
-272087.97
-158882.36
-35134.684
52531.718
75586.252
104644.09
132480.34
151424.56
158616.54
155614.55
145402.1
130764.71
113769.82
95767.668
77557.733
59563.593
41967.126
24828.264
8084.9922
8274.7172
11050.836
14182.864
9810.4008
4734.261
12209.204
25084.759
25447.017
28225.231
-15752.823
-28510.062
19338.27
30151.61
25615.91
21126.915
20084.854
35169.465
26701.588
50956.298
9503.8801
9273.6522
-1133.6498
38041.944
44327.242
59323.651
70293.752
-10064.251
-37069.129
-17839.342
-224.20194
-48587.849
-80974.556
-64018.091
-42838.127
-213874.1
-261392.79
-168544.35
-62080.373
40412.692
74766.516
-142014.64
-276538.2
-214273.7
-232310
-318670.49
-306856.47
-392719.16
-471561.54
-467250.74
-568661.63
-926060.58
-921172.73
-309090.23
8111.0977
-187332.51
-290250.87
-240854.96
-141730.76
-34427.053
43170.734
70589.556
98898.346
124697.86
142201.98
149110.55
146702.02
137543.29
124112.38
108304.18
91393.03
74158.411
57032.725
40219.321
23803.404
7750.0055
8722.0852
11127.373
14119.737
9886.4263
5073.6097
12437.77
24600.094
24923.971
28106.85
-17664.115
-30041.193
18343.713
28388.497
24061.944
20533.178
19896.534
34222.568
28575.19
51886.269
9497.9393
12530.618
-3320.3976
33260.067
47391.405
61486.168
63769.986
-5573.8757
-25558.879
-19074.654
3521.6115
-32290.932
-77536.978
-62091.47
-43601.682
-248942.83
-280156.43
-169204.9
-60133.894
40466.1
58579.454
-136532.46
-259311.37
-215568.42
-215784.92
-306639.43
-299389.66
-388583.22
-515590.92
-467711.01
-550493.3
-913687.27
-885439.89
-264808.04
36835.75
-155033.39
-253902.04
-210498.94
-125706.42
-33131.577
35798.436
65671.835
93209.001
117271.28
133535.34
140184.8
138292.67
130079.43
117752.91
103048.54
87165.856
70860.932
54570.572
38515.652
22803.369
7423.0135