/*--------------------------------*- C++ -*----------------------------------*\
| =========                 |                                                 |
| \\      /  F ield         | OpenFOAM: The Open Source CFD Toolbox           |
|  \\    /   O peration     | Version:  2.3.0                                 |
|   \\  /    A nd           | Web:      www.OpenFOAM.org                      |
|    \\/     M anipulation  |                                                 |
\*---------------------------------------------------------------------------*/
FoamFile
{
    version     2.0;
    format      ascii;
    class       surfaceScalarField;
    location    "6e-06";
    object      phi;
}
// * * * * * * * * * * * * * * * * * * * * * * * * * * * * * * * * * * * * * //

dimensions      [0 3 -1 0 0 0 0];

internalField   nonuniform List<scalar> 
14825
(
1.0347983e-09
-2.1036942e-11
1.0544339e-09
-1.9635622e-11
1.0747451e-09
-2.0311203e-11
1.0964536e-09
-2.170843e-11
1.1156547e-09
-1.9201126e-11
1.1374571e-09
-2.1802394e-11
1.1551194e-09
-1.7662272e-11
1.1779125e-09
-2.2793184e-11
1.1936811e-09
-1.5768593e-11
1.2156126e-09
-2.1931456e-11
1.2391028e-09
-2.3490165e-11
1.2533514e-09
-1.4248658e-11
1.2753057e-09
-2.1954288e-11
1.2929679e-09
-1.7662195e-11
1.3130673e-09
-2.0099368e-11
1.3329569e-09
-1.988964e-11
1.3518639e-09
-1.890704e-11
1.3695189e-09
-1.7654952e-11
1.3863125e-09
-1.6793608e-11
1.4095463e-09
-2.323382e-11
1.4250533e-09
-1.5506935e-11
1.4432208e-09
-1.8167544e-11
1.4599038e-09
-1.6683042e-11
1.4769775e-09
-1.7073661e-11
1.4961891e-09
-1.9211628e-11
1.5124585e-09
-1.6269392e-11
1.5324932e-09
-2.0034648e-11
1.5452451e-09
-1.2751887e-11
1.55977e-09
-1.4524958e-11
1.5832356e-09
-2.3465535e-11
1.5945973e-09
-1.1361738e-11
1.6089557e-09
-1.435841e-11
1.629651e-09
-2.0695312e-11
1.6392619e-09
-9.6108353e-12
1.6573917e-09
-1.8129875e-11
1.674574e-09
-1.7182237e-11
1.6842009e-09
-9.6269748e-12
1.7039296e-09
-1.9728638e-11
1.7191676e-09
-1.5237983e-11
1.7279118e-09
-8.7442728e-12
1.7377631e-09
-9.851299e-12
1.7554062e-09
-1.7643078e-11
1.7649999e-09
-9.5936667e-12
1.7757736e-09
-1.0773736e-11
1.7902133e-09
-1.443971e-11
1.8154384e-09
-2.5225084e-11
1.8421144e-09
-2.6676034e-11
1.8513611e-09
-9.2467001e-12
1.8354069e-09
1.5954201e-11
1.8485154e-09
-1.310843e-11
1.8767166e-09
-2.8201181e-11
1.9022082e-09
-2.5491695e-11
1.910569e-09
-8.3607785e-12
1.9037213e-09
6.8476903e-12
1.9037212e-09
1.7056607e-16
1.8907344e-09
1.2986784e-11
1.8833051e-09
7.4292361e-12
1.8286036e-09
5.4701585e-11
1.6304802e-09
1.9812336e-10
1.3134675e-09
3.1701275e-10
1.1738602e-09
1.3960722e-10
1.1082705e-09
6.5589763e-11
9.2381747e-10
1.84453e-10
7.1964805e-10
2.0416942e-10
5.5265438e-10
1.6699367e-10
4.296946e-10
1.2295978e-10
3.4209459e-10
8.760001e-11
2.8002988e-10
6.2064708e-11
2.3587597e-10
4.4153907e-11
2.043171e-10
3.1558868e-11
1.8180132e-10
2.2515779e-11
1.6600369e-10
1.5797631e-11
1.5543341e-10
1.057028e-11
1.491135e-10
6.319917e-12
2.1132017e-12
2.8634786e-09
-8.2549631e-11
2.9217785e-09
-7.793549e-11
2.9810097e-09
-7.9542386e-11
3.0448052e-09
-8.5503926e-11
3.1024617e-09
-7.6857655e-11
3.1660454e-09
-8.5386121e-11
3.2194452e-09
-7.1062074e-11
3.2858881e-09
-8.9236018e-11
3.3342243e-09
-6.4104825e-11
3.3991042e-09
-8.6811338e-11
3.468378e-09
-9.2764006e-11
3.5132116e-09
-5.9082269e-11
3.577365e-09
-8.6107619e-11
3.6306172e-09
-7.0914436e-11
3.6914156e-09
-8.0897765e-11
3.7515219e-09
-7.999593e-11
3.8091738e-09
-7.6559e-11
3.8621296e-09
-7.0610723e-11
3.9152247e-09
-6.9888701e-11
3.9848431e-09
-9.2852205e-11
4.0312294e-09
-6.1893214e-11
4.0867153e-09
-7.3653498e-11
4.1381442e-09
-6.8111894e-11
4.1916986e-09
-7.0628046e-11
4.2499708e-09
-7.7483861e-11
4.3008108e-09
-6.7109365e-11
4.361319e-09
-8.054288e-11
4.4032247e-09
-5.4657564e-11
4.4500054e-09
-6.1305659e-11
4.5190722e-09
-9.2532381e-11
4.557131e-09
-4.94205e-11
4.6049502e-09
-6.2177601e-11
4.6683191e-09
-8.4064269e-11
4.7002113e-09
-4.1502989e-11
4.7583843e-09
-7.6302894e-11
4.8181693e-09
-7.6967201e-11
4.8531483e-09
-4.4606009e-11
4.9058727e-09
-7.2453004e-11
4.9615886e-09
-7.0953948e-11
5.0003584e-09
-4.751404e-11
5.0356816e-09
-4.5174512e-11
5.0953896e-09
-7.7351032e-11
5.152458e-09
-6.6662133e-11
5.182583e-09
-4.0898742e-11
5.2152813e-09
-4.7137921e-11
5.276296e-09
-8.6239793e-11
5.3521871e-09
-1.0256713e-10
5.3977046e-09
-5.4764282e-11
5.4176105e-09
-3.9516445e-12
5.4428445e-09
-3.8342455e-11
5.5114783e-09
-9.6834988e-11
5.6299858e-09
-1.4399917e-10
5.7019142e-09
-8.0289204e-11
5.6880947e-09
2.06672e-11
5.6694165e-09
1.8678371e-11
5.6806779e-09
1.7253481e-12
5.65418e-09
3.3927135e-11
5.574983e-09
1.3389858e-10
5.3801596e-09
3.9294683e-10
4.983886e-09
7.1328636e-10
4.3136894e-09
8.0980375e-10
3.5077328e-09
8.715464e-10
2.7805997e-09
9.115861e-10
2.135651e-09
8.4911815e-10
1.6361681e-09
6.664765e-10
1.2728778e-09
4.8625008e-10
1.0146281e-09
3.4584971e-10
8.3170203e-10
2.4499082e-10
7.0155951e-10
1.7429642e-10
6.0855259e-10
1.2456578e-10
5.422396e-10
8.8828767e-11
4.9579237e-10
6.2244863e-11
4.6483884e-10
4.1523817e-11
4.4652185e-10
2.4636907e-11
7.8800996e-12
4.3678405e-09
-1.8228062e-10
4.4638971e-09
-1.7399206e-10
4.5592298e-09
-1.7487511e-10
4.6628358e-09
-1.8910989e-10
4.7587323e-09
-1.7275422e-10
4.8623144e-09
-1.8896816e-10
4.9526097e-09
-1.6135742e-10
5.0579974e-09
-1.9462374e-10
5.1405525e-09
-1.4665986e-10
5.249658e-09
-1.9591685e-10
5.3597729e-09
-2.0287896e-10
5.4341753e-09
-1.3348459e-10
5.5389947e-09
-1.9092709e-10
5.6299671e-09
-1.6188681e-10
5.7332774e-09
-1.8420803e-10
5.8330417e-09
-1.7976028e-10
5.9281551e-09
-1.7167235e-10
6.0124727e-09
-1.5492833e-10
6.1026569e-09
-1.6007298e-10
6.2188118e-09
-2.090071e-10
6.3026802e-09
-1.4576153e-10
6.3977222e-09
-1.6869551e-10
6.4865855e-09
-1.5697521e-10
6.5795435e-09
-1.6358605e-10
6.6785135e-09
-1.7645384e-10
6.7642248e-09
-1.5282069e-10
6.8585074e-09
-1.7482546e-10
6.9410671e-09
-1.3721723e-10
7.0235779e-09
-1.4381655e-10
7.1377583e-09
-2.0671275e-10
7.2155918e-09
-1.2725399e-10
7.2903407e-09
-1.3692651e-10
7.3956008e-09
-1.8932433e-10
7.4707718e-09
-1.1667403e-10
7.5577022e-09
-1.6323333e-10
7.6579556e-09
-1.7722057e-10
7.7460096e-09
-1.3265997e-10
7.8270275e-09
-1.5347095e-10
7.9078704e-09
-1.5179678e-10
8.0010201e-09
-1.4066381e-10
8.0680492e-09
-1.1220363e-10
8.1290162e-09
-1.38318e-10
8.2091987e-09
-1.4684459e-10
8.3044362e-09
-1.3613628e-10
8.3993534e-09
-1.4205511e-10
8.4846726e-09
-1.7155898e-10
8.5985741e-09
-2.1646859e-10
8.7009512e-09
-1.571414e-10
8.7728809e-09
-7.588141e-11
8.8092157e-09
-7.4677262e-11
8.919802e-09
-2.0742122e-10
9.1019356e-09
-3.2613276e-10
9.241928e-09
-2.202816e-10
9.258189e-09
4.4062077e-12
9.2546554e-09
2.2211879e-11
9.2551396e-09
1.2411717e-12
9.2539693e-09
3.5097484e-11
9.1501735e-09
2.3769441e-10
8.9256984e-09
6.1742183e-10
8.6186005e-09
1.0203843e-09
7.7223942e-09
1.70601e-09
6.1648287e-09
2.4291119e-09
4.660733e-09
2.4156818e-09
3.512323e-09
1.9975281e-09
2.6808342e-09
1.4979653e-09
2.0868033e-09
1.080281e-09
1.666138e-09
7.6651497e-10
1.3683302e-09
5.4279864e-10
1.1564155e-09
3.8621105e-10
1.0049445e-09
2.760368e-10
8.9698629e-10
1.9678698e-10
8.2148758e-10
1.3774358e-10
7.7138287e-10
9.1628523e-11
7.4206522e-10
5.3954554e-11
1.6472297e-11
5.5916932e-09
-3.1750308e-10
5.7242209e-09
-3.0651973e-10
5.8543814e-09
-3.0503561e-10
5.9942661e-09
-3.2899461e-10
6.1275412e-09
-3.060293e-10
6.2705027e-09
-3.319297e-10
6.3992387e-09
-2.9009341e-10
6.540037e-09
-3.3542206e-10
6.6548572e-09
-2.6148009e-10
6.8093113e-09
-3.5037089e-10
6.9585563e-09
-3.5212393e-10
7.0665966e-09
-2.4152498e-10
7.2098937e-09
-3.342242e-10
7.3373883e-09
-2.8938141e-10
7.4790148e-09
-3.2583445e-10
7.6159405e-09
-3.1668599e-10
7.7592663e-09
-3.149982e-10
7.8837827e-09
-2.7944467e-10
8.0075923e-09
-2.8388265e-10
8.1567247e-09
-3.5813942e-10
8.2737461e-09
-2.6278298e-10
8.4193976e-09
-3.14347e-10
8.5439035e-09
-2.8148116e-10
8.6798534e-09
-2.9953591e-10
8.8266946e-09
-3.2329507e-10
8.9516942e-09
-2.7782027e-10
9.0900871e-09
-3.1321831e-10
9.2044139e-09
-2.5154412e-10
9.3248988e-09
-2.643014e-10
9.4918419e-09
-3.7365585e-10
9.6002468e-09
-2.3565889e-10
9.7063696e-09
-2.4304926e-10
9.8588788e-09
-3.4183359e-10
9.9499286e-09
-2.0772381e-10
1.0091877e-08
-3.0518166e-10
1.0249173e-08
-3.345162e-10
1.0338992e-08
-2.2247945e-10
1.0494378e-08
-3.0885704e-10
1.0624407e-08
-2.8182515e-10
1.070282e-08
-2.1907719e-10
1.0873266e-08
-2.8264934e-10
1.1021212e-08
-2.8626474e-10
1.108709e-08
-2.1272237e-10
1.1220516e-08
-2.6956259e-10
1.135792e-08
-2.7945896e-10
1.1409055e-08
-2.2269368e-10
1.1523017e-08
-3.3043089e-10
1.1773753e-08
-4.0787725e-10
1.1949248e-08
-2.5137632e-10
1.1939395e-08
-6.4823765e-11
1.2082216e-08
-3.5024281e-10
1.2391818e-08
-6.3573446e-10
1.2597602e-08
-4.2606614e-10
1.2634359e-08
-3.2350672e-11
1.2642252e-08
1.431923e-11
1.2672936e-08
-2.9443207e-11
1.2686478e-08
2.1555481e-11
1.2580534e-08
3.4363846e-10
1.2297631e-08
9.0032493e-10
1.1949666e-08
1.3683491e-09
1.1199475e-08
2.4562013e-09
9.1522232e-09
4.4763639e-09
6.5320653e-09
5.0358397e-09
4.8314009e-09
3.6981925e-09
3.6795968e-09
2.6497695e-09
2.8672781e-09
1.8925996e-09
2.2937024e-09
1.3400907e-09
1.8878534e-09
9.4864765e-10
1.5989768e-09
6.7508769e-10
1.3924146e-09
4.8259894e-10
1.2452054e-09
3.4399619e-10
1.1423936e-09
2.4055545e-10
1.0744369e-09
1.5958516e-10
1.0351269e-09
9.3264571e-11
2.7105336e-11
6.5755122e-09
-4.8724398e-10
6.7417986e-09
-4.7280609e-10
6.9036524e-09
-4.6688942e-10
7.0768847e-09
-5.0222694e-10
7.2454953e-09
-4.7463989e-10
7.4219955e-09
-5.0842991e-10
7.596085e-09
-4.6418293e-10
7.7723641e-09
-5.1170116e-10
7.9148273e-09
-4.0394325e-10
8.1089869e-09
-5.4453052e-10
8.3005146e-09
-5.4365158e-10
8.4457752e-09
-3.8678563e-10
8.6229462e-09
-5.1139517e-10
8.7925792e-09
-4.590144e-10
8.9834399e-09
-5.1669518e-10
9.1522084e-09
-4.8545443e-10
9.325148e-09
-4.8793781e-10
9.4769429e-09
-4.3123956e-10
9.6422953e-09
-4.4923507e-10
9.8443411e-09
-5.6018524e-10
1.0010136e-08
-4.2857759e-10
1.0173234e-08
-4.7744507e-10
1.0328915e-08
-4.371628e-10
1.0520066e-08
-4.9068619e-10
1.0712661e-08
-5.1589062e-10
1.0884253e-08
-4.4941212e-10
1.1063737e-08
-4.9270239e-10
1.1208272e-08
-3.9607943e-10
1.1379984e-08
-4.3601247e-10
1.1596261e-08
-5.8993283e-10
1.1742852e-08
-3.822499e-10
1.1892026e-08
-3.9222375e-10
1.2068354e-08
-5.1816133e-10
1.2218894e-08
-3.5826379e-10
1.241224e-08
-4.9852828e-10
1.2562221e-08
-4.8449636e-10
1.2729394e-08
-3.896531e-10
1.2894182e-08
-4.7364469e-10
1.3012701e-08
-4.0034452e-10
1.3249663e-08
-4.5603915e-10
1.3354771e-08
-3.8775711e-10
1.3567285e-08
-4.9877857e-10
1.3867487e-08
-5.1292445e-10
1.3866493e-08
-2.6856885e-10
1.4090837e-08
-5.0380268e-10
1.4393747e-08
-5.2560351e-10
1.4399961e-08
-3.3664573e-10
1.4506243e-08
-5.1415899e-10
1.4756736e-08
-5.0186924e-10
1.4916436e-08
-2.245235e-10
1.5151414e-08
-5.8522125e-10
1.5431371e-08
-9.1569089e-10
1.5694286e-08
-6.889818e-10
1.5846603e-08
-1.8466742e-10
1.593434e-08
-7.3417507e-11
1.5997445e-08
-9.254802e-11
1.5976654e-08
4.2346507e-11
1.5928572e-08
3.9172054e-10
1.550914e-08
1.3197561e-09
1.5035596e-08
1.8418936e-09
1.4151559e-08
3.3402386e-09
1.1499938e-08
7.127984e-09
8.1899528e-09
8.3458253e-09
6.0581784e-09
5.829967e-09
4.6238575e-09
4.0840904e-09
3.6100482e-09
2.9064089e-09
2.8944674e-09
2.0556714e-09
2.3882673e-09
1.4548477e-09
2.0278076e-09
1.0355473e-09
1.769896e-09
7.4051056e-10
1.5860593e-09
5.2783295e-10
1.4578057e-09
3.6880897e-10
1.3733608e-09
2.4403005e-10
1.3250771e-09
1.4154832e-10
3.9040507e-11
7.3518584e-09
-6.8925578e-10
7.5478545e-09
-6.6880226e-10
7.7421784e-09
-6.6121326e-10
7.9490533e-09
-7.0910185e-10
8.1511816e-09
-6.767682e-10
8.3597721e-09
-7.1702041e-10
8.5696317e-09
-6.7404257e-10
8.7840835e-09
-7.2615294e-10
8.9591614e-09
-5.7902109e-10
9.1881587e-09
-7.735279e-10
9.4145457e-09
-7.7003851e-10
9.6106016e-09
-5.8284158e-10
9.8175183e-09
-7.1831186e-10
1.0011406e-08
-6.5290193e-10
1.024685e-08
-7.5213932e-10
1.0454791e-08
-6.9339583e-10
1.0662161e-08
-6.9530766e-10
1.0856156e-08
-6.252344e-10
1.1077391e-08
-6.7047029e-10
1.1307427e-08
-7.9022088e-10
1.1502102e-08
-6.2325231e-10
1.1717307e-08
-6.9265036e-10
1.1917764e-08
-6.3761992e-10
1.213005e-08
-7.0297185e-10
1.2364984e-08
-7.5082537e-10
1.2585048e-08
-6.6947526e-10
1.2814354e-08
-7.220091e-10
1.2993154e-08
-5.7487887e-10
1.3216517e-08
-6.5937564e-10
1.3473376e-08
-8.4679161e-10
1.3674105e-08
-5.8297903e-10
1.3865471e-08
-5.8358946e-10
1.4060247e-08
-7.1293763e-10
1.4264063e-08
-5.6208033e-10
1.4515349e-08
-7.4981396e-10
1.4737526e-08
-7.0667362e-10
1.496369e-08
-6.1581632e-10
1.5146328e-08
-6.562835e-10
1.5373131e-08
-6.2714679e-10
1.5565919e-08
-6.4882708e-10
1.5671803e-08
-4.936411e-10
1.5936468e-08
-7.6344362e-10
1.6167076e-08
-7.4353282e-10
1.6444817e-08
-5.4630947e-10
1.6590449e-08
-6.494347e-10
1.6842502e-08
-7.7765657e-10
1.7205073e-08
-6.9921701e-10
1.7283971e-08
-5.9305715e-10
1.7556013e-08
-7.7391114e-10
1.7991351e-08
-6.5986152e-10
1.7934731e-08
-5.2860109e-10
1.8064555e-08
-1.0455154e-09
1.8701657e-08
-1.3260837e-09
1.8897445e-08
-3.8045513e-10
1.8868626e-08
-4.4598895e-11
1.9177002e-08
-4.0092412e-10
1.9410176e-08
-1.9082677e-10
1.9294981e-08
5.0691546e-10
1.8749215e-08
1.8655215e-09
1.822008e-08
2.3710293e-09
1.6454464e-08
5.1058539e-09
1.295117e-08
1.0631279e-08
9.5293236e-09
1.1767672e-08
7.1776367e-09
8.1816538e-09
5.5084137e-09
5.7533135e-09
4.3115843e-09
4.1032383e-09
3.4659082e-09
2.9013475e-09
2.8677816e-09
2.0529743e-09
2.4416162e-09
1.4617127e-09
2.1364164e-09
1.0457104e-09
1.9187728e-09
7.4547657e-10
1.7670628e-09
5.2051893e-10
1.6675465e-09
3.435464e-10
1.6113133e-09
1.9778151e-10
5.1582733e-11
7.9517224e-09
-9.2274162e-10
8.1746173e-09
-8.9169718e-10
8.4002798e-09
-8.8687571e-10
8.6420773e-09
-9.5089942e-10
8.8723738e-09
-9.0706466e-10
9.1088533e-09
-9.5349993e-10
9.3629337e-09
-9.2812295e-10
9.6051856e-09
-9.6840484e-10
9.8105761e-09
-7.844116e-10
1.0081038e-08
-1.0439901e-09
1.0335071e-08
-1.0240717e-09
1.0571304e-08
-8.1907406e-10
1.0807647e-08
-9.5465454e-10
1.1033305e-08
-8.7855996e-10
1.1306417e-08
-1.0252514e-09
1.1557477e-08
-9.4445612e-10
1.1801204e-08
-9.390347e-10
1.2025998e-08
-8.5002822e-10
1.2295878e-08
-9.4035088e-10
1.2580831e-08
-1.0751732e-09
1.2811722e-08
-8.5414385e-10
1.3065149e-08
-9.4607693e-10
1.330986e-08
-8.8233112e-10
1.3581885e-08
-9.7499661e-10
1.3804629e-08
-9.7356949e-10
1.4054667e-08
-9.1951353e-10
1.4358406e-08
-1.0257476e-09
1.4592719e-08
-8.0919262e-10
1.4844975e-08
-9.1163134e-10
1.5152886e-08
-1.1547026e-09
1.5415939e-08
-8.4603196e-10
1.5640747e-08
-8.0839785e-10
1.5857715e-08
-9.2990558e-10
1.6125047e-08
-8.2941235e-10
1.6418472e-08
-1.0432388e-09
1.6705395e-08
-9.9359642e-10
1.698609e-08
-8.9651078e-10
1.719745e-08
-8.6764423e-10
1.745348e-08
-8.8317663e-10
1.7755882e-08
-9.5122936e-10
1.7996963e-08
-7.3472186e-10
1.8208505e-08
-9.7498496e-10
1.852816e-08
-1.0631878e-09
1.8827701e-08
-8.4585077e-10
1.9001803e-08
-8.2353651e-10
1.9172544e-08
-9.4839825e-10
1.9377849e-08
-9.045213e-10
1.9894109e-08
-1.1093177e-09
2.0083069e-08
-9.628713e-10
2.0533653e-08
-1.1104449e-09
2.1102914e-08
-1.0978621e-09
2.1087468e-08
-1.0300693e-09
2.1172015e-08
-1.4106313e-09
2.1552539e-08
-7.6097899e-10
2.1702362e-08
-1.9442199e-10
2.1693681e-08
-3.9224266e-10
2.2387532e-08
-8.8467837e-10
2.2560145e-08
3.3430239e-10
2.1979467e-08
2.4461997e-09
2.0727767e-08
3.6227297e-09
1.7919822e-08
7.9137991e-09
1.3580792e-08
1.4970308e-08
1.0587614e-08
1.476085e-08
8.1913149e-09
1.0577953e-08
6.3305509e-09
7.6140775e-09
4.9689287e-09
5.4648606e-09
4.0057766e-09
3.8644996e-09
3.324794e-09
2.7339568e-09
2.8392373e-09
1.9472694e-09
2.4910858e-09
1.3938619e-09
2.2426236e-09
9.9393869e-10
2.0695381e-09
6.9360452e-10
1.9564102e-09
4.5667422e-10
1.8932527e-09
2.609391e-10
6.4082037e-11
8.3979156e-09
-1.1839503e-09
8.652245e-09
-1.1460266e-09
8.9008129e-09
-1.1354436e-09
9.1758728e-09
-1.2259593e-09
9.4478504e-09
-1.1790422e-09
9.696058e-09
-1.2017076e-09
9.9825533e-09
-1.2146182e-09
1.0275855e-08
-1.2617061e-09
1.0501283e-08
-1.0098398e-09
1.0789434e-08
-1.332141e-09
1.1082493e-08
-1.3171314e-09
1.1357711e-08
-1.0942916e-09
1.1638e-08
-1.2349437e-09
1.1900137e-08
-1.1406967e-09
1.2202659e-08
-1.3277735e-09
1.2494925e-08
-1.2367223e-09
1.2795574e-08
-1.2396832e-09
1.3051743e-08
-1.1061974e-09
1.3351381e-08
-1.2399894e-09
1.3660129e-08
-1.3839212e-09
1.3928811e-08
-1.1228259e-09
1.420732e-08
-1.224586e-09
1.4507388e-08
-1.1823989e-09
1.4854252e-08
-1.3218606e-09
1.5126538e-08
-1.2458551e-09
1.5400648e-08
-1.1936241e-09
1.5725208e-08
-1.3503073e-09
1.5990799e-08
-1.0747835e-09
1.6307166e-08
-1.2279985e-09
1.6633133e-08
-1.4806697e-09
1.697509e-08
-1.1879885e-09
1.7233266e-08
-1.0665738e-09
1.7488978e-08
-1.1856183e-09
1.7807212e-08
-1.1476457e-09
1.8154126e-08
-1.390153e-09
1.8516372e-08
-1.3558423e-09
1.8820634e-08
-1.2007735e-09
1.9067708e-08
-1.1147181e-09
1.9385903e-08
-1.2013711e-09
1.9711657e-08
-1.2769831e-09
1.9995825e-08
-1.0188899e-09
2.0349992e-08
-1.3291521e-09
2.0735569e-08
-1.4487646e-09
2.1012761e-08
-1.123043e-09
2.1397851e-08
-1.208627e-09
2.158555e-08
-1.1360968e-09
2.1807917e-08
-1.1268881e-09
2.216409e-08
-1.4654916e-09
2.2510975e-08
-1.3097556e-09
2.2908954e-08
-1.5084241e-09
2.3303759e-08
-1.4926669e-09
2.399433e-08
-1.7206406e-09
2.4051298e-08
-1.4675997e-09
2.4359033e-08
-1.0687133e-09
2.463868e-08
-4.7406914e-10
2.4454735e-08
-2.0829732e-10
2.4810184e-08
-1.2401278e-09
2.4855897e-08
2.8858939e-10
2.4363228e-08
2.9388684e-09
2.3073554e-08
4.9124037e-09
1.9423973e-08
1.156338e-08
1.5340855e-08
1.9053426e-08
1.1862984e-08
1.8238721e-08
9.1766341e-09
1.3264302e-08
7.0966633e-09
9.6940483e-09
5.5801955e-09
6.9813284e-09
4.5121292e-09
4.9325659e-09
3.7578975e-09
3.4881885e-09
3.2196406e-09
2.4855263e-09
2.8331031e-09
1.7803995e-09
2.5569478e-09
1.270094e-09
2.3646441e-09
8.8590821e-10
2.2393972e-09
5.8192107e-10
2.1703362e-09
3.3000018e-10
7.5933502e-11
8.7147941e-09
-1.4710364e-09
8.996036e-09
-1.4272685e-09
9.2768277e-09
-1.4162353e-09
9.5715063e-09
-1.5206379e-09
9.8721621e-09
-1.4796981e-09
1.0148433e-08
-1.4779784e-09
1.0449819e-08
-1.5160038e-09
1.0793184e-08
-1.6050712e-09
1.1068871e-08
-1.2855268e-09
1.1371588e-08
-1.6348589e-09
1.1693496e-08
-1.6390394e-09
1.2009753e-08
-1.4105478e-09
1.2312598e-08
-1.5377894e-09
1.2634092e-08
-1.4621902e-09
1.295342e-08
-1.6471012e-09
1.3254957e-08
-1.5382601e-09
1.3621768e-08
-1.6064941e-09
1.3930902e-08
-1.415331e-09
1.4254064e-08
-1.5631518e-09
1.4609219e-08
-1.7390758e-09
1.4922251e-08
-1.4358576e-09
1.5206143e-08
-1.5084783e-09
1.5539774e-08
-1.5160304e-09
1.5958041e-08
-1.7401274e-09
1.6257322e-08
-1.5451362e-09
1.6588174e-08
-1.5244758e-09
1.6986369e-08
-1.7485023e-09
1.726288e-08
-1.3512944e-09
1.7594504e-08
-1.5596227e-09
1.8011159e-08
-1.8973241e-09
1.8347024e-08
-1.5238533e-09
1.8640224e-08
-1.3597743e-09
1.8978648e-08
-1.5240422e-09
1.9346363e-08
-1.5153607e-09
1.9750935e-08
-1.7947247e-09
2.0182036e-08
-1.7869432e-09
2.0531063e-08
-1.5498008e-09
2.0806247e-08
-1.3899021e-09
2.1171691e-08
-1.5668154e-09
2.1576708e-08
-1.6819995e-09
2.1874919e-08
-1.3171009e-09
2.2269045e-08
-1.7232785e-09
2.2689973e-08
-1.8696924e-09
2.2956182e-08
-1.3892519e-09
2.332806e-08
-1.5805049e-09
2.3725668e-08
-1.5337052e-09
2.4078598e-08
-1.4798181e-09
2.4545959e-08
-1.9328527e-09
2.5120513e-08
-1.8843088e-09
2.5354519e-08
-1.7424307e-09
2.5626192e-08
-1.76434e-09
2.6195907e-08
-2.2903556e-09
2.6392627e-08
-1.6643191e-09
2.680547e-08
-1.4815569e-09
2.7537544e-08
-1.2061427e-09
2.8071413e-08
-7.4216679e-10
2.7443463e-08
-6.1217769e-10
2.7271836e-08
4.6021703e-10
2.6302149e-08
3.9085554e-09
2.3333162e-08
7.8813902e-09
1.8563272e-08
1.633327e-08
1.5709748e-08
2.1906951e-08
1.2650235e-08
2.1298234e-08
1.0015469e-08
1.5899069e-08
7.7909709e-09
1.1918546e-08
6.1417832e-09
8.6305161e-09
4.9831266e-09
6.0912225e-09
4.1658807e-09
4.3054345e-09
3.5819411e-09
3.0694658e-09
3.1617646e-09
2.200576e-09
2.8611454e-09
1.5707132e-09
2.6518375e-09
1.0952162e-09
2.5159849e-09
7.1777361e-10
2.4420313e-09
4.0395382e-10
8.6577452e-11
8.9297234e-09
-1.7899797e-09
9.2233138e-09
-1.7208588e-09
9.5332189e-09
-1.7261405e-09
9.8527329e-09
-1.8401519e-09
1.017078e-08
-1.7977451e-09
1.0483256e-08
-1.7904541e-09
1.0812581e-08
-1.8453289e-09
1.1185959e-08
-1.9784499e-09
1.1522921e-08
-1.6224884e-09
1.18377e-08
-1.949638e-09
1.2161287e-08
-1.9626263e-09
1.2534552e-08
-1.7838125e-09
1.287039e-08
-1.8736281e-09
1.3252891e-08
-1.8446903e-09
1.3593031e-08
-1.9872414e-09
1.388803e-08
-1.8332591e-09
1.4304711e-08
-2.0231758e-09
1.4687143e-08
-1.7977621e-09
1.5022295e-08
-1.8983042e-09
1.5388265e-08
-2.1050463e-09
1.5764523e-08
-1.8121154e-09
1.6104187e-08
-1.8481421e-09
1.6482803e-08
-1.8946468e-09
1.6948718e-08
-2.2060418e-09
1.7274361e-08
-1.8707798e-09
1.7607667e-08
-1.8577811e-09
1.805265e-08
-2.1934861e-09
1.8434866e-08
-1.7335095e-09
1.8796649e-08
-1.9214058e-09
1.9215157e-08
-2.3158329e-09
1.9639951e-08
-1.9486471e-09
1.9949976e-08
-1.6697994e-09
2.0366755e-08
-1.9408205e-09
2.0788481e-08
-1.9370874e-09
2.1181168e-08
-2.1874112e-09
2.159867e-08
-2.2044458e-09
2.2108497e-08
-2.059627e-09
2.2410863e-08
-1.6922686e-09
2.2832255e-08
-1.9882073e-09
2.3343828e-08
-2.1935726e-09
2.3678488e-08
-1.6517612e-09
2.4143063e-08
-2.1878529e-09
2.4524147e-08
-2.2507763e-09
2.4828671e-08
-1.6937758e-09
2.5213339e-08
-1.9651739e-09
2.5666364e-08
-1.9867298e-09
2.6007555e-08
-1.8210092e-09
2.6492897e-08
-2.4181942e-09
2.7025172e-08
-2.4165841e-09
2.799292e-08
-2.7101793e-09
2.8524869e-08
-2.2962888e-09
2.8891472e-08
-2.6569588e-09
2.8846532e-08
-1.6193783e-09
2.9072699e-08
-1.7077249e-09
2.9673558e-08
-1.8070008e-09
3.059479e-08
-1.6633993e-09
3.1292846e-08
-1.3102338e-09
3.0753555e-08
9.9950886e-10
2.8422076e-08
6.2400336e-09
2.4355704e-08
1.1947763e-08
1.8541694e-08
2.2147279e-08
1.5460801e-08
2.4987843e-08
1.3194062e-08
2.3564973e-08
1.0776568e-08
1.8316563e-08
8.4220872e-09
1.4273026e-08
6.6525771e-09
1.0400026e-08
5.4173497e-09
7.3264499e-09
4.5477602e-09
5.175024e-09
3.9254096e-09
3.6918164e-09
3.47647e-09
2.6495155e-09
3.1546855e-09
1.8924977e-09
2.9306225e-09
1.3192792e-09
2.7856865e-09
8.6270955e-10
2.7078358e-09
4.8180456e-10
9.5500081e-11
9.0478053e-09
-2.1348767e-09
9.3486371e-09
-2.0216906e-09
9.700605e-09
-2.0781084e-09
1.0032481e-08
-2.1720275e-09
1.037699e-08
-2.1422549e-09
1.0731837e-08
-2.1453007e-09
1.1072274e-08
-2.1857661e-09
1.1462526e-08
-2.3687013e-09
1.1845231e-08
-2.0051943e-09
1.2190725e-08
-2.2951311e-09
1.2532895e-08
-2.3047967e-09
1.2951609e-08
-2.2025262e-09
1.3330783e-08
-2.2528021e-09
1.3756351e-08
-2.2702588e-09
1.4113829e-08
-2.3447194e-09
1.4446915e-08
-2.166345e-09
1.488137e-08
-2.4576304e-09
1.5304424e-08
-2.220816e-09
1.5668105e-08
-2.2619855e-09
1.6042984e-08
-2.4799253e-09
1.6506784e-08
-2.2759147e-09
1.6892758e-08
-2.2341166e-09
1.7286798e-08
-2.2886873e-09
1.78095e-08
-2.7287437e-09
1.8191229e-08
-2.2525084e-09
1.8548664e-08
-2.2152168e-09
1.9026696e-08
-2.6715172e-09
1.9414208e-08
-2.1210221e-09
1.9879022e-08
-2.3862193e-09
2.0330964e-08
-2.7677752e-09
2.069023e-08
-2.3079129e-09
2.1103186e-08
-2.0827559e-09
2.1619979e-08
-2.4576136e-09
2.2118868e-08
-2.4359759e-09
2.2477811e-08
-2.5463547e-09
2.3003139e-08
-2.7297739e-09
2.3452187e-08
-2.5086746e-09
2.3761246e-08
-2.0013271e-09
2.4334191e-08
-2.5611527e-09
2.4928331e-08
-2.7877123e-09
2.5292125e-08
-2.0155558e-09
2.571488e-08
-2.6106078e-09
2.635097e-08
-2.8868659e-09
2.6754733e-08
-2.0975394e-09
2.6995856e-08
-2.2062969e-09
2.7517812e-08
-2.5086854e-09
2.7935775e-08
-2.2389722e-09
2.8373841e-08
-2.8562602e-09
2.9349385e-08
-3.3921284e-09
3.0172154e-08
-3.5329477e-09
3.0451495e-08
-2.5756296e-09
3.1108716e-08
-3.3141802e-09
3.1683504e-08
-2.1941664e-09
3.2118171e-08
-2.1423917e-09
3.2158417e-08
-1.8472472e-09
3.3148971e-08
-2.6539527e-09
3.378173e-08
-1.9429936e-09
3.3104902e-08
1.6763377e-09
3.2312632e-08
7.0323036e-09
2.9597811e-08
1.4662583e-08
2.6036761e-08
2.570833e-08
1.8039603e-08
3.2985001e-08
1.4331092e-08
2.7273485e-08
1.1631721e-08
2.1015933e-08
9.0092104e-09
1.6895538e-08
7.1120997e-09
1.2297137e-08
5.8136064e-09
8.6249432e-09
4.9027775e-09
6.0858528e-09
4.249479e-09
4.3451149e-09
3.7767264e-09
3.1222682e-09
3.4371091e-09
2.232115e-09
3.2005538e-09
1.5558344e-09
3.0480537e-09
1.0152097e-09
2.9672799e-09
5.6257836e-10
1.0223373e-10
9.0861419e-09
-2.5021806e-09
9.3941578e-09
-2.3297064e-09
9.7883638e-09
-2.4723145e-09
1.013267e-08
-2.5163338e-09
1.050095e-08
-2.5105346e-09
1.0899303e-08
-2.5436536e-09
1.124148e-08
-2.5279439e-09
1.1641726e-08
-2.7689472e-09
1.2072854e-08
-2.4363223e-09
1.2443146e-08
-2.6654229e-09
1.2856783e-08
-2.7184341e-09
1.3287018e-08
-2.6327605e-09
1.3681735e-08
-2.6475191e-09
1.4146183e-08
-2.7347076e-09
1.4512208e-08
-2.7107441e-09
1.4935584e-08
-2.5897207e-09
1.5348271e-08
-2.8703175e-09
1.5787378e-08
-2.6599229e-09
1.6218892e-08
-2.6934996e-09
1.6615602e-08
-2.8766351e-09
1.7174467e-08
-2.8347795e-09
1.7578028e-08
-2.6376783e-09
1.7975296e-08
-2.6859553e-09
1.8524599e-08
-3.2780468e-09
1.893764e-08
-2.6655487e-09
1.9428443e-08
-2.7060203e-09
1.9923103e-08
-3.1661771e-09
2.0263354e-08
-2.4612725e-09
2.0781828e-08
-2.9046938e-09
2.1252795e-08
-3.2387425e-09
2.1699662e-08
-2.7547799e-09
2.212192e-08
-2.5050138e-09
2.2672514e-08
-3.0082071e-09
2.3220318e-08
-2.9837804e-09
2.3545106e-08
-2.8711426e-09
2.4125053e-08
-3.3097207e-09
2.4818762e-08
-3.2023837e-09
2.5113624e-08
-2.2961892e-09
2.5452672e-08
-2.9002002e-09
2.6195282e-08
-3.5303232e-09
2.6664018e-08
-2.4842912e-09
2.7169726e-08
-3.116316e-09
2.7856476e-08
-3.5736158e-09
2.8471591e-08
-2.7126548e-09
2.889104e-08
-2.6257452e-09
2.8593993e-08
-2.2116386e-09
3.0547155e-08
-4.1921347e-09
3.1944282e-08
-4.2533873e-09
3.3663622e-08
-5.1114677e-09
3.5025536e-08
-4.8948617e-09
3.166744e-08
7.824656e-10
2.9395996e-08
-1.0427357e-09
3.2767732e-08
-5.5659026e-09
3.4988706e-08
-4.3633655e-09
3.5112299e-08
-1.9708399e-09
3.6329248e-08
-3.8709019e-09
3.687756e-08
-2.4913062e-09
3.6345059e-08
2.2088388e-09
3.5201352e-08
8.1760112e-09
3.3628755e-08
1.623518e-08
3.3546026e-08
2.5791059e-08
2.9774923e-08
3.6756105e-08
1.9174864e-08
3.7873543e-08
1.3074483e-08
2.7116314e-08
9.5900856e-09
2.0379935e-08
7.5193109e-09
1.4367912e-08
6.1707825e-09
9.9734716e-09
5.2304064e-09
7.0262288e-09
4.5537528e-09
5.0217686e-09
4.0621523e-09
3.6138686e-09
3.7080314e-09
2.5862359e-09
3.4612389e-09
1.802627e-09
3.3026784e-09
1.1737702e-09
3.2199284e-09
6.4532834e-10
1.0635707e-10
9.0432512e-09
-2.8740815e-09
9.3958668e-09
-2.682322e-09
9.8112239e-09
-2.8876715e-09
1.0175474e-08
-2.8805834e-09
1.0563575e-08
-2.898636e-09
1.0971907e-08
-2.9519858e-09
1.1344249e-08
-2.9002856e-09
1.1752445e-08
-3.1771432e-09
1.2237428e-08
-2.9213053e-09
1.2622836e-08
-3.0508311e-09
1.3100365e-08
-3.1959624e-09
1.3525033e-08
-3.0574289e-09
1.3935329e-08
-3.0578151e-09
1.4443894e-08
-3.2432727e-09
1.4799916e-08
-3.0667662e-09
1.5330255e-08
-3.1200596e-09
1.5720415e-08
-3.2604775e-09
1.617576e-08
-3.1152675e-09
1.6724797e-08
-3.2425365e-09
1.71034e-08
-3.2552389e-09
1.7712234e-08
-3.4436133e-09
1.8159663e-08
-3.0851067e-09
1.8546426e-08
-3.0727189e-09
1.9122214e-08
-3.8538341e-09
1.9575206e-08
-3.1185411e-09
2.0128718e-08
-3.2595322e-09
2.0640041e-08
-3.6775004e-09
2.0991286e-08
-2.8125173e-09
2.1517233e-08
-3.4306408e-09
2.1945466e-08
-3.6669756e-09
2.2518032e-08
-3.3273454e-09
2.303206e-08
-3.0190424e-09
2.3393959e-08
-3.3701054e-09
2.3993464e-08
-3.5832857e-09
2.4531508e-08
-3.4091863e-09
2.4982036e-08
-3.760249e-09
2.550513e-08
-3.7254775e-09
2.5925409e-08
-2.7164688e-09
2.6625277e-08
-3.6000677e-09
2.7292775e-08
-4.1978213e-09
2.7938667e-08
-3.1301829e-09
2.8355915e-08
-3.5335641e-09
2.9188982e-08
-4.4066826e-09
2.9477371e-08
-3.0010438e-09
2.9900386e-08
-3.0487601e-09
3.1770652e-08
-4.0819046e-09
3.2677141e-08
-5.0986238e-09
3.6557016e-08
-8.1332629e-09
3.7038591e-08
-5.5930424e-09
4.2592954e-08
-1.0449225e-08
4.516602e-08
-1.7905995e-09
3.5207979e-08
8.9153045e-09
3.507498e-08
-5.4329032e-09
3.8774758e-08
-8.0631434e-09
3.9784852e-08
-2.980934e-09
4.0164192e-08
-4.2502417e-09
4.3201476e-08
-5.5285899e-09
4.0663304e-08
4.7470104e-09
3.8455102e-08
1.0384213e-08
3.7119707e-08
1.7570575e-08
3.6854697e-08
2.6056068e-08
3.5712351e-08
3.7898451e-08
2.6430296e-08
4.7155599e-08
1.4869746e-08
3.8676864e-08
1.0065645e-08
2.5184037e-08
7.8592578e-09
1.6574298e-08
6.487146e-09
1.1345583e-08
5.5303531e-09
7.9830218e-09
4.8380115e-09
5.7141101e-09
4.3324798e-09
4.1194004e-09
3.9671435e-09
2.9515722e-09
3.7123388e-09
2.0574317e-09
3.5491945e-09
1.3369145e-09
3.4653823e-09
7.291405e-10
1.07495e-10
8.9428288e-09
-3.2454048e-09
9.3584446e-09
-3.0979379e-09
9.7689059e-09
-3.2981328e-09
1.0144276e-08
-3.255954e-09
1.0565907e-08
-3.3202661e-09
1.0968514e-08
-3.3545933e-09
1.1400496e-08
-3.332268e-09
1.1833489e-08
-3.6101355e-09
1.2337484e-08
-3.4253007e-09
1.2759267e-08
-3.4726137e-09
1.324761e-08
-3.6843053e-09
1.3667078e-08
-3.4768977e-09
1.4125346e-08
-3.5160823e-09
1.4651313e-08
-3.7692401e-09
1.5038054e-08
-3.4535068e-09
1.5623107e-08
-3.7051134e-09
1.6042252e-08
-3.6796219e-09
1.6529339e-08
-3.6023547e-09
1.7123239e-08
-3.8364365e-09
1.7510623e-08
-3.6426236e-09
1.807434e-08
-4.0073298e-09
1.8591508e-08
-3.6022747e-09
1.9026687e-08
-3.5078983e-09
1.9500768e-08
-4.3279151e-09
2.011178e-08
-3.7295525e-09
2.0583155e-08
-3.7309075e-09
2.1066619e-08
-4.1609646e-09
2.1583071e-08
-3.3289693e-09
2.1996001e-08
-3.8435709e-09
2.2393405e-08
-4.0643792e-09
2.3160147e-08
-4.094088e-09
2.3576509e-08
-3.4354036e-09
2.3668298e-08
-3.4618947e-09
2.4730862e-08
-4.6458495e-09
2.5339764e-08
-4.0180888e-09
2.5143008e-08
-3.563493e-09
2.5997495e-08
-4.5799648e-09
2.4286806e-08
-1.0057791e-09
2.502572e-08
-4.3389821e-09
2.9182323e-08
-8.3544241e-09
2.7935186e-08
-1.883046e-09
2.9218849e-08
-4.8172269e-09
2.9016784e-08
-4.2046179e-09
2.5509499e-08
5.0624153e-10
2.8870984e-08
-6.4102452e-09
3.3716964e-08
-8.9278849e-09
3.851135e-08
-9.8930097e-09
4.1487179e-08
-1.1109092e-08
4.180303e-08
-5.9088932e-09
4.2340175e-08
-1.098637e-08
4.5609031e-08
-5.0594556e-09
4.4184189e-08
1.0340146e-08