/*--------------------------------*- C++ -*----------------------------------*\
| =========                 |                                                 |
| \\      /  F ield         | OpenFOAM: The Open Source CFD Toolbox           |
|  \\    /   O peration     | Version:  2.3.0                                 |
|   \\  /    A nd           | Web:      www.OpenFOAM.org                      |
|    \\/     M anipulation  |                                                 |
\*---------------------------------------------------------------------------*/
FoamFile
{
    version     2.0;
    format      ascii;
    class       volVectorField;
    location    "6e-06";
    object      U;
}
// * * * * * * * * * * * * * * * * * * * * * * * * * * * * * * * * * * * * * //

dimensions      [0 1 -1 0 0 0 0];

internalField   nonuniform List<vector> 
7500
(
(459.95649 0.040066262 3.9883255e-17)
(459.98604 0.040689679 3.5830156e-15)
(460.64804 -0.11330437 2.7139364e-15)
(459.50546 0.033773637 -1.3583311e-16)
(459.93584 -0.040473838 3.3255096e-15)
(460.3501 -0.041203896 5.8923872e-15)
(460.27744 0.078489111 2.1590419e-15)
(460.28163 -0.10692727 4.8840968e-15)
(459.26945 0.17810058 4.4220392e-15)
(459.59504 -0.11430935 1.7616574e-15)
(460.15121 -0.053920038 2.0895855e-15)
(460.06521 0.17037947 -1.6358736e-15)
(460.03322 -0.1109571 1.4418387e-15)
(459.08178 0.055021217 6.3540112e-16)
(459.52004 -0.05025297 1.9297096e-15)
(460.91536 -0.028183568 8.3009957e-16)
(459.3626 0.028179009 1.2193752e-15)
(459.88624 0.036248791 -1.1351293e-15)
(460.19797 0.016395969 7.1916742e-16)
(458.67916 -0.13100072 1.3982824e-15)
(461.03759 0.068981025 -1.4089009e-15)
(459.87841 0.0074026473 8.7260071e-16)
(458.49746 0.042650962 6.1991225e-16)
(460.62966 0.035868973 -6.6865715e-16)
(460.03711 -0.11657722 4.6793559e-16)
(459.15737 0.036344982 9.0800465e-16)
(459.05531 -0.0046728237 9.9871292e-16)
(459.57289 0.0052024765 -1.7279302e-15)
(460.63185 0.042508729 -9.5689151e-16)
(459.39422 -0.11137823 2.5116339e-15)
(459.34436 0.10798236 -6.4473163e-16)
(459.78393 -0.010456054 1.3466344e-15)
(458.33915 -0.01213401 1.0285964e-15)
(459.67247 -0.0011277778 -1.4610765e-15)
(459.9351 -0.10739421 1.6443145e-16)
(459.18479 0.24393626 6.005975e-16)
(460.34029 -0.14609232 -1.8949216e-15)
(460.40177 -0.16464347 1.0516069e-15)
(460.98006 0.34408359 1.4273816e-15)
(460.02501 -0.18484427 3.2697948e-16)
(460.25372 -0.02747081 1.4407348e-15)
(460.80223 0.42506053 4.4649605e-16)
(461.34009 -0.41977679 3.0732575e-15)
(460.73407 0.25218647 2.1280634e-15)
(459.92303 0.2551863 2.1105804e-16)
(462.18389 -0.82066002 -1.2258926e-15)
(464.80069 -0.019271289 -1.5180886e-15)
(465.1318 -0.050587558 -1.0548502e-15)
(462.58831 0.69985669 6.7521416e-16)
(460.56803 -0.053111775 -2.861477e-16)
(464.58161 -0.47207168 1.0466716e-15)
(471.9652 -0.14100743 2.993644e-15)
(473.0347 0.28652648 9.9338802e-16)
(468.9921 0.34188435 -1.1172755e-17)
(464.86465 -0.043915455 8.8471859e-16)
(462.91671 0.95342844 -1.3421867e-15)
(462.3509 0.46675443 6.9013369e-16)
(461.06755 1.7011256 -4.2447504e-16)
(444.3051 6.075478 -1.6535872e-15)
(344.34739 9.4666464 -4.2235071e-15)
(267.62171 0.64732523 -1.5113748e-15)
(271.91847 -0.69222327 -6.8311082e-17)
(240.73623 3.5666587 -2.9096022e-16)
(190.82613 4.5096183 -5.1755404e-16)
(146.53842 3.7681304 -2.0377099e-16)
(113.00463 2.7892882 1.7494887e-16)
(88.813487 1.9890562 -3.7463018e-17)
(71.612355 1.4080774 -1.5748895e-17)
(59.376854 0.99997318 -7.6860311e-17)
(50.63417 0.71321473 -1.653552e-16)
(44.375829 0.50783881 5.6041715e-18)
(39.933589 0.35582984 2.1757363e-16)
(36.859473 0.23807818 4.3028773e-17)
(34.910717 0.14267788 -2.7068567e-17)
(33.678112 0.049305805 7.3643544e-17)
(459.97038 -0.095197232 1.4385914e-16)
(459.97868 0.020010986 4.0895662e-17)
(460.63052 0.11521329 -2.3915076e-16)
(459.46637 -0.11829775 -4.0862557e-18)
(459.91072 0.14735699 2.0792394e-16)
(460.45189 -0.10025969 -1.254607e-16)
(460.2685 0.1141494 3.6999257e-16)
(460.22431 -0.11631529 -3.1875216e-16)
(459.25772 0.17712264 8.2958262e-16)
(459.56769 -0.099470575 -5.5221969e-16)
(460.26082 -0.22760043 1.3564193e-15)
(460.09115 0.24835491 -3.879785e-16)
(460.03708 -0.093932761 9.4838229e-16)
(459.08935 0.071704687 -2.0727177e-15)
(459.40902 -0.055960008 7.1553681e-16)
(460.91572 -0.040721419 -1.270843e-15)
(459.42978 -0.016153419 -1.2576908e-16)
(459.83522 0.080974499 8.4169552e-16)
(460.2763 0.075164229 -5.2072726e-16)
(458.74569 -0.24413823 1.1681767e-15)
(461.10223 0.088672887 -4.5138228e-16)
(459.87026 -0.0162691 7.5592828e-16)
(458.40284 0.10316621 -7.7590278e-16)
(460.555 -0.049654323 2.270292e-15)
(460.0444 -0.029743584 -1.5168263e-15)
(459.23898 0.047142174 1.2429108e-15)
(458.98908 -0.1727032 -1.5354213e-15)
(459.51416 0.3149447 -9.053736e-16)
(460.75298 -0.020820776 2.8132782e-15)
(459.44236 -0.36375234 -7.3728277e-16)
(459.15006 0.28859311 4.1149835e-16)
(459.87785 0.041613171 1.0821554e-15)
(458.46768 -0.3418812 2.3732208e-17)
(459.53647 0.46232909 4.4571138e-16)
(459.77498 -0.2008892 8.5910627e-16)
(459.26746 -0.51125807 -9.3882258e-17)
(460.71062 0.68549907 -9.4933008e-16)
(460.08855 -0.24384457 -1.1438012e-17)
(460.32129 -0.6184968 -1.347641e-16)
(460.93936 0.68625639 -1.6240607e-17)
(460.84125 0.23233406 9.4619789e-16)
(459.30738 -1.0057134 8.3844404e-16)
(460.92437 0.96965819 -8.9926612e-16)
(462.47232 -0.36013858 -1.1182822e-15)
(460.41301 -0.43369347 -9.6545273e-16)
(460.66177 0.32269228 2.7213679e-16)
(463.92067 -1.0828959 3.8372183e-16)
(465.45937 0.17017661 -9.5667855e-16)
(464.00018 0.94413463 1.163241e-15)
(461.61369 0.070815319 -1.4438467e-15)
(462.80284 -0.78697269 2.0772175e-16)
(468.81337 -0.99907468 -6.0930346e-16)
(474.01642 -0.33572171 3.1128255e-16)
(472.24691 0.81095961 1.1349178e-15)
(465.86376 0.76777041 1.1896813e-15)
(462.32094 0.2555589 7.4633258e-16)
(461.98149 0.65152518 -2.0185318e-15)
(457.76612 2.4674062 1.9407509e-15)
(442.748 6.8301773 -6.5159447e-16)
(419.59962 11.039062 6.5493889e-16)
(371.64535 11.290317 3.9333957e-15)
(301.96952 7.7555186 1.5069487e-15)
(247.62691 9.49788 5.3463943e-16)
(191.79336 9.5634586 -2.8817455e-16)
(146.44844 7.6588695 -1.3115117e-16)
(112.81474 5.6132388 3.5533031e-16)
(88.656862 3.9956186 2.3921348e-16)
(71.49744 2.8305625 1.3613776e-16)
(59.294826 2.0139418 2.0878107e-16)
(50.575448 1.4399954 1.4730686e-16)
(44.33292 1.0281932 1.6412613e-16)
(39.901168 0.72254181 3.9259241e-17)
(36.833845 0.48498578 -2.2052413e-17)
(34.889329 0.29201043 2.290278e-17)
(33.659299 0.10170469 -1.2900144e-17)
(459.9565 0.055978076 2.8795549e-16)
(460.0307 0.056327525 -1.3941908e-15)
(460.57211 -0.062538923 5.2317074e-16)
(459.44192 -0.095577546 -6.3671923e-16)
(459.85315 0.0040314722 7.0370705e-16)
(460.47256 -0.11202524 8.6150201e-17)
(460.35841 0.20100213 6.2176764e-16)
(460.12263 -0.22218421 -7.994013e-16)
(459.1429 0.39669975 7.8071898e-16)
(459.67566 -0.18698865 -7.5826568e-16)
(460.49886 -0.31281923 8.1806595e-16)
(460.07146 0.46928484 -1.0833569e-15)
(459.98211 -0.19052627 3.2947174e-17)
(459.1015 0.15454373 -1.8947752e-16)
(459.29206 -0.10987266 6.4817586e-16)
(460.84358 -0.082037853 -1.0031016e-15)
(459.59116 -0.033079736 7.3835566e-16)
(460.06414 0.12614162 1.5574563e-16)
(460.14491 0.11543494 5.1821314e-18)
(458.78881 -0.40950919 -1.2159988e-16)
(461.14398 0.28230754 5.1446403e-16)
(459.91484 -0.073990689 -1.735107e-17)
(458.14204 0.035177722 8.4418951e-16)
(460.51245 0.075542823 -4.4624411e-16)
(459.89065 -0.18723077 -6.8959765e-18)
(459.64715 0.12476883 -3.1244286e-17)
(458.74075 -0.17481409 -7.6327199e-16)
(459.38665 0.15951163 -1.4449568e-16)
(461.16768 0.27201108 9.3084477e-17)
(458.8878 -0.52527165 -2.5804264e-16)
(459.59449 0.23125659 6.5231293e-16)
(460.25012 0.1193765 -2.3006651e-16)
(457.51814 -0.31918514 6.0484103e-17)
(460.03812 0.26455847 -3.5287056e-16)
(460.24323 -0.18382345 8.0690212e-16)
(458.19558 -0.027038195 -1.8449039e-16)
(460.94652 -0.24380331 -2.7725672e-16)
(461.22211 -0.066494044 -1.2177269e-15)
(459.24258 0.27225603 1.208675e-15)
(460.21708 -0.52709468 -1.4627363e-15)
(462.22933 0.28698748 1.1706287e-15)
(459.48585 0.63925593 -1.210112e-15)
(459.52356 -1.4087502 3.5812246e-16)
(462.58002 0.78240423 3.1953853e-17)
(462.42118 0.42327938 4.7999379e-16)
(460.33296 -1.5028927 -8.5321874e-16)
(462.18064 -0.43149785 1.4576767e-15)
(465.1077 -0.29651584 -3.8579774e-16)
(465.01234 0.40601194 -5.0074305e-16)
(462.85186 0.37659088 3.940404e-16)
(463.19191 -0.52082645 -1.1378507e-16)
(467.6241 -2.1355103 2.0358046e-15)
(472.55837 -0.59423197 -7.0562988e-16)
(472.48837 0.84270081 1.3658709e-15)
(467.78251 1.086338 -1.1504686e-15)
(463.72249 1.0930469 9.559607e-16)
(461.67315 1.3236245 -6.9903509e-16)
(456.70826 2.8435469 -1.9869576e-15)
(444.17144 6.5352984 -1.8153559e-15)
(426.65057 11.083981 -4.5650124e-15)
(407.16347 17.135815 -3.3396757e-15)
(332.91077 23.567772 -1.5340615e-16)
(255.92506 19.691446 -6.6874339e-17)
(192.69616 16.564071 3.3839614e-16)
(145.93203 12.635713 5.0914147e-17)
(112.25248 9.1456262 -1.0382703e-16)
(88.227329 6.4902131 1.52976e-16)
(71.190741 4.5952629 8.9540762e-18)
(59.078745 3.2705467 4.3742766e-17)
(50.421658 2.3401232 6.6676911e-17)
(44.220631 1.6723537 4.2713878e-18)
(39.816035 1.1762884 -4.0437383e-18)
(36.7661 0.79029488 5.2331934e-19)
(34.832115 0.47638334 2.5247893e-17)
(33.607986 0.16617904 4.7910297e-18)
(460.01581 -0.18403506 2.0744946e-16)
(459.95681 0.15287255 -1.3477131e-16)
(460.50122 0.18031412 -6.6547787e-16)
(459.53138 -0.20890415 -7.7087199e-16)
(459.70044 0.16053588 2.3730307e-16)
(460.31242 -0.21071756 -7.1755541e-16)
(460.47782 0.27603019 2.6820487e-16)
(460.31258 -0.25108615 -1.2738433e-16)
(459.06327 0.37735226 7.5901679e-19)
(459.66075 -0.2653837 -3.7755107e-16)
(460.79462 -0.40592639 -2.0686496e-16)
(460.03004 0.5817509 3.949573e-16)
(459.71313 -0.20062296 3.3912446e-16)
(459.15274 0.1783698 2.3082849e-16)
(459.51384 -0.096754841 8.2549766e-16)
(460.95883 -0.11462345 -1.2718916e-16)
(459.61886 -0.026688128 2.3885232e-17)
(460.39509 0.177103 -1.0410042e-17)
(459.96001 0.17909884 -5.1113584e-16)
(458.4603 -0.50574897 5.6762878e-17)
(461.00669 0.29465788 -3.0806686e-17)
(459.94853 -0.014027003 4.1115373e-16)
(458.19273 0.046441986 -3.740261e-17)
(460.12845 -0.091829071 1.4107871e-16)
(460.02522 -0.15753623 2.3546282e-16)
(459.66246 0.047407836 2.0267886e-16)
(458.96452 -0.14760254 -5.3955981e-16)
(459.1321 0.31516447 -9.8052341e-17)
(460.97511 0.085991339 6.7948293e-16)
(458.83319 -0.55160912 -3.1898425e-16)
(460.54917 0.3331089 2.5122021e-16)
(459.33132 0.2353015 1.0659019e-16)
(458.11785 -0.5957386 -1.2032198e-16)
(460.09418 0.48309343 2.4158665e-16)
(458.68655 -0.067975774 6.8452656e-17)
(460.11847 -0.68806147 6.7850711e-17)
(460.58857 0.47440982 -1.5600081e-16)
(458.94313 -0.13992633 5.5889287e-17)
(462.3665 -0.59270233 1.7197423e-16)
(458.93635 0.52745016 1.5232011e-17)
(459.28821 0.06536152 2.8401115e-16)
(463.68298 -0.93868739 -1.2887947e-16)
(459.66359 1.133444 -3.9964402e-17)
(459.11569 -0.77130655 3.7336157e-16)
(463.2873 -0.34839481 -6.4068585e-17)
(462.83284 0.87292146 -5.0829016e-16)
(461.13556 -1.8227112 5.5189288e-16)
(462.9138 -0.70978562 1.9715842e-16)
(466.0387 0.61242182 -2.8092149e-16)
(464.16198 0.31054247 2.0692653e-16)
(462.53238 -1.398401 2.6782943e-16)
(467.33661 -1.8249105 1.1175551e-15)
(473.15689 -1.8750778 1.5307079e-16)
(471.79686 1.7518137 6.4605042e-17)
(467.25218 1.5668043 -3.7771704e-16)
(464.47335 0.91472613 4.792214e-16)
(462.88656 1.309765 1.2645184e-16)
(457.34568 3.4499048 -2.6142869e-16)
(444.15311 6.7782145 -1.559055e-16)
(426.99971 9.9222874 -1.4341349e-15)
(408.87697 16.509141 -1.792479e-15)
(374.14636 27.672523 -1.3913939e-15)
(262.29411 31.629612 -1.5919059e-16)
(192.44199 24.088705 -1.0369787e-16)
(144.90968 17.531154 8.9507879e-17)
(111.37994 12.548493 -1.7610009e-17)
(87.581655 8.8839655 3.5983363e-17)
(70.732308 6.2886525 -8.7325496e-18)
(58.756065 4.4778646 -5.4044969e-17)
(50.19189 3.2064182 -1.7018363e-17)
(44.052646 2.293414 -1.1180678e-17)
(39.688415 1.6144943 1.4087732e-17)
(36.664268 1.0855698 -2.4810585e-18)
(34.745801 0.65487721 4.9184401e-18)
(33.530386 0.228697 -2.3348537e-17)
(460.07708 0.067942181 9.7373175e-17)
(460.06646 -0.019584389 -1.0218125e-16)
(460.31249 0.067728858 3.626076e-16)
(459.50411 -0.19432764 -1.5594374e-16)
(459.55016 0.034578175 -1.2663023e-17)
(460.12953 -0.1711173 4.8378679e-18)
(460.54015 0.19430233 -5.3066299e-17)
(460.63445 -0.18904895 -5.2059976e-16)
(459.22053 0.58658393 -1.6863465e-18)
(459.27599 -0.48369197 2.5133699e-17)
(460.69487 -0.38494572 -4.1364637e-16)
(460.40183 0.7697519 -7.4489476e-17)
(459.73223 -0.25455158 -2.9670491e-17)
(459.1463 0.1429074 -4.4923882e-17)
(459.96985 -0.22154526 1.2163313e-16)
(461.26909 -0.024790293 -1.6515999e-16)
(459.3558 -0.094672451 4.6218575e-16)
(460.12089 0.31354499 -1.287451e-16)
(459.97711 0.18468334 6.1052846e-17)
(458.1637 -0.5605731 4.0446717e-16)
(460.76079 0.38654724 3.9471833e-16)
(459.88534 -0.1391757 6.4398079e-17)
(458.37643 0.23008087 -2.1075357e-16)
(460.20683 -0.11243633 2.8728364e-16)
(459.69838 -0.36787741 -1.6892026e-16)
(459.6214 0.12607372 4.9603033e-16)
(459.21191 -0.32647177 -1.4502417e-16)
(459.15905 0.42408248 1.0440396e-16)
(460.04673 0.28667446 -2.2895664e-16)
(459.64273 -1.0546073 -1.6521523e-16)
(460.39075 0.54905266 7.0149914e-17)
(459.6693 0.42061226 5.7248759e-16)
(458.23833 -0.6141752 1.2384514e-16)
(458.89863 0.54501883 -1.1337672e-16)
(459.60494 -0.44250469 -4.0925926e-16)
(459.92155 -0.270931 -1.1029541e-16)
(458.61322 0.34522781 -3.8420006e-16)
(462.64753 -0.59745627 4.7508787e-17)
(458.55923 0.33133463 9.8254686e-17)
(459.40764 0.095394465 -7.743926e-17)
(463.69595 -0.45204554 1.4368385e-16)
(455.41828 0.19804374 1.0346112e-16)
(464.73778 -0.72495897 1.2246799e-16)
(463.11078 0.49528675 3.1448738e-16)
(455.24789 -0.48291408 5.1329459e-17)
(466.03337 -0.83413591 -3.6116359e-16)
(464.03868 0.75167199 2.5592685e-16)
(459.02549 -1.5266326 5.4754632e-16)
(463.68873 -0.84886719 6.5297546e-17)
(467.94889 2.1010763 -7.6091256e-17)
(464.51055 -1.25478 1.8512141e-16)
(464.29576 -4.5838123 5.3533912e-16)
(472.41787 -0.89371323 5.0759207e-16)
(473.86685 0.76853669 -1.2075637e-16)
(466.98376 1.9228157 -1.1973526e-16)
(463.42403 2.0555971 2.0342958e-16)
(463.47976 1.944136 -5.0462533e-16)
(459.0349 4.0309731 4.187987e-16)
(445.12415 8.6088309 -1.8447801e-17)
(426.85772 11.121925 -2.2140718e-16)
(408.70307 17.550228 -1.0386146e-15)
(376.16687 32.622854 -1.0012016e-15)
(258.23883 44.068245 -2.3951726e-16)
(189.79538 31.707581 1.1737298e-16)
(143.24571 22.362181 1.4481353e-17)
(110.19528 15.903787 -1.0390281e-16)
(86.72693 11.242562 5.3114149e-17)
(70.128252 7.9574721 1.9429012e-17)
(58.331189 5.6694546 -4.2071194e-18)
(49.889124 4.0633857 2.3748104e-17)
(43.830926 2.9093283 -8.6365742e-18)
(39.519591 2.0501035 4.5104604e-18)
(36.529205 1.3797169 -2.4795316e-17)
(34.630982 0.83303397 -3.2826904e-18)
(33.426813 0.29128216 -8.1123976e-18)
(460.29971 -0.19421893 2.1903135e-16)
(459.97346 0.19225264 -4.6139486e-16)
(460.00601 0.16096272 1.3086799e-16)
(459.68022 -0.1248022 -1.1160398e-16)
(459.36989 0.063710356 -2.0786611e-16)
(460.05913 -0.23318564 4.8821061e-16)
(460.48594 0.19713372 -2.1146402e-16)
(460.65936 -0.30076927 -1.8790222e-16)
(459.4773 0.75421389 6.5938494e-17)
(459.21742 -0.53273411 3.859405e-16)
(460.39603 -0.61850957 -3.0023132e-16)
(460.73693 0.8527014 2.9073377e-16)
(460.38669 -0.21866219 -2.4817845e-17)
(458.98381 0.17607333 -3.7874582e-16)
(459.53288 -0.33768954 8.4674545e-17)
(461.41344 0.0034394646 -8.7916167e-17)
(459.18973 -0.017889727 3.6738543e-17)
(459.58403 0.36908497 -3.9745563e-18)
(459.77127 0.22124397 2.0452841e-17)
(458.69129 -0.7054342 1.2796979e-17)
(460.76891 0.39563189 3.9514353e-16)
(459.69344 -0.014368887 -1.9209977e-17)
(458.57049 0.15509826 -1.8746056e-18)
(460.37459 -0.056739401 6.8782728e-17)
(459.5495 -0.39343213 1.7296617e-17)
(459.25999 0.039573863 1.045535e-16)
(459.55626 -0.23637774 2.5339585e-16)
(459.04231 0.39281955 1.4948368e-16)
(459.88067 0.13456122 -4.0881756e-16)
(459.74791 -0.91897762 3.0584792e-16)
(460.27753 0.35536896 -1.5847105e-16)
(460.21812 0.44882194 -6.4432536e-17)
(458.21596 -0.40110294 3.5815308e-18)
(458.22407 0.58203252 1.6916173e-17)
(459.45302 -0.51161195 2.371795e-16)
(459.87308 -0.46202994 6.9250274e-17)
(459.55279 0.25800324 7.4410825e-17)
(461.77852 -0.046859391 1.7610613e-16)
(457.53208 -0.10559354 1.5650101e-16)
(462.84157 -0.29912913 -2.4273468e-16)
(458.02375 1.0005829 -1.7521865e-18)
(461.20066 -1.1358644 -2.0208869e-16)
(460.63377 -0.56209559 2.3704298e-16)
(461.42377 0.99478887 2.6186533e-16)
(465.6216 -1.0905449 1.2724669e-16)
(453.83786 -0.5405927 2.5013455e-16)
(466.54552 -0.19634108 -1.3592182e-16)
(464.96877 -0.48198961 1.7198797e-16)
(455.57129 -0.96089497 3.6407395e-16)
(469.34413 0.084094775 -1.6081665e-16)
(469.71703 -0.00039709665 2.4433567e-18)
(463.61414 -2.6170337 5.125251e-16)
(467.91983 -3.8173173 4.1394396e-16)
(474.39818 1.9843744 -6.7660968e-16)
(469.50068 1.2085751 2.3351429e-16)
(463.82388 0.76517563 2.8410864e-16)
(464.06131 3.195979 2.5171478e-16)
(459.89841 5.4505563 -2.7478297e-17)
(446.1651 10.610832 -9.2307776e-16)
(427.66077 12.748631 -1.1586579e-15)
(407.397 21.848506 -5.3875343e-16)
(350.63834 49.074653 -1.09681e-16)
(246.65484 55.626043 -1.3801426e-16)
(185.37188 38.612048 -1.5230958e-16)
(141.04379 26.963753 3.6366189e-17)
(108.7237 19.157272 5.3824349e-17)
(85.673628 13.533247 -2.4997361e-17)
(69.385525 9.5784131 -7.0852105e-17)
(57.809052 6.8285307 -1.9458975e-17)
(49.516767 4.8989703 3.3950093e-18)
(43.557785 3.511461 -8.1929223e-18)
(39.311145 2.4770008 1.2739449e-17)
(36.362023 1.6685602 -8.3668154e-18)
(34.488487 1.0082289 1.1318372e-18)
(33.297967 0.35292479 7.5701565e-18)
(460.36898 0.019154952 1.8385323e-16)
(460.16175 -0.0077172697 -3.6321138e-16)
(459.54463 0.15915403 2.7789051e-17)
(460.0297 -0.26236424 1.6655959e-16)
(459.49292 0.11708968 -1.2137924e-16)
(459.64545 -0.25236587 1.4046931e-16)
(460.18165 0.097105161 -1.2270982e-16)
(461.01152 -0.17354226 1.4677636e-17)
(459.67236 0.8078279 -1.3488837e-16)
(459.2687 -0.55220147 3.0385157e-16)
(460.47989 -0.53705596 -4.7789478e-17)
(460.31691 0.69851386 1.0094151e-16)
(460.55788 -0.076693273 2.7501245e-16)
(458.94637 0.26209777 -2.99311e-16)
(458.69198 -0.43817346 4.4622999e-17)
(461.23105 0.020962139 5.102429e-17)
(459.43356 -0.072776421 -4.2361343e-17)
(459.51174 0.5415267 1.1455882e-16)
(459.62996 0.054746286 -3.1062167e-16)
(458.98624 -0.61545627 9.6165203e-17)
(461.27863 0.3321623 -6.5143289e-17)
(459.36094 -0.050585939 1.1356514e-16)
(458.61566 0.39446134 -1.6464631e-17)
(460.67335 -0.23614655 1.2865437e-16)
(459.50234 -0.28683875 -3.8538814e-16)
(459.07256 -0.024769269 5.9875404e-16)
(459.53217 -0.33367107 -1.101776e-16)
(459.70247 0.65251722 -6.2974556e-17)
(459.41384 -0.11334699 -5.5811076e-16)
(459.6194 -1.1087194 1.7825452e-16)
(460.26226 0.55416229 2.0537353e-16)
(460.66287 0.416594 2.6546461e-16)
(457.67261 -0.25720238 -1.9820489e-16)
(457.99985 0.55392616 2.3477028e-16)
(459.32538 -0.60670884 -2.2055634e-16)
(459.47244 -0.39616696 2.2748285e-17)
(460.47249 -0.0040622702 1.2474659e-16)
(461.25959 0.029238552 5.0176764e-16)
(457.94625 0.11536169 -2.7829252e-16)
(460.57041 -0.13069221 2.5807293e-16)
(459.3189 0.30138581 -1.6009681e-16)
(461.87711 -0.37421554 8.4452897e-18)
(456.73149 -0.68586017 1.6973886e-16)
(466.07713 -0.19991665 2.4314256e-16)
(459.5362 0.79169723 -3.132882e-17)
(461.52611 -1.183369 2.7378687e-16)
(459.50884 -0.78352819 -1.9187472e-19)
(461.80351 0.37907038 1.5345125e-16)
(467.124 -1.4517417 2.519186e-16)
(458.00793 -0.93048135 -4.8225062e-17)
(471.51742 -0.37148742 5.3719176e-17)
(472.50759 -1.7225348 -1.7395985e-16)
(460.01404 -2.6861705 4.6277078e-16)
(473.62401 -0.48652831 -1.8460058e-16)
(470.1173 4.0216454 -1.1352321e-16)
(464.80232 -0.23490885 5.5307061e-18)
(465.07715 -0.36198462 1.1920292e-16)
(462.78077 6.2477589 1.1834641e-16)
(445.59453 13.111501 -2.097862e-16)
(423.71129 17.336606 -2.531672e-16)
(393.80788 32.432054 1.7526206e-16)
(303.15256 63.776796 -4.364505e-16)
(232.50714 62.418293 -2.1536613e-16)
(180.0823 43.889571 -6.2823974e-17)
(138.45938 31.194602 3.6929262e-17)
(106.99419 22.280493 -1.0591653e-16)
(84.432252 15.741534 1.2949599e-17)
(68.510996 11.141668 2.6183904e-17)
(57.194556 7.9485373 -4.7474769e-17)
(49.078193 5.7088713 -3.1290119e-17)
(43.235485 4.0970035 2.6784644e-17)
(39.064595 2.8933657 -2.4713587e-17)
(36.16377 1.9509606 -1.0943229e-17)
(34.319086 1.1798186 1.6699283e-17)
(33.144439 0.41343674 2.3534854e-17)
(460.06555 -0.20888993 2.5997365e-16)
(460.50253 0.29350486 -4.4800004e-16)
(459.48578 0.1695112 2.7725928e-16)
(459.85086 -0.1988881 -3.0293533e-17)
(459.79682 0.084168871 -2.0886095e-16)
(460.31768 -0.11412839 9.2254136e-17)
(459.03653 -0.14208081 3.0705644e-17)
(461.29771 -0.23832123 8.1237866e-17)
(460.22128 0.99963968 2.7735735e-16)
(458.55977 -0.7558696 7.1176993e-17)
(460.2625 -0.47513917 1.6306704e-16)
(460.29357 0.70645956 1.6619327e-16)
(460.23041 -0.15065746 -3.4192834e-17)
(459.34389 0.4699296 -5.3650474e-17)
(458.7118 -0.57691208 5.6140475e-17)
(460.89177 -0.056265242 1.5686938e-16)
(459.32702 0.037581348 -3.3662357e-17)
(460.20906 0.48795473 1.1120214e-16)
(459.48905 0.069755382 -1.8422269e-16)
(459.05087 -0.82414018 1.943393e-17)
(461.41028 0.66469139 1.800301e-17)
(459.2286 -0.13890356 2.4704205e-16)
(458.13739 0.26910479 1.0818281e-17)
(460.93378 -0.11263874 -1.7004475e-16)
(460.01592 -0.26370406 -3.6393098e-16)
(458.62035 0.081337427 2.6670617e-16)
(459.71821 -0.62607575 -1.4585241e-16)
(459.98449 0.80662345 4.772794e-16)
(459.51665 0.083543871 1.8097261e-17)
(459.11047 -1.3754834 8.8266733e-17)
(460.59732 0.30382945 -1.0079659e-16)
(460.21598 0.68175822 2.3617555e-17)
(457.37923 0.020063601 4.845751e-17)
(457.55653 0.27556949 -2.1921775e-16)
(458.75681 -0.72318236 5.9839109e-17)
(459.4537 -0.4579762 -3.6660285e-16)
(461.12871 -0.052685198 9.5119378e-17)
(459.67192 0.10171101 -1.6114442e-16)
(458.85896 0.13550043 6.7988169e-17)
(459.31446 -0.34902933 1.9502657e-16)
(459.19742 0.92962336 1.4840877e-16)
(460.40825 -0.7105238 -9.8148084e-18)
(459.42868 -1.3748199 -1.707387e-16)
(462.8791 0.56899792 4.6295684e-16)
(459.21593 -0.50296002 -5.3077425e-16)
(463.98608 0.012061695 3.399193e-16)
(454.76695 0.44251936 -3.6954361e-16)
(463.70542 -2.4890142 2.338106e-17)
(460.73425 1.036014 2.9779151e-17)
(467.67444 -2.2250166 -8.4254093e-17)
(463.6356 -1.6275574 3.1616079e-16)
(470.19864 -0.39718179 -8.5010129e-16)
(470.95655 -3.8288893 5.608612e-16)
(459.11766 1.4819139 6.102138e-17)
(472.02442 1.9150366 -4.2094938e-16)
(466.73232 4.7179574 2.4987961e-16)
(464.29429 -1.3582689 1.5845016e-16)
(468.2587 2.2729946 -4.7391759e-16)
(444.68337 17.323136 -8.8805507e-17)
(420.6484 16.044021 -2.8673177e-16)
(366.05428 45.962719 1.0979456e-15)
(300.46022 71.055396 4.0354847e-16)
(230.22483 67.727677 7.7397196e-17)
(176.59482 48.722041 -8.9772175e-17)
(135.87265 35.254488 -2.054379e-16)
(105.0562 25.286776 4.8563377e-17)
(83.014632 17.857799 2.8626226e-17)
(67.511807 12.638442 5.3056114e-18)
(56.492837 9.0233792 1.0365984e-17)
(48.576953 6.4890208 -9.0137391e-19)
(42.86641 4.6632329 1.0110757e-17)
(38.781543 3.297375 -1.345272e-17)
(35.935551 2.2257268 4.3434864e-18)
(34.123592 1.3470897 2.2384231e-17)
(32.966871 0.47254596 1.9695648e-18)
(459.82194 -0.09422155 1.1551649e-16)
(460.78304 0.049961747 9.1956555e-17)
(459.17831 0.31057946 -7.5577032e-17)
(460.68322 -0.34133991 2.5186829e-16)
(458.91749 0.024131713 -6.8943846e-17)
(461.05625 0.050401877 1.0985992e-17)
(458.00459 -0.13012382 -3.169194e-17)
(460.57436 -0.42932207 1.1434042e-16)
(461.06833 1.2603645 6.5288387e-17)
(459.27138 -0.70858219 2.9938782e-16)
(459.28248 -0.61974863 -2.3121895e-16)
(460.8879 0.71812622 2.2200826e-16)
(459.85038 -0.063372876 6.2540293e-17)
(460.04114 0.40214168 2.1541244e-16)
(459.77009 -0.48243544 5.5953763e-18)
(460.26157 -0.10315573 6.8825418e-17)
(458.26306 -0.14024251 -1.1357722e-17)
(461.35125 0.76065535 -1.2970349e-16)
(459.58075 -0.20659696 3.4409565e-16)
(458.8423 -0.66912797 -1.7941586e-16)
(461.21168 0.45437336 1.9609173e-16)
(458.94271 0.29674882 -1.9176086e-16)
(457.6348 0.11729405 1.6111948e-16)
(460.90368 -0.4963929 -1.5471744e-16)
(460.95191 0.11576096 3.6882356e-16)
(458.65175 0.10735398 -1.8646645e-16)
(459.40086 -0.61176046 3.5812171e-17)
(460.27594 0.7031742 3.964891e-17)
(459.7246 0.14320129 1.7461062e-16)
(459.46082 -1.2036798 -3.6007402e-16)
(460.84499 0.07750637 1.7247333e-16)
(459.75847 0.69253936 -1.8769562e-16)
(457.01972 0.203336 4.3732353e-16)
(457.84457 0.37352831 -1.9458377e-16)
(458.02617 -0.79439024 -7.2025527e-17)
(460.01326 -0.88832503 -3.5526964e-16)
(460.85889 0.11993222 1.9534623e-16)
(459.80426 0.45969569 1.125055e-16)
(458.17529 -0.39678063 6.3524408e-17)
(459.0238 -0.22832701 -9.0941256e-17)
(459.66443 0.78411678 -1.2348974e-17)
(459.34111 -0.33532605 -9.2665193e-17)
(460.0133 -0.98076351 1.2617629e-16)
(462.31614 -0.21812248 -2.912844e-16)
(459.0942 0.005626526 3.4096498e-16)
(460.22503 -0.083760258 -3.7759209e-16)
(458.33168 -0.34991697 4.7410468e-16)
(459.52939 -0.25804102 -3.3381149e-16)
(458.60359 -2.5559153 9.9989554e-17)
(470.20296 0.30701386 -3.6811106e-16)
(461.37733 -1.4353165 4.3126028e-16)
(470.22119 -3.6333767 -6.2919852e-17)
(465.97048 0.92202865 -2.4955673e-16)
(465.33427 -1.9677259 5.6431855e-16)
(460.27134 2.240326 -7.5458772e-16)
(474.16948 2.5510204 2.9165593e-16)
(464.20761 2.1355043 -1.4221556e-16)
(461.56941 7.8817143 -9.4069537e-16)
(463.2807 13.728786 -3.1727738e-16)
(406.40371 38.316721 4.4777283e-16)
(301.00941 39.028109 -2.3093033e-15)
(268.05961 74.462537 -2.0916417e-15)
(217.39081 72.816394 -3.1153336e-16)
(170.96664 53.188365 1.8411518e-16)
(132.84718 39.128544 1.5535364e-17)
(102.87881 28.164131 6.1631348e-17)
(81.425582 19.870735 9.2991697e-18)
(66.394958 14.06035 6.5479692e-17)
(55.709384 10.047477 8.6478725e-18)
(48.016866 7.2357659 1.1157905e-17)
(42.453119 5.2077265 -5.5330203e-18)
(38.463707 3.6874133 -6.985889e-18)
(35.678556 2.4918106 6.864985e-18)
(33.902884 1.5094196 -1.626325e-17)
(32.765957 0.53003478 3.4962628e-18)
(460.00915 -0.17209193 -6.3083417e-18)
(461.41997 0.23416218 -8.6607473e-17)
(458.02683 0.20347668 -2.8605355e-16)
(461.67673 -0.13413675 -1.1845486e-16)
(457.72062 -0.11571969 -5.7780801e-17)
(461.18204 0.16298974 1.7428196e-17)
(457.76804 -0.13510998 -1.1170737e-16)
(460.42312 -0.65617135 1.4301548e-16)
(460.99548 1.1041315 8.2000806e-17)
(461.48724 -0.40376129 -1.3521426e-16)
(457.79748 -0.66536912 -6.0076674e-17)
(460.89675 0.54983831 9.8649481e-17)
(459.66746 0.051166672 2.305701e-17)
(460.52604 0.34521022 1.9249296e-16)
(461.28818 -0.47504761 -6.2807156e-17)
(459.79209 0.24703307 1.0398412e-17)
(457.31988 -0.43150891 2.7904593e-18)
(462.29152 0.58532487 -7.5469218e-18)
(460.20833 0.1801916 3.715565e-17)
(458.14452 -1.0677082 -5.5470137e-17)
(460.58195 0.86256785 1.039247e-16)
(459.04529 0.069090098 -8.0123261e-17)
(457.77185 0.31926315 1.3346017e-16)
(460.26888 -0.9225928 -7.9570713e-17)
(462.03758 0.31667684 -1.0741126e-16)
(458.76773 0.27099321 -5.7131084e-17)
(459.02468 -0.76672971 1.533666e-16)
(460.66112 0.99056875 1.0897506e-16)
(459.53832 -0.028070438 1.781787e-16)
(460.37704 -1.252031 -5.4994911e-17)
(461.10808 0.13766583 -2.0500431e-17)
(458.62594 0.90196279 8.763453e-17)
(456.71104 0.05071755 -2.2586718e-16)
(459.03305 0.14158845 2.9151333e-16)
(458.10911 -0.88163707 5.1011955e-17)
(459.51838 -0.59016803 -2.2730872e-17)
(460.19893 -0.24637539 9.3453988e-17)
(460.92553 0.77223595 6.6382322e-18)
(456.39181 0.0076973571 3.1422136e-16)
(459.70629 -1.0396667 -1.7922741e-16)
(459.80163 0.95823761 3.4100837e-16)
(458.78006 -0.73104035 -2.3841627e-16)
(459.97574 -1.0959712 3.9240406e-16)
(461.66125 1.4790036 -4.2331695e-16)
(457.92483 -1.0389603 4.5474798e-16)
(459.86407 0.37283345 -5.2652882e-16)
(458.72419 0.042692427 6.31761e-16)
(457.6725 -2.4796578 2.9570001e-18)
(458.81113 -0.45310309 -2.3119974e-16)
(466.13825 -2.928185 5.4138392e-17)
(467.13685 0.36573919 -4.6380461e-16)
(467.64693 -2.2436192 4.0666018e-16)
(465.55751 -1.3742537 -4.1180555e-16)
(464.0536 2.0762706 1.8666109e-16)
(461.61647 -0.27970765 8.3717424e-17)
(468.31716 1.8286028 1.544293e-17)
(472.6097 2.7854662 3.2357933e-17)
(467.30091 6.7541832 -1.8218405e-16)
(445.97405 21.375503 -8.1538009e-16)
(438.34661 28.730228 -5.2117575e-16)
(259.30791 105.71176 2.2087496e-15)
(231.27055 73.144205 1.6373001e-15)
(202.96767 72.27647 3.9853777e-16)
(165.31782 55.872798 3.5348767e-17)
(129.74507 42.646734 -5.8974433e-17)
(100.50901 30.892691 -3.3328056e-18)
(79.676223 21.769538 -2.5672444e-17)
(65.168339 15.399749 -2.1860556e-17)
(54.850111 11.015906 3.0986661e-17)
(47.402017 7.9459253 -8.6210299e-18)
(41.998342 5.7283638 -2.0367649e-17)
(38.112923 4.0620479 2.0854572e-18)
(35.394064 2.748266 -9.7874521e-18)
(33.657917 1.6662366 -6.2892988e-18)
(32.542459 0.58570202 2.7282988e-18)
(461.13702 -0.23108026 -3.314919e-17)
(460.66297 0.25629022 2.4037082e-16)
(457.53683 0.20326463 5.2357884e-16)
(462.69644 -0.20716447 1.3985746e-16)
(456.12564 0.010757272 -2.7435588e-17)
(462.28276 0.10045149 1.7491856e-16)
(457.61528 -0.053708426 1.1737198e-16)
(460.22105 -0.7268079 1.2354749e-16)
(459.95261 0.96490768 9.1556444e-17)
(462.37748 -0.32838833 1.5966838e-16)
(457.06348 -0.25238369 1.8376187e-16)
(461.10121 0.18829844 1.0461966e-16)
(459.84667 0.10230383 2.6604014e-17)
(461.31129 0.16341507 -6.7872603e-18)
(461.70811 -0.26845913 5.6015065e-17)
(460.14881 0.40777848 1.4326773e-16)
(458.08189 -0.54031742 -5.8525821e-17)
(461.36371 0.49130057 -3.2820135e-17)
(461.67023 0.078416374 1.1357513e-16)
(456.32275 -0.4979909 1.9640149e-16)
(460.53249 0.12874974 -9.7191245e-18)
(459.70799 0.80200802 8.1445548e-17)
(458.55393 -0.1440664 -1.2373483e-16)
(459.08876 -1.0798854 1.315686e-16)
(462.25922 0.29717026 1.0896533e-16)
(458.4267 0.68835529 9.2122847e-17)
(459.33916 -1.0710737 1.7769568e-16)
(460.55771 1.002312 6.1591029e-17)
(458.94904 0.18434134 -1.084679e-16)