/*--------------------------------*- C++ -*----------------------------------*\
| =========                 |                                                 |
| \\      /  F ield         | OpenFOAM: The Open Source CFD Toolbox           |
|  \\    /   O peration     | Version:  2.3.0                                 |
|   \\  /    A nd           | Web:      www.OpenFOAM.org                      |
|    \\/     M anipulation  |                                                 |
\*---------------------------------------------------------------------------*/
FoamFile
{
    version     2.0;
    format      ascii;
    class       volScalarField;
    location    "0.022";
    object      alpha.water;
}
// * * * * * * * * * * * * * * * * * * * * * * * * * * * * * * * * * * * * * //

dimensions      [0 0 0 0 0 0 0];

internalField   nonuniform List<scalar> 
725
(
1
1
1
1
1.00005
1
1
1
1
1.00001
1
1
1
1
1.00002
1
1
1
1.00004
1
1
1
1
1.00003
0.94318
0.997781
0.997729
0.981449
0.980817
0.841684
0.95828
0.999885
0.999875
0.999874
0.999869
0.999869
0.999869
0.999873
0.999871
0.999868
0.999864
0.999858
0.999854
0.999852
0.999848
0.999844
0.999844
0.99984
0.999836
0.999839
0.999845
0.99985
0.999854
0.999856
0.999857
0.999858
0.999862
0.999871
0.999883
0.999894
0.999908
0.999918
0.999926
0.999932
0.999939
0.999943
0.999942
0.999922
0.999903
0.996615
1
0.981868
0.647219
0.891991
0.824043
0.937811
0.999992
1
1.00003
0.99991
0.999874
0.999852
0.999909
0.999889
0.999872
0.999864
0.999855
0.999842
0.999828
0.999805
0.999778
0.999768
0.999761
0.999738
0.999723
0.999764
0.999809
0.99983
0.999903
0.999919
0.999902
0.999883
0.999865
0.999856
0.999861
0.999878
0.999895
0.999904
0.999913
0.999983
1.00002
1.00003
0.999947
0.999875
0.999212
1
0.403092
0.136518
0.620699
0.844236
0.955258
0.996806
0.993216
0.996689
0.999794
0.999865
0.999851
0.999811
0.999774
0.999681
0.999613
0.999611
0.999631
0.999647
0.999657
0.999684
0.99972
0.999714
0.999615
0.999322
0.999658
0.999667
0.999671
0.999707
0.999745
0.999766
0.999774
0.999781
0.999796
0.999805
0.999856
0.999904
0.999909
0.999917
0.999891
0.999897
0.999886
0.999814
0.999765
0.999707
0.521706
0.000338232
0.0988653
0.592809
0.912362
0.928803
0.982022
0.981128
0.989506
0.999872
0.999875
0.999946
0.999919
0.999898
0.999854
0.9993
0.999315
0.999224
0.999433
0.999808
0.999805
0.999927
1.00005
0.999938
0.993346
0.991245
0.995505
0.999625
0.999899
0.99979
0.999753
0.999751
0.999764
0.999723
0.999901
0.999899
0.999995
0.996952
0.985347
0.995999
0.999721
0.999967
0.99986
0.999797
0.999791
2.2774e-05
4.0524e-05
0.000337214
0.507077
0.909163
0.988161
0.985458
0.978372
0.993955
0.999919
0.999919
0.999948
0.999939
0.999929
0.999943
0.999066
0.996613
0.997555
0.999646
0.999657
0.999654
0.999906
1
0.995623
0.987986
0.987985
0.988619
0.998416
0.999899
0.999785
0.999743
0.999719
0.99971
0.999722
0.999795
0.999878
0.999995
0.980696
0.971266
0.98222
0.998769
0.999897
0.999823
0.999824
0.994731
6.20973e-06
0.000195215
0.0247892
0.404388
0.971402
0.988162
0.957568
0.956899
0.995202
0.999919
0.992141
0.990336
0.993287
1.00001
1.00003
0.995762
0.994511
0.997659
0.998899
0.998747
0.998862
0.998358
0.998588
0.993907
0.988003
0.987985
0.99041
0.998704
0.999379
0.999545
0.999623
0.999625
0.999598
0.99968
0.999757
0.999861
0.999998
0.971327
0.971266
0.971267
0.990077
0.999705
0.999978
0.997251
0.988113
8.45799e-06
-0.000116859
0.0047581
0.160884
0.972665
0.988162
0.969131
0.956884
0.999898
0.999909
0.972323
0.971919
0.97192
0.996046
0.999614
0.990484
0.994504
0.998483
0.998462
0.998639
0.998497
0.99835
0.999319
0.998146
0.990929
0.987991
0.989188
0.996868
0.99914
0.999232
0.999444
0.999494
0.999482
0.999548
0.999654
1.00012
1.00001
0.972975
0.971268
0.971276
0.971277
0.994331
0.999981
0.991795
0.98811
5.69534e-06
0.0053893
0.0253357
0.258408
0.949965
0.988248
0.986502
0.956919
0.966443
0.998103
0.977551
0.971914
0.971921
0.986164
0.993224
0.988641
0.995605
0.999102
0.999097
0.999061
0.999028
0.998868
0.999364
0.999055
0.998517
0.994896
0.989203
0.990168
0.994158
0.999249
0.99938
0.999388
0.999577
0.999455
0.999553
0.999805
0.991409
0.984445
0.971247
0.988543
0.986056
0.985958
0.999328
0.999428
0.990289
1.37624e-05
9.17611e-05
0.0735168
0.621271
0.870912
0.988599
0.991197
0.963774
0.956432
0.99532
0.999046
0.975277
0.988366
0.984367
0.984327
0.988584
0.997206
0.999081
0.999018
0.999056
0.999333
1.00006
0.999778
0.999272
0.998958
0.998686
0.989776
0.989899
0.995678
0.998655
0.999121
0.999366
0.999456
0.999411
0.999557
0.995819
0.984508
0.985698
0.971228
0.992832
0.993988
0.993935
0.994458
0.998948
0.996123
5.21869e-06
7.35389e-05
0.0297982
0.717325
0.790045
0.984516
0.991214
0.956489
0.956433
0.996301
0.999471
0.993882
1
0.985397
0.984325
0.99526
0.998944
0.99891
0.999054
0.999273
0.999583
0.999808
0.999963
0.998746
0.990686
0.989724
0.991433
0.995223
0.999004
0.999198
0.999282
0.999343
0.999498
0.999535
0.99956
0.99734
0.984712
0.985701
0.97182
0.9725
0.990029
0.999468
0.998593
0.99793
0.990599
1
1
1
1
0.957227
1
1
1
1.00006
1
1
1
1
1
1.00003
1
1
1
1
1.00009
1
1
1
1
1.00004
6.92364e-05
0.00202983
0.00383738
0.368645
0.756413
0.987497
0.991213
0.956549
0.985288
0.992621
0.999516
1
1.00002
0.999609
0.998855
0.999663
0.999402
0.999329
0.999409
0.999542
0.999718
0.999981
0.999885
0.98942
0.982339
0.98297
0.996207
0.99994
0.999939
0.999863
0.999821
0.99985
0.999837
0.999811
0.999819
0.99998
0.999977
0.979525
0.971625
0.97164
0.989981
1
1
0.997059
0.990599
0.402138
0.0758263
0.0700492
0.528299
0.907104
0.990064
0.991213
0.988728
0.998187
0.999139
0.9998
0.999913
0.999929
0.999999
1
0.999884
0.999337
0.99954
0.999694
0.999693
0.999844
0.999982
0.991758
0.979342
0.982277
0.994811
0.999725
0.999723
0.999758
0.999785
0.999795
0.999802
0.999816
0.999847
0.999908
1
0.99828
0.97215
0.971625
0.983896
0.999501
1
1
0.997231
0.990599
0.939614
0.208144
0.0733536
0.531832
0.96591
0.969943
0.979461
0.991665
1
1.00004
0.999836
0.999816
0.999744
0.999722
0.999744
0.999764
0.999335
0.999316
0.999422
0.99982
0.999845
0.987619
0.979331
0.979338
0.989098
0.999123
0.999609
0.999055
0.999027
0.99923
0.999448
0.999616
0.99975
0.999862
0.999935
1.00001
1
0.976315
0.971625
0.990997
1
1.00002
1.00016
1
0.991179
1
0.657726
0.135959
0.603531
0.97153
0.931427
0.957916
0.996092
0.999952
0.999686
0.999497
0.999432
0.999371
0.999369
0.999391
0.999403
0.999496
0.999607
0.999757
0.999821
0.990544
0.979315
0.979329
0.985843
0.998308
0.999133
0.995844
0.994042
0.99404
0.994041
0.996742
0.999995
1.00005
1.00007
1.00006
1.00002
0.995555
0.975695
0.984117
0.998461
0.999866
1
0.998102
0.994953
0.997369
0.999644
0.984722
0.813117
0.952394
0.973095
0.931409
0.967814
0.999171
0.999185
0.999066
0.998977
0.998959
0.999007
0.999109
0.999246
0.999446
0.999658
0.999812
0.999865
0.990122
0.979314
0.979313
0.992377
0.995927
0.993943
0.991795
0.991789
0.996983
0.997874
0.998503
0.999094
0.999231
0.999116
0.9989
0.998888
0.998162
0.996463
0.996164
0.995919
0.994559
0.994631
0.997641
0.998687
0.99888
0.999072
)
;

boundaryField
{
    AirInlet
    {
        type            fixedValue;
        value           uniform 0;
    }
    WaterInlet
    {
        type            fixedValue;
        value           uniform 1;
    }
    ChannelWall
    {
        type            zeroGradient;
    }
    Outlet
    {
        type            inletOutlet;
        inletValue      uniform 0;
        value           nonuniform List<scalar> 
15
(
0.996615
0.999212
0.999707
0.999791
0.994731
0.988113
0.98811
0.990289
0.996123
0.990599
0.990599
0.990599
0.991179
0.997369
0.999072
)
;
    }
    FrontAndBack
    {
        type            empty;
    }
}


// ************************************************************************* //
