/*--------------------------------*- C++ -*----------------------------------*\
| =========                 |                                                 |
| \\      /  F ield         | OpenFOAM: The Open Source CFD Toolbox           |
|  \\    /   O peration     | Version:  2.3.0                                 |
|   \\  /    A nd           | Web:      www.OpenFOAM.org                      |
|    \\/     M anipulation  |                                                 |
\*---------------------------------------------------------------------------*/
FoamFile
{
    version     2.0;
    format      ascii;
    class       volScalarField;
    location    "0.022";
    object      alpha.water;
}
// * * * * * * * * * * * * * * * * * * * * * * * * * * * * * * * * * * * * * //

dimensions      [0 0 0 0 0 0 0];

internalField   nonuniform List<scalar> 
725
(
1
1
0.999988
1.00002
1
1
1
0.999999
1.00001
0.951662
1
1
0.999999
1.00001
0.948919
1
1
0.999997
1.00006
0.98487
1
1
0.999996
1.00003
1
0.789768
0.814849
0.967866
1.00001
1.00002
1.00002
1.00001
1.00001
0.817237
0.10121
0.00503077
0.00494306
0.0538291
0.688376
0.999047
0.99904
0.999385
0.999709
0.999855
0.999913
0.999947
0.99997
0.99998
0.999985
0.999994
0.999997
0.999992
0.999989
0.999982
0.999978
0.999988
1
1.00002
1.00001
1
0.367329
0.000460204
0.000460109
0.000463355
0.000600243
0.335502
0.998419
0.999939
0.999928
0.998581
0.766529
0.799481
0.970171
0.999959
0.999907
0.999953
1.00002
1.00001
0.839885
0.0770267
0.00494045
0.00492092
0.0452253
0.684069
0.998995
0.998864
0.998593
0.998854
0.999202
0.999425
0.999571
0.999687
0.999766
0.99981
0.999834
0.99985
0.999861
0.99987
0.999878
0.999885
0.999896
0.999926
0.999959
1
1
0.388681
0.000485334
0.000463134
0.000468033
0.000610312
0.348639
0.970443
0.999944
0.999857
0.999841
0.785473
0.837761
0.970386
0.999901
0.999883
0.999978
1.00001
1
0.818807
0.0609513
0.00492334
0.00492081
0.0515908
0.711508
0.999608
0.999425
0.998979
0.99879
0.998756
0.998843
0.999018
0.999235
0.999443
0.999597
0.99969
0.999738
0.99976
0.999768
0.999775
0.999784
0.999804
0.999842
0.999918
1.00002
0.999751
0.344951
0.00109459
0.000468288
0.000466015
0.000466136
0.273584
0.941065
0.999914
0.99989
0.999852
0.618239
0.803799
0.984106
0.999879
0.999862
0.999924
1.00002
1
0.779688
0.0611201
0.00501232
0.00492267
0.0511934
0.71364
0.999841
0.999828
0.999656
0.999422
0.999047
0.998813
0.998735
0.99882
0.999012
0.999221
0.99939
0.999503
0.999566
0.9996
0.999626
0.99965
0.999686
0.999716
0.999924
0.999999
1
0.449121
0.00229696
0.000473459
0.000466423
0.000470356
0.388181
0.917208
0.999899
0.999908
0.999901
0.463517
0.586285
0.962709
0.999862
0.999866
0.999836
1.00003
0.996046
0.712403
0.0777001
0.00536838
0.00501037
0.07296
0.723202
0.999862
0.999864
0.999847
0.999732
0.999507
0.99907
0.998675
0.998536
0.998627
0.998826
0.999036
0.999204
0.999314
0.999388
0.999447
0.999499
0.999563
0.99963
0.999919
1
0.978562
0.310648
0.00144134
0.000616036
0.000475112
0.000476909
0.263679
0.866322
0.999887
0.999893
0.999808
0.044523
0.433358
0.971481
0.999885
0.999834
0.9998
1.00007
0.994132
0.68199
0.0824858
0.00632871
0.00590986
0.073116
0.716658
0.999807
0.999558
0.999723
0.999619
0.999349
0.998914
0.998497
0.998302
0.99837
0.998598
0.998853
0.999055
0.999171
0.999251
0.99933
0.99941
0.999492
0.999537
1.00011
1.0002
0.99793
0.432935
0.0166893
0.00198547
0.000517163
0.000475561
0.327321
0.887924
0.999843
0.99974
0.999667
0.0641189
0.397779
0.976609
0.99991
0.999897
0.999837
0.999968
0.999662
0.66291
0.0870257
0.00671619
0.00674098
0.0761068
0.713553
1
0.999996
0.999811
0.999663
0.999356
0.998904
0.998461
0.998228
0.998256
0.99846
0.998711
0.998923
0.999065
0.999174
0.999271
0.999363
0.999447
0.999499
1.00009
1.00013
0.998685
0.539885
0.0345593
0.000940105
0.000757268
0.000586679
0.393556
0.888046
0.999749
0.999685
0.999585
0.0460272
0.393922
0.965928
0.999894
0.999903
0.999816
0.999962
0.999996
0.662431
0.0812312
0.00673316
0.00676102
0.0762968
0.70948
0.999879
0.999696
0.999764
0.999671
0.999344
0.998868
0.998418
0.998172
0.998183
0.998374
0.99862
0.998842
0.999016
0.999155
0.999264
0.999359
0.999441
0.999495
1.00011
1.00015
1
0.654674
0.0315007
0.00206593
0.00246794
0.00170374
0.442963
0.906967
0.999668
0.999648
0.999539
0.00210816
0.49262
0.964
0.999876
0.999896
0.999796
0.999938
0.999837
0.659598
0.076562
0.00676554
0.00697983
0.072939
0.713806
0.999713
0.99966
0.999785
0.999768
0.999386
0.998852
0.9984
0.998161
0.998173
0.998368
0.998619
0.998851
0.999048
0.9992
0.999308
0.999393
0.999466
0.99951
1.00008
1.00011
0.990303
0.335131
0.00797834
0.000858769
0.00304809
0.00419029
0.303684
0.908153
0.999435
0.998756
0.999528
0.0242277
0.358633
0.924615
0.99985
0.999875
0.999815
0.999964
0.99703
0.65131
0.0754198
0.00668513
0.00634469
0.0749945
0.708096
0.999821
0.999668
0.999822
0.999946
0.999469
0.998831
0.998385
0.998219
0.99827
0.998483
0.998732
0.998947
0.999141
0.999286
0.999377
0.999444
0.99951
0.999551
1.00009
1.00009
0.980637
0.292233
0.000693397
0.000475911
0.000928827
0.00163384
0.278821
0.950401
0.999916
0.999334
0.999593
1
1
0.999912
1
0.95302
1
1
0.999986
1
0.884758
1
1
0.999997
1
0.978511
1
1
0.999999
1.00001
0.862214
1
1
0.999988
1.00001
0.866622
0.200095
0.405946
0.999959
0.999739
0.99968
0.999755
1.00002
1
0.665784
0.0550665
0.00596271
0.00576061
0.0601874
0.718897
0.99996
0.999918
1.00004
1.00023
1.00009
0.998769
0.998313
0.998374
0.998653
0.99895
0.999171
0.999306
0.999391
0.999447
0.999488
0.99953
0.999588
0.999646
0.999912
1
0.958466
0.211127
0.00046155
0.000417365
0.000454832
0.00113482
0.223755
0.977322
1
0.999674
0.999827
0.260422
0.471283
0.999972
0.999898
0.999449
0.999631
1.00004
0.99934
0.635392
0.0213204
0.00575861
0.00573049
0.0333089
0.727005
1.00001
1.00009
1.00008
0.99999
0.999499
0.998848
0.998313
0.998585
0.998915
0.999191
0.999374
0.999482
0.99955
0.999596
0.999632
0.999664
0.999701
0.999764
0.999858
1
0.991419
0.461197
0.000416526
0.000401101
0.000405963
0.000484149
0.204982
0.999299
1
1.00007
0.999985
0.296029
0.460185
0.999986
0.999986
0.999544
0.999793
0.999903
1
0.629008
0.0139266
0.00572946
0.00572445
0.0304804
0.709362
1.00001
1.00003
0.999778
0.999342
0.998694
0.998379
0.998544
0.998888
0.9992
0.999423
0.999574
0.99968
0.99975
0.999789
0.999806
0.999815
0.999832
0.999859
0.999913
1
0.970327
0.307141
0.000395135
0.000392345
0.000398059
0.000399315
0.176825
0.956019
1
0.999897
0.999879
0.256178
0.405291
0.991037
1
0.999791
1.00001
1.00002
1
0.593361
0.00573591
0.00573286
0.00572839
0.0311273
0.68723
0.999989
0.999332
0.998628
0.998288
0.998284
0.998648
0.999111
0.999443
0.999625
0.999724
0.999775
0.999801
0.99982
0.999838
0.999858
0.999881
0.999909
0.999932
0.999965
1
0.979146
0.343174
0.000393611
0.000390515
0.000393569
0.000395505
0.175359
0.939801
1
0.999843
0.998277
0.256148
0.418919
0.977969
1.00001
1.00001
1.00001
1.00003
1.00001
0.589784
0.00573667
0.00573433
0.0057326
0.0334528
0.679336
0.999981
0.998774
0.998927
0.999331
0.99964
0.999858
0.999949
0.999992
1.00001
1.00002
1.00002
1.00002
1.00002
1.00002
1.00001
1.00001
1.00001
1.00001
1.00002
1.00004
0.972739
0.32344
0.000398005
0.000407991
0.000401973
0.000401607
0.160583
0.936386
1
0.999883
0.996779
)
;

boundaryField
{
    AirInlet
    {
        type            fixedValue;
        value           uniform 0;
    }
    WaterInlet
    {
        type            fixedValue;
        value           uniform 1;
    }
    ChannelWall
    {
        type            zeroGradient;
    }
    Outlet
    {
        type            inletOutlet;
        inletValue      uniform 0;
        value           nonuniform List<scalar> 
15
(
0.998581
0.999841
0.999852
0.999901
0.999808
0.999667
0.999585
0.999539
0.999528
0.999593
0.999827
0.999985
0.999879
0
0
)
;
    }
    FrontAndBack
    {
        type            empty;
    }
}


// ************************************************************************* //
