/*--------------------------------*- C++ -*----------------------------------*\
| =========                 |                                                 |
| \\      /  F ield         | OpenFOAM: The Open Source CFD Toolbox           |
|  \\    /   O peration     | Version:  2.3.0                                 |
|   \\  /    A nd           | Web:      www.OpenFOAM.org                      |
|    \\/     M anipulation  |                                                 |
\*---------------------------------------------------------------------------*/
FoamFile
{
    version     2.0;
    format      ascii;
    class       volScalarField;
    location    "0.022";
    object      p_rgh;
}
// * * * * * * * * * * * * * * * * * * * * * * * * * * * * * * * * * * * * * //

dimensions      [1 -1 -2 0 0 0 0];

internalField   nonuniform List<scalar> 
725
(
383.978
188.768
147.177
127.184
98.9396
352.869
191.988
147.863
121.674
87.4594
338.528
194.292
149.126
129.408
99.7978
336.103
189.931
144.485
103.233
24.9245
346.55
184.029
142.952
126.222
141.042
195.303
44.1348
955.683
-9.50489
844.84
432.863
406.175
391.636
320.007
253.497
228.252
253.429
296.009
301.262
280.412
235.545
199.939
180.721
169.87
163.627
159.69
155.914
151.379
146.437
154.256
159.334
145.474
132.876
110.292
95.8351
87.0632
81.4436
78.4301
77.6102
77.6353
83.4089
110.247
65.5319
50.5286
4.42271
-13.0687
-11.5667
-13.6784
-9.90578
-0.622575
146.698
-61.8053
-387.852
-617.911
1101.96
453.305
382.019
387.748
322.662
250.321
217.293
252.262
297.367
301.589
286.49
235.408
198.493
180.075
169.595
163.198
158.688
155.117
150.498
146.218
152.846
161.358
145.241
134.03
109.755
95.6446
87.0839
81.3279
78.219
77.5694
78.2183
83.3633
117.53
59.0905
48.1516
3.16548
-13.1348
-10.2355
-13.1044
-8.65297
-15.2408
175.873
417.737
471.508
-151.369
1036.71
499.63
371.064
367.231
325.796
240.53
197.481
252.025
305.515
301.824
300.344
232.891
193.609
177.921
169.034
163.255
158.381
154.309
148.295
144.865
156.118
167.581
144.808
137.829
108.281
94.1106
86.3282
80.7011
77.4931
77.0306
78.5715
81.416
136.747
46.1561
46.1812
-3.74243
-17.6237
-10.1321
-13.5948
-6.45857
-17.3729
474.764
1071.04
598.683
-73.2579
1139.18
659.745
249.192
353.424
365.47
224.503
157.858
254.794
323.416
294.133
323.031
225.521
184.428
174.328
168.671
163.279
158.396
154.868
146.69
143.629
161.666
182.747
146.267
144.071
102.266
91.6383
85.1135
79.6419
76.09
75.5991
77.9884
78.0944
172.867
25.6478
52.792
-13.7392
-24.9709
-8.57544
-15.4468
-2.30592
-24.4803
1044.63
1064.2
870.804
634.383
1333.5
537.748
44.181
328.536
344.829
208.33
89.9726
261.042
359.322
268.126
369.022
207.124
172.382
182.26
167.857
162.604
158.241
153.682
134.94
157.07
217.448
213.217
156.769
160.167
91.9079
89.149
83.4259
78.2903
74.0285
72.8945
76.1934
74.6348
223.926
21.8261
76.393
-16.3215
-36.5686
-6.61052
-18.8585
5.29795
-33.8862
1048.39
1064.25
1001.13
670.756
1837.87
551.522
865.665
498.27
430.031
199.842
11.758
279.826
403.918
231.049
425.104
181.175
239.701
179.903
166.02
162.964
158.806
163.863
163.424
169.712
213.119
225.337
153.73
179.934
74.4642
87.3416
81.8385
77.4029
72.2305
70.3242
72.5353
73.2745
271.534
408.655
104.308
560.421
-49.0259
-1.84979
-17.6707
21.3426
100.14
1048.12
1071.31
1467.15
8531.37
1758.65
531.67
532.436
505.708
581.859
196.533
653.527
293.609
503.712
214.835
445.516
172.053
233.269
178.324
180.366
166.964
171.722
164.924
151.403
163.204
210.464
229.067
143.227
180.239
68.2434
87.497
81.2513
77.0782
71.6372
69.3645
70.5685
83.3581
289.227
343.373
110.25
558.261
602.837
0.956868
-18.9985
215.068
94.8596
1047.95
1197.21
1168.39
5876.94
1470.87
505.86
476.357
495.02
558.708
182.697
439.234
296.979
522.062
185.536
467.786
225.942
214.707
181.782
159.085
152.529
153.276
149.646
149.87
162.432
291.881
237.532
139.85
200.516
203.782
86.6327
80.6985
76.8577
70.9378
68.4136
68.8499
72.8996
265.208
289.693
112.716
601.651
85.5247
296.856
-23.9977
-26.456
42.3107
1047.52
1078.43
2153.77
6340.08
1119.69
469.931
469.26
677.654
773.395
208.293
388.698
177.088
9.92532
225.868
516.851
212.551
208.559
180.603
158.854
152.726
153.488
150.434
148.737
168.286
309.735
378.954
115.417
216.079
144.941
105.184
88.7159
77.3018
74.3789
68.8498
65.2938
145.033
344.609
306.148
110.952
752.769
220.495
20.736
144.753
-35.8804
235.391
1045.78
1082.6
1107.42
10678.5
1130.36
419.591
423.134
483.63
791.26
190.881
363.338
174.293
28.9143
170.767
553.179
196.439
201.148
181.151
158.594
152.999
153.438
141.234
151.892
148.634
113.143
74.5284
105.512
46.6286
117.225
89.7759
82.853
77.8078
72.1843
64.0489
61.6492
96.3937
359.279
292.39
109.64
114.614
96.5991
28.4384
4.252
-63.6378
44.0138
509.133
347.804
296.272
278.355
194.836
498.854
354.278
297.455
272.155
95.9489
501.596
360.126
305.483
310.514
159.427
516.302
359.306
308.973
331.787
179.087
547.493
356.829
309.179
345.142
232.473
1035.02
1012.29
971.329
-952.982
712.415
142.019
311.746
453.432
76.9096
205.523
300.99
173.893
68.323
97.1433
-133.414
151.678
183.113
160.917
156.952
153.73
153.809
152.072
143.077
149.307
127.902
112.726
93.6272
61.7085
104.073
88.9817
81.249
75.7776
70.0215
61.5816
49.1899
34.3484
-146.854
143.307
106.757
131.48
71.1299
21.8301
6.99509
-41.7413
34.4232
431.675
742.852
650.343
-1772.35
-766.75
80.05
213.312
157.272
118.372
174
240.207
172.637
103.215
71.4367
-35.1526
130.637
165.481
157.748
156.032
153.464
155.794
150.926
124.614
168.758
130.457
36.7887
102.104
72.6992
92.4244
86.2345
79.4991
74.2781
67.561
58.0772
44.3639
35.7161
-90.6186
113.231
103.19
32.4375
35.6824
23.0718
12.2656
-22.6635
20.1839
360.965
576.566
735.761
-1366.91
-760.267
-55.3267
93.3976
130.115
149.438
180.42
207.383
167.799
118.339
61.0117
18.2345
120.074
155
155.921
153.767
153.791
157.862
152.841
190.143
174.125
84.3026
74.1901
97.1342
72.1781
80.8267
79.7181
76.4857
72.6123
65.3132
56.1451
43.2419
29.9032
-56.0382
72.8391
97.9034
37.1152
38.0585
22.0281
16.3701
-0.21356
9.05561
389.324
60.1049
282.795
-1178.02
-690.96
-111.123
154.699
116.086
158.047
175.237
187.779
163.786
122.794
58.6851
44.3244
116.602
148.624
152.439
152.907
152.715
159.455
154.432
176.616
120.836
109.427
82.8689
79.878
100.355
120.813
121.871
89.9493
73.4117
66.7674
56.9812
44.7216
30.0487
-30.0411
62.6665
50.6478
55.5595
35.5177
21.3695
17.4253
26.9272
-7.05044
558.708
899.566
1877.4
-564.293
-557.555
-59.0038
113.597
111.92
162.021
174.472
180.326
162.654
123.117
58.4741
57.9474
117.576
147.107
152.703
151.808
185.347
213.712
157.638
197.05
160.957
102.902
92.9935
98.424
91.0557
102.196
99.8029
85.5719
73.8233
68.7782
61.3858
49.1076
37.3374
-22.6798
86.5418
81.435
51.9926
43.4498
28.1633
18.8442
12.1849
-3.39227
)
;

boundaryField
{
    AirInlet
    {
        type            fixedFluxPressure;
        gradient        nonuniform List<scalar> 5(8696.6 9988.51 1197.05 28146.5 2785.53);
        value           nonuniform List<scalar> 5(1048.48 1048.22 1047.96 1047.8 1045.81);
    }
    WaterInlet
    {
        type            fixedFluxPressure;
        gradient        nonuniform List<scalar> 10(-0.0023658 -1.62965 -0.612217 -0.276083 -1.44354 -0.00577853 -20.2521 -0.0613443 -14.9743 -0.163447);
        value           nonuniform List<scalar> 10(383.978 352.869 338.528 336.103 346.55 509.133 498.854 501.596 516.302 547.493);
    }
    ChannelWall
    {
        type            fixedFluxPressure;
        gradient        uniform 0;
        value           nonuniform List<scalar> 
110
(
346.55
184.029
142.952
126.222
141.042
509.133
347.804
296.272
278.355
194.836
547.493
356.829
309.179
345.142
232.473
558.708
899.566
1877.4
-564.293
-557.555
-59.0038
113.597
111.92
162.021
174.472
180.326
162.654
123.117
58.4741
57.9474
117.576
147.107
152.703
151.808
185.347
213.712
157.638
197.05
160.957
102.902
92.9935
98.424
91.0557
102.196
99.8029
85.5719
73.8233
68.7782
61.3858
49.1076
37.3374
-22.6798
86.5418
81.435
51.9926
43.4498
28.1633
18.8442
12.1849
-3.39227
383.978
188.768
147.177
127.184
98.9396
195.303
44.1348
955.683
-9.50489
844.84
432.863
406.175
391.636
320.007
253.497
228.252
253.429
296.009
301.262
280.412
235.545
199.939
180.721
169.87
163.627
159.69
155.914
151.379
146.437
154.256
159.334
145.474
132.876
110.292
95.8351
87.0632
81.4436
78.4301
77.6102
77.6353
83.4089
110.247
65.5319
50.5286
4.42271
-13.0687
-11.5667
-13.6784
-9.90578
-0.622575
)
;
    }
    Outlet
    {
        type            totalPressure;
        rho             rho;
        psi             none;
        gamma           1;
        p0              uniform 0;
        value           uniform 0;
    }
    FrontAndBack
    {
        type            empty;
    }
}


// ************************************************************************* //
