/*--------------------------------*- C++ -*----------------------------------*\
| =========                 |                                                 |
| \\      /  F ield         | OpenFOAM: The Open Source CFD Toolbox           |
|  \\    /   O peration     | Version:  2.3.0                                 |
|   \\  /    A nd           | Web:      www.OpenFOAM.org                      |
|    \\/     M anipulation  |                                                 |
\*---------------------------------------------------------------------------*/
FoamFile
{
    version     2.0;
    format      ascii;
    class       volScalarField;
    location    "0.022";
    object      p_rgh;
}
// * * * * * * * * * * * * * * * * * * * * * * * * * * * * * * * * * * * * * //

dimensions      [1 -1 -2 0 0 0 0];

internalField   nonuniform List<scalar> 
725
(
-273.532
-310.423
-331.551
-328.912
-238.035
-279.06
-310.036
-332.793
-337.933
-292.669
-281.597
-310.209
-333.263
-341.413
-307.041
-281.072
-311.014
-331.857
-326.841
-344.309
-277.79
-312.312
-329.446
-309.619
-264.308
-361.371
-408.418
-614.626
-501.094
-429.011
-372.714
-296.533
-228.943
-154.868
-314.144
-332.017
-331.151
-489.751
-522.512
-498.246
-468.954
-454.128
-443.274
-442.988
-442.134
-441.934
-441.511
-441.067
-440.463
-439.701
-439
-438.421
-437.916
-437.56
-436.863
-435.059
-429.503
-412.447
-360.931
-202.117
2.07085
19.7964
24.6142
24.7901
24.1144
120.912
342.647
79.2987
23.2908
9.39627
-290.153
-397.692
-589.955
-490.392
-426.083
-374.061
-303.456
-243.077
-165.774
-340.406
-332.146
-330.704
-483.861
-538.06
-491.731
-464.941
-448.153
-445.109
-445.198
-443.948
-443.432
-442.68
-441.952
-441.147
-440.293
-439.532
-438.916
-438.417
-438.064
-437.479
-436.182
-432.256
-420.298
-384.471
-282.896
-44.8017
20.3829
24.4071
25.2676
21.3973
-7.10519
149.324
50.3387
17.101
3.05844
-272.685
-443.591
-558.86
-474.555
-421.072
-376.831
-315.707
-278.642
-235.919
-342.632
-331.166
-329.596
-492.211
-508.464
-465.675
-453.927
-447.649
-442.478
-441.532
-443.462
-443.437
-442.671
-441.96
-441.134
-440.249
-439.48
-438.897
-438.449
-438.209
-437.889
-437.441
-436.231
-432.611
-418.978
-320.029
18.0379
19.6806
23.9149
26.2098
20.5027
-50.5156
-27.9195
8.92943
7.18126
1.7192
181.812
-608.597
-620.199
-470.682
-415.198
-378.673
-332.081
-323.482
-318.834
-346.6
-330.965
-329.274
-487.531
-450.08
-436.295
-441.136
-442.892
-444.002
-443.245
-443.093
-442.936
-442.581
-441.946
-441.108
-440.203
-439.439
-438.885
-438.467
-438.353
-438.334
-438.801
-440.553
-446.987
-473.759
-557.999
-212.496
22.1879
24.8739
28.5073
18.8015
42.4919
-204.088
-38.4284
-5.38776
0.560885
681.352
-386.195
-696.445
-453.034
-401.565
-375.676
-348.834
-358.49
-385.113
-374.928
-331.715
-329.558
-480.818
-375.934
-410.909
-432.22
-437.732
-440.467
-439.82
-443.188
-443.053
-442.317
-441.859
-441.043
-440.135
-439.402
-438.878
-438.451
-438.46
-438.679
-439.838
-444.045
-456.611
-507.161
-888.187
-1002.01
41.9674
24.2464
33.2788
24.9176
-513.155
-437.223
-63.263
-16.1759
-0.674864
3311.36
271.304
-644.699
-427.313
-393.086
-371.061
-356.175
-375.484
-382.155
-355.369
-336.53
-338.096
-450.163
-358.12
-409.78
-431.207
-435.798
-438.676
-438.906
-443.105
-442.344
-441.829
-441.626
-440.893
-440.081
-439.464
-439.005
-438.463
-438.526
-438.87
-440.233
-444.687
-454.442
-489.664
-565.879
-702.073
67.9135
0.538864
35.887
14.5085
28.8822
-172.331
-13.2106
-18.1436
0.609995
3166.59
869.903
-572.161
-413.646
-388.831
-367.846
-359.801
-376.352
-335.205
-336.618
-337.917
-342.673
-435.917
-356.033
-409.819
-413.702
-433.889
-438.776
-438.692
-442.983
-442.11
-441.586
-441.471
-440.772
-440.031
-439.482
-439.014
-438.287
-438.161
-438.573
-440.158
-444.484
-455.061
-485.659
-422.286
902.77
231.611
-3.51144
37.0525
-0.769248
1272.63
4.43861
-2.40003
-18.1455
1.14076
3225.98
945.361
-544.949
-399.467
-383.066
-365.936
-361.407
-374.488
-347.139
-353.242
-338.376
-342.941
-424.587
-352.044
-408.637
-424.85
-433.221
-438.373
-438.187
-442.747
-441.754
-440.724
-439.834
-438.903
-438.136
-437.637
-437.499
-437.698
-437.955
-438.488
-440.009
-444.443
-454.924
-484.86
-414.46
4471.08
179.076
25.4385
35.1235
-21.8082
2714.7
24.9634
2.9598
-17.335
2.40064
4228.11
2471.99
-562.747
-388.069
-377.344
-363.06
-362.555
-379.174
-355.632
-359.32
-338.682
-343.587
-416.12
-349.59
-406.507
-423.231
-432.714
-438.015
-438.309
-442.56
-441.508
-440.092
-439.38
-438.647
-438.161
-438.051
-438.711
-439.164
-439.191
-439.398
-440.748
-444.68
-455.385
-488.767
-602
-1648.88
-17.7149
29.0554
61.2414
-14.0381
52.6855
2.74127
5.68761
12.2762
3.1966
3515.41
94.4531
-419.836
-388.239
-373.019
-360.442
-364.686
-386.136
-355.176
-366.703
-339.041
-341.845
-405.271
-345.881
-405.576
-422.954
-432.04
-437.393
-438.174
-442.433
-441.298
-441.462
-440.856
-440.228
-439.694
-439.165
-439.015
-439.245
-439.227
-439.398
-440.705
-444.801
-455.405
-492.79
-768.017
-1788.71
25.8926
27.283
3.54748
-5.46542
-63.9339
-48.6867
6.23357
-5.15716
2.55919
-361.844
-384.495
-383.275
-269.368
154.013
-365.92
-386.896
-401.881
-333.474
-209.862
-367.421
-390.429
-421.626
-402.263
-328.495
-365.796
-394.277
-440.217
-480.317
-690.709
-360.956
-397.052
-451.419
-530.148
-884.598
1092.18
204.154
-1254.09
-423.279
-364.671
-352.927
-370.399
-403.643
-387.38
-409.665
-338.131
-340.787
-397.284
-354.985
-403.014
-420.814
-430.512
-434.744
-435.303
-442.41
-440.757
-441.448
-440.838
-440.3
-439.894
-439.491
-439.268
-439.29
-439.201
-439.269
-440.316
-444.15
-456.693
-512.68
-973.78
-583.319
35.6084
26.7368
15.6603
25.4508
-98.6711
81.8562
18.6218
0.0471588
2.99
860.277
40.5982
-325.86
-346.425
-333.706
-340.639
-366.124
-402.123
-473.525
-389.551
-339.885
-342.944
-374.513
-368.311
-401.419
-418.926
-428.862
-436.428
-438.653
-441.332
-440.362
-441.36
-440.751
-440.205
-439.813
-439.473
-439.269
-439.2
-439.037
-438.834
-439.041
-440.519
-448.01
-495.536
-489.555
223.958
18.4751
25.651
18.9122
23.1539
-43.6063
103.197
19.7464
1.28651
4.09608
731.108
139.216
-206.049
-284.733
-309.027
-335.15
-373.752
-430.382
-479.118
-375.159
-341.529
-343.119
-360.288
-406.577
-414.342
-422.056
-430.71
-436.803
-438.364
-438.412
-441.06
-441.256
-440.697
-440.159
-439.769
-439.453
-439.245
-439.105
-438.84
-438.316
-437.463
-435.438
-429.913
-403.298
-149.571
121.249
20.4679
23.9411
19.9345
20.7051
-20.6679
-11.9611
1.72305
-5.8644
1.46303
1002.36
255.832
-188.9
-254.539
-290.426
-331.845
-378.345
-449.474
-502.905
-365.592
-342.461
-342.633
-352.111
-430.418
-428.546
-428.135
-431.124
-428.93
-434.09
-439.985
-440.91
-441.146
-440.657
-440.141
-439.769
-439.476
-439.266
-439.063
-438.687
-437.867
-436.073
-431.016
-416.269
-372.426
-271.972
-105.714
22.1712
23.5416
20.8134
21.3024
-0.30953
-105.075
-16.5816
-10.5608
3.26654
1056.88
275.652
-149.363
-237.991
-277.955
-328.593
-380.024
-456.454
-500.072
-362.395
-341.922
-342.696
-349.755
-433.661
-433.296
-431.292
-432.807
-433.469
-437.009
-435.869
-437.581
-438.846
-438.993
-438.92
-438.817
-438.665
-438.505
-438.339
-438.047
-437.155
-434.904
-428.207
-408.327
-349.835
-206.628
2.23598
20.6425
23.2942
21.3186
22.7057
8.77488
-143.804
-19.6012
-11.4235
2.22852
)
;

boundaryField
{
    AirInlet
    {
        type            fixedFluxPressure;
        gradient        nonuniform List<scalar> 5(3.16639e+07 5.66654e+07 -6.72142e+06 9.94393e+06 3.94246e+07);
        value           nonuniform List<scalar> 5(3628 3733.25 3158.76 4327.55 3909.65);
    }
    WaterInlet
    {
        type            fixedFluxPressure;
        gradient        nonuniform List<scalar> 10(0.00206269 -6.74007 -0.791435 0.00231228 -2.5756 0.00273226 -6.17403 -3.20982 -0.13203 -7.54357);
        value           nonuniform List<scalar> 10(-273.532 -279.061 -281.597 -281.072 -277.79 -361.844 -365.92 -367.421 -365.796 -360.956);
    }
    ChannelWall
    {
        type            fixedFluxPressure;
        gradient        uniform 0;
        value           nonuniform List<scalar> 
110
(
-277.79
-312.312
-329.446
-309.619
-264.308
-361.844
-384.495
-383.275
-269.368
154.013
-360.956
-397.052
-451.419
-530.148
-884.598
1056.88
275.652
-149.363
-237.991
-277.955
-328.593
-380.024
-456.454
-500.072
-362.395
-341.922
-342.696
-349.755
-433.661
-433.296
-431.292
-432.807
-433.469
-437.009
-435.869
-437.581
-438.846
-438.993
-438.92
-438.817
-438.665
-438.505
-438.339
-438.047
-437.155
-434.904
-428.207
-408.327
-349.835
-206.628
2.23598
20.6425
23.2942
21.3186
22.7057
8.77488
-143.804
-19.6012
-11.4235
2.22852
-273.532
-310.423
-331.551
-328.912
-238.035
-361.371
-408.418
-614.626
-501.094
-429.011
-372.714
-296.533
-228.943
-154.868
-314.144
-332.017
-331.151
-489.751
-522.512
-498.246
-468.954
-454.128
-443.274
-442.988
-442.134
-441.934
-441.511
-441.067
-440.463
-439.701
-439
-438.421
-437.916
-437.56
-436.863
-435.059
-429.503
-412.447
-360.931
-202.117
2.07085
19.7964
24.6142
24.7901
24.1144
120.912
342.647
79.2987
23.2908
9.39627
)
;
    }
    Outlet
    {
        type            totalPressure;
        rho             rho;
        psi             none;
        gamma           1;
        p0              uniform 0;
        value           nonuniform List<scalar> 
15
(
0
0
0
0
0
0
0
0
0
0
0
0
0
-9.20585e-06
-6.56115e-06
)
;
    }
    FrontAndBack
    {
        type            empty;
    }
}


// ************************************************************************* //
