/*--------------------------------*- C++ -*----------------------------------*\
| =========                 |                                                 |
| \\      /  F ield         | OpenFOAM: The Open Source CFD Toolbox           |
|  \\    /   O peration     | Version:  2.3.0                                 |
|   \\  /    A nd           | Web:      www.OpenFOAM.org                      |
|    \\/     M anipulation  |                                                 |
\*---------------------------------------------------------------------------*/
FoamFile
{
    version     2.0;
    format      ascii;
    class       surfaceScalarField;
    location    "0.022";
    object      phi;
}
// * * * * * * * * * * * * * * * * * * * * * * * * * * * * * * * * * * * * * //

dimensions      [0 3 -1 0 0 0 0];

internalField   nonuniform List<scalar> 
1380
(
3.13731e-13
1.86269e-13
2.96422e-13
1.73091e-14
3.2486e-13
-2.8438e-14
5.98398e-13
-2.73539e-13
-4.99854e-13
1.09825e-12
6.01668e-13
8.46013e-14
6.1076e-13
8.21739e-15
6.11837e-13
-2.95154e-14
2.7122e-13
6.70781e-14
-3.52e-13
1.23366e-13
6.83372e-13
-9.87705e-14
7.08509e-13
-1.69199e-14
6.69057e-13
9.93711e-15
2.97287e-13
4.38848e-13
9.22822e-14
-1.46995e-13
5.96809e-13
-1.9558e-13
6.04666e-13
-2.47761e-14
6.0629e-13
8.31235e-15
7.12041e-13
3.33097e-13
5.78386e-13
2.25938e-13
3.0442e-13
2.79644e-13
2.87957e-13
6.21054e-13
1.19944e-12
5.90039e-13
5.08213e-13
7.29979e-13
-1.3994e-13
4.99561e-13
2.30418e-13
5.1966e-14
4.47595e-13
-1.24104e-13
1.7607e-13
-3.71455e-14
-8.69587e-14
5.67422e-13
-6.04567e-13
1.49713e-12
-9.29713e-13
2.06919e-12
-5.72055e-13
2.43667e-13
1.82552e-12
-2.86941e-13
5.30607e-13
-2.7905e-13
-7.8917e-15
1.17689e-12
-1.45594e-12
4.98468e-13
6.78419e-13
3.13549e-13
1.84919e-13
2.01215e-13
1.12333e-13
1.57064e-13
4.4151e-14
1.86813e-13
-2.97484e-14
1.59944e-13
2.68683e-14
1.50351e-13
9.59329e-15
1.50126e-13
2.25762e-16
1.55005e-13
-4.87915e-15
1.5751e-13
-2.5054e-15
1.57359e-13
1.508e-16
1.55192e-13
2.16672e-15
1.51472e-13
3.72052e-15
1.49777e-13
1.695e-15
1.52004e-13
-2.22694e-15
1.54808e-13
-2.8048e-15
1.58418e-13
-3.60991e-15
1.59331e-13
-9.12292e-16
1.62119e-13
-2.78824e-15
1.90878e-13
-2.87587e-14
2.31437e-13
-4.05596e-14
1.56236e-13
7.52011e-14
-2.37187e-12
2.52811e-12
-1.43605e-12
-9.35824e-13
5.34254e-13
-1.9703e-12
-1.09156e-12
1.62582e-12
-6.30186e-12
5.21029e-12
-1.7558e-12
-4.54605e-12
-4.91457e-14
-1.70666e-12
3.6331e-13
-4.12455e-13
4.22717e-13
-5.94078e-14
-2.83313e-14
4.57703e-13
1.73876e-13
1.34166e-12
-1.02389e-12
7.88696e-13
7.83378e-13
1.24735e-13
1.11156e-12
-1.5622e-13
4.57024e-13
9.71262e-14
-3.40305e-13
9.77376e-13
-1.48482e-12
1.69437e-12
-1.64671e-12
1.15991e-12
-3.75864e-14
1.92898e-12
1.05645e-12
3.39862e-12
-9.39028e-13
4.38775e-12
-9.97025e-13
1.76767e-13
2.75505e-12
5.20544e-13
3.34642e-13
6.26675e-13
7.87885e-14
4.61897e-13
2.77111e-13
4.18034e-13
8.80146e-14
4.34039e-13
-4.57524e-14
3.91804e-13
6.91026e-14
3.79325e-13
2.20728e-14
3.81899e-13
-2.34904e-15
3.94911e-13
-1.78914e-14
4.02551e-13
-1.0145e-14
4.03704e-13
-1.00157e-15
4.00373e-13
5.49752e-15
3.94159e-13
9.93421e-15
3.91698e-13
4.15531e-15
3.96728e-13
-7.25652e-15
4.0381e-13
-9.88628e-15
4.11331e-13
-1.11311e-14
4.18512e-13
-8.09373e-15
4.33754e-13
-1.80304e-14
5.04342e-13
-9.93466e-14
6.48709e-13
-1.84927e-13
1.01461e-12
-2.90699e-13
2.16208e-12
1.38063e-12
2.1386e-13
1.0124e-12
2.93496e-12
-4.69139e-12
1.3068e-12
3.25397e-12
-1.62188e-12
8.13898e-12
3.6726e-13
-6.53519e-12
1.03404e-12
-2.37343e-12
9.94798e-13
-3.73217e-13
8.63542e-13
7.18481e-14
3.60164e-14
5.99142e-13
-5.72261e-13
2.49099e-12
-2.91574e-12
1.17205e-12
2.10232e-12
3.73775e-13
1.90983e-12
9.61005e-14
7.34699e-13
3.70311e-13
-6.14515e-13
9.10849e-13
-2.02536e-12
9.72522e-13
-1.70838e-12
-2.97564e-13
1.2325e-12
8.45211e-13
-8.63283e-14
2.07731e-12
-2.17113e-12
9.51698e-13
1.28588e-13
-5.89245e-15
3.71264e-12
6.79846e-13
-3.51097e-13
7.53232e-13
5.4031e-15
6.45933e-13
3.8441e-13
5.86928e-13
1.47019e-13
5.896e-13
-4.84239e-14
5.82305e-13
7.63974e-14
5.59403e-13
4.49747e-14
5.61257e-13
-4.20328e-15
5.75871e-13
-3.25051e-14
5.83052e-13
-1.73256e-14
5.83789e-13
-1.73887e-15
5.80455e-13
8.83186e-15
5.73936e-13
1.64531e-14
5.71534e-13
6.55716e-15
5.77829e-13
-1.35522e-14
5.86151e-13
-1.82076e-14
5.93351e-13
-1.83317e-14
6.00006e-13
-1.47483e-14
6.10324e-13
-2.83484e-14
6.55511e-13
-1.44534e-13
6.03073e-13
-1.32488e-13
4.02099e-14
2.72164e-13
-1.18368e-12
2.60452e-12
6.83688e-13
-8.54958e-13
4.5256e-12
-8.5333e-12
6.91905e-12
8.60526e-13
7.22886e-12
7.82917e-12
4.11773e-12
-3.42406e-12
2.34036e-12
-5.9607e-13
1.51262e-12
4.54524e-13
1.07238e-12
5.12086e-13
1.60497e-13
2.03995e-12
-2.38627e-12
3.25184e-12
-4.12763e-12
1.86538e-12
3.48878e-12
9.77498e-13
2.79771e-12
6.71493e-13
1.0407e-12
7.17456e-13
-6.60479e-13
6.46359e-13
-1.95426e-12
2.98938e-13
-1.36096e-12
-4.43118e-13
1.97456e-12
1.6895e-12
-2.21894e-12
1.93151e-12
-2.41314e-12
-1.05115e-12
3.11124e-12
2.25833e-13
2.43566e-12
9.45263e-13
-1.07053e-12
8.27177e-13
1.23489e-13
7.35653e-13
4.75934e-13
7.1309e-13
1.69581e-13
6.78997e-13
-1.43302e-14
6.87871e-13
6.75223e-14
6.867e-13
4.61465e-14
6.89967e-13
-7.47064e-15
7.00503e-13
-4.30403e-14
7.00762e-13
-1.75854e-14
6.98281e-13
7.43193e-16
6.95779e-13
1.13327e-14
6.90939e-13
2.12937e-14
6.89704e-13
7.79169e-15
6.97303e-13
-2.11515e-14
7.05569e-13
-2.64731e-14
7.11189e-13
-2.3952e-14
7.16306e-13
-1.98649e-14
7.20785e-13
-3.28277e-14
7.70628e-13
-1.94376e-13
9.12593e-13
-2.74453e-13
1.05716e-12
1.27602e-13
-4.6615e-12
8.32317e-12
3.86946e-12
-9.38592e-12
4.35317e-12
-9.01701e-12
7.66441e-12
-2.45073e-12
1.43371e-11
1.15647e-12
4.47664e-12
6.43642e-12
2.39844e-12
1.48213e-12
1.66101e-12
1.19195e-12
1.13524e-12
1.03786e-12
3.08346e-13
5.281e-12
-6.46784e-12
4.31434e-12
-3.16096e-12
3.5476e-12
4.25551e-12
2.26285e-12
4.08246e-12
1.47205e-12
1.83151e-12
1.02528e-12
-2.13712e-13
4.5387e-13
-1.38285e-12
-1.10068e-13
-7.97025e-13
-7.27692e-13
2.59218e-12
4.95992e-12
-7.90656e-12
-1.49308e-12
4.03987e-12
-8.09548e-12
9.71364e-12
1.22498e-12
-6.8848e-12
1.37254e-12
-1.21808e-12
8.97177e-13
5.98848e-13
7.54844e-13
6.18267e-13
7.54973e-13
1.69452e-13
7.25604e-13
1.50393e-14
7.47207e-13
4.5919e-14
7.53425e-13
3.99288e-14
7.68363e-13
-2.2409e-14
7.70005e-13
-4.46817e-14
7.55829e-13
-3.40986e-15
7.46929e-13
9.64314e-15
7.46297e-13
1.19653e-14
7.46028e-13
2.15624e-14
7.47978e-13
5.84087e-15
7.5702e-13
-3.01935e-14
7.64644e-13
-3.40968e-14
7.6811e-13
-2.74179e-14
7.74196e-13
-2.59513e-14
7.84498e-13
-4.31287e-14
7.9001e-13
-1.99889e-13
8.25974e-13
-3.10418e-13
2.78569e-12
-1.83211e-12
2.40498e-11
-1.29409e-11
1.61908e-11
-1.52694e-12
3.6528e-12
3.52097e-12
9.22544e-12
-8.02336e-12
-9.02461e-12
1.94065e-11
-3.01126e-13
-2.28707e-12
1.45902e-12
-2.78014e-13
1.30273e-12
1.34824e-12
9.94867e-13
1.34572e-12
3.91197e-13
-5.87195e-13
-5.68064e-12
1.83802e-13
-3.93196e-12
7.1541e-13
3.7239e-12
6.57193e-13
4.14068e-12
4.33439e-13
2.05526e-12
2.65608e-13
-4.58809e-14
9.50654e-14
-1.2123e-12
4.01501e-14
-7.4211e-13
1.37118e-13
2.49521e-12
-5.83068e-13
-7.18637e-12
-1.52335e-12
4.98015e-12
-1.1772e-12
9.36749e-12
3.60069e-13
-8.42207e-12
2.70078e-13
-1.12809e-12
1.73985e-13
6.9494e-13
1.65214e-13
6.27039e-13
1.70722e-13
1.63943e-13
1.72771e-13
1.29905e-14
1.76114e-13
4.25757e-14
1.75883e-13
4.01606e-14
1.76323e-13
-2.28497e-14
1.73927e-13
-4.22852e-14
1.67799e-13
2.71835e-15
1.64339e-13
1.31025e-14
1.64458e-13
1.18469e-14
1.65692e-13
2.03282e-14
1.67197e-13
4.33531e-15
1.68965e-13
-3.19615e-14
1.7077e-13
-3.59011e-14
1.71351e-13
-2.79987e-14
1.73438e-13
-2.80381e-14
1.77199e-13
-4.68897e-14
1.78624e-13
-2.01314e-13
2.24585e-13
-3.56379e-13
4.20954e-13
-2.02848e-12
2.31186e-12
-1.48318e-11
4.02958e-12
-3.24466e-12
7.50383e-13
6.80017e-12
5.23108e-12
-1.25041e-11
-9.39025e-13
2.55766e-11
3.37281e-13
-3.56338e-12
2.21618e-13
-1.62351e-13
2.14752e-13
1.3551e-12
1.98721e-13
1.36175e-12
4.08067e-13
-3.51842e-12
-1.96223e-12
-4.36767e-13
-7.01361e-12
7.33121e-13
2.55402e-12
7.04564e-13
4.16923e-12
4.68512e-13
2.29131e-12
2.75829e-13
1.46802e-13
8.87648e-14
-1.02524e-12
4.27165e-14
-6.96061e-13
5.09004e-13
2.02892e-12
-1.29822e-12
-5.37915e-12
-1.64562e-12
5.32755e-12
-5.84679e-13
8.30655e-12
3.39444e-13
-9.3462e-12
1.94192e-13
-9.82834e-13
1.54569e-13
7.34562e-13
1.64639e-13
6.16969e-13
1.71689e-13
1.56894e-13
1.74985e-13
9.69397e-15
1.78778e-13
3.87831e-14
1.78053e-13
4.08858e-14
1.77829e-13
-2.26264e-14
1.74285e-13
-3.87406e-14
1.66845e-13
1.01582e-14
1.62807e-13
1.71405e-14
1.631e-13
1.15541e-14
1.64899e-13
1.85285e-14
1.66837e-13
2.3976e-15
1.68585e-13
-3.37092e-14
1.70295e-13
-3.76111e-14
1.70968e-13
-2.86717e-14
1.73113e-13
-3.01838e-14
1.77126e-13
-5.09023e-14
1.77375e-13
-2.01563e-13
2.67621e-13
-4.46626e-13
-5.75586e-13
-1.18527e-12
-6.93219e-13
-1.47142e-11
3.21221e-12
-7.15009e-12
1.06796e-12
8.94442e-12
4.84291e-12
-1.6279e-11
1.64038e-11
1.40157e-11
1.4869e-12
1.13535e-11
2.64775e-13
1.05978e-12
2.12058e-13
1.40782e-12
1.90335e-13
1.38347e-12
4.24714e-13
1.80342e-12
-3.56564e-12
1.72465e-12
-6.93484e-12
9.40568e-13
3.3381e-12
7.58566e-13
4.35124e-12
4.90304e-13
2.55958e-12
2.81024e-13
3.56082e-13
8.2313e-14
-8.26528e-13
-9.55535e-14
-5.18195e-13
6.14234e-13
1.31914e-12
-7.1698e-13
-4.04794e-12
-1.46811e-12
6.07868e-12
-3.79027e-13
7.21746e-12
2.85011e-13
-1.00102e-11
1.49351e-13
-8.47174e-13
1.3758e-13
7.46333e-13
1.61859e-13
5.9269e-13
1.72386e-13
1.46367e-13
1.75028e-13
7.05147e-15
1.79054e-13
3.47576e-14
1.78617e-13
4.13221e-14
1.78762e-13
-2.27706e-14
1.73919e-13
-3.38977e-14
1.646e-13
1.94772e-14
1.6008e-13
2.16598e-14
1.6074e-13
1.08947e-14
1.63237e-13
1.60317e-14
1.65865e-13
-2.3091e-16
1.67872e-13
-3.57157e-14
1.69512e-13
-3.92518e-14
1.69955e-13
-2.91139e-14
1.72361e-13
-3.25905e-14
1.75432e-13
-5.39735e-14
1.74866e-13
-2.00996e-13
3.14595e-13
-5.86355e-13
-5.87121e-13
-2.83554e-13
-7.9344e-13
-1.45079e-11
1.14191e-12
-9.08543e-12
5.51448e-13
9.53488e-12
2.57417e-12
-1.83017e-11
1.86745e-11
-2.08465e-12
2.0119e-12
2.80162e-11
4.05502e-13
2.66618e-12
2.33059e-13
1.58026e-12
1.82049e-13
1.43448e-12
4.41136e-13
-2.46747e-12
-8.98177e-13
2.94835e-12
-1.23507e-11
1.2917e-12
4.99475e-12
8.12649e-13
4.83028e-12
4.93528e-13
2.8787e-12
2.84148e-13
5.65463e-13
9.67955e-14
-6.39176e-13
-6.61884e-14
-3.55211e-13
4.89837e-13
7.63111e-13
-3.40062e-14
-3.52409e-12
-1.03944e-12
7.08412e-12
-4.00877e-13
6.5789e-12
3.01346e-13
-1.07125e-11
1.63421e-13
-7.09249e-13
1.25241e-13
7.84514e-13
1.60137e-13
5.57794e-13
1.7198e-13
1.34523e-13
1.73546e-13
5.48573e-15
1.76985e-13
3.13185e-14
1.77674e-13
4.06333e-14
1.78896e-13
-2.39926e-14
1.73475e-13
-2.84771e-14
1.64765e-13
2.81877e-14
1.60693e-13
2.5732e-14
1.61644e-13
9.94298e-15
1.64963e-13
1.27128e-14
1.6782e-13
-3.08772e-15
1.69127e-13
-3.70224e-14
1.70211e-13
-4.03357e-14
1.70423e-13
-2.9326e-14
1.72091e-13
-3.42587e-14
1.75699e-13
-5.75812e-14
1.71016e-13
-1.96313e-13
2.09991e-13
-6.2533e-13
5.46399e-14
-1.28203e-13
-1.74063e-13
-1.42792e-11
7.54631e-13
-1.00141e-11
5.75407e-13
9.7141e-12
7.27299e-13
-1.84536e-11
1.02614e-12
-2.38349e-12
6.83197e-13
2.83591e-11
4.6846e-13
2.88092e-12
2.47826e-13
1.8009e-12
1.72115e-13
1.51019e-12
4.55793e-13
1.35326e-12
-2.05144e-12
4.47641e-13
-1.1445e-11
1.30448e-12
4.13791e-12
8.00571e-13
5.33419e-12
4.81136e-13
3.19813e-12
2.87338e-13
7.59261e-13
1.30255e-13
-4.82093e-13
1.11506e-13
-3.36462e-13
3.66184e-13
5.08433e-13
2.34901e-13
-3.39281e-12
-6.75216e-13
7.99423e-12
-4.34549e-13
6.33823e-12
3.13949e-13
-1.1461e-11
1.51702e-13
-5.47002e-13
1.24368e-13
8.11847e-13
1.59761e-13
5.22401e-13
1.71294e-13
1.22991e-13
1.70709e-13
6.07031e-15
1.73636e-13
2.83919e-14
1.75378e-13
3.88914e-14
1.76847e-13
-2.54619e-14
1.72689e-13
-2.43194e-14
1.65957e-13
3.49198e-14
1.62728e-13
2.89618e-14
1.63515e-13
9.15591e-15
1.66299e-13
9.9286e-15
1.68799e-13
-5.58762e-15
1.69587e-13
-3.78105e-14
1.70148e-13
-4.08972e-14
1.69999e-13
-2.91767e-14
1.71426e-13
-3.56857e-14
1.73684e-13
-5.98383e-14
1.6643e-13
-1.8906e-13
9.61388e-14
-5.55039e-13
2.56625e-13
-2.88689e-13
4.24207e-12
-1.82646e-11
-2.36088e-12
-3.41118e-12
-2.37564e-13
7.59079e-12
-1.44998e-12
-1.72412e-11
-5.40579e-12
1.57233e-12
-2.44423e-13
2.31977e-11
4.60259e-13
2.17623e-12
2.376e-13
2.02356e-12
1.6529e-13
1.5825e-12
4.70933e-13
2.84218e-13
2.15782e-13
1.60744e-13
1.23474e-13
-4.5292e-13
6.13664e-13
-1.59032e-12
1.1374e-12
3.20803e-12
-4.79835e-12
5.92359e-13
1.23423e-13
5.75529e-13
1.40304e-13
4.62183e-13
7.2701e-13
3.21611e-13
1.27797e-12
2.86003e-12
6.69602e-13
6.89215e-13
-6.57923e-14
7.45491e-13
8.40284e-14
9.22381e-13
5.5012e-13
1.16325e-12
1.0371e-12
2.43372e-12
1.58957e-12
6.11173e-13
-1.76966e-13
6.66906e-13
2.82959e-14
9.41305e-13
2.75721e-13
1.31975e-12
6.58657e-13
1.55983e-12
2.19364e-12
3.23034e-13
3.5133e-13
6.27051e-13
1.28571e-12
2.84554e-12
-5.60152e-12
-1.24826e-12
-6.911e-12
-1.01356e-11
7.06307e-13
-3.4794e-12
2.28602e-12
3.75448e-12
1.85456e-12
3.62959e-12
1.28752e-12
1.3263e-12
1.0584e-12
-2.52972e-13
1.30395e-12
-5.82007e-13
8.00703e-13
1.01168e-12
5.27425e-12
-7.86636e-12
-1.11078e-12
1.43793e-11
-1.16457e-12
6.39202e-12
4.37691e-13
-1.30632e-11
6.82295e-13
-7.91607e-13
6.00782e-13
8.9336e-13
7.04933e-13
4.1825e-13
7.70596e-13
5.7327e-14
7.15099e-13
6.15675e-14
7.20624e-13
2.2867e-14
7.62035e-13
-2.5193e-15
7.69381e-13
-3.2808e-14
7.57928e-13
-1.28669e-14
7.50201e-13
4.26464e-14
7.4575e-13
3.34134e-14
7.47301e-13
7.60462e-15
7.55774e-13
1.45567e-15
7.62597e-13
-1.24103e-14
7.59449e-13
-3.4662e-14
7.55345e-13
-3.67933e-14
7.52486e-13
-2.63178e-14
7.51952e-13
-3.51517e-14
7.50134e-13
-5.80206e-14
6.99612e-13
-1.38539e-13
4.9515e-13
-3.50576e-13
9.52116e-13
-7.45654e-13
-3.63969e-12
-1.36728e-11
-9.19977e-12
2.1489e-12
-5.4837e-12
3.87472e-12
-2.05731e-11
-2.15184e-12
-2.24808e-11
3.48008e-12
1.98789e-12
-1.27097e-12
1.04632e-12
3.1178e-12
6.25782e-13
2.4441e-12
5.75084e-13
1.6332e-12
4.62863e-13
1.12849e-12
-1.70715e-12
-2.04391e-12
-6.96316e-12
-1.76008e-12
-3.76323e-12
1.26428e-13
1.86798e-12
8.17861e-13
2.93816e-12
8.18918e-13
1.32524e-12
4.08963e-13
1.56983e-13
-3.4031e-13
1.67266e-13
1.04383e-12
-3.72461e-13
2.31889e-12
-9.14142e-12
1.67102e-12
1.50271e-11
1.55251e-12
6.51053e-12
4.89198e-14
-1.15596e-11
5.28542e-13
-1.27123e-12
5.65322e-13
8.5658e-13
6.87801e-13
2.95771e-13
7.29905e-13
1.52233e-14
6.77942e-13
1.13531e-13
6.63059e-13
3.77498e-14
6.79611e-13
-1.90716e-14
6.81986e-13
-3.5183e-14
6.82765e-13
-1.36461e-14
6.94053e-13
3.13587e-14
7.01574e-13
2.58928e-14
7.03705e-13
5.47338e-15
7.06577e-13
-1.41594e-15
7.06023e-13
-1.1857e-14
6.97272e-13
-2.5911e-14
6.8794e-13
-2.74609e-14
6.82048e-13
-2.04252e-14
6.77249e-13
-3.03538e-14
6.66688e-13
-4.74595e-14
6.66279e-13
-1.38129e-13
8.45754e-13
-5.30051e-13
1.08631e-12
-9.86214e-13
-9.8237e-12
-2.76279e-12
-1.77305e-12
-5.90175e-12
-2.74169e-12
4.84336e-12
-6.9509e-12
2.05736e-12
-6.27542e-12
2.8046e-12
-2.37383e-12
-5.17257e-12
-7.71583e-13
1.51555e-12
-1.11012e-13
1.78353e-12
3.01835e-13
1.22035e-12
3.82729e-13
2.08457e-12
-2.20216e-12
-8.92609e-13
-3.98598e-12
-2.22965e-12
-2.42619e-12
-1.1443e-12
7.82631e-13
-6.32836e-14
1.85714e-12
3.12781e-13
9.49179e-13
5.96366e-14
4.10128e-13
-2.63945e-13
4.90848e-13
8.15414e-13
-1.45182e-12
1.10793e-12
-9.43394e-12
4.10446e-12
1.20306e-11
4.57913e-12
6.03586e-12
2.42925e-13
-7.22343e-12
1.42505e-13
-1.17081e-12
4.44777e-13
5.54308e-13
5.80047e-13
1.60501e-13
5.91741e-13
3.52844e-15
5.71594e-13
1.33679e-13
5.89724e-13
1.96193e-14
5.77767e-13
-7.11532e-15
5.61429e-13
-1.88448e-14
5.58621e-13
-1.08383e-14
5.7414e-13
1.58399e-14
5.86422e-13
1.36109e-14
5.89721e-13
2.17476e-15
5.89977e-13
-1.67258e-15
5.85625e-13
-7.50529e-15
5.74598e-13
-1.48835e-14
5.63087e-13
-1.59497e-14
5.54795e-13
-1.21337e-14
5.45525e-13
-2.10837e-14
5.29813e-13
-3.17478e-14
4.78828e-13
-8.7144e-14
1.85308e-13
-2.3653e-13
-7.44627e-13
-5.62795e-14
-3.27865e-12
-2.2877e-13
-4.17006e-12
-5.01034e-12
-1.59816e-12
2.27147e-12
-8.92307e-13
1.35151e-12
5.28876e-13
1.38341e-12
-3.03589e-12
-1.6078e-12
-1.3061e-12
-2.1424e-13
-4.72827e-13
9.5026e-13
7.01562e-14
6.77371e-13
3.11686e-13
1.64058e-12
-1.6491e-12
-9.6239e-13
-1.383e-12
-2.22283e-12
-1.16575e-12
-1.65074e-12
2.1054e-13
-5.11368e-13
7.17761e-13
3.31034e-14
4.04707e-13
1.54903e-13
2.88329e-13
3.31597e-13
3.14153e-13
-4.20748e-14
-1.07815e-12
-4.76131e-12
-4.7147e-12
2.24551e-12
5.02379e-12
4.92275e-12
3.35862e-12
2.94083e-13
-2.59476e-12
-1.70496e-13
-7.06229e-13
2.18129e-13
1.65682e-13
3.22751e-13
5.58799e-14
3.25321e-13
9.57888e-16
4.00781e-13
5.82198e-14
4.21453e-13
-1.05296e-15
3.99756e-13
1.45814e-14
3.87011e-13
-6.1004e-15
3.83074e-13
-6.90102e-15
3.95637e-13
3.27701e-15
4.05966e-13
3.28143e-15
4.0819e-13
-4.85861e-17
4.07216e-13
-6.98471e-16
4.02205e-13
-2.49403e-15
3.92217e-13
-4.89529e-15
3.8147e-13
-5.20372e-15
3.73052e-13
-3.71521e-15
3.60929e-13
-8.96109e-15
3.43817e-13
-1.46358e-14
2.95068e-13
-3.83949e-14
2.05967e-13
-1.47429e-13
5.68994e-13
-4.19306e-13
2.49064e-12
-2.15042e-12
-2.82092e-12
3.01217e-13
-1.57421e-12
1.02476e-12
-1.66798e-13
-5.58965e-14
1.4561e-12
-2.39485e-13
-1.86855e-12
1.71684e-12
-1.29438e-12
-7.88403e-13
-6.00624e-13
2.56501e-13
-1.55932e-13
2.32679e-13
1.74873e-13
1.19644e-12
-1.86566e-13
-1.35231e-12
-1.14177e-12
-4.24012e-13
-1.93045e-14
2.69025e-13
5.83178e-13
-4.9497e-13
-5.20967e-12
-1.85881e-13
3.17274e-12
5.77984e-13
-1.28245e-13
3.74371e-14
9.33172e-14
9.4275e-14
1.52495e-13
1.51441e-13
1.66023e-13
1.59922e-13
1.53021e-13
1.56299e-13
1.5958e-13
1.59531e-13
1.58833e-13
1.56339e-13
1.51444e-13
1.4624e-13
1.42525e-13
1.33564e-13
1.18928e-13
8.05331e-14
-6.68962e-14
-4.86203e-13
-2.63662e-12
-2.3354e-12
-1.31064e-12
-1.36654e-12
-1.60602e-12
1.10817e-13
-6.77586e-13
-4.21084e-13
-1.88405e-13
)
;

boundaryField
{
    AirInlet
    {
        type            calculated;
        value           nonuniform List<scalar> 5(-2e-13 -2e-13 -2e-13 -2e-13 -2e-13);
    }
    WaterInlet
    {
        type            calculated;
        value           nonuniform List<scalar> 10(-5e-13 -5e-13 -5e-13 -5e-13 -5e-13 -5e-13 -5e-13 -5e-13 -5e-13 -5e-13);
    }
    ChannelWall
    {
        type            calculated;
        value           uniform 0;
    }
    Outlet
    {
        type            calculated;
        value           nonuniform List<scalar> 
15
(
4.51049e-13
7.99194e-13
9.47902e-13
9.87393e-13
9.12017e-13
1.81851e-13
1.73688e-13
1.65627e-13
1.57458e-13
1.50151e-13
5.83154e-13
3.81969e-13
1.41199e-13
-1.91188e-14
-1.35324e-14
)
;
    }
    FrontAndBack
    {
        type            empty;
        value           nonuniform 0();
    }
}


// ************************************************************************* //
