/*--------------------------------*- C++ -*----------------------------------*\
| =========                 |                                                 |
| \\      /  F ield         | OpenFOAM: The Open Source CFD Toolbox           |
|  \\    /   O peration     | Version:  2.3.0                                 |
|   \\  /    A nd           | Web:      www.OpenFOAM.org                      |
|    \\/     M anipulation  |                                                 |
\*---------------------------------------------------------------------------*/
FoamFile
{
    version     2.0;
    format      ascii;
    class       surfaceScalarField;
    location    "0.022";
    object      phi;
}
// * * * * * * * * * * * * * * * * * * * * * * * * * * * * * * * * * * * * * //

dimensions      [0 3 -1 0 0 0 0];

internalField   nonuniform List<scalar> 
1380
(
1.31955e-12
6.80453e-13
1.12028e-12
1.99271e-13
1.07839e-12
4.18845e-14
1.05161e-12
2.67809e-14
-4.5242e-15
1.05613e-12
2.4113e-12
2.69155e-13
2.50286e-12
1.07708e-13
2.55118e-12
-6.43031e-15
2.5849e-12
-6.93885e-15
1.06732e-13
2.47364e-12
2.68312e-12
-4.13965e-13
2.92919e-12
-1.38367e-13
3.00174e-12
-7.89793e-14
3.03031e-12
-3.55055e-14
3.14824e-13
2.82222e-12
2.35244e-12
-7.66408e-13
2.42078e-12
-2.06708e-13
2.45776e-12
-1.15956e-13
2.75551e-12
-3.33251e-13
-8.09965e-13
3.88029e-12
1.23359e-12
1.02688e-12
9.10929e-13
5.77678e-13
-2.32286e-13
7.71258e-13
2.84877e-13
2.22648e-12
-1.45522e-12
7.0253e-12
-4.79882e-12
1.81031e-12
5.21498e-12
6.01318e-13
1.20899e-12
3.91432e-13
2.09887e-13
2.85761e-13
1.05671e-13
7.52851e-13
-4.6709e-13
6.87676e-13
6.51759e-14
3.04873e-13
3.82803e-13
3.13111e-13
-8.23916e-15
4.49451e-13
-1.3634e-13
7.35896e-13
-2.86445e-13
9.54646e-13
-2.18749e-13
9.15425e-13
3.92209e-14
7.94663e-13
1.20762e-13
6.49425e-13
1.45237e-13
5.44837e-13
1.04589e-13
4.81238e-13
6.35989e-14
4.76371e-13
4.86692e-15
5.36545e-13
-6.01744e-14
6.18492e-13
-8.19465e-14
6.40803e-13
-2.23121e-14
5.55977e-13
8.4826e-14
5.674e-13
-1.1423e-14
6.24654e-13
-5.72542e-14
6.37537e-13
-1.28828e-14
6.60587e-13
-2.30497e-14
6.04775e-13
5.58115e-14
5.4544e-13
5.9335e-14
4.99384e-13
4.60557e-14
4.64591e-13
3.47934e-14
4.3216e-13
3.24312e-14
3.80171e-13
5.19887e-14
3.05106e-13
7.5065e-14
2.60202e-13
4.49048e-14
3.92457e-13
-1.32256e-13
6.64108e-13
-2.7165e-13
1.02992e-12
-3.6581e-13
8.41174e-13
1.88745e-13
5.75105e-13
2.66069e-13
4.69313e-13
1.05791e-13
3.98267e-13
7.10461e-14
4.54401e-13
-5.61337e-14
-6.21658e-14
4.70733e-12
-1.94881e-12
1.06337e-11
-7.38154e-12
1.15847e-11
-5.74987e-12
3.19631e-12
1.36034e-11
-4.64148e-13
4.86945e-12
8.42188e-13
-1.09645e-12
1.2746e-12
-3.26744e-13
1.95544e-12
-1.14792e-12
1.84068e-12
1.79933e-13
1.20679e-12
1.0167e-12
1.1617e-12
3.68505e-14
1.38096e-12
-3.55603e-13
1.80365e-12
-7.09131e-13
2.06287e-12
-4.7797e-13
1.93953e-12
1.62552e-13
1.73754e-12
3.22761e-13
1.52009e-12
3.62688e-13
1.3556e-12
2.69078e-13
1.25492e-12
1.64274e-13
1.25989e-12
-1.01209e-16
1.3827e-12
-1.82982e-13
1.57145e-12
-2.70703e-13
1.66389e-12
-1.1475e-13
1.56408e-12
1.8464e-13
1.56152e-12
-8.86528e-15
1.61528e-12
-1.11013e-13
1.59612e-12
6.26849e-15
1.62491e-12
-5.18381e-14
1.54063e-12
1.40093e-13
1.4405e-12
1.59468e-13
1.35373e-12
1.32829e-13
1.29404e-12
9.4483e-14
1.246e-12
8.04645e-14
1.16785e-12
1.30145e-13
1.04312e-12
1.99788e-13
8.92576e-13
1.95453e-13
9.93915e-13
-2.33594e-13
1.36729e-12
-6.45026e-13
2.02737e-12
-1.02589e-12
1.86922e-12
3.469e-13
1.48983e-12
6.45456e-13
1.28952e-12
3.06102e-13
1.11909e-12
2.41474e-13
1.12248e-12
-5.95184e-14
-4.11386e-14
5.73851e-12
-4.86511e-12
1.27863e-11
-1.44293e-11
5.11238e-12
1.92407e-12
-1.71529e-12
2.0431e-11
-6.07001e-13
3.76116e-12
2.58309e-12
-4.28654e-12
2.55292e-12
-2.96583e-13
2.7692e-12
-1.3642e-12
2.54877e-12
4.00365e-13
1.87852e-12
1.68695e-12
1.76694e-12
1.48431e-13
2.04446e-12
-6.33124e-13
2.53356e-12
-1.19824e-12
2.85337e-12
-7.97773e-13
2.65744e-12
3.58475e-13
2.36162e-12
6.18586e-13
2.11618e-12
6.08132e-13
1.95597e-12
4.29285e-13
1.85089e-12
2.69348e-13
1.86529e-12
-1.44976e-14
1.99938e-12
-3.17073e-13
2.2402e-12
-5.11523e-13
2.4077e-12
-2.82255e-13
2.31972e-12
2.72625e-13
2.29589e-12
1.49642e-14
2.34648e-12
-1.61601e-13
2.25715e-12
9.55926e-14
2.31099e-12
-1.05675e-13
2.22544e-12
2.2564e-13
2.12063e-12
2.64282e-13
2.02173e-12
2.31733e-13
1.95053e-12
1.65681e-13
1.89447e-12
1.36527e-13
1.80533e-12
2.19279e-13
1.66775e-12
3.37368e-13
1.43297e-12
4.30236e-13
1.586e-12
-3.86624e-13
1.83058e-12
-8.89609e-13
2.56351e-12
-1.75882e-12
2.42924e-12
4.81167e-13
2.08312e-12
9.91573e-13
1.89457e-12
4.9466e-13
1.65525e-12
4.80788e-13
1.67097e-12
-7.52382e-14
-4.63417e-14
7.18632e-12
-8.17113e-12
6.56018e-12
-1.38032e-11
-1.26718e-12
9.75143e-12
-5.45527e-12
2.46191e-11
8.28656e-14
-1.77698e-12
4.90679e-12
-9.11046e-12
3.90705e-12
7.03154e-13
3.20231e-12
-6.59458e-13
2.7802e-12
8.22479e-13
2.06986e-12
2.39729e-12
1.95614e-12
2.62147e-13
2.36452e-12
-1.0415e-12
3.00832e-12
-1.84204e-12
3.48501e-12
-1.27447e-12
3.19568e-12
6.47809e-13
2.72414e-12
1.09013e-12
2.43499e-12
8.97281e-13
2.34688e-12
5.17394e-13
2.2833e-12
3.32929e-13
2.29824e-12
-2.94399e-14
2.40191e-12
-4.20744e-13
2.65274e-12
-7.62354e-13
2.89848e-12
-5.27998e-13
2.88177e-12
2.89338e-13
2.77562e-12
1.2112e-13
2.8112e-12
-1.97191e-13
2.62451e-12
2.82286e-13
2.74148e-12
-2.22639e-13
2.60977e-12
3.57347e-13
2.5515e-12
3.22546e-13
2.48118e-12
3.02055e-13
2.41942e-12
2.27445e-13
2.3626e-12
1.93341e-13
2.27328e-12
3.08606e-13
2.12292e-12
4.87723e-13
1.78295e-12
7.70207e-13
2.197e-12
-8.00673e-13
2.19826e-12
-8.90867e-13
2.76541e-12
-2.32596e-12
2.58593e-12
6.60642e-13
2.36654e-12
1.21097e-12
2.2935e-12
5.67698e-13
1.99713e-12
7.77163e-13
2.15354e-12
-2.31655e-13
-9.84561e-14
-3.71401e-12
-4.6894e-12
1.05715e-11
-2.80887e-11
1.96857e-11
6.37193e-13
-2.51062e-12
4.68155e-11
2.261e-12
-6.5486e-12
5.9787e-12
-1.28282e-11
4.51349e-12
2.16836e-12
3.55943e-12
2.9461e-13
2.66797e-12
1.71394e-12
2.12869e-12
2.93656e-12
1.97697e-12
4.13871e-13
2.23104e-12
-1.29556e-12
2.97418e-12
-2.58518e-12
3.84546e-12
-2.14575e-12
3.65192e-12
8.41351e-13
2.80723e-12
1.93481e-12
2.40495e-12
1.29957e-12
2.53137e-12
3.90976e-13
2.55237e-12
3.11926e-13
2.57985e-12
-5.69204e-14
2.5875e-12
-4.28393e-13
2.76189e-12
-9.36748e-13
3.09363e-12
-8.59731e-13
3.36048e-12
2.24867e-14
3.04886e-12
4.32741e-13
3.12805e-12
-2.76386e-13
2.8865e-12
5.23841e-13
2.94672e-12
-2.82864e-13
2.6775e-12
6.26568e-13
2.70667e-12
2.93376e-13
2.71802e-12
2.90711e-13
2.69616e-12
2.49297e-13
2.64383e-12
2.45671e-13
2.56929e-12
3.83154e-13
2.35199e-12
7.05017e-13
1.80729e-12
1.31491e-12
2.79334e-12
-1.78672e-12
2.39882e-12
-4.96347e-13
2.453e-12
-2.38014e-12
2.39941e-12
7.1423e-13
2.48508e-12
1.12529e-12
2.52781e-12
5.2497e-13
2.18236e-12
1.12262e-12
2.59829e-12
-6.47585e-13
-2.54758e-13
-3.35968e-12
-1.16972e-12
-1.14889e-11
-1.99595e-11
-9.75276e-12
-1.09895e-12
1.49011e-13
3.69137e-11
1.5145e-12
-7.91409e-12
1.24826e-12
-1.25619e-11
1.16564e-12
2.25098e-12
8.56958e-13
6.0329e-13
4.67284e-13
2.10361e-12
5.31037e-13
2.87281e-12
5.63979e-13
3.80929e-13
4.62996e-13
-1.19458e-12
5.61902e-13
-2.68408e-12
7.78629e-13
-2.36248e-12
8.29239e-13
7.9074e-13
5.88358e-13
2.17569e-12
5.36234e-13
1.35169e-12
5.79252e-13
3.47958e-13
5.94326e-13
2.96851e-13
5.93254e-13
-5.58482e-14
5.82482e-13
-4.17621e-13
5.66515e-13
-9.20781e-13
5.78059e-13
-8.71274e-13
5.51651e-13
4.88942e-14
5.69154e-13
4.15238e-13
6.20732e-13
-3.27964e-13
6.01001e-13
5.43572e-13
5.77273e-13
-2.59136e-13
5.52052e-13
6.51788e-13
5.85955e-13
2.59472e-13
6.06851e-13
2.69815e-13
6.09701e-13
2.46447e-13
6.00617e-13
2.54755e-13
5.89788e-13
3.93983e-13
5.29556e-13
7.6525e-13
4.05328e-13
1.43913e-12
6.24911e-13
-2.00631e-12
5.69784e-13
-4.4122e-13
2.38148e-13
-2.0485e-12
4.70896e-13
4.81482e-13
6.10167e-13
9.86023e-13
5.77662e-13
5.57475e-13
5.11648e-13
1.18863e-12
6.31854e-13
-7.67791e-13
-3.72986e-13
-2.66246e-12
1.65274e-12
-1.34802e-11
-9.14181e-12
-3.18146e-11
1.72355e-11
-1.21802e-12
6.31716e-12
1.90297e-12
-1.10351e-11
1.15875e-12
-1.18177e-11
1.06636e-12
2.34337e-12
4.08499e-13
1.26115e-12
3.5399e-13
2.15812e-12
5.49314e-13
2.67748e-12
7.10945e-13
2.19297e-13
4.53439e-13
-9.37074e-13
5.13601e-13
-2.74425e-12
7.40032e-13
-2.58891e-12
8.22111e-13
7.08661e-13
5.75933e-13
2.42187e-12
5.47199e-13
1.38042e-12
5.85225e-13
3.09932e-13
6.01837e-13
2.8024e-13
5.97926e-13
-5.19376e-14
5.86267e-13
-4.05961e-13
5.50102e-13
-8.84616e-13
5.1569e-13
-8.36863e-13
4.83299e-13
8.12849e-14
5.21905e-13
3.76632e-13
6.15101e-13
-4.2116e-13
5.6366e-13
5.95014e-13
5.32948e-13
-2.28424e-13
5.2814e-13
6.56597e-13
5.78481e-13
2.09131e-13
6.05795e-13
2.42501e-13
6.113e-13
2.40942e-13
6.03636e-13
2.62418e-13
5.96828e-13
4.00791e-13
5.3963e-13
8.22448e-13
4.21117e-13
1.55765e-12
5.67421e-13
-2.15261e-12
5.27121e-13
-4.0092e-13
2.12934e-13
-1.73431e-12
4.84472e-13
2.09944e-13
6.28799e-13
8.41695e-13
5.93229e-13
5.93045e-13
5.24993e-13
1.25687e-12
6.68023e-13
-9.1082e-13
-4.63611e-13
-3.18194e-12
4.99468e-12
-8.00725e-12
-4.31649e-12
-1.26378e-11
2.1866e-11
1.74952e-12
-8.07013e-12
1.83203e-12
-1.11176e-11
9.18653e-13
-1.09043e-11
7.76278e-13
2.48575e-12
3.45966e-13
1.69146e-12
1.80567e-13
2.32352e-12
4.70085e-13
2.38796e-12
7.3905e-13
-4.96675e-14
4.79562e-13
-6.77586e-13
4.43571e-13
-2.70826e-12
6.90542e-13
-2.83588e-12
8.17361e-13
5.81842e-13
5.50949e-13
2.68828e-12
5.6167e-13
1.3697e-12
5.98248e-13
2.73354e-13
6.08061e-13
2.70427e-13
5.99098e-13
-4.29738e-14
5.832e-13
-3.90063e-13
5.39144e-13
-8.4056e-13
4.7147e-13
-7.69188e-13
4.02551e-13
1.50204e-13
4.80246e-13
2.98937e-13
6.09974e-13
-5.50888e-13
5.16255e-13
6.88733e-13
4.55583e-13
-1.67753e-13
5.03574e-13
6.08607e-13
5.72137e-13
1.40568e-13
6.02911e-13
2.11727e-13
6.10997e-13
2.32856e-13
6.05072e-13
2.68343e-13
6.02093e-13
4.0377e-13
5.64767e-13
8.59774e-13
4.61119e-13
1.6613e-12
5.71611e-13
-2.2631e-12
5.05343e-13
-3.34652e-13
2.17234e-13
-1.44621e-12
6.26947e-13
-1.99769e-13
6.89568e-13
7.79074e-13
5.92156e-13
6.90457e-13
5.39667e-13
1.30936e-12
5.88379e-13
-9.59532e-13
-5.76248e-13
-3.86205e-12
9.01673e-12
-2.32448e-12
-5.85405e-12
2.96125e-12
1.65803e-11
3.11491e-12
-8.22378e-12
1.39383e-12
-9.39651e-12
6.28745e-13
-1.01392e-11
4.90597e-13
2.62389e-12
1.83553e-13
1.99851e-12
9.87296e-15
2.4972e-12
4.39311e-13
1.95853e-12
7.14893e-13
-3.25249e-13
5.78801e-13
-5.41494e-13
4.63077e-13
-2.59253e-12
6.35863e-13
-3.00866e-12
7.58585e-13
4.5912e-13
5.75815e-13
2.87105e-12
5.72651e-13
1.37287e-12
6.04455e-13
2.4155e-13
6.10906e-13
2.63975e-13
5.98598e-13
-3.06655e-14
5.81235e-13
-3.727e-13
5.29738e-13
-7.89064e-13
4.37689e-13
-6.77139e-13
3.62113e-13
2.2578e-13
4.3316e-13
2.2789e-13
5.35915e-13
-6.53644e-13
4.89605e-13
7.35044e-13
4.30866e-13
-1.09014e-13
4.93916e-13
5.45557e-13
5.67529e-13
6.69548e-14
5.98741e-13
1.80515e-13
6.07805e-13
2.23792e-13
6.06213e-13
2.69935e-13
6.04897e-13
4.05086e-13
5.96329e-13
8.68343e-13
5.58559e-13
1.69906e-12
5.74643e-13
-2.27919e-12
4.24321e-13
-1.8433e-13
2.86818e-13
-1.3087e-12
6.99579e-13
-6.12531e-13
7.99199e-13
6.79454e-13
6.23942e-13
8.65714e-13
5.79285e-13
1.35401e-12
5.16299e-13
-8.96546e-13
-7.36834e-13
-2.67706e-12
1.18538e-11
-3.15928e-12
-5.37183e-12
9.20286e-12
4.21811e-12
3.68168e-12
-2.7026e-12
8.08294e-13
-6.52312e-12
3.98097e-13
-9.72904e-12
3.89299e-13
2.63269e-12
9.36986e-14
2.29411e-12
5.11791e-14
2.53972e-12
4.38164e-13
1.57154e-12
7.10562e-13
-5.97647e-13
6.27065e-13
-4.57997e-13
5.04764e-13
-2.47023e-12
5.69163e-13
-3.07306e-12
6.50586e-13
3.77696e-13
5.69468e-13
2.95217e-12
5.75947e-13
1.36639e-12
6.07467e-13
2.10029e-13
6.09917e-13
2.61525e-13
5.94755e-13
-1.55037e-14
5.81418e-13
-3.59363e-13
5.22567e-13
-7.30212e-13
4.20746e-13
-5.75317e-13
3.70375e-13
2.7615e-13
4.27349e-13
1.70915e-13
4.90324e-13
-7.16618e-13
5.02643e-13
7.22724e-13
4.44647e-13
-5.10177e-14
5.15676e-13
4.74528e-13
5.70021e-13
1.26098e-14
5.9619e-13
1.54346e-13
6.05778e-13
2.14204e-13
6.04564e-13
2.71149e-13
6.06634e-13
4.03015e-13
6.16338e-13
8.5864e-13
6.23041e-13
1.69236e-12
5.47248e-13
-2.2034e-12
3.63444e-13
-5.25705e-16
3.02048e-13
-1.24731e-12
6.46179e-13
-9.56661e-13
8.02747e-13
5.22886e-13
6.69331e-13
9.9913e-13
5.91176e-13
1.43217e-12
5.65208e-13
-8.70579e-13
-8.16278e-13
1.24001e-12
7.59992e-13
1.05857e-12
1.81434e-13
9.93693e-13
6.488e-14
1.03165e-12
-3.79519e-14
9.33756e-14
9.3827e-13
2.3588e-12
4.0119e-13
2.45685e-12
8.33843e-14
2.61439e-12
-9.26643e-14
3.36726e-12
-7.90813e-13
-2.49278e-12
5.95341e-12
2.68304e-12
-2.81853e-13
2.93111e-12
-1.64679e-13
3.03933e-12
-2.00886e-13
3.10876e-12
-8.6025e-13
-2.73069e-12
3.34667e-12
2.40537e-12
-6.87228e-13
2.46947e-12
-2.28777e-13
2.42865e-12
-1.60067e-13
2.12887e-12
-5.60467e-13
-2.14957e-12
1.54775e-12
1.31277e-12
1.084e-12
9.23928e-13
3.63461e-13
-1.78611e-12
6.86442e-12
5.92764e-12
1.46741e-11
-1.31815e-11
1.73118e-11
1.58033e-12
-3.0212e-12
1.76304e-11
-5.46714e-13
-8.99761e-12
4.44074e-13
-1.07198e-11
9.5693e-13
2.11983e-12
7.40621e-13
2.51042e-12
1.25377e-12
2.02657e-12
2.61959e-12
2.05716e-13
3.11241e-12
-1.09046e-12
3.12161e-12
-4.67197e-13
2.64311e-12
-1.99173e-12
2.08869e-12
-2.51864e-12
1.71002e-12
7.5637e-13
2.39848e-12
2.26371e-12
2.68063e-12
1.08424e-12
2.67974e-12
2.1092e-13
2.71039e-12
2.30869e-13
2.59626e-12
9.86307e-14
2.51704e-12
-2.80139e-13
2.35759e-12
-5.70767e-13
1.81171e-12
-2.94337e-14
1.66072e-12
4.27139e-13
1.70581e-12
1.25827e-13
1.75108e-12
-7.61895e-13
2.2502e-12
2.23607e-13
2.22603e-12
-2.68421e-14
2.52412e-12
1.76432e-13
2.58289e-12
-4.61616e-14
2.62832e-12
1.08916e-13
2.66473e-12
1.77799e-13
2.68229e-12
2.53584e-13
2.70166e-12
3.83649e-13
2.7794e-12
7.809e-13
2.99044e-12
1.48132e-12
1.52148e-12
-7.34439e-13
1.47474e-12
4.62205e-14
1.17254e-12
-9.45106e-13
1.39386e-12
-1.17798e-12
2.67379e-12
-7.5705e-13
2.91705e-12
7.55867e-13
3.00288e-12
1.34634e-12
2.75157e-12
-6.19266e-13
-9.49827e-13
7.22203e-12
4.65902e-12
-2.24904e-12
-3.71041e-12
-3.86251e-12
3.1938e-12
7.25004e-13
1.30429e-11
2.55102e-12
-1.08236e-11
1.26226e-12
-9.43107e-12
1.43799e-12
1.9441e-12
1.63895e-12
2.30946e-12
2.43515e-12
1.23038e-12
2.77719e-12
-1.36326e-13
2.68199e-12
-9.95265e-13
2.60104e-12
-3.86245e-13
1.97275e-12
-1.36344e-12
1.10757e-12
-1.65346e-12
1.24162e-12
6.22314e-13
2.10004e-12
1.40529e-12
2.44824e-12
7.36041e-13
2.46222e-12
1.96935e-13
2.45631e-12
2.36781e-13
2.33205e-12
2.22894e-13
2.30008e-12
-2.48178e-13
2.29519e-12
-5.65877e-13
1.75692e-12
5.0884e-13
1.68442e-12
4.99645e-13
1.79654e-12
1.37062e-14
1.79969e-12
-7.65047e-13
2.25086e-12
-2.27562e-13
2.31312e-12
-8.9103e-14
2.37512e-12
1.1443e-13
2.32742e-12
1.5391e-15
2.33899e-12
9.73419e-14
2.39745e-12
1.19342e-13
2.44935e-12
2.01681e-13
2.50915e-12
3.23856e-13
2.61001e-12
6.80039e-13
2.86682e-12
1.2245e-12
2.11405e-12
1.83331e-14
2.39388e-12
-2.33608e-13
2.1382e-12
-6.89426e-13
1.99665e-12
-1.03643e-12
2.11949e-12
-8.79891e-13
2.45152e-12
4.23838e-13
2.77867e-12
1.01919e-12
2.63885e-12
-4.79448e-13
-9.06406e-13
4.3211e-12
3.68459e-12
-3.08087e-12
3.69157e-12
-9.63043e-12
9.74335e-12
4.0806e-12
-6.68094e-13
3.10726e-12
-9.85029e-12
1.04929e-12
-7.37309e-12
1.56966e-12
1.42373e-12
2.16217e-12
1.71695e-12
2.60513e-12
7.87419e-13
2.5235e-12
-5.4698e-14
2.13957e-12
-6.11338e-13
1.97759e-12
-2.24267e-13
1.41957e-12
-8.05415e-13
7.31665e-13
-9.65559e-13
1.01926e-12
3.34723e-13
1.67893e-12
7.45612e-13
1.97038e-12
4.44596e-13
2.02756e-12
1.3975e-13
2.04116e-12
2.23183e-13
1.92669e-12
3.37362e-13
1.927e-12
-2.48482e-13
1.93342e-12
-5.72299e-13
1.77189e-12
6.70376e-13
1.91254e-12
3.58988e-13
2.136e-12
-2.09749e-13
1.87467e-12
-5.03717e-13
1.99573e-12
-3.48626e-13
1.93665e-12
-3.0024e-14
1.88324e-12
1.67841e-13
1.83612e-12
4.86637e-14
1.86887e-12
6.45915e-14
1.9694e-12
1.88095e-14
2.04913e-12
1.21955e-13
2.15684e-12
2.16139e-13
2.39504e-12
4.41836e-13
3.01453e-12
6.05022e-13
3.20414e-12
-1.71277e-13
2.98093e-12
-1.03989e-14
2.64204e-12
-3.50537e-13
2.26495e-12
-6.59337e-13
1.87232e-12
-4.87265e-13
2.00808e-12
2.88081e-13
2.41484e-12
6.12427e-13
2.16962e-12
-2.34227e-13
-6.84086e-13
5.18258e-12
4.97681e-14
5.39193e-12
3.48222e-12
4.57072e-12
1.05646e-11
7.3835e-12
-3.48088e-12
3.3256e-12
-5.79239e-12
-4.32715e-13
-3.61477e-12
3.56418e-13
6.34592e-13
1.44799e-12
6.25383e-13
1.96727e-12
2.68134e-13
1.91501e-12
-2.44008e-15
1.53084e-12
-2.27163e-13
1.35993e-12
-5.33636e-14
8.71561e-13
-3.17043e-13
3.31316e-13
-4.25314e-13
5.78123e-13
8.79164e-14
1.05504e-12
2.68691e-13
1.31391e-12
1.85729e-13
1.38598e-12
6.7679e-14
1.46111e-12
1.48053e-13
1.45104e-12
3.47435e-13
1.38451e-12
-1.81947e-13
1.19283e-12
-3.80625e-13
1.46026e-12
4.02952e-13
1.74256e-12
7.66884e-14
1.73719e-12
-2.04389e-13
1.39716e-12
-1.63678e-13
1.17745e-12
-1.28923e-13
1.13443e-12
1.29972e-14
1.22213e-12
8.01388e-14
1.19957e-12
7.12319e-14
1.30892e-12
-4.47667e-14
1.35557e-12
-2.78387e-14
1.43287e-12
4.46562e-14
1.55925e-12
8.97646e-14
1.84274e-12
1.58343e-13
2.35252e-12
9.52367e-14
2.49794e-12
-3.16694e-13
2.26831e-12
2.19227e-13
2.01582e-12
-9.80381e-14
1.61941e-12
-2.62937e-13
1.28565e-12
-1.53499e-13
1.39161e-12
1.82122e-13
1.81968e-12
1.84354e-13
1.63846e-12
-5.30111e-14
-2.36288e-13
-1.73634e-12
1.74588e-12
1.23104e-11
8.82956e-12
3.03717e-12
-5.77601e-13
5.6991e-14
6.82374e-13
9.50509e-13
9.48069e-13
7.20906e-13
6.67542e-13
3.50499e-13
-7.48153e-14
1.31012e-14
2.81792e-13
4.67521e-13
5.352e-13
6.83253e-13
1.03069e-12
8.48742e-13
4.68117e-13
8.71069e-13
9.47758e-13
7.43369e-13
5.79692e-13
4.50769e-13
4.63767e-13
5.43905e-13
6.15137e-13
5.7037e-13
5.42532e-13
5.87188e-13
6.76952e-13
8.35295e-13
9.30531e-13
6.13837e-13
8.33064e-13
7.35026e-13
4.72089e-13
3.1859e-13
5.00712e-13
6.85067e-13
6.32056e-13
)
;

boundaryField
{
    AirInlet
    {
        type            calculated;
        value           nonuniform List<scalar> 5(-1.6e-13 -1.6e-13 -1.6e-13 -1.6e-13 -1.6e-13);
    }
    WaterInlet
    {
        type            calculated;
        value           nonuniform List<scalar> 10(-2e-12 -2e-12 -2e-12 -2e-12 -2e-12 -2e-12 -2e-12 -2e-12 -2e-12 -2e-12);
    }
    ChannelWall
    {
        type            calculated;
        value           uniform 0;
    }
    Outlet
    {
        type            calculated;
        value           nonuniform List<scalar> 
15
(
5.16567e-13
1.10145e-12
1.67618e-12
2.20566e-12
2.75459e-12
7.50083e-13
7.58648e-13
7.01017e-13
6.76885e-13
6.44652e-13
2.88512e-12
2.59543e-12
1.9473e-12
1.19066e-12
3.95768e-13
)
;
    }
    FrontAndBack
    {
        type            empty;
        value           nonuniform 0();
    }
}


// ************************************************************************* //
