/*--------------------------------*- C++ -*----------------------------------*\
| =========                 |                                                 |
| \\      /  F ield         | OpenFOAM: The Open Source CFD Toolbox           |
|  \\    /   O peration     | Version:  2.3.0                                 |
|   \\  /    A nd           | Web:      www.OpenFOAM.org                      |
|    \\/     M anipulation  |                                                 |
\*---------------------------------------------------------------------------*/
FoamFile
{
    version     2.0;
    format      ascii;
    class       volVectorField;
    location    "0.022";
    object      U;
}
// * * * * * * * * * * * * * * * * * * * * * * * * * * * * * * * * * * * * * //

dimensions      [0 1 -1 0 0 0 0];

internalField   nonuniform List<vector> 
725
(
(0.21987 0.0267129 -1.0512e-30)
(0.199232 0.00914342 1.9104e-31)
(0.156847 0.00260015 4.44448e-32)
(0.141382 0.00306116 0)
(0.0987553 0.00791462 2.92914e-31)
(0.38318 0.0546365 -4.67244e-30)
(0.409983 0.0366965 9.31851e-31)
(0.365946 0.0228091 2.98076e-31)
(0.332705 0.0173528 0)
(0.277749 0.00567087 1.62065e-32)
(0.420365 0.0381986 -1.85117e-30)
(0.469398 0.0458416 1.65382e-31)
(0.431585 0.0407775 -1.15266e-31)
(0.385024 0.0408784 0)
(0.330216 0.0586972 2.22926e-30)
(0.379014 0.0161934 3.15218e-30)
(0.396513 0.0427321 -1.49713e-31)
(0.354516 0.0442024 -4.45971e-31)
(0.326871 0.0379039 0)
(0.367259 0.0442687 4.33994e-31)
(0.212474 0.0101852 4.05603e-30)
(0.182063 0.0282949 -3.31203e-31)
(0.142085 0.0243776 -1.69492e-33)
(0.0954118 0.00410622 1.93652e-30)
(0.0505855 -0.0390573 -5.26779e-30)
(0.166639 0.0353781 0)
(-0.0490838 0.0187331 0)
(0.681056 -0.145192 0)
(0.589773 0.114055 0)
(-0.0257722 -0.0229706 0)
(0.087294 0.00474559 0)
(0.0198328 0.00844008 0)
(0.0519532 -0.00700977 0)
(0.103012 0.00153339 0)
(0.0449636 0.00615931 0)
(0.0255604 -0.000430182 0)
(0.0421303 -0.00136321 0)
(0.0658727 -0.00547315 0)
(0.0994339 -0.00497415 0)
(0.104748 0.000104437 0)
(0.0953514 0.00213881 0)
(0.0804984 0.00268524 0)
(0.065763 0.00168611 0)
(0.0561426 0.00102856 0)
(0.0517933 0.000221116 0)
(0.0551766 -0.000655517 0)
(0.0646298 -0.0008169 0)
(0.0724257 7.57213e-05 0)
(0.0656546 0.00196423 0)
(0.0621022 -0.000232068 0)
(0.0664363 -0.00152378 0)
(0.0693773 -0.00043643 0)
(0.0727352 -0.000539892 0)
(0.0710759 0.00106758 0)
(0.0638942 0.000902821 0)
(0.0576692 0.000666612 0)
(0.0532662 0.000598881 0)
(0.0499328 0.000633228 0)
(0.0455311 0.000985738 0)
(0.0366876 0.00140112 0)
(0.0332952 -0.000141247 0)
(0.0315749 -0.00426041 0)
(0.048483 -0.00448502 0)
(0.102448 -0.00513097 0)
(0.114148 0.00553439 0)
(0.0778508 0.00481229 0)
(0.0551216 0.00117837 0)
(0.0481656 0.000750166 0)
(0.0435192 -0.00171264 0)
(0.0575076 -0.00181774 0)
(0.310731 -0.0170291 0)
(0.797201 -0.186901 0)
(1.43092 -0.323114 0)
(1.01213 0.364288 0)
(-0.155827 0.176976 0)
(0.0174383 0.0111573 0)
(0.14026 -0.00121986 0)
(0.171057 -0.0414602 0)
(0.242312 0.00614235 0)
(0.159611 0.0336098 0)
(0.114894 -0.000787011 0)
(0.138865 -0.0127386 0)
(0.180766 -0.0247621 0)
(0.223771 -0.0170545 0)
(0.222912 0.00422929 0)
(0.204158 0.0106086 0)
(0.181775 0.0125742 0)
(0.158866 0.00917956 0)
(0.14327 0.00549767 0)
(0.136849 0.000250513 0)
(0.144279 -0.00574366 0)
(0.164322 -0.00783002 0)
(0.18429 -0.00225046 0)
(0.179061 0.0070248 0)
(0.174473 -0.00134104 0)
(0.177094 -0.00455915 0)
(0.176568 -0.000856314 0)
(0.17936 -0.00197183 0)
(0.177623 0.00491926 0)
(0.165995 0.00527362 0)
(0.154406 0.00410921 0)
(0.146269 0.00297664 0)
(0.141226 0.0027336 0)
(0.134708 0.00449084 0)
(0.121834 0.00662111 0)
(0.113647 0.005116 0)
(0.0978659 -0.00985481 0)
(0.111109 -0.0236437 0)
(0.198288 -0.0325508 0)
(0.234711 0.0146628 0)
(0.18864 0.0228404 0)
(0.150172 0.0097856 0)
(0.134616 0.00681127 0)
(0.118197 -0.00377811 0)
(0.122855 -0.00342252 0)
(0.326564 -0.187099 0)
(1.06919 -0.512954 0)
(1.26427 -0.309629 0)
(0.193243 0.909791 0)
(-0.455175 0.275225 0)
(0.254081 -0.109444 0)
(0.321946 -0.0217438 0)
(0.281401 -0.0748336 0)
(0.316272 0.0108072 0)
(0.238318 0.0671773 0)
(0.182914 0.0047807 0)
(0.20793 -0.0232501 0)
(0.259523 -0.0464073 0)
(0.311945 -0.0305842 0)
(0.308047 0.0118767 0)
(0.277079 0.0224601 0)
(0.249092 0.0242921 0)
(0.225272 0.0177698 0)
(0.209677 0.0109038 0)
(0.203465 -0.00035342 0)
(0.211599 -0.0127717 0)
(0.234132 -0.0191802 0)
(0.262992 -0.00892083 0)
(0.264342 0.0113357 0)
(0.258672 0.000921589 0)
(0.258665 -0.00645502 0)
(0.252993 0.00163813 0)
(0.253449 -0.00319222 0)
(0.253964 0.00950998 0)
(0.242392 0.0108603 0)
(0.229483 0.00911971 0)
(0.219563 0.00638566 0)
(0.213683 0.00534302 0)
(0.206127 0.00870681 0)
(0.19156 0.0135837 0)
(0.179444 0.0150516 0)
(0.162657 -0.0149566 0)
(0.166807 -0.0404835 0)
(0.250153 -0.0693326 0)
(0.297784 0.0211087 0)
(0.254393 0.0419176 0)
(0.217619 0.020647 0)
(0.198446 0.0174825 0)
(0.175391 -0.002502 0)
(0.186817 -0.00138449 0)
(0.44826 -0.237298 0)
(0.996778 -0.657042 0)
(0.452214 0.544809 0)
(-0.571831 1.08257 0)
(-0.451525 0.0736208 0)
(0.445809 -0.330322 0)
(0.566611 -0.000418148 0)
(0.371167 -0.0546729 0)
(0.334522 0.0252598 0)
(0.255587 0.10022 0)
(0.201794 0.0112685 0)
(0.238486 -0.0397301 0)
(0.298753 -0.0733761 0)
(0.380534 -0.0469866 0)
(0.379837 0.0243137 0)
(0.323554 0.0397292 0)
(0.283515 0.0371729 0)
(0.264325 0.0251023 0)
(0.25645 0.0159035 0)
(0.252639 -0.000905498 0)
(0.25863 -0.01911 0)
(0.276951 -0.0326575 0)
(0.310397 -0.0174426 0)
(0.326438 0.0188375 0)
(0.319549 -0.000158874 0)
(0.310283 -0.0107177 0)
(0.298477 0.0089601 0)
(0.297588 -0.00865885 0)
(0.298166 0.0135386 0)
(0.287516 0.0150742 0)
(0.279604 0.0138901 0)
(0.271407 0.0100464 0)
(0.265914 0.0082763 0)
(0.257965 0.0131892 0)
(0.242668 0.0207577 0)
(0.219687 0.0295363 0)
(0.21565 -0.024724 0)
(0.230503 -0.0460647 0)
(0.275492 -0.108007 0)
(0.313557 0.0250455 0)
(0.277976 0.0560203 0)
(0.258782 0.028398 0)
(0.240211 0.0313175 0)
(0.215223 -0.00554733 0)
(0.245974 -0.0024479 0)
(-0.00929373 -0.336896 0)
(0.696026 -1.28065 0)
(2.13746 -1.2626 0)
(-0.281102 1.77362 0)
(-0.112903 -0.215513 0)
(0.554311 -0.57845 0)
(0.677527 0.0730057 0)
(0.423172 -0.022612 0)
(0.338771 0.0574511 0)
(0.228421 0.1435 0)
(0.224395 0.0179278 0)
(0.240331 -0.0695147 0)
(0.260344 -0.113536 0)
(0.401872 -0.0801061 0)
(0.44823 0.0406214 0)
(0.349916 0.0717441 0)
(0.277396 0.056074 0)
(0.271651 0.0242575 0)
(0.284221 0.0176932 0)
(0.285473 -0.00244091 0)
(0.286688 -0.0223434 0)
(0.293983 -0.0462208 0)
(0.320871 -0.0393026 0)
(0.365942 0.00459586 0)
(0.360762 0.0153022 0)
(0.34181 -0.00838046 0)
(0.334324 0.020497 0)
(0.324085 -0.0140549 0)
(0.309437 0.0251924 0)
(0.298271 0.0176652 0)
(0.302829 0.0163707 0)
(0.30092 0.0125875 0)
(0.297566 0.0110523 0)
(0.289257 0.0176501 0)
(0.277301 0.0294288 0)
(0.220255 0.0503953 0)
(0.233955 -0.0596573 0)
(0.319531 -0.036544 0)
(0.247555 -0.138113 0)
(0.268088 0.0447673 0)
(0.282778 0.0657296 0)
(0.283816 0.0261179 0)
(0.261908 0.0474158 0)
(0.242172 -0.0186787 0)
(0.30746 -0.00539366 0)
(-0.872184 -0.18035 0)
(-3.23707 -1.32865 0)
(-7.79419 0.519328 0)
(-0.707572 2.17515 0)
(0.798456 -0.374698 0)
(0.621225 -0.645563 0)
(0.668722 0.108776 0)
(0.513 0.0215652 0)
(0.280723 0.0957436 0)
(0.207981 0.14725 0)
(0.316203 0.020636 0)
(0.273926 -0.0632251 0)
(0.194001 -0.13236 0)
(0.344431 -0.112367 0)
(0.461074 0.0412518 0)
(0.341332 0.102498 0)
(0.259217 0.0664458 0)
(0.279169 0.0185181 0)
(0.297008 0.0152206 0)
(0.2979 -0.00284694 0)
(0.294907 -0.021199 0)
(0.287714 -0.046621 0)
(0.283367 -0.0437474 0)
(0.285661 0.00114549 0)
(0.269538 0.0215467 0)
(0.303005 -0.0146081 0)
(0.317197 0.0264057 0)
(0.287783 -0.0136785 0)
(0.277228 0.0322115 0)
(0.283095 0.014024 0)
(0.301796 0.0140907 0)
(0.305142 0.0124298 0)
(0.304268 0.0125241 0)
(0.296333 0.0194666 0)
(0.293808 0.0368114 0)
(0.220871 0.0687879 0)
(0.219705 -0.0951185 0)
(0.376286 -0.0236837 0)
(0.154492 -0.110653 0)
(0.126545 0.0313623 0)
(0.31715 0.0528661 0)
(0.299302 0.0267921 0)
(0.268632 0.0578759 0)
(0.257195 -0.0356117 0)
(0.373564 -0.0155507 0)
(-1.02259 -0.000183254 0)
(-2.58172 -0.668356 0)
(-18.5597 0.241792 0)
(-2.46987 1.13477 0)
(1.11396 -0.481856 0)
(0.601207 -0.614517 0)
(0.604067 0.11451 0)
(0.380009 0.0463541 0)
(0.117989 0.107093 0)
(0.18493 0.140599 0)
(0.37126 0.0161917 0)
(0.311859 -0.0536228 0)
(0.175616 -0.136602 0)
(0.311591 -0.123955 0)
(0.457559 0.0380424 0)
(0.336108 0.115042 0)
(0.256181 0.068511 0)
(0.285657 0.0164684 0)
(0.300901 0.014389 0)
(0.301136 -0.00275006 0)
(0.297199 -0.0206238 0)
(0.286571 -0.0453407 0)
(0.265842 -0.0431393 0)
(0.248931 0.00288282 0)
(0.233994 0.0203128 0)
(0.294215 -0.0185163 0)
(0.310755 0.0284698 0)
(0.263289 -0.0124312 0)
(0.258201 0.0330702 0)
(0.27687 0.0119026 0)
(0.300466 0.0128695 0)
(0.305435 0.0122129 0)
(0.305653 0.0129559 0)
(0.297981 0.0199057 0)
(0.298991 0.0398011 0)
(0.228911 0.075196 0)
(0.211518 -0.104652 0)
(0.358393 -0.021219 0)
(0.130964 -0.0944799 0)
(0.115731 0.0186592 0)
(0.344631 0.0457815 0)
(0.302376 0.028138 0)
(0.27638 0.0612099 0)
(0.266308 -0.0425429 0)
(0.380653 -0.0206821 0)
(-1.13767 0.171477 0)
(-1.038 -0.322566 0)
(-9.58218 0.864798 0)
(-0.475418 -0.385534 0)
(1.51178 -0.55379 0)
(0.47211 -0.567477 0)
(0.482532 0.121177 0)
(0.305773 0.0738361 0)
(0.0357545 0.112854 0)
(0.129685 0.127745 0)
(0.369216 0.00499296 0)
(0.328356 -0.0401665 0)
(0.173443 -0.136883 0)
(0.269971 -0.136355 0)
(0.443045 0.0323259 0)
(0.329137 0.128202 0)
(0.255089 0.0689321 0)
(0.293228 0.0145183 0)
(0.305465 0.0137328 0)
(0.303058 -0.00243512 0)
(0.296704 -0.019915 0)
(0.285843 -0.0432607 0)
(0.252993 -0.0405298 0)
(0.213351 0.00564475 0)
(0.200958 0.0170755 0)
(0.284281 -0.0242847 0)
(0.300539 0.0321847 0)
(0.229523 -0.0100282 0)
(0.231294 0.0319903 0)
(0.271083 0.00882967 0)
(0.298457 0.0113779 0)
(0.304601 0.0118675 0)
(0.306128 0.0132963 0)
(0.298923 0.0201598 0)
(0.303318 0.0422762 0)
(0.250034 0.0809455 0)
(0.23228 -0.111696 0)
(0.339839 -0.0187222 0)
(0.118426 -0.0787552 0)
(0.152951 0.000796076 0)
(0.408231 0.0406027 0)
(0.313556 0.0316933 0)
(0.281466 0.0640087 0)
(0.249024 -0.0473029 0)
(0.348917 -0.0260955 0)
(-1.2212 0.370434 0)
(-1.98909 -0.085948 0)
(0.0584476 0.946068 0)
(1.62153 -0.346738 0)
(1.29575 -0.507793 0)
(0.261787 -0.522925 0)
(0.34997 0.128485 0)
(0.203156 0.0932999 0)
(-0.0598587 0.120951 0)
(0.0768425 0.109273 0)
(0.353842 -0.00977478 0)
(0.34389 -0.0296563 0)
(0.221189 -0.13267 0)
(0.252548 -0.147312 0)
(0.405643 0.0252613 0)
(0.321411 0.139792 0)
(0.269057 0.0688194 0)
(0.298275 0.0127288 0)
(0.307637 0.0133457 0)
(0.303641 -0.00189707 0)
(0.295569 -0.0190935 0)
(0.285118 -0.0407671 0)
(0.243039 -0.0363988 0)
(0.190981 0.00938701 0)
(0.179578 0.0130733 0)
(0.253506 -0.0302938 0)
(0.275423 0.0359494 0)
(0.215887 -0.0068504 0)
(0.221721 0.0290864 0)
(0.269812 0.00510119 0)
(0.29585 0.00976587 0)
(0.3026 0.0114246 0)
(0.305704 0.0134855 0)
(0.299426 0.0202561 0)
(0.307204 0.0434675 0)
(0.289291 0.0845737 0)
(0.270231 -0.115374 0)
(0.299492 -0.0129884 0)
(0.119202 -0.0681149 0)
(0.198759 -0.0205524 0)
(0.455306 0.0368097 0)
(0.348911 0.0389945 0)
(0.300708 0.0666545 0)
(0.241895 -0.0471055 0)
(0.328897 -0.0328752 0)
(-1.13548 0.562747 0)
(-3.08548 -0.364147 0)
(3.71736 0.437898 0)
(2.38708 -0.245024 0)
(0.973291 -0.397983 0)
(0.0951448 -0.49276 0)
(0.275926 0.132815 0)
(0.151991 0.108343 0)
(-0.0679496 0.127127 0)
(0.111583 0.0879239 0)
(0.347522 -0.0239149 0)
(0.3464 -0.0241305 0)
(0.266558 -0.126652 0)
(0.243357 -0.153973 0)
(0.345338 0.0202164 0)
(0.29443 0.146521 0)
(0.27551 0.0685821 0)
(0.298982 0.0112372 0)
(0.307533 0.0130843 0)
(0.302811 -0.00118686 0)
(0.293903 -0.0182908 0)
(0.284402 -0.0379887 0)
(0.237839 -0.0314276 0)
(0.187683 0.012636 0)
(0.182884 0.00979453 0)
(0.236638 -0.0346036 0)
(0.263774 0.0369709 0)
(0.225913 -0.00381552 0)
(0.23224 0.0255347 0)
(0.276124 0.00176482 0)
(0.295102 0.0083078 0)
(0.30119 0.0109516 0)
(0.304769 0.0135459 0)
(0.29921 0.0202176 0)
(0.308488 0.043311 0)
(0.319246 0.0853195 0)
(0.28546 -0.112885 0)
(0.257025 -0.00393317 0)
(0.120824 -0.0629663 0)
(0.193039 -0.0402293 0)
(0.431354 0.0305361 0)
(0.366502 0.0468448 0)
(0.316302 0.0697304 0)
(0.262902 -0.0444351 0)
(0.320452 -0.0391836 0)
(0.212335 -0.0102722 0)
(0.18531 -0.0294315 4.13879e-32)
(0.146634 -0.0253153 -1.51662e-31)
(0.129853 -0.0151247 -6.94713e-31)
(0.107544 0.0340184 0)
(0.378383 -0.0165959 0)
(0.400795 -0.0456244 0)
(0.356754 -0.0500995 0)
(0.384552 -0.0731643 1.59054e-30)
(0.459918 -0.123466 0)
(0.419256 -0.0387725 0)
(0.471927 -0.0494151 0)
(0.422613 -0.0509429 0)
(0.432187 -0.092844 2.73843e-30)
(0.260134 -0.182113 0)
(0.381843 -0.0550547 0)
(0.410457 -0.0391856 0)
(0.345966 -0.0310161 0)
(0.345402 -0.0586012 -8.50186e-31)
(0.114653 -0.139811 0)
(0.218853 -0.0268566 0)
(0.198779 -0.00967679 0)
(0.139269 -0.00544017 0)
(0.133377 -0.0141026 -3.08312e-31)
(-0.0738744 -0.0558116 0)
(0.0403514 0.371967 0)
(1.73339 -0.576055 0)
(2.57652 -0.188379 0)
(-0.185903 -0.132609 0)
(-0.117693 -0.374555 0)
(-0.0509873 -0.493841 0)
(0.123544 0.135103 0)
(0.0985182 0.136866 0)
(0.041924 0.130815 0)
(0.249593 0.033478 0)
(0.344381 -0.0504244 0)
(0.34569 -0.0197836 0)
(0.345202 -0.112227 0)
(0.231889 -0.152303 0)
(0.203423 0.0368557 0)
(0.22276 0.144032 0)
(0.284165 0.0639779 0)
(0.300198 0.00894718 0)
(0.301717 0.0120002 0)
(0.296886 0.0014806 0)
(0.283478 -0.0160461 0)
(0.278761 -0.0309121 0)
(0.233645 -0.0161716 0)
(0.18306 0.0184986 0)
(0.176875 0.00497079 0)
(0.189572 -0.039894 0)
(0.225716 0.0294347 0)
(0.248225 0.00258295 0)
(0.265064 0.0145216 0)
(0.285881 -0.00399172 0)
(0.290123 0.00535194 0)
(0.294279 0.00974686 0)
(0.298921 0.0134488 0)
(0.296398 0.0195906 0)
(0.307838 0.0397236 0)
(0.342951 0.0807877 0)
(0.245942 -0.0747417 0)
(0.153036 0.0107055 0)
(0.139701 -0.0549262 0)
(0.106438 -0.0716089 0)
(0.238029 -0.0050958 0)
(0.323978 0.0549874 0)
(0.332676 0.076828 0)
(0.315008 -0.0351331 0)
(0.319537 -0.049248 0)
(0.783621 0.192449 0)
(0.699275 -0.415923 0)
(-0.98401 0.384005 0)
(-0.154726 1.09237 0)
(0.435896 -0.496974 0)
(0.126398 -0.529505 0)
(0.131984 0.0979941 0)
(0.166546 0.124055 0)
(0.207932 0.0756024 0)
(0.320697 -0.00997381 0)
(0.308933 -0.0560157 0)
(0.293623 -0.0236559 0)
(0.281565 -0.0845511 0)
(0.135621 -0.0996178 0)
(0.106198 0.0379622 0)
(0.192439 0.0921694 0)
(0.259628 0.0455416 0)
(0.274866 0.0108836 0)
(0.275206 0.0116855 0)
(0.267938 0.00795585 0)
(0.255302 -0.0125316 0)
(0.262046 -0.0276877 0)
(0.228851 0.014149 0)
(0.180735 0.025598 0)
(0.187789 0.00637187 0)
(0.197009 -0.0395489 0)
(0.224201 -0.0042619 0)
(0.258027 -0.00537418 0)
(0.264529 0.00463631 0)
(0.260537 -0.00143592 0)
(0.257485 0.00504837 0)
(0.262903 0.00773044 0)
(0.270496 0.0117987 0)
(0.273918 0.0182044 0)
(0.287507 0.0386083 0)
(0.310268 0.0721598 0)
(0.269172 -0.00365712 0)
(0.257512 -0.00639932 0)
(0.259915 -0.0414902 0)
(0.220239 -0.057316 0)
(0.213656 -0.057867 0)
(0.253335 0.0260953 0)
(0.293982 0.0619868 0)
(0.313845 -0.0270606 0)
(0.287618 -0.048751 0)
(0.548451 0.24646 0)
(0.563368 0.106681 0)
(-1.63714 0.117351 0)
(0.0894199 0.248906 0)
(0.692961 -0.535249 0)
(0.0687089 -0.426537 0)
(0.132311 0.0826845 0)
(0.215697 0.105999 0)
(0.269873 0.0480938 0)
(0.300706 -0.0051266 0)
(0.257923 -0.0397304 0)
(0.228179 -0.0152227 0)
(0.207431 -0.0540911 0)
(0.0862478 -0.0637816 0)
(0.0823147 0.0216785 0)
(0.156524 0.0515087 0)
(0.207896 0.0290765 0)
(0.223574 0.00864122 0)
(0.227539 0.0118173 0)
(0.2221 0.0143593 0)
(0.213118 -0.0122628 0)
(0.21619 -0.0292574 0)
(0.203949 0.0331156 0)
(0.198057 0.0256291 0)
(0.228699 -0.00562543 0)
(0.224411 -0.0345864 0)
(0.211934 -0.0191146 0)
(0.220139 -0.00412969 0)
(0.214582 0.00767488 0)
(0.204799 0.00149821 0)
(0.203814 0.0055792 0)
(0.213084 0.00364182 0)
(0.223714 0.00818338 0)
(0.232113 0.0140727 0)
(0.25078 0.0299544 0)
(0.292935 0.0491615 0)
(0.350201 0.00285469 0)
(0.363836 -0.010385 0)
(0.317609 -0.0260543 0)
(0.271136 -0.0425285 0)
(0.215151 -0.0360941 0)
(0.205226 0.0162814 0)
(0.246828 0.0407434 0)
(0.278848 -0.018962 0)
(0.215962 -0.0422545 0)
(0.288633 0.0748633 0)
(0.818225 0.238114 0)
(0.137154 0.642425 0)
(1.04399 -0.298439 0)
(0.744373 -0.432035 0)
(-0.0368094 -0.279591 0)
(-0.0570235 0.060497 0)
(0.123894 0.0601873 0)
(0.199278 0.0260164 0)
(0.227457 -0.000436027 0)
(0.191806 -0.0202753 0)
(0.159423 -0.00680791 0)
(0.138705 -0.0282101 0)
(0.0373307 -0.0339218 0)
(0.0418793 0.0091974 0)
(0.0941173 0.0238744 0)
(0.135312 0.015478 0)
(0.150826 0.00545966 0)
(0.157076 0.010936 0)
(0.164318 0.0213675 0)
(0.162685 -0.012242 0)
(0.138482 -0.0264927 0)
(0.140059 0.0307268 0)
(0.180424 0.00911836 0)
(0.19953 -0.0136468 0)
(0.177089 -0.0163259 0)
(0.140733 -0.0128153 0)
(0.125116 0.000566097 0)
(0.130762 0.00775411 0)
(0.134107 0.00402426 0)
(0.138413 -0.000368413 0)
(0.147916 -0.00151908 0)
(0.154749 0.00385644 0)
(0.164302 0.00781022 0)
(0.185075 0.0145638 0)
(0.228685 0.0130283 0)
(0.275954 -0.0191964 0)
(0.278672 0.00919589 0)
(0.24312 -0.00872011 0)
(0.201424 -0.022912 0)
(0.14769 -0.0144549 0)
(0.138169 0.0131298 0)
(0.178887 0.0185351 0)
(0.219446 -0.00633562 0)
(0.132675 -0.0225478 0)
(-0.295349 -0.0587783 0)
(-0.173902 0.0979458 0)
(0.767331 0.307954 0)
(1.44895 -0.0255431 0)
(0.720221 -0.118432 0)
(-0.0200379 -0.0706546 0)
(-0.0775709 0.0118514 0)
(0.0787953 0.00647698 0)
(0.0879624 0.00289158 0)
(0.114307 -1.8813e-05 0)
(0.0913157 -0.00364745 0)
(0.0762858 0.00104568 0)
(0.069494 -0.00540048 0)
(-0.00195788 -0.00975255 0)
(-0.0114562 -7.92275e-05 0)
(0.016621 0.00445822 0)
(0.0440521 0.00341285 0)
(0.0560281 0.0011678 0)
(0.0629274 0.00320202 0)
(0.0989756 0.0100948 0)
(0.116717 -0.00462983 0)
(0.0578285 -0.0092309 0)
(0.0631664 0.0106499 0)
(0.112205 -0.00128087 0)
(0.0954723 -0.00543357 0)
(0.0730608 -0.00154046 0)
(0.055913 -0.00152763 0)
(0.0476179 0.000774422 0)
(0.0557354 0.00121569 0)
(0.0655996 0.0022394 0)
(0.0666688 -0.00299932 0)
(0.0615187 -0.00104353 0)
(0.0619239 0.000900589 0)
(0.0691596 0.00154048 0)
(0.0832228 0.00222474 0)
(0.103825 -0.00190777 0)
(0.0801697 -0.0126274 0)
(0.0781312 0.0105316 0)
(0.0952071 -0.000935226 0)
(0.0666681 -0.00324403 0)
(0.0349632 -0.00128419 0)
(0.0407926 0.00413615 0)
(0.067117 0.0012747 0)
(0.0882972 0.000217083 0)
(0.0442768 -0.00285878 0)
)
;

boundaryField
{
    AirInlet
    {
        type            fixedValue;
        value           uniform (0.08 0 0);
    }
    WaterInlet
    {
        type            fixedValue;
        value           uniform (0.4 0 0);
    }
    ChannelWall
    {
        type            fixedValue;
        value           uniform (0 0 0);
    }
    Outlet
    {
        type            pressureInletOutletVelocity;
        value           nonuniform List<vector> 
15
(
(0.0575076 -0.00181774 0)
(0.122855 -0.00342252 0)
(0.186817 -0.00138449 0)
(0.245974 -0.0024479 0)
(0.30746 -0.00539366 0)
(0.373564 -0.0155507 0)
(0.380653 -0.0206821 0)
(0.348917 -0.0260955 0)
(0.328897 -0.0328752 0)
(0.320452 -0.0391836 0)
(0.319537 -0.049248 0)
(0.287618 -0.048751 0)
(0.215962 -0.0422545 0)
(0.132675 -0.0225478 0)
(0.0442768 -0.00285878 0)
)
;
    }
    FrontAndBack
    {
        type            empty;
    }
}


// ************************************************************************* //
