/*--------------------------------*- C++ -*----------------------------------*\
| =========                 |                                                 |
| \\      /  F ield         | OpenFOAM: The Open Source CFD Toolbox           |
|  \\    /   O peration     | Version:  2.3.0                                 |
|   \\  /    A nd           | Web:      www.OpenFOAM.org                      |
|    \\/     M anipulation  |                                                 |
\*---------------------------------------------------------------------------*/
FoamFile
{
    version     2.0;
    format      ascii;
    class       volVectorField;
    location    "0.022";
    object      U;
}
// * * * * * * * * * * * * * * * * * * * * * * * * * * * * * * * * * * * * * //

dimensions      [0 1 -1 0 0 0 0];

internalField   nonuniform List<vector> 
725
(
(0.0458628 0.00680666 -4.50334e-31)
(0.0543946 0.00129012 8.48153e-32)
(0.0305937 -0.000127733 -6.76661e-32)
(0.0573832 -0.0102191 0)
(0.107537 -0.0261918 2.11285e-30)
(0.088963 0.0138433 -2.04827e-30)
(0.110611 0.00739729 3.10787e-31)
(0.0653874 0.000691018 -2.34489e-31)
(0.116823 -0.0089505 0)
(-0.0290042 -0.031066 8.3453e-30)
(0.101631 0.00979796 -4.38435e-31)
(0.126837 0.0124859 3.53894e-32)
(0.0794822 0.00761287 5.40445e-31)
(0.120604 0.0322864 0)
(-0.026077 -0.0174203 -2.09769e-30)
(0.0898457 0.00346001 2.77338e-30)
(0.107753 0.0138637 8.627e-32)
(0.0675912 0.0113813 1.99351e-30)
(0.110797 0.0462476 0)
(0.0699361 0.0383653 -1.70644e-29)
(0.0461075 0.00177194 2.80565e-30)
(0.0509495 0.00883341 -8.27272e-32)
(0.0284278 0.00547902 7.47735e-31)
(0.0543905 0.0186381 4.0464e-30)
(0.0571903 0.0407715 -1.00268e-29)
(0.10784 0.00995342 0)
(0.0357787 0.00287396 0)
(0.10318 0.00369058 0)
(0.0208185 0.00693616 0)
(-0.00955404 0.00311622 0)
(-0.0211697 0.000638639 0)
(0.0138245 -0.00769964 0)
(0.126016 -0.0185277 0)
(0.181382 -0.0269174 0)
(0.199342 0.0105979 0)
(-0.0557908 -0.0114621 0)
(-0.116395 0.0151149 0)
(0.115675 -0.0789756 0)
(0.0767556 0.0196458 0)
(0.0450666 0.00513653 0)
(0.0267934 0.00142564 0)
(0.0175407 0.000533981 0)
(0.0190493 -0.000838129 0)
(0.0198312 0.000489721 0)
(0.0166972 8.58804e-05 0)
(0.0165381 4.06118e-05 0)
(0.0169726 -4.50939e-05 0)
(0.0174287 -1.42714e-05 0)
(0.0175445 1.03894e-05 0)
(0.0174041 3.23615e-05 0)
(0.0170279 5.92225e-05 0)
(0.0166576 3.23056e-05 0)
(0.0167247 -2.60999e-05 0)
(0.0169757 -1.01545e-05 0)
(0.0174877 -3.45429e-05 0)
(0.0173164 9.00559e-05 0)
(0.0177234 0.00014542 0)
(0.0169089 5.90207e-05 0)
(0.020523 0.000655251 0)
(0.0311418 0.00855335 0)
(0.0374716 0.0706061 0)
(-0.355117 -0.063599 0)
(-0.05653 -0.0361922 0)
(0.0851363 0.0107154 0)
(-0.591624 -0.0330387 0)
(-0.266827 -0.134391 0)
(-0.0563674 -0.0479364 0)
(0.0310485 -0.0108496 0)
(0.0475419 -0.00197464 0)
(0.050041 -0.00129595 0)
(0.0310484 0.0420864 0)
(0.0999099 -0.00972336 0)
(0.154829 0.0248691 0)
(0.0444229 0.0396875 0)
(-0.0161173 0.0154291 0)
(-0.0222242 -0.00969623 0)
(0.0493097 -0.053509 0)
(0.15653 -0.0678792 0)
(0.228169 -0.0269895 0)
(0.103783 0.109603 0)
(0.221978 0.0371661 0)
(0.616236 -0.0263089 0)
(0.0487068 -0.00744118 0)
(0.0620797 0.0290809 0)
(0.0686041 0.00946548 0)
(0.0594173 0.010481 0)
(0.0454743 0.0034694 0)
(0.0473091 -0.00197369 0)
(0.0465765 0.0025357 0)
(0.042057 0.00075539 0)
(0.0418842 -3.48047e-05 0)
(0.0432096 -0.000497506 0)
(0.0444649 -0.000270316 0)
(0.0449051 -6.40778e-06 0)
(0.0447656 0.000193087 0)
(0.0441273 0.000330918 0)
(0.043478 0.00014023 0)
(0.0437165 -0.000221486 0)
(0.0443374 -0.000302565 0)
(0.0455439 -0.000375026 0)
(0.0454372 -0.000248348 0)
(0.0475298 -0.000617686 0)
(0.0479906 -0.00362309 0)
(0.0648366 -0.00741305 0)
(0.0869987 -0.00991905 0)
(0.1221 0.0969713 0)
(0.123835 0.0368938 0)
(0.12062 -0.160409 0)
(0.518933 0.157485 0)
(-0.367952 0.399286 0)
(0.042301 -0.330291 0)
(0.0743449 -0.116496 0)
(0.115767 -0.0289577 0)
(0.100976 -0.00329771 0)
(0.0890567 -0.000884291 0)
(-0.04129 -0.0137144 0)
(0.209191 -0.0927783 0)
(0.240166 0.0760618 0)
(0.0783796 0.0752523 0)
(0.00941482 0.0291144 0)
(0.00941361 -0.0265798 0)
(0.0820336 -0.0959734 0)
(0.0927016 -0.093895 0)
(0.160712 0.0254493 0)
(-0.192734 0.0174534 0)
(0.277103 -0.0934421 0)
(0.228428 -0.0426694 0)
(-0.0415456 0.191829 0)
(0.0614516 0.00479958 0)
(0.085697 0.00215387 0)
(0.0774567 0.0172567 0)
(0.0664326 0.00624509 0)
(0.0653263 -0.00265224 0)
(0.0652461 0.00389651 0)
(0.0629795 0.00176175 0)
(0.0619768 -0.00019736 0)
(0.0632649 -0.00128604 0)
(0.064566 -0.000723933 0)
(0.0649164 -8.74673e-05 0)
(0.0647761 0.000364997 0)
(0.0641297 0.000668327 0)
(0.0634182 0.000272862 0)
(0.0637614 -0.000509207 0)
(0.0645256 -0.000700857 0)
(0.0659173 -0.00076129 0)
(0.0655734 -0.000626863 0)
(0.0678941 -0.00131879 0)
(0.0669013 -0.00660814 0)
(0.0744794 -0.00837083 0)
(0.0453827 0.0106433 0)
(0.00410563 0.148108 0)
(-0.166689 -0.0452779 0)
(0.228734 -0.389619 0)
(0.797869 0.107089 0)
(0.785609 0.44611 0)
(0.506505 -0.232994 0)
(0.326718 -0.0866403 0)
(0.216001 -0.00242799 0)
(0.134425 0.0108856 0)
(0.105388 0.00423681 0)
(0.0120305 -0.0675417 0)
(0.371665 -0.201321 0)
(0.31261 0.140589 0)
(0.149309 0.110767 0)
(0.0750954 0.042462 0)
(0.0663197 -0.037322 0)
(0.105539 -0.108948 0)
(0.0137005 -0.0867493 0)
(0.0727828 0.0875213 0)
(-0.143232 0.00859559 0)
(0.427244 -0.151992 0)
(-0.124069 0.045076 0)
(-0.0287182 0.207077 0)
(0.0903625 -0.0360701 0)
(0.102182 0.000788353 0)
(0.085364 0.022016 0)
(0.0799347 0.0084882 0)
(0.0774347 -0.00176591 0)
(0.0756754 0.00372656 0)
(0.0761594 0.00248717 0)
(0.0763519 -0.000113733 0)
(0.0775406 -0.00195731 0)
(0.0779935 -0.000999989 0)
(0.0776691 -8.25044e-05 0)
(0.0774646 0.00051891 0)
(0.0770474 0.000984827 0)
(0.0765011 0.000384417 0)
(0.0769892 -0.00085846 0)
(0.077822 -0.00111696 0)
(0.0791641 -0.00108908 0)
(0.0785806 -0.000893867 0)
(0.0809464 -0.00164169 0)
(0.0807193 -0.0090057 0)
(0.0966091 -0.0114709 0)
(0.104605 0.00336394 0)
(0.123075 0.22364 0)
(-0.407469 -0.207269 0)
(0.336544 -0.393338 0)
(0.740165 -0.0371591 0)
(1.65181 0.172365 0)
(0.551221 0.0337128 0)
(0.360164 0.0165115 0)
(0.229787 0.042045 0)
(0.145069 0.0387709 0)
(0.109478 0.0117021 0)
(0.383904 -0.117485 0)
(0.464617 -0.201122 0)
(0.545456 0.192108 0)
(0.310907 0.178181 0)
(0.185069 0.0647773 0)
(0.132126 -0.0291632 0)
(0.108622 -0.0892094 0)
(-0.00894176 -0.0555143 0)
(-0.0396214 0.126844 0)
(-0.0253608 -0.344695 0)
(0.696731 0.0144632 0)
(-1.1484 0.388846 0)
(-0.00586657 -0.066842 0)
(0.161015 -0.0579292 0)
(0.123468 0.0167084 0)
(0.0866115 0.0279844 0)
(0.0842211 0.00885726 0)
(0.0825783 0.000520779 0)
(0.0814793 0.00282679 0)
(0.0834501 0.00203374 0)
(0.0845114 -0.000863994 0)
(0.0860225 -0.00243549 0)
(0.0848362 -0.000803001 0)
(0.083148 0.000125489 0)
(0.0827965 0.000610492 0)
(0.082909 0.00119583 0)
(0.082876 0.000447832 0)
(0.0836131 -0.00127651 0)
(0.0844393 -0.00150788 0)
(0.0856248 -0.00130713 0)
(0.0849611 -0.00109351 0)
(0.0878098 -0.00187628 0)
(0.0870204 -0.00991731 0)
(0.0927314 -0.0121639 0)
(0.139595 -0.0440954 0)
(0.186828 -0.110869 0)
(3.90838 -0.117609 0)
(0.771362 0.288806 0)
(0.408976 -0.200058 0)
(-0.634173 0.789667 0)
(0.182657 -0.0573803 0)
(0.116238 0.0379152 0)
(0.136659 0.0692029 0)
(0.124663 0.0624382 0)
(0.100877 0.0179952 0)
(-0.609036 -0.336765 0)
(-0.124606 -0.174493 0)
(0.358135 0.199098 0)
(0.379569 0.207018 0)
(0.267974 0.0967019 0)
(0.164105 -0.00679642 0)
(0.102716 -0.0649661 0)
(0.0123062 -0.0387868 0)
(-0.00308053 0.129596 0)
(0.198204 -0.385836 0)
(-0.701483 0.224091 0)
(-1.06479 0.47753 0)
(0.120512 -0.38857 0)
(0.15282 -0.0596633 0)
(0.101789 0.0325993 0)
(0.0814723 0.0312774 0)
(0.0849087 0.00836335 0)
(0.0858954 0.00070626 0)
(0.0871358 0.00221946 0)
(0.0884329 0.00199448 0)
(0.08782 -0.0011352 0)
(0.0884994 -0.00219122 0)
(0.0853904 -3.6561e-05 0)
(0.0824287 0.000562588 0)
(0.0819081 0.000599658 0)
(0.0825345 0.00105611 0)
(0.0831455 0.000261006 0)
(0.0841063 -0.00155286 0)
(0.0848263 -0.00175201 0)
(0.0859556 -0.00138766 0)
(0.0854174 -0.00134954 0)
(0.0882116 -0.00224401 0)
(0.0897692 -0.0100105 0)
(0.0872313 -0.0161067 0)
(0.176483 -0.0927111 0)
(0.0442707 -0.647976 0)
(2.72938 -0.0801148 0)
(0.874128 0.0348697 0)
(0.26004 -0.537049 0)
(1.51901 1.37378 0)
(0.278696 -0.148555 0)
(0.099662 -0.01239 0)
(0.0827496 0.0671849 0)
(0.110212 0.0676879 0)
(0.0904667 0.0200113 0)
(-1.89818 -0.198897 0)
(-0.361172 -0.247228 0)
(0.153576 0.1625 0)
(0.402797 0.208119 0)
(0.295164 0.108541 0)
(0.173499 0.00232871 0)
(0.102033 -0.0560486 0)
(0.00199762 -0.036015 0)
(0.0217832 0.11493 0)
(0.371755 -0.31136 0)
(-1.20646 0.259084 0)
(-0.767852 0.449633 0)
(0.172281 -0.447928 0)
(0.126968 -0.0536085 0)
(0.0757746 0.0359925 0)
(0.0788009 0.0313653 0)
(0.0853135 0.0080538 0)
(0.0867404 0.000582839 0)
(0.0884664 0.00202895 0)
(0.0896901 0.00202502 0)
(0.0887403 -0.00114419 0)
(0.089097 -0.00204002 0)
(0.0851693 0.000310466 0)
(0.0816958 0.000754403 0)
(0.0811138 0.000590381 0)
(0.0819733 0.00097899 0)
(0.0829025 0.000170829 0)
(0.0839638 -0.00164638 0)
(0.0846163 -0.00184149 0)
(0.0857197 -0.00142309 0)
(0.0852545 -0.00146343 0)
(0.0878989 -0.00242947 0)
(0.0900156 -0.0100424 0)
(0.0834495 -0.0195112 0)
(0.0525434 -0.0784667 0)
(-0.60425 -0.731057 0)
(0.779718 -0.328435 0)
(1.075 0.0443544 0)
(0.268748 -0.726554 0)
(9.74616 0.775524 0)
(0.915886 0.177955 0)
(0.323339 0.0173125 0)
(0.0945456 0.0682484 0)
(0.105784 0.0684676 0)
(0.0864102 0.0208142 0)
(-0.000711321 -0.0834828 0)
(0.962462 -0.339355 0)
(0.587085 0.152514 0)
(0.446848 0.210045 0)
(0.311138 0.120972 0)
(0.179198 0.0125102 0)
(0.102028 -0.0462829 0)
(-0.0345253 -0.0298208 0)
(-0.0176405 0.0844868 0)
(0.484373 -0.230829 0)
(-0.982826 0.287644 0)
(-0.579547 0.389985 0)
(0.166243 -0.483126 0)
(0.106847 -0.0458752 0)
(0.0549136 0.0372776 0)
(0.0770083 0.0303937 0)
(0.0853277 0.00760594 0)
(0.086994 0.000411259 0)
(0.0884788 0.00183701 0)
(0.0898881 0.00207127 0)
(0.08921 -0.00113237 0)
(0.0892942 -0.00182119 0)
(0.0844357 0.00073808 0)
(0.0804145 0.000968315 0)
(0.0797877 0.000561224 0)
(0.0809486 0.000868914 0)
(0.0823276 5.8907e-05 0)
(0.0835962 -0.00173751 0)
(0.0842205 -0.00192403 0)
(0.0852607 -0.00144488 0)
(0.0848098 -0.00156825 0)
(0.0872678 -0.00262584 0)
(0.0894277 -0.0100881 0)
(0.0809456 -0.0261934 0)
(0.0360604 -0.0334931 0)
(-0.508703 -0.763182 0)
(0.423116 -0.37501 0)
(-0.169756 1.41681 0)
(0.279762 -0.841584 0)
(9.83239 0.168478 0)
(1.20668 0.93557 0)
(0.480445 0.0917359 0)
(0.120815 0.0732997 0)
(0.101939 0.0702283 0)
(0.0823569 0.0216506 0)
(-1.28412 -0.152904 0)
(0.868765 -0.505675 0)
(1.12708 0.18876 0)
(0.495807 0.228509 0)
(0.311909 0.135873 0)
(0.181318 0.0230795 0)
(0.103573 -0.0362212 0)
(-0.0179518 -0.0212703 0)
(-0.0209119 0.0504389 0)
(0.453259 -0.187724 0)
(-0.48509 0.327497 0)
(-0.519803 0.340636 0)
(0.152258 -0.516185 0)
(0.112804 -0.038148 0)
(0.0507539 0.0383607 0)
(0.0757731 0.028781 0)
(0.0851558 0.00704883 0)
(0.0866455 0.000282214 0)
(0.0873316 0.00165332 0)
(0.0890924 0.00208659 0)
(0.0891534 -0.00115398 0)
(0.0891923 -0.00154983 0)
(0.0843292 0.00120888 0)
(0.0806415 0.00119309 0)
(0.0801636 0.000518713 0)
(0.081582 0.000715365 0)
(0.0832878 -8.76479e-05 0)
(0.0844355 -0.00182754 0)
(0.0846985 -0.0019971 0)
(0.0855335 -0.0014618 0)
(0.0848785 -0.00167012 0)
(0.0873764 -0.00280584 0)
(0.0887339 -0.00998713 0)
(0.0807532 -0.0312824 0)
(0.160286 -0.0100501 0)
(-0.257363 -0.748415 0)
(0.725162 -0.547769 0)
(-0.101356 0.0895733 0)
(0.378247 -0.89902 0)
(0.34001 -0.223601 0)
(0.541787 1.44149 0)
(0.307792 0.145524 0)
(0.138411 0.0842165 0)
(0.0973531 0.0734852 0)
(0.0780195 0.0224522 0)
(0.50738 -0.0517702 0)
(-0.177979 -0.612999 0)
(0.83723 0.229523 0)
(0.476996 0.256136 0)
(0.300501 0.152133 0)
(0.180604 0.0333218 0)
(0.106587 -0.0276633 0)
(0.0419933 -0.0168388 0)
(0.034296 0.0284308 0)
(0.351503 -0.17379 0)
(-0.148041 0.374284 0)
(-0.486038 0.319006 0)
(0.12122 -0.554414 0)
(0.115958 -0.0311008 0)
(0.0483774 0.0397837 0)
(0.0751472 0.0270377 0)
(0.0852147 0.00644199 0)
(0.0859615 0.00026508 0)
(0.0853844 0.00148232 0)
(0.0875727 0.00199748 0)
(0.0883084 -0.00122591 0)
(0.088362 -0.00131152 0)
(0.0843967 0.00159629 0)
(0.0815477 0.00137762 0)
(0.0811631 0.000477606 0)
(0.0823781 0.00056378 0)
(0.0839253 -0.000221022 0)
(0.0848274 -0.0018781 0)
(0.0847752 -0.00203689 0)
(0.0854048 -0.00146618 0)
(0.0845879 -0.00175471 0)
(0.0869532 -0.00294779 0)
(0.0871833 -0.00968052 0)
(0.0791936 -0.0299155 0)
(0.16102 -0.0172248 0)
(-0.161032 -0.804419 0)
(1.49904 -0.232579 0)
(-0.261412 0.366895 0)
(-0.13428 -0.902807 0)
(-2.85109 0.279019 0)
(-0.208155 1.35274 0)
(0.19657 0.127516 0)
(0.142557 0.0957746 0)
(0.0925695 0.0774094 0)
(0.0747829 0.0232019 0)
(0.0417739 -0.000301129 0)
(0.0491684 -0.00610711 -9.93908e-31)
(-0.0130165 0.0177952 -4.34435e-30)
(-0.13992 0.0562253 -1.19129e-29)
(-0.253133 0.104121 0)
(0.0825847 -0.00120724 0)
(0.11839 -0.00914861 0)
(0.0380128 0.0331044 0)
(0.104539 0.0504291 -1.55249e-29)
(-0.0563821 0.193898 0)
(0.0936552 -0.00789221 0)
(0.144362 -0.00872918 0)
(0.0645761 0.0258039 0)
(0.20497 0.0357366 -1.89763e-29)
(0.0665785 0.119067 0)
(0.0823734 -0.0127291 0)
(0.128944 -0.0052098 0)
(0.0604524 0.0171055 0)
(0.233421 0.0265959 8.54543e-30)
(0.0618043 0.0879774 0)
(0.0430491 -0.00676665 0)
(0.0665461 -0.000249597 0)
(0.0355773 0.00506272 0)
(0.172129 0.0162193 3.68693e-30)
(0.136149 0.0400875 0)
(-0.603753 -0.121796 0)
(-1.03112 -0.523301 0)
(-0.0798712 0.111207 0)
(0.192343 0.263552 0)
(0.230701 0.188244 0)
(0.170486 0.0601908 0)
(0.111936 -0.0133851 0)
(0.136696 -0.0230181 0)
(0.111437 0.0215594 0)
(0.186381 -0.202907 0)
(0.482381 0.537989 0)
(-0.328573 0.279826 0)
(-0.00845939 -0.66568 0)
(0.101673 -0.0270845 0)
(0.056465 0.0430466 0)
(0.0743498 0.0229015 0)
(0.0850749 0.00457072 0)
(0.0834662 0.000963788 0)
(0.0786682 0.00106186 0)
(0.082275 0.00109704 0)
(0.0855015 -0.00146177 0)
(0.0853583 -0.000767214 0)
(0.0835977 0.00233203 0)
(0.0828228 0.00174652 0)
(0.0827402 0.000396362 0)
(0.0834596 0.000212873 0)
(0.0845145 -0.000524931 0)
(0.0847785 -0.00191632 0)
(0.0840028 -0.00205339 0)
(0.0840945 -0.0014287 0)
(0.0829091 -0.00189479 0)
(0.0848331 -0.00312127 0)
(0.0822408 -0.0084638 0)
(0.0738351 -0.0201571 0)
(0.0776706 0.000266024 0)
(-0.134925 -0.76901 0)
(-0.625933 -0.333315 0)
(-0.82306 0.228546 0)
(-0.965003 -0.645755 0)
(-3.98403 -0.376231 0)
(0.0591505 0.565252 0)
(0.18609 0.127287 0)
(0.0775007 0.127125 0)
(0.0729992 0.0873325 0)
(0.0645166 0.0248211 0)
(0.34056 -0.0735699 0)
(-0.181213 -0.438972 0)
(-0.285257 -0.299335 0)
(-0.0386793 0.140154 0)
(0.0701285 0.17436 0)
(0.10544 0.0714033 0)
(0.0670436 -0.00484256 0)
(0.0160779 -0.0174921 0)
(-0.0792927 0.0464152 0)
(0.244123 -0.40511 0)
(0.304265 0.797828 0)
(0.199001 0.333395 0)
(0.0119872 -0.676926 0)
(0.0277623 -0.0547118 0)
(0.0632575 0.046419 0)
(0.0731434 0.0176466 0)
(0.0811403 0.00123643 0)
(0.0788756 0.00458713 0)
(0.0735458 0.00155141 0)
(0.0745977 -0.0011969 0)
(0.0758626 -0.00191847 0)
(0.0757047 -0.000628702 0)
(0.0763315 0.00199883 0)
(0.0776032 0.00157673 0)
(0.078087 0.000341224 0)
(0.0783698 -4.82231e-05 0)
(0.0786422 -0.000673046 0)
(0.0781375 -0.00156897 0)
(0.0767737 -0.00165221 0)
(0.076364 -0.0011905 0)
(0.0749217 -0.0016857 0)
(0.0760251 -0.00265717 0)
(0.0750175 -0.0067941 0)
(0.0789478 -0.0167532 0)
(0.103129 -0.0247634 0)
(0.128123 -0.148091 0)
(-1.05225 -0.0795463 0)
(-0.685572 0.183555 0)
(-0.439429 -0.013735 0)
(-0.99372 0.0302437 0)
(-0.332977 -0.289855 0)
(-0.122833 0.12662 0)
(-0.0604055 0.106335 0)
(0.0329209 0.0727998 0)
(0.042049 0.021404 0)
(0.404867 -0.0939685 0)
(-0.0177032 -0.26377 0)
(-0.257228 -0.181107 0)
(-0.186813 0.0585934 0)
(-0.0559407 0.123342 0)
(0.0406639 0.0580648 0)
(0.0280377 0.0171957 0)
(-0.0167644 0.0289702 0)
(-0.0383925 -0.060366 0)
(0.130097 -0.514617 0)
(0.234487 0.700922 0)
(0.713921 0.379138 0)
(0.114349 -0.45832 0)
(-0.0171799 -0.064852 0)
(0.0395212 0.0357864 0)
(0.0621117 0.0111169 0)
(0.0655509 0.000164971 0)
(0.0645198 0.00692825 0)
(0.0644843 0.00178473 0)
(0.0652016 -0.000927533 0)
(0.0632111 -0.00146609 0)
(0.0617936 -0.00064667 0)
(0.0627787 0.00118595 0)
(0.0646745 0.000996685 0)
(0.0654624 0.00018957 0)
(0.0656086 -0.000102179 0)
(0.065463 -0.000513631 0)
(0.064589 -0.00103237 0)
(0.0630292 -0.00109247 0)
(0.0623248 -0.00082832 0)
(0.0606375 -0.00130919 0)
(0.0608487 -0.00191179 0)
(0.0569688 -0.00544198 0)
(0.041242 -0.020071 0)
(-0.0104703 -0.0515389 0)
(-0.0898656 -0.168018 0)
(-0.445026 -0.290708 0)
(-0.527671 0.198565 0)
(-0.0768736 0.12062 0)
(0.208498 0.159771 0)
(-0.36529 -0.175193 0)
(-0.167224 0.0297023 0)
(-0.123168 0.0638784 0)
(0.0039403 0.0464852 0)
(0.0153552 0.0171191 0)
(0.353246 -0.0773916 0)
(0.054886 -0.116663 0)
(-0.246053 -0.0980192 0)
(-0.231527 0.020696 0)
(-0.117132 0.0631342 0)
(-0.00299663 0.0350672 0)
(0.010997 0.0229991 0)
(0.0244732 0.0249833 0)
(0.0326737 -0.0820199 0)
(-0.209482 -0.400235 0)
(-0.379222 0.471243 0)
(0.73401 0.258433 0)
(0.154713 -0.23602 0)
(-0.0350297 -0.0501147 0)
(0.00467632 0.0158559 0)
(0.0369455 0.00446824 0)
(0.0348503 7.26393e-05 0)
(0.0397562 0.00532776 0)
(0.0465264 0.00040263 0)
(0.0462851 0.000428394 0)
(0.0435685 -0.000526328 0)
(0.04232 -0.000473997 0)
(0.0431219 0.000383801 0)
(0.0447074 0.000354245 0)
(0.045349 2.51609e-05 0)
(0.0453723 -6.91195e-05 0)
(0.0450837 -0.000244571 0)
(0.0442228 -0.000468911 0)
(0.0428534 -0.000499937 0)
(0.0421098 -0.000386761 0)
(0.0404275 -0.000770131 0)
(0.0398434 -0.00112061 0)
(0.0360651 -0.00292747 0)
(0.029994 -0.00927324 0)
(0.0311191 -0.00241347 0)
(0.0502773 0.00241786 0)
(0.194545 -0.101028 0)
(-0.387054 0.0799344 0)
(-0.0917462 0.0216535 0)
(0.262664 0.0648853 0)
(-0.19448 0.0309552 0)
(-0.133868 -0.0468945 0)
(-0.12936 0.028219 0)
(-0.0221879 0.0220579 0)
(-0.0043249 0.0132296 0)
(0.310182 -0.0604948 0)
(0.0839787 -0.0268087 0)
(-0.131132 -0.0228566 0)
(-0.149814 2.90356e-05 0)
(-0.0891131 0.0115353 0)
(-0.0122612 0.00692894 0)
(0.00982855 0.0062666 0)
(0.0506058 0.00691469 0)
(0.0541493 -0.0257231 0)
(-0.269042 -0.0897265 0)
(-0.520544 0.0996834 0)
(0.42142 0.0484278 0)
(0.157545 -0.0543976 0)
(-0.0121806 -0.0176734 0)
(-0.00718598 0.00227175 0)
(0.0116118 0.000843289 0)
(0.00902661 5.05291e-05 0)
(0.0135202 0.00109042 0)
(0.0177364 -0.000428435 0)
(0.0178398 0.000641411 0)
(0.0180617 -5.87606e-05 0)
(0.017223 -0.000162411 0)
(0.0171295 9.64648e-06 0)
(0.0176218 1.99816e-05 0)
(0.0177788 -1.74405e-05 0)
(0.0177188 -6.51729e-06 0)
(0.0175565 -2.61592e-05 0)
(0.0171353 -5.58195e-05 0)
(0.0164924 -6.16103e-05 0)
(0.0161476 -1.60234e-05 0)
(0.0152121 -0.000158385 0)
(0.0142702 -0.000284989 0)
(0.0114121 -0.000843302 0)
(0.0047738 -0.00326936 0)
(-0.0195932 -0.0127854 0)
(-0.056274 -0.0840039 0)
(-0.34271 0.00468849 0)
(-0.27344 0.0255623 0)
(-0.156403 -0.0098828 0)
(-0.24665 -0.0212738 0)
(0.0521163 0.101095 0)
(-0.0396087 -0.0228707 0)
(-0.0815041 0.00218353 0)
(-0.028149 0.00313773 0)
(-0.00371926 0.00411432 0)
)
;

boundaryField
{
    AirInlet
    {
        type            fixedValue;
        value           uniform (0.1 0 0);
    }
    WaterInlet
    {
        type            fixedValue;
        value           uniform (0.1 0 0);
    }
    ChannelWall
    {
        type            fixedValue;
        value           uniform (0 0 0);
    }
    Outlet
    {
        type            pressureInletOutletVelocity;
        value           nonuniform List<vector> 
15
(
(0.050041 -0.00129595 0)
(0.0890567 -0.000884291 0)
(0.105388 0.00423681 0)
(0.109478 0.0117021 0)
(0.100877 0.0179952 0)
(0.0904667 0.0200113 0)
(0.0864102 0.0208142 0)
(0.0823569 0.0216506 0)
(0.0780195 0.0224522 0)
(0.0747829 0.0232019 0)
(0.0645166 0.0248211 0)
(0.042049 0.021404 0)
(0.0153552 0.0171191 0)
(-0.00212432 0 0)
(-0.0015036 0 0)
)
;
    }
    FrontAndBack
    {
        type            empty;
    }
}


// ************************************************************************* //
