/*--------------------------------*- C++ -*----------------------------------*\
| =========                 |                                                 |
| \\      /  F ield         | OpenFOAM: The Open Source CFD Toolbox           |
|  \\    /   O peration     | Version:  2.3.0                                 |
|   \\  /    A nd           | Web:      www.OpenFOAM.org                      |
|    \\/     M anipulation  |                                                 |
\*---------------------------------------------------------------------------*/
FoamFile
{
    version     2.0;
    format      ascii;
    class       volScalarField;
    location    "1.2";
    object      alpha.water;
}
// * * * * * * * * * * * * * * * * * * * * * * * * * * * * * * * * * * * * * //

dimensions      [0 0 0 0 0 0 0];

internalField   nonuniform List<scalar> 
2268
(
1
1
1
1
1
0.999999
0.999999
1
1
1
1
0.996675
0.97243
0.97243
0.972431
0.972452
0.976165
0.991727
0.993936
0.99202
0.989663
0.985426
0.989536
1
1
1
0.999999
0.999999
1
1
1
1
1
1
0.998904
0.987268
0.977187
0.982936
0.997245
0.999969
0.999969
0.999965
0.999951
0.999938
0.999342
0.996003
1
1
1
0.999999
0.999999
1
1
1
1
1
0.999999
0.999973
0.999891
0.998798
0.999704
0.999959
0.999968
0.999965
0.999952
0.999691
0.99983
0.999946
0.999782
1
0.999999
1
0.999999
0.999999
1
1
1
1
1
1
1
0.999995
0.99998
0.999922
0.999912
0.999921
0.999894
0.996604
0.996809
0.999627
0.999947
0.99994
1
0.999999
1
1
1
1
1
1
1
1
1
1
0.999999
0.999994
0.999979
0.999845
0.995543
0.984898
0.981699
0.997188
0.999925
0.999935
0.999905
1
1
1
1
1
0.999999
0.999999
0.999999
0.999999
1
1
1
1
0.999997
0.99996
0.995946
0.942289
0.917585
0.986892
0.999741
0.999895
0.999907
0.999731
1
1
1
1
0.999999
0.999999
0.999999
1
1
1
1
1
1
0.999987
0.999796
0.966695
0.862524
0.906603
0.998831
0.999541
0.999741
0.999871
0.999753
1
1
1
1
1
1
1
1
1
1
1
1
1.00001
0.999949
0.991095
0.868005
0.851343
0.938641
0.998134
0.998832
0.998886
0.999483
0.999707
0.990695
0.990695
0.994222
0.994177
0.946644
0.831504
0.886264
0.917829
0.982826
0.986075
0.975775
0.908333
0.907871
0.907838
0.907871
0.925522
0.934449
0.934277
0.93445
0.991823
0.994485
0.994487
0.925024
0.500191
0.495056
0.591944
0.544433
0.675537
0.963599
0.974407
0.932656
0.908297
0.907809
0.907839
0.907858
0.907994
0.937278
0.954631
0.994485
0.994488
0.994492
0.871341
0.454546
0.499317
0.54668
0.492315
0.461405
0.602472
0.927929
0.957201
0.957357
0.956088
0.934619
0.935025
0.950698
0.958186
0.958217
0.994481
0.994485
0.977232
0.722123
0.451283
0.784312
0.78512
0.785125
0.52092
0.424726
0.608892
0.909016
0.957557
0.957616
0.957745
0.958032
0.958186
0.958217
0.958217
0.994451
0.994479
0.968502
0.450988
0.452835
0.783252
0.78469
0.785504
0.785293
0.46595
0.292401
0.51205
0.887257
0.957777
0.958013
0.958115
0.958036
0.894301
0.908539
0.991983
0.988928
0.986454
0.64163
0.681294
0.782357
0.78353
0.784834
0.784551
0.565655
0.277625
0.277632
0.51288
0.934043
0.957751
0.942053
0.619358
0.223853
0.296874
0.993335
0.976988
0.97665
0.643155
0.59958
0.768922
0.789213
0.793094
0.669722
0.66546
0.323565
0.277643
0.284502
0.608984
0.727423
0.429557
0.0951027
0.0932278
0.0734643
0.993335
0.992728
0.813954
0.380453
0.316847
0.400746
0.807102
0.806889
0.222168
0.378283
0.48276
0.4823
0.297521
0.156285
0.0867225
0.0828975
0.0852446
0.108089
0.069195
1
1
1
1
1
1
1
1
1
1
1
1
0.999989
0.999735
0.916328
0.842119
0.847507
0.987838
0.99548
0.98564
0.954516
0.981642
0.999003
1
1
1
1
1
1
1
1
1
1
1
1
0.999987
0.999731
0.949886
0.859321
0.969873
0.977261
0.981141
0.820601
0.573159
0.59642
0.936043
1
0.999999
0.999999
0.999999
0.999999
1
0.999998
1
1
1
1
1
0.999982
0.999636
0.928404
0.892149
0.874208
0.603569
0.518968
0.531187
0.367541
0.328717
0.460032
0.999993
0.999991
0.99999
0.999984
0.999979
0.999982
0.999997
0.993235
0.905756
0.898992
0.875485
0.913066
0.911212
0.753183
0.600902
0.610161
0.180004
0.013625
0.0112964
0.081278
0.21637
0.330453
0.184838
0.999904
0.99987
0.999831
0.999726
0.999551
0.969905
0.771567
0.522137
0.344926
0.259757
0.207954
0.262598
0.259803
0.110891
0.0562972
0.0632524
0.0171592
0.00684819
0.00515916
0.00280092
0.00101429
0.0917151
0.208143
0.998765
0.99414
0.979056
0.919878
0.743341
0.433033
0.237433
0.136398
0.0426857
0.0405321
0.0368221
0.0361588
0.0303844
0.0240136
0.0181751
0.0161529
0.0159667
0.0155838
0.00626222
0.00387649
0.000571488
0.000849519
0.0265892
0.635207
0.523454
0.421183
0.252224
0.183613
0.235026
0.236847
0.090257
0.0406506
0.0371279
0.0343951
0.0324008
0.0303874
0.029178
0.0297963
0.0411253
0.0197904
0.0165626
0.0148675
0.0044037
0.000571488
0.000406867
9.79283e-05
0.0635612
0.0106982
0.0158406
0.0260018
0.148684
0.232734
0.236686
0.232733
0.142897
0.0344638
0.0343602
0.032248
0.0345483
0.0686648
0.0724176
0.0722274
0.0721564
0.0414094
0.0061958
0.00115298
0.000571488
0.00275971
0.0036301
0.00245481
0.00278967
0.00904516
0.141279
0.230708
0.233131
0.2259
0.184596
0.182008
0.156212
0.0744771
0.0293062
0.0390651
0.0724724
0.0725003
0.0711629
0.0166726
0.00345863
0.00257171
0.000263545
0.000959819
0.00407923
0.00408417
0.00165424
0.00246076
0.0378467
0.130711
0.116924
0.0329454
0.0267696
0.04597
0.101934
0.116628
0.052358
0.0188045
0.0195383
0.0364163
0.0109977
8.27106e-16
4.55862e-08
1.91989e-06
1.30443e-06
1.64347e-05
0.000173682
0.000215497
0.000877016
0.00111948
0.00789087
0.0245728
0.0101499
5.29128e-05
8.74421e-05
0.000215932
0.000578463
0.00226272
0.00440137
0.00210504
0.000858848
0.000148383
5.05037e-05
-5.61632e-08
-2.7501e-08
1.43709e-08
2.1738e-07
-3.44378e-09
-1.4003e-08
-8.2341e-09
-4.50894e-09
-5.90694e-09
0.000899191
0.0056459
0.00458583
1.39287e-05
8.10201e-06
2.59246e-05
3.13313e-05
3.36684e-05
4.21466e-05
4.03297e-05
2.06321e-05
4.30557e-06
-1.10979e-06
1.96797e-07
-8.8073e-08
-6.53651e-08
-6.86903e-08
-4.62235e-08
-1.40667e-08
-1.71299e-08
-4.26525e-09
1.64835e-12
1.12028e-10
0.000536114
0.00126098
1.39287e-05
1.01575e-05
6.31227e-06
7.69904e-06
6.92215e-06
7.29713e-06
6.64271e-06
3.53478e-06
1.30251e-06
3.13532e-07
6.25843e-08
1.49716e-08
-3.59059e-10
-1.24287e-09
-1.39968e-10
1.89261e-10
1.38237e-10
2.85186e-10
5.39232e-10
4.46901e-10
2.65876e-10
7.5266e-05
4.21715e-05
1.19669e-05
1.15118e-05
2.93021e-06
9.28169e-07
9.05279e-07
9.96791e-07
8.47911e-07
4.46334e-07
1.36251e-07
2.50197e-08
4.89413e-09
3.03118e-09
4.02087e-09
9.06776e-09
9.17161e-09
6.46847e-09
2.46955e-09
1.61149e-09
8.88385e-10
2.29698e-10
1.04668e-10
2.6586e-05
2.65074e-05
1.79795e-05
7.63947e-06
2.28438e-06
3.33747e-07
1.82377e-07
1.65087e-07
1.25424e-07
6.52172e-08
2.14765e-08
5.73164e-09
3.12513e-09
2.76601e-09
2.74823e-09
2.75758e-09
2.60053e-09
1.33998e-09
7.8683e-10
5.01768e-10
2.90145e-10
1.60231e-10
7.30399e-11
8.192e-06
1.09713e-05
1.24637e-05
3.72227e-06
1.08197e-06
1.8304e-07
5.41966e-08
3.36354e-08
2.22716e-08
1.17544e-08
4.93243e-09
2.49774e-09
4.10961e-09
4.71622e-09
4.09719e-09
2.89184e-09
1.95862e-09
1.23212e-09
7.72647e-10
4.73347e-10
2.71568e-10
1.3376e-10
6.15736e-11
2.20549e-06
3.11943e-06
2.99691e-06
1.18134e-06
3.61618e-07
7.66005e-08
1.67727e-08
8.42792e-09
5.06391e-09
3.02044e-09
2.1814e-09
1.79274e-09
3.03554e-09
4.64255e-09
4.62973e-09
3.82951e-09
2.43114e-09
1.36033e-09
7.42316e-10
3.87672e-10
1.89197e-10
7.67368e-11
4.13472e-11
5.17208e-07
7.33018e-07
4.96221e-07
1.74293e-07
8.05192e-08
3.09681e-08
6.57713e-09
2.98044e-09
1.94206e-09
1.54702e-09
1.46936e-09
1.53211e-09
1.90198e-09
2.62979e-09
2.60414e-09
2.26374e-09
1.58503e-09
8.85501e-10
4.18536e-10
1.80246e-10
7.63776e-11
3.44221e-11
2.45405e-11
1.05353e-07
1.76899e-07
8.86975e-08
3.45087e-08
1.16258e-08
8.41838e-09
3.51316e-09
1.75299e-09
1.22403e-09
1.1448e-09
1.18047e-09
1.30905e-09
1.42856e-09
1.41958e-09
1.31277e-09
1.02755e-09
6.66817e-10
3.70213e-10
1.6245e-10
7.01526e-11
2.72236e-11
2.21898e-11
1.55547e-11
1.86269e-08
3.87558e-08
2.25099e-08
9.52867e-09
3.50382e-09
2.41656e-09
1.83147e-09
1.27925e-09
1.0086e-09
9.20523e-10
9.38339e-10
9.82176e-10
9.6391e-10
8.62837e-10
6.72596e-10
4.4358e-10
2.44842e-10
1.17776e-10
4.55566e-11
2.28907e-11
1.78028e-11
1.25837e-11
8.99985e-12
2.91821e-09
7.73603e-09
5.32656e-09
2.56184e-09
1.46451e-09
1.21617e-09
1.06765e-09
8.72393e-10
7.35463e-10
6.59264e-10
6.2849e-10
5.90349e-10
5.16918e-10
4.00335e-10
2.65934e-10
1.42842e-10
5.77123e-11
2.68535e-11
2.14628e-11
1.49531e-11
1.00755e-11
6.77293e-12
4.6433e-12
5.35619e-10
1.65834e-09
1.28004e-09
8.92173e-10
8.09749e-10
7.00638e-10
6.00377e-10
5.07527e-10
4.29396e-10
3.69075e-10
3.16227e-10
2.57276e-10
1.90052e-10
1.19165e-10
4.94711e-11
3.50486e-11
2.26425e-11
1.52281e-11
9.95356e-12
6.45339e-12
4.18811e-12
2.76034e-12
1.88951e-12
1.21326e-10
3.89151e-10
4.22224e-10
4.53222e-10
4.21761e-10
3.37526e-10
2.64613e-10
2.24446e-10
1.81763e-10
1.38409e-10
9.89877e-11
5.99206e-11
3.6202e-11
2.82805e-11
2.04133e-11
1.38955e-11
9.14373e-12
5.8462e-12
3.66337e-12
2.27597e-12
1.42365e-12
9.15817e-13
6.24997e-13
4.36804e-11
1.27367e-10
1.79481e-10
1.82561e-10
1.42115e-10
1.06953e-10
8.30818e-11
6.20554e-11
4.14714e-11
3.15994e-11
2.58497e-11
2.22799e-11
1.79676e-11
1.25854e-11
8.25806e-12
5.20634e-12
3.17022e-12
1.88084e-12
1.09931e-12
6.42045e-13
3.8206e-13
2.38644e-13
1.64763e-13
2.39792e-11
4.17653e-11
5.04812e-11
4.30519e-11
3.41822e-11
2.78708e-11
2.43051e-11
2.19119e-11
2.11971e-11
1.75756e-11
1.35044e-11
1.01124e-11
7.08153e-12
4.59665e-12
2.75627e-12
1.58634e-12
8.82659e-13
4.80077e-13
2.58663e-13
1.40518e-13
7.9256e-14
4.94759e-14
3.93607e-14
1.37433e-11
1.74754e-11
1.89174e-11
2.00587e-11
2.01746e-11
1.77995e-11
1.45107e-11
1.18991e-11
9.53594e-12
7.26991e-12
5.29808e-12
3.653e-12
2.34002e-12
1.37717e-12
7.41315e-13
3.84454e-13
1.9336e-13
9.53918e-14
4.69039e-14
2.36886e-14
1.34417e-14
1.10054e-14
1.62468e-14
5.4337e-12
1.09572e-11
1.15933e-11
1.06913e-11
9.24021e-12
7.60233e-12
6.07085e-12
4.73589e-12
3.56084e-12
2.5518e-12
1.72686e-12
1.08867e-12
6.30241e-13
3.30504e-13
1.57924e-13
7.29726e-14
3.28415e-14
1.45695e-14
6.57555e-15
3.45977e-15
3.23986e-15
6.33257e-15
1.59231e-14
1.9549e-12
4.2334e-12
4.53218e-12
4.09877e-12
3.44873e-12
2.76759e-12
2.13402e-12
1.58081e-12
1.11617e-12
7.43668e-13
4.61685e-13
2.63238e-13
1.35758e-13
6.22268e-14
2.62845e-14
1.07301e-14
4.28496e-15
1.73058e-15
8.65589e-16
9.98417e-16
2.49411e-15
7.13839e-15
1.93696e-14
6.25651e-13
1.4354e-12
1.52068e-12
1.34646e-12
1.10009e-12
8.51686e-13
6.27803e-13
4.39153e-13
2.89307e-13
1.77485e-13
9.99711e-14
5.08811e-14
2.29797e-14
8.99531e-15
3.35695e-15
1.20903e-15
4.36717e-16
2.08907e-16
2.96962e-16
8.93736e-16
2.85054e-15
8.45618e-15
2.30385e-14
1.75842e-13
4.24533e-13
4.38837e-13
3.77327e-13
2.97237e-13
2.20097e-13
1.53759e-13
1.00785e-13
6.14097e-14
3.43288e-14
1.73239e-14
7.74455e-15
2.99658e-15
1.00445e-15
3.26292e-16
1.05593e-16
4.70706e-17
7.75999e-17
2.70953e-16
9.62622e-16
3.15283e-15
9.46567e-15
2.60803e-14
4.31081e-14
1.08416e-13
1.08313e-13
8.96631e-14
6.75936e-14
4.75044e-14
3.11921e-14
1.89897e-14
1.05933e-14
5.33015e-15
2.37265e-15
9.12315e-16
2.92744e-16
8.57466e-17
2.4616e-17
9.57504e-18
1.64573e-17
6.54478e-17
2.61429e-16
9.58458e-16
3.21797e-15
9.92766e-15
2.81939e-14
9.17622e-15
2.37254e-14
2.27358e-14
1.7983e-14
1.28823e-14
8.52923e-15
5.21939e-15
2.92222e-15
1.47465e-15
6.57823e-16
2.53143e-16
8.13781e-17
2.1466e-17
5.52819e-18
1.76276e-18
2.66663e-18
1.18611e-17
5.39419e-17
2.2495e-16
8.58351e-16
3.01086e-15
9.75315e-15
2.92301e-14
1.68877e-15
4.42846e-15
4.04422e-15
3.03641e-15
2.05309e-15
1.27097e-15
7.18242e-16
3.65623e-16
1.645e-16
6.38182e-17
2.06683e-17
5.32164e-18
1.22102e-18
3.08028e-19
3.20406e-19
1.5186e-18
7.9245e-18
3.8175e-17
1.68459e-16
6.83206e-16
2.5573e-15
8.87356e-15
2.86288e-14
2.6746e-16
7.03213e-16
6.0881e-16
4.31476e-16
2.73594e-16
1.57106e-16
8.11539e-17
3.70589e-17
1.45998e-17
4.8041e-18
1.26203e-18
2.61143e-19
5.47335e-20
3.02363e-20
1.31002e-19
7.74839e-19
4.33867e-18
2.24739e-17
1.07475e-16
4.73612e-16
1.92301e-15
7.22731e-15
2.53163e-14
3.62801e-17
9.48991e-17
7.76218e-17
5.16962e-17
3.05511e-17
1.61364e-17
7.53066e-18
3.03531e-18
1.02355e-18
2.76363e-19
5.58122e-20
1.02168e-20
2.81499e-21
7.65701e-21
4.80034e-20
3.05299e-19
1.85196e-18
1.05946e-17
5.65373e-17
2.75265e-16
1.22194e-15
4.9883e-15
1.89559e-14
4.19746e-18
1.08892e-17
8.40603e-18
5.24491e-18
2.87257e-18
1.38325e-18
5.7555e-19
2.0081e-19
5.63218e-20
1.19291e-20
1.96683e-21
3.48533e-22
3.45292e-22
1.93976e-21
1.27859e-20
8.59753e-20
5.74586e-19
3.79969e-18
2.29853e-17
1.24612e-16
6.09859e-16
2.7268e-15
1.1282e-14
4.13011e-19
1.06481e-18
7.77238e-19
4.53841e-19
2.29316e-19
9.97969e-20
3.64877e-20
1.07711e-20
2.42529e-21
3.92471e-22
5.77006e-23
1.72276e-23
6.03099e-23
3.51486e-22
2.24835e-21
1.54277e-20
1.19519e-19
9.34979e-19
6.52538e-18
4.0202e-17
2.21289e-16
1.10407e-15
5.07145e-15
3.45126e-20
8.90828e-20
6.18299e-20
3.3851e-20
1.57438e-20
6.14665e-21
1.94637e-21
4.74177e-22
8.21425e-23
1.11883e-23
1.63211e-24
1.78162e-24
8.38106e-24
4.24701e-23
2.33318e-22
1.47393e-21
1.41483e-20
1.34987e-19
1.12261e-18
8.12813e-18
5.19169e-17
2.9744e-16
1.55703e-15
2.44487e-21
6.40521e-21
4.27489e-21
2.20911e-21
9.4757e-22
3.30702e-22
8.96855e-23
1.76268e-23
2.44876e-24
2.87676e-25
7.05372e-26
2.1157e-25
8.50929e-25
3.37443e-24
1.28254e-23
5.89583e-23
7.39404e-22
9.01552e-21
9.37558e-20
8.36167e-19
6.47687e-18
4.42803e-17
2.7213e-16
1.45485e-22
3.96856e-22
2.60184e-22
1.28735e-22
5.13774e-23
1.60943e-23
3.73145e-24
5.91503e-25
6.90084e-26
7.55705e-27
5.88451e-27
2.13068e-26
6.52316e-26
1.82026e-25
3.64679e-25
7.63147e-25
1.12021e-23
1.85424e-22
2.59317e-21
3.07637e-20
3.12901e-19
2.7639e-18
2.15415e-17
6.99534e-24
2.11678e-23
1.41811e-23
6.88284e-24
2.60047e-24
7.42981e-25
1.49773e-25
2.00107e-26
1.9572e-27
2.79072e-28
6.02264e-28
1.82307e-27
4.01848e-27
7.16007e-27
6.11575e-27
2.67883e-27
1.83989e-26
4.75161e-25
1.04494e-23
1.93341e-22
3.04242e-21
4.12009e-20
4.86212e-19
2.35722e-25
9.77737e-25
7.10834e-25
3.48189e-25
1.27435e-25
3.42168e-26
6.29396e-27
7.46763e-28
6.13384e-29
1.94856e-29
6.16695e-29
1.43902e-28
2.16871e-28
2.23505e-28
6.62598e-29
8.19009e-30
6.18824e-31
1.50848e-30
8.75014e-29
4.34644e-27
1.83983e-25
6.74225e-24
2.17109e-22
0.990901
0.987859
0.985976
0.986032
0.983818
0.956162
0.921431
0.888581
0.507527
0.365462
0.30107
0.273364
0.0743781
0.0507234
0.130362
0.179793
0.0691827
0.0321634
0.202367
0.218412
0.0167705
0.00959717
0.0429191
0.0750846
1.05491e-05
4.04876e-06
7.67233e-06
1.1614e-05
0.000651809
7.26414e-07
3.6028e-06
7.67005e-06
0.00234252
1.32305e-07
1.71504e-06
2.79937e-05
8.63579e-16
3.89306e-08
8.92994e-07
2.06416e-08
-4.53325e-09
7.76126e-14
1.03116e-10
3.60389e-09
2.19064e-11
9.8189e-11
4.84288e-10
2.15208e-09
1.62295e-10
7.84857e-11
1.32774e-10
2.52352e-10
7.82007e-11
6.17684e-11
4.85785e-11
1.26174e-10
4.92137e-11
4.25394e-11
3.68078e-11
3.54502e-11
4.08016e-11
3.3974e-11
3.02199e-11
2.22448e-11
3.14905e-11
2.60259e-11
2.24449e-11
2.01523e-11
2.01848e-11
1.73019e-11
1.52229e-11
1.37779e-11
1.29435e-11
1.09842e-11
9.52791e-12
8.48451e-12
7.53625e-12
6.39769e-12
5.53781e-12
4.91745e-12
3.82606e-12
3.22096e-12
2.78982e-12
2.50181e-12
1.56911e-12
1.33932e-12
1.18297e-12
1.0874e-12
5.23603e-13
4.55104e-13
4.13317e-13
3.943e-13
1.41677e-13
1.28975e-13
1.25244e-13
1.30033e-13
3.84132e-14
4.11956e-14
4.79531e-14
5.93771e-14
2.08151e-14
2.79247e-14
3.83347e-14
5.31132e-14
2.2555e-14
3.19655e-14
4.51347e-14
6.3351e-14
2.76161e-14
3.91659e-14
5.51783e-14
7.71649e-14
3.28009e-14
4.6425e-14
6.5261e-14
9.10939e-14
3.71887e-14
5.27166e-14
7.42638e-14
1.04036e-13
4.04709e-14
5.77992e-14
8.22262e-14
1.16816e-13
4.24971e-14
6.16476e-14
8.96657e-14
1.31523e-13
4.23798e-14
6.3039e-14
9.5355e-14
1.47971e-13
3.82841e-14
5.90289e-14
9.48114e-14
1.59487e-13
2.93866e-14
4.77151e-14
8.34179e-14
1.5485e-13
1.80996e-14
3.18075e-14
6.22487e-14
1.28614e-13
8.60892e-15
1.7081e-14
3.83675e-14
8.83744e-14
2.91719e-15
6.88e-15
1.80054e-14
4.6474e-14
6.08873e-16
1.77777e-15
5.42377e-15
1.60618e-14
6.74068e-17
2.54821e-16
9.24818e-16
3.38433e-15
2.8751e-18
1.52694e-17
7.20363e-17
3.90137e-16
5.1354e-21
6.76817e-20
8.7714e-19
1.55838e-17
0.991626
0.992301
0.722874
0.136655
0.119782
0.12286
0.601389
0.546392
0.109621
0.195595
0.480091
0.482764
0.476279
0.0956255
0.0674274
0.0690341
0.191456
0.184405
0.0683947
0.788642
0.72009
0.36785
0.119782
0.119782
0.120408
0.223625
0.168717
0.0603781
0.0243509
0.195743
0.479997
0.378738
0.0627819
0.0648388
0.186233
0.192395
0.178019
0.0682942
0.184357
0.124272
0.127651
0.121553
0.143252
0.251701
0.119913
0.0216487
0.0266811
0.0168157
0.0168645
0.0715572
0.176468
0.0449163
0.0759565
0.193299
0.193212
0.163241
0.0682942
0.205133
0.142315
0.146946
0.207694
0.256227
0.256227
0.0988488
0.0167419
0.0198422
0.0234289
0.0168495
0.0169514
0.0172626
0.0186632
0.129558
0.193299
0.193312
0.19326
0.141683
0.221257
0.22857
0.233415
0.245097
0.25281
0.0907038
0.0152455
0.0158887
0.0403906
0.0568265
0.0480487
0.017286
0.0170983
0.0167788
0.192692
0.19331
0.193315
0.19309
0.192893
0.0673294
0.0756061
0.0743782
0.0741187
0.00655466
0.00704176
0.0149501
0.0153341
0.0551589
0.0568265
0.0568265
0.0512026
0.0168123
0.0168123
0.0999312
0.159358
0.10506
0.192886
0.192893
2.01326e-05
3.96259e-05
8.52437e-05
0.000177737
0.000360986
0.00785224
0.0197631
0.0197903
0.0182711
0.0263977
0.0567793
0.0564557
0.0524861
0.0163909
0.0163445
0.0283587
0.0258333
0.15519
0.192769
7.68557e-05
0.000251868
0.000617943
0.000777996
0.00204874
0.00335313
0.00322006
0.00109191
2.57519e-05
7.83673e-05
0.00202324
0.0250448
0.0408074
0.0237601
0.00155988
0.000615742
0.00615175
0.0787865
0.121446
4.2877e-05
3.86818e-07
5.27837e-07
1.29002e-06
2.5679e-06
2.94188e-06
3.01187e-06
2.94186e-06
2.15275e-05
7.81214e-05
8.97783e-05
0.000177855
0.00443315
0.0114835
0.00101856
0.000255289
0.0042357
7.67483e-05
7.42639e-05
9.62142e-08
1.52771e-07
4.64152e-06
1.46057e-05
1.39388e-05
3.01188e-06
2.94296e-06
3.37135e-06
0.000179416
0.000817486
0.000817486
0.000550141
7.89997e-05
0.000183878
0.000222652
0.00017792
0.000614875
0.000103937
7.05463e-05
2.0703e-08
9.21694e-08
1.61286e-05
3.26305e-05
3.27553e-05
2.08375e-05
3.01603e-06
3.03289e-06
0.000250275
0.000774937
0.0005975
7.37734e-05
3.04284e-05
5.19768e-05
9.97795e-05
0.00015268
0.000104272
0.000101249
6.83622e-05
9.45895e-09
3.29847e-09
8.42025e-06
3.2763e-05
3.27582e-05
2.97442e-05
3.03482e-06
3.03289e-06
3.03299e-06
3.89133e-06
2.00225e-05
1.95435e-05
2.4923e-05
3.08003e-05
0.000103641
0.000284432
0.000178199
0.000188077
6.74949e-05
1.94427e-09
7.50229e-09
9.87745e-08
1.57822e-05
3.27553e-05
2.82169e-05
3.04711e-06
3.03164e-06
3.05118e-06
3.12264e-06
3.55157e-06
1.14106e-05
0.000177865
0.000290931
0.000291943
0.000291139
0.000275202
6.74948e-05
6.74949e-05
6.02555e-10
3.62504e-09
3.34381e-08
4.97329e-06
3.31416e-05
3.37591e-05
2.01588e-05
3.05118e-06
3.13113e-06
3.56024e-06
7.65216e-05
0.000290711
0.000292748
0.000292748
0.000292748
0.000206873
8.54153e-05
8.11494e-05
0.000145296
8.93589e-11
2.32649e-10
1.2571e-08
1.0608e-06
2.52955e-05
3.37233e-05
3.37705e-05
2.63663e-05
4.28366e-06
4.87119e-06
8.25988e-05
0.000287319
0.000290311
0.000264388
3.30903e-05
1.52781e-05
0.000121838
0.000186169
0.000185907
1.62861e-11
5.07793e-12
-3.79736e-10
5.76935e-09
4.43481e-06
3.36051e-05
3.36938e-05
3.35992e-05
3.21443e-05
3.25062e-06
1.83732e-05
6.42521e-05
7.43748e-05
1.56139e-05
4.89265e-07
6.64876e-07
7.78207e-05
0.00018642
0.00018627
1.42373e-11
1.08095e-11
-6.64183e-11
-5.61046e-11
9.74169e-11
8.63741e-12
2.12062e-05
3.36063e-05
2.73564e-05
2.91845e-06
2.19882e-06
1.66883e-06
1.0671e-06
4.88118e-07
4.07311e-07
4.91693e-07
6.643e-07
6.77081e-05
0.000185907
1.21651e-11
1.05082e-11
1.06703e-11
1.26279e-11
1.56227e-11
1.73483e-10
1.52587e-09
1.43414e-07
2.13047e-06
3.69388e-06
2.70142e-06
1.60455e-06
1.47832e-06
1.30413e-06
3.47256e-07
1.51494e-07
6.13295e-06
0.000153505
0.000185591
7.49599e-12
7.69601e-12
1.10816e-11
1.38712e-11
2.24841e-11
1.12606e-10
8.20518e-08
6.55502e-07
1.04658e-06
7.90807e-07
7.69045e-07
2.03199e-06
2.05778e-06
2.0754e-06
4.58287e-07
3.87909e-09
1.14603e-05
0.000181056
0.000184768
4.38295e-12
4.63597e-12
5.95048e-12
1.14767e-11
1.04097e-11
5.42441e-12
5.6335e-08
9.83448e-07
1.11073e-06
6.7499e-07
2.4297e-07
4.26707e-07
8.93615e-07
4.21613e-07
2.38674e-09
2.38677e-09
5.86331e-07
7.91179e-05
0.000171797
2.33774e-12
2.64219e-12
3.64977e-12
6.01849e-12
1.06307e-11
1.21431e-11
1.47003e-11
5.38754e-08
8.93776e-07
9.68565e-07
2.42651e-07
6.74056e-09
1.49161e-09
1.44138e-09
2.45838e-09
5.98169e-09
1.85422e-09
2.0316e-09
2.9963e-05
1.09754e-12
1.38236e-12
2.16157e-12
3.96507e-12
7.73007e-12
1.3912e-11
1.39428e-11
4.41161e-09
1.67203e-07
3.4795e-07
2.94305e-07
1.50834e-07
1.3426e-08
1.36416e-09
8.13641e-09
6.90601e-09
1.7522e-09
1.9134e-09
2.52261e-05
4.57045e-13
6.97213e-13
1.32843e-12
2.82539e-12
5.95341e-12
1.13217e-11
1.82422e-11
1.93457e-11
2.75983e-09
1.37453e-07
2.19087e-07
6.93802e-08
1.34043e-09
1.28637e-09
8.12566e-09
4.37818e-09
1.58816e-09
5.71507e-05
0.000130117
2.01622e-13
4.12701e-13
9.78192e-13
2.35105e-12
5.21156e-12
1.0085e-11
1.70502e-11
1.91173e-11
2.03336e-11
9.50225e-09
7.37455e-08
7.50949e-08
1.64765e-08
3.28818e-10
5.26242e-09
1.34154e-09
1.12423e-09
0.000129612
0.000130117
1.36687e-13
3.51234e-13
9.30737e-13
2.33349e-12
5.21405e-12
1.00609e-11
1.79944e-11
3.07696e-11
3.84816e-11
4.19193e-11
9.93193e-11
2.82264e-09
6.85503e-10
3.26976e-10
9.08917e-10
7.34551e-10
7.53127e-10
0.000126017
0.000130117
1.43707e-13
3.89766e-13
1.04245e-12
2.57969e-12
5.65343e-12
1.07904e-11
1.87177e-11
3.26932e-11
5.93021e-11
9.1374e-11
1.1464e-10
2.3664e-10
3.28261e-10
5.12593e-10
7.12741e-10
7.16228e-10
7.32764e-10
7.59842e-05
0.00012989
1.74078e-13
4.7138e-13
1.2378e-12
2.97024e-12
6.29822e-12
1.1805e-11
2.01481e-11
3.34856e-11
5.75243e-11
9.6229e-11
1.41541e-10
2.67738e-10
3.09583e-10
7.44446e-10
7.51078e-10
7.33227e-10
7.50802e-10
7.38444e-05
0.000129201
2.12627e-13
5.74045e-13
1.48478e-12
3.47788e-12
7.15924e-12
1.30919e-11
2.20491e-11
3.604e-11
5.94804e-11
9.56382e-11
1.45824e-10
2.05349e-10
2.8251e-10
8.55782e-10
7.72045e-10
7.50287e-10
6.00277e-06
0.000115835
7.71302e-05
2.54361e-13
6.83333e-13
1.73482e-12
3.98405e-12
8.02985e-12
1.43515e-11
2.36113e-11
3.7493e-11
5.95857e-11
9.17561e-11
1.59587e-10
3.12686e-10
6.54174e-10
1.44849e-09
1.00869e-09
7.70807e-10
1.14279e-05
0.000117159
7.22913e-05
3.00282e-13
7.98623e-13
1.95965e-12
4.37083e-12
8.54234e-12
1.46311e-11
2.33607e-11
3.71199e-11
5.73571e-11
1.05227e-10
3.98213e-10
1.37767e-09
2.36967e-09
3.66154e-09
2.66013e-09
8.0057e-10
3.19295e-06
0.000118688
5.28158e-05
3.62575e-13
9.52149e-13
2.20067e-12
4.68412e-12
8.82634e-12
1.4605e-11
2.19041e-11
3.18442e-11
5.27471e-11
3.27261e-10
1.50612e-09
2.48299e-09
2.68582e-09
6.95354e-09
5.49805e-09
8.85737e-10
2.43454e-05
0.000119529
4.54133e-05
4.66883e-13
1.22715e-12
2.64399e-12
5.46334e-12
1.01716e-11
1.68679e-11
2.51887e-11
3.49644e-11
8.4154e-11
6.47301e-10
1.5696e-09
1.57576e-09
5.75182e-09
1.20271e-08
8.3742e-09
1.07872e-09
7.27082e-05
0.000119529
4.48605e-05
6.32659e-13
1.71097e-12
3.58011e-12
7.51137e-12
1.4228e-11
2.37768e-11
3.69636e-11
5.56152e-11
1.80332e-10
7.77544e-10
1.0084e-09
1.3878e-09
9.01171e-09
1.2024e-08
7.27821e-09
1.38444e-09
8.60404e-05
0.000119529
2.5352e-05
8.23508e-13
2.33387e-12
5.14686e-12
1.10475e-11
2.04193e-11
3.17421e-11
4.65379e-11
7.64459e-11
2.68192e-10
8.55001e-10
1.40448e-09
3.21217e-09
5.27653e-09
4.09284e-09
1.69194e-09
1.62763e-09
5.26249e-05
6.24437e-05
4.76392e-06
9.28614e-13
2.77534e-12
6.90531e-12
1.60083e-11
2.95527e-11
3.99419e-11
4.3818e-11
1.6253e-10
1.39475e-09
2.87476e-09
2.96201e-09
2.82371e-09
1.75321e-09
1.70245e-09
1.68204e-09
1.67151e-09
9.43683e-06
1.17778e-05
2.6873e-06
8.53298e-13
2.71455e-12
7.72627e-12
2.08685e-11
4.48101e-11
6.13225e-11
7.07206e-11
2.213e-10
1.64546e-09
2.87328e-09
2.12693e-09
1.10132e-09
3.24197e-08
4.18548e-07
9.82675e-07
2.73787e-06
1.29092e-06
2.62851e-08
7.25846e-08
6.2859e-13
2.18063e-12
7.13109e-12
2.28571e-11
6.47023e-11
1.1968e-10
1.57486e-10
2.21655e-10
7.18865e-10
8.83079e-10
3.14654e-10
3.37712e-10
1.87895e-06
3.63926e-06
3.64454e-06
3.60546e-06
6.54758e-07
1.88934e-09
3.03414e-10
3.54728e-13
1.41074e-12
5.48431e-12
2.0309e-11
6.90211e-11
1.73587e-10
2.41125e-10
2.65391e-10
2.70516e-10
2.6073e-10
2.59442e-10
5.72428e-07
3.63815e-06
3.64465e-06
3.64434e-06
3.20531e-06
2.26959e-07
3.03332e-10
1.69429e-10
1.35965e-13
6.87194e-13
3.18286e-12
1.32168e-11
5.44123e-11
1.33819e-10
3.14721e-10
2.98469e-10
2.63928e-10
2.59381e-10
2.59442e-10
4.97707e-07
1.51524e-06
2.17869e-06
2.07939e-06
8.09138e-07
3.78101e-08
1.68924e-10
1.50478e-10
3.30236e-14
2.44367e-13
1.53015e-12
6.89586e-12
3.13718e-11
7.47091e-11
1.74204e-10
5.35356e-10
4.66672e-10
2.59651e-10
2.5045e-08
3.26428e-08
1.70083e-09
1.1902e-08
8.24513e-09
1.3322e-09
5.84714e-09
5.58622e-10
1.49502e-10
4.78613e-15
6.10386e-14
5.41135e-13
3.09172e-12
1.28061e-11
2.79495e-11
1.69968e-10
1.00593e-09
1.46786e-09
1.74871e-09
4.89088e-09
8.31692e-10
5.51134e-10
4.38746e-10
3.28728e-10
2.01737e-10
1.25349e-10
1.02764e-10
4.56522e-08
3.58778e-16
9.09426e-15
1.1754e-13
9.01299e-13
4.66487e-12
1.37558e-11
1.01044e-10
4.15971e-10
1.08599e-09
1.3323e-09
1.05144e-09
9.67863e-10
5.16829e-10
3.56572e-10
2.31229e-10
1.35061e-10
1.06087e-10
1.02325e-10
1.42282e-07
)
;

boundaryField
{
    leftWall
    {
        type            zeroGradient;
    }
    rightWall
    {
        type            zeroGradient;
    }
    lowerWall
    {
        type            zeroGradient;
    }
    atmosphere
    {
        type            inletOutlet;
        inletValue      uniform 0;
        value           nonuniform List<scalar> 
46
(
0
9.77737e-25
7.10834e-25
3.48189e-25
1.27435e-25
3.42168e-26
6.29396e-27
0
0
0
0
0
0
0
0
0
0
0
0
0
0
0
0
0
0
0
0
0
0
0
0
0
0
0
0
1.08599e-09
1.3323e-09
1.05144e-09
9.67863e-10
5.16829e-10
3.56572e-10
2.31229e-10
1.35061e-10
1.06087e-10
1.02325e-10
1.42282e-07
)
;
    }
    defaultFaces
    {
        type            empty;
    }
}


// ************************************************************************* //
