/*--------------------------------*- C++ -*----------------------------------*\
| =========                 |                                                 |
| \\      /  F ield         | OpenFOAM: The Open Source CFD Toolbox           |
|  \\    /   O peration     | Version:  2.3.0                                 |
|   \\  /    A nd           | Web:      www.OpenFOAM.org                      |
|    \\/     M anipulation  |                                                 |
\*---------------------------------------------------------------------------*/
FoamFile
{
    version     2.0;
    format      ascii;
    class       volScalarField;
    location    "1.2";
    object      nut;
}
// * * * * * * * * * * * * * * * * * * * * * * * * * * * * * * * * * * * * * //

dimensions      [0 2 -1 0 0 0 0];

internalField   nonuniform List<scalar> 
2268
(
4.62447e-05
4.64997e-05
5.62117e-05
6.47908e-05
7.29723e-05
8.06332e-05
8.74482e-05
9.35086e-05
9.86201e-05
0.000102576
0.000105417
0.00010729
0.000109374
0.000113373
0.000119282
0.000126452
0.000133979
0.000140337
0.000141739
0.000136208
0.000122245
9.69146e-05
6.21226e-05
9.953e-05
0.000384208
0.000551428
0.000670118
0.000769588
0.00085228
0.000916796
0.000962512
0.000990242
0.00100317
0.00100527
0.00100061
0.000995492
0.00101507
0.00107388
0.00117321
0.00128022
0.0013354
0.00133775
0.00126226
0.0010849
0.000758493
0.000181544
0.000117811
0.000647288
0.00101712
0.00127897
0.00148917
0.00166051
0.0017944
0.00189161
0.00195221
0.0019799
0.00198099
0.00196746
0.00196557
0.00201228
0.00212781
0.0022979
0.00246236
0.0025475
0.00251737
0.00232321
0.0019244
0.00126365
0.000201815
0.000132622
0.000852888
0.00139245
0.00177008
0.00206412
0.0023031
0.00249501
0.00264182
0.00274174
0.00279583
0.00280964
0.00280183
0.00281078
0.00287845
0.00302373
0.0032204
0.00339874
0.00348162
0.00340451
0.00309637
0.00249558
0.00155434
0.000220747
0.00014531
0.00102762
0.00170819
0.00217552
0.00253082
0.00281959
0.00305733
0.0032474
0.00338643
0.00347208
0.00350747
0.0035147
0.00353669
0.00361767
0.00377455
0.0039761
0.00415117
0.00422053
0.00409956
0.00369569
0.00292126
0.00173419
0.000246203
0.000156777
0.00118048
0.00198013
0.00251865
0.00292122
0.00324891
0.00352382
0.00375088
0.00392588
0.00404346
0.00410388
0.00412974
0.00416481
0.00425434
0.00441459
0.00461391
0.00478298
0.00484174
0.00469087
0.00421789
0.00330048
0.00188802
0.000284328
0.000167819
0.00131636
0.00221816
0.00281582
0.00325812
0.00361887
0.0039253
0.00418417
0.00439102
0.00453826
0.0046236
0.0046684
0.004716
0.00481207
0.00497348
0.00517048
0.00533697
0.0053948
0.00523436
0.00472861
0.00371341
0.00208195
0.000360219
0.000179342
0.00143978
0.00243066
0.00307999
0.00355834
0.00394901
0.00428294
0.00456939
0.00480382
0.00497724
0.00508547
0.00514813
0.00520782
0.00531033
0.0054736
0.00567051
0.00583909
0.00590775
0.00576054
0.00526889
0.0042437
0.00245325
0.000466006
6.82827e-05
7.91062e-05
8.95131e-05
0.000112468
0.000140815
0.000165222
0.00018289
0.000184635
0.000171642
0.000157679
0.000149906
0.000146602
0.000145549
0.000141704
0.000132982
0.000121218
0.000106402
8.7499e-05
7.96012e-05
0.000220622
0.000540898
0.000617945
0.0007346
0.00103236
0.00144526
0.00165148
0.00170327
0.0015941
0.00144396
0.00138613
0.00139281
0.00138033
0.00133651
0.00123388
0.00108348
0.000910919
0.000693935
0.000195164
0.000252724
0.000922144
0.00116539
0.00142494
0.00200658
0.00273887
0.00313436
0.00324149
0.00306828
0.00280828
0.00269791
0.00269052
0.00265619
0.00255768
0.00235666
0.00205983
0.00169843
0.00121733
0.000234171
0.000285818
0.00125695
0.0016937
0.00207969
0.00287816
0.00379126
0.00431143
0.00446427
0.00427988
0.00397016
0.00381907
0.00378002
0.00370805
0.00355259
0.00326682
0.00284849
0.0023211
0.00159759
0.000265693
0.000328272
0.00155872
0.00220853
0.00270841
0.00364231
0.00464585
0.00523948
0.00543435
0.005266
0.0049508
0.00477018
0.00469188
0.00457353
0.0043622
0.00400081
0.00347928
0.00280897
0.00187425
0.000293681
0.000387114
0.00183929
0.0027208
0.00333055
0.00432761
0.00534817
0.00598129
0.00621258
0.00607433
0.00577693
0.0055808
0.0054618
0.00529196
0.00502614
0.00459709
0.00398458
0.00318912
0.00207141
0.000320876
0.000462806
0.00213476
0.00325718
0.00396392
0.0049588
0.00594402
0.00658717
0.00684721
0.00674306
0.00647066
0.00627076
0.00611635
0.00589172
0.00557644
0.00508576
0.00438939
0.00348059
0.002206
0.000348973
0.000550055
0.00256154
0.00386756
0.00462491
0.00555945
0.00646729
0.00709622
0.0073755
0.00730163
0.00705294
0.00685521
0.00667198
0.00639565
0.00603572
0.00548986
0.00470881
0.0036902
0.00229154
0.000364101
0.000193618
0.00161283
0.00272931
0.00345515
0.00398909
0.00442513
0.00479916
0.00512227
0.00539251
0.00560011
0.00573931
0.0058275
0.00590601
0.00602014
0.0061889
0.00638935
0.00656448
0.00664392
0.00653145
0.00612455
0.00530386
0.00398707
0.00225138
0.00021838
0.0018465
0.00310898
0.00392691
0.00452843
0.0050146
0.00542577
0.00577668
0.00606984
0.00629738
0.00645545
0.00656291
0.00666238
0.006799
0.00699243
0.00722355
0.00743986
0.00756966
0.0075555
0.00733881
0.00688594
0.00619287
0.00525725
0.000249203
0.00211006
0.0035157
0.00442214
0.00508218
0.00560325
0.00603243
0.00639222
0.00669055
0.00692359
0.00709203
0.00721771
0.0073422
0.00750486
0.00772154
0.00797458
0.00822071
0.00840637
0.00848963
0.00842182
0.00821986
0.00790483
0.00748592
0.00028661
0.00242209
0.00397572
0.0049661
0.00567176
0.00621011
0.00663802
0.00698891
0.00727821
0.007508
0.00768396
0.00783077
0.00798436
0.00817113
0.00839838
0.00865195
0.00890597
0.00914563
0.00932425
0.00934075
0.00926778
0.0091278
0.00892778
0.000329191
0.00277759
0.0044867
0.00555657
0.00629439
0.00683385
0.00724482
0.00757296
0.00784375
0.00806724
0.00825142
0.00842294
0.00860581
0.0088111
0.00903192
0.00925627
0.00948162
0.00971212
0.00993211
0.0100897
0.0100986
0.010018
0.00990018
0.000378791
0.00312832
0.00502087
0.00617116
0.00692969
0.00745871
0.00784417
0.00814163
0.00838522
0.00859611
0.00878893
0.00898611
0.0091948
0.00941556
0.00961871
0.00978492
0.00994739
0.0101353
0.0103338
0.0105492
0.010703
0.0106844
0.0105761
0.000431273
0.00351514
0.00558164
0.0067896
0.00754325
0.00804835
0.00840842
0.00867703
0.0088948
0.00908629
0.00927368
0.00948055
0.00969979
0.00990666
0.0100743
0.0102028
0.0103272
0.010477
0.0106576
0.0108646
0.0110608
0.0111161
0.0110304
0.00049473
0.00397097
0.00613159
0.00732149
0.00805065
0.00853395
0.00886973
0.00911427
0.00931327
0.00949257
0.00966663
0.00985927
0.0100586
0.010224
0.0103585
0.0104748
0.0105942
0.0107339
0.0108999
0.0111
0.0113062
0.0113778
0.0113222
0.000605752
0.00419077
0.00642255
0.00765524
0.00840614
0.00888379
0.00920231
0.00943
0.00961506
0.0097861
0.00996093
0.0101452
0.0103072
0.0104285
0.0105368
0.0106455
0.0107618
0.0108961
0.0110521
0.0112409
0.0114341
0.0115089
0.011483
0.000598371
0.00408684
0.00645243
0.0078226
0.00862481
0.00911155
0.00941995
0.00963496
0.00981238
0.009982
0.0101617
0.0103427
0.0104674
0.010543
0.0106267
0.010721
0.0108285
0.0109527
0.0111052
0.0113004
0.0114772
0.0115525
0.0115437
0.000593159
0.00395263
0.00637033
0.00785772
0.00872728
0.00922373
0.0095217
0.00972648
0.00989569
0.0100603
0.0102405
0.0104141
0.0105094
0.0105451
0.0106065
0.0106813
0.0107698
0.0108878
0.0110441
0.011228
0.0113821
0.0114687
0.0114987
0.000578202
0.00372441
0.00614974
0.00774274
0.00865275
0.00916109
0.00947363
0.00968359
0.00984519
0.00998839
0.010127
0.0102444
0.0103185
0.0103666
0.0104255
0.0105013
0.0105977
0.0107222
0.0108726
0.0110324
0.0111746
0.0112901
0.0113756
0.000555292
0.0033057
0.00576686
0.00739472
0.00833117
0.00889488
0.00925016
0.00948565
0.00965285
0.00977981
0.00988185
0.0099666
0.0100374
0.0100996
0.010167
0.0102482
0.0103494
0.010474
0.0106177
0.0107715
0.0109279
0.011083
0.0112234
0.000526168
0.00267778
0.00510381
0.00680029
0.00782672
0.0084571
0.00885994
0.00912799
0.00931327
0.00944578
0.00954563
0.00962828
0.00970322
0.00977532
0.0098502
0.00993568
0.0100398
0.010167
0.0103162
0.0104857
0.0106744
0.0108753
0.011069
0.000487698
0.0022247
0.00435698
0.00607464
0.00718569
0.00788002
0.00833234
0.00863823
0.00885153
0.00900479
0.00912085
0.00921716
0.00930502
0.0093903
0.00947784
0.00957532
0.00969209
0.00983372
0.0100034
0.0102035
0.0104328
0.0106804
0.0109234
0.000443287
0.00191476
0.00375878
0.00534253
0.00646812
0.00721671
0.00771547
0.00805996
0.00830607
0.00848784
0.00862922
0.00874822
0.00885725
0.00896386
0.00907411
0.00919599
0.00933818
0.00950755
0.00970944
0.00994692
0.0102168
0.0105056
0.0107894
0.000397185
0.00171031
0.00331017
0.00472092
0.00578804
0.0065405
0.00706803
0.00744634
0.00772565
0.00793921
0.00811105
0.0082595
0.00839794
0.00853562
0.00867961
0.00883696
0.00901536
0.00922145
0.00946029
0.0097337
0.0100369
0.0103557
0.0106673
0.000353094
0.00156714
0.00297643
0.00422298
0.00520206
0.00592799
0.00646206
0.00686205
0.00716994
0.00741552
0.00762125
0.00780477
0.00797968
0.00815599
0.00834084
0.00853989
0.00875909
0.00900365
0.00927714
0.00957972
0.00990542
0.0102404
0.0105642
0.000312912
0.00145658
0.00272267
0.00383596
0.00472962
0.0054184
0.00594758
0.00636159
0.00669476
0.00697264
0.00721509
0.00743805
0.00765417
0.00787294
0.00810056
0.00834102
0.00859833
0.00887583
0.00917541
0.00949581
0.00983062
0.0101672
0.0104877
0.000277036
0.00136872
0.00253007
0.00354468
0.00437168
0.00502917
0.00555393
0.00598156
0.00634037
0.00665198
0.00693327
0.0071978
0.00745629
0.00771664
0.00798339
0.00825896
0.00854572
0.00884552
0.00915895
0.00948399
0.00981443
0.0101392
0.0104434
0.000245792
0.00130444
0.00239363
0.00334089
0.0041244
0.0047646
0.00529294
0.00573896
0.00612632
0.00647319
0.0067936
0.00709849
0.00739625
0.00769274
0.00799076
0.00829132
0.00859585
0.00890533
0.00921975
0.00953696
0.00985149
0.010154
0.0104323
0.000220045
0.0012651
0.00231178
0.0032193
0.00398145
0.00461985
0.00516182
0.00563218
0.00605081
0.0064329
0.0067899
0.00713043
0.0074607
0.00778474
0.00810397
0.00841828
0.00872877
0.00903617
0.00934043
0.0096398
0.00992986
0.0102031
0.0104498
0.000200465
0.00124674
0.00227776
0.00316989
0.00392986
0.00457992
0.00514394
0.00564287
0.00609342
0.00650829
0.00689687
0.0072659
0.00762004
0.00796195
0.00829222
0.00861001
0.00891646
0.00921245
0.00949828
0.00977288
0.0100331
0.0102734
0.0104861
0.000186606
0.00124091
0.00227778
0.00317461
0.00394758
0.00461927
0.00521074
0.00573986
0.00622079
0.00666429
0.00707822
0.00746809
0.00783751
0.00818841
0.00852096
0.00883404
0.00912905
0.0094072
0.00966929
0.00991516
0.010143
0.010349
0.0105278
0.000177083
0.00123973
0.00229571
0.00321109
0.00400716
0.00470635
0.00532757
0.0058863
0.00639474
0.00686221
0.00729553
0.00769946
0.00807704
0.00842986
0.00875807
0.00906066
0.00933937
0.00959584
0.00983146
0.010047
0.0102419
0.0104143
0.0105606
0.000170392
0.00123929
0.002319
0.00325942
0.00408299
0.00481147
0.00546197
0.00604809
0.00658055
0.00706758
0.00751528
0.00792794
0.00830837
0.0086581
0.00897746
0.00926593
0.00952562
0.00975861
0.0099669
0.0101521
0.010315
0.0104553
0.0105715
0.000165401
0.00123887
0.00234091
0.00330647
0.00415692
0.00491285
0.0055898
0.00619983
0.0067524
0.00725488
0.00771279
0.00813015
0.00850967
0.00885299
0.00916069
0.00943309
0.0096726
0.00988177
0.0100632
0.0102192
0.0103519
0.0104623
0.0105507
0.000161406
0.00123851
0.00235885
0.00334582
0.00421916
0.0049982
0.00569708
0.00632652
0.00689492
0.00740883
0.00787332
0.00829215
0.00866804
0.00900293
0.00929727
0.00955275
0.00977201
0.00995798
0.0101138
0.0102426
0.0103473
0.0104304
0.0104935
0.000158021
0.00123799
0.00237216
0.00337549
0.00426632
0.00506293
0.00577833
0.00642213
0.00700178
0.00752315
0.00799083
0.0084084
0.00877858
0.00910347
0.00938386
0.00962238
0.00982199
0.009986
0.010118
0.0102219
0.0103013
0.0103598
0.0104002
0.00015508
0.00123711
0.00238116
0.00339595
0.00429884
0.00510742
0.00583385
0.00648691
0.00707331
0.0075983
0.00806609
0.00848003
0.00884284
0.00915664
0.00942304
0.0096451
0.00982613
0.00996982
0.0100803
0.0101618
0.0102188
0.0102555
0.0102759
0.000152558
0.0012362
0.00238696
0.00340907
0.00431926
0.00513474
0.00586723
0.00652495
0.00711405
0.00763931
0.00810456
0.00851295
0.00886724
0.00916932
0.00942194
0.00962832
0.00979213
0.00991743
0.0100087
0.0100707
0.0101083
0.0101264
0.0101296
0.000150508
0.00123614
0.0023914
0.00341752
0.00433108
0.00514931
0.0058838
0.00654247
0.00713108
0.00765399
0.00811466
0.00851606
0.00886078
0.00915116
0.00939039
0.00958205
0.00973017
0.00983916
0.00991384
0.0099593
0.00998074
0.00998336
0.00997214
0.000149007
0.00123802
0.00239648
0.00342413
0.00433807
0.00515596
0.00588956
0.00654668
0.00713272
0.00765158
0.00810637
0.00849981
0.00883433
0.00911296
0.00933923
0.00951714
0.00965112
0.00974596
0.00980673
0.00983871
0.00984726
0.00983768
0.00981507
0.000148103
0.00124257
0.00240369
0.00343118
0.00434352
0.00515927
0.00589054
0.00654504
0.00712772
0.00764187
0.00809003
0.00847465
0.00879849
0.00906511
0.00927862
0.00944359
0.00956492
0.00964773
0.00969728
0.0097189
0.0097179
0.00969948
0.00966862
0.000147795
0.00124982
0.00241341
0.00343985
0.00434982
0.00516311
0.00589232
0.00654488
0.00712486
0.00763447
0.00807552
0.00845035
0.00876244
0.00901623
0.00921673
0.00936925
0.0094792
0.00955198
0.00959293
0.00960728
0.00960011
0.00957629
0.00954047
0.000148017
0.00125895
0.00242481
0.00345008
0.00435824
0.00517057
0.00590009
0.00655348
0.00713295
0.00763876
0.00807175
0.0084349
0.00873311
0.00897235
0.00915891
0.00929899
0.00939851
0.00946302
0.00949781
0.00950784
0.00949779
0.00947207
0.00943475
0.000148645
0.0012685
0.0024361
0.00346082
0.00436921
0.00518425
0.00591925
0.00657905
0.00716184
0.00766427
0.00808677
0.00843445
0.00871502
0.00893682
0.00910773
0.00923482
0.00932437
0.00938196
0.00941261
0.00942091
0.00941102
0.00938674
0.00935147
0.000149507
0.00127648
0.00244495
0.00347055
0.00438291
0.00520711
0.00595694
0.00663315
0.00722456
0.00772207
0.00812836
0.00845389
0.0087111
0.00891131
0.00906397
0.00917679
0.00925614
0.00930741
0.00933524
0.0093437
0.00933639
0.00931641
0.00928648
0.000150413
0.00128068
0.00244901
0.0034779
0.00439978
0.00524357
0.00602494
0.00673596
0.00734151
0.00782708
0.00820584
0.00849882
0.00872471
0.00889773
0.0090284
0.00912461
0.00919247
0.00923694
0.00926214
0.00927155
0.00926813
0.00925434
0.0092322
0.000152401
0.00127735
0.002445
0.00348162
0.00442076
0.00530019
0.0061439
0.00692791
0.0075481
0.00800253
0.00833379
0.00857874
0.00876222
0.00890025
0.00900343
0.00907914
0.00913281
0.00916864
0.00919001
0.00919972
0.00920004
0.00919279
0.0091794
0.000193506
0.00122611
0.00241407
0.00347764
0.00444514
0.00538178
0.00634269
0.00729986
0.00791002
0.00828752
0.00853566
0.00870832
0.00883315
0.00892514
0.00899314
0.00904285
0.00907826
0.00910235
0.00911744
0.00912542
0.00912776
0.00912565
0.00911994
0.000474002
0.00106168
0.00226762
0.00345246
0.00446452
0.00546911
0.00661159
0.00809861
0.00854539
0.00873143
0.00883275
0.00889787
0.00894343
0.00897655
0.0090009
0.00901871
0.0090315
0.00904036
0.00904615
0.00904954
0.00905109
0.00905121
0.0090502
0.000517536
0.000495129
0.00049387
0.000511006
0.00435199
0.00422368
0.00424707
0.00440444
0.00718173
0.00708765
0.00708422
0.00715652
0.00878481
0.00872502
0.00870373
0.00871157
0.00981202
0.00976444
0.00973272
0.00971699
0.0105085
0.0104664
0.0104311
0.010406
0.010972
0.0109346
0.0108996
0.0108716
0.0112716
0.0112385
0.0112055
0.0111743
0.011444
0.011417
0.0113876
0.011356
0.011517
0.0114966
0.0114716
0.0114416
0.0114997
0.0114934
0.0114794
0.0114574
0.0114161
0.0114317
0.0114365
0.0114303
0.0113049
0.0113456
0.0113736
0.0113878
0.01119
0.0112558
0.0113077
0.0113439
0.0110798
0.0111681
0.0112419
0.0112987
0.0109739
0.0110805
0.0111721
0.0112461
0.0108713
0.0109905
0.0110946
0.0111812
0.010776
0.0109008
0.011011
0.0111044
0.0106961
0.0108192
0.0109283
0.0110218
0.010639
0.0107542
0.0108561
0.0109435
0.0106086
0.0107115
0.0108017
0.0108787
0.0106032
0.0106914
0.0107677
0.0108317
0.0106155
0.0106884
0.0107504
0.0108011
0.010634
0.0106925
0.0107409
0.0107792
0.0106454
0.0106907
0.0107271
0.0107546
0.0106367
0.0106704
0.0106964
0.0107149
0.0105984
0.0106217
0.0106387
0.0106496
0.0105253
0.0105393
0.0105484
0.0105526
0.0104177
0.0104233
0.0104252
0.0104235
0.0102807
0.0102787
0.0102741
0.0102671
0.0101231
0.0101146
0.0101042
0.0100922
0.00995617
0.00994205
0.00992659
0.00991019
0.00979142
0.00977277
0.00975315
0.00973297
0.00963924
0.00961725
0.00959445
0.00957127
0.00950754
0.00948355
0.00945874
0.00943354
0.00940073
0.00937626
0.00935087
0.00932492
0.00931905
0.00929585
0.00927155
0.00924649
0.00925838
0.00923823
0.0092169
0.0091946
0.00921069
0.00919517
0.00917849
0.00916081
0.00916566
0.00915562
0.00914466
0.00913286
0.00911348
0.00910867
0.00910333
0.00909749
0.00904877
0.00904767
0.00904643
0.00904505
0.00207721
0.00397509
0.00502401
0.00571592
0.00647502
0.00718819
0.00773973
0.00803283
0.00801548
0.0078205
0.00762745
0.00739661
0.00705806
0.00663308
0.0059853
0.00507264
0.00390769
0.00237998
0.000350954
0.00525506
0.00612107
0.00666676
0.00712808
0.00763118
0.00806487
0.00846282
0.00872562
0.00871309
0.00854433
0.00834748
0.00806815
0.00767429
0.00712079
0.00635249
0.00537131
0.00403125
0.00224237
0.000347097
0.00738509
0.00772067
0.00802419
0.0083229
0.00860238
0.00882527
0.00907171
0.00926827
0.00920383
0.0090264
0.00884043
0.0085412
0.00811267
0.00746949
0.00667463
0.00567071
0.00421754
0.00225397
0.00035474
0.00876465
0.00890099
0.00905659
0.00920654
0.00933185
0.00943519
0.00954771
0.00962596
0.00951908
0.00934649
0.00913874
0.00888638
0.00849649
0.00780887
0.00703255
0.0060114
0.0045324
0.00249942
0.000374294
0.00971736
0.00976453
0.00981971
0.00986107
0.00988123
0.00989006
0.00989377
0.00984819
0.00972709
0.00954866
0.00932588
0.00908838
0.00875509
0.00812382
0.00737419
0.00634665
0.00484526
0.00275325
0.000394085
0.0103849
0.0103856
0.010375
0.0103349
0.0102701
0.0101982
0.0101192
0.0100045
0.00984676
0.00964593
0.00940718
0.00914202
0.00881625
0.00830729
0.0076276
0.00660159
0.00503316
0.00282904
0.000400241
0.010841
0.0108137
0.0107536
0.0106423
0.0105103
0.0103718
0.0102243
0.0100543
0.0098539
0.00962353
0.009366
0.00908609
0.00876346
0.00833776
0.00772756
0.00672437
0.00503895
0.00274798
0.000400287
0.0111269
0.0110591
0.0109563
0.0108043
0.0106201
0.010416
0.0102035
0.00998061
0.00973474
0.0094676
0.0091851
0.00889203
0.00857916
0.0081902
0.0076043
0.00666588
0.00500139
0.00276429
0.000412258
0.0113015
0.0112037
0.0110596
0.0108619
0.0106222
0.0103523
0.0100694
0.00978377
0.00948583
0.00917693
0.00886295
0.00855321
0.00823647
0.00785311
0.00727717
0.00639623
0.0050262
0.0031123
0.000445724
0.0113853
0.0112677
0.0110914
0.0108519
0.0105573
0.0102208
0.00986221
0.00949776
0.00913168
0.00876946
0.00841833
0.00808302
0.00775311
0.00738066
0.00685688
0.00608194
0.00493707
0.00325623
0.00047871
0.0114102
0.0112877
0.0110907
0.0108155
0.0104697
0.0100682
0.00963248
0.0091833
0.00873364
0.00829629
0.00788747
0.00751186
0.00715625
0.00678727
0.0063207
0.00563513
0.00459847
0.00302806
0.000446009
0.0114046
0.0112921
0.0110883
0.0107894
0.0104029
0.00994459
0.0094364
0.00890224
0.00836304
0.00783876
0.00735251
0.00691292
0.00650583
0.00610498
0.0056396
0.00499512
0.00400824
0.00252228
0.000374075
0.0113916
0.0113016
0.0111049
0.0107983
0.0103884
0.00989023
0.00932471
0.0087172
0.00809504
0.00748567
0.00691493
0.0063915
0.00590479
0.00542919
0.00490348
0.00422589
0.00326649
0.00190563
0.000314847
0.0113803
0.0113214
0.0111447
0.0108478
0.0104362
0.00992289
0.00932699
0.00867374
0.00799331
0.00731766
0.00667146
0.00606458
0.00548984
0.00492186
0.0043105
0.00358383
0.00266088
0.00152022
0.000301578
0.011367
0.0113436
0.0111968
0.0109252
0.0105333
0.0100319
0.00943767
0.00877453
0.00807225
0.00736352
0.00667124
0.0060084
0.00537197
0.00474154
0.0040818
0.0033476
0.00249488
0.00145884
0.000309007
0.011342
0.0113542
0.011243
0.0110078
0.0106526
0.010186
0.00962233
0.00898288
0.00829504
0.00758901
0.00688855
0.00621138
0.00555888
0.00491686
0.00425902
0.0035457
0.00270368
0.00159086
0.000323174
0.011298
0.0113418
0.0112667
0.0110732
0.0107648
0.0103484
0.0098357
0.00924474
0.00859957
0.0079253
0.00724869
0.00659061
0.00595632
0.00533449
0.00469761
0.00399422
0.00308978
0.00182604
0.000337425
0.0112342
0.0113019
0.011259
0.0111068
0.0108483
0.0104889
0.010038
0.00950987
0.00892436
0.00830211
0.00767037
0.00705059
0.00644953
0.00585534
0.00523434
0.00450174
0.00351781
0.00209361
0.000349435
0.0111548
0.0112387
0.01122
0.0111039
0.0108926
0.0105902
0.0102035
0.00974343
0.00922534
0.00866615
0.00809069
0.00751826
0.0069541
0.00638269
0.00575985
0.00498206
0.00391284
0.00233828
0.000359081
0.0110694
0.0111577
0.0111577
0.0110694
0.0108985
0.0106477
0.0103219
0.00992851
0.00947854
0.00898581
0.00847072
0.00794817
0.00741931
0.00686352
0.00621798
0.00538543
0.00422072
0.00252236
0.000367259
0.0109898
0.0110713
0.0110787
0.0110126
0.0108749
0.0106667
0.0103947
0.0100628
0.0096764
0.00924796
0.00879187
0.00831689
0.00781777
0.00726545
0.00658831
0.00569133
0.00443858
0.00262469
0.000371968
0.0109235
0.0109905
0.0109962
0.0109419
0.0108288
0.0106577
0.0104312
0.0101517
0.00982187
0.00945185
0.00904949
0.00861629
0.00813997
0.00758286
0.00687616
0.00592571
0.00459561
0.00268582
0.000372854
0.0108722
0.0109211
0.0109194
0.0108695
0.0107725
0.010629
0.0104397
0.0102036
0.00992322
0.00960361
0.0092474
0.00884971
0.00839108
0.0078279
0.00709533
0.00610057
0.00471035
0.00272895
0.000373104
0.010831
0.0108621
0.0108511
0.0108014
0.0107146
0.010591
0.0104299
0.0102289
0.00998907
0.00971112
0.00939249
0.00902242
0.00857589
0.00800777
0.00725501
0.0062274
0.004795
0.00276393
0.000373114
0.0107899
0.0108059
0.010787
0.0107366
0.0106569
0.0105481
0.0104077
0.0102342
0.0100262
0.00978083
0.00949096
0.00914115
0.00870278
0.00813086
0.00736388
0.00631435
0.00485473
0.00279105
0.000372365
0.0107368
0.0107415
0.0107175
0.0106679
0.0105945
0.0104971
0.0103732
0.0102211
0.0100375
0.0098165
0.00954757
0.009212
0.00877938
0.00820502
0.00742937
0.00636703
0.00489131
0.00280653
0.000371052
0.0106607
0.0106574
0.0106314
0.0105848
0.0105186
0.0104315
0.010322
0.0101872
0.0100223
0.00981937
0.00956548
0.00923999
0.0088119
0.00823719
0.00745796
0.00639026
0.00490724
0.00281091
0.00036899
0.0105547
0.0105457
0.0105199
0.0104781
0.0104201
0.0103441
0.010248
0.0101281
0.00997836
0.0097895
0.00954704
0.00922948
0.00880597
0.00823366
0.00745555
0.00638878
0.00490613
0.00280789
0.000365846
0.0104176
0.0104038
0.010379
0.0103429
0.0102938
0.0102294
0.0101465
0.0100405
0.00990421
0.00972741
0.00949489
0.00918493
0.00876724
0.00820025
0.00742747
0.00636683
0.00489079
0.0027988
0.000361977
0.0102538
0.0102353
0.0102111
0.0101802
0.0101399
0.0100869
0.0100169
0.00992406
0.00980056
0.00963528
0.00941269
0.00911119
0.0087012
0.00814226
0.00737828
0.00632782
0.00486292
0.00278384
0.000357932
0.0100721
0.0100484
0.0100236
0.00999635
0.00996349
0.00992062
0.00986242
0.00978212
0.00967094
0.00951721
0.00930516
0.00901341
0.00861297
0.00806424
0.00731185
0.00627472
0.00482471
0.00276505
0.000353415
0.00988373
0.0098543
0.00982734
0.00980155
0.00977365
0.00973858
0.00969023
0.00962096
0.00952125
0.00937887
0.00917783
0.00889685
0.00850739
0.00797047
0.00723146
0.00621003
0.00477873
0.00274311
0.000348257
0.00970081
0.0096651
0.00963427
0.00960733
0.00958124
0.00955075
0.00950929
0.00944867
0.00935875
0.00922681
0.00903654
0.00876665
0.00838881
0.00786449
0.00713969
0.00613519
0.00472576
0.00271834
0.000342012
0.00953427
0.00949208
0.00945587
0.00942513
0.00939735
0.00936762
0.00932934
0.00927407
0.00919129
0.00906789
0.00888721
0.00862778
0.00826128
0.0077494
0.0070386
0.00605068
0.0046637
0.00268802
0.000334664
0.00939295
0.00934462
0.00930208
0.00926531
0.00923244
0.00919947
0.00916011
0.00910612
0.00902692
0.00890915
0.00873587
0.00848531
0.00812896
0.00762847
0.00693053
0.00595769
0.00459082
0.00264669
0.000327876
0.00928255
0.00922944
0.00918066
0.0091366
0.00909606
0.00905607
0.00901126
0.00895396
0.00887396
0.008758
0.00858896
0.00834478
0.0079966
0.00750582
0.00681907
0.00585948
0.00451025
0.00259541
0.000322672
0.00920484
0.00914969
0.0090964
0.0090455
0.0089963
0.00894664
0.00889244
0.00882707
0.00874125
0.00862237
0.00845353
0.00821248
0.0078699
0.00738672
0.00670927
0.005761
0.00442725
0.00254009
0.000317831
0.00915682
0.00910389
0.00904989
0.00899505
0.00893871
0.00887907
0.00881294
0.00873513
0.00863793
0.00851057
0.00833708
0.00809526
0.00775531
0.00727741
0.00660733
0.00566863
0.00434868
0.00248742
0.000313255
0.00913022
0.00908488
0.00903588
0.00898275
0.00892424
0.008858
0.00878033
0.00868693
0.00857216
0.00842993
0.00824641
0.00799967
0.00765925
0.00718431
0.00651974
0.0055889
0.00428078
0.00244196
0.000309439
0.00911201
0.00907932
0.00904177
0.00899804
0.00894585
0.00888125
0.00879781
0.00868836
0.00854827
0.00838411
0.00818553
0.00793029
0.00758678
0.00711276
0.00645196
0.00552715
0.00422822
0.00240665
0.0003071
0.00908696
0.00906949
0.00904802
0.0090209
0.00898529
0.00893574
0.008861
0.00874038
0.00856198
0.00836922
0.00815302
0.00788794
0.00754014
0.00706575
0.00640717
0.00548632
0.0041931
0.00238246
0.000307021
0.00904255
0.00903816
0.00903232
0.00902424
0.00901238
0.008993
0.00895305
0.00883017
0.0085928
0.00837139
0.00814138
0.00786925
0.0075183
0.00704328
0.00638565
0.00546644
0.00417461
0.00236677
0.000309451
)
;

boundaryField
{
    leftWall
    {
        type            nutkWallFunction;
        Cmu             0.09;
        kappa           0.41;
        E               9.8;
        value           nonuniform List<scalar> 
50
(
8.61265e-06
1.17575e-05
1.38009e-05
1.54255e-05
1.67858e-05
1.79779e-05
1.90782e-05
2.01768e-05
2.15294e-05
2.36784e-05
2.62856e-05
2.95235e-05
3.34447e-05
3.8245e-05
4.33607e-05
4.98487e-05
6.74786e-05
7.02726e-05
7.01873e-05
6.78687e-05
6.4215e-05
5.94578e-05
5.42096e-05
4.86742e-05
4.3167e-05
3.79072e-05
3.30096e-05
2.85598e-05
2.46907e-05
2.15535e-05
1.92045e-05
1.75456e-05
1.63879e-05
1.55484e-05
1.48968e-05
1.43542e-05
1.38802e-05
1.34608e-05
1.30988e-05
1.28057e-05
1.25944e-05
1.24729e-05
1.24416e-05
1.24912e-05
1.26038e-05
1.27539e-05
1.29111e-05
1.31115e-05
1.70614e-05
4.61915e-05
)
;
    }
    rightWall
    {
        type            nutkWallFunction;
        Cmu             0.09;
        kappa           0.41;
        E               9.8;
        value           nonuniform List<scalar> 
50
(
1.53284e-05
2.14137e-05
2.52549e-05
2.85366e-05
3.16795e-05
3.49832e-05
3.82775e-05
3.96474e-05
3.90982e-05
3.97232e-05
4.11351e-05
4.29484e-05
4.46482e-05
4.4971e-05
4.42584e-05
4.40621e-05
5.1002e-05
5.43473e-05
5.0494e-05
4.22556e-05
3.69131e-05
3.62107e-05
3.74269e-05
3.92013e-05
4.0979e-05
4.24727e-05
4.36471e-05
4.4581e-05
4.47283e-05
4.49238e-05
4.53496e-05
4.52979e-05
4.51783e-05
4.49848e-05
4.46882e-05
4.40583e-05
4.35242e-05
4.29041e-05
4.22698e-05
4.15654e-05
4.06054e-05
3.94766e-05
3.85089e-05
3.77192e-05
3.70216e-05
3.63581e-05
3.57938e-05
3.54321e-05
3.53894e-05
3.57063e-05
)
;
    }
    lowerWall
    {
        type            nutkWallFunction;
        Cmu             0.09;
        kappa           0.41;
        E               9.8;
        value           nonuniform List<scalar> 
62
(
4.05145e-06
5.54106e-06
6.67998e-06
7.67103e-06
8.61622e-06
9.52374e-06
1.03664e-05
1.11282e-05
1.17657e-05
1.22574e-05
1.26038e-05
1.28388e-05
1.30809e-05
1.34545e-05
1.40043e-05
1.46969e-05
1.54599e-05
1.61582e-05
1.63465e-05
1.57912e-05
1.42446e-05
1.13592e-05
7.3362e-06
7.3362e-06
2.02959e-05
2.24448e-05
2.45493e-05
2.72516e-05
3.10776e-05
3.82627e-05
4.83179e-05
5.28855e-05
5.02523e-05
4.96592e-05
5.09139e-05
8.48398e-06
2.54849e-05
2.86834e-05
3.15664e-05
3.48024e-05
3.91895e-05
4.53888e-05
5.35499e-05
8.48398e-06
9.6729e-06
1.14648e-05
1.44552e-05
1.73093e-05
1.98599e-05
2.1471e-05
2.13666e-05
1.98881e-05
1.85152e-05
1.78214e-05
1.75163e-05
1.72403e-05
1.65693e-05
1.54663e-05
1.40679e-05
1.24259e-05
1.03163e-05
6.76994e-06
)
;
    }
    atmosphere
    {
        type            calculated;
        value           nonuniform List<scalar> 
46
(
0.009
0.009
0.00226762
0.00345246
0.00446452
0.00546911
0.00661159
0.009
0.009
0.009
0.009
0.009
0.009
0.009
0.009
0.009
0.009
0.009
0.009
0.009
0.009
0.009
0.009
0.009
0.009
0.009
0.009
0.009
0.009
0.009
0.009
0.009
0.009
0.009
0.00883017
0.0085928
0.00837139
0.00814138
0.00786925
0.0075183
0.00704328
0.00638565
0.00546644
0.00417461
0.00236677
0.000309451
)
;
    }
    defaultFaces
    {
        type            empty;
    }
}


// ************************************************************************* //
