/*--------------------------------*- C++ -*----------------------------------*\
| =========                 |                                                 |
| \\      /  F ield         | OpenFOAM: The Open Source CFD Toolbox           |
|  \\    /   O peration     | Version:  2.3.0                                 |
|   \\  /    A nd           | Web:      www.OpenFOAM.org                      |
|    \\/     M anipulation  |                                                 |
\*---------------------------------------------------------------------------*/
FoamFile
{
    version     2.0;
    format      ascii;
    class       volScalarField;
    location    "1.2";
    object      p;
}
// * * * * * * * * * * * * * * * * * * * * * * * * * * * * * * * * * * * * * //

dimensions      [1 -1 -2 0 0 0 0];

internalField   nonuniform List<scalar> 
2268
(
1141.96
1140.54
1136
1128.21
1117.44
1104.24
1089.1
1072.67
1055.5
1038.09
1020.62
1002.81
984.212
964.442
943.693
923.551
906.582
893.064
878.443
857.972
833.227
814.723
810.656
1082.47
1080.87
1076.85
1069.22
1058.5
1045.4
1030.54
1014.52
998.074
981.683
965.465
949.065
932.067
912.667
890.312
866.535
844.788
826.555
809.034
788.635
766.64
751.585
751.029
1023.37
1021.58
1017.92
1010.36
999.699
986.715
972.156
956.76
941.244
926.074
911.236
896.145
879.991
860.427
836.053
808.472
782.057
759.439
739.28
719.391
701.084
689.704
689.975
964.894
963.105
959.625
952.069
941.41
928.485
914.144
899.221
884.422
870.17
856.297
841.923
825.719
805.207
778.836
748.473
719.135
694.466
673.37
654.12
638.443
629.288
628.534
907.117
905.476
902.088
894.51
883.779
870.792
856.498
841.798
827.393
813.671
800.296
786.131
769.432
747.641
719.238
686.602
655.741
631.288
610.538
591.213
577.345
569.816
567.424
850.1
848.693
845.366
837.726
826.814
813.613
799.167
784.446
770.163
756.678
743.493
729.244
711.835
688.586
657.996
623.555
593.239
570.351
547.842
528.199
515.975
510.556
506.505
793.863
792.751
789.47
781.701
770.472
756.885
742.084
727.126
712.749
699.302
686.121
671.632
653.414
628.585
595.755
560.599
533.501
509.76
483.677
463.718
452.936
450.626
445.234
738.404
737.594
734.27
726.264
714.573
700.44
685.119
669.766
655.151
641.589
628.242
613.338
594.179
567.828
533.222
499.976
473.938
447.298
418.944
397.864
386.668
386.981
380.115
575.398
562.33
541.362
494.41
443.485
438.324
456.457
456.971
438.433
423.833
419.889
423.142
428.582
433.095
433.279
428.796
421.85
417.017
419.268
514.531
501.491
488.516
442.875
394.348
388.5
397.351
399.412
381.531
365.894
363.801
368.5
374.459
379.89
381.36
377.307
369.682
362.882
364.063
456.007
445.839
437.467
393.733
359.012
349.754
349.967
355.442
342.052
316.553
307.253
313.331
320.528
327.009
330.047
325.732
316.148
307.337
306.257
400.416
393.965
387.022
343.717
320.864
300.772
296.587
302.045
301.024
279.628
257.26
257.858
266.497
274.983
278.938
273.042
260.102
247.966
245.58
347.386
345.548
337.897
302.918
280.456
248.821
246.474
252.57
252.232
241.418
223.974
214.569
215.32
225.215
229.396
220.639
202.421
185.721
182.869
295.216
300.886
291.282
258.591
231.847
200.8
204.535
213.415
201.583
198.833
199.689
189.279
175.023
176.56
180.69
170.124
155.407
145.681
141.005
242.789
260.263
245.419
206.211
174.396
155.072
168.362
179.028
152.206
151.728
173.254
168.502
148.104
130.835
132.849
134.117
135.644
133.104
127.125
199.154
221.012
200.88
160.295
134.654
121.12
137.075
141.055
110.761
107.466
141.024
140.944
128.051
103.362
104.88
118.852
129.944
125.84
120.643
652.866
652.402
648.716
640.056
627.389
612.18
595.85
579.707
564.565
550.594
536.668
520.688
499.691
471.68
438.871
407.843
378.162
347.337
320.217
296.337
280.528
280.089
280.858
539.757
539.324
534.728
524.381
509.612
492.081
473.461
455.366
438.695
423.665
408.7
391.266
367.911
337.468
304.936
273.719
239.974
207.558
188.276
171.942
157.787
152.195
144.345
430.23
429.13
423.094
410.528
393.001
372.182
349.943
328.227
307.703
290.958
275.162
258.031
233.002
198.107
165.948
138.561
101.437
73.7952
65.0467
71.1818
77.4067
77.221
63.5215
324.385
321.67
313.825
299.101
278.647
253.498
224.565
195.097
169.109
150.779
136.334
124.829
105.093
76.3435
56.6722
42.4837
21.1774
12.658
10.6671
13.8117
22.3542
32.4825
29.1096
223.16
218.314
209.15
193.599
170.654
140.999
110.797
84.5041
64.6813
53.1356
44.9843
39.8181
32.534
23.2376
17.8426
12.5897
8.48764
6.97151
5.70806
4.06217
2.22265
6.52551
11.0573
127.185
120.365
112.731
102.274
88.2532
69.5951
52.1103
38.4229
30.8218
25.7187
22.1098
19.3168
18.394
17.9709
15.6511
11.5908
7.47607
4.88768
3.21146
1.73102
1.25858
1.08152
1.12852
48.7558
43.1454
44.8007
45.8579
46.2931
42.8977
35.7249
28.6215
23.1682
18.5637
16.2683
15.2584
16.273
16.4487
13.5718
9.40032
5.52628
2.85383
1.31571
0.714915
0.733403
0.51652
-0.0578975
7.79249
7.2818
15.3091
24.2447
24.7928
22.4967
21.926
20.7979
16.6406
13.8031
10.6931
9.18596
9.96328
9.91938
7.15963
4.38354
2.26762
0.678367
-0.151451
-0.10736
0.119181
0.0100932
-0.430808
3.74114
4.0479
5.10424
6.66004
8.86528
9.66699
9.85982
9.31468
9.44462
7.25354
3.11925
1.35759
1.46471
1.74595
0.77618
0.547902
-0.63021
-1.02348
-0.923908
-0.819938
-0.752285
-0.779682
-0.866233
2.26871
1.77589
0.727911
2.8758
3.32554
0.198002
-0.502371
0.146023
1.60221
1.15997
-1.48136
-2.51691
-2.45627
-1.68003
-1.79116
-1.76479
-1.47768
-1.37808
-1.32812
-1.26432
-1.28619
-1.2995
-1.23524
0.350355
-0.473131
-1.17114
-1.63649
-2.25832
-2.26431
-2.32308
-2.39229
-2.4457
-2.49443
-2.59329
-2.61554
-2.54198
-2.21246
-1.83552
-1.71743
-1.67058
-1.60911
-1.54769
-1.50075
-1.49355
-1.49271
-1.46769
-1.34661
-1.98381
-2.27028
-2.35961
-2.40222
-2.42131
-2.4308
-2.42469
-2.41083
-2.40338
-2.3705
-2.31789
-2.23618
-2.11148
-1.9928
-1.91924
-1.86187
-1.8015
-1.74452
-1.7003
-1.67845
-1.66753
-1.6504
-2.23342
-2.53735
-2.51495
-2.4957
-2.49334
-2.49963
-2.50538
-2.50278
-2.48613
-2.45785
-2.42622
-2.3886
-2.33404
-2.25365
-2.16976
-2.09815
-2.03503
-1.97778
-1.92843
-1.88905
-1.86271
-1.84417
-1.82563
-2.50049
-2.60996
-2.58167
-2.57591
-2.5782
-2.58124
-2.58523
-2.58601
-2.57858
-2.5598
-2.53256
-2.49564
-2.44556
-2.38103
-2.31278
-2.24998
-2.19324
-2.14274
-2.09938
-2.06372
-2.03601
-2.01357
-1.99313
-2.58675
-2.63865
-2.64356
-2.65244
-2.6619
-2.66762
-2.67112
-2.6711
-2.66478
-2.64992
-2.62595
-2.59249
-2.54913
-2.49705
-2.44212
-2.3896
-2.34085
-2.29668
-2.25784
-2.22461
-2.19679
-2.17299
-2.15164
-2.68486
-2.70714
-2.72125
-2.7356
-2.7477
-2.75544
-2.75924
-2.75854
-2.75209
-2.73863
-2.71754
-2.68858
-2.65222
-2.61004
-2.56538
-2.52136
-2.47934
-2.44037
-2.40521
-2.37412
-2.34695
-2.32313
-2.30177
-2.79615
-2.79977
-2.81121
-2.82461
-2.83612
-2.84387
-2.84756
-2.84681
-2.84087
-2.82898
-2.8107
-2.78606
-2.75567
-2.7209
-2.68389
-2.64658
-2.61019
-2.57576
-2.54397
-2.51512
-2.48921
-2.46614
-2.44538
-2.90391
-2.8997
-2.90626
-2.9167
-2.92631
-2.9331
-2.93638
-2.93566
-2.93042
-2.92016
-2.90459
-2.88382
-2.85842
-2.8295
-2.79852
-2.7668
-2.73537
-2.70511
-2.67663
-2.65024
-2.62607
-2.60431
-2.58464
-3.0082
-3.0013
-3.00387
-3.01109
-3.0185
-3.02403
-3.02672
-3.026
-3.02142
-3.01265
-2.99952
-2.98214
-2.96098
-2.93689
-2.91091
-2.88401
-2.85701
-2.83062
-2.80537
-2.7816
-2.75951
-2.73944
-2.72122
-3.11264
-3.10467
-3.10411
-3.10833
-3.11352
-3.11767
-3.11969
-3.11893
-3.11497
-3.10755
-3.09656
-3.0821
-3.06454
-3.04451
-3.02277
-3.00004
-2.97696
-2.95412
-2.93198
-2.91086
-2.89102
-2.87285
-2.8563
-3.21856
-3.21025
-3.20728
-3.20883
-3.21194
-3.21471
-3.21603
-3.2152
-3.21179
-3.20557
-3.19645
-3.1845
-3.17001
-3.15342
-3.13529
-3.11617
-3.09655
-3.07693
-3.05769
-3.03915
-3.02156
-3.00536
-2.99054
-3.3259
-3.31785
-3.31325
-3.31263
-3.31391
-3.3154
-3.31602
-3.31508
-3.31214
-3.30695
-3.29943
-3.28963
-3.27774
-3.26407
-3.24904
-3.23304
-3.21647
-3.19973
-3.18316
-3.16703
-3.15159
-3.13729
-3.12414
-3.43457
-3.42715
-3.42169
-3.41948
-3.41925
-3.4196
-3.41955
-3.41844
-3.41585
-3.41152
-3.40535
-3.39736
-3.38765
-3.37647
-3.36408
-3.35078
-3.33689
-3.32271
-3.30853
-3.29459
-3.28114
-3.26859
-3.25698
-3.54461
-3.53797
-3.53223
-3.52898
-3.52758
-3.52695
-3.52627
-3.52495
-3.52259
-3.51893
-3.51386
-3.50735
-3.49947
-3.49036
-3.48021
-3.46923
-3.45765
-3.44571
-3.43366
-3.42169
-3.41002
-3.39903
-3.38879
-3.65608
-3.6502
-3.64456
-3.6407
-3.63845
-3.63703
-3.63579
-3.63422
-3.63198
-3.62882
-3.62461
-3.61929
-3.61289
-3.60548
-3.59719
-3.58816
-3.57854
-3.56854
-3.55833
-3.54808
-3.53798
-3.52838
-3.51933
-3.76893
-3.76376
-3.7584
-3.75426
-3.75145
-3.74944
-3.74772
-3.74592
-3.74372
-3.7409
-3.73733
-3.73293
-3.72769
-3.72164
-3.71486
-3.70742
-3.69944
-3.69106
-3.68243
-3.67366
-3.66493
-3.65654
-3.64853
-3.88307
-3.87851
-3.87352
-3.86933
-3.86621
-3.8638
-3.86174
-3.85973
-3.85753
-3.85494
-3.85183
-3.84811
-3.84375
-3.83875
-3.83315
-3.82698
-3.82032
-3.81328
-3.80596
-3.79846
-3.79091
-3.78359
-3.77652
-3.99835
-3.99433
-3.98973
-3.98567
-3.98243
-3.97981
-3.97753
-3.97539
-3.97318
-3.97074
-3.96794
-3.96471
-3.961
-3.95679
-3.95208
-3.9469
-3.94129
-3.93533
-3.92909
-3.92266
-3.91614
-3.90975
-3.90354
-4.11461
-4.11107
-4.1069
-4.10307
-4.09988
-4.09719
-4.09482
-4.09261
-4.09041
-4.08808
-4.08551
-4.08263
-4.07938
-4.07575
-4.07171
-4.06728
-4.06249
-4.05739
-4.05204
-4.0465
-4.04086
-4.03531
-4.02987
-4.23175
-4.22862
-4.22489
-4.22137
-4.21834
-4.21572
-4.21336
-4.21115
-4.20898
-4.20674
-4.20433
-4.20171
-4.1988
-4.19559
-4.19205
-4.1882
-4.18405
-4.17964
-4.17502
-4.17023
-4.16535
-4.16054
-4.1558
-4.34965
-4.34689
-4.34359
-4.34042
-4.33764
-4.33515
-4.33288
-4.33073
-4.32863
-4.32648
-4.32422
-4.32179
-4.31914
-4.31625
-4.3131
-4.30969
-4.30605
-4.30221
-4.29819
-4.29405
-4.28983
-4.28566
-4.28157
-4.4682
-4.46579
-4.46289
-4.4601
-4.45759
-4.4553
-4.45317
-4.45113
-4.44912
-4.44708
-4.44496
-4.44269
-4.44026
-4.43763
-4.43479
-4.43175
-4.42853
-4.42516
-4.42165
-4.41806
-4.41441
-4.41083
-4.40732
-4.58731
-4.5852
-4.58269
-4.58026
-4.57804
-4.57598
-4.57402
-4.57212
-4.57024
-4.56833
-4.56635
-4.56425
-4.56201
-4.55961
-4.55705
-4.55433
-4.55147
-4.54849
-4.54543
-4.54232
-4.53918
-4.53612
-4.53313
-4.70686
-4.70502
-4.70287
-4.70078
-4.69885
-4.69702
-4.69525
-4.69352
-4.69179
-4.69004
-4.68822
-4.6863
-4.68425
-4.68208
-4.67977
-4.67733
-4.6748
-4.67218
-4.66952
-4.66683
-4.66415
-4.66155
-4.65902
-4.82675
-4.82517
-4.82334
-4.82156
-4.8199
-4.81829
-4.81672
-4.81517
-4.81363
-4.81206
-4.81043
-4.8087
-4.80686
-4.80491
-4.80284
-4.80069
-4.79845
-4.79617
-4.79387
-4.79157
-4.78929
-4.7871
-4.785
-4.94691
-4.94555
-4.944
-4.9425
-4.94108
-4.93969
-4.93831
-4.93697
-4.93564
-4.93429
-4.93287
-4.93135
-4.92973
-4.92801
-4.92619
-4.9243
-4.92236
-4.92039
-4.91843
-4.91648
-4.91457
-4.91275
-4.91102
-5.06724
-5.06609
-5.06478
-5.06352
-5.06231
-5.06111
-5.05993
-5.05881
-5.05773
-5.05663
-5.05545
-5.05417
-5.05278
-5.05129
-5.04973
-5.0481
-5.04645
-5.04479
-5.04314
-5.04152
-5.03995
-5.03847
-5.03707
-5.18768
-5.18672
-5.18562
-5.18456
-5.18353
-5.1825
-5.1815
-5.18063
-5.17986
-5.17906
-5.17814
-5.1771
-5.17595
-5.17471
-5.1734
-5.17204
-5.17067
-5.16931
-5.16797
-5.16666
-5.16541
-5.16423
-5.16313
-5.30817
-5.30738
-5.30646
-5.30558
-5.3047
-5.30379
-5.30294
-5.30239
-5.30204
-5.30158
-5.30094
-5.30014
-5.29922
-5.29822
-5.29716
-5.29608
-5.29499
-5.29392
-5.29288
-5.29187
-5.29091
-5.29001
-5.28918
-5.42862
-5.42804
-5.4273
-5.42658
-5.42581
-5.42491
-5.42399
-5.42396
-5.4243
-5.42425
-5.42389
-5.4233
-5.4226
-5.42182
-5.42102
-5.4202
-5.4194
-5.41861
-5.41785
-5.41713
-5.41644
-5.41579
-5.41519
-5.54904
-5.54879
-5.54826
-5.54767
-5.54694
-5.54575
-5.54408
-5.54498
-5.54668
-5.54711
-5.54695
-5.54655
-5.54603
-5.54547
-5.54492
-5.54438
-5.54386
-5.54336
-5.54288
-5.54243
-5.542
-5.54158
-5.54117
-5.67
-5.67
-5.66936
-5.66887
-5.66828
-5.66711
-5.66476
-5.66495
-5.66792
-5.66869
-5.66884
-5.66878
-5.66863
-5.66848
-5.66836
-5.66825
-5.66817
-5.6681
-5.66803
-5.66796
-5.66787
-5.66776
-5.66761
284.932
278.672
267.454
245.753
132.981
125.513
119.546
109.881
52.0153
47.0371
47.7788
48.6866
22.1059
21.4566
24.1748
26.9692
6.09752
5.52384
7.38139
8.69516
0.0104479
-0.253123
0.382102
1.24331
-0.518449
-0.681331
-0.787771
-0.889539
-0.677263
-0.777336
-0.818794
-0.859349
-0.986426
-1.04643
-1.08167
-1.10882
-1.22232
-1.22841
-1.25368
-1.27926
-1.44076
-1.44131
-1.45015
-1.46006
-1.63494
-1.63031
-1.63006
-1.63162
-1.81175
-1.80482
-1.79998
-1.79629
-1.97827
-1.96908
-1.96074
-1.95343
-2.13561
-2.12455
-2.11367
-2.10396
-2.28508
-2.27286
-2.26042
-2.24936
-2.4286
-2.41587
-2.40272
-2.39116
-2.56834
-2.55563
-2.54239
-2.53087
-2.70588
-2.69367
-2.68082
-2.66965
-2.84218
-2.83078
-2.81861
-2.80797
-2.97778
-2.96729
-2.95593
-2.9459
-3.11272
-3.10317
-3.09265
-3.08326
-3.24679
-3.23813
-3.22844
-3.2197
-3.37968
-3.37185
-3.36298
-3.35493
-3.51118
-3.50411
-3.49608
-3.48875
-3.64124
-3.63491
-3.62772
-3.62116
-3.77002
-3.76439
-3.75804
-3.75227
-3.89777
-3.89282
-3.88729
-3.88229
-4.02479
-4.0205
-4.01574
-4.01146
-4.15138
-4.14769
-4.14364
-4.14003
-4.27776
-4.27461
-4.2712
-4.26817
-4.40406
-4.40141
-4.39854
-4.39602
-4.53038
-4.52815
-4.52576
-4.52367
-4.65672
-4.65487
-4.65289
-4.65116
-4.78309
-4.78156
-4.77993
-4.77852
-4.90947
-4.90823
-4.9069
-4.90575
-5.03583
-5.03484
-5.03378
-5.03286
-5.16216
-5.16138
-5.16056
-5.15984
-5.28844
-5.28785
-5.28723
-5.28668
-5.41467
-5.41425
-5.4138
-5.41338
-5.54079
-5.54049
-5.54017
-5.53988
-5.66741
-5.66726
-5.66709
-5.66692
170.22
157.976
140.304
122.966
110.288
100.188
97.9961
86.3671
70.6985
67.8465
89.2744
99.6767
92.7979
88.6489
96.7976
107.327
112.306
111.354
110.123
90.2514
87.4859
86.7126
92.1661
87.9502
75.3391
54.2099
40.8185
38.5697
37.911
43.3407
59.5433
62.9097
67.7099
80.1171
87.1468
91.5367
94.7905
96.0373
48.4891
50.735
58.4578
66.8767
63.4686
47.7117
29.4846
24.1409
26.3607
27.9026
27.5854
30.9207
37.1839
44.5363
57.6236
63.4805
72.4969
79.9449
83.2168
29.0114
32.5726
36.792
38.4577
32.7781
20.5097
15.6967
16.8932
20.6258
22.844
23.4623
23.8903
23.5435
27.846
35.2747
42.7115
53.1224
61.9851
67.0354
7.62451
8.52424
9.70593
9.84244
8.03313
6.34139
7.62975
10.7806
14.0213
16.4273
17.787
18.9559
18.5869
19.0093
20.7568
27.9337
35.3806
42.8766
47.1824
0.373811
-0.442058
-0.403041
0.15111
-0.342281
1.36657
3.52942
5.26718
6.26339
7.82267
10.0199
12.2966
13.4301
11.7528
9.45853
15.3138
19.7921
26.3381
28.5944
-1.07972
-1.27691
-1.30447
-1.01761
-0.507142
-0.0598504
0.498847
0.684625
0.399944
1.13776
2.68964
4.38828
5.8216
4.30813
1.18708
3.29135
6.74887
11.8986
13.7303
-0.939108
-0.990006
-0.996885
-0.958424
-0.891565
-0.877496
-0.951584
-1.01508
-0.982641
-0.870538
-0.802397
-0.17444
0.170655
-0.196956
-0.899701
-0.511374
0.541723
2.44952
5.34561
-1.14189
-1.18329
-1.20633
-1.20536
-1.21014
-1.21278
-1.20976
-1.17713
-1.13445
-1.10235
-1.13605
-1.29754
-1.45665
-1.28738
-1.33178
-1.36252
-1.37219
-1.6454
-1.74946
-1.31141
-1.33977
-1.35535
-1.35722
-1.3552
-1.35262
-1.34873
-1.33765
-1.3254
-1.32159
-1.3613
-1.43265
-1.54194
-1.59876
-1.52338
-1.55817
-1.629
-1.64406
-1.65346
-1.47379
-1.48787
-1.49707
-1.50009
-1.50129
-1.5037
-1.50761
-1.51227
-1.52629
-1.54859
-1.57705
-1.603
-1.61967
-1.62483
-1.62548
-1.63792
-1.67084
-1.69141
-1.70742
-1.63356
-1.63647
-1.64022
-1.64281
-1.64518
-1.64949
-1.65657
-1.6683
-1.69132
-1.71631
-1.72717
-1.73204
-1.73953
-1.73938
-1.73592
-1.73369
-1.74485
-1.76566
-1.78327
-1.79061
-1.78579
-1.78429
-1.78488
-1.78613
-1.7896
-1.79559
-1.80623
-1.8222
-1.83815
-1.84636
-1.85037
-1.85957
-1.8646
-1.86316
-1.85715
-1.85296
-1.86327
-1.88302
-1.94297
-1.93307
-1.92726
-1.9251
-1.92517
-1.9271
-1.9311
-1.93907
-1.9512
-1.9641
-1.97283
-1.97892
-1.99174
-2.00135
-2.00415
-1.99471
-1.98227
-1.98267
-2.00265
-2.09064
-2.07774
-2.06906
-2.06444
-2.06362
-2.06441
-2.06723
-2.07298
-2.08214
-2.09421
-2.10784
-2.12293
-2.13628
-2.14509
-2.14628
-2.1391
-2.13025
-2.12926
-2.14132
-2.23467
-2.22037
-2.2101
-2.20376
-2.20174
-2.20252
-2.205
-2.20975
-2.21744
-2.22875
-2.24462
-2.26423
-2.27858
-2.2859
-2.28544
-2.28623
-2.28924
-2.29017
-2.29008
-2.37622
-2.36169
-2.35086
-2.34364
-2.3403
-2.3407
-2.34348
-2.34866
-2.35639
-2.36644
-2.38066
-2.39772
-2.41167
-2.42007
-2.42586
-2.43275
-2.44099
-2.44494
-2.43984
-2.51635
-2.50229
-2.49151
-2.48401
-2.48001
-2.47937
-2.48205
-2.48752
-2.49514
-2.5047
-2.51752
-2.53222
-2.54557
-2.55633
-2.56568
-2.57556
-2.58548
-2.59188
-2.58647
-2.6558
-2.6425
-2.63211
-2.62464
-2.62038
-2.61929
-2.62128
-2.62601
-2.63322
-2.64281
-2.65479
-2.66814
-2.68099
-2.69255
-2.70335
-2.71462
-2.7264
-2.73549
-2.72767
-2.79489
-2.78246
-2.77258
-2.7653
-2.76096
-2.7596
-2.76112
-2.76533
-2.772
-2.78095
-2.7919
-2.804
-2.81598
-2.8272
-2.83785
-2.8487
-2.85998
-2.86938
-2.86274
-2.93362
-2.92206
-2.91274
-2.90573
-2.9014
-2.89984
-2.90096
-2.90466
-2.91068
-2.91873
-2.92843
-2.93906
-2.94971
-2.95977
-2.96908
-2.97776
-2.98541
-2.98987
-2.9855
-3.07175
-3.06105
-3.05232
-3.04562
-3.04134
-3.03959
-3.04031
-3.04339
-3.04862
-3.05563
-3.06397
-3.07304
-3.0821
-3.09053
-3.09787
-3.10363
-3.10662
-3.10466
-3.09763
-3.20898
-3.19912
-3.191
-3.18464
-3.18045
-3.17851
-3.1788
-3.18121
-3.18551
-3.19137
-3.19832
-3.20583
-3.21324
-3.21996
-3.22535
-3.22861
-3.22834
-3.2225
-3.21453
-3.34504
-3.33602
-3.32851
-3.32253
-3.31844
-3.31634
-3.31619
-3.31789
-3.32124
-3.32591
-3.3315
-3.33749
-3.34335
-3.34847
-3.35226
-3.35396
-3.35254
-3.34584
-3.33718
-3.47976
-3.47158
-3.46469
-3.45911
-3.45516
-3.45292
-3.45235
-3.45337
-3.45578
-3.45931
-3.4636
-3.4682
-3.47262
-3.47634
-3.47884
-3.47957
-3.478
-3.47196
-3.4603
-3.61311
-3.60577
-3.59952
-3.59436
-3.59057
-3.58823
-3.58729
-3.58768
-3.58923
-3.59172
-3.59481
-3.59815
-3.60128
-3.60376
-3.60511
-3.60492
-3.60264
-3.59616
-3.58384
-3.74519
-3.73867
-3.73305
-3.72832
-3.72473
-3.72233
-3.7211
-3.72095
-3.72176
-3.72333
-3.72539
-3.7276
-3.72961
-3.73099
-3.7313
-3.73007
-3.7265
-3.71854
-3.70835
-3.87616
-3.87044
-3.86543
-3.86113
-3.85777
-3.85538
-3.85393
-3.85336
-3.85356
-3.85436
-3.85554
-3.85682
-3.85787
-3.85832
-3.85776
-3.85569
-3.85125
-3.84251
-3.83266
-4.00624
-4.00126
-3.99684
-3.99298
-3.98987
-3.98755
-3.98597
-3.98509
-3.98481
-3.985
-3.98547
-3.98598
-3.98627
-3.98599
-3.98477
-3.98219
-3.97753
-3.96837
-3.95692
-4.13561
-4.13133
-4.12746
-4.12403
-4.1212
-4.11898
-4.11736
-4.11627
-4.11565
-4.11538
-4.1153
-4.11523
-4.11493
-4.11411
-4.11239
-4.10935
-4.10426
-4.0952
-4.08324
-4.26447
-4.26081
-4.25746
-4.25444
-4.2519
-4.24984
-4.24824
-4.24705
-4.2462
-4.24559
-4.24512
-4.24463
-4.24391
-4.24273
-4.2407
-4.23731
-4.23159
-4.22333
-4.21107
-4.39293
-4.38983
-4.38696
-4.38435
-4.3821
-4.38023
-4.37871
-4.37749
-4.37651
-4.37569
-4.37495
-4.37417
-4.37321
-4.37188
-4.36986
-4.36682
-4.36144
-4.35319
-4.34135
-4.52111
-4.5185
-4.51607
-4.51384
-4.51189
-4.51024
-4.50885
-4.50766
-4.50664
-4.50569
-4.50478
-4.50382
-4.50274
-4.50141
-4.49968
-4.49756
-4.49365
-4.48501
-4.47295
-4.64905
-4.64688
-4.64486
-4.64298
-4.64133
-4.63992
-4.63869
-4.63761
-4.6366
-4.6356
-4.63457
-4.63349
-4.63232
-4.63101
-4.62955
-4.62805
-4.62534
-4.61657
-4.60377
-4.77679
-4.77502
-4.77335
-4.77181
-4.77047
-4.7693
-4.76829
-4.76735
-4.76641
-4.7654
-4.7643
-4.76311
-4.76182
-4.76044
-4.75895
-4.75726
-4.75419
-4.74542
-4.73368
-4.90435
-4.90292
-4.90159
-4.90037
-4.89931
-4.89842
-4.89765
-4.89693
-4.89612
-4.89512
-4.89396
-4.89266
-4.89121
-4.88968
-4.88799
-4.88578
-4.88176
-4.87344
-4.86347
-5.03174
-5.03061
-5.02958
-5.02865
-5.02788
-5.02727
-5.0268
-5.02637
-5.02575
-5.02478
-5.02356
-5.02217
-5.02063
-5.019
-5.01713
-5.01458
-5.01016
-5.00235
-4.99352
-5.15896
-5.15809
-5.1573
-5.15664
-5.15614
-5.15583
-5.15571
-5.15568
-5.15535
-5.15439
-5.15312
-5.15169
-5.15016
-5.1485
-5.14652
-5.14384
-5.13943
-5.13219
-5.12415
-5.286
-5.28533
-5.28475
-5.2843
-5.28404
-5.28403
-5.28433
-5.28495
-5.28511
-5.28407
-5.28267
-5.28117
-5.27963
-5.27794
-5.27598
-5.2734
-5.26934
-5.26277
-5.25543
-5.41284
-5.4123
-5.41186
-5.41156
-5.41147
-5.41172
-5.41262
-5.41465
-5.41597
-5.41436
-5.41247
-5.41068
-5.40896
-5.40719
-5.40532
-5.40309
-5.39979
-5.3941
-5.38756
-5.53949
-5.53902
-5.53864
-5.53839
-5.53836
-5.53878
-5.54061
-5.54577
-5.54919
-5.54579
-5.54279
-5.54042
-5.53831
-5.53633
-5.5345
-5.53278
-5.53066
-5.5264
-5.52136
-5.66666
-5.66627
-5.66593
-5.66569
-5.66566
-5.66616
-5.6686
-5.67673
-5.67814
-5.67356
-5.67055
-5.66846
-5.66669
-5.6651
-5.66372
-5.66262
-5.66166
-5.65961
-5.65643
)
;

boundaryField
{
    leftWall
    {
        type            calculated;
        value           nonuniform List<scalar> 
50
(
1141.96
1082.47
1023.37
964.894
907.117
850.1
793.863
738.404
652.866
539.757
430.23
324.385
223.16
127.185
48.7558
7.79249
3.74114
2.26871
0.350355
-1.34661
-2.23342
-2.50049
-2.58675
-2.68486
-2.79615
-2.90391
-3.0082
-3.11264
-3.21856
-3.3259
-3.43457
-3.54461
-3.65608
-3.76893
-3.88307
-3.99835
-4.11461
-4.23175
-4.34965
-4.4682
-4.58731
-4.70686
-4.82675
-4.94691
-5.06724
-5.18768
-5.30817
-5.42862
-5.54904
-5.67
)
;
    }
    rightWall
    {
        type            calculated;
        value           nonuniform List<scalar> 
50
(
419.268
364.063
306.257
245.58
182.869
141.005
127.125
120.643
110.123
96.0373
83.2168
67.0354
47.1824
28.5944
13.7303
5.34561
-1.74946
-1.65346
-1.70742
-1.78327
-1.88302
-2.00265
-2.14132
-2.29008
-2.43984
-2.58647
-2.72767
-2.86274
-2.9855
-3.09763
-3.21453
-3.33718
-3.4603
-3.58384
-3.70835
-3.83266
-3.95692
-4.08324
-4.21107
-4.34135
-4.47295
-4.60377
-4.73368
-4.86347
-4.99352
-5.12415
-5.25543
-5.38756
-5.52136
-5.65643
)
;
    }
    lowerWall
    {
        type            calculated;
        value           nonuniform List<scalar> 
62
(
1171.39
1169.97
1165.43
1157.64
1146.87
1133.66
1118.53
1102.1
1084.93
1067.52
1050.05
1032.15
1012.83
993.061
972.312
952.171
935.31
922.25
907.694
887.167
862.352
843.724
839.778
810.656
751.029
689.975
628.534
567.424
506.505
445.234
380.115
346.96
340.51
329.175
307.476
575.398
514.531
456.007
400.416
347.386
295.216
242.789
199.154
604.553
591.486
570.622
523.668
471.346
462.8
482.543
483.984
467.357
452.853
448.606
449.876
455.303
459.815
460
456.036
449.352
444.514
446.77
)
;
    }
    atmosphere
    {
        type            calculated;
        value           nonuniform List<scalar> 
46
(
-5.72908
-5.72904
-5.72904
-5.72904
-5.72904
-5.72904
-5.72904
-5.72904
-5.72905
-5.72909
-5.72915
-5.72924
-5.72938
-5.72954
-5.72975
-5.72997
-5.73022
-5.73046
-5.73069
-5.73089
-5.73104
-5.73114
-5.73118
-5.73115
-5.73111
-5.73103
-5.73091
-5.73068
-5.73033
-5.72999
-5.72968
-5.72941
-5.72921
-5.72909
-5.72904
-5.72905
-5.72905
-5.72905
-5.72905
-5.72904
-5.72904
-5.72904
-5.72904
-5.72904
-5.72904
-5.72985
)
;
    }
    defaultFaces
    {
        type            empty;
    }
}


// ************************************************************************* //
