/*--------------------------------*- C++ -*----------------------------------*\
| =========                 |                                                 |
| \\      /  F ield         | OpenFOAM: The Open Source CFD Toolbox           |
|  \\    /   O peration     | Version:  2.3.0                                 |
|   \\  /    A nd           | Web:      www.OpenFOAM.org                      |
|    \\/     M anipulation  |                                                 |
\*---------------------------------------------------------------------------*/
FoamFile
{
    version     2.0;
    format      ascii;
    class       volScalarField;
    location    "1.2";
    object      p_rgh;
}
// * * * * * * * * * * * * * * * * * * * * * * * * * * * * * * * * * * * * * //

dimensions      [1 -1 -2 0 0 0 0];

internalField   nonuniform List<scalar> 
2268
(
1171.39
1169.97
1165.43
1157.64
1146.87
1133.66
1118.53
1102.1
1084.93
1067.52
1050.05
1032.15
1012.83
993.061
972.312
952.171
935.31
922.25
907.694
887.167
862.352
843.724
839.778
1170.76
1169.16
1165.14
1157.5
1146.79
1133.69
1118.82
1102.81
1086.36
1069.97
1053.75
1037.26
1019.23
998.943
977.095
954.58
933.073
914.84
897.319
876.918
854.922
839.815
838.965
1170.52
1168.72
1165.07
1157.51
1146.85
1133.86
1119.3
1103.91
1088.39
1073.22
1058.38
1043.29
1027.12
1007.4
983.156
955.612
929.2
906.581
886.419
866.492
848.206
836.843
837.09
1170.9
1169.11
1165.63
1158.07
1147.42
1134.49
1120.15
1105.23
1090.43
1076.18
1062.3
1047.93
1031.72
1011.21
984.826
954.46
925.124
900.45
878.676
859.468
844.372
835.283
834.527
1171.98
1170.34
1166.95
1159.37
1148.64
1135.66
1121.36
1106.66
1092.26
1078.53
1065.16
1051
1034.3
1012.5
984.096
951.425
919.426
892.156
870.56
855.334
842.19
834.663
832.263
1173.82
1172.42
1169.09
1161.45
1150.54
1137.34
1122.89
1108.17
1093.89
1080.4
1067.22
1052.97
1035.56
1012.31
981.706
945.967
898.298
867.422
867.326
851.838
839.664
834.248
830.141
1176.44
1175.33
1172.05
1164.28
1153.05
1139.47
1124.67
1109.71
1095.33
1081.88
1068.7
1054.21
1036
1011.16
978.259
930.451
863.54
856.646
865.812
846.124
835.419
833.159
827.721
1179.84
1179.04
1175.71
1167.7
1156.01
1141.88
1126.56
1111.21
1096.59
1083.03
1069.68
1054.78
1035.62
1009.25
970.735
883.207
849.821
861.679
859.561
838.789
827.617
828.194
821.427
604.553
591.486
570.622
523.668
471.346
462.8
482.543
483.984
467.357
452.853
448.606
449.876
455.303
459.815
460
456.036
449.352
444.514
446.77
602.098
589.293
576.318
524.55
438.553
432.252
449.649
447.52
441.201
450.972
449.832
450.848
454.659
460.047
461.519
457.468
449.855
445.638
448.349
602.343
592.176
583.804
521.967
425.977
423.301
430.476
427.959
410.025
405.264
443.805
454.187
461.406
467.701
467.583
463.327
456.047
448.337
447.261
605.286
598.835
588.341
492.535
413.943
462.389
458.37
463.83
408.435
367.243
382.776
445.139
463.768
472.266
476.248
470.41
457.502
445.373
442.987
610.781
608.951
594.427
422.514
400.541
456.334
454.367
460.679
460.285
364.973
301.608
350.322
450.352
478.907
483.151
474.421
456.182
422.618
423.533
616.347
621.029
610.624
466.418
452.5
454.138
458.252
467.553
455.63
382.089
289.797
279.388
341.212
478.952
490.749
475.107
356.031
218.399
237.338
622.824
634.05
619.077
452.407
403.938
449.336
470.381
482.53
408.555
406.448
297.303
275
257.223
363.971
411.252
298.676
172.375
169.118
155.586
637.655
659.245
560.274
328.516
274.824
298.291
493.448
497.334
209.179
274.729
354.363
354.079
259.699
172.724
143.566
155.851
167.978
173.948
151.599
1186.33
1185.87
1182.18
1173.52
1160.86
1145.65
1129.32
1113.17
1098.03
1084.06
1070.14
1054.16
1033.15
1005.01
927.747
857.17
830.36
874.322
851.275
822.152
789.755
803.772
813.794
1198.42
1197.99
1193.39
1183.04
1168.27
1150.74
1132.12
1114.03
1097.36
1082.33
1067.36
1049.93
1026.56
995.952
930.622
839.813
878.812
851.258
834.528
712.558
535.586
545.299
760.922
1214.09
1212.99
1206.95
1194.38
1176.86
1156.04
1133.8
1112.08
1091.56
1074.81
1059.02
1041.89
1016.84
981.678
893.739
837.962
786.789
547.217
472.22
487.923
366.002
335.414
424.544
1233.43
1230.71
1222.87
1208.14
1187.68
1162.53
1133.61
1098
992.573
968.1
932.307
954.931
933.512
761.25
603.286
597.506
185.556
25.9405
21.8349
88.5327
219.758
333.489
197.878
1257.31
1252.42
1243.22
1227.56
1204.44
1144.15
909.023
625.016
422.097
322.554
260.879
312.172
302
138.846
77.0437
78.977
27.2509
15.0814
12.0728
7.99036
4.30487
102.321
227.147
1285.19
1273.02
1247.91
1168.91
950.409
572.328
328.284
197.57
81.4232
73.8256
65.9195
62.3583
54.7472
46.9449
37.8624
31.4599
27.1294
24.0975
11.6243
7.38052
3.07996
3.22494
33.0857
865.232
716.205
586.611
370.834
283.218
345.803
340.967
145.737
76.6217
67.4964
61.694
58.1245
56.5553
55.1788
53.0956
63.4631
32.2089
25.394
21.6806
7.65104
2.75146
2.32331
1.35241
98.7231
23.7591
39.0292
62.2759
235.612
351.693
356.688
349.994
219.309
63.7524
60.4964
56.0145
60.0315
108.038
110.564
107.52
105.304
60.4099
9.98466
2.92634
2.3339
5.30674
6.09172
9.0406
9.86085
20.5099
224.844
364.188
368.705
357.81
293.926
290.087
248.338
118.864
47.8333
62.9056
114.417
113.49
111.21
26.472
5.81532
4.5548
1.11923
2.25461
7.01079
6.93182
6.67258
7.51742
65.159
221.328
198.911
56.5
45.5568
78.0502
172.326
196.255
87.0176
30.3317
31.6094
60.3787
18.1094
-0.104576
0.182609
0.285326
0.334258
0.423158
0.66209
0.718133
1.87956
4.13251
15.3866
44.443
18.2525
-0.378534
-0.322938
-0.152526
0.424882
3.37555
7.14139
2.94674
0.701737
-0.491905
-0.336969
-0.0502078
0.0679352
0.11486
0.176691
0.237714
0.284636
0.29185
0.292696
0.317713
2.28028
10.7031
8.39328
-0.422414
-0.476153
-0.461218
-0.460392
-0.449816
-0.419774
-0.415794
-0.420512
-0.399061
-0.327693
-0.200496
-0.0823566
-0.00875303
0.0486061
0.109023
0.166057
0.210272
0.232149
0.243074
0.260202
0.892716
2.06299
-0.45082
-0.439245
-0.444703
-0.448169
-0.455504
-0.452142
-0.436815
-0.414865
-0.387768
-0.352163
-0.298108
-0.217814
-0.133955
-0.0623502
0.000775341
0.0580178
0.107377
0.146749
0.173093
0.191634
0.210172
-0.177006
-0.357924
-0.394841
-0.390057
-0.410878
-0.418245
-0.42228
-0.422867
-0.415758
-0.397836
-0.371271
-0.334589
-0.284552
-0.22003
-0.151772
-0.0889618
-0.0322195
0.0182689
0.0616203
0.0972829
0.124987
0.147422
0.167863
-0.239838
-0.29192
-0.316308
-0.348799
-0.370497
-0.380667
-0.384512
-0.384532
-0.378298
-0.36358
-0.33971
-0.306289
-0.262928
-0.210854
-0.15592
-0.1034
-0.0546562
-0.0104838
0.028355
0.0615777
0.0893998
0.113199
0.13455
-0.253743
-0.269321
-0.27984
-0.315249
-0.333713
-0.34361
-0.347722
-0.347071
-0.340654
-0.327218
-0.306144
-0.277192
-0.240828
-0.19864
-0.153986
-0.109963
-0.0679477
-0.0289829
0.00617447
0.0372618
0.0644371
0.0882541
0.109614
-0.253979
-0.255284
-0.267039
-0.285041
-0.298626
-0.307092
-0.31094
-0.310209
-0.304276
-0.292388
-0.274116
-0.249474
-0.219079
-0.184311
-0.147303
-0.109986
-0.0736089
-0.0391786
-0.00739165
0.02146
0.0473721
0.0704349
0.0911975
-0.240763
-0.235973
-0.243167
-0.254462
-0.264319
-0.271246
-0.274591
-0.273877
-0.268637
-0.258378
-0.242817
-0.222038
-0.19664
-0.16772
-0.136738
-0.10502
-0.0735964
-0.0433366
-0.0148541
0.0115373
0.0357036
0.0574619
0.0771357
-0.220938
-0.213841
-0.216655
-0.224029
-0.231503
-0.237038
-0.239744
-0.239024
-0.234449
-0.225683
-0.212553
-0.195166
-0.174006
-0.149917
-0.123941
-0.0970433
-0.0700376
-0.0436469
-0.0184051
0.00536821
0.0274572
0.0475265
0.0657439
-0.200424
-0.192394
-0.191884
-0.196137
-0.20135
-0.205496
-0.207519
-0.206761
-0.202802
-0.195382
-0.184391
-0.169931
-0.152373
-0.132345
-0.110608
-0.0878778
-0.064795
-0.0419542
-0.0198185
0.00130066
0.0211473
0.0393113
0.0558628
-0.181195
-0.172866
-0.169909
-0.171467
-0.174581
-0.177352
-0.178669
-0.177839
-0.174434
-0.168212
-0.159089
-0.147143
-0.132647
-0.116059
-0.0979352
-0.0788126
-0.0591936
-0.0395679
-0.020336
-0.00179082
0.0157998
0.0319994
0.0468202
-0.163351
-0.155291
-0.150696
-0.150079
-0.15136
-0.15285
-0.153469
-0.152525
-0.149583
-0.144399
-0.136881
-0.12708
-0.115185
-0.10152
-0.086489
-0.070492
-0.0539218
-0.0371794
-0.0206075
-0.00447334
0.0109619
0.0252634
0.0384102
-0.146826
-0.139406
-0.13394
-0.131732
-0.131505
-0.131854
-0.131801
-0.130693
-0.128101
-0.123774
-0.117605
-0.10961
-0.099908
-0.0887204
-0.0763326
-0.0630381
-0.0491393
-0.0349585
-0.0207831
-0.00684828
0.00660235
0.0191532
0.0307646
-0.13167
-0.125029
-0.119289
-0.116036
-0.114638
-0.114011
-0.113328
-0.112007
-0.109644
-0.105988
-0.100917
-0.0944087
-0.0865294
-0.0774188
-0.0672693
-0.056289
-0.0447057
-0.032771
-0.0207183
-0.00874745
0.00292293
0.0139069
0.024156
-0.11794
-0.112067
-0.106423
-0.102565
-0.100316
-0.0988981
-0.0976525
-0.096088
-0.0938448
-0.0906836
-0.0864694
-0.0811521
-0.0747512
-0.0673457
-0.0590558
-0.0500212
-0.0404079
-0.030406
-0.0201981
-0.00994844
0.000152692
0.00975567
0.0188107
-0.105604
-0.100428
-0.0950656
-0.0909295
-0.0881183
-0.0861053
-0.0843933
-0.0825891
-0.0803875
-0.0775696
-0.0739965
-0.0695973
-0.0643581
-0.0583122
-0.0515258
-0.0440856
-0.0361081
-0.0277319
-0.0190958
-0.0103306
-0.00159783
0.00679299
0.0147962
-0.0945485
-0.0899881
-0.0849906
-0.0808082
-0.077683
-0.0752714
-0.0732132
-0.0712075
-0.0690056
-0.0664153
-0.0633022
-0.0595843
-0.055226
-0.0502293
-0.0446214
-0.0384509
-0.0317968
-0.0247576
-0.0174363
-0.00993492
-0.00238794
0.00493672
0.012001
-0.0846271
-0.080606
-0.0760134
-0.0719495
-0.0687138
-0.0660858
-0.0638112
-0.0616667
-0.0594559
-0.0570159
-0.0542236
-0.0509955
-0.0472845
-0.043073
-0.0383626
-0.0331782
-0.0275713
-0.0216114
-0.0153745
-0.00893931
-0.0024159
0.00396804
0.0101835
-0.0756983
-0.0721516
-0.0679847
-0.064155
-0.0609673
-0.0582784
-0.0559099
-0.053699
-0.0514942
-0.0491616
-0.0465941
-0.0437134
-0.0404695
-0.036834
-0.032795
-0.0283641
-0.0235752
-0.0184779
-0.0131288
-0.007589
-0.00194779
0.00360424
0.00904658
-0.06764
-0.0645132
-0.0607798
-0.0572609
-0.0542361
-0.0516073
-0.0492478
-0.0470399
-0.0448685
-0.0426273
-0.0402266
-0.0375979
-0.0346933
-0.0314807
-0.0279444
-0.0240897
-0.0199403
-0.0155332
-0.0109126
-0.00612625
-0.0012465
0.00356862
0.00830572
-0.0603433
-0.0575912
-0.0542866
-0.0511217
-0.0483344
-0.0458506
-0.0435779
-0.0414315
-0.0393258
-0.0371784
-0.0349171
-0.0324845
-0.0298375
-0.0269459
-0.0237961
-0.0203914
-0.016751
-0.012905
-0.00888936
-0.00474249
-0.000523198
0.00363829
0.00773389
-0.0537034
-0.0512882
-0.0483959
-0.0456003
-0.0430909
-0.0408043
-0.0386716
-0.0366324
-0.0346245
-0.0325854
-0.0304584
-0.0281961
-0.025762
-0.0231313
-0.0202946
-0.0172569
-0.0140357
-0.0106582
-0.00715511
-0.00355837
8.39645e-05
0.00366485
0.00718
-0.0476143
-0.0455041
-0.0429982
-0.0405661
-0.038348
-0.036285
-0.0343251
-0.032427
-0.0305468
-0.0286376
-0.0266544
-0.0245583
-0.0223195
-0.0199201
-0.0173557
-0.014634
-0.0117737
-0.00880049
-0.00574227
-0.0026263
0.00050782
0.0035721
0.00656494
-0.0419709
-0.0401376
-0.0379858
-0.0358965
-0.0339642
-0.0321324
-0.0303633
-0.0286311
-0.0269063
-0.0251527
-0.023332
-0.0214118
-0.0193685
-0.0171908
-0.0148795
-0.0124458
-0.00990991
-0.00729766
-0.00463516
-0.00194632
0.000735944
0.00333929
0.00586396
-0.0366736
-0.035092
-0.0332585
-0.0314814
-0.0298167
-0.0282113
-0.0266405
-0.0250931
-0.0235507
-0.0219814
-0.0203481
-0.0186207
-0.0167824
-0.0148282
-0.0127639
-0.0106042
-0.00837144
-0.0060916
-0.00378954
-0.00148665
0.00078963
0.00297992
0.00508568
-0.0316331
-0.0302794
-0.0287269
-0.0272258
-0.0258029
-0.0244105
-0.0230384
-0.0216924
-0.0203624
-0.0190097
-0.0175903
-0.0160763
-0.0144563
-0.0127321
-0.0109153
-0.0090243
-0.00708307
-0.00511748
-0.00315102
-0.00120271
0.000704726
0.00252295
0.00425404
-0.0267716
-0.0256234
-0.024314
-0.0230512
-0.0218402
-0.0206409
-0.0194626
-0.0183381
-0.0172592
-0.0161602
-0.0149817
-0.0136992
-0.0123095
-0.0108228
-0.00925693
-0.00763396
-0.00597889
-0.00431661
-0.00266854
-0.00105097
0.000517811
0.00199926
0.00339577
-0.0220196
-0.021057
-0.0199554
-0.0188958
-0.017866
-0.016833
-0.0158387
-0.0149675
-0.0141999
-0.0133948
-0.012478
-0.0114391
-0.0102869
-0.00904284
-0.00773168
-0.00637846
-0.00500793
-0.00364279
-0.00230124
-0.000996132
0.000258858
0.00143433
0.00253303
-0.0173068
-0.0165202
-0.0156011
-0.014719
-0.0138402
-0.0129319
-0.0120831
-0.0115313
-0.0111804
-0.0107252
-0.0100802
-0.00928255
-0.00836373
-0.00736055
-0.00630479
-0.00522236
-0.0041357
-0.00306342
-0.00201913
-0.00101134
-4.85947e-05
0.000848624
0.00168306
-0.0125713
-0.0119822
-0.0112455
-0.0105264
-0.00975817
-0.00885436
-0.00794044
-0.00790669
-0.00824406
-0.0081999
-0.00783346
-0.0072512
-0.00654192
-0.00576708
-0.00496151
-0.00414772
-0.00334233
-0.00255745
-0.00180049
-0.00107469
-0.000383217
0.000262212
0.00086315
-0.00778864
-0.00754594
-0.00701282
-0.00642164
-0.0056923
-0.00450051
-0.00283013
-0.00373271
-0.00543121
-0.00585803
-0.00570413
-0.0053046
-0.00477706
-0.00422214
-0.00366826
-0.00312774
-0.00260749
-0.0021105
-0.00163645
-0.0011827
-0.00074718
-0.000332464
7.32334e-05
-0.00355493
-0.00355997
-0.00291853
-0.00242385
-0.00184109
-0.000667157
0.00168422
0.00149639
-0.00147884
-0.00224847
-0.00239499
-0.00233231
-0.00218838
-0.00204062
-0.00191323
-0.00180908
-0.00172536
-0.00165511
-0.00158885
-0.00151609
-0.0014274
-0.00131607
-0.00116733
813.55
805.669
793.448
771.776
780.995
755.329
726.509
695.228
450.23
334.004
284.322
263.534
90.5608
68.4297
143.471
191.155
78.6121
39.7896
217.504
235.396
20.5949
12.0225
51.2539
89.3717
0.779723
0.608499
0.506709
0.41
1.65059
0.633515
0.596109
0.561282
4.14083
0.488792
0.455979
0.469131
0.4379
0.431868
0.408018
0.380991
0.344647
0.344105
0.335261
0.325355
0.275667
0.280293
0.280549
0.278989
0.22405
0.23098
0.235817
0.239516
0.182727
0.191917
0.200255
0.207566
0.150584
0.161639
0.172522
0.182229
0.126305
0.138524
0.150967
0.162028
0.107979
0.120714
0.133858
0.145419
0.0934377
0.106146
0.11938
0.130904
0.0810935
0.093297
0.106146
0.117322
0.0699794
0.0813859
0.0935572
0.104194
0.0595826
0.0700634
0.0814276
0.0914528
0.0498338
0.0593787
0.0699039
0.0792956
0.0409559
0.0496155
0.0593068
0.0680472
0.033257
0.0410958
0.0499587
0.0580142
0.0269547
0.0340253
0.0420553
0.0493815
0.0220856
0.028423
0.0356126
0.0421709
0.0185059
0.0241348
0.0304859
0.0362595
0.0159525
0.0208982
0.026432
0.0314341
0.0141198
0.0184163
0.023177
0.0274506
0.0127241
0.0164171
0.0204688
0.0240795
0.0115436
0.0146882
0.0181074
0.0211332
0.0104328
0.0130887
0.0159551
0.0184767
0.00931548
0.011542
0.0139318
0.016024
0.00816654
0.0100187
0.0119994
0.0137272
0.00699114
0.00851735
0.0101463
0.0115634
0.00580831
0.00705003
0.00837456
0.00952477
0.00464046
0.00563324
0.00669264
0.00761217
0.00350637
0.00428161
0.00510958
0.00582925
0.00241964
0.00300575
0.00363286
0.00418191
0.00138294
0.00180211
0.0022585
0.00267277
0.000455852
0.000753718
0.00107429
0.00136954
-0.000970991
-0.000816556
-0.000645666
-0.000474743
699.224
687.34
526.081
196.328
174.657
166.197
419.03
378.091
129.652
172.619
345.665
357.491
347.156
140.144
133.265
144.651
214.873
210.163
147.106
609.839
561.966
329.418
171.641
167.425
155.227
202.015
152.493
78.9573
54.5926
172.799
376.042
312.779
109.679
123.44
210.347
218.792
212.586
141.634
193.638
148.833
159.202
162.846
176.429
245.595
124.169
41.8772
48.0378
41.8544
41.5754
87.739
176.155
80.4929
117.887
215.631
224.579
208.558
137.48
216.21
162.724
171.149
227.983
266.377
254.109
106.374
33.0062
39.5544
45.0297
39.6731
40.1936
40.1295
45.7039
153.841
219.163
229.586
238.401
196.613
237.264
245.72
251.907
264.113
270.273
101.092
24.4158
28.2312
56.7875
76.1753
68.4657
37.8503
37.2872
37.3796
220.883
228.698
236.15
243.413
247.516
79.5196
88.2904
86.9071
87.1608
8.40929
10.6823
22.0053
24.1878
71.3123
74.8031
77.0004
72.763
34.0629
32.3856
126.366
201.054
142.64
250.913
253.178
0.230748
0.0585766
0.0895583
0.49512
1.24076
11.302
27.1465
27.3672
25.1328
36.2998
76.842
78.1253
74.4643
26.6281
23.4475
40.9701
41.1866
212.347
262.405
0.578966
0.774558
1.28327
1.54715
3.40375
5.25494
4.99344
1.93262
0.463457
0.649665
3.457
36.509
59.0544
34.677
2.7071
1.76568
10.6158
114.824
177.802
0.458886
0.352325
0.329499
0.331645
0.328823
0.326756
0.329887
0.362402
0.433585
0.55247
0.536647
0.510219
6.87656
17.8575
1.76518
0.563983
6.65823
0.00731179
-0.100552
0.348967
0.320703
0.312567
0.327224
0.328135
0.312593
0.316366
0.328158
0.632385
1.69447
1.65477
1.14001
0.249304
0.366436
0.506119
0.39714
1.05103
0.188541
0.123761
0.311655
0.297705
0.317106
0.343522
0.342546
0.31888
0.283183
0.278555
0.705517
1.61902
1.27408
0.313994
0.220013
0.253294
0.337903
0.419818
0.30056
0.274594
0.199928
0.277065
0.274138
0.286463
0.330327
0.327957
0.317891
0.259826
0.248093
0.225072
0.201727
0.221658
0.215871
0.218646
0.230017
0.372503
0.719807
0.505885
0.503924
0.25616
0.245197
0.250027
0.251714
0.28302
0.316288
0.303592
0.246411
0.235736
0.219805
0.204007
0.19666
0.208639
0.537965
0.76289
0.766383
0.770762
0.742536
0.309799
0.290052
0.218031
0.227933
0.233804
0.246635
0.307377
0.306781
0.273414
0.228508
0.216555
0.204584
0.353361
0.809676
0.801247
0.791644
0.788844
0.612895
0.363119
0.353518
0.47202
0.195546
0.208447
0.217163
0.224171
0.280342
0.298796
0.296092
0.273428
0.213838
0.203105
0.367002
0.819466
0.812958
0.744934
0.215484
0.181979
0.434205
0.582119
0.569465
0.176718
0.191019
0.201281
0.207637
0.220326
0.28982
0.287553
0.282574
0.271385
0.190465
0.211025
0.30194
0.311967
0.163098
0.127121
0.12676
0.309615
0.570292
0.570027
0.160356
0.174891
0.185723
0.192938
0.196282
0.195883
0.246841
0.273077
0.249509
0.177534
0.161496
0.143091
0.127611
0.117749
0.111752
0.105075
0.0972709
0.263219
0.567832
0.145422
0.159486
0.170262
0.177759
0.181762
0.182404
0.179728
0.174632
0.172301
0.166894
0.151442
0.133824
0.12014
0.108911
0.0970168
0.0866157
0.092599
0.47808
0.568816
0.131171
0.144464
0.154855
0.162328
0.166591
0.167675
0.165916
0.162782
0.156659
0.146362
0.134323
0.124484
0.111706
0.100197
0.0848948
0.0723633
0.0924795
0.555571
0.573724
0.11727
0.129703
0.13958
0.146859
0.151199
0.152563
0.151208
0.149695
0.143393
0.133181
0.120975
0.109409
0.0987877
0.0861909
0.0743207
0.0634663
0.0538882
0.272958
0.549225
0.103738
0.115296
0.124613
0.131629
0.135953
0.13752
0.136394
0.132864
0.129391
0.121564
0.109666
0.0983199
0.0876486
0.0775952
0.0682853
0.0596118
0.0519492
0.0474935
0.142777
0.0908033
0.101501
0.110232
0.116937
0.12121
0.122963
0.12224
0.119174
0.114462
0.108023
0.0995165
0.0899926
0.0804924
0.0720243
0.0647047
0.0589488
0.0559328
0.0578932
0.144622
0.0787682
0.0886242
0.0967514
0.103107
0.107299
0.109234
0.108943
0.106538
0.102245
0.0968324
0.0901445
0.0821474
0.074507
0.0677903
0.0624207
0.0591544
0.0594083
0.252951
0.500584
0.0679039
0.0769247
0.0844353
0.0904132
0.0944983
0.0966013
0.0967486
0.0950469
0.0917035
0.0870643
0.0816973
0.0757031
0.0696498
0.0644692
0.0606968
0.0589826
0.0604066
0.509014
0.519401
0.0583767
0.0665596
0.0734429
0.0790212
0.0829719
0.0852167
0.0857826
0.0847677
0.0823561
0.078826
0.074541
0.0699506
0.0655214
0.061798
0.0593021
0.0585645
0.0601418
0.51159
0.537748
0.0502171
0.0575619
0.0638129
0.0689736
0.0727587
0.0751047
0.0760417
0.075654
0.074099
0.0716153
0.068517
0.0651848
0.0620493
0.0595751
0.0582204
0.0584137
0.0606884
0.345247
0.554848
0.0433344
0.0498537
0.0554768
0.0602071
0.0637945
0.0661908
0.0674268
0.0675738
0.0667634
0.0651965
0.0631403
0.0609216
0.0589158
0.0575412
0.0572294
0.0584617
0.0620288
0.349466
0.569164
0.0375566
0.0432807
0.0482911
0.0525849
0.0559444
0.0583346
0.0597849
0.0603562
0.060158
0.0593577
0.0581801
0.0569027
0.0558509
0.0553992
0.0559593
0.0580336
0.0859379
0.524097
0.382624
0.0326777
0.0376534
0.042076
0.0459345
0.04904
0.0513675
0.0529456
0.0538274
0.0541044
0.053915
0.0534461
0.0529307
0.0526474
0.0529264
0.0541433
0.0567228
0.10749
0.543263
0.373683
0.0284954
0.0327812
0.0366485
0.040079
0.0429097
0.0451235
0.046749
0.0478343
0.0484566
0.0487295
0.0488065
0.0488816
0.0491871
0.0500159
0.0517288
0.0547664
0.0731295
0.562644
0.300584
0.0248357
0.0284961
0.0318453
0.0348605
0.0374018
0.0394592
0.0410625
0.0422562
0.0431075
0.04371
0.0441874
0.0446875
0.0454006
0.0466028
0.0486301
0.0519967
0.162032
0.578157
0.272829
0.0215641
0.0246645
0.0275348
0.0301513
0.032395
0.0342626
0.0357852
0.0370067
0.0379877
0.0388064
0.0395523
0.040331
0.041308
0.0426718
0.0446751
0.0476835
0.373711
0.588446
0.270982
0.0185863
0.0211885
0.0236193
0.025856
0.0277994
0.0294514
0.0308456
0.0320275
0.0330572
0.0340009
0.0349161
0.0358738
0.0369931
0.0383376
0.0400445
0.0421425
0.436244
0.596765
0.181714
0.0158415
0.0180021
0.0200311
0.0219085
0.0235524
0.0249685
0.0261937
0.0272788
0.0282916
0.0292947
0.0303212
0.0314081
0.032589
0.033891
0.0353479
0.0368454
0.284787
0.339317
0.083318
0.013294
0.0150639
0.0167274
0.0182665
0.0196137
0.0207765
0.0217946
0.0227287
0.0236732
0.024696
0.0257972
0.0269852
0.0282647
0.0296462
0.0311362
0.0328328
0.0810488
0.10102
0.0692572
0.0109251
0.0123515
0.0136848
0.0149073
0.0159624
0.0168549
0.0176247
0.0183462
0.0191627
0.0201711
0.0213292
0.0226236
0.0242198
0.0276523
0.0321066
0.0429391
0.0398502
0.041962
0.0521656
0.00872765
0.00985513
0.0108945
0.0118248
0.0125947
0.0132001
0.0136743
0.0141036
0.0147222
0.0156978
0.0169077
0.018298
0.0293043
0.0397934
0.0416895
0.0440467
0.0336038
0.0381284
0.0469525
0.00670109
0.00757553
0.00836108
0.00902956
0.00952743
0.00983331
0.00995885
0.00998373
0.0103175
0.0112763
0.012541
0.0169258
0.0342816
0.035977
0.037951
0.0383656
0.027409
0.0334723
0.0415189
0.00485431
0.00552895
0.00611019
0.00656068
0.00681869
0.00682932
0.00653454
0.00591207
0.00574869
0.00679389
0.00819308
0.0123218
0.0192344
0.0244353
0.025873
0.0217337
0.0217182
0.0280858
0.0354258
0.00321234
0.00375318
0.00419548
0.00449614
0.00458458
0.00433602
0.00343697
0.0014084
9.09559e-05
0.00169549
0.00372115
0.00554745
0.00710742
0.0089234
0.0107815
0.0129701
0.0162991
0.0219566
0.0284899
0.00176299
0.00222628
0.00260893
0.00285483
0.00289024
0.00246806
0.000638424
-0.00452054
-0.00793076
-0.00453482
-0.001513
0.000833195
0.00294346
0.00491807
0.00674872
0.00847044
0.0105927
0.0148452
0.0201372
-0.000215608
0.000169413
0.000512155
0.000749179
0.000786816
0.000283282
-0.00215792
-0.0102847
-0.0116882
-0.00711238
-0.00410565
-0.00201593
-0.000246469
0.00134708
0.00272883
0.00382316
0.00478323
0.00683232
0.0108158
)
;

boundaryField
{
    leftWall
    {
        type            fixedFluxPressure;
        gradient        uniform 0;
        value           nonuniform List<scalar> 
50
(
1171.39
1170.76
1170.52
1170.9
1171.98
1173.82
1176.44
1179.84
1186.33
1198.42
1214.09
1233.43
1257.31
1285.19
865.232
98.7231
9.0406
6.67258
4.13251
2.28028
0.892716
-0.177006
-0.239838
-0.253743
-0.253979
-0.240763
-0.220938
-0.200424
-0.181195
-0.163351
-0.146826
-0.13167
-0.11794
-0.105604
-0.0945485
-0.0846271
-0.0756983
-0.06764
-0.0603433
-0.0537034
-0.0476143
-0.0419709
-0.0366736
-0.0316331
-0.0267716
-0.0220196
-0.0173068
-0.0125713
-0.00778864
-0.00355493
)
;
    }
    rightWall
    {
        type            fixedFluxPressure;
        gradient        uniform 0;
        value           nonuniform List<scalar> 
50
(
446.77
448.349
447.261
442.987
423.533
237.338
155.586
151.599
147.106
141.634
137.48
196.613
247.516
253.178
262.405
177.802
-0.100552
0.123761
0.199928
0.25616
0.290052
0.47202
0.569465
0.570027
0.567832
0.568816
0.573724
0.549225
0.142777
0.144622
0.500584
0.519401
0.537748
0.554848
0.569164
0.382624
0.373683
0.300584
0.272829
0.270982
0.181714
0.083318
0.0692572
0.0521656
0.0469525
0.0415189
0.0354258
0.0284899
0.0201372
0.0108158
)
;
    }
    lowerWall
    {
        type            fixedFluxPressure;
        gradient        uniform 0;
        value           nonuniform List<scalar> 
62
(
1171.39
1169.97
1165.43
1157.64
1146.87
1133.66
1118.53
1102.1
1084.93
1067.52
1050.05
1032.15
1012.83
993.061
972.312
952.171
935.31
922.25
907.694
887.167
862.352
843.724
839.778
839.778
838.965
837.09
834.527
832.263
830.141
827.721
821.427
813.55
805.669
793.448
771.776
604.553
602.098
602.343
605.286
610.781
616.347
622.824
637.655
604.553
591.486
570.622
523.668
471.346
462.8
482.543
483.984
467.357
452.853
448.606
449.876
455.303
459.815
460
456.036
449.352
444.514
446.77
)
;
    }
    atmosphere
    {
        type            totalPressure;
        rho             rho;
        psi             none;
        gamma           1;
        p0              uniform 0;
        value           nonuniform List<scalar> 
46
(
-3.98616e-05
-4.40925e-06
0
0
0
0
0
-1.95565e-06
-1.46019e-05
-4.76792e-05
-0.000108498
-0.000203795
-0.000336053
-0.000504941
-0.000706718
-0.000934063
-0.00117623
-0.00141961
-0.00164872
-0.00184772
-0.00200214
-0.00210086
-0.00213776
-0.00211402
-0.00206836
-0.00198629
-0.00186945
-0.00163725
-0.00129287
-0.000952367
-0.000636826
-0.000370843
-0.000174067
-5.11869e-05
0
0
0
0
0
0
0
0
0
0
0
0
)
;
    }
    defaultFaces
    {
        type            empty;
    }
}


// ************************************************************************* //
