/*--------------------------------*- C++ -*----------------------------------*\
| =========                 |                                                 |
| \\      /  F ield         | OpenFOAM: The Open Source CFD Toolbox           |
|  \\    /   O peration     | Version:  2.3.0                                 |
|   \\  /    A nd           | Web:      www.OpenFOAM.org                      |
|    \\/     M anipulation  |                                                 |
\*---------------------------------------------------------------------------*/
FoamFile
{
    version     2.0;
    format      ascii;
    class       surfaceScalarField;
    location    "1.2";
    object      phi;
}
// * * * * * * * * * * * * * * * * * * * * * * * * * * * * * * * * * * * * * //

dimensions      [0 3 -1 0 0 0 0];

internalField   nonuniform List<scalar> 
4432
(
3.6786e-06
-3.6786e-06
5.78147e-06
-2.10286e-06
6.88085e-06
-1.09938e-06
7.5645e-06
-6.83653e-07
8.07671e-06
-5.12204e-07
8.43105e-06
-3.54332e-07
8.53404e-06
-1.02978e-07
8.2521e-06
2.81939e-07
7.39418e-06
8.57917e-07
5.80423e-06
1.58994e-06
3.39929e-06
2.40494e-06
2.05899e-07
3.19339e-06
-3.88945e-06
4.09534e-06
-8.40711e-06
4.51766e-06
-1.24227e-05
4.01556e-06
-1.4557e-05
2.1343e-06
-1.36659e-05
-8.9108e-07
-9.59781e-06
-4.06807e-06
-3.44823e-06
-6.14958e-06
2.96348e-06
-6.41173e-06
7.5283e-06
-4.56482e-06
6.91014e-06
6.18151e-07
6.91013e-06
2.70217e-06
-6.38077e-06
4.33299e-06
-3.73369e-06
5.4747e-06
-2.24109e-06
6.36202e-06
-1.57097e-06
7.04528e-06
-1.19545e-06
7.49162e-06
-8.00668e-07
7.60841e-06
-2.19764e-07
7.24357e-06
6.46763e-07
6.23729e-06
1.8642e-06
4.43387e-06
3.39334e-06
1.72836e-06
5.11045e-06
-1.89054e-06
6.81229e-06
-6.12633e-06
8.33112e-06
-1.0432e-05
8.82336e-06
-1.38168e-05
7.40029e-06
-1.53564e-05
3.67399e-06
-1.45741e-05
-1.6734e-06
-1.14867e-05
-7.15549e-06
-6.74617e-06
-1.08901e-05
-1.62566e-06
-1.15322e-05
2.43445e-06
-8.62492e-06
4.13339e-06
-1.0808e-06
1.10435e-05
2.03131e-06
-8.41209e-06
3.47534e-06
-5.17771e-06
4.66983e-06
-3.43558e-06
5.66653e-06
-2.56766e-06
6.43157e-06
-1.96047e-06
6.89847e-06
-1.26756e-06
6.9592e-06
-2.80503e-07
6.47248e-06
1.13349e-06
5.29944e-06
3.03723e-06
3.32341e-06
5.36938e-06
4.81542e-07
7.95231e-06
-3.16324e-06
1.04571e-05
-7.25488e-06
1.24227e-05
-1.12247e-05
1.27932e-05
-1.43222e-05
1.04977e-05
-1.58717e-05
5.22353e-06
-1.54498e-05
-2.09534e-06
-1.30349e-05
-9.57037e-06
-9.18971e-06
-1.47353e-05
-4.94601e-06
-1.57759e-05
-1.27438e-06
-1.22966e-05
1.12879e-06
-3.48396e-06
1.21723e-05
1.53338e-06
-9.94547e-06
2.89537e-06
-6.53969e-06
4.15132e-06
-4.69153e-06
5.23461e-06
-3.65094e-06
6.06232e-06
-2.78817e-06
6.54184e-06
-1.74708e-06
6.5523e-06
-2.90967e-07
5.95791e-06
1.72788e-06
4.63701e-06
4.35812e-06
2.50655e-06
7.49983e-06
-4.49934e-07
1.09088e-05
-4.11124e-06
1.41184e-05
-8.11611e-06
1.64276e-05
-1.19314e-05
1.66085e-05
-1.49358e-05
1.35021e-05
-1.65636e-05
6.85132e-06
-1.64437e-05
-2.21517e-06
-1.45357e-05
-1.14784e-05
-1.13405e-05
-1.79306e-05
-7.75552e-06
-1.93609e-05
-4.43895e-06
-1.56131e-05
-1.6436e-06
-6.27929e-06
1.05287e-05
1.19441e-06
-1.11399e-05
2.53391e-06
-7.87917e-06
3.85923e-06
-6.01683e-06
5.02664e-06
-4.81835e-06
5.91843e-06
-3.67996e-06
6.41643e-06
-2.24508e-06
6.38495e-06
-2.59491e-07
5.68863e-06
2.42419e-06
4.22075e-06
5.82601e-06
1.93008e-06
9.7905e-06
-1.15595e-06
1.39948e-05
-4.87368e-06
1.78361e-05
-8.86488e-06
2.04188e-05
-1.26321e-05
2.03757e-05
-1.56267e-05
1.64967e-05
-1.73401e-05
8.56477e-06
-1.74686e-05
-2.0867e-06
-1.59622e-05
-1.29848e-05
-1.3272e-05
-2.06208e-05
-1.0242e-05
-2.23909e-05
-7.27707e-06
-1.8578e-05
-3.97715e-06
-9.57922e-06
6.55159e-06
1.00333e-06
-1.21432e-05
2.37333e-06
-9.24917e-06
3.78182e-06
-7.42531e-06
5.0404e-06
-6.07693e-06
6.00364e-06
-4.64321e-06
6.52738e-06
-2.76882e-06
6.45872e-06
-1.90827e-07
5.65933e-06
3.22359e-06
4.03566e-06
7.44968e-06
1.56872e-06
1.22574e-05
-1.67178e-06
1.72353e-05
-5.48525e-06
2.16495e-05
-9.5142e-06
2.44478e-05
-1.32854e-05
2.41469e-05
-1.62968e-05
1.95082e-05
-1.8104e-05
1.0372e-05
-1.84437e-05
-1.74702e-06
-1.72216e-05
-1.42069e-05
-1.49623e-05
-2.28801e-05
-1.24358e-05
-2.49173e-05
-9.86195e-06
-2.11519e-05
-6.07902e-06
-1.33622e-05
4.72573e-07
9.55269e-07
-1.30984e-05
2.40518e-06
-1.06991e-05
3.91286e-06
-8.93299e-06
5.2719e-06
-7.43598e-06
6.31323e-06
-5.68454e-06
6.8669e-06
-3.32248e-06
6.76155e-06
-8.54735e-08
5.85388e-06
4.13126e-06
4.06323e-06
9.24032e-06
1.40556e-06
1.49151e-05
-2.00553e-06
2.06464e-05
-5.93317e-06
2.55772e-05
-1.00159e-05
2.85305e-05
-1.37955e-05
2.79265e-05
-1.68113e-05
2.25239e-05
-1.87524e-05
1.23132e-05
-1.92398e-05
-1.25961e-06
-1.8219e-05
-1.52277e-05
-1.63534e-05
-2.47458e-05
-1.42691e-05
-2.70016e-05
-1.21726e-05
-2.32484e-05
-8.2876e-06
-1.72471e-05
-7.81502e-06
1.03803e-06
-1.41365e-05
2.60497e-06
-1.2266e-05
4.22597e-06
-1.0554e-05
5.69029e-06
-8.90031e-06
6.81206e-06
-6.80631e-06
7.39665e-06
-3.90706e-06
7.25364e-06
5.75366e-08
6.234e-06
5.1509e-06
4.27112e-06
1.12032e-05
1.42171e-06
1.77645e-05
-2.15203e-06
2.42201e-05
-6.17595e-06
2.96011e-05
-1.02869e-05
3.26414e-05
-1.40308e-05
3.16704e-05
-1.70659e-05
2.55591e-05
-1.90733e-05
1.43205e-05
-1.9645e-05
-6.8786e-07
-1.88557e-05
-1.6017e-05
-1.73709e-05
-2.62306e-05
-1.56301e-05
-2.87424e-05
-1.39551e-05
-2.49234e-05
-1.06046e-05
-2.05976e-05
-1.84197e-05
9.92128e-06
-9.92128e-06
1.11877e-05
-1.26645e-06
4.13087e-06
7.05683e-06
-8.71337e-06
1.28443e-05
-1.74791e-05
8.76577e-06
-1.23857e-05
-5.09347e-06
2.06172e-07
-1.25918e-05
1.097e-05
-1.07639e-05
1.42476e-05
-3.27759e-06
1.24751e-05
1.77253e-06
1.04724e-05
2.00268e-06
1.02923e-05
1.80096e-07
1.12984e-05
-1.00615e-06
1.20909e-05
-7.92489e-07
1.15084e-05
5.82506e-07
9.49962e-06
2.00882e-06
6.60107e-06
2.89858e-06
3.59054e-06
3.0105e-06
3.59054e-06
6.40432e-06
-1.63256e-05
8.02543e-06
-2.88755e-06
3.14809e-06
1.19342e-05
-6.00103e-06
2.19934e-05
-1.20951e-05
1.48599e-05
-7.09974e-06
-1.00889e-05
2.6412e-06
-2.23328e-05
1.22395e-05
-2.03622e-05
1.55957e-05
-6.63382e-06
1.41694e-05
3.19888e-06
1.2255e-05
3.91703e-06
1.17535e-05
6.81571e-07
1.20647e-05
-1.31729e-06
1.23237e-05
-1.05153e-06
1.18866e-05
1.0197e-06
1.03586e-05
3.53674e-06
7.81424e-06
5.44297e-06
4.39968e-06
6.42506e-06
7.99022e-06
4.28846e-06
-2.06141e-05
6.29842e-06
-4.8975e-06
3.72598e-06
1.45066e-05
-3.40643e-06
2.91258e-05
-7.10345e-06
1.85569e-05
-3.21602e-06
-1.39763e-05
4.27961e-06
-2.98284e-05
1.24189e-05
-2.85014e-05
1.65555e-05
-1.07704e-05
1.53795e-05
4.37485e-06
1.33775e-05
5.91903e-06
1.26787e-05
1.38038e-06
1.25184e-05
-1.15702e-06
1.2281e-05
-8.14135e-07
1.17426e-05
1.55811e-06
1.05288e-05
4.75045e-06
8.41267e-06
7.55915e-06
4.83725e-06
1.00005e-05
1.28275e-05
3.43427e-06
-2.40484e-05
6.15406e-06
-7.61731e-06
5.49008e-06
1.51706e-05
-4.77784e-07
3.50936e-05
-2.72248e-06
2.08016e-05
-6.01899e-08
-1.66386e-05
5.61953e-06
-3.55081e-05
1.18077e-05
-3.46896e-05
1.61773e-05
-1.514e-05
1.63273e-05
4.2249e-06
1.44376e-05
7.80867e-06
1.35305e-05
2.28757e-06
1.29455e-05
-5.7208e-07
1.22309e-05
-9.9553e-08
1.15031e-05
2.28594e-06
1.05363e-05
5.71722e-06
8.88283e-06
9.21263e-06
5.30772e-06
1.35756e-05
1.81352e-05
3.48337e-06
-2.75317e-05
6.91801e-06
-1.10519e-05
7.48391e-06
1.46047e-05
2.99676e-06
3.95808e-05
1.41461e-06
2.23837e-05
2.92051e-06
-1.81445e-05
7.17437e-06
-3.9762e-05
1.17823e-05
-3.92976e-05
1.47399e-05
-1.80975e-05
1.59092e-05
3.05557e-06
1.5344e-05
8.37379e-06
1.45588e-05
3.07278e-06
1.34151e-05
5.7163e-07
1.21446e-05
1.171e-06
1.10628e-05
3.36777e-06
1.02613e-05
6.51867e-06
9.19083e-06
1.02831e-05
6.15808e-06
1.66084e-05
2.42933e-05
4.21402e-06
-3.17457e-05
8.05442e-06
-1.48924e-05
9.01163e-06
1.36475e-05
6.59333e-06
4.19991e-05
5.48167e-06
2.34954e-05
6.08329e-06
-1.87461e-05
9.01697e-06
-4.26957e-05
1.20845e-05
-4.23651e-05
1.31257e-05
-1.91388e-05
1.38749e-05
2.3064e-06
1.5273e-05
6.97566e-06
1.58196e-05
2.52614e-06
1.40963e-05
2.295e-06
1.19156e-05
3.35166e-06
1.02662e-05
5.01713e-06
9.35736e-06
7.42752e-06
9.07988e-06
1.05606e-05
8.13757e-06
1.75507e-05
3.24308e-05
5.75581e-06
-3.75015e-05
9.24524e-06
-1.83818e-05
1.08485e-05
1.20442e-05
1.03892e-05
4.24584e-05
9.77747e-06
2.41072e-05
9.60633e-06
-1.85749e-05
1.11942e-05
-4.42835e-05
1.25929e-05
-4.37639e-05
1.18312e-05
-1.8377e-05
1.14888e-05
2.64882e-06
1.40589e-05
4.40553e-06
1.64564e-05
1.2865e-07
1.52231e-05
3.52831e-06
1.14904e-05
7.08433e-06
8.51568e-06
7.99183e-06
6.65149e-06
9.29171e-06
7.36185e-06
9.85028e-06
1.16033e-05
1.33093e-05
4.40342e-05
8.04606e-06
-4.55476e-05
9.92294e-06
-2.02587e-05
1.23827e-05
9.58448e-06
1.38624e-05
4.09787e-05
1.44234e-05
2.35461e-05
1.34152e-05
-1.75667e-05
1.36781e-05
-4.45464e-05
1.36166e-05
-4.37023e-05
1.12039e-05
-1.59643e-05
9.91872e-06
3.93397e-06
1.27496e-05
1.57467e-06
1.56081e-05
-2.72987e-06
1.60607e-05
3.07567e-06
1.0391e-05
1.2754e-05
3.92172e-06
1.44611e-05
-1.12838e-06
1.43418e-05
2.28751e-06
6.4344e-06
9.83359e-06
5.7632e-06
5.38678e-05
2.77658e-06
-1.6913e-05
6.538e-06
-1.60274e-05
1.03635e-05
-1.43795e-05
1.37958e-05
-1.23326e-05
1.64225e-05
-9.43307e-06
1.77613e-05
-5.24587e-06
1.73356e-05
4.83313e-07
1.48045e-05
7.68192e-06
1.00751e-05
1.59326e-05
3.43225e-06
2.44074e-05
-4.60205e-06
3.22544e-05
-1.33086e-05
3.83076e-05
-2.19419e-05
4.12747e-05
-2.97725e-05
3.9501e-05
-3.61243e-05
3.19109e-05
-4.01973e-05
1.83934e-05
-4.15137e-05
6.28571e-07
-4.12029e-05
-1.63278e-05
-3.92886e-05
-2.81449e-05
-3.6336e-05
-3.1695e-05
-3.30758e-05
-2.81837e-05
-2.70675e-05
-2.66058e-05
-2.94349e-05
-1.60522e-05
3.71969e-06
-2.06327e-05
7.77474e-06
-2.00825e-05
1.17094e-05
-1.83142e-05
1.52619e-05
-1.5885e-05
1.80152e-05
-1.21864e-05
1.94039e-05
-6.63456e-06
1.88499e-05
1.03732e-06
1.59497e-05
1.05821e-05
1.06563e-05
2.1226e-05
3.51391e-06
3.15498e-05
-4.7019e-06
4.04702e-05
-1.30694e-05
4.66751e-05
-2.09964e-05
4.92017e-05
-2.80825e-05
4.65871e-05
-3.34e-05
3.72284e-05
-3.62434e-05
2.12369e-05
-3.81201e-05
2.50533e-06
-4.05347e-05
-1.39133e-05
-4.17485e-05
-2.69312e-05
-4.0268e-05
-3.31754e-05
-3.605e-05
-3.24018e-05
-2.87352e-05
-3.39206e-05
-3.8032e-05
-2.01381e-05
4.13489e-06
-2.47676e-05
7.89585e-06
-2.38435e-05
1.15396e-05
-2.19579e-05
1.49261e-05
-1.92716e-05
1.76421e-05
-1.49024e-05
1.90371e-05
-8.02954e-06
1.84211e-05
1.65336e-06
1.53484e-05
1.36548e-05
9.63529e-06
2.69391e-05
2.44266e-06
3.87425e-05
-5.31088e-06
4.82238e-05
-1.2177e-05
5.35413e-05
-1.77745e-05
5.47991e-05
-2.25159e-05
5.13285e-05
-2.55812e-05
4.02936e-05
-2.60947e-05
2.17504e-05
-2.84999e-05
4.91053e-06
-3.50822e-05
-7.33098e-06
-4.27615e-05
-1.92519e-05
-4.56714e-05
-3.02655e-05
-4.23898e-05
-3.56834e-05
-3.43368e-05
-4.19736e-05
-4.38473e-05
-2.85215e-05
3.23756e-06
-2.80052e-05
5.98109e-06
-2.6587e-05
8.89987e-06
-2.48767e-05
1.17917e-05
-2.21634e-05
1.42393e-05
-1.73501e-05
1.56161e-05
-9.40635e-06
1.50334e-05
2.23612e-06
1.19524e-05
1.67358e-05
6.31981e-06
3.25717e-05
-2.32916e-07
4.52952e-05
-6.68777e-06
5.46786e-05
-1.08106e-05
5.76641e-05
-1.2555e-05
5.65436e-05
-1.33325e-05
5.2106e-05
-1.26485e-05
3.96096e-05
-9.23344e-06
1.83353e-05
-9.33946e-06
5.01654e-06
-2.10551e-05
4.38459e-06
-3.87814e-05
-1.52552e-06
-4.78078e-05
-2.12391e-05
-4.83116e-05
-3.51797e-05
-4.27654e-05
-4.75198e-05
-5.05956e-05
-3.60171e-05
3.87239e-07
-2.83924e-05
1.49677e-06
-2.76965e-05
3.17742e-06
-2.65573e-05
5.08122e-06
-2.40672e-05
6.88936e-06
-1.91582e-05
7.87426e-06
-1.03912e-05
7.675e-06
2.43538e-06
5.62272e-06
1.8788e-05
1.12937e-06
3.70651e-05
-3.91101e-06
5.03355e-05
-8.39929e-06
5.91669e-05
-9.74908e-06
5.90139e-05
-7.62834e-06
5.44229e-05
-2.79388e-06
4.72715e-05
3.94743e-06
3.28683e-05
8.44008e-06
1.38426e-05
9.94897e-06
3.50768e-06
7.09427e-06
7.23936e-06
-8.75283e-06
1.43216e-05
-3.13235e-05
1.33158e-06
-4.76684e-05
-1.88347e-05
-4.55369e-05
-4.96513e-05
-5.65506e-05
-3.9582e-05
-3.67907e-06
-2.47134e-05
-5.07468e-06
-2.63009e-05
-5.5514e-06
-2.60806e-05
-6.01191e-06
-2.36067e-05
-6.05645e-06
-1.91137e-05
-6.16359e-06
-1.02841e-05
-6.25835e-06
2.53014e-06
-6.60606e-06
1.91358e-05
-7.24868e-06
3.77077e-05
-9.10057e-06
5.21874e-05
-1.09502e-05
6.10165e-05
-1.26421e-05
6.07057e-05
-1.09761e-05
5.27569e-05
-2.84374e-06
3.91392e-05
7.31779e-06
2.27067e-05
1.31343e-05
8.02605e-06
1.36749e-05
2.96704e-06
1.47944e-05
6.11984e-06
1.38325e-05
1.52836e-05
-2.28178e-06
1.74458e-05
-2.65713e-05
5.45477e-06
-4.1103e-05
-3.51195e-05
-5.76039e-05
-4.00498e-05
-7.96012e-06
-1.67533e-05
-1.4347e-05
-1.99141e-05
-1.89227e-05
-2.15049e-05
-2.44256e-05
-1.81038e-05
-2.97255e-05
-1.38137e-05
-3.33053e-05
-6.70435e-06
-3.52534e-05
4.47827e-06
-3.45431e-05
1.84255e-05
-2.96618e-05
3.28263e-05
-2.73342e-05
4.98599e-05
-2.78576e-05
6.15399e-05
-3.1693e-05
6.45411e-05
-3.18112e-05
5.2875e-05
-2.57192e-05
3.30472e-05
-1.92784e-05
1.62659e-05
-1.4431e-05
3.17869e-06
-9.30715e-06
-2.15681e-06
-4.58787e-06
1.40058e-06
-3.5463e-06
1.4242e-05
-1.15796e-05
2.54791e-05
-2.08206e-05
1.46958e-05
-2.78038e-05
-2.81363e-05
-5.32713e-05
-3.21365e-05
-1.24723e-05
-4.28103e-06
-3.56137e-05
3.22744e-06
-5.17894e-05
-5.32927e-06
-5.82082e-05
-1.1685e-05
-6.03949e-05
-1.16271e-05
-6.25898e-05
-4.5094e-06
-6.42088e-05
6.09721e-06
-6.42948e-05
1.85114e-05
-6.17413e-05
3.02729e-05
-5.46662e-05
4.27848e-05
-4.94619e-05
5.63356e-05
-4.85276e-05
6.36068e-05
-4.50453e-05
4.93927e-05
-3.99342e-05
2.79361e-05
-3.55687e-05
1.19004e-05
-3.18545e-05
-5.35555e-07
-2.89005e-05
-5.11077e-06
-2.61063e-05
-1.39354e-06
-2.61222e-05
1.4258e-05
-3.11596e-05
3.05164e-05
-2.96579e-05
1.31943e-05
-2.86856e-05
-2.91085e-05
-5.47721e-05
-2.71846e-05
-6.34034e-05
5.91225e-05
-8.57973e-05
2.56212e-05
-8.4839e-05
-6.28741e-06
-8.13851e-05
-1.5139e-05
-8.05121e-05
-1.25001e-05
-8.1332e-05
-3.68953e-06
-8.23048e-05
7.07002e-06
-8.25621e-05
1.87688e-05
-8.02279e-05
2.79386e-05
-7.50629e-05
3.76198e-05
-6.75646e-05
4.88373e-05
-5.85372e-05
5.45795e-05
-5.01316e-05
4.09871e-05
-4.428e-05
2.20845e-05
-4.08303e-05
8.45065e-06
-3.74437e-05
-3.92218e-06
-3.70272e-05
-5.52726e-06
-4.05309e-05
2.11014e-06
-4.10858e-05
1.48128e-05
-3.64633e-05
2.5894e-05
-2.93327e-05
6.06345e-06
-2.8204e-05
-3.02373e-05
-5.44452e-05
-2.85311e-05
-6.76528e-05
0.000126775
-8.25139e-05
4.04818e-05
-8.7509e-05
-1.2923e-06
-8.69374e-05
-1.57105e-05
-8.67375e-05
-1.27e-05
-9.11454e-05
7.18344e-07
-9.43588e-05
1.02833e-05
-9.44298e-05
1.88399e-05
-9.11946e-05
2.47034e-05
-8.55891e-05
3.20143e-05
-7.64042e-05
3.96524e-05
-6.2431e-05
4.06062e-05
-5.04937e-05
2.90498e-05
-4.26532e-05
1.4244e-05
-3.71673e-05
2.96485e-06
-3.98347e-05
-1.25466e-06
-4.69553e-05
1.59325e-06
-5.22386e-05
7.39332e-06
-5.0456e-05
1.30302e-05
-3.72986e-05
1.27366e-05
-2.66267e-05
-4.6084e-06
-2.60712e-05
-3.07929e-05
-5.04546e-05
-3.00618e-05
-5.06813e-05
0.000177457
-6.81754e-05
5.79759e-05
-7.43983e-05
4.93058e-06
-8.13583e-05
-8.75058e-06
-9.2543e-05
-1.51516e-06
-9.92565e-05
7.43188e-06
-0.000102813
1.38397e-05
-0.000102132
1.8159e-05
-9.90171e-05
2.15885e-05
-9.26759e-05
2.56731e-05
-8.03158e-05
2.72924e-05
-6.16833e-05
2.19738e-05
-4.65782e-05
1.39447e-05
-4.37673e-05
1.14332e-05
-5.0665e-05
9.86263e-06
-5.83175e-05
6.398e-06
-6.23467e-05
5.6227e-06
-6.14839e-05
6.53036e-06
-5.48398e-05
6.38595e-06
-4.34748e-05
1.37152e-06
-3.50434e-05
-1.30399e-05
-3.33749e-05
-3.24615e-05
-4.81498e-05
-3.56796e-05
-2.2546e-05
0.000200003
-3.85154e-05
7.39448e-05
-4.97123e-05
1.61274e-05
-6.46947e-05
6.23159e-06
-7.73316e-05
1.1122e-05
-8.60198e-05
1.61202e-05
-9.1914e-05
1.9734e-05
-9.52536e-05
2.14987e-05
-9.5661e-05
2.19958e-05
-9.19934e-05
2.20057e-05
-8.38399e-05
1.91391e-05
-7.58091e-05
1.39429e-05
-7.10011e-05
9.13666e-06
-6.81507e-05
8.5831e-06
-6.68537e-05
8.56585e-06
-6.67585e-05
6.30249e-06
-6.51529e-05
4.01686e-06
-6.07291e-05
2.10656e-06
-5.32487e-05
-1.09443e-06
-4.418e-05
-7.6972e-06
-3.76596e-05
-1.95604e-05
-3.58319e-05
-3.42892e-05
-4.75228e-05
-3.6459e-05
6.14606e-06
0.000193858
-8.47602e-06
8.85667e-05
-2.92079e-05
3.6859e-05
-4.74311e-05
2.44547e-05
-5.91618e-05
2.28526e-05
-6.70237e-05
2.3982e-05
-7.24495e-05
2.51601e-05
-7.60443e-05
2.50934e-05
-7.7579e-05
2.35306e-05
-7.64252e-05
2.08522e-05
-7.38583e-05
1.65722e-05
-7.15627e-05
1.16471e-05
-7.02071e-05
7.7813e-06
-6.79961e-05
6.37255e-06
-6.48211e-05
5.3909e-06
-6.14843e-05
2.96579e-06
-5.74344e-05
-3.28417e-08
-5.19838e-05
-3.34389e-06
-4.524e-05
-7.83823e-06
-3.83092e-05
-1.4628e-05
-3.34631e-05
-2.44066e-05
-3.1848e-05
-3.59043e-05
-4.70713e-05
-3.22995e-05
2.24916e-05
0.000171366
7.25691e-06
0.000103801
-1.21953e-05
5.6311e-05
-2.74788e-05
3.97382e-05
-3.80716e-05
3.34453e-05
-4.53563e-05
3.12666e-05
-5.02841e-05
3.0088e-05
-5.35261e-05
2.83354e-05
-5.54151e-05
2.54195e-05
-5.59667e-05
2.14038e-05
-5.58914e-05
1.64969e-05
-5.57304e-05
1.14861e-05
-5.53068e-05
7.3579e-06
-5.35972e-05
4.66322e-06
-5.05653e-05
2.35953e-06
-4.69243e-05
-6.74979e-07
-4.27451e-05
-4.21179e-06
-3.78925e-05
-8.19624e-06
-3.26377e-05
-1.30929e-05
-2.78068e-05
-1.94589e-05
-2.46668e-05
-2.75466e-05
-2.38545e-05
-3.67167e-05
-4.60263e-05
-2.48995e-05
2.56955e-05
0.00014567
1.90799e-05
0.000110417
4.54313e-06
7.08477e-05
-7.75914e-06
5.20406e-05
-1.70877e-05
4.2774e-05
-2.36604e-05
3.78394e-05
-2.80376e-05
3.44653e-05
-3.08454e-05
3.11432e-05
-3.25883e-05
2.71626e-05
-3.35971e-05
2.24125e-05
-3.42185e-05
1.71183e-05
-3.45907e-05
1.18585e-05
-3.44583e-05
7.22592e-06
-3.32616e-05
3.46637e-06
-3.09792e-05
7.71075e-08
-2.80947e-05
-3.55963e-06
-2.48275e-05
-7.47897e-06
-2.1285e-05
-1.17386e-05
-1.77795e-05
-1.65981e-05
-1.49022e-05
-2.23359e-05
-1.34023e-05
-2.90463e-05
-1.36832e-05
-3.64358e-05
-4.41004e-05
-1.5609e-05
2.44488e-05
0.00012122
2.54267e-05
0.000109439
1.72167e-05
7.90575e-05
8.48318e-06
6.07739e-05
1.23534e-06
5.0022e-05
-4.07012e-06
4.31449e-05
-7.61327e-06
3.80086e-05
-9.81479e-06
3.33448e-05
-1.11345e-05
2.84824e-05
-1.19396e-05
2.32175e-05
-1.24929e-05
1.76716e-05
-1.28359e-05
1.22017e-05
-1.27815e-05
7.17164e-06
-1.20417e-05
2.72639e-06
-1.06018e-05
-1.3629e-06
-8.74335e-06
-5.418e-06
-6.67561e-06
-9.5464e-06
-4.57613e-06
-1.38378e-05
-2.72616e-06
-1.84479e-05
-1.53997e-06
-2.3522e-05
-1.48094e-06
-2.91053e-05
-2.83301e-06
-3.50836e-05
-4.13177e-05
-5.61555e-06
2.07245e-05
0.000100495
2.70533e-05
0.00010311
2.46463e-05
8.14643e-05
1.99979e-05
6.54224e-05
1.55033e-05
5.45166e-05
1.20103e-05
4.66377e-05
9.6697e-06
4.03493e-05
8.29151e-06
3.4723e-05
7.56109e-06
2.92127e-05
7.17842e-06
2.36001e-05
6.93396e-06
1.79161e-05
6.77682e-06
1.23592e-05
6.80611e-06
7.14265e-06
7.16939e-06
2.3632e-06
7.87601e-06
-2.06948e-06
8.77784e-06
-6.3197e-06
9.71803e-06
-1.04864e-05
1.0534e-05
-1.46536e-05
1.1006e-05
-1.89199e-05
1.08513e-05
-2.33674e-05
9.77288e-06
-2.80268e-05
7.56026e-06
-3.28709e-05
-3.78811e-05
4.12375e-06
1.69486e-05
8.35468e-05
2.60121e-05
9.40471e-05
2.79311e-05
7.95451e-05
2.70012e-05
6.63525e-05
2.53377e-05
5.61799e-05
2.38721e-05
4.81031e-05
2.29311e-05
4.12904e-05
2.251e-05
3.51441e-05
2.24433e-05
2.92794e-05
2.25309e-05
2.35128e-05
2.26184e-05
1.78289e-05
2.26522e-05
1.23257e-05
2.26718e-05
7.12307e-06
2.27513e-05
2.28382e-06
2.29032e-05
-2.22148e-06
2.30572e-05
-6.47373e-06
2.31145e-05
-1.05437e-05
2.29562e-05
-1.44953e-05
2.24271e-05
-1.83909e-05
2.13377e-05
-2.2278e-05
1.94906e-05
-2.61796e-05
1.67242e-05
-3.01044e-05
-3.40836e-05
1.29268e-05
1.40174e-05
6.95293e-05
2.39704e-05
8.40937e-05
2.85609e-05
7.49549e-05
3.04224e-05
6.44911e-05
3.11429e-05
5.54591e-05
3.15248e-05
4.77213e-05
3.19265e-05
4.08887e-05
3.24419e-05
3.46286e-05
3.30176e-05
2.87037e-05
3.35453e-05
2.29851e-05
3.39301e-05
1.74442e-05
3.4132e-05
1.21239e-05
3.41676e-05
7.08747e-06
3.40784e-05
2.37307e-06
3.38822e-05
-2.02541e-06
3.35536e-05
-6.14509e-06
3.30394e-05
-1.00296e-05
3.22641e-05
-1.372e-05
3.11251e-05
-1.72518e-05
2.94966e-05
-2.06494e-05
2.72435e-05
-2.39263e-05
2.42401e-05
-2.71007e-05
-3.02172e-05
2.03739e-05
1.16774e-05
5.7852e-05
2.15592e-05
7.42115e-05
2.75827e-05
6.89317e-05
3.12666e-05
6.08069e-05
3.37115e-05
5.3014e-05
3.55273e-05
4.59053e-05
3.70254e-05
3.93904e-05
3.83304e-05
3.33236e-05
3.94545e-05
2.75796e-05
4.03587e-05
2.20807e-05
4.10002e-05
1.68026e-05
4.13626e-05
1.17616e-05
4.1461e-05
6.9892e-06
4.13263e-05
2.50784e-06
4.09811e-05
-1.68013e-06
4.04244e-05
-5.58823e-06
3.96333e-05
-9.23834e-06
3.85643e-05
-1.26508e-05
3.71526e-05
-1.58399e-05
3.53151e-05
-1.88116e-05
3.29577e-05
-2.15687e-05
2.99827e-05
-2.41256e-05
-2.65235e-05
2.62892e-05
9.55371e-06
4.82983e-05
1.89118e-05
6.48533e-05
2.56023e-05
6.22412e-05
3.03647e-05
5.60443e-05
3.39223e-05
4.94563e-05
3.67169e-05
4.31107e-05
3.89968e-05
3.71105e-05
4.08863e-05
3.14343e-05
4.24314e-05
2.60346e-05
4.36381e-05
2.08741e-05
4.45024e-05
1.59382e-05
4.50304e-05
1.12336e-05
4.52431e-05
6.77664e-06
4.51696e-05
2.58146e-06
4.48348e-05
-1.34518e-06
4.42497e-05
-5.00298e-06
4.34087e-05
-8.39725e-06
4.22892e-05
-1.15313e-05
4.08518e-05
-1.44024e-05
3.90423e-05
-1.70019e-05
3.67953e-05
-1.93216e-05
3.40371e-05
-2.13673e-05
-2.3171e-05
3.06847e-05
7.59228e-06
4.07057e-05
1.6184e-05
5.62616e-05
2.30601e-05
5.53647e-05
2.83814e-05
5.07229e-05
3.25805e-05
4.52572e-05
3.59693e-05
3.97218e-05
3.87442e-05
3.43358e-05
4.10206e-05
2.9158e-05
4.28613e-05
2.4194e-05
4.4299e-05
1.94364e-05
4.53548e-05
1.48825e-05
4.60503e-05
1.05382e-05
4.64122e-05
6.4148e-06
4.64693e-05
2.52444e-06
4.62465e-05
-1.12233e-06
4.57596e-05
-4.51612e-06
4.50123e-05
-7.6499e-06
4.39948e-05
-1.05137e-05
4.26845e-05
-1.3092e-05
4.10473e-05
-1.53645e-05
3.90394e-05
-1.73135e-05
3.6608e-05
-1.89357e-05
-2.02532e-05
3.36904e-05
5.94719e-06
3.47581e-05
1.36394e-05
4.85692e-05
2.03559e-05
4.86481e-05
2.58591e-05
4.52195e-05
3.03541e-05
4.07621e-05
3.40484e-05
3.60274e-05
3.70952e-05
3.12889e-05
3.95993e-05
2.66538e-05
4.16302e-05
2.21629e-05
4.32347e-05
1.78318e-05
4.44474e-05
1.36698e-05
4.52986e-05
9.68702e-06
4.58178e-05
5.89568e-06
4.60327e-05
2.30942e-06
4.59674e-05
-1.05704e-06
4.5639e-05
-4.18769e-06
4.50557e-05
-7.06656e-06
4.4216e-05
-9.67381e-06
4.31085e-05
-1.19844e-05
4.17138e-05
-1.39696e-05
4.00044e-05
-1.56039e-05
3.79456e-05
-1.68767e-05
-1.78018e-05
3.54944e-05
4.72518e-06
3.00329e-05
1.14878e-05
4.18064e-05
1.77985e-05
4.23377e-05
2.32034e-05
3.98148e-05
2.77405e-05
3.6225e-05
3.15306e-05
3.22374e-05
3.46868e-05
2.81327e-05
3.72996e-05
2.40409e-05
3.94374e-05
2.00249e-05
4.11516e-05
1.61176e-05
4.24823e-05
1.23392e-05
4.34632e-05
8.70609e-06
4.41243e-05
5.23451e-06
4.44921e-05
1.94153e-06
4.4589e-05
-1.15391e-06
4.44323e-05
-4.03085e-06
4.40326e-05
-6.66671e-06
4.33936e-05
-9.03459e-06
4.25121e-05
-1.11027e-05
4.13791e-05
-1.28364e-05
3.99802e-05
-1.42049e-05
3.82953e-05
-1.51918e-05
-1.58049e-05
3.62985e-05
3.8864e-06
2.61466e-05
9.77737e-06
3.59154e-05
1.55409e-05
3.65747e-05
2.0656e-05
3.46999e-05
2.50562e-05
3.18251e-05
2.87932e-05
2.85006e-05
3.19425e-05
2.49834e-05
3.45761e-05
2.14071e-05
3.6755e-05
1.78459e-05
3.85286e-05
1.4344e-05
3.99372e-05
1.09306e-05
4.10144e-05
7.62882e-06
4.17892e-05
4.45956e-06
4.22865e-05
1.44401e-06
4.25275e-05
-1.3949e-06
4.25291e-05
-4.03236e-06
4.23035e-05
-6.44095e-06
4.18577e-05
-8.58877e-06
4.11947e-05
-1.04395e-05
4.0313e-05
-1.19548e-05
3.92083e-05
-1.31001e-05
3.78722e-05
-1.38557e-05
-1.42249e-05
3.62922e-05
3.31054e-06
2.2836e-05
8.43228e-06
3.0794e-05
1.36002e-05
3.1407e-05
1.83179e-05
2.99821e-05
2.24671e-05
2.7676e-05
2.60507e-05
2.49171e-05
2.91113e-05
2.19228e-05
3.17006e-05
1.88176e-05
3.38684e-05
1.56781e-05
3.5658e-05
1.25545e-05
3.71063e-05
9.48223e-06
3.82451e-05
6.48997e-06
3.91013e-05
3.60317e-06
3.96983e-05
8.46829e-07
4.00558e-05
-1.7526e-06
4.01908e-05
-4.16731e-06
4.01161e-05
-6.36634e-06
3.98417e-05
-8.31439e-06
3.93744e-05
-9.97229e-06
3.8719e-05
-1.12994e-05
3.78783e-05
-1.22593e-05
3.68528e-05
-1.28301e-05
-1.30122e-05
3.56402e-05
2.88705e-06
1.99489e-05
7.3458e-06
2.63357e-05
1.19302e-05
2.68225e-05
1.6208e-05
2.57043e-05
2.0044e-05
2.384e-05
2.34115e-05
2.15497e-05
2.63269e-05
1.90073e-05
2.88236e-05
1.63209e-05
3.09384e-05
1.35633e-05
3.2707e-05
1.0786e-05
3.41611e-05
8.02806e-06
3.5329e-05
5.32195e-06
3.62354e-05
2.69665e-06
3.69018e-05
1.80309e-07
3.73469e-05
-2.19782e-06
3.75871e-05
-4.40764e-06
3.76363e-05
-6.41561e-06
3.75061e-05
-8.18424e-06
3.72065e-05
-9.67275e-06
3.67466e-05
-1.08395e-05
3.61345e-05
-1.16472e-05
3.53773e-05
-1.20729e-05
-1.21145e-05
3.44796e-05
2.55006e-06
1.7399e-05
6.43795e-06
2.2448e-05
1.048e-05
2.27802e-05
1.4315e-05
2.18692e-05
1.78112e-05
2.03439e-05
2.0926e-05
1.8435e-05
2.36583e-05
1.6275e-05
2.60259e-05
1.39533e-05
2.80542e-05
1.1535e-05
2.97703e-05
9.06973e-06
3.12005e-05
6.59777e-06
3.23689e-05
4.15347e-06
3.32974e-05
1.76816e-06
3.40054e-05
-5.27755e-07
3.45108e-05
-2.70319e-06
3.48293e-05
-4.72626e-06
3.49753e-05
-6.56171e-06
3.49618e-05
-8.17081e-06
3.48011e-05
-9.51204e-06
3.45051e-05
-1.05436e-05
3.40861e-05
-1.12282e-05
3.35554e-05
-1.15421e-05
-1.14817e-05
3.29227e-05
2.2699e-06
1.51294e-05
5.66393e-06
1.90541e-05
9.21352e-06
1.92305e-05
1.26228e-05
1.846e-05
1.57729e-05
1.71939e-05
1.86159e-05
1.55921e-05
2.11398e-05
1.37511e-05
2.33513e-05
1.17418e-05
2.52662e-05
9.62003e-06
2.69038e-05
7.43192e-06
2.82847e-05
5.21675e-06
2.94286e-05
3.00942e-06
3.03545e-05
8.42299e-07
3.10796e-05
-1.25288e-06
3.16205e-05
-3.24421e-06
3.19927e-05
-5.09851e-06
3.22105e-05
-6.77961e-06
3.22878e-05
-8.24822e-06
3.22385e-05
-9.46276e-06
3.20767e-05
-1.03818e-05
3.18172e-05
-1.09687e-05
3.14742e-05
-1.11992e-05
-1.10683e-05
3.10608e-05
2.03433e-06
1.30952e-05
4.99973e-06
1.60887e-05
8.1059e-06
1.61244e-05
1.11145e-05
1.54516e-05
1.39238e-05
1.43848e-05
1.64871e-05
1.30288e-05
1.87873e-05
1.14509e-05
2.08235e-05
9.70543e-06
2.26042e-05
7.8392e-06
2.41422e-05
5.89373e-06
2.54525e-05
3.90629e-06
2.65507e-05
1.91107e-06
2.74525e-05
-5.95836e-08
2.81732e-05
-1.97369e-06
2.87281e-05
-3.79918e-06
2.91317e-05
-5.50231e-06
2.93986e-05
-7.04659e-06
2.9543e-05
-8.39276e-06
2.95799e-05
-9.49966e-06
2.95247e-05
-1.03266e-05
2.93938e-05
-1.08378e-05
2.92036e-05
-1.1009e-05
-1.08338e-05
2.89692e-05
1.83573e-06
1.12596e-05
4.42805e-06
1.34964e-05
7.13593e-06
1.34166e-05
9.77169e-06
1.28159e-05
1.22522e-05
1.19043e-05
1.45363e-05
1.07447e-05
1.66054e-05
9.38177e-06
1.84545e-05
7.85624e-06
2.00864e-05
6.20711e-06
2.15087e-05
4.4713e-06
2.27314e-05
2.68344e-06
2.37662e-05
8.76101e-07
2.46258e-05
-9.19259e-07
2.53234e-05
-2.67148e-06
2.5873e-05
-4.34889e-06
2.62884e-05
-5.91786e-06
2.65838e-05
-7.34211e-06
2.67738e-05
-8.58283e-06
2.68738e-05
-9.59963e-06
2.69e-05
-1.03529e-05
2.687e-05
-1.08078e-05
2.68012e-05
-1.09401e-05
-1.07427e-05
2.67102e-05
1.66609e-06
9.59352e-06
3.9319e-06
1.12305e-05
6.28207e-06
1.10665e-05
8.57366e-06
1.05244e-05
1.07424e-05
9.73557e-06
1.27543e-05
8.73268e-06
1.45923e-05
7.5437e-06
1.62491e-05
6.19935e-06
1.77238e-05
4.73236e-06
1.90193e-05
3.17567e-06
2.01417e-05
1.56102e-06
2.10989e-05
-8.12318e-08
2.1901e-05
-1.72147e-06
2.25595e-05
-3.33009e-06
2.30869e-05
-4.87642e-06
2.34964e-05
-6.32747e-06
2.38019e-05
-7.64763e-06
2.40179e-05
-8.79883e-06
2.41599e-05
-9.74168e-06
2.42447e-05
-1.04378e-05
2.42903e-05
-1.08533e-05
2.43147e-05
-1.09646e-05
-1.07635e-05
2.43355e-05
1.51672e-06
8.07674e-06
3.49416e-06
9.25285e-06
5.52309e-06
9.03758e-06
7.49963e-06
8.54788e-06
9.37707e-06
7.85807e-06
1.11296e-05
6.98007e-06
1.27427e-05
5.93063e-06
1.42083e-05
4.73371e-06
1.55227e-05
3.4179e-06
1.66853e-05
2.01303e-06
1.76984e-05
5.4791e-07
1.8567e-05
-9.49925e-07
1.9299e-05
-2.45359e-06
1.99045e-05
-3.93565e-06
2.0395e-05
-5.36689e-06
2.07829e-05
-6.71542e-06
2.10818e-05
-7.94651e-06
2.1306e-05
-9.02303e-06
2.14709e-05
-9.90669e-06
2.15934e-05
-1.05604e-05
2.16915e-05
-1.09515e-05
2.17837e-05
-1.10569e-05
-1.08678e-05
2.1888e-05
1.37975e-06
6.69683e-06
3.09989e-06
7.53257e-06
4.84089e-06
7.29662e-06
6.53175e-06
6.85707e-06
8.14122e-06
6.24861e-06
9.65126e-06
5.47007e-06
1.10505e-05
4.53144e-06
1.2331e-05
3.45319e-06
1.34869e-05
2.262e-06
1.45142e-05
9.85692e-07
1.54121e-05
-3.50088e-07
1.61835e-05
-1.72146e-06
1.6835e-05
-3.10507e-06
1.73754e-05
-4.47616e-06
1.78159e-05
-5.8073e-06
1.81683e-05
-7.06784e-06
1.84458e-05
-8.22399e-06
1.86623e-05
-9.23959e-06
1.88329e-05
-1.00775e-05
1.89743e-05
-1.07019e-05
1.9104e-05
-1.10815e-05
1.92407e-05
-1.11938e-05
-1.10296e-05
1.94023e-05
1.24972e-06
5.44695e-06
2.73898e-06
6.04329e-06
4.22338e-06
5.8123e-06
5.658e-06
5.42251e-06
7.02423e-06
4.88243e-06
8.31108e-06
4.18325e-06
9.51072e-06
3.33178e-06
1.06157e-05
2.34813e-06
1.16178e-05
1.25986e-06
1.25097e-05
9.36327e-08
1.32883e-05
-1.12877e-06
1.39553e-05
-2.38858e-06
1.45168e-05
-3.66662e-06
1.49817e-05
-4.94108e-06
1.53608e-05
-6.18634e-06
1.56657e-05
-7.37278e-06
1.59091e-05
-8.46741e-06
1.61042e-05
-9.43485e-06
1.62656e-05
-1.0239e-05
1.64091e-05
-1.08455e-05
1.65517e-05
-1.12243e-05
1.67117e-05
-1.13539e-05
-1.12248e-05
1.69067e-05
1.12536e-06
4.3215e-06
2.40877e-06
4.75997e-06
3.6669e-06
4.55423e-06
4.87404e-06
4.21539e-06
6.02148e-06
3.73501e-06
7.10482e-06
3.09987e-06
8.12024e-06
2.31621e-06
9.06068e-06
1.40753e-06
9.91454e-06
4.05855e-07
1.06712e-05
-6.63128e-07
1.13259e-05
-1.78359e-06
1.18811e-05
-2.94383e-06
1.23438e-05
-4.12936e-06
1.27237e-05
-5.3211e-06
1.3032e-05
-6.49462e-06
1.32799e-05
-7.62076e-06
1.34793e-05
-8.66682e-06
1.36423e-05
-9.598e-06
1.37824e-05
-1.03792e-05
1.3914e-05
-1.09772e-05
1.40533e-05
-1.13637e-05
1.42175e-05
-1.15182e-05
-1.14311e-05
1.44238e-05
1.01185e-06
3.30967e-06
2.11626e-06
3.65571e-06
3.17776e-06
3.49275e-06
4.18404e-06
3.2091e-06
5.13454e-06
2.78448e-06
6.03188e-06
2.20239e-06
6.8773e-06
1.47058e-06
7.66324e-06
6.21406e-07
8.3725e-06
-3.03531e-07
8.99043e-06
-1.28112e-06
9.51392e-06
-2.30711e-06
9.94827e-06
-3.37823e-06
1.03035e-05
-4.48466e-06
1.05911e-05
-5.60871e-06
1.08221e-05
-6.7257e-06
1.10071e-05
-7.80585e-06
1.11564e-05
-8.81615e-06
1.12805e-05
-9.72209e-06
1.13907e-05
-1.04895e-05
1.15e-05
-1.10866e-05
1.16229e-05
-1.14865e-05
1.17752e-05
-1.16705e-05
-1.1629e-05
1.1973e-05
9.23627e-07
2.38613e-06
1.88001e-06
2.69947e-06
2.77248e-06
2.60031e-06
3.5998e-06
2.38179e-06
4.36961e-06
2.0146e-06
5.09335e-06
1.4785e-06
5.77925e-06
7.84518e-07
6.4168e-06