/*--------------------------------*- C++ -*----------------------------------*\
| =========                 |                                                 |
| \\      /  F ield         | OpenFOAM: The Open Source CFD Toolbox           |
|  \\    /   O peration     | Version:  2.3.0                                 |
|   \\  /    A nd           | Web:      www.OpenFOAM.org                      |
|    \\/     M anipulation  |                                                 |
\*---------------------------------------------------------------------------*/
FoamFile
{
    version     2.0;
    format      ascii;
    class       volScalarField;
    location    "1.7e-05";
    object      k;
}
// * * * * * * * * * * * * * * * * * * * * * * * * * * * * * * * * * * * * * //

dimensions      [0 2 -2 0 0 0 0];

internalField   nonuniform List<scalar> 
7500
(
9.9988075e-06
1.0002985e-05
1.0041506e-05
1.0039022e-05
1.0037885e-05
1.0035414e-05
1.003409e-05
1.0034651e-05
1.0037819e-05
1.0046736e-05
1.0052357e-05
1.0061906e-05
1.0064523e-05
1.0066701e-05
1.0071813e-05
1.0086092e-05
1.0109353e-05
1.0128238e-05
1.0142201e-05
1.0161984e-05
1.0179351e-05
1.0205486e-05
1.0232798e-05
1.0246396e-05
1.0272831e-05
1.029034e-05
1.0328444e-05
1.0388096e-05
1.0530976e-05
1.0674287e-05
1.0856471e-05
1.1006812e-05
1.1183797e-05
1.1321954e-05
1.1464937e-05
1.1580957e-05
1.1687052e-05
1.1758485e-05
1.1808626e-05
1.1842823e-05
1.186039e-05
1.1870081e-05
1.1872423e-05
1.1871324e-05
1.1867633e-05
1.1866626e-05
1.1859142e-05
1.1847388e-05
1.1830547e-05
1.1815855e-05
1.1802272e-05
1.1784998e-05
1.1774443e-05
1.1764585e-05
1.1759648e-05
1.1767731e-05
1.1793412e-05
1.1808626e-05
1.1823386e-05
1.185585e-05
1.1882822e-05
1.1914253e-05
1.198543e-05
1.202462e-05
1.2099791e-05
1.2134724e-05
1.2201157e-05
1.226071e-05
1.2388178e-05
1.2481828e-05
1.2672647e-05
1.2782965e-05
1.2998857e-05
1.3126135e-05
1.3478221e-05
9.9998592e-06
1.0003432e-05
1.0013463e-05
1.0014281e-05
1.0017406e-05
1.0022645e-05
1.002556e-05
1.0031228e-05
1.0034813e-05
1.0040961e-05
1.0043622e-05
1.0050017e-05
1.0054733e-05
1.0066069e-05
1.0081718e-05
1.0114835e-05
1.0175876e-05
1.0226711e-05
1.0298813e-05
1.0359915e-05
1.0416541e-05
1.0471854e-05
1.0508477e-05
1.0540087e-05
1.0562433e-05
1.0595846e-05
1.0656073e-05
1.0764744e-05
1.1044627e-05
1.1397989e-05
1.190769e-05
1.2298595e-05
1.2766567e-05
1.3091326e-05
1.3401297e-05
1.3626598e-05
1.3775923e-05
1.3872297e-05
1.3908823e-05
1.3922522e-05
1.3898913e-05
1.38576e-05
1.3784101e-05
1.374208e-05
1.3662047e-05
1.3633047e-05
1.3586387e-05
1.3551771e-05
1.354682e-05
1.3562043e-05
1.3591406e-05
1.3637835e-05
1.3705514e-05
1.3796177e-05
1.3941791e-05
1.4083877e-05
1.428797e-05
1.4620861e-05
1.4875759e-05
1.5183132e-05
1.57355e-05
1.6202769e-05
1.6640736e-05
1.7300077e-05
1.7900203e-05
1.8380836e-05
1.9192933e-05
1.9826156e-05
2.0956211e-05
2.1977466e-05
2.3444931e-05
2.4319377e-05
2.5796295e-05
2.6730341e-05
2.9064803e-05
1.000072e-05
1.0006734e-05
1.0020347e-05
1.0022579e-05
1.002812e-05
1.0034988e-05
1.0041786e-05
1.0058916e-05
1.0069975e-05
1.0093775e-05
1.0104277e-05
1.0131863e-05
1.0154841e-05
1.0209184e-05
1.0297328e-05
1.0481181e-05
1.0713236e-05
1.0985811e-05
1.1243997e-05
1.1496261e-05
1.1665146e-05
1.1804116e-05
1.1879434e-05
1.1930448e-05
1.1980058e-05
1.2052039e-05
1.2187989e-05
1.2479498e-05
1.3337844e-05
1.4790476e-05
1.6881761e-05
1.8470771e-05
2.0262212e-05
2.1403621e-05
2.2500096e-05
2.316945e-05
2.3605572e-05
2.386008e-05
2.398875e-05
2.3976926e-05
2.3866868e-05
2.3667871e-05
2.365507e-05
2.3760848e-05
2.3917017e-05
2.4189704e-05
2.455451e-05
2.5099296e-05
2.5829407e-05
2.6966808e-05
2.8217094e-05
3.008479e-05
3.2568647e-05
3.4590573e-05
3.7951071e-05
4.0552252e-05
4.452767e-05
4.9954646e-05
5.368637e-05
5.8379131e-05
6.6511906e-05
7.3001934e-05
7.8432278e-05
8.7328997e-05
9.4432043e-05
0.00010044028
0.00011023519
0.0001180502
0.00013134607
0.00014426887
0.00016046174
0.00017031561
0.00018544854
0.00019531419
0.00021851956
1.000454e-05
1.0025575e-05
1.0046635e-05
1.0067625e-05
1.007788e-05
1.0094954e-05
1.0106479e-05
1.0136892e-05
1.0160284e-05
1.0226373e-05
1.0264254e-05
1.0365709e-05
1.0443326e-05
1.0645424e-05
1.0961519e-05
1.1560148e-05
1.2241967e-05
1.3131158e-05
1.3892528e-05
1.4573831e-05
1.5006516e-05
1.5321141e-05
1.5534195e-05
1.5713904e-05
1.593242e-05
1.6251841e-05
1.6873858e-05
1.8105132e-05
2.1598904e-05
2.6528621e-05
3.4301915e-05
3.9933813e-05
4.6933453e-05
5.1090959e-05
5.5926581e-05
5.8995699e-05
6.2342118e-05
6.4626067e-05
6.7616355e-05
7.0053378e-05
7.3635915e-05
7.7112068e-05
8.1670291e-05
8.8410853e-05
9.4280748e-05
0.00010383331
0.00011263998
0.00012713495
0.00013950626
0.00016010033
0.00017761692
0.00020538319
0.00023887333
0.00026457118
0.00030865926
0.00034156879
0.00039426869
0.00044996914
0.00049443547
0.00054982483
0.00064058431
0.0007065836
0.00076522481
0.00085905095
0.00092756083
0.000987114
0.0010850247
0.0011627886
0.0012923736
0.0014202974
0.0015702136
0.0016619458
0.0017944434
0.0018825327
0.0020845716
1.0009447e-05
1.0051855e-05
1.0075742e-05
1.0136097e-05
1.0155731e-05
1.0216448e-05
1.0234799e-05
1.0312472e-05
1.0382913e-05
1.0574828e-05
1.0684824e-05
1.0922554e-05
1.1087691e-05
1.1487755e-05
1.2082042e-05
1.3374031e-05
1.4707979e-05
1.647683e-05
1.7994022e-05
1.9248134e-05
2.0133646e-05
2.1013592e-05
2.1888283e-05
2.2654271e-05
2.3887198e-05
2.5367923e-05
2.8481805e-05
3.2756148e-05
4.3794551e-05
5.3961566e-05
7.6643383e-05
9.066372e-05
0.00011775579
0.00013328004
0.00016144263
0.00018009996
0.0002125736
0.00023718984
0.00028097652
0.00031671943
0.00038064144
0.00043211925
0.00051488935
0.00060952892
0.00068585243
0.00081741863
0.00092145966
0.0010904755
0.0012194947
0.0014471255
0.0016248103
0.0019049395
0.0022308499
0.0024727144
0.0028970648
0.0031994362
0.0036969428
0.0041030857
0.0045670021
0.0050229701
0.0057710107
0.0062713763
0.006809703
0.0075003267
0.0080335801
0.0084797785
0.0092238604
0.0098022498
0.010767756
0.011702262
0.012771845
0.013411484
0.014309631
0.01490245
0.016254393
1.0002295e-05
1.0023027e-05
1.0058237e-05
1.0138716e-05
1.0185474e-05
1.0292845e-05
1.0392293e-05
1.0598857e-05
1.0962983e-05
1.1359123e-05
1.1902313e-05
1.2142029e-05
1.2658748e-05
1.3076629e-05
1.3888633e-05
1.5981646e-05
1.7704222e-05
2.0361772e-05
2.2717859e-05
2.4954352e-05
2.7789607e-05
3.0976178e-05
3.4551752e-05
3.9555635e-05
4.8151469e-05
5.8034332e-05
7.6830726e-05
9.8366845e-05
0.0001419112
0.00018413804
0.00026974313
0.00034291937
0.00048931155
0.00060422934
0.00081573155
0.00098267713
0.0012812195
0.0015153746
0.0019480005
0.0022880487
0.0029118948
0.0033841517
0.0042313024
0.0049418
0.0057026107
0.0068754154
0.007797745
0.0090170277
0.01005546
0.011939715
0.013229385
0.015205258
0.01761569
0.01932587
0.022313655
0.024327792
0.027643974
0.030074656
0.033421375
0.036166348
0.040624598
0.043668724
0.047085198
0.050988642
0.054116969
0.056606157
0.060789169
0.063989896
0.069366927
0.07437256
0.079941999
0.083220909
0.087818292
0.090740447
0.097386566
1.0094033e-05
1.0453746e-05
1.0771053e-05
1.099312e-05
1.1267272e-05
1.1634167e-05
1.2082902e-05
1.2895898e-05
1.3309222e-05
1.3885001e-05
1.4451894e-05
1.4686018e-05
1.525736e-05
1.6516141e-05
1.7916971e-05
2.1110073e-05
2.4027201e-05
3.0023575e-05
3.655077e-05
4.732457e-05
6.3496094e-05
9.0715278e-05
0.00012221241
0.00018260855
0.0002685081
0.00036923076
0.00055397242
0.00074896634
0.0011228672
0.0014727199
0.0021668989
0.0027597233
0.0039580218
0.0048798628
0.0065867213
0.007883626
0.010256442
0.011985974
0.015229526
0.017630375
0.022091124
0.025284315
0.031308489
0.035199381
0.041886478
0.047511384
0.054215502
0.060842191
0.06780359
0.078360039
0.085288855
0.096158392
0.10907354
0.11874274
0.13344197
0.14347625
0.15979826
0.17205219
0.18840563
0.20115856
0.22058032
0.23565117
0.2506098
0.26814268
0.28165081
0.29229521
0.30994591
0.32403591
0.34676457
0.36741375
0.38923805
0.4021014
0.41876125
0.42954279
0.4535679
1.0249711e-05
1.1471237e-05
1.1986751e-05
1.3281496e-05
1.3975281e-05
1.5543517e-05
1.6153934e-05
1.766124e-05
1.7948386e-05
1.902048e-05
1.9454314e-05
2.0537855e-05
2.1965579e-05
2.5323462e-05
3.0826116e-05
4.1609585e-05
5.9048385e-05
9.3744466e-05
0.00014711356
0.00024971369
0.00039236941
0.00067719974
0.00098907755
0.0016414087
0.0023237639
0.0033784064
0.0049306097
0.0065339857
0.0095826295
0.012175398
0.017290698
0.021408425
0.029766906
0.035722064
0.046818447
0.054692426
0.069431042
0.07929849
0.097959367
0.11094063
0.13524546
0.15180141
0.18319701
0.202385
0.23798763
0.25957291
0.29797288
0.32347989
0.35883499
0.39979198
0.43213876
0.4774232
0.53215307
0.57253651
0.62377849
0.67142417
0.7298092
0.77988025
0.83808683
0.88807148
0.95681354
1.015356
1.0725713
1.1350694
1.1844143
1.2232992
1.2846998
1.3383853
1.4166016
1.4883216
1.5556643
1.5974318
1.6432347
1.6745142
1.7422784
1.004432e-05
1.0357258e-05
1.0694638e-05
1.1483167e-05
1.2137121e-05
1.3682633e-05
1.4433002e-05
1.6113636e-05
1.7694473e-05
2.033835e-05
2.4756433e-05
3.2678912e-05
4.7614657e-05
7.5674505e-05
0.00012664931
0.00022761993
0.0003973031
0.00074190951
0.0012425747
0.0022478234
0.0034543254
0.0059234111
0.0083957069
0.013637574
0.018215259
0.027509041
0.035294919
0.047374845
0.066593078
0.08120995
0.11041006
0.13290628
0.17788714
0.2073353
0.26248707
0.29960194
0.37032097
0.41426825
0.49740229
0.55262737
0.65606999
0.72403207
0.85183497
0.92757286
1.0680787
1.1493083
1.2967822
1.3852396
1.5367666
1.6421669
1.8073873
1.9258784
2.1389425
2.2717288
2.4338282
2.6409848
2.7879267
3.0091594
3.1787577
3.37546
3.6108354
3.8150075
4.0543076
4.2708413
4.4467765
4.59424
4.7999972
4.9843152
5.2217209
5.4305862
5.5930611
5.713671
5.8306654
5.9342676
6.1590278
1.0267854e-05
1.1524374e-05
1.269989e-05
1.3739556e-05
1.5737417e-05
1.6049934e-05
1.6851185e-05
1.882054e-05
2.4116269e-05
3.6576376e-05
6.5456412e-05
0.00012664878
0.00025239069
0.00050955411
0.00097148301
0.0019414806
0.0033902435
0.0064118131
0.010239214
0.018009971
0.026265964
0.04336903
0.058691898
0.091162239
0.1165048
0.16908439
0.207984
0.28017145
0.35967122
0.42515916
0.56082122
0.6585058
0.84484175
0.95922723
1.1759542
1.3193459
1.5938097
1.756466
2.0614923
2.2663117
2.6341112
2.87642
3.3167911
3.5778317
4.0504444
4.3270703
4.8323128
5.1429006
5.677819
6.0243339
6.6471678
7.0278766
7.7778561
8.1910543
8.8474657
9.6394867
10.174137
11.168225
11.78201
12.689654
13.621121
14.407632
15.616592
16.305712
17.114185
17.746608
18.215365
18.621933
19.146748
19.571494
20.037527
20.604089
21.479916
22.299245
23.964896
1.032468e-05
1.2417641e-05
1.4464789e-05
1.8141042e-05
2.2575396e-05
2.9310246e-05
3.9829656e-05
6.172637e-05
0.00011180612
0.00022278272
0.0004675113
0.00098898257
0.0020229481
0.0042791984
0.0078079047
0.015521637
0.025484673
0.046534552
0.06961053
0.11674042
0.16097007
0.2523703
0.32647005
0.482337
0.59417802
0.82510057
0.98288054
1.2897595
1.5505428
1.823243
2.3376781
2.6689991
3.2913817
3.6943478
4.4545416
4.9617308
5.9204796
6.498228
7.5303368
8.4223552
9.4384613
10.447848
11.755506
12.670196
14.288884
15.362821
17.362916
18.623736
20.759128
22.085146
24.529264
26.024413
29.322025
30.954441
34.909254
38.595586
41.41181
47.727642
50.474289
54.729768
58.779024
62.699365
69.47763
71.363428
76.737094
78.859223
76.461015
76.15419
78.001923
79.786805
83.825566
91.496645
107.80052
114.03463
125.62115
1.0183709e-05
1.0967498e-05
1.1619807e-05
1.3405001e-05
1.9113314e-05
3.7433861e-05
9.4861607e-05
0.00024795895
0.00063370072
0.0015016234
0.0033662043
0.0074197577
0.014882563
0.031736247
0.053733503
0.10292343
0.1574751
0.27267438
0.38284299
0.60738652
0.79578702
1.1820535
1.4701752
2.066171
2.4712596
3.2934272
3.8374529
4.9194081
5.6394812
6.870569
8.2616388
9.4415098
11.5809
13.006019
15.676669
17.614074
21.328571
23.530453
27.520935
31.020233
33.623578
38.292294
41.324033
46.264329
54.567739
59.734839
70.570234
75.609991
85.818516
90.676068
104.91762
110.03755
135.82865
137.59979
184.34255
202.75079
209.90585
269.32145
252.89113
270.81184
293.78973
326.26904
354.87258
342.46063
337.01201
335.32831
331.10076
355.14975
379.79688
387.75323
410.19389
430.9431
457.42184
456.27802
471.09813
1.1438379e-05
1.3571732e-05
1.5937732e-05
2.548572e-05
6.4050249e-05
0.00020026786
0.00062114639
0.001723294
0.0044042886
0.010357588
0.022526114
0.051125775
0.0942711
0.193796
0.30416725
0.55236022
0.79016451
1.2861308
1.7109051
2.567751
3.2334764
4.5837947
5.5454832
7.5010931
8.8169711
11.487499
13.283035
16.89268
19.220501
24.259692
27.643966
33.891548
40.955316
46.511758
58.502815
67.358388
85.058428
92.145922
111.86041
119.88278
131.40268
153.98382
166.40071
219.4878
265.008
279.15814
342.64681
355.57235
406.34249
434.62816
521.15747
530.21967
661.89128
609.29046
878.23028
736.82005
770.4007
997.56408
760.4129
763.35648
866.05642
780.99096
652.8327
557.79599
389.86786
395.01325
495.44864
656.73091
530.62031
550.16208
540.23542
486.67761
335.96971
365.38017
445.51808
1.0403565e-05
1.3058201e-05
2.5746622e-05
9.9263183e-05
0.00040553437
0.0014249558
0.0043739196
0.011624696
0.028172753
0.064599838
0.13276484
0.29609118
0.49862367
0.96437785
1.4145379
2.4100455
3.2584181
4.9988327
6.4056401
9.1983808
11.343219
15.638323
18.740638
24.969516
29.399594
38.850452
45.16059
58.820609
66.484079
91.279572
103.57124
137.53323
157.93195
187.59366
272.37765
308.35308
391.91609
403.42173
520.87736
529.73872
581.66271
733.73896
748.58575
941.0527
936.40386
920.97052
1003.8792
917.96408
1025.2274
1033.8844
1017.9188
914.76098
844.99067
856.79241
736.98686
437.50575
646.72243
358.70573
271.66022
287.31468
324.60203
205.81937
127.67423
96.414043
53.032276
58.192479
122.49224
129.12416
67.869508
73.76791
72.308475
48.853391
32.588166
36.363803
44.67922
9.9483253e-06
1.8445666e-05
0.00010926126
0.00063003019
0.0027308482
0.0092257639
0.026965618
0.067768374
0.15580644
0.35940178
0.67206822
1.4119258
2.1960824
3.942673
5.5011597
8.7752056
11.45091
16.947943
21.406888
30.254238
37.465629
51.819767
62.710942
85.528462
102.53183
144.81115
166.25582
231.5378
249.64075
436.49522
442.2312
655.9794
689.04417
957.64824
1030.7659
1118.6793
1092.8189
1148.1684
1176.6897
1051.2095
1090.0461
1031.4438
1126.652
951.04225
542.3064
573.54868
499.97922
274.25663
340.99859
208.44325
326.16034
200.29216
101.30205
247.61003
75.488285
58.462345
140.0132
47.985794
31.015829
58.255882
35.467078
27.85325
21.633107
21.480254
21.41518
39.038829
52.30645
39.033285
20.46804
19.162839
14.936218
12.621568
11.842804
19.532839
21.399659
9.8900987e-06
7.7787882e-05
0.00074237108
0.0041709686
0.016876278
0.052961126
0.14512689
0.34174589
0.74740214
1.6955249
2.883505
5.5882563
8.1862919
13.731144
18.864068
28.325643
37.074141
55.405391
70.165162
102.29373
129.65633
186.13007
229.75785
342.18304
416.0978
604.07169
702.81724
911.01794
1046.6507
1408.0374
1260.4592
1537.0927
1371.5334
2078.2795
1118.4192
826.54211
451.53765
655.05642
277.08843
236.35773
169.12507
139.65224
273.65795
77.623558
43.797154
55.618542
34.848995
28.67749
35.095663
28.186514
50.703556
33.938084
27.658417
44.542125
23.029287
17.556003
42.38769
23.554043
15.210037
24.6551
21.544976
17.095149
18.945155
18.477552
19.633374
22.445681
60.018784
56.10768
23.115785
18.382205
19.595448
14.336014
10.760435
11.822535
14.513169
9.3777362e-06
0.00051134149
0.0047867262
0.024623752
0.091196534
0.26429762
0.68070049
1.4920621
3.1544638
6.6335219
10.51719
18.981224
27.054321
43.967479
62.543931
87.385768
124.22054
192.71938
247.32804
400.55863
522.29584
783.8191
973.88455
1210.093
1361.7005
1486.3418
1536.8885
1313.3177
1495.0182
930.819
1122.5829
435.78491
526.57324
490.91748
120.78739
88.520519
53.139869
57.147867
24.030645
22.81135
33.037079
28.572385
29.581318
11.017902
10.470151
11.639862
7.8920028
11.875631
14.08845
15.928816
26.267761
23.722642
27.465558
27.950965
17.422929
13.394568
23.52438
20.12328
13.388359
18.406719
20.359692
16.275848
17.363527
17.553923
18.065374
19.167616
42.885422
37.369445
17.653639
16.148062
15.137827
11.737116
11.078085
10.650151
13.107908
1.2787756e-05
0.0032326722
0.027455983
0.12776917
0.42942254
1.1459987
2.8041534
5.65091
12.080781
21.790204
34.13469
59.302771
85.778332
146.67793
204.98206
301.84268
499.79512
752.24993
984.62766
1455.5886
1532.5174
1814.3696
1621.2585
1347.1576
1307.368
682.9018
475.68045
411.97985
396.8624
106.52073
321.55396
62.056341
104.42448
67.40191
11.645469
32.391548
21.704728
14.201916
9.1571978
8.3453892
10.395654
18.828247
9.8137663
8.7963172
8.0494116
7.5669087
6.4890768
8.2632077
11.80387
9.8578343
58.432775
22.289978
21.166921
18.939698
15.017738
13.75017
14.461628
19.257748
16.537958
14.518379
12.963414
13.731501
16.278048
17.703918
18.163101
18.529379
24.394407
24.829022
15.464367
11.68004
10.602275
11.224672
13.785814
11.941806
11.998085
0.00031043197
0.018234462
0.13868485
0.58009493
1.7653444
4.3498984
9.8871625
19.087398
40.698993
65.670277
109.12189
187.59211
289.46572
540.95526
774.99656
1257.6197
1518.3757
1786.7356
1820.3149
1675.3803
1195.7546
807.27728
304.81473
282.10075
201.0348
54.710637
59.888491
73.896514
61.182761
25.744851
47.04373
6.8907173
47.22148
53.368617
7.3881148
16.699356
15.369981
9.3840354
11.520139
9.0126718
16.061763
13.7532
8.4874054
8.812564
10.219063
7.4675416
7.2634885
7.0904824
8.0141371
7.6911054
13.410194
15.450283
14.257196
22.397958
16.124169
16.012486
12.877059
14.245136
19.307865
15.488521
14.649159
15.254286
15.542503
17.152593
18.573947
17.825566
19.05896
18.581962
12.979505
13.149745
13.519525
12.037927
11.598647
11.223025
10.875099
0.00058742617
0.095944671
0.62525068
2.3165144
6.3777475
14.614298
31.143653
61.044307
127.06851
205.87268
371.03068
680.33294
1145.0349
1588.262
1950.9834
1854.3075
1503.6134
1006.708
641.56592
323.65424
183.97372
75.042923
28.349691
46.982078
17.202238
7.001912
24.389337
20.221498
25.202928
26.039672
5.7385059
4.5962585
25.022786
16.477596
6.049435
6.8072349
9.7591366
8.5391586
22.343214
16.063923
18.52748
14.489172
9.5973393
9.4015094
9.2846856
7.3898985
10.688323
8.2915795
9.0802533
8.1682839
7.9808534
17.7712
15.895607
16.901209
15.193507
15.762661
15.315944
14.216445
18.600648
17.911464
16.548582
16.880308
16.827307
17.69846
19.247107
17.94242
17.883141
15.464495
13.347972
13.233
12.072126
11.193696
11.283345
11.176813
10.438689
0.0074494206
0.45309898
2.5072626
8.169593
20.558781
44.940485
95.276983
197.58637
409.69134
717.10439
1502.1336
1772.1496
1996.3027
1671.3947
1333.674
455.73119
282.52046
146.79374
86.06154
39.58227
24.566366
8.2483565
16.206185
13.060694
4.8792945
5.4507493
13.712965
20.155014
44.876095
12.688145
2.9061828
3.8467897
13.322713
11.240555
5.7679538
6.0598861
7.3596568
7.8113039
50.941378
32.811185
14.216881
13.351347
9.613873
9.7012365
9.6506527
7.6689936
14.107352
11.219067
15.781298
10.070064
10.004914
17.170283
16.826119
14.267376
14.824293
18.624492
15.244651
15.244141
17.263949
17.761068
21.126414
18.206289
17.699509
16.46356
16.233094
16.842338
16.598349
13.698648
13.55069
12.07874
11.545481
11.673069
11.299829
11.253919
10.193519
0.058933551
1.9173534
8.9100498
25.712707
60.886121
132.98128
303.05996
693.41021
1516.191
1810.2453
2255.6969
1493.3475
672.98925
350.68207
224.65975
49.686675
54.205465
25.819648
16.133084
5.3623218
4.0766788
6.8440706
24.156123
7.6248005
6.210416
4.8106091
8.1296963
11.235408
25.591755
16.25988
3.0466388
3.2045011
7.7780002
7.5584947
5.8686735
4.8702661
6.986407
6.8366183
79.471396
24.347544
12.649007
10.270428
13.104648
11.317237
8.6955903
10.074261
9.5823151
10.909202
10.437801
11.368127
11.55899
13.120961
12.694038
11.440108
11.781041
21.561729
16.208702
15.616905
17.291378
33.136635
32.292878
19.026757
15.172543
12.936146
14.158662
14.944037
15.091247
13.793013
14.217905
12.737834
12.714948
12.029384
10.55545
10.770387
10.232566
0.36893631
7.2733664
28.323337
74.091664
173.75719
404.61577
1099.4231
1935.4454
2317.8185
1745.7687
720.73448
239.88194
95.860389
70.401423
25.651367
11.562405
12.111672
7.6306734
18.558629
4.6841129
2.9024417
7.4337161
16.714148
7.7087675
7.2899408
4.7842073
7.301152
16.427342
23.270044
12.951533
6.8455952
3.0988135
7.2550697
10.056155
6.1511903
5.0983811
6.2721345
18.938286
38.110099
40.879893
18.707361
11.00695
14.243383
11.696135
8.9661625
9.4457336
8.528361
9.4914646
21.261445
11.23616
10.35519
12.244229
10.856582
10.917241
10.922175
15.167918
21.907356
17.794108
16.32522
39.064379
26.435147
18.546033
13.4718
11.728078
13.605084
14.258131
15.599234
15.129315
16.944046
15.507974
12.088078
10.774015
10.303879
10.386121
10.104229
1.9649846
24.816168
82.103739
202.90952
511.35003
1404.0534
2103.969
1983.8555
832.7594
419.82234
102.59064
23.556858
12.764851
15.047941
5.8319989
8.2901885
5.0320189
4.2605666
4.3582339
4.2984044
2.5681308
4.9089274
10.04672
9.5298516
7.5549963
6.3955261
7.5756101
15.839492
17.112996
11.931825
7.4924252
3.0526682
9.4715614
11.156227
4.5173304
5.1134299
5.8473335
13.223583
16.145695
25.14812
19.919409
12.724473
13.520819
11.566793
10.347886
8.4603966
9.5750865
10.916033
11.532486
9.2028705
9.1016854
8.2943886
8.61551
10.134991
10.556646
13.320532
21.297174
15.362029
15.862962
26.303204
23.241514
17.956242
13.1604
11.277978
11.217366
12.994939
14.796573
18.232318
17.904894
14.889392
13.521918
11.856309
10.880605
10.488221
9.8818346
9.1827238
77.085155
222.36314
561.1752
1679.6428
2339.7165
1475.4336
486.37161
142.07562
79.240786
7.8265206
1.9271415
2.9665388
5.8649479
5.7656432
3.8488217
4.6202033
5.628362
2.5145541
3.0467345
2.1886682
3.9740845
6.7299503
9.333512
7.6914039
13.634688
7.4730299
6.409631
4.1485779
12.129541
6.8885483
2.8769613
7.485407
6.2389642
4.0427691
4.9345996
9.0550853
10.603338
14.331131
11.807235
29.900941
19.155328
12.945005
12.223761
10.906744
8.2932509
8.4560649
9.4901858
9.1808869
8.652723
8.5741464
9.6814332
9.5689251
9.42689
10.573308
16.435628
15.664922
16.038486
18.114916
22.312975
20.576046
17.204803
13.433736
11.276852
11.434661
12.225023
14.948057
19.200058
17.304088
12.869674
11.286761
10.46164
11.020848
10.712806
10.093077
38.544933
220.39862
587.75795
1702.1547
2350.1338
1397.7127
471.44539
80.152657
19.678053
10.025054
1.0401314
0.66603119
1.6331723
3.3989583
3.7724504
1.802709
4.0909083
3.631583
1.5454204
3.0168005
2.2400091
4.0418017
5.8187083
6.8241178
8.0006559
26.291968
7.1410083
7.2746246
3.4415865
8.7145556
4.4980757
2.8159852
3.7936738
6.7297135
4.1166415
5.3429932
14.2193
10.922163
10.062769
11.445785
27.031455
18.79092
11.63106
9.794789
10.027131
8.6669227
9.4320492
9.6519661
8.7174213
9.2152073
12.0552
9.6323285
9.7395182
10.266229
12.454692
19.623309
15.784055
18.181709
25.237629
20.568172
19.517348
15.030289
13.45648
12.202846
13.280995
12.079319
17.706304
18.188544
15.477454
11.419795
10.804635
10.910656
13.543274
13.466268
10.803461
148.77745
589.17748
1630.3093
2258.8731
1195.8667
530.53059
73.009799
8.133664
4.5872788
2.2397972
0.78379195
0.63605551
1.3102611
2.231952
1.7289128
1.4162288
3.5368377
3.1645507
1.4999769
2.7935211
2.4207071
5.0452044
9.1493024
7.1969651
8.6747116
31.042581
6.2742858
4.2705062
3.0630434
5.5168963
3.7726632
2.7969914
3.5093111
6.7986944
4.1156564
5.6543876
16.539894
11.314984
9.7813963
18.330823
21.335275
17.600293
11.620416
9.6256732
9.3480049
9.9435219
9.1849612
13.707691
9.7592819
9.6708671
10.096577
9.1785243
12.178889
12.008446
14.651766
20.360502
21.707158
20.50746
26.616785
26.061212
22.260753
14.885696
13.967958
12.775507
14.143832
12.750914
14.178585
15.160524
13.862198
11.319931
10.510485
14.620762
20.460336
18.861386
13.163906
486.3367
1574.0163
2639.2535
1432.6031
510.59834
140.94944
9.4390277
1.3338437
1.9300269
2.1464189
0.81654427
0.76514874
1.1742334
1.7397956
1.4810369
1.3552219
3.2584573
3.5075084
1.3842426
2.4595421
2.3447728
4.3770646
11.037437
11.482318
8.7796194
23.73526
5.8995975
8.0797061
2.8987843
4.1040514
3.4544821
2.7995741
3.7149997
10.02044
4.1307628
5.1360407
16.566587
12.80773
9.6551512
32.053258
20.974307
11.031331
10.075362
8.7573429
9.749417
10.795688
8.2231156
13.416295
8.8260043
9.0086774
9.1947165
9.5672643
14.527486
14.466686
16.085164
20.371703
29.666548
22.786477
20.257401
26.095767
23.199084
15.870518
14.579681
12.801369
13.253289
13.265984
13.953075
13.880289
13.142943
11.278049
12.749822
26.231739
24.180259
18.903154
13.37588
1465.1526
3117.8527
2207.9317
713.42734
158.9632
20.591412
1.8061038
0.75522676
1.1577516
3.2026717
0.90216291
1.0137213
1.0825673
1.3884267
1.4154467
1.2122074
2.97019
3.0919469
1.3072984
2.0494954
2.193432
4.2540968
11.476657
12.415568
8.4819697
12.058299
6.2594944
18.576776
2.8898378
3.6590692
3.3907124
2.9183225
4.6417554
7.6233626
3.9326015
5.3851667
16.484227
20.79427
10.302208
32.533014
19.230044
10.927385
8.131468
8.5226511
9.7686746
9.5677058
9.6276743
9.4751335
7.6452182
10.703936
10.959078
11.979384
12.270251
10.429197
20.480231
20.33511
32.815019
24.851336
21.4362
16.681288
15.428657
18.403408
17.465868
14.69691
16.2622
15.303861
13.536911
12.643393
12.740772
15.58476
17.862291
22.717519
20.913471
16.143129
11.845462
4206.659
3303.8997
919.2599
188.54407
31.937489
3.4867845
1.2912985
0.69101887
0.8530488
3.0862694
0.98949863
1.4124254
1.0329159
1.1804545
1.389926
1.1581274
2.7202573
3.1860729
1.5486696
1.9315951
2.2591559
5.2994187
13.09013
10.890652
8.9289841
14.387125
8.8379985
10.421361
2.9465151
3.3660048
3.0158619
3.0725694
4.7508668
5.1124741
3.7065309
5.6282617
16.567182
21.602637
10.304732
19.423723
15.606216
9.7536715
12.032629
8.8095542
9.3397205
9.2980473
10.846425
8.3758795
10.133809
17.440348
14.370202
15.694086
11.911939
9.5540545
30.993718
20.681576
26.148024
23.697114
16.179589
13.052304
12.709154
23.018448
22.179133
17.896226
23.600442
20.467414
15.216259
12.840853
13.209067
13.521116
12.444947
16.173947
17.331137
17.174645
14.032209
7923.348
1622.0241
210.2894
31.534042
5.5620384
1.7273419
1.2363558
0.69225615
0.7174045
1.6302342
1.0988098
2.3534782
1.0526096
1.1517178
1.3993776
1.2444161
2.6082361
4.120662
2.2592326
1.993579
2.5168083
7.5710516
20.167583
9.4012533
8.8779648
27.110426
9.7416506
5.4013428
2.7869188
3.2455461
2.8443938
3.2061082
3.838616
4.6156082
3.6278008
5.5282107
12.922994
16.863953
11.395488
19.517199
15.427077
8.58365
9.328981
7.1547794
10.92772
13.696262
10.926001
15.451633
12.798565
17.575052
14.79179
19.226047
14.142635
10.160015
26.975531
10.664682
31.491514
30.86491
15.537372
12.884193
12.775173
26.745591
23.768638
20.315677
26.448422
28.463322
19.551727
13.380119
13.060161
14.01549
16.646514
18.530111
18.057204
16.663337
18.03695
1571.1314
278.06228
27.653334
4.4400171
1.6562603
1.3935894
1.297861
0.72956394
0.70304158
0.78833897
1.193028
4.4819592
1.1259922
1.0634081
1.4531576
1.5874799
2.5143551
4.0653448
2.6566933
2.1808655
2.9741426
10.015067
30.427094
12.922112
8.0194295
20.974533
8.2420881
6.1855333
2.8330791
3.4478351
2.9808184
3.2592899
3.8617818
4.0845294
3.6251795
5.8269506
13.026688
13.409072
11.46074
15.369234
16.177147
7.8344511
7.9591011
6.9991298
14.002062
13.576996
9.3775748
22.629981
13.687692
10.311689
11.124744
15.730452
13.539446
10.31899
14.121901
9.7956985
30.238666
18.598884
13.413639
12.9953
14.391078
31.041721
24.225499
23.408711
26.78532
35.199511
30.496442
16.112377
13.087728
13.558342
18.042765
18.028336
17.197401
16.108501
15.503853
110.30148
25.728017
3.1956386
1.2569185
1.1433932
1.3433757
1.3060911
0.93868937
0.68233461
0.64153713
1.3708093
6.1873248
1.2508627
0.79119829
1.5278612
1.9876803
2.4810003
1.9778768
2.6289694
2.4329208
3.6202188
14.803637
49.730858
17.350525
8.3174061
6.4633535
7.7320896
5.9803
2.8743503
3.3020094
3.0115856
3.2787022
5.2523076
3.9999884
3.664706
5.8813777
12.446291
14.188689
11.723711
7.0168158
10.700014
7.4571239
7.693381
8.2299797
8.425043
11.111614
9.0639997
10.278071
10.843611
9.9687214
14.55447
7.8087767
11.636816
9.5963297
11.566344
10.201263
21.13557
17.466976
13.27285
15.481895
18.490557
32.308372
26.136547
26.668448
26.76493
39.629103
35.672356
22.635751
13.951935
12.486027
16.37014
17.450485
15.827865
16.072578
14.186909
4.215043
1.8618361
0.88353614
0.9077896
1.1230081
1.3589453
1.300847
1.1941106
0.63809696
0.62670934
1.7098491
6.4422861
1.2991617
0.71780775
1.6617021
2.1003042
2.434076
1.4035024
2.6544405
2.4393224
4.3807899
15.688824
29.444139
15.718994
8.1908102
3.8652976
6.0734367
5.4502393
3.057859
3.6205255
3.1427987
3.2780773
5.2355057
3.9803751
3.5550773
5.4540778
10.123897
14.400332
14.040198
6.7305385
6.4719417
7.5926576
6.8496708
10.960539
7.5217071
7.509056
9.0187874
27.131714
13.414573
8.710873
10.637378
6.9612035
9.0665999
8.2272762
13.956475
9.01772
12.749374
15.869487
13.484991
18.638617
22.991143
27.524266
28.251413
27.631656
23.095126
38.606207
36.416622
23.567201
15.114202
12.860741
15.061722
14.811869
15.389501
17.971825
17.424822
0.90772594
0.56484644
0.66928178
0.90995336
1.1490383
1.3825324
1.2710216
1.4403152
0.66043397
0.6565783
1.9187316
5.2751798
1.2465657
0.89358402
1.7788715
1.9823383
2.3046859
1.3701887
3.3414473
2.4522657
4.2856224
11.649188
18.417795
12.900228
7.5221889
3.9329195
7.6262764
5.7257499
3.3390042
4.7271505
3.0525549
3.2316284
3.7643464
4.0226959
3.5478439
5.2308248
10.075443
25.947734
15.003972
7.7124103
6.9915728
8.0760162
6.8429379
14.869236
9.4655173
14.233841
10.952205
15.680325
6.4159307
6.31879
10.706093
7.2411026
7.9941626
8.1642456
9.4370891
7.076977
11.574803
13.954055
13.397427
19.93674
27.19545
24.42993
29.178841
25.683505
21.102376
30.928632
34.883535
25.980782
15.969252
13.48476
14.837806
14.157632
16.1686
15.365265
12.548623
0.84537709
0.50311004
0.67578459
0.92612918
1.1845333
1.4142385
1.2041811
1.549649
0.77992991
0.7165728
1.9289476
2.9237432
1.1509178
0.9332093
1.9573511
1.6234458
2.087327
1.488616
3.9763221
2.9564908
4.0932846
9.6683121
9.4910281
10.85528
7.3549436
4.1314621
12.955404
6.0693944
3.5492295
5.5892027
3.3690565
3.3772604
3.1145006
4.0398205
3.6783092
4.5379356
8.3165981
44.255342
15.239828
10.709565
11.981518
7.3156047
6.3560121
15.730129
10.33528
16.357783
8.415942
8.617793
5.2245494
9.15399
13.047575
7.5845871
8.3429847
8.4506743
13.223154
5.6101208
12.104338
13.717459
13.417487
19.794207
31.125411