/*--------------------------------*- C++ -*----------------------------------*\
| =========                 |                                                 |
| \\      /  F ield         | OpenFOAM: The Open Source CFD Toolbox           |
|  \\    /   O peration     | Version:  2.3.0                                 |
|   \\  /    A nd           | Web:      www.OpenFOAM.org                      |
|    \\/     M anipulation  |                                                 |
\*---------------------------------------------------------------------------*/
FoamFile
{
    version     2.0;
    format      ascii;
    class       volScalarField;
    location    "1.7e-05";
    object      p_rgh;
}
// * * * * * * * * * * * * * * * * * * * * * * * * * * * * * * * * * * * * * //

dimensions      [1 -1 -2 0 0 0 0];

internalField   nonuniform List<scalar> 
7500
(
-29882.983
512.43599
7627.1467
-360.59804
1324.3102
-8296.8365
8846.4839
3222.2316
3582.9952
5415.7596
1207.2889
10186.767
-3501.1623
11775.845
410.75958
-119.47311
9786.9501
4491.2306
4396.634
2887.5591
2654.1933
5821.2987
7264.1024
-3812.9066
9001.0755
2306.5338
11396.698
7312.2691
12629.748
6898.6581
12975.147
10001.045
13535.952
20347.531
16243.515
29219.497
15385.275
14554.124
13295.867
1934.8596
2016.3064
5167.0577
14397.817
30769.94
15057.383
20273.607
23681.408
14642.444
17017.463
11947.604
25519.984
43950.074
45744.647
36136.472
56242.776
52736.066
45881.403
78567.559
42781.804
34679.264
95533.464
56631.782
28127.119
105762.14
67499.975
-22035.454
-21887.325
-27500.887
-21792.116
2740.3268
-12292.747
-29373.154
-1943.5555
21489.361
6153.355
-28821.789
-1521.5163
7082.7875
1244.7267
1764.4795
-8374.1159
8315.0247
3238.2766
3559.0341
5927.1469
953.92694
9725.4045
-2726.803
11012.811
1088.6688
-341.79602
9143.2579
5498.4862
3871.9057
2985.5451
2959.6307
4631.8121
8205.1954
-3653.9613
8289.2247
3479.4494
9611.1027
8676.5245
12589.917
5846.8012
14154.746
9459.2648
13079.635
21237.798
15536.769
29387.024
16684.491
12660.086
13322.824
2605.287
2447.0835
4707.2051
14366.387
30291.443
15529.607
21125.27
22798.563
14634.79
16443.813
12872.473
25414.311
42526.187
46655.578
37180.843
53792.506
54758.533
46873.544
74741.391
45676.555
35756.985
91718.03
58433.941
30711.923
102206.71
66687.422
-20310.697
-21632.372
-27746.042
-22051.725
1813.928
-12509.507
-28201.584
-1739.2582
21027.36
5715.9339
-26864.442
-3104.298
5373.867
1692.9826
2642.7693
-7422.4709
6757.6444
3754.9583
3765.0571
5484.7612
1939.5595
8600.3001
-1967.6688
10553.601
1079.3763
94.339583
8772.4198
5437.4306
4141.4322
2888.6061
3118.3155
4625.5979
7209.5182
-2044.3546
6786.841
4800.0082
8678.6117
8827.2003
12702.573
5592.1835
14317.544
9876.2331
12782.957
20862.022
16772.777
27692.114
18708.252
11445.457
12413.848
3425.1595
2808.8183
4522.4793
15191.194
28531.63
15735.421
23451.257
20789.452
14293.521
16436.281
13953.312
25966.36
40354.477
46538.945
40121.957
50949.907
55281.917
50837.524
68942.216
47031.872
41010.447
86485.588
57284.666
38036.389
99166.498
62357.391
-16509.923
-20943.905
-29756.557
-22344.09
1593.7653
-13350.79
-26825.953
-442.1748
20017.607
4634.7059
-24403.495
-4758.5601
3108.534
2464.7701
2977.635
-6369.8577
6143.2566
3235.2849
4398.0525
5158.8018
2540.3611
7580.6239
-830.64639
9578.5991
1292.1448
649.7714
8073.3338
5877.794
3969.9576
3024.996
3241.2824
4499.9333
6414.25
-495.59069
4732.1802
7221.4202
6744.1419
9484.0805
12937.312
4297.0583
15526.941
9918.8707
12379.302
20981.42
17659.191
25883.935
21438.334
9233.1148
11746.078
4696.6741
2704.2089
4493.5694
16535.314
26392.299
15464.151
26045.81
19049.142
14081.171
16037.183
14310.257
28622.189
37443.107
44451.39
44677.708
47716.759
56524.849
55014.069
61067.595
49304.121
47147.497
78895.039
57386.072
47876.408
94706.732
56592.682
-11776.909
-19773.425
-31634.518
-23849.682
-84.916878
-13666.179
-24494.803
1252.9405
18554.881
3309.2309
-21986.344
-6501.9591
1164.3443
2944.4259
3476.6204
-5700.1207
5890.1224
2738.0395
4811.427
4990.9686
3135.3975
6589.3798
-96.141802
9210.9476
1269.785
1072.7807
7408.7523
6521.474
3877.2681
2714.9737
3936.3309
4047.0492
5176.599
2146.6532
1896.8874
9450.5621
5722.8476
9294.5615
13559.358
3268.1834
15803.063
10783.612
11874.787
20689.179
19128.245
23654.829
24284.336
7134.9625
10644.698
6389.4856
2568.6313
4779.5218
17385.929
24183.495
15973.766
27125.277
18299.728
13925.921
15206.49
14863.709
31485.48
34564.077
42368.892
48945.196
43918.718
59598.009
58559.348
51859.578
52456.256
54109.922
69411.209
57990.54
59480.386
89110.061
51320.919
-5912.147
-20293.827
-33617.985
-24156.846
-3085.5752
-14664.779
-21697.976
2211.0203
16972.054
2486.6071
-19775.214
-8084.5914
-178.67799
2611.14
4345.3955
-4905.011
5152.0111
2781.5382
4957.3094
5026.2841
3412.4143
6181.8183
102.28238
8735.4063
1708.6203
1122.7966
7013.6181
6745.573
4342.7523
2430.0785
3786.662
4568.9897
3588.2078
4075.31
587.48243
10113.138
5042.6102
10314.373
12570.924
3553.3177
15675.194
10771.901
12809.768
19530.556
20717.683
21868.807
25847.304
6138.0791
9233.8283
7896.8798
2393.4726
5872.4958
17939.849
21203.238
17956.539
26890.525
17408.899
14547.518
13971.825
15805.626
34187.066
30956.181
42129.117
51785.15
40038.893
64607.812
60141.427
44145.063
54707.675
59670.808
62021.235
58373.321
70027.141
83002.839
46578.223
1872.7427
-21116.395
-38057.32
-23055.697
-4763.3502
-16681.936
-18919.278
2742.1135
14519.036
1879.9582
-18041.24
-9529.1391
-909.97792
2198.8604
4783.1736
-3874.2575
4606.3156
2696.6177
4914.7914
5547.7756
3101.1364
6049.2221
822.03087
7444.9714
2477.852
1128.3329
6718.0358
6830.5217
4548.0757
2949.4904
2988.1433
4892.932
3010.315
4819.2637
5.0420706
10882.226
3605.9359
11998.668
10957.465
4328.5211
15813.934
9849.5523
14564.949
18328.097
21718.232
21063.467
26338.602
5138.6873
8568.3382
8956.5882
1675.0223
7972.5127
18249.661
18651.763
19787.516
25965.525
16467.945
15238.13
13813.084
15762.923
36857.629
27554.04
42661.214
53392.411
37849.139
69844.58
58489.393
40851.449
55665.927
60596.451
59182.53
60985.372
76789.172
76985.348
41732.096
8823.6392
-19482.864
-42682.631
-23735.631
-5146.5438
-17701.499
-16142.637
2854.1653
11022.782
1056.7415
-17100.996
-10554.324
-1137.8125
1909.3767
4855.754
-3257.914
4617.8245
2660.1694
4659.9722
6000.1948
2992.7334
5600.2638
1559.3801
6857.1241
2570.3769
1162.9478
6839.0169
6592.3912
4724.5156
3451.3566
2521.8003
4971.1389
2275.2361
5835.9464
-340.93018
10853.075
3413.1566
12605.335
8795.536
6967.1768
14249.458
9797.0248
16863.304
15801.239
23727.084
20328.046
25727.611
4786.466
8215.4141
9635.0528
473.89359
10963.108
17263.761
18152.9
21065.441
23442.251
16624.562
14699.054
15227.282
15724.926
37153.557
26632.122
42942.672
51860.008
40819.416
72806.789
53969.702
43090.342
55612.348
56750.912
58959.167
67048.406
79437.095
71835.758
39591.054
11052.025
-19123.495
-44173.495
-25669.055
-6878.526
-16097.966
-11510.297
2332.0628
6255.365
-182.77292
-16753.804
-10992.447
-1121.9604
1431.5538
5114.8312
-3125.2761
4694.8886
2920.9486
4608.0085
5925.5483
2938.1751
5655.9099
1216.9126
7160.4561
2669.9167
752.09819
7528.1919
5918.7202
5073.1155
3939.8216
1684.6868
5586.9555
1525.6127
5921.0171
750.15855
9677.8728
3769.6047
13648.456
5197.5763
11046.054
11804.011
9780.0479
20244.695
12194.178
26101.326
20566.104
22936.265
5403.8446
8725.9562
9319.8369
-461.44832
14058.074
15455.818
18905.587
22355.932
20072.504
16971.847
13873.554
16871.283
16834.724
34426.109
27510.305
44148.623
47139.692
49264.242
72219.211
48425.578
50250.185
52948.03
51504.345
59944.511
74578.395
79396.969
66522.791
42901.769
11888.388
-23818.785
-44343.835
-26091.196
-12298.607
-15551.54
-3978.5758
4237.3825
733.78457
-2614.996
-16755.139
-10996.401
-824.80144
734.38653
5288.0862
-2884.9445
4614.7445
3118.0116
4798.7486
6001.9415
2278.0558
6388.0596
631.21809
6856.8417
3358.5835
472.38068
7841.1414
5806.0669
4770.2638
4673.3869
1244.4955
5036.7225
2293.9561
5056.7577
1607.0601
9361.923
3522.1071
14467.903
2787.9748
13681.588
9728.0618
10757.98
21828.991
10670.521
27192.195
21877.692
19430.38
5374.1372
10744.471
6784.3994
912.69069
15568.38
13382.319
21901.094
21489.184
18141.964
16983.074
13085.292
17815.77
18826.12
30061.374
29156.438
44381.907
41529.744
62506.573
66175.134
45351.914
60207.33
46008.06
48475.746
61531.375
79600.006
79622.093
61245.036
47485.6
15812.692
-29895.676
-45630.7
-23896.617
-18158.221
-18803.047
1703.3355
8301.9641
-2047.3284
-6534.9018
-17012.372
-10712.515
-261.24684
9.138732
4948.2997
-2390.6773
4671.5404
3342.372
4529.6085
6599.7466
1667.6146
6577.628
959.66017
5825.6475
3604.5506
1372.5868
7068.0963
6443.474
4545.6136
4273.1883
2365.7518
3312.1323
3117.6307
5209.9579
1680.9749
9043.0011
4129.6435
13168.539
3075.9117
14849.577
6596.502
14942.278
19679.306
10982.299
28895.277
22521.222
16438.742
5091.8028
14080.178
798.99125
4636.1178
16549.981
9855.3759
27823.199
17963.23
17717.024
18053.52
12098.11
17681.181
21174.766
25213.359
30650.655
43370.297
36487.799
77160.263
56609.3
45652.461
69313.4
37235.761
48203.674
63382.588
79355.636
80006.082
58831.74
47990.552
19821.63
-31018.561
-47634.563
-23334.282
-20289.384
-20258.271
1585.0828
10802.62
54.554657
-7489.1003
-17442.868
-10233.596
291.405
-554.29106
4258.5329
-1924.5689
4785.3479
4074.3795
3806.7097
6742.4788
2055.2597
5971.5234
1653.9374
5257.6304
2790.5961
3042.2386
6237.5643
6408.4591
5430.695
3304.2304
3075.5791
2440.1093
3143.9494
5050.1067
3361.9141
7760.0842
5185.794
10796.555
4524.9622
15696.598
2480.512
21151.864
15867.967
10996.234
31082.568
23757.793
12855.82
5352.6786
18457.666
-6859.1404
7950.3042
17184.917
7178.7083
32002.223
14814.813
18161.594
19284.252
12702.028
16507.728
22913.287
22541.764
28591.47
41152.131
36398.309
79687.385
52655.887
49638.802
68759.621
39086.692
49346.235
63754.894
77808.995
79117.87
59656.767
43900.355
17421.307
-28177.816
-46550.69
-24934.571
-20176.731
-18717.534
-503.95805
8952.7524
1505.7012
-6331.223
-18003.18
-9606.2547
666.86563
-940.83436
3501.7772
-1442.3261
4614.8541
5049.4598
3562.2269
5963.3218
2838.6306
5582.2959
1873.2848
5180.4651
2042.138
4012.9901
6461.2632
5549.0553
5939.4256
4008.9233
2392.0633
1614.0614
4015.8968
3235.7688
5855.0982
7476.5516
5427.648
8113.9184
6935.4808
15272.264
-807.06451
27124.022
11433.867
11551.831
31085.934
25914.976
9671.4818
6281.3786
21195.681
-12463.587
9370.1775
15441.274
8288.9381
29961.24
13331.181
21088.504
19845.191
12418.535
16451.861
22857.316
23360.201
25580.438
39137.519
39057.6
76894.577
50383.579
51354.681
66453.45
39445.08
51487.446
64090.508
81153.591
79900.46
60893.93
46638.564
14274.255
-30782.697
-45633.796
-24771.146
-21389.208
-16643.62
1501.2255
7295.1875
-1896.3412
-7235.9958
-18614.954
-8846.4906
884.41494
-1233.6791
2646.5877
-732.35273
4409.6583
5516.2017
3905.0346
5254.3299
3027.6689
5610.3647
2080.9938
4439.3632
2451.6647
4264.2822
6658.8148
5510.6882
5005.1754
5572.598
2430.8451
-256.06889
4858.0847
1892.4166
7023.9922
7892.5087
6062.8747
4427.46
9795.0073
13851.776
-2771.1908
31494.322
6506.4644
13318.86
28523.3
26229.406
10173.432
8001.9487
20633.493
-12961.506
9800.1397
13954.766
9639.008
28152.575
10366.34
22219.149
21577.803
12622.156
16305.869
24211.176
24073.351
28914.569
37865.891
41751.522
78162.939
47290.848
53980.452
63107.672
39259.209
54505.996
60383.407
77435.512
78652.693
61042.464
47035.473
18585.493
-30049.721
-48647.958
-24373.482
-20353.913
-19928.185
1062.3522
9131.029
954.28175
-7046.2474
-19216.519
-7998.2929
982.60305
-1414.6998
1646.0717
-23.803746
4695.4833
5582.5328
3785.6258
5370.8969
3027.5297
5137.5047
3146.2054
2641.9131
3094.7855
5520.6003
5560.7544
6058.3293
4253.2407
5814.1501
3343.7667
-1129.5091
3474.1814
1429.7897
8337.9365
6962.0008
7074.8375
1324.3195
10440.268
12890.28
-1256.9017
32217.552
4989.5469
14801.14
26567.985
24258.063
10208.362
9955.595
20881.498
-13368.141
11461.119
13335.021
10473.116
29338.523
9665.9995
22481.172
21194.319
12826.869
16274.394
22176.021
22338.546
25537.151
37652.532
38872.972
76731.526
49053.099
48515.298
58826.845
38856.848
50945.073
64478.225
76253.003
76917.465
59947.295
44851.138
14843.545
-32264.84
-51352.86
-25494.366
-19878.238
-14492.039
-942.15812
6799.0485
-2410.8841
-7717.5805
-19767.687
-7112.0379
933.90891
-1441.819
696.71637
333.01269
5271.8627
6157.7305
2740.7834
5579.0452
3929.9207
3596.5046
4926.0822
910.15198
2316.2846
8018.7093
4370.2437
5416.6669
4265.7659
5344.5108
3038.4204
-253.85272
1049.6876
-177.5491
9972.5087
7322.8722
7169.7961
865.92651
10288.887
11797.037
-462.38281
34106.275
3976.9172
16262.9
30417.288
24007.636
8800.9548
10574.746
20337.092
-14274.784
11123.365
12454.709
10103.13
28251.977
10355.254
22375.217
20838.895
12186.495
17580.538
23314.926
23548.56
27213.882
39359.111
42041.565
71453.931
49723.151
46706.708
52091.486
37270.37
46586.669
53476.749
69963.916
74100.499
57020.998
38052.793
9765.2828
-41937.329
-63886.222
-26941.492
-23037.46
-24407.669
-9747.6142
3035.8634
-13180.767
-8999.0463
-20225.397
-6218.9232
721.44178
-1451.4249
54.836213
511.91305
5417.3504
7471.2624
1659.423
4847.1042
5819.447
1715.1274
6100.3486
410.33363
475.10498
9294.1719
4732.0257
3917.192
3632.0599
4685.5433
3913.7715
305.87529
759.2878
-1674.1243
10639.515
8814.9897
7477.9761
1753.5192
10951.101
10973.539
-805.99647
34475.031
3443.0096
12787.541
26900.01
24482.96
9509.8084
10703.755
19201.787
-13482.128
10624.692
14260.825
10053.691
23823.765
9946.096
19938.438
19777.002
12011.052
17581.147
20384.754
22069.248
23443.31
38749.913
40763.42
70154.55
49510.985
46294.94
49704.547
35885.064
41611.966
50726.453
67570.423
70928.246
53401.704
31138.23
-553.55404
-50615.685
-51869.295
-25591.167
-22984.621
-19219.02
-9037.8122
-2973.2375
-21631
-9507.6252
-20628.034
-5327.284
428.37071
-1674.1858
-330.59576
983.81879
5084.4479
8549.7255
1594.1241
3167.4395
7510.0509
847.53638
5302.9613
755.05827
-604.05024
8183.275
5259.4705
4491.3137
3762.3866
4041.0626
4510.9684
1341.0529
1116.2117
-1861.6605
10929.343
8487.7716
6328.5699
627.16895
10020.823
11525.469
-283.55369
34560.117
4292.756
13867.545
21211.619
23992.308
8476.5127
11204.446
17674.156
-15187.171
9851.9621
13135.449
10327.145
14785.703
11186.054
16302.986
17885.047
11073.424
17175.907
18688.543
22746.879
22548.799
34836.189
44663.547
70838.844
47426.766
46093.31
51900.7
33274.952
41069.55
52835.096
69072.965
68131.851
49018.706
25865.592
-12644.423
-55072.066
-48215.677
-25696.275
-22512.22
-18741.342
-4808.211
-6483.676
-16657.544
-8804.8688
-21039.254
-4442.7787
156.84801
-2083.3822
-886.51511
1846.3554
5065.3956
8334.3242
2631.2571
1243.8836
7809.4757
1333.4556
3229.1935
762.58662
195.94317
8042.3604
5348.5068
5236.4446
4550.6999
4093.9563
4344.3296
784.95904
231.83172
-2035.3325
10888.346
8545.9408
6974.321
1508.7062
10530.864
11313.6
225.22275
32860.537
2059.0634
9127.9944
18377.598
23694.828
8776.7585
11882.449
16230.953
-15558.042
9434.4034
12324.024
8884.389
11884.919
11065.678
16337.947
12715.074
5963.7717
17728.634
19202.411
22813.031
26245.775
36447.763
44649.846
69709.699
42916.351
41970.756
56054.554
34033.198
41635.514
55853.201
70348.519
65097.805
44088.901
19054.415
-23115.137
-59948.59
-49788.432
-29582.145
-26001.546
-19566.803
-4232.5925
-8825.8233
-13884.552
-9439.9306
-21463.517
-3573.3328
-110.71616
-2315.4621
-1978.6073
2745.8507
5806.8322
6947.9561
3688.526
-147.32885
6824.5448
2275.4553
3201.5358
569.5085
1109.9027
8705.7759
5222.4352
4709.1474
3608.7112
3991.5433
4374.2381
1045.0729
487.38995
-1899.2762
10855.885
7842.107
6793.5404
1275.5766
10095.551
11233.689
716.96408
30667.006
1458.2246
13346.605
17243.785
23054.657
8777.6408
13228.437
14650.47
-16930.94
8981.8825
11872.101
1853.2327
9393.016
8471.2164
17887.871
11719.021
130.92331
18004.581
20613.277
25016.41
27388.56
35076.742
44225.025
68504.627
33406.695
31809.705
58163.921
28299.968
38901.189
59580.617
71713.484
61764.633
39473.401
13200.973
-37605.251
-68247.854
-49471.637
-33267.596
-27723.169
-20658.65
-6329.1233
-10610.665
-19080.375
-10860.085
-21836.196
-2700.0218
-532.67266
-2063.564
-3440.0758
3349.4533
6769.5662
5430.2673
3559.2401
623.68937
6484.2481
3307.2897
3678.3837
395.48042
343.51927
8119.7432
5110.1464
5173.7045
3968.2501
4209.2424
4178.9396
651.82421
355.94958
-2291.3079
10725.7
7517.1573
6852.8084
1459.561
9590.3365
10845.445
1174.1161
27976.623
1239.3192
11002.041
16254.293
22925.331
8226.9608
13236.204
14424.002
-16712.639
9231.4588
11237.35
2758.8429
2833.6705
6630.2887
18724.116
14521.127
178.96516
19371.17
21146.734
25514.169
24702.6
33091.727
43495.683
66451.945
24370.812
12385.459
61841.235
19203.016
32511.625
63026.599
74757.315
59608.082
34826.356
5035.1478
-47922.287
-75438.935
-52975.024
-35980.338
-27783.119
-21102.629
-8417.749
-12898.03
-17790.484
-11512.018
-22074.124
-1779.9647
-1188.9033
-1520.9197
-4725.3036
3608.4673
7251.3384
4928.5178
3513.9565
1804.5348
6611.7651
2991.0148
3270.3954
291.56105
580.08593
8149.9827
5106.3388
5077.0366
3577.6975
4244.3211
4050.4334
288.24629
495.20914
-2536.3309
10415.72
7048.6998
5935.6221
2006.0505
9163.0176
10071.688
997.5604
24868.371
1560.0493
13371.272
16828.893
22644.829
6795.8113
13852.829
15733.828
-15254.85
10292.459
12012.65
398.28678
38.824183
4110.8449
13932.673
17727.223
3162.5426
19799.294
17690.596
25445.659
24222.716
31042.453
42453.81
64240.231
15960.847
7997.3081
69652.131
16117.553
28237.745
65371.048
76895.767
57437.877
31772.077
-4336.9004
-57808.017
-81360.691
-57261.789
-37257.707
-29078.63
-21920.433
-13695.57
-15312.254
-17483.058
-11774.532
-22221.293
-763.39729
-1797.1397
-1285.4569
-5417.0825
3485.3988
8192.0915
5011.0347
3733.7554
1515.9165
6358.6172
2998.7796
3375.5696
230.64473
510.23395
7997.9769
5063.3962
5227.1201
3624.2649
4376.8588
3844.7227
-136.31466
731.95343
-2544.5021
9821.4877
6670.4121
4854.9348
2949.7466
8813.2947
8222.8498
783.08776
21985.41
2144.0943
14108.622
16855.464
22115.77
5132.7638
11203.458
16207.501
-12460.778
11122.497
12371.596
-754.85377
3273.9739
3388.0136
11617.771
18049.449
3438.0055
19833.578
14727.197
23485.7
25373.256
30167.7
41197.663
61756.766
11972.177
14430.914
73856.946
17377.504
28898.789
67437.786
77143.151
54914.58
28446.349
-8020.2469
-62807.524
-84913.948
-61131.283
-38227.645
-30012.223
-22410.428
-15712.813
-15468.681
-17766.521
-12836.049
-22672.762
343.6417
-1697.4966
-1750.6312
-5470.9342
3431.053
9433.1616
4695.5166
3335.8045
1490.1819
6400.9168
2903.8475
3327.7449
25.961414
485.70087
7961.5624
4694.2976
5087.5622
3525.0905
4568.1531
3544.9361
-614.63591
1239.7918
-2351.915
8653.939
6181.5876
3247.5786
2563.6231
8012.4828
7539.6248
501.25083
18665.318
2284.3215
13692.676
15955.262
21575.894
4060.0705
5675.4422
14542.733
-11179.626
10764.906
12054.334
363.6436
4936.6183
3758.3969
10528.855
14534.449
3677.2307
20639.007
12321.776
21614.916
25921.352
29625.548
40695.849
59268.897
13742.361
18884.267
69193.56
23515.083
33026.996
68488.156
76608.226
51965.737
25888.046
-8683.5815
-64933.049
-86306.55
-64521.137
-39514.007
-30152.154
-22505.475
-15034.356
-13959.95
-18404.85
-13672.028
-24158.237
1442.7084
-516.73825
-2326.5766
-5171.545
3346.7102
9330.4825
4712.2567
3438.252
1451.3319
6300.0496
2810.0481
3334.7232
-233.68005
296.57939
7864.1888
4081.6422
4918.6355
3556.117
4609.9594
3149.254
-1124.5886
1839.8404
-2017.6278
6641.2566
5589.9733
1019.6868
1134.509
6575.5456
7849.5926
277.17153
14800.915
1938.8059
13671.65
15274.973
20798.768
1513.6793
252.01334
14100.194
-11881.314
8616.0551
12790.489
1765.3049
2358.3682
1571.0214
7431.882
10612.247
4729.6585
23010.475
9828.3468
20450.891
28060.938
29229.228
39606.276
57038.866
15139.368
21716.874
60203.342
33086.431
38630.88
68918.85
76146.659
48260.485
22684.698
-9228.9042
-71217.632
-90440.337
-70908.046
-43647.921
-32004.573
-23121.886
-12686.747
-10460.144
-19460.495
-14542.068
-26489.722
2186.698
594.21764
-2277.6705
-5065.0396
3139.7264
9359.2349
4699.3276
3446.0794
1472.9333
6154.1957
2708.1697
3228.8714
-473.29052
-40.083818
7692.5238
3323.8449
4726.473
3463.4241
4669.5727
2733.5862
-1530.0138
2523.4064
-1842.595
4044.9346
5329.1668
-883.00405
14.024549
4687.1351
8091.5131
749.52507
11211.731
1032.781
13556.108
15304.244
19854.107
-1325.0593
-3806.5083
14076.461
-10895.134
6521.5363
12241.302
3948.8955
7624.7549
1506.1601
6371.9843
10677.166
5253.8261
23877.728
8165.5433
20254.228
29030.591
29975.388
39076.533
55104.849
16159.957
24869.582
56731.292
38981.464
45019.704
68537.833
74878.436
45247.563
19877.464
-13044.249
-77618.929
-96886.82
-77618.702
-48496.699
-33831.951
-23363.839
-9094.6057
-7017.4259
-20388.421
-15563.761
-26190.933
1503.7718
221.92562
-2006.1081
-5047.689
3036.7604
9325.3124
4673.9485
3480.1324
1494.3346
5964.8108
2600.2172
3120.6221
-636.07483
-488.96311
7450.8462
2558.2833
4547.6252
3379.4895
4572.486
2345.3125
-1984.988
3316.06
-1863.7479
2217.2687
5464.0385
-1724.535
-884.05053
2809.0031
7865.7866
626.41878
7975.8856
522.97477
13512.306
15480.628
18895.133
-3560.2807
-6392.0807
13785.799
-8548.1231
6041.232
10637.285
7133.9579
10027.248
724.24691
10126.665
11623.527
6273.2497
24460.691
8570.8169
21600.613
30226.826
30805.538
38628.015
51577.555
22338.242
28652.208
54238.899
43161.001
50606.814
69085.461
74765.405
41802.884
18661.156
-16227.218
-79462.116
-98436.222
-80281.896
-53997.63
-36434.354
-22911.083
-5793.7003
-4032.8321
-20652.895
-16328.974
-16967.034
-851.0933
-253.88641
-1887.9578
-5005.4867
3005.0483
9255.855
4647.8497
3488.8991
1503.9177
5784.9196
2484.8293
2940.1115
-764.14169
-966.78851
7182.372
1748.4465
4361.0198
3251.3477
4443.8098
2010.0907
-2424.669
3838.6922
-1931.1759
1797.3514
6198.7146
-1475.8983
-1532.4145
1634.3749
7528.1438
684.45678
5612.4824
178.05892
13491.412
14819.422
17666.291
-5452.0287
-7143.8254
14175.979
-7315.5196
5154.7773
9793.624
8169.8662
9248.7083
1071.6387
9788.1945
11341.774
8257.0986
23743.004
9957.771
24404.446
29930.874
31203.465
38283.84
47950.713
30887.957
35842.269
51404.532
46755.354
57800.436
69718.067
74267.566
37524.172
16611.929
-17198.619
-77472.905
-97920.409
-81797.986
-60610.373
-39303.944
-21777.287
-5389.6257
-1974.3189
-19033.863
-14889.667
680.6511
-1814.4914
-329.29701
-2038.7807
-4999.9709
3036.7138
9089.8507
4619.7962
3496.7919
1507.4682
5636.9153
2362.8927
2716.581
-854.90937
-1424.8316
6888.3164
868.74604
4164.738
3205.4736
4315.4876
1707.8048
-2819.5158
4248.4693
-1944.9839
2239.5395
7497.5938
-326.9706
-2004.0821
1203.2555
7265.0863
667.54032
4406.7236
205.32904
12924.212
13827.463
16037.373
-6610.6202
-7019.226
14726.812
-6088.9339
5200.0481
9063.5237
8684.2165
10470.508
2175.3024
9152.3279
10919.845
11048.708
22284.818
11240.832
26849.424
29339.323
30874.01
38207.89
45913.888
32906.654
37648.951
47454.312
49514.839
59249.87
69704.286
71744.376
33076.806
14439.305
-17854.128
-77102.232
-98831.178
-86130.975
-65106.595
-40777.947
-20632.977
-5948.7575
-3031.7707
-16180.897
-10672.824
4397.2907
-254.23765
-385.82995
-2094.0967
-4998.5162
3049.8685
8880.0049
4578.7966
3492.053
1513.3778
5535.6401
2224.0853
2456.6095
-904.00758
-1874.6655
6569.9949
-35.472257
3933.3166
3132.5097
4179.6469
1376.185
-3174.318
4617.2474
-1912.3384
2974.3815
8739.4631
1492.1642
-2042.7434
1356.5779
6992.0359
915.08748
4303.2305
612.94698
12370.974
12822.933
14661.749
-6235.588
-7450.6854
14132.125
-3735.8471
6967.1149
7955.9465
9048.6887
9740.1268
3311.6817
9915.6299
9878.9631
12699.291
21145.908
11861.882
28065.334
28445.24
29898.741
36924.352
43511.629
34354.463
34718.167
42814.128
51474.245
56884.696
69316.556
67672.117
27559.242
12741.952
-16956.552
-75483.56
-99975.403
-90846.502
-69163.867
-43989.316
-22818.853
-8637.2065
-5504.9292
-14176.693
-8464.4451
-4974.4088
730.76748
-297.31207
-2095.7355
-5005.5853
3009.881
8657.802
4538.7521
3479.9024
1533.1903
5470.8912
2076.92
2169.2158
-924.87287
-2314.8262
6212.2495
-903.08476
3736.9891
3049.7286
4066.3022
973.22275
-3566.4186
4865.616
-1734.4435
3466.0794
9314.7066
3323.01
-1590.6482
1802.8517
6679.979
1189.8537
4943.7417
1194.6512
12117.705
10604.766
13807.507
-5633.955
-8949.9635
12364.375
-1318.2952
8660.8015
7111.0842
9343.2806
9318.3997
3553.8169
10495.885
9536.2761
13533.263
19934.089
12015.177
28723.3
27085.797
28464.809
35307.821
42120.894
34922.167
30784.449
37105.311
53995.538
55896.795
67771.269
65643.287
22668.042
9764.1238
-18241.12
-69901.945
-99631.888
-95435.067
-74598.128
-47938.381
-24445.438
-10832.757
-7808.9531
-12574.236
-6839.1832
-4903.845
555.73034
-202.65923
-2071.2133
-5015.669
2935.9713
8414.3611
4491.9976
3468.1761
1566.8891
5428.4719
1927.5946
1892.235
-904.40224
-2703.653
5818.5539
-1657.125
3643.1626
2876.3858
3906.7671
448.30887
-4064.1577
4947.6035
-1593.6148
3752.8613
9269.6365
4344.987
-1292.2776
2471.9155
6374.256
1573.5903
5590.022
1438.1631
11521.14
8514.5675
13389.185
-4032.1054
-10219.586
10803.663
-42.037895
8777.7981
6893.7408
9244.8036
8133.9682
1892.9451
11019.95
9191.5655
14196.679
19083.545
11102.215
28442.537
26519.115
27826.563
34865.801
40558.306
33080.558
30330.048
35773.681
54431.352
54226.345
66100.02
65495.911
18566.469
6062.3494
-21044.082
-68552.247
-104468.6
-101148.87
-80242.549
-51645.737
-26316.239
-12139.646
-10001.122
-11159.973
-5456.4366
-4498.6832
804.53035
-76.758105
-2049.7733
-5033.6691
2828.8034
8150.0621
4437.0138
3453.2838
1609.9168
5396.6836
1797.8393
1698.6223
-823.47512
-3002.2339
5405.0668
-2106.7966
3699.1356
2689.0116
3802.0999
-180.33371
-4673.2641
4925.0997
-1448.4398
4077.2969
8976.4235
4620.8592
-966.10558
3174.8616
6029.7442
2035.4469
6069.1619
1353.6947
11610.493
7991.6381
13275.188
-1235.2566
-8649.5241
9457.6722
-58.533839
8389.7692
6133.6092
9281.3096
7649.1775
-1513.0765
11037.821
8656.1665
13495.581
19005.839
10225.672
26952.945
25449.185
27623.512
34573.078
38177.355
31940.402
31080.234
36424.991
53853.827
52081.049
63771.562
64504.25
14754.6
942.1071
-21126.34
-71613.374
-112472.86
-108321.35
-85552.89
-55568.031
-29009.978
-11997.636
-10453.946
-10122.696
-4810.5274
-3908.7628
992.6928
43.657392
-2030.7769
-5063.6101
2689.7506
7872.4192
4376.3705
3438.1429
1654.929
5375.3325
1710.2643
1636.0245
-710.53626
-3184.4668
5002.1184
-2324.0505
3828.6271
2467.7274
3751.9192
-817.82605
-5337.0712
4778.2862
-677.2802
4387.1337
8319.4897
4787.9608
-679.48508
3697.24
5739.5177
2599.1963
5893.8101
1196.1842
11571.538
7917.6245
13226.677
2317.6471
-5326.167
6132.2803
1036.6614
8201.7604
3965.7113
8349.8149
7113.5778
-2250.2199
11894.999
10035.096
13338.069
19242.585
9890.8788
25298.136
23873.646
27427.511
33390.614
35673.68
32459.001
32102.512
38150.799
52834.812
49117.964
59456.068
62354.065
12477.431
-4139.5862
-22410.314
-75883.582
-119410.08
-117367.82
-90729.894
-59381.731
-31036.578
-11443.36
-9360.445
-9092.557
-4387.9693
-3300.8217
1251.8703
161.16619
-2032.1591
-5103.7334
2520.1712
7589.3378
4309.3148
3422.3114
1696.2426
5360.126
1671.4019
1719.5574
-577.50261
-3238.2177
4614.4265
-2372.0253
4000.0466
2231.2079
3735.9244
-1569.6235
-6012.1214
4420.212
324.37893
4421.8077
7665.8174
4841.9463
-620.645
4027.0443
5475.3189
3293.4631
5409.1898
395.28697
11508.833
8273.8558
13185.88
5814.5526
-1812.1978
-185.21097
701.46028
7644.0863
5372.7178
7967.4208
7246.9641
-2974.4076
12905.306
11431.193
13746.559
18185.464
9605.5368
24429.107
22493.155
26418.891
32208.317
33851.944
32561.191
32186.276
39867.139
51410.113
45651.756
53761.499
59842.318
9990.2327
-8205.1325
-24899.762
-80243.117
-125768.94
-127944.36
-96644.362
-63355.138
-32089.815
-11173.716
-7334.3668
-6989.3782
-2740.5744
-2651.3365
1429.7583
270.14041
-2037.3082
-5154.4468
2319.8649
7314.7837
4237.963
3402.1005
1730.1563
5331.5236
1678.0282
1942.4869
-403.24276
-3167.6317
4231.2257
-2276.8029
4225.2756
1970.664
3731.9211
-2229.1596
-6454.5103
3785.8064
454.5522
4277.0609
7177.0762
4859.9036
-445.93683
4127.733
4958.2082
3821.2917
4863.85
-558.44332
11583.619
7706.6004
12966.037
7551.7843
1661.0131
-1120.1364
-1006.9089
9476.3661
8222.546
7574.5004
6744.8981
-3253.6607
13111.81
12035.443
13382.765
16507.603
8942.3587
23782.54
22334.247
25913.511
30951.671
32697.692
31605.745
31365.76
39464.646
49776.181
42642.726
48138.986
57606.913
7848.0035
-10571.749
-26864.233
-82917.209
-129847.82
-135098.04
-102417.65
-68304.112
-30895.098
-8503.9078
-6064.176
-5776.9339
-1322.465
-2036.063
1734.1856
347.68968
-2055.7476
-5211.2331
2092.2073
7067.5821
4165.524
3371.4811
1755.2854
5273.0167
1708.5418
2288.6938
-189.95416
-2977.1306
3875.7145
-2057.7814
4450.5116
1641.1513
3784.4376
-2788.9493
-6693.4292
3016.4173
157.27126
4170.5917
6802.5602
4900.6954
-163.55313
4576.516
4489.4039
4373.8244
4181.9138
-1342.219
11319.096
7464.9819
12814.808
7039.6912
4287.2595
1191.6766
-502.23977
11161.628
7416.1489
7247.3851
6576.6168
-2886.4912
12882.865
12293.269
13547.494
14601.952
7348.5885
23615.633
23156.411
25460.635
29674.245
31442.818
31084.425
31392.79
38034.686
47473.521
39950.455
44786.519
53532.659
6821.8184
-12076.345
-31925.98
-84030.461
-131098.66
-140957.99
-106975.74
-73409.19
-30012.099
-3057.4644
-4630.6119
-6033.5777
-1223.7969
-1400.3979
1791.5016
449.6629
-2086.0618
-5270.167
1841.1388
6851.1244
4097.251
3319.6484
1770.7427
5180.5871
1734.027
2679.9192
20.797113
-2658.9446
3591.7145
-1768.1946
4615.2657
1233.4795
3805.7545
-3210.8494
-6898.0765
2184.2292
48.476211
3946.758
6426.5648
4847.4208
437.49516
5446.9786
4348.5002
5027.5097
3707.351
-1855.0487
11162.361
6948.2359
12761.25
4536.967
4186.2151
3366.2705
358.79406
11543.827
6813.3864
7007.0847
6794.0623
-2173.333
11779.925
12874.287
14188.448
14207.437
7257.7178
23089.829
23197.01
25080.726
29274.032
30839.257
31244.011
32040.237
35691.436
44675.035
37817.117
41562.734
48221.372
5552.6926
-11829.671
-34866.903
-87254.874
-134086.29
-146209.05
-111610.47
-77176.757
-28233.413
1288.7681
-3652.8226
-6071.9409
-472.85541
-826.26852
2253.6051
477.62743
-2124.5727
-5326.5585
1571.7699
6659.6289
4037.8241
3238.9353
1776.1615
5065.5025
1753.9406
3044.1528
249.1303
-2199.7967
3386.9391
-1406.1998
4697.6839
772.43189
3612.9141
-3320.2677
-6541.3853
1572.5134
-233.81952
3537.7845
5884.8669
4745.5924
1164.2749
6086.1903