/*--------------------------------*- C++ -*----------------------------------*\
| =========                 |                                                 |
| \\      /  F ield         | OpenFOAM: The Open Source CFD Toolbox           |
|  \\    /   O peration     | Version:  2.3.0                                 |
|   \\  /    A nd           | Web:      www.OpenFOAM.org                      |
|    \\/     M anipulation  |                                                 |
\*---------------------------------------------------------------------------*/
FoamFile
{
    version     2.0;
    format      ascii;
    class       surfaceScalarField;
    location    "1.7e-05";
    object      phi;
}
// * * * * * * * * * * * * * * * * * * * * * * * * * * * * * * * * * * * * * //

dimensions      [0 3 -1 0 0 0 0];

internalField   nonuniform List<scalar> 
14825
(
1.0339744e-09
-2.0213031e-11
1.0559688e-09
-2.1994448e-11
1.0747895e-09
-1.8820624e-11
1.0957962e-09
-2.1006765e-11
1.1153266e-09
-1.9530372e-11
1.1358674e-09
-2.0540788e-11
1.1561234e-09
-2.0255982e-11
1.1759423e-09
-1.9818905e-11
1.1961038e-09
-2.016147e-11
1.2158233e-09
-1.9719504e-11
1.2357279e-09
-1.9904663e-11
1.2551683e-09
-1.9440395e-11
1.2743127e-09
-1.9144372e-11
1.2941835e-09
-1.9870822e-11
1.3122067e-09
-1.8023182e-11
1.332618e-09
-2.0411295e-11
1.350317e-09
-1.7698971e-11
1.370174e-09
-1.9857038e-11
1.3882238e-09
-1.8049787e-11
1.406985e-09
-1.8761223e-11
1.4249042e-09
-1.7919182e-11
1.4429357e-09
-1.8031557e-11
1.4599117e-09
-1.6975983e-11
1.4773944e-09
-1.7482651e-11
1.4944514e-09
-1.7057035e-11
1.5107097e-09
-1.6258251e-11
1.5285355e-09
-1.7825869e-11
1.5437446e-09
-1.5209084e-11
1.5619293e-09
-1.818468e-11
1.5769227e-09
-1.499343e-11
1.5943692e-09
-1.7446418e-11
1.6091941e-09
-1.4824945e-11
1.6263241e-09
-1.7130021e-11
1.6404956e-09
-1.4171485e-11
1.6568345e-09
-1.6338905e-11
1.6710175e-09
-1.4183016e-11
1.6861184e-09
-1.5100886e-11
1.7006242e-09
-1.4505759e-11
1.7142115e-09
-1.3587348e-11
1.7278822e-09
-1.3670722e-11
1.7412214e-09
-1.3339201e-11
1.7544375e-09
-1.3216054e-11
1.7669044e-09
-1.2466912e-11
1.7802215e-09
-1.3317113e-11
1.7910602e-09
-1.083863e-11
1.8041013e-09
-1.3041158e-11
1.8154735e-09
-1.1372145e-11
1.8266668e-09
-1.1193312e-11
1.8374426e-09
-1.0775866e-11
1.8477969e-09
-1.0354265e-11
1.8582602e-09
-1.046332e-11
1.8684888e-09
-1.0228558e-11
1.8778504e-09
-9.3615801e-12
1.8869807e-09
-9.1303345e-12
1.8972491e-09
-1.0268409e-11
1.9038817e-09
-6.6325678e-12
1.9142395e-09
-1.0357859e-11
1.9224713e-09
-8.2317817e-12
1.9282635e-09
-5.7921993e-12
1.937433e-09
-9.1694371e-12
1.9454056e-09
-7.9726164e-12
1.9504122e-09
-5.0065967e-12
1.9578804e-09
-7.4682031e-12
1.9661748e-09
-8.2944398e-12
1.9700234e-09
-3.8486397e-12
1.975505e-09
-5.4815738e-12
1.9810565e-09
-5.5514899e-12
1.986051e-09
-4.9945282e-12
1.9904653e-09
-4.4142177e-12
1.9948629e-09
-4.3976438e-12
1.9977876e-09
-2.9246565e-12
2.0007763e-09
-2.9887265e-12
2.0037934e-09
-3.017107e-12
2.0064784e-09
-2.6850013e-12
-1.896005e-12
2.8614002e-09
-7.96473e-11
2.92526e-09
-8.5854223e-11
2.9815346e-09
-7.5095205e-11
3.0432473e-09
-8.2719544e-11
3.1012119e-09
-7.7494896e-11
3.1618212e-09
-8.1150104e-11
3.2217823e-09
-8.0217115e-11
3.2809355e-09
-7.8972065e-11
3.3406642e-09
-7.989019e-11
3.3997916e-09
-7.8846871e-11
3.4589999e-09
-7.9113018e-11
3.51749e-09
-7.7930456e-11
3.5750195e-09
-7.667393e-11
3.6345805e-09
-7.9431805e-11
3.6894557e-09
-7.2898338e-11
3.7504836e-09
-8.1439211e-11
3.8046053e-09
-7.1820713e-11
3.8644587e-09
-7.9710375e-11
3.9193681e-09
-7.295925e-11
3.9766193e-09
-7.6012439e-11
4.0311401e-09
-7.2439961e-11
4.0863204e-09
-7.3211804e-11
4.1388402e-09
-6.9495861e-11
4.1921408e-09
-7.0783226e-11
4.2453375e-09
-7.0253697e-11
4.2955851e-09
-6.6505836e-11
4.3506274e-09
-7.286817e-11
4.3988894e-09
-6.3471125e-11
4.4546005e-09
-7.3895769e-11
4.5026954e-09
-6.3088317e-11
4.5568724e-09
-7.1623437e-11
4.6042933e-09
-6.22458e-11
4.6579508e-09
-7.0787602e-11
4.7036344e-09
-5.9855082e-11
4.7550672e-09
-6.7771615e-11
4.8011818e-09
-6.0297703e-11
4.8491562e-09
-6.3075274e-11
4.8957165e-09
-6.1066012e-11
4.9404105e-09
-5.8281388e-11
4.9847891e-09
-5.8049347e-11
5.0287892e-09
-5.7339242e-11
5.0720479e-09
-5.6474801e-11
5.1142951e-09
-5.4714128e-11
5.1570678e-09
-5.6089778e-11
5.1946886e-09
-4.8459376e-11
5.2372381e-09
-5.559072e-11
5.2756181e-09
-4.9752148e-11
5.3139982e-09
-4.9573356e-11
5.3510529e-09
-4.7830584e-11
5.3875338e-09
-4.6835178e-11
5.4233259e-09
-4.6255375e-11
5.4601896e-09
-4.7092259e-11
5.492871e-09
-4.204307e-11
5.5258053e-09
-4.2064563e-11
5.5613719e-09
-4.5834993e-11
5.5886432e-09
-3.3903857e-11
5.6238665e-09
-4.5581245e-11
5.6550833e-09
-3.9448572e-11
5.678725e-09
-2.9433852e-11
5.7112113e-09
-4.165578e-11
5.7406169e-09
-3.7378172e-11
5.7618444e-09
-2.6234085e-11
5.7895517e-09
-3.5175553e-11
5.8201816e-09
-3.8924298e-11
5.839108e-09
-2.2775069e-11
5.8624579e-09
-2.8831485e-11
5.8863945e-09
-2.9488063e-11
5.9073122e-09
-2.5912272e-11
5.9277076e-09
-2.4809576e-11
5.9470376e-09
-2.3727636e-11
5.963858e-09
-1.9745094e-11
5.9798861e-09
-1.901683e-11
5.9968331e-09
-1.9964131e-11
6.0119186e-09
-1.7770434e-11
-1.5064921e-11
4.364852e-09
-1.7638981e-10
4.4675683e-09
-1.8857053e-10
4.5606699e-09
-1.6819679e-10
4.6612676e-09
-1.833172e-10
4.7565921e-09
-1.728194e-10
4.8557114e-09
-1.8026942e-10
4.9539254e-09
-1.7843116e-10
5.0519883e-09
-1.7703494e-10
5.1498539e-09
-1.777558e-10
5.2483316e-09
-1.7732461e-10
5.3460304e-09
-1.7681178e-10
5.443403e-09
-1.7530309e-10
5.5397252e-09
-1.7299605e-10
5.6384471e-09
-1.7815378e-10
5.7313609e-09
-1.6581207e-10
5.8324085e-09
-1.8248684e-10
5.9238387e-09
-1.6325092e-10
6.0236793e-09
-1.7955096e-10
6.1162403e-09
-1.6552025e-10
6.2125054e-09
-1.7227752e-10
6.305112e-09
-1.6504658e-10
6.3982913e-09
-1.6639115e-10
6.4885327e-09
-1.5973727e-10
6.579199e-09
-1.6144954e-10
6.6701205e-09
-1.6117511e-10
6.7574741e-09
-1.5385945e-10
6.8504287e-09
-1.6582277e-10
6.9361654e-09
-1.4920788e-10
7.0303078e-09
-1.6803811e-10
7.11581e-09
-1.4859052e-10
7.2090019e-09
-1.6481537e-10
7.2932854e-09
-1.465293e-10
7.385633e-09
-1.6313515e-10
7.4679897e-09
-1.4221179e-10
7.5568044e-09
-1.5658633e-10
7.6396993e-09
-1.4319268e-10
7.7242439e-09
-1.4761988e-10
7.8062084e-09
-1.430305e-10
7.8877451e-09
-1.3981801e-10
7.9669525e-09
-1.3725678e-10
8.0468464e-09
-1.3723312e-10
8.1238214e-09
-1.3344984e-10
8.201863e-09
-1.3275573e-10
8.278078e-09
-1.3230481e-10
8.3506169e-09
-1.2099822e-10
8.4280732e-09
-1.33047e-10
8.4987692e-09
-1.2044815e-10
8.5706551e-09
-1.2145927e-10
8.6393914e-09
-1.1656693e-10
8.7095841e-09
-1.1702782e-10
8.7762677e-09
-1.1293899e-10
8.8471612e-09
-1.1798577e-10
8.9095145e-09
-1.0439644e-10
8.9749267e-09
-1.0747672e-10
9.0404661e-09
-1.1137437e-10
9.0986755e-09
-9.2113253e-11
9.1651534e-09
-1.1205916e-10
9.2262042e-09
-1.0049936e-10
9.2785672e-09
-8.1796838e-11
9.3411511e-09
-1.0423976e-10
9.3998551e-09
-9.6082091e-11
9.4484015e-09
-7.4780507e-11
9.5059588e-09
-9.2732912e-11
9.5659111e-09
-9.8876587e-11
9.6105618e-09
-6.7425772e-11
9.6602131e-09
-7.8482787e-11
9.7112586e-09
-8.0533534e-11
9.756928e-09
-7.1581628e-11
9.8033158e-09
-7.1197409e-11
9.8478978e-09
-6.8309679e-11
9.8895859e-09
-6.1433122e-11
9.929788e-09
-5.9218955e-11
9.9704739e-09
-6.065006e-11
1.0006496e-08
-5.37925e-11
-5.007462e-11
5.5884727e-09
-3.0839178e-10
5.7272705e-09
-3.2736833e-10
5.8563849e-09
-2.9731122e-10
5.9938971e-09
-3.2082942e-10
6.1255829e-09
-3.0450514e-10
6.261402e-09
-3.1608849e-10
6.3965291e-09
-3.1355829e-10
6.5324915e-09
-3.1299734e-10
6.6675455e-09
-3.1280979e-10
6.8046799e-09
-3.1445907e-10
6.9406908e-09
-3.1282264e-10
7.0763476e-09
-3.1095991e-10
7.2121789e-09
-3.0882735e-10
7.3489054e-09
-3.1488028e-10
7.4806153e-09
-2.9752194e-10
7.6204418e-09
-3.2231334e-10
7.7496761e-09
-2.9248526e-10
7.8888017e-09
-3.1867653e-10
8.0194152e-09
-2.9613377e-10
8.1541748e-09
-3.0703705e-10
8.2860921e-09
-2.9696387e-10
8.4181069e-09
-2.9840595e-10
8.5483796e-09
-2.9001003e-10
8.6783293e-09
-2.913992e-10
8.808395e-09
-2.912408e-10
8.9364456e-09
-2.8191008e-10
9.0674136e-09
-2.9679082e-10
9.194452e-09
-2.7624622e-10
9.3267803e-09
-3.0036644e-10
9.4527179e-09
-2.7452809e-10
9.5867447e-09
-2.9884214e-10
9.7105441e-09
-2.7032872e-10
9.843338e-09
-2.9592909e-10
9.9666893e-09
-2.655631e-10
1.0093969e-08
-2.8386569e-10
1.0217909e-08
-2.6713251e-10
1.0341825e-08
-2.7153617e-10
1.0461796e-08
-2.6300203e-10
1.0584957e-08
-2.629791e-10
1.0702538e-08
-2.5483717e-10
1.0823826e-08
-2.5852163e-10
1.0939089e-08
-2.4871224e-10
1.1059979e-08
-2.5364609e-10
1.1171696e-08
-2.4402189e-10
1.128414e-08
-2.3344177e-10
1.1397879e-08
-2.4678583e-10
1.1506504e-08
-2.2907397e-10
1.1618795e-08
-2.3374976e-10
1.1725533e-08
-2.2330461e-10
1.1834283e-08
-2.2577805e-10
1.1936838e-08
-2.154937e-10
1.2047196e-08
-2.2834412e-10
1.2147543e-08
-2.0474403e-10
1.2251635e-08
-2.1156794e-10
1.2351153e-08
-2.1089252e-10
1.2450261e-08
-1.9122181e-10
1.2553345e-08
-2.1514288e-10
1.264935e-08
-1.9650472e-10
1.2742482e-08
-1.7492839e-10
1.2839991e-08
-2.0174848e-10
1.2934631e-08
-1.9072244e-10
1.3020835e-08
-1.609844e-10
1.31162e-08
-1.8809742e-10
1.3210467e-08
-1.9314394e-10
1.32905e-08
-1.474588e-10
1.3375679e-08
-1.6366225e-10
1.3462601e-08
-1.674554e-10
1.3542619e-08
-1.5159952e-10
1.3622741e-08
-1.5131974e-10
1.3701494e-08
-1.4706262e-10
1.3775613e-08
-1.3555204e-10
1.3848236e-08
-1.31842e-10
1.3921264e-08
-1.3367778e-10
1.3990674e-08
-1.2320234e-10
-1.1674835e-10
6.5708636e-09
-4.7348408e-10
6.7432117e-09
-4.9971647e-10
6.9076363e-09
-4.6173581e-10
7.0798311e-09
-4.9302423e-10
7.2470484e-09
-4.7172243e-10
7.4175936e-09
-4.866336e-10
7.5884156e-09
-4.8438039e-10
7.7607415e-09
-4.8532315e-10
7.9325289e-09
-4.8459726e-10
8.1068677e-09
-4.8879782e-10
8.2813617e-09
-4.8731665e-10
8.4543848e-09
-4.8398306e-10
8.6295619e-09
-4.8400443e-10
8.8036359e-09
-4.8895426e-10
8.973733e-09
-4.6761905e-10
9.1507738e-09
-4.993542e-10
9.3174605e-09
-4.5917187e-10
9.4938819e-09
-4.9509794e-10
9.6630491e-09
-4.6530098e-10
9.8363903e-09
-4.8037829e-10
1.0009412e-08
-4.6998527e-10
1.0181228e-08
-4.7022228e-10
1.0353174e-08
-4.6195633e-10
1.0526e-08
-4.6422439e-10
1.0696445e-08
-4.6168604e-10
1.0868578e-08
-4.5404378e-10
1.1037498e-08
-4.6570987e-10
1.1208503e-08
-4.4725214e-10
1.1378428e-08
-4.7029087e-10
1.1546218e-08
-4.4231817e-10
1.1721743e-08
-4.7436756e-10
1.1885623e-08
-4.3420803e-10
1.2061335e-08
-4.7164098e-10
1.2227841e-08
-4.3206947e-10
1.23955e-08
-4.5152482e-10
1.2562675e-08
-4.3430693e-10
1.2728752e-08
-4.3761398e-10
1.288815e-08
-4.223993e-10
1.3056188e-08
-4.3101772e-10
1.3215581e-08
-4.1422971e-10
1.338185e-08
-4.2479129e-10
1.353877e-08
-4.0563207e-10
1.3707241e-08
-4.2211722e-10
1.385847e-08
-3.9525026e-10
1.4020643e-08
-3.9561519e-10
1.4174683e-08
-4.0082614e-10
1.4326924e-08
-3.813147e-10
1.4476314e-08
-3.8313975e-10
1.4624495e-08
-3.7148535e-10
1.4777007e-08
-3.7828989e-10
1.4925987e-08
-3.6447433e-10
1.507679e-08
-3.7914704e-10
1.5222046e-08
-3.4999942e-10
1.5369771e-08
-3.5929323e-10
1.5509865e-08
-3.5098647e-10
1.5658345e-08
-3.3970228e-10
1.5801319e-08
-3.5811608e-10
1.5938275e-08
-3.3346118e-10
1.6082345e-08
-3.1899835e-10
1.6218324e-08
-3.3772773e-10
1.635553e-08
-3.279284e-10
1.6488735e-08
-2.9418946e-10
1.6629635e-08
-3.289969e-10
1.676362e-08
-3.2712935e-10
1.6889394e-08
-2.7323233e-10
1.7015942e-08
-2.9021047e-10
1.7143699e-08
-2.9521217e-10
1.7263513e-08
-2.7141401e-10
1.7387141e-08
-2.7494718e-10
1.7510533e-08
-2.7045474e-10
1.7628731e-08
-2.5375018e-10
1.7742064e-08
-2.4517521e-10
1.7856006e-08
-2.4761968e-10
1.7965051e-08
-2.322475e-10
-2.2410487e-10
7.3461224e-09
-6.6975995e-10
7.5493846e-09
-7.0297861e-10
7.7487066e-09
-6.6105777e-10
7.9531453e-09
-6.9746297e-10
8.1551111e-09
-6.7368827e-10
8.3587931e-09
-6.9031555e-10
8.5640842e-09
-6.8967147e-10
8.7707838e-09
-6.9202276e-10
8.9790801e-09
-6.9289356e-10
9.1878906e-09
-6.9760831e-10
9.4000393e-09
-6.9946533e-10
9.6091869e-09
-6.9313071e-10
9.8211362e-09
-6.9595374e-10
1.0032852e-08
-7.0067012e-10
1.0239353e-08
-6.7412032e-10
1.0452934e-08
-7.1293484e-10
1.0658357e-08
-6.6459485e-10
1.0870633e-08
-7.0737391e-10
1.1080506e-08
-6.7517366e-10
1.1291882e-08
-6.9175446e-10
1.1506571e-08
-6.8467411e-10
1.1721304e-08
-6.8495601e-10
1.1935607e-08
-6.7625936e-10
1.2153137e-08
-6.8175442e-10
1.2364756e-08
-6.7330448e-10
1.2583442e-08
-6.7272991e-10
1.2790432e-08
-6.7269999e-10
1.3007901e-08
-6.6472111e-10
1.3213974e-08
-6.7636349e-10
1.3425501e-08
-6.5384544e-10
1.364136e-08
-6.9022667e-10
1.3845857e-08
-6.387046e-10
1.4065224e-08
-6.9100836e-10
1.4276267e-08
-6.4311278e-10
1.4487373e-08
-6.6263095e-10
1.4699979e-08
-6.469125e-10
1.4912981e-08
-6.5061646e-10
1.5114983e-08
-6.2440105e-10
1.5329583e-08
-6.4561701e-10
1.5533538e-08
-6.1818509e-10
1.5743074e-08
-6.3432745e-10
1.5944774e-08
-6.0733203e-10
1.6161642e-08
-6.3898479e-10
1.6356556e-08
-5.9016437e-10
1.6572564e-08
-6.1162358e-10
1.6769184e-08
-5.9744644e-10
1.6974441e-08
-5.86571e-10
1.7171372e-08
-5.8007141e-10
1.7369238e-08
-5.6935136e-10
1.7564709e-08
-5.7376082e-10
1.7757897e-08
-5.5766219e-10
1.7949211e-08
-5.7046098e-10
1.8153004e-08
-5.5379221e-10
1.8346319e-08
-5.5260856e-10
1.8532394e-08
-5.3706167e-10
1.87395e-08
-5.4680783e-10
1.8922076e-08
-5.4069189e-10
1.9111058e-08
-5.2244337e-10
1.9308206e-08
-5.1614636e-10
1.9489039e-08
-5.1856046e-10
1.9672657e-08
-5.1154718e-10
1.9861165e-08
-4.8269721e-10
2.0050253e-08
-5.1808427e-10
2.0229297e-08
-5.0617414e-10
2.0409956e-08
-4.538913e-10
2.0589609e-08
-4.6986283e-10
2.0766663e-08
-4.722666e-10
2.0936855e-08
-4.4160636e-10
2.1107749e-08
-4.4584064e-10
2.1273996e-08
-4.3670202e-10
2.1437368e-08
-4.1712227e-10
2.1602614e-08
-4.1042097e-10
2.177218e-08
-4.1718606e-10
2.1929318e-08
-3.8938547e-10
-3.8065151e-10
7.9440137e-09
-8.9553711e-10
8.1758587e-09
-9.3482367e-10
8.4087062e-09
-8.9390524e-10
8.6434191e-09
-9.3217588e-10
8.8790226e-09
-9.0929173e-10
9.1143677e-09
-9.2566067e-10
9.3537383e-09
-9.2904208e-10
9.5914604e-09
-9.2974487e-10
9.8362857e-09
-9.3771883e-10
1.007529e-08
-9.3661238e-10
1.0323182e-08
-9.4735801e-10
1.056656e-08
-9.3650822e-10
1.0812077e-08
-9.4147064e-10
1.1062152e-08
-9.5074547e-10
1.1304671e-08
-9.1663927e-10
1.1554987e-08
-9.632502e-10
1.1802807e-08
-9.1241511e-10
1.2049845e-08
-9.5441204e-10
1.2303949e-08
-9.2927803e-10
1.2553046e-08
-9.408508e-10
1.2809006e-08
-9.4063449e-10
1.3066491e-08
-9.4244077e-10
1.3320279e-08
-9.3004723e-10
1.3583162e-08
-9.4463743e-10
1.383359e-08
-9.2373329e-10
1.4099053e-08
-9.3819196e-10
1.4345237e-08
-9.1888429e-10
1.4611644e-08
-9.3112841e-10
1.4854701e-08
-9.194203e-10
1.5113848e-08
-9.1299241e-10
1.5369622e-08
-9.4600044e-10
1.5617815e-08
-8.8689772e-10
1.5881846e-08
-9.5503965e-10
1.6137856e-08
-8.9912265e-10
1.6396021e-08
-9.2079563e-10
1.6653611e-08
-9.0450283e-10
1.6917133e-08
-9.141383e-10
1.7163155e-08
-8.7042295e-10
1.742619e-08
-9.086522e-10
1.7679498e-08
-8.7149309e-10
1.7935679e-08
-8.9050901e-10
1.8187525e-08
-8.591778e-10
1.8451256e-08
-9.0271517e-10
1.8694451e-08
-8.3335996e-10
1.8963403e-08
-8.8057551e-10
1.9201466e-08
-8.3550968e-10
1.9463148e-08
-8.4825297e-10
1.9709553e-08
-8.2647559e-10
1.9962244e-08
-8.2204319e-10
2.0212066e-08
-8.2358215e-10
2.0466687e-08
-8.1228377e-10
2.0697092e-08
-8.0086606e-10
2.0958824e-08
-8.1552388e-10
2.1192267e-08
-7.8605201e-10
2.1433593e-08
-7.7838706e-10
2.1701295e-08
-8.1450995e-10
2.1928308e-08
-7.6770518e-10
2.2183093e-08
-7.7722792e-10
2.2429241e-08
-7.6229499e-10
2.2661652e-08
-7.5097082e-10
2.2897862e-08
-7.4775751e-10
2.314513e-08
-7.2996546e-10
2.3387767e-08
-7.6072126e-10
2.3613858e-08
-7.3226515e-10
2.3846395e-08
-6.8642771e-10
2.4082791e-08
-7.0625864e-10
2.4312621e-08
-7.020965e-10
2.4543675e-08
-6.7266128e-10
2.4777647e-08
-6.7981183e-10
2.5005327e-08
-6.6438267e-10
2.5226817e-08
-6.38612e-10
2.5444591e-08
-6.2819512e-10
2.5661114e-08
-6.3370939e-10
2.5879196e-08
-6.0746703e-10
-5.9376632e-10
8.3890686e-09
-1.1478988e-09
8.6490354e-09
-1.1947904e-09
8.9119851e-09
-1.156855e-09
9.1759056e-09
-1.1960963e-09
9.4438663e-09
-1.1772525e-09
9.7079955e-09
-1.1897898e-09
9.9821409e-09
-1.2031875e-09
1.0246667e-08
-1.1942707e-09
1.0528226e-08
-1.2192778e-09
1.0794393e-08
-1.2027799e-09
1.1077152e-08
-1.2301171e-09
1.1353465e-08
-1.2128212e-09
1.1632748e-08
-1.2207537e-09
1.1920005e-08
-1.2380023e-09
1.2200595e-08
-1.1972296e-09
1.2486843e-08
-1.249498e-09
1.2779557e-08
-1.2051293e-09
1.3060291e-08
-1.235146e-09
1.3360298e-08
-1.2292842e-09
1.3644282e-08
-1.2248354e-09
1.3941001e-08
-1.2373528e-09
1.4238605e-08
-1.2400453e-09
1.4528485e-08
-1.2199268e-09
1.4836363e-08
-1.2525154e-09
1.5123435e-08
-1.2108057e-09
1.543595e-08
-1.2507069e-09
1.5721921e-08
-1.2048557e-09
1.6036485e-08
-1.2456915e-09
1.632102e-08
-1.2039557e-09
1.6631348e-08
-1.2233202e-09
1.6926609e-08
-1.2412612e-09
1.7225691e-08
-1.18598e-09
1.7533862e-08
-1.2632111e-09
1.7836268e-08
-1.2015283e-09
1.8143952e-08
-1.2284794e-09
1.8446382e-08
-1.2069334e-09
1.8761774e-08
-1.2295299e-09
1.9054301e-08
-1.1629496e-09
1.9367602e-08
-1.221954e-09
1.9670793e-08
-1.1746836e-09
1.9974976e-08
-1.194692e-09
2.0280764e-08
-1.1649658e-09
2.0591242e-08
-1.2131933e-09
2.0891317e-08
-1.1334347e-09
2.1213942e-08
-1.2032007e-09
2.1502867e-08
-1.1244344e-09
2.1822651e-08
-1.1680372e-09
2.2117987e-08
-1.1218118e-09
2.2424561e-08
-1.1286174e-09
2.2724241e-08
-1.1232619e-09
2.3041898e-08
-1.1299411e-09
2.3321024e-08
-1.0799916e-09
2.3656469e-08
-1.1509693e-09
2.3929858e-08
-1.0594406e-09
2.4235967e-08
-1.0844966e-09
2.4548315e-08
-1.1268572e-09
2.4819927e-08
-1.0393177e-09
2.5143348e-08
-1.1006493e-09
2.5440392e-08
-1.0593387e-09
2.5732194e-08
-1.0427721e-09
2.6028164e-08
-1.0437278e-09
2.6331906e-08
-1.0337077e-09
2.6629292e-08
-1.0581069e-09
2.6916596e-08
-1.0195697e-09
2.7215931e-08
-9.8576273e-10
2.7505981e-08
-9.963089e-10
2.7787384e-08
-9.834994e-10
2.8071967e-08
-9.5724353e-10
2.8364002e-08
-9.7184675e-10
2.8650538e-08
-9.5091911e-10
2.8939923e-08
-9.2799753e-10
2.9234542e-08
-9.2281379e-10
2.9516899e-08
-9.1606596e-10
2.978325e-08
-8.7381806e-10
-8.663617e-10
8.7033617e-09
-1.4235524e-09
8.9921637e-09
-1.4835924e-09
9.2807986e-09
-1.4454899e-09
9.573617e-09
-1.4889147e-09
9.8711285e-09
-1.474764e-09
1.016212e-08
-1.480781e-09
1.0469583e-08
-1.5106513e-09
1.0760286e-08
-1.4849736e-09
1.1076759e-08
-1.535751e-09
1.1371862e-08
-1.4978827e-09
1.1689208e-08
-1.5474632e-09
1.1998008e-08
-1.5216204e-09
1.2313468e-08
-1.536214e-09
1.2633875e-08
-1.5584095e-09
1.2954507e-08
-1.5178618e-09
1.3273085e-08
-1.5680761e-09
1.3608975e-08
-1.5410186e-09
1.3922019e-08
-1.5481902e-09
1.4265868e-08
-1.5731337e-09
1.4583057e-08
-1.5420245e-09
1.4922006e-08
-1.5763012e-09
1.5256892e-08
-1.5749317e-09
1.5584689e-08
-1.547724e-09
1.5936932e-08
-1.6047578e-09
1.6260264e-08
-1.5341381e-09
1.6619566e-08
-1.6100084e-09
1.694856e-08
-1.5338496e-09
1.7306662e-08
-1.603794e-09
1.763642e-08
-1.5337131e-09
1.7997022e-08
-1.5839229e-09
1.8330555e-08
-1.5747944e-09
1.8686673e-08
-1.5420972e-09
1.9035978e-08
-1.6125164e-09
1.9388721e-08
-1.5542714e-09
1.9745457e-08
-1.5852157e-09
2.0095598e-08
-1.5570742e-09
2.0460357e-08
-1.5942885e-09
2.0802884e-08
-1.5054765e-09
2.1166808e-08
-1.5858782e-09
2.1521187e-08
-1.5290626e-09
2.1874614e-08
-1.5481187e-09
2.223501e-08
-1.5253621e-09
2.2589239e-08
-1.5674228e-09
2.2952965e-08
-1.4971604e-09
2.3319416e-08
-1.5696516e-09
2.3666437e-08
-1.4714556e-09
2.4039243e-08
-1.5408428e-09
2.4394572e-08
-1.4771408e-09
2.4756241e-08
-1.4902862e-09
2.5103188e-08
-1.4702092e-09
2.5475719e-08
-1.5024719e-09
2.5801074e-08
-1.4053466e-09
2.6195218e-08
-1.545114e-09
2.6514981e-08
-1.3792028e-09
2.6905431e-08
-1.4749471e-09
2.7250675e-08
-1.4721012e-09
2.758111e-08
-1.3697527e-09
2.7965808e-08
-1.4853471e-09
2.829476e-08
-1.3882906e-09
2.8658478e-08
-1.4064903e-09
2.9015791e-08
-1.4010409e-09
2.9373345e-08
-1.3912616e-09
2.9720061e-08
-1.4048224e-09
3.0070977e-08
-1.3704862e-09
3.0434927e-08
-1.3497123e-09
3.0788071e-08
-1.3494537e-09
3.1118699e-08
-1.314127e-09
3.1461211e-08
-1.2997556e-09
3.18106e-08
-1.3212354e-09
3.2150176e-08
-1.2904959e-09
3.2491957e-08
-1.2697782e-09
3.2850111e-08
-1.2809677e-09
3.3195529e-08
-1.2614836e-09
3.3532035e-08
-1.2103244e-09
-1.1953054e-09
8.9104664e-09
-1.7232388e-09
9.2248986e-09
-1.7980245e-09
9.5373087e-09
-1.7579001e-09
9.8578521e-09
-1.8094581e-09
1.0180121e-08
-1.7970334e-09
1.0500462e-08
-1.8011219e-09
1.0834603e-08
-1.8447916e-09
1.1156839e-08
-1.8072103e-09
1.1501745e-08
-1.8806565e-09
1.1830614e-08
-1.8267514e-09
1.2178447e-08
-1.8952966e-09
1.2520731e-08
-1.8639043e-09
1.2870868e-08
-1.8863513e-09
1.3222241e-08
-1.9097821e-09
1.3581388e-08
-1.8770083e-09
1.3930787e-08
-1.9174758e-09
1.4305471e-08
-1.915702e-09
1.4653211e-08
-1.8959304e-09
1.5034536e-08
-1.9544593e-09
1.5389233e-08
-1.8967208e-09
1.576893e-08
-1.9559984e-09
1.6140217e-08
-1.9462185e-09
1.6512786e-08
-1.920293e-09
1.6902861e-08
-1.9948334e-09
1.726996e-08
-1.901237e-09
1.7669496e-08
-2.009544e-09
1.8044571e-08
-1.9089249e-09
1.8442384e-08
-2.0016069e-09
1.8821507e-08
-1.9128359e-09
1.9225572e-08
-1.9879883e-09
1.960151e-08
-1.9507318e-09
2.0013573e-08
-1.954161e-09
2.0402002e-08
-2.0009449e-09
2.0805785e-08
-1.9580549e-09
2.1207743e-08
-1.9871728e-09
2.1608429e-08
-1.957761e-09
2.2016929e-08
-2.0027882e-09
2.2410088e-08
-1.8986352e-09
2.2823804e-08
-1.999594e-09
2.3223677e-08
-1.9289359e-09
2.3627163e-08
-1.9516053e-09
2.4037715e-08
-1.9359138e-09
2.4433158e-08
-1.9628659e-09
2.4858764e-08
-1.9227659e-09
2.5259651e-08
-1.9705393e-09
2.5663854e-08
-1.8756583e-09
2.6077495e-08
-1.9544836e-09
2.648635e-08
-1.8859955e-09
2.6896246e-08
-1.9001821e-09
2.7296555e-08
-1.8705182e-09
2.7718439e-08
-1.9243568e-09
2.8099531e-08
-1.7864379e-09
2.8528287e-08
-1.9738699e-09
2.8880671e-08
-1.7315869e-09
2.9358566e-08
-1.9528427e-09
2.9702896e-08
-1.8164303e-09
3.0129843e-08
-1.7967005e-09
3.0556787e-08
-1.9122911e-09
3.0908814e-08
-1.740317e-09
3.1331259e-08
-1.8289359e-09
3.173912e-08
-1.8089015e-09
3.2145589e-08
-1.797731e-09
3.2538674e-08
-1.7979072e-09
3.2951543e-08
-1.7833556e-09
3.3377219e-08
-1.7753873e-09
3.3780536e-08
-1.7527715e-09
3.416635e-08
-1.6999405e-09
3.4572784e-08
-1.70619e-09
3.4964711e-08
-1.713162e-09
3.534222e-08
-1.6680046e-09
3.5742236e-08
-1.6697941e-09
3.6160296e-08
-1.6990283e-09
3.6554101e-08
-1.6552888e-09
3.6952177e-08
-1.6084003e-09
-1.5714727e-09
9.0291016e-09
-2.0494321e-09
9.3626421e-09
-2.1315651e-09
9.7006134e-09
-2.0958713e-09
1.0044504e-08
-2.1533492e-09
1.0390341e-08
-2.1428699e-09
1.0740686e-08
-2.1514669e-09
1.1096537e-08
-2.2006426e-09
1.1453884e-08
-2.1645571e-09
1.1820704e-08
-2.2474769e-09
1.2186396e-08
-2.1924434e-09
1.2558362e-08
-2.267262e-09
1.2936528e-08
-2.2420711e-09
1.3315336e-08
-2.2651592e-09
1.3700559e-08
-2.2950053e-09
1.4092224e-08
-2.2686733e-09
1.4476636e-08
-2.3018874e-09
1.488397e-08
-2.3230358e-09
1.5272006e-08
-2.2839664e-09
1.5683789e-08
-2.3662423e-09
1.6083369e-08
-2.2963011e-09
1.6497584e-08
-2.3702134e-09
1.6907366e-08
-2.3560001e-09
1.7326136e-08
-2.3390634e-09
1.7746247e-08
-2.414944e-09
1.8166385e-08
-2.321375e-09
1.8595905e-08
-2.4390644e-09
1.9021778e-08
-2.3347975e-09
1.945527e-08
-2.4350988e-09
1.9883659e-08
-2.3412253e-09
2.0329551e-08
-2.4338801e-09
2.0743412e-08
-2.3645928e-09
2.1208462e-08
-2.4192116e-09
2.1630971e-08
-2.4234538e-09
2.2080899e-08
-2.4079827e-09
2.2520537e-08
-2.4268106e-09
2.2970906e-08
-2.4081301e-09
2.341133e-08
-2.4432127e-09
2.3847107e-08
-2.3344118e-09
2.4309577e-08
-2.4620642e-09
2.4740633e-08
-2.3599917e-09
2.5188718e-08
-2.3996905e-09
2.5638374e-08
-2.38557e-09
2.6067544e-08
-2.3920351e-09
2.6544405e-08
-2.3996271e-09
2.6969372e-08
-2.3955064e-09
2.7420246e-08
-2.3265327e-09
2.7864628e-08
-2.3988655e-09
2.8316655e-08
-2.3380228e-09
2.8769078e-08
-2.3526046e-09
2.9203382e-08
-2.3048226e-09
2.96474e-08
-2.3683744e-09
3.0100403e-08
-2.2394405e-09
3.0540307e-08
-2.4137745e-09
3.0931264e-08
-2.1225441e-09
3.1488896e-08
-2.5104745e-09
3.1782571e-08
-2.1101052e-09
3.2313802e-08
-2.3279314e-09
3.2730897e-08
-2.3293863e-09
3.3110703e-08
-2.1201229e-09
3.361435e-08
-2.3325833e-09
3.4053232e-08
-2.2477835e-09
3.4498461e-08
-2.2429594e-09
3.493838e-08
-2.2378262e-09
3.5413793e-08
-2.2587686e-09
3.5909134e-08
-2.2707287e-09
3.6321401e-08
-2.1650389e-09
3.674665e-08
-2.125189e-09
3.7205702e-08
-2.1652419e-09
3.7640843e-08
-2.1483036e-09
3.7981443e-08
-2.008604e-09
3.8386141e-08
-2.0744929e-09
3.8804665e-08
-2.1175518e-09
3.9153251e-08
-2.0038752e-09
3.950172e-08
-1.9568687e-09
-1.858906e-09
9.069677e-09
-2.4002711e-09
9.4196715e-09
-2.4815595e-09
9.7839753e-09
-2.4601751e-09
1.0146548e-08
-2.5159221e-09
1.051898e-08
-2.5153014e-09
1.0893712e-08
-2.5261989e-09
1.1273802e-08
-2.5807328e-09
1.1661802e-08
-2.5525576e-09
1.2050586e-08
-2.6362601e-09
1.2450665e-08
-2.5925233e-09
1.2844789e-08
-2.6613857e-09
1.325897e-08
-2.6562519e-09
1.3662523e-08
-2.6687127e-09
1.4084258e-08
-2.7167401e-09
1.4503022e-08
-2.6874376e-09
1.4926032e-08
-2.7248969e-09
1.536289e-08
-2.7598937e-09
1.5790796e-08
-2.7118728e-09
1.6234186e-08
-2.809632e-09
1.6676133e-08
-2.7382476e-09
1.7123793e-08
-2.8178743e-09
1.7572232e-08
-2.8044384e-09
1.8031808e-08
-2.7986396e-09
1.8480504e-08
-2.8636398e-09
1.8952674e-08
-2.7935451e-09
1.9404019e-08
-2.8904098e-09
1.9881833e-08
-2.8126114e-09
2.0341978e-08
-2.8952433e-09
2.0813335e-08
-2.8125825e-09
2.1296587e-08
-2.917132e-09
2.1731841e-08
-2.799847e-09
2.2246343e-08
-2.9337138e-09
2.2684735e-08
-2.8618461e-09
2.3175531e-08
-2.8987782e-09
2.3631455e-08
-2.8827346e-09
2.4129016e-08
-2.9056915e-09
2.4581994e-08
-2.89619e-09
2.5045228e-08
-2.7976461e-09
2.5549915e-08
-2.9667512e-09
2.5991663e-08
-2.8017397e-09
2.6476989e-08
-2.8850163e-09
2.6945975e-08
-2.8545557e-09
2.7399649e-08
-2.8457095e-09
2.7905059e-08
-2.9050368e-09
2.8331951e-08
-2.8223988e-09
2.8799432e-08
-2.7940141e-09
2.9283015e-08
-2.8824477e-09
2.9775779e-08
-2.8307874e-09
3.0286906e-08
-2.8637313e-09
3.0713477e-08
-2.7313942e-09
3.1189456e-08
-2.8443533e-09
3.1678801e-08
-2.7287852e-09
3.2027363e-08
-2.7623367e-09
3.2286166e-08
-2.3813469e-09
3.3016795e-08
-3.2411032e-09
3.2839261e-08
-1.9325719e-09
3.3087412e-08
-2.5760821e-09
3.3447702e-08
-2.6896759e-09
3.269644e-08
-1.3688609e-09
3.3130228e-08
-2.7663719e-09
3.3421698e-08
-2.5392531e-09
3.3835704e-08
-2.656966e-09
3.4218947e-08
-2.6210688e-09
3.4545651e-08
-2.5854723e-09
3.5265833e-08
-2.9909109e-09
3.5946952e-08
-2.8461579e-09
3.6167413e-08
-2.34565e-09
3.609634e-08
-2.094169e-09
3.6373506e-08
-2.4254697e-09
3.6117237e-08
-1.7523347e-09
3.5795675e-08
-1.7529312e-09
3.5733304e-08
-2.0551812e-09
3.5613508e-08
-1.8840791e-09
3.560128e-08
-1.9446404e-09
-1.5684609e-09
9.0431126e-09
-2.7720333e-09
9.4098384e-09
-2.8482854e-09
9.7983633e-09
-2.8487e-09
1.0177649e-08
-2.8952083e-09
1.0577356e-08
-2.9150083e-09
1.0971042e-08
-2.9198849e-09
1.1378893e-08
-2.988584e-09
1.1790425e-08
-2.9640887e-09
1.2205428e-08
-3.051263e-09
1.2633545e-08
-3.0206411e-09
1.3053257e-08
-3.0810975e-09
1.3499971e-08
-3.102966e-09
1.3928258e-08
-3.0969995e-09
1.4387331e-08
-3.175813e-09
1.482949e-08
-3.1295961e-09
1.5293918e-08
-3.189325e-09
1.5757054e-08
-3.2230301e-09
1.6223336e-08
-3.1781552e-09
1.6697814e-08
-3.2841096e-09
1.7175668e-08
-3.2161013e-09
1.7655855e-08
-3.2980619e-09
1.8135271e-08
-3.283854e-09
1.8628942e-08
-3.2923111e-09
1.9099918e-08
-3.3346151e-09
1.9613337e-08
-3.3069648e-09
2.0075425e-08
-3.3524973e-09
2.0597064e-08
-3.3342506e-09
2.1060487e-08
-3.3586661e-09
2.1573845e-08
-3.3259401e-09
2.2059766e-08
-3.4030535e-09
2.2513092e-08
-3.2531726e-09
2.3049979e-08
-3.470601e-09
2.3494679e-08
-3.306546e-09
2.4014845e-08
-3.4189441e-09
2.445513e-08
-3.3230202e-09
2.4998673e-08
-3.449234e-09
2.5396755e-08
-3.2942726e-09
2.5904328e-08
-3.3052192e-09
2.6474052e-08
-3.536475e-09
2.6883509e-08
-3.211196e-09
2.7405545e-08
-3.4070524e-09
2.7810953e-08
-3.2599639e-09
2.8110417e-08
-3.1451731e-09
2.8631427e-08
-3.4260476e-09
2.8331176e-08
-2.5221475e-09
2.8123035e-08
-2.5858728e-09
2.8715583e-08
-3.4749962e-09
2.8819986e-08
-2.9351902e-09
2.9204312e-08
-3.2480577e-09
2.9185031e-08
-2.7121131e-09
2.9289586e-08
-2.9489083e-09
2.9161023e-08
-2.6002221e-09
2.8856007e-08
-2.4573203e-09
2.8267071e-08
-1.7924113e-09
2.7898441e-08
-2.8724728e-09
2.7438267e-08
-1.4723979e-09
2.6576813e-08
-1.7146282e-09
2.6119009e-08
-2.2318718e-09
2.5419174e-08
-6.6902561e-10
2.4149675e-08
-1.4968734e-09
2.3050623e-08
-1.4402013e-09
2.1883075e-08
-1.4894179e-09
2.1543145e-08
-2.2811385e-09
2.1772658e-08
-2.8149855e-09
2.158784e-08
-2.8060932e-09
2.2515035e-08
-3.7733522e-09
2.2017649e-08
-1.848264e-09
2.0509009e-08
-5.8552969e-10
2.054623e-08
-2.4626906e-09
1.9779076e-08
-9.851809e-10
1.8438544e-08
-4.1239885e-10
1.7548442e-08
-1.1650797e-09
1.7540556e-08
-1.8761927e-09
1.7453106e-08
-1.8571908e-09
-9.2231119e-10
8.9599896e-09
-3.1605174e-09
9.3449364e-09
-3.2332322e-09
9.7535477e-09
-3.2573113e-09
1.0150502e-08
-3.2921628e-09
1.0574519e-08
-3.3390246e-09
1.0986146e-08
-3.3315123e-09
1.1422393e-08
-3.4248309e-09
1.1852944e-08
-3.3946402e-09
1.2298792e-08
-3.4971105e-09
1.2747151e-08
-3.4689999e-09
1.3200189e-08
-3.5341362e-09
1.3670048e-08
-3.572825e-09
1.4130257e-08
-3.5572084e-09
1.4619853e-08
-3.6654086e-09
1.5086955e-08
-3.5966982e-09
1.5590748e-08
-3.6931186e-09
1.6072309e-08
-3.7045909e-09
1.6578887e-08
-3.6847335e-09
1.7065485e-08
-3.7707069e-09
1.7583271e-08
-3.733888e-09
1.8069119e-08
-3.78391e-09
1.8581676e-08
-3.7964107e-09
1.9077854e-08
-3.7884893e-09
1.9571142e-08
-3.8279027e-09
2.0089038e-08
-3.8248603e-09
2.0558582e-08
-3.8220419e-09
2.1096659e-08
-3.8723275e-09
2.1547412e-08
-3.809419e-09
2.2087269e-08
-3.8657973e-09
2.2534077e-08
-3.8498616e-09
2.3011109e-08
-3.7302043e-09
2.3554414e-08
-4.0139056e-09
2.4004192e-08
-3.7563244e-09
2.4408698e-08
-3.8234505e-09
2.4792573e-08
-3.7068947e-09
2.4768559e-08
-3.4252199e-09
2.4899078e-08
-3.4247917e-09
2.4972649e-08
-3.37879e-09
2.5554081e-08
-4.1179074e-09
2.5152123e-08
-2.8092378e-09
2.5175122e-08
-3.4300515e-09
2.493956e-08
-3.0244018e-09
2.4068379e-08
-2.273992e-09
2.3741848e-08