/*--------------------------------*- C++ -*----------------------------------*\
| =========                 |                                                 |
| \\      /  F ield         | OpenFOAM: The Open Source CFD Toolbox           |
|  \\    /   O peration     | Version:  2.3.0                                 |
|   \\  /    A nd           | Web:      www.OpenFOAM.org                      |
|    \\/     M anipulation  |                                                 |
\*---------------------------------------------------------------------------*/
FoamFile
{
    version     2.0;
    format      ascii;
    class       volVectorField;
    location    "1.7e-05";
    object      U;
}
// * * * * * * * * * * * * * * * * * * * * * * * * * * * * * * * * * * * * * //

dimensions      [0 1 -1 0 0 0 0];

internalField   nonuniform List<vector> 
7500
(
(459.78352 -0.00075488289 -1.3867838e-16)
(460.2033 -0.043916207 3.0798679e-15)
(459.88194 0.083464968 1.6794814e-15)
(459.87325 -0.012672363 -3.3637491e-16)
(460.07761 -0.0041534137 3.244365e-15)
(459.67858 -0.002235736 4.643851e-15)
(460.04621 -0.0044204306 1.4325752e-15)
(459.67597 -0.006290582 5.2498122e-15)
(460.14921 0.012610622 4.8429625e-15)
(459.67548 -0.0077248602 2.2361254e-15)
(460.24864 -0.019144283 1.3423995e-15)
(459.73166 0.028105305 -1.7049645e-15)
(460.03308 -0.01126893 1.5662869e-15)
(459.94515 -0.0085637643 1.4588337e-15)
(459.75039 0.037633593 1.1107821e-15)
(460.04404 -0.061059389 1.2830388e-15)
(459.88827 0.052487752 1.0947291e-15)
(459.90426 -0.030350862 -2.0325037e-15)
(460.2511 -0.0083633938 1.2405401e-15)
(459.95598 0.011481574 1.0918455e-15)
(460.21399 -0.018882014 -1.2247377e-15)
(460.083 0.012897085 9.8874385e-16)
(459.88801 0.034520734 1.0138349e-15)
(460.00218 -0.03195993 -1.5929745e-15)
(459.64146 0.044843942 1.1241762e-15)
(459.71903 -0.014427641 6.5348562e-16)
(459.47263 -0.0084869321 1.2697642e-15)
(459.59545 0.059568418 -1.3949562e-15)
(459.47516 -0.080092353 -7.9859007e-16)
(459.63956 0.055455063 2.5388319e-15)
(459.70238 -0.031519509 -1.2281157e-15)
(459.67974 -0.0072234769 1.4657992e-15)
(459.92817 -0.0027100733 1.2603946e-15)
(459.77237 0.0086933442 -1.6271178e-15)
(460.07107 -0.041951853 -1.1399113e-15)
(459.82099 0.049370984 6.9161276e-16)
(460.19429 -0.047890677 -1.2486887e-15)
(459.99715 0.006758283 1.4926906e-15)
(460.12038 0.02105615 1.1506238e-15)
(460.15625 -0.0069444978 5.4616196e-16)
(460.13536 0.0067886692 6.300038e-16)
(460.09645 -0.01540951 6.8100163e-16)
(460.11652 0.015758463 2.8052291e-15)
(459.98161 -0.011435078 2.7240927e-15)
(460.06852 0.029657686 9.2863977e-16)
(459.97826 -0.028887048 -9.3170151e-16)
(459.99395 0.018632205 -1.6768603e-15)
(460.04259 -0.0092636075 -1.8473858e-15)
(459.8948 0.0046438379 6.2060761e-16)
(460.03691 0.017399384 6.8686729e-16)
(459.86885 -0.0096777549 4.1114648e-16)
(459.80535 0.00055849234 2.4170119e-15)
(459.91139 0.023038658 4.2954954e-16)
(459.82724 -0.0073904258 5.4345286e-16)
(459.87068 -0.013448604 5.6052204e-16)
(459.78732 0.06072185 -1.2271729e-15)
(459.88039 -0.077437464 3.6812844e-16)
(459.79247 0.02632051 4.1218853e-16)
(459.82153 0.042196921 6.0106833e-16)
(459.98118 -0.073434321 4.3089462e-16)
(459.6547 0.007462487 7.0075879e-16)
(459.88285 0.049698315 2.2364176e-15)
(460.04398 -0.06358189 -3.6515757e-16)
(459.715 -0.03590762 -1.2926127e-15)
(459.85933 0.056901539 -8.7758397e-16)
(460.21823 -0.013094042 6.0777332e-16)
(460.05279 0.00047687921 2.5940113e-16)
(460.1856 -0.012660741 2.7058034e-16)
(460.12144 -0.011385782 7.7732962e-16)
(460.05946 -0.00583038 -9.4355022e-16)
(460.16015 0.028743486 -1.9800899e-15)
(460.23726 0.00055104996 6.1402946e-16)
(460.09101 -0.0062545315 2.4071782e-15)
(459.98212 -8.1957369e-05 4.2558342e-16)
(459.99379 0.0080872614 1.9522476e-15)
(459.77021 0.01796189 -3.5617632e-17)
(460.20348 -0.084472552 6.0044745e-17)
(459.89015 0.091537404 -1.1893021e-16)
(459.86406 -0.035721734 4.5205313e-17)
(460.07941 0.060291385 -1.0935052e-16)
(459.69374 -0.042677458 2.0649508e-16)
(460.03198 0.0034422726 -1.3055503e-16)
(459.69368 0.019664644 2.8868258e-16)
(460.13268 -0.028525339 6.3827788e-17)
(459.68554 0.018893976 2.2357234e-16)
(460.23817 -0.015406591 4.019704e-16)
(459.75636 -0.0012555504 1.85155e-16)
(460.0242 0.024717624 -8.0711482e-17)
(459.98148 -0.030520939 -6.2078828e-16)
(459.76233 0.048854894 1.5155752e-16)
(460.07379 -0.058489354 -6.9672608e-16)
(459.91829 0.044059438 5.0301629e-17)
(459.92092 -0.054875288 2.5907886e-16)
(460.27344 0.025413863 1.6121047e-16)
(459.96372 -0.029513944 4.4720746e-16)
(460.21913 0.024530239 -3.0418315e-17)
(460.07945 -0.021569462 2.18285e-16)
(459.86206 0.05250572 -1.0382223e-16)
(459.98171 0.010051389 8.6912609e-16)
(459.59675 -0.0064548076 2.5726991e-16)
(459.67739 0.066744344 2.0426257e-16)
(459.43205 -0.0557388 -1.0504289e-15)
(459.54368 0.06306268 -4.6425798e-16)
(459.42844 -0.054310976 1.8968592e-15)
(459.61474 0.032459528 6.0018864e-17)
(459.66347 -0.063654219 -1.0465568e-16)
(459.67398 0.054820808 1.447481e-16)
(459.92772 -0.097169731 7.2434945e-18)
(459.7756 0.068091547 2.4468106e-16)
(460.08354 -0.064532895 5.3894722e-17)
(459.83897 0.013988248 1.5048202e-16)
(460.19594 -0.011081731 -2.6623455e-17)
(460.02202 -0.018760151 -6.3736374e-16)
(460.12914 0.009339735 2.0686158e-17)
(460.17449 0.0074419929 1.2118766e-17)
(460.14831 0.0029842785 2.7824029e-17)
(460.12079 -0.0067110857 -5.5080953e-16)
(460.13489 0.0080416198 -6.9176142e-17)
(460.00303 -0.018249423 1.6446204e-16)
(460.08445 0.058126831 4.3773738e-17)
(459.9907 -0.04521432 -6.4472125e-16)
(460.00387 0.0070856461 7.0900061e-17)
(460.04883 0.0097577301 -7.4206419e-16)
(459.89624 0.017021376 1.7374785e-16)
(460.03557 0.0057670513 9.9108317e-17)
(459.86413 -0.013685201 -1.7888302e-17)
(459.80641 0.0058958742 -6.4506705e-16)
(459.90834 0.017682697 3.3650294e-16)
(459.82087 0.0066465396 -4.0696255e-16)
(459.87613 -0.050013457 9.9297156e-17)
(459.77772 0.084156653 1.5448282e-16)
(459.86944 -0.061556069 1.0725169e-16)
(459.80478 -0.020753169 3.7407692e-16)
(459.8065 0.092189403 3.2909158e-16)
(459.98171 -0.057811033 -3.6640375e-16)
(459.67194 -0.048753037 2.3937696e-16)
(459.8841 0.077770515 2.8499717e-16)
(460.04279 -0.021162942 3.2880119e-16)
(459.7356 -0.10055948 2.1377879e-16)
(459.86271 0.078425643 -2.6052524e-16)
(460.20917 -0.0094654787 3.3546549e-16)
(460.04523 -0.027002151 -3.2941575e-16)
(460.17361 0.0070123135 2.2166933e-16)
(460.11001 0.007482907 3.2651492e-16)
(460.05383 -0.0175708 2.7032943e-16)
(460.15452 0.015993688 7.3773612e-16)
(460.23037 0.014009256 -4.4429663e-16)
(460.08832 -0.0076192755 1.6212755e-16)
(459.98435 0.0019436928 1.8814454e-16)
(459.99118 0.015597937 2.4003329e-16)
(459.7466 0.035642885 3.5953131e-17)
(460.19987 -0.13257568 -7.5641051e-16)
(459.91317 0.11332252 4.0605501e-17)
(459.8487 -0.045056397 -1.0098435e-16)
(460.08702 0.0690423 4.6230322e-17)
(459.70556 -0.021084243 7.8092058e-16)
(460.01117 -0.021682912 -8.0572654e-17)
(459.73036 0.023231691 -3.9539662e-17)
(460.08899 -0.023693177 2.5709464e-17)
(459.72956 0.00068452951 -6.1207345e-17)
(460.21093 -0.0083079683 -7.6580314e-18)
(459.81152 -0.0012752271 -7.9189845e-16)
(460.03949 0.02589828 -3.934028e-16)
(460.05351 -0.05265804 6.6951429e-16)
(459.81587 0.093417406 5.5610213e-16)
(460.14824 -0.11312363 -8.553286e-16)
(459.97785 0.087233198 6.3390134e-16)
(459.95716 -0.10151286 1.072895e-16)
(460.30859 0.055574482 5.8869349e-17)
(459.94973 -0.051719023 -1.1745939e-16)
(460.20965 0.036349763 1.1754543e-16)
(460.04932 -0.0013098992 4.0340231e-16)
(459.81947 0.04184895 6.5953526e-16)
(459.9363 0.0390494 -1.0799337e-16)
(459.54708 0.010034047 1.0717163e-16)
(459.62948 0.073454895 -2.2215283e-18)
(459.38128 -0.065858367 -3.8065624e-16)
(459.50595 0.10198568 -3.3322241e-16)
(459.37241 -0.12413032 -3.7961914e-16)
(459.58091 0.093066405 6.5109532e-16)
(459.63688 -0.12067441 4.4304013e-17)
(459.66078 0.07062493 -1.3826003e-16)
(459.93472 -0.12186706 -5.5684507e-16)
(459.80441 0.070206471 -1.3031372e-17)
(460.08173 -0.087475754 1.1219813e-16)
(459.87205 0.020487769 6.8797995e-17)
(460.18872 -0.022724212 -3.3376433e-16)
(460.02995 -0.021289885 -4.1433559e-16)
(460.12655 0.011236714 1.057892e-16)
(460.18698 0.0043674736 -8.9915162e-17)
(460.15293 0.00066727332 1.1391383e-16)
(460.14448 0.0034339414 -1.8161327e-17)
(460.15976 0.0019984776 -5.0086346e-16)
(460.03867 -0.034849738 7.1606236e-17)
(460.11236 0.084161655 2.5017159e-17)
(460.00093 -0.053970459 -8.5898513e-17)
(460.02445 0.013245371 3.87085e-16)
(460.05479 0.015820382 4.0281683e-16)
(459.88478 0.011046738 -3.487963e-16)
(460.02038 0.018726023 -1.1164024e-16)
(459.84946 0.0056729616 4.3860205e-16)
(459.79195 -0.04513255 7.6598282e-16)
(459.89395 0.048705653 1.1762699e-17)
(459.79098 0.019438689 2.8287712e-17)
(459.86846 -0.0727831 -5.102521e-17)
(459.75788 0.10083479 3.4673174e-16)
(459.82829 -0.078749599 -6.0584035e-16)
(459.80724 -0.035254111 1.420677e-16)
(459.78616 0.13153485 -7.1662914e-17)
(459.95803 -0.081799566 -4.675776e-16)
(459.68734 -0.056385853 -2.5338686e-16)
(459.90661 0.108078 -2.3077377e-16)
(460.02987 -0.037511842 -5.331351e-17)
(459.75927 -0.14629957 6.8350437e-18)
(459.88416 0.10440196 -2.6430068e-16)
(460.18859 0.004526191 -5.5866747e-16)
(460.03624 -0.049754928 1.3287305e-16)
(460.16071 -0.004782926 1.2250653e-17)
(460.08532 -0.0018282952 3.4551051e-18)
(460.03027 0.00018288347 3.3571956e-17)
(460.14875 0.025723754 6.8810643e-17)
(460.21831 0.030344394 7.0543819e-17)
(460.07855 -0.013732473 -1.5439382e-18)
(459.98059 0.00083226642 3.0998183e-16)
(459.97743 0.02262498 3.7833129e-16)
(459.69497 0.039400519 -1.4392793e-17)
(460.20282 -0.16046626 3.0198703e-17)
(459.94082 0.14482861 -8.0261612e-16)
(459.82819 -0.059687627 -4.2254557e-16)
(460.09034 0.067497067 2.7487477e-17)
(459.73854 -0.0022855389 -5.7284972e-16)
(459.95561 -0.026392161 1.5766062e-16)
(459.80252 0.0010423852 -2.9443121e-17)
(460.01577 0.0032783648 -5.7851141e-18)
(459.80227 -0.028067024 -4.2093755e-16)
(460.19348 0.0024124677 -5.1513492e-16)
(459.9178 -0.0085544295 5.6803262e-16)
(460.09952 0.035408529 4.8215118e-16)
(460.20321 -0.071936608 7.0109312e-16)
(459.92475 0.11810034 4.4946029e-16)
(460.26691 -0.14729287 -5.7355669e-17)
(460.06927 0.12276011 -8.1727901e-17)
(459.96494 -0.12464518 -1.3388921e-17)
(460.31437 0.055790583 -5.419727e-16)
(459.87381 -0.033092056 -5.7044257e-17)
(460.13771 0.02852971 1.596398e-16)
(459.98769 0.00016394026 5.1196343e-16)
(459.75115 0.084781265 -1.2861007e-16)
(459.92482 0.020534225 6.3883005e-17)
(459.54758 0.026318986 3.2394288e-16)
(459.64789 0.10833038 -5.7818401e-18)
(459.4284 -0.10280076 -4.3410941e-16)
(459.5352 0.13646421 6.5634176e-17)
(459.38601 -0.14157154 4.3208527e-16)
(459.5991 0.072187783 -2.8472931e-16)
(459.62586 -0.11418602 3.3968001e-16)
(459.66838 0.052505024 1.9644639e-18)
(459.94119 -0.14667109 -9.8596863e-18)
(459.82836 0.084922212 4.1483e-16)
(460.07274 -0.11354807 -2.8571793e-17)
(459.88211 0.035762589 8.1468149e-17)
(460.14297 -0.040086894 -4.9879079e-18)
(460.00629 -0.017497314 -3.6141975e-16)
(460.06806 0.014729029 2.7428906e-16)
(460.15201 -0.00069417543 -3.9337987e-17)
(460.12373 -0.0014456828 -6.8390538e-18)
(460.13066 0.0049132378 3.2151115e-17)
(460.16549 -0.0077436622 -4.6743055e-17)
(460.06132 -0.024338805 -4.5296708e-17)
(460.13816 0.080261245 -7.6809869e-17)
(460.00272 -0.047236232 -6.1679335e-17)
(460.03432 0.032014283 -3.8505989e-17)
(460.04201 0.0012163762 6.7578142e-18)
(459.85686 0.036112412 -1.2421429e-17)
(459.98578 0.0049908837 3.2836441e-16)
(459.79303 0.043311346 -9.1289111e-18)
(459.7394 -0.094515046 2.0735803e-17)
(459.85697 0.076499936 2.6468724e-16)
(459.70751 0.016221411 -3.914726e-17)
(459.82426 -0.068557096 -5.0646505e-17)
(459.69146 0.11116972 -7.3566076e-19)
(459.75429 -0.11001563 -3.3291782e-16)
(459.78539 -0.034259921 7.3413288e-18)
(459.7275 0.15952095 2.9619981e-16)
(459.91372 -0.11918998 3.701406e-17)
(459.69339 -0.065251765 8.400409e-18)
(459.9082 0.15458459 -4.2921325e-17)
(460.00523 -0.077233921 -3.3239757e-16)
(459.80056 -0.1734897 -2.7580988e-16)
(459.9201 0.1263942 2.4414168e-16)
(460.17614 -0.0064524029 -4.0998714e-17)
(460.02868 -0.048704293 2.6056319e-16)
(460.15345 0.0080479759 5.0849943e-17)
(460.07375 -0.038119763 -2.2843988e-16)
(460.01164 -0.0036518241 -2.2646956e-16)
(460.13916 0.047309089 2.8953011e-16)
(460.19247 0.033137361 3.3788115e-17)
(460.0606 -0.0068788345 -5.1016261e-17)
(459.96551 0.021960059 -4.7949494e-17)
(459.9529 0.033016 -2.3919402e-16)
(459.5869 0.04858419 -1.6758748e-17)
(460.2387 -0.17561032 2.2406788e-17)
(459.91263 0.15836629 2.331751e-16)
(459.88826 -0.080566479 -2.3812716e-17)
(460.02934 0.10169761 -1.2189623e-17)
(459.8643 -0.030440077 -2.7875503e-17)
(459.85893 -0.00067290468 1.3759391e-17)
(459.9202 -0.009043807 -5.000492e-16)
(459.92475 -0.00021066837 -7.7465486e-17)
(459.93276 -0.033045814 -5.9350871e-18)
(460.14847 -0.0036788483 -4.8344852e-16)
(460.13038 -0.020634409 -2.2026188e-17)
(460.15505 0.024894021 2.0456693e-17)
(460.41275 -0.053443155 -5.7124409e-17)
(460.05878 0.098041212 2.0670489e-17)
(460.35039 -0.13116597 1.6075301e-16)
(460.13575 0.13139068 4.5041175e-16)
(459.89613 -0.11745786 -7.8049677e-17)
(460.20158 0.06746712 -3.3511699e-17)
(459.74865 -0.03625968 2.8937369e-16)
(459.93977 0.044069912 3.0452482e-16)
(459.93165 -0.0033090731 -1.3244124e-17)
(459.69007 0.079950615 6.6313536e-17)
(459.99014 0.049683689 -2.8003219e-18)
(459.68431 0.0026573136 -6.106225e-17)
(459.83907 0.1169017 3.1709951e-16)
(459.63075 -0.06340166 -6.6817087e-17)
(459.75547 0.087968292 -1.5845582e-17)
(459.53231 -0.096936942 4.8262137e-17)
(459.70727 0.046182924 -4.052477e-16)
(459.67916 -0.13757389 3.843122e-16)
(459.67542 0.083146795 3.0448969e-16)
(459.90808 -0.19906886 2.9108081e-16)
(459.82124 0.097813959 -3.8503593e-16)
(459.99933 -0.11161442 -2.1348098e-16)
(459.8437 0.014448186 -3.2339993e-16)
(460.04177 -0.022556866 -2.74672e-16)
(459.93743 -0.0039265313 1.1561972e-16)
(459.94824 -0.021257348 9.7304347e-17)
(460.05037 0.035619646 3.3557143e-17)
(460.03595 -0.035837217 -7.3985499e-17)
(460.03967 0.028034876 1.8388513e-16)
(460.11336 -0.056149323 -1.1007109e-17)
(460.02174 0.025341354 2.9034968e-16)
(460.11507 0.057227328 -2.6425642e-16)
(459.96805 -0.049127881 -2.7682238e-17)
(460.00632 0.065909436 2.9039906e-16)
(460.01195 -0.0163173 2.8576787e-16)
(459.79792 0.065740095 2.8597072e-16)
(459.91339 -0.0013176008 -2.5429256e-16)
(459.70596 0.048956795 3.143215e-16)
(459.63425 -0.080389253 2.8566197e-16)
(459.77052 0.070109178 -8.8838422e-17)
(459.57464 -0.0021274115 1.471856e-16)
(459.73941 -0.034348358 5.2844741e-18)
(459.58187 0.08983046 -2.3965176e-16)
(459.64894 -0.12394407 -1.8280548e-16)
(459.74676 -0.029097134 2.6293905e-16)
(459.64263 0.13916025 -3.5561821e-17)
(459.83243 -0.10528017 2.6721113e-16)
(459.67848 -0.098629829 5.3100498e-17)
(459.88249 0.16130693 -8.9629273e-18)
(459.9401 -0.086708796 1.6115227e-16)
(459.83087 -0.17438307 -2.0488131e-17)
(459.94821 0.14271097 2.2550522e-16)
(460.16817 -0.024622685 -2.7044501e-16)
(460.03929 -0.080133422 -3.2619392e-17)
(460.15212 0.044914566 4.6763636e-17)
(460.06086 -0.030863427 -1.700236e-16)
(460.00319 -0.040163372 -7.5549761e-18)
(460.126 0.047028317 8.7474709e-17)
(460.15636 0.03458332 2.1213554e-16)
(460.03796 -0.0089004235 -2.1930063e-16)
(459.93809 0.051741634 2.8466682e-17)
(459.91931 0.049378321 3.3074409e-17)
(459.474 0.062804494 -1.1677246e-17)
(460.2953 -0.19232763 -2.7674888e-16)
(459.8184 0.1711155 1.5192365e-16)
(460.06905 -0.096794718 -7.3350037e-17)
(459.89895 0.12154764 -2.3796303e-16)
(460.09396 -0.033810209 5.4945998e-16)
(459.7811 0.00066736329 -1.8764325e-16)
(460.08791 -0.0098093844 -2.5270546e-16)
(459.84477 -0.0054423544 2.7339975e-17)
(460.15482 -0.037935134 3.0701481e-16)
(459.97257 -0.038590819 -4.0519254e-16)
(460.42574 0.0075764861 4.2837533e-16)
(460.00833 -0.03145193 2.5345299e-17)
(460.55659 -0.030636419 -3.5971939e-16)
(460.04995 0.11499941 -3.2799811e-17)
(460.26914 -0.14383134 8.1167794e-17)
(460.09014 0.17483584 4.3037032e-17)
(459.78631 -0.11970084 9.2152333e-17)
(459.93461 0.098622953 -6.611874e-17)
(459.73641 -0.037775763 4.2292929e-17)
(459.64668 0.022399538 3.3090003e-16)
(459.98755 0.026333289 4.7041529e-19)
(459.63987 0.032282993 2.6297581e-18)
(460.17264 0.035173827 4.2594613e-17)
(459.85761 0.040247786 2.6387748e-17)
(460.18679 0.041090072 6.5891393e-18)
(459.9014 0.0076846921 3.5817425e-16)
(460.09263 0.070996359 -4.7806109e-17)
(459.79257 -0.096074375 -2.321971e-16)
(459.87857 0.092153727 6.1521244e-17)
(459.75989 -0.16514786 -3.0402505e-17)
(459.71874 0.093702273 -1.707573e-16)
(459.78776 -0.18051383 7.2014452e-17)
(459.79736 0.053052489 9.4561678e-17)
(459.85368 -0.083245808 2.3375656e-16)
(459.79062 0.0052824702 -3.7959788e-17)
(459.90541 -0.046224191 4.468732e-17)
(459.88552 0.056884482 -1.1471254e-17)
(459.81481 -0.071108719 2.7776012e-16)
(459.92905 0.063369827 -1.4822972e-16)
(459.91408 -0.06110738 -2.5835942e-16)
(459.8876 0.059096493 2.6132749e-17)
(459.97753 -0.11891251 6.7000182e-17)
(459.90834 0.059114107 2.6057278e-16)
(460.00519 0.034559611 2.8831223e-17)
(459.88779 -0.039819338 2.1542801e-16)
(459.92896 0.06736654 6.794726e-17)
(459.97486 0.019552753 2.6253623e-17)
(459.74528 0.047933822 2.0164701e-17)
(459.84111 0.025218311 3.4125377e-17)
(459.64755 0.041090381 1.9037627e-16)
(459.56163 -0.065099719 6.8648371e-17)
(459.68749 0.074959596 -1.8510342e-16)
(459.5029 -0.036024265 5.9620207e-17)
(459.6765 0.010980947 2.9535214e-16)
(459.52572 0.038436567 -1.4442552e-16)
(459.58124 -0.11673232 -2.2578088e-17)
(459.75094 -0.0038174371 1.8276941e-16)
(459.59113 0.061824196 6.2921661e-17)
(459.7552 -0.05270063 -1.2115451e-16)
(459.65037 -0.089702713 -1.3638809e-16)
(459.8202 0.10238556 4.9480296e-17)
(459.84049 -0.11015873 1.8395821e-16)
(459.80933 -0.15040042 3.7163414e-17)
(459.92656 0.14546808 -2.7216953e-16)
(460.11828 0.012913322 2.1633473e-16)
(460.0267 -0.10115493 -1.2962692e-16)
(460.15126 0.027323126 5.200586e-17)
(460.02353 -0.0041177062 2.2387645e-16)
(459.97262 -0.045120543 5.3228719e-17)
(460.08396 0.02350069 2.3303419e-17)
(460.09177 0.042446833 4.3238615e-17)
(459.98354 -0.020890997 3.1218947e-17)
(459.89022 0.062194466 -1.2633125e-16)
(459.86439 0.060179051 5.1051243e-17)
(459.59391 0.068958081 -3.8676933e-17)
(460.1543 -0.18190579 -1.8516357e-16)
(459.89459 0.16490124 2.0390902e-17)
(460.07479 -0.10049415 1.8291974e-16)
(459.96572 0.10358852 -2.6239366e-18)
(460.14475 -0.0067842086 2.8214957e-17)
(459.93231 -0.01140434 1.0789412e-17)
(460.14655 -0.00583025 2.221113e-17)
(459.84665 -0.017631982 -1.5473793e-16)
(460.34583 -0.017784426 1.6956008e-16)
(459.62195 -0.077615183 -6.5317387e-18)
(460.62753 0.027338851 5.4166868e-17)
(459.56721 -0.033714302 4.2913981e-16)
(460.495 -0.058895852 -3.1783117e-16)
(459.82665 0.15315764 2.3068562e-17)
(460.04947 -0.14759767 1.0418079e-17)
(459.93778 0.1949536 5.4559359e-17)
(459.828 -0.099267635 4.9545255e-17)
(459.60735 0.091960227 -2.6518845e-16)
(460.08274 -0.005362643 -7.4138888e-18)
(459.29516 -0.016534919 7.5935004e-18)
(460.33547 0.012431962 5.636851e-17)
(459.45473 0.034555868 1.3500142e-16)
(460.43037 -0.024206164 -3.1445672e-18)
(459.81332 0.051135142 -1.937076e-16)
(460.43626 0.013714961 3.5543584e-16)
(459.96192 0.025359473 7.2820518e-17)
(460.32106 0.049787732 -2.4655991e-16)
(459.91074 -0.018737008 -1.812865e-16)
(460.06099 0.07039059 -1.6924849e-16)
(459.76084 -0.1248237 2.3674555e-16)
(459.87328 0.10525385 7.0304398e-18)
(459.62486 -0.18006533 2.918077e-17)
(459.88333 0.050035641 1.3101004e-16)
(459.69135 -0.081238368 4.040024e-17)
(459.84943 0.0059128117 -2.3318669e-16)
(459.77145 -0.070703236 2.6274137e-16)
(459.95987 0.092644289 2.4713002e-16)
(459.72286 -0.082462207 4.5704188e-17)
(459.88924 0.065640207 6.3193521e-17)
(459.835 -0.059086012 4.6719592e-17)
(459.78442 0.075257621 -1.4746154e-16)
(459.82149 -0.15303651 2.2129517e-16)
(459.82073 0.097588741 2.0502938e-16)
(459.85998 -0.05124884 -3.0650371e-17)
(459.84298 0.033787938 2.1173799e-16)
(459.83418 0.012170682 7.6881074e-17)
(460.0035 0.065885007 2.2695034e-16)
(459.75459 0.055196994 2.5850106e-16)
(459.86165 0.011636412 -1.1383813e-16)
(459.712 0.071759081 -1.3503281e-18)
(459.64755 -0.045189168 4.2670365e-18)
(459.71364 0.031140801 4.1359429e-17)
(459.62534 0.0022566455 1.1514439e-16)
(459.70545 0.023289287 -1.1943002e-16)
(459.62887 -0.04203792 -1.1559534e-16)
(459.58452 -0.056617758 -2.8112504e-18)
(459.83473 -0.00017507757 -7.5494739e-18)
(459.58684 -0.011478116 1.3364024e-17)
(459.71031 -0.035206676 -1.6156477e-16)
(459.6161 -0.024550019 6.7149136e-17)
(459.70288 0.023587814 5.9882147e-17)
(459.70484 -0.14375585 -1.2698876e-16)
(459.71081 -0.12172377 4.4111943e-17)
(459.81282 0.091703886 5.1433605e-17)
(459.97542 0.035760884 2.063276e-16)
(459.8796 -0.037624299 -1.1668654e-16)
(460.05513 0.012673502 1.3459766e-16)
(459.88015 -0.0094829471 -1.3334571e-16)
(459.84492 -0.0012678809 -1.3727609e-16)
(459.91263 0.01405421 2.4796429e-17)
(459.94042 0.01909588 2.4043309e-17)
(459.81658 -0.030402587 -1.3108212e-16)
(459.75994 0.070974297 2.867776e-17)
(459.70275 0.065532106 1.7147403e-16)
(460.15421 0.080494712 -2.4554794e-18)
(459.46437 -0.16427034 -1.2401831e-16)
(460.52749 0.13464508 2.0200633e-16)
(459.3842 -0.091417285 5.0948389e-18)
(460.65965 0.080143822 -1.0208388e-16)
(459.53281 0.0010749194 6.8614342e-17)
(460.56907 -0.0048421142 1.8896919e-17)
(459.72601 0.0081840257 7.4878099e-17)
(460.11889 -0.046519205 2.4224911e-16)
(460.1552 0.022291511 5.3144225e-17)
(459.46053 -0.085439072 2.2625349e-16)
(460.47185 0.018879111 -4.0130165e-18)
(459.30691 0.0027422543 7.7992204e-17)
(460.22125 -0.076903148 -8.6648064e-17)
(459.71007 0.14304839 8.2621116e-17)
(459.88954 -0.11746544 4.8227583e-17)
(459.83417 0.15284979 1.2757654e-16)
(460.10708 -0.050261233 4.0976333e-17)
(459.3245 0.051141483 -1.8459503e-16)
(460.72856 0.013933606 -5.3101102e-19)
(458.85048 -0.012359869 5.7948709e-17)
(460.95825 -0.018287803 3.2040324e-16)
(458.99081 0.031844471 7.5379226e-17)
(460.75952 -0.031335868 -1.9734538e-16)
(459.43949 0.038716322 -2.3157755e-16)
(460.53299 -0.032248248 4.8394311e-17)
(459.71357 0.096897674 1.0854018e-16)
(460.40919 -0.052853843 2.348557e-16)
(459.73021 0.084400144 2.1835862e-16)
(460.29559 0.052794983 -1.6787874e-16)
(459.55476 -0.1287558 6.1708977e-17)
(460.22389 0.17598551 2.3235525e-17)
(459.37242 -0.22335164 1.9803486e-18)
(460.21052 0.060529505 -2.1586755e-16)
(459.4628 -0.056725468 5.6359183e-17)
(460.11068 -0.034862297 -1.5634758e-16)
(459.60142 -0.062081591 3.04583e-17)
(460.15045 0.12342018 -1.9674788e-16)
(459.67178 -0.11080426 -8.6885349e-18)
(459.9439 0.085671494 4.5308402e-16)
(459.81673 -0.064847544 2.4931674e-17)
(459.82025 0.10467369 2.5369339e-17)
(459.71407 -0.1962294 4.2679058e-17)
(459.87147 0.17035413 1.1243534e-16)
(459.71757 -0.14920335 -1.7957236e-16)
(459.94467 0.089251123 6.1744819e-17)
(459.70141 -0.029914668 -9.8461413e-17)
(460.11087 0.077609973 6.3833948e-17)
(459.77247 0.070180706 -4.0111322e-17)
(459.90637 -0.0002356578 1.8159337e-17)
(459.79785 0.039231982 -4.5107949e-17)
(459.74496 0.078722278 -1.1618855e-16)
(459.69026 -0.1048664 3.9589617e-17)
(459.7753 0.087964606 8.0087139e-17)
(459.57126 0.04278182 -1.3244288e-17)
(459.70194 -0.15019443 1.0595827e-19)
(459.39479 0.04955141 -9.7615048e-17)
(459.76526 -0.042044491 -1.1771124e-16)
(459.36775 -0.038905017 1.5340812e-16)
(459.49531 -0.032798486 6.9762987e-18)
(459.33199 0.023002506 1.1959968e-16)
(459.33012 -0.016981474 -1.0511754e-16)
(459.28378 -0.18953026 6.8980653e-17)
(459.30374 -0.054555156 1.1675303e-17)
(459.31083 0.025692738 -1.2823082e-16)
(459.49157 -0.038595845 -1.0093367e-16)
(459.29422 0.0096471647 2.6643626e-17)
(459.51986 0.048727444 -1.1196725e-16)
(459.26376 -0.039071872 -1.085735e-16)
(459.26929 0.036134055 -1.2470875e-16)
(459.21583 0.06351368 -8.987459e-18)
(459.32013 0.013994198 1.4016742e-16)
(459.12623 -0.058988961 -3.0209892e-18)
(459.13575 0.062944675 9.2675918e-18)
(458.92895 0.076294917 1.4463453e-16)
(460.7328 0.11351234 -1.0100055e-17)
(458.61741 -0.1763176 1.7671211e-16)
(461.38705 0.1257433 -7.2726915e-17)
(458.32084 -0.10256372 1.2499278e-16)
(461.69502 0.072899987 1.3340291e-16)
(458.44586 -0.0039339397 -1.0652715e-16)
(461.51097 -0.013961772 1.0678174e-16)
(458.8049 0.047494017 1.831106e-17)
(460.81964 -0.076618123 8.6828134e-17)
(459.38164 0.052312526 2.2712802e-16)
(460.04888 -0.078428043 -7.1671307e-17)
(459.76459 0.018243297 1.472071e-17)
(459.86666 0.0043295927 1.6880706e-16)
(459.68691 -0.069760757 1.533934e-16)
(460.10481 0.1272925 4.7487945e-17)
(459.71911 -0.10626002 7.9588381e-19)
(459.97504 0.10560748 3.0993846e-17)
(460.2848 -0.0068866243 -5.9400393e-17)
(459.23687 0.00051945738 2.7460244e-16)
(461.12328 0.052780612 -2.1853411e-17)
(458.52037 -0.037530052 3.6643229e-18)
(461.44012 0.00081650629 2.5391963e-17)
(458.50534 0.039136307 1.13164e-17)
(461.10891 -0.081459135 -1.8567961e-17)
(459.04 0.11776064 2.8425822e-16)
(460.63895 -0.13205985 -5.0750561e-17)
(459.45642 0.16576838 -2.21813e-16)
(460.50675 -0.10735641 2.1416333e-16)
(459.39049 0.10594808 4.2724933e-17)
(460.67751 0.048230196 -2.1428541e-16)
(459.0293 -0.10672417 2.3873799e-18)
(460.83684 0.1673373 1.4583864e-17)
(458.81497 -0.18631951 2.158383e-16)
(460.8023 0.022729584 -2.4331242e-17)
(459.00342 -0.035308506 -1.6508624e-16)
(460.55788 -0.032907914 -1.9762066e-16)
(459.26552 -0.11521891 4.7931775e-17)
(460.41114 0.19923897 1.950965e-16)
(459.48893 -0.15212213 -2.4585791e-18)
(460.02926 0.10731504 -1.2889835e-17)
(459.672 -0.070705149 4.2618252e-17)
(459.87306 0.11226641 2.4184698e-17)
(459.4796 -0.18840205 5.036606e-17)
(459.91473 0.16858397 -1.4770835e-17)
(459.36648 -0.17639175 4.4229665e-17)
(459.96224 0.11414811 -1.6850504e-17)
(459.29278 -0.07555112 3.7778844e-17)
(459.94772 0.099626249 2.0035946e-17)
(459.42908 0.043393451 -1.3785583e-16)
(459.52443 0.040203935 1.3716988e-17)
(459.37551 -0.037232618 2.8757798e-17)
(459.30105 0.20663499 1.2826762e-16)
(458.95796 -0.20615669 -1.312669e-16)
(459.32046 0.1982867 6.5490557e-18)
(458.59168 0.012726751 1.9610528e-17)
(459.08291 -0.18323014 1.0394216e-17)
(458.31515 0.15507088 -1.4512224e-16)
(458.85302 -0.11948368 -1.7235636e-16)
(458.23343 -0.018444816 -1.5705855e-16)
(458.38541 -0.0026195369 1.8481731e-17)
(458.00053 0.022404557 1.36464e-17)
(457.96439 -0.011483292 3.8976381e-18)
(457.7121 -0.19904037 -1.1322671e-16)
(457.82363 -0.017282201 -1.336856e-16)
(457.49789 0.033062377 -2.4414724e-17)
(457.82422 -0.10146993 -5.0901866e-18)
(457.36637 -0.024458194 -2.7399627e-18)
(457.61017 0.059396608 -1.1948188e-16)
(457.13611 -0.079822901 -1.180713e-16)
(457.17405 -0.013279208 -1.3852384e-17)
(456.87843 0.084748739 -1.8163207e-17)
(457.02041 0.048354721 -1.2525406e-16)
(456.6533 -0.031924727 -1.5406899e-17)
(456.7497 0.040749658 -1.8498616e-17)
(456.20348 0.089327228 -1.4890771e-17)
(460.53382 0.14363338 -7.7394552e-17)
(458.83289 -0.18745413 -9.0327625e-17)
(461.24376 0.12316891 -2.1050005e-16)
(458.36614 -0.12052684 -2.5802853e-16)
(461.72666 0.061195255 8.7988515e-17)
(458.20825 0.020464179 -5.6043933e-17)
(461.77556 -0.05231653 -9.4857638e-17)
(458.30001 0.094559287 9.3349496e-17)
(461.40117 -0.10429793 1.0822621e-16)
(458.60685 0.088759617 -1.7647796e-16)
(460.9999 -0.10779668 -2.3046569e-17)
(458.82976 0.044740014 -7.7850805e-17)
(460.914 -0.013989209 1.7089522e-16)
(458.9103 -0.07631232 1.3884499e-16)
(460.87099 0.131522 -1.081064e-17)
(459.26581 -0.090122212 -5.9210733e-18)
(460.42352 0.043088651 5.3086527e-17)
(459.96239 0.076527956 -2.4107443e-17)
(459.62041 -0.10406288 3.1377783e-17)
(460.71381 0.15429606 8.9397574e-18)
(458.92102 -0.095130321 5.199632e-17)
(461.08552 -0.00081904311 -1.3527267e-17)
(458.74427 0.10797802 4.425314e-17)
(460.95775 -0.1807115 -2.565681e-17)
(459.10939 0.19220301 -1.4703409e-16)
(460.57065 -0.17224131 2.5044339e-17)
(459.4334 0.16391827 5.1282831e-17)
(460.5266 -0.10524993 2.1842466e-16)
(459.12501 0.13400468 5.8656912e-17)
(461.01395 -0.022840259 4.0919233e-17)
(458.39669 -0.0048056301 3.6113015e-17)
(461.48039 0.094275111 1.9534314e-17)
(458.01595 -0.15596215 -1.3471364e-16)
(461.43214 0.058118336 1.9290978e-16)
(458.21181 -0.10673277 -9.0017316e-18)
(461.03957 0.034462015 1.202193e-17)
(458.43263 -0.17847237 1.81855e-17)
(460.68494 0.234782 2.7953003e-17)
(458.66267 -0.16715743 1.9382936e-16)
(459.99353 0.11521742 -1.8280718e-17)
(458.80586 -0.021800678 5.6241159e-17)
(459.55788 0.040928017 1.8949368e-16)
(458.53688 -0.096167175 3.1551145e-17)
(459.28886 0.12050506 -3.2530168e-17)
(458.21544 -0.19118187 -2.0080267e-17)
(459.13004 0.16242018 -1.0932583e-17)
(457.84788 -0.12953324 1.3731302e-16)
(458.79844 0.11422142 1.7394875e-16)
(457.7641 0.022500951 -4.1694736e-18)
(457.99347 0.10243823 -3.1298199e-16)
(457.44096 -0.11640363 -1.7679643e-16)
(457.38084 0.35602798 -4.1917146e-18)
(456.61821 -0.35877492 1.8635282e-16)
(457.12399 0.40630558 -6.4732365e-17)
(455.81897 -0.10355536 -4.4805458e-17)
(456.59544 -0.12669405 7.1056239e-17)
(455.22363 0.25867875 -1.289097e-16)
(455.8349 -0.22160368 -1.7495015e-16)
(454.91224 0.064350671 1.0330608e-16)
(454.96968 0.016291149 1.1041432e-16)
(454.19633 0.010387873 -1.5858431e-16)
(454.16958 -0.010639859 -2.2056307e-16)
(453.42998 -0.13153315 -1.1041692e-16)
(453.83398 -0.026399681 1.1451981e-16)
(452.84186 0.048249372 -5.5595862e-17)
(453.49924 -0.061266444 -9.0400115e-17)
(452.48293 -0.034572672 -5.0992996e-17)
(452.81028 0.029652219 -5.6011763e-17)
(451.86316 -0.071670174 -2.5821465e-17)
(452.02218 -0.074587361 8.2342412e-17)
(451.31237 -0.0016011635 -1.9824083e-16)
(451.5747 -0.0084053842 8.7400512e-17)
(450.79585 0.0027866945 -6.6386096e-17)
(451.02215 0.039777486 -7.2439698e-17)
(449.98133 0.070666265 -6.3279122e-17)
(459.7335 0.14288633 -4.1149112e-17)
(460.08387 -0.16965273 2.8309385e-16)
(459.96268 0.10127986 4.9286679e-16)
(459.82461 -0.11246904 1.8514314e-16)
(460.31406 0.039922604 -5.6780691e-17)
(459.47625 0.055501108 2.2748652e-16)